/*--------------------------------*- C++ -*----------------------------------*\
| =========                 |                                                 |
| \\      /  F ield         | OpenFOAM: The Open Source CFD Toolbox           |
|  \\    /   O peration     | Version:  2.3.0                                 |
|   \\  /    A nd           | Web:      www.OpenFOAM.org                      |
|    \\/     M anipulation  |                                                 |
\*---------------------------------------------------------------------------*/
FoamFile
{
    version     2.0;
    format      ascii;
    class       volScalarField;
    location    "0.41";
    object      nut.air;
}
// * * * * * * * * * * * * * * * * * * * * * * * * * * * * * * * * * * * * * //

dimensions      [0 2 -1 0 0 0 0];

internalField   nonuniform List<scalar> 
6000
(
0.000508432
0.00377605
0.00713777
0.0083942
0.00877572
0.00891692
0.00901828
0.00914328
0.00928843
0.00932686
0.00929761
0.0092425
0.0092181
0.00918473
0.00917151
0.00917505
0.00919397
0.00922735
0.00924459
0.00929182
0.00931882
0.00925753
0.00909026
0.00898654
0.00892244
0.00880588
0.00838515
0.00712943
0.00381254
0.000508876
0.000408513
0.00243663
0.00543151
0.00742907
0.00845023
0.00898327
0.00934057
0.00960451
0.00975407
0.00981876
0.00982464
0.00981109
0.00975105
0.00970763
0.00969537
0.00970452
0.00973104
0.00977212
0.00983009
0.00984484
0.00982706
0.00973813
0.00955477
0.00929452
0.00896154
0.00843699
0.00737033
0.00536978
0.00241296
0.000408822
0.00034266
0.00230026
0.00510483
0.00701823
0.00813971
0.00881513
0.00927425
0.00959288
0.0098374
0.010044
0.0101594
0.0101952
0.010149
0.0100685
0.0100364
0.0100498
0.0101203
0.0101889
0.010208
0.0101434
0.0099974
0.00977758
0.00955744
0.00923609
0.008779
0.00809725
0.00694084
0.00500571
0.00220837
0.000339029
0.00033787
0.00261447
0.00497424
0.00671309
0.00786503
0.00865134
0.0092198
0.00964687
0.00999363
0.0102999
0.0104666
0.0105293
0.0105183
0.0104843
0.010455
0.0104644
0.0105033
0.0105473
0.0105357
0.0104357
0.0102127
0.00990591
0.00958184
0.00915725
0.00858792
0.00779243
0.00661795
0.00486325
0.00252665
0.000331747
0.000344009
0.00272605
0.00486859
0.00649278
0.00767352
0.00855313
0.00922367
0.00975197
0.0101924
0.0105453
0.0107763
0.0108985
0.0109409
0.0109185
0.0108985
0.0109062
0.0109396
0.010952
0.0108749
0.0107261
0.0104367
0.0100691
0.00964456
0.00912502
0.00845557
0.0075717
0.00638032
0.00475451
0.00264913
0.000338171
0.000336523
0.00262118
0.00470021
0.00631128
0.00754847
0.00851675
0.00928649
0.00990968
0.0104035
0.0108399
0.0110817
0.0112532
0.0113388
0.0113273
0.0113176
0.0113251
0.0113496
0.0113389
0.0112038
0.011016
0.0106967
0.0102625
0.00975894
0.00914358
0.00837981
0.0074144
0.0061805
0.00458692
0.00255717
0.000330737
0.000316895
0.00244783
0.00450799
0.00615642
0.00746993
0.00852513
0.00938274
0.0100685
0.0106771
0.0111316
0.0113697
0.011591
0.0117322
0.0117656
0.011764
0.0117759
0.0117776
0.0117087
0.0115155
0.0112989
0.0109861
0.0104689
0.00988937
0.00919528
0.00834538
0.00729888
0.00600357
0.00438585
0.00238439
0.00031081
0.000295605
0.0022071
0.00430047
0.00602287
0.00741765
0.00854972
0.00947022
0.0102306
0.0108676
0.0113586
0.0116377
0.0119148
0.0120753
0.0121282
0.0121561
0.0121575
0.0121335
0.0120517
0.0118098
0.0115228
0.0111744
0.0106219
0.0100052
0.00925388
0.0083337
0.00721048
0.00584039
0.00416084
0.00212226
0.000289151
0.000274626
0.00198052
0.0041108
0.00590562
0.00737673
0.00856856
0.0095326
0.0103054
0.0109959
0.0115204
0.0118983
0.0122025
0.0123316
0.0123994
0.0124526
0.0124393
0.0123914
0.0123281
0.0120882
0.0117213
0.0113084
0.0107246
0.0100788
0.00929207
0.00832373
0.00713931
0.00569452
0.0039486
0.00189239
0.00026764
0.000256337
0.00184157
0.0039675
0.00580909
0.00733411
0.00856396
0.00955822
0.0103543
0.0110811
0.0116589
0.012124
0.0124486
0.0125999
0.0127021
0.0127543
0.0127444
0.0126784
0.012571
0.0123272
0.0118981
0.0114112
0.0107976
0.0101102
0.00930309
0.00830241
0.00707385
0.00556807
0.00378292
0.00174596
0.000249248
0.000247998
0.0018041
0.00386695
0.00572701
0.00728579
0.0085425
0.00955667
0.010387
0.0111393
0.0117749
0.0123087
0.0126884
0.0128881
0.0130139
0.0130754
0.0130556
0.0129632
0.0128235
0.0125312
0.0120502
0.0115128
0.010866
0.0101382
0.00930118
0.00826714
0.00699727
0.00544578
0.00364324
0.00169744
0.000242098
0.000249585
0.00184919
0.00383308
0.00566148
0.0072374
0.00851365
0.00955168
0.0104166
0.0111897
0.01186
0.0124477
0.0129069
0.0131445
0.0132942
0.0133651
0.0133408
0.013226
0.0130565
0.0127081
0.0121745
0.0115872
0.0109129
0.0101542
0.0092872
0.00823524
0.00694786
0.00537807
0.00361918
0.00177304
0.000246499
0.000260668
0.00200054
0.00387723
0.00564521
0.00721758
0.00849807
0.00954874
0.0104341
0.0112155
0.0119031
0.0125508
0.0130998
0.013379
0.0135473
0.0136257
0.013601
0.0134732
0.0132782
0.0128708
0.0122813
0.0116432
0.0109551
0.0101783
0.00928777
0.00821398
0.00690606
0.00538172
0.00375122
0.00203266
0.000262519
0.000277198
0.0022352
0.00404547
0.00569188
0.00722249
0.00850953
0.00956033
0.0104508
0.0112273
0.0119422
0.0126554
0.013271
0.0135874
0.0137671
0.013853
0.0138316
0.0137019
0.0135007
0.0130453
0.0123981
0.0117033
0.0109988
0.0102189
0.00931997
0.00823777
0.00695774
0.00559693
0.00415042
0.00233728
0.000278518
0.000289242
0.00246251
0.00436107
0.00588753
0.00729269
0.00855662
0.00958302
0.0104588
0.0112409
0.0120111
0.0127841
0.0134368
0.0137749
0.0139656
0.0140577
0.0140442
0.0139198
0.01372
0.0132475
0.0125609
0.0118018
0.0110459
0.0102627
0.00938812
0.00834039
0.00718259
0.0060285
0.00456128
0.00255541
0.000286457
0.000298328
0.00265165
0.0047112
0.00619653
0.00746337
0.00863237
0.00960551
0.0104647
0.0112846
0.0121316
0.0129466
0.0136068
0.0139347
0.0141492
0.0142441
0.0142394
0.0141274
0.0139212
0.0134828
0.0127764
0.0119738
0.0111394
0.0103301
0.00946724
0.00851068
0.00751327
0.0063877
0.00483726
0.00266271
0.000294861
0.000307106
0.00278897
0.00500106
0.00651554
0.00768093
0.00873039
0.00965237
0.0105184
0.0114146
0.0123175
0.0131507
0.0137648
0.0140677
0.0142928
0.0143852
0.0143865
0.0142897
0.0140686
0.0137175
0.0130611
0.0122427
0.0113635
0.0104992
0.00959799
0.00873354
0.00782346
0.00666196
0.00501563
0.00273531
0.000296332
0.000316462
0.00288477
0.00519556
0.00676112
0.00790019
0.00886804
0.00976565
0.0107064
0.0116601
0.0125753
0.0133268
0.0138148
0.0141283
0.0143373
0.0144241
0.0144286
0.0143476
0.0141398
0.0138377
0.0133263
0.0125929
0.0117139
0.0107976
0.00982389
0.00897227
0.00806238
0.00685516
0.005156
0.0028096
0.000302203
0.000323279
0.00294708
0.0053073
0.00692627
0.00809621
0.00906611
0.00999731
0.0110092
0.0119703
0.0127696
0.0133477
0.0137544
0.0140566
0.0142344
0.0143089
0.0143174
0.0142614
0.0140911
0.0137992
0.0134058
0.0128549
0.0121053
0.0112014
0.0101952
0.00927458
0.0082767
0.00700497
0.00526402
0.00286336
0.000311344
0.000329594
0.00298887
0.00537022
0.00703428
0.00826734
0.00930074
0.0103027
0.0113082
0.0121408
0.0127289
0.0132013
0.0135916
0.0138474
0.0139992
0.0140887
0.0140976
0.0140331
0.0139073
0.013659
0.0132917
0.0128429
0.0122952
0.0115464
0.0106195
0.00961387
0.00850176
0.00715674
0.00536889
0.00290695
0.000318459
0.000335618
0.00301443
0.00540948
0.00711397
0.00841275
0.00951952
0.0105485
0.0114307
0.0120619
0.0125456
0.0129623
0.0132877
0.0135442
0.013729
0.0138334
0.0138424
0.0137612
0.0136045
0.0133812
0.0130837
0.012705
0.0122455
0.0116614
0.0109166
0.00994275
0.00876026
0.0073538
0.00551346
0.00296818
0.000326898
0.000340983
0.00296753
0.00543298
0.00719546
0.00854749
0.00970064
0.0106679
0.0113749
0.0118788
0.0122837
0.012651
0.0129717
0.0132442
0.0134456
0.0135548
0.0135638
0.0134744
0.0133013
0.013061
0.0127813
0.0124664
0.0121144
0.0116345
0.011009
0.0102306
0.0090792
0.0076122
0.00571072
0.00307284
0.000335774
0.000342141
0.00282571
0.00542609
0.00728513
0.00871485
0.00983347
0.0106194
0.0112847
0.0117467
0.0120839
0.0124379
0.0127391
0.0130016
0.0131984
0.0133128
0.0133213
0.0132308
0.0130589
0.0128361
0.0125688
0.0122576
0.011961
0.0115417
0.0109297
0.0103709
0.00939101
0.00790143
0.00591275
0.00316713
0.00033934
0.000348241
0.00270863
0.00533214
0.00735671
0.00883565
0.00986267
0.0104725
0.0110405
0.0114918
0.0118506
0.0121833
0.0124744
0.0127423
0.0129527
0.0130718
0.0130787
0.0129749
0.0127843
0.0125585
0.0123008
0.0120035
0.0116795
0.0112461
0.0107059
0.0102689
0.00951329
0.00808822
0.00602164
0.00314728
0.000346256
0.00035552
0.0029244
0.00541888
0.00733743
0.008799
0.00977606
0.0102879
0.0107905
0.0112523
0.0116352
0.0119674
0.0122603
0.0125198
0.0127317
0.0128537
0.012861
0.0127539
0.0125673
0.0123141
0.0120379
0.011724
0.0113449
0.0109108
0.0104627
0.0100008
0.00938348
0.00805633
0.00598521
0.00309187
0.000354978
0.000363044
0.00311228
0.00553341
0.00733457
0.00868236
0.00959478
0.0100303
0.0104697
0.0108998
0.0112927
0.0116324
0.0119422
0.0122238
0.0124447
0.0125667
0.0125682
0.0124492
0.0122325
0.0119679
0.0116716
0.0113435
0.0109698
0.0105626
0.0101473
0.00972754
0.00915904
0.00791544
0.00595931
0.00318857
0.000360112
0.000365415
0.00316965
0.00558408
0.00730232
0.00856537
0.00945352
0.00985587
0.0102395
0.0106264
0.0109944
0.0113338
0.0116475
0.0119259
0.0121409
0.0122586
0.0122586
0.0121423
0.0119327
0.0116636
0.0113595
0.0110305
0.0106735
0.0102997
0.00992868
0.00953544
0.0090039
0.00779006
0.00595258
0.00329778
0.000363167
0.000365306
0.0031767
0.00556331
0.00722669
0.00843351
0.00931122
0.0097237
0.0100464
0.010389
0.0107333
0.0110631
0.01137
0.0116382
0.0118414
0.0119513
0.0119502
0.0118395
0.0116386
0.0113757
0.0110754
0.0107517
0.0104113
0.0100675
0.0097385
0.00940943
0.00887878
0.00767787
0.00591659
0.00335167
0.000363926
0.000360424
0.003118
0.00548054
0.00710817
0.00828068
0.00916474
0.00960785
0.009872
0.0101681
0.0104885
0.0108062
0.0111027
0.0113587
0.0115494
0.0116512
0.0116494
0.0115451
0.0113543
0.0111013
0.0108086
0.0104933
0.0101674
0.00984859
0.00955777
0.00930857
0.00876535
0.00756508
0.00585929
0.00334896
0.000362259
0.000349069
0.00301578
0.00534219
0.00694699
0.00810434
0.0090131
0.00952666
0.00968071
0.00994357
0.0102456
0.0105531
0.010841
0.0110867
0.0112674
0.0113626
0.0113607
0.0112623
0.0110811
0.0108373
0.0105523
0.0102438
0.00992916
0.00963049
0.00937719
0.0092377
0.0086526
0.00744141
0.00578132
0.00331963
0.000359173
0.00033384
0.0027856
0.00514681
0.00675827
0.00791219
0.00883879
0.00939818
0.00949573
0.0097156
0.0099986
0.0102986
0.0105813
0.010821
0.0109952
0.0110864
0.0110847
0.0109914
0.0108174
0.0105804
0.0102997
0.00999465
0.00968742
0.00940959
0.0092042
0.00911235
0.00850704
0.00730051
0.00568431
0.00327766
0.000354394
0.00032188
0.00260853
0.00495303
0.00657359
0.00771726
0.00864587
0.00923707
0.00929563
0.00947769
0.00974472
0.0100399
0.0103218
0.0105599
0.0107319
0.0108216
0.010821
0.0107312
0.0105616
0.0103272
0.0100467
0.00974072
0.00943811
0.00917903
0.009015
0.0089467
0.00831955
0.00714071
0.00556752
0.00321683
0.000348484
0.000322765
0.00258938
0.00482333
0.0064215
0.00753489
0.00844518
0.00903765
0.00907197
0.00922721
0.00948237
0.00977646
0.0100613
0.0103025
0.0104762
0.0105672
0.0105682
0.0104804
0.0103119
0.0100766
0.00979272
0.00948492
0.00918862
0.00895327
0.00882998
0.00876601
0.00810438
0.00696484
0.00543973
0.0031502
0.000341048
0.000326859
0.0027199
0.00481711
0.00632715
0.00738341
0.00825312
0.008826
0.00884533
0.0089725
0.00921629
0.00951011
0.00980055
0.0100483
0.0102274
0.010322
0.0103254
0.0102382
0.0100684
0.00982941
0.00954151
0.00923393
0.00895037
0.00874671
0.00867907
0.0085724
0.00788426
0.00678678
0.00530784
0.00307552
0.000334166
0.000323728
0.00282056
0.00488941
0.00629475
0.00727878
0.00808912
0.00861352
0.0086148
0.00872291
0.00895369
0.0092458
0.0095419
0.00979839
0.00998534
0.0100856
0.0100917
0.0100045
0.00983152
0.00958777
0.00929656
0.00899341
0.00872823
0.00856147
0.00854287
0.00839867
0.00768426
0.00662081
0.00518228
0.00300189
0.000328509
0.000314089
0.00284832
0.00492123
0.00627076
0.00720139
0.00795394
0.00841835
0.0083933
0.00848815
0.00870384
0.00898985
0.00928953
0.00955451
0.00975078
0.00985791
0.00986729
0.00977919
0.0096022
0.00935327
0.00906057
0.00876503
0.00852185
0.00839121
0.00841774
0.00824786
0.00750923
0.00647219
0.00506865
0.00293708
0.000324377
0.000303697
0.00281481
0.00489097
0.00622184
0.00712654
0.0078482
0.00826188
0.00821965
0.00828423
0.00847598
0.00874946
0.00904805
0.00931971
0.00952492
0.00963946
0.00965209
0.00956281
0.00938108
0.00912737
0.00883436
0.00854861
0.00832782
0.00823142
0.00829972
0.00810967
0.00735325
0.00633815
0.00496455
0.00287516
0.00032101
0.00029499
0.00275439
0.004836
0.00615525
0.00704854
0.00776518
0.0081414
0.00807153
0.00810754
0.00827266
0.00852865
0.00882175
0.00909689
0.00930981
0.00943115
0.00944685
0.00935576
0.00916918
0.00891093
0.00861907
0.00834429
0.00814625
0.00808089
0.00818124
0.00797821
0.00721126
0.00621919
0.0048697
0.00281107
0.000318075
0.000287483
0.00271411
0.00478448
0.00608799
0.00697358
0.00769403
0.00803981
0.00794855
0.00795688
0.00809403
0.00832966
0.00861327
0.00888884
0.00910727
0.00923441
0.00925229
0.00915897
0.00896721
0.0087052
0.00841566
0.00815345
0.00797755
0.00793983
0.00806522
0.00785048
0.00708067
0.00611456
0.00478966
0.00275975
0.000315193
0.000280245
0.0026826
0.00473348
0.00602557
0.00690573
0.00762736
0.00795564
0.00784512
0.00782859
0.00793831
0.00815209
0.00842394
0.00869709
0.00891908
0.00905039
0.00906955
0.00897318
0.00877633
0.00851129
0.00822601
0.00797796
0.00782472
0.00781085
0.00794816
0.00772651
0.00695992
0.0060241
0.00473492
0.0027397
0.000310792
0.000272333
0.00263623
0.00466316
0.0059551
0.00683731
0.00755759
0.00788483
0.00776062
0.00771899
0.00780177
0.00799424
0.00825317
0.00852244
0.00874606
0.00888023
0.00889931
0.00879932
0.00859723
0.00833039
0.00805127
0.00781997
0.00769047
0.00769956
0.00784755
0.00761041
0.00684556
0.00594424
0.00470038
0.00273813
0.000301766
0.000264457
0.00256957
0.00456975
0.00586549
0.00675968
0.007478
0.00782171
0.00769151
0.00762381
0.00768151
0.00785355
0.00809987
0.00836434
0.00858859
0.00872412
0.0087422
0.00863768
0.00843052
0.00816259
0.00789158
0.00767849
0.00757413
0.00760568
0.00775648
0.00749054
0.00673683
0.00586793
0.0046654
0.00272493
0.000288925
0.000255636
0.00249041
0.00446423
0.00576108
0.00666848
0.00739196
0.00775975
0.00763786
0.00754303
0.00757666
0.00772933
0.00796305
0.00822237
0.00844614
0.00858219
0.00859798
0.00848842
0.00827594
0.00800765
0.00774527
0.00755119
0.00747113
0.00752601
0.00767292
0.00736082
0.00662295
0.00578118
0.00459585
0.00266581
0.000275065
0.000246097
0.00240457
0.00435909
0.00565948
0.00657643
0.00731045
0.00770533
0.00759816
0.00747952
0.00748996
0.00762277
0.00784325
0.00809617
0.00831848
0.00845372
0.00846644
0.00835104
0.00813335
0.00786496
0.00761189
0.0074373
0.00738736
0.00746756
0.00758749
0.00721294
0.00649548
0.00566862
0.00448056
0.00257413
0.000261996
0.000237201
0.0023188
0.00426561
0.00557705
0.00650238
0.00724503
0.00766316
0.00757771
0.00743567
0.00742342
0.00753598
0.00774132
0.00798605
0.00820487
0.00833786
0.00834647
0.00822514
0.00800252
0.00773509
0.00749163
0.00733651
0.00731093
0.00741669
0.00748311
0.00704291
0.00635559
0.00553537
0.0043452
0.0024728
0.000250993
0.0002298
0.00222883
0.004193
0.00552154
0.00645042
0.00719559
0.00763724
0.00757008
0.00741066
0.00737828
0.00746972
0.00765819
0.00789172
0.0081046
0.00823323
0.00823697
0.00810979
0.00788372
0.0076188
0.00738589
0.00724427
0.0072303
0.00735867
0.0073646
0.00688271
0.00621786
0.00540058
0.00421497
0.0023771
0.000240176
0.000225219
0.00215454
0.00415502
0.00549219
0.00641579
0.00714697
0.00760984
0.00756836
0.00740093
0.00735102
0.0074222
0.00759193
0.00781181
0.00801576
0.00813825
0.00813625
0.00800422
0.00777657
0.00751715
0.00729798
0.00717825
0.00719059
0.00733343
0.00726488
0.00675524
0.00610458
0.00528681
0.00409768
0.00228486
0.000229547
0.000228947
0.00223517
0.00418168
0.00548975
0.00638588
0.00709287
0.0075686
0.00755991
0.00739804
0.00733398
0.00738646
0.00753757
0.00774218
0.00793532
0.00805004
0.00804239
0.00790683
0.00768029
0.00742849
0.00722383
0.00712242
0.00715316
0.00731355
0.00718081
0.00666774
0.00603198
0.00520715
0.00399823
0.00218834
0.000220989
0.000233951
0.00231439
0.00422761
0.00549623
0.00636053
0.00704395
0.00752394
0.00754922
0.00738739
0.00731443
0.00735254
0.00748721
0.0076771
0.00785848
0.00796514
0.00795251
0.00781609
0.00759382
0.00735257
0.00716282
0.00707804
0.00712418
0.00726397
0.00710816
0.00663207
0.00601014
0.00516505
0.00392816
0.00208142
0.00021358
0.0002336
0.0023283
0.00425937
0.00552715
0.00637723
0.00701803
0.00748475
0.00753618
0.00736521
0.00728622
0.00731369
0.00743487
0.00761082
0.0077807
0.00787955
0.00786417
0.00773058
0.00751766
0.00729142
0.0071204
0.00705266
0.00711476
0.00721985
0.00708677
0.0066606
0.00603933
0.00515719
0.00387539
0.00204635
0.000213222
0.000231911
0.00231214
0.00426727
0.00555826
0.00640653
0.00701775
0.00744934
0.00751696
0.00734947
0.00725732
0.0072735
0.00738059
0.00754162
0.00769987
0.00779211
0.00777695
0.00765214
0.0074556
0.00725259
0.00710841
0.00706711
0.00713916
0.00722469
0.00715406
0.0067594
0.00611165
0.00520342
0.0039139
0.00209542
0.000216387
0.000230299
0.00230582
0.00426851
0.00557737
0.00643937
0.00704624
0.00745207
0.00751785
0.00736015
0.00724943
0.00724657
0.0073359
0.00747933
0.00762343
0.00770953
0.00769894
0.00759025
0.00742047
0.00725177
0.00714596
0.00713939
0.00720388
0.00731921
0.00729776
0.0068991
0.00621295
0.00528673
0.00396844
0.0021
0.000217182
0.000228907
0.00230332
0.00427462
0.00559577
0.00647388
0.00709533
0.00750981
0.00757577
0.00741467
0.00729272
0.00726595
0.00732997
0.00745054
0.00757843
0.00765929
0.00765768
0.00757359
0.00744033
0.00731371
0.00724657
0.00725622
0.0073316
0.00746348
0.00745117
0.00705124
0.00632951
0.00538263
0.0040408
0.00212913
0.000217158
0.000227497
0.00229738
0.00427999
0.00561577
0.00650808
0.00714851
0.00759541
0.0076821
0.00751919
0.0073877
0.00734355
0.00738364
0.00748094
0.00759182
0.00766782
0.00767748
0.00762135
0.00752572
0.00743658
0.00739445
0.00741126
0.00748224
0.00758206
0.00756555
0.00719256
0.00644882
0.00548349
0.00412544
0.00217288
0.000218287
0.000225691
0.00228617
0.00427884
0.00562893
0.00653469
0.00719328
0.00767359
0.00778746
0.0076371
0.00751105
0.0074624
0.00748819
0.00756829
0.00766499
0.00773626
0.00775552
0.0077238
0.00766004
0.00759697
0.00756288
0.00756573
0.00759471
0.00763361
0.0076261
0.0073017
0.0065614
0.00558078
0.00420671
0.00222011
0.00021906
0.000223434
0.00226687
0.00426864
0.00563262
0.00654936
0.00722013
0.00772585
0.00786066
0.00772807
0.00762327
0.00758675
0.00761258
0.00768455
0.00777083
0.00783639
0.00786051
0.007845
0.00780152
0.0077482
0.00770462
0.0076766
0.00765256
0.0076342
0.00763054
0.00737039
0.00665839
0.0056665
0.00427677
0.00226042
0.000217993
0.00022089
0.00224278
0.00424963
0.00562554
0.00655081
0.00722722
0.00774622
0.00789626
0.00777855
0.00770011
0.00768475
0.00772019
0.00778923
0.00786211
0.00791815
0.00794575
0.00794193
0.00790896
0.00785429
0.00779471
0.0077359
0.00767242
0.00762403
0.00760701
0.0074036
0.00672909
0.00573031
0.00432599
0.00228438
0.000215026
0.000217741
0.00221948
0.0042238
0.00560626
0.00653758
0.00721553
0.00773784
0.00790206
0.00779603
0.00773943
0.00774331
0.00778828
0.00785652
0.00793098
0.0079864
0.00801039
0.00800177
0.00796692
0.00790823
0.0078367
0.00775874
0.00767814
0.00761182
0.00757522
0.00738857
0.00676076
0.00576292
0.00434594
0.00228569
0.000211497
0.000213966
0.00219283
0.00418811
0.00557251
0.00650789
0.00718567
0.00770715
0.00788765
0.00779022
0.00774786
0.00776278
0.00781024
0.00787187
0.00793557
0.00798812
0.00801226
0.00800392
0.0079739
0.00791789
0.00784332
0.00775988
0.00767429
0.00759486
0.00753265
0.00733665
0.00674202
0.00576054
0.00433538
0.00226904
0.00020799
0.000209712
0.00215878
0.0041389
0.0055222
0.00646027
0.00713716
0.00765745
0.00785419
0.00776313
0.0077309
0.00774929
0.00779308
0.00784528
0.00789737
0.00793977
0.00796218
0.00796127
0.00793957
0.00789146
0.00782114
0.00773892
0.00765575
0.0075715
0.00748134
0.00725718
0.00667451
0.00571747
0.00429441
0.00224062
0.000204803
0.000205409
0.00211704
0.00407569
0.00545578
0.00639544
0.00707075
0.00759097
0.00780094
0.00771718
0.00769387
0.00771259
0.0077514
0.00779503
0.00783698
0.00787083
0.00789042
0.0078934
0.00787825
0.00783745
0.00777252
0.00769382
0.00761739
0.00754215
0.00742767
0.0071518
0.00656971
0.00563209
0.0042252
0.00220557
0.000201784
0.000201468
0.00207043
0.00400118
0.00537653
0.00631667
0.0069884
0.0075059
0.00772391
0.00765649
0.00764495
0.00766666
0.00770458
0.00774367
0.00777862
0.00780536
0.00782015
0.00782118
0.00780595
0.00776795
0.00770649
0.00763223
0.00756501
0.00750378
0.00735627
0.00702233
0.00641873
0.00549335
0.00412068
0.00216344
0.000197676
0.000198139
0.00202338
0.00392
0.00528883
0.00622856
0.00689294
0.00739699
0.00761681
0.00758503
0.00759081
0.00762227
0.00766507
0.0077043
0.00773542
0.00775621
0.00776434
0.00775902
0.00773813
0.0076976
0.00763592
0.00756308
0.00750366
0.00743977
0.00724613
0.00685607
0.00621794
0.00527636
0.00393861
0.00207378
0.00019443
0.000195627
0.00198074
0.00383768
0.00519655
0.0061346
0.00678757
0.00726113
0.00748002
0.0075052
0.00753241
0.00757844
0.00762956
0.00767218
0.0077021
0.00771848
0.00772013
0.00770745
0.00767859
0.00763116
0.0075646
0.00748698
0.00742347
0.00732923
0.00709094
0.00664171
0.00597604
0.00501529
0.00370763
0.00196075
0.000191717
0.000193994
0.00194772
0.00376009
0.00510276
0.00603601
0.00667387
0.00710419
0.00732912
0.00741808
0.00746724
0.00752707
0.00758676
0.00763394
0.00766451
0.00767827
0.00767484
0.00765513
0.00761767
0.00756112
0.00748565
0.00739788
0.0073139
0.00716907
0.00687934
0.00640109
0.00571218
0.00475712
0.00350101
0.00185077
0.000186939
0.000193092
0.00192741
0.00369032
0.0050076
0.00593078
0.00655063
0.00694482
0.00718369
0.00732159
0.00739168
0.00746207
0.00752817
0.00757858
0.00760961
0.00762146
0.00761416
0.00758885
0.00754408
0.00747884
0.00739276
0.00729071
0.00717186
0.00697236
0.00664121
0.00614853
0.00545652
0.00452533
0.0033219
0.00174021
0.000178568
0.00019324
0.00192121
0.00362657
0.00489966
0.00580285
0.00639947
0.00678032
0.00703332
0.00720329
0.00729897
0.00737907
0.00744866
0.00749971
0.00752945
0.00753867
0.00752779
0.00749825
0.0074481
0.00737609
0.00728093
0.0071626
0.00700398
0.00676639
0.00639963
0.00590268
0.00522796
0.0043368
0.003172
0.00164018
0.000170003
0.000195375
0.00191693
0.00354999
0.00475508
0.0056097
0.00619963
0.00659138
0.00686656
0.00704931
0.00718046
0.00727378
0.00734602
0.00739541
0.00742183
0.00742724
0.00741237
0.00737919
0.00732524
0.00724835
0.00714599
0.00701123
0.00682199
0.00655206
0.00616741
0.00567514
0.00502852
0.00418273
0.00304704
0.00156083
0.000162361
0.000201577
0.00190891
0.00342273
0.00454432
0.00537315
0.00597091
0.00639188
0.00668284
0.00687921
0.00703591
0.00714497
0.00721999
0.00726678
0.00728906
0.00729
0.0072705
0.00723328
0.00717607
0.00709513
0.00698587
0.00683496
0.00663118
0.00633587
0.00593995
0.00545369
0.00484615
0.00404779
0.0029482
0.00150362
0.000156323
0.000202801
0.00186482
0.00324594
0.0043014
0.0051244
0.00573033
0.00617951
0.00649094
0.00670739
0.00687513
0.00699481
0.00707338
0.00711865
0.00713748
0.00713412
0.00710971
0.00706751
0.00700582
0.00691956
0.00680213
0.00664131
0.00642537
0.00611948
0.00572154
0.00524744
0.00467696
0.00392802
0.00286933
0.00146202
0.000152197
0.000206068
0.00182232
0.00310241
0.00406805
0.00487331
0.00548508
0.00595185
0.00628276
0.00652118
0.00669944
0.00682552
0.0069084
0.00695491
0.0069726
0.00696643
0.00693789
0.00689035
0.0068224
0.00672864
0.00660245
0.00643469
0.0062097
0.00590302
0.00551542
0.00506657
0.00452204
0.00381588
0.00280033
0.00142943
0.000150468
0.000206297
0.00174919
0.0029623
0.00388819
0.00464072
0.00524472
0.00572051
0.00605636
0.00631041
0.00649869
0.00663331
0.00672253
0.00677412
0.00679459
0.00678846
0.00675781
0.00670561
0.00663066
0.00652873
0.00639371
0.00621839
0.00598967
0.00569347
0.0053307
0.00490925
0.00438404
0.00370612
0.00273769
0.00141244
0.000150956
0.000205735
0.00170613
0.00289786
0.00370549
0.00441898
0.0050174
0.00549641
0.00583562
0.00608734
0.00627547
0.00641716
0.0065152
0.00657447
0.00660058
0.00659747
0.00656729
0.0065124
0.0064321
0.00632347
0.00618141
0.00600164
0.00577821
0.00550126
0.0051668
0.00476353
0.00426063
0.00360698
0.00268281
0.00141558
0.000155183
0.000208095
0.00165784
0.0028098
0.00355643
0.0042192
0.00479574
0.00527795
0.00562362
0.00587227
0.00604921
0.00618802
0.006293
0.00636164
0.00639544
0.00639773
0.00637017
0.00631504
0.00623212
0.00611963
0.00597341
0.00579344
0.005584
0.00533077
0.00501484
0.00461897
0.00413551
0.00351294
0.0026252
0.00144329
0.000164676
0.000207743
0.0015767
0.00269532
0.00342965
0.00400603
0.00457758
0.00504995
0.00540774
0.00566102
0.00583398
0.00596427
0.00606732
0.00614356
0.00618754
0.00619773
0.00617511
0.00612178
0.00603774
0.00592187
0.00577202
0.0055977
0.00540509
0.00517439
0.00486081
0.00446144
0.00398551
0.00338992
0.00251178
0.0013758
0.000168792
0.000201836
0.00142892
0.00254394
0.00331622
0.00380212
0.00432935
0.0048176
0.00517227
0.00544109
0.00562268
0.00575177
0.00585311
0.00593124
0.00598397
0.006004
0.00598817
0.00593817
0.00585346
0.00573398
0.0055835
0.0054159
0.00523496
0.00500998
0.00468507
0.00427676
0.00379118
0.00317279
0.0023217
0.00126002
0.00016617
0.000188126
0.00125169
0.00235226
0.00310619
0.00367856
0.00408312
0.00454992
0.00492435
0.00519601
0.00539867
0.00553796
0.00564586
0.00573261
0.00579374
0.00582385
0.0058164
0.00577074
0.00568662
0.00556539
0.00541495
0.00524422
0.00506925
0.00483334
0.00448674
0.00405786
0.00355085
0.00288726
0.00212602
0.00112791
0.000155514
0.000176119
0.00114644
0.00217897
0.00292168
0.00349051
0.00389452
0.00429089
0.00467329
0.00495621
0.0051707
0.00532441
0.00543746
0.00553839
0.00561573
0.00565967
0.0056629
0.00562285
0.00554014
0.0054168
0.00525805
0.00508275
0.00490026
0.00464465
0.00427075
0.00381793
0.00328245
0.00260386
0.00188381
0.0010006
0.000146821
0.0001667
0.00109011
0.00205315
0.00275984
0.00328142
0.00369377
0.0040394
0.00438677
0.00470021
0.00494094
0.0051168
0.0052422
0.00534817
0.00544196
0.00550085
0.00551576
0.00548245
0.00540225
0.00527694
0.00511224
0.00492681
0.00472838
0.00444985
0.00405119
0.00358181
0.00302977
0.00236289
0.00169045
0.000913843
0.000143087
0.000162593
0.00106487
0.00196202
0.00261196
0.0030955
0.00347587
0.00389108
0.00419685
0.00443356
0.00468879
0.00490012
0.00505774
0.00517467
0.00527832
0.00534992
0.00537596
0.00535011
0.00527344
0.00514652
0.00497553
0.00477693
0.00455677
0.00425723
0.00384526
0.00336903
0.0028193
0.00216953
0.00150932
0.000819496
0.000139484
0.000161229
0.00103186
0.00184561
0.00243275
0.00288684
0.00327248
0.00371133
0.00405807
0.00430082
0.00446856
0.00466182
0.00485471
0.00500573
0.00512004
0.00520705
0.0052446
0.00522659
0.00515356
0.00502549
0.00484714
0.0046334
0.00439156
0.00407828
0.00366637
0.00319062
0.00265187
0.00202263
0.00135155
0.000684877
0.000132347
0.000158288
0.000942795
0.00165654
0.00220905
0.00267358
0.0031039
0.00357148
0.00395134
0.00423696
0.00438715
0.00450177
0.00466979
0.00484734
0.0049791
0.00507585
0.00512337
0.00511292
0.00504351
0.00491412
0.00472813
0.00449949
0.00424034
0.00392335
0.00352055
0.00305381
0.00252883
0.00191868
0.00124875
0.000570414
0.000125132
0.000150661
0.000745369
0.00140523
0.00198205
0.00250256
0.00299297
0.00345775
0.00385302
0.00417046
0.00436463
0.00443668
0.00454636
0.00470365
0.00485158
0.00495774
0.00501451
0.00501083
0.00494498
0.00481417
0.0046219
0.00438155
0.00411142
0.00379761
0.00340891
0.00295977
0.0024557
0.00186281
0.00120625
0.000534289
0.000120958
0.000138659
0.000525501
0.00117623
0.00181376
0.0024093
0.00292957
0.0033879
0.00377904
0.00407607
0.0042964
0.00440675
0.00448266
0.0045964
0.00474512
0.0048554
0.00492068
0.00492282
0.0048596
0.00472715
0.00453173
0.0042864
0.00401208
0.00370622
0.0033328
0.00290576
0.0024266
0.00185349
0.00120623
0.000532424
0.000119126
0.000127611
0.000406172
0.00106557
0.00175866
0.00239672
0.00291776
0.00335911
0.00372973
0.00400933
0.00419822
0.00435114
0.00444796
0.00453212
0.00465613
0.00477734
0.00484474
0.00485076
0.00478949
0.00465624
0.00446004
0.00421547
0.00394551
0.00365144
0.00329273
0.00288859
0.00243372
0.0018826
0.0012327
0.000531712
0.000117744
0.000120011
0.000398126
0.00109644
0.00181391
0.00244623
0.00294877
0.00336123
0.00370255
0.00396192
0.00412479
0.00425963
0.00439018
0.00449375
0.00459822
0.00471271
0.00478382
0.00479444
0.00473492
0.00460412
0.00441146
0.00417154
0.00391104
0.00363137
0.00328825
0.00290603
0.00247198
0.00193308
0.0012724
0.000542422
0.000117082
0.000116859
0.000442199
0.0011869
0.00191912
0.00253114
0.00300484
0.00338248
0.00369003
0.00392862
0.00407423
0.00420559
0.00432664
0.00444765
0.00456312
0.00466779
0.0047395
0.0047535
0.00469537
0.00457074
0.00438715
0.00415736
0.00390758
0.00364141
0.00331738
0.00295658
0.00254423
0.00201909
0.00136143
0.000594607
0.000117601
0.000116843
0.000525691
0.00131729
0.00204105
0.00262782
0.00307177
0.00341433
0.00368801
0.0039077
0.00404727
0.00417312
0.00428698
0.00439303
0.00450938
0.00462703
0.00470577
0.00472326
0.0046682
0.00455286
0.00438313
0.00416821
0.0039291
0.00367426
0.00337719
0.00303751
0.0026378
0.00212708
0.00147535
0.000685551
0.000120222
0.000118767
0.000653217
0.00147737
0.00218392
0.00273249
0.00314329
0.00345489
0.00369876
0.00389478
0.00403401
0.00415499
0.0042642
0.00436498
0.00447477
0.00458573
0.00467656
0.00469284
0.00464861
0.0045465
0.00439432
0.00419746
0.00397255
0.00372909
0.00346425
0.00315446
0.00276004
0.0022567
0.00159592
0.000782486
0.000124626
0.000122636
0.000781252
0.00163374
0.00232158
0.002839
0.00321889
0.00350396
0.00372177
0.00389081
0.00402821
0.00414969
0.00425484
0.00435096
0.00445546
0.00456672
0.00464846
0.0046728
0.00463864
0.00455149
0.00441969
0.00424538
0.00404316
0.00381626
0.00357795
0.0032914
0.00290672
0.00240649
0.00172733
0.000874485
0.000129474
0.000126607