/*--------------------------------*- C++ -*----------------------------------*\
| =========                 |                                                 |
| \\      /  F ield         | OpenFOAM: The Open Source CFD Toolbox           |
|  \\    /   O peration     | Version:  2.3.0                                 |
|   \\  /    A nd           | Web:      www.OpenFOAM.org                      |
|    \\/     M anipulation  |                                                 |
\*---------------------------------------------------------------------------*/
FoamFile
{
    version     2.0;
    format      ascii;
    class       volScalarField;
    location    "0.41";
    object      nut.particles;
}
// * * * * * * * * * * * * * * * * * * * * * * * * * * * * * * * * * * * * * //

dimensions      [0 2 -1 0 0 0 0];

internalField   nonuniform List<scalar> 
6000
(
1.50592e-05
1.28213e-05
1.33851e-05
2.18958e-05
3.8634e-05
3.66105e-05
3.2447e-05
2.62997e-05
1.45178e-05
1.06318e-05
1.04934e-05
1.09713e-05
1.09503e-05
1.11756e-05
1.24204e-05
1.22252e-05
1.10715e-05
1.10188e-05
1.17517e-05
1.08532e-05
1.25009e-05
1.99798e-05
3.12655e-05
3.48456e-05
3.49096e-05
3.11682e-05
1.93703e-05
1.3422e-05
1.26291e-05
1.49133e-05
2.75784e-06
6.44433e-07
9.89905e-07
1.12579e-06
1.02312e-06
1.72319e-06
2.34721e-06
2.75452e-06
2.77906e-06
1.80242e-06
1.72529e-06
2.26444e-06
3.16467e-06
4.10294e-06
4.44766e-06
3.9347e-06
3.46147e-06
2.59145e-06
1.95061e-06
1.56986e-06
1.98243e-06
2.45887e-06
2.89158e-06
2.60312e-06
1.45032e-06
8.41432e-07
1.05077e-06
1.12087e-06
6.30905e-07
2.47729e-06
9.36574e-06
4.18556e-06
3.34813e-06
1.96385e-06
8.70865e-07
1.23381e-06
1.86782e-06
1.99564e-06
3.34266e-06
6.1154e-06
6.22439e-06
6.64793e-06
7.31029e-06
6.51026e-06
1.15011e-05
9.29659e-06
5.07746e-06
7.26087e-06
4.69794e-06
5.49742e-06
4.23859e-06
2.27262e-06
1.76971e-06
1.63065e-06
1.32008e-06
1.33501e-06
2.14153e-06
3.67625e-06
4.48584e-06
8.75785e-06
7.27876e-06
4.69854e-07
3.86976e-07
5.71971e-07
4.10067e-07
2.90833e-07
3.80322e-07
7.36369e-07
6.15389e-07
1.57967e-06
3.31279e-06
4.50754e-06
4.68267e-06
6.35762e-06
1.00491e-05
8.18157e-06
4.34994e-06
4.17219e-06
3.53477e-06
2.25698e-06
9.22798e-07
7.05476e-07
6.92081e-07
3.92387e-07
3.20263e-07
5.20296e-07
4.24245e-07
4.32835e-07
5.91806e-07
7.92477e-06
3.20406e-06
1.42796e-07
2.34457e-07
2.74374e-07
2.53296e-07
1.31368e-07
1.82444e-07
3.06516e-07
2.10834e-07
3.35019e-07
1.59689e-06
4.87973e-06
7.45339e-06
8.94189e-06
1.07293e-05
9.43753e-06
7.74986e-06
5.74304e-06
3.51151e-06
8.58439e-07
2.06916e-07
2.99887e-07
3.33877e-07
1.6883e-07
1.37948e-07
2.08116e-07
2.14546e-07
2.75086e-07
2.30239e-07
3.41083e-06
1.64184e-06
1.03184e-07
9.31987e-08
1.43736e-07
1.48244e-07
1.16737e-07
1.32767e-07
2.17771e-07
1.16946e-07
1.44102e-07
2.66517e-07
3.45274e-06
8.27938e-06
1.31607e-05
1.23446e-05
1.30479e-05
1.08288e-05
5.47242e-06
1.48459e-06
1.79473e-07
1.38134e-07
1.73263e-07
2.35527e-07
1.28239e-07
9.66224e-08
1.1666e-07
1.51638e-07
1.18978e-07
1.45641e-07
1.76785e-06
1.48895e-06
1.49901e-07
1.12559e-07
9.12835e-08
1.06666e-07
1.19041e-07
2.05706e-07
2.91134e-07
1.58128e-07
2.52915e-07
3.4665e-07
4.70065e-06
9.68604e-06
1.08209e-05
1.1803e-05
1.17533e-05
1.14267e-05
7.44491e-06
1.87981e-06
3.22492e-07
2.12571e-07
1.8699e-07
2.87732e-07
1.73505e-07
1.18702e-07
1.20263e-07
1.28713e-07
7.90304e-08
1.9859e-07
1.5371e-06
1.45916e-06
1.54277e-07
1.4174e-07
9.99122e-08
9.95933e-08
2.0965e-07
4.1728e-07
3.73057e-07
1.99125e-07
5.82239e-07
2.99746e-06
6.05953e-06
2.05877e-06
1.1015e-06
1.81277e-06
1.38573e-06
1.43777e-06
5.25727e-06
5.80682e-06
1.25401e-06
3.05477e-07
2.2074e-07
4.38037e-07
3.22679e-07
1.66919e-07
1.1525e-07
9.54284e-08
1.6196e-07
2.01288e-07
1.48315e-06
1.58227e-06
1.63814e-07
1.48353e-07
9.5195e-08
1.0823e-07
3.81533e-07
7.22173e-07
2.91495e-07
2.74794e-07
3.07652e-06
4.96164e-06
1.20725e-06
9.47421e-08
9.69429e-08
4.80784e-08
7.41774e-08
9.83634e-08
5.36442e-07
3.97208e-06
5.64106e-06
5.76962e-07
1.96296e-07
5.73706e-07
6.53235e-07
2.22081e-07
1.19142e-07
9.34223e-08
1.84887e-07
1.8814e-07
1.59804e-06
1.86014e-06
1.66194e-07
1.58614e-07
1.16772e-07
1.5328e-07
3.30184e-07
7.73142e-07
5.34256e-07
3.17774e-07
4.26418e-06
2.64594e-06
1.76626e-07
5.24751e-08
6.28341e-08
5.98388e-08
6.20494e-08
5.19374e-08
1.03627e-07
1.18329e-06
5.09902e-06
1.21196e-06
1.75993e-07
7.7515e-07
6.98078e-07
2.72773e-07
1.58203e-07
1.28943e-07
1.9005e-07
1.78784e-07
1.89749e-06
2.33956e-06
1.94708e-07
1.71725e-07
1.70532e-07
1.9056e-07
4.52557e-07
7.10952e-07
4.22877e-07
1.897e-07
4.49679e-06
4.31612e-06
3.83655e-07
1.10562e-07
7.89494e-08
8.3726e-08
8.2846e-08
8.69856e-08
2.48065e-07
2.72061e-06
6.66412e-06
7.01032e-07
3.20532e-07
8.36747e-07
7.26281e-07
3.73953e-07
1.69227e-07
1.9198e-07
1.71032e-07
2.48168e-07
2.47982e-06
3.0306e-06
2.34297e-07
1.6855e-07
1.86722e-07
1.43246e-07
3.60362e-07
8.01938e-07
7.72477e-07
4.22366e-07
2.23096e-06
6.68816e-06
1.65991e-06
2.39334e-07
1.36945e-07
1.22371e-07
1.30363e-07
1.83115e-07
8.74297e-07
5.7294e-06
5.44122e-06
6.77662e-07
6.55322e-07
9.82706e-07
6.71958e-07
2.8231e-07
1.76271e-07
1.84356e-07
1.94503e-07
4.04802e-07
3.7428e-06
3.87423e-06
3.8153e-07
1.90015e-07
1.83779e-07
1.86884e-07
3.38345e-07
5.41625e-07
5.89875e-07
5.7163e-07
1.56435e-06
8.94118e-06
4.51789e-06
5.91346e-07
1.92052e-07
1.66084e-07
1.70597e-07
2.99072e-07
2.1389e-06
9.51356e-06
4.4289e-06
1.01367e-06
5.43162e-07
5.36147e-07
4.62288e-07
2.72544e-07
2.08151e-07
2.02847e-07
3.38656e-07
9.36894e-07
2.06421e-05
4.12078e-06
6.86876e-07
2.43957e-07
2.22413e-07
2.66176e-07
3.5107e-07
4.81868e-07
4.26931e-07
7.76191e-07
2.04532e-06
6.58586e-05
8.36563e-06
1.55571e-06
2.34087e-07
1.88103e-07
2.04693e-07
4.00232e-07
4.01991e-06
4.9956e-05
3.49502e-06
1.53378e-06
6.12766e-07
4.52769e-07
4.49516e-07
3.17332e-07
2.7628e-07
2.92572e-07
7.32387e-07
2.6363e-06
0.00217911
0.00027012
1.31649e-06
4.60137e-07
2.66588e-07
3.37828e-07
4.07097e-07
4.90664e-07
5.56762e-07
1.24212e-06
3.05815e-06
0.00034177
1.21315e-05
1.78985e-06
2.52929e-07
2.28915e-07
2.32413e-07
3.78366e-07
4.95432e-06
0.000208368
6.52655e-05
2.67148e-06
1.14904e-06
6.12096e-07
4.94393e-07
4.19171e-07
3.33488e-07
5.52071e-07
1.70675e-06
0.00168349
0.00374799
0.00242998
9.01266e-05
1.00676e-06
3.59887e-07
4.04666e-07
4.75934e-07
5.67973e-07
9.6751e-07
2.62232e-06
0.00011539
0.000429448
1.21589e-05
1.14918e-06
2.9634e-07
2.70158e-07
2.79673e-07
3.02288e-07
3.41816e-06
0.000283431
0.000503674
0.000122908
2.68083e-06
1.0925e-06
6.45598e-07
5.509e-07
4.79814e-07
1.04216e-06
0.00078873
0.00667204
0.00362737
0.00463017
0.00209119
1.8586e-06
6.52687e-07
5.63995e-07
6.39902e-07
8.90074e-07
2.15659e-06
8.3537e-05
0.000423931
0.000427635
5.73767e-06
3.15805e-07
3.18051e-07
3.12541e-07
3.12712e-07
3.28893e-07
6.12207e-07
1.27067e-05
0.000522461
0.00051579
0.000123872
2.39321e-06
1.1252e-06
9.76315e-07
1e-06
3.10915e-06
0.00377121
0.00726311
0.00011894
0.0046191
0.00512997
0.000523562
1.25115e-06
1.03651e-06
1.15897e-06
1.61003e-06
6.00872e-06
0.000348378
0.000427577
1.30094e-05
6.34165e-07
3.30543e-07
3.70498e-07
4.19483e-07
4.08087e-07
3.62274e-07
3.23694e-07
1.50644e-06
1.7099e-05
0.000453395
0.000297341
1.55975e-05
2.15868e-06
2.05073e-06
2.33192e-06
9.72756e-05
0.00564737
0.00743194
4.95167e-05
0.00218038
0.00519234
0.00220385
2.37477e-06
2.04024e-06
2.2986e-06
2.88945e-06
1.30831e-05
4.45913e-05
9.16551e-06
9.6114e-07
4.01946e-07
4.4136e-07
5.7504e-07
6.95353e-07
6.60929e-07
5.365e-07
4.39851e-07
4.31044e-07
1.49222e-06
8.95795e-06
2.42368e-05
1.06552e-05
4.94507e-06
3.86752e-06
3.92673e-06
0.000382641
0.00588528
0.00729587
4.84897e-05
0.00218053
0.0051952
0.00404369
0.000293289
3.12491e-06
2.7522e-05
3.59927e-05
1.10037e-05
5.92378e-06
8.35581e-07
5.50741e-07
5.90536e-07
6.13426e-07
6.28188e-07
1.40393e-05
6.85464e-06
5.93141e-07
5.97744e-07
6.25387e-07
6.23366e-07
9.22932e-07
4.89228e-06
9.96629e-06
7.1106e-06
0.000408305
0.000795834
0.00176922
0.00655185
0.00750819
4.93275e-05
0.00220198
0.00520571
0.00523142
0.00264918
0.00105889
0.00103283
1.15291e-05
7.50105e-06
1.76278e-06
1.01991e-06
8.55469e-07
4.78466e-07
0.000134454
0.000416465
0.000432083
0.000417748
0.000421004
0.000126738
5.94803e-07
9.97233e-07
1.18976e-06
1.49335e-06
5.72637e-06
6.08522e-06
0.000674878
0.00417154
0.00615411
0.00846239
0.00733134
0.000104513
0.00220066
0.00345271
0.00529916
0.00523592
0.00528835
0.00474786
9.87641e-06
5.43291e-06
1.15633e-06
8.51211e-06
0.000361149
0.000461289
0.000426332
0.0004884
0.000426166
0.000508856
0.000426966
0.000484142
0.000428744
0.000435907
1.43832e-05
1.46384e-06
2.45578e-06
6.67329e-06
1.94442e-05
0.00342168
0.00845424
0.00868531
0.00841805
0.000763053
0.00242745
0.000133965
0.00517741
0.00530581
0.00512477
2.90289e-05
3.56656e-05
2.00188e-05
2.50804e-05
7.38793e-05
0.000340666
0.000453794
0.000528982
0.0004462
0.000527071
0.000445373
0.000529557
0.000451069
0.000488236
5.00058e-05
3.68342e-05
2.15302e-05
1.29677e-05
2.25498e-05
7.87833e-06
2.95663e-05
0.00773666
0.00846291
0.0042305
2.37415e-05
0.00014156
8.61119e-06
3.78056e-05
0.00437206
3.43326e-05
3.95316e-06
1.75049e-05
4.04075e-05
3.68411e-05
1.61e-05
1.23229e-05
1.61295e-05
1.97387e-05
2.35229e-05
2.41404e-05
2.33136e-05
1.9496e-05
1.46594e-05
9.15478e-06
7.10654e-06
8.99639e-06
2.84996e-05
2.90836e-05
1.76992e-05
1.97574e-06
5.14736e-06
0.000214765
0.00637205
1.89936e-05
1.32305e-05
1.33351e-05
9.68452e-07
4.93694e-06
1.51095e-05
7.33362e-06
4.73104e-07
1.12757e-06
6.61106e-06
5.05619e-06
1.51253e-06
1.15853e-06
1.30638e-06
1.44347e-06
1.52373e-06
1.58007e-06
1.46357e-06
1.3356e-06
1.08434e-06
8.34213e-07
7.51499e-07
1.09277e-06
4.08375e-06
6.03617e-06
2.3291e-06
3.71563e-07
5.87499e-07
9.75577e-06
2.37476e-05
5.0112e-06
1.12269e-05
5.91054e-06
5.75886e-07
4.97303e-07
3.55916e-06
6.01694e-07
5.08596e-07
8.63078e-08
8.33608e-07
5.86535e-07
4.49632e-08
2.03924e-08
3.28957e-08
4.39972e-08
5.0967e-08
6.25317e-08
6.39366e-08
6.59078e-08
5.90436e-08
5.10677e-08
3.11474e-08
2.26464e-08
4.27183e-07
9.3556e-07
1.71516e-07
2.48099e-07
4.75792e-07
2.83689e-08
5.62922e-06
1.27684e-06
1.05566e-05
5.35077e-06
4.53562e-07
3.87085e-07
2.18057e-07
3.5907e-07
7.03762e-07
1.03238e-07
5.14621e-08
2.06458e-08
2.84272e-08
2.86981e-08
3.60213e-08
4.49882e-08
5.70956e-08
6.13143e-08
6.46759e-08
6.10631e-08
5.62661e-08
4.6536e-08
4.32305e-08
3.28783e-08
2.47572e-08
6.56047e-08
8.15179e-08
2.54796e-07
5.48659e-07
1.45685e-07
6.49771e-07
1.14028e-06
1.00201e-05
4.46137e-06
4.00397e-07
3.18134e-07
2.00445e-07
2.10854e-07
7.48386e-07
2.25397e-07
3.41802e-08
2.45319e-08
2.61417e-08
2.93621e-08
3.28401e-08
4.09045e-08
4.62054e-08
5.0787e-08
5.11356e-08
5.13297e-08
4.56414e-08
4.20474e-08
3.81268e-08
3.51756e-08
2.52602e-08
4.8169e-08
6.98508e-08
2.9321e-07
5.93386e-07
1.82467e-07
6.15027e-07
9.99666e-07
9.4775e-06
3.44885e-06
3.87503e-07
3.1706e-07
1.96928e-07
1.46446e-07
6.49661e-07
3.50475e-07
1.51982e-08
2.16153e-08
2.81623e-08
2.90678e-08
3.31542e-08
3.72544e-08
4.18208e-08
4.23424e-08
4.47062e-08
4.28839e-08
4.21863e-08
3.80107e-08
3.78983e-08
3.1143e-08
2.49971e-08
3.77831e-08
6.87484e-08
2.83534e-07
6.37138e-07
2.94271e-07
6.57511e-07
8.89427e-07
8.72871e-06
2.82519e-06
4.49053e-07
3.41577e-07
2.50869e-07
1.32291e-07
7.09329e-07
3.50351e-07
3.80013e-08
2.22011e-08
2.79681e-08
3.22367e-08
3.30386e-08
3.7494e-08
3.76483e-08
4.00412e-08
3.88441e-08
3.9573e-08
3.77811e-08
3.74327e-08
3.58309e-08
3.45404e-08
2.4821e-08
3.93022e-08
7.06887e-08
2.71164e-07
7.46457e-07
3.81186e-07
6.83636e-07
8.10482e-07
7.99723e-06
2.28263e-06
5.19425e-07
4.20483e-07
3.45487e-07
2.48712e-07
9.90978e-07
2.92404e-07
5.41167e-08
2.3909e-08
3.44361e-08
3.28553e-08
3.53892e-08
3.56917e-08
3.83204e-08
3.64175e-08
3.65832e-08
3.5904e-08
3.64268e-08
3.54001e-08
3.83243e-08
3.46098e-08
3.03204e-08
4.19486e-08
8.34775e-08
2.58794e-07
9.35448e-07
5.43314e-07
6.57241e-07
7.24103e-07
7.25044e-06
2.43143e-06
5.39225e-07
4.88855e-07
4.59327e-07
3.99763e-07
1.55757e-06
2.68126e-07
4.75337e-08
3.24189e-08
3.5956e-08
3.75556e-08
3.55285e-08
3.74864e-08
3.61082e-08
3.56711e-08
3.37452e-08
3.41602e-08
3.39832e-08
3.49122e-08
3.63587e-08
3.87346e-08
3.0341e-08
5.25775e-08
8.36688e-08
3.18643e-07
1.16018e-06
8.04499e-07
7.17511e-07
6.34818e-07
6.53126e-06
3.50633e-06
4.63622e-07
4.93658e-07
5.39735e-07
5.10594e-07
2.19163e-06
2.82023e-07
4.46346e-08
3.2145e-08
4.18783e-08
3.74246e-08
3.67849e-08
3.63482e-08
3.56945e-08
3.32501e-08
3.2562e-08
3.19971e-08
3.21943e-08
3.24635e-08
3.48714e-08
3.5087e-08
3.36238e-08
5.39919e-08
8.38523e-08
4.73718e-07
1.48458e-06
9.71693e-07
7.64644e-07
6.14624e-07
6.01823e-06
5.34601e-06
7.11672e-07
4.64894e-07
5.70003e-07
6.34683e-07
2.3267e-06
3.62703e-07
3.52006e-08
3.33405e-08
4.07265e-08
4.01928e-08
3.62624e-08
3.63578e-08
3.3967e-08
3.25809e-08
3.10589e-08
3.05427e-08
3.02634e-08
3.06963e-08
3.1478e-08
3.32627e-08
3.10444e-08
5.77093e-08
8.21084e-08
7.33909e-07
1.86632e-06
1.04139e-06
7.65322e-07
5.8589e-07
5.85859e-06
6.79763e-05
1.7192e-06
9.41804e-07
7.41939e-07
8.64005e-07
1.97597e-06
3.99575e-07
3.83422e-08
3.6187e-08
4.83788e-08
4.08655e-08
3.69072e-08
3.53195e-08
3.34285e-08
3.13202e-08
2.99997e-08
2.91668e-08
2.92104e-08
2.87608e-08
2.99224e-08
2.85929e-08
3.01722e-08
5.80514e-08
9.8369e-08
9.28691e-07
2.03952e-06
1.13602e-06
7.69615e-07
5.81729e-07
5.95908e-06
0.000771838
8.07087e-06
1.83829e-06
1.45437e-06
1.17979e-06
2.48176e-06
3.33271e-07
4.40503e-08
4.28803e-08
4.78322e-08
4.21467e-08
3.6533e-08
3.47006e-08
3.20852e-08
3.03353e-08
2.89209e-08
2.86244e-08
2.80531e-08
2.81761e-08
2.88991e-08
2.77137e-08
2.53328e-08
5.90825e-08
9.51423e-08
1.09137e-06
2.05276e-06
1.11856e-06
7.88604e-07
5.76778e-07
6.09211e-06
0.00182171
0.00022618
2.59334e-06
2.36806e-06
1.51723e-06
4.07734e-06
2.3945e-07
6.30396e-08
4.26661e-08
4.79277e-08
4.02047e-08
3.63005e-08
3.31309e-08
3.11184e-08
2.91196e-08
2.85053e-08
2.82506e-08
2.83494e-08
2.80029e-08
2.97126e-08
2.84788e-08
2.64105e-08
5.62494e-08
1.00413e-07
1.31069e-06
2.06103e-06
1.09638e-06
7.78736e-07
5.98195e-07
6.10041e-06
0.00306178
0.000415472
1.58666e-05
2.78832e-06
1.74121e-06
5.79771e-06
1.96847e-07
7.90213e-08
3.82282e-08
4.71624e-08
4.00095e-08
3.37593e-08
3.21432e-08
2.99253e-08
2.91182e-08
2.82142e-08
2.84129e-08
2.86859e-08
2.9165e-08
3.08303e-08
3.13097e-08
2.64828e-08
5.89904e-08
1.01844e-07
1.57726e-06
1.91649e-06
1.09318e-06
8.69428e-07
6.23618e-07
6.02798e-06
0.00722746
0.00106646
1.54257e-05
2.90495e-06
1.59113e-06
7.54323e-06
2.167e-07
1.01676e-07
3.51328e-08
4.95528e-08
3.57541e-08
3.21934e-08
3.12043e-08
2.99494e-08
2.89711e-08
2.92915e-08
2.90051e-08
2.97792e-08
3.03553e-08
3.33107e-08
3.38604e-08
2.8217e-08
6.0469e-08
1.11334e-07
1.88586e-06
1.80055e-06
1.09563e-06
9.87787e-07
6.96885e-07
5.98926e-06
0.0141148
0.00494943
0.000137423
2.79602e-06
1.38762e-06
7.03277e-06
3.29432e-07
9.26488e-08
3.90739e-08
4.22413e-08
3.14056e-08
3.15843e-08
3.05899e-08
3.07931e-08
3.05607e-08
3.06739e-08
3.12413e-08
3.14579e-08
3.26232e-08
3.45206e-08
3.75112e-08
3.0917e-08
6.42729e-08
1.20469e-07
2.19822e-06
1.73039e-06
1.13534e-06
1.13485e-06
1.06923e-06
6.20207e-06
0.0142823
0.0124686
0.00166875
3.04891e-06
1.47046e-06
6.82966e-06
4.95608e-07
8.44776e-08
4.24819e-08
3.44886e-08
3.13392e-08
3.18314e-08
3.15314e-08
3.17533e-08
3.29574e-08
3.28056e-08
3.36712e-08
3.34951e-08
3.49335e-08
3.68769e-08
4.03251e-08
3.7215e-08
6.51165e-08
1.33279e-07
2.53001e-06
1.74277e-06
1.2498e-06
1.44859e-06
1.95615e-06
0.000120528
0.0142902
0.014357
0.00665696
0.000128355
1.68052e-06
6.12386e-06
8.1877e-07
6.7541e-08
4.92087e-08
3.56047e-08
3.66268e-08
3.40476e-08
3.52772e-08
3.40851e-08
3.51387e-08
3.54877e-08
3.62142e-08
3.62042e-08
3.78945e-08
4.00263e-08
4.49671e-08
4.5421e-08
7.13623e-08
1.542e-07
3.03696e-06
1.81777e-06
1.48255e-06
2.10738e-06
9.6492e-06
0.00233241
0.0135285
0.014327
0.0117201
0.0015315
1.94702e-06
5.27835e-06
9.86969e-07
7.32255e-08
4.45443e-08
4.4579e-08
4.0977e-08
4.01213e-08
3.85895e-08
3.93418e-08
3.79033e-08
3.94299e-08
3.90539e-08
4.12923e-08
4.13711e-08
4.50908e-08
4.72311e-08
5.69495e-08
7.46608e-08
2.11283e-07
3.98172e-06
1.82937e-06
1.91628e-06
3.22606e-06
0.00168287
0.00706706
0.010888
0.0145347
0.0142671
0.00457814
0.000152653
0.000113576
1.32905e-06
6.74025e-08
5.4891e-08
5.10427e-08
4.68969e-08
4.46704e-08
4.39259e-08
4.26586e-08
4.32935e-08
4.25951e-08
4.43123e-08
4.49219e-08
4.6566e-08
4.89123e-08
5.20776e-08
6.26761e-08
7.43418e-08
4.35543e-07
5.6717e-06
1.59167e-06
2.62539e-06
0.000801859
0.00582229
0.00711209
0.0108827
0.0144008
0.0145026
0.00878236
0.00126994
0.000296665
1.44146e-06
7.2914e-08
6.87774e-08
5.50093e-08
5.14319e-08
4.9271e-08
4.77642e-08
4.69253e-08
4.65915e-08
4.73682e-08
4.79481e-08
4.94534e-08
5.05485e-08
5.42692e-08
5.73402e-08
7.10089e-08
5.59792e-08
1.19932e-06
1.0591e-05
1.23046e-06
0.000231474
0.00336993
0.00709568
0.00711031
0.0123189
0.0148403
0.0144231
0.0142589
0.00377959
0.000410784
1.23004e-06
6.7012e-08
7.51078e-08
5.99531e-08
5.43436e-08
5.3019e-08
5.17997e-08
5.05395e-08
5.04325e-08
5.065e-08
5.21396e-08
5.33964e-08
5.52897e-08
5.87142e-08
6.48787e-08
7.73714e-08
1.77823e-07
2.11134e-06
7.39956e-06
2.13583e-06
0.00134611
0.00588808
0.00710384
0.00534214
0.00331015
0.01434
0.0149833
0.0143281
0.00755662
7.54657e-05
1.07836e-06
7.93528e-08
7.90122e-08
6.2215e-08
5.52781e-08
5.58746e-08
5.37105e-08
5.34115e-08
5.22551e-08
5.33154e-08
5.42625e-08
5.69996e-08
5.8114e-08
6.29496e-08
6.88182e-08
8.66136e-08
2.79713e-07
2.8879e-06
3.25736e-05
0.000340384
0.0038272
0.00709001
0.00707705
0.00245765
2.47809e-05
0.0136782
0.0143107
0.0149875
0.00929188
1.16758e-05
7.00353e-07
8.3964e-08
8.33127e-08
6.11286e-08
5.72372e-08
5.56907e-08
5.50525e-08
5.38195e-08
5.38725e-08
5.42162e-08
5.64322e-08
5.81576e-08
6.10749e-08
6.39315e-08
7.72513e-08
8.23327e-08
2.94588e-07
4.43334e-06
0.000422639
0.00195936
0.00701665
0.00707753
0.00609541
0.00244972
1.03482e-05
0.000162766
0.00545706
0.00465736
0.000821886
6.28115e-06
7.27443e-07
8.5427e-08
7.82928e-08
6.42997e-08
5.87224e-08
5.66459e-08
5.55013e-08
5.50374e-08
5.46136e-08
5.59395e-08
5.75909e-08
6.00252e-08
6.23807e-08
6.70527e-08
8.21518e-08
7.57555e-08
3.26493e-07
5.41007e-06
0.00139452
0.00431892
0.00702021
0.00695154
0.000537872
0.00244425
9.4695e-06
3.9222e-06
0.00057984
0.000545889
0.000109463
4.48504e-06
1.33632e-06
9.89578e-08
7.40018e-08
6.4663e-08
6.12736e-08
5.65427e-08
5.65558e-08
5.54143e-08
5.53923e-08
5.61255e-08
5.84615e-08
6.01228e-08
6.29112e-08
6.94891e-08
8.24127e-08
7.52707e-08
3.66885e-07
5.00901e-06
0.00124249
0.00342298
0.0030401
9.43834e-06
5.33926e-06
5.99761e-05
8.43729e-06
1.68733e-06
0.000101205
0.000251082
0.000138584
3.23306e-05
2.35091e-06
1.53719e-07
7.00032e-08
6.31234e-08
6.06583e-08
5.53689e-08
5.55601e-08
5.4686e-08
5.42595e-08
5.46074e-08
5.65545e-08
5.83595e-08
6.13902e-08
7.24011e-08
8.57546e-08
8.90211e-08
7.07094e-07
5.31836e-06
0.000342365
0.000621329
6.7163e-06
1.8929e-06
3.11019e-07
8.29565e-06
7.85223e-06
1.18783e-06
3.06571e-06
0.000132326
0.000139522
4.93861e-05
3.35213e-06
3.11709e-07
7.35271e-08
6.61712e-08
6.18689e-08
5.52742e-08
5.48877e-08
5.38833e-08
5.36786e-08
5.38938e-08
5.59445e-08
5.91628e-08
6.59559e-08
8.47936e-08
1.01427e-07
9.23366e-08
1.3701e-06
5.18775e-06
0.000200478
9.88211e-05
1.26599e-06
5.33797e-07
3.47405e-07
4.83026e-06
7.20815e-06
1.02286e-06
1.83834e-06
5.10037e-06
7.46175e-05
3.97134e-05
3.74729e-06
6.31581e-07
8.22723e-08
7.38435e-08
7.09994e-08
5.95532e-08
5.7305e-08
5.44563e-08
5.40919e-08
5.59329e-08
5.9913e-08
6.51422e-08
7.86791e-08
1.06582e-07
1.24277e-07
2.83212e-07
1.52195e-06
3.21326e-06
3.82984e-05
3.58565e-05
7.34037e-07
6.21855e-07
5.47516e-07
5.6146e-06
6.48702e-06
9.46983e-07
1.52276e-06
2.28219e-06
2.80931e-06
9.13487e-06
3.49533e-06
8.70675e-07
1.64271e-07
9.14905e-08
9.13484e-08
7.31521e-08
6.66007e-08
6.17837e-08
6.11164e-08
6.74454e-08
7.49477e-08
8.41146e-08
1.09835e-07
1.52949e-07
3.30521e-07
9.01274e-07
1.02024e-06
1.61483e-06
6.48413e-06
1.96615e-05
6.93645e-07
7.2355e-07
7.71205e-07
6.03567e-06
5.68548e-06
8.97347e-07
1.42044e-06
2.01729e-06
2.11471e-06
3.60134e-06
2.73174e-06
7.09889e-07
2.32095e-07
1.3019e-07
1.19558e-07
1.00793e-07
8.85635e-08
8.23956e-08
8.31686e-08
9.34923e-08
1.05538e-07
1.24946e-07
1.70094e-07
2.66304e-07
5.74981e-07
6.37263e-07
2.10421e-07
7.28514e-07
4.55909e-06
2.02673e-05
7.95055e-07
8.5071e-07
1.12005e-06
5.93408e-06
4.84927e-06
8.58097e-07
1.42462e-06
1.95329e-06
1.96269e-06
3.01281e-06
2.18227e-06
3.95521e-07
1.04326e-07
8.61116e-08
9.8279e-08
9.59416e-08
8.85252e-08
8.59791e-08
8.99946e-08
9.74888e-08
1.0667e-07
1.25469e-07
1.57205e-07
2.12471e-07
2.7962e-07
1.29061e-07
7.17742e-08
3.61816e-07
2.63049e-06
3.75454e-05
1.13239e-06
1.08393e-06
1.65066e-06
8.84034e-05
4.27166e-06
8.34277e-07
1.48597e-06
1.99231e-06
2.00907e-06
2.91547e-06
2.1448e-06
2.59389e-07
6.90537e-08
5.11144e-08
6.18558e-08
6.93809e-08
7.01622e-08
7.31201e-08
7.65828e-08
7.68631e-08
7.82186e-08
8.58466e-08
9.06447e-08
9.02009e-08
8.30326e-08
6.93834e-08
8.90776e-08
1.40381e-07
1.62087e-06
5.25229e-05
2.09939e-05
1.37751e-06
2.84106e-05
0.000677693
3.71643e-06
9.14544e-07
1.55605e-06
9.88292e-06
9.1836e-06
1.35625e-05
2.68367e-06
2.59665e-07
1.02611e-07
7.97417e-08
7.96942e-08
7.75003e-08
8.06376e-08
8.14302e-08
8.22353e-08
8.09361e-08
7.9692e-08
8.23784e-08
8.41669e-08
8.29532e-08
8.77524e-08
9.27155e-08
1.04722e-07
1.26223e-07
1.16629e-06
5.98894e-05
0.000204477
6.30424e-05
0.000466348
0.00201424
1.59032e-05
1.07966e-06
2.40741e-05
6.03797e-05
5.65071e-05
8.71295e-05
3.89588e-06
3.21964e-07
1.27579e-07
1.13211e-07
1.14847e-07
1.09768e-07
1.09542e-07
1.0876e-07
1.07985e-07
1.07271e-07
1.07704e-07
1.1033e-07
1.12729e-07
1.08907e-07
1.11403e-07
1.1544e-07
1.26743e-07
1.41293e-07
9.89947e-07
8.32181e-06
0.000599187
0.000602808
0.00174029
0.00341908
0.000210394
8.06067e-05
0.000164734
0.000238733
0.000226475
0.000322164
6.0735e-06
4.897e-07
1.46118e-07
1.44309e-07
1.46428e-07
1.44584e-07
1.40832e-07
1.3972e-07
1.40068e-07
1.41788e-07
1.42568e-07
1.44608e-07
1.46627e-07
1.39305e-07
1.33199e-07
1.35235e-07
1.47172e-07
1.65569e-07
8.76959e-07
7.12717e-06
0.00152823
0.0025601
0.00344333
0.0034997
0.000971395
0.000570366
0.000652503
0.00074486
0.000692735
0.000806133
1.60941e-05
8.9033e-07
1.6719e-07
1.82065e-07
1.884e-07
1.90066e-07
1.82237e-07
1.80156e-07
1.8208e-07
1.86466e-07
1.88277e-07
1.92254e-07
1.96634e-07
1.83933e-07
1.62204e-07
1.5605e-07
1.74718e-07
2.26461e-07
6.27462e-07
5.63966e-06
0.00127147
0.00348741
0.0034997
0.00350109
0.00293657
0.00211667
0.00197879
0.00194598
0.00167507
0.00151055
0.00012907
1.44407e-06
1.82497e-07
1.92551e-07
1.99923e-07
2.05913e-07
1.98068e-07
1.95673e-07
1.96338e-07
2.01228e-07
2.0853e-07
2.19568e-07
2.31133e-07
2.24423e-07
1.9689e-07
1.9808e-07
2.42936e-07
3.47318e-07
9.77939e-07
1.50801e-05
0.000304641
0.00139558
0.00348596
0.00350025
0.00698437
0.00566305
0.00495792
0.00432017
0.00328157
0.0021831
0.000129286
1.68469e-06
2.32272e-07
1.63134e-07
1.53186e-07
1.6557e-07
1.72037e-07
1.72522e-07
1.6645e-07
1.63708e-07
1.67437e-07
1.69701e-07
1.75719e-07
1.93804e-07
2.10741e-07
2.70575e-07
3.58402e-07
5.66682e-07
1.98946e-06
0.000105386
0.000231542
6.87218e-06
0.000288012
0.00322134
0.0133826
0.0117074
0.0102281
0.0081165
0.0054138
0.00263549
2.37559e-05
1.3751e-06
3.28898e-07
1.86893e-07
1.88367e-07
2.05684e-07
2.34278e-07
2.32651e-07
2.17733e-07
2.01915e-07
1.87891e-07
1.53856e-07
1.20314e-07
1.40008e-07
2.20646e-07
3.60056e-07
4.59995e-07
9.82806e-07
5.52338e-05
0.000196342
0.000125496
4.36685e-06
2.86411e-06
6.66328e-06
0.0192357
0.0181934
0.016308
0.0116142
0.00698028
0.00256675
6.88702e-06
4.0624e-07
3.83849e-07
2.17115e-07
1.90903e-07
2.18928e-07
2.48879e-07
2.54806e-07
2.48828e-07
2.41139e-07
2.29525e-07
2.033e-07
1.75323e-07
1.89043e-07
2.8279e-07
4.04874e-07
4.53454e-07
1.33227e-06
0.00017719
0.00019805
5.95855e-06
2.9574e-06
1.66006e-06
2.31734e-06
0.0193892
0.019371
0.0180324
0.0104389
0.00563337
0.001448
3.95678e-06
3.58506e-07
4.08504e-07
2.93007e-07
1.78264e-07
1.62648e-07
1.721e-07
1.81181e-07
1.84108e-07
1.84327e-07
1.75712e-07
1.64552e-07
1.68182e-07
2.02252e-07
2.90955e-07
3.26681e-07
3.90253e-07
1.25527e-05
0.000196363
0.000198955
4.57834e-06
3.02489e-06
1.61111e-06
1.39867e-06
0.0194102
0.019274
0.0122613
0.00476011
0.00213464
0.000320281
1.25392e-06
6.00922e-07
4.3823e-07
3.72463e-07
3.00544e-07
2.2779e-07
2.02416e-07
1.97751e-07
1.96553e-07
1.95517e-07
1.92807e-07
1.89057e-07
1.97987e-07
2.41732e-07
2.92591e-07
3.14442e-07
6.14409e-07
5.70453e-05
0.000164306
6.34793e-06
4.37306e-06
5.33023e-05
2.70696e-05
6.97953e-05
0.0193653
0.0117316
0.00448908
0.0013093
0.00059144
0.00028535
3.1202e-05
1.10087e-06
5.40309e-07
4.211e-07
3.96791e-07
3.45507e-07
3.128e-07
3.00504e-07
2.98025e-07
2.98556e-07
3.01155e-07
3.02634e-07
3.12065e-07
3.32523e-07
3.66524e-07
4.67294e-07
1.12678e-06
6.32285e-05
4.04026e-06
3.00394e-06
6.0833e-05
0.000422638
0.000382304
0.000468547
0.0179849
0.000190075
0.00175517
0.000699085
0.000662747
0.000533628
0.000354811
0.000124142
1.08908e-06
5.22615e-07
4.74218e-07
4.42931e-07
4.17221e-07
4.04987e-07
4.03023e-07
4.07835e-07
4.12566e-07
4.12562e-07
4.21545e-07
4.36564e-07
4.87476e-07
6.83656e-07
3.66365e-05
6.39976e-05
1.93067e-06
2.11001e-06
0.000131433
0.000898524
0.00115166
0.00136749
0.00125892
5.09834e-06
0.000393337
0.000827566
0.000832205
0.00082762
0.000805196
0.0005889
0.000205723
1.19358e-06
6.51929e-07
5.75163e-07
5.28987e-07
5.03421e-07
4.92409e-07
4.93258e-07
4.98419e-07
5.06484e-07
5.28171e-07
5.48058e-07
6.30724e-07
1.01923e-05
0.000153203
1.38194e-05
1.02687e-06
1.64133e-06
6.83859e-05
0.00116107
0.00192364
0.00227
7.51831e-06
3.25322e-06
1.91925e-05
0.000862635
0.000828521
0.00084745
0.000828597
0.000831267
0.000627716
0.000297478
6.64329e-05
3.84333e-06
7.42761e-07
6.43198e-07
5.79659e-07
5.41512e-07
5.31416e-07
5.63141e-07
6.0956e-07
4.72545e-06
7.05721e-05
0.000260016
0.000263302
2.83525e-06
9.39445e-07
1.62773e-06
1.24316e-05
0.00106697
0.00228396
0.00228731
2.9348e-06
2.12665e-06
7.98242e-06
0.000829589
0.000883097
0.000829266
0.000818933
0.000387013
0.000601425
0.000540258
0.000491803
0.000363204
0.000248081
0.000189733
0.000165275
0.000162056
0.000171823
0.000192955
0.00023958
0.000320364
0.000431628
0.000492047
0.000222273
4.70408e-06
1.36683e-06
1.82841e-06
5.54791e-06
0.000939103
0.00228498
0.0022889
5.22337e-06
2.68672e-06
6.79158e-06
0.000917271
0.000829704
0.000876382
0.000283984
5.75671e-06
1.68822e-05
0.000533658
0.00053596
0.000537974
0.000534653
0.000533453
0.000526804
0.000521804
0.000523665
0.000531111
0.000534017
0.00053611
0.00053425
0.000540216
7.25893e-05
5.23853e-05
6.91029e-05
4.25246e-05
7.39544e-06
0.000803873
0.00228581
0.00229006
4.13939e-06
3.38216e-06
4.93297e-06
0.000255732
0.000918346
0.000829039
0.000289011
2.34508e-06
1.97731e-06
7.28947e-06
0.000548423
0.000536186
0.000544683
0.00053518
0.00054038
0.000534866
0.000539579
0.000534798
0.000541724
0.000534832
0.000547114
5.26707e-05
1.18605e-05
0.00023425
0.000378775
0.000256513
2.91001e-05
0.000475526
0.00227951
0.00155999
1.23337e-06
2.01675e-06
2.31642e-06
9.75074e-06
0.000832424
0.00088885
0.000513159
2.95492e-05
8.20873e-07
1.68074e-06
5.63326e-06
0.000476247
0.00053636
0.000554507
0.000535545
0.000553889
0.000535346
0.000553497
0.000535483
0.000553444
0.000107011
2.81718e-06
3.29034e-06
0.000418218
0.00052198
0.00052346
0.000202655
0.000278462
4.15374e-05
6.0067e-06
5.14273e-07
5.15703e-07
6.31257e-07
2.24994e-06
1.61974e-05
0.000830356
0.000810643
0.000261345
8.79998e-07
4.33215e-07
1.45806e-06
3.85025e-06
0.000226178
0.000536604
0.000555092
0.000536193
0.00055444
0.000536212
0.000553975
0.000156582
2.02092e-06
1.18997e-06
3.13192e-06
0.000475809
0.000523295
0.000522942
0.000524831
1.11168e-05
3.9927e-06
3.86924e-07
4.68541e-07
1.28241e-07
2.17534e-07
2.36401e-07
2.9035e-06
2.43094e-05
0.000814723
0.000339227
4.5993e-05
3.05108e-07
5.34708e-07
8.89095e-07
2.08134e-06
1.05063e-05
8.56829e-05
0.000134131
0.000129294
9.14612e-05
2.77133e-05
1.66207e-06
3.88493e-07
7.75786e-07
1.45024e-05
0.00045344
0.000510406
0.000514245
0.00045402
4.29698e-06
3.12523e-07
2.50146e-07
4.13484e-07
1.13995e-07
1.62069e-07
1.8663e-07
1.82314e-07
4.67483e-06
0.000388414
0.000346855
0.000216325
3.93704e-07
3.13466e-07
4.14749e-07
3.81415e-07
8.31708e-07
1.2272e-06
1.39356e-06
1.35685e-06
1.25673e-06
9.97779e-07
4.38911e-07
2.12573e-07
6.12261e-07
7.44678e-05
0.000452494
0.000375766
0.000490934
3.99249e-05
1.00015e-06
2.33985e-07
2.33846e-07
3.3154e-07
1.37629e-07
1.76387e-07
2.05891e-07
2.10025e-07
4.85907e-07
7.30892e-06
0.000190499
0.000289299
9.3894e-05
2.73118e-07
3.14215e-07
2.28268e-07
2.94641e-07
3.19168e-07
3.4218e-07
3.32888e-07
4.0454e-07
4.00964e-07
2.58475e-07
1.89029e-07
7.88644e-07
0.000288205
0.000708227
0.00024933
0.000249659
3.56363e-06
5.12541e-07
2.83105e-07
2.58634e-07
2.57614e-07
1.71106e-07
2.08821e-07
2.43081e-07
2.72038e-07
3.7188e-07
1.58931e-06
7.16707e-06
0.000291846
0.000260125
4.52196e-06
2.43937e-07
1.93908e-07
2.40562e-07
2.58214e-07
2.60614e-07
2.60581e-07
3.26963e-07
2.66915e-07
1.46538e-07
1.03031e-07
1.5049e-06
0.00061755
0.00165596
0.000309772
5.24484e-05
1.9946e-06
5.4445e-07
3.3975e-07
3.33534e-07
2.25971e-07
2.11788e-07
2.82079e-07
3.43418e-07
3.97224e-07
5.50849e-07
1.04588e-06
2.57935e-06
2.71806e-05
0.000262106
0.000161604
3.2244e-07
1.59856e-07
1.48488e-07
1.98945e-07
2.1421e-07
2.39732e-07
3.57684e-07
2.87025e-07
1.35892e-07
8.42405e-08
2.15929e-06
0.000452392
0.00254116
0.0008
7.63463e-05
1.73582e-06
7.07445e-07
3.99678e-07
4.81712e-07
2.57645e-07
2.95572e-07
4.34726e-07
5.3802e-07
6.28826e-07
8.03007e-07
1.48182e-06
1.3208e-06
3.1916e-06
9.21731e-05
0.000199074
5.63802e-05
1.27152e-07
8.82971e-08
1.04943e-07
1.28818e-07
1.91702e-07
3.37281e-07
4.00695e-07
1.35001e-07
1.22435e-07
3.00991e-06
0.000164307
0.00254475
0.00189153
0.000437981
1.04855e-05
9.10968e-07
4.88561e-07
7.41511e-07
4.15072e-07
4.37037e-07
6.44052e-07
7.8825e-07
8.51557e-07
9.29624e-07
2.19333e-06
2.27078e-06
1.1999e-06
4.2654e-06
0.000198274