/*--------------------------------*- C++ -*----------------------------------*\
| =========                 |                                                 |
| \\      /  F ield         | OpenFOAM: The Open Source CFD Toolbox           |
|  \\    /   O peration     | Version:  2.3.0                                 |
|   \\  /    A nd           | Web:      www.OpenFOAM.org                      |
|    \\/     M anipulation  |                                                 |
\*---------------------------------------------------------------------------*/
FoamFile
{
    version     2.0;
    format      ascii;
    class       volScalarField;
    location    "51";
    object      rhom;
}
// * * * * * * * * * * * * * * * * * * * * * * * * * * * * * * * * * * * * * //

dimensions      [1 -3 0 0 0 0 0];

internalField   nonuniform List<scalar> 
1875
(
900.112
916.226
915.386
911.956
907.934
904.206
900.63
897.114
893.698
890.512
887.59
885.578
884.123
884.197
884.611
886.051
889.661
894.061
899.241
905.56
909.348
907.188
892.878
873.817
877.017
900.1
916.284
929.473
934.16
936.095
935.646
934.353
932.239
929.146
925.155
920.275
914.142
907.975
902.144
897.065
892.888
890.738
890.834
895.465
902.804
909.347
917.256
919.653
908.333
922.605
917.905
928.271
939.349
943.011
944.762
944.867
944.682
944.17
943.132
941.302
938.596
935.089
928.999
920.221
910.562
901.524
893.618
890.837
891.045
897.387
907.183
916.554
919.653
916.024
925.769
960.274
957.173
952.762
950.394
949.623
948.432
946.684
944.312
942.259
940.282
937.808
934.34
929.823
924.133
916.258
906.342
894.557
890.839
890.841
893.937
904.401
915.557
919.578
917.529
925.769
995.526
979.716
959.77
955.425
953.116
950.204
946.525
943.258
940.231
937.734
935.259
931.843
927.544
921.631
913.459
903.252
892.25
890.841
890.992
895.077
905.907
916.485
920.083
918.911
925.769
1008.57
982.992
956.809
956.807
953.502
948.315
943.63
939.433
935.807
932.873
929.878
925.869
920.65
913.489
904.604
895.876
890.963
890.961
892.616
899.056
909.86
918.438
921.306
920.724
925.431
1008.86
974.271
951.742
955.833
949.28
941.924
936.595
932.018
927.936
923.955
919.373
913.783
907.248
900.255
894.498
891.818
891.461
893.163
897.676
905.961
915.042
920.888
923.093
922.62
923.249
1005.82
958.98
944.824
949.243
938.529
930.651
924.744
919.193
914.022
908.907
903.607
898.582
894.941
893.275
892.906
892.897
895.021
899.359
905.934
913.596
919.751
923.331
925.099
923.93
920.288
998.126
944.153
935.218
936.939
923.578
915.514
908.45
902.278
897.417
895.07
893.919
893.754
893.752
893.984
895.408
898.159
902.752
908.435
914.577
919.852
923.37
925.503
926.886
924.212
917.242
989.425
931.434
924.014
922.715
909.136
902.078
896.688
893.953
893.754
893.589
893.754
893.988
896.068
898.75
902.484
907.198
912.357
917.257
921.389
924.278
926.085
927.391
928.37
923.933
914.543
981.412
919.051
913.432
912.058
901.275
896.839
894.408
893.753
893.613
893.753
895.151
898.33
902.621
907.221
912.193
916.92
920.972
924.087
926.221
927.52
928.38
929.214
929.952
923.416
907.455
973.189
903.058
901.667
906.814
898.445
895.424
893.912
893.682
893.753
895.88
900.371
906.002
911.6
916.83
921.453
925.069
927.639
929.199
929.994
930.39
930.713
931.041
931.044
921.576
883.822
966.564
897.299
897.844
903.666
897.134
894.847
893.702
893.753
895.575
901.07
907.821
914.425
920.168
924.817
928.187
930.358
931.573
932.077
932.163
932.153
932.173
932.153
930.829
915.482
883.819
962.76
897.844
897.305
901.557
896.248
894.5
893.752
894.494
899.491
907.271
914.864
921.326
926.213
929.492
931.288
931.997
932.153
932.174
932.153
932.204
932.153
932.202
926.948
906.378
883.819
961.208
897.615
897.843
900.101
895.571
894.222
893.694
896.447
903.987
912.51
919.85
925.284
928.536
930.317
931.334
931.927
932.151
932.153
932.205
932.153
932.204
930.775
921.936
902.327
883.819
960.528
897.843
897.59
899.121
895.049
893.996
893.751
898.951
907.712
915.638
921.58
925.587
928.296
929.816
930.428
930.527
930.55
931.075
931.712
932.124
932.152
929.599
925.06
910.78
894.718
960.748
897.829
897.843
898.687
894.844
893.822
893.697
898.889
907.583
915.352
921.148
925.084
927.5
928.459
928.133
926.553
925.71
926.019
927.2
928.565
929.961
930.954
933.009
932.618
927.244
961.122
898.595
897.83
898.777
895.075
893.858
893.751
898.001
906.374
914.082
919.875
923.868
926.131
926.655
924.793
921.449
921.325
921.388
921.656
923.329
926.348
930.695
937.667
948.649
958.108
960.032
901.582
898.407
898.921
895.8
894.097
893.737
896.355
903.609
911.466
917.631
921.947
924.428
924.914
922.899
921.334
921.377
921.333
921.388
921.381
923.205
928.423
933.275
950.221
969.84
957.009
907.371
900.019
899.246
896.867
894.713
893.833
894.837
899.786
907.306
914.191
919.268
922.44
923.471
922.269
921.367
921.333
921.377
921.359
921.387
922.031
925.691
921.348
943.125
970.325
952.509
915.179
903.199
899.956
897.918
895.767
894.185
894.318
896.479
902.114
909.255
915.456
919.827
922.128
921.886
921.353
921.367
921.358
921.377
921.439
921.885
924.094
919.746
932.169
966.443
947.158
923.615
908.599
901.502
898.927
896.987
894.959
894.427
894.852
897.555
903.31
910.132
915.975
920.014
921.418
921.356
921.36
921.366
921.387
921.495
921.838
923.421
918.585
925.553
959.348
941.341
931.032
916.341
904.834
900.216
898.076
896.109
894.71
894.766
895.461
898.373
904.028
910.639
916.423
920.078
921.247
921.583
921.586
921.56
921.649
921.972
923.227
919.745
923.367
954.04
935.055
936.332
925.513
910.845
902.604
899.187
897.161
895.245
894.782
895.12
896.141
899.234
904.814
911.368
917.152
920.435
921.799
922.184
922.076
922.114
922.496
923.4
918.581
923.025
951.657
924.862
939.973
933.974
919.229
907.156
901.005
898.07
896.028
894.84
894.851
895.297
896.721
900.247
905.981
912.736
918.278
921.376
922.839
922.93
923.017
923.584
924.013
919.744
923.14
950.883
913.398
941.037
940.51
928.554
914.212
904.411
899.356
896.721
895.023
894.505
894.477
895.386
897.516
901.69
907.935
914.805
920.016
922.692
923.764
924.197
925.07
925.021
918.644
922.246
950.677
913.424
941.032
943.938
936.096
922.417
909.693
901.553
897.421
895.256
893.992
893.538
894.414
895.999
898.948
903.953
910.817
917.609
922.01
924.064
925.322
926.342
926.044
919.744
918.819
950.485
913.457
940.863
944.074
940.51
929.513
915.73
904.676
898.352
895.398
893.542
893.594
893.922
895.105
897.325
901.188
907.222
914.562
920.604
923.852
926.133
926.879
926.673
918.682
919.744
950.198
913.486
940.582
943.937
941.78
933.477
920.567
907.887
899.459
895.485
893.593
893.54
893.609
894.527
896.342
899.427
904.47
911.496
918.574
923.196
926.362
926.879
926.862
919.743
918.888
949.885
914.023
939.703
944.074
941.407
934.781
923.067
909.999
900.396
895.616
893.578
893.593
893.587
894.201
895.738
898.353
902.58
908.872
916.211
921.971
926.17
926.891
926.867
918.704
919.743
949.527
914.821
936.986
942.308
940.271
935.13
923.755
910.867
901.031
895.833
893.593
893.581
893.593
894.144
895.456
897.748
901.366
906.815
913.762
920.114
925.42
926.878
926.859
919.743
919.037
949.091
914.84
932.036
933.443
937.9
934.835
924.324
911.674
901.684
896.172
893.673
893.592
893.638
894.185
895.42
897.439
900.562
905.191
911.364
917.7
923.794
926.887
926.72
918.739
919.742
948.23
914.858
927.546
924.403
933.049
933.713
925.576
913.294
902.787
896.683
893.841
893.648
893.731
894.27
895.452
897.286
900.045
904.054
909.505
915.515
921.719
926.492
926.213
919.742
919.187
946.287
914.899
926.949
924.327
926.014
930.833
927.213
916.269
904.844
897.511
894.101
893.76
893.84
894.382
895.504
897.294
899.994
903.884
909.147
915.04
920.703
925.716
925.275
918.789
919.742
942.762
915.514
928.202
924.877
920.784
926.249
927.09
920.155
908.138
898.867
894.418
893.767
893.905
894.424
895.541
897.336
900.059
904.002
909.321
915.27
920.875
925.046
923.693
919.741
919.348
939.663
921.823
932.635
927.175
920.757
922.039
926.343
923.368
912.155
900.827
894.803
893.691
893.865
894.404
895.54
897.415
900.239
904.344
909.848
915.959
921.503
924.595
920.803
918.915
919.741
939.69
931.691
940.454
931.751
921.046
921.029
925.164
924.382
915.601
903.082
895.323
893.559
893.749
894.331
895.521
897.517
900.529
904.932
910.773
917.146
922.636
924.211
919.641
919.741
919.592
942.398
936.474
949.261
938.236
922.96
921.234
924.257
924.178
917.599
905.002
895.953
893.496
893.633
894.209
895.468
897.625
900.893
905.71
912.002
918.655
924.077
923.893
919.74
919.141
919.74
950.413
935.393
956.147
945.813
927.73
922.712
924.364
923.968
918.006
906.158
896.596
893.48
893.519
894.05
895.371
897.72
901.316
906.623
913.411
920.277
925.358
923.897
919.715
919.74
920.99
963.125
930.222
958.879
953.266
935.156
926.412
925.035
923.739
917.881
906.727
897.116
893.451
893.384
893.875
895.241
897.743
901.768
907.585
914.796
921.791
926.142
924.196
920.074
919.483
922.057
975.621
922.626
958.876
957.673
943.506
932.231
926.84
923.512
917.472
906.836
897.462
893.398
893.22
893.694
895.1
897.736
902.119
908.323
915.715
922.776
926.543
925.156
921.75
919.74
921.304
982.075
918.871
957.457
957.712
950.707
938.621
929.7
923.78
916.753
906.588
897.702
893.334
893.032
893.508
894.955
897.715
902.241
908.584
915.932
923.024
926.834
926.743
924.879
919.709
919.892
982.252
919.967
952.148
956.851
954.684
944.167
932.951
924.393
915.835
906.027
897.844
893.316
892.845
893.328
894.811
897.671
902.287
908.67
915.996
923.116
927.168
928.562
928.48
920.067
919.892
981.484
924.511
941.259
949.062
954.714
948.69
936.022
925.009
915.011
905.318
897.757
893.296
892.686
893.168
894.677
897.617
902.341
908.761
916.075
923.243
927.619
930.032
931.334
921.495
921.065
978.91
933.737
933.075
934.288
953.967
951.396
938.551
925.531
914.288
904.533
897.479
893.237
892.551
893.038
894.578
897.617
902.44
908.896
916.185
923.403
928.127
930.735
932.32
924.254
924.008
974.499
947.917
933.252
933
951.5
951.524
940.42
925.734
913.365
903.528
896.926
893.1
892.43
892.948
894.609
897.707
902.633
909.109
916.333
923.53
928.528
930.952
932.325
927.948
928.266
968.94
965.164
933.167
933.253
948.597
951.369
941.172
925.184
911.907
902.163
896.095
892.846
892.285
892.968
894.727
897.96
902.989
909.449
916.532
923.607
928.753
931.115
932.456
931.905
932.806
963.199
980.805
934.144
933.104
947.255
950.806
940.395
923.564
909.697
900.421
895.055
892.493
892.094
893.071
894.977
898.421
903.561
909.953
916.801
923.631
928.83
931.334
932.867
935.447
936.586
957.773
990.995
936.696
933.252
947.571
949.932
938.023
920.385
906.721
898.392
893.908
892.153
892.089
893.293
895.417
899.11
904.357
910.627
917.153
923.586
928.79
931.642
933.501
937.374
938.476
953.105
995.261
939.315
933.959
948.139
948.227
933.238
915.489
903.232
896.27
892.853
891.824
892.168
893.676
896.103
900.046
905.354
911.438
917.572
923.419
928.497
931.843
934.101
937.192
938.145
950.247
996.107
941.122
935.723
948.162
944.029
925.604
909.569
899.674
894.33
892.138
891.815
892.427
894.28
897.049
901.204
906.484
912.298
917.983
923.158
927.855
931.796
934.564
936.361
936.521
950.046
996.15
942.185
936.958
947.427
935.63
916.345
903.904
896.637
893.011
891.936
891.864
892.886
895.106
898.195
902.485
907.629
913.098
918.305
922.909
927.159
931.546
934.955
935.009
931.314
951.443
996.185
942.383
935.889
943.211
923.802
908.089
899.618
894.71
892.611
892.001
891.93
893.539
896.098
899.444
903.763
908.693
913.798
918.571
922.757
926.792
931.283
934.932
933.056
919.517
954.64
996.191
941.595
931.696
934.368
912.829
902.6
897.061
893.843
892.416
892.003
892.203
894.279
897.159
900.672
904.953
909.664
914.439
918.793
922.642
926.572
931.099
934.909
930.396
902.815
957.844
996.207
938.663
923.942
923.311
905.766
899.562
895.584
893.271
892.328
892.081
892.654
895.14
898.197
901.811
906.047
910.57
914.921
918.714
922.455
926.286
930.789
934.84
926.686
891.811
959.737
996.237
932.756
914.732
914.296
901.999
897.804
894.675
892.986
892.351
892.223
893.308
896.048
899.196
902.882
907.06
911.261
914.871
918.456
922.067
925.831
930.256
933.684
921.243
891.567
960.994
996.233
924.137
907.053
908.97
899.9
896.619
894.12
892.909
892.442
892.522
894.196
897.004
900.213
903.924
907.852
911.259
914.668
918.004
921.4
925.149
929.512
931.533
913.758
891.752
961.981
994.884
912.176
902.016
906.072
898.599
895.862
893.832
892.931
892.582
893.131
895.241
898.039
901.262
904.822
908.028
911.128
914.266
917.352
920.474
924.046
928.262
928.268
903.939
891.4
962.184
991.087
895.352
898.617
903.717
897.654
895.475
893.822
893.061
892.901
894.069
896.385
899.107
902.223
905.213
907.932
910.788
913.615
916.434
919.27
922.278
925.717
924.097
894.696
891.751
962.206
985.36
881.204
895.339
900.928
896.777
895.251
893.907
893.403
893.636
895.324
897.605
900.121
902.795
905.164
907.671
910.218
912.696
915.178
917.708
919.904
921.72
919.354
891.751
891.365
962.245
979.337
880.861
891.767
897.82
895.949
895.101
894.169
894.047
894.894
896.803
898.794
900.89
902.846
904.996
907.24
909.451
911.569
913.638
915.79
917.328
917.235
914.741
891.658
891.75
962.239
973.931
881.204
888.301
895.142
895.215
894.99
894.451
894.785
896.16
897.925
899.493
901.032
902.755
904.641
906.552
908.382
910.119
911.765
913.48
914.477
913.234
910.403
891.75
891.402
962.436
968.89
880.948
885.252
892.946
894.164
894.54
894.259
894.665
896.018
897.667
899.155
900.598
902.07
903.555
905.017
906.42
907.802
909.172
910.483
910.791
909.085
906.279
891.703
891.75
962.401
963.145
881.203
882.854
890.948
892.79
893.473
893.533
893.966
895.15
896.617
898.039
899.368
900.53
901.679
902.842
904.074
905.411
906.853
907.751
907.214
905.332
903.962
892.071
891.643
962.395
957.561
881.418
884.502
892.838
894.725
895.378
895.548
895.978
897.046
898.506
900.059
901.524
902.766
904.254
905.887
907.986
909.541
910.67
910.292
908.211
906.533
908.369
899.575
892.284
962.375
951.617
893.055
899.028
908.393
910.501
911.593
912.53
913.274
914.298
915.891
917.773
919.68
921.008
922.405
924.478
925.056
924.998
922.257
916.773
909.875
910.468
921.672
917.961
896.21
961.58
918.904
909.161
920.699
930.505
931.336
933.112
935.412
935.928
935.839
935.928
935.839
935.928
935.839
935.928
935.839
923.564
908.212
891.935
878.315
871.802
878.263
921.71
906.923
870.79
909.925
686.023
767.608
779.976
777.44
774.219
772.771
772.083
771.768
771.507
771.282
771.191
771.142
771.114
771.093
763.387
726.819
693.243
675.359
666.9
665.163
674.734
772.788
718.82
678.391
655.094
529.138
542.639
547.828
545.844
544.28
543.555
543.051
542.623
542.135
541.552
540.838
540.049
539.222
538.532
536.103
531.622
529.17
528.422
528.635
529.325
530.82
540.681
533.136
529.138
523.326
514.729
514.862
515.205
515.332
515.287
515.218
515.155
515.106
515.069
515.041
515.02
515.003
514.989
514.968
514.907
514.825
514.788
514.782
514.808
514.862
514.937
515.065
514.903
514.673
514.56
514.553
514.547
514.544
514.545
514.546
514.546
514.546
514.546
514.547
514.546
514.546
514.545
514.545
514.544
514.543
514.543
514.542
514.542
514.542
514.542
514.543
514.543
514.542
514.541
514.541
514.555
514.553
514.552
514.554
514.56
514.569
514.584
514.605
514.612
514.608
514.597
514.583
514.569
514.558
514.551
514.547
514.544
514.543
514.542
514.542
514.541
514.541
514.541
514.541
514.541
514.567
514.582
514.608
514.627
514.662
514.686
514.703
514.709
514.71
514.71
514.708
514.7
514.676
514.641
514.609
514.584
514.567
514.557
514.55
514.546
514.544
514.542
514.542
514.541
514.541
514.588
514.644
514.687
514.704
514.713
514.714
514.714
514.714
514.714
514.714
514.714
514.714
514.712
514.705
514.69
514.676
514.648
514.618
514.587
514.567
514.555
514.548
514.545
514.543
514.542
514.616
514.68
514.709
514.714
514.714
514.714
514.714
514.714
514.714
514.714
514.714
514.714
514.714
514.714
514.713
514.71
514.702
514.686
514.666
514.636
514.609
514.585
514.566
514.553
514.546
)
;

boundaryField
{
    inlet
    {
        type            calculated;
        value           nonuniform List<scalar> 
25
(
770.947
770.947
770.947
770.947
770.947
770.947
770.947
770.947
770.947
770.947
770.947
770.947
770.947
770.947
770.947
770.947
770.947
770.947
770.947
770.947
770.947
770.947
770.947
770.947
770.947
)
;
    }
    outlet
    {
        type            calculated;
        value           nonuniform List<scalar> 
25
(
514.616
514.68
514.709
514.714
514.714
514.714
514.714
514.714
514.714
514.714
514.714
514.714
514.714
514.714
514.714
514.714
514.702
514.687
514.666
514.637
514.61
514.586
514.567
514.553
514.546
)
;
    }
    walls
    {
        type            calculated;
        value           nonuniform List<scalar> 
150
(
900.112
900.1
917.905
960.274
995.526
1008.57
1008.86
1005.82
998.126
989.425
981.412
973.189
966.564
962.76
961.208
960.528
960.748
961.122
960.032
957.009
952.509
947.158
941.341
935.055
924.862
913.398
913.424
913.457
913.486
914.023
914.821
914.84
914.858
914.899
915.514
921.823
931.691
936.474
935.393
930.222
922.626
918.871
919.967
924.511
933.737
947.917
965.164
980.805
990.995
995.261
996.107
996.15
996.185
996.191
996.207
996.237
996.233
994.884
991.087
985.36
979.337
973.931
968.89
963.145
957.561
951.617
918.904
686.023
529.138
514.729
514.553
514.555
514.567
514.588
514.616
877.017
922.605
925.769
925.769
925.769
925.431
923.249
920.288
917.242
914.543
907.455
883.822
883.819
883.819
883.819
894.718
927.244
958.108
969.84
970.325
966.443
959.348
954.04
951.657
950.883
950.677
950.485
950.198
949.885
949.527
949.091
948.23
946.287
942.762
939.663
939.69
942.398
950.413
963.125
975.621
982.075
982.252
981.484
978.91
974.499
968.94
963.199
957.773
953.105
950.247
950.046
951.443
954.64
957.844
959.737
960.994
961.981
962.184
962.206
962.245
962.239
962.436
962.401
962.395
962.375
961.58
909.925
655.094
523.326
514.56
514.541
514.541
514.541
514.542
514.546
)
;
    }
    defaultFaces
    {
        type            empty;
    }
}


// ************************************************************************* //
