/*--------------------------------*- C++ -*----------------------------------*\
| =========                 |                                                 |
| \\      /  F ield         | OpenFOAM: The Open Source CFD Toolbox           |
|  \\    /   O peration     | Version:  2.3.0                                 |
|   \\  /    A nd           | Web:      www.OpenFOAM.org                      |
|    \\/     M anipulation  |                                                 |
\*---------------------------------------------------------------------------*/
FoamFile
{
    version     2.0;
    format      ascii;
    class       volVectorField;
    location    "51";
    object      U.water;
}
// * * * * * * * * * * * * * * * * * * * * * * * * * * * * * * * * * * * * * //

dimensions      [0 1 -1 0 0 0 0];

internalField   nonuniform List<vector> 
1875
(
(0.0212806 -0.101085 0)
(0.0391134 -0.107537 0)
(0.0714519 -0.109493 0)
(0.104181 -0.108253 0)
(0.135743 -0.104771 0)
(0.164988 -0.0999572 0)
(0.191163 -0.0944436 0)
(0.213824 -0.0886034 0)
(0.232634 -0.0826052 0)
(0.247319 -0.0764456 0)
(0.257627 -0.0700367 0)
(0.263327 -0.0632921 0)
(0.263961 -0.056297 0)
(0.258993 -0.0491607 0)
(0.248064 -0.0419303 0)
(0.23126 -0.0347325 0)
(0.209307 -0.0285792 0)
(0.183454 -0.0244633 0)
(0.155488 -0.0231679 0)
(0.127806 -0.0255932 0)
(0.10242 -0.0309304 0)
(0.0801585 -0.0370748 0)
(0.0599893 -0.0407925 0)
(0.0365971 -0.0422994 0)
(0.0210096 -0.0450117 0)
(0.0279675 -0.0578395 0)
(0.0485813 -0.0652748 0)
(0.0767857 -0.0702248 0)
(0.102645 -0.0692871 0)
(0.12653 -0.063941 0)
(0.148218 -0.0554206 0)
(0.167533 -0.0449553 0)
(0.184366 -0.0332582 0)
(0.19859 -0.0206665 0)
(0.209961 -0.00730112 0)
(0.218095 0.00694213 0)
(0.222309 0.0222273 0)
(0.22234 0.0381371 0)
(0.218721 0.0540165 0)
(0.211282 0.0694619 0)
(0.199725 0.0839152 0)
(0.183217 0.0959656 0)
(0.162235 0.103859 0)
(0.138225 0.106882 0)
(0.113248 0.105799 0)
(0.0888053 0.102333 0)
(0.0658188 0.0987038 0)
(0.0451319 0.0982056 0)
(0.0252958 0.102739 0)
(0.0111116 0.100806 0)
(0.0228349 -0.17891 0)
(0.0488609 -0.17439 0)
(0.0744385 -0.16568 0)
(0.0945873 -0.153794 0)
(0.111343 -0.139805 0)
(0.125366 -0.124235 0)
(0.136906 -0.107633 0)
(0.146037 -0.0903147 0)
(0.152896 -0.0723852 0)
(0.157729 -0.0537506 0)
(0.160858 -0.0342136 0)
(0.162879 -0.0134935 0)
(0.163245 0.00891587 0)
(0.160699 0.0328462 0)
(0.155061 0.0573241 0)
(0.145921 0.0808463 0)
(0.133315 0.101254 0)
(0.117697 0.115366 0)
(0.0996575 0.121985 0)
(0.0801265 0.121049 0)
(0.0607854 0.114759 0)
(0.0431692 0.107256 0)
(0.0280424 0.102401 0)
(0.0157743 0.10063 0)
(0.00768471 0.0952039 0)
(0.00935728 -0.217594 0)
(0.0347455 -0.206964 0)
(0.0516932 -0.190719 0)
(0.0646572 -0.172674 0)
(0.075369 -0.153295 0)
(0.0840263 -0.132586 0)
(0.0905791 -0.110785 0)
(0.0950452 -0.0882026 0)
(0.0975473 -0.0651498 0)
(0.0982537 -0.0416393 0)
(0.0972833 -0.0174066 0)
(0.0944545 0.00786633 0)
(0.0902465 0.0341364 0)
(0.0851302 0.0616455 0)
(0.078888 0.0899946 0)
(0.0713186 0.117702 0)
(0.0623613 0.14207 0)
(0.0525959 0.158744 0)
(0.0424897 0.166527 0)
(0.0323449 0.165064 0)
(0.0229076 0.155793 0)
(0.0150877 0.143517 0)
(0.0091196 0.133502 0)
(0.00497224 0.12616 0)
(0.0019128 0.118358 0)
(-0.000154404 -0.242186 0)
(0.0160979 -0.231597 0)
(0.0222656 -0.213373 0)
(0.0271556 -0.192804 0)
(0.0312351 -0.170366 0)
(0.0337652 -0.14624 0)
(0.0345808 -0.12088 0)
(0.0338453 -0.0948362 0)
(0.0317338 -0.0684339 0)
(0.0284049 -0.0417621 0)
(0.0240279 -0.0145725 0)
(0.0187344 0.0135466 0)
(0.0126956 0.0428941 0)
(0.00614866 0.0732795 0)
(-0.000535978 0.103908 0)
(-0.00674449 0.132905 0)
(-0.0116559 0.157048 0)
(-0.0147071 0.171789 0)
(-0.0160668 0.176753 0)
(-0.0158095 0.172133 0)
(-0.0141371 0.159932 0)
(-0.0116738 0.145586 0)
(-0.00870917 0.133814 0)
(-0.00507087 0.125118 0)
(-0.00335367 0.117286 0)
(-0.00473967 -0.246488 0)
(-8.35612e-05 -0.235242 0)
(-0.00430056 -0.21551 0)
(-0.00766655 -0.193532 0)
(-0.0112548 -0.168795 0)
(-0.0161273 -0.141822 0)
(-0.022135 -0.113621 0)
(-0.0289369 -0.084948 0)
(-0.0362995 -0.0562659 0)
(-0.0440332 -0.0276918 0)
(-0.051983 0.00103149 0)
(-0.0599145 0.0302354 0)
(-0.067437 0.0599273 0)
(-0.0739656 0.0896651 0)
(-0.0786388 0.118105 0)
(-0.0804317 0.142779 0)
(-0.078515 0.160484 0)
(-0.0732169 0.168766 0)
(-0.0651254 0.168268 0)
(-0.0549579 0.159378 0)
(-0.0438507 0.145023 0)
(-0.033083 0.13023 0)
(-0.0229515 0.118471 0)
(-0.0127903 0.110118 0)
(-0.00777777 0.10327 0)
(-0.0121859 -0.235586 0)
(-0.0144027 -0.223009 0)
(-0.0269056 -0.202535 0)
(-0.0382492 -0.179736 0)
(-0.0498627 -0.15331 0)
(-0.0624653 -0.124527 0)
(-0.0754238 -0.0949682 0)
(-0.0882861 -0.0655381 0)
(-0.100699 -0.0366864 0)
(-0.112304 -0.00846746 0)
(-0.122696 0.0193265 0)
(-0.131345 0.0467227 0)
(-0.137554 0.0732719 0)
(-0.140473 0.09794 0)
(-0.139274 0.119041 0)
(-0.133516 0.134632 0)
(-0.123373 0.143271 0)
(-0.109691 0.144287 0)
(-0.0934691 0.138256 0)
(-0.0759588 0.126704 0)
(-0.0588437 0.112794 0)
(-0.043232 0.100022 0)
(-0.0291443 0.0902393 0)
(-0.0159446 0.0834643 0)
(-0.00959576 0.0785275 0)
(-0.019017 -0.20839 0)
(-0.0252944 -0.194275 0)
(-0.0446657 -0.173552 0)
(-0.0629314 -0.150244 0)
(-0.081646 -0.122765 0)
(-0.100765 -0.0934784 0)
(-0.119309 -0.0642777 0)
(-0.136689 -0.0361717 0)
(-0.152222 -0.0096936 0)
(-0.165109 0.0149861 0)
(-0.174634 0.0377405 0)
(-0.180202 0.0584878 0)
(-0.181268 0.0766625 0)
(-0.177508 0.0915708 0)
(-0.168862 0.102289 0)
(-0.155702 0.108129 0)
(-0.138791 0.108549 0)
(-0.119215 0.103838 0)
(-0.0983085 0.095081 0)
(-0.0776326 0.0841226 0)
(-0.0585827 0.0733417 0)
(-0.0417587 0.0646333 0)
(-0.0270819 0.058856 0)
(-0.0142775 0.0560967 0)
(-0.00823011 0.0546082 0)
(-0.023677 -0.168459 0)
(-0.0324862 -0.153452 0)
(-0.0564626 -0.132682 0)
(-0.0795619 -0.109154 0)
(-0.102931 -0.0816085 0)
(-0.125769 -0.0534165 0)
(-0.146819 -0.026712 0)
(-0.165164 -0.00282195 0)
(-0.179881 0.017546 0)
(-0.190317 0.0341105 0)
(-0.195987 0.0474368 0)
(-0.196578 0.0579068 0)
(-0.191964 0.0656965 0)
(-0.18234 0.0703054 0)
(-0.168201 0.0714033 0)
(-0.150474 0.0692107 0)
(-0.130181 0.0640314 0)
(-0.108592 0.0566986 0)
(-0.0870876 0.0483662 0)
(-0.0669384 0.0404533 0)
(-0.0489794 0.0342873 0)
(-0.0334848 0.0307161 0)
(-0.0204969 0.0301371 0)
(-0.0100555 0.0326383 0)
(-0.00542325 0.0354223 0)
(-0.0260097 -0.120606 0)
(-0.0358915 -0.104822 0)
(-0.0620994 -0.0838874 0)
(-0.0872626 -0.0605884 0)
(-0.112027 -0.0343554 0)
(-0.135145 -0.0093244 0)
(-0.15525 0.0121689 0)
(-0.171392 0.028812 0)
(-0.18295 0.0403494 0)
(-0.189295 0.0471677 0)
(-0.190787 0.0501905 0)
(-0.187176 0.0502353 0)
(-0.178577 0.0466724 0)
(-0.165773 0.0410354 0)
(-0.149652 0.0342153 0)
(-0.131015 0.026607 0)
(-0.111031 0.0187213 0)
(-0.0908551 0.0113155 0)
(-0.0714882 0.00520805 0)
(-0.0536674 0.00121364 0)
(-0.0378045 -3.06344e-05 0)
(-0.0241228 0.00188785 0)
(-0.012913 0.00725976 0)
(-0.00472561 0.0161919 0)
(-0.00139826 0.0242592 0)
(-0.0257069 -0.0704936 0)
(-0.0358417 -0.0537645 0)
(-0.0620273 -0.0327674 0)
(-0.0864652 -0.0106167 0)
(-0.109604 0.0126128 0)
(-0.130368 0.0325329 0)
(-0.147685 0.0468472 0)
(-0.160941 0.0545693 0)
(-0.169161 0.056142 0)
(-0.17298 0.0526781 0)
(-0.171685 0.0448997 0)
(-0.165767 0.0342601 0)
(-0.156063 0.0222913 0)
(-0.143298 0.010172 0)
(-0.128326 -0.00149363 0)
(-0.112005 -0.0121027 0)
(-0.0951241 -0.0210575 0)
(-0.0783415 -0.0278429 0)
(-0.0621403 -0.0320023 0)
(-0.0468294 -0.0330885 0)
(-0.0326152 -0.0306602 0)
(-0.0197781 -0.0242247 0)
(-0.00887854 -0.013163 0)
(-0.000957799 0.00323785 0)
(0.00202786 0.0199833 0)
(-0.0238482 -0.0224498 0)
(-0.0329605 -0.00419106 0)
(-0.0567543 0.0164285 0)
(-0.0784458 0.0359299 0)
(-0.0985279 0.0550396 0)
(-0.116214 0.0694539 0)
(-0.130725 0.076952 0)
(-0.141581 0.0767699 0)
(-0.148325 0.0693984 0)
(-0.150677 0.0559892 0)
(-0.148733 0.0388196 0)
(-0.143232 0.0203268 0)
(-0.135059 0.00215032 0)
(-0.12498 -0.0147504 0)
(-0.113669 -0.0296715 0)
(-0.101676 -0.0421877 0)
(-0.0893387 -0.0520489 0)
(-0.0768362 -0.0590286 0)
(-0.0642491 -0.0628301 0)
(-0.0516211 -0.0630347 0)
(-0.0390511 -0.0590146 0)
(-0.0268209 -0.0498205 0)
(-0.0156281 -0.0340938 0)
(-0.00670983 -0.0100058 0)
(-0.00265608 0.0186531 0)
(-0.0213927 0.0208345 0)
(-0.0284708 0.0402131 0)
(-0.0481554 0.0599261 0)
(-0.0662938 0.0767577 0)
(-0.08328 0.0917428 0)
(-0.0981871 0.100937 0)
(-0.110402 0.102261 0)
(-0.119506 0.095007 0)
(-0.125047 0.0798443 0)
(-0.126913 0.0587365 0)
(-0.125675 0.0348783 0)
(-0.122176 0.010987 0)
(-0.117154 -0.0112329 0)
(-0.111186 -0.0309532 0)
(-0.104659 -0.0478788 0)
(-0.0977454 -0.0619967 0)
(-0.0904431 -0.0733514 0)
(-0.0825711 -0.0816861 0)
(-0.0738471 -0.0867375 0)
(-0.0641477 -0.0881058 0)
(-0.0534667 -0.0848803 0)
(-0.0419143 -0.0756348 0)
(-0.0301608 -0.058519 0)
(-0.0188822 -0.0319576 0)
(-0.0125912 -0.0032066 0)
(-0.0181111 0.058207 0)
(-0.0230987 0.078009 0)
(-0.0385741 0.0966588 0)
(-0.0529219 0.111269 0)
(-0.0665574 0.122722 0)
(-0.0785929 0.127541 0)
(-0.0885585 0.123846 0)
(-0.0960404 0.110936 0)
(-0.100685 0.089679 0)
(-0.102725 0.0631533 0)
(-0.102941 0.0350894 0)
(-0.102045 0.00812798 0)
(-0.100541 -0.0162947 0)
(-0.0987124 -0.037659 0)
(-0.0966287 -0.0559782 0)
(-0.0941969 -0.0715277 0)
(-0.0912044 -0.0846068 0)
(-0.0873553 -0.0954472 0)
(-0.082343 -0.103793 0)
(-0.0757303 -0.108505 0)
(-0.0671247 -0.108596 0)
(-0.0564831 -0.102656 0)
(-0.0440356 -0.088248 0)
(-0.0290614 -0.0647077 0)
(-0.019715 -0.0413325 0)
(-0.0137862 0.0876334 0)
(-0.0170017 0.107507 0)
(-0.0283324 0.12515 0)
(-0.0388128 0.138158 0)
(-0.048899 0.147026 0)
(-0.0578995 0.148678 0)
(-0.0655159 0.141412 0)
(-0.0713728 0.124465 0)
(-0.0753266 0.099291 0)
(-0.077869 0.0697335 0)
(-0.0796795 0.0395114 0)
(-0.081176 0.0110495 0)
(-0.0825312 -0.0144762 0)
(-0.0837634 -0.0368385 0)
(-0.0848296 -0.0562958 0)
(-0.0856152 -0.0732714 0)
(-0.0858862 -0.0882173 0)
(-0.0852936 -0.101465 0)
(-0.0834456 -0.112929 0)
(-0.0798939 -0.122282 0)
(-0.0741749 -0.128272 0)
(-0.06571 -0.128945 0)
(-0.0537226 -0.122344 0)
(-0.0362435 -0.10815 0)
(-0.0234978 -0.0932268 0)
(-0.00848475 0.10773 0)
(-0.0102804 0.127732 0)
(-0.0172491 0.144895 0)
(-0.023806 0.156961 0)
(-0.0301957 0.164198 0)
(-0.0360782 0.163955 0)
(-0.0412736 0.15462 0)
(-0.0456462 0.135396 0)
(-0.0492295 0.108419 0)
(-0.0523631 0.0777721 0)
(-0.0553623 0.0468614 0)
(-0.0583314 0.0177973 0)
(-0.0612283 -0.00842078 0)
(-0.0639936 -0.0315246 0)
(-0.0666258 -0.0517734 0)
(-0.0691258 -0.069758 0)
(-0.0713387 -0.0862161 0)
(-0.0729439 -0.101663 0)
(-0.0735555 -0.116231 0)
(-0.072717 -0.129701 0)
(-0.0698556 -0.141288 0)
(-0.0641205 -0.149821 0)
(-0.0541045 -0.154091 0)
(-0.0374903 -0.152567 0)
(-0.0211154 -0.147925 0)
(-0.00335454 0.117693 0)
(-0.00368451 0.137851 0)
(-0.00624654 0.155204 0)
(-0.00880708 0.167177 0)
(-0.0114816 0.173941 0)
(-0.0141928 0.173231 0)
(-0.0169473 0.163567 0)
(-0.0198799 0.144192 0)
(-0.0230841 0.117198 0)
(-0.0265284 0.0865276 0)
(-0.0301297 0.055423 0)
(-0.0337438 0.0259442 0)
(-0.037241 -0.000836107 0)
(-0.0405664 -0.0245622 0)
(-0.0437517 -0.0454629 0)
(-0.046827 -0.0642534 0)
(-0.0495457 -0.0819585 0)
(-0.0516328 -0.0991159 0)
(-0.0529894 -0.115961 0)
(-0.0533627 -0.132512 0)
(-0.0522362 -0.148733 0)
(-0.0487643 -0.164073 0)
(-0.0418112 -0.177687 0)
(-0.0294801 -0.187953 0)
(-0.0132218 -0.19257 0)
(0.00079435 0.118272 0)
(0.00213868 0.138776 0)
(0.00380613 0.156439 0)
(0.00508813 0.168823 0)
(0.00596557 0.176146 0)
(0.00634078 0.176275 0)
(0.005979 0.167912 0)
(0.00459677 0.150184 0)
(0.00207147 0.124705 0)
(-0.00133045 0.0950625 0)
(-0.00524018 0.0643834 0)
(-0.00932634 0.0347698 0)
(-0.0133275 0.00745716 0)
(-0.0170753 -0.0170163 0)
(-0.0204932 -0.0387362 0)
(-0.0234488 -0.0585558 0)
(-0.0257202 -0.0777012 0)
(-0.0272673 -0.0964474 0)
(-0.0281583 -0.11509 0)
(-0.0284005 -0.133995 0)
(-0.0278306 -0.153278 0)
(-0.0260153 -0.172695 0)
(-0.0226134 -0.191508 0)
(-0.0164797 -0.208078 0)
(-0.0053851 -0.217389 0)
(0.00406225 0.111512 0)
(0.00713365 0.131387 0)
(0.0129467 0.149305 0)
(0.0176871 0.162666 0)
(0.0217141 0.171323 0)
(0.0248909 0.173488 0)
(0.0267855 0.167878 0)
(0.0270743 0.153411 0)
(0.0254468 0.130896 0)
(0.0222391 0.103346 0)
(0.0180773 0.0737854 0)
(0.0135062 0.0444268 0)
(0.00894149 0.0166914 0)
(0.0046904 -0.00869754 0)
(0.000975926 -0.0317318 0)
(-0.00197314 -0.0532659 0)
(-0.00409153 -0.0740983 0)
(-0.00549637 -0.0944464 0)
(-0.00625041 -0.114595 0)
(-0.00649199 -0.134865 0)
(-0.00639956 -0.155677 0)
(-0.00603533 -0.17701 0)
(-0.00591151 -0.197786 0)
(-0.00541184 -0.217178 0)
(-0.00134327 -0.228727 0)
(0.00682311 0.0969356 0)
(0.0112857 0.115264 0)
(0.020419 0.13427 0)
(0.0281356 0.149495 0)
(0.0348201 0.16027 0)
(0.0403554 0.16527 0)
(0.0443608 0.163157 0)
(0.0463325 0.153245 0)
(0.045939 0.135148 0)
(0.0432675 0.110959 0)
(0.039042 0.0834175 0)
(0.0340465 0.0548862 0)
(0.0289011 0.0270151 0)
(0.0240674 0.000769718 0)
(0.019852 -0.023627 0)
(0.0163886 -0.0467644 0)
(0.0136468 -0.0691787 0)
(0.0115451 -0.0910459 0)
(0.010012 -0.112552 0)
(0.00892568 -0.133921 0)
(0.00803664 -0.155376 0)
(0.00698001 -0.176866 0)
(0.00512617 -0.197389 0)
(0.00225075 -0.218229 0)
(0.00102898 -0.231623 0)
(0.00830102 0.0780375 0)
(0.0138267 0.0943155 0)
(0.0252486 0.113658 0)
(0.035409 0.130878 0)
(0.0442651 0.14423 0)
(0.0517236 0.152561 0)
(0.0574936 0.154674 0)
(0.0610627 0.149667 0)
(0.0621656 0.137014 0)
(0.0605145 0.117355 0)
(0.0566039 0.0928833 0)
(0.0513358 0.0659251 0)
(0.0455782 0.0383672 0)
(0.0399893 0.0114807 0)
(0.034982 -0.0141397 0)
(0.0306717 -0.0387162 0)
(0.0269915 -0.0625372 0)
(0.0238613 -0.085681 0)
(0.0211962 -0.108243 0)
(0.0188709 -0.130307 0)
(0.0166704 -0.151929 0)
(0.0142684 -0.172952 0)
(0.0113483 -0.192605 0)
(0.00707886 -0.212557 0)
(0.0038468 -0.227089 0)
(0.00894027 0.0562285 0)
(0.0150064 0.069932 0)
(0.0276799 0.0889207 0)
(0.0396014 0.108073 0)
(0.0500801 0.124305 0)
(0.0589377 0.13619 0)
(0.0659967 0.142645 0)
(0.0709079 0.142497 0)
(0.0732215 0.135697 0)
(0.072857 0.121767 0)
(0.0697775 0.101689 0)
(0.0646466 0.077343 0)
(0.0584401 0.0508115 0)
(0.0520448 0.023739 0)
(0.0460801 -0.00281785 0)
(0.0407805 -0.0285704 0)
(0.0360876 -0.0535679 0)
(0.0319011 -0.0777827 0)
(0.028119 -0.101199 0)
(0.0246189 -0.123791 0)
(0.0212338 -0.145467 0)
(0.0177294 -0.165965 0)
(0.0139034 -0.184583 0)
(0.0090224 -0.20307 0)
(0.00558982 -0.217467 0)
(0.00877364 0.0334986 0)
(0.014803 0.044298 0)
(0.027737 0.0621038 0)
(0.04071 0.0827021 0)
(0.0523573 0.10191 0)
(0.0621836 0.117555 0)
(0.0700798 0.128504 0)
(0.0758243 0.133801 0)
(0.0791601 0.132216 0)
(0.0798139 0.123925 0)
(0.0777388 0.108981 0)
(0.0732342 0.0884276 0)
(0.0670419 0.0639223 0)
(0.0601081 0.0373532 0)
(0.053272 0.0102572 0)
(0.0470166 -0.0164663 0)
(0.0414162 -0.0425053 0)
(0.0363686 -0.0676697 0)
(0.0317368 -0.0918412 0)
(0.0273819 -0.114914 0)
(0.0231653 -0.136713 0)
(0.0188919 -0.156911 0)
(0.0143738 -0.174883 0)
(0.00913562 -0.191947 0)
(0.00630548 -0.205402 0)
(0.00763282 0.0118028 0)
(0.013176 0.0193202 0)
(0.0255775 0.0349918 0)
(0.0388604 0.0561547 0)
(0.0512294 0.0780963 0)
(0.0616989 0.0975435 0)
(0.0700732 0.112831 0)
(0.0762989 0.122845 0)
(0.080263 0.126781 0)
(0.0815804 0.124315 0)
(0.0805063 0.114914 0)
(0.0769336 0.0986383 0)
(0.0713157 0.0770283 0)
(0.0643704 0.0517642 0)
(0.0570218 0.0246475 0)
(0.0500161 -0.00284029 0)
(0.043681 -0.0298705 0)
(0.0380073 -0.0559861 0)
(0.0328485 -0.0809169 0)
(0.0280315 -0.104496 0)
(0.0234169 -0.126463 0)
(0.0188066 -0.146382 0)
(0.0139739 -0.163717 0)
(0.00859919 -0.180077 0)
(0.00620794 -0.192809 0)
(0.00643044 -0.00748139 0)
(0.0111068 -0.00401837 0)
(0.0222491 0.00883123 0)
(0.0349627 0.0296451 0)
(0.0474113 0.0538256 0)
(0.0581671 0.0771036 0)
(0.0667209 0.0968914 0)
(0.0730521 0.111787 0)
(0.0771637 0.120728 0)
(0.0791267 0.123158 0)
(0.0788004 0.118637 0)
(0.0762224 0.107117 0)
(0.0714505 0.0891711 0)
(0.0650554 0.0661036 0)
(0.0577781 0.0396469 0)
(0.0504574 0.0116992 0)
(0.0436886 -0.0162876 0)
(0.0376459 -0.0434456 0)
(0.0322442 -0.0692511 0)
(0.0273149 -0.0934603 0)
(0.0226823 -0.115741 0)
(0.0181136 -0.135576 0)
(0.0133355 -0.152595 0)
(0.00802258 -0.168381 0)
(0.00586649 -0.180715 0)
(0.00657096 -0.0236516 0)
(0.0103554 -0.0243058 0)
(0.0195132 -0.0145847 0)
(0.0304835 0.00498584 0)
(0.0419268 0.0304467 0)
(0.052305 0.0570754 0)
(0.0606939 0.0811774 0)
(0.0669021 0.100575 0)
(0.0709825 0.114037 0)
(0.0730595 0.120686 0)
(0.0731082 0.120606 0)
(0.0713203 0.113974 0)
(0.0675637 0.0997907 0)
(0.0622022 0.0793513 0)
(0.055681 0.0541811 0)
(0.0487023 0.0262192 0)
(0.04199 -0.00257962 0)
(0.035941 -0.0307956 0)
(0.0305939 -0.057618 0)
(0.0258265 -0.0825832 0)
(0.0214325 -0.10525 0)
(0.0171477 -0.124998 0)
(0.0126708 -0.141585 0)
(0.00750783 -0.15716 0)
(0.00547379 -0.169459 0)
(0.00654373 -0.0390563 0)
(0.00965419 -0.0414801 0)
(0.0167237 -0.0338186 0)
(0.0252505 -0.0157957 0)
(0.0347782 0.00979545 0)
(0.0440597 0.0386791 0)
(0.0519132 0.0664846 0)
(0.0578316 0.0900739 0)
(0.0618129 0.107757 0)
(0.0639416 0.118688 0)
(0.0643372 0.122384 0)
(0.0632513 0.118844 0)
(0.0606362 0.108103 0)
(0.0565341 0.0903962 0)
(0.0512397 0.0669846 0)
(0.0451976 0.0395678 0)
(0.0390585 0.0102954 0)
(0.0333772 -0.018877 0)
(0.0283483 -0.046701 0)
(0.0239058 -0.0724839 0)
(0.0198241 -0.0955791 0)
(0.0158243 -0.115365 0)
(0.0116836 -0.131633 0)
(0.00695165 -0.146569 0)
(0.00518305 -0.15909 0)
(0.00509744 -0.0515342 0)
(0.00769982 -0.0547746 0)
(0.0129407 -0.0483458 0)
(0.0190915 -0.0319297 0)
(0.0262983 -0.00709229 0)
(0.033893 0.0227385 0)
(0.0408107 0.0531306 0)
(0.0463179 0.0801277 0)
(0.0502388 0.101321 0)
(0.0526584 0.115642 0)
(0.0537144 0.122469 0)
(0.0534819 0.121794 0)
(0.051998 0.113993 0)
(0.0492051 0.0987586 0)
(0.0453068 0.0772654 0)
(0.0405412 0.0508657 0)
(0.0353659 0.0216037 0)
(0.0303359 -0.00823639 0)
(0.0257922 -0.0368991 0)
(0.0217602 -0.063364 0)
(0.0180127 -0.0867087 0)
(0.0143082 -0.106403 0)
(0.0105046 -0.122237 0)
(0.00631021 -0.136958 0)
(0.0048839 -0.149388 0)
(0.00329531 -0.0610553 0)
(0.00539113 -0.0645355 0)
(0.00891351 -0.0588316 0)
(0.0130066 -0.0436055 0)
(0.0179522 -0.0198863 0)
(0.0236142 0.00979908 0)
(0.0292757 0.0414667 0)
(0.0342142 0.0707821 0)
(0.038082 0.0946306 0)
(0.0408471 0.111545 0)
(0.042553 0.120841 0)
(0.0431923 0.122605 0)
(0.0427815 0.117173 0)
(0.0412915 0.104295 0)
(0.0387749 0.0847059 0)
(0.0353735 0.059642 0)
(0.0313481 0.0309044 0)
(0.0271374 0.000842067 0)
(0.0231515 -0.0283713 0)
(0.0195417 -0.0553109 0)
(0.0161625 -0.0788113 0)
(0.0128174 -0.0984523 0)
(0.0094105 -0.114034 0)
(0.00568294 -0.12824 0)
(0.00450808 -0.140524 0)
(0.00179846 -0.0672458 0)
(0.0032921 -0.0706062 0)
(0.00509629 -0.0655014 0)
(0.00742527 -0.0513346 0)
(0.0106245 -0.0289883 0)
(0.0146631 -0.00020308 0)
(0.0191072 0.031577 0)
(0.0234198 0.0620122 0)
(0.0271826 0.0875668 0)
(0.0302015 0.106396 0)
(0.0324055 0.117698 0)
(0.0337563 0.121491 0)
(0.0342332 0.117936 0)
(0.0338397 0.107097 0)
(0.0325307 0.0893635 0)
(0.0303678 0.0658359 0)
(0.0274709 0.0380755 0)
(0.0241216 0.00830905 0)
(0.0207025 -0.021073 0)
(0.0174853 -0.0482621 0)
(0.0144773 -0.0718049 0)
(0.0115176 -0.0912623 0)
(0.00848137 -0.106517 0)
(0.00515646 -0.12058 0)
(0.00418804 -0.132571 0)
(0.00108836 -0.071293 0)
(0.00206758 -0.0740106 0)
(0.00237561 -0.0691589 0)
(0.00310785 -0.0562874 0)
(0.00506249 -0.0355073 0)
(0.0080226 -0.00802008 0)
(0.0116166 0.0231333 0)
(0.0154044 0.0537895 0)
(0.0189657 0.0802673 0)
(0.0220306 0.100424 0)
(0.0244724 0.113261 0)
(0.0262406 0.118721 0)
(0.0272847 0.116823 0)
(0.0276188 0.107763 0)
(0.0271821 0.0917337 0)
(0.0259729 0.0697729 0)
(0.0240233 0.0432621 0)
(0.0214748 0.0142243 0)
(0.0186149 -0.014945 0)
(0.0157592 -0.0421806 0)
(0.0130829 -0.0657371 0)
(0.0104825 -0.0850226 0)
(0.00779331 -0.100032 0)
(0.00481211 -0.113574 0)
(0.00397897 -0.125264 0)
(0.00119438 -0.0747767 0)
(0.00196949 -0.0763121 0)
(0.00173249 -0.070854 0)
(0.00153488 -0.0590858 0)
(0.00253221 -0.0401549 0)
(0.00471408 -0.0143075 0)
(0.00771862 0.01582 0)
(0.0110289 0.0462737 0)
(0.0142052 0.0732838 0)
(0.0169917 0.0944462 0)
(0.0192967 0.108536 0)
(0.0210743 0.11535 0)
(0.0222544 0.114801 0)
(0.0228572 0.107164 0)
(0.0228546 0.0925844 0)
(0.0222226 0.072043 0)
(0.0209558 0.0468122 0)
(0.0191033 0.0187322 0)
(0.0168337 -0.00991615 0)
(0.0143883 -0.0369669 0)
(0.0120215 -0.0604574 0)
(0.00971275 -0.0794201 0)
(0.00730846 -0.0940388 0)
(0.00464291 -0.107286 0)
(0.00389468 -0.118484 0)
(0.00189124 -0.0786928 0)
(0.00279577 -0.0789886 0)
(0.00347647 -0.0724482 0)
(0.00343005 -0.0609436 0)
(0.00364303 -0.0433039 0)
(0.00501639 -0.0190966 0)
(0.00740915 0.00984365 0)
(0.0101774 0.0399372 0)
(0.0127796 0.0673156 0)
(0.0149698 0.0892223 0)
(0.0166837 0.10418 0)
(0.0179434 0.112124 0)
(0.0187934 0.112797 0)
(0.0192245 0.106301 0)
(0.019236 0.0928467 0)
(0.0188118 0.0734092 0)
(0.0179524 0.0492388 0)
(0.0166707 0.0220698 0)
(0.0150329 -0.00592663 0)
(0.013125 -0.032585 0)
(0.0110986 -0.0558971 0)
(0.00899867 -0.074548 0)
(0.00684426 -0.0889105 0)
(0.00450396 -0.101498 0)
(0.00386922 -0.11205 0)
(0.00324286 -0.0839904 0)
(0.00452465 -0.08333 0)
(0.00653131 -0.0755093 0)
(0.0071764 -0.0626905 0)
(0.0070592 -0.0452251 0)
(0.00765122 -0.0223031 0)
(0.00933259 0.00543882 0)
(0.0115197 0.0351687 0)
(0.0134841 0.0630092 0)
(0.0149218 0.0858151 0)
(0.0158219 0.101962 0)
(0.0163105 0.110686 0)
(0.0165319 0.111901 0)
(0.0165108 0.10604 0)
(0.016239 0.0932894 0)
(0.0157246 0.0745296 0)
(0.0149849 0.0510229 0)
(0.014026 0.0244958 0)
(0.0128511 -0.00289727 0)
(0.0114344 -0.0289809 0)
(0.00974854 -0.0518403 0)
(0.00780101 -0.0700898 0)
(0.0058504 -0.0842278 0)
(0.00389658 -0.0964628 0)
(0.0036401 -0.106178 0)
(0.00480354 -0.0912511 0)
(0.00671972 -0.0893677 0)
(0.00970798 -0.0795922 0)
(0.0111365 -0.0644724 0)
(0.0112457 -0.0462173 0)
(0.0113045 -0.023883 0)
(0.0122151 0.00278955 0)
(0.0136912 0.032127 0)
(0.0149718 0.0604832 0)
(0.0156634 0.0843181 0)
(0.0158285 0.101239 0)
(0.0156452 0.110576 0)
(0.0152241 0.112307 0)
(0.0146287 0.106851 0)
(0.013903 0.0944635 0)
(0.0130987 0.0760191 0)
(0.0122407 0.0528231 0)
(0.0113285 0.026647 0)
(0.0103295 -0.00032507 0)
(0.00916861 -0.0259004 0)
(0.0077073 -0.0482272 0)
(0.00584883 -0.0661776 0)
(0.00406058 -0.0804877 0)
(0.00252501 -0.0924226 0)
(0.00290354 -0.101544 0)
(0.00560554 -0.100294 0)
(0.00810878 -0.096886 0)
(0.01191 -0.0848042 0)
(0.0140803 -0.0671217 0)
(0.0147443 -0.0469444 0)
(0.0147719 -0.0243268 0)
(0.0150539 0.00181819 0)
(0.0157638 0.0308594 0)
(0.0163818 0.0596733 0)
(0.016458 0.0842766 0)
(0.0160176 0.101878 0)
(0.0152488 0.111739 0)
(0.01423 0.114045 0)
(0.0130977 0.108848 0)
(0.0119243 0.0965533 0)
(0.0107877 0.0781256 0)
(0.00972101 0.0549487 0)
(0.0087215 0.028883 0)
(0.00773402 0.00217745 0)
(0.00664783 -0.0229505 0)
(0.00527699 -0.0447272 0)
(0.0035513 -0.062406 0)
(0.00198986 -0.0772095 0)
(0.000819063 -0.0896208 0)
(0.00181944 -0.0989797 0)
(0.00523995 -0.109139 0)
(0.00754835 -0.104727 0)
(0.0119323 -0.0906379 0)
(0.014847 -0.070331 0)
(0.0162743 -0.0481836 0)
(0.0167283 -0.024468 0)
(0.0168371 0.0019617 0)
(0.0170466 0.0309889 0)
(0.0171744 0.0602359 0)
(0.0168315 0.0855554 0)
(0.0159786 0.10405 0)
(0.0147589 0.114548 0)
(0.0133247 0.117014 0)
(0.0118183 0.111858 0)
(0.010314 0.0994809 0)
(0.00890536 0.0808877 0)
(0.00763817 0.0575521 0)
(0.00651233 0.0314396 0)
(0.00545965 0.00487188 0)
(0.00435569 -0.0199305 0)
(0.0030041 -0.0413298 0)
(0.0014564 -0.0590892 0)
(0.000207566 -0.0745743 0)
(-0.000732251 -0.0876958 0)
(0.000965031 -0.0978936 0)
(0.00400205 -0.116113 0)
(0.00530814 -0.112135 0)
(0.00982212 -0.0971975 0)
(0.0135919 -0.0748474 0)
(0.0160171 -0.0504705 0)
(0.0171657 -0.0251904 0)
(0.0175202 0.0021098 0)
(0.0175634 0.0316231 0)
(0.0173902 0.0614773 0)
(0.0168051 0.0876869 0)
(0.0157325 0.106716 0)
(0.0143015 0.117753 0)
(0.0126635 0.120558 0)
(0.0109616 0.115456 0)
(0.00927527 0.102955 0)
(0.00771039 0.0841363 0)
(0.00632152 0.0605745 0)
(0.00510895 0.034351 0)
(0.00399577 0.00785843 0)
(0.00285052 -0.0167047 0)
(0.00150879 -0.0378693 0)
(7.3134e-05 -0.0558813 0)
(-0.0010681 -0.0719934 0)
(-0.00182202 -0.0861927 0)
(0.000732084 -0.097614 0)
(0.00232141 -0.120956 0)
(0.0025322 -0.118603 0)
(0.00659717 -0.104167 0)
(0.0109789 -0.0808469 0)
(0.0144812 -0.0543988 0)
(0.0165338 -0.0269713 0)
(0.0173577 0.00181309 0)
(0.0174669 0.0323416 0)
(0.0171933 0.0629782 0)
(0.0165364 0.0899873 0)
(0.0154256 0.109887 0)
(0.0139646 0.121341 0)
(0.0123042 0.124381 0)
(0.0105752 0.119305 0)
(0.00885766 0.106662 0)
(0.00726536 0.0876026 0)
(0.00585872 0.0637992 0)
(0.00463327 0.0374438 0)
(0.00351406 0.0109863 0)
(0.0023717 -0.0134227 0)
(0.00111562 -0.034515 0)
(-0.000145009 -0.0528481 0)
(-0.00114651 -0.0696047 0)
(-0.0018718 -0.0847426 0)
(0.000889117 -0.0973015 0)
(0.000665335 -0.123216 0)
(0.000369998 -0.123423 0)
(0.00352454 -0.110816 0)
(0.00789781 -0.0878118 0)
(0.0121177 -0.0600324 0)
(0.015006 -0.0302407 0)
(0.0164333 0.00079385 0)
(0.0168146 0.032684 0)
(0.0166188 0.0643223 0)
(0.0160233 0.0921587 0)
(0.0150162 0.112808 0)
(0.0136699 0.124779 0)
(0.0121179 0.128073 0)
(0.0104919 0.123048 0)
(0.00886442 0.110294 0)
(0.00734348 0.0910082 0)
(0.00598835 0.0669758 0)
(0.00479203 0.0404794 0)
(0.00370462 0.0139987 0)
(0.00264147 -0.0103675 0)
(0.0016086 -0.0315524 0)
(0.000714139 -0.0501598 0)
(-2.18947e-05 -0.0672636 0)
(-0.000851656 -0.0830951 0)
(0.00110074 -0.0962797 0)
(-4.32536e-05 -0.124029 0)
(-4.88563e-05 -0.126824 0)
(0.00183072 -0.116401 0)
(0.00537552 -0.0947655 0)
(0.00956109 -0.066383 0)
(0.0128168 -0.0347402 0)
(0.0147112 -0.00142881 0)
(0.0154468 0.032442 0)
(0.0154388 0.0653046 0)
(0.0149997 0.0940555 0)
(0.0141788 0.115424 0)
(0.0130324 0.127879 0)
(0.0116787 0.131426 0)
(0.010241 0.126464 0)
(0.00878439 0.113631 0)
(0.00739501 0.0941678 0)
(0.00611803 0.0699462 0)
(0.00495399 0.0433022 0)
(0.0038964 0.0166966 0)
(0.0029475 -0.0078208 0)
(0.00220218 -0.0293121 0)
(0.00175085 -0.0481892 0)
(0.00130027 -0.0653071 0)
(0.000491972 -0.081338 0)
(0.00119717 -0.0948 0)
(0.000235353 -0.125279 0)
(0.000773806 -0.129054 0)
(0.00135069 -0.120137 0)
(0.00361739 -0.100324 0)
(0.0070567 -0.0722577 0)
(0.0101524 -0.0393489 0)
(0.0121488 -0.00422705 0)
(0.013068 0.0315398 0)
(0.0132558 0.0657451 0)
(0.0130263 0.0954093 0)
(0.0124505 0.1175 0)
(0.0115621 0.130454 0)
(0.0104611 0.134278 0)
(0.00925909 0.129412 0)
(0.00801682 0.116557 0)
(0.00679897 0.0970025 0)
(0.00563814 0.0726633 0)
(0.0045479 0.0458842 0)
(0.00355787 0.0190751 0)
(0.00273318 -0.00575514 0)
(0.0022135 -0.027682 0)
(0.00207394 -0.0467898 0)
(0.00186299 -0.0636054 0)
(0.00120561 -0.0794629 0)
(0.00104183 -0.0930674 0)
(0.000872238 -0.128046 0)
(0.00210167 -0.130554 0)
(0.00136979 -0.122484 0)
(0.00206056 -0.104402 0)
(0.00438381 -0.0771248 0)
(0.00699371 -0.0435924 0)
(0.00882916 -0.00696337 0)
(0.00973519 0.0302595 0)
(0.0100019 0.0657192 0)
(0.00991283 0.0962254 0)
(0.00954791 0.118983 0)
(0.00891794 0.132429 0)
(0.00809124 0.136549 0)
(0.00715947 0.131813 0)
(0.00617744 0.11899 0)
(0.0051957 0.0994147 0)
(0.00424106 0.0750206 0)
(0.00333321 0.0481349 0)
(0.00251538 0.0211139 0)
(0.00186809 -0.00407261 0)
(0.00152076 -0.0264642 0)
(0.00153865 -0.0458102 0)
(0.00155121 -0.0623157 0)
(0.00123386 -0.0779624 0)
(0.000630541 -0.0914548 0)
(0.00117426 -0.133087 0)
(0.00370915 -0.132024 0)
(0.00203899 -0.12318 0)
(0.00127273 -0.106347 0)
(0.00232093 -0.0805104 0)
(0.00398965 -0.0470286 0)
(0.00527704 -0.00941242 0)
(0.00586982 0.0291184 0)
(0.00596052 0.0655525 0)
(0.00581016 0.0967217 0)
(0.00550738 0.119994 0)
(0.00505381 0.133834 0)
(0.00447973 0.1382 0)
(0.00384339 0.133577 0)
(0.00318467 0.120797 0)
(0.00253524 0.10123 0)
(0.00190999 0.0768174 0)
(0.00132151 0.0498558 0)
(0.00080783 0.0226471 0)
(0.00044454 -0.00286633 0)
(0.000312657 -0.0256642 0)
(0.000445725 -0.0452682 0)
(0.000734797 -0.0616243 0)
(0.000999421 -0.0770085 0)
(9.40542e-05 -0.0901904 0)
(0.000326816 -0.138812 0)
(0.00447341 -0.133281 0)
(0.00326889 -0.122114 0)
(0.00193921 -0.106185 0)
(0.00155799 -0.081396 0)
(0.00178522 -0.0484382 0)
(0.00199075 -0.0104291 0)
(0.00180204 0.0288583 0)
(0.00134893 0.0659008 0)
(0.000848119 0.0974117 0)
(0.000398453 0.120879 0)
(-5.43368e-06 0.134848 0)
(-0.000374252 0.139266 0)
(-0.000693443 0.134622 0)
(-0.000955728 0.121798 0)
(-0.00116355 0.102201 0)
(-0.00132804 0.077761 0)
(-0.00145977 0.0507374 0)
(-0.00154013 0.0233741 0)
(-0.00150693 -0.00240332 0)
(-0.00131966 -0.0255099 0)
(-0.000971355 -0.0454089 0)
(-0.000322546 -0.0619304 0)
(0.00064171 -0.0770255 0)
(-0.000323375 -0.0896312 0)
(-0.00110419 -0.142521 0)
(0.0041556 -0.133672 0)
(0.00335601 -0.120558 0)
(0.00188633 -0.103961 0)
(0.000336384 -0.0795103 0)
(-0.000774414 -0.0470823 0)
(-0.00182273 -0.0091138 0)
(-0.00303927 0.0303883 0)
(-0.00425629 0.0675059 0)
(-0.0052606 0.0988457 0)
(-0.00594796 0.122011 0)
(-0.00633547 0.135651 0)
(-0.0064746 0.139754 0)
(-0.00640259 0.134835 0)
(-0.00616101 0.121799 0)
(-0.00579505 0.102067 0)
(-0.00535868 0.0775614 0)
(-0.00489961 0.0504892 0)
(-0.0044281 0.0230225 0)
(-0.00389681 -0.00294622 0)
(-0.00326508 -0.0262837 0)
(-0.00250974 -0.0464866 0)
(-0.00137113 -0.0633414 0)
(0.000208185 -0.0780123 0)
(-0.000741143 -0.0897515 0)
(-0.00268949 -0.143309 0)
(0.00275385 -0.132161 0)
(0.00137725 -0.117435 0)
(-0.00043919 -0.0998149 0)
(-0.00269438 -0.0754647 0)
(-0.00487537 -0.0433094 0)
(-0.0070976 -0.00551115 0)
(-0.00932292 0.0337995 0)
(-0.011282 0.0704521 0)
(-0.012732 0.10104 0)
(-0.0135736 0.123324 0)
(-0.0138423 0.136096 0)
(-0.0136339 0.139458 0)
(-0.0130351 0.133956 0)
(-0.0121429 0.120498 0)
(-0.0110509 0.100519 0)
(-0.00986833 0.0759264 0)
(-0.00868918 0.048853 0)
(-0.00755728 0.0213688 0)
(-0.00643881 -0.00469624 0)
(-0.00526888 -0.0281881 0)
(-0.0039943 -0.0486428 0)
(-0.00237935 -0.0658106 0)
(-0.00036286 -0.0799568 0)
(-0.00110839 -0.0906819 0)
(-0.00439068 -0.141242 0)
(0.000245128 -0.129132 0)
(-0.00181665 -0.113113 0)
(-0.00417299 -0.0944394 0)
(-0.00710019 -0.0696145 0)
(-0.0103372 -0.037452 0)
(-0.0137199 0.000107795 0)
(-0.0169064 0.0388499 0)
(-0.0194957 0.0744717 0)
(-0.0212345 0.103684 0)
(-0.0220556 0.124482 0)
(-0.022033 0.135835 0)