/*--------------------------------*- C++ -*----------------------------------*\
| =========                 |                                                 |
| \\      /  F ield         | OpenFOAM: The Open Source CFD Toolbox           |
|  \\    /   O peration     | Version:  2.3.0                                 |
|   \\  /    A nd           | Web:      www.OpenFOAM.org                      |
|    \\/     M anipulation  |                                                 |
\*---------------------------------------------------------------------------*/
FoamFile
{
    version     2.0;
    format      ascii;
    class       volScalarField;
    location    "0.356";
    object      p_rgh;
}
// * * * * * * * * * * * * * * * * * * * * * * * * * * * * * * * * * * * * * //

dimensions      [1 -1 -2 0 0 0 0];

internalField   nonuniform List<scalar> 
545
(
-7.07486e+07
-1.31201e+07
-1.84539e+06
-2.38353e+06
-7.66475e+06
5.07371e+07
-2.74601e+06
-2.16174e+06
-2.29398e+06
-6.24814e+06
8.8296e+07
3.07944e+06
-417777
-462143
-6.55365e+06
5.11823e+07
-2.90541e+06
-1.74618e+06
-218589
-5.85823e+06
-8.13931e+07
-2.16699e+06
-497064
3.633e+06
1.02508e+07
-6.34752e+06
-1.68749e+06
-749059
-141594
-43169.2
-35583.8
-48300
-52312.1
-54168.6
-55307.7
-56970.2
-58405.2
-60011.7
-61346.8
-62855.6
-63882.7
-65068.9
-65752.7
-66443
-66614.7
-66700.1
-66073.2
-65352.4
-63837.8
-62351.3
-60088.2
-58008.2
-55194.9
-52459.5
-49081.8
-46150.3
-42431.2
-39191.5
-35364.4
-31988.7
-28135.6
-24867.8
-21181.3
-18190.2
-14911.9
-12255.8
-9329.32
-6994.87
-4122.39
-2054.25
-5.62174e+06
-1.07254e+06
-712564
-245463
-133583
-82490.8
-68010.3
-59492.8
-56461.4
-55930.2
-57022.3
-58343.7
-59909.9
-61267.3
-62795.1
-63850.1
-64984.7
-65765.8
-66368.9
-66633.4
-66647.1
-66068.7
-65307.3
-63823.9
-62286.4
-60116.4
-57935
-55244
-52412.3
-49096.7
-46083.3
-42466.4
-39134.4
-35383.2
-31920.2
-28147.2
-24777.9
-21207.2
-18060.4
-14974.5
-12148.2
-9422.7
-6844.24
-4046.19
-1379.61
-6.60513e+06
-544166
-458677
-127584
-100070
-76550.9
-69945.7
-60569.2
-57623.7
-55931.1
-57530.5
-58033.1
-60249.9
-60862.4
-63198.7
-63457.3
-65347.5
-65397.2
-66732.1
-66260.6
-67044.4
-65658.3
-65751.4
-63356.6
-62683.1
-59671.5
-58345.1
-54852
-52829.7
-48629
-46546
-42046.2
-39612.3
-34935.4
-32402.1
-27659.8
-25236.7
-20707.5
-18457.7
-14522.8
-12565.6
-8974.25
-7283.25
-3496.54
-2115.6
-7.00334e+06
486069
47652
79214
-32311.6
-56752.9
-67097.8
-59294.8
-58599.2
-55341
-58521.8
-57283
-61087.5
-59957.2
-64144.7
-62573.9
-66182.8
-64560.8
-67542.7
-65412.7
-67920
-64738.6
-66721.5
-62368.2
-63531.6
-58743
-59203.4
-54020.6
-53707.2
-47663.6
-47511.1
-41153.7
-40615.3
-33992.4
-33429
-26663.8
-26217.7
-19728.6
-19303.1
-13649.4
-13410.6
-8105.82
-8154
-2344.43
-2448.9
-1.65203e+06
2.78878e+06
890657
248558
-15055.4
-55670.1
-68087.8
-58226.6
-60250.5
-54552
-59793.7
-56307.5
-62142.5
-58744.5
-65434.2
-61360.9
-67296.9
-63482.2
-68556.5
-64313.9
-69068.7
-63486.3
-68047.5
-60964.5
-64752.2
-57405.5
-60369.8
-52932.4
-54926.5
-46242.4
-48956.3
-39815.4
-42060
-32623.2
-34918.4
-25188
-27651.6
-18298.2
-20507.5
-12498.4
-14534.8
-6945.34
-9428.41
-951.289
-4286.69
-1.19919e+07
4.10053e+06
1.52357e+06
349269
-9610.08
-63755.9
-68094.7
-61399
-55451.5
-54063.5
-54174.3
-54228.2
-56286.3
-60164
-62618.8
-62243.8
-61150.8
-61716.7
-63882.7
-62479.5
-63102.4
-65233
-65025.5
-63778.8
-58946.6
-56049.1
-53550
-49960.3
-48227.9
-47189.4
-41042
-38736.2
-37104.2
-35663.3
-31854.8
-28284.2
-24490
-19430.5
-13771.8
-10685.1
-9549.98
-5089.13
-3117.64
-1875.69
-571.024
-8.13787e+07
-2.15477e+06
-487473
3.64131e+06
1.02579e+07
5.11968e+07
-2.89354e+06
-1.73671e+06
-209963
-5.85065e+06
8.83103e+07
3.09093e+06
-408320
-453184
-6.54591e+06
5.07512e+07
-2.73485e+06
-2.15225e+06
-2.28514e+06
-6.24049e+06
-7.07348e+07
-1.3109e+07
-1.83588e+06
-2.37481e+06
-7.65711e+06
-1.64629e+06
2.78515e+06
895480
244423
-10565.4
-60045
-62888.1
-63392.8
-55843.2
-59548.8
-55187.8
-61185.2
-57332.1
-63867.4
-60016.3
-66479.2
-62327.9
-68519.4
-63470
-69401
-63923.1
-68895
-62323.7
-66632.7
-59496
-62526.3
-55156.5
-58110.3
-49711.3
-51636
-43656.2
-45130.9
-36531.3
-38576.4
-28986.3
-31164
-21671.6
-23997.3
-15157.7
-18016.5
-9089.64
-12482.9
-4069.38
-7395.43
722.068
-6.99753e+06
485213
51206.2
77416.6
-29473.5
-58752.6
-64046.1
-62373.7
-56705.2
-58537.5
-56242.8
-60094.4
-58471.9
-62750.4
-61119.2
-65320.3
-63432.7
-67318
-64695.1
-68178.7
-65042.5
-67642.4
-63525.6
-65411.9
-60612.7
-61505.4
-56245.7
-56852.1
-50796.2
-50656.9
-44582.5
-44087.7
-37598
-37286.9
-30241.9
-29918.9
-22977.2
-22878.3
-16438.9
-16764.3
-10474.3
-11221.3
-5369.59
-6021.07
329.832
-6.59982e+06
-542378
-456286
-127206
-98502.2
-76412.9
-68736.8
-61967.2
-57900.5
-57630.7
-57284.8
-59076.4
-59522
-61672
-62187.7
-64212.5
-64472.2
-66176.5
-65802.9
-67011.5
-66093.2
-66420.4
-64652.4
-64185.6
-61709.1
-60387.4
-57340.2
-55624.1
-51907.9
-49521.4
-45659.3
-42925
-38737.7
-35989.4
-31482.7
-28676.9
-24275.9
-21727.3
-17698
-15588.4
-11768
-10067.8
-6580.08
-5031.82
-1766.06
-5.61606e+06
-1.06943e+06
-710224
-244049
-132094
-81400.6
-67360.8
-60415.4
-57673.9
-57300.1
-57591
-58841.8
-59833.7
-61399
-62483.5
-63909.1
-64728.8
-65847.4
-66075.1
-66671
-66311.4
-66065.1
-64897.9
-63837.1
-61932.4
-60098.6
-57569.4
-55285
-52139.7
-49243.7
-45879.7
-42648.3
-38984.3
-35661.1
-31780.2
-28401.8
-24626.4
-21499.4
-18038.3
-15339.2
-12141.3
-9804.45
-6956.91
-4661.69
-1448.56
-6.34154e+06
-1.68361e+06
-746743
-139723
-41567
-34040.6
-47786.8
-53094.9
-55716.2
-56673.9
-57860.6
-58793.4
-60152.4
-61278.3
-62761.5
-63738.6
-64981.3
-65618.9
-66324.8
-66428
-66529.7
-65816.8
-65135.7
-63582.5
-62144.9
-59840.4
-57811
-55006.8
-52360.3
-48993.7
-46135
-42404
-39256.1
-35397.2
-32081.4
-28167.2
-24958.8
-21281.7
-18362.9
-15111.1
-12449
-9597.74
-7258.61
-4642.02
-2639.81
)
;

boundaryField
{
    AirInlet
    {
        type            fixedFluxPressure;
        gradient        uniform 3.2752e+08;
        value           uniform -1.19887e+07;
    }
    WaterInlet
    {
        type            fixedFluxPressure;
        gradient        nonuniform List<scalar> 10(0 -0.169684 0 -0.0373168 -0.039904 0 -0.11195 -0.0352656 0 -0.0519688);
        value           nonuniform List<scalar> 10(-7.07486e+07 5.07371e+07 8.8296e+07 5.11823e+07 -8.13931e+07 -8.13787e+07 5.11968e+07 8.83103e+07 5.07512e+07 -7.07348e+07);
    }
    ChannelWall
    {
        type            fixedFluxPressure;
        gradient        uniform 0;
        value           nonuniform List<scalar> 
110
(
-8.13931e+07
-2.16699e+06
-497064
3.633e+06
1.02508e+07
-8.13787e+07
-2.15477e+06
-487473
3.64131e+06
1.02579e+07
-7.07348e+07
-1.3109e+07
-1.83588e+06
-2.37481e+06
-7.65711e+06
-6.34154e+06
-1.68361e+06
-746743
-139723
-41567
-34040.6
-47786.8
-53094.9
-55716.2
-56673.9
-57860.6
-58793.4
-60152.4
-61278.3
-62761.5
-63738.6
-64981.3
-65618.9
-66324.8
-66428
-66529.7
-65816.8
-65135.7
-63582.5
-62144.9
-59840.4
-57811
-55006.8
-52360.3
-48993.7
-46135
-42404
-39256.1
-35397.2
-32081.4
-28167.2
-24958.8
-21281.7
-18362.9
-15111.1
-12449
-9597.74
-7258.61
-4642.02
-2639.81
-7.07486e+07
-1.31201e+07
-1.84539e+06
-2.38353e+06
-7.66475e+06
-6.34752e+06
-1.68749e+06
-749059
-141594
-43169.2
-35583.8
-48300
-52312.1
-54168.6
-55307.7
-56970.2
-58405.2
-60011.7
-61346.8
-62855.6
-63882.7
-65068.9
-65752.7
-66443
-66614.7
-66700.1
-66073.2
-65352.4
-63837.8
-62351.3
-60088.2
-58008.2
-55194.9
-52459.5
-49081.8
-46150.3
-42431.2
-39191.5
-35364.4
-31988.7
-28135.6
-24867.8
-21181.3
-18190.2
-14911.9
-12255.8
-9329.32
-6994.87
-4122.39
-2054.25
)
;
    }
    Outlet
    {
        type            totalPressure;
        rho             rho;
        psi             none;
        gamma           1;
        p0              uniform 0;
        value           uniform 0;
    }
    FrontAndBack
    {
        type            empty;
    }
}


// ************************************************************************* //
