/*--------------------------------*- C++ -*----------------------------------*\
| =========                 |                                                 |
| \\      /  F ield         | OpenFOAM: The Open Source CFD Toolbox           |
|  \\    /   O peration     | Version:  2.3.0                                 |
|   \\  /    A nd           | Web:      www.OpenFOAM.org                      |
|    \\/     M anipulation  |                                                 |
\*---------------------------------------------------------------------------*/
FoamFile
{
    version     2.0;
    format      ascii;
    class       surfaceScalarField;
    location    "0.356";
    object      phi;
}
// * * * * * * * * * * * * * * * * * * * * * * * * * * * * * * * * * * * * * //

dimensions      [0 3 -1 0 0 0 0];

internalField   nonuniform List<scalar> 
1024
(
2.44359e-12
5.64142e-14
2.54305e-12
-9.94636e-14
2.5776e-12
-3.45537e-14
2.61639e-12
-3.87909e-14
4.033e-14
2.57606e-12
2.57499e-12
-1.85752e-14
2.55784e-12
-8.23163e-14
2.56169e-12
-3.8401e-14
2.58233e-12
-5.94352e-14
6.78759e-14
2.55479e-12
2.59533e-12
-1.139e-13
2.53627e-12
-2.32579e-14
2.52362e-12
-2.57586e-14
2.53773e-12
-7.35434e-14
9.19555e-14
2.51365e-12
2.52428e-12
-1.38184e-13
2.46626e-12
3.4764e-14
2.46031e-12
-1.9806e-14
2.46277e-12
-7.60034e-14
1.00156e-13
2.45457e-12
2.36182e-12
2.39658e-12
2.37677e-12
2.30077e-12
2.40093e-12
2.37011e-12
2.05955e-13
2.32474e-12
4.53695e-14
2.32343e-12
1.3071e-15
2.33171e-12
-8.27368e-15
2.33675e-12
-5.04383e-15
2.33893e-12
-2.17664e-15
2.33968e-12
-7.49539e-16
2.33992e-12
-2.39119e-16
2.33999e-12
-7.58914e-17
2.34e-12
-1.33134e-17
2.34001e-12
-2.51149e-18
2.34e-12
5.78043e-18
2.34e-12
-1.63552e-18
2.34e-12
3.97415e-18
2.34e-12
-2.18575e-18
2.34e-12
3.48628e-18
2.34e-12
-3.33843e-18
2.34e-12
3.99879e-18
2.34e-12
-4.25217e-18
2.34e-12
4.54521e-18
2.34e-12
-3.19105e-18
2.33999e-12
5.1513e-18
2.34e-12
-2.66269e-18
2.33999e-12
4.86406e-18
2.34e-12
-3.82062e-18
2.33999e-12
3.8675e-18
2.34e-12
-3.85394e-18
2.33999e-12
4.84072e-18
2.34e-12
-4.93254e-18
2.33999e-12
3.23216e-18
2.34e-12
-2.63439e-18
2.33999e-12
3.95899e-18
2.34e-12
-3.77591e-18
2.33999e-12
4.97976e-18
2.33999e-12
-4.20004e-18
2.33999e-12
4.81064e-18
2.33999e-12
-4.64494e-18
2.33999e-12
4.59626e-18
2.34e-12
-5.80851e-18
2.33999e-12
5.36435e-18
2.34e-12
-7.22141e-18
2.33999e-12
6.17782e-18
2.34e-12
-6.40991e-18
2.33999e-12
4.98154e-18
-1.79685e-17
2.36442e-12
3.96321e-13
2.3254e-12
8.43899e-14
2.32743e-12
-7.21262e-16
2.33354e-12
-1.43874e-14
2.33745e-12
-8.94962e-15
2.33912e-12
-3.84896e-15
2.33972e-12
-1.34454e-15
2.33992e-12
-4.46798e-16
2.33998e-12
-1.33009e-16
2.34e-12
-3.46844e-17
2.34e-12
1.82552e-18
2.34e-12
2.16397e-18
2.34e-12
4.33541e-18
2.34e-12
-1.17873e-18
2.34e-12
4.16022e-18
2.34e-12
-2.69818e-18
2.34e-12
2.49899e-18
2.34e-12
-2.38215e-18
2.34e-12
9.66404e-19
2.34e-12
-2.09311e-18
2.34e-12
3.189e-18
2.34e-12
-1.70627e-18
2.34e-12
4.74262e-18
2.34e-12
-2.83194e-18
2.34e-12
3.46268e-18
2.34001e-12
-5.03326e-18
2.34e-12
3.56915e-18
2.34001e-12
-2.88554e-18
2.34e-12
1.93553e-18
2.34001e-12
-6.2538e-18
2.34e-12
6.64595e-18
2.34001e-12
-4.77296e-18
2.34e-12
4.85272e-18
2.34001e-12
-3.20948e-18
2.34e-12
4.91137e-18
2.34001e-12
-3.84862e-18
2.34e-12
4.7494e-18
2.34001e-12
-4.51121e-18
2.34e-12
3.28533e-18
2.34001e-12
-3.61651e-18
2.34e-12
1.52045e-18
2.34001e-12
-3.77499e-18
2.34e-12
5.15458e-18
2.34001e-12
-5.0861e-18
1.50732e-17
2.34367e-12
5.66304e-13
2.32842e-12
9.96366e-14
2.33408e-12
-6.38123e-15
2.33773e-12
-1.8031e-14
2.33926e-12
-1.0488e-14
2.33976e-12
-4.34129e-15
2.33991e-12
-1.49476e-15
2.33997e-12
-5.05123e-16
2.33999e-12
-1.56996e-16
2.34e-12
-4.43554e-17
2.34e-12
1.87127e-18
2.34e-12
1.26094e-18
2.34e-12
5.74095e-18
2.34e-12
-2.89853e-18
2.34e-12
6.59277e-18
2.34e-12
-4.22752e-18
2.34e-12
2.90058e-18
2.34e-12
-2.53675e-18
2.34e-12
7.37783e-20
2.34e-12
-2.34259e-18
2.34e-12
3.77595e-18
2.34e-12
-2.5917e-18
2.34e-12
6.18183e-18
2.34e-12
-3.94145e-18
2.34e-12
3.79585e-18
2.34e-12
-5.90625e-18
2.34e-12
3.17943e-18
2.34e-12
-2.01287e-18
2.34e-12
1.56001e-18
2.34e-12
-7.94164e-18
2.34e-12
7.8758e-18
2.34e-12
-5.40613e-18
2.34e-12
5.39448e-18
2.34e-12
-3.36352e-18
2.34e-12
5.63906e-18
2.34e-12
-4.0773e-18
2.34e-12
5.11522e-18
2.34e-12
-4.04195e-18
2.34e-12
1.83384e-18
2.34e-12
-1.53955e-18
2.34e-12
-1.27601e-18
2.34e-12
-9.44527e-19
2.34e-12
2.40023e-18
2.34e-12
-3.97317e-18
-6.51802e-18
2.31987e-12
7.01005e-13
2.33621e-12
8.3294e-14
2.34385e-12
-1.40183e-14
2.34309e-12
-1.72787e-14
2.34147e-12
-8.86079e-15
2.34055e-12
-3.41886e-15
2.34014e-12
-1.09294e-15
2.34005e-12
-4.10947e-16
2.33999e-12
-1.0201e-16
2.34001e-12
-6.09617e-17
2.33999e-12
2.51501e-17
2.34001e-12
-2.15665e-17
2.33999e-12
2.7752e-17
2.34001e-12
-2.72876e-17
2.33999e-12
3.15487e-17
2.34001e-12
-2.8827e-17
2.33999e-12
2.67853e-17
2.34001e-12
-2.61703e-17
2.33999e-12
2.3284e-17
2.34001e-12
-2.66733e-17
2.33999e-12
2.87785e-17
2.34001e-12
-2.88949e-17
2.33999e-12
3.33243e-17
2.34001e-12
-3.16517e-17
2.33999e-12
3.08783e-17
2.34002e-12
-3.38061e-17
2.33999e-12
2.98266e-17
2.34001e-12
-2.73437e-17
2.33999e-12
2.843e-17
2.34002e-12
-3.73113e-17
2.33999e-12
3.75141e-17
2.34002e-12
-3.45091e-17
2.33999e-12
3.46429e-17
2.34002e-12
-3.25113e-17
2.33999e-12
3.5689e-17
2.34002e-12
-3.43612e-17
2.33999e-12
3.51893e-17
2.34002e-12
-3.39216e-17
2.33999e-12
3.01702e-17
2.34002e-12
-2.88997e-17
2.33999e-12
2.64324e-17
2.34002e-12
-2.94356e-17
2.33998e-12
3.38212e-17
2.34001e-12
-3.19363e-17
5.08344e-17
2.31005e-12
7.91886e-13
2.35641e-12
3.69309e-14
2.35598e-12
-1.35925e-14
2.34798e-12
-9.27369e-15
2.34309e-12
-3.97611e-15
2.34107e-12
-1.39728e-15
2.34032e-12
-3.40821e-16
2.34011e-12
-2.02381e-16
2.34e-12
7.80622e-18
2.34002e-12
-7.58676e-17
2.33998e-12
6.03325e-17
2.34002e-12
-5.60385e-17
2.33998e-12
5.98148e-17
2.34002e-12
-6.26618e-17
2.33998e-12
6.71943e-17
2.34002e-12
-6.43679e-17
2.33998e-12
6.02429e-17
2.34002e-12
-5.74436e-17
2.33998e-12
5.46569e-17
2.34002e-12
-5.91212e-17
2.33998e-12
6.28241e-17
2.34002e-12
-6.49058e-17
2.33998e-12
6.88373e-17
2.34002e-12
-6.90974e-17
2.33998e-12
6.84764e-17
2.34002e-12
-7.04391e-17
2.33999e-12
6.46248e-17
2.34002e-12
-6.15079e-17
2.33998e-12
6.65575e-17
2.34002e-12
-7.73667e-17
2.33998e-12
7.82451e-17
2.34002e-12
-7.44254e-17
2.33998e-12
7.31867e-17
2.34002e-12
-7.0584e-17
2.33998e-12
7.30535e-17
2.34002e-12
-7.24223e-17
2.33998e-12
7.25239e-17
2.34002e-12
-7.05196e-17
2.33999e-12
6.45336e-17
2.34002e-12
-6.12996e-17
2.33999e-12
5.92624e-17
2.34002e-12
-6.16632e-17
2.33998e-12
6.94772e-17
2.34001e-12
-6.25974e-17
7.17351e-17
2.5837e-12
-7.91812e-13
2.65769e-12
-3.70617e-14
2.63039e-12
1.37128e-14
2.61196e-12
9.15077e-15
2.60389e-12
4.09611e-15
2.60122e-12
1.2745e-15
2.60041e-12
4.69043e-16
2.60013e-12
7.16702e-17
2.60002e-12
1.19922e-16
2.6e-12
-5.32037e-17
2.59999e-12
7.0015e-17
2.60001e-12
-7.49075e-17
2.59999e-12
7.27176e-17
2.6e-12
-7.17598e-17
2.6e-12
7.03636e-17
2.60001e-12
-7.31263e-17
2.59999e-12
7.60958e-17
2.60002e-12
-8.00041e-17
2.59999e-12
8.37979e-17
2.60001e-12
-8.02256e-17
2.59999e-12
7.72468e-17
2.60001e-12
-7.75539e-17
2.6e-12
7.62432e-17
2.60001e-12
-7.64017e-17
2.6e-12
7.58227e-17
2.6e-12
-7.24226e-17
2.59999e-12
7.92438e-17
2.60001e-12
-8.30878e-17
2.6e-12
7.82923e-17
2.59999e-12
-6.91031e-17
2.6e-12
6.83991e-17
2.6e-12
-7.23935e-17
2.59999e-12
7.55788e-17
2.6e-12
-8.06203e-17
2.6e-12
7.93031e-17
2.6e-12
-7.99333e-17
2.6e-12
8.01638e-17
2.60001e-12
-8.05678e-17
2.59999e-12
8.5102e-17
2.60001e-12
-8.77828e-17
2.59998e-12
9.14952e-17
2.60001e-12
-8.65069e-17
2.59999e-12
8.55681e-17
2.6e-12
-6.98873e-17
1.04357e-16
2.36182e-12
1.38183e-13
2.39658e-12
-3.47657e-14
2.37678e-12
1.98057e-14
2.30077e-12
7.60076e-14
-1.00152e-13
2.40092e-12
2.52428e-12
1.13901e-13
2.46626e-12
2.32562e-14
2.46031e-12
2.57579e-14
2.46277e-12
7.3544e-14
-9.19525e-14
2.45457e-12
2.59533e-12
1.85759e-14
2.53627e-12
8.2315e-14
2.52362e-12
3.84009e-14
2.53773e-12
5.94373e-14
-6.7872e-14
2.51365e-12
2.57499e-12
-5.64125e-14
2.55784e-12
9.94622e-14
2.56169e-12
3.45538e-14
2.58233e-12
3.87931e-14
-4.03303e-14
2.55479e-12
2.44359e-12
2.54305e-12
2.5776e-12
2.6164e-12
2.57607e-12
2.31009e-12
-7.00977e-13
2.35637e-12
-8.33465e-14
2.35602e-12
1.40641e-14
2.34794e-12
1.72298e-14
2.34313e-12
8.90697e-15
2.34103e-12
3.37019e-15
2.34036e-12
1.1461e-15
2.34007e-12
3.56824e-16
2.34004e-12
1.52579e-16
2.33998e-12
9.35148e-18
2.34002e-12
2.69945e-17
2.33998e-12
-3.0532e-17
2.34002e-12
2.54825e-17
2.33998e-12
-2.73087e-17
2.34002e-12
2.50975e-17
2.33998e-12
-2.68416e-17
2.34003e-12
2.74502e-17
2.33997e-12
-2.86781e-17
2.34003e-12
3.1947e-17
2.33998e-12
-2.89811e-17
2.34003e-12
2.72976e-17
2.33998e-12
-2.9174e-17
2.34003e-12
2.6752e-17
2.33998e-12
-2.79647e-17
2.34003e-12
2.69537e-17
2.33998e-12
-2.25109e-17
2.34003e-12
2.70342e-17
2.33998e-12
-2.97584e-17
2.34003e-12
2.86623e-17
2.33998e-12
-2.10149e-17
2.34002e-12
2.07474e-17
2.33998e-12
-2.38122e-17
2.34003e-12
2.54175e-17
2.33998e-12
-2.98262e-17
2.34003e-12
2.76418e-17
2.33998e-12
-2.88279e-17
2.34003e-12
2.80015e-17
2.33998e-12
-2.73993e-17
2.34003e-12
2.96791e-17
2.33997e-12
-3.04322e-17
2.34003e-12
3.45424e-17
2.33997e-12
-2.97097e-17
2.34003e-12
2.95914e-17
2.33999e-12
-3.03962e-17
6.67692e-18
2.31988e-12
-5.66288e-13
2.33619e-12
-9.96562e-14
2.34386e-12
6.39316e-15
2.34308e-12
1.80164e-14
2.34149e-12
1.04991e-14
2.34053e-12
4.32937e-15
2.34016e-12
1.50953e-15
2.34003e-12
4.90001e-16
2.34001e-12
1.69258e-16
2.33999e-12
3.08735e-17
2.34001e-12
1.17968e-17
2.33999e-12
-1.45456e-17
2.34001e-12
8.08063e-18
2.33999e-12
-1.12778e-17
2.34001e-12
8.66179e-18
2.33999e-12
-1.02787e-17
2.34001e-12
1.08328e-17
2.33999e-12
-1.17235e-17
2.34001e-12
1.426e-17
2.33999e-12
-1.20767e-17
2.34001e-12
1.05545e-17
2.33999e-12
-1.25614e-17
2.34001e-12
9.85017e-18
2.33999e-12
-1.17971e-17
2.34001e-12
1.11824e-17
2.33999e-12
-8.37392e-18
2.34001e-12
1.16518e-17
2.33999e-12
-1.29097e-17
2.34001e-12
1.31483e-17
2.34e-12
-7.43247e-18
2.34001e-12
7.22751e-18
2.33999e-12
-9.4811e-18
2.34001e-12
1.01465e-17
2.33999e-12
-1.3014e-17
2.34001e-12
1.09354e-17
2.33999e-12
-1.22587e-17
2.34001e-12
1.14414e-17
2.33999e-12
-1.15965e-17
2.34001e-12
1.32091e-17
2.33999e-12
-1.30586e-17
2.34001e-12
1.66852e-17
2.33999e-12
-1.23712e-17
2.34001e-12
1.20094e-17
2.33999e-12
-1.11096e-17
2.65088e-17
2.34368e-12
-3.96316e-13
2.32841e-12
-8.43941e-14
2.33409e-12
7.19363e-16
2.33772e-12
1.4384e-14
2.33927e-12
8.94922e-15
2.33975e-12
3.84902e-15
2.33991e-12
1.34699e-15
2.33996e-12
4.43933e-16
2.34e-12
1.33758e-16
2.33999e-12
3.25511e-17
2.34001e-12
3.21293e-19
2.33999e-12
-3.92063e-18
2.34e-12
-2.33953e-18
2.33999e-12
-5.90124e-19
2.34e-12
-1.83172e-18
2.33999e-12
6.34358e-19
2.34001e-12
-6.79085e-19
2.33999e-12
2.44832e-19
2.34001e-12
1.12844e-18
2.33999e-12
-2.43673e-20
2.34001e-12
-1.3231e-18
2.33999e-12
-2.99785e-19
2.34001e-12
-2.46268e-18
2.33999e-12
6.12601e-19
2.34001e-12
-1.25846e-18
2.34e-12
3.04586e-18
2.34001e-12
-1.24866e-18
2.33999e-12
5.86775e-19
2.34001e-12
1.17251e-19
2.34e-12
3.84066e-18
2.34001e-12
-4.38276e-18
2.34e-12
2.74133e-18
2.34001e-12
-2.78565e-18
2.33999e-12
9.71116e-19
2.34001e-12
-2.63541e-18
2.33999e-12
1.68634e-18
2.34001e-12
-2.20447e-18
2.33999e-12
2.07988e-18
2.34001e-12
-7.2982e-19
2.33999e-12
1.10287e-18
2.34001e-12
1.92401e-18
2.34e-12
9.94613e-19
2.34001e-12
-8.48058e-19
2.34e-12
-1.36697e-18
-2.35182e-17
2.36442e-12
-2.0595e-13
2.3254e-12
-4.5374e-14
2.32743e-12
-1.30885e-15
2.33354e-12
8.27336e-15
2.33745e-12
5.04304e-15
2.33912e-12
2.17863e-15
2.33972e-12
7.50628e-16
2.33992e-12
2.37779e-16
2.33998e-12
7.32615e-17
2.34e-12
1.31251e-17
2.34e-12
2.27607e-18
2.34e-12
-4.85001e-18
2.34e-12
1.40176e-18
2.34e-12
-3.25129e-18
2.34e-12
1.91411e-18
2.34e-12
-2.86515e-18
2.34e-12
2.58397e-18
2.34e-12
-3.51728e-18
2.34e-12
3.71138e-18
2.34e-12
-4.05013e-18
2.34e-12
2.56683e-18
2.34e-12
-4.56202e-18
2.34e-12
2.20196e-18
2.34e-12
-4.27979e-18
2.34e-12
3.1899e-18
2.34e-12
-3.14626e-18
2.34e-12
3.40689e-18
2.34e-12
-4.35874e-18
2.34e-12
4.3469e-18
2.34001e-12
-2.81579e-18
2.34e-12
2.09495e-18
2.34001e-12
-3.32291e-18
2.34e-12
3.13196e-18
2.34001e-12
-4.40145e-18
2.34e-12
3.49475e-18
2.34001e-12
-3.94107e-18
2.34e-12
3.91915e-18
2.34001e-12
-3.59703e-18
2.34e-12
4.70397e-18
2.34e-12
-3.98243e-18
2.34e-12
5.77319e-18
2.34001e-12
-3.557e-18
2.34e-12
4.29709e-18
2.34e-12
-2.01444e-18
2.53289e-17
2.37012e-12
2.32474e-12
2.32343e-12
2.33171e-12
2.33675e-12
2.33893e-12
2.33968e-12
2.33992e-12
2.33999e-12
2.34e-12
2.34001e-12
2.34e-12
2.34e-12
2.34e-12
2.34e-12
2.34e-12
2.34e-12
2.34e-12
2.34e-12
2.34e-12
2.34e-12
2.34e-12
2.34e-12
2.33999e-12
2.34e-12
2.33999e-12
2.34e-12
2.33999e-12
2.34e-12
2.33999e-12
2.34e-12
2.33999e-12
2.34e-12
2.33999e-12
2.33999e-12
2.33999e-12
2.33999e-12
2.33999e-12
2.34e-12
2.33999e-12
2.34e-12
2.33999e-12
2.34e-12
2.34e-12
)
;

boundaryField
{
    AirInlet
    {
        type            calculated;
        value           uniform -1e-12;
    }
    WaterInlet
    {
        type            calculated;
        value           nonuniform List<scalar> 10(-2.5e-12 -2.5e-12 -2.5e-12 -2.5e-12 -2.5e-12 -2.5e-12 -2.5e-12 -2.5e-12 -2.5e-12 -2.5e-12);
    }
    ChannelWall
    {
        type            calculated;
        value           uniform 0;
    }
    Outlet
    {
        type            calculated;
        value           nonuniform List<scalar> 
11
(
2.34001e-12
2.33997e-12
2.34002e-12
2.33996e-12
2.33999e-12
2.59996e-12
2.34009e-12
2.33997e-12
2.34005e-12
2.33995e-12
2.34002e-12
)
;
    }
    FrontAndBack
    {
        type            empty;
        value           nonuniform 0();
    }
}


// ************************************************************************* //
