/*--------------------------------*- C++ -*----------------------------------*\
| =========                 |                                                 |
| \\      /  F ield         | OpenFOAM: The Open Source CFD Toolbox           |
|  \\    /   O peration     | Version:  2.3.0                                 |
|   \\  /    A nd           | Web:      www.OpenFOAM.org                      |
|    \\/     M anipulation  |                                                 |
\*---------------------------------------------------------------------------*/
FoamFile
{
    version     2.0;
    format      ascii;
    class       volScalarField;
    location    "0.2";
    object      p_rgh;
}
// * * * * * * * * * * * * * * * * * * * * * * * * * * * * * * * * * * * * * //

dimensions      [1 -1 -2 0 0 0 0];

internalField   nonuniform List<scalar> 
2268
(
2206.69
2218.95
2236.05
2253.73
2269.23
2282.05
2292.26
2299.66
2303.77
2304.1
2300.47
2293.35
2284.35
2276.88
2276.95
2294.23
2344.27
2442.32
2604.23
2825.97
3070.77
3243.28
3343.1
2204.41
2215.04
2229.09
2244.21
2257.75
2268.92
2277.57
2283.4
2285.92
2284.7
2279.65
2271.41
2261.77
2254.36
2255.29
2273.91
2322.46
2419.59
2581.47
2810.54
3076.55
3263.22
3371.84
2200.9
2211.21
2222.48
2234.39
2245.06
2253.6
2259.69
2262.94
2262.83
2259.04
2251.6
2241.35
2230.35
2222.43
2223.84
2243.76
2294.1
2390.83
2549.16
2773.54
3046.87
3269.76
3432.9
2195.85
2206.81
2216.37
2225.62
2233.61
2239.48
2242.88
2243.34
2240.38
2233.68
2223.43
2210.58
2197.36
2187.73
2187.95
2207.01
2256.4
2350.13
2502.11
2716.91
2984.82
3242.14
3467.68
2189.26
2201.09
2209.67
2217.04
2222.91
2226.54
2227.59
2225.56
2219.94
2210.46
2197.32
2181.55
2165.37
2152.77
2149.88
2165.39
2210.27
2297.22
2438.58
2639.36
2892.89
3171.55
3450.74
2181.1
2193.69
2201.58
2207.55
2211.79
2213.62
2212.69
2208.48
2200.47
2188.35
2172.33
2153.37
2133.65
2117.01
2109.36
2118.98
2156.14
2232.31
2358.05
2538.5
2766.21
3047.32
3337.14
2171.37
2184.51
2191.81
2196.65
2199.59
2199.95
2197.34
2191.22
2181.01
2166.38
2147.45
2125.11
2101.36
2079.82
2066.06
2067.79
2094.44
2155.98
2260.71
2412.88
2599.99
2856.1
3067.11
2160.09
2173.41
2180.23
2184.14
2186.04
2185.24
2181.25
2173.47
2161.3
2144.32
2122.56
2096.73
2068.62
2041.51
2020.49
2012.58
2026.05
2069.01
2147.14
2261.8
2392.62
2575.66
2593.26
1.24076
1.16971
1.09047
1.00671
0.928522
0.860919
0.803833
0.75686
0.719005
0.689185
0.666032
0.648303
0.634815
0.624372
0.616189
0.609712
0.604503
0.600192
0.596965
1.2526
1.17824
1.09338
1.00603
0.925096
0.856021
0.798097
0.750998
0.713471
0.684242
0.661783
0.644747
0.631906
0.622032
0.614298
0.608145
0.603165
0.598914
0.595873
1.26231
1.18714
1.09651
1.0056
0.921365
0.849226
0.789733
0.742336
0.705282
0.676948
0.655548
0.639564
0.627684
0.618639
0.611556
0.605876
0.601247
0.597189
0.594461
1.26898
1.19464
1.09764
1.00361
0.915412
0.840407
0.779238
0.731606
0.695272
0.668124
0.648081
0.633417
0.622724
0.614695
0.608402
0.603297
0.599091
0.595282
0.592776
1.26946
1.1999
1.09604
0.999397
0.907196
0.829365
0.766606
0.718869
0.683533
0.657868
0.639463
0.626372
0.617063
0.610197
0.604827
0.600416
0.596706
0.593187
0.590852
1.25713
1.20218
1.092
0.992801
0.896324
0.815562
0.751389
0.703785
0.669788
0.645994
0.629557
0.618295
0.610568
0.605039
0.600761
0.597186
0.594062
0.5909
0.588759
1.21776
1.19851
1.08605
0.983922
0.882599
0.798611
0.733258
0.686152
0.653874
0.632373
0.618288
0.609152
0.603228
0.599211
0.596188
0.593595
0.59116
0.588443
0.586557
1.12784
1.18096
1.07906
0.972745
0.865911
0.778337
0.712128
0.666021
0.635912
0.617134
0.605802
0.599126
0.595247
0.592906
0.591258
0.589748
0.588072
0.585881
0.584301
2140.07
2152.86
2159.11
2161.83
2162.42
2160.21
2154.48
2144.55
2129.7
2109.38
2083.4
2052.14
2016.9
1980.26
1946.44
1921.1
1910.4
1919.15
1948.16
1991.32
2015.26
1956.49
1382.96
2106.4
2118.03
2123.08
2124.59
2123.87
2120.18
2112.59
2100.25
2082.26
2057.84
2026.37
1987.61
1941.9
1890.66
1836.67
1783.75
1735.32
1692.38
1651.19
1601.25
1514.36
1350.76
1090
2067.18
2077
2080.5
2080.85
2078.97
2073.9
2064.6
2050.07
2029.29
2001.21
1964.77
1918.91
1862.7
1796.14
1720.65
1638.63
1551.86
1459.47
1358.2
1244.28
1097.54
993.331
940.589
2023.48
2031.08
2032.94
2032.11
2029
2022.48
2011.44
1994.84
1971.62
1940.56
1900.18
1848.43
1782.8
1701.57
1605.09
1495.44
1374.42
1240.85
1037.38
733.482
349.815
260.391
685.065
1976.5
1981.62
1981.91
1979.85
1975.36
1967.25
1954.42
1935.91
1910.73
1877.66
1834.89
1779.49
1706.73
1612.72
1497.62
1365.83
1194.91
759.162
209.678
34.2206
-0.502922
-4.2373
174.708
1927.51
1929.95
1928.91
1925.6
1919.65
1909.87
1895.26
1875.03
1848.41
1814.32
1771.09
1715.32
1639.06
1535.8
1408.89
1173.63
483.999
7.62143
-2.77891
-4.00428
-4.73465
-5.10741
-1.11252
1878
1877.39
1875.5
1871.11
1863.63
1852.04
1835.49
1813.41
1785.3
1750.57
1709.08
1658.32
1585.16
1481.03
1204.53
339.206
-1.63272
-3.64891
-4.25546
-4.65607
-4.98216
-5.2262
-4.46081
1828
1824.82
1822.43
1816.82
1807.35
1793.34
1774.15
1749.41
1718.84
1682.96
1646.02
1611.58
1554.77
1302.31
291.886
-2.13481
-3.62173
-4.01805
-4.25563
-4.5501
-4.86752
-5.26212
-5.45371
1774.59
1772.37
1768.51
1760.75
1749.11
1732.98
1711.84
1685.64
1647.91
1565.62
1397.86
1375.86
1243.55
284.894
-2.46257
-3.34531
-3.68183
-3.90659
-4.12954
-4.39083
-4.67543
-5.00387
-5.36979
1535.07
1454.49
1459.56
1465.47
1445.57
1393.64
1294.6
1135.17
899.951
579.578
277.69
255.236
129.375
-2.55673
-2.95135
-3.25064
-3.49962
-3.71408
-3.92283
-4.13385
-4.34894
-4.58142
-4.86844
307.901
241.43
245.186
255.34
241.753
201.642
135.115
54.3226
-1.53584
-1.73928
-1.68401
-1.67912
-2.1355
-2.4788
-2.78303
-3.04498
-3.27098
-3.46376
-3.63049
-3.7787
-3.91996
-4.07123
-4.27028
-1.12257
-0.263764
-0.556228
-0.836382
-0.958944
-1.07534
-1.16594
-1.18736
-1.20499
-1.33993
-1.51246
-1.73466
-2.03595
-2.33929
-2.60109
-2.82778
-3.01809
-3.16898
-3.28323
-3.36721
-3.4342
-3.50422
-3.59151
-0.776732
-0.711688
-0.702514
-0.723952
-0.759231
-0.821804
-0.912283
-1.03707
-1.21457
-1.37387
-1.54806
-1.74746
-1.97417
-2.20382
-2.42405
-2.60572
-2.75028
-2.85391
-2.91639
-2.94106
-2.93635
-2.91303
-2.85687
-0.765861
-0.714532
-0.72062
-0.755647
-0.811855
-0.885328
-0.977529
-1.09235
-1.23291
-1.37926
-1.5353
-1.70551
-1.88659
-2.06621
-2.2407
-2.37752
-2.4782
-2.53894
-2.55793
-2.53561
-2.47453
-2.37441
-2.2043
-0.733666
-0.721204
-0.738893
-0.776463
-0.834544
-0.907552
-0.994993
-1.0981
-1.21709
-1.347
-1.48539
-1.63115
-1.78009
-1.92053
-2.05079
-2.14819
-2.21182
-2.23799
-2.22448
-2.17007
-2.07358
-1.92961
-1.7089
-0.724017
-0.726805
-0.749348
-0.787432
-0.841234
-0.907923
-0.987003
-1.0787
-1.18236
-1.29527
-1.41437
-1.53644
-1.65675
-1.7669
-1.85812
-1.92339
-1.95794
-1.95852
-1.92304
-1.8496
-1.73547
-1.57497
-1.34777
-0.709713
-0.721914
-0.747519
-0.784872
-0.833674
-0.892942
-0.96254
-1.04243
-1.13174
-1.22808
-1.32807
-1.42763
-1.52174
-1.60396
-1.66783
-1.7081
-1.72108
-1.70411
-1.65535
-1.57285
-1.45375
-1.29409
-1.08176
-0.686424
-0.704681
-0.732906
-0.76924
-0.813378
-0.865461
-0.92568
-0.993909
-1.0692
-1.14939
-1.23113
-1.31032
-1.38231
-1.44202
-1.48462
-1.50622
-1.50405
-1.47601
-1.42052
-1.33587
-1.21984
-1.07042
-0.881303
-0.655611
-0.677175
-0.707177
-0.742255
-0.782045
-0.827376
-0.878688
-0.935847
-0.997964
-1.06309
-1.12824
-1.18975
-1.24355
-1.28556
-1.31215
-1.32037
-1.30816
-1.27386
-1.21621
-1.13381
-1.02523
-0.889981
-0.725291
-0.619305
-0.642433
-0.673141
-0.706587
-0.742271
-0.781381
-0.824501
-0.87153
-0.921705
-0.973357
-1.02401
-1.07059
-1.10971
-1.13811
-1.15295
-1.15197
-1.13355
-1.0964
-1.03952
-0.961915
-0.862769
-0.742578
-0.600487
-0.579969
-0.603365
-0.633713
-0.66513
-0.696917
-0.730383
-0.766153
-0.804203
-0.843912
-0.883942
-0.922324
-0.956607
-0.984066
-1.00211
-1.00849
-1.0014
-0.979517
-0.941823
-0.887548
-0.816016
-0.726906
-0.621225
-0.499106
-0.539784
-0.562468
-0.591508
-0.620535
-0.648619
-0.67702
-0.70634
-0.736648
-0.767467
-0.797777
-0.826077
-0.850452
-0.868777
-0.878999
-0.879328
-0.868294
-0.844796
-0.808022
-0.757386
-0.692458
-0.613235
-0.520939
-0.416183
-0.50038
-0.521657
-0.548657
-0.575011
-0.599586
-0.623478
-0.647241
-0.671022
-0.694481
-0.716872
-0.73708
-0.753637
-0.764902
-0.769268
-0.765302
-0.751805
-0.727868
-0.69285
-0.64631
-0.588001
-0.518097
-0.437854
-0.348067
-0.462823
-0.482244
-0.506713
-0.530218
-0.551495
-0.571405
-0.590453
-0.608821
-0.626295
-0.642355
-0.656176
-0.666653
-0.672538
-0.672579
-0.665626
-0.650707
-0.627082
-0.594251
-0.551891
-0.499881
-0.438486
-0.368897
-0.291923
-0.427642
-0.444969
-0.466651
-0.487252
-0.505459
-0.521888
-0.536982
-0.550916
-0.563585
-0.574639
-0.583472
-0.589268
-0.591098
-0.587995
-0.579045
-0.563459
-0.540638
-0.510191
-0.471886
-0.425684
-0.371893
-0.311585
-0.245513
-0.394932
-0.410103
-0.428946
-0.446698
-0.462083
-0.475501
-0.487308
-0.49765
-0.506503
-0.513637
-0.518613
-0.520843
-0.519649
-0.5143
-0.50408
-0.488358
-0.466646
-0.438631
-0.404148
-0.363206
-0.316117
-0.263825
-0.20699
-0.364516
-0.377602
-0.393709
-0.408766
-0.421594
-0.432431
-0.441521
-0.448986
-0.454846
-0.458954
-0.460996
-0.460559
-0.457156
-0.450245
-0.43928
-0.423768
-0.403321
-0.377673
-0.346714
-0.310476
-0.269253
-0.223855
-0.174844
-0.336106
-0.347271
-0.360856
-0.373447
-0.383999
-0.392633
-0.39949
-0.404667
-0.408209
-0.410021
-0.409886
-0.407516
-0.402561
-0.394628
-0.383311
-0.368236
-0.349097
-0.325688
-0.297928
-0.265856
-0.22974
-0.190268
-0.147904
-0.309426
-0.318888
-0.330229
-0.340636
-0.349199
-0.355958
-0.360978
-0.364341
-0.366096
-0.366192
-0.364486
-0.360771
-0.354796
-0.346275
-0.334917
-0.320441
-0.302615
-0.281289
-0.256401
-0.228002
-0.196329
-0.161958
-0.125267
-0.284251
-0.292242
-0.301651
-0.310175
-0.31703
-0.322197
-0.325702
-0.327614
-0.327987
-0.326807
-0.323988
-0.319381
-0.3128
-0.304039
-0.292886
-0.279134
-0.262615
-0.243219
-0.220914
-0.19576
-0.16796
-0.138
-0.106182
-0.260395
-0.267133
-0.27492
-0.281857
-0.287264
-0.291088
-0.293339
-0.294078
-0.29337
-0.291237
-0.287636
-0.282463
-0.275581
-0.266838
-0.256076
-0.243143
-0.227916
-0.210324
-0.19036
-0.168092
-0.143693
-0.117572
-0.089971
-0.237674
-0.243358
-0.249804
-0.255427
-0.259621
-0.262318
-0.263525
-0.26331
-0.261752
-0.258903
-0.254756
-0.249245
-0.242271
-0.233723
-0.223479
-0.211425
-0.197473
-0.181581
-0.163763
-0.14408
-0.122696
-0.099948
-0.0760285
-0.2159
-0.220702
-0.22605
-0.230595
-0.233778
-0.235533
-0.235874
-0.234884
-0.232663
-0.229284
-0.224767
-0.21908
-0.212159
-0.20392
-0.194273
-0.183128
-0.170426
-0.156142
-0.140299
-0.122964
-0.10428
-0.0845282
-0.0638583
-0.194902
-0.198953
-0.2034
-0.207064
-0.209403
-0.210366
-0.209991
-0.208385
-0.205663
-0.201912
-0.197173
-0.191442
-0.184681
-0.176834
-0.167832
-0.157609
-0.146123
-0.133362
-0.119353
-0.104164
-0.0879237
-0.0708649
-0.0531016
-0.174518
-0.177913
-0.181619
-0.184561
-0.186184
-0.186473
-0.185511
-0.183431
-0.180357
-0.176382
-0.171558
-0.165902
-0.159398
-0.152009
-0.143689
-0.134391
-0.124087
-0.112772
-0.100475
-0.0872624
-0.0732534
-0.0586487
-0.0435247
-0.154529
-0.157444
-0.16053
-0.162867
-0.163857
-0.16356
-0.162122
-0.159698
-0.156411
-0.152351
-0.147576
-0.14211
-0.135953
-0.129087
-0.121485
-0.113116
-0.103963
-0.094025
-0.0833295
-0.0719441
-0.0599984
-0.0476642
-0.0349768
-0.134683
-0.137564
-0.140079
-0.141842
-0.142221
-0.1414
-0.139584
-0.136935
-0.133565
-0.129551
-0.124945
-0.119776
-0.114053
-0.107774
-0.100927
-0.0934957
-0.0854702
-0.0768494
-0.0676561
-0.0579625
-0.0479379
-0.0377416
-0.0273453
-0.11494
-0.118467
-0.120304
-0.12139
-0.121126
-0.119827
-0.117725
-0.114964
-0.111629
-0.107776
-0.103446
-0.0986656
-0.0934539
-0.0878202
-0.0817663
-0.0752863
-0.0683715
-0.0610159
-0.0532312
-0.0450885
-0.0368556
-0.0287223
-0.0205267
-0.0955977
-0.100433
-0.1012
-0.101369
-0.100425
-0.0987233
-0.0964465
-0.0936881
-0.0904925
-0.0868928
-0.0829195
-0.0786009
-0.0739626
-0.0690256
-0.0638011
-0.0582885
-0.0524773
-0.0463459
-0.0398661
-0.0330756
-0.0264868
-0.0204155
-0.0144009
-0.0764777
-0.0845316
-0.0830621
-0.0816816
-0.080047
-0.0781041
-0.0757966
-0.0731473
-0.0701714
-0.0668874
-0.0633229
-0.0595115
-0.0554884
-0.0512842
-0.0469172
-0.0423902
-0.0376867
-0.0327342
-0.0273433
-0.0213931
-0.0162293
-0.0124008
-0.00873144
-0.0540012
-0.0739028
-0.0667322
-0.0623779
-0.060034
-0.0580285
-0.0558107
-0.0533404
-0.0506269
-0.0476888
-0.044559
-0.0412811
-0.0379003
-0.0344561
-0.0309736
-0.0274586
-0.0238828
-0.0200541
-0.0153004
-0.00880494
-0.00480098
-0.00400617
-0.0032072
-0.0214046
-0.065872
-0.049061
-0.0419308
-0.0390711
-0.0369685
-0.0348137
-0.0325125
-0.0300584
-0.0274737
-0.0248024
-0.0220994
-0.0194212
-0.0168159
-0.0143147
-0.0119196
-0.00957444
-0.00697814
-0.00297975
0.00484775
0.00739057
0.00332991
0.00134119
251.286
152.584
-0.845237
1.06236
756.904
618.448
157.687
1.96061
882.915
816.75
591.336
108.144
813.371
809.914
808.121
379.232
732.57
863.843
855.87
721.657
253.926
893.265
959.569
960.725
0.671379
376.577
1046.66
1023.53
-4.0724
5.01395
531.714
1012.28
-5.227
-2.88317
12.2264
708.379
-4.9798
-4.5505
0.0835368
55.5354
-4.38713
-4.32109
-3.22498
3.6356
-3.58475
-3.3218
-2.89203
-1.08636
-2.72737
-2.50279
-2.08335
-1.16488
-1.97056
-1.76055
-1.42016
-0.951531
-1.44916
-1.23842
-0.97657
-0.674663
-1.10344
-0.914166
-0.696535
-0.458891
-0.866607
-0.704335
-0.524152
-0.335702
-0.697987
-0.561793
-0.413816
-0.263266
-0.571062
-0.457685
-0.336254
-0.215109
-0.471035
-0.376746
-0.276767
-0.178306
-0.390349
-0.311786
-0.229076
-0.148217
-0.324628
-0.258957
-0.190165
-0.123159
-0.270768
-0.215658
-0.15814
-0.102222
-0.22644
-0.179995
-0.131663
-0.0847291
-0.18984
-0.150522
-0.10971
-0.0701105
-0.159479
-0.126046
-0.0914218
-0.0578448
-0.134139
-0.105591
-0.0760863
-0.0474825
-0.112901
-0.088424
-0.0631702
-0.0386883
-0.0950769
-0.0740077
-0.0522904
-0.0312343
-0.0800908
-0.0618932
-0.0431359
-0.0249468
-0.0674041
-0.0516552
-0.0354115
-0.0196589
-0.056523
-0.0428982
-0.0288362
-0.0152026
-0.0470464
-0.0352994
-0.0231757
-0.0114299
-0.0386948
-0.0286363
-0.0182666
-0.00823383
-0.0312982
-0.0227781
-0.0140133
-0.0055505
-0.0247567
-0.0176527
-0.0103656
-0.00334796
-0.0189996
-0.0132124
-0.00729368
-0.00161098
-0.0139583
-0.00940997
-0.00476923
-0.000327592
-0.00956046
-0.00619689
-0.0027629
0.000514859
-0.00569032
-0.00349953
-0.00122629
0.000941307
-0.00220295
-0.00124246
-0.000129155
0.000959348
0.00104586
0.000954176
0.000861134
0.000792408
0.791825
1.13558
1.07125
0.952034
0.834148
0.740285
0.673547
0.630359
0.604848
0.591276
0.584996
0.582741
0.582467
0.582983
0.583572
0.583768
0.583272
0.58195
0.580829
1.56223
1.36504
1.13995
0.930663
0.770192
0.662905
0.598782
0.565384
0.551649
0.549341
0.552796
0.558442
0.564283
0.56937
0.573306
0.575917
0.577124
0.576998
0.576581
1.17043
1.59586
1.27359
0.881712
0.655469
0.540773
0.49108
0.478266
0.484496
0.499133
0.515984
0.531748
0.544988
0.555363
0.56303
0.568279
0.571383
0.572617
0.573099
10.695
1.65689
1.32509
0.724044
0.436719
0.345449
0.338787
0.365934
0.403899
0.442389
0.476506
0.504417
0.526014
0.542078
0.553626
0.561578
0.566651
0.569263
0.570802
57.8272
1.9581
1.06452
0.313177
0.036981
0.0458027
0.135559
0.231539
0.315054
0.383945
0.43822
0.479348
0.509473
0.531044
0.546197
0.556621
0.563596
0.567229
0.57012
149.624
1.49872
0.200419
-0.449651
-0.581001
-0.361959
-0.10552
0.0908739
0.229603
0.33234
0.406979
0.460433
0.497897
0.523943
0.541839
0.554058
0.562297
0.567516
0.571071
257.567
0.543854
-0.885741
-1.48646
-1.30546
-0.808659
-0.338008
-0.0230286
0.164524
0.299222
0.389974
0.451958
0.494031
0.522391
0.541521
0.55453
0.56348
0.569623
0.573804
683.371
2.28229
-1.70317
-2.42288
-1.95984
-1.1624
-0.49085
-0.0815849
0.153025
0.299456
0.394654
0.457883
0.499771
0.527385
0.545741
0.558229
0.567061
0.573538
0.578141
661.651
132.643
0.0433325
-2.70086
-2.29549
-1.30838
-0.49027
-0.0364266
0.201945
0.339458
0.424729
0.47985
0.515739
0.539022
0.554354
0.564893
0.572696
0.578924
0.583669
486.192
470.822
42.5021
-1.03087
-1.94597
-1.08209
-0.275407
0.130834
0.318887
0.41914
0.47856
0.516246
0.540581
0.556187
0.566446
0.573759
0.579711
0.585156
0.589759
121.739
226.355
131.859
10.1361
-0.591487
-0.351696
0.163142
0.402629
0.488369
0.526362
0.547823
0.561756
0.57086
0.576562
0.580387
0.583616
0.587143
0.591373
0.595621
5.64543
8.58964
52.1094
21.7212
1.14347
0.667119
0.690793
0.698556
0.666333
0.636927
0.618854
0.60837
0.601674
0.597019
0.594089
0.592995
0.593884
0.596578
0.600415
0.670021
2.57141
2.94553
7.09474
2.94034
1.41336
1.09002
0.919229
0.802271
0.72532
0.677888
0.647976
0.628017
0.61437
0.605435
0.600425
0.59896
0.600772
0.603725
-0.0960799
1.19532
2.0007
2.31051
2.16787
1.59398
1.23397
1.01726
0.873459
0.778522
0.716629
0.675057
0.64621
0.626128
0.612673
0.604566
0.60104
0.601453
0.603932
-0.0877743
0.751765
1.39919
1.71711
1.67733
1.43405
1.19595
1.01713
0.888092
0.797193
0.733239
0.687471
0.654424
0.630845
0.614681
0.604557
0.599573
0.598974
0.600942
-0.0414117
0.539546
1.01074
1.28557
1.33018
1.22742
1.0885
0.964288
0.864921
0.78837
0.730027
0.685746
0.652502
0.628123
0.611012
0.599983
0.594205
0.592949
0.594482
-0.0199254
0.407538
0.760818
0.984665
1.0608
1.03345
0.964243
0.888588
0.81932
0.760069
0.711223
0.672049
0.641472
0.618386
0.601791
0.590836
0.584871
0.583283
0.584484
-0.0189973
0.303012
0.574555
0.759686
0.849831
0.867246
0.844974
0.805795
0.761836
0.71933
0.681345
0.649132
0.622946
0.602558
0.58754
0.577414
0.571758
0.570111
0.571081
-0.0231382
0.224685
0.438815
0.596064
0.690248
0.731736
0.737985
0.723842
0.69956
0.671754
0.644408
0.619707
0.598701
0.581789
0.569011
0.560223
0.555231
0.553735
0.554556
-0.0246139
0.171271
0.344299
0.479063
0.570159
0.622087
0.644333
0.64667
0.637087
0.621424
0.603619
0.586135
0.570421
0.557266
0.547044
0.539879
0.53577
0.534565
0.535298
-0.0229553
0.135519
0.277835
0.393439
0.477748
0.532524
0.563186
0.576107
0.577169
0.571093
0.561343
0.55031
0.539562
0.530088
0.522472
0.517026
0.5139
0.513066
0.513752
-0.0196723
0.110727
0.229224
0.328489
0.404836
0.458632
0.493268
0.512748
0.521271
0.522471
0.51922
0.513655
0.507299
0.5012
0.496052
0.492283
0.49015
0.489714
0.490379
-0.0159285
0.0926709
0.192271
0.277709
0.346092
0.397317
0.433207
0.456473
0.470007
0.47652
0.478304
0.477179
0.474529
0.471374
0.468438
0.466212
0.465013
0.464964
0.46562
-0.0122837
0.0789869
0.163379
0.237196
0.298188
0.346009
0.381631
0.406771
0.423461
0.433682
0.43921
0.441547
0.4419
0.441207
0.440171
0.439297
0.438931
0.439233
0.439883
-0.00893306
0.0683491
0.140362
0.204407
0.25871
0.30282
0.337211
0.362954
0.381412
0.39406
0.402243
0.407169
0.40986
0.411148
0.411682
0.411947
0.412288
0.412887
0.413532
-0.00590201
0.0599571
0.121785
0.177562
0.225867
0.266216
0.298792
0.324239
0.343479
0.35755
0.367494
0.374263
0.378701
0.381522
0.383303
0.384488
0.385406
0.386242
0.386876
-0.00316231
0.0532689
0.106617
0.155335
0.198265
0.234934
0.265357
0.289901
0.309179
0.32393
0.334927
0.34292
0.348597
0.352553
0.355282
0.357179
0.358541
0.359555
0.360172
-0.000700442
0.0478639
0.094063
0.136689
0.174791
0.207928
0.236021
0.259265
0.278056
0.292919
0.304424
0.31315
0.31964
0.324384
0.327795
0.33021
0.331894
0.333028
0.333621
0.00146268
0.0433894
0.0834873
0.120804
0.154554
0.184341
0.210039
0.231734
0.249681
0.264241
0.275835
0.284899
0.291857
0.297096
0.300957
0.303719
0.305613
0.306811
0.307378
0.00329312
0.0395562
0.0743868
0.107033
0.136848
0.163481
0.186793
0.206803
0.223666
0.237631
0.248997
0.258089
0.265229
0.270718
0.274829
0.277794
0.279805
0.281019
0.281535
0.00477336
0.0361443
0.0663764
0.0948797
0.121122
0.144804
0.165785
0.184047
0.199678
0.21284
0.223742
0.232619
0.239711
0.245247
0.249443
0.252485
0.254532
0.255723
0.256171
0.00591203
0.0329994
0.0591707
0.0839677
0.106956
0.127884
0.146618
0.163118
0.177425
0.189639
0.199901
0.208376
0.215236
0.220656
0.224799
0.227813
0.229826
0.230964
0.231335
0.00673293
0.0300164
0.0525624
0.0740178
0.09403
0.112388
0.128969
0.143721
0.156652
0.167818
0.17731
0.185238
0.191725
0.196896
0.200874
0.203774
0.205698
0.206758
0.207054
0.00725877
0.0271215
0.0463985
0.0648179
0.0820933
0.0980474
0.11257
0.125603
0.137133
0.147185
0.155812
0.163084
0.169085
0.173903
0.177627
0.180346
0.182139
0.183102
0.183327
0.00750154
0.0242562
0.0405585
0.0561979
0.0709406
0.0846382
0.0971925
0.108543
0.118664
0.127559
0.135254
0.14179
0.147221
0.151605
0.155008
0.157494
0.159124
0.159979
0.16014
0.00746055
0.0213668
0.0349387
0.0480119
0.0603953
0.0719647
0.0826339
0.0923436
0.101061
0.108775
0.115492
0.121235
0.126033
0.129925
0.132957
0.135175
0.13662
0.137359
0.137463
0.00712581
0.0184006
0.0294453
0.0401312
0.0503028
0.0598567
0.0687177
0.0768299
0.0841566
0.0906784
0.0963906
0.1013
0.105423
0.108784
0.111411
0.113335
0.114582
0.115203
0.115257
0.0064847
0.0153086
0.0239961
0.0324458
0.0405319
0.048169
0.0552921
0.0618498
0.0678049
0.0731343
0.0778263
0.0818796
0.085301
0.0881034
0.0903041
0.0919205
0.0929633
0.0934645
0.0934783
0.00552577
0.0120444
0.0185138
0.0248532
0.0309608
0.0367663
0.042214
0.0472584
0.0518649
0.0560096
0.0596785
0.0628659
0.0655725
0.0678037
0.0695677
0.070871
0.0717097
0.0720948
0.0720802
0.00423331
0.00853477
0.012879
0.017198
0.0214076
0.0254488
0.0292747
0.0328458
0.0361315
0.0391102
0.0417675
0.044096
0.0460927
0.0477583
0.0490942
0.0500982
0.050753
0.0510412
0.0510196
0.00258516
0.00469782
0.00695853
0.00930616
0.0116676
0.0139923
0.0162395
0.0183755
0.0203736
0.0222146
0.0238849
0.0253762
0.0266839
0.0278055
0.0287394
0.0294802
0.0300023
0.0302514
0.0302817
0.000759158
0.000951619
0.00135464
0.00189722
0.00253114
0.00322247
0.00394341
0.00467073
0.00538579
0.00607414
0.00672503
0.00733072
0.00788592
0.00838721
0.00883258
0.00921911
0.00953097
0.00971485
0.00977101
)
;

boundaryField
{
    leftWall
    {
        type            fixedFluxPressure;
        gradient        uniform 0;
        value           nonuniform List<scalar> 
50
(
2206.69
2204.41
2200.9
2195.85
2189.26
2181.1
2171.37
2160.09
2140.07
2106.4
2067.18
2023.48
1976.5
1927.51
1878
1828
1774.59
1535.07
307.901
-1.12257
-0.776732
-0.765861
-0.733666
-0.724017
-0.709713
-0.686424
-0.655611
-0.619305
-0.579969
-0.539784
-0.50038
-0.462823
-0.427642
-0.394932
-0.364516
-0.336106
-0.309426
-0.284251
-0.260395
-0.237674
-0.2159
-0.194902
-0.174518
-0.154529
-0.134683
-0.11494
-0.0955977
-0.0764777
-0.0540012
-0.0214046
)
;
    }
    rightWall
    {
        type            fixedFluxPressure;
        gradient        uniform 0;
        value           nonuniform List<scalar> 
50
(
0.596965
0.595873
0.594461
0.592776
0.590852
0.588759
0.586557
0.584301
0.580829
0.576581
0.573099
0.570802
0.57012
0.571071
0.573804
0.578141
0.583669
0.589759
0.595621
0.600415
0.603725
0.603932
0.600942
0.594482
0.584484
0.571081
0.554556
0.535298
0.513752
0.490379
0.46562
0.439883
0.413532
0.386876
0.360172
0.333621
0.307378
0.281535
0.256171
0.231335
0.207054
0.183327
0.16014
0.137463
0.115257
0.0934783
0.0720802
0.0510196
0.0302817
0.00977101
)
;
    }
    lowerWall
    {
        type            fixedFluxPressure;
        gradient        uniform 0;
        value           nonuniform List<scalar> 
62
(
2206.69
2218.95
2236.05
2253.73
2269.23
2282.05
2292.26
2299.66
2303.77
2304.1
2300.47
2293.35
2284.35
2276.88
2276.95
2294.23
2344.27
2442.32
2604.23
2825.97
3070.77
3243.28
3343.1
3343.1
3371.84
3432.9
3467.68
3450.74
3337.14
3067.11
2593.26
251.286
152.584
-0.845237
1.06236
1.24076
1.2526
1.26231
1.26898
1.26946
1.25713
1.21776
1.12784
1.24076
1.16971
1.09047
1.00671
0.928522
0.860919
0.803833
0.75686
0.719005
0.689185
0.666032
0.648303
0.634815
0.624372
0.616189
0.609712
0.604503
0.600192
0.596965
)
;
    }
    atmosphere
    {
        type            totalPressure;
        rho             rho;
        psi             none;
        gamma           1;
        p0              uniform 0;
        value           nonuniform List<scalar> 
46
(
-0.0170372
-0.0363663
-0.0324323
-0.0296834
-0.0275073
-0.025464
-0.0233631
-0.0211486
-0.0188214
-0.0164159
-0.0139859
-0.0115944
-0.00930568
-0.00717938
-0.00526649
-0.00360784
-0.00223489
-0.00117288
-0.000448954
-8.5363e-05
0
0
0
0
0
0
0
0
0
0
0
0
0
0
0
0
0
0
0
0
0
0
0
0
0
0
)
;
    }
    defaultFaces
    {
        type            empty;
    }
}


// ************************************************************************* //
