/*--------------------------------*- C++ -*----------------------------------*\
| =========                 |                                                 |
| \\      /  F ield         | OpenFOAM: The Open Source CFD Toolbox           |
|  \\    /   O peration     | Version:  2.3.0                                 |
|   \\  /    A nd           | Web:      www.OpenFOAM.org                      |
|    \\/     M anipulation  |                                                 |
\*---------------------------------------------------------------------------*/
FoamFile
{
    version     2.0;
    format      ascii;
    class       surfaceScalarField;
    location    "0.33";
    object      phi.air;
}
// * * * * * * * * * * * * * * * * * * * * * * * * * * * * * * * * * * * * * //

dimensions      [0 3 -1 0 0 0 0];

internalField   nonuniform List<scalar> 
11770
(
1.72741e-05
7.77061e-05
1.36012e-05
9.45582e-05
5.46327e-06
9.60751e-05
5.70739e-06
8.8716e-05
8.75248e-06
8.71173e-05
-1.75978e-06
0.000100281
-5.43433e-06
9.47733e-05
-9.51021e-07
8.799e-05
6.71962e-06
8.49218e-05
1.43227e-05
8.5384e-05
2.51247e-05
8.52008e-05
3.03273e-05
9.5468e-05
2.19977e-05
0.000109271
1.11314e-05
0.000113155
-4.72562e-06
0.000121875
-1.61074e-05
0.000118143
-2.80467e-05
0.000113653
-3.3486e-05
0.000107048
-2.57068e-05
9.2303e-05
-1.49503e-05
8.45856e-05
-7.08739e-06
8.49919e-05
1.25638e-06
8.46017e-05
4.78539e-06
8.8693e-05
1.52594e-06
9.3969e-05
-7.71112e-06
9.80952e-05
-7.62114e-06
8.81401e-05
-8.43966e-06
8.82353e-05
-1.44925e-05
9.36508e-05
-1.78845e-05
9.41091e-05
7.63488e-05
9.1774e-06
6.05111e-05
5.38793e-06
8.72109e-05
1.0617e-05
8.39704e-05
1.0886e-05
8.07451e-05
9.99673e-06
8.05065e-05
1.606e-05
8.80094e-05
6.44585e-06
9.08112e-05
6.15713e-06
7.49272e-05
1.46207e-05
6.53441e-05
2.40433e-05
6.60072e-05
3.27703e-05
6.73117e-05
2.06569e-05
9.12362e-05
1.11546e-05
0.000100899
-5.86506e-09
0.000105324
-6.95027e-07
0.00010636
-6.52236e-06
0.000105876
-1.63351e-05
0.000104802
-2.85726e-05
0.000100736
-3.5228e-05
8.50474e-05
-2.53926e-05
6.56516e-05
-1.52183e-05
6.47027e-05
-6.79311e-06
6.46196e-05
-9.58945e-06
7.76865e-05
-1.83052e-05
8.98173e-05
-1.25667e-05
8.63907e-05
-1.24697e-05
8.15029e-05
-1.04179e-05
7.99449e-05
-6.03696e-06
8.26595e-05
-8.87741e-06
8.61648e-05
5.97136e-05
-1.91084e-08
5.97803e-05
6.14559e-06
8.11249e-05
1.14595e-05
7.95466e-05
1.34337e-05
7.94022e-05
1.36905e-05
8.15124e-05
1.48362e-05
8.7693e-05
1.12221e-05
9.52455e-05
1.14673e-05
7.77874e-05
2.00774e-05
6.35077e-05
2.99644e-05
6.46117e-05
3.07903e-05
7.17165e-05
1.19748e-05
0.000106629
3.69826e-06
0.000107786
1.08236e-06
0.000107853
-1.57094e-06
0.000107361
-4.38686e-06
0.000107503
-8.11447e-06
0.000107901
-1.79905e-05
0.000108555
-3.8774e-05
0.000102162
-3.07731e-05
6.50484e-05
-2.07403e-05
6.31699e-05
-1.22982e-05
6.26897e-05
-1.4367e-05
8.23835e-05
-1.78824e-05
9.4256e-05
-1.68177e-05
8.62823e-05
-1.41832e-05
8.06205e-05
-1.14705e-05
7.81098e-05
-6.25435e-06
7.8149e-05
-8.91013e-07
8.0188e-05
5.82573e-05
1.58757e-06
5.58769e-05
7.40018e-06
7.32921e-05
1.23933e-05
7.35588e-05
1.50272e-05
7.53508e-05
1.6195e-05
7.87086e-05
1.83404e-05
8.47095e-05
1.86893e-05
9.41127e-05
1.67502e-05
7.81773e-05
2.24202e-05
5.98186e-05
3.03413e-05
6.07672e-05
1.09174e-05
8.77607e-05
5.38171e-06
0.000111537
2.48889e-06
0.000110759
5.23549e-07
0.000109734
-1.53235e-06
0.0001092
-3.48868e-06
0.000109288
-5.81789e-06
0.000110153
-8.66184e-06
0.000111604
-2.17364e-05
0.000112138
-3.11823e-05
7.45219e-05
-2.39539e-05
6.02069e-05
-1.88271e-05
5.88311e-05
-2.25109e-05
8.39601e-05
-2.12957e-05
9.24197e-05
-1.87355e-05
8.29768e-05
-1.6344e-05
7.69264e-05
-1.29221e-05
7.35282e-05
-7.74894e-06
7.19755e-05
-2.11782e-06
7.2407e-05
5.40163e-05
9.31628e-06
4.67257e-05
1.09277e-05
6.86816e-05
1.4133e-05
6.8244e-05
1.62549e-05
7.12883e-05
1.76945e-05
7.52744e-05
1.88616e-05
8.08285e-05
1.89395e-05
9.18411e-05
1.93892e-05
7.7001e-05
2.28228e-05
5.92456e-05
2.78284e-05
5.91703e-05
4.68463e-06
0.000105418
2.97605e-06
0.000113045
1.25897e-06
0.000111846
-1.85551e-07
0.000110444
-1.32807e-06
0.000109656
-2.55603e-06
0.000109783
-3.78694e-06
0.00011071
-5.12372e-06
0.000112344
-6.48689e-06
0.000113376
-3.24136e-05
9.47754e-05
-2.64854e-05
5.83742e-05
-2.24185e-05
5.70828e-05
-2.27392e-05
8.29083e-05
-2.20616e-05
8.93083e-05
-2.04144e-05
7.883e-05
-1.84822e-05
7.3405e-05
-1.58654e-05
6.91869e-05
-1.24231e-05
6.6372e-05
-8.96689e-06
6.6112e-05
4.49078e-05
1.35161e-05
3.45065e-05
1.51136e-05
6.4235e-05
1.62205e-05
6.41831e-05
1.71915e-05
6.77156e-05
1.80253e-05
7.23283e-05
1.79502e-05
7.75024e-05
1.65914e-05
9.01748e-05
2.06371e-05
7.32784e-05
2.10527e-05
6.29523e-05
1.80293e-05
6.633e-05
4.07365e-06
0.000117827
7.07812e-07
0.00011562
-7.88296e-07
0.000112193
-1.19472e-06
0.000109612
-1.26366e-06
0.000108375
-1.15764e-06
0.000108404
-1.51941e-06
0.000109814
-2.36966e-06
0.000112161
-4.2773e-06
0.000114701
-2.70432e-05
0.000112816
-2.64731e-05
6.15103e-05
-2.48712e-05
5.89731e-05
-2.01923e-05
7.81869e-05
-2.10563e-05
8.69286e-05
-2.12646e-05
7.56161e-05
-2.0277e-05
6.99381e-05
-1.98413e-05
6.59758e-05
-1.87192e-05
6.28035e-05
-1.35238e-05
5.89967e-05
3.22137e-05
9.22109e-06
2.60722e-05
1.72541e-05
5.44947e-05
1.86359e-05
6.01199e-05
1.7233e-05
6.63493e-05
1.74115e-05
6.98185e-05
1.71694e-05
7.38934e-05
1.64495e-05
8.73546e-05
2.19174e-05
6.98739e-05
2.00361e-05
7.10393e-05
2.93705e-06
8.45516e-05
-2.77718e-06
0.000122649
-4.58395e-06
0.000116114
-4.3023e-06
0.0001104
-3.03785e-06
0.000106662
-1.05585e-06
0.000104725
7.11032e-07
0.000104917
2.05991e-06
0.000106869
1.91898e-06
0.000110812
-7.35681e-07
0.000116213
-1.10355e-05
0.000122099
-2.45558e-05
7.79452e-05
-2.71739e-05
6.76346e-05
-1.92716e-05
7.21034e-05
-2.03123e-05
8.42405e-05
-2.06188e-05
7.21577e-05
-2.17121e-05
6.7814e-05
-2.29942e-05
6.41059e-05
-2.13276e-05
5.87475e-05
-9.32921e-06
4.65024e-05
2.37443e-05
1.1709e-06
2.45643e-05
1.22691e-05
4.29927e-05
1.96715e-05
5.19753e-05
1.66982e-05
6.67792e-05
1.52242e-05
6.84814e-05
1.56308e-05
6.94105e-05
2.01927e-05
8.14028e-05
2.27133e-05
7.28199e-05
1.7504e-05
8.13509e-05
-1.35491e-05
0.000109233
-1.33717e-05
0.00012131
-1.20391e-05
0.000112986
-9.35478e-06
0.000105689
-5.30088e-06
0.000100534
-1.00051e-06
9.82602e-05
3.50534e-06
9.83323e-05
7.05077e-06
0.000101212
9.52642e-06
0.000106418
9.91709e-06
0.000114032
8.65542e-06
0.000122297
-2.33599e-05
0.000104389
-2.88925e-05
7.95226e-05
-2.22871e-05
7.09446e-05
-1.87188e-05
7.85499e-05
-1.94723e-05
6.86328e-05
-2.23742e-05
6.76087e-05
-2.49037e-05
6.38715e-05
-1.50017e-05
4.81247e-05
-1.92768e-06
3.31086e-05
2.19795e-05
-2.23875e-06
2.59712e-05
4.12783e-06
3.56093e-05
1.42674e-05
4.32605e-05
1.20897e-05
6.72634e-05
6.90079e-06
7.24748e-05
1.19119e-05
6.45103e-05
2.84157e-05
6.97628e-05
2.34122e-05
8.52034e-05
-1.94995e-06
0.000103503
-2.42067e-05
0.000125555
-2.36858e-05
0.000118502
-2.08173e-05
0.000107539
-1.50875e-05
9.7371e-05
-8.28927e-06
9.10133e-05
-6.70907e-07
8.7986e-05
6.5384e-06
8.83841e-05
1.33557e-05
9.17674e-05
1.82316e-05
9.89009e-05
2.07286e-05
0.000109106
2.09128e-05
0.000119935
-7.6421e-06
0.000125308
-2.93768e-05
9.94677e-05
-3.04123e-05
8.05517e-05
-1.6321e-05
6.81248e-05
-1.40706e-05
6.51237e-05
-1.96059e-05
7.07444e-05
-1.89004e-05
6.14057e-05
-5.07636e-06
3.56418e-05
1.41656e-06
2.54938e-05
2.3127e-05
-2.00793e-06
2.74361e-05
5.119e-07
3.15708e-05
4.76877e-06
3.8926e-05
7.12423e-06
6.48566e-05
5.77849e-06
7.09269e-05
1.48217e-05
6.1959e-05
3.32635e-05
6.87269e-05
1.88514e-05
0.00010112
-2.13802e-05
0.000134325
-3.23249e-05
0.000133768
-3.49124e-05
0.000117842
-3.08657e-05
0.000100711
-2.20069e-05
8.65101e-05
-1.13007e-05
7.86608e-05
-5.99928e-07
7.5626e-05
1.02048e-05
7.59581e-05
2.03479e-05
7.98439e-05
2.87693e-05
8.84215e-05
3.12755e-05
0.00010356
2.80531e-05
0.000120052
1.51937e-05
0.000135585
-2.63493e-05
0.000131316
-3.4329e-05
9.27749e-05
-1.77075e-05
6.8607e-05
-1.22123e-05
6.3696e-05
-1.31647e-05
6.9436e-05
-8.21458e-06
5.6657e-05
-6.44852e-07
2.84663e-05
1.53427e-06
2.22075e-05
2.47169e-05
-1.38567e-06
2.8745e-05
2.68972e-07
2.90411e-05
-3.99818e-07
3.68787e-05
5.56409e-06
5.85544e-05
1.51911e-05
6.16583e-05
2.33406e-05
6.03732e-05
3.30439e-05
7.34523e-05
-2.37337e-06
0.000134865
-3.33269e-05
0.00016066
-4.53676e-05
0.000141825
-4.63065e-05
0.000116373
-3.6947e-05
9.12e-05
-2.40551e-05
7.46559e-05
-1.17755e-05
6.80246e-05
-3.42123e-07
6.60099e-05
1.10458e-05
6.63331e-05
2.33251e-05
6.91107e-05
3.57004e-05
7.68476e-05
4.38255e-05
9.49687e-05
4.07396e-05
0.000120293
2.77047e-05
0.000144779
-8.86363e-06
0.000162567
-3.52895e-05
0.00012128
-2.74835e-05
7.27583e-05
-1.89224e-05
6.27957e-05
-9.40108e-06
6.13894e-05
-2.56582e-06
5.01488e-05
-1.04923e-06
2.53264e-05
6.26957e-07
2.00404e-05
2.58708e-05
-7.44067e-07
2.97639e-05
1.10436e-06
2.69228e-05
1.809e-06
3.27711e-05
1.18556e-05
4.55775e-05
2.67753e-05
5.12816e-05
2.90216e-05
6.3278e-05
1.68923e-05
9.22536e-05
-2.89987e-05
0.000176052
-4.98463e-05
0.000177361
-5.42001e-05
0.000143086
-4.24417e-05
0.000105204
-2.63002e-05
7.77782e-05
-1.50558e-05
6.70474e-05
-7.01601e-06
6.42416e-05
-3.58055e-07
6.38277e-05
6.39925e-06
6.40303e-05
1.47292e-05
6.49774e-05
2.64063e-05
6.87169e-05
4.24699e-05
8.15933e-05
5.18938e-05
0.000111144
4.40743e-05
0.000148982
2.15408e-05
0.000183073
-2.7138e-05
0.00016499
-3.24561e-05
8.33474e-05
-2.90328e-05
6.60285e-05
-1.49785e-05
5.24727e-05
-5.49609e-06
3.87607e-05
-3.73796e-06
2.09156e-05
-1.06594e-06
1.66823e-05
2.52896e-05
2.12598e-07
3.01078e-05
2.49696e-06
2.45382e-05
6.59957e-06
2.55243e-05
1.75771e-05
3.3253e-05
2.63985e-05
4.32822e-05
2.74002e-05
6.15637e-05
-1.86025e-05
0.000136345
-5.10501e-05
0.000206719
-5.80514e-05
0.000180565
-4.13335e-05
0.000127981
-2.0758e-05
8.86169e-05
-9.77009e-06
7.10124e-05
-5.31973e-06
6.61979e-05
-2.70324e-06
6.50643e-05
-5.08887e-07
6.50931e-05
1.74711e-06
6.52831e-05
4.54276e-06
6.5718e-05
9.58982e-06
6.7532e-05
2.20742e-05
7.3658e-05
4.26728e-05
9.45328e-05
5.68895e-05
0.000136136
4.80167e-05
0.000188426
5.64738e-06
0.00020273
-3.01813e-05
0.000121217
-3.01493e-05
6.67997e-05
-2.07145e-05
4.47267e-05
-1.11222e-05
2.84319e-05
-7.65541e-06
1.50248e-05
-3.2384e-06
1.22232e-05
2.23728e-05
1.22082e-06
2.92617e-05
4.27488e-06
2.1182e-05
9.26636e-06
1.88315e-05
1.66035e-05
2.47153e-05
2.06946e-05
4.04084e-05
6.58979e-06
7.42226e-05
-4.22585e-05
0.000174796
-5.25471e-05
0.00021756
-3.86352e-05
0.000170664
-1.31141e-05
0.000111588
-3.16696e-06
8.38519e-05
-1.62242e-06
7.29847e-05
-1.0866e-06
6.9609e-05
-8.86267e-07
6.86507e-05
-4.52717e-07
6.85453e-05
-2.09821e-07
6.87967e-05
2.49634e-07
6.92403e-05
7.09268e-07
7.0863e-05
3.07385e-06
7.50056e-05
1.52473e-05
8.82216e-05
4.1282e-05
0.000119526
5.13831e-05
0.000181957
3.46174e-05
0.000220375
-1.87187e-05
0.000162247
-2.71861e-05
7.16662e-05
-2.08632e-05
4.10676e-05
-1.46149e-05
2.24343e-05
-1.12169e-05
1.21529e-05
-5.48242e-06
1.08353e-05
2.06473e-05
1.27692e-06
2.80214e-05
5.25713e-06
1.85813e-05
1.04545e-05
1.47037e-05
1.90904e-05
1.98469e-05
2.0224e-05
3.98847e-05
-2.66481e-05
0.000112527
-3.43137e-05
0.000181573
-2.43475e-05
0.000210455
-8.28339e-06
0.000164617
-1.94013e-07
0.000111886
1.34715e-06
9.12349e-05
7.11104e-07
8.20756e-05
4.1243e-07
7.78592e-05
2.33228e-07
7.70713e-05
-4.68915e-07
7.70009e-05
-7.90595e-07
7.72559e-05
-1.2219e-06
7.74674e-05
-1.16306e-06
7.91543e-05
-2.35189e-06
8.41697e-05
1.26391e-06
9.42435e-05
1.12072e-05
0.000118214
2.69522e-05
0.000174971
3.205e-05
0.000216447
1.47993e-05
0.000174831
-2.45073e-05
0.000105603
-2.27154e-05
4.55114e-05
-1.55638e-05
2.15123e-05
-1.00028e-05
1.09181e-05
-3.7424e-06
9.02519e-06
2.11822e-05
1.96699e-06
2.65688e-05
5.75186e-06
1.96052e-05
1.23648e-05
1.41734e-05
2.44009e-05
1.746e-05
1.29047e-05
5.49538e-05
-3.99888e-05
0.000146525
-7.98017e-06
0.000157516
2.02072e-05
0.000186575
1.85028e-05
0.000163176
6.14243e-06
0.000124028
1.30543e-06
0.000100245
1.28412e-06
9.04623e-05
2.17535e-06
8.7702e-05
1.09497e-06
8.832e-05
-1.33598e-07
8.87845e-05
-1.78902e-06
8.89354e-05
-2.09183e-06
8.83905e-05
-1.64005e-06
8.85984e-05
-1.26668e-06
9.1885e-05
-6.85792e-06
0.000102759
-1.84794e-05
0.000128508
-1.58557e-05
0.000168791
9.12935e-06
0.000193827
3.45715e-05
0.000156571
-1.52299e-05
0.000137511
-3.14897e-05
5.74296e-05
-1.90051e-05
2.0245e-05
-8.48984e-06
7.74937e-06
-2.47586e-06
5.41129e-06
2.03632e-05
1.23426e-05
2.17835e-05
6.11252e-06
2.46548e-05
1.69522e-05
8.59422e-06
3.71352e-05
6.00069e-06
5.25412e-06
7.21365e-05
-8.75523e-06
0.000151945
1.44593e-05
0.000136748
4.05783e-05
0.000153935
4.6527e-05
0.000143791
3.3844e-05
0.000123027
2.14182e-05
0.00010099
1.29658e-05
8.85773e-05
7.9903e-06
8.29852e-05
3.49252e-06
8.26202e-05
-1.5543e-07
8.22004e-05
-4.32571e-06
8.26175e-05
-8.20721e-06
8.22521e-05
-1.39778e-05
8.41967e-05
-2.14839e-05
8.91427e-05
-3.57195e-05
0.000104117
-4.49416e-05
0.000124322
-3.71089e-05
0.000147473
-5.74582e-06
0.000157507
1.19429e-05
0.000138001
-3.26172e-06
0.000142026
-3.8209e-05
7.64674e-05
-2.9281e-05
7.51548e-06
-1.17614e-05
-5.35426e-07
-5.27869e-06
2.86505e-06
1.71639e-05
6.47974e-06
1.72273e-05
1.08899e-05
2.55607e-05
3.23182e-05
6.69966e-07
3.92904e-05
-9.68823e-07
9.62688e-06
8.89908e-05
2.56392e-05
0.00013621
2.52082e-05
0.000130551
4.1548e-05
0.000132734
5.50687e-05
0.000126343
5.88539e-05
0.000113476
5.04852e-05
9.97755e-05
3.77337e-05
8.91749e-05
2.3424e-05
8.3349e-05
1.17099e-05
8.01111e-05
-2.53666e-07
7.93604e-05
-1.13304e-05
7.92269e-05
-2.43169e-05
8.07463e-05
-3.73375e-05
8.37877e-05
-5.10333e-05
9.0684e-05
-5.66878e-05
0.000101157
-5.30454e-05
0.000115146
-3.662e-05
0.000127971
-1.76196e-05
0.000134395
-1.5679e-05
0.000130386
-3.57334e-06
0.000128845
-3.61193e-05
9.45962e-05
-2.85054e-05
5.14701e-07
-1.47137e-05
-1.42799e-05
-8.73376e-06
1.83507e-06
8.40735e-06
4.8658e-06
1.08202e-05
1.37205e-05
1.85683e-05
2.64735e-05
-8.77321e-06
2.87629e-05
-6.88198e-06
1.46608e-05
9.83969e-05
2.29971e-05
0.000127157
2.70977e-05
0.000126196
3.64188e-05
0.000123877
4.37021e-05
0.000119174
4.51584e-05
0.000111914
4.0762e-05
0.000104093
3.21058e-05
9.75549e-05
2.2021e-05
9.29832e-05
1.09023e-05
9.03573e-05
1.65197e-07
8.92476e-05
-1.09142e-05
8.93341e-05
-2.15669e-05
9.07014e-05
-3.19314e-05
9.35988e-05
-3.97448e-05
9.83972e-05
-4.37807e-05
0.000104993
-4.14752e-05
0.000112794
-3.3138e-05
0.000119798
-2.22505e-05
0.00012429
-1.67278e-05
0.000124951
-1.1813e-05
0.000122884
-2.37615e-05
0.000103078
-2.216e-05
-3.32817e-06
-1.07e-05
-2.01131e-05
-7.24431e-06
-3.38636e-06
-1.88381e-07
6.03107e-06
5.01493e-06
8.78434e-06
1.48388e-05
1.4705e-05
-1.46477e-05
2.25953e-05
-1.60623e-05
1.62628e-05
0.000100394
2.00528e-05
0.000122124
2.46039e-05
0.000121147
2.93736e-05
0.000118674
3.27067e-05
0.000115571
3.28393e-05
0.000111531
2.97332e-05
0.000107021
2.41253e-05
0.000102954
1.6812e-05
0.000100067
8.71174e-06
9.81782e-05
2.57096e-07
9.73871e-05
-8.13119e-06
9.74107e-05
-1.62254e-05
9.85072e-05
-2.32947e-05
0.000100417
-2.86721e-05
0.000103566
-3.14944e-05
0.000107576
-3.09516e-05
0.000112041
-2.72894e-05
0.000115864
-2.20802e-05
0.000118698
-1.82905e-05
0.000120493
-1.69122e-05
0.000120258
-1.86629e-05
0.000103013
-1.04503e-05
-1.2561e-05
-5.19419e-06
-2.50036e-05
-3.12142e-06
-6.9207e-06
-4.42661e-06
4.74411e-06
2.38916e-07
4.90026e-06
1.36271e-05
8.31203e-06
-1.72673e-05
1.52033e-05
-2.42931e-05
1.63336e-05
9.55303e-05
1.89984e-05
0.000117809
2.15359e-05
0.000117817
2.37597e-05
0.000115855
2.49358e-05
0.000113982
2.4383e-05
0.000111794
2.19276e-05
0.000109199
1.78113e-05
0.000106824
1.26128e-05
0.000104981
6.63545e-06
0.000103846
4.30636e-07
0.000103256
-5.84301e-06
0.000103347
-1.17066e-05
0.000104053
-1.69254e-05
0.00010535
-2.08511e-05
0.000107199
-2.31819e-05
0.000109626
-2.36293e-05
0.000112128
-2.22775e-05
0.000114159
-2.02884e-05
0.000116068
-1.87383e-05
0.000118069
-1.83459e-05
0.000118445
-1.40413e-05
9.64964e-05
-5.83364e-06
-2.17167e-05
-1.69987e-06
-2.88004e-05
-1.81744e-06
-7.85515e-06
-6.68323e-06
2.84237e-06
-2.84246e-06
2.76752e-06
1.29391e-05
2.83695e-06
-1.70953e-05
6.42883e-06
-2.87892e-05
1.90543e-05
8.21237e-05
1.82973e-05
0.000116521
1.89995e-05
0.000116189
1.95748e-05
0.000114597
1.9588e-05
0.000113539
1.85957e-05
0.000112411
1.65156e-05
0.00011098
1.34484e-05
0.000109577
9.56245e-06
0.000108555
5.18572e-06
0.000107878
5.23362e-07
0.000107563
-4.10683e-06
0.00010762
-8.51919e-06
0.000108127
-1.23797e-05
0.000108875
-1.54552e-05
0.000109959
-1.75082e-05
0.000111322
-1.85059e-05
0.000112738
-1.85636e-05
0.000113746
-1.8243e-05
0.000115083
-1.87158e-05
0.00011758
-1.9589e-05
0.000117565
-7.30763e-06
8.35983e-05
-3.23884e-06
-2.69119e-05
-8.34638e-07
-3.06494e-05
-1.62821e-06
-8.06161e-06
-8.49869e-06
9.09222e-07
-4.23758e-06
8.32851e-07
1.24021e-05
-1.23201e-06
-1.54155e-05
-1.47244e-07
-3.01287e-05
1.99823e-05
6.43861e-05
1.73084e-05
0.00011706
1.6634e-05
0.000115891
1.64079e-05
0.000114177
1.5651e-05
0.000113782
1.4502e-05
0.000113178
1.27428e-05
0.000112368
1.03455e-05
0.000111634
7.43281e-06
0.000111105
4.12097e-06
0.000110831
6.49947e-07
0.000110657
-2.85261e-06
0.000110755
-6.16938e-06
0.000111073
-9.15601e-06
0.000111509
-1.16086e-05
0.000112038
-1.34542e-05
0.000112797
-1.47284e-05
0.00011356
-1.54618e-05
0.000113988
-1.61645e-05
0.00011503
-1.73205e-05
0.000117702
-2.0115e-05
0.000118303
-1.3665e-06
6.62367e-05
-1.06732e-06
-2.82907e-05
-7.1214e-07
-3.06135e-05
-6.46762e-07
-8.21175e-06
-9.38079e-06
-2.99333e-07
-4.52105e-06
-1.11118e-06
1.20178e-05
-3.31603e-06
-1.38124e-05
-3.16149e-06
-2.99144e-05
1.65565e-05
4.71295e-05
1.45841e-05
0.000116849
1.4081e-05
0.000115334
1.34143e-05
0.00011422
1.25837e-05
0.000114098
1.14706e-05
0.00011384
1.00527e-05
0.000113395
8.16305e-06
0.000113121
5.91998e-06
0.000112962
3.41524e-06
0.000112934
7.6635e-07
0.000112918
-1.8855e-06
0.00011301
-4.4544e-06
0.000113256
-6.79007e-06
0.000113447
-8.78754e-06
0.000113647
-1.04186e-05
0.000113996
-1.16524e-05
0.000114338
-1.27075e-05
0.000114482
-1.35477e-05
0.000115097
-1.47004e-05
0.000117717
-1.64923e-05
0.000118092
3.28136e-06
4.83252e-05
1.63072e-06
-2.74422e-05
5.05213e-07
-2.9302e-05
2.12778e-07
-7.76974e-06
-9.40888e-06
-1.13759e-06
-4.03792e-06
-2.5579e-06
1.19978e-05
-4.20499e-06
-1.27532e-05
-4.64453e-06
-2.91138e-05
1.05066e-05
3.33111e-05
1.1188e-05
0.000114182
1.10159e-05
0.00011427
1.07091e-05
0.000113969
1.00508e-05
0.000114189
9.24437e-06
0.000114178
8.08841e-06
0.000114096
6.64956e-06
0.000114125
4.87984e-06
0.000114292
2.97644e-06
0.000114418
9.14403e-07
0.000114557
-1.14372e-06
0.000114659
-3.17605e-06
0.000114864
-5.0021e-06
0.000114855
-6.68935e-06
0.000114889
-8.02699e-06
0.000114887
-9.17351e-06
0.000114974
-1.00723e-05
0.000114833
-1.07183e-05
0.000114978
-1.10563e-05
0.000116742
-1.1194e-05
0.000116198
6.38457e-06
3.22525e-05
4.36779e-06
-2.57879e-05
2.37364e-06
-2.70053e-05
7.32407e-07
-6.31364e-06
-8.92951e-06
-1.67107e-06
-3.108e-06
-3.62268e-06
1.23124e-05
-5.16159e-06
-1.19747e-05
-5.93102e-06
-2.79807e-05
6.59819e-06
2.18549e-05
7.96384e-06
0.000110888
8.27052e-06
0.00011268
8.45024e-06
0.000113155
8.23649e-06
0.000113843
7.66384e-06
0.000114209
6.79815e-06
0.000114476
5.6162e-06
0.000114816
4.26887e-06
0.000115178
2.7034e-06
0.000115522
1.12189e-06
0.000115707
-5.74864e-07
0.000115912
-2.15606e-06
0.000116008
-3.72124e-06
0.000115952
-5.06415e-06
0.000115768
-6.27021e-06
0.000115588
-7.17175e-06
0.000115354
-7.82223e-06
0.000114874
-7.89186e-06
0.00011433
-8.01438e-06
0.000115323
-6.16897e-06
0.000112421
8.62489e-06
1.86822e-05
6.36678e-06
-2.36972e-05
3.24776e-06
-2.37879e-05
1.34043e-06
-4.75972e-06
-7.86329e-06
-1.67935e-06
-2.29466e-06
-3.81059e-06
1.23496e-05
-5.73708e-06
-1.09844e-05
-6.90269e-06
-2.62446e-05
4.48923e-06
1.18634e-05
6.21584e-06
0.000107341
6.41937e-06
0.000111092
7.06165e-06
0.000111881
7.11509e-06
0.000113184
6.75854e-06
0.000113978
6.05152e-06
0.000114627
5.09915e-06
0.000115252
3.9308e-06
0.000115829
2.65559e-06
0.000116326
1.2927e-06
0.000116601
-4.75418e-08
0.000116801
-1.434e-06
0.000116915
-2.75572e-06
0.000116792
-3.97446e-06
0.00011647
-5.02685e-06
0.000116119
-5.8881e-06
0.00011562
-6.3295e-06
0.000114696
-6.17964e-06
0.000113407
-5.64204e-06
0.000113195
-2.11478e-06
0.000107101
1.05096e-05
7.20922e-06
7.81564e-06
-2.14474e-05
4.00127e-06
-2.02723e-05
1.99244e-06
-3.37745e-06
-6.24543e-06
-2.01336e-06
-1.29369e-06
-3.01027e-06
1.13937e-05
-5.55081e-06
-9.69977e-06
-7.45045e-06
-2.41587e-05
2.9608e-06
2.95246e-06
5.12916e-06
0.000103486
5.79807e-06
0.000109075
6.51198e-06
0.000110485
6.79617e-06
0.000112278
6.47274e-06
0.000113635
5.85705e-06
0.000114651
4.94018e-06
0.000115583
3.90141e-06
0.000116335
2.74367e-06
0.000116962
1.55947e-06
0.000117303
3.52088e-07
0.000117521
-8.59551e-07
0.000117636
-2.08794e-06
0.000117486
-3.23924e-06
0.000117081
-4.33598e-06
0.000116629
-5.27856e-06
0.00011594
-5.96851e-06
0.000114708
-6.16282e-06
0.000112799
-6.16941e-06
0.000111535
1.21873e-06
9.84838e-05
1.18832e-05
-2.50242e-06
9.3702e-06
-1.95896e-05
5.32888e-06
-1.66402e-05
2.44292e-06
-1.57002e-06
-4.32842e-06
-2.54989e-06
-1.53634e-07
-2.26653e-06
8.97385e-06
-5.30626e-06
-8.12659e-06
-8.10759e-06
-2.15277e-05
1.38102e-06
-5.03778e-06
5.32449e-06
9.80544e-05
6.29557e-06
0.000106704
7.04544e-06
0.000108974
7.23788e-06
0.000111411
6.86809e-06
0.000113322
6.10447e-06
0.000114744
5.15446e-06
0.000115925
4.07597e-06
0.00011682
2.98499e-06
0.000117524
1.85292e-06
0.000117915
7.20485e-07
0.000118146
-4.39403e-07
0.000118259
-1.58264e-06
0.00011808
-2.81243e-06
0.000117703
-3.99835e-06
0.000117201
-5.28626e-06
0.000116534
-6.57387e-06
0.000115312
-8.24856e-06
0.000113548
-9.94477e-06
0.000111641
5.17707e-06
8.43797e-05
1.29123e-05
-9.37428e-06
1.05121e-05
-1.7854e-05
6.47218e-06
-1.32855e-05
2.66858e-06
6.04153e-07
-2.3455e-06
-3.26414e-06
1.06846e-06
-1.93336e-06
4.63783e-06
-4.88767e-06
-6.98305e-06
-8.20627e-06
-1.88269e-05
9.26391e-08
-1.17912e-05
7.08858e-06
8.99256e-05
8.50979e-06
0.000103875
8.6725e-06
0.000107868
8.51604e-06
0.000110864
7.81339e-06
0.000113283
6.77143e-06
0.000115081
5.62808e-06
0.000116402
4.44176e-06
0.000117404
3.28419e-06
0.000118104
2.16563e-06
0.000118505
1.02696e-06
0.000118742
-6.33433e-08
0.000118807
-1.24725e-06
0.000118656
-2.46164e-06
0.000118289
-3.81985e-06
0.000117866
-5.30753e-06
0.000117305
-7.22685e-06
0.000116481
-1.01707e-05
0.000115392
-1.42297e-05
0.000113939
9.09592e-06
6.47855e-05
1.40048e-05
-1.32478e-05
1.14891e-05
-1.60119e-05
7.44031e-06
-1.01614e-05
2.71774e-06
3.07039e-06
-5.11285e-07
-2.53349e-06
2.38618e-06
-1.72392e-06
-4.02191e-07
-4.3377e-06
-6.79033e-06
-7.97926e-06
-1.6332e-05
-2.01548e-06
-1.63469e-05
1.26061e-05
7.59072e-05
1.25743e-05
0.000102365
1.15795e-05
0.000107749
1.05049e-05
0.000111164
9.22495e-06
0.000113805
7.70406e-06
0.000115816
6.27083e-06
0.000117146
4.87304e-06
0.000118147
3.62697e-06
0.000118765
2.42934e-06
0.000119131
1.33716e-06
0.000119288
2.07909e-07
0.000119343
-9.15861e-07
0.000119164
-2.16683e-06
0.000118856
-3.47802e-06
0.000118457
-4.98565e-06
0.000118036
-6.78297e-06
0.000117522
-9.86649e-06
0.000117176
-1.3388e-05
0.000115331
1.08147e-05
4.45894e-05
1.35778e-05
-1.48517e-05
1.1069e-05
-1.42679e-05
7.35737e-06
-7.68218e-06
2.81059e-06
4.80063e-06
1.09461e-06
-1.2895e-06
3.00778e-06
-1.14656e-06
-3.01089e-06
-3.38453e-06
-8.00997e-06
-7.18774e-06
-1.43241e-05
-4.50691e-06
-1.76498e-05
1.95308e-05
5.51135e-05
1.78011e-05
0.000102244
1.50562e-05
0.000109192
1.29178e-05
0.000112443
1.07912e-05
0.000115106
8.80182e-06
0.000116999
6.89562e-06
0.000118292
5.34213e-06
0.000119035
3.88959e-06
0.000119586
2.67869e-06
0.000119766
1.51312e-06
0.000119861
4.44908e-07
0.000119812
-6.95541e-07
0.000119631
-1.83209e-06
0.000119285
-3.07775e-06
0.000118905
-4.22546e-06
0.000118395
-5.47794e-06
0.00011795
-7.40328e-06
0.000117698
-8.96522e-06
0.000114606
1.10028e-05
2.74104e-05
1.23688e-05
-1.53371e-05
9.71695e-06
-1.26843e-05
6.26508e-06
-5.77726e-06
3.29787e-06
4.80786e-06
2.68378e-06
-2.8789e-07
3.64175e-06
-4.9069e-07
-3.84195e-06
-1.68657e-06
-9.25195e-06
-5.43556e-06
-1.3386e-05
-5.67004e-06
-1.62821e-05
2.29405e-05
3.10542e-05
2.21248e-05
0.000100405
1.8647e-05
0.0001112
1.52189e-05
0.000114885
1.22773e-05
0.0001172
9.62534e-06
0.000118786
7.44977e-06
0.000119696
5.56202e-06
0.000120197
4.0812e-06
0.00012043
2.74564e-06
0.000120477
1.6205e-06
0.000120381
5.0205e-07
0.000120272
-5.32786e-07
0.000119983
-1.65074e-06
0.000119628
-2.67047e-06
0.000119108
-3.56548e-06
0.000118441
-4.16814e-06
0.000117678
-5.01215e-06
0.000117005
-4.02216e-06
0.000111595
1.08507e-05
1.46052e-05
1.11062e-05
-1.50182e-05
8.20947e-06
-1.10896e-05
4.91851e-06
-4.33328e-06
3.20078e-06
2.95726e-06
4.02434e-06
2.06305e-07
4.0384e-06
3.68573e-07
-4.23814e-06
-4.85131e-08
-1.00366e-05
-2.57694e-06
-1.3513e-05
-3.99516e-06
-1.46724e-05
1.92081e-05
1.15459e-05
2.81502e-05
9.01663e-05
2.20968e-05
0.000115574
1.70581e-05
0.000118742
1.31786e-05
0.000120132
1.00986e-05
0.000121002
7.55426e-06
0.000121404
5.60065e-06
0.000121423
3.95573e-06
0.000121379
2.68612e-06
0.000121109
1.49488e-06
0.00012091
4.71085e-07
0.000120629
-6.02395e-07
0.000120303
-1.58447e-06
0.000119824
-2.59049e-06
0.000119221
-3.23005e-06
0.000118216
-3.72948e-06
0.00011712
-3.68298e-06
0.000115375
-9.27516e-07
0.000107029
1.03995e-05
5.20998e-06
9.73937e-06
-1.41104e-05
6.75354e-06
-9.71438e-06
3.61178e-06
-3.70728e-06
1.9081e-06
1.07406e-06
4.32595e-06
1.4741e-07
3.5729e-06
1.34312e-06
-5.20177e-06
1.31175e-06
-1.05644e-05
-5.70855e-07
-1.29748e-05
-2.56287e-06
-1.23389e-05
9.08343e-06
2.18709e-06
3.21389e-05
6.92928e-05
2.41322e-05
0.000121373
1.75884e-05
0.000123911
1.31613e-05
0.000123578
9.7769e-06
0.000123457
7.21835e-06
0.000123133
5.15806e-06
0.000122688
3.62771e-06
0.000122205
2.30648e-06
0.000121727
1.25522e-06
0.000121288
1.88742e-07
0.000120958
-7.73497e-07
0.000120501
-1.83417e-06
0.00012002
-2.77293e-06
0.000119251
-3.61911e-06
0.000118096
-4.35429e-06
0.000116657
-4.7414e-06
0.000114045
1.63648e-06
9.96806e-05
9.70159e-06
-9.50243e-07
8.27161e-06
-1.27517e-05
5.07293e-06
-8.52656e-06
2.10235e-06
-3.82299e-06
8.18579e-07
1.14029e-08
4.24904e-06
2.49805e-07
2.34756e-06
2.41595e-06
-6.25073e-06
2.54381e-06
-9.88825e-06
5.61647e-07
-1.15964e-05
-1.28518e-06
-7.85328e-06
1.57334e-06
2.95448e-07
2.79108e-05
4.5992e-05
2.12959e-05
0.000124854
1.57519e-05
0.000127798
1.16642e-05
0.000126585
8.61273e-06
0.00012559
6.17021e-06
0.000124671
4.36895e-06
0.000123694
2.92144e-06
0.000122868
1.7804e-06
0.000122149
7.44617e-07
0.000121567
-1.53995e-07
0.000121098
-1.17273e-06
0.000120672
-2.19289e-06
0.000120153
-3.31247e-06
0.000119378
-4.3844e-06
0.000118135
-5.90369e-06
0.00011677
-7.25665e-06
0.000113607
4.21357e-06
8.89426e-05
8.95192e-06
-3.5991e-06
6.72886e-06
-1.0917e-05
3.15493e-06
-7.4196e-06
9.23167e-07
-3.97555e-06
2.32429e-07
-4.82427e-07
4.19227e-06
2.32837e-06
5.49195e-06
4.99939e-06
7.13738e-07
2.07817e-06
-4.99623e-06
3.39889e-07
-6.36495e-06
-2.14281e-06
-3.40141e-06
-2.47327e-06
-5.8141e-08
1.48088e-05
2.92679e-05
1.62456e-05
0.000120874
1.21559e-05
0.000130155
8.98523e-06
0.000128631
6.49206e-06
0.000127061
4.60734e-06
0.000125639
3.07419e-06
0.000124335
1.95385e-06
0.000123186
1.00387e-06
0.000122281
2.09008e-07
0.000121576
-6.62711e-07
0.000121116
-1.56728e-06
0.000120705
-2.67204e-06
0.000120266
-3.77039e-06
0.000119466
-5.2094e-06
0.00011835
-6.71665e-06
0.000116821
-8.81507e-06
0.000113607
6.07534e-06
7.58808e-05
8.13887e-06
-3.16726e-06
5.19404e-06
-8.635e-06
1.73824e-06
-6.318e-06
3.17457e-07
-3.94931e-06
-5.64708e-08
-5.58576e-07
4.26668e-06
-8.53702e-07
9.53075e-06
-1.81508e-06
2.7988e-06
-7.51866e-07
-2.53088e-06
-1.95506e-06
-2.89631e-06
-3.94014e-06
-1.90477e-06
-5.05556e-06
4.38192e-07
-3.28043e-07
2.35089e-05
1.02284e-05
0.000110078
7.62744e-06
0.000130923
5.4844e-06
0.000129431
3.96135e-06
0.000127552
2.54194e-06
0.000126028
1.51895e-06
0.000124441
6.81061e-07
0.00012311
1.49524e-07
0.000121963
-4.58836e-07
0.000121292
-1.10964e-06
0.000120883
-2.02122e-06
0.00012064
-3.03226e-06
0.00012025
-4.2353e-06
0.000119539
-5.54747e-06
0.000118326
-6.53435e-06
0.000116211
-6.75792e-06
0.000111526
7.30745e-06
6.34306e-05
7.29471e-06
-2.08368e-07
3.95849e-06
-6.11817e-06
1.05955e-06
-5.17939e-06
1.17667e-08
-3.66432e-06
-1.87219e-07
-4.8184e-07
4.35726e-06
-1.26968e-06
9.78961e-06
-2.64763e-06
3.22755e-06
-2.99369e-06
-1.98432e-06
-4.54159e-06
-2.11481e-06
-5.98539e-06
-1.16433e-06
-8.23252e-06
2.14453e-06
-1.08836e-05
2.53135e-05
2.94011e-06
9.73571e-05
2.60599e-06
0.000129093
1.97729e-06
0.000128689
1.12927e-06
0.000127226
3.85437e-07
0.000125704
-3.59948e-07
0.000124137
-6.38933e-07
0.00012244
-8.58656e-07
0.00012121
-9.71883e-07
0.000120467
-1.47098e-06
0.000120368
-2.24511e-06
0.000120392
-3.51149e-06
0.000120351
-4.72004e-06
0.000119556
-6.25288e-06
0.000118296
-6.41363e-06
0.000114756
-1.581e-06
0.000104862
9.01205e-06
5.40631e-05
6.82456e-06
5.32122e-06
3.52662e-06
-3.70075e-06
1.06416e-06
-4.07234e-06
-4.0919e-08
-2.92482e-06
-1.88422e-07
1.87883e-07
4.66816e-06
-1.31695e-06
1.11186e-05
-2.58522e-06
4.73977e-06
-4.56904e-06
-1.56329e-07
-6.84656e-06
-3.17797e-07
-9.08436e-06
5.09771e-07
-1.26439e-05
5.31485e-06
-1.70018e-05
2.91886e-05
-4.22679e-06
8.52971e-05
-1.88991e-06
0.000124583
-1.33489e-06
0.000126587
-1.37053e-06
0.000126011
-1.88129e-06
0.000124993
-2.35365e-06
0.000123525
-2.21928e-06
0.000121447
-1.6726e-06
0.000119982
-1.30405e-06
0.000119382
-1.376e-06
0.000119599
-2.40222e-06
0.000120304
-3.72244e-06
0.000120455
-5.5081e-06
0.000119965
-7.16735e-06
0.000118304
-6.26604e-06
0.000112342
6.01013e-06
9.28482e-05
1.24508e-05
4.89207e-05
7.56758e-06
1.32535e-05
4.40884e-06
-9.11203e-07
1.91473e-06
-2.44021e-06
5.15133e-07
-1.22578e-06
-4.83086e-07
2.97503e-06
5.39245e-06
-1.03552e-06
1.22794e-05
-3.85525e-06
7.61735e-06
-6.65963e-06
2.64682e-06
-9.84841e-06
2.69433e-06
-1.35199e-05
3.91594e-06
-1.89028e-05
1.05247e-05
-2.20558e-05
3.24994e-05
-1.157e-05
7.51713e-05
-4.62836e-06
0.0001166
-3.32845e-06
0.000123927
-3.2562e-06
0.000124791
-3.31334e-06
0.000124236
-3.42665e-06
0.000123121