/*--------------------------------*- C++ -*----------------------------------*\
| =========                 |                                                 |
| \\      /  F ield         | OpenFOAM: The Open Source CFD Toolbox           |
|  \\    /   O peration     | Version:  2.3.0                                 |
|   \\  /    A nd           | Web:      www.OpenFOAM.org                      |
|    \\/     M anipulation  |                                                 |
\*---------------------------------------------------------------------------*/
FoamFile
{
    version     2.0;
    format      ascii;
    class       volScalarField;
    location    "1.78";
    object      k.air;
}
// * * * * * * * * * * * * * * * * * * * * * * * * * * * * * * * * * * * * * //

dimensions      [0 2 -2 0 0 0 0];

internalField   nonuniform List<scalar> 
6000
(
0.82139
0.908745
0.943813
0.962169
0.978069
0.996463
1.0052
1.00848
1.01546
1.02291
1.04787
1.07605
1.07506
1.06065
1.04972
1.05089
1.07594
1.13523
1.27094
1.52609
1.5076
1.32233
1.20093
1.09234
1.02551
1.00819
0.991768
0.965639
0.910887
0.817121
0.553257
0.860261
0.958084
1.02839
1.10649
1.14378
1.15494
1.17909
1.21001
1.24642
1.28238
1.29539
1.26094
1.22918
1.23312
1.27188
1.35064
1.50391
1.78275
2.00028
2.04293
1.76638
1.48382
1.32664
1.22657
1.16572
1.13305
1.07607
0.912488
0.571593
0.388358
0.738829
0.893626
0.977529
1.04258
1.08591
1.11727
1.1503
1.186
1.22824
1.26476
1.28665
1.30305
1.34038
1.3955
1.46662
1.58012
1.78329
2.03952
2.09435
2.10003
2.05709
1.78177
1.58389
1.4518
1.31884
1.19508
1.06648
0.860011
0.431051
0.296725
0.622635
0.80851
0.915313
0.987309
1.03951
1.085
1.12997
1.17533
1.22435
1.27181
1.31122
1.3643
1.4283
1.50301
1.60545
1.76402
2.00222
2.22217
2.17599
2.17774
2.22854
2.06285
1.78671
1.60355
1.43206
1.27054
1.09723
0.876182
0.41822
0.247765
0.547876
0.739509
0.860543
0.943473
1.00671
1.0643
1.12051
1.17614
1.23386
1.29723
1.36392
1.44415
1.51804
1.61606
1.75041
1.93941
2.20001
2.37108
2.27254
2.29025
2.35017
2.31725
1.99236
1.75883
1.54884
1.35716
1.15127
0.911406
0.436091
0.240926
0.518482
0.693118
0.814802
0.909204
0.985821
1.05638
1.12443
1.19121
1.26423
1.35075
1.44587
1.53642
1.61257
1.73363
1.89732
2.11354
2.39512
2.47909
2.3873
2.41572
2.4644
2.46379
2.17021
1.90999
1.67017
1.45154
1.22571
0.948007
0.46754
0.249091
0.518118
0.666813
0.785665
0.883095
0.974242
1.06165
1.14348
1.22559
1.31736
1.42905
1.5497
1.63388
1.7166
1.85721
2.04672
2.2977
2.59225
2.54322
2.49547
2.52474
2.55847
2.51189
2.28581
2.04896
1.79357
1.55739
1.32874
1.00266
0.498592
0.260504
0.53022
0.661443
0.773221
0.874525
0.96856
1.07339
1.17625
1.27175
1.38015
1.51597
1.64816
1.73146
1.83494
1.98924
2.19521
2.46428
2.70982
2.59859
2.57831
2.61018
2.63972
2.56049
2.3606
2.16366
1.90401
1.65828
1.44448
1.09663
0.547671
0.269745
0.550377
0.679345
0.780808
0.880707
0.976868
1.08426
1.20257
1.31609
1.44688
1.59889
1.73658
1.85041
1.97249
2.13463
2.34718
2.57746
2.68158
2.62539
2.629
2.67578
2.70803
2.58843
2.41693
2.26757
1.99694
1.74859
1.5543
1.22459
0.623051
0.288079
0.579303
0.715579
0.81983
0.917453
1.01195
1.11427
1.2355
1.37125
1.53039
1.70726
1.86899
1.99849
2.12297
2.28563
2.48624
2.6346
2.66065
2.65168
2.67154
2.73572
2.7303
2.58698
2.4633
2.35156
2.07815
1.82921
1.63757
1.33995
0.70597
0.30807
0.618706
0.773046
0.895705
1.00798
1.10644
1.19644
1.31777
1.47433
1.67035
1.88084
2.04307
2.15393
2.2583
2.39954
2.54574
2.63964
2.68317
2.68444
2.71453
2.77466
2.70852
2.57181
2.47617
2.36406
2.13421
1.88392
1.67407
1.38435
0.716116
0.349316
0.675226
0.850036
1.00294
1.1458
1.25885
1.34918
1.47891
1.64696
1.86111
2.0758
2.21307
2.28453
2.35041
2.44968
2.56562
2.6634
2.70936
2.71427
2.74663
2.7731
2.66974
2.55021
2.46477
2.32484
2.13918
1.90957
1.68475
1.36149
0.693778
0.356995
0.718764
0.933061
1.12536
1.3019
1.43248
1.53781
1.68526
1.86369
2.0645
2.2485
2.34205
2.37383
2.41489
2.50134
2.61477
2.69514
2.72656
2.73161
2.75712
2.74107
2.63856
2.53452
2.44402
2.2877
2.12123
1.93704
1.71433
1.28111
0.64476
0.348431
0.720395
0.971801
1.20549
1.4266
1.57277
1.70315
1.8683
2.03827
2.20906
2.36084
2.42451
2.43621
2.48194
2.55426
2.64385
2.7166
2.7418
2.74389
2.75215
2.71727
2.63517
2.5291
2.41797
2.26612
2.10895
1.9623
1.70299
1.17813
0.580768
0.336223
0.719946
0.990842
1.25027
1.49478
1.67099
1.82945
1.99386
2.13378
2.26694
2.38214
2.45097
2.5005
2.56459
2.62098
2.67696
2.73455
2.76712
2.76633
2.7576
2.73642
2.67565
2.54906
2.39922
2.24148
2.08082
1.91374
1.59314
1.09498
0.518726
0.311258
0.711511
1.01886
1.30697
1.57219
1.79069
1.97207
2.10608
2.21052
2.34004
2.44033
2.49209
2.56659
2.65228
2.70668
2.75014
2.78832
2.81287
2.81021
2.807
2.80524
2.7687
2.61318
2.40771
2.21203
2.01574
1.78716
1.46574
1.03315
0.477837
0.304645
0.728329
1.0816
1.38666
1.66578
1.89097
2.07559
2.18176
2.30359
2.416
2.48739
2.55195
2.66653
2.76299
2.81724
2.85216
2.88193
2.90254
2.90737
2.9145
2.92533
2.91469
2.7257
2.44227
2.17351
1.92443
1.66846
1.36964
0.982325
0.452014
0.322133
0.797625
1.17807
1.48561
1.76765
1.96301
2.11694
2.24591
2.38718
2.48408
2.5817
2.68759
2.81404
2.91138
2.97602
3.00512
3.02397
3.04441
3.05779
3.06806
3.09009
3.06549
2.84198
2.48361
2.13887
1.84959
1.58618
1.29559
0.934165
0.429518
0.382017
0.914779
1.29201
1.60313
1.88916
2.08588
2.20963
2.37397
2.54895
2.66654
2.77628
2.9061
3.02236
3.11936
3.19416
3.23319
3.24219
3.25397
3.26411
3.27032
3.2778
3.17345
2.92783
2.5279
2.13873
1.81527
1.5305
1.23294
0.87934
0.398872
0.453374
1.03295
1.40746
1.73231
2.04677
2.31361
2.46516
2.68541
2.94483
3.01475
3.06511
3.17214
3.29007
3.40899
3.51347
3.56274
3.54625
3.54911
3.55047
3.53134
3.46698
3.28128
3.02127
2.60613
2.19279
1.83609
1.51786
1.1987
0.833579
0.369349
0.52525
1.15034
1.52665
1.86289
2.21069
2.54497
2.80298
3.12751
3.36695
3.34784
3.32011
3.39091
3.48633
3.62517
3.77692
3.89028
3.93383
3.95046
3.9531
3.89294
3.69087
3.42243
3.14553
2.72571
2.30657
1.92398
1.56962
1.22065
0.830447
0.361567
0.605739
1.27332
1.64673
1.97942
2.3187
2.66604
3.00333
3.35227
3.5482
3.4938
3.42349
3.48674
3.57876
3.70146
3.8811
4.06243
4.28167
4.46989
4.51865
4.39532
3.99269
3.62681
3.30281
2.87473
2.45356
2.06213
1.69003
1.31264
0.880719
0.374319
0.676561
1.37315
1.75587
2.07475
2.38747
2.70557
3.02633
3.33238
3.46265
3.39402
3.34125
3.42873
3.57038
3.72153
3.90879
4.11221
4.38812
4.86604
5.07116
4.9152
4.35135
3.86912
3.4818
3.04606
2.62339
2.22582
1.846
1.45916
1.00704
0.426377
0.661573
1.35604
1.74218
2.05034
2.33303
2.6196
2.91325
3.1382
3.20802
3.1621
3.1642
3.287
3.46865
3.66005
3.86037
4.07569
4.35851
4.81498
5.0868
4.94918
4.5223
4.09376
3.6807
3.24755
2.82032
2.41338
2.02358
1.62597
1.15965
0.505105
0.616948
1.28882
1.6571
1.94157
2.19449
2.43913
2.66576
2.8211
2.88305
2.88735
2.94705
3.10204
3.30263
3.51711
3.73924
3.98298
4.27514
4.57282
4.724
4.67055
4.45053
4.20215
3.91799
3.50563
3.06056
2.63555
2.2258
1.80746
1.31526
0.578695
0.564444
1.1899
1.53029
1.78486
2.00414
2.20451
2.37935
2.50494
2.5731
2.61919
2.72159
2.89833
3.11317
3.34982
3.61407
3.92065
4.22266
4.35749
4.40381
4.37464
4.26981
4.12227
4.00437
3.75582
3.35506
2.90629
2.46178
2.00808
1.47425
0.650355
0.508528
1.0781
1.38836
1.61592
1.80738
1.97634
2.12104
2.23168
2.30422
2.37966
2.50947
2.69936
2.92916
3.199
3.52423
3.90768
4.19619
4.22129
4.20107
4.15576
4.07912
3.978
3.89046
3.79784
3.60163
3.21294
2.73388
2.22662
1.64012
0.724761
0.455787
0.96509
1.24921
1.45604
1.62794
1.77688
1.90288
2.0018
2.07868
2.17557
2.32407
2.52418
2.76952
3.07089
3.45184
3.88393
4.14168
4.13108
4.06981
3.99515
3.9121
3.82539
3.74344
3.67327
3.59225
3.40263
2.96954
2.43786
1.81002
0.801973
0.405504
0.857651
1.11977
1.31129
1.4698
1.60563
1.72021
1.80957
1.89271
2.00761
2.17054
2.37937
2.63628
2.95808
3.36484
3.80843
4.06724
4.0634
3.9826
3.88329
3.78396
3.69224
3.60952
3.53017
3.44804
3.32658
3.05625
2.56853
1.97261
0.887951
0.358462
0.759729
1.00228
1.18163
1.33031
1.45896
1.56439
1.64823
1.7425
1.87389
2.04788
2.26242
2.52466
2.85221
3.25404
3.68803
3.98638
4.0145
3.93112
3.81535
3.70064
3.59628
3.50461
3.41578
3.31899
3.1883
2.98066
2.622
2.13812
1.01398
0.315728
0.671345
0.896227
1.06607
1.20961
1.33155
1.42734
1.51523
1.62456
1.7701
1.95103
2.16733
2.42799
2.74678
3.12463
3.53571
3.88588
3.98728
3.91107
3.7881
3.66038
3.54295
3.43817
3.34218
3.24518
3.12922
2.94482
2.6415
2.27589
1.22725
0.278121
0.593817
0.803499
0.965635
1.10341
1.21621
1.31117
1.41062
1.5355
1.69079
1.87422
2.08893
2.343
2.64421
2.99027
3.36996
3.74481
3.96163
3.9182
3.7908
3.65471
3.52506
3.40968
3.30966
3.22635
3.14245
2.97145
2.67187
2.36278
1.3528
0.245286
0.528613
0.724494
0.878311
1.0082
1.11806
1.22029
1.33443
1.47138
1.63106
1.81398
2.02488
2.26952
2.55051
2.86643
3.21444
3.5813
3.88975
3.94233
3.8059
3.6633
3.52706
3.40522
3.30833
3.24526
3.18078
2.98084
2.66997
2.35055
1.317
0.218083
0.473999
0.657515
0.804474
0.930473
1.04365
1.15743
1.28409
1.42737
1.58821
1.7699
1.97627
2.21054
2.47434
2.76788
3.09002
3.43718
3.7789
3.95676
3.82047
3.66994
3.53275
3.41155
3.32434
3.28972
3.21707
2.96338
2.6388
2.29965
1.22094
0.197144
0.432218
0.606248
0.748614
0.874881
0.995435
1.11993
1.25383
1.39988
1.5614
1.7419
1.94456
2.17208
2.42607
2.70665
3.0136
3.34594
3.69313
3.95289
3.83333
3.67067
3.53836
3.4232
3.35206
3.34124
3.2353
2.91801
2.58662
2.18855
1.10431
0.183489
0.40559
0.573462
0.713558
0.842446
0.969468
1.09989
1.23728
1.38576
1.54921
1.73091
1.93382
2.16044
2.41268
2.69122
2.99697
3.3276
3.6756
3.95818
3.83948
3.66766
3.53921
3.4314
3.37304
3.37243
3.21705
2.83549
2.49315
2.00069
1.00199
0.178697
0.395114
0.559122
0.697729
0.827929
0.957371
1.09023
1.23071
1.3832
1.55128
1.73806
1.94646
2.17906
2.43828
2.72639
3.04608
3.39293
3.75145
4.00207
3.84523
3.66616
3.53724
3.43073
3.37479
3.36063
3.14981
2.70739
2.32518
1.77823
0.899161
0.179332
0.396497
0.558254
0.694574
0.823819
0.953639
1.0888
1.23364
1.39222
1.56795
1.76403
1.98363
2.22992
2.50596
2.81645
3.16743
3.55619
3.93335
4.10113
3.86487
3.67044
3.53472
3.42583
3.35968
3.30445
3.03161
2.5492
2.09285
1.53514
0.784673
0.183032
0.403885
0.563345
0.697804
0.826308
0.957205
1.09591
1.24691
1.41396
1.60031
1.80949
2.04552
2.3127
2.61546
2.9607
3.35627
3.79011
4.17181
4.22639
3.90579
3.68636
3.53912
3.41956
3.32919
3.21203
2.87629
2.38118
1.85368
1.28347
0.656187
0.189258
0.415452
0.573117
0.706389
0.835412
0.968986
1.11285
1.27158
1.44895
1.64848
1.87417
2.13113
2.4253
2.76236
3.14904
3.58763
4.04831
4.401
4.32361
3.95906
3.71818
3.557
3.42279
3.29355
3.09632
2.70011
2.19569
1.63882
1.04397
0.515811
0.19528
0.428395
0.58619
0.720403
0.851817
0.989565
1.1398
1.30754
1.49698
1.71197
1.95709
2.2386
2.5646
2.94155
3.3737
3.85748
4.34626
4.62728
4.41095
4.04399
3.78669
3.60681
3.44541
3.26141
2.97032
2.52528
2.02383
1.49042
0.889672
0.397374
0.201864
0.442873
0.602439
0.739132
0.874438
1.01787
1.17589
1.35389
1.55672
1.78892
2.05588
2.36534
2.72629
3.14748
3.63406
4.18145
4.71617
4.88574
4.54023
4.17585
3.90967
3.70373
3.49731
3.23856
2.86693
2.40377
1.94512
1.48328
0.920144
0.377909
0.209326
0.459095
0.621563
0.761786
0.901979
1.05211
1.21902
1.4085
1.62592
1.87668
2.16717
2.50617
2.90412
3.37318
3.92608
4.56483
5.16097
5.16387
4.70951
4.34491
4.0716
3.8269
3.55417
3.23244
2.8299
2.39912
1.99454
1.58129
1.07106
0.437441
0.2173
0.47704
0.643253
0.787734
0.933499
1.09099
1.2675
1.46932
1.70242
1.97294
2.28817
2.65742
3.09131
3.60661
4.23217
4.98328
5.61846
5.40013
4.90044
4.5343
4.23993
3.9343
3.62649
3.28371
2.89163
2.49724
2.11318
1.68643
1.2208
0.533762
0.225557
0.496256
0.667315
0.816845
0.968867
1.13441
1.32124
1.53612
1.78553
2.07618
2.41582
2.81393
3.28042
3.83533
4.51732
5.3598
5.9653
5.60976
5.11013
4.72901
4.36782
4.05794
3.77523
3.39685
2.97706
2.57012
2.16307
1.74152
1.30857
0.592018
0.234087
0.516468
0.693671
0.849053
1.00793
1.18196
1.37932
1.60723
1.87267
2.1828
2.54536
2.96963
3.46461
4.04748
4.75754
5.62498
6.12606
5.7686
5.30559
4.89361
4.48422
4.23846
3.91791
3.49443
3.05845
2.63692
2.22085
1.80752
1.36035
0.617661
0.243083
0.537852
0.72212
0.883911
1.04991
1.23234
1.43984
1.68
1.96028
2.28823
2.6717
3.1195
3.64057
4.24649
4.96186
5.75702
6.11062
5.85964
5.47417
5.05137
4.6758
4.47233
4.15369
3.70137
3.22174
2.75962
2.31142
1.87158
1.39745
0.643361
0.252773
0.560621
0.752298
0.920697
1.09371
1.28411
1.50083
1.75178
2.04475
2.38778
2.78927
3.25936
3.80993
4.44394
5.17233
5.79694
6.02437
5.93034
5.62717
5.2345
4.9535
4.84291
4.58183
4.08091
3.49336
2.94392
2.4344
1.95027
1.43642
0.652887
0.263191
0.584622
0.783612
0.958491
1.13815
1.33571
1.56032
1.82
2.1226
2.47643
2.89072
3.3786
3.95263
4.62854
5.32625
5.76795
5.91349
5.93447
5.71376
5.40213
5.24605
5.21282
5.01844
4.50736
3.80412
3.1349
2.55443
2.02024
1.44223
0.643897
0.27409
0.609332
0.815313
0.99625
1.18182
1.38537
1.61613
1.88189
2.19014
2.54872
2.96756
3.45998
4.04229
4.7044
5.33235
5.68552
5.76562
5.80277
5.67063
5.47233
5.39744
5.32744
5.11668
4.71199
4.01826
3.29434
2.64984
2.05411
1.40631
0.588269
0.285192
0.634254
0.846985
1.03343
1.22398
1.43208
1.66676
1.9355
2.2452
2.603
3.01756
3.49791
4.05342
4.67277
5.26812
5.57577
5.64169
5.61916
5.52098
5.41646
5.37593
5.26246
5.04313
4.68082
4.09876
3.43565
2.78379
2.15017
1.45645
0.582476
0.296607
0.659226
0.878818
1.07042
1.26518
1.47655
1.71326
1.98243
2.29059
2.64382
3.04791
3.50783
4.02456
4.58712
5.14272
5.45953
5.51984
5.48299
5.35393
5.27397
5.229
5.12604
4.95412
4.65768
4.16838
3.57302
2.95371
2.31461
1.60111
0.643567
0.308237
0.684685
0.911319
1.10798
1.30665
1.52073
1.75858
2.02687
2.33132
2.67697
3.06777
3.50546
3.98592
4.49419
4.99679
5.33599
5.38773
5.33255
5.2098
5.1286
5.0855
5.02811
4.91952
4.68656
4.25105
3.69635
3.10863
2.48678
1.77389
0.748702
0.320253
0.711051
0.945022
1.14689
1.3496
1.56641
1.80518
2.07203
2.37195
2.70857
3.08493
3.5017
3.95408
4.42671
4.8925
5.2571
5.33571
5.24922
5.13045
5.05379
5.02682
5.01766
4.96805
4.77631
4.34295
3.80183
3.23484
2.62751
1.91928
0.83357
0.33301
0.738832
0.980413
1.18768
1.39476
1.61456
1.85416
2.11924
2.41396
2.74037
3.10231
3.50144
3.93299
4.38588
4.83908
5.23437
5.36509
5.25513
5.13334
5.06469
5.05627
5.08773
5.10205
4.90721
4.43085
3.8855
3.33452
2.73952
2.0315
0.894145
0.346789
0.768302
1.01741
1.22984
1.44095
1.66291
1.90234
2.16507
2.4542
2.77045
3.12
3.50342
3.92048
4.36578
4.82265
5.25328
5.4536
5.33875
5.20585
5.15132
5.1689
5.24861
5.29854
5.04142
4.50628
3.94637
3.40249
2.82167
2.11262
0.936327
0.36201
0.798933
1.05375
1.26967
1.48361
1.70628
1.94131
2.19559
2.47525
2.78699
3.13027
3.50504
3.91408
4.35903
4.82865
5.30023
5.58497
5.50726
5.36044
5.31737
5.35616
5.47181
5.52107
5.14531
4.562
3.99191
3.44136
2.8619
2.15885
0.960665
0.379464
0.827465
1.0854
1.30049
1.50785
1.72296
1.95508
2.20549
2.48136
2.79193
3.13617
3.51085
3.91846
4.36306
4.84109
5.34736
5.73214
5.73158
5.57719
5.52714
5.58042
5.72614
5.72167
5.2197
4.60789
4.02728
3.46354
2.87588
2.17486
0.96775
0.393391
0.843489
1.09822
1.31308
1.52072
1.74058
1.9782
2.23502
2.51647
2.82651
3.16563
3.53478
3.93743
4.37737
4.85592
5.37527
5.86542
5.98967
5.83908
5.76031
5.81218
5.98785
5.8743
5.2814
4.65206
4.05654
3.47911
2.88302
2.17852
0.96709
0.390342
0.843352
1.10937
1.33603
1.55687
1.78503
2.02683
2.28766
2.57112
2.87742
3.20891
3.56935
3.96284
4.39421
4.8684
5.38866
5.94907
6.24297
6.12134
5.99805
6.03404
6.2231
5.9912
5.34808
4.70054
4.08831
3.49509
2.88848
2.17814
0.967016
0.383142
0.855699
1.14051
1.37843
1.60839
1.84383
2.09141
2.35541
2.63958
2.93797
3.25884
3.60818
3.98891
4.40771
4.87264
5.39186
5.97448
6.44165
6.40519
6.23272
6.23559
6.41703
6.11178
5.43664
4.76248
4.1258
3.51254
2.89195
2.17402
0.964937
0.393977
0.882718
1.18281
1.43468
1.67575
1.91967
2.17379
2.44333
2.72748
3.01136
3.3139
3.6482
4.01302
4.41458
4.8646
5.37392
5.94814
6.53908
6.68587
6.46989
6.42129
6.57269
6.24544
5.54432
4.83458
4.16464
3.52604
2.88884
2.16267
0.958187
0.412701
0.923554
1.24202
1.50897
1.76318
2.01968
2.28242
2.54441
2.8075
3.08305
3.37249
3.69037
4.0331
4.4105
4.83866
5.3295
5.88955
6.52423
6.90779
6.71685
6.58921
6.69169
6.37801
5.65248
4.90006
4.19246
3.52647
2.87261
2.13921
0.943384
0.435866
0.979633
1.32051
1.60696
1.87884
2.13814
2.37694
2.6111
2.85243
3.12079
3.41234
3.72987
4.04902
4.39424
4.78989
5.25371
5.797
6.42327
6.98726
6.94049
6.72648
6.74292
6.45866
5.72817
4.93534
4.19356
3.50412
2.83599
2.09825
0.917966
0.466967
1.05345
1.42169
1.72489
1.99979
2.23902
2.4411
2.64407
2.86896
3.12945
3.42652
3.73864
4.04846
4.36266
4.72048
5.14574
5.65687
6.25638
6.88988
7.05485
6.81121
6.69457
6.41018
5.72822
4.92411
4.15964
3.45222
2.7735
2.03175
0.879222
0.512676
1.14765
1.52637
1.83305
2.09943
2.29092
2.47371
2.66663
2.88142
3.12634
3.40152
3.70341
4.01943
4.31179
4.63312
5.01137
5.47223
6.03201
6.66373
7.04159
6.85671
6.59383
6.26387
5.66405
4.87905
4.09495
3.37313
2.687
1.92773
0.827416
0.564649
1.23179
1.60351
1.90926
2.13375
2.31764
2.49747
2.68519
2.89009
3.11774
3.3708
3.6519
3.95396
4.24768
4.53333
4.85903
5.25066
5.74239
6.3319
6.85252
6.81594
6.48948
6.0751
5.52434
4.79269
4.00628
3.27357
2.58212
1.85178
0.851081
0.598493
1.29402
1.65631
1.93649
2.15216
2.33717
2.51786
2.70522
2.90327
3.11691
3.35178
3.61361
3.89855
4.18333
4.43849
4.70242
5.00647
5.39252
5.87827
6.38463
6.53913
6.24755
5.80299
5.25179
4.60472
3.89014
3.18496
2.5194
1.83006
0.820085
0.617079
1.32986
1.69952
1.96568
2.16218
2.34448
2.53088
2.72459
2.9227
3.12515
3.3452
3.59814
3.87016
4.14657
4.38075
4.56952
4.76944
5.02479
5.36003
5.73676
5.99201
5.8044
5.38074
4.87493
4.30412
3.66795
3.01478
2.39059
1.74629
0.768881
0.623119
1.3516
1.74113
1.99361
2.16773
2.34769
2.53928
2.74007
2.9387
3.13235
3.35054
3.6154
3.89414
4.16689
4.38601
4.4911
4.5744
4.69001
4.86212
5.07814
5.26646
5.20216
4.83692
4.40208
3.91368
3.35383
2.77197
2.21322
1.62808
0.738917
0.62535
1.37488
1.77051
2.00246
2.17139
2.35011
2.54152
2.74219
2.93572
3.13073
3.37033
3.66734
3.97686
4.26603
4.45778
4.48796
4.45059
4.43073
4.44999
4.50642
4.55193
4.51194
4.25239
3.89539
3.49672
3.02657
2.52683
2.0378
1.51168
0.699758
0.634292
1.41605
1.79252
2.00948
2.189
2.365
2.55405
2.752
2.94697
3.15764
3.4152
3.74089
4.11472
4.45105
4.61838
4.5653
4.41792
4.26908
4.15244
4.07209
4.0004
3.89936
3.71263
3.44011
3.12228
2.72852
2.29774
1.8661
1.39445
0.634265
0.703717
1.47324
1.81904
2.05177
2.24245
2.42047
2.61133
2.81447
3.02622
3.26072
3.52507
3.85013
4.20909
4.53614
4.74252
4.69266
4.45986
4.2073
3.97377
3.78229
3.62232
3.46852
3.29665
3.08134
2.82031
2.46481
2.0785
1.69437
1.26885
0.574356
0.765447
1.51824
1.8455
2.09207
2.29256
2.48143
2.67747
2.88658
3.11442
3.36949
3.62583
3.88336
4.14718
4.40485
4.63302
4.69915
4.51174
4.21455
3.892
3.60818
3.38156
3.19023
3.01061
2.81058
2.56186
2.22533
1.87763
1.53228
1.14611
0.515793
0.744642
1.47999
1.82523
2.07693
2.28848
2.48754
2.68669
2.89321
3.11518
3.35483
3.5926
3.80351
3.99662
4.20393
4.40437
4.51562
4.42447
4.19241
3.85105
3.50452
3.22637
3.00363
2.80905
2.59202
2.33073
2.02096
1.71005
1.39742
1.03248
0.45374
0.686727
1.40013
1.75872
2.02023
2.24294
2.44808
2.64874
2.85159
3.06085
3.27752
3.49335
3.6868
3.85907
4.03667
4.21997
4.345
4.30168
4.10398
3.79218
3.42368
3.11198
2.85959
2.64872
2.42067
2.1482
1.86981
1.59626
1.30784
0.943606
0.416993
0.641868
1.33169
1.69023
1.95969
2.19356
2.41081
2.62091
2.82616
3.02769
3.22795
3.42293
3.59818
3.7571
3.92607
4.11577
4.26923
4.25135
4.03898
3.73105
3.35184
3.01782
2.74061
2.5219
2.29177
2.02024
1.75375
1.50442
1.25376
0.923229
0.42877
0.613092
1.27795
1.6392
1.91962
2.16723
2.39723
2.61583
2.82243
3.0164
3.20022
3.37409
3.53391
3.69043
3.87136
4.09058
4.28524
4.28351
4.03611
3.70315
3.3008
2.94533
2.64948
2.41967
2.18378
1.9205
1.66496
1.42812
1.19016
0.909818
0.433671
0.580843
1.22308
1.59275
1.88809
2.15159
2.39495
2.62143
2.82971
3.01871
3.19036
3.34935
3.50185
3.66568
3.87006
4.12682
4.36901
4.3733
4.08345
3.71066
3.27922
2.89641
2.58767
2.33878
2.08846
1.8327
1.58872
1.35964
1.12993
0.870962
0.404196
0.548658
1.16234
1.54546
1.85792
2.13867
2.39626
2.63236
2.84465
3.03174
3.19813
3.35173
3.50524
3.68167
3.91228
4.21301
4.4989
4.50164
4.1611
3.74344
3.28682
2.8845
2.56022
2.28608
2.02042
1.76782
1.53299
1.30932
1.08253
0.812954
0.361151
0.512839
1.09786
1.49473
1.82276
2.11939
2.39151
2.63939
2.86044
3.0526
3.22042
3.3757
3.53762
3.73307
3.99282
4.32724
4.64183
4.63421
4.24719
3.79391
3.31909
2.90428
2.56704
2.26689
1.99045
1.73675
1.50338
1.28303
1.05586
0.771269
0.333669
0.473188
1.0316
1.43803
1.77589
2.08305
2.36781
2.62903
2.86389
3.07025
3.25063
3.41837
3.59541
3.8103
4.09233
4.4491
4.77223
4.74011
4.33172
3.85963
3.37877
2.95881
2.60328
2.28371
1.99635
1.73848
1.50386
1.28581
1.06143
0.787898
0.354455
0.431106
0.963011
1.37269
1.71785
2.03178
2.3224
2.59466
2.84645
3.07251
3.27528
3.46414
3.66215
3.89875
4.20434
4.58526
4.9277
4.87398
4.45264
3.95989
3.4716
3.03382
2.6588
2.32471
2.02767
1.76655
1.53373
1.31638
1.08652
0.812447
0.371175
0.387118
0.885694
1.29663
1.65318
1.98076
2.27879
2.55292
2.8116
3.05713
3.28508
3.50231
3.72881
3.99588
4.3388
4.77028
5.17293
5.09663
4.63997
4.10784
3.58834
3.12939
2.73073
2.38083
2.07403
1.8046
1.56078
1.32708
1.08881
0.817732
0.366307
0.346091
0.814755
1.22767
1.59345
1.93919
2.25574
2.53567
2.78973
3.03592
3.28193
3.52933
3.79316
4.10483
4.50635
5.0181
5.51681
5.42794
4.88389
4.28706
3.73472
3.24363
2.81629
2.44368
2.11686
1.82804
1.56753
1.32395
1.08247
0.809237
0.363417
0.3158
0.772472
1.18501
1.55528
1.91309
2.25012
2.54683
2.80185
3.03851
3.28352
3.55234
3.85872
4.22943
4.70652
5.30986
5.89423
5.8039
5.17316
4.49538
3.89529
3.36593
2.90454
2.50302
2.15303
1.84562
1.571
1.31828
1.07193
0.798273
0.357708
0.300157
0.761659
1.172
1.5441
1.90876
2.25864
2.57392
2.84232
3.07478
3.31
3.5879
3.93504
4.37415
4.93835
5.6335
6.28482
6.20465
5.49095
4.72219
4.06243
3.48781
2.99123
2.56195
2.18991
1.86517
1.57756
1.31545
1.06234
0.779635
0.340397
0.302929
0.780553
1.18689
1.55906
1.92767
2.28703
2.61867
2.90682
3.15137
3.38088
3.65679
4.03373
4.54147
5.19723
5.97815
6.65521
6.5773
5.80472
4.94747
4.22519
3.60824
3.08084
2.62714
2.2346
1.89311
1.59231
1.32044
1.05752
0.758754
0.32311
0.325444
0.82512
1.2293
1.60219
1.97407
2.34145
2.68696
2.9955
3.26077
3.49876
3.76979
4.15995
4.72193
5.45781
6.3071
6.9793
6.85091
6.04609
5.14179
4.37644
3.72878
3.17853
2.70394
2.29202
1.93378
1.62064
1.33814
1.06592
0.761574
0.324007
0.362395
0.889904
1.29822
1.67492
2.05068
2.4249
2.78326
3.11198
3.40145
3.65636
3.92455
4.30823
4.89181
5.67247
6.55462
7.18391
6.9744
6.17041
5.30389
4.51353
3.85533
3.28982
2.79461
2.36422
1.99203
1.66669
1.37676
1.10735
0.814026
0.349602
0.408524
0.972004
1.39197
1.77701
2.15923
2.54058
2.91035
3.2572
3.57047
3.84554
4.11175
4.46923
5.03282
5.8103
6.69145
7.29312
7.03234
6.26013
5.42988
4.64885
3.98837
3.4095
2.8978
2.45305
2.06571
1.73874
1.4514
1.17722
0.881884
0.394017
0.46259
1.07098
1.5098
1.90749
2.29892
2.68923
3.06965
3.43089
3.76361
4.05647
4.31887
4.63659
5.14736
5.88327
6.74968
7.37079
7.12024
6.37463
5.568
4.80743
4.12824
3.53099
3.00884
2.55499
2.17097
1.83058
1.52519
1.24572
0.939857
0.416324
0.523951
1.18552
1.64805
2.06128
2.46482
2.86759
3.25926
3.63118
3.9766
4.28054
4.53563
4.80991
5.25366
5.92681
6.76378
7.42572
7.2745
6.56211
5.75298
4.9882
4.28417
3.66619
3.1303
2.67121
2.26406
1.90742
1.58985
1.28941
0.959206
0.426632
0.591171
1.3124
1.80098
2.22996
2.64851
3.06808
3.47363
3.85442
4.20555
4.51136
4.75454
4.99047
5.37337
5.98321
6.78446
7.48993
7.48357
6.83436
6.00104
5.20083
4.4711
3.82799
3.26688
2.77002
2.33776
1.96172
1.62591
1.30767
0.963461
0.418175
0.659774
1.44389
1.96028
2.40587
2.84109
3.28076
3.70472
4.09576
4.44792
4.74611
4.97176
5.17877
5.5174
6.08049
6.84661
7.5835
7.74604
7.18745
6.31163
5.44113
4.66358
3.98256
3.3864
2.86273
2.40523
2.00667
1.65355
1.32397
0.969274
0.41757
0.725017
1.57281
2.11843
2.58166
3.035
3.49652
3.94382
4.34993
4.70293
4.98733
5.18898
5.36943
5.67958
6.21633
6.96167
7.69722
7.95912
7.52726
6.639
5.7046
4.86607
4.14004
3.50888
2.958
2.47801
2.05972
1.69032
1.34855
0.9859
0.426066
0.7851
1.69703
2.27191
2.75366
3.22465
3.70825
4.18363
4.61274
4.97137
5.24122
5.41393
5.56459
5.84857
6.36534
7.08991
7.79616
8.06432
7.70435
6.86375
5.94371
5.0638
4.3009
3.63935
3.06315
2.56069
2.12255
1.7368
1.38296
1.01058
0.440126
0.840616
1.81605
2.41955
2.92015
3.40832
3.91225
4.41861
4.88107
5.2563
5.51781
5.66163
5.77737
6.02854
6.51738
7.20417
7.84869
8.06246
7.71382
6.9561
6.09734
5.22353
4.45155
3.77457
3.17877
2.65427
2.1948
1.79059
1.4218
1.03729
0.449047
0.894083
1.93059
2.56046
3.08116
3.58638
4.10823
4.64535
5.1506
5.55964
5.82778
5.95047
6.03025
6.24178
6.69194
7.32753
7.89618
8.02519
7.65419
6.97632
6.19307
5.35587
4.59582
3.91587
3.30379
2.75498
2.27154
1.84667
1.46049
1.05927
0.451581
0.948869
2.04132
2.69556
3.23648
3.75906
4.29895
4.86384
5.41588
5.87766
6.17649
6.29579
6.34565
6.51712
6.92681
7.51774
8.03036
8.08849
7.66546
7.02624
6.29599
5.49557
4.75506
4.06588
3.42675
2.85071
2.34361
1.90081
1.50024
1.08698
0.466238
1.00993
2.14827
2.8234
3.38434
3.92651
4.48673
5.07662
5.67409
6.20249
6.56094
6.70397
6.7373
6.87504
7.25377
7.82801
8.33926
8.35853
7.84221
7.1425
6.43832
5.6597
4.88088
4.15599
3.4966
2.91207
2.39798
1.9465
1.53901
1.11952
0.486801
1.07067
2.24842
2.9407
3.52284
4.08925
4.67492
5.29263
5.93036
6.52972
6.97353
7.17301
7.20899
7.32154
7.68546
8.27785
8.82406
8.77562
8.12441
7.3116
6.54851
5.77967
4.98115
4.22586
3.54293
2.94042
2.42087
1.97344
1.56745
1.14554
0.502081
1.08739
2.32599
3.04292
3.65217
4.24965
4.8674
5.52006
6.20015
6.86558
7.41015
7.69661
7.75702
7.85145
8.21786
8.86048
9.42854
9.23077
8.40695
7.48124
6.61822
5.81021
5.02392
4.27138
3.57998
2.96315
2.42852
1.97785
1.57512
1.15484
0.508557
1.06276
2.36136
3.11677
3.76496
4.40494
5.06666
5.76248
6.49172
7.22591
7.87592
8.27306
8.37852
8.458
8.83828
9.55365
10.0902
9.67574
8.67337
7.63062
6.66085
5.79152
5.0031
4.2697
3.59067
2.97537
2.43482
1.97214
1.56657
1.14758
0.506109
1.04755
2.38009
3.16775
3.85296
4.54109
5.26202
6.01755
6.80787
7.62078
8.38288
8.90841
9.07272
9.13144
9.51849
10.3063
10.7332
10.0463
8.90298
7.7668
6.7223
5.79081
4.96714
4.23649
3.57395
2.97125
2.43485
1.96765
1.55442
1.13284
0.497656
1.05327
2.39391
3.21087
3.93136
4.66314
5.44112
6.2712
7.14372
8.05051
8.93724
9.59611
9.82696
9.84841
10.2226
11.0565
11.2767
10.3237
9.08319
7.88668
6.79714
5.82386
4.96211
4.20675
3.54475
2.95392
2.42695
1.96226
1.54547
1.12057
0.489511
1.03832
2.41773
3.25555
4.00757
4.78105
5.61267
6.51509
7.48045
8.49186
9.51498
10.3154
10.6046
10.5716
10.9357
11.7826
11.7092
10.5318
9.21362
7.97824
6.86451
5.86764
4.98172
4.20347
3.52678
2.9361
2.41539
1.95515
1.53871
1.11246
0.484236
1.06552
2.44309
3.2977
4.08215
4.89662
5.77979
6.74751
7.7999
8.9235
10.0778
11.0079
11.3296
11.2496
11.6421
12.4403
12.0016
10.6512
9.2816
8.0279
6.90658
5.90226
5.00617
4.21507
3.52592
2.92829
2.40756
1.94954
1.53413
1.1077
0.481349
1.08538
2.48191
3.36006
4.16175
5.00948
5.94059
6.96746
8.09648
9.32019
10.58
11.6005
11.9255
11.8301
12.2882
12.9077
12.0955
10.6611
9.2835
8.03339
6.91581
5.91573
5.02194
4.22936
3.53469
2.93145
2.40777
1.94904
1.53332
1.10623
0.48036
1.09616
2.51108
3.40517
4.23387
5.11616
6.09102
7.17171
8.36552
9.65984
10.9779
12.029
12.3423
12.2887
12.8118
13.0945
12.0054
10.5804
9.2353
8.00923
6.90475
5.91443
5.02948
4.2427
3.54957
2.94419
2.41717
1.95562
1.53753
1.10817
0.480771
1.09808
2.52991
3.44079
4.29463
5.20883
6.22409
7.35316
8.59884
9.92986
11.2446
12.2591
12.5786
12.6403
13.1721
13.0253
11.7845
10.422
9.13878
7.95702
6.88049
5.90842
5.03653
4.25897
3.5712
2.9671
2.43739
1.97139
1.54855
1.11448
0.482741
1.09806
2.5334
3.46152
4.33834
5.28275
6.33551
7.50909
8.79587
10.1322
11.3796
12.3006
12.6637
12.9198
13.3469
12.765
11.4708
10.2024
9.00089
7.8789
6.84182
5.89424
5.04059
4.27762
3.59996
3.00047
2.46894
1.99752
1.5674
1.12582
0.486347
1.08535
2.52427
3.46393
4.35989
5.33187
6.42048
7.63713
8.95839
10.2763
11.4146
12.2222
12.6798
13.159
13.3018
12.3487
11.1018
9.94052
8.83119
7.77766
6.78805
5.87151
5.04168
4.30053
3.63952
3.05026
2.51807
2.03684
1.59567
1.14307
0.491544
1.06854
2.50463
3.44583
4.35329
5.34749
6.46891
7.72577
9.07155
10.3447
11.3627
12.0828
12.6958
13.2872
12.9707
11.8023
10.6818
9.63654
8.63974
7.66838
6.72448
5.83237
5.02669
4.31347
3.67705
3.10581
2.58085
2.09199
1.63635
1.16852
0.500435
1.05212
2.46976
3.40004
4.30963
5.31737
6.46186
7.74216
9.07062
10.2567
11.1815
11.9049
12.6526
13.0341
12.2406
11.1581
10.195
9.31007
8.44722
7.56478
6.65141
5.78374
4.99196
4.28716
3.66486
3.11339
2.61995
2.14967
1.68474
1.2021
0.51399
1.03149
2.41552
3.31884
4.21741
5.22598
6.37579
7.63937
8.87994
9.94618
10.8219
11.6084
12.2615
12.1002
11.2905
10.4415
9.68296
8.97676
8.2617
7.46153
6.55434
5.67005
4.87056
4.17754
3.57831
3.05472
2.59326
2.16412
1.72118
1.23572
0.530181
1.00284
2.33995
3.19559
4.06792
5.05964
6.18411
7.37019
8.47029
9.43219
10.2861
10.9969
11.2279
10.8875
10.3029
9.70985
9.16536
8.63031
8.0116
7.22789
6.34578
5.48002
4.71985
4.0445
3.45931
2.96542
2.53451
2.13786
1.72698
1.25628
0.543231
0.975858
2.19568
3.01893
3.85766
4.8156
5.87509
6.94089
7.91072
8.7967
9.54634
9.95444
9.94775
9.72011
9.36849
9.00469
8.64649
8.22884
7.61457
6.86102
6.05608
5.28793
4.5801
3.9445
3.38287
2.89133
2.47027
2.09468
1.71033
1.25499
0.545514
0.921315
2.0219
2.77583
3.58981
4.49758
5.46374
6.39551
7.25821
8.0266
8.54897
8.75901
8.77807
8.68529
8.52759
8.34275
8.1251
7.73258
7.14301
6.47435
5.7718
5.10333
4.46716
3.88234
3.35074
2.87549
2.45196
2.06864
1.68941
1.24214
0.53696
0.812401
1.81154
2.50347
3.27022
4.11462
4.968
5.77786
6.51704
7.10027
7.47502
7.6812
7.77634
7.8078
7.79339
7.7485
7.5875
7.19898
6.68622
6.12619
5.52659
4.94005
4.3759
3.84709
3.35677
2.90628
2.49352
2.10353
1.70439
1.24061
0.526726
0.711492
1.61569
2.26036
2.93239
3.68603
4.42686
5.12101
5.71443
6.18083
6.52872
6.77999
6.95961
7.09278
7.19271
7.23631
7.06886
6.71926
6.29626
5.83943
5.34104
4.81857
4.31037
3.83367
3.39083
2.985
2.60652
2.21343
1.78419
1.27761
0.533126
0.614997
1.41933
2.02268
2.61725
3.25446
3.88888
4.47471
4.98149
5.41317
5.77696
6.07871
6.33308