/*--------------------------------*- C++ -*----------------------------------*\
| =========                 |                                                 |
| \\      /  F ield         | OpenFOAM: The Open Source CFD Toolbox           |
|  \\    /   O peration     | Version:  2.3.0                                 |
|   \\  /    A nd           | Web:      www.OpenFOAM.org                      |
|    \\/     M anipulation  |                                                 |
\*---------------------------------------------------------------------------*/
FoamFile
{
    version     2.0;
    format      ascii;
    class       surfaceScalarField;
    location    "1.78";
    object      phi;
}
// * * * * * * * * * * * * * * * * * * * * * * * * * * * * * * * * * * * * * //

dimensions      [0 3 -1 0 0 0 0];

internalField   nonuniform List<scalar> 
11770
(
6.60759e-06
4.15143e-05
8.49658e-06
4.65811e-05
3.06826e-06
5.39785e-05
-1.76165e-06
5.33515e-05
-1.52654e-06
4.80758e-05
-4.99699e-06
5.17264e-05
-1.04561e-05
5.36711e-05
-1.21841e-05
4.99251e-05
-1.34927e-05
4.95737e-05
-1.06466e-05
4.53323e-05
-1.50673e-05
5.28187e-05
-2.33494e-05
5.69393e-05
-2.54116e-05
5.07058e-05
-2.42174e-05
4.74221e-05
-2.08185e-05
4.5185e-05
-1.59892e-05
4.37395e-05
-2.44191e-06
3.47584e-05
1.29749e-05
3.28016e-05
1.42767e-05
4.74526e-05
-2.92435e-05
9.30252e-05
-5.31732e-05
7.2981e-05
-4.07874e-05
3.64255e-05
-1.95027e-05
2.73461e-05
3.36369e-07
2.85117e-05
2.727e-06
4.61954e-05
-2.45174e-06
5.3869e-05
-5.45106e-06
5.16676e-05
-8.68416e-06
5.19476e-05
-7.24053e-06
4.71416e-05
4.09439e-05
5.61019e-06
3.72912e-05
2.75876e-06
5.09288e-05
6.87013e-06
5.14189e-05
9.49128e-06
5.22306e-05
2.84218e-06
5.61089e-05
-3.24398e-06
5.92655e-05
-4.6796e-06
5.65183e-05
-6.93163e-06
5.34671e-05
-1.11583e-05
5.51014e-05
-1.77302e-05
5.30889e-05
-2.4835e-05
6.12331e-05
-3.28806e-05
6.64291e-05
-3.5382e-05
5.45725e-05
-3.0245e-05
4.36154e-05
-2.02943e-05
3.65123e-05
-7.48699e-06
3.21496e-05
3.41984e-06
2.48605e-05
1.14521e-05
2.5647e-05
3.36705e-06
5.66313e-05
-1.13076e-05
0.000109937
-4.00923e-05
0.00010339
-4.61115e-05
4.3403e-05
-3.07964e-05
1.28989e-05
-1.4252e-05
1.2927e-05
-2.44783e-06
3.57788e-05
5.0256e-06
4.79112e-05
3.69164e-06
5.44216e-05
-3.12437e-06
6.01386e-05
-6.42282e-06
5.17505e-05
3.57578e-05
5.84639e-06
3.16041e-05
8.96636e-06
4.79571e-05
8.82525e-06
5.17371e-05
6.20842e-06
5.50342e-05
2.99468e-06
5.95309e-05
6.96012e-07
6.18342e-05
-2.25823e-06
5.97526e-05
-6.16057e-06
5.76394e-05
-9.42504e-06
5.86047e-05
-1.83085e-05
6.21797e-05
-2.39658e-05
6.7068e-05
-2.85638e-05
7.11492e-05
-2.82704e-05
5.43653e-05
-1.86617e-05
3.41009e-05
-7.01806e-06
2.49642e-05
4.10141e-06
2.11181e-05
1.04093e-05
1.86223e-05
1.46835e-05
2.14392e-05
7.78828e-06
6.36518e-05
-3.07668e-06
0.000121033
-1.31308e-05
0.000113602
-4.16364e-05
7.20025e-05
-2.95506e-05
8.81564e-07
-1.59198e-05
-6.35882e-07
1.7203e-06
1.82464e-05
1.14356e-05
3.83568e-05
1.25472e-05
5.34828e-05
6.89642e-06
6.59545e-05
3.72671e-07
5.84088e-05
3.62504e-05
7.03058e-06
2.46629e-05
1.2817e-05
4.22332e-05
1.03342e-05
5.42782e-05
7.06649e-06
5.83638e-05
4.67791e-06
6.20078e-05
2.71766e-06
6.39733e-05
-5.01387e-07
6.31827e-05
-4.51817e-06
6.18469e-05
-8.04388e-06
6.22873e-05
-1.21857e-05
6.64614e-05
-1.52883e-05
7.02789e-05
-1.60431e-05
7.19689e-05
-1.25552e-05
5.09204e-05
-1.53967e-06
2.31188e-05
6.12525e-06
1.73346e-05
1.09225e-05
1.63546e-05
1.32812e-05
1.62951e-05
1.67756e-05
1.79748e-05
9.35182e-06
7.11419e-05
3.60163e-06
0.000126888
6.04686e-06
0.000111232
-1.30752e-05
9.11841e-05
-1.96813e-05
7.52467e-06
-1.23922e-05
-7.8908e-06
-2.09312e-07
6.09973e-06
1.08641e-05
2.73297e-05
1.81071e-05
4.62961e-05
1.42217e-05
6.99056e-05
4.32132e-06
6.83724e-05
4.06309e-05
3.70622e-06
2.10188e-05
1.25886e-05
3.3395e-05
1.18966e-05
5.50163e-05
8.05268e-06
6.22528e-05
5.24259e-06
6.48837e-05
3.34255e-06
6.60099e-05
4.02232e-07
6.62817e-05
-3.15636e-06
6.55478e-05
-6.25558e-06
6.54987e-05
-7.27495e-06
6.75873e-05
-7.11634e-06
7.02141e-05
-4.92138e-06
6.98332e-05
1.20927e-06
4.48388e-05
8.20293e-06
1.61585e-05
1.19814e-05
1.35858e-05
1.34197e-05
1.49452e-05
1.43187e-05
1.54239e-05
1.58616e-05
1.64572e-05
1.7431e-07
8.68938e-05
5.37558e-06
0.000121772
1.18303e-05
0.000104846
1.29486e-05
9.01262e-05
-1.03798e-05
3.08916e-05
-6.32423e-06
-1.19188e-05
1.15524e-06
-1.35168e-06
7.56578e-06
2.0952e-05
1.7234e-05
3.66682e-05
1.80924e-05
6.91013e-05
7.91394e-06
7.86055e-05
4.85957e-05
-4.59902e-07
2.15228e-05
4.9557e-06
2.80171e-05
1.13863e-05
4.8634e-05
9.71474e-06
6.39806e-05
6.08205e-06
6.85989e-05
2.68882e-06
6.95211e-05
-7.50739e-07
6.98429e-05
-4.47344e-06
6.93797e-05
-7.24565e-06
6.83637e-05
-6.62253e-06
6.70722e-05
-2.80046e-06
6.64902e-05
3.97016e-06
6.3129e-05
1.3332e-05
3.55142e-05
1.60424e-05
1.34765e-05
1.69646e-05
1.26886e-05
1.68875e-05
1.5048e-05
1.61842e-05
1.61533e-05
1.1337e-05
2.13283e-05
-4.56678e-06
0.00010287
5.78287e-06
0.000111498
1.36823e-05
9.70089e-05
1.93741e-05
8.4488e-05
2.4953e-06
4.78088e-05
3.218e-06
-1.26193e-05
6.35511e-06
-4.46567e-06
7.34358e-06
1.99935e-05
1.13264e-05
3.27205e-05
1.77093e-05
6.27707e-05
1.11115e-05
8.52618e-05
5.97607e-05
-2.87639e-06
2.44388e-05
-4.13054e-06
2.93095e-05
2.68206e-06
4.18685e-05
8.24974e-06
5.84763e-05
8.00099e-06
6.89324e-05
3.79648e-06
7.38235e-05
-1.86146e-06
7.5602e-05
-6.66584e-06
7.4292e-05
-9.71282e-06
7.1554e-05
-9.60997e-06
6.71389e-05
-3.15577e-06
6.01575e-05
1.1361e-05
4.86837e-05
2.25056e-05
2.44011e-05
2.35072e-05
1.24988e-05
2.29358e-05
1.32812e-05
2.22681e-05
1.57373e-05
2.14021e-05
1.7042e-05
-1.55054e-06
4.43111e-05
-7.08326e-06
0.000108475
1.02681e-06
0.000103453
6.39198e-06
9.16953e-05
1.48702e-05
7.60482e-05
1.83219e-05
4.43908e-05
1.26965e-05
-6.97401e-06
1.10966e-05
-2.84605e-06
9.3115e-06
2.18066e-05
8.35129e-06
3.37139e-05
1.65947e-05
5.4575e-05
1.33974e-05
8.85221e-05
7.32174e-05
-3.7204e-06
2.81975e-05
-8.63639e-06
3.42659e-05
-8.36577e-06
4.16438e-05
-2.23756e-06
5.24057e-05
4.58984e-06
6.2176e-05
5.3534e-06
7.31417e-05
-1.06972e-06
8.21132e-05
-8.43173e-06
8.1756e-05
-1.21904e-05
7.54615e-05
-1.06269e-05
6.57578e-05
1.25106e-06
4.84264e-05
1.88328e-05
3.1189e-05
2.64027e-05
1.68764e-05
2.66701e-05
1.22634e-05
2.63512e-05
1.36247e-05
2.55602e-05
1.65481e-05
2.1838e-05
2.07812e-05
-1.07939e-05
7.69726e-05
-8.39453e-06
0.000106131
-3.49697e-06
9.86017e-05
9.62378e-07
8.72619e-05
1.37601e-05
6.32771e-05
3.13033e-05
2.68793e-05
2.36562e-05
6.94889e-07
1.51183e-05
5.71102e-06
9.88824e-06
2.70638e-05
9.03343e-06
3.46004e-05
1.66676e-05
4.6978e-05
1.50607e-05
9.01885e-05
8.83428e-05
-5.08599e-06
3.33235e-05
-1.0765e-05
3.99887e-05
-1.38898e-05
4.48174e-05
-1.1825e-05
5.03953e-05
-6.26428e-06
5.66761e-05
-6.52154e-07
6.7599e-05
-2.98203e-06
8.45215e-05
-9.67232e-06
8.85301e-05
-1.21779e-05
7.80636e-05
-5.26685e-06
5.89539e-05
7.07169e-06
3.61836e-05
1.80337e-05
2.02971e-05
2.28869e-05
1.20742e-05
2.44815e-05
1.0709e-05
2.48389e-05
1.33012e-05
2.15822e-05
1.98311e-05
4.12209e-06
3.8253e-05
-1.1987e-05
9.30653e-05
-6.35928e-06
0.000100505
-3.59459e-06
9.58337e-05
2.49245e-06
8.11764e-05
2.28638e-05
4.29335e-05
3.72814e-05
1.24924e-05
2.85052e-05
9.49591e-06
1.22038e-05
2.20338e-05
7.05658e-06
3.22375e-05
8.63227e-06
3.30517e-05
1.62794e-05
3.9362e-05
1.79789e-05
8.85475e-05
0.000106398
-7.6102e-06
4.0978e-05
-1.29523e-05
4.53792e-05
-1.5654e-05
4.75709e-05
-1.55704e-05
5.03661e-05
-1.3854e-05
5.50171e-05
-1.10608e-05
6.48708e-05
-9.59075e-06
8.31278e-05
-9.47591e-06
8.84925e-05
-6.97266e-06
7.56324e-05
-7.01558e-07
5.27459e-05
4.61663e-06
3.09172e-05
8.70776e-06
1.62509e-05
1.35374e-05
7.28672e-06
1.81149e-05
6.17253e-06
1.58328e-05
1.56276e-05
2.34362e-06
3.33763e-05
-1.70475e-05
5.77102e-05
-1.0435e-05
8.64611e-05
-3.71406e-06
9.37887e-05
-1.21144e-06
9.3344e-05
1.27533e-05
6.72457e-05
3.26534e-05
2.30693e-05
3.73025e-05
7.87528e-06
2.84654e-05
1.83625e-05
6.52115e-06
4.40085e-05
2.32506e-06
3.64575e-05
7.04676e-06
2.83549e-05
1.4052e-05
3.2389e-05
1.94788e-05
8.31857e-05
0.000125977
-1.23052e-05
5.33358e-05
-1.55042e-05
4.8629e-05
-1.65712e-05
4.86887e-05
-1.57508e-05
4.95981e-05
-1.5275e-05
5.45992e-05
-1.6826e-05
6.64902e-05
-1.41879e-05
8.05719e-05
-6.72019e-06
8.1108e-05
-7.13394e-07
6.96981e-05
3.28926e-07
5.17634e-05
-1.09043e-06
3.23829e-05
-3.41006e-07
1.55376e-05
3.3411e-06
3.63517e-06
6.36832e-06
3.17847e-06
-1.1112e-06
2.31565e-05
-1.41308e-05
4.64693e-05
-1.5765e-05
5.94531e-05
-5.8697e-06
7.66636e-05
8.06323e-07
8.7187e-05
6.19758e-06
8.80429e-05
2.47839e-05
4.87318e-05
3.52684e-05
1.26276e-05
3.40056e-05
9.16848e-06
2.67207e-05
2.568e-05
8.24404e-06
6.25263e-05
1.17032e-06
4.35607e-05
6.47725e-06
2.30745e-05
1.0343e-05
2.85593e-05
1.40197e-05
7.95829e-05
0.000140122
-1.08413e-05
6.4237e-05
-1.4103e-05
5.19433e-05
-1.32102e-05
4.78433e-05
-1.15377e-05
4.79734e-05
-1.13837e-05
5.44979e-05
-1.40205e-05
6.91978e-05
-1.05808e-05
7.72169e-05
-2.61959e-06
7.32319e-05
2.2419e-06
6.49133e-05
-2.20832e-06
5.62778e-05
-8.17232e-06
3.83942e-05
-9.64198e-06
1.7041e-05
-9.54853e-06
3.56703e-06
-1.35826e-05
7.24286e-06
-1.5859e-05
2.54762e-05
-1.04602e-05
4.11232e-05
-5.07905e-06
5.41372e-05
7.61472e-07
7.09164e-05
6.27301e-06
8.17739e-05
1.5473e-05
7.8945e-05
3.15768e-05
3.26896e-05
3.35015e-05
1.07352e-05
2.90541e-05
1.36453e-05
2.09732e-05
3.37948e-05
1.47192e-05
6.8825e-05
7.58195e-06
5.07386e-05
8.08805e-06
2.25999e-05
4.05342e-06
3.26331e-05
2.38722e-07
8.34763e-05
0.000140493
-2.73449e-06
6.70309e-05
-5.75422e-06
5.50185e-05
-2.6507e-06
4.47911e-05
-1.08016e-06
4.64514e-05
-2.36154e-06
5.58312e-05
-6.48925e-06
7.33946e-05
-5.57829e-06
7.63837e-05
-8.5361e-07
6.85825e-05
2.0906e-06
6.20403e-05
-3.55084e-06
6.19843e-05
-1.37851e-05
4.86785e-05
-1.92618e-05
2.25521e-05
-2.34103e-05
7.74501e-06
-2.79643e-05
1.18318e-05
-2.06051e-05
1.81586e-05
-6.36022e-06
2.69227e-05
4.07652e-06
4.37486e-05
7.56634e-06
6.74878e-05
1.15967e-05
7.7818e-05
2.51458e-05
6.54661e-05
3.23916e-05
2.54826e-05
2.89323e-05
1.42228e-05
2.32846e-05
1.93224e-05
1.49637e-05
4.2152e-05
1.69344e-05
6.69038e-05
1.64673e-05
5.12584e-05
8.41631e-06
3.06911e-05
-8.8719e-06
4.99694e-05
-1.51259e-05
8.98094e-05
0.000125482
2.26825e-06
6.48182e-05
7.06522e-06
5.02756e-05
1.24506e-05
3.94567e-05
1.30369e-05
4.59171e-05
3.20377e-06
6.57225e-05
-5.95731e-06
8.26231e-05
-1.13184e-05
8.18154e-05
-1.46547e-05
7.19872e-05
-1.74662e-05
6.49171e-05
-1.65993e-05
6.11802e-05
-1.84008e-05
5.05327e-05
-2.3255e-05
2.74462e-05
-2.53044e-05
9.82779e-06
-2.3821e-05
1.03832e-05
-1.74201e-05
1.17927e-05
-6.52156e-06
1.60608e-05
5.57182e-06
3.16985e-05
1.15563e-05
6.15543e-05
1.93026e-05
7.01253e-05
3.15172e-05
5.32988e-05
2.94903e-05
2.75411e-05
2.23062e-05
2.14346e-05
1.66648e-05
2.49927e-05
1.3142e-05
4.5714e-05
2.06385e-05
5.94619e-05
2.22676e-05
4.96875e-05
4.51799e-06
4.84928e-05
-1.86293e-05
7.31755e-05
-2.02408e-05
9.14946e-05
0.00010533
1.34434e-06
6.35298e-05
1.0655e-05
4.10152e-05
1.72711e-05
3.28876e-05
2.01042e-05
4.31351e-05
8.69981e-06
7.71884e-05
-4.5928e-06
9.59839e-05
-1.60744e-05
9.33668e-05
-2.84935e-05
8.4475e-05
-3.43731e-05
7.08615e-05
-2.85354e-05
5.54016e-05
-2.0237e-05
4.22865e-05
-1.696e-05
2.42115e-05
-1.29072e-05
5.80496e-06
-1.01848e-05
7.6874e-06
-9.30537e-06
1.0941e-05
-6.84223e-06
1.36271e-05
1.27113e-07
2.47656e-05
1.25744e-05
4.91547e-05
2.48169e-05
5.79311e-05
3.03649e-05
4.77916e-05
2.38572e-05
3.4078e-05
1.42877e-05
3.10307e-05
7.85349e-06
3.14548e-05
9.6408e-06
4.39668e-05
1.72997e-05
5.18566e-05
1.35038e-05
5.35392e-05
-7.68003e-06
6.97343e-05
-1.78983e-05
8.34551e-05
-1.38065e-05
8.74695e-05
9.15949e-05
5.36991e-06
5.82157e-05
1.05557e-05
3.58751e-05
1.19126e-05
3.15724e-05
1.51778e-05
3.99173e-05
1.17662e-05
8.06638e-05
-5.48702e-06
0.000113311
-2.20081e-05
0.000109961
-3.56942e-05
9.82303e-05
-3.35546e-05
6.87841e-05
-1.6415e-05
3.83164e-05
2.89362e-06
2.30244e-05
1.13504e-05
1.57919e-05
8.38032e-06
8.79871e-06
2.73912e-06
1.33506e-05
-1.40425e-06
1.51089e-05
-3.53706e-06
1.57867e-05
-8.16946e-07
2.20776e-05
1.13667e-05
3.7013e-05
2.20458e-05
4.72953e-05
2.35659e-05
4.63082e-05
1.68787e-05
4.07942e-05
5.15633e-06
4.27769e-05
-3.523e-06
4.01608e-05
-1.66195e-07
4.06473e-05
3.32832e-06
4.84095e-05
-5.52221e-06
6.24426e-05
-1.54542e-05
7.97242e-05
-1.35157e-05
8.15756e-05
-7.94307e-06
8.19583e-05
8.3715e-05
9.53743e-06
4.87312e-05
9.48007e-06
3.59738e-05
5.47477e-06
3.56158e-05
5.22569e-06
4.0209e-05
9.54104e-06
7.64125e-05
-6.26899e-06
0.000129205
-2.51225e-05
0.000128898
-3.09294e-05
0.000104113
-1.03009e-05
4.82158e-05
1.18922e-05
1.61683e-05
2.48381e-05
1.01171e-05
2.76921e-05
1.29727e-05
1.99051e-05
1.66123e-05
1.1642e-05
2.16386e-05
4.86502e-06
2.19125e-05
1.22599e-06
1.94527e-05
2.28861e-06
2.1045e-05
9.19138e-06
3.01464e-05
1.55884e-05
4.0937e-05
1.6852e-05
4.50791e-05
1.1342e-05
4.63307e-05
-6.30906e-06
6.04567e-05
-1.5664e-05
4.95453e-05
-1.64946e-05
4.15111e-05
-1.78922e-05
4.98498e-05
-2.12877e-05
6.5889e-05
-1.72086e-05
7.57001e-05
-1.09268e-05
7.53496e-05
-4.79082e-06
7.58793e-05
7.89819e-05
8.79832e-06
3.99814e-05
6.0359e-06
3.87761e-05
1.52097e-08
4.16751e-05
-5.15525e-06
4.54206e-05
-4.30669e-07
7.17498e-05
-6.46075e-06
0.000135328
-1.87472e-05
0.00014128
-6.24618e-06
9.16952e-05
1.59692e-05
2.60551e-05
2.69197e-05
5.25667e-06
3.04223e-05
6.6516e-06
2.88185e-05
1.46155e-05
2.16936e-05
2.377e-05
1.44508e-05
2.89115e-05
7.11962e-06
2.92749e-05
3.01327e-06
2.35881e-05
2.9391e-06
2.11479e-05
6.53858e-06
2.65788e-05
1.02727e-05
3.72373e-05
1.12758e-05
4.41075e-05
1.48555e-06
5.61506e-05
-1.9223e-05
8.12105e-05
-2.69677e-05
5.7325e-05
-3.26021e-05
4.71796e-05
-3.51992e-05
5.24899e-05
-3.07542e-05
6.14932e-05
-1.97603e-05
6.47575e-05
-1.01311e-05
6.5773e-05
-3.08747e-06
6.88895e-05
7.59499e-05
3.5919e-06
3.6435e-05
2.58966e-07
4.21526e-05
-5.75958e-06
4.77373e-05
-1.25671e-05
5.22741e-05
-1.11966e-05
7.04416e-05
-4.4015e-07
0.000124672
8.77595e-06
0.000132176
2.49971e-05
7.5568e-05
2.74514e-05
2.36591e-05
2.89062e-05
3.84162e-06
2.96472e-05
5.94657e-06
2.36183e-05
2.06817e-05
1.83245e-05
2.90939e-05
1.39655e-05
3.32993e-05
5.68661e-06
3.75879e-05
1.53218e-06
2.77757e-05
1.79853e-06
2.09093e-05
4.356e-06
2.40494e-05
6.7305e-06
3.48934e-05
6.45815e-06
4.44089e-05
-9.32823e-06
7.19777e-05
-2.59525e-05
9.78939e-05
-3.30883e-05
6.45024e-05
-3.9077e-05
5.32068e-05
-4.01493e-05
5.36075e-05
-3.32202e-05
5.46123e-05
-2.23127e-05
5.38977e-05
-1.20195e-05
5.55285e-05
-4.11222e-06
6.1033e-05
7.18918e-05
-1.12382e-06
3.76068e-05
-5.12774e-06
4.6207e-05
-1.01778e-05
5.28396e-05
-1.57656e-05
5.79181e-05
-1.45279e-05
6.92741e-05
9.49946e-06
0.000100756
3.57314e-05
0.000106081
4.07603e-05
7.06507e-05
2.60287e-05
3.84596e-05
2.32204e-05
6.68946e-06
2.70754e-05
2.12602e-06
2.61228e-05
2.16758e-05
2.10341e-05
3.42239e-05
1.77731e-05
3.65998e-05
9.73133e-06
4.5674e-05
-3.53779e-06
4.10823e-05
-1.05243e-06
1.84498e-05
2.18679e-06
2.08355e-05
2.76884e-06
3.43398e-05
-1.79191e-06
4.89992e-05
-1.73513e-05
8.75912e-05
-2.82722e-05
0.000108886
-3.42863e-05
7.05647e-05
-3.76768e-05
5.66401e-05
-3.67913e-05
5.27681e-05
-3.12466e-05
4.91144e-05
-2.36752e-05
4.63716e-05
-1.5125e-05
4.70236e-05
-6.96306e-06
5.2919e-05
6.49814e-05
-4.92371e-06
4.25751e-05
-1.04982e-05
5.18341e-05
-1.17396e-05
5.41347e-05
-1.23492e-05
5.85851e-05
-7.48806e-06
6.44832e-05
1.88566e-05
7.45137e-05
3.89897e-05
8.60697e-05
2.9028e-05
8.07109e-05
1.64379e-05
5.1114e-05
1.60942e-05
7.07359e-06
2.71551e-05
-8.90006e-06
4.08459e-05
8.02712e-06
4.03463e-05
3.4772e-05
3.17076e-05
4.52867e-05
2.23652e-05
5.50678e-05
7.99685e-06
5.54994e-05
-8.71749e-07
2.73509e-05
3.23508e-06
1.67518e-05
1.10304e-06
3.64999e-05
-8.09681e-06
5.82344e-05
-2.38412e-05
0.000103409
-2.75383e-05
0.000112668
-3.16189e-05
7.46997e-05
-3.32048e-05
5.82716e-05
-3.17112e-05
5.13203e-05
-2.83352e-05
4.57832e-05
-2.37784e-05
4.18579e-05
-1.74989e-05
4.0787e-05
-9.53259e-06
4.49982e-05
5.55002e-05
-8.85854e-06
5.14795e-05
-1.22667e-05
5.5291e-05
-1.04545e-05
5.23716e-05
-6.57279e-06
5.4754e-05
-1.57501e-06
5.95447e-05
4.64999e-06
6.83651e-05
4.65024e-06
8.61527e-05
-3.0375e-06
8.84712e-05
-1.91607e-06
5.00488e-05
6.72924e-06
-1.53315e-06
1.89184e-05
-2.10578e-05
3.53529e-05
-8.37114e-06
4.76924e-05
2.24777e-05
5.21212e-05
4.09071e-05
5.68847e-05
5.03569e-05
5.26957e-05
5.97454e-05
2.77327e-05
5.23604e-05
1.42434e-05
3.02628e-05
5.2972e-06
4.54654e-05
-1.51951e-05
7.87652e-05
-3.25071e-05
0.00012082
-2.71922e-05
0.000107448
-2.76689e-05
7.52355e-05
-2.81318e-05
5.8782e-05
-2.64114e-05
4.96453e-05
-2.38631e-05
4.32786e-05
-2.08348e-05
3.88715e-05
-1.67821e-05
3.67753e-05
-1.02832e-05
3.85422e-05
4.52655e-05
-3.8946e-06
5.5428e-05
-9.90788e-06
6.13586e-05
-1.54428e-05
5.79584e-05
-2.08683e-05
6.02314e-05
-2.88502e-05
6.75813e-05
-3.8549e-05
7.81242e-05
-3.73152e-05
8.49842e-05
-1.94977e-05
7.07153e-05
-2.07386e-06
3.26747e-05
8.17877e-06
-1.17505e-05
1.55778e-05
-2.84281e-05
2.59752e-05
-1.87369e-05
4.17024e-05
6.79133e-06
5.75761e-05
2.50807e-05
7.50003e-05
3.29863e-05
9.13757e-05
4.34352e-05
8.43789e-05
5.94339e-05
4.41142e-05
7.05932e-05
1.44356e-05
7.52027e-05
-1.47127e-05
0.000107993
-3.12248e-05
0.000137449
-2.66886e-05
0.000103009
-2.34748e-05
7.20831e-05
-2.27972e-05
5.81533e-05
-2.10903e-05
4.79831e-05
-1.88487e-05
4.10797e-05
-1.63257e-05
3.63894e-05
-1.31878e-05
3.36769e-05
-8.36302e-06
3.37577e-05
3.69466e-05
-6.64562e-06
6.21261e-05
-1.31823e-05
6.79481e-05
-2.63003e-05
7.11296e-05
-3.93449e-05
7.333e-05
-4.80779e-05
7.63691e-05
-4.75305e-05
7.76327e-05
-3.30483e-05
7.05583e-05
-1.0423e-05
4.81427e-05
7.88322e-06
1.44124e-05
1.51365e-05
-1.89706e-05
1.84687e-05
-3.17332e-05
2.3118e-05
-2.3357e-05
3.53489e-05
-5.40282e-06
5.30315e-05
7.44211e-06
7.25715e-05
1.34989e-05
9.22154e-05
2.38607e-05
0.000100426
5.13166e-05
7.22216e-05
9.89055e-05
3.36244e-05
0.0001139
9.03533e-06
0.000132693
-1.84793e-06
0.000148457
-1.43926e-05
0.000115652
-1.71632e-05
7.49167e-05
-1.70177e-05
5.80594e-05
-1.5924e-05
4.69345e-05
-1.41015e-05
3.92997e-05
-1.19321e-05
3.42604e-05
-9.40349e-06
3.11871e-05
-5.68099e-06
3.00734e-05
3.1306e-05
-4.76622e-06
6.6944e-05
-1.11016e-05
7.43358e-05
-2.02711e-05
8.03517e-05
-2.84407e-05
8.15526e-05
-3.10024e-05
7.8984e-05
-2.49055e-05
7.15887e-05
-1.01197e-05
5.58237e-05
5.8924e-06
3.21778e-05
1.85976e-05
1.74713e-06
2.2712e-05
-2.30531e-05
2.35378e-05
-3.25322e-05
2.57444e-05
-2.55353e-05
3.39391e-05
-1.35635e-05
4.74917e-05
-6.07014e-06
6.24518e-05
-1.41129e-06
7.52974e-05
1.10815e-05
7.64602e-05
5.02433e-05
5.9804e-05
0.000115673
4.40805e-05
0.000129733
3.86648e-05
0.000138223
3.78633e-05
0.000149381
1.6595e-05
0.000137029
-3.75809e-06
9.53448e-05
-1.04862e-05
6.48453e-05
-1.08017e-05
4.72968e-05
-1.00168e-05
3.85577e-05
-8.57674e-06
3.28611e-05
-6.67108e-06
2.932e-05
-3.86575e-06
2.73052e-05
2.74782e-05
-2.04474e-06
6.90406e-05
-5.22638e-06
7.757e-05
-9.10928e-06
8.42879e-05
-1.0996e-05
8.34925e-05
-9.00307e-06
7.70438e-05
-1.9455e-06
6.45825e-05
9.02171e-06
4.49051e-05
1.9948e-05
2.12957e-05
2.81788e-05
-6.4459e-06
3.00819e-05
-2.49249e-05
2.91299e-05
-3.15533e-05
3.0139e-05
-2.65165e-05
3.5445e-05
-1.8837e-05
4.39681e-05
-1.4555e-05
5.3087e-05
-1.04829e-05
5.82391e-05
5.99192e-06
4.88897e-05
5.96784e-05
4.46073e-05
0.000120064
4.4076e-05
0.000130372
4.78961e-05
0.000134513
5.69904e-05
0.000140402
5.35044e-05
0.00014063
2.68555e-05
0.000122091
4.61601e-06
8.71562e-05
-5.37156e-06
5.73401e-05
-7.82023e-06
4.10484e-05
-7.21648e-06
3.22987e-05
-5.46653e-06
2.76089e-05
-3.07148e-06
2.49471e-05
2.44434e-05
1.99521e-07
6.88926e-05
1.87303e-07
7.76348e-05
7.76942e-07
8.37516e-05
2.77971e-06
8.15428e-05
7.03831e-06
7.28372e-05
1.37125e-05
5.79583e-05
2.1717e-05
3.69474e-05
3.05139e-05
1.2541e-05
3.56403e-05
-1.15358e-05
3.60369e-05
-2.52906e-05
3.40208e-05
-2.95098e-05
3.36011e-05
-2.60683e-05
3.63404e-05
-2.15439e-05
4.16013e-05
-1.9778e-05
4.72807e-05
-1.61164e-05
4.60794e-05
7.25373e-06
3.47557e-05
7.10863e-05
3.93247e-05
0.000115597
4.44597e-05
0.000125341
4.96406e-05
0.000129438
5.76291e-05
0.000132523
6.40306e-05
0.000134339
5.84363e-05
0.000127791
3.44106e-05
0.000111276
7.90929e-06
8.39158e-05
-7.31257e-06
5.63233e-05
-9.07433e-06
3.41002e-05
-5.82973e-06
2.44026e-05
-2.88243e-06
2.20364e-05
2.1597e-05
1.57086e-06
6.73726e-05
3.84454e-06
7.54131e-05
7.4045e-06
8.02443e-05
1.17226e-05
7.7277e-05
1.71732e-05
6.74378e-05
2.36725e-05
5.1508e-05
3.02679e-05
3.03975e-05
3.73465e-05
5.50296e-06
3.99944e-05
-1.41485e-05
3.88795e-05
-2.41453e-05
3.60989e-05
-2.67012e-05
3.4727e-05
-2.4667e-05
3.60031e-05
-2.27869e-05
3.89786e-05
-2.27157e-05
4.22494e-05
-1.93427e-05
3.97252e-05
9.8383e-06
3.55157e-05
7.5379e-05
4.23453e-05
0.000108864
4.77723e-05
0.000120014
5.18116e-05
0.0001255
5.60468e-05
0.000128391
6.08606e-05
0.00012963
6.28436e-05
0.000125912
5.65495e-05
0.00011767
3.37177e-05
0.000106839
3.86018e-06
8.62581e-05
-1.01128e-05
4.81252e-05
-6.12144e-06
2.04483e-05
-2.18264e-06
1.81339e-05
1.94503e-05
2.83515e-06
6.45876e-05
6.44783e-06
7.18517e-05
1.1374e-05
7.53699e-05
1.69545e-05
7.1748e-05
2.3182e-05
6.12603e-05
2.94029e-05
4.53348e-05
3.64583e-05
2.3386e-05
4.15962e-05
4.0401e-07
4.23333e-05
-1.48518e-05
4.00734e-05
-2.18554e-05
3.68824e-05
-2.34814e-05
3.49937e-05
-2.27476e-05
3.46724e-05
-2.24318e-05
3.52876e-05
-2.32935e-05
3.58213e-05
-1.98328e-05
3.688e-05
8.8389e-06
4.39126e-05
6.84272e-05
5.03999e-05
0.000102468
5.3894e-05
0.000116617
5.49806e-05
0.000124513
5.56858e-05
0.000127786
5.70766e-05
0.00012834
5.7226e-05
0.000125862
5.51517e-05
0.000119841
4.7793e-05
0.000114291
2.88627e-05
0.000105276
4.1175e-06
7.29411e-05
-1.44654e-06
2.60545e-05
1.57258e-06
1.51514e-05
2.10599e-05
3.58691e-06
6.105e-05
7.97108e-06
6.75179e-05
1.36098e-05
6.97821e-05
2.01064e-05
6.53018e-05
2.62312e-05
5.51842e-05
3.35015e-05
3.81104e-05
4.06342e-05
1.62952e-05
4.37559e-05
-2.68053e-06
4.28849e-05
-1.39483e-05
3.97244e-05
-1.86652e-05
3.60362e-05
-1.97634e-05
3.32742e-05
-1.9954e-05
3.15412e-05
-2.06646e-05
3.03464e-05
-2.20623e-05
2.90788e-05
-1.85229e-05
3.42337e-05
3.74045e-06
5.12471e-05
5.14902e-05
6.02061e-05
9.35986e-05
6.13541e-05
0.000115565
5.90389e-05
0.000126927
5.6071e-05
0.000130853
5.41835e-05
0.000130327
5.17298e-05
0.000128415
4.8981e-05
0.000122685
4.4389e-05
0.000118975
4.05232e-05
0.000109228
3.05731e-05
8.29674e-05
1.72735e-05
3.94093e-05
1.16203e-05
2.08441e-05
3.27244e-05
4.13396e-06
5.69644e-05
8.68526e-06
6.3016e-05
1.44157e-05
6.41013e-05
2.10792e-05
5.86872e-05
2.85561e-05
4.77544e-05
3.69132e-05
2.97971e-05
4.2413e-05
1.08351e-05
4.35005e-05
-3.73292e-06
4.13103e-05
-1.17268e-05
3.76146e-05
-1.49396e-05
3.39979e-05
-1.6116e-05
3.10111e-05
-1.6935e-05
2.82392e-05
-1.7859e-05
2.51537e-05
-1.89415e-05
2.24451e-05
-1.57737e-05
2.79487e-05
-1.71179e-06
4.91066e-05
3.04008e-05
6.67871e-05
7.60036e-05
6.82648e-05
0.000114184
6.25536e-05
0.000132739
5.64971e-05
0.00013701
5.12024e-05
0.000135721
4.71599e-05
0.000132554
4.29343e-05
0.000127004
3.89193e-05
0.00012308
4.25903e-05
0.000105641
5.26091e-05
7.30245e-05
4.78015e-05
4.42852e-05
3.16308e-05
3.70729e-05
6.44183e-05
4.46141e-06
5.25498e-05
9.41801e-06
5.81073e-05
1.55173e-05
5.80501e-05
2.24752e-05
5.17763e-05
3.10691e-05
3.92053e-05
3.82117e-05
2.26959e-05
4.17883e-05
7.29567e-06
4.14371e-05
-3.34851e-06
3.86149e-05
-8.87393e-06
3.49713e-05
-1.12654e-05
3.15394e-05
-1.26527e-05
2.83208e-05
-1.3684e-05
2.51186e-05
-1.46233e-05
2.10576e-05
-1.48454e-05
1.76979e-05
-1.23749e-05
2.04427e-05
-4.41097e-06
3.72978e-05
1.36038e-05
6.27712e-05
5.06077e-05
7.22007e-05
0.000104851
6.30798e-05
0.000141965
5.44718e-05
0.00014572
4.74801e-05
0.000142812
4.17702e-05
0.000138361
3.66341e-05
0.000132234
3.35909e-05
0.000126213
4.26083e-05
9.67034e-05
5.75318e-05
5.81741e-05
6.40806e-05
3.78108e-05
4.9876e-05
5.13542e-05
0.000114374
4.29351e-06
4.83015e-05
9.79905e-06
5.26481e-05
1.65889e-05
5.13065e-05
2.43599e-05
4.40504e-05
3.20436e-05
3.15639e-05
3.74171e-05
1.73611e-05
3.92015e-05
5.546e-06
3.78603e-05
-1.97565e-06
3.49177e-05
-5.90051e-06
3.17999e-05
-8.11635e-06
2.87238e-05
-9.54472e-06
2.56368e-05
-1.05643e-05
2.24037e-05
-1.13566e-05
1.86369e-05
-1.10432e-05
1.54294e-05
-9.12979e-06
1.56232e-05
-4.5634e-06
2.45655e-05
4.71021e-06
4.74381e-05
2.78004e-05
6.72676e-05
8.51132e-05
5.85433e-05
0.000150799
4.88196e-05
0.000155548
4.13405e-05
0.00015039
3.53357e-05
0.000144463
3.01615e-05
0.000137501
2.89532e-05
0.000127509
4.06584e-05
8.50733e-05
4.92634e-05
4.96377e-05
5.46477e-05
3.24955e-05
3.60325e-05
7.00447e-05
0.000150493
4.14931e-06
4.41957e-05
1.00065e-05
4.68355e-05
1.70617e-05
4.42955e-05
2.46077e-05
3.65469e-05
3.09695e-05
2.52416e-05
3.45373e-05
1.3829e-05
3.50263e-05
5.0896e-06
3.337e-05
-2.88366e-07
3.09676e-05
-3.46689e-06
2.85288e-05
-5.64591e-06
2.61447e-05
-7.12824e-06
2.36758e-05
-8.06201e-06
2.07266e-05
-8.37295e-06
1.7632e-05
-7.91302e-06
1.48696e-05
-6.3306e-06
1.38309e-05
-3.48598e-06
1.69303e-05
1.65341e-06
3.02865e-05
1.44974e-05
5.19421e-05
6.35392e-05
4.70492e-05
0.000155804
3.93403e-05
0.000163362
3.31667e-05
0.000156665
2.79525e-05
0.000149774
2.36284e-05
0.000141918
2.46211e-05
0.000126603
3.65285e-05
7.3236e-05
3.99963e-05
4.6235e-05
3.86314e-05
3.39237e-05
1.44428e-05
9.43086e-05
0.000165024
4.05661e-06
4.01809e-05
9.94399e-06
4.09907e-05
1.67975e-05
3.74838e-05
2.34361e-05
2.99479e-05
2.8134e-05
2.05801e-05
3.00845e-05
1.19117e-05
2.98175e-05
5.38769e-06
2.84201e-05
1.13973e-06
2.68679e-05
-1.88363e-06
2.52559e-05
-4.00211e-06
2.35574e-05
-5.397e-06
2.16422e-05
-6.11304e-06
1.94621e-05
-6.15813e-06
1.72194e-05
-5.63491e-06
1.51822e-05
-4.25686e-06
1.3889e-05
-2.15518e-06
1.37637e-05
1.81811e-06
1.85361e-05
9.76994e-06
3.22354e-05
4.99103e-05
3.14624e-05
0.000156689
2.66221e-05
0.00016831
2.2606e-05
0.000160782
1.89502e-05
0.000153527
1.60929e-05
0.000144869
1.87415e-05
0.000124039
2.86047e-05
6.3438e-05
3.13064e-05
4.35945e-05
2.13496e-05
4.39424e-05
1.05689e-06
0.000114679
0.000166169
4.02877e-06
3.61918e-05
9.60241e-06
3.54571e-05
1.57628e-05
3.13623e-05
2.09854e-05
2.47619e-05
2.40025e-05
1.75968e-05
2.47673e-05
1.11782e-05
2.41893e-05
5.99588e-06
2.32587e-05
2.10028e-06
2.22602e-05
-8.54799e-07
2.1322e-05
-3.03287e-06
2.0445e-05
-4.48787e-06
1.95115e-05
-5.14626e-06
1.8367e-05
-4.97912e-06
1.69564e-05
-4.18882e-06
1.5684e-05
-2.94786e-06
1.45372e-05
-9.71209e-07
1.26312e-05
3.76279e-06
1.15393e-05
1.09036e-05
1.27138e-05
4.87994e-05
1.35998e-05
0.000155912
1.21186e-05
0.000169898
1.00606e-05
0.000162941
8.23206e-06
0.000155452
7.86311e-06
0.000145329
1.16587e-05
0.000120325
1.81665e-05
5.69911e-05
2.15224e-05
4.02959e-05
3.31007e-06
6.22178e-05
-7.39364e-06
0.000125461
0.000158862
3.98105e-06
3.22485e-05
8.88774e-06
3.0588e-05
1.39248e-05
2.63614e-05
1.7638e-05
2.10826e-05
1.94325e-05
1.58342e-05
1.96824e-05
1.09587e-05
1.91657e-05
6.54185e-06
1.85323e-05
2.76272e-06
1.79534e-05
-2.4674e-07
1.75063e-05
-2.55601e-06
1.72467e-05
-4.19751e-06
1.71097e-05
-4.97702e-06
1.69396e-05
-4.77523e-06
1.64766e-05
-3.6905e-06
1.5961e-05
-2.39587e-06
1.48238e-05
2.03165e-07
1.1813e-05
6.81252e-06
4.92423e-06
1.7834e-05
-6.37047e-06
6.0158e-05
-5.10786e-06
0.000154755
-4.08368e-06
0.000168978
-3.16167e-06
0.000162117
-2.11679e-06
0.000154501
-5.27703e-07
0.00014383
3.89696e-06
0.000115979
5.54484e-06
5.54013e-05
6.41255e-06
3.94818e-05
-1.21001e-05
8.07963e-05
-1.15015e-05
0.00012494
0.000147442
3.84208e-06
2.84422e-05
7.77649e-06
2.66891e-05
1.15836e-05
2.25883e-05
1.41874e-05
1.85111e-05
1.54564e-05
1.45962e-05
1.5718e-05
1.07268e-05
1.54107e-05
6.87783e-06
1.49462e-05
3.25536e-06
1.45233e-05
2.04244e-07
1.4217e-05
-2.22103e-06
1.41367e-05
-4.08781e-06
1.43871e-05
-5.19667e-06
1.48952e-05
-5.25068e-06
1.54382e-05
-4.19884e-06
1.58683e-05
-2.78982e-06
1.49055e-05
1.20372e-06
9.93504e-06
1.18232e-05
-3.99752e-06
3.18138e-05
-2.49162e-05
8.11462e-05
-2.37342e-05
0.000153675
-1.95754e-05
0.00016492
-1.60262e-05
0.000158664
-1.23567e-05
0.000150924
-8.25751e-06
0.000139819
-3.35587e-06
0.000111154
-6.75829e-06
5.88607e-05
-1.49361e-05
4.77114e-05
-2.60478e-05
9.19752e-05
-1.71168e-05
0.000116084
0.000130404
3.43838e-06
2.5038e-05
6.47337e-06
2.36883e-05
9.35421e-06
1.974e-05
1.14095e-05
1.64871e-05
1.25895e-05
1.34463e-05
1.29968e-05
1.03486e-05
1.28424e-05
7.06046e-06
1.23969e-05
3.72853e-06
1.1882e-05
7.4665e-07
1.14451e-05
-1.7564e-06
1.12259e-05
-3.84015e-06
1.14127e-05
-5.35399e-06
1.21526e-05
-5.95937e-06
1.33283e-05
-5.34108e-06
1.45381e-05
-3.96398e-06
1.43394e-05
1.44109e-06
7.27737e-06
1.89302e-05
-1.3278e-05
5.24252e-05
-3.93756e-05
0.00010732
-3.85873e-05
0.000152985
-3.32586e-05
0.000159689
-2.80425e-05
0.000153541
-2.28015e-05
0.000145772
-1.65823e-05
0.000133684
-1.15135e-05
0.00010616
-1.87847e-05
6.619e-05
-3.6426e-05
6.54092e-05
-3.88035e-05
9.44192e-05
-2.47113e-05
0.000102064
0.000105766
2.85742e-06
2.22133e-05
5.33354e-06
2.12451e-05
7.63607e-06
1.74688e-05
9.43923e-06
1.47143e-05
1.06269e-05
1.22881e-05
1.11569e-05
9.84738e-06
1.10742e-05
7.17112e-06
1.0549e-05
4.28122e-06
9.82144e-06
1.50137e-06
9.12198e-06
-1.02973e-06
8.67054e-06
-3.36106e-06
8.65986e-06
-5.31474e-06
9.26077e-06
-6.53019e-06
1.03598e-05
-6.40784e-06
1.10411e-05
-4.61057e-06
1.01387e-05
2.38191e-06
3.44892e-06
2.56675e-05
-2.06361e-05
7.65735e-05
-4.63008e-05
0.000133068
-4.74969e-05
0.000154276
-4.49198e-05
0.000157206
-4.10252e-05
0.000149737
-3.59132e-05
0.000140747
-2.82815e-05
0.000126134
-2.34391e-05
0.00010139
-3.33095e-05
7.61219e-05
-5.029e-05
8.24549e-05
-4.8713e-05
9.29135e-05
-2.99999e-05
8.34197e-05
7.58343e-05
2.32416e-06
1.99205e-05
4.4032e-06
1.91979e-05
6.2725e-06
1.56299e-05
7.83526e-06
1.3181e-05
8.99135e-06
1.11609e-05
9.61303e-06
9.25406e-06
9.5939e-06
7.21812e-06
8.97262e-06
4.92989e-06
7.99527e-06
2.50578e-06
6.97205e-06
2.04215e-08
6.28001e-06
-2.64188e-06
6.21093e-06
-5.21771e-06
6.66344e-06
-6.95339e-06
7.51184e-06
-7.22498e-06
7.51436e-06
-4.57906e-06
5.04238e-06
4.89155e-06
-1.2637e-06
3.20216e-05
-2.7665e-05
0.000103046
-4.83869e-05
0.00015388
-5.51784e-05
0.000161162
-5.71767e-05
0.000159299
-5.65647e-05
0.000149216