/*--------------------------------*- C++ -*----------------------------------*\
| =========                 |                                                 |
| \\      /  F ield         | OpenFOAM: The Open Source CFD Toolbox           |
|  \\    /   O peration     | Version:  2.3.0                                 |
|   \\  /    A nd           | Web:      www.OpenFOAM.org                      |
|    \\/     M anipulation  |                                                 |
\*---------------------------------------------------------------------------*/
FoamFile
{
    version     2.0;
    format      ascii;
    class       volScalarField;
    location    "1.70015";
    object      rho;
}
// * * * * * * * * * * * * * * * * * * * * * * * * * * * * * * * * * * * * * //

dimensions      [1 -3 0 0 0 0 0];

internalField   nonuniform List<scalar> 
18816
(
550.775
664.838
764.106
689.654
539.409
529.717
542.127
537.531
545.658
548.953
551.071
552.214
560.573
582.419
603.275
622.929
637.995
650.064
659.4
668.46
678.428
687.297
689.572
674.79
656.908
624.427
582.568
557.391
595.55
920.814
975.271
922.832
598.996
545.361
576.241
566.435
573.248
572.103
571.284
579.531
612.787
636.474
652.565
667.341
683.504
703.118
723.211
743.388
759.39
768.95
770.734
754.628
727.379
698.862
636.523
579.022
618.764
947.985
978.324
881.932
640.76
583.446
599.474
599.346
605.205
604.773
611.939
614.765
640.186
664.816
687.262
715.803
742.731
759.917
768.404
772.356
774.226
775.354
773.736
765.892
748.856
727.923
673.824
593.094
629.103
948.433
977.534
893.152
652.534
598.949
599.937
605.754
605.392
611.112
624.435
649.765
665.849
703.342
771.697
873.669
963.193
995.069
998.509
981.983
959.459
934.05
898.787
855.498
818.619
763.225
696.868
600.061
639.616
940.183
972.108
897.598
666.321
599.065
601.169
605.377
603.98
611.897
629.882
663.266
685.19
738.143
821.501
920.077
989.561
1020.53
1026.59
1026.68
1025.59
1020.92
1005.63
967.634
909.579
816.836
716.53
605.224
654.604
927.141
963.845
899.694
653.057
582.382
591.628
604.805
603.311
611.873
631.775
675.334
720.828
791.001
852.358
903.382
958.478
1012.76
1025.67
1026.96
1027.06
1026.63
1023.12
1004.48
951.287
903.327
741.891
609.466
666.988
892.446
953.637
899.402
631.636
538.72
570.043
590.838
593.191
603.672
633.656
701.948
795.845
856.693
876.643
898.454
951.586
1002.55
1019.93
1026.13
1027.07
1026.93
1025.87
1019.88
984.866
926.884
762.942
612.93
664.011
861.004
940.935
912.788
623.535
538.72
553.57
565.932
573.315
588.201
641.291
750.289
846.336
865.062
875.212
900.315
943.197
976.722
1005.66
1023.31
1027.03
1027.01
1026.15
1022.41
998.587
922.106
771.553
615.102
660.209
799.099
921.792
941.811
628.512
538.72
547.249
550.065
559.908
573.006
638.62
753.052
844.096
853.898
860.305
896.363
925.21
934.848
980.394
1016.55
1026.96
1027.07
1026.25
1021.73
1000.58
926.562
772.623
616.512
668.702
747.427
857.976
977.534
640.232
539.569
547.365
548.971
559
573.182
629.708
734.865
816.01
827.575
824.627
859.621
888.657
890.425
937.705
1004.5
1026.82
1027.1
1026.44
1019.99
995.026
944.352
774.234
617.246
684.423
715.451
836.584
1004.21
658.62
540.351
546.742
548.094
549.503
603.873
627.134
718.895
767.708
791.683
785.34
811.658
845.844
815.111
867.373
987.925
1026.66
1027.11
1026.69
1018.88
976.065
956.405
779.721
617.394
690.073
693.414
890.097
1004.59
676.434
540.633
545.684
546.153
550.113
608.064
626.412
702.232
731.339
756.653
749.075
777.883
806.364
782.714
837.329
977.178
1026.55
1027.11
1026.85
1018.59
958.407
958.79
792.312
617.42
684.33
721.864
984.118
997.734
701.344
540.343
540.893
543.679
551.256
607.851
628.166
684.877
701.343
722.931
719.56
749.108
762.618
754.851
824.802
981.744
1026.52
1027.11
1026.95
1019.99
949.026
949.282
811.786
617.351
688.743
966.635
1018.65
978.579
710.248
541.243
532.198
538.295
554.61
610.856
634.128
669.247
677.39
695.525
700.049
721.632
713.316
749.791
874.693
1006.21
1026.94
1027.11
1027.02
1021.83
947.078
933.155
834.472
617.346
699.779
998.317
1013.76
945.484
704.409
544.044
527.915
536.437
561.835
613.196
632.222
649.711
654.948
672.986
676.605
677.457
691.9
831.752
966.969
1023.27
1027.1
1027.11
1027.06
1023.82
953.2
911.912
836.003
617.4
710.126
999.264
1009.41
904.699
689.166
544.945
526.789
537.702
566.86
614
627.515
636.152
649.503
638.808
655.416
709.175
842.757
976.07
1020.81
1026.98
1027.11
1027.11
1027.08
1025.31
970.762
868.805
827.851
617.513
717.692
999.137
1002.73
865.604
667.491
544.25
524.871
539.211
568.964
619.811
646.459
740.328
862.908
665.115
789.504
940.312
1008.6
1025.35
1027.05
1027.11
1027.11
1027.11
1027.09
1026.16
986.021
811.362
806.604
617.692
728.83
998.579
991.58
823.261
644.015
543.473
524.743
541.108
574.75
648.42
687.187
828.567
1011.59
930.14
1007.81
1024.84
1027
1027.11
1027.11
1027.11
1027.11
1027.11
1027.1
1026.67
1001.55
818.175
782.425
618.409
745.691
996.303
989.46
781.846
622.636
542.093
524.743
540.532
703.608
908.758
921.747
922.246
1027
1025.92
1027.05
1027.11
1027.11
1027.11
1027.11
1027.11
1027.11
1027.11
1027.11
1026.95
1017.7
919.075
769.781
619.207
762.423
986.94
998.538
776.452
599.817
540.745
524.743
573.925
971.546
1024.67
1023.94
1021.79
1027.11
1027.11
1027.11
1027.11
1027.11
1027.11
1027.11
1027.11
1027.11
1027.11
1027.11
1027.06
1022.21
963.9
767.354
620.796
775.947
974.863
1015.1
814.856
593.301
539.551
525.062
684.241
1026.51
1027.11
1027.1
1027.1
1027.11
1027.11
1027.11
1027.11
1027.11
1027.11
1027.11
1027.11
1027.11
1027.11
1027.11
1027.1
1023.74
976.605
768.973
622.806
781.56
964.421
1025.02
942.921
649.242
545.905
525.873
834.847
1022.52
1027.11
1027.11
1027.11
1027.11
1027.11
1027.11
1027.11
1027.11
1027.11
1027.11
1027.11
1027.11
1027.11
1027.11
1027.11
1024.72
983.538
771.04
624.791
781.791
967.84
1025.58
1019.76
896.141
733.906
707.761
1003.18
1027.01
1027.11
1027.11
1027.1
1027.11
1027.11
1027.11
1027.11
1027.11
1027.11
1027.11
1027.11
1027.11
1027.11
1027.11
1027.11
1025.53
989.285
773.284
626.602
781.126
982.698
1025.39
1026.24
1020.39
998.055
1002.95
1026.74
1027.11
1027.11
1027.1
1027.09
1027.11
1027.11
1027.11
1027.11
1027.11
1027.11
1027.11
1027.11
1027.11
1027.11
1027.11
1027.11
1026.29
992.214
775.208
628.091
783.028
1001.16
1025.1
1026.08
1026.12
1026.08
1026.6
1027.09
1027.11
1027.11
1027.1
1027.09
1027.11
1027.11
1027.11
1027.11
1027.11
1027.11
1027.11
1027.11
1027.11
1027.11
1027.11
1027.11
1026.87
993.316
778.371
629.213
788.126
1007.59
1024.55
1025.51
1026.02
1026.29
1026.86
1027.11
1027.11
1027.11
1027.11
1027.11
1027.11
1027.11
1027.11
1027.11
1027.11
1027.11
1027.11
1027.11
1027.11
1027.11
1027.11
1027.11
1027.07
994.635
782.104
630.088
796.838
1010.88
1024.23
1025.29
1026.03
1026.45
1027.02
1027.11
1027.11
1027.11
1027.11
1027.11
1027.11
1027.11
1027.11
1027.11
1027.11
1027.11
1027.11
1027.11
1027.11
1027.11
1027.11
1027.11
1027.11
1008.1
784.901
630.806
808.975
1011.24
1023.61
1025.24
1026.26
1026.83
1027.1
1027.11
1027.11
1027.11
1027.11
1027.11
1027.11
1027.11
1027.11
1027.11
1027.11
1027.11
1027.11
1027.11
1027.11
1027.11
1027.11
1027.11
1027.11
1025
783.322
630.565
583.408
763.729
813.743
722.553
567.057
541.336
538.096
531.31
532.688
535.682
547.904
571.687
602.241
636.501
672.071
704.894
732.442
754.948
771.786
785.737
798.162
807.77
809.865
795.976
775.292
735.926
672.065
553.821
679.659
945.105
972.584
900.406
635.089
531.504
532.213
554.01
566.19
601.382
666.227
727.916
781.898
819.481
845.125
867.185
887.26
908.443
925.643
937.378
946.728
951.983
952.698
944.509
925.301
903.277
825.261
634.968
727.182
960.783
956.071
780.684
612.325
531.507
571.494
600.487
601.302
636.882
694.778
762.917
795.103
804.146
804.98
808.626
824.371
843.873
860.112
874.364
887.666
899.66
907.036
909.698
892.222
900.882
859.112
679.397
740.241
954.106
934.942
738.714
596.619
543.808
609.357
611.776
610.07
653.05
703.624
747.718
777.186
793.737
830.413
902.256
975.228
1002.51
1005.89
996.803
986.26
975.405
959.901
937.593
903.701
882.325
851.415
691.75
747.282
933.357
920.762
713.606
586.112
562.385
637.068
621.708
621.084
667.104
704.42
731.137
764.037
802.596
860.786
945.988
1000.63
1022.4
1026.44
1026.6
1026.47
1025.17
1021.56
1010.09
980.076
885.62
837.875
702.535
749.292
917.409
915.435
715.695
597.199
596.733
658.699
622.422
631.333
674.09
699.333
716.392
768.735
815.725
863.4
920.882
976.304
1011.32
1023.8
1026.58
1027.08
1027
1025.93
1020.08
1002.31
951.561
840.736
707.078
752.819
898.449
914.269
740.113
616.22
646.347
687.716
639.995
654.778
683.729
691.264
725.913
810.684
863.373
890.075
920.493
959.916
986.895
1014.79
1024.18
1027.06
1027.09
1026.52
1021.43
1007.27
981.822
849.174
708.775
749.598
876.793
913.693
790.516
629.327
647.782
686.318
662.559
677.544
696.19
693.693
756.536
861.517
889.823
901.12
912.73
932.15
952.798
999.895
1019.09
1026.99
1027.1
1026.74
1020.24
1000.74
983.343
854.703
709.842
750.314
835.635
911.991
821.744
638.352
643.564
676.473
672.523
676.002
695.573
708.748
786.383
860.128
877.673
890.613
903.683
910.189
922.272
975.196
1010.5
1026.85
1027.11
1026.9
1018.69
985.987
988.235
853.133
711.094
767.098
815.601
886.451
867.88
648.162
640.073
674.801
671.952
665.877
690.685
721.38
780.156
837.001
844.491
841.211
875.318
878.311
873.18
927.282
998.186
1026.67
1027.11
1027.02
1019.4
975.236
992.405
848.83
712.656
792.3
802.949
853.003
935.9
661.502
637.6
671.85
659.961
637.525
718.221
727.542
783.193
806.73
812.357
791.821
829.148
850.158
819.219
863.102
983.653
1026.49
1027.11
1027.09
1022.07
968.991
990.424
847.704
714.652
824.015
757.302
886.861
956.713
673.82
636.795
667.333
643.841
625.609
715.176
729.016
776.713
778.935
785.648
757.537
808.582
838.473
812.214
848.9
974.626
1026.39
1027.11
1027.11
1023.98
966.518
981.165
850.879
716.715
809.979
750.986
971.33
948.07
686.529
636.076
658.911
633.103
620.358
708.801
732.726
758.554
745.184
752.221
738.288
778.115
799.029
789.83
843.056
986.362
1026.58
1027.11
1027.11
1025.48
966.58
972.731
861.411
718.617
780.193
965.439
960.724
925.556
699.263
634.905
648.168
626.454
623.492
714.72
731.776
740.899
731.968
729.325
734.802
760.948
748.078
789.917
897.93
1009.63
1026.96
1027.11
1027.11
1026.42
975.742
964.079
877.91
719.594
762.484
995.016
923.676
889.7
698.748
632.792
639.742
623.482
629.576
708.668
720.427
718.785
729.572
716.131
721.928
719.3
735.388
866.639
978.246
1024.06
1027.1
1027.11
1027.11
1026.84
990.74
946.611
890.193
719.537
752.487
993.464
920.424
846.702
693
629.319
631.298
618.215
632.344
709.389
724.831
727.034
785.475
683.931
706.32
770.881
879.079
988.27
1022.04
1027.01
1027.11
1027.11
1027.11
1026.98
1001.35
907.832
889.595
719.209
746.974
996.12
925.012
809.793
681.648
621.381
617.486
609.251
640.446
749.074
788.146
863.54
917.124
724.473
848.798
976.66
1017.14
1026.03
1027.06
1027.11
1027.11
1027.11
1027.11
1027.05
1008.2
873.227
881.135
719.821
747.405
1000.01
927.312
777.246
667.057
613.199
608.38
608.784
650.887
757.788
803.79
883.493
1019.98
985.657
1016.97
1025.98
1027.06
1027.11
1027.11
1027.11
1027.11
1027.11
1027.11
1027.09
1017.82
887.989
869.392
721.628
751.068
1001.48
934.128
753.448
652.607
609.784
605.957
614.195
759.533
962.118
969.995
937.972
1027.07
1026.79
1027.09
1027.11
1027.11
1027.11
1027.11
1027.11
1027.11
1027.11
1027.11
1027.11
1026.18
984.782
862.7
721.43
758.155
1001.63
954.661
751.728
633.621
605.349
602.101
658.441
986.811
1026.32
1025.58
1023.3
1027.11
1027.11
1027.11
1027.11
1027.11
1027.11
1027.11
1027.11
1027.11
1027.11
1027.11
1027.11
1026.94
1010.73
868.421
720.219
770.345
998.353
986.478
775.079
608.619
587.131
593.923
747.139
1026.42
1027.11
1027.11
1027.1
1027.11
1027.11
1027.11
1027.11
1027.11
1027.11
1027.11
1027.11
1027.11
1027.11
1027.11
1027.11
1027.03
1014.86
877.887
720.265
789.209
985.185
1016.47
872.839
641.375
570.069
562.606
840.03
1021.62
1027.1
1027.08
1027.08
1027.11
1027.11
1027.11
1027.11
1027.11
1027.11
1027.11
1027.11
1027.11
1027.11
1027.11
1027.11
1027.07
1017.24
885.893
720.55
818.054
981.493
1025.39
987.32
831.75
706.94
703.806
997.419
1026.98
1027.04
1026.91
1026.97
1027.09
1027.11
1027.11
1027.11
1027.11
1027.11
1027.11
1027.11
1027.11
1027.11
1027.11
1027.11
1027.1
1019.04
891.058
721.203
847.994
985.999
1025.55
1024
1000.85
969.305
988.389
1026.56
1027.1
1027
1026.8
1026.94
1027.06
1027.11
1027.1
1027.11
1027.11
1027.11
1027.11
1027.11
1027.11
1027.11
1027.11
1027.11
1027.11
1020.31
894.188
722.245
855.968
1000.56
1025.53
1026.02
1026.06
1025.71
1026.71
1027.05
1027.08
1026.98
1026.78
1027.05
1027.06
1027.1
1027
1027.08
1027.11
1027.11
1027.11
1027.11
1027.11
1027.11
1027.11
1027.11
1027.11
1022.05
893.557
723.225
855.831
1014.2
1025.43
1026.05
1026.63
1026.89
1026.96
1027
1027.07
1027.1
1027.1
1027.11
1027.11
1027.11
1026.72
1027
1027.11
1027.11
1027.11
1027.11
1027.11
1027.11
1027.11
1027.11
1027.11
1024.62
891.918
724.273
853.518
1019.09
1025.55
1025.99
1026.53
1026.82
1026.81
1026.95
1027.07
1027.11
1027.11
1027.11
1027.11
1027.11
1026.61
1026.97
1027.11
1027.11
1027.11
1027.11
1027.11
1027.11
1027.11
1027.11
1027.11
1026.54
889.616
724.858
851.306
1021.37
1026.09
1026.16
1026.37
1026.52
1026.7
1027.07
1027.11
1027.11
1027.11
1027.11
1027.11
1027.11
1027.08
1027.1
1027.11
1027.11
1027.11
1027.11
1027.11
1027.11
1027.11
1027.11
1027.11
1027.09
884.191
725.153
624.082
812.181
840.515
753.006
598.554
544.638
557.335
571.254
585.453
605.35
628.478
656.938
690.117
723.623
755.908
785.27
809.681
829.471
843.818
855.27
865.105
872.366
873.585
862.363
844.153
811.687
755.018
607.123
745.048
954.245
957.668
894.327
695.342
542.367
670.33
739.317
754.808
783.015
830.047
871.072
907.356
929.425
947.11
961.765
974.3
986.028
994.745
1001.11
1005.98
1008.88
1009.6
1007.03
997.867
984.784
934.864
742.896
796.098
942.385
912.556
803.726
678.144
607.6
802.301
862.556
864.575
873.306
887.097
898.215
905.98
909.843
897.275
889.828
896.081
919.943
938.46
953.354
965.179
974.17
979.085
980.531
968.362
980.689
968.43
801.952
813.02
914.938
891.491
770.607
693.014
684.809
855.676
871.962
865.491
865.292
876.918
887.615
885.357
881.897
891.765
946.046
993.756
1011.89
1013.89
1012.07
1010.72
1010.17
1008.14
1003.57
989.47
958.799
960.757
824.19
823.791
899.593
878.644
756.688
711.632
752.29
881.608
873.896
867.76
869.283
872.098
866.557
860.583
864.578
912.923
970.49
1007.21
1021.87
1026.23
1026.82
1026.95
1026.79
1025.65
1021.82
1016.07
957.329
946.093
838.719
823.529
889.667
874.769
753.363
728.212
803.491
878.33
870.479
866.804
868.998
852.828
829.511
827.162
864.108
902.38
939.24
973.602
1001.28
1022.7
1026.52
1027.09
1027.08
1026.09
1019.5
1009.59
1005.08
947.377
845.656
825.376
882.119
878.533
755.915
720.187
797.105
864.77
860.548
858.713
855.853
817.63
792.994
846.574
889.087
908.335
922.144
940.513
967.456
1016.51
1024.95
1027.06
1027.11
1026.55
1018.41
1000.5
1010.44
951.714
849.281
823.095
870.476
889.947
761.162
705.033
783.343
846.738
835.133
833.214
829.922
807.289
802.687
884.368
902.113
902.242
899.596
905.635
945.247
1009.89
1022.6
1026.97
1027.11
1026.91
1019.97
995.446
1008.15
953.242
851.84
823.365
855.907
905.524
781.076
694.328
763.526
827.178
816.516
813.293
807.776
801.82
821.399
881.013
888.5
891.439
894.45
894.727
931.35
1000.69
1019.19
1026.86
1027.11
1027.05
1021.98
993.299
1000.57
951.013
853.824
835.39
855.904
896.622
821.215
695.89
747.87
818.121
806.992
785.315
779.348
786.878
811.978
856.326
848.384
832.529
861.461
863.234
887.582
976.136
1013.24
1026.72
1027.11
1027.09
1023.82
992.415
992.845
944.895
855.427
876.379
856.422
872.555
872.913
701.569
741.173
807.364
778.722
731.428
804.971
790.579
829.18
829.544
824.747
831.922
863.927
869.78
898.234
926.395
1007.95
1026.61
1027.11
1027.11
1025.38
992.022
984.681
935.843
856.809
925.526
824.244
890.239
889.737
707.939
740.955
796.278
746.504
704.001
800.062
796.732
827.43
813.89
828.023
851.505
916.457
931.668
933.59
957.057
1002.18
1026.55
1027.11
1027.11
1026.31
992.682
977.153
930.509
857.977
921.668
783.68
939.456
882.916
714.168
740.631
783.923
721.966
688.203
790.347
803.136
817.666
825.412
820.033
849.808
891.408
905.181
926.627
946.003
1003.8
1026.75
1027.11
1027.11
1026.82
998.412
968.708
931.064
859.076
890.336
956.214
888.005
864.959
723.204
739.107
769.561
704.172
688.287
804.256
823.969
836.947
868.189
831.744
881.554
912.202
900.831
932.559
973
1018.57
1027.03
1027.11
1027.11
1027.01
1006.17
955.804
934.416
859.271
852.364
941.448
844.483
838.918
727.493
734.551
753.572
693.482
692.461
823.216
846.241
851.498
890.68
823.901
891.913
875.259
874.439
946.882
1004.92
1025.77
1027.11
1027.11
1027.11
1027.07
1012.03
937.315
940.072
859.188
820.294
919.637
826.655
810.82
726.588
726.182
735.111
680.372
700.945
855.934
883.244
868.519
939.932
777.264
912.269
907.293
944.893
1007.44
1024.65
1027.07
1027.11
1027.11
1027.11
1027.09
1015.91
923.816
943.578
858.875
793.766
922.743
818.777
786.536
720.216
710.4
711.177
665.002
732.079
936.521
957.186
978.097
992.092
899.744
949.508
1012.79
1023.89
1026.69
1027.09
1027.11
1027.11
1027.11
1027.11
1027.1
1019.28
922.972
941.109
859.144
783.633
935.167
815.207
764.984
713.239
699.726
692.45
665.898
758.7
918.77
940.265
940.209
1025.7
1018.96
1023.74
1026.81
1027.1
1027.11
1027.11
1027.11
1027.11
1027.11
1027.11
1027.11
1024.62
965.62
935.848
859.678
786.047
949.226
818.366
745.467
706.449
695.803
684.132
671.165
828.855
1005.99
1009.02
980.36
1027.11
1027.08
1027.11
1027.11
1027.11
1027.11
1027.11
1027.11
1027.11
1027.11
1027.11
1027.11
1027.03
1015.33
934.054
858.929
794.642
964.371
835.075
727.589
691.678
687.493
676.212
713.718
1003.4
1026.95
1026.8
1025.99
1027.11
1027.11
1027.11
1027.11
1027.11
1027.11
1027.11
1027.11
1027.11
1027.11
1027.11
1027.11
1027.11
1021.98
938.252
856.884
814.712
977.171
874.437
728.83
645.283
657.996
663.125
796.122
1026.41
1027.07
1027.07
1027.1
1027.11
1027.11
1027.11
1027.11
1027.11
1027.11
1027.11
1027.11
1027.11
1027.11
1027.11
1027.11
1027.11
1022.88
945.553
855.163
850.834
986.842
933.937
774.587
643.839
603.64
613.69
851.699
1021.42
1026.99
1026.82
1026.98
1027.09
1027.11
1027.11
1027.11
1027.11
1027.11
1027.11
1027.11
1027.11
1027.11
1027.11
1027.11
1027.11
1023.67
952.193
854.605
902.693
990.896
983.691
873.139
746.289
682.408
707.775
995.569
1026.88
1026.28
1025.37
1026.68
1026.95
1027.09
1027.11
1027.11
1027.11
1027.11
1027.11
1027.11
1027.11
1027.11
1027.11
1027.11
1027.11
1024.75
957.725
854.984
938.806
993.199
999.664
967.792
922.898
913.983
968.313
1026.2
1026.79
1025.75
1024.53
1026.65
1026.82
1026.96
1026.81
1027.08
1027.11
1027.11
1027.11
1027.11
1027.11
1027.11
1027.11
1027.11
1027.11
1025.84
961.246
855.786
942.045
998.013
1002.76
1001.72
1007.17
1017.94
1025.21
1026.53
1026.42
1025.27
1024.28
1026.99
1026.81
1026.78
1023.31
1026.36
1027.09
1027.11
1027.11
1027.11
1027.11
1027.11
1027.11
1027.11
1027.11
1026.65
963.705
856.793
939.75
1007.9
1006.31
1011.81
1019.66
1024.27
1025.76
1025.69
1026.43
1026.85
1026.92
1027.1
1027.1
1027.03
1017.01
1024.29
1027.05
1027.11
1027.11
1027.11
1027.11
1027.11
1027.11
1027.11
1027.11
1027.01
963.49
857.934
932.368
1017.52
1008.44
1013.45
1019.28
1023.46
1024.33
1023.77
1026.58
1027.06
1027.04
1027.11
1027.11
1027.1
1016.1
1023.12
1027.04
1027.11
1027.11
1027.11
1027.11
1027.11
1027.11
1027.11
1027.11
1027.1
962.631
858.99
917.333
1021.59
1013.4
1015.06
1016.27
1017.79
1019.07
1025.58
1027.08
1027.11
1027.11
1027.11
1027.11
1027.11
1026.26
1026.89
1027.11
1027.11
1027.11
1027.11
1027.11
1027.11
1027.11
1027.11
1027.11
1027.11
959.748
860.175
639.103
823.89
839.824
770.066
621.455
531.919
570.931
601.305
625.772
656.094
687.062
717.392
749.811
780.51
809.39
835.147
856.217
873.036
884.964
894.355
901.847
907.097
907.621
898.456
883.485
856.627
806.272
639.084
770.033
945.366
934.01
890.217
731.994
569.821
760.148
843.256
858.502
883.174
917.942
944.715
967.01
981.128
992.326
1000.9
1007.7
1013.24
1016.91
1019.55
1021.48
1022.41
1022.69
1022.26
1019.42
1014.27
989.338
790.729
820.043
912.065
885.699
818.479
729.04
683.63
902.123
950.232
947.538
952.01
956.733
959.229
960.934
960.393
945.778
938.42
940.456
965.456
979.263
990.829
1000.16
1007.43
1011
1011.7
1004.27
1008.86
1004.65
851.674
837.512
895.903
871.813
797.849
753.315
781.44
939.475
949.508
947.373
950.053
951.067
950.543
939.86
934.687
936.425
977.632
1005.83
1016.91
1020.11
1021.65
1022.8
1023.72
1023.71
1021.17
1017
992.852
996.25
875.195
849.419
889.752
863.805
794.513
775.926
842.179
950.047
950.347
948.702
949.077
941.967
929.123
916.505
915.657
946.562
979.81
1003.06
1019.02
1025.78
1026.99
1027.08
1027.06
1026.28
1022
1014.97
1005.35
994.834
889.086
852.78
883.877
860.785
794.394
798.579
887.302
951.767
949.862
946.585
938.897
917.072
891.09
877.033
896.841
917.348
929.538
948.111
986.978
1020.78
1026.81
1027.09
1027.1
1026.64
1021.38
1010.75
1011.22
995.644
897.314
855.073
878.675
869.299
789.347
795.344
886.78
947.676
948.308
938.853
915.141
880.268
856.794
880.977
900.874
903.006
901.627
910.228
953.652
1014.65
1026.57
1027.05
1027.11
1026.98
1023.19
1008.89
1010.41
996.905
902.354
853.432
871.485
887.203
789.334
783.594
878.316
938.744
938.94
920.37
889.712
865.794
861.347
894.464
897.968
888.06
885.287
885.157
936.026
1010.47
1026.44
1026.99
1027.11
1027.08
1024.82
1008.02
1002.82
996.215
905.481
853.641
871.757
908.936
800.633
768.565
861.717
926.866
925.515
901.632
872.668
865
872.826
889.479
883.737
880.805
878.81
880.879
936.056
1009.3
1026.18
1026.91
1027.11
1027.11
1025.85
1007.64
993.912
994.07
907.256
865.596
877.615
907.884
827.552
767.413
849.098
919.382
914.381
872.889
845.46
847.789
859.133
865.545
848.331
864.354
857.905
854.489
933.9
1013.21
1025.13
1026.84
1027.11
1027.11
1026.46
1007.64
983.153
990.166
908.277
932.842
896.201
892.063
860.152
769.178
844.627
910.179
882.736
813.503
863.674
854.397
859.204
852.673
858.025
970.47
890.08
887.584
991.591
1005.96
1024.07
1026.78
1027.11
1027.11
1026.81
1008.59
972.22
984.36
908.846
953.153
866.702
898.569
865.855
769.274
844.093
900.098
843.171
771.564
866.52
859.762
856.04
899.145
880.084
1011.78
1004.89
1004.97
1019.99
1022.89
1022.17
1026.75
1027.11
1027.11
1026.99
1011.16
962.793
977.924
909.295
951.643
806.704
902.694
861.801
767.655
843.025
887.829
809.061
754.272
873.428
878.694
888.617
992.366
952.431
1016.8
1019.72
1018.66
1021.35
1021.28
1021.45
1026.88
1027.11
1027.11
1027.07
1014.85
954.646
973.719
909.544
944.043
940.575
870.794
850.437
767.837
839.871
871.795
782.305
757.657
933.816
952.394
954.306
1016.73
1006.3
1018.01
1017.43
1014.39
1019.74
1022.72
1025.43
1027.08
1027.11
1027.11
1027.09
1018.29
947.905
970.164
909.673
916.568
893.896
841.98
832.78
769.13
833.335
851.782
766.201
781.877
990.551
1002.75
1001.22
1015.34
991.905
1017.78
1010.65
1006.21
1017.47
1025.06
1026.9
1027.11
1027.11
1027.11
1027.1
1020.85
945.78
968.483
909.6
878.23
870.497
824.902
813.719
771.858
822.516
828.085
744.381
804.691
998.628
1010.49
992.804
1017.99
951.817
1018.17
1005.49
1009.12
1024.35
1026.83
1027.11
1027.11
1027.11
1027.11
1027.11
1022.88
949.725
968.336
909.647
838.057
862.851
811.752
799.726
771.418
801.917
797.649
735.44
850.33
1017.98
1018.83
1015.54
1024.95
1015.46
1017.85
1025.21
1026.32
1027.04
1027.11
1027.11
1027.11
1027.11
1027.11
1027.11
1024.87
973.08
965.795
910.024
815.87
860.472
798.259
788.678
771.595
790.719
780.894
750.449
900.607
1014.81
1019.08
1014.62
1027.07
1026.85
1026.7
1027.07
1027.11
1027.11
1027.11
1027.11
1027.11
1027.11
1027.11
1027.11
1026.73
1005.06
960.659
910.706
816.933
859.558
783.344
773.39
769.842
787.95
773.776
753.858
917.939
1024.91
1025.83
1020.16
1027.11
1027.11
1027.11
1027.11
1027.11
1027.11
1027.11
1027.11
1027.11
1027.11
1027.11
1027.11
1027.1
1022.86
958.179
910.888
827.406
864.213
774.135
752.374
758.723
777.702
763.449
773.851
1017.54
1027.07
1027.07
1026.94
1027.11
1027.11
1027.11
1027.11
1027.11
1027.11
1027.11
1027.11
1027.11
1027.11
1027.11
1027.11
1027.11
1025.18
960.81
910.474
859.785
879.676
777.907
725.242
706.482
740.762
740.296
831.766
1026.35
1026.88
1026.82
1027.02
1027.09
1027.11
1027.11
1027.11
1027.1
1027.11
1027.11
1027.11
1027.11
1027.11
1027.11
1027.11
1027.11
1025.8
965.929
910.564
917.052
910.337
796.42
727.233
657.184
649.564
667.985
866.839
1021.65
1026.51
1025.83
1026.68
1027.01
1027.1
1027.11
1027.11
1027.11
1027.11
1027.11
1027.11
1027.11
1027.11
1027.11
1027.11
1027.11
1026.43
971.584
910.975
960.282
948.851
828.739
761.374
695.716
675.945
720.244
997.59
1026.42
1022.55
1019.35
1025.62
1026.51
1026.83
1027.08
1027.11
1027.11
1027.11
1027.11
1027.11
1027.11
1027.11
1027.11
1027.11
1027.11
1026.86
977.806
911.83
971.593
974.629
860.699
818.012
805.1
843.919
947.094
1025.12
1024.75
1018.4
1015.31
1025.37
1026.18
1025.67
1025.37
1026.89
1027.06
1027.11
1027.11
1027.11
1027.11
1027.11
1027.11
1027.11
1027.11
1027.03
983.363
913.02
972.278
983.566
889.756
869.736
911.859
989.975
1019
1024.01
1022
1013.76
1014.77
1026.56
1026.2
1024.27
1011.35
1023.31
1026.86
1027.11
1027.11
1027.11
1027.11
1027.11
1027.11
1027.11
1027.11
1027.09
987.967
914.366
971.814
989.151
926.144
924.318
977.797
1013.03
1018.54
1021.22
1022.62
1024.49
1025.46
1027.03
1027.07
1026.12
990.173
1012.73
1026.59
1027.11
1027.11
1027.11
1027.11
1027.11
1027.11
1027.11
1027.11
1027.11
990.933
915.789
969.152
995.538
955.883
962.895
993.836
1010.48
1014.05
1010.23
1024.23
1026.7
1026.35
1027.09
1027.11
1027.03
979.131
1004.65
1026.53
1027.11
1027.11
1027.11
1027.11
1027.11
1027.11
1027.11
1027.11
1027.11
992.351
917.135
957.437
1002.13
972.276
979.637
988.894
989.906
994.544
1011.51
1026.93
1027.11
1027.1
1027.11
1027.11
1027.11
1020.96
1025.38
1027.09
1027.11
1027.11
1027.11
1027.11
1027.11
1027.11
1027.11
1027.11
1027.11
992.135
918.575
646.198
823.296
834.698
775.45
639.25
531.904
590.558
643.013
671.307
703.917
735.498
763.836
793.277
820.311
845.483
867.934
886.037
900.153
910.035
917.752
923.409
927.124
927.33
919.372
906.753
883.374
838.983
663.992
781.538
932.174
913.557
886.855
751.062
611.285
838.736
923.996
935.189
951.742
971.853
985.613
996.965
1004.8
1010.65
1015.06
1018.31
1020.62
1022.03
1023.29
1024.59
1025.31
1025.5
1024.8
1022.54
1020.66
1009.62
814.887
830.161
900.307
874.929
830
761.769
739.699
954.36
989.248
986.973
986.591
986.672
986.689
986.842
978.251
968.866
964.106
968.32
989.825
1001.71
1011.6
1018.34
1022.28
1023.51
1023.01
1018.82
1017.36
1015.86
871.596
848.542
893.633
865.617
814.929
784.139
834.718
976.356
987.292
984.658
983.038
979.779
974.653
966.183
961.542
968.401
995.683
1012.14
1019.82
1023.7
1025.65
1026.34
1026.65
1026.45
1023.93
1018.72
1011.2
1012.58
894.946
861.543
890.161
861.285
816.039
807.174
886.107
979.825
985.382
979.453
971.037
959.424
947.901
940.23
939.539
957.398
974.396
992.148
1014.45
1025.25
1027.07
1027.1
1027.11
1026.88
1024.08
1016.23
1013.41
1010.78
908.486
867.764
887.47
860.446
817.341
823.2
910.261
977.228
980.487
964.401
944.171
924.517
909.169
901.098
906.424
911.519
911.961
931.055
980.425
1018.72
1027.05
1027.09
1027.11
1027.06
1025.41
1015.76
1009.71
1008.25
916.86
871.45
885.169
872.598
815.643
832.308
921.076
971.905
971.203
940.813
914.706
897.074
888.987
898.225
902.378
895.681
893.505
899.905
948.249
1010.92
1027.06
1027.07
1027.11
1027.1
1026.19
1015.83
1003.34
1006.02
921.989
870.565
881.316
894.056
817.134
829.998
919.622
965.493
958.093
921.053
899.882
891.615
889.839
895.951
888.271
882.526
882.662
879.413
924.312
1004.15
1027.07
1027.04
1027.11
1027.11
1026.59
1015.84
996.288
1004.52
924.822
870.79
883.417
921.026
825.374
824.072
914.755
958.572
947.053
910.408
893.544
890.841
892.276
888.983
872.743
867.793
870.521
872.987
921.222
1001.09
1027.05
1027.03
1027.11
1027.11
1026.83
1015.83
987.676
1003.18
926.085
883.993
896.218
926.583
846.623
823.562
910.24
952.769
937.847
896.597
873.665
871.705
882.422
865.286
850.353
826.879
841.21
845.965
930.686
1005.52
1026.98
1027.02
1027.11
1027.11
1026.98
1016.81
977.107
1001.25
926.527
954.463
928.994
910.315
866.109
824.14
908.071
946.925
921.016
857.734
884.276
1001.51
860.995
1027.04
883.131
1027.08
880.131
879.837
1027.08
1006.09
1026.87
1027.03
1027.11
1027.11
1027.06
1018.27
967.242
998.072
926.551
939.746
893.439
907.907
867.045
823.586
906.949
941.027
898.15
817.669
1027.11
1027.09
1027.11
1027.1
1027.11
1027.11
1027.11
1027.11
1027.11
1027.11
1026.65
1027.05
1027.11
1027.11
1027.09
1020.35
960.554
993.557
926.63
918.03
823.958
901.63
864.185
821.354
905.364
934.28
869.461
782.45
1026.99
1027.09
1027.01
1027.1
1027.1
1027.11
1027.1
1027.1
1027.11
1027.09
1026.54
1027.08
1027.11
1027.11
1027.11
1022.29
958.11
988.958
926.774
937.824
925.375
876.59
856.417
816.759
902.213
925.351
840.675
767.535
1027.11
1027.11
1027.11
1027.11
1027.11
1027.11
1027.11
1027.11
1027.11
1027.11
1026.99
1027.11
1027.11
1027.11
1027.11
1023.9
958.701
983.858
926.961
931.464
876.08
857.882
844.956
814.906
896.712
912.26
815.96
772.979
1027.07
1027.1
1027.08
1027.1
1027.08
1027.1
1027.09
1027.09
1027.1
1027.11
1027.1
1027.11
1027.11
1027.11
1027.11
1025.09
968.214
980.643
927.173
907.658
862.166
846.649
833.783
817.446
887.382
890.845
791.104
790.682
1027.11
1027.11
1027.11
1027.1
1027.11
1027.1
1027.11
1027.11
1027.11
1027.11
1027.11
1027.11
1027.11
1027.11
1027.11
1025.97
985.203
978.461
927.566
866.073
852.19
837.553
827.694
820.114
870.651
862.847
789.523
832.766
1027.11
1027.11
1027.11
1027.11
1027.11
1027.1
1027.11
1027.11
1027.11
1027.11
1027.11
1027.11
1027.11
1027.11
1027.11
1026.7
1003.12
973.95
928.321
838.702
842.033
826.469
823.673
825.838
860.3
843.746
805.638
888.55
1027.09
1027.1
1027.09
1027.11
1027.11
1027.11
1027.11
1027.11
1027.11
1027.11
1027.11
1027.11
1027.11
1027.11
1027.11
1027.06
1018.87
968.639
929.35
839.399
829.613
809.86
814.021
829.758
857.13
837.906
820.801
919.91
1027.11
1027.11
1027.11
1027.11
1027.11
1027.11
1027.11
1027.11
1027.11
1027.11
1027.11
1027.11
1027.11
1027.11
1027.11
1027.11
1025.37
964.979
930.328
858.728
818.41
791.148
793.41
823.046
848.151
829.943
829.585
1018.42
1027.11
1027.11
1027.11
1027.11
1027.11
1027.11
1027.11
1027.11
1027.11
1027.11
1027.11
1027.11
1027.11
1027.11
1027.11
1027.11
1026.61
966.617