/*--------------------------------*- C++ -*----------------------------------*\
| =========                 |                                                 |
| \\      /  F ield         | OpenFOAM: The Open Source CFD Toolbox           |
|  \\    /   O peration     | Version:  2.3.0                                 |
|   \\  /    A nd           | Web:      www.OpenFOAM.org                      |
|    \\/     M anipulation  |                                                 |
\*---------------------------------------------------------------------------*/
FoamFile
{
    version     2.0;
    format      ascii;
    class       volScalarField;
    location    "1";
    object      alpha.water;
}
// * * * * * * * * * * * * * * * * * * * * * * * * * * * * * * * * * * * * * //

dimensions      [0 0 0 0 0 0 0];

internalField   nonuniform List<scalar> 
2268
(
1
1
1
1
1
1
1
1
1
1
0.999999
0.999997
0.998875
0.980328
0.971841
0.971841
0.971841
0.971855
0.971981
0.974066
0.973992
0.987192
0.998954
1
1
1
1
1
1
1
1
1
1
0.999999
0.999996
0.999992
0.999998
0.997496
0.993154
0.991607
0.993301
0.99834
1
1
0.997021
0.998934
1
1
1
1
1
1
1
1
1
1
1
1
1
1
1
1
1
1
1
1
1
0.999999
0.999647
1
1
1
1
1
1
1
1
1
1
1
1
1
1
1
1
1
1
1
1
0.999986
0.999826
0.999747
1
1
1
1
1
1
1
1
1
1
1
1
1
1
1
1
1
1
0.999999
0.999998
0.999973
0.999651
0.999628
1
1
1
1
1
1
1
1
1
1
1
1
1
1
1
0.999999
0.999998
0.999997
0.999992
0.99998
0.999928
0.999704
0.999649
1
1
1
1
1
1
1
1
1
1
1
1
0.999999
0.999998
0.999991
0.999987
0.999969
0.999959
0.999898
0.999757
0.999582
0.997631
0.999661
1
1
1
1
1
1
1
1
1
1
0.999999
0.999998
0.999988
0.999945
0.999828
0.999662
0.999562
0.99385
0.982109
0.963322
0.928418
0.976703
0.999661
0.991989
0.992518
0.996801
0.996801
0.996726
0.996557
0.995905
0.994721
0.994083
0.993923
0.956705
0.907834
0.907834
0.907853
0.921967
0.935558
0.93613
0.936913
0.941144
0.988645
0.995323
0.996801
0.99679
0.99059
0.991527
0.993003
0.992416
0.993923
0.984309
0.948065
0.907834
0.907853
0.908148
0.908734
0.909172
0.909616
0.939115
0.950821
0.98876
0.995348
0.996659
0.929009
0.723786
0.665402
0.629689
0.632238
0.887051
0.947387
0.954971
0.954217
0.953801
0.945674
0.929224
0.940187
0.949469
0.950821
0.950821
0.990074
0.993989
0.979346
0.650513
0.384303
0.335997
0.269635
0.225372
0.414519
0.947332
0.954971
0.954761
0.954125
0.953613
0.952665
0.947907
0.944462
0.949247
0.911651
0.98978
0.991578
0.966231
0.561587
0.328792
0.287969
0.259513
0.207281
0.204218
0.502005
0.954761
0.954125
0.953613
0.934955
0.796946
0.696114
0.690858
0.729514
0.79878
0.989593
0.989249
0.923306
0.50314
0.39216
0.495885
0.506656
0.498174
0.196738
0.129023
0.686663
0.896643
0.764931
0.389746
0.156873
0.0957137
0.10185
0.156825
0.183667
0.988971
0.988767
0.795982
0.192845
0.314401
0.397531
0.480362
0.59133
0.575381
0.11172
0.136986
0.297909
0.147771
0.0624053
0.0624006
0.0624492
0.0630569
0.0639963
0.0644941
0.989407
0.988333
0.659646
0.108632
0.115863
0.12214
0.206876
0.609716
0.59133
0.115996
0.0662782
0.0662018
0.0624127
0.0623991
0.0624132
0.0630178
0.0643073
0.0644941
0.0646559
1
1
1
1
1
1
1
1
1
1
0.999993
0.999966
0.999799
0.995279
0.922018
0.766534
0.636426
0.57007
0.519466
0.487997
0.710811
0.983879
0.999659
1
1
1
1
1
1
1
1
0.999999
0.999995
0.99989
0.993324
0.893281
0.607243
0.315932
0.16177
0.0913654
0.0649575
0.0637356
0.121063
0.782396
0.99949
0.9996
1
1
1
1
1
1
1
0.999998
0.999983
0.997082
0.901319
0.54673
0.17088
0.111886
0.109809
0.066328
0.0527283
0.0514854
0.0555278
0.305736
0.953743
0.999362
0.999484
1
1
1
1
1
0.95557
0.882984
0.78556
0.623234
0.36075
0.162668
0.120064
0.118818
0.147824
0.125496
0.053774
0.050858
0.0489849
0.0503611
0.308617
0.942693
0.999175
0.99915
0.974755
0.945097
0.857539
0.713651
0.51521
0.338189
0.204604
0.110204
0.0594764
0.0660685
0.185157
0.20062
0.200542
0.200433
0.199884
0.168888
0.0489849
0.0470389
0.0450929
0.0661642
0.573097
0.997992
0.996601
0.338136
0.289197
0.175413
0.0703455
0.0150174
0.00344947
0.00341596
0.00451286
0.00830069
0.0575265
0.201504
0.201104
0.200747
0.200468
0.198672
0.19593
0.117197
0.0450929
0.0431014
0.0411099
0.0887647
0.696523
0.993605
0.00129141
0.00127198
0.00131737
0.00097587
0.00076163
0.000752535
0.000935617
0.00145239
0.00387457
0.0322196
0.0507351
0.0500663
0.0632184
0.158251
0.195184
0.188918
0.184163
0.0794667
0.0411099
0.04014
0.0364941
0.0369302
0.507876
0.000160977
0.000173469
0.000187076
0.000164341
0.000157385
0.000193232
0.000281167
0.000567516
0.00135448
0.00221201
0.000344961
0.000202462
0.000190619
0.000430861
0.016142
0.122269
0.171885
0.160104
0.0973486
0.038775
0.034146
0.0336139
0.0323094
2.65103e-05
2.82144e-05
3.42727e-05
3.2745e-05
3.41415e-05
4.60551e-05
7.70095e-05
0.000139948
0.000182116
0.000144878
6.07675e-05
2.88534e-05
4.40485e-05
0.000123432
9.81757e-05
0.00046334
0.0355146
0.120379
0.125309
0.118201
0.0888201
0.0397474
0.0317221
4.45645e-06
4.81031e-06
6.14329e-06
6.30879e-06
7.18295e-06
1.06726e-05
1.85905e-05
3.18888e-05
4.30489e-05
3.63351e-05
1.72762e-05
7.1236e-06
4.82517e-06
4.26004e-06
2.55909e-06
1.08087e-05
5.23624e-05
0.000173348
0.0691614
0.111594
0.107933
0.105288
0.105288
8.03676e-07
8.76412e-07
1.1545e-06
1.23618e-06
1.51995e-06
2.40575e-06
4.35494e-06
7.76424e-06
1.04052e-05
9.15969e-06
4.65686e-06
1.93497e-06
9.62796e-07
6.25436e-07
3.2188e-07
-2.85423e-07
-9.82121e-06
9.50664e-07
-0.000123161
0.00138777
0.0716476
0.104284
0.102807
1.50102e-07
1.66514e-07
2.2201e-07
2.42572e-07
3.13536e-07
5.15509e-07
9.66395e-07
1.75761e-06
2.36217e-06
2.11556e-06
1.22333e-06
5.36299e-07
2.42701e-07
1.31448e-07
6.72418e-08
2.41126e-08
2.48073e-08
-1.48568e-06
-6.93814e-07
-6.73031e-07
-4.98581e-05
-2.95418e-06
0.0528478
2.85818e-08
3.27156e-08
4.33428e-08
4.77367e-08
6.31222e-08
1.05185e-07
2.00286e-07
3.68705e-07
5.00798e-07
4.55832e-07
2.94428e-07
1.41219e-07
6.40173e-08
3.1102e-08
1.95081e-08
3.38432e-08
4.53153e-08
2.61522e-09
-1.34483e-11
-6.01929e-10
-5.21996e-09
3.14712e-10
4.25204e-20
5.75569e-09
6.87457e-09
8.80811e-09
9.62974e-09
1.2456e-08
2.05039e-08
3.90071e-08
7.19836e-08
9.86716e-08
9.09567e-08
6.40152e-08
3.36952e-08
1.64265e-08
8.18931e-09
7.09139e-09
1.17848e-08
2.25919e-08
2.28369e-08
1.47167e-08
3.03659e-09
2.24541e-09
1.60863e-09
4.5804e-10
1.37316e-09
1.70896e-09
2.0622e-09
2.21297e-09
2.54259e-09
3.8793e-09
7.19787e-09
1.31005e-08
1.80558e-08
1.6991e-08
1.2883e-08
7.47602e-09
4.45131e-09
2.8985e-09
2.92336e-09
3.25286e-09
3.4519e-09
6.46004e-09
6.39568e-09
6.64545e-09
6.6454e-09
4.34018e-09
1.82805e-09
3.95246e-10
5.16887e-10
5.90508e-10
6.18505e-10
6.85093e-10
8.72168e-10
1.27341e-09
2.2425e-09
3.0867e-09
3.19939e-09
2.60875e-09
1.68752e-09
1.42802e-09
1.33701e-09
1.31561e-09
1.34134e-09
1.21079e-09
1.32267e-09
1.36737e-09
1.35975e-09
1.00889e-09
6.34287e-10
6.36345e-10
2.17519e-10
2.76018e-10
2.7132e-10
2.61129e-10
2.29941e-10
2.26795e-10
3.01151e-10
4.53846e-10
6.26833e-10
6.54624e-10
5.42495e-10
5.50839e-10
6.11479e-10
6.32529e-10
6.13868e-10
6.12246e-10
5.98938e-10
5.76246e-10
5.70921e-10
5.16408e-10
4.04773e-10
2.99438e-10
2.38175e-10
9.72153e-11
1.28862e-10
1.24892e-10
1.16852e-10
1.04183e-10
9.23837e-11
8.21056e-11
9.22127e-11
1.1884e-10
1.23599e-10
1.77573e-10
2.3212e-10
2.56121e-10
2.60218e-10
2.57251e-10
2.56139e-10
2.54812e-10
2.47475e-10
2.35555e-10
2.11139e-10
1.78562e-10
1.42047e-10
1.11051e-10
2.87694e-11
3.80871e-11
3.64809e-11
3.19152e-11
2.87517e-11
2.71917e-11
2.63428e-11
2.80496e-11
3.43694e-11
4.27023e-11
5.82147e-11
7.03379e-11
7.69479e-11
7.72633e-11
7.76415e-11
8.12472e-11
8.30595e-11
7.90927e-11
6.65689e-11
5.86364e-11
4.89924e-11
4.15232e-11
3.68762e-11
1.50673e-11
1.35333e-11
1.27035e-11
1.30431e-11
1.16586e-11
1.0128e-11
8.23986e-12
8.87265e-12
8.96004e-12
9.93858e-12
1.05668e-11
1.08691e-11
1.09776e-11
1.25617e-11
1.3813e-11
1.43542e-11
1.46205e-11
1.77963e-11
1.90325e-11
1.81394e-11
1.72433e-11
1.62123e-11
1.5336e-11
8.38151e-12
9.05146e-12
8.48276e-12
8.04695e-12
7.12546e-12
6.5187e-12
6.10734e-12
5.55003e-12
5.5367e-12
6.06102e-12
6.38561e-12
7.06119e-12
7.75338e-12
7.82447e-12
7.90418e-12
7.90842e-12
7.77056e-12
7.76854e-12
7.65492e-12
7.423e-12
7.27747e-12
7.2293e-12
7.36705e-12
3.44206e-12
3.89679e-12
3.57763e-12
3.23733e-12
2.77759e-12
2.41082e-12
2.1275e-12
2.00694e-12
2.01797e-12
2.18306e-12
2.36067e-12
2.58074e-12
2.74209e-12
2.8756e-12
2.9882e-12
3.06182e-12
3.06804e-12
3.03838e-12
2.97151e-12
2.91041e-12
2.94223e-12
3.05895e-12
3.27758e-12
1.23561e-12
1.45979e-12
1.31408e-12
1.14303e-12
9.5277e-13
7.91602e-13
6.63291e-13
5.7471e-13
5.38984e-13
5.62651e-13
6.20663e-13
7.02464e-13
7.81443e-13
8.5276e-13
9.13105e-13
9.56035e-13
9.71766e-13
9.63714e-13
9.42273e-13
9.33671e-13
9.72352e-13
1.05453e-12
1.19774e-12
3.90292e-13
4.79866e-13
4.23176e-13
3.55543e-13
2.8796e-13
2.29979e-13
1.83567e-13
1.48008e-13
1.27292e-13
1.23348e-13
1.3329e-13
1.53452e-13
1.7694e-13
1.99998e-13
2.19805e-13
2.33957e-13
2.39715e-13
2.37648e-13
2.31963e-13
2.33435e-13
2.52994e-13
2.94641e-13
3.75205e-13
1.09117e-13
1.39189e-13
1.2003e-13
9.76025e-14
7.67098e-14
5.8968e-14
4.48848e-14
3.38839e-14
2.65159e-14
2.30843e-14
2.33886e-14
2.66943e-14
3.1571e-14
3.68069e-14
4.13583e-14
4.45224e-14
4.57134e-14
4.51729e-14
4.41809e-14
4.73785e-14
5.8892e-14
8.56541e-14
1.43241e-13
2.71362e-14
3.57637e-14
3.00862e-14
2.36797e-14
1.8022e-14
1.3327e-14
9.66773e-15
6.84246e-15
4.84548e-15
3.67338e-15
3.30767e-15
3.62461e-15
4.37369e-15
5.27409e-15
6.06459e-15
6.59536e-15
6.81005e-15
6.93062e-15
7.7525e-15
1.16643e-14
2.25481e-14
4.88744e-14
1.07466e-13
6.02507e-15
8.16431e-15
6.68165e-15
5.08457e-15
3.7375e-15
2.65382e-15
1.83097e-15
1.21265e-15
7.72142e-16
4.9206e-16
3.6341e-16
3.64511e-16
4.5473e-16
5.81295e-16
6.96568e-16
7.88341e-16
9.10876e-16
1.31125e-15
2.77772e-15
7.36187e-15
1.97749e-14
5.01417e-14
1.17926e-13
1.19712e-15
1.65963e-15
1.31765e-15
9.67706e-16
6.85004e-16
4.65732e-16
3.04619e-16
1.87999e-16
1.06691e-16
5.45064e-17
2.79718e-17
2.28404e-17
3.26263e-17
4.92953e-17
6.88771e-17
1.06159e-16
2.35893e-16
7.27039e-16
2.42034e-15
7.58214e-15
2.16892e-14
5.64477e-14
1.34063e-13
2.13084e-16
3.00925e-16
2.3119e-16
1.63511e-16
1.1111e-16
7.20861e-17
4.45101e-17
2.5448e-17
1.27204e-17
4.83581e-18
8.76469e-19
7.8805e-21
1.28133e-18
4.14078e-18
1.14397e-17
4.11865e-17
1.70023e-16
6.76724e-16
2.44692e-15
7.94227e-15
2.31639e-14
6.09693e-14
1.45742e-13
3.3987e-17
4.87337e-17
3.61567e-17
2.45718e-17
1.59767e-17
9.85238e-18
5.71463e-18
3.00549e-18
1.3038e-18
3.21061e-19
-1.28548e-19
-1.85901e-19
8.00502e-20
1.08916e-18
6.02074e-18
3.12239e-17
1.47824e-16
6.23475e-16
2.33495e-15
7.77437e-15
2.31161e-14
6.17773e-14
1.49543e-13
4.85702e-18
7.05693e-18
5.04968e-18
3.29068e-18
2.04068e-18
1.19108e-18
6.45428e-19
3.09843e-19
1.147e-19
1.29307e-20
-2.55797e-20
-1.63867e-20
8.03683e-20
6.60292e-19
4.19744e-18
2.37773e-17
1.18585e-16
5.22116e-16
2.02859e-15
6.97708e-15
2.13743e-14
5.87646e-14
1.46063e-13
6.21914e-19
9.14854e-19
6.31059e-19
3.93654e-19
2.321e-19
1.27654e-19
6.42519e-20
2.79353e-20
8.68687e-21
-6.62786e-23
-2.12124e-21
3.86808e-21
5.09473e-20
3.93706e-19
2.66708e-18
1.59137e-17
8.35375e-17
3.86976e-16
1.57906e-15
5.70204e-15
1.83644e-14
5.31868e-14
1.39258e-13
7.13922e-20
1.06352e-19
7.07383e-20
4.21836e-20
2.35768e-20
1.21646e-20
5.65415e-21
2.21137e-21
5.74504e-22
-3.86003e-23
8.96052e-23
2.67487e-21
2.50283e-20
2.01191e-19
1.43471e-18
8.98076e-18
5.02441e-17
2.48645e-16
1.08638e-15
4.21545e-15
1.46616e-14
4.61037e-14
1.31627e-13
7.35866e-21
1.11126e-20
7.13411e-21
4.06321e-21
2.14681e-21
1.03457e-21
4.41649e-22
1.54785e-22
3.46505e-23
4.36471e-24
9.51374e-23
1.07489e-21
1.00662e-20
8.38709e-20
6.18167e-19
4.13047e-18
2.49987e-17
1.34856e-16
6.45807e-16
2.76647e-15
1.06374e-14
3.70805e-14
1.18224e-13
6.82957e-22
1.04722e-21
6.49883e-22
3.53306e-22
1.7602e-22
7.89006e-23
3.07953e-23
9.69811e-24
2.13586e-24
2.65563e-24
3.20432e-23
3.41017e-22
3.221e-21
2.70955e-20
2.04367e-19
1.4732e-18
9.80376e-18
5.9086e-17
3.23189e-16
1.56037e-15
6.6886e-15
2.58227e-14
9.16836e-14
5.73205e-23
8.94224e-23
5.37438e-23
2.78794e-23
1.30669e-23
5.42772e-24
1.93197e-24
5.55697e-25
1.66286e-25
7.17053e-25
8.23713e-24
8.58391e-23
7.88005e-22
6.33959e-21
4.8805e-20
3.76476e-19
2.79261e-18
1.99644e-17
1.2559e-16
6.86711e-16
3.30431e-15
1.42045e-14
5.54721e-14
4.37667e-24
6.96125e-24
4.05986e-24
2.00915e-24
8.84036e-25
3.39261e-25
1.10246e-25
3.02509e-26
1.8643e-26
1.52174e-25
1.70953e-24
1.68552e-23
1.41842e-22
1.01843e-21
7.64259e-21
6.08005e-20
5.34079e-19
4.58212e-18
3.37664e-17
2.13805e-16
1.1798e-15
5.76315e-15
2.53828e-14
3.06333e-25
4.97687e-25
2.82179e-25
1.33199e-25
5.49224e-26
1.94393e-26
5.81074e-27
1.67291e-27
2.60743e-27
2.70931e-26
2.87822e-25
2.56032e-24
1.824e-23
1.08047e-22
6.92716e-22
5.10739e-21
5.73093e-20
6.03375e-19
5.38126e-18
4.08383e-17
2.67069e-16
1.53122e-15
7.86148e-15
1.98289e-26
3.29463e-26
1.8189e-26
8.18881e-27
3.16014e-27
1.03208e-27
2.89082e-28
1.03801e-28
3.74696e-28
4.09362e-27
3.9638e-26
3.02549e-25
1.65432e-24
7.43757e-24
3.20875e-23
1.72859e-22
2.6433e-21
3.569e-20
4.02916e-19
3.82759e-18
3.09107e-17
2.15424e-16
1.32051e-15
1.19779e-27
2.03601e-27
1.09621e-27
4.70794e-28
1.69974e-28
5.14308e-29
1.3993e-29
7.84922e-30
5.03578e-29
5.30809e-28
4.5459e-27
2.84318e-26
1.10474e-25
3.41554e-25
7.24434e-25
1.74548e-24
3.43086e-23
6.32008e-22
9.66648e-21
1.2345e-19
1.32667e-18
1.21279e-17
9.5735e-17
6.79781e-29
1.18286e-28
6.22637e-29
2.55315e-29
8.63123e-30
2.44263e-30
6.85976e-31
7.11331e-31
6.14933e-30
6.00835e-29
4.46542e-28
2.21896e-27
5.87397e-27
1.12934e-26
8.97352e-27
3.04127e-27
4.6861e-26
1.37005e-24
3.30704e-23
6.6203e-22
1.10835e-20
1.56768e-19
1.89572e-18
3.62382e-30
6.49863e-30
3.35909e-30
1.31689e-30
4.17822e-31
1.12486e-31
3.56371e-32
7.03163e-32
6.80003e-31
6.05626e-30
3.89636e-29
1.5467e-28
2.75645e-28
3.07574e-28
7.82196e-29
5.97905e-30
2.85477e-31
3.58881e-30
2.33447e-28
1.25808e-26
5.68089e-25
2.17987e-23
7.2085e-22
0.999247
0.9992
0.999179
0.999031
0.999285
0.999229
0.99901
0.997943
0.999098
0.998223
0.997942
0.994135
0.998378
0.992561
0.690548
0.344517
0.995243
0.986181
0.743497
0.330898
0.988127
0.983453
0.981322
0.912401
0.794449
0.751206
0.707519
0.715727
0.0280994
0.0486027
0.066357
0.0716653
0.0262735
0.0217178
0.0188702
0.0157261
0.0851166
0.0357631
0.0286391
0.0315801
0.100217
0.100217
0.100122
0.102797
0.0946431
0.0347893
0.00496439
0.0082838
5.18043e-11
1.65514e-10
2.8021e-10
3.91474e-10
8.76331e-10
1.00986e-09
8.51157e-10
8.12033e-10
2.49059e-09
2.49051e-09
2.20329e-09
2.0047e-09
1.0779e-09
1.87201e-09
1.73321e-09
7.40347e-10
1.73377e-10
1.09179e-10
1.07568e-10
1.23351e-10
1.00061e-10
9.64697e-11
1.05912e-10
1.03129e-10
3.75329e-11
3.96718e-11
4.26499e-11
4.35459e-11
1.49893e-11
1.48371e-11
1.49462e-11
1.53683e-11
7.48609e-12
7.683e-12
7.96013e-12
8.31849e-12
3.41049e-12
3.58153e-12
3.79467e-12
4.05552e-12
1.28467e-12
1.39615e-12
1.5373e-12
1.71388e-12
4.2566e-13
4.91914e-13
5.78142e-13
6.89097e-13
1.79927e-13
2.28699e-13
2.93067e-13
3.77399e-13
1.44704e-13
1.94088e-13
2.5911e-13
3.44386e-13
1.60748e-13
2.17287e-13
2.91438e-13
3.88631e-13
1.82885e-13
2.47251e-13
3.31773e-13
4.433e-13
1.98972e-13
2.69344e-13
3.62524e-13
4.87434e-13
2.04746e-13
2.78367e-13
3.77579e-13
5.13935e-13
2.01397e-13
2.76667e-13
3.81402e-13
5.30514e-13
1.94971e-13
2.74182e-13
3.91151e-13
5.66535e-13
1.89616e-13
2.79692e-13
4.26479e-13
6.63033e-13
1.77855e-13
2.8367e-13
4.77102e-13
8.11611e-13
1.46174e-13
2.58872e-13
4.85983e-13
9.00344e-13
9.56006e-14
1.91469e-13
3.98525e-13
7.93138e-13
4.90062e-14
1.12931e-13
2.59626e-13
5.5532e-13
1.79982e-14
4.88928e-14
1.26531e-13
2.99787e-13
3.83836e-15
1.21152e-14
3.58147e-14
9.89375e-14
3.99106e-16
1.51694e-15
5.30134e-15
1.85996e-14
1.42444e-17
7.38827e-17
3.39353e-16
1.80069e-15
1.87319e-20
2.44759e-19
3.14338e-18
5.52136e-17
0.997831
0.930199
0.226133
0.103583
0.129715
0.479716
0.62656
0.648144
0.59866
0.375267
0.0657476
0.0627721
0.0618895
0.062412
0.0721603
0.156048
0.164217
0.0843313
0.0647886
0.994189
0.73022
0.0999934
0.0987209
0.269688
0.776067
0.776759
0.708789
0.420545
0.494887
0.162019
0.0627205
0.0574197
0.0896441
0.188591
0.189038
0.189079
0.174096
0.0662276
0.804241
0.177734
0.0981671
0.0981129
0.195427
0.776831
0.776067
0.23636
0.0293105
0.498331
0.349909
0.0768906
0.0523743
0.17471
0.188875
0.18903
0.189232
0.171953
0.125827
0.174123
0.0981671
0.0980009
0.0981344
0.517969
0.774134
0.75018
0.0313591
0.0270185
0.494106
0.376547
0.0777239
0.0484789
0.177494
0.188271
0.189069
0.122851
0.0947762
0.0779897
0.134636
0.0980412
0.0981113
0.28047
0.74408
0.752336
0.240891
0.0131899
0.0242934
0.442619
0.173907
0.0390329
0.0432305
0.172804
0.187133
0.170057
0.0373135
0.0103705
0.0104536
0.822079
0.745645
0.74464
0.786049
0.677497
0.236999
0.00658022
0.0101252
0.0900726
0.0914636
0.0441601
0.0105853
0.13064
0.17788
0.18414
0.056116
0.00188356
0.00111302
0.000906376
0.717338
0.637995
0.505294
0.354763
0.0649277
0.00658022
0.00658022
0.0258264
0.110197
0.0222058
0.0057981
0.00977684
0.0675091
0.10312
0.0303745
0.00120595
0.00140496
0.000382216
0.00022343
0.0725361
0.0503933
0.02874
0.00740771
0.00729186
0.00693604
0.00658022
0.0952781
0.110197
0.0663587
0.00292855
0.00876681
0.00021603
0.000205014
0.000216032
0.00117999
0.000162511
0.000121516
9.16671e-05
0.0129123
0.00821551
0.00821551
0.00963113
0.0091191
0.00890089
0.0145076
0.103441
0.110197
0.045695
0.000474063
0.000298747
0.000263443
0.000196579
0.00104567
0.000507069
6.42272e-05
7.82519e-05
8.89361e-05
0.0212037
0.0126529
0.0472039
0.0714397
0.0687645
0.0659992
0.0628688
0.0266947
0.00523672
0.000316893
0.00193201
0.00079367
0.00180538
0.000143823
0.000212421
3.0806e-05
4.52204e-05
6.98043e-05
0.000158257
0.0980472
0.0769364
0.0756252
0.0715544
0.071438
0.0695675
0.0483541
0.000249615
0.000206219
0.000266028
0.00191167
0.000957201
0.000304709
3.19144e-06
6.93962e-06
1.81529e-05
3.3619e-05
0.000292777
0.000544338
0.0075325
0.0205034
0.0351379
0.036965
0.0202779
0.00499374
8.58224e-05
0.000236702
0.000183829
0.000288598
0.000751919
1.12628e-06
1.44173e-06
2.1553e-06
3.14355e-06
1.0469e-05
0.000284285
0.000565702
0.00044422
5.47845e-10
8.15174e-10
1.5641e-09
6.24269e-09
4.87659e-08
4.85955e-07
9.56003e-05
0.000386962
0.000155559
1.09754e-06
1.09905e-06
1.08499e-06
1.12647e-06
1.44314e-06
2.10469e-06
1.59974e-05
0.000409045
0.000566907
2.73319e-06
1.45538e-09
1.44452e-09
2.15308e-09
1.29288e-08
1.27989e-07
3.4792e-06
0.000281657
0.000393559
1.49143e-05
1.10557e-06
1.08725e-06
1.08995e-06
1.08518e-06
1.15224e-06
1.53455e-06
2.05274e-05
0.000253476
0.000309172
2.20944e-06
4.08787e-09
4.15322e-09
4.37278e-10
2.22019e-09
1.33336e-06
2.27118e-05
8.33302e-06
9.42115e-06
8.1361e-06
1.21215e-05
1.75776e-05
2.15648e-05
1.78992e-05
5.89063e-06
2.32842e-06
1.33396e-05
8.85622e-06
1.76312e-06
1.69083e-06
2.44784e-09
5.05248e-09
1.67132e-10
-1.57715e-10
4.15201e-09
8.81695e-08
1.53348e-06
8.38774e-06
2.51321e-05
5.23924e-05
5.23958e-05
5.23924e-05
5.17524e-05
1.43687e-05
6.81427e-07
6.86388e-07
6.46315e-07
2.14103e-06
6.31851e-06
9.09055e-11
1.76157e-09
6.10115e-11
1.62549e-10
4.14613e-09
8.42183e-07
2.96427e-05
3.32531e-05
2.67215e-05
2.17656e-05
5.23968e-05
5.20673e-05
3.37243e-05
1.02311e-06
9.22502e-07
1.27334e-06
4.07485e-07
1.32232e-05
0.000136311
9.07364e-11
4.31214e-11
5.92773e-11
-3.72802e-11
1.77449e-10
4.96664e-07
2.21045e-05
3.32531e-05
2.43553e-05
7.54722e-08
2.88039e-07
2.13241e-06
1.83736e-06
1.4125e-06
3.04923e-06
2.88035e-06
1.16798e-07
1.82598e-05
0.000185341
3.60614e-11
4.29171e-11
4.70052e-11
3.40642e-11
2.24276e-11
-3.37138e-13
1.64272e-10
1.00646e-05
1.06545e-05
3.89581e-08
2.93893e-08
1.73889e-08
5.80138e-08
2.27014e-06
3.63235e-06
2.54851e-06
1.88941e-08
9.43074e-06
0.000185341
1.77378e-11
2.02333e-11
2.46438e-11
2.93311e-11
2.40066e-11
3.12242e-11
3.46789e-11
2.25434e-10
4.20841e-08
4.08685e-06
5.14283e-07
1.0963e-08
3.48636e-09
7.95107e-07
2.87263e-06
2.63806e-09
2.77615e-09
2.38298e-06
0.00018532
9.65015e-12
1.14568e-11
1.38836e-11
1.79526e-11
2.2661e-11
4.73362e-11
2.42228e-11
3.65577e-09
1.74823e-07
1.09829e-06
1.08519e-06
1.81639e-07
2.40208e-09
2.35645e-09
2.40111e-09
2.49213e-09
2.63767e-09
1.3235e-06
0.000185202
5.03128e-12
6.44116e-12
8.49495e-12
1.17724e-11
1.69507e-11
2.22535e-11
2.35984e-11
2.35986e-11
2.11412e-07
2.09774e-07
2.77484e-07
2.36591e-07
5.00651e-08
2.30907e-09
2.67401e-09
3.79497e-09
2.79892e-09
6.43781e-05
0.000184753
2.41921e-12
3.59533e-12
5.62475e-12
9.10214e-12
1.44415e-11
2.05101e-11
2.46599e-11
2.36045e-11
9.90438e-08
2.12436e-07
1.81622e-07
8.99717e-09
7.52618e-10
2.27693e-09
1.28399e-08
1.05271e-08
3.0715e-09
0.00017246
0.000183883
1.2058e-12
2.28561e-12
4.4805e-12
8.40279e-12
1.42682e-11
2.11207e-11
2.72437e-11
2.52091e-11
2.52095e-11
7.34927e-08
9.24858e-08
3.20255e-08
4.14245e-10
3.06241e-09
1.67829e-08
1.11461e-08
3.64502e-09
0.00017618
0.000182992
8.39875e-13
2.00318e-12
4.61019e-12
9.31759e-12
1.62591e-11
2.39792e-11
4.11461e-11
6.7173e-11
7.1876e-11
7.19245e-11
7.22419e-11
2.12218e-10
4.01324e-10
1.46641e-09
1.67837e-08
3.10348e-09
3.11205e-09
9.27591e-05
0.000180368
8.46239e-13
2.22121e-12
5.4142e-12
1.11148e-11
1.93324e-11
2.84488e-11
4.48169e-11
9.1461e-11
2.06877e-10
2.5807e-10
3.2525e-10
4.5113e-10
4.42951e-10
6.07189e-10
1.00659e-08
1.99876e-09
2.20831e-09
9.24114e-05
9.67728e-05
9.86713e-13
2.62434e-12
6.32301e-12
1.27509e-11
2.19182e-11
3.32627e-11
5.04545e-11
8.40871e-11
1.77241e-10
2.53135e-10
3.42995e-10
4.41178e-10
4.39012e-10
2.2454e-09
2.84451e-09
1.95778e-09
1.9893e-09
0.000178821
0.000105144
1.16799e-12
3.12497e-12
7.4142e-12
1.45499e-11
2.42652e-11
3.72634e-11
5.73412e-11
1.01751e-10
1.95754e-10
2.5711e-10
3.33614e-10
3.95839e-10
6.65031e-10
2.86218e-09
1.88607e-09
1.92032e-09
1.2764e-05
0.000180368
0.000148064
1.32652e-12
3.50392e-12
8.26528e-12
1.6074e-11
2.62455e-11
3.93359e-11
5.91213e-11
1.2312e-10
2.93713e-10
6.34291e-10
1.11036e-09
1.28508e-09
1.56905e-09
1.83582e-09
1.86138e-09
1.88548e-09
8.87884e-05
0.000180681
7.21228e-05
1.42605e-12
3.67023e-12
8.53222e-12
1.64884e-11
2.56469e-11
3.53637e-11
6.16424e-11
2.1076e-10
8.4436e-10
2.97108e-09
3.76227e-09
2.98039e-09
2.78885e-09
3.90236e-09
1.88633e-09
1.96721e-09
0.000112883
0.000180681
4.93208e-05
1.48719e-12
3.64711e-12
8.12853e-12
1.55286e-11
2.42048e-11
3.22625e-11
4.92808e-11
3.71976e-10
2.6716e-09
3.76157e-09
3.74323e-09
2.97506e-09
9.52448e-09
1.29762e-08
1.96877e-09
2.35249e-09
9.89392e-05
0.000180681
4.54954e-05
1.61964e-12
3.69192e-12
7.60352e-12
1.59045e-11
2.64324e-11
3.88034e-11
7.72496e-11
5.30478e-10
2.29323e-09
2.34729e-09
2.35043e-09
1.22625e-08
2.1142e-08
1.82777e-08
2.35305e-09
2.99741e-09
0.00013319
0.000180465
3.14338e-05
2.0211e-12
4.31593e-12
7.86105e-12
2.10356e-11
3.55236e-11
5.69137e-11
1.92957e-10
8.61596e-10
1.69738e-09
1.68556e-09
2.35817e-09
1.6531e-08
2.11128e-08
1.0886e-08
2.99712e-09
3.7528e-05
0.000158974
0.000161762
9.13557e-06
2.7167e-12
5.76029e-12
1.01334e-11
2.72478e-11
4.5034e-11
6.18768e-11
2.39226e-10
1.20448e-09
2.75438e-09
3.26108e-09
4.98827e-09
5.46492e-09
5.47342e-09
1.26258e-08
3.43787e-09
8.80434e-05
0.000155241
5.31745e-05
3.92955e-07
3.2696e-12
7.26656e-12
1.55787e-11
3.53806e-11
5.40796e-11
5.51397e-11
4.7183e-10
4.1285e-09
5.27286e-09
4.19597e-09
2.3221e-09
2.39018e-09
6.43489e-07
4.91149e-07
4.11869e-09
1.9774e-05
0.000140018
3.13616e-05
1.67711e-10
3.06664e-12
7.43089e-12
1.94378e-11
4.80911e-11
7.94663e-11
6.88879e-11
4.46055e-10
2.48644e-09
3.07709e-09
2.21135e-09
2.25423e-09
1.70328e-06
3.52897e-06
6.89011e-07
1.95741e-06
8.72118e-06
5.65256e-09
1.66734e-10
8.35167e-11
2.26758e-12
6.17629e-12
1.82522e-11
5.53622e-11
1.4145e-10
1.88911e-10
2.44456e-10
3.06658e-10
2.4903e-10
2.38346e-10
2.00158e-06
4.03532e-06
4.03532e-06
3.20107e-06
3.01805e-06
5.00072e-07
4.11637e-10
8.35475e-11
7.80152e-11
1.32809e-12
4.21897e-12
1.51907e-11
5.18471e-11
1.78734e-10
3.12402e-10
2.9065e-10
2.47543e-10
2.38233e-10
2.38437e-10
2.25448e-06
2.96713e-06
2.35457e-06
2.82788e-06
2.31949e-06
2.45896e-07
1.20695e-10
7.57211e-11
7.19455e-11
5.11839e-13
2.13127e-12
8.46032e-12
3.29328e-11
1.4665e-10
3.46566e-10
3.84977e-10
2.40507e-10
2.38443e-10
3.73762e-08
3.14649e-07
2.24666e-07
7.07066e-08
6.51124e-08
1.16216e-08
4.91327e-10
9.22979e-11
7.40414e-11
6.67077e-11
1.1923e-13
7.5225e-13
4.0323e-12
1.55384e-11
7.03162e-11
1.42891e-10
4.1683e-10
9.50962e-10
1.17175e-09
4.51958e-09
2.40427e-09
2.6013e-09
1.47365e-08
1.88071e-08
9.39026e-09
6.69884e-10
7.80396e-11
7.67553e-11
6.65682e-11
1.59954e-14
1.79236e-13
1.37811e-12
6.74069e-12
2.42051e-11
4.27207e-11
4.91439e-10
1.67176e-09
1.82599e-09
1.67403e-09
2.35795e-09
2.7022e-09
1.94826e-09
5.85809e-10
3.43098e-10
9.16711e-11
6.40121e-11
6.12664e-11
5.61844e-07
1.10993e-15
2.61526e-14
3.06303e-13
2.08274e-12
9.41051e-12
2.38226e-11
1.63576e-10
7.42574e-10
1.20843e-09
1.22668e-09
1.16974e-09
6.13093e-10
6.0463e-11
2.05866e-11
1.69739e-11
1.5887e-11
1.54044e-11
1.10351e-10
1.28182e-06
)
;

boundaryField
{
    leftWall
    {
        type            zeroGradient;
    }
    rightWall
    {
        type            zeroGradient;
    }
    lowerWall
    {
        type            zeroGradient;
    }
    atmosphere
    {
        type            inletOutlet;
        inletValue      uniform 0;
        value           nonuniform List<scalar> 
46
(
3.62382e-30
6.49863e-30
3.35909e-30
1.31689e-30
4.17822e-31
1.12486e-31
3.56371e-32
7.03163e-32
6.80003e-31
6.05626e-30
3.89636e-29
1.5467e-28
0
0
0
0
0
0
0
0
0
0
0
0
0
0
0
0
0
0
0
0
0
0
0
0
1.22668e-09
1.16974e-09
6.13093e-10
6.0463e-11
2.05866e-11
1.69739e-11
1.5887e-11
1.54044e-11
1.10351e-10
1.28182e-06
)
;
    }
    defaultFaces
    {
        type            empty;
    }
}


// ************************************************************************* //
