/*--------------------------------*- C++ -*----------------------------------*\
| =========                 |                                                 |
| \\      /  F ield         | OpenFOAM: The Open Source CFD Toolbox           |
|  \\    /   O peration     | Version:  2.3.0                                 |
|   \\  /    A nd           | Web:      www.OpenFOAM.org                      |
|    \\/     M anipulation  |                                                 |
\*---------------------------------------------------------------------------*/
FoamFile
{
    version     2.0;
    format      ascii;
    class       volScalarField;
    location    "1.24";
    object      alpha.particles;
}
// * * * * * * * * * * * * * * * * * * * * * * * * * * * * * * * * * * * * * //

dimensions      [0 0 0 0 0 0 0];

internalField   nonuniform List<scalar> 
6000
(
0.448827
0.44948
0.448028
0.350375
0.447672
0.447685
0.447691
0.4477
0.447706
0.447714
0.44772
0.447728
0.44773
0.443459
0.411993
0.404913
0.404307
0.403712
0.403102
0.386967
0.363117
0.391544
0.411157
0.411171
0.411172
0.411181
0.411173
0.411173
0.411166
0.411164
0.395636
0.394818
0.37928
0.3478
0.387826
0.399747
0.416078
0.436628
0.4477
0.447706
0.444765
0.412038
0.371442
0.31937
0.302202
0.297777
0.306736
0.313473
0.313011
0.296608
0.28644
0.285904
0.312216
0.359045
0.408325
0.41118
0.411182
0.411173
0.411176
0.411166
0.421388
0.415903
0.380705
0.350627
0.359056
0.399974
0.443598
0.447687
0.447691
0.425901
0.376401
0.328211
0.296344
0.287646
0.28687
0.287237
0.286765
0.286825
0.286412
0.286436
0.285147
0.286051
0.284716
0.294625
0.348338
0.38823
0.387861
0.38533
0.341319
0.383722
0.421407
0.408231
0.367525
0.347532
0.357983
0.395105
0.436269
0.447675
0.415793
0.333853
0.303754
0.287654
0.287646
0.286628
0.287237
0.286778
0.286825
0.286452
0.286436
0.285784
0.286051
0.28497
0.285641
0.284985
0.285267
0.301404
0.30611
0.294065
0.27733
0.300946
0.421424
0.394097
0.350146
0.350884
0.374786
0.421048
0.433011
0.416521
0.319681
0.293891
0.288202
0.288056
0.287419
0.287646
0.286807
0.287237
0.287301
0.291689
0.28915
0.286078
0.285325
0.285669
0.285003
0.285273
0.285103
0.284885
0.284698
0.277518
0.277533
0.277361
0.421442
0.378245
0.351145
0.347509
0.390217
0.44967
0.415249
0.325983
0.288876
0.288541
0.288463
0.287758
0.288053
0.287419
0.287646
0.294703
0.320083
0.331996
0.317549
0.286694
0.286078
0.285332
0.28567
0.285356
0.285273
0.31585
0.328567
0.288396
0.277505
0.277581
0.397157
0.395256
0.349366
0.351145
0.386032
0.449805
0.365297
0.289442
0.288361
0.288876
0.288493
0.288463
0.287943
0.288053
0.293078
0.340858
0.395603
0.413121
0.390603
0.320041
0.290265
0.286078
0.285692
0.295764
0.335601
0.40122
0.414545
0.33742
0.277747
0.277614
0.411332
0.440879
0.351414
0.347773
0.368039
0.439111
0.305479
0.288466
0.289287
0.288633
0.288876
0.288563
0.290694
0.299617
0.335607
0.419181
0.475925
0.488195
0.474316
0.403322
0.337837
0.316815
0.322447
0.369096
0.43968
0.484405
0.487101
0.413207
0.30124
0.27778
0.460435
0.476324
0.350736
0.351414
0.353692
0.381869
0.289034
0.289697
0.288551
0.289287
0.297448
0.308672
0.322892
0.351985
0.416965
0.492277
0.517837
0.522014
0.519432
0.49059
0.438764
0.411488
0.422934
0.474045
0.51336
0.52364
0.521706
0.485725
0.380317
0.309788
0.498899
0.498654
0.39806
0.351073
0.357666
0.335679
0.290109
0.288887
0.289697
0.292258
0.327231
0.366313
0.398333
0.441286
0.496176
0.523749
0.52386
0.524099
0.523861
0.523976
0.518376
0.507769
0.515013
0.523965
0.523853
0.524399
0.52385
0.524092
0.481532
0.400559
0.519076
0.521301
0.499214
0.413562
0.397041
0.339065
0.290118
0.290109
0.289575
0.307878
0.381861
0.447416
0.482788
0.512631
0.523993
0.523862
0.524607
0.523863
0.524863
0.523863
0.524387
0.523859
0.524629
0.523857
0.525473
0.523849
0.525445
0.523822
0.514024
0.480364
0.531274
0.531123
0.531175
0.516482
0.480103
0.377685
0.315755
0.307347
0.306087
0.346821
0.455506
0.509422
0.523848
0.52419
0.523863
0.525177
0.523864
0.526067
0.523865
0.526118
0.52386
0.525846
0.52384
0.525503
0.523831
0.491368
0.445975
0.414941
0.386791
0.387543
0.531299
0.53136
0.531124
0.531146
0.526551
0.445605
0.386747
0.375651
0.371908
0.424424
0.514458
0.523856
0.524706
0.523862
0.526503
0.523857
0.526489
0.523845
0.526475
0.523842
0.507042
0.43883
0.413694
0.420469
0.399068
0.325237
0.265256
0.233359
0.223236
0.232645
0.531464
0.531297
0.524515
0.448519
0.420513
0.43509
0.455797
0.466119
0.467986
0.507626
0.523823
0.525792
0.523824
0.52577
0.519573
0.501257
0.465166
0.428379
0.430235
0.424656
0.359045
0.327292
0.326725
0.355586
0.36214
0.303325
0.237052
0.216317
0.216317
0.216317
0.531446
0.475856
0.282813
0.230074
0.225545
0.298807
0.389407
0.431039
0.440073
0.443038
0.448534
0.432695
0.38036
0.316716
0.277398
0.249172
0.220182
0.200966
0.224028
0.282366
0.321803
0.330365
0.348303
0.384174
0.391425
0.336242
0.264056
0.219768
0.216317
0.216317
0.531542
0.303261
0.164893
0.152224
0.151386
0.169936
0.218458
0.251134
0.256686
0.234909
0.223857
0.204611
0.17869
0.163475
0.159041
0.156051
0.153782
0.153833
0.17361
0.261195
0.350405
0.376747
0.389534
0.411488
0.415087
0.372924
0.308663
0.251117
0.225519
0.223082
0.458806
0.219219
0.151879
0.150825
0.150699
0.150911
0.15284
0.151306
0.150537
0.151532
0.152843
0.153458
0.152857
0.152962
0.153408
0.153508
0.153615
0.153724
0.166694
0.25076
0.373638
0.419778
0.421033
0.42988
0.431785
0.403328
0.354493
0.303665
0.270539
0.265648
0.267623
0.176389
0.150739
0.150811
0.150891
0.150789
0.151083
0.14978
0.151305
0.150211
0.151531
0.153301
0.15274
0.153174
0.155934
0.156783
0.154113
0.153834
0.165723
0.24104
0.373449
0.439626
0.442385
0.442301
0.442301
0.427018
0.396365
0.36119
0.336584
0.332995
0.176365
0.154504
0.150634
0.150739
0.150841
0.150947
0.150667
0.151163
0.149812
0.151384
0.151057
0.153373
0.151798
0.15377
0.16402
0.169491
0.162359
0.157918
0.173769
0.244479
0.368668
0.444772
0.452738
0.450169
0.449371
0.445326
0.43344
0.415243
0.40139
0.402357
0.148863
0.150426
0.15053
0.150634
0.150739
0.150755
0.150962
0.149833
0.15117
0.150198
0.151402
0.152168
0.151859
0.152416
0.171334
0.187621
0.181154
0.175978
0.200246
0.274327
0.382049
0.457423
0.472416
0.47086
0.47102
0.473103
0.4729
0.466345
0.458015
0.463189
0.141927
0.153234
0.152344
0.152275
0.15206
0.151798
0.150647
0.15117
0.149883
0.151402
0.150977
0.151617
0.151329
0.151859
0.17207
0.199929
0.206617
0.213721
0.254894
0.347588
0.448269
0.497301
0.506961
0.509483
0.511461
0.513405
0.514114
0.51113
0.50473
0.510558
0.14175
0.154392
0.160089
0.166921
0.162987
0.154998
0.15117
0.149892
0.151402
0.150532
0.151617
0.151246
0.151859
0.151478
0.165913
0.201637
0.23561
0.275147
0.354835
0.463373
0.512072
0.529976
0.537715
0.541133
0.542271
0.542078
0.540834
0.538199
0.534414
0.536443
0.141893
0.152102
0.17196
0.197237
0.187972
0.163604
0.150727
0.151402
0.150236
0.151617
0.151129
0.151859
0.151447
0.152084
0.157994
0.199404
0.27314
0.369276
0.479303
0.52339
0.542549
0.550901
0.554763
0.556046
0.556037
0.555287
0.553991
0.552024
0.549794
0.550029
0.141934
0.149508
0.187391
0.243834
0.229336
0.182355
0.151409
0.150358
0.151617
0.150868
0.151859
0.151423
0.152084
0.151739
0.154842
0.210631
0.338292
0.476539
0.530493
0.548537
0.556358
0.557988
0.557954
0.55768
0.558176
0.558456
0.558398
0.5579
0.557302
0.557356
0.141934
0.151363
0.214813
0.3077
0.286358
0.206354
0.150705
0.151617
0.150588
0.151859
0.15145
0.152084
0.151761
0.152338
0.165066
0.264317
0.433634
0.526836
0.549915
0.554992
0.554994
0.546805
0.542139
0.542899
0.54771
0.553993
0.556393
0.557992
0.559273
0.560068
0.141957
0.16621
0.266441
0.37742
0.343516
0.220195
0.151617
0.150459
0.151859
0.151372
0.152084
0.151998
0.152338
0.15413
0.210008
0.364149
0.508426
0.54784
0.553237
0.552592
0.533944
0.534307
0.53369
0.534302
0.533988
0.538946
0.547499
0.553787
0.557736
0.559623
0.142418
0.203663
0.336135
0.4282
0.375654
0.217748
0.150985
0.151859
0.15118
0.152084
0.154398
0.158337
0.159825
0.18391
0.300474
0.469401
0.540762
0.554796
0.553275
0.534067
0.534286
0.533694
0.53429
0.534021
0.534319
0.534297
0.540085
0.549276
0.556045
0.558907
0.156476
0.266718
0.40569
0.447451
0.368542
0.209481
0.151867
0.15116
0.152084
0.160199
0.177449
0.182789
0.187988
0.252838
0.410614
0.524926
0.552555
0.554753
0.543424
0.534299
0.533989
0.534305
0.538412
0.544535
0.549539
0.551796
0.554919
0.558812
0.562052
0.563106
0.199863
0.333117
0.442359
0.447316
0.344341
0.207165
0.151824
0.152084
0.158408
0.190238
0.221562
0.223008
0.23635
0.343193
0.490316
0.545026
0.554653
0.55092
0.534353
0.534022
0.534375
0.544449
0.556136
0.563857
0.568005
0.569845
0.570134
0.570086
0.570154
0.570151
0.261053
0.364125
0.442497
0.42908
0.327814
0.219949
0.168009
0.165544
0.185084
0.241041
0.280692
0.279133
0.303413
0.425927
0.52617
0.552764
0.554602
0.546971
0.534268
0.534336
0.54642
0.561391
0.569281
0.570187
0.570136
0.570302
0.570177
0.570267
0.570215
0.570239
0.309958
0.367246
0.424953
0.407022
0.336618
0.259286
0.214866
0.211872
0.241784
0.311815
0.357492
0.351748
0.380368
0.483432
0.542526
0.556564
0.554587
0.54609
0.535212
0.546299
0.563234
0.569962
0.570211
0.570132
0.570261
0.569963
0.5687
0.569904
0.570185
0.570213
0.344493
0.375046
0.412979
0.400819
0.365403
0.326651
0.295319
0.296751
0.334605
0.403926
0.446348
0.436626
0.458228
0.513637
0.549502
0.559201
0.556471
0.549724
0.547766
0.562712
0.56995
0.570174
0.570111
0.570119
0.565414
0.543254
0.506576
0.528383
0.564989
0.570046
0.375767
0.403986
0.423998
0.417096
0.419665
0.416608
0.401983
0.409219
0.446686
0.492489
0.511386
0.506716
0.514698
0.527223
0.54986
0.560712
0.559602
0.55677
0.562136
0.569873
0.570138
0.570047
0.568855
0.555515
0.519
0.448749
0.445159
0.466031
0.538362
0.553752
0.414215
0.445651
0.458144
0.470442
0.491886
0.500315
0.496174
0.502208
0.520271
0.533844
0.535123
0.533103
0.535647
0.539956
0.552772
0.562146
0.562823
0.563249
0.567693
0.570064
0.569935
0.56678
0.550869
0.514913
0.456236
0.445158
0.445156
0.445811
0.446767
0.416777
0.46134
0.488628
0.509757
0.526108
0.535966
0.537485
0.534516
0.53362
0.537195
0.539573
0.539536
0.536436
0.538763
0.549884
0.559804
0.564981
0.565761
0.566653
0.568425
0.568701
0.564793
0.552166
0.527381
0.493947
0.465356
0.459455
0.45929
0.417104
0.27813
0.167418
0.509613
0.522953
0.541591
0.545365
0.545311
0.543035
0.536124
0.533804
0.535558
0.539541
0.539736
0.539232
0.531867
0.551393
0.56526
0.568127
0.568081
0.567819
0.566862
0.563128
0.554373
0.538629
0.522468
0.501214
0.501481
0.477769
0.379809
0.218974
0.0822211
0.0379003
0.536668
0.544378
0.545398
0.545342
0.54531
0.541391
0.536911
0.53399
0.53418
0.539758
0.539546
0.53973
0.529223
0.538348
0.565052
0.568903
0.568865
0.567726
0.563135
0.555688
0.545471
0.532348
0.529682
0.524668
0.435647
0.254461
0.106584
0.0416116
0.0203358
0.0157404
0.545394
0.545407
0.545356
0.541102
0.490354
0.527323
0.537612
0.537804
0.537983
0.539438
0.539711
0.539314
0.435821
0.500019
0.561692
0.568866
0.569014
0.56654
0.557491
0.548955
0.541157
0.538745
0.466995
0.28113
0.110698
0.0427836
0.0219067
0.0163057
0.0151763
0.0147529
0.545372
0.545315
0.524884
0.342853
0.270505
0.339693
0.403
0.433384
0.426248
0.404427
0.41359
0.371264
0.357891
0.496473
0.56379
0.569038
0.568883
0.56368
0.549697
0.544851
0.472703
0.299165
0.146464
0.0705175
0.0401303
0.025051
0.0179987
0.0156236
0.0150313
0.0147572
0.517518
0.511585
0.304401
0.151805
0.138008
0.151668
0.174499
0.192722
0.191348
0.182674
0.209956
0.25729
0.356001
0.525998
0.56796
0.568927
0.569042
0.556114
0.533724
0.370793
0.179601
0.1024
0.0792423
0.0600614
0.0398137
0.0250228
0.0179445
0.0155828
0.0149685
0.0147546
0.464411
0.376885
0.172895
0.118588
0.123072
0.120484
0.122153
0.123402
0.123631
0.129706
0.18158
0.270274
0.415026
0.542643
0.568745
0.56911
0.568084
0.539386
0.36219
0.148158
0.100753
0.0938352
0.0813326
0.0599465
0.0385067
0.0246832
0.0180217
0.0156172
0.0149377
0.0147444
0.454922
0.315653
0.147153
0.117991
0.122158
0.119301
0.120838
0.121442
0.121592
0.128131
0.190017
0.301002
0.462626
0.551982
0.568912
0.568829
0.556003
0.466058
0.206584
0.110941
0.104316
0.0980819
0.0815866
0.0578282
0.0372446
0.0245213
0.018228
0.015744
0.0149489
0.0147461
0.465613
0.275733
0.141767
0.11788
0.120494
0.118711
0.119573
0.121084
0.12216
0.129724
0.201135
0.353058
0.50138
0.559037
0.568744
0.568906
0.545991
0.370846
0.153048
0.111064
0.108803
0.0999693
0.0800158
0.0557797
0.0368111
0.0249024
0.0187176
0.0160113
0.0150164
0.0147788
0.478122
0.247586
0.136261
0.11769
0.118456
0.118158
0.118863
0.12057
0.122843
0.134285
0.212849
0.41595
0.528221
0.563458
0.568806
0.564488
0.532364
0.309681
0.139099
0.11625
0.112195
0.100116
0.0779195
0.0543273
0.0368378
0.0258328
0.0195307
0.0164728
0.0152101
0.0147861
0.450382
0.221386
0.130218
0.117522
0.117247
0.117447
0.118903
0.120711
0.125025
0.141872
0.22685
0.465673
0.541077
0.565093
0.568564
0.557457
0.513838
0.277107
0.136996
0.12203
0.115535
0.0998685
0.0760746
0.0538208
0.0376544
0.0272508
0.0206473
0.0171543
0.0155625
0.0147861
0.321001
0.182748
0.12486
0.117122
0.117144
0.117244
0.11867
0.12198
0.130491
0.153797
0.242647
0.488474
0.545937
0.564305
0.565225
0.550052
0.488752
0.249887
0.138361
0.127659
0.117893
0.0987193
0.0745386
0.0538726
0.039165
0.0290187
0.0220162
0.0180232
0.0160524
0.0147966
0.200549
0.145812
0.120589
0.116776
0.117044
0.117309
0.119035
0.125554
0.140306
0.170472
0.258248
0.487688
0.54632
0.561802
0.561235
0.545711
0.454954
0.222447
0.142945
0.132898
0.118982
0.097087
0.0736406
0.0546362
0.0411224
0.0310545
0.0235946
0.0190368
0.0166482
0.0148141
0.145991
0.125936
0.117606
0.116678
0.116776
0.117499
0.121446
0.132733
0.154719
0.19128
0.272818
0.467907
0.545407
0.558114
0.556246
0.543819
0.407646
0.201826
0.151707
0.138215
0.119204
0.0956163
0.0735121
0.0561578
0.0433364
0.0333223
0.0254324
0.0201986
0.0173569
0.0148417
0.122743
0.118647
0.115859
0.116579
0.11677
0.119166
0.126915
0.143857
0.172786
0.215933
0.287542
0.442631
0.544861
0.554076
0.550722
0.540792
0.348166
0.191991
0.163152
0.142884
0.118458
0.0942866
0.0739495
0.0580586
0.0456385
0.0357444
0.0275741
0.0215882
0.0182182
0.0149939
0.113252
0.11542
0.115531
0.11687
0.118813
0.124273
0.136318
0.158613
0.193347
0.243259
0.311731
0.423865
0.5327
0.547931
0.547585
0.507854
0.311094
0.205213
0.175331
0.14667
0.117554
0.0934637
0.0748782
0.0600552
0.0479399
0.0382431
0.0299784
0.0232774
0.0192875
0.0153725
0.111707
0.115065
0.11642
0.118692
0.124739
0.13399
0.149804
0.176251
0.215973
0.272607
0.346185
0.432655
0.507655
0.53748
0.54568
0.466359
0.300752
0.227007
0.187853
0.150287
0.117149
0.0931734
0.0759907
0.0619223
0.0501468
0.0407808
0.0325523
0.0252503
0.0205823
0.016043
0.111757
0.115275
0.117118
0.123874
0.135268
0.148466
0.167081
0.196211
0.240518
0.302925
0.378495
0.45139
0.502976
0.527111
0.523535
0.442342
0.325236
0.251958
0.200738
0.155089
0.118515
0.0939466
0.077305
0.0636947
0.0523039
0.0433022
0.0351707
0.0274442
0.0220753
0.0170364
0.111636
0.113642
0.117784
0.131603
0.149983
0.167094
0.187752
0.218915
0.266711
0.332942
0.40672
0.465048
0.501986
0.518479
0.507995
0.452222
0.359627
0.27929
0.21634
0.163198
0.122641
0.0963047
0.0790439
0.065503
0.0544936
0.0457927
0.0377508
0.0297804
0.0237578
0.0183477
0.111636
0.11213
0.119601
0.141307
0.167521
0.18925
0.212469
0.245679
0.295275
0.361486
0.428394
0.471212
0.495068
0.507227
0.501176
0.467508
0.393951
0.310794
0.237555
0.17705
0.131152
0.101041
0.0817403
0.0676714
0.056772
0.0482431
0.0403154
0.0322106
0.025656
0.0199601
0.111666
0.11215
0.124038
0.154278
0.188425
0.216278
0.243827
0.27932
0.328533
0.388986
0.44233
0.469487
0.482707
0.491953
0.49113
0.476744
0.425893
0.348023
0.267851
0.199211
0.14586
0.10964
0.0865602
0.0707934
0.0593018
0.0507238
0.0429662
0.0347421
0.0277952
0.0218551
0.112017
0.114848
0.135767
0.174469
0.216514
0.252629
0.286647
0.324727
0.370201
0.417619
0.45145
0.464319
0.470204
0.476625
0.479553
0.477881
0.452234
0.39093
0.309949
0.232075
0.168615
0.123745
0.0949151
0.0757649
0.0625
0.0533009
0.045702
0.0374251
0.0301515
0.0239908
0.112289
0.126655
0.159643
0.207548
0.258117
0.304167
0.345294
0.383642
0.419715
0.448321
0.462374
0.464805
0.466722
0.469938
0.473598
0.47663
0.472722
0.437977
0.366751
0.279879
0.201486
0.144359
0.107794
0.0837459
0.067238
0.0562517
0.0484227
0.0401593
0.0325655
0.0263735
0.112405
0.150026
0.198942
0.258736
0.318888
0.372961
0.415561
0.447201
0.469299
0.481518
0.484731
0.483881
0.484323
0.486362
0.489545
0.493035
0.495814
0.48788
0.442333
0.349579
0.250251
0.173079
0.125219
0.0950987
0.0743947
0.0603175
0.0511984
0.0427235
0.0348722
0.0290984
0.126609
0.185222
0.256629
0.332337
0.398417
0.448173
0.479269
0.496671
0.506283
0.511368
0.513899
0.515779
0.517911
0.520209
0.522291
0.523341
0.522606
0.51889
0.50564
0.443367
0.324574
0.215546
0.147592
0.109061
0.0838354
0.0661012
0.0544177
0.0450351
0.0370017
0.0323269
0.167364
0.240005
0.337598
0.421375
0.474461
0.501719
0.514855
0.522019
0.526738
0.530345
0.533418
0.536191
0.538612
0.540323
0.541306
0.541167
0.539407
0.535668
0.529497
0.508435
0.416064
0.27808
0.177645
0.125454
0.094848
0.0735381
0.0586033
0.0474735
0.0389998
0.0361255
0.236817
0.322854
0.432816
0.493107
0.515165
0.524585
0.529994
0.53383
0.536903
0.539548
0.541849
0.543751
0.5451
0.54553
0.545521
0.545349
0.543932
0.541347
0.537301
0.529181
0.483571
0.349047
0.219086
0.146825
0.108199
0.0827122
0.0639532
0.0503741
0.0412297
0.0405641
0.329504
0.42368
0.503583
0.523878
0.530425
0.534488
0.537595
0.540038
0.542001
0.543552
0.544663
0.545259
0.545257
0.545149
0.544558
0.543031
0.541392
0.539182
0.536042
0.532292
0.51176
0.410425
0.274124
0.180469
0.128892
0.0961918
0.072182
0.0549312
0.0439359
0.0453816
0.427088
0.500228
0.530427
0.535531
0.538138
0.540415
0.542382
0.543902
0.544966
0.545554
0.545624
0.545192
0.544197
0.542782
0.540743
0.538253
0.535771
0.533219
0.530471
0.5276
0.518862
0.461506
0.344769
0.237178
0.1666
0.120463
0.0870675
0.0632407
0.0474921
0.0504494
0.496559
0.530075
0.539659
0.542041
0.543427
0.544765
0.54596
0.546813
0.547238
0.54719
0.546652
0.545561
0.54402
0.541897
0.539272
0.53638
0.533376
0.530477
0.527808
0.525058
0.521289
0.500592
0.427173
0.321775
0.230722
0.164115
0.114265
0.0785
0.0540215
0.0558016
0.522193
0.538915
0.54501
0.546662
0.547437
0.548193
0.54888
0.549318
0.549403
0.54911
0.548402
0.547251
0.545695
0.543833
0.541719
0.53946
0.537157
0.534928
0.532783
0.530439
0.52762
0.521731
0.493427
0.42041
0.32359
0.234869
0.161146
0.105563
0.0684831
0.0628622
0.526752
0.542604
0.548685
0.550093
0.550519
0.550943
0.551357
0.551609
0.551613
0.551368
0.550864
0.550134
0.549221
0.548206
0.547165
0.546112
0.545029
0.543839
0.542364
0.540298
0.537305
0.533061
0.523558
0.495874
0.431383
0.337325
0.237134
0.152083
0.0977176
0.075295
0.529303
0.545275
0.551327
0.552643
0.552904
0.553185
0.553505
0.553738
0.553822
0.553764
0.553596
0.553364
0.553115
0.552879
0.552662
0.552414
0.552038
0.551383
0.55026
0.548447
0.545711
0.541993
0.537225
0.528857
0.507632
0.454256
0.349452
0.230327
0.148372
0.100226
0.533127
0.547902
0.553411
0.554589
0.554797
0.55507
0.555422
0.555732
0.555955
0.556104
0.556215
0.556317
0.556429
0.556539
0.556605
0.556559
0.556307
0.555752
0.554805
0.553396
0.55147
0.549054
0.54637
0.543091
0.537412
0.522919
0.468058
0.341535
0.224891
0.150534
0.538094
0.550499
0.555128
0.556126
0.556374
0.556741
0.557201
0.557633
0.558001
0.558319
0.558605
0.558866
0.559089
0.559235
0.559255
0.559093
0.558703
0.558065
0.557186
0.556091
0.554829
0.553458
0.552029
0.550483
0.548593
0.545357
0.530115
0.448606
0.320879
0.235851
0.543159
0.552819
0.556521
0.557404
0.557793
0.558332
0.558944
0.559512
0.560013
0.560455
0.560842
0.561155
0.56136
0.561408
0.561251
0.560863
0.560252
0.55945
0.558502
0.557466
0.556399
0.555341
0.554272
0.553084
0.551589
0.548162
0.538043
0.506674
0.412909
0.342563
0.54749
0.554708
0.557673
0.558589
0.559215
0.559972
0.560748
0.561449
0.562067
0.562604
0.563044
0.563356
0.563488
0.563386
0.563014
0.562378
0.561526
0.560519
0.559417
0.558259
0.557063
0.555812
0.554403
0.552684
0.54994
0.541862
0.51824
0.505034
0.468073
0.437475
0.550788
0.556212
0.55876
0.559866
0.560785
0.561755
0.562668
0.563474
0.564168
0.564748
0.565182
0.565435
0.565415
0.565102
0.564496
0.563637
0.562585
0.56142
0.560211
0.55896
0.557599
0.556065
0.554098
0.550966
0.544767
0.525055
0.481552
0.475256
0.470427
0.492027
0.553185
0.557546
0.560006
0.561396
0.56257
0.56367
0.564638
0.565452
0.566099
0.566559
0.566864
0.566878
0.566599
0.56597
0.565103
0.564091
0.562994
0.561853
0.56074
0.559631
0.55838
0.556744
0.554389
0.55024
0.540856
0.516989
0.47175
0.471277
0.47067
0.503034
0.555071
0.559003
0.561586
0.563204
0.564473
0.565535
0.566392
0.566986
0.567378
0.567398
0.567376
0.566898
0.566036
0.564949
0.563821
0.562828
0.562005
0.561227
0.560465
0.559804
0.559184
0.558045
0.555866
0.551482
0.541606
0.518454
0.481271
0.473473
0.47128
0.512234
0.556919
0.560807
0.563488
0.5651
0.566209
0.567013
0.567521
0.567566
0.567552
0.567268
0.56613
0.564258
0.56186
0.559442
0.557659
0.556933
0.557131
0.557965
0.558545
0.558986
0.559223
0.559283
0.55823
0.554326
0.543168
0.519836
0.504764
0.496552
0.478667
0.516781
0.5591
0.562958
0.565459
0.566752
0.567465
0.567829
0.567831
0.567555
0.566577
0.564557
0.561158
0.556598
0.551588
0.547241
0.544671
0.544111
0.545098
0.549413
0.553452
0.556278
0.558313
0.559615
0.560106
0.557489
0.544951
0.519264
0.519226
0.519223
0.504201
0.511805
0.561725
0.565211
0.567178
0.567945
0.568189
0.568093
0.567576
0.566436
0.564084
0.560093
0.554531
0.548513
0.543565
0.540225
0.538019
0.536625
0.53661
0.537011
0.545449
0.551529
0.556105
0.559185
0.56045
0.559947
0.548609
0.517742
0.514272
0.519184
0.504388
0.453078
0.564571
0.567265
0.56851
0.568806
0.568762
0.568435
0.567669
0.566261
0.563774
0.559976
0.555701
0.552135
0.549462
0.547077
0.544513
0.541738
0.539007
0.536877
0.539482
0.546427
0.553078
0.558173
0.560509
0.560446
0.553475
0.521379
0.492195
0.516574
0.452916
0.376832
0.567235
0.568936
0.569552
0.569653
0.569652
0.569498
0.569052
0.568204
0.566497
0.56366
0.561251
0.560011
0.558936
0.557084
0.554149
0.549965
0.544606
0.538423
0.536941
0.542786
0.549889
0.556622
0.560464
0.560571
0.557945
0.533828
0.480674
0.4407
0.386841
0.37356
0.569305
0.570112
0.570382
0.570536
0.570743
0.570937
0.571126
0.57117
0.569781
0.566874
0.563678
0.561969
0.561346
0.560798
0.559229
0.555751
0.549776
0.540893
0.533211
0.540012
0.546958
0.55446
0.560039
0.560491
0.56044
0.546949
0.496014
0.410671
0.374002
0.373633
0.570636
0.57088
0.571007
0.57117
0.571354
0.571379
0.571339
0.571225
0.568503
0.565428
0.560522
0.557111
0.556355
0.557694
0.558656
0.558092
0.553883
0.544146
0.533121
0.536705
0.544605
0.552091
0.558412
0.56059
0.56046
0.555295
0.526202
0.444356
0.3857
0.373902
0.57134
0.571357
0.571391
0.5714
0.57138
0.571319
0.569431
0.557739
0.553549
0.557666
0.552043
0.544894
0.540708
0.544355
0.553618
0.557015
0.556516
0.547949
0.533449
0.530656
0.542147
0.549891
0.556343
0.560456
0.560553
0.558917
0.546446
0.50479
0.428601
0.374197
0.571451
0.57145
0.571448
0.571396
0.57005
0.566051
0.550389
0.483485
0.466125
0.541134
0.543955
0.537198
0.530599
0.530699
0.542674
0.553501
0.556507
0.551391
0.536709
0.530284
0.53954
0.548091
0.553979
0.559111
0.560447
0.560071
0.554435
0.536508
0.482561
0.397928
0.571452
0.571448
0.571365
0.568417
0.561993
0.546305
0.475215
0.299977
0.281842
0.455755
0.538313
0.535461
0.53085
0.530452
0.534057
0.549047
0.555484
0.553448
0.540324
0.530352
0.537721
0.546754
0.552168
0.556641
0.559935
0.560075
0.55792
0.547196
0.511798
0.443127
0.571448
0.571238
0.567149
0.558674
0.542816
0.505478
0.304572
0.223928
0.221011
0.265698
0.466376
0.535245
0.531856
0.531666
0.535345
0.546232
0.553433
0.55342
0.542551
0.530342
0.536576
0.545615
0.550793
0.55482
0.558341
0.560052
0.559813
0.552514
0.52405
0.468153
0.571289
0.565485
0.557441
0.542127
0.525776
0.348394
0.223928
0.222001
0.223926
0.220653
0.263888
0.45822
0.534946
0.534954
0.537329
0.544163
0.551352
0.55341
0.544356
0.531928
0.536029
0.544515
0.549536
0.553292
0.556838
0.559698
0.559821
0.556381
0.533519
0.474866
0.564407
0.554249
0.545711
0.538987
0.415011
0.237699
0.223497
0.223926
0.22155
0.223926
0.220597
0.249737
0.420121
0.521394
0.539829
0.541417
0.549042
0.55255
0.546434
0.536045
0.536365
0.543416
0.548385
0.551906
0.555189
0.558457
0.559806
0.559279
0.543886
0.489822
0.550316
0.540875
0.532291
0.469301
0.322432
0.253269
0.232578
0.223419
0.223926
0.221152
0.223926
0.22047
0.229826
0.336638
0.467372
0.532878
0.543813
0.551025
0.548773
0.540688
0.537585
0.542405
0.547303
0.550737
0.553526
0.556522
0.559678
0.559609
0.552593
0.516904
0.510279
0.504367
0.486102
0.416615
0.35272
0.31736
0.274504
0.235367
0.22329
0.223926
0.220953
0.223926
0.220368
0.223931
0.256235
0.383667
0.506755
0.543878
0.548732
0.544033
0.538941
0.541346
0.546124
0.549702
0.552249
0.554339
0.55683
0.558793
0.555839
0.539337
0.474667
0.475591
0.467049
0.44228
0.426898
0.405375
0.347422
0.277874
0.232665
0.223164
0.223926
0.220902
0.223926
0.220376
0.223926
0.223057
0.307988
0.474671
0.5422
0.544007
0.538949
0.540092
0.544713
0.548524
0.551298
0.552947
0.553803
0.554964
0.55476
0.5492
0.474666
0.479105
0.482022
0.485184
0.487181
0.471129
0.423891
0.35011
0.273536
0.229925
0.223075
0.223926
0.221148
0.223926
0.220382
0.223926
0.221448
0.268888
0.453862
0.536116
0.536679
0.538617
0.543011
0.546953
0.550249
0.552332
0.552667
0.551687
0.551294
0.550568
0.474666
0.496226
0.503447
0.508215
0.507291
0.500463
0.481485
0.432245
0.350428
0.269231
0.226912
0.223062
0.223926
0.221796
0.223926
0.220734
0.223926
0.221147
0.254942
0.454896
0.53106
0.536158
0.540631
0.544933
0.54876
0.551627
0.552628
0.55176
0.549406
0.549165
0.484937
0.512722
0.517974
0.52073
0.521412
0.520994
0.516634
0.497539
0.441417
0.348802
0.264839
0.228302
0.223268
0.223926
0.222186
0.223926
0.221049
0.223926
0.221566
0.279034
0.486803
0.531114
0.537375
0.54283
0.546726
0.550267
0.55257
0.552537
0.550237
0.546576
0.504879
0.525627
0.532106
0.536021
0.538717
0.539858
0.537612
0.530516
0.509093
0.446677
0.348086
0.270904
0.237671
0.224583
0.223926
0.222945
0.223926
0.221958
0.223926
0.223101
0.361633
0.52953
0.536543
0.540921
0.543151
0.546762
0.55159
0.552514
0.552459
0.548477
0.520462
0.538318
0.546165
0.549796
0.551784
0.551352
0.54863
0.544515
0.537899
0.517025
0.454358
0.362094
0.296249
0.261862
0.242266
0.22724
0.223258
0.223926
0.223161
0.223926
0.328977
0.502923
0.536076
0.535294
0.53441
0.536465
0.54422
0.552419
0.552459
0.552335
0.535227
0.550517
0.555822
0.55606
0.555784
0.551672
0.548677
0.546267
0.54494
0.541905
0.52417
0.472472
0.399641
0.345714
0.306929
0.269615
0.240683
0.227608
0.224515
0.25696
0.386484
0.508797
0.528739
0.523399
0.517449
0.516339
0.520875
0.541328
0.552319
0.552401
0.550591
0.55826
0.5583
0.556013
0.548292
0.538012
0.53887
0.539629
0.54067
0.541936
0.541964
0.532283
0.498709
0.451375
0.405795
0.356195
0.30423
0.270493
0.269078
0.349268
0.481521
0.528057
0.531075
0.523299
0.516139
0.516247
0.515977
0.516196
0.534777
0.552261
0.558775
0.558761
0.553238
0.5378
0.518923
0.497229
0.508301
0.519916
0.52677
0.533844
0.539568
0.540189
0.538331
0.520983
0.494007
0.455603
0.40452
0.363991
0.369835
0.447461
0.522942
0.540072
0.542482
0.537462
0.524022
0.516077
0.516199
0.515987
0.516191
0.541005
0.558094
0.550655
0.525117
0.490033
0.476125
0.475198
0.475023
0.491036
0.508117
0.518355
0.530369
0.540136
0.543384
0.541481
0.533351
0.518366
0.4929
0.469171
0.475655
0.505244
0.525375
0.540802
0.548865
0.549926
0.542867
0.52735
0.5161
0.516161
0.516033
0.517422
0.549846
0.52489
0.476608
0.474965
0.475197
0.474896
0.475198
0.474722
0.492812
0.502706
0.520634
0.537365
0.544835
0.546483
0.543791
0.538763
0.53217
0.526868
0.528263
0.529573
0.527509
0.53817
0.548242
0.553579
0.553542
0.545587
0.529408
0.516097
0.516127
0.516059
0.527266
0.477839
0.475016
0.475198
0.475088
0.475198
0.47498
0.475198
0.484132
0.496352
0.519825
0.539288
0.548595
0.550493
0.548565
0.545468
0.542943
0.541821
0.54174
0.540125
0.534577
0.537753
0.546062
0.55307
0.55627
0.555149
0.546518
0.530106
0.516113
0.516138
0.489111
0.477792
0.478625
0.491042
0.483339
0.475171
0.475198
0.474723
0.477166
0.496067
0.526928
0.547891
0.554221
0.554363
0.552115
0.549565
0.547738
0.546844
0.546594
0.545908
0.542782
0.540859
0.545223
0.551463
0.556281
0.558174
0.555623
0.546189
0.52779
0.516141
0.47964
0.479475
0.518863
0.540072
0.528604
0.488916
0.475104
0.475199
0.475298
0.512888
0.546234
0.557189
0.558783
0.557167
0.554777
0.552646
0.5511
0.550141
0.549677
0.549366
0.548172
0.546046
0.546677
0.550639
0.555339
0.558362
0.559119
0.555444
0.543385
0.516444
0.480958
0.518727
0.548902
0.558502
0.555021
0.507987
0.47812
0.475048
0.506488
0.546608
0.560246
0.562544
0.561149
0.55887
0.556729
0.55497
0.553596
0.552563
0.551857
0.551441
0.551017
0.550105
0.549553
0.55129
0.554667
0.557966
0.559936
0.559548
0.55284
0.527595
0.512537
0.546578
0.55896
0.558853
0.543815
0.512073
0.503996
0.521177
0.551262
0.564104
0.56591
0.564358
0.562061
0.55996
0.558194
0.556698
0.555408
0.554293
0.553358
0.552666
0.552298
0.552123
0.552084
0.552889
0.554992
0.557644
0.559937
0.560728
0.556742
0.540378
0.528093
0.552815
0.55969
0.553141
0.541524
0.541383
0.549041
0.560619
0.568232
0.568277
0.566532
0.56423
0.562368
0.560757
0.55933
0.558014
0.556766
0.555567
0.55442
0.553388
0.552667
0.552474
0.55312
0.554362
0.555999
0.557912
0.559837
0.560814
0.558216
0.547304
0.528161
0.555169
0.560628
0.554836
0.552862
0.564121
0.569083
0.570445
0.570089
0.568025
0.565449
0.563648
0.562333
0.56131
0.560252
0.55912
0.557915
0.556646
0.555309
0.553922
0.552665
0.552046
0.552659
0.554581
0.55703
0.558777
0.560096
0.560914
0.5591
0.551241
0.528232
0.560308
0.565766
0.5641
0.567187
0.571199
0.571198
0.57056
0.567628
0.564893
0.563183
0.562377
0.561905
0.561485
0.560945
0.560163
0.559076
0.55777
0.556278
0.554569
0.552738
0.551209
0.550965
0.553064
0.556911
0.559751
0.560838
0.561243
0.559961
0.554162
0.534037
0.567285
0.5714
0.571197
0.571361
0.571286
0.569855
0.565702
0.561192
0.559478
0.559521
0.560101