/*--------------------------------*- C++ -*----------------------------------*\
| =========                 |                                                 |
| \\      /  F ield         | OpenFOAM: The Open Source CFD Toolbox           |
|  \\    /   O peration     | Version:  2.3.0                                 |
|   \\  /    A nd           | Web:      www.OpenFOAM.org                      |
|    \\/     M anipulation  |                                                 |
\*---------------------------------------------------------------------------*/
FoamFile
{
    version     2.0;
    format      ascii;
    class       volVectorField;
    location    "1.24";
    object      Ur;
}
// * * * * * * * * * * * * * * * * * * * * * * * * * * * * * * * * * * * * * //

dimensions      [0 1 -1 0 0 0 0];

internalField   nonuniform List<vector> 
6000
(
(-0.00583112 -0.503722 0)
(-0.0437406 -0.522768 0)
(-0.0868907 -0.536443 0)
(0.0416644 -0.775572 0)
(0.156404 -0.564936 0)
(0.126338 -0.591181 0)
(0.0896552 -0.591326 0)
(0.0350336 -0.583568 0)
(-0.0524464 -0.60453 0)
(-0.160273 -0.64121 0)
(-0.248003 -0.66152 0)
(-0.277987 -0.678769 0)
(-0.253278 -0.672336 0)
(-0.19388 -0.665022 0)
(-0.11133 -0.681448 0)
(-0.0309713 -0.670393 0)
(0.00909979 -0.653271 0)
(0.0081961 -0.63571 0)
(-0.00601568 -0.615417 0)
(0.0159216 -0.641657 0)
(0.0890068 -0.722467 0)
(0.12478 -0.702322 0)
(0.138776 -0.66674 0)
(0.17129 -0.641479 0)
(0.16166 -0.591772 0)
(0.110606 -0.593986 0)
(0.0689362 -0.614524 0)
(0.0418242 -0.639331 0)
(0.0255568 -0.680637 0)
(0.00494541 -0.653454 0)
(-0.0279308 -0.868283 0)
(-0.0677135 -0.885736 0)
(-0.0425825 -0.985937 0)
(-0.0209895 -1.26749 0)
(0.0299827 -1.03509 0)
(0.0968413 -0.981023 0)
(0.0575259 -0.905185 0)
(-0.0323163 -0.873325 0)
(-0.140007 -0.924857 0)
(-0.223291 -1.02149 0)
(-0.241654 -1.06688 0)
(-0.212823 -1.13845 0)
(-0.148696 -1.19428 0)
(-0.0725822 -1.28832 0)
(-0.0119442 -1.28356 0)
(0.0216216 -1.23897 0)
(0.0475135 -1.16578 0)
(0.0673816 -1.11665 0)
(0.0826474 -1.10043 0)
(0.0944592 -1.16638 0)
(0.0841306 -1.26046 0)
(0.0766797 -1.30068 0)
(0.103541 -1.21537 0)
(0.146851 -1.07623 0)
(0.143247 -0.93653 0)
(0.0851203 -0.941664 0)
(0.023356 -0.983805 0)
(-0.0274259 -1.02032 0)
(-0.00343476 -1.10681 0)
(0.0241655 -1.06604 0)
(-0.0278556 -0.726237 0)
(-0.0750222 -0.761575 0)
(-0.0763261 -0.941989 0)
(-0.0462058 -1.13784 0)
(0.0222205 -1.02464 0)
(0.0682421 -0.850634 0)
(0.0125518 -0.71589 0)
(-0.112028 -0.727288 0)
(-0.240756 -0.820415 0)
(-0.257564 -0.947586 0)
(-0.179096 -1.03621 0)
(-0.0759008 -1.1364 0)
(0.0277056 -1.18388 0)
(0.0869073 -1.17767 0)
(0.0974974 -1.12545 0)
(0.0956978 -1.06217 0)
(0.0997018 -1.00162 0)
(0.104699 -0.962401 0)
(0.106595 -0.962928 0)
(0.0978943 -1.0025 0)
(0.0666438 -1.04481 0)
(0.0320684 -1.05888 0)
(0.00984448 -1.06945 0)
(0.00276358 -1.0475 0)
(0.0123842 -0.893142 0)
(0.0125459 -0.825862 0)
(-0.0132226 -0.86478 0)
(-0.0358896 -0.904758 0)
(-0.0155999 -1.08097 0)
(0.00774192 -0.917247 0)
(-0.0272181 -0.727924 0)
(-0.0562431 -0.801494 0)
(-0.036177 -1.00952 0)
(-0.0135511 -1.11833 0)
(-0.00380417 -1.01525 0)
(-0.0333047 -0.820944 0)
(-0.0885338 -0.727339 0)
(-0.178492 -0.776294 0)
(-0.225161 -0.930776 0)
(-0.138788 -1.13233 0)
(0.00100156 -1.17677 0)
(0.102894 -1.19448 0)
(0.149693 -1.15585 0)
(0.168022 -1.11853 0)
(0.179173 -1.05587 0)
(0.188314 -0.975952 0)
(0.177926 -0.893154 0)
(0.137102 -0.842123 0)
(0.0884111 -0.845959 0)
(0.0562334 -0.894047 0)
(0.0358638 -0.9383 0)
(0.0120277 -0.966175 0)
(-0.0239389 -0.976385 0)
(-0.079947 -0.976907 0)
(-0.105378 -0.932957 0)
(-0.0791338 -0.857261 0)
(-0.0732282 -0.866671 0)
(-0.0576952 -0.965235 0)
(-0.0398173 -1.10838 0)
(-0.0217401 -0.973797 0)
(-0.0255073 -0.702429 0)
(-0.0375542 -0.831577 0)
(-0.0200134 -1.07945 0)
(-0.00838467 -1.11905 0)
(-0.0135729 -0.957838 0)
(-0.0941546 -0.720953 0)
(-0.18053 -0.727309 0)
(-0.17174 -0.851761 0)
(-0.0699111 -1.14496 0)
(0.0612928 -1.21277 0)
(0.131912 -1.18801 0)
(0.175738 -1.15833 0)
(0.206223 -1.11919 0)
(0.239533 -1.07041 0)
(0.280077 -0.998874 0)
(0.301173 -0.895605 0)
(0.260674 -0.786483 0)
(0.16315 -0.711248 0)
(0.0594778 -0.722483 0)
(-0.00115172 -0.793392 0)
(-0.013698 -0.844149 0)
(-0.0181875 -0.875205 0)
(-0.0299694 -0.886954 0)
(-0.046488 -0.865257 0)
(-0.0558952 -0.806275 0)
(-0.0788509 -0.733942 0)
(-0.132266 -0.746732 0)
(-0.141652 -0.886679 0)
(-0.0940715 -1.00265 0)
(-0.035283 -0.994848 0)
(-0.0052676 -0.683541 0)
(-0.028494 -0.827694 0)
(-0.0527563 -1.09497 0)
(-0.0426867 -1.14328 0)
(-0.0387357 -0.917428 0)
(-0.109617 -0.631055 0)
(-0.160869 -0.77849 0)
(-0.0465295 -1.08519 0)
(0.1143 -1.25145 0)
(0.166213 -1.21933 0)
(0.196171 -1.17232 0)
(0.230226 -1.12899 0)
(0.268232 -1.07549 0)
(0.316731 -1.02139 0)
(0.376237 -0.949843 0)
(0.377533 -0.806466 0)
(0.281517 -0.625193 0)
(0.159996 -0.534851 0)
(0.0408834 -0.558867 0)
(-0.0429217 -0.698036 0)
(-0.0572451 -0.753802 0)
(-0.038224 -0.782432 0)
(-0.0127711 -0.780225 0)
(0.00991995 -0.744082 0)
(0.00388076 -0.68079 0)
(-0.0640298 -0.557098 0)
(-0.160952 -0.561048 0)
(-0.235929 -0.809439 0)
(-0.169541 -0.996038 0)
(-0.0467497 -1.03072 0)
(0.00561387 -0.666012 0)
(-0.0642158 -0.71026 0)
(-0.130271 -1.08156 0)
(-0.0898932 -1.11996 0)
(-0.059373 -0.912715 0)
(-0.089619 -0.591419 0)
(-0.0448833 -0.930978 0)
(0.122551 -1.26569 0)
(0.201767 -1.27615 0)
(0.235084 -1.21859 0)
(0.265112 -1.15412 0)
(0.298868 -1.08714 0)
(0.338075 -1.02979 0)
(0.377204 -0.971256 0)
(0.39684 -0.880163 0)
(0.309278 -0.64426 0)
(0.194547 -0.458985 0)
(0.119246 -0.396469 0)
(0.0530104 -0.412662 0)
(-0.0234382 -0.577706 0)
(-0.064209 -0.692054 0)
(-0.0399021 -0.720833 0)
(0.00722485 -0.713753 0)
(0.0266697 -0.649264 0)
(-0.0182638 -0.530891 0)
(-0.0775757 -0.413455 0)
(-0.123922 -0.417003 0)
(-0.203986 -0.668339 0)
(-0.20981 -1.00634 0)
(-0.0713992 -1.07273 0)
(-0.0225916 -0.58964 0)
(-0.108943 -0.551958 0)
(-0.177184 -1.00105 0)
(-0.117288 -1.04427 0)
(-0.0686813 -0.902924 0)
(-0.0388217 -0.609177 0)
(0.0815862 -1.16623 0)
(0.216638 -1.32458 0)
(0.263699 -1.28904 0)
(0.322057 -1.22624 0)
(0.357576 -1.1295 0)
(0.376035 -1.04428 0)
(0.381 -0.972822 0)
(0.359774 -0.885356 0)
(0.273284 -0.71685 0)
(0.150686 -0.476735 0)
(0.0915929 -0.373222 0)
(0.0809062 -0.354192 0)
(0.0778014 -0.363329 0)
(0.0456725 -0.472864 0)
(-0.00603245 -0.611271 0)
(-0.0199476 -0.669136 0)
(-0.0116782 -0.655236 0)
(-0.0338594 -0.546091 0)
(-0.0752612 -0.438907 0)
(-0.0831186 -0.379222 0)
(-0.0600609 -0.374962 0)
(-0.0754573 -0.532527 0)
(-0.145175 -0.946067 0)
(-0.0861171 -1.14178 0)
(-0.0306431 -0.491773 0)
(-0.0788412 -0.437405 0)
(-0.148601 -0.832733 0)
(-0.116196 -0.874556 0)
(-0.0793086 -0.833308 0)
(-0.01296 -0.72556 0)
(0.139561 -1.26421 0)
(0.240188 -1.32358 0)
(0.323748 -1.30125 0)
(0.407159 -1.2365 0)
(0.426416 -1.08925 0)
(0.383573 -0.948974 0)
(0.315082 -0.843125 0)
(0.215001 -0.722646 0)
(0.095046 -0.547562 0)
(0.0256434 -0.40175 0)
(0.0266678 -0.366803 0)
(0.0562556 -0.370271 0)
(0.0884408 -0.383481 0)
(0.0930998 -0.449267 0)
(0.0518184 -0.547276 0)
(-0.00136935 -0.60604 0)
(-0.0495982 -0.592759 0)
(-0.0942257 -0.508662 0)
(-0.105296 -0.443392 0)
(-0.0732949 -0.415385 0)
(-0.00931049 -0.414872 0)
(0.03937 -0.499957 0)
(-0.00819531 -0.817294 0)
(-0.0413331 -1.16656 0)
(-0.00818911 -0.423875 0)
(0.015563 -0.378025 0)
(-0.0300624 -0.584007 0)
(-0.109037 -0.71577 0)
(-0.110132 -0.738738 0)
(-0.0452494 -0.865057 0)
(0.113565 -1.25372 0)
(0.232465 -1.29893 0)
(0.347863 -1.30171 0)
(0.425467 -1.24512 0)
(0.380609 -0.985094 0)
(0.264648 -0.780026 0)
(0.154285 -0.678179 0)
(0.0527359 -0.585003 0)
(-0.0186188 -0.479299 0)
(-0.025605 -0.41668 0)
(0.00633775 -0.414284 0)
(0.0403179 -0.424338 0)
(0.0694698 -0.438986 0)
(0.0793119 -0.479848 0)
(0.0543638 -0.544279 0)
(-0.000662635 -0.594551 0)
(-0.0625678 -0.587251 0)
(-0.0992574 -0.538544 0)
(-0.100982 -0.507737 0)
(-0.0724439 -0.51367 0)
(-0.0115522 -0.541916 0)
(0.0663792 -0.601663 0)
(0.0832256 -0.80869 0)
(0.0310588 -1.15289 0)
(0.0106641 -0.398617 0)
(0.0635594 -0.373909 0)
(0.0588348 -0.454166 0)
(-0.0390954 -0.6148 0)
(-0.0939428 -0.668769 0)
(-0.0433026 -0.938229 0)
(0.0906127 -1.26232 0)
(0.20222 -1.27403 0)
(0.302454 -1.30471 0)
(0.327243 -1.19803 0)
(0.213842 -0.8172 0)
(0.0947883 -0.633678 0)
(0.0181205 -0.583602 0)
(-0.0315668 -0.541197 0)
(-0.0483204 -0.501692 0)
(-0.0337678 -0.487991 0)
(-0.0038075 -0.499372 0)
(0.0268597 -0.515274 0)
(0.0463048 -0.525185 0)
(0.039958 -0.548459 0)
(0.0138251 -0.595122 0)
(-0.0207913 -0.658003 0)
(-0.0529468 -0.661417 0)
(-0.0798984 -0.627038 0)
(-0.107106 -0.612806 0)
(-0.111784 -0.666158 0)
(-0.0691463 -0.7397 0)
(0.0135095 -0.817028 0)
(0.0900568 -0.997106 0)
(0.0604962 -1.2517 0)
(0.0140823 -0.425118 0)
(0.0440614 -0.43099 0)
(0.0586303 -0.510486 0)
(0.0333138 -0.644394 0)
(0.0152351 -0.690468 0)
(0.0745907 -1.02167 0)
(0.151529 -1.27735 0)
(0.171394 -1.26373 0)
(0.179101 -1.28976 0)
(0.127029 -1.09177 0)
(0.0169468 -0.684568 0)
(-0.0366907 -0.583441 0)
(-0.0475608 -0.581068 0)
(-0.0532554 -0.581161 0)
(-0.0537671 -0.582038 0)
(-0.04482 -0.596597 0)
(-0.0234142 -0.630483 0)
(0.0120787 -0.661431 0)
(0.0332471 -0.669723 0)
(0.0099599 -0.665709 0)
(-0.0464602 -0.704989 0)
(-0.0647916 -0.781644 0)
(-0.0392362 -0.775854 0)
(-0.0539606 -0.701972 0)
(-0.104899 -0.665425 0)
(-0.128408 -0.755205 0)
(-0.0883256 -0.872702 0)
(-0.00163363 -0.986655 0)
(0.0764414 -1.19428 0)
(0.0512639 -1.33584 0)
(0.00281874 -0.492544 0)
(-0.0170146 -0.551305 0)
(-0.0483037 -0.702415 0)
(0.00904215 -0.886243 0)
(0.15323 -0.964652 0)
(0.273152 -1.19354 0)
(0.26486 -1.28375 0)
(0.152428 -1.2085 0)
(0.0442908 -1.21852 0)
(-0.0627877 -0.991931 0)
(-0.112657 -0.680817 0)
(-0.0978174 -0.649993 0)
(-0.0778269 -0.685808 0)
(-0.0705098 -0.731395 0)
(-0.0753399 -0.754648 0)
(-0.0833583 -0.789088 0)
(-0.0722487 -0.832384 0)
(-0.0128762 -0.881695 0)
(0.0436341 -0.848639 0)
(0.0298095 -0.785988 0)
(0.00991323 -0.815191 0)
(0.0465895 -0.917197 0)
(0.0825625 -0.886054 0)
(0.0520432 -0.731158 0)
(-0.0319432 -0.665925 0)
(-0.0987279 -0.829884 0)
(-0.0777164 -1.06132 0)
(0.0189597 -1.25665 0)
(0.0756842 -1.41287 0)
(0.0377636 -1.44002 0)
(-0.0473304 -0.510157 0)
(-0.169825 -0.647655 0)
(-0.156026 -0.916519 0)
(0.0312962 -1.17628 0)
(0.305381 -1.37862 0)
(0.474227 -1.47071 0)
(0.359576 -1.34721 0)
(0.147926 -1.22228 0)
(-0.0189186 -1.2099 0)
(-0.121911 -1.02907 0)
(-0.136718 -0.842279 0)
(-0.131179 -0.823567 0)
(-0.144252 -0.872585 0)
(-0.122162 -0.910532 0)
(-0.0797666 -0.90448 0)
(-0.0487143 -0.911086 0)
(-0.00657605 -0.95041 0)
(0.092797 -1.02631 0)
(0.244109 -0.978667 0)
(0.352067 -0.92033 0)
(0.419438 -0.986023 0)
(0.424911 -0.993216 0)
(0.36334 -0.874858 0)
(0.256445 -0.649865 0)
(0.157365 -0.536143 0)
(0.08086 -0.6646 0)
(0.0258866 -0.929609 0)
(0.0228016 -1.08773 0)
(0.0294258 -1.13797 0)
(0.0110324 -1.15749 0)
(-0.0979073 -0.408272 0)
(-0.225345 -0.67401 0)
(-0.171935 -1.33157 0)
(0.130458 -1.71493 0)
(0.369198 -1.92017 0)
(0.425953 -1.7541 0)
(0.299419 -1.46339 0)
(0.122647 -1.34671 0)
(-0.0447765 -1.32099 0)
(-0.127373 -1.19909 0)
(-0.1194 -1.03236 0)
(-0.106229 -0.986651 0)
(-0.0994689 -1.06014 0)
(-0.0611526 -1.17777 0)
(0.0273084 -1.22443 0)
(0.149325 -1.26051 0)
(0.308581 -1.35213 0)
(0.525056 -1.42321 0)
(0.777903 -1.32468 0)
(0.872568 -1.08636 0)
(0.773842 -0.888387 0)
(0.58679 -0.77793 0)
(0.409045 -0.656208 0)
(0.280033 -0.490856 0)
(0.209282 -0.41953 0)
(0.165244 -0.526005 0)
(0.100153 -0.763056 0)
(0.0276506 -0.981505 0)
(0.00774773 -1.0193 0)
(0.00642856 -1.01544 0)
(-0.0784821 -0.284859 0)
(-0.130484 -0.860168 0)
(0.0338156 -1.6244 0)
(0.185555 -1.78562 0)
(0.213387 -1.90165 0)
(0.203365 -1.89556 0)
(0.168213 -1.7606 0)
(0.0899154 -1.65124 0)
(-0.0244804 -1.62284 0)
(-0.0877726 -1.61262 0)
(-0.0637623 -1.49134 0)
(0.0155864 -1.43691 0)
(0.129169 -1.41205 0)
(0.247334 -1.38631 0)
(0.34953 -1.31772 0)
(0.448459 -1.27714 0)
(0.545251 -1.29601 0)
(0.647695 -1.33034 0)
(0.789424 -1.27301 0)
(0.791999 -0.959118 0)
(0.642769 -0.654936 0)
(0.46978 -0.548616 0)
(0.325331 -0.493801 0)
(0.247666 -0.414739 0)
(0.218529 -0.383273 0)
(0.204798 -0.464864 0)
(0.168293 -0.636183 0)
(0.096996 -0.841067 0)
(0.0410816 -0.940893 0)
(0.0151072 -0.933049 0)
(0.00560593 -0.324421 0)
(0.0948742 -1.12071 0)
(0.205544 -1.56911 0)
(0.193287 -1.61246 0)
(0.135781 -1.63221 0)
(0.0829612 -1.6409 0)
(0.0613295 -1.63557 0)
(0.056679 -1.67006 0)
(0.0696534 -1.66046 0)
(0.093536 -1.56455 0)
(0.141209 -1.43479 0)
(0.213128 -1.33833 0)
(0.298974 -1.28948 0)
(0.378993 -1.2524 0)
(0.441615 -1.20854 0)
(0.485152 -1.18709 0)
(0.52401 -1.21005 0)
(0.5612 -1.24833 0)
(0.606504 -1.19803 0)
(0.584535 -0.865991 0)
(0.460442 -0.496848 0)
(0.350107 -0.40382 0)
(0.259543 -0.40017 0)
(0.217156 -0.377736 0)
(0.21025 -0.372627 0)
(0.21429 -0.436499 0)
(0.202404 -0.5579 0)
(0.156254 -0.704387 0)
(0.0915195 -0.801804 0)
(0.0294155 -0.793047 0)
(0.0963366 -0.637344 0)
(0.265575 -1.2388 0)
(0.272201 -1.49195 0)
(0.205512 -1.50541 0)
(0.147164 -1.51413 0)
(0.111859 -1.50197 0)
(0.0908495 -1.46749 0)
(0.0890403 -1.46663 0)
(0.124584 -1.43633 0)
(0.170477 -1.40045 0)
(0.217903 -1.34827 0)
(0.267249 -1.30298 0)
(0.336129 -1.28648 0)
(0.415443 -1.26233 0)
(0.470153 -1.20639 0)
(0.486935 -1.16424 0)
(0.486865 -1.16976 0)
(0.485109 -1.18517 0)
(0.468167 -1.11311 0)
(0.418907 -0.78346 0)
(0.327171 -0.400035 0)
(0.266917 -0.318639 0)
(0.210527 -0.342492 0)
(0.185781 -0.35807 0)
(0.189519 -0.373474 0)
(0.200321 -0.422938 0)
(0.196856 -0.507043 0)
(0.162596 -0.606085 0)
(0.101876 -0.673546 0)
(0.0330713 -0.662475 0)
(0.118849 -0.966455 0)
(0.267758 -1.23719 0)
(0.252086 -1.36637 0)
(0.195278 -1.39299 0)
(0.149192 -1.40707 0)
(0.134475 -1.41618 0)
(0.108149 -1.4182 0)
(0.112 -1.41912 0)
(0.151573 -1.41069 0)
(0.207454 -1.38695 0)
(0.24715 -1.35937 0)
(0.286645 -1.33202 0)
(0.350054 -1.32652 0)
(0.43276 -1.3002 0)
(0.483478 -1.20479 0)
(0.489112 -1.12268 0)
(0.470668 -1.11498 0)
(0.443095 -1.1064 0)
(0.377094 -0.991618 0)
(0.282648 -0.673568 0)
(0.20874 -0.336532 0)
(0.184418 -0.268088 0)
(0.160377 -0.307055 0)
(0.150035 -0.344111 0)
(0.15717 -0.372399 0)
(0.166854 -0.409993 0)
(0.16191 -0.463374 0)
(0.131847 -0.529169 0)
(0.0828706 -0.578801 0)
(0.0277123 -0.566429 0)
(0.0921195 -1.13267 0)
(0.188622 -1.18744 0)
(0.194846 -1.24271 0)
(0.166826 -1.26901 0)
(0.129105 -1.29053 0)
(0.113571 -1.3263 0)
(0.0968948 -1.37247 0)
(0.109973 -1.39511 0)
(0.161098 -1.38952 0)
(0.221884 -1.38422 0)
(0.255746 -1.3696 0)
(0.289774 -1.35728 0)
(0.345002 -1.3583 0)
(0.42429 -1.34203 0)
(0.47506 -1.21179 0)
(0.489678 -1.08061 0)
(0.475796 -1.03954 0)
(0.422835 -0.992032 0)
(0.305303 -0.852433 0)
(0.148513 -0.527453 0)
(0.0838751 -0.287791 0)
(0.083709 -0.242769 0)
(0.0890178 -0.285967 0)
(0.0945467 -0.330204 0)
(0.102979 -0.362691 0)
(0.109521 -0.392677 0)
(0.105677 -0.427841 0)
(0.0851863 -0.472519 0)
(0.0538048 -0.513154 0)
(0.01851 -0.499848 0)
(0.0668695 -1.23816 0)
(0.140229 -1.17423 0)
(0.165168 -1.17867 0)
(0.134687 -1.16838 0)
(0.082492 -1.19747 0)
(0.0507589 -1.25862 0)
(0.0492007 -1.33744 0)
(0.0869501 -1.37196 0)
(0.153877 -1.38427 0)
(0.216892 -1.38032 0)
(0.252256 -1.38164 0)
(0.28355 -1.37776 0)
(0.332937 -1.37806 0)
(0.397766 -1.36605 0)
(0.454793 -1.23348 0)
(0.497407 -1.07147 0)
(0.491041 -0.978591 0)
(0.386342 -0.852973 0)
(0.186366 -0.626292 0)
(0.0196461 -0.366176 0)
(-0.0284665 -0.255445 0)
(-0.0129768 -0.249912 0)
(0.0154946 -0.290535 0)
(0.0350859 -0.330934 0)
(0.0454296 -0.362786 0)
(0.0514848 -0.39019 0)
(0.0531242 -0.417948 0)
(0.0459241 -0.450307 0)
(0.0299834 -0.482391 0)
(0.0102427 -0.472559 0)
(0.054504 -1.30235 0)
(0.139693 -1.20324 0)
(0.182403 -1.13325 0)
(0.123407 -1.0535 0)
(0.015906 -1.10224 0)
(-0.0299931 -1.21985 0)
(-0.0105036 -1.32587 0)
(0.0538132 -1.37707 0)
(0.136152 -1.38477 0)
(0.206309 -1.38832 0)
(0.244932 -1.38381 0)
(0.275901 -1.3844 0)
(0.320092 -1.37938 0)
(0.37031 -1.37041 0)
(0.43179 -1.26275 0)
(0.485784 -1.07908 0)
(0.429989 -0.849955 0)
(0.255103 -0.627793 0)
(0.0455211 -0.404376 0)
(-0.0758504 -0.290253 0)
(-0.095802 -0.271553 0)
(-0.0660051 -0.283234 0)
(-0.0323297 -0.313466 0)
(-0.00949043 -0.347272 0)
(0.00533222 -0.377431 0)
(0.0157046 -0.403469 0)
(0.0226933 -0.427239 0)
(0.0241027 -0.45147 0)
(0.0159986 -0.474385 0)
(0.00453788 -0.470764 0)
(0.0465825 -1.34557 0)
(0.146136 -1.24885 0)
(0.200377 -1.07529 0)
(0.111651 -0.895773 0)
(-0.0351856 -0.972762 0)
(-0.108945 -1.1897 0)
(-0.0684022 -1.35658 0)
(0.0286898 -1.3877 0)
(0.12341 -1.39742 0)
(0.197476 -1.39035 0)
(0.241801 -1.38696 0)
(0.275279 -1.37964 0)
(0.31514 -1.37279 0)
(0.35657 -1.35285 0)
(0.408436 -1.27015 0)
(0.416241 -1.02032 0)
(0.282876 -0.671011 0)
(0.0783672 -0.412799 0)
(-0.0803478 -0.305614 0)
(-0.133767 -0.296884 0)
(-0.121292 -0.298673 0)
(-0.0933154 -0.312919 0)
(-0.0650846 -0.337458 0)
(-0.0409631 -0.365257 0)
(-0.0215202 -0.391355 0)
(-0.00629334 -0.41393 0)
(0.00502105 -0.433844 0)
(0.0108943 -0.452249 0)
(0.0087501 -0.468153 0)
(0.00268549 -0.468666 0)
(0.0494939 -1.37791 0)
(0.151666 -1.26707 0)
(0.198724 -0.976845 0)
(0.0872947 -0.695083 0)
(-0.0754599 -0.812108 0)
(-0.165434 -1.14402 0)
(-0.0986236 -1.4092 0)
(0.025968 -1.43163 0)
(0.12951 -1.41232 0)
(0.204136 -1.40023 0)
(0.247672 -1.38262 0)
(0.284917 -1.37118 0)
(0.323932 -1.35493 0)
(0.36371 -1.3318 0)
(0.397666 -1.23138 0)
(0.30127 -0.900016 0)
(0.0749263 -0.462376 0)
(-0.0901631 -0.294634 0)
(-0.154591 -0.295985 0)
(-0.158447 -0.304879 0)
(-0.140165 -0.316973 0)
(-0.115283 -0.333653 0)
(-0.0902497 -0.354847 0)
(-0.0661246 -0.377824 0)
(-0.0436123 -0.399834 0)
(-0.0240978 -0.418933 0)
(-0.00904451 -0.434643 0)
(0.000493688 -0.447999 0)
(0.00294418 -0.458573 0)
(0.00118543 -0.461268 0)
(0.0694079 -1.40136 0)
(0.171119 -1.2435 0)
(0.154988 -0.83878 0)
(0.0306771 -0.46948 0)
(-0.0963744 -0.607892 0)
(-0.179672 -1.12272 0)
(-0.0830555 -1.46852 0)
(0.0563895 -1.46439 0)
(0.158342 -1.431 0)
(0.222281 -1.39054 0)
(0.263241 -1.36703 0)
(0.301536 -1.345 0)
(0.339771 -1.32819 0)
(0.386885 -1.28901 0)
(0.359919 -1.09799 0)
(0.108241 -0.658121 0)
(-0.12117 -0.305011 0)
(-0.190057 -0.277002 0)
(-0.195704 -0.295674 0)
(-0.181927 -0.317056 0)
(-0.158876 -0.334785 0)
(-0.135863 -0.358313 0)
(-0.119844 -0.379496 0)
(-0.100894 -0.3964 0)
(-0.0774789 -0.409981 0)
(-0.0492179 -0.419868 0)
(-0.025079 -0.430956 0)
(-0.0111035 -0.440353 0)
(-0.00422977 -0.447171 0)
(-0.00107419 -0.449958 0)
(0.100912 -1.43392 0)
(0.177315 -1.14213 0)
(0.0600077 -0.612855 0)
(-0.0302273 -0.32188 0)
(-0.0900868 -0.466123 0)
(-0.1212 -1.08514 0)
(-0.0106485 -1.49474 0)
(0.123875 -1.48374 0)
(0.210051 -1.42243 0)
(0.262762 -1.36979 0)
(0.295738 -1.32361 0)
(0.326268 -1.30208 0)
(0.35915 -1.28799 0)
(0.393563 -1.19702 0)
(0.215114 -0.891209 0)
(-0.101202 -0.413216 0)
(-0.22033 -0.2762 0)
(-0.243017 -0.289275 0)
(-0.22652 -0.312387 0)
(-0.203346 -0.333487 0)
(-0.184764 -0.365258 0)
(-0.167116 -0.377854 0)
(-0.144106 -0.390066 0)
(-0.12493 -0.398286 0)
(-0.105469 -0.408526 0)
(-0.0806315 -0.415908 0)
(-0.0523618 -0.423221 0)
(-0.029985 -0.430816 0)
(-0.0154898 -0.43664 0)
(-0.0048839 -0.440112 0)
(0.134665 -1.50485 0)
(0.124087 -1.00568 0)
(-0.0208629 -0.428786 0)
(-0.060202 -0.257246 0)
(-0.063751 -0.402592 0)
(-0.0267218 -1.1003 0)
(0.0981059 -1.50241 0)
(0.195516 -1.46864 0)
(0.286219 -1.41074 0)
(0.33904 -1.31946 0)
(0.332125 -1.24808 0)
(0.311747 -1.23016 0)
(0.325926 -1.22185 0)
(0.269365 -1.03624 0)
(-0.0206084 -0.595529 0)
(-0.218847 -0.313047 0)
(-0.283698 -0.29725 0)
(-0.27129 -0.30801 0)
(-0.241689 -0.32954 0)
(-0.220865 -0.359095 0)
(-0.196055 -0.369701 0)
(-0.168338 -0.363844 0)
(-0.147576 -0.362785 0)
(-0.132486 -0.372068 0)
(-0.121958 -0.389473 0)
(-0.109558 -0.410426 0)
(-0.0885932 -0.424026 0)
(-0.0611468 -0.431242 0)
(-0.0347702 -0.435558 0)
(-0.0113461 -0.438997 0)
(0.105491 -1.54858 0)
(0.0302465 -0.804838 0)
(-0.0642695 -0.33957 0)
(-0.060156 -0.251781 0)
(-0.0149377 -0.415017 0)
(0.0840093 -1.1208 0)
(0.195747 -1.47038 0)
(0.296796 -1.44774 0)
(0.378986 -1.35546 0)
(0.368466 -1.23391 0)
(0.268114 -1.14197 0)
(0.199913 -1.15926 0)
(0.19259 -1.15081 0)
(0.0427447 -0.835155 0)
(-0.185328 -0.412117 0)
(-0.296309 -0.314789 0)
(-0.312998 -0.314576 0)
(-0.283879 -0.324629 0)
(-0.251201 -0.344324 0)
(-0.217565 -0.365446 0)
(-0.183371 -0.352928 0)
(-0.160965 -0.34742 0)
(-0.154486 -0.358293 0)
(-0.149046 -0.38501 0)
(-0.138817 -0.415534 0)
(-0.126909 -0.444596 0)
(-0.108918 -0.459793 0)
(-0.0804579 -0.461153 0)
(-0.0476178 -0.457168 0)
(-0.0156773 -0.455177 0)
(-0.00389883 -1.51121 0)
(-0.0566823 -0.71582 0)
(-0.0670879 -0.344457 0)
(-0.0161468 -0.288072 0)
(0.0804127 -0.49191 0)
(0.214648 -1.12058 0)
(0.287752 -1.40654 0)
(0.35019 -1.38044 0)
(0.374773 -1.29498 0)
(0.268477 -1.10945 0)
(0.133011 -1.01238 0)
(0.0507173 -1.08119 0)
(0.0168443 -1.0545 0)
(-0.13571 -0.637068 0)
(-0.280916 -0.361845 0)
(-0.340393 -0.333051 0)
(-0.324972 -0.330902 0)
(-0.287431 -0.339083 0)
(-0.250249 -0.364195 0)
(-0.20949 -0.357558 0)
(-0.181138 -0.351628 0)
(-0.181222 -0.370686 0)
(-0.187027 -0.407905 0)
(-0.180985 -0.446445 0)
(-0.16226 -0.481828 0)
(-0.136727 -0.510477 0)
(-0.106028 -0.522954 0)
(-0.0715971 -0.513905 0)
(-0.0392605 -0.496924 0)
(-0.0122706 -0.486617 0)
(-0.0758741 -1.37118 0)
(-0.106451 -0.747046 0)
(-0.0339946 -0.411807 0)
(0.0740133 -0.378698 0)
(0.220427 -0.609028 0)
(0.352696 -1.09532 0)
(0.359628 -1.33108 0)
(0.322963 -1.30772 0)
(0.259399 -1.18684 0)
(0.10838 -0.943914 0)
(-0.0145592 -0.827388 0)
(-0.0868146 -0.947568 0)
(-0.14265 -0.921631 0)
(-0.253822 -0.544891 0)
(-0.345732 -0.379591 0)
(-0.357143 -0.351465 0)
(-0.324242 -0.348164 0)
(-0.279502 -0.354121 0)
(-0.235106 -0.376593 0)
(-0.206306 -0.363486 0)
(-0.212053 -0.381468 0)
(-0.23336 -0.421666 0)
(-0.233748 -0.464782 0)
(-0.21837 -0.50964 0)
(-0.194746 -0.552683 0)
(-0.157918 -0.591679 0)
(-0.104917 -0.614075 0)
(-0.051708 -0.58893 0)
(-0.0199406 -0.548229 0)
(-0.00513164 -0.529835 0)
(-0.0772772 -1.22911 0)
(-0.0979333 -0.814243 0)
(0.0223056 -0.5156 0)
(0.183434 -0.520354 0)
(0.347704 -0.717646 0)
(0.427095 -1.03253 0)
(0.368529 -1.24127 0)
(0.247665 -1.21772 0)
(0.0883291 -1.03383 0)
(-0.047677 -0.755175 0)
(-0.129917 -0.676181 0)
(-0.182753 -0.830126 0)
(-0.2411 -0.821311 0)
(-0.320383 -0.549433 0)
(-0.368436 -0.415498 0)
(-0.350063 -0.373804 0)
(-0.309956 -0.364906 0)
(-0.262919 -0.370466 0)
(-0.225244 -0.391013 0)
(-0.231284 -0.39465 0)
(-0.265368 -0.427592 0)
(-0.282886 -0.466383 0)
(-0.281389 -0.510047 0)
(-0.269756 -0.564265 0)
(-0.246199 -0.622901 0)
(-0.19761 -0.679338 0)
(-0.101576 -0.713492 0)
(-0.00425352 -0.660813 0)
(0.0220448 -0.593228 0)
(0.00667221 -0.578544 0)
(-0.0423775 -1.11215 0)
(-0.0509058 -0.843451 0)
(0.0625436 -0.627529 0)
(0.239886 -0.660204 0)
(0.378772 -0.77988 0)
(0.38653 -0.925304 0)
(0.277352 -1.04726 0)
(0.118737 -1.01871 0)
(-0.041963 -0.856315 0)
(-0.137566 -0.657198 0)
(-0.17285 -0.616712 0)
(-0.208822 -0.748105 0)
(-0.27832 -0.754497 0)
(-0.341129 -0.600008 0)
(-0.350632 -0.457156 0)
(-0.324322 -0.398845 0)
(-0.285082 -0.384814 0)
(-0.24503 -0.392674 0)
(-0.23658 -0.416714 0)
(-0.271477 -0.436842 0)
(-0.308715 -0.46198 0)
(-0.326365 -0.495092 0)
(-0.335097 -0.538732 0)
(-0.330159 -0.587377 0)
(-0.294923 -0.645849 0)
(-0.207858 -0.740379 0)
(-0.0996328 -0.801962 0)
(-0.0116488 -0.710646 0)
(0.0156062 -0.58587 0)
(0.00385395 -0.617921 0)
(-0.0137545 -1.03221 0)
(-0.0171184 -0.835454 0)
(0.063034 -0.714741 0)
(0.204906 -0.741418 0)
(0.279113 -0.769304 0)
(0.243815 -0.821173 0)
(0.144262 -0.907499 0)
(0.0174397 -0.903033 0)
(-0.1032 -0.796537 0)
(-0.170983 -0.674285 0)
(-0.177426 -0.647968 0)
(-0.19374 -0.71875 0)
(-0.260554 -0.716903 0)
(-0.308998 -0.625638 0)
(-0.309731 -0.493837 0)
(-0.292213 -0.423945 0)
(-0.263357 -0.407231 0)
(-0.244444 -0.417923 0)
(-0.262363 -0.440442 0)
(-0.302974 -0.456093 0)
(-0.337308 -0.474829 0)
(-0.362983 -0.498502 0)
(-0.371954 -0.521985 0)
(-0.36509 -0.557993 0)
(-0.329234 -0.617742 0)
(-0.260424 -0.743706 0)
(-0.149846 -0.788732 0)
(-0.0872475 -0.769877 0)
(-0.106867 -0.65018 0)
(-0.0625865 -0.675763 0)
(-0.0162814 -0.965083 0)
(-0.020949 -0.812838 0)
(0.0337538 -0.746622 0)
(0.100221 -0.747728 0)
(0.118236 -0.753936 0)
(0.0973136 -0.798906 0)
(0.0395126 -0.876095 0)
(-0.0489861 -0.889132 0)
(-0.127589 -0.819421 0)
(-0.161645 -0.72894 0)
(-0.164245 -0.694215 0)
(-0.176103 -0.713371 0)
(-0.208013 -0.690482 0)
(-0.241275 -0.606882 0)
(-0.260531 -0.505672 0)
(-0.260146 -0.440777 0)
(-0.25045 -0.423575 0)
(-0.255401 -0.431396 0)
(-0.284624 -0.444218 0)
(-0.323482 -0.451155 0)
(-0.355081 -0.460519 0)
(-0.374368 -0.463498 0)
(-0.38625 -0.467156 0)
(-0.37684 -0.487825 0)
(-0.316836 -0.555254 0)
(-0.25419 -0.61233 0)
(-0.248821 -0.657787 0)
(-0.277081 -0.761576 0)
(-0.237365 -0.826292 0)
(-0.0935047 -0.889082 0)
(-0.0328961 -0.880851 0)
(-0.0506401 -0.77953 0)
(-0.026554 -0.732289 0)
(-0.0158563 -0.748939 0)
(-0.00355515 -0.785676 0)
(0.00985983 -0.833173 0)
(-0.00912783 -0.887241 0)
(-0.0554356 -0.891433 0)
(-0.0918502 -0.829771 0)
(-0.110478 -0.749484 0)
(-0.131801 -0.701104 0)
(-0.155999 -0.693954 0)
(-0.164499 -0.681576 0)
(-0.179976 -0.58083 0)
(-0.211166 -0.490344 0)
(-0.229786 -0.438802 0)
(-0.241386 -0.423846 0)
(-0.263264 -0.427333 0)
(-0.297339 -0.432175 0)
(-0.330828 -0.432106 0)
(-0.353033 -0.426413 0)
(-0.363514 -0.41318 0)
(-0.355786 -0.402266 0)
(-0.312427 -0.4106 0)
(-0.273355 -0.45644 0)
(-0.269074 -0.515938 0)
(-0.288555 -0.577674 0)
(-0.300639 -0.687239 0)
(-0.288195 -1.015 0)
(-0.154253 -1.5096 0)
(-0.0450513 -0.79054 0)
(-0.0924107 -0.736571 0)
(-0.0982822 -0.71919 0)
(-0.0971146 -0.780442 0)
(-0.062589 -0.85297 0)
(-0.0152359 -0.865909 0)
(-0.00595555 -0.881801 0)
(-0.0247922 -0.868857 0)
(-0.037993 -0.820283 0)
(-0.0504422 -0.749675 0)
(-0.0894188 -0.688957 0)
(-0.14112 -0.657163 0)
(-0.141015 -0.691325 0)
(-0.131581 -0.571697 0)
(-0.166166 -0.45827 0)
(-0.203034 -0.417047 0)
(-0.233564 -0.407505 0)
(-0.265991 -0.41106 0)
(-0.299737 -0.414424 0)
(-0.32523 -0.408987 0)
(-0.333453 -0.395975 0)
(-0.321573 -0.37461 0)
(-0.290913 -0.357173 0)
(-0.252976 -0.362668 0)
(-0.2328 -0.403763 0)
(-0.239313 -0.489429 0)
(-0.25519 -0.564714 0)
(-0.299527 -0.883542 0)
(-0.30199 -1.50959 0)
(-0.118622 -2.37808 0)
(-0.0455693 -0.703597 0)
(-0.11805 -0.682055 0)
(-0.173692 -0.734663 0)
(-0.196566 -0.865151 0)
(-0.0920727 -0.969792 0)
(0.0279979 -0.89163 0)
(0.036451 -0.867017 0)
(0.0115064 -0.844743 0)
(0.000105963 -0.821226 0)
(0.00496923 -0.772751 0)
(-0.0289236 -0.710636 0)
(-0.122905 -0.659949 0)
(-0.122817 -0.766777 0)
(-0.078208 -0.579789 0)
(-0.126372 -0.415673 0)
(-0.186584 -0.382927 0)
(-0.23214 -0.380508 0)
(-0.268045 -0.388935 0)
(-0.29529 -0.39647 0)
(-0.309466 -0.391478 0)
(-0.298106 -0.383466 0)
(-0.275168 -0.359974 0)
(-0.238023 -0.344469 0)
(-0.211674 -0.397959 0)
(-0.259345 -0.458044 0)
(-0.388656 -0.723402 0)
(-0.427929 -1.03535 0)
(-0.288265 -1.37411 0)
(-0.0676308 -1.76733 0)
(0.00544417 -2.32164 0)
(-0.0528888 -0.615794 0)
(-0.178409 -0.640239 0)
(-0.314987 -0.778434 0)
(-0.277249 -1.05456 0)
(-0.0652348 -1.21256 0)
(0.0667275 -0.990906 0)
(0.0719258 -0.890947 0)
(0.0350903 -0.850971 0)
(0.00997734 -0.847878 0)
(0.0428731 -0.853545 0)
(0.0333774 -0.813208 0)
(-0.0449858 -0.801656 0)
(-0.0372724 -1.00095 0)
(-0.0257715 -0.563507 0)
(-0.111899 -0.363976 0)
(-0.184172 -0.344026 0)
(-0.237753 -0.350042 0)
(-0.271757 -0.365436 0)
(-0.288563 -0.38208 0)
(-0.294628 -0.386028 0)
(-0.264864 -0.386361 0)
(-0.224558 -0.42389 0)
(-0.290114 -0.437717 0)
(-0.533433 -0.691805 0)
(-0.791018 -1.07529 0)
(-0.734441 -1.25503 0)
(-0.506739 -1.3133 0)
(-0.237807 -1.4455 0)
(-0.0143458 -1.69873 0)
(0.0500021 -2.05047 0)
(-0.0801182 -0.565975 0)
(-0.287141 -0.606051 0)
(-0.410646 -0.837528 0)
(-0.332835 -1.39056 0)
(-0.0910011 -1.74862 0)
(0.0383176 -1.30833 0)
(0.0718195 -1.04316 0)
(0.0594076 -0.965553 0)
(0.0602339 -0.987861 0)
(0.129007 -1.06486 0)
(0.184131 -1.05927 0)
(0.17331 -1.175 0)
(0.133272 -1.08261 0)
(-0.00169117 -0.447968 0)
(-0.124388 -0.30159 0)
(-0.193959 -0.301493 0)
(-0.250485 -0.318128 0)
(-0.279609 -0.341566 0)
(-0.292702 -0.372823 0)
(-0.280584 -0.432661 0)
(-0.340539 -0.49563 0)
(-0.591877 -0.71649 0)
(-0.920675 -1.0512 0)
(-1.01767 -1.11999 0)
(-0.950858 -1.10782 0)
(-0.783116 -1.19592 0)
(-0.544553 -1.35821 0)
(-0.29697 -1.5449 0)
(-0.100826 -1.76646 0)
(0.0106464 -2.03441 0)
(-0.114471 -0.54413 0)
(-0.381635 -0.580787 0)
(-0.534847 -1.1039 0)
(-0.320434 -1.91897 0)
(-0.12829 -2.04075 0)
(-0.068424 -1.8244 0)
(0.0662731 -1.64048 0)
(0.168428 -1.55073 0)
(0.277769 -1.5939 0)
(0.429459 -1.68838 0)
(0.498096 -1.59754 0)
(0.370175 -1.31472 0)
(0.148375 -0.77337 0)
(-0.0473053 -0.294896 0)
(-0.14956 -0.239331 0)
(-0.214965 -0.258598 0)
(-0.269394 -0.284633 0)
(-0.297141 -0.320705 0)
(-0.348971 -0.395024 0)
(-0.521855 -0.608132 0)
(-0.883968 -1.06147 0)
(-1.02312 -1.07183 0)
(-1.03924 -0.952833 0)
(-1.02185 -0.940183 0)
(-0.934773 -1.06445 0)
(-0.778525 -1.27215 0)
(-0.572073 -1.50775 0)
(-0.35273 -1.71965 0)
(-0.177281 -1.91346 0)
(-0.0425647 -2.07955 0)
(-0.123377 -0.446325 0)
(-0.307328 -0.594641 0)
(-0.348739 -1.37588 0)
(-0.0766173 -1.82415 0)
(-0.0575213 -1.78739 0)
(-0.0432649 -1.69359 0)
(0.0768105 -1.60746 0)
(0.210704 -1.58774 0)
(0.350785 -1.62819 0)
(0.464125 -1.63277 0)
(0.42212 -1.35084 0)
(0.20031 -0.915111 0)
(0.00324512 -0.408889 0)
(-0.110768 -0.202941 0)
(-0.180714 -0.192643 0)
(-0.24485 -0.218497 0)
(-0.294436 -0.241238 0)
(-0.354748 -0.263305 0)
(-0.534008 -0.518719 0)
(-0.920469 -0.99221 0)
(-0.954882 -0.96426 0)
(-0.970289 -0.848964 0)
(-0.976524 -0.841793 0)
(-0.946357 -0.93892 0)
(-0.856935 -1.13709 0)
(-0.711021 -1.39376 0)
(-0.53835 -1.64881 0)
(-0.357 -1.85642 0)
(-0.203608 -2.03637 0)
(-0.0727874 -2.16755 0)
(-0.0590571 -0.276876 0)
(-0.129487 -0.576842 0)
(-0.086796 -1.40967 0)
(0.0414741 -1.74194 0)
(0.0369358 -1.68789 0)
(0.0578164 -1.63397 0)
(0.128103 -1.56795 0)
(0.208535 -1.53963 0)
(0.282254 -1.55589 0)
(0.319063 -1.50303 0)
(0.235511 -1.13422 0)
(0.031632 -0.611065 0)
(-0.0865161 -0.233772 0)
(-0.151658 -0.158435 0)
(-0.206367 -0.159384 0)