/*--------------------------------*- C++ -*----------------------------------*\
| =========                 |                                                 |
| \\      /  F ield         | OpenFOAM: The Open Source CFD Toolbox           |
|  \\    /   O peration     | Version:  2.3.0                                 |
|   \\  /    A nd           | Web:      www.OpenFOAM.org                      |
|    \\/     M anipulation  |                                                 |
\*---------------------------------------------------------------------------*/
FoamFile
{
    version     2.0;
    format      ascii;
    class       volScalarField;
    location    "3";
    object      epsilonm;
}
// * * * * * * * * * * * * * * * * * * * * * * * * * * * * * * * * * * * * * //

dimensions      [0 2 -3 0 0 0 0];

internalField   nonuniform List<scalar> 
1875
(
0.225879
0.262143
0.275988
0.28475
0.288486
0.293364
0.306404
0.32363
0.318334
0.257774
0.18992
0.133244
0.111122
0.131062
0.184758
0.253478
0.31669
0.322244
0.306306
0.293212
0.288753
0.28603
0.278436
0.265506
0.224428
0.255652
0.237674
0.243745
0.261903
0.266337
0.307724
0.332475
0.327858
0.323212
0.340286
0.358032
0.387933
0.38288
0.387516
0.36069
0.34008
0.321628
0.329739
0.334942
0.310671
0.268433
0.261626
0.245835
0.240544
0.245005
0.252715
0.101023
0.161466
0.180987
0.199072
0.223309
0.276817
0.313114
0.335147
0.317182
0.314486
0.323624
0.321649
0.323649
0.315522
0.317887
0.33511
0.317243
0.279889
0.226312
0.199243
0.181319
0.159558
0.0977956
0.23558
0.275062
0.158463
0.215206
0.24077
0.250547
0.274993
0.29539
0.302959
0.294777
0.283014
0.288718
0.293805
0.291936
0.295284
0.290295
0.283218
0.292986
0.302287
0.297297
0.278147
0.252158
0.235365
0.213095
0.154296
0.244327
0.276191
0.218557
0.257067
0.25997
0.274436
0.288278
0.297196
0.289315
0.29579
0.307454
0.313238
0.31766
0.307169
0.320372
0.317293
0.306231
0.295259
0.293629
0.302325
0.295567
0.287709
0.279791
0.262993
0.213901
0.282983
0.29889
0.244725
0.280266
0.296229
0.306682
0.313865
0.318012
0.326764
0.332821
0.334425
0.340978
0.348863
0.359502
0.347118
0.339466
0.342601
0.342062
0.333237
0.319848
0.315651
0.315213
0.306745
0.295214
0.258024
0.247872
0.289472
0.281411
0.295517
0.299059
0.305631
0.319832
0.31652
0.328361
0.323143
0.333167
0.336002
0.348026
0.353947
0.344842
0.331804
0.323713
0.313568
0.315999
0.310854
0.309642
0.312234
0.306324
0.302464
0.281618
0.280439
0.379134
0.430057
0.356093
0.341456
0.352333
0.324188
0.309948
0.295302
0.2993
0.308834
0.32147
0.326198
0.333519
0.325388
0.318698
0.30221
0.288021
0.291072
0.305793
0.315871
0.335399
0.333636
0.34387
0.410076
0.356097
0.443894
0.45734
0.563564
0.457449
0.415709
0.36472
0.322075
0.313511
0.301617
0.301252
0.315219
0.33038
0.333122
0.329698
0.320465
0.300379
0.294483
0.305256
0.319641
0.338696
0.397243
0.448435
0.528394
0.445489
0.421057
0.390269
0.408729
0.501015
0.535051
0.456996
0.403446
0.326202
0.315055
0.301066
0.309127
0.332927
0.342574
0.350716
0.346575
0.340834
0.316471
0.300709
0.317677
0.328573
0.389277
0.445913
0.535879
0.509499
0.424077
0.41584
0.243516
0.291648
0.376737
0.40588
0.404224
0.369974
0.318585
0.310389
0.316092
0.324298
0.343438
0.338336
0.335443
0.339548
0.335254
0.335757
0.324799
0.320295
0.321249
0.370225
0.409833
0.428196
0.415132
0.315167
0.257351
0.213094
0.241704
0.271916
0.297221
0.327222
0.338583
0.317677
0.300955
0.321888
0.316036
0.29977
0.292362
0.295909
0.287323
0.290514
0.314094
0.333408
0.307209
0.310972
0.347254
0.341379
0.327727
0.305263
0.255626
0.218193
0.213258
0.238733
0.251735
0.275258
0.307843
0.317863
0.298552
0.272524
0.269899
0.267987
0.25105
0.246583
0.243801
0.244884
0.255687
0.274996
0.277844
0.270652
0.288264
0.322664
0.316499
0.295069
0.267213
0.244273
0.211253
0.235322
0.250252
0.26233
0.270507
0.281234
0.285051
0.269545
0.241333
0.247243
0.257291
0.235957
0.228287
0.232354
0.227325
0.246473
0.257887
0.252325
0.236071
0.25756
0.283748
0.283461
0.267393
0.259556
0.23999
0.224129
0.245425
0.246216
0.259044
0.280545
0.298613
0.299862
0.285536
0.255953
0.252633
0.265721
0.241167
0.237912
0.232693
0.233294
0.248716
0.263044
0.24752
0.249132
0.272538
0.297402
0.295087
0.275159
0.243935
0.231526
0.244135
0.300284
0.260885
0.268614
0.292614
0.300188
0.310982
0.298795
0.274578
0.246218
0.259419
0.231311
0.230321
0.231963
0.23323
0.24022
0.266202
0.247139
0.269043
0.292117
0.310037
0.298063
0.289357
0.258866
0.25458
0.298614
0.342735
0.315027
0.304726
0.319677
0.3333
0.324076
0.321595
0.283682
0.259443
0.251093
0.237808
0.23253
0.234178
0.235327
0.234377
0.254831
0.261301
0.277796
0.319191
0.325608
0.333765
0.315822
0.301648
0.31437
0.343724
0.357484
0.351201
0.340485
0.343888
0.356411
0.343258
0.332412
0.299146
0.293524
0.27105
0.26845
0.259241
0.261304
0.258222
0.264835
0.268079
0.292925
0.296307
0.32843
0.3436
0.356175
0.3437
0.342385
0.352916
0.358107
0.317407
0.317313
0.325128
0.334556
0.331825
0.363192
0.324985
0.290892
0.308372
0.324564
0.330266
0.312897
0.305007
0.310848
0.322162
0.319373
0.307939
0.288874
0.320789
0.359984
0.330738
0.333596
0.324711
0.315879
0.318004
0.299572
0.261188
0.292524
0.344167
0.368711
0.367124
0.35005
0.393785
0.410715
0.421647
0.435397
0.427852
0.414126
0.431939
0.44109
0.427649
0.410744
0.396552
0.348818
0.363896
0.368956
0.344571
0.291052
0.260291
0.300609
0.30301
0.312172
0.294644
0.319476
0.361997
0.35716
0.377518
0.429225
0.458718
0.409573
0.372861
0.386214
0.380907
0.390386
0.377148
0.404045
0.45899
0.432126
0.382975
0.356471
0.361597
0.319489
0.295307
0.314238
0.305694
0.302974
0.354793
0.32076
0.328479
0.323026
0.302338
0.327479
0.322634
0.279069
0.260242
0.244556
0.250538
0.262384
0.253374
0.250716
0.258072
0.272249
0.321374
0.329247
0.302253
0.322578
0.328434
0.322607
0.357694
0.303118
0.279896
0.316931
0.410314
0.340953
0.314339
0.276651
0.268923
0.255741
0.238805
0.210043
0.19461
0.186769
0.191368
0.190246
0.189603
0.206384
0.241095
0.253733
0.268222
0.275382
0.313677
0.343705
0.41113
0.317716
0.27853
0.258101
0.268415
0.280621
0.305839
0.303004
0.277669
0.259338
0.250085
0.244523
0.225898
0.204277
0.18582
0.194564
0.187402
0.20362
0.224715
0.245133
0.250611
0.260336
0.277584
0.302404
0.305135
0.278048
0.26698
0.258503
0.250894
0.235652
0.23852
0.288597
0.284541
0.276929
0.275223
0.26514
0.249203
0.247468
0.235109
0.210903
0.205651
0.208764
0.229673
0.244752
0.24807
0.266663
0.27733
0.277727
0.283854
0.286725
0.237806
0.234036
0.25284
0.267759
0.240875
0.231253
0.278368
0.30125
0.298222
0.304306
0.288232
0.272527
0.285983
0.265784
0.232524
0.233668
0.228641
0.260649
0.281761
0.273739
0.287031
0.304323
0.298461
0.301714
0.277859
0.232586
0.241444
0.267675
0.270284
0.26796
0.249828
0.295126
0.300238
0.311711
0.31223
0.308749
0.313133
0.309461
0.277324
0.25214
0.24732
0.251719
0.27574
0.314062
0.310675
0.308447
0.312203
0.312456
0.298308
0.295353
0.251507
0.271211
0.27081
0.275099
0.287319
0.27513
0.306008
0.309529
0.316929
0.321302
0.32292
0.335251
0.308847
0.277195
0.256337
0.25899
0.257219
0.278749
0.305835
0.337155
0.325167
0.322892
0.318052
0.312671
0.306544
0.275108
0.286661
0.270881
0.268999
0.291021
0.289819
0.296412
0.322228
0.321897
0.326204
0.327749
0.318674
0.307399
0.278869
0.260616
0.256413
0.259771
0.277317
0.306894
0.319506
0.327316
0.325241
0.318158
0.318637
0.293168
0.288972
0.288033
0.267829
0.268705
0.303238
0.294368
0.303402
0.311428
0.317463
0.322815
0.323846
0.314158
0.299547
0.281818
0.261285
0.26121
0.258396
0.277049
0.303948
0.311399
0.321862
0.321701
0.317296
0.309304
0.303516
0.294543
0.303456
0.269184
0.263553
0.316247
0.312802
0.305732
0.309239
0.314376
0.312557
0.310951
0.301454
0.300717
0.283656
0.259735
0.257003
0.260045
0.281393
0.297538
0.302183
0.309378
0.311114
0.313058
0.309199
0.307311
0.313325
0.317031
0.262515
0.253441
0.296136
0.318872
0.312411
0.309969
0.308927
0.303765
0.298921
0.291855
0.292108
0.284467
0.257216
0.256895
0.258942
0.284208
0.295047
0.295254
0.298565
0.303732
0.305583
0.310571
0.313775
0.319078
0.295757
0.255192
0.251262
0.293676
0.320982
0.323886
0.303337
0.297796
0.298733
0.293501
0.286507
0.28357
0.285419
0.255218
0.252454
0.253121
0.284511
0.28219
0.285058
0.294025
0.294294
0.300497
0.308047
0.325107
0.322487
0.296964
0.252263
0.255633
0.301592
0.318958
0.315248
0.310156
0.308311
0.299023
0.292712
0.288187
0.284831
0.285546
0.25515
0.254528
0.252857
0.285844
0.285084
0.289343
0.294337
0.304394
0.312599
0.307039
0.31422
0.318221
0.299004
0.254484
0.251861
0.299019
0.327682
0.316079
0.318075
0.320769
0.303521
0.295127
0.294995
0.288627
0.28938
0.258469
0.253893
0.258438
0.291345
0.290115
0.288726
0.298699
0.313193
0.321397
0.311182
0.31886
0.326293
0.294359
0.251544
0.251044
0.295462
0.324934
0.315561
0.299308
0.316442
0.309912
0.301868
0.296031
0.293388
0.295341
0.265415
0.260766
0.265847
0.295124
0.292915
0.304178
0.30332
0.30772
0.31005
0.302207
0.315964
0.324725
0.293902
0.251796
0.247278
0.293048
0.317958
0.317842
0.302586
0.31689
0.306487
0.303036
0.307032
0.295432
0.298089
0.273307
0.260624
0.276105
0.297255
0.294429
0.30896
0.300095
0.301626
0.317923
0.303744
0.309604
0.315175
0.297754
0.247563
0.243672
0.293151
0.311471
0.313444
0.30796
0.309296
0.296632
0.307302
0.309673
0.297602
0.300005
0.284659
0.264169
0.28829
0.301956
0.296542
0.304396
0.306237
0.298876
0.310662
0.302806
0.308622
0.308875
0.293096
0.243413
0.239485
0.289819
0.300767
0.307111
0.303453
0.300452
0.298351
0.310557
0.300345
0.298823
0.301103
0.293335
0.264438
0.294773
0.30068
0.298028
0.307176
0.312054
0.297505
0.300164
0.310493
0.313689
0.301621
0.28628
0.239366
0.233918
0.28743
0.298881
0.304997
0.314365
0.300773
0.299052
0.306529
0.305783
0.295555
0.299109
0.29697
0.264797
0.297318
0.29916
0.304943
0.300583
0.309659
0.298353
0.301119
0.31948
0.308507
0.299962
0.289123
0.233751
0.229788
0.281917
0.304146
0.307567
0.313986
0.303049
0.297031
0.307451
0.298839
0.298444
0.297654
0.298781
0.26432
0.299225
0.298432
0.300235
0.295652
0.309461
0.298765
0.304325
0.309532
0.301848
0.303326
0.283798
0.229477
0.227027
0.277682
0.297434
0.311152
0.303501
0.296501
0.308125
0.310643
0.295142
0.304839
0.297511
0.298892
0.266915
0.300228
0.295896
0.298857
0.302766
0.307094
0.300451
0.297594
0.305254
0.30789
0.297304
0.278254
0.226844
0.224948
0.275458
0.290479
0.307476
0.317495
0.28986
0.305019
0.304776
0.303616
0.308325
0.294143
0.300971
0.267727
0.300106
0.29324
0.308796
0.298862
0.298906
0.309685
0.290745
0.316827
0.305226
0.291113
0.275592
0.225239
0.220882
0.272242
0.293773
0.300504
0.312637
0.293044
0.300832
0.295999
0.296427
0.30253
0.291161
0.299997
0.270804
0.29886
0.292255
0.302765
0.298196
0.304084
0.303226
0.292698
0.312564
0.298037
0.294041
0.271832
0.2207
0.217503
0.267705
0.288209
0.305393
0.299312
0.292426
0.307673
0.301416
0.293641
0.297306
0.290544
0.296121
0.273956
0.296366
0.290547
0.296756
0.29549
0.295516
0.297265
0.291877
0.298595
0.303065
0.288409
0.26757
0.217415
0.214687
0.264893
0.285046
0.300819
0.308704
0.284848
0.296906
0.291919
0.293606
0.299572
0.289333
0.294603
0.278948
0.294285
0.289517
0.301693
0.29139
0.292454
0.302202
0.285771
0.307316
0.299245
0.285456
0.265012
0.214662
0.211362
0.262801
0.28061
0.289513
0.316627
0.278166
0.295587
0.288048
0.288446
0.293725
0.287663
0.291683
0.283873
0.291577
0.287487
0.292075
0.289632
0.288994
0.299279
0.279799
0.314552
0.288985
0.280581
0.262675
0.211388
0.208586
0.259456
0.27178
0.292511
0.307681
0.273046
0.294689
0.285899
0.285987
0.292832
0.285068
0.288687
0.286601
0.289369
0.284037
0.286471
0.284106
0.28427
0.291334
0.273825
0.304818
0.292427
0.27197
0.259411
0.208587
0.206007
0.257517
0.26716
0.280614
0.297932
0.267415
0.286373
0.277843
0.282524
0.285121
0.281521
0.285174
0.288976
0.286357
0.28063
0.29201
0.281845
0.279523
0.285619
0.268238
0.295358
0.281633
0.267209
0.257532
0.205415
0.202347
0.255549
0.263758
0.270247
0.30181
0.264929
0.284777
0.275744
0.279098
0.279201
0.277939
0.281364
0.286136
0.280903
0.276623
0.282588
0.278891
0.273208
0.283742
0.265351
0.299627
0.270847
0.263556
0.255326
0.201715
0.198276
0.252285
0.259322
0.271052
0.287552
0.260036
0.276731
0.269784
0.275058
0.283964
0.273518
0.274875
0.276638
0.27508
0.272418
0.274947
0.274552
0.27383
0.27712
0.260969
0.285703
0.270183
0.258796
0.251974
0.198179
0.194322
0.249073
0.255535
0.26222
0.276507
0.255686
0.277103
0.264565
0.271231
0.271071
0.268296
0.271603
0.269838
0.277439
0.267478
0.278656
0.270462
0.266157
0.275014
0.256686
0.274976
0.262689
0.255283
0.249083
0.194672
0.189401
0.245236
0.250674
0.25206
0.279203
0.251285
0.27857
0.257449
0.264503
0.261922
0.262863
0.267548
0.264095
0.266946
0.262168
0.264305
0.265015
0.26035
0.277308
0.251437
0.277918
0.25456
0.25034
0.245055
0.189248
0.18566
0.240911
0.245839
0.244625
0.264246
0.24515
0.273034
0.250228
0.259958
0.261387
0.257757
0.257521
0.258317
0.257598
0.257021
0.25767
0.2595
0.250892
0.268647
0.245704
0.264082
0.245336
0.245593
0.240758
0.185642
0.180368
0.236116
0.240781
0.238556
0.255894
0.238963
0.262485
0.24234
0.262987
0.253912
0.252315
0.254195
0.252711
0.257671
0.251813
0.25366
0.261922
0.241637
0.261101
0.239542
0.25548
0.237652
0.240668
0.236172
0.180329
0.17511
0.231117
0.235376
0.232177
0.257229
0.232368
0.254969
0.235264
0.25309
0.243203
0.247818
0.250019
0.247072
0.25066
0.24701
0.242532
0.25283
0.235221
0.263587
0.232597
0.257362
0.232302
0.23526
0.231135
0.175105
0.170223
0.226055
0.229757
0.225655
0.246605
0.225394
0.254417
0.227476
0.245004
0.231827
0.240732
0.240548
0.240798
0.238818
0.241878
0.23408
0.24461
0.227387
0.250117
0.225728
0.245853
0.225767
0.229632
0.226019
0.170259
0.164986
0.220241
0.22366
0.218293
0.238532
0.217827
0.244711
0.220302
0.247951
0.224628
0.235428
0.230861
0.233758
0.229178
0.23703
0.224477
0.247779
0.220301
0.240567
0.21821
0.237963
0.218543
0.223566
0.220261
0.165039
0.158006
0.214059
0.218082
0.21056
0.233646
0.210453
0.239672
0.21311
0.233619
0.216897
0.2357
0.221141
0.225282
0.223195
0.230511
0.218178
0.233635
0.213282
0.241963
0.210721
0.230959
0.210789
0.218031
0.214127
0.158042
0.150772
0.206166
0.211952
0.203013
0.224761
0.20339
0.226914
0.20618
0.223648
0.209372
0.222792
0.215587
0.219007
0.213219
0.222101
0.208778
0.223647
0.206297
0.22705
0.203519
0.223509
0.203185
0.211905
0.206192
0.150807
0.141506
0.197015
0.203708
0.194691
0.212594
0.195727
0.216089
0.198679
0.223247
0.20023
0.211762
0.205781
0.210268
0.205243
0.214386
0.199985
0.223275
0.19878
0.216037
0.195815
0.21693
0.194817
0.203686
0.197112
0.141561
0.13707
0.191132
0.199737
0.185
0.207922
0.186324
0.212265
0.188753
0.208278
0.195431
0.208242
0.198812
0.202844
0.199848
0.207116
0.195342
0.208317
0.18883
0.212341
0.18641
0.207663
0.185091
0.19973
0.191187
0.137131
0.130703
0.187078
0.194967
0.179867
0.202494
0.181345
0.202406
0.183858
0.197155
0.18939
0.198385
0.193231
0.196666
0.193079
0.198801
0.189549
0.197197
0.183906
0.202539
0.181425
0.201171
0.179902
0.194963
0.187091
0.130765
0.124138
0.174521
0.182317
0.171426
0.189391
0.173338
0.190396
0.176301
0.191145
0.177757
0.187186
0.181195
0.185008
0.181299
0.187199
0.177806
0.191207
0.176329
0.190527
0.173396
0.189265
0.17148
0.18234
0.174517
0.124214
0.161489
0.162299
0.171317
0.16994
0.17521
0.172516
0.17466
0.171816
0.173664
0.17034
0.17185
0.169306
0.170166
0.169322
0.171824
0.170308
0.173722
0.171863
0.17477
0.172527
0.17522
0.16999
0.171352
0.162307
0.161574
1.1311
1.09082
1.00634
0.979512
0.958442
0.933634
0.924701
0.911625
0.909221
0.902753
0.906107
0.903269
0.905106
0.903187
0.905823
0.902359
0.908952
0.911539
0.924557
0.933496
0.958279
0.979352
1.00623
1.09085
1.13104
0.189125
0.0708578
0.0578963
0.058048
0.0579102
0.0590845
0.0595392
0.0611821
0.06321
0.0637445
0.063926
0.0637871
0.0639586
0.0638063
0.0639657
0.0637845
0.0632415
0.0612105
0.0595551
0.0591154
0.0579631
0.058116
0.0579731
0.0711405
0.189348
0.0572536
0.0237316
0.0182293
0.0181049
0.0175252
0.017711
0.0183942
0.0189276
0.0193983
0.0198501
0.0201375
0.0202272
0.0202371
0.0202248
0.0201296
0.0198347
0.0193808
0.0189085
0.0183702
0.017693
0.0175194
0.0181115
0.0182367
0.0237825
0.0573191
0.0112737
0.0022587
8.67016e-05
7.14048e-05
6.48218e-05
6.56801e-05
6.53171e-05
5.78492e-05
4.11263e-05
2.98932e-05
2.97945e-05
4.78082e-05
5.68571e-05
4.84121e-05
3.00487e-05
2.98516e-05
4.11152e-05
5.77891e-05
6.54105e-05
6.59508e-05
6.49965e-05
7.14313e-05
8.68106e-05
0.00226848
0.0112875
0.0067031
0.00038462
2.60917e-07
2.07266e-06
3.58772e-06
4.10907e-06
4.73351e-06
4.7618e-06
4.66546e-06
6.32736e-06
9.16601e-06
1.28954e-05
1.42232e-05
1.28483e-05
9.12656e-06
6.32253e-06
4.66544e-06
4.75827e-06
4.74284e-06
4.11992e-06
3.60375e-06
2.08908e-06
2.64837e-07
0.000392184
0.00671539
0.00780694
7.61884e-05
5.4846e-07
8.67085e-07
1.27536e-06
1.6094e-06
2.10385e-06
2.91677e-06
4.3574e-06
6.25757e-06
1.0747e-05
2.1241e-05
2.408e-05
2.09993e-05
1.07538e-05
6.2528e-06
4.36917e-06
2.92773e-06
2.10987e-06
1.61492e-06
1.2832e-06
8.71924e-07
5.49579e-07
7.77885e-05
0.00781462
0.0138291
9.22709e-05
3.17341e-05
2.85961e-05
1.65363e-05
8.97207e-06
4.89216e-06
3.67389e-06
3.77695e-06
3.36959e-06
2.32032e-05
4.15045e-05
3.93006e-05
4.06171e-05
2.32923e-05
3.33333e-06
3.7461e-06
3.62552e-06
4.76272e-06
8.68154e-06
1.60746e-05
2.80167e-05
3.14589e-05
9.30688e-05
0.0138406
0.0236353
0.00299021
0.00102442
0.000787779
0.00065153
0.000590065
0.000497185
0.000403771
0.000372957
0.000337747
0.000222425
0.00011934
8.27543e-05
0.000115728
0.000216288
0.000332676
0.00036904
0.000398466
0.000490376
0.000584147
0.000645616
0.000780268
0.00101605
0.00299166
0.0236746
0.022127
0.00606716
0.00235288
0.00135838
0.000899235
0.000582535
0.000408221
0.000351576
0.000352599
0.000352124
0.000343725
0.000304207
0.000160105
0.000300206
0.000342254
0.000352043
0.000353483
0.000354053
0.000412185
0.000587969
0.000904759
0.00136711
0.00237437
0.00614835
0.0221785
0.0121403
0.00345271
0.00118889
0.000414152
0.000131839
7.56011e-05
7.51504e-05
8.63961e-05
0.000154797
0.000285824
0.000320407
0.000282006
0.000129419
0.000278806
0.00031823
0.000284272
0.000153593
8.57936e-05
7.50214e-05
7.58808e-05
0.000135721
0.000423707
0.00121208
0.00359776
0.0121699
)
;

boundaryField
{
    inlet
    {
        type            fixedValue;
        value           nonuniform List<scalar> 
25
(
0.00015
0.00015
0.00015
0.00015
0.00015
0.00015
0.00015
0.00015
0.00015
0.00015
0.00015
0.00015
0.00015
0.00015
0.00015
0.00015
0.00015
0.00015
0.00015
0.00015
0.00015
0.00015
0.00015
0.00015
0.00015
)
;
    }
    outlet
    {
        type            inletOutlet;
        inletValue      uniform 0.00015;
        value           nonuniform List<scalar> 
25
(
0.0121403
0.00345271
0.00118889
0.000414152
0.00015
0.00015
0.00015
0.00015
0.00015
0.000285824
0.000320407
0.000282006
0.000129419
0.000278806
0.00031823
0.000284272
0.00015
0.00015
0.00015
0.00015
0.00015
0.000423707
0.00121208
0.00359776
0.0121699
)
;
    }
    walls
    {
        type            fixedValue;
        value           nonuniform List<scalar> 
150
(
0.020828
0.0018113
4.22456e-21
4.22456e-21
4.22449e-21
4.15149e-09
0.151875
0.194392
0.269912
0.223444
0.0910754
0.0655662
0.0612977
0.0627786
0.0742489
0.150674
0.194852
0.205777
0.155411
0.132847
0.129179
0.12953
0.111692
0.0950124
0.0894755
0.10275
0.106062
0.101042
0.0977217
0.0966975
0.0949224
0.0897915
0.0877755
0.0893915
0.0899896
0.0861509
0.0850939
0.0829543
0.081161
0.0798617
0.0781555
0.0778245
0.0777145
0.0781109
0.0783152
0.0798017
0.08022
0.0800786
0.0804178
0.0805309
0.0805891
0.080675
0.0806837
0.0800474
0.0811523
0.0830208
0.0881709
0.089033
0.0883133
0.0818809
0.0691561
0.062678
0.0831144
0.115952
0.183178
0.926304
0.0912028
0.0458319
0.00465873
0.00433535
0.00615715
0.0116396
0.0346375
0.0382369
0.0173319
0.0276565
0.00320614
4.22454e-21
4.22454e-21
4.22446e-21
0.00222887
0.1309
0.168888
0.2522
0.244108
0.0974322
0.0650904
0.0579439
0.0584491
0.0717016
0.151915
0.196177
0.207553
0.157668
0.135637
0.131511
0.130767
0.112696
0.0968534
0.0921967
0.104486
0.105307
0.095405
0.0931194
0.0926087
0.091881
0.0876388
0.0863237
0.0870804
0.0884231
0.0867117
0.084579
0.0834971
0.0815154
0.0798562
0.0780398
0.0777016
0.0778553
0.078022
0.0784004
0.0798877
0.0801485
0.0799954
0.080788
0.0809226
0.0807886
0.0807913
0.0805343
0.0796974
0.0809179
0.0824105
0.0880733
0.0890715
0.0883067
0.0818642
0.0695048
0.0630331
0.0837242
0.116765
0.184239
0.92772
0.0919853
0.046042
0.00467976
0.00434437
0.00616259
0.0116404
0.034658
0.0382864
0.0173668
)
;
    }
    defaultFaces
    {
        type            empty;
    }
}


// ************************************************************************* //
