/*--------------------------------*- C++ -*----------------------------------*\
| =========                 |                                                 |
| \\      /  F ield         | OpenFOAM: The Open Source CFD Toolbox           |
|  \\    /   O peration     | Version:  2.3.0                                 |
|   \\  /    A nd           | Web:      www.OpenFOAM.org                      |
|    \\/     M anipulation  |                                                 |
\*---------------------------------------------------------------------------*/
FoamFile
{
    version     2.0;
    format      ascii;
    class       volScalarField;
    location    "0.128";
    object      k;
}
// * * * * * * * * * * * * * * * * * * * * * * * * * * * * * * * * * * * * * //

dimensions      [0 2 -2 0 0 0 0];

internalField   nonuniform List<scalar> 
545
(
110203
104943
96548.9
89307.4
84351.6
112336
105185
96292
88865.3
83523.6
116004
105382
95676
87948.1
82042.7
121550
105222
94687.2
86635.2
79778.6
129772
104318
93549.5
85228.2
76588.5
81818.3
80434.5
79994
79854.9
79810.8
79796.3
79791
79788.7
79787.2
79786.1
79785.1
79784.1
79783.2
79782.3
79781.5
79780.6
79779.8
79779.1
79778.3
79777.6
79776.9
79776.3
79775.6
79775
79774.5
79773.9
79773.4
79772.9
79772.5
79772
79771.6
79771.3
79770.9
79770.6
79770.3
79770
79769.8
79769.6
79769.4
79769.2
79769.1
79769
79768.9
79768.9
79768.8
81184.6
80240.5
79932.7
79835.7
79804.7
79794.4
79790.4
79788.5
79787.2
79786.1
79785.1
79784.1
79783.2
79782.3
79781.4
79780.6
79779.8
79779
79778.3
79777.6
79776.9
79776.2
79775.6
79775
79774.4
79773.9
79773.4
79772.9
79772.4
79772
79771.6
79771.2
79770.9
79770.5
79770.3
79770
79769.7
79769.5
79769.3
79769.2
79769.1
79768.9
79768.9
79768.8
79768.8
80262.6
79915.6
79828.5
79803
79794.5
79791.2
79789.4
79788.1
79787
79786
79785
79784.1
79783.2
79782.3
79781.4
79780.6
79779.8
79779
79778.3
79777.6
79776.9
79776.2
79775.6
79775
79774.4
79773.9
79773.4
79772.9
79772.4
79772
79771.6
79771.2
79770.8
79770.5
79770.2
79770
79769.7
79769.5
79769.3
79769.2
79769
79768.9
79768.8
79768.8
79768.8
79063.2
79536.4
79711.6
79766.8
79783.3
79787.7
79788.3
79787.8
79786.9
79786
79785
79784.1
79783.1
79782.3
79781.4
79780.6
79779.8
79779
79778.3
79777.5
79776.9
79776.2
79775.6
79775
79774.4
79773.9
79773.3
79772.8
79772.4
79772
79771.6
79771.2
79770.8
79770.5
79770.2
79769.9
79769.7
79769.5
79769.3
79769.1
79769
79768.9
79768.8
79768.8
79768.8
77665
79215.6
79618.8
79738.6
79774.6
79785
79787.5
79787.5
79786.8
79785.9
79785
79784
79783.1
79782.2
79781.4
79780.6
79779.8
79779
79778.2
79777.5
79776.8
79776.2
79775.6
79775
79774.4
79773.8
79773.3
79772.8
79772.4
79771.9
79771.5
79771.2
79770.8
79770.5
79770.2
79769.9
79769.7
79769.5
79769.3
79769.1
79769
79768.9
79768.8
79768.8
79768.7
77820.5
79118
79581.3
79726.6
79770.9
79783.8
79787.1
79787.4
79786.8
79785.9
79785
79784
79783.1
79782.2
79781.4
79780.6
79779.8
79779
79778.2
79777.5
79776.8
79776.2
79775.6
79775
79774.4
79773.8
79773.3
79772.8
79772.4
79771.9
79771.5
79771.2
79770.8
79770.5
79770.2
79769.9
79769.7
79769.5
79769.3
79769.1
79769
79768.9
79768.8
79768.8
79768.7
129772
104318
93549.5
85228.2
76588.5
121550
105222
94687.2
86635.2
79778.6
116004
105382
95676
87948.1
82042.7
112336
105185
96292
88865.3
83523.6
110203
104943
96548.9
89307.4
84351.6
77665
79215.6
79618.8
79738.6
79774.6
79785
79787.5
79787.5
79786.8
79785.9
79785
79784
79783.1
79782.2
79781.4
79780.6
79779.8
79779
79778.2
79777.5
79776.8
79776.2
79775.6
79775
79774.4
79773.8
79773.3
79772.8
79772.4
79771.9
79771.5
79771.2
79770.8
79770.5
79770.2
79769.9
79769.7
79769.5
79769.3
79769.1
79769
79768.9
79768.8
79768.8
79768.7
79063.2
79536.4
79711.6
79766.8
79783.3
79787.7
79788.3
79787.8
79786.9
79786
79785
79784.1
79783.1
79782.3
79781.4
79780.6
79779.8
79779
79778.3
79777.5
79776.9
79776.2
79775.6
79775
79774.4
79773.9
79773.3
79772.8
79772.4
79772
79771.6
79771.2
79770.8
79770.5
79770.2
79769.9
79769.7
79769.5
79769.3
79769.1
79769
79768.9
79768.8
79768.8
79768.8
80262.6
79915.6
79828.5
79803
79794.5
79791.2
79789.4
79788.1
79787
79786
79785
79784.1
79783.2
79782.3
79781.4
79780.6
79779.8
79779
79778.3
79777.6
79776.9
79776.2
79775.6
79775
79774.4
79773.9
79773.4
79772.9
79772.4
79772
79771.6
79771.2
79770.8
79770.5
79770.2
79770
79769.7
79769.5
79769.3
79769.2
79769
79768.9
79768.8
79768.8
79768.8
81184.6
80240.5
79932.7
79835.7
79804.7
79794.4
79790.4
79788.5
79787.2
79786.1
79785.1
79784.1
79783.2
79782.3
79781.4
79780.6
79779.8
79779
79778.3
79777.6
79776.9
79776.2
79775.6
79775
79774.4
79773.9
79773.4
79772.9
79772.4
79772
79771.6
79771.2
79770.9
79770.5
79770.3
79770
79769.7
79769.5
79769.3
79769.2
79769.1
79768.9
79768.9
79768.8
79768.8
81818.3
80434.5
79994
79854.9
79810.8
79796.3
79791
79788.7
79787.2
79786.1
79785.1
79784.1
79783.2
79782.3
79781.5
79780.6
79779.8
79779.1
79778.3
79777.6
79776.9
79776.3
79775.6
79775
79774.5
79773.9
79773.4
79772.9
79772.5
79772
79771.6
79771.2
79770.9
79770.6
79770.3
79770
79769.8
79769.6
79769.4
79769.2
79769.1
79769
79768.9
79768.9
79768.8
)
;

boundaryField
{
    AirInlet
    {
        type            fixedValue;
        value           uniform 0.1;
    }
    WaterInlet
    {
        type            fixedValue;
        value           uniform 0.1;
    }
    ChannelWall
    {
        type            fixedValue;
        value           uniform 0.1;
    }
    Outlet
    {
        type            inletOutlet;
        inletValue      uniform 0.1;
        value           nonuniform List<scalar> 
11
(
79768.8
79768.8
79768.8
79768.8
79768.7
79768.7
79768.7
79768.8
79768.8
79768.8
79768.8
)
;
    }
    FrontAndBack
    {
        type            empty;
    }
}


// ************************************************************************* //
