/*--------------------------------*- C++ -*----------------------------------*\
| =========                 |                                                 |
| \\      /  F ield         | OpenFOAM: The Open Source CFD Toolbox           |
|  \\    /   O peration     | Version:  2.3.0                                 |
|   \\  /    A nd           | Web:      www.OpenFOAM.org                      |
|    \\/     M anipulation  |                                                 |
\*---------------------------------------------------------------------------*/
FoamFile
{
    version     2.0;
    format      ascii;
    class       volScalarField;
    location    "0.56";
    object      alpha.particles;
}
// * * * * * * * * * * * * * * * * * * * * * * * * * * * * * * * * * * * * * //

dimensions      [0 0 0 0 0 0 0];

internalField   nonuniform List<scalar> 
6000
(
0.402377
0.431476
0.431482
0.431483
0.431485
0.431485
0.431486
0.431479
0.359877
0.313845
0.357637
0.396296
0.396413
0.396506
0.396576
0.396466
0.396367
0.397128
0.39817
0.422976
0.433397
0.433399
0.433399
0.433398
0.433397
0.433396
0.433393
0.433391
0.433381
0.3752
0.29578
0.349403
0.355833
0.37379
0.406943
0.41228
0.421858
0.346348
0.313771
0.310336
0.313773
0.348142
0.39651
0.396615
0.396674
0.396575
0.384306
0.348972
0.295333
0.308862
0.368011
0.415659
0.422061
0.408173
0.393807
0.371131
0.351374
0.354253
0.331854
0.285967
0.281859
0.286569
0.285944
0.299127
0.363729
0.420635
0.420834
0.31377
0.310416
0.313769
0.31056
0.31377
0.377199
0.396709
0.396795
0.389333
0.319313
0.294063
0.294949
0.293109
0.30242
0.363806
0.391899
0.363174
0.328058
0.301944
0.292121
0.293342
0.291509
0.286042
0.282041
0.285636
0.28576
0.285884
0.311444
0.383568
0.361559
0.31169
0.313769
0.310432
0.313769
0.311872
0.322992
0.394524
0.396893
0.331629
0.294231
0.294949
0.292715
0.294652
0.293316
0.305823
0.325013
0.304102
0.292632
0.292059
0.292632
0.295809
0.308082
0.286159
0.282222
0.303947
0.304073
0.287732
0.29487
0.32494
0.313927
0.313769
0.310595
0.313769
0.311129
0.313769
0.313427
0.348552
0.35128
0.302747
0.294949
0.293083
0.294652
0.292785
0.294359
0.293828
0.297912
0.292632
0.292181
0.292632
0.304795
0.341677
0.344319
0.286238
0.282403
0.335113
0.356034
0.331043
0.315106
0.313489
0.313769
0.311472
0.313769
0.310652
0.313769
0.312499
0.313769
0.32501
0.327044
0.29828
0.293989
0.294652
0.292957
0.294359
0.29302
0.294069
0.293854
0.292463
0.292632
0.307999
0.368958
0.416048
0.389465
0.300587
0.298037
0.381047
0.41874
0.406651
0.384156
0.341025
0.313112
0.313769
0.310718
0.313769
0.311632
0.313769
0.316372
0.340363
0.343201
0.304758
0.294949
0.2934
0.294652
0.29306
0.294359
0.293781
0.297053
0.309478
0.330426
0.386064
0.462811
0.485515
0.447515
0.36164
0.353576
0.435865
0.477535
0.478603
0.47178
0.423358
0.333033
0.312618
0.313769
0.31131
0.313769
0.313358
0.354204
0.393697
0.394307
0.333239
0.29481
0.294949
0.293475
0.294652
0.293911
0.295822
0.331984
0.389457
0.441219
0.493852
0.521819
0.524643
0.50566
0.448462
0.429108
0.489852
0.516372
0.520365
0.519385
0.503663
0.399856
0.316383
0.312027
0.313769
0.312904
0.328608
0.42492
0.460259
0.452418
0.3776
0.296064
0.294468
0.294949
0.294217
0.296107
0.338579
0.432718
0.503292
0.52781
0.540624
0.543925
0.54315
0.536439
0.512768
0.489188
0.525224
0.53695
0.538318
0.536498
0.530385
0.490298
0.358289
0.31377
0.313
0.313769
0.376308
0.490542
0.500811
0.488031
0.415414
0.317422
0.295248
0.294758
0.299455
0.344015
0.447812
0.525942
0.546502
0.551469
0.552784
0.552445
0.551598
0.549006
0.540736
0.523927
0.542861
0.547943
0.547695
0.545604
0.541404
0.531358
0.449632
0.340694
0.31448
0.333489
0.442804
0.51888
0.519462
0.505467
0.442996
0.356501
0.31001
0.313882
0.354981
0.45778
0.534234
0.553473
0.555441
0.555458
0.555504
0.55548
0.555062
0.554209
0.551489
0.543907
0.552406
0.554325
0.553882
0.551624
0.547898
0.544484
0.522155
0.425126
0.362928
0.386466
0.48962
0.528239
0.52992
0.514028
0.458198
0.399108
0.365381
0.388139
0.472938
0.539318
0.555275
0.555512
0.555482
0.555724
0.555503
0.55563
0.555527
0.555556
0.55533
0.554468
0.556694
0.556714
0.55667
0.553212
0.549199
0.546441
0.544718
0.514224
0.442398
0.432253
0.509356
0.531015
0.533016
0.513624
0.464449
0.441129
0.451504
0.499399
0.54443
0.551452
0.55165
0.548176
0.55621
0.555515
0.556138
0.555538
0.555753
0.555574
0.555619
0.556718
0.556728
0.556716
0.556648
0.546737
0.544366
0.54184
0.54157
0.538298
0.466533
0.398012
0.504076
0.53217
0.532935
0.510821
0.471307
0.491844
0.524779
0.547414
0.547559
0.545069
0.536361
0.50699
0.551036
0.556902
0.555525
0.556474
0.555525
0.552679
0.555573
0.556729
0.55674
0.554512
0.549512
0.514372
0.522915
0.525657
0.524728
0.506903
0.392864
0.284282
0.437397
0.528559
0.533193
0.513185
0.499129
0.532302
0.547464
0.547696
0.544835
0.509873
0.442118
0.354363
0.447355
0.554916
0.557169
0.555527
0.556281
0.527921
0.555309
0.55671
0.556135
0.471984
0.374664
0.327103
0.342648
0.36299
0.370065
0.326751
0.245852
0.215093
0.277989
0.505873
0.532928
0.520411
0.529519
0.54747
0.547696
0.545746
0.44525
0.321512
0.237714
0.212193
0.235983
0.442096
0.555018
0.557167
0.555209
0.478259
0.481724
0.545382
0.434529
0.305255
0.22454
0.219478
0.216215
0.219422
0.215992
0.219417
0.214284
0.219475
0.215006
0.413266
0.533146
0.51986
0.539727
0.547604
0.544706
0.398578
0.233694
0.215873
0.210268
0.215868
0.210554
0.246563
0.490922
0.555094
0.532695
0.464253
0.451204
0.444296
0.346405
0.259663
0.219475
0.216113
0.219413
0.213663
0.219351
0.213484
0.219413
0.213686
0.219475
0.303682
0.514261
0.51614
0.52399
0.543565
0.426983
0.241551
0.215869
0.211044
0.215868
0.209999
0.215868
0.213184
0.359731
0.533755
0.519453
0.501686
0.487783
0.41301
0.361405
0.28058
0.218673
0.219413
0.214912
0.219351
0.213524
0.219351
0.213767
0.219413
0.214143
0.262127
0.459356
0.509535
0.484867
0.52261
0.359411
0.215869
0.212324
0.215868
0.210537
0.215868
0.212211
0.215868
0.239423
0.410223
0.503889
0.498392
0.509908
0.427345
0.376099
0.304756
0.219413
0.216704
0.219351
0.213911
0.219292
0.21367
0.219351
0.213984
0.219413
0.2513
0.443919
0.498065
0.484489
0.495894
0.375814
0.220027
0.215868
0.211505
0.215868
0.210836
0.215868
0.21366
0.21587
0.25949
0.364111
0.395193
0.491436
0.432766
0.377163
0.323136
0.219225
0.219413
0.215382
0.219351
0.213699
0.219351
0.214208
0.219413
0.214198
0.229713
0.439946
0.493976
0.484489
0.487023
0.426043
0.235722
0.212897
0.215868
0.211693
0.215868
0.213842
0.215868
0.213948
0.224801
0.259461
0.298281
0.415801
0.430551
0.372048
0.339814
0.225718
0.217793
0.219413
0.21426
0.219351
0.213959
0.219413
0.214366
0.219475
0.217613
0.421409
0.506006
0.48449
0.489379
0.476101
0.254724
0.215868
0.212451
0.215868
0.212392
0.215868
0.213686
0.215868
0.228944
0.253543
0.28316
0.392889
0.427445
0.366865
0.355298
0.246414
0.219475
0.216392
0.219413
0.213903
0.219413
0.214403
0.219475
0.214484
0.219539
0.392151
0.505994
0.494559
0.506055
0.503737
0.264703
0.214125
0.215868
0.212971
0.215868
0.214507
0.215868
0.214502
0.244273
0.285778
0.308136
0.396876
0.435319
0.374502
0.377254
0.28342
0.219052
0.219475
0.214882
0.219413
0.214138
0.219475
0.214917
0.219538
0.216548
0.343232
0.504871
0.513033
0.522834
0.517226
0.269425
0.215868
0.213791
0.215868
0.213665
0.215868
0.213831
0.215868
0.263439
0.321106
0.346462
0.42175
0.454863
0.406283
0.409085
0.337808
0.237986
0.217894
0.219475
0.214343
0.219475
0.215203
0.219539
0.215082
0.219604
0.288154
0.488544
0.529118
0.529823
0.525333
0.28572
0.215466
0.215868
0.214633
0.215868
0.215073
0.215868
0.215469
0.28537
0.356027
0.38246
0.44389
0.477628
0.442604
0.444139
0.398191
0.287129
0.219539
0.216145
0.219475
0.215238
0.219539
0.216028
0.219604
0.216443
0.244533
0.429019
0.529799
0.52975
0.514786
0.322554
0.216598
0.214992
0.215868
0.215206
0.215868
0.214925
0.218324
0.310664
0.386247
0.411778
0.461831
0.498654
0.473136
0.473584
0.442076
0.349834
0.228538
0.219539
0.215661
0.219539
0.216456
0.219604
0.216202
0.219671
0.228338
0.357345
0.525266
0.524896
0.436092
0.346743
0.238094
0.215868
0.215632
0.215868
0.223424
0.215868
0.241179
0.334038
0.407968
0.439558
0.478953
0.516818
0.497337
0.493183
0.472942
0.40833
0.264391
0.218044
0.219539
0.216725
0.219604
0.216917
0.219671
0.217401
0.229781
0.346341
0.471462
0.405036
0.318572
0.323368
0.264398
0.218005
0.21659
0.2359
0.257583
0.22252
0.274627
0.359976
0.433361
0.466195
0.495604
0.531276
0.516567
0.508219
0.495549
0.450496
0.322432
0.219604
0.217181
0.219604
0.217542
0.219671
0.217244
0.21974
0.236611
0.359297
0.431747
0.340059
0.270092
0.27617
0.26904
0.234106
0.233385
0.28847
0.299117
0.248091
0.307653
0.392722
0.460706
0.490825
0.511566
0.541352
0.53118
0.522017
0.512163
0.485681
0.386438
0.226957
0.219604
0.218252
0.219671
0.218204
0.21974
0.218657
0.247242
0.371378
0.417149
0.315865
0.27062
0.269075
0.270377
0.263821
0.277067
0.352218
0.315545
0.284088
0.342812
0.428893
0.48877
0.511262
0.525455
0.548297
0.541922
0.534478
0.525913
0.512292
0.441269
0.273642
0.219212
0.219671
0.219242
0.21974
0.219157
0.219813
0.268937
0.389387
0.395535
0.289668
0.269196
0.27062
0.272889
0.309123
0.345617
0.39598
0.315969
0.32462
0.390201
0.470857
0.513289
0.526773
0.536299
0.55284
0.549458
0.544464
0.537957
0.529758
0.491918
0.345819
0.24497
0.233729
0.233282
0.232555
0.229619
0.237032
0.304794
0.395149
0.365538
0.270485
0.270865
0.268953
0.271771
0.351154
0.416143
0.414039
0.317501
0.369019
0.451269
0.510202
0.530406
0.538664
0.544734
0.554611
0.553662
0.55126
0.546984
0.540574
0.520758
0.419112
0.321511
0.299599
0.300309
0.301705
0.294146
0.302077
0.357387
0.395452
0.328242
0.271104
0.269556
0.270865
0.270263
0.349346
0.465871
0.427764
0.344525
0.420493
0.502324
0.532651
0.542346
0.547768
0.551028
0.554624
0.554618
0.554563
0.552619
0.547539
0.53147
0.473807
0.416013
0.405913
0.414436
0.424139
0.414691
0.406692
0.423762
0.394003
0.297576
0.270376
0.271104
0.269388
0.271104
0.32913
0.502673
0.461818
0.416513
0.480238
0.530557
0.545041
0.550504
0.553343
0.554199
0.554654
0.554597
0.554622
0.554543
0.55147
0.534319
0.503464
0.489238
0.502143
0.514163
0.520123
0.514091
0.501417
0.485003
0.39638
0.298336
0.271348
0.270747
0.271104
0.270884
0.347854
0.519433
0.49175
0.493342
0.525603
0.545173
0.551821
0.554163
0.554212
0.554217
0.554615
0.548115
0.554525
0.554588
0.553883
0.540921
0.52656
0.532602
0.542978
0.548073
0.54839
0.54447
0.538824
0.523294
0.42918
0.330201
0.28681
0.272893
0.270817
0.271348
0.415621
0.523579
0.498876
0.519812
0.542125
0.551504
0.554153
0.554211
0.554199
0.554236
0.549417
0.489037
0.551349
0.554581
0.554538
0.550407
0.545671
0.550422
0.553982
0.554396
0.549429
0.543968
0.543816
0.53986
0.493264
0.403521
0.343565
0.305085
0.286067
0.29197
0.483864
0.53007
0.510675
0.526555
0.546416
0.553493
0.554123
0.55315
0.550115
0.55418
0.463031
0.345653
0.468169
0.552351
0.554817
0.554518
0.554503
0.55452
0.55472
0.554427
0.54317
0.53882
0.542239
0.54435
0.534189
0.488676
0.433153
0.384176
0.348326
0.347812
0.487676
0.541387
0.531419
0.536977
0.548391
0.552917
0.546684
0.535297
0.431425
0.537001
0.350395
0.307935
0.364124
0.519471
0.55443
0.5548
0.554544
0.555234
0.554419
0.543096
0.53268
0.532906
0.540137
0.544348
0.544364
0.532792
0.508423
0.479394
0.453025
0.428295
0.491782
0.547943
0.547924
0.547303
0.548283
0.54403
0.489695
0.353148
0.238534
0.349107
0.342489
0.307968
0.350306
0.463814
0.552287
0.55453
0.555389
0.554366
0.529225
0.453611
0.529195
0.533521
0.541461
0.544502
0.545123
0.543248
0.537524
0.531259
0.527449
0.504547
0.504667
0.54781
0.548203
0.547943
0.543484
0.440562
0.28216
0.220292
0.218432
0.227538
0.374494
0.321998
0.351194
0.37832
0.514264
0.554805
0.554231
0.52052
0.327502
0.247804
0.468856
0.539579
0.541208
0.544535
0.545168
0.545124
0.544329
0.539576
0.536162
0.536147
0.446436
0.504999
0.547692
0.547761
0.413092
0.247318
0.220287
0.218984
0.220107
0.21994
0.413889
0.324029
0.337048
0.324601
0.378258
0.486307
0.477056
0.355366
0.204281
0.190235
0.239585
0.428977
0.515085
0.544948
0.545009
0.545066
0.545019
0.54444
0.527536
0.4658
0.275775
0.332178
0.423787
0.359371
0.238912
0.220285
0.219153
0.220107
0.218609
0.21993
0.442493
0.324691
0.324032
0.325023
0.324737
0.368091
0.388151
0.303773
0.190232
0.184429
0.190208
0.204754
0.300816
0.402436
0.453076
0.46839
0.463779
0.433273
0.361104
0.247213
0.190082
0.241257
0.283332
0.248796
0.220463
0.219624
0.220285
0.219421
0.220107
0.231096
0.449493
0.323035
0.325023
0.323979
0.325364
0.338294
0.372617
0.320187
0.194452
0.190206
0.184125
0.19018
0.186834
0.198817
0.230116
0.246532
0.244499
0.224236
0.195198
0.19008
0.186566
0.235637
0.276096
0.260869
0.226785
0.220463
0.219778
0.220285
0.219854
0.264788
0.41215
0.325024
0.324045
0.325364
0.32469
0.338185
0.382528
0.340073
0.202834
0.184744
0.19018
0.184376
0.190156
0.185962
0.19013
0.188268
0.190104
0.187887
0.190079
0.185876
0.190055
0.23707
0.289157
0.28519
0.243322
0.220522
0.220463
0.222671
0.2307
0.334084
0.375487
0.323357
0.325364
0.324295
0.325708
0.335098
0.385773
0.355741
0.212172
0.19018
0.184162
0.190156
0.184929
0.190129
0.187482
0.190103
0.18786
0.190079
0.187361
0.190055
0.184946
0.237561
0.303568
0.309867
0.271925
0.245094
0.242769
0.264348
0.294142
0.472104
0.359471
0.325365
0.324691
0.325708
0.325034
0.331761
0.387339
0.369415
0.224088
0.185056
0.190156
0.184419
0.190129
0.185489
0.190103
0.187838
0.190079
0.187744
0.190055
0.185481
0.190033
0.232022
0.316164
0.33438
0.306936
0.287913
0.297039
0.352709
0.441663
0.542602
0.367856
0.324311
0.325708
0.325031
0.326049
0.331152
0.390898
0.381586
0.237152
0.190156
0.184193
0.190129
0.184816
0.190103
0.187303
0.190079
0.187803
0.190055
0.187406
0.190033
0.18413
0.21821
0.328086
0.358651
0.338955
0.334515
0.376614
0.470997
0.540958
0.562361
0.428735
0.325709
0.325587
0.326049
0.325763
0.336154
0.399462
0.393184
0.24852
0.18494
0.190129
0.184425
0.190103
0.185253
0.190079
0.187771
0.190055
0.187797
0.190033
0.185237
0.190014
0.195564
0.348728
0.390451
0.364004
0.390206
0.473494
0.540592
0.561608
0.56256
0.515388
0.3767
0.342308
0.326067
0.326378
0.34581
0.41641
0.40701
0.252133
0.190129
0.184359
0.190103
0.184806
0.190079
0.18726
0.190055
0.187836
0.190033
0.187455
0.190014
0.184048
0.190002
0.379669
0.428926
0.39296
0.454198
0.530491
0.558549
0.563024
0.562536
0.549865
0.509889
0.422078
0.362939
0.33218
0.363296
0.437706
0.418866
0.236693
0.185087
0.190103
0.184596
0.190079
0.185199
0.190055
0.187789
0.190033
0.187911
0.190014
0.185306
0.189991
0.186595
0.398339
0.459433
0.430877
0.504235
0.548598
0.562967
0.562927
0.551584
0.551652
0.549403
0.51737
0.439592
0.382493
0.38828
0.455297
0.423802
0.202114
0.190103
0.184654
0.190079
0.184939
0.190055
0.187301
0.190033
0.187915
0.190014
0.187521
0.189991
0.184388
0.189939
0.317574
0.472668
0.474742
0.527213
0.555801
0.562991
0.5633
0.54659
0.551639
0.551649
0.549244
0.519608
0.455522
0.405035
0.470546
0.415801
0.190104
0.185013
0.190079
0.184752
0.190055
0.185274
0.190033
0.187866
0.190014
0.18804
0.189991
0.18555
0.18993
0.185231
0.225747
0.477852
0.507526
0.538621
0.560044
0.563403
0.562899
0.532578
0.541195
0.551597
0.551636
0.54678
0.519392
0.434274
0.485279
0.358183
0.188758
0.190079
0.184724
0.190055
0.185025
0.190033
0.187419
0.190014
0.188063
0.189991
0.18799
0.18993
0.184471
0.189911
0.188827
0.455455
0.519282
0.542496
0.561712
0.563034
0.563203
0.516804
0.525257
0.543687
0.551547
0.551605
0.542827
0.501313
0.507654
0.336247
0.190079
0.185166
0.190055
0.184826
0.190033
0.185377
0.190014
0.188048
0.189991
0.188374
0.18993
0.18553
0.189911
0.184965
0.189914
0.381579
0.525061
0.543018
0.562166
0.563366
0.55633
0.51225
0.456554
0.476821
0.536362
0.551414
0.550742
0.536933
0.523589
0.341598
0.188375
0.190055
0.184783
0.190033
0.185147
0.190014
0.187637
0.189991
0.188444
0.18993
0.1881
0.189911
0.184745
0.189846
0.187087
0.307911
0.531039
0.542252
0.561442
0.562885
0.534567
0.503091
0.424698
0.40017
0.449304
0.521634
0.547963
0.545959
0.529794
0.309389
0.190062
0.185223
0.190033
0.184895
0.190014
0.18552
0.189991
0.188382
0.18993
0.18846
0.189911
0.185887
0.189846
0.184855
0.189846
0.231647
0.489345
0.540024
0.558853
0.562941
0.52799
0.501074
0.464046
0.399839
0.399512
0.424066
0.51754
0.542355
0.482983
0.245031
0.186802
0.190039
0.184762
0.190014
0.185293
0.189991
0.187948
0.18993
0.188386
0.189911
0.188423
0.189846
0.184807
0.18984
0.186314
0.194671
0.326102
0.53607
0.555092
0.55892
0.538747
0.501093
0.51713
0.39952
0.399183
0.398858
0.444371
0.51878
0.337192
0.195379
0.190034
0.185044
0.190014
0.185001
0.189991
0.185686
0.18993
0.188218
0.189911
0.18849
0.189846
0.185714
0.18984
0.184978
0.18984
0.188544
0.222313
0.503521
0.55189
0.557566
0.544626
0.517665
0.549529
0.505018
0.398859
0.398532
0.4
0.439107
0.264823
0.190033
0.185889
0.19002
0.184817
0.189991
0.185454
0.18993
0.18787
0.189911
0.188317
0.189959
0.188236
0.18984
0.184892
0.189784
0.185998
0.189845
0.191
0.356415
0.542524
0.548233
0.49678
0.52619
0.556382
0.546993
0.500137
0.398208
0.397884
0.385204
0.237709
0.187511
0.190014
0.185037
0.189991
0.185162
0.18993
0.185586
0.189911
0.188176
0.189846
0.188366
0.18984
0.185815
0.189784
0.184797
0.189784
0.187781
0.189841
0.286061
0.457129
0.49936
0.413063
0.526159
0.556438
0.556346
0.539644
0.471095
0.441991
0.379116
0.217382
0.190014
0.185646
0.189991
0.184971
0.18993
0.18552
0.189911
0.187983
0.189846
0.188266
0.18984
0.188369
0.189784
0.184676
0.189731
0.185393
0.189784
0.189523
0.282699
0.393764
0.407562
0.386214
0.473429
0.550499
0.556583
0.55154
0.517872
0.477196
0.384686
0.202916
0.187126
0.190014
0.185366
0.189985
0.185423
0.189923
0.185763
0.189908
0.188322
0.189843
0.188478
0.189802
0.185887
0.189753
0.184636
0.189753
0.187459
0.189802
0.299881
0.386248
0.386686
0.386942
0.420916
0.548568
0.55641
0.554657
0.53341
0.498476
0.383891
0.197547
0.190033
0.185975
0.190014
0.185419
0.189977
0.185879
0.189923
0.187483
0.189892
0.188566
0.189843
0.188704
0.189795
0.18475
0.189753
0.18521
0.189795
0.189691
0.315664
0.388559
0.386941
0.385994
0.417612
0.548593
0.556613
0.555668
0.540697
0.51189
0.380455
0.197705
0.187381
0.190033
0.185672
0.190014
0.185837
0.189977
0.186167
0.189923
0.188636
0.189892
0.188902
0.189843
0.186077
0.189795
0.184684
0.189795
0.187837
0.1899
0.336795
0.38843
0.386572
0.387258
0.416585
0.548646
0.556414
0.556154
0.54504
0.517592
0.384979
0.204082
0.190055
0.186087
0.190033
0.185669
0.190014
0.186311
0.189977
0.186776
0.189923
0.189051
0.189892
0.189193
0.189843
0.18493
0.189795
0.18518
0.189843
0.204717
0.366261
0.390939
0.387258
0.386081
0.41712
0.548764
0.556332
0.55684
0.549474
0.522598
0.406847
0.216898
0.187895
0.190055
0.18585
0.190033
0.18621
0.190014
0.186626
0.189977
0.189121
0.189923
0.189469
0.189892
0.186203
0.189843
0.184796
0.189843
0.188807
0.247654
0.400323
0.398985
0.386871
0.387621
0.425709
0.553013
0.556921
0.557165
0.555582
0.533451
0.438972
0.231618
0.190079
0.18643
0.190055
0.185981
0.190033
0.186756
0.190014
0.187101
0.189977
0.189684
0.189923
0.189761
0.189892
0.185162
0.189843
0.185276
0.189892
0.306737
0.432172
0.409313
0.387621
0.386939
0.448919
0.535229
0.557065
0.556967
0.557232
0.545725
0.459733
0.245524
0.188895
0.190079
0.18616
0.190055
0.186694
0.190033
0.187142
0.190014
0.189802
0.189977
0.193246
0.192262
0.186447
0.189892
0.185131
0.189892
0.18972
0.367565
0.45352
0.416241
0.387689
0.388008
0.489504
0.501194
0.54533
0.557179
0.556878
0.552373
0.447688
0.256879
0.190103
0.187053
0.190079
0.186417
0.190055
0.187303
0.190033
0.18759
0.196605
0.202429
0.212921
0.205144
0.189923
0.185572
0.189892
0.185783
0.191301
0.421645
0.465237
0.421062
0.419011
0.458819
0.524217
0.480278
0.520611
0.530425
0.545807
0.523672
0.408351
0.276808
0.190166
0.190103
0.186555
0.190079
0.187261
0.190055
0.187687
0.190033
0.207861
0.224814
0.233664
0.216124
0.186827
0.189923
0.185601
0.189923
0.193919
0.457637
0.471388
0.436842
0.467158
0.517813
0.543421
0.463445
0.509817
0.520351
0.521202
0.465049
0.375155
0.293225
0.204652
0.187685
0.190103
0.186858
0.190079
0.187747
0.190055
0.187929
0.204692
0.232713
0.233928
0.198182
0.189977
0.186141
0.189923
0.186552
0.202745
0.469168
0.47817
0.46544
0.510133
0.540447
0.548073
0.436226
0.49715
0.51781
0.507109
0.437203
0.35229
0.291137
0.220113
0.190129
0.186894
0.190103
0.187534
0.190079
0.187791
0.190058
0.188448
0.202349
0.223203
0.190015
0.187241
0.189977
0.186096
0.189977
0.215719
0.470709
0.486917
0.497052
0.531998
0.546899
0.548098
0.412934
0.469681
0.516368
0.503577
0.42939
0.340978
0.275772
0.220585
0.18804
0.190129
0.186913
0.190104
0.187644
0.19008
0.1875
0.190072
0.187834
0.190044
0.18743
0.190014
0.186693
0.189977
0.187382
0.224395
0.452811
0.500161
0.517676
0.540513
0.547724
0.547707
0.408978
0.438749
0.499642
0.501757
0.438024
0.342664
0.261245
0.209958
0.190156
0.18692
0.190129
0.187235
0.190107
0.187308
0.19008
0.187374
0.190055
0.187554
0.190033
0.187255
0.190014
0.186469
0.190014
0.224589
0.425961
0.514124
0.528498
0.544436
0.547683
0.54332
0.409005
0.420097
0.472423
0.495513
0.459225
0.361303
0.256965
0.198106
0.187968
0.190156
0.186575
0.190133
0.1872
0.190104
0.187157
0.190079
0.187353
0.190055
0.187124
0.190034
0.186736
0.190014
0.187941
0.219051
0.392522
0.525291
0.537885
0.547129
0.5478
0.543289
0.409005
0.413152
0.462181
0.49162
0.478356
0.391638
0.267795
0.193951
0.19018
0.186639
0.190156
0.18696
0.19013
0.187145
0.190103
0.187158
0.190079
0.187384
0.190055
0.187067
0.190033
0.186573
0.190033
0.211931
0.352316
0.533355
0.545107
0.547767
0.547682
0.543271
0.409005
0.41013
0.459547
0.491038
0.48992
0.425855
0.297244
0.197318
0.188182
0.19018
0.18643
0.190156
0.187139
0.190129
0.187197
0.190103
0.187452
0.190079
0.187126
0.190055
0.186642
0.190033
0.188445
0.218435
0.333236
0.489415
0.540809
0.541061
0.544212
0.517898
0.409113
0.413549
0.461125
0.490663
0.496172
0.462124
0.344035
0.212859
0.190206
0.186644
0.19018
0.187067
0.190156
0.187383
0.190129
0.187439
0.190103
0.187527
0.190079
0.187188
0.190055
0.186824
0.190055
0.244854
0.365599
0.456849
0.486854
0.483235
0.480317
0.479466
0.409442
0.428171
0.468446
0.492305
0.500147
0.4913
0.403128
0.247695
0.189034
0.190206
0.18645
0.19018
0.187408
0.190156
0.187639
0.190129
0.187766
0.190103
0.187405
0.190079
0.186721
0.190055
0.189546
0.286929
0.411461
0.470023
0.470933
0.471004
0.471058
0.471183
0.422508
0.449709
0.479801
0.497272
0.504307
0.503204
0.455982
0.299315
0.190232
0.187191
0.190206
0.187443
0.19018
0.187869
0.190156
0.187928
0.190129
0.187878
0.190103
0.187578
0.190079
0.187645
0.196045
0.336581
0.449388
0.482034
0.476149
0.471084
0.471183
0.471252
0.458023
0.473214
0.492925
0.503311
0.507641
0.507158
0.486555
0.353329
0.193469
0.190232
0.186732
0.190206
0.188
0.19018
0.188218
0.190156
0.188218
0.190129
0.187964
0.190103
0.187235
0.190079
0.227376
0.391162
0.477491
0.49121
0.486945
0.474985
0.471252
0.471381
0.493445
0.498433
0.508098
0.511443
0.511543
0.509833
0.499478
0.398931
0.216416
0.188172
0.190232
0.187965
0.190206
0.188505
0.19018
0.188595
0.190156
0.188539
0.190129
0.188259
0.190103
0.18893
0.278969
0.441167
0.496498
0.502533
0.50149
0.496311
0.484248
0.489503
0.521886
0.52325
0.525317
0.523739
0.51994
0.515562
0.506666
0.43133
0.252972
0.190255
0.18744
0.190232
0.188683
0.190206
0.188969
0.19018
0.189018
0.190156
0.188854
0.190129
0.188284
0.190103
0.333419
0.480127
0.510135
0.515994
0.518705
0.519013
0.516071
0.521357
0.543746
0.543155
0.541417
0.537856
0.532111
0.52505
0.514481
0.455743
0.2845
0.189449
0.190255
0.188546
0.190232
0.189326
0.190206
0.189513
0.19018
0.189513
0.190156
0.189272
0.190129
0.20119
0.389744
0.506145
0.522558
0.529184
0.533882
0.536845
0.53928
0.543341
0.557934
0.556414
0.553708
0.549933
0.544261
0.536209
0.524151
0.47544
0.307855
0.190277
0.18846
0.190255
0.189511
0.190232
0.189937
0.190206
0.189989
0.19018
0.189937
0.190156
0.189758
0.242679
0.443666
0.523444
0.533863
0.540161
0.544897
0.548756
0.551934
0.554598
0.562849
0.562808
0.561151
0.558467
0.554094
0.546785
0.534835
0.49404
0.328009
0.192444
0.190277
0.189464
0.190255
0.19471
0.201046
0.205881
0.208197
0.208365
0.204014
0.198223
0.203226
0.301829
0.488015
0.535283
0.542757
0.547843
0.551779
0.554943
0.556749
0.556774
0.56289
0.562883
0.562866
0.562625
0.560109
0.554949
0.544829
0.509227
0.340253
0.200421
0.189817
0.190277
0.205343
0.222187
0.23658
0.247307
0.25382
0.256605
0.249586
0.237226
0.251357
0.360735
0.51223
0.542744
0.548484
0.552197
0.555157
0.556765
0.556785
0.556787
0.562882
0.562887
0.562817
0.561947
0.560934
0.558866
0.55205
0.514096
0.337984
0.214319
0.193011
0.207316
0.244602
0.270012
0.289493
0.304967
0.317522
0.325636
0.319917
0.305943
0.321866
0.408605
0.520464
0.54638
0.55129
0.553761
0.555847
0.556766
0.556756
0.556699
0.560793
0.562612
0.555634
0.552308
0.554411
0.556473
0.553815
0.508056
0.341804
0.246446
0.222747
0.248537
0.298111
0.327509
0.350622
0.371142
0.390316
0.403341
0.399267
0.386107
0.39431
0.441929
0.513712
0.544589
0.551288
0.552968
0.553807
0.554897
0.550519
0.521201
0.410565
0.517624
0.529609
0.530345
0.538978
0.548395
0.549055
0.492665
0.371381
0.310428
0.290494
0.309756
0.358388
0.389481
0.415514
0.438955
0.459763
0.47301
0.470456
0.458199
0.453826
0.463091
0.488192
0.52978
0.547393
0.55049
0.548533
0.541106
0.493883
0.322403
0.196868
0.413481
0.521145
0.524382
0.537034
0.545031
0.532222
0.478554
0.432051
0.405603
0.38915
0.389913
0.422366
0.450195
0.473862
0.49207
0.505297
0.51324
0.514653
0.508166
0.492724
0.47057
0.470667
0.495759
0.532733
0.546703
0.543739
0.522313
0.332715
0.162724
0.111255
0.216308
0.450628
0.536101
0.536993
0.535723
0.503819
0.481591
0.499294
0.499183
0.483481
0.470981
0.478489
0.495657
0.509779
0.518441
0.523939
0.528162
0.531641
0.531479
0.519793
0.485647
0.47078
0.470899
0.500151
0.533121
0.540827
0.4175
0.198569
0.160596
0.111239
0.127128
0.226036
0.407284
0.501042
0.523036
0.512548
0.511031
0.53215
0.533431
0.524413
0.513435
0.508051
0.51687
0.523872
0.528112
0.530974
0.533623
0.537416
0.540735
0.537977
0.518126
0.483468
0.471012
0.471646
0.511205
0.499507
0.301278
0.170094
0.160596
0.111275
0.12725
0.156458
0.217964
0.312799
0.416626
0.522768
0.534378
0.534545
0.534391
0.529092
0.51502
0.515162
0.523432
0.528952
0.532453
0.534838
0.536733
0.539576
0.543766
0.546181
0.541625
0.522098
0.492993
0.477311
0.49018
0.432324
0.29222
0.189957
0.160596
0.111327
0.14328
0.173154
0.20548
0.234775
0.278175
0.437306
0.534488
0.534396
0.534543
0.527859
0.512675
0.518008
0.526641
0.531839
0.53529
0.537706
0.539358
0.541133
0.544247
0.548017
0.549683
0.54551
0.531667
0.511779
0.496809
0.445244
0.349918
0.245966
0.171965
0.12289
0.17248
0.210422
0.240314
0.260363
0.269761
0.316811
0.482718
0.534421
0.53436
0.514248
0.512683
0.52159
0.530054
0.534783
0.538026
0.540364
0.541956
0.54314
0.544906
0.54775
0.55065
0.551952
0.549151
0.540732
0.525499
0.495935
0.436351
0.333562
0.231157
0.154608
0.211702
0.258517
0.297341
0.315677
0.306885
0.309822
0.355684
0.490894
0.528372
0.511057
0.514822
0.526704
0.534057
0.538192
0.541002
0.543055
0.544541
0.545539
0.546456
0.548048
0.550307
0.552413
0.55333
0.55148
0.545451
0.533443
0.507193
0.436982
0.341374
0.203339
0.263889
0.317776
0.360191
0.380672
0.371258
0.340673
0.342619
0.388376
0.4964
0.510974
0.521632
0.532493
0.538353
0.541693
0.54391
0.545562
0.546858
0.547813
0.548496
0.54927
0.550614
0.552319
0.553829
0.554404
0.552967
0.548509
0.538779
0.513118
0.456834
0.267302
0.333046
0.390937
0.428891
0.446228
0.440337
0.403893
0.35179
0.365141
0.445698
0.513925
0.529243
0.537832
0.542224
0.54462
0.546165
0.547396
0.548504
0.549475
0.550232
0.55085
0.551618
0.552767
0.554176
0.555354
0.555706
0.554504
0.550563
0.540095
0.518104
0.345741
0.415593
0.467996
0.492469
0.500994
0.497261
0.471292
0.397422
0.380925
0.443528
0.518601
0.535968
0.542167
0.544934
0.546358
0.547297
0.548175
0.549181
0.550287
0.551236
0.55204
0.552766
0.553682
0.554893
0.55622
0.557267
0.557593
0.556253
0.549686
0.533069
0.428491
0.49016
0.520371
0.529573
0.531749
0.529294
0.5177
0.469377
0.422309
0.461686
0.525767
0.541293
0.544889
0.545959
0.546605
0.547277
0.548003
0.548951
0.550258
0.551507
0.552666
0.553595
0.554598
0.555769
0.557151
0.558543
0.559636
0.559775
0.556016
0.542993
0.491617
0.530264
0.542716
0.544947
0.544551
0.54308
0.538946
0.522089
0.47753
0.491796
0.531174
0.543814
0.54523
0.545437
0.545827
0.546459
0.546959
0.547636
0.549361
0.551198
0.552939
0.554157
0.555188
0.556277
0.557646
0.559315
0.5609
0.561808
0.560485
0.553024
0.522797
0.545909
0.551061
0.549882
0.547898
0.54728
0.546804
0.542615
0.52305
0.513075
0.527573
0.542406
0.54388
0.542906
0.542736
0.543498
0.544356
0.543958
0.546396
0.549868
0.553067
0.554567
0.555201
0.555761
0.556789
0.558735
0.561019
0.562468
0.562467
0.559941
0.539101
0.552558
0.552614
0.549501
0.546476
0.546367
0.547908
0.548
0.543232
0.528952
0.525482
0.535075
0.535305
0.520227
0.518458
0.531822
0.538393
0.531896
0.537868
0.546314
0.553101
0.554565
0.554321
0.55292
0.552663
0.555038
0.559088
0.5624
0.562521
0.562508
0.549789
0.554848
0.552611
0.546408
0.541885
0.541658
0.546509
0.54801
0.548016
0.541648
0.525577
0.501881
0.483467
0.450823
0.448542
0.474027
0.496445
0.482375
0.503621
0.539819
0.553269
0.554547
0.551383
0.545133
0.543626
0.547107
0.553166
0.559627
0.562502
0.562528
0.554894
0.554892
0.549947
0.543105
0.537492
0.533114
0.542847
0.548089
0.548013
0.547211
0.529902
0.476004
0.432819
0.428227
0.427519
0.428227
0.432673
0.433802
0.473733
0.536829
0.553344
0.553398
0.54555
0.531249
0.535052
0.540916
0.546128
0.553589
0.562451
0.56253
0.554916
0.554872
0.547557
0.543225
0.538214
0.531416
0.53763
0.547592
0.548225
0.54799
0.53771
0.489881
0.433799
0.427918
0.428227
0.427537
0.428227
0.42816
0.476359
0.538177
0.553318
0.550927
0.538
0.53085
0.535285
0.540213
0.542251
0.547091
0.559111
0.562425
0.55487
0.552539
0.544192
0.543353
0.539881
0.531418
0.532801
0.545712
0.54801
0.548127
0.543056
0.517662
0.462985
0.43561
0.427928
0.428227
0.427996
0.432498
0.494318
0.542466
0.55326
0.548361
0.533451
0.53087
0.534466
0.536581
0.53553
0.539205
0.542757
0.540653
0.545527
0.537615
0.53613
0.53894
0.538427
0.531214
0.531643
0.544988
0.548331