/*--------------------------------*- C++ -*----------------------------------*\
| =========                 |                                                 |
| \\      /  F ield         | OpenFOAM: The Open Source CFD Toolbox           |
|  \\    /   O peration     | Version:  2.3.0                                 |
|   \\  /    A nd           | Web:      www.OpenFOAM.org                      |
|    \\/     M anipulation  |                                                 |
\*---------------------------------------------------------------------------*/
FoamFile
{
    version     2.0;
    format      ascii;
    class       volScalarField;
    location    "0.56";
    object      nut.particles;
}
// * * * * * * * * * * * * * * * * * * * * * * * * * * * * * * * * * * * * * //

dimensions      [0 2 -1 0 0 0 0];

internalField   nonuniform List<scalar> 
6000
(
1.73714e-05
1.93818e-05
1.88407e-05
1.52899e-05
1.22528e-05
1.11167e-05
1.03298e-05
1.24297e-05
1.16052e-05
1.08723e-05
1.61277e-05
1.55045e-05
1.31069e-05
1.26134e-05
1.24226e-05
1.29344e-05
1.58871e-05
1.92948e-05
2.0189e-05
1.92918e-05
1.46267e-05
1.19392e-05
1.15588e-05
1.31382e-05
1.43944e-05
1.51371e-05
1.68811e-05
1.83834e-05
1.86804e-05
1.3414e-05
6.52053e-07
1.10292e-06
1.40515e-06
1.85229e-06
2.42751e-06
2.44381e-06
2.41751e-06
1.56404e-06
1.28619e-06
1.02897e-06
1.20807e-06
1.69761e-06
2.09507e-06
1.92787e-06
1.7152e-06
2.13869e-06
2.36823e-06
1.60633e-06
7.47481e-07
9.75287e-07
1.501e-06
2.05634e-06
2.33775e-06
2.40362e-06
2.22382e-06
1.74898e-06
1.39356e-06
1.3456e-06
9.05789e-07
6.20993e-07
8.48152e-07
1.21908e-07
1.2162e-07
2.85515e-07
2.10249e-06
5.22245e-06
5.53456e-06
1.95751e-06
2.27616e-07
2.26531e-07
1.5727e-07
9.19016e-07
1.8812e-06
2.30499e-06
2.11074e-06
2.35699e-06
1.15997e-06
2.64549e-07
1.00081e-07
3.83122e-07
1.4113e-06
2.81702e-06
3.80896e-06
2.38068e-06
1.43311e-06
7.31732e-07
1.6035e-07
1.16333e-07
8.35678e-08
7.68965e-07
4.31289e-07
1.76372e-07
2.20277e-07
1.80634e-07
2.00483e-07
1.66198e-06
1.75747e-06
3.91881e-07
1.90131e-07
1.24264e-07
1.1169e-07
1.81947e-07
2.76277e-07
8.84267e-07
5.75322e-07
1.77248e-07
1.39538e-07
8.09763e-08
1.08764e-07
1.60107e-07
2.98816e-07
5.71473e-07
5.77099e-07
1.49167e-07
1.25402e-07
1.63544e-07
2.24944e-07
1.85221e-07
2.93048e-07
4.15568e-07
3.76635e-07
3.1412e-07
2.99204e-07
2.1259e-07
2.81809e-07
7.77856e-07
1.01307e-06
5.96105e-07
3.23724e-07
2.42327e-07
3.04122e-07
3.45551e-07
3.77566e-07
6.53164e-07
4.34785e-07
3.58779e-07
2.10701e-07
2.14505e-07
2.05077e-07
2.27722e-07
4.97467e-07
7.30464e-07
5.59882e-07
2.85277e-07
2.32043e-07
2.88074e-07
3.18825e-07
6.50246e-07
3.70538e-07
3.93617e-07
3.12827e-07
3.83428e-07
7.06583e-07
6.78445e-07
5.70272e-07
6.98577e-07
8.00947e-07
5.82784e-07
3.91796e-07
3.7668e-07
3.98091e-07
3.28415e-07
4.7457e-07
2.9307e-07
2.4191e-07
3.98143e-07
2.16914e-07
2.44797e-07
2.38142e-07
2.8335e-07
3.61621e-07
5.67796e-07
5.33021e-07
3.62567e-07
3.65402e-07
4.81229e-07
1.1104e-06
1.01727e-06
5.74247e-07
3.51487e-07
3.3564e-07
5.95749e-07
1.0585e-06
1.43372e-06
2.06663e-06
1.47641e-06
8.06685e-07
5.56933e-07
4.0565e-07
3.6603e-07
2.46038e-07
2.81343e-07
3.48166e-07
2.98631e-07
3.34876e-07
2.51835e-07
2.14213e-07
1.64047e-07
1.91743e-07
2.3724e-07
3.75046e-07
4.88121e-07
4.71773e-07
4.98268e-07
6.44039e-07
1.51442e-06
2.25815e-06
1.36773e-06
8.70127e-07
5.39183e-07
6.10875e-07
8.75496e-07
1.54794e-06
2.04254e-06
3.80901e-06
4.93587e-06
1.65418e-06
6.60075e-07
4.48756e-07
2.99056e-07
3.00718e-07
2.56548e-07
3.57997e-07
4.84592e-07
4.99151e-07
3.00628e-07
2.40525e-07
2.38242e-07
1.83742e-07
2.30009e-07
3.79224e-07
4.91082e-07
7.44731e-07
1.57397e-06
3.14248e-06
3.66781e-06
0.000250274
0.000368479
8.84455e-06
1.00347e-06
1.32172e-06
1.23618e-06
0.000108486
0.000203293
0.000176325
9.84307e-06
4.64243e-06
1.31231e-06
5.722e-07
3.68332e-07
3.48775e-07
3.83809e-07
6.6086e-07
6.5454e-07
6.62005e-07
3.90046e-07
2.23224e-07
2.65815e-07
2.79782e-07
3.34487e-07
4.74949e-07
9.986e-07
3.67492e-06
8.6367e-06
0.000556955
0.00250006
0.00361387
0.00331505
0.00155596
5.61843e-05
2.44029e-06
0.000398188
0.00165007
0.00192822
0.00156728
0.000764564
1.00443e-05
3.11779e-06
9.34489e-07
6.06037e-07
4.65734e-07
7.27815e-07
2.03156e-06
9.49173e-07
6.33361e-07
4.66427e-07
3.12773e-07
4.21357e-07
4.2922e-07
5.02214e-07
1.15091e-06
4.99197e-06
0.000441356
0.00481234
0.00836347
0.00969032
0.00932894
0.0084847
0.0063547
0.00253164
0.000336163
0.00321047
0.00564716
0.00549382
0.00435551
0.00272886
0.000860703
7.82239e-06
1.96503e-06
9.2543e-07
8.19076e-07
2.07997e-06
0.000163447
0.000176857
7.8615e-06
6.85521e-07
7.29459e-07
6.09909e-07
6.37405e-07
1.13606e-06
5.34463e-06
0.00120996
0.0104715
0.013079
0.0131049
0.0131735
0.0131376
0.0125294
0.0113762
0.00838236
0.00360749
0.00928793
0.0115264
0.0109646
0.00850971
0.00561919
0.0038466
0.000267636
4.69551e-06
1.60441e-06
2.05151e-06
4.66937e-06
0.000587622
0.000721612
7.2688e-05
2.56107e-06
1.54077e-06
1.13044e-06
1.25616e-06
5.54726e-06
0.00216305
0.0128359
0.0131866
0.0131426
0.0135088
0.0131732
0.0133642
0.0132083
0.0132523
0.0129156
0.0117153
0.015085
0.01512
0.0150439
0.0101696
0.0064938
0.00478023
0.00394767
8.00199e-05
4.96726e-06
6.20249e-06
3.15593e-05
0.000825953
0.00104785
6.99716e-05
3.74514e-06
2.55308e-06
2.35985e-06
4.55592e-06
0.0038264
0.00835119
0.0085362
0.00579798
0.014278
0.013193
0.0141606
0.0132274
0.0135531
0.0132791
0.0133471
0.0151277
0.0151466
0.0151257
0.0150083
0.00494126
0.00379672
0.00286459
0.00277899
0.00192711
1.72157e-05
6.69699e-06
1.20947e-05
0.00094845
0.00103932
4.1522e-05
3.44805e-06
3.79001e-06
0.000377165
0.00532764
0.00541563
0.00410479
0.00154897
3.01027e-05
0.0079741
0.0154542
0.0132104
0.0147161
0.0132069
0.00957714
0.0132786
0.0151486
0.0151704
0.0117751
0.00675249
0.000113315
0.000322828
0.000447516
0.000396671
4.52934e-05
1.27163e-05
2.33453e-06
8.33406e-06
0.000614569
0.00107097
6.38652e-05
3.54526e-06
0.000962526
0.00535715
0.00549998
0.00400334
5.97381e-05
2.37668e-05
1.02803e-05
2.21108e-05
0.0123272
0.0159377
0.0132184
0.0143964
0.000581774
0.0128915
0.0151167
0.0141656
3.24698e-05
1.18666e-05
9.56707e-06
1.2845e-05
1.54748e-05
1.56026e-05
1.01931e-05
3.24255e-06
8.67773e-07
2.33112e-06
2.58501e-05
0.00103781
0.000206367
0.0006881
0.00535964
0.00550175
0.00444164
2.63523e-05
1.04108e-05
4.43523e-06
2.8046e-06
3.07547e-06
2.18399e-05
0.0124824
0.0159411
0.012756
1.58711e-05
1.4595e-05
0.00428063
1.90775e-05
5.76221e-06
1.3165e-06
9.36886e-07
1.69364e-06
2.59634e-06
2.82895e-06
2.33569e-06
1.4462e-06
8.96331e-07
8.51897e-07
7.99554e-06
0.00106801
0.00019151
0.00226295
0.00544348
0.00395696
1.53642e-05
3.54254e-06
1.38759e-06
6.13808e-07
3.39668e-07
2.0724e-07
2.87043e-06
3.96487e-05
0.0125968
0.00103404
2.59349e-06
6.11239e-06
1.83418e-05
4.34309e-06
2.70298e-08
6.80514e-08
9.42033e-08
7.11969e-08
5.18694e-08
2.21579e-07
3.49955e-07
6.09918e-07
5.34382e-07
2.34989e-07
2.16039e-06
8.6901e-05
0.000108666
0.000345702
0.00347636
1.23094e-05
1.96477e-06
9.0125e-08
3.55674e-08
6.76065e-08
1.35371e-07
2.52558e-07
1.36826e-07
8.50056e-06
0.00117534
0.000193569
4.77786e-06
7.35752e-06
7.27842e-06
2.94893e-07
5.25824e-08
6.24652e-08
9.5417e-08
1.00863e-07
7.76739e-08
4.19082e-08
6.10945e-08
1.35371e-07
1.6852e-07
1.2632e-07
7.96454e-07
6.66143e-06
3.14679e-05
3.63112e-06
0.000288691
3.17465e-06
4.79255e-07
1.25675e-07
5.97911e-08
8.10836e-08
1.88761e-07
2.50564e-07
2.96217e-07
7.13387e-07
9.469e-06
1.75447e-05
1.15038e-05
4.42765e-05
7.63951e-06
4.29513e-07
7.00197e-08
6.1173e-08
9.82051e-08
1.07891e-07
8.253e-08
6.84185e-08
3.70664e-08
3.95992e-08
5.31391e-08
1.28078e-07
7.73212e-07
4.55261e-06
3.1382e-06
1.07539e-06
4.12252e-06
2.7476e-06
5.57479e-07
2.20329e-07
6.28868e-08
9.41322e-08
2.14259e-07
2.01666e-07
4.99352e-07
3.84201e-07
6.27976e-07
2.79949e-06
3.48042e-06
1.89678e-05
7.8498e-06
5.19904e-07
1.01069e-07
6.86328e-08
8.78244e-08
1.17185e-07
9.9469e-08
6.68291e-08
5.00608e-08
3.61157e-08
5.33527e-08
1.32026e-07
6.54726e-07
4.57661e-06
3.11838e-06
1.11436e-06
2.33813e-06
4.45252e-06
7.16143e-07
2.09578e-07
8.81399e-08
7.42313e-08
2.23252e-07
2.34632e-07
7.02884e-07
2.15958e-07
1.39543e-07
1.69294e-07
4.71041e-07
8.21083e-06
7.24981e-06
5.20104e-07
1.7049e-07
7.07561e-08
7.88435e-08
1.08197e-07
1.22059e-07
7.997e-08
4.62733e-08
3.86368e-08
6.1362e-08
1.3587e-07
5.66826e-07
4.11428e-06
1.22594e-05
7.44958e-07
1.46846e-06
6.86816e-06
9.60235e-07
2.36192e-07
1.17104e-07
8.30962e-08
1.64664e-07
2.58105e-07
4.64649e-07
1.14563e-07
9.03832e-08
1.43052e-07
1.77447e-07
5.6961e-06
6.24469e-06
5.27756e-07
2.85681e-07
9.79119e-08
9.40714e-08
9.16748e-08
1.19504e-07
9.25387e-08
6.4785e-08
5.75707e-08
7.92117e-08
1.38304e-07
5.35069e-07
3.34338e-06
1.15807e-05
8.07901e-07
1.04341e-05
1.07709e-05
8.09818e-07
2.50287e-07
2.04001e-07
1.27458e-07
1.34907e-07
2.74732e-07
1.91707e-07
8.20579e-08
8.06904e-08
1.47089e-07
2.80481e-07
4.94791e-06
5.41697e-06
6.13343e-07
4.64993e-07
1.45528e-07
8.71026e-08
8.81902e-08
1.10191e-07
1.24214e-07
9.88373e-08
1.02632e-07
1.14057e-07
1.82199e-07
3.74685e-07
1.88191e-06
8.605e-06
5.90373e-05
0.000288619
0.000130495
5.40096e-07
1.33726e-07
3.00813e-07
2.2193e-07
1.39671e-07
2.13475e-07
1.27738e-07
9.16444e-08
1.33679e-07
3.18187e-07
4.23019e-07
5.30444e-06
5.04283e-06
7.91006e-07
7.4506e-07
2.43509e-07
8.54045e-08
7.25897e-08
1.23559e-07
1.31935e-07
1.401e-07
1.32696e-07
1.69526e-07
1.7925e-07
1.24536e-07
9.70696e-07
5.80083e-06
0.000654528
0.000716242
0.000410629
4.77494e-07
8.74925e-08
1.97079e-07
3.04121e-07
2.52694e-07
1.84295e-07
1.28547e-07
1.06902e-07
2.00369e-07
4.2656e-07
5.39196e-07
5.77741e-06
5.09481e-06
9.72819e-07
1.0964e-06
4.76152e-07
1.21292e-07
9.49175e-08
1.18749e-07
1.48694e-07
1.52743e-07
1.35702e-07
1.42087e-07
1.44223e-07
1.21732e-07
1.1626e-07
4.86134e-06
0.000716284
0.000713673
9.36456e-05
7.84067e-07
1.31264e-07
9.15193e-08
2.6194e-07
3.31493e-07
2.40403e-07
1.27797e-07
9.99393e-08
2.1492e-07
5.85495e-07
8.71139e-07
5.73248e-06
4.84254e-06
1.34773e-06
1.51819e-06
8.7766e-07
2.57903e-07
9.60973e-08
1.09912e-07
1.27627e-07
1.45879e-07
1.05444e-07
1.12304e-07
1.30618e-07
1.45275e-07
7.10193e-08
1.91759e-06
0.000406268
0.000392417
7.82239e-06
2.12149e-06
1.36858e-07
1.15338e-07
1.79793e-07
3.65906e-07
3.33909e-07
1.32983e-07
1.31922e-07
3.13848e-07
8.46577e-07
1.13057e-06
5.46139e-06
0.000118888
1.75426e-06
1.85814e-06
1.34101e-06
4.89215e-07
1.12762e-07
1.2006e-07
1.35547e-07
1.15394e-07
8.45769e-08
1.02763e-07
1.64701e-07
1.54306e-07
8.91134e-08
6.64637e-07
8.19724e-06
4.63887e-06
1.84239e-06
2.10731e-06
3.60483e-07
9.02374e-08
1.32034e-07
5.84817e-07
5.80602e-07
1.47271e-07
1.74684e-07
4.13291e-07
1.05324e-06
1.49394e-06
4.80849e-06
0.000851333
0.000112326
2.03404e-05
1.80186e-06
8.9252e-07
1.99027e-07
1.2456e-07
1.63069e-07
1.25123e-07
1.03888e-07
1.19395e-07
1.76121e-07
1.40219e-07
1.14752e-07
1.33266e-06
5.37212e-06
1.77601e-06
5.78987e-07
9.93441e-07
6.44039e-07
9.85589e-08
2.04074e-07
1.33162e-06
5.55941e-07
1.99772e-07
2.10267e-07
5.35106e-07
1.44333e-06
1.82064e-06
4.59705e-05
0.00271333
0.00084059
0.000257649
5.01255e-05
1.45847e-06
4.24403e-07
1.24628e-07
1.93108e-07
1.44512e-07
1.35436e-07
1.53393e-07
1.97089e-07
1.62805e-07
1.65311e-07
1.7093e-06
5.52635e-06
1.54457e-06
4.78473e-07
6.36649e-07
7.90203e-07
1.85826e-07
4.10238e-07
1.87265e-06
3.88076e-07
2.43634e-07
3.2095e-07
8.57826e-07
1.87535e-06
4.14924e-05
0.000411259
0.00587416
0.00289131
0.00124096
0.000435729
5.12609e-05
1.11157e-06
1.84868e-07
1.9062e-07
1.66782e-07
1.5135e-07
1.81077e-07
1.99623e-07
1.77051e-07
2.76116e-07
2.90376e-06
4.3751e-06
7.66018e-07
3.36241e-07
5.1068e-07
8.93041e-07
4.3502e-07
8.52164e-07
2.24677e-06
3.84354e-07
2.9332e-07
4.86006e-07
1.37751e-06
6.26912e-05
0.000486801
0.00153148
0.00975219
0.00668292
0.00383737
0.00185009
0.000706834
2.84715e-06
3.50437e-07
2.41593e-07
2.03763e-07
1.98781e-07
2.10003e-07
2.04516e-07
2.22341e-07
5.42177e-07
3.52443e-06
2.62757e-06
3.57585e-07
2.45101e-07
3.61847e-07
8.34855e-07
1.3141e-06
1.99774e-06
2.03586e-06
4.63563e-07
4.09757e-07
9.40762e-07
3.28545e-05
0.000765363
0.00200461
0.00395389
0.0119052
0.0106968
0.0081696
0.00507598
0.0024855
0.000216315
9.25805e-07
4.65922e-07
3.93624e-07
3.90379e-07
4.05867e-07
3.63018e-07
4.24665e-07
1.27717e-06
3.94878e-06
1.16495e-06
2.34915e-07
1.99008e-07
2.35806e-07
4.82577e-07
1.38304e-06
3.00617e-06
1.4995e-06
5.64677e-07
5.8152e-07
2.74711e-06
0.0010015
0.00303107
0.00553798
0.00796032
0.0119226
0.0119153
0.0118405
0.00951247
0.00539799
0.000870685
2.50035e-06
1.43462e-06
1.0935e-06
1.02546e-06
1.13281e-06
9.58761e-07
9.26372e-07
3.18071e-06
3.09846e-06
4.58016e-07
2.25035e-07
2.15741e-07
1.91209e-07
2.35226e-07
5.86023e-07
7.50588e-06
1.4542e-06
7.07528e-07
9.3482e-07
0.000779323
0.00409114
0.00750856
0.0103183
0.0113639
0.0119625
0.0118865
0.0119213
0.011814
0.00836326
0.00121832
5.83885e-06
2.94365e-06
3.31369e-06
7.40569e-05
0.000196496
7.32878e-05
2.40978e-06
4.50214e-06
2.31577e-06
5.17729e-07
2.68878e-07
2.69841e-07
2.91258e-07
2.94525e-07
1.20689e-06
0.000185417
2.72169e-06
7.15908e-07
0.000418312
0.00415147
0.00869885
0.0113179
0.0113817
0.0113879
0.0119102
0.00575695
0.011792
0.0118758
0.0109658
0.00258505
0.000474775
0.00099646
0.00325273
0.0057293
0.00593473
0.0038403
0.00204177
0.000308898
2.82403e-06
7.95213e-07
3.45496e-07
3.08697e-07
3.81011e-07
4.10915e-07
4.02392e-06
0.000327335
3.94676e-06
0.000186064
0.00295695
0.00839563
0.0113054
0.0113806
0.0113659
0.0114136
0.00665466
2.58701e-05
0.00825556
0.0118686
0.0118088
0.00742764
0.00438812
0.00744104
0.0110899
0.0116202
0.00666254
0.00363228
0.00357112
0.00229512
4.82838e-06
1.03229e-06
4.86054e-07
3.55636e-07
3.39469e-07
4.87148e-07
1.00743e-05
0.000738993
3.77356e-05
0.000473915
0.00476643
0.0104948
0.0112674
0.0100995
0.00719775
0.011341
1.85806e-05
5.44753e-06
2.29083e-05
0.00923276
0.0121885
0.0117812
0.0117605
0.0117852
0.0120555
0.0116615
0.0033245
0.00204147
0.002995
0.00378884
0.00120041
1.01805e-06
5.32892e-07
4.58418e-07
3.37334e-07
1.16296e-06
1.17164e-05
0.0027256
0.000865595
0.00165576
0.00593689
0.0098372
0.00491129
0.00140258
2.35373e-05
0.0016929
5.3698e-06
1.77308e-07
6.34192e-06
0.000196423
0.0116656
0.0121643
0.0118184
0.0127813
0.0116546
0.00330132
0.00100671
0.00103199
0.0023665
0.00378762
0.00379449
0.00101762
2.02754e-05
9.75178e-07
1.56493e-06
4.03952e-06
1.03429e-05
0.00564999
0.00563639
0.00526098
0.00586729
0.00366421
4.40489e-05
1.27386e-05
3.0058e-06
1.01351e-05
2.16975e-06
1.76488e-07
2.02469e-06
2.39983e-05
0.00916638
0.0117998
0.0130087
0.0115888
0.000705818
2.58209e-05
0.00066628
0.00111093
0.00274575
0.00385361
0.00412919
0.00335182
0.0017619
0.000848716
0.000532188
1.64158e-05
2.33986e-05
0.00557495
0.00582088
0.00565169
0.00344896
2.8786e-05
6.65637e-06
4.40869e-07
1.26144e-07
1.80785e-06
3.03913e-06
2.85274e-07
1.38047e-06
9.01056e-06
0.000121395
0.0121721
0.0114156
0.000248412
6.23365e-06
6.53149e-06
4.37988e-05
0.00223817
0.0026703
0.00386923
0.00415117
0.00413106
0.00378187
0.00222467
0.00151061
0.00153158
2.50245e-05
5.08777e-05
0.00550961
0.00555368
2.21283e-05
3.94298e-06
3.42495e-08
5.98253e-08
1.57909e-07
1.40374e-06
4.87951e-06
6.98268e-07
1.58793e-06
1.01564e-06
1.22422e-05
4.40174e-05
3.37285e-05
8.65502e-06
2.58573e-07
7.55032e-07
6.39087e-06
3.26593e-05
0.00012889
0.00407055
0.00408858
0.00411173
0.00409095
0.00384454
0.000575495
4.54943e-05
6.89063e-06
7.70117e-06
1.85619e-05
1.34633e-05
2.94706e-06
7.67098e-08
8.45693e-08
8.50959e-08
1.72715e-07
1.29551e-06
7.84577e-06
8.95311e-07
1.05951e-06
7.56379e-07
6.34951e-07
8.79007e-06
1.09861e-05
1.40673e-06
2.03938e-07
4.68273e-08
5.80678e-07
3.56957e-06
1.05542e-05
2.41207e-05
3.46722e-05
3.86284e-05
3.65279e-05
2.94384e-05
1.67628e-05
5.30281e-06
7.07806e-07
5.83064e-07
3.46535e-06
1.53921e-06
1.44409e-07
1.12531e-07
1.02092e-07
1.13552e-07
1.94637e-07
1.27387e-06
9.42915e-06
6.35115e-07
7.0995e-07
5.76742e-07
5.22919e-07
4.04616e-07
1.69935e-07
1.47449e-06
3.10207e-07
4.92147e-08
2.77621e-08
2.8643e-07
1.24767e-06
2.6165e-06
4.31519e-06
5.15105e-06
5.03207e-06
3.54799e-06
1.45925e-06
4.73209e-07
2.92348e-07
2.98874e-07
1.54517e-07
1.71556e-07
1.77272e-07
1.31281e-07
1.24964e-07
1.38602e-07
2.13906e-07
1.40943e-06
6.62737e-06
4.1084e-07
4.14479e-07
4.64418e-07
5.23443e-07
4.3862e-07
2.06221e-07
1.79676e-06
4.03149e-07
3.68307e-08
4.24974e-08
8.00786e-08
1.12993e-07
1.12599e-07
2.07134e-07
2.85941e-07
2.68269e-07
1.33259e-07
1.18772e-07
1.82263e-07
2.51404e-07
2.97332e-07
2.03007e-07
2.44181e-07
2.23259e-07
1.3988e-07
1.40482e-07
1.64223e-07
2.71634e-07
1.95878e-06
4.44071e-06
3.10791e-07
2.88562e-07
4.70234e-07
6.14861e-07
4.82371e-07
1.94042e-07
1.97871e-06
4.93308e-07
4.76916e-08
4.13757e-08
6.59406e-08
7.26837e-08
7.99022e-08
7.72501e-08
8.36492e-08
8.77592e-08
9.6754e-08
1.17539e-07
1.87812e-07
2.22964e-07
2.91187e-07
2.46627e-07
3.39261e-07
3.07736e-07
1.90707e-07
2.02011e-07
3.16463e-07
6.02458e-07
5.03992e-06
3.38197e-06
3.68835e-07
2.67051e-07
4.36546e-07
5.99742e-07
4.5523e-07
2.16408e-07
2.17771e-06
5.96587e-07
6.52837e-08
4.0493e-08
4.73881e-08
5.84139e-08
5.93461e-08
6.33983e-08
6.69868e-08
7.60088e-08
8.24862e-08
1.12915e-07
1.72465e-07
2.12606e-07
2.82145e-07
2.95949e-07
4.51646e-07
4.75484e-07
3.21497e-07
4.22556e-07
8.18489e-07
2.04622e-06
0.00312111
3.15528e-06
5.18128e-07
3.44971e-07
3.8217e-07
5.79329e-07
4.93215e-07
2.3333e-07
2.39437e-06
7.49802e-07
1.05147e-07
3.59369e-08
4.08604e-08
4.31498e-08
4.97319e-08
4.90041e-08
5.58876e-08
6.15792e-08
7.15168e-08
1.00551e-07
1.76917e-07
1.81671e-07
2.5529e-07
3.67784e-07
5.26762e-07
6.8474e-07
5.80063e-07
9.29035e-07
2.06058e-06
0.00259744
0.0291719
4.21608e-06
6.80659e-07
4.46639e-07
4.20827e-07
6.22649e-07
6.00025e-07
2.65143e-07
2.53113e-06
8.78975e-07
1.34249e-07
3.72673e-08
3.26223e-08
3.80255e-08
3.83674e-08
4.08841e-08
4.30512e-08
5.2051e-08
6.01986e-08
9.46351e-08
1.58208e-07
1.83967e-07
1.93896e-07
4.83766e-07
6.51109e-07
8.79341e-07
9.70822e-07
1.95475e-06
0.002492
0.0266809
0.0298711
9.5995e-05
1.26283e-06
6.81703e-07
4.55262e-07
6.48419e-07
6.90253e-07
3.17429e-07
2.8031e-06
9.10401e-07
1.5781e-07
3.25855e-08
3.03421e-08
2.9915e-08
3.31331e-08
3.11247e-08
3.62078e-08
4.31513e-08
5.07997e-08
7.97442e-08
1.59225e-07
1.52127e-07
1.59941e-07
8.18992e-07
9.06626e-07
1.10125e-06
1.58544e-06
0.000774091
0.0186671
0.0315701
0.0297837
0.00699461
3.32081e-05
1.71444e-06
7.63198e-07
6.84912e-07
8.73651e-07
3.70862e-07
3.08626e-06
7.54586e-07
1.55462e-07
2.94201e-08
2.48504e-08
2.56612e-08
2.48016e-08
2.54115e-08
2.80989e-08
3.31857e-08
4.34108e-08
7.02314e-08
1.15399e-07
8.262e-08
1.39643e-07
2.23631e-06
1.57323e-06
1.47795e-06
6.20867e-06
0.00607315
0.0313547
0.0312053
0.00847508
0.00854001
0.00664409
0.000129833
1.80244e-06
1.19485e-06
1.23256e-06
5.63422e-07
3.3242e-06
3.97081e-07
1.17991e-07
2.62008e-08
2.211e-08
2.06121e-08
2.14262e-08
2.05397e-08
2.03355e-08
2.67933e-08
3.93164e-08
5.50611e-08
1.08101e-07
5.57994e-08
1.28339e-07
1.16223e-06
3.12832e-06
2.31616e-06
0.000515406
0.0136248
0.0314423
0.0326306
0.00486572
0.00852551
0.00853592
0.00652707
0.000182751
2.59934e-06
1.415e-06
1.02501e-06
3.93627e-06
2.83407e-07
2.59501e-08
2.46006e-08
1.937e-08
1.58156e-08
1.57551e-08
1.36123e-08
1.70384e-08
2.42818e-08
3.43464e-08
4.89996e-08
8.80956e-08
3.88523e-08
6.34895e-08
5.46015e-07
4.90496e-06
1.8149e-05
0.00199539
0.0222051
0.0330315
0.0311006
0.00100239
0.00266798
0.00848532
0.00852325
0.00496351
0.000177296
1.71237e-06
2.17435e-06
2.55974e-06
2.73398e-07
2.96467e-08
1.9517e-08
1.84586e-08
1.17614e-08
1.33819e-08
1.48004e-08
1.76519e-08
2.18405e-08
3.38387e-08
4.11177e-08
7.74158e-08
3.09731e-08
5.29023e-08
5.02566e-07
6.39056e-06
0.000173731
0.0030825
0.027009
0.0316074
0.0322496
0.000127389
0.000409141
0.00352096
0.00843791
0.00849228
0.00319863
2.81429e-06
1.86367e-05
2.86003e-06
2.55919e-07
4.47856e-08
2.19402e-08
1.85424e-08
1.69129e-08
1.52748e-08
1.66337e-08
1.75927e-08
2.35577e-08
3.20077e-08
4.133e-08
5.98942e-08
3.25614e-08
3.30408e-08
5.95334e-07
3.82557e-06
0.000390384
0.0032676
0.0285027
0.0328855
0.0144724
6.44751e-05
8.86135e-06
9.97809e-06
0.00154685
0.00831262
0.00771182
0.00164719
0.000320608
3.75137e-06
5.63736e-07
4.93581e-08
2.15683e-08
2.11533e-08
1.63989e-08
1.517e-08
1.95289e-08
2.20565e-08
2.73698e-08
3.88199e-08
5.35363e-08
8.88054e-08
5.95502e-08
5.20651e-08
3.12921e-07
3.21029e-06
0.000829
0.00300065
0.0261633
0.0310461
0.00125784
1.88029e-05
6.64959e-06
2.48752e-06
5.87275e-06
0.000253324
0.00566238
0.00453113
0.000712043
2.49414e-06
6.30205e-07
4.69323e-08
2.81631e-08
2.65438e-08
2.39342e-08
2.58783e-08
3.27736e-08
3.54599e-08
4.66045e-08
5.94388e-08
1.00068e-07
1.44903e-07
1.01341e-07
5.92458e-08
9.88366e-08
1.69099e-06
2.0175e-05
0.00233842
0.019335
0.0312565
0.000570393
1.44791e-05
7.0165e-06
1.72181e-06
1.9683e-06
3.90292e-06
0.000140371
0.00303722
1.62774e-05
1.42551e-06
1.16469e-07
6.22505e-08
4.71397e-08
4.77512e-08
3.96648e-08
4.97211e-08
5.88452e-08
6.6181e-08
9.22355e-08
1.09597e-07
1.58418e-07
2.16321e-07
1.93853e-07
1.0501e-07
1.49317e-07
1.03293e-06
5.49014e-06
0.00149502
0.0125729
0.0194871
0.00202429
1.3099e-05
0.000126559
1.88976e-06
1.87581e-06
1.27309e-06
4.27209e-06
0.000168207
3.36181e-06
6.59908e-07
1.70151e-07
1.26053e-07
1.05664e-07
9.39046e-08
8.91583e-08
1.05654e-07
1.15979e-07
1.24927e-07
1.39644e-07
1.51765e-07
1.63228e-07
2.09226e-07
2.49818e-07
2.07495e-07
3.20494e-07
6.59699e-07
1.68834e-06
2.46345e-05
0.00876872
0.0166708
0.0039095
0.000144778
0.00673725
9.76523e-06
1.87708e-06
1.86871e-06
5.05526e-07
6.42299e-06
1.21566e-06
3.13643e-07
2.09671e-07
1.87126e-07
1.65515e-07
1.43221e-07
1.33093e-07
1.35481e-07
1.28911e-07
1.30634e-07
1.18215e-07
1.21835e-07
9.58392e-08
1.09645e-07
1.92687e-07
2.53909e-07
4.70651e-07
5.49042e-07
5.67258e-07
6.42266e-06
0.00310498
0.00583654
1.80884e-05
0.00046481
0.0145602
0.00508276
3.35903e-06
1.89414e-06
1.30964e-06
2.85994e-06
9.37527e-07
2.448e-07
2.11348e-07
1.41922e-07
1.49858e-07
1.10346e-07
1.01213e-07
7.71408e-08
6.76836e-08
6.30256e-08
6.0208e-08
5.5113e-08
4.52776e-08
5.1298e-08
1.08216e-07
1.88036e-07
3.86192e-07
3.4114e-07
2.83386e-07
1.45595e-06
1.48628e-05
2.16115e-05
7.86342e-06
0.00047203
0.0146529
0.0144997
0.00224077
3.22628e-06
2.22347e-06
2.31217e-06
6.98535e-07
1.11934e-07
1.1568e-07
8.27769e-08
6.51262e-08
5.43326e-08
3.9775e-08
3.13056e-08
2.74984e-08
2.78944e-08
2.79326e-08
2.60096e-08
3.32282e-08
4.96922e-08
6.39744e-08
1.14261e-07
2.29542e-07
1.70188e-07
1.97481e-07
6.79895e-07
1.99775e-06
5.15206e-06
2.59991e-06
2.04563e-05
0.00750879
0.0148984
0.00843058
0.000141324
3.01602e-06
2.7948e-06
4.97848e-07
3.88013e-08
4.09465e-08
4.03315e-08
2.95319e-08
2.32999e-08
2.27561e-08
2.0857e-08
2.49697e-08
2.61836e-08
2.74603e-08
2.86362e-08
3.53543e-08
4.91252e-08
6.24405e-08
6.4924e-08
1.2377e-07
8.35545e-08
2.03045e-07
7.45477e-07
3.68686e-07
7.42187e-07
1.01694e-06
9.84198e-06
0.00605793
0.0146054
0.0119689
0.0010977
3.02059e-06
2.49495e-06
5.2163e-07
4.49033e-08
3.58024e-08
3.38445e-08
2.78494e-08
2.8158e-08
2.80879e-08
3.01011e-08
3.16208e-08
3.36418e-08
3.31895e-08
3.31786e-08
3.64368e-08
5.14061e-08
5.82079e-08
5.60234e-08
7.43787e-08
6.68163e-08
2.16074e-07
7.7139e-07
2.86537e-07
8.43774e-07
9.95458e-07
8.07228e-06
0.00607443
0.0149479
0.0134219
0.0025224
4.79605e-05
2.52621e-06
5.75849e-07
5.38354e-08
4.79874e-08
3.98773e-08
3.95239e-08
3.91922e-08
3.94195e-08
3.66024e-08
3.7555e-08
3.82755e-08
3.78534e-08
3.70759e-08
3.78016e-08
4.80533e-08
6.10257e-08
5.38441e-08
8.29155e-08
7.72996e-08
2.34501e-07
8.34926e-07
3.59224e-07
8.25448e-07
9.82459e-07
7.35274e-06
0.00611064
0.0146127
0.0141844
0.00409188
0.000132817
2.62368e-06
8.0248e-07
6.6748e-08
5.63005e-08
4.86189e-08
4.54608e-08
4.97117e-08
4.38885e-08
4.51512e-08
4.29561e-08
4.43054e-08
4.23795e-08
4.03584e-08
3.90498e-08
4.77987e-08
5.74686e-08
5.8222e-08
1.00939e-07
9.33338e-08
3.18294e-07
8.8241e-07
4.02395e-07
8.66925e-07
9.3483e-07
6.50548e-06
0.00619187
0.0144771
0.0153406
0.00669533
0.000279543
2.90706e-06
9.68683e-07
8.29726e-08
6.79988e-08
5.40554e-08
5.29955e-08
5.34048e-08
5.07235e-08
4.94284e-08
4.89959e-08
4.87994e-08
4.66215e-08
4.40612e-08
4.07163e-08
4.51794e-08
6.17099e-08
5.90822e-08
1.05593e-07
9.65197e-08
5.82134e-07
9.92535e-07
4.52788e-07
9.06052e-07
9.83242e-07
5.97219e-06
0.00994823
0.015485
0.015922
0.0132899
0.00110087
4.16672e-06
9.51366e-07
8.94187e-08
7.54205e-08
6.19223e-08
5.45672e-08
5.96926e-08
5.36452e-08
5.51383e-08
5.26535e-08
5.41628e-08
5.18441e-08
4.90389e-08
4.46604e-08
4.82086e-08
6.20621e-08
7.0346e-08
9.95664e-08
1.04291e-07
1.19179e-06
9.64557e-07
6.4258e-07
9.87509e-07
1.02003e-06
5.98374e-06
0.00137212
0.0157466
0.0155676
0.0160426
0.00441422
6.57529e-06
8.92131e-07
7.87385e-08
8.36155e-08
6.4946e-08
6.01965e-08
6.05869e-08
6.03278e-08
5.7986e-08
5.88018e-08
5.93259e-08
5.69256e-08
5.61396e-08
4.94617e-08
5.03456e-08
6.69519e-08
7.64438e-08
9.48315e-08
1.64722e-07
2.08815e-06
7.31585e-07
8.12317e-07
1.04305e-06
1.12467e-06
6.66398e-06
2.09891e-05
0.00423519
0.0159485
0.0154078
0.00925446
9.42334e-06
6.27193e-07
7.38125e-08
8.00655e-08
7.61425e-08
5.91863e-08
5.89617e-08
5.74543e-08
5.56192e-08
5.1227e-08
5.61947e-08
5.70256e-08
5.62959e-08
5.22373e-08
5.50943e-08
6.58878e-08
8.7478e-08
8.28921e-08
2.49616e-07
3.24317e-06
6.22703e-07
1.08181e-06
1.52437e-06
2.27414e-06
0.000351725
1.37638e-05
0.000215133
0.000773752
0.00446204
0.000341958
4.0906e-06
5.73328e-07
9.19375e-08
6.12226e-08
7.35184e-08
4.82212e-08
4.03699e-08
4.18387e-08
3.46991e-08
3.20469e-08
3.95006e-08
5.24301e-08
4.6263e-08
3.62374e-08
5.17517e-08
7.22965e-08
8.67782e-08
8.59133e-08
3.62627e-07
4.59024e-06
9.10472e-07
1.54678e-06
2.4837e-06
0.000139068
0.00341934
1.08323e-05
3.21941e-05
0.00020599
0.000236264
5.2515e-06
1.04679e-06
9.06265e-07
1.98694e-07
2.31053e-08
4.69034e-08
2.10832e-08
2.42048e-08
2.07569e-08
1.88789e-08
2.74436e-08
9.6585e-08
2.62428e-07
3.30605e-07
1.50572e-07
3.80536e-08
6.54403e-08
8.44174e-08
8.49176e-08
4.8614e-07
5.38765e-06
1.35149e-06
2.14939e-06
3.37391e-05
0.00245264
0.00573188
7.88675e-06
3.71975e-06
0.000139642
1.67324e-05
1.02528e-06
5.81911e-07
9.10429e-07
4.51796e-07
5.32376e-08
1.87925e-08
3.46536e-08
8.04546e-08
1.07187e-07
2.01965e-07
2.84456e-07
4.10406e-07
5.72859e-07
6.58227e-07
2.92035e-07
4.74528e-08
5.04049e-08
5.17814e-08
1.13176e-07
5.9545e-07
5.52258e-06
1.62053e-06
2.68746e-06
0.000928242
0.00503063
0.00574789
5.848e-06
2.78574e-06
0.000111179
5.98683e-06
7.47373e-07
2.83347e-07
5.35826e-07
5.21182e-07
1.76098e-07
4.83579e-08
1.96443e-07
2.71759e-07
3.18052e-07
3.90842e-07
4.23259e-07
4.60529e-07
4.43941e-07
4.4461e-07
2.68187e-07
1.43304e-07
5.12851e-08
4.17253e-08
1.55972e-07
6.28612e-07
4.52593e-06
1.78479e-06
0.000135273
0.00247062
0.00551366
0.00550372
5.10048e-06
1.58121e-06
4.61413e-06
4.13684e-06
8.15006e-07
2.08054e-07
2.67274e-07
3.08959e-07
2.6606e-07
2.03515e-07
3.1065e-07
2.96183e-07
3.32038e-07
2.93957e-07
2.83397e-07
2.41259e-07
1.96157e-07
1.93045e-07
2.45545e-07
2.46338e-07
1.46276e-07
7.25927e-08
1.98517e-07
5.22563e-07
3.4954e-06
7.31156e-05
0.000606028
0.00382647
0.00548809
0.00338257
4.6333e-06
1.03004e-06
2.82363e-06
3.63071e-06
1.28822e-06
2.73025e-07
1.54366e-07
1.5043e-07
1.68816e-07
2.78135e-07
2.15374e-07
1.55453e-07
1.41785e-07
1.03005e-07
7.1845e-08
4.29473e-08
3.38153e-08
8.47348e-08
1.4418e-07
2.31358e-07
2.48294e-07
1.51557e-07
1.88746e-07
3.6517e-07
2.8423e-06
0.00040238
0.00183583
0.00515987
0.0055599
0.00337062
4.09849e-06
8.26555e-07
2.12043e-06
3.42317e-06
2.03428e-06
4.61647e-07
1.35027e-07
9.17922e-08
7.62523e-08
1.25198e-07
9.64327e-08
4.26733e-08
3.15121e-08
2.37044e-08
2.07286e-08
1.99544e-08
2.68729e-08
4.13097e-08
7.00492e-08
1.13351e-07
1.81715e-07
1.39746e-07
1.25573e-07
1.3753e-07
2.18577e-06
0.00109289
0.00412209
0.00553885
0.00548785
0.00336416
3.52409e-06
6.81221e-07
1.81397e-06
3.29394e-06
2.83937e-06
8.62926e-07
1.7657e-07
7.2225e-08
5.84548e-08
5.2482e-08
3.42741e-08
3.0171e-08
2.51768e-08
2.94246e-08
3.07318e-08
3.48791e-08
3.65788e-08
3.98147e-08
4.26827e-08
5.12297e-08
6.13111e-08
8.51509e-08
9.3922e-08
1.1553e-07
4.14374e-07
1.04227e-05
0.002558
0.00263063
0.00373714
0.000150537
2.93296e-06
6.16497e-07
1.57729e-06
2.97922e-06
3.26073e-06
1.60578e-06
3.30772e-07
6.92107e-08
6.09319e-08
5.03057e-08
3.20066e-08
3.58004e-08
3.95473e-08
3.86499e-08
4.13425e-08
4.00572e-08
3.92052e-08
3.80271e-08
4.02594e-08
4.03875e-08
3.76659e-08
8.21744e-08
8.74326e-08
1.17802e-07
3.22425e-07
2.04942e-06
6.41736e-06
5.37793e-06
5.24441e-06
1.07739e-05
2.34418e-06
6.6209e-07
1.45659e-06
2.5342e-06
2.96213e-06
2.42715e-06
8.05031e-07
1.09539e-07
5.81883e-08
6.81019e-08
3.78944e-08
3.97445e-08
4.60277e-08
4.37043e-08
4.39353e-08
4.37022e-08
4.24412e-08
4.32271e-08
4.42534e-08
4.46958e-08
4.87091e-08
9.82262e-08
7.34137e-08
1.56845e-07
5.53473e-07
1.5835e-06
1.64248e-06
1.44677e-06
1.0817e-06
6.24277e-06
2.02731e-06
7.79951e-07
1.42946e-06
2.15979e-06
6.74224e-06
4.66814e-06
1.65718e-06
3.0726e-07
5.38466e-08
8.07092e-08
5.26469e-08
4.39293e-08
5.40557e-08
4.82132e-08
5.01514e-08
4.79354e-08
4.95249e-08
4.93339e-08
5.35004e-08
4.90411e-08
6.56393e-08
9.62415e-08
6.26914e-08
2.74025e-07
1.00217e-06
2.03183e-06
1.89507e-06
1.57169e-06
1.25584e-06
5.00043e-06
2.08996e-06
9.63416e-07
1.46619e-06
4.32162e-06
1.77933e-05
1.57683e-05
2.43031e-06
7.1456e-07
5.28264e-08
8.57134e-08
6.27467e-08
5.8111e-08
5.94127e-08
5.69822e-08
5.47755e-08
5.50943e-08
5.455e-08
5.74167e-08
6.04095e-08
5.66044e-08
7.68189e-08
9.22252e-08
7.53295e-08
6.01789e-07
1.67682e-06
2.2903e-06
1.98948e-06
1.52048e-06
1.19974e-06
3.66929e-06
1.97418e-06
1.22618e-06
1.93246e-05
4.32532e-05
4.45929e-05
3.1028e-05
2.95947e-06
1.22347e-06
8.45577e-08
8.26025e-08
7.52815e-08
6.90769e-08
6.98518e-08
6.43374e-08
6.24699e-08
6.00356e-08
6.14742e-08
6.21583e-08
6.89542e-08
6.38576e-08
9.20941e-08
8.22587e-08
1.60385e-07
1.34135e-06
2.35728e-06
3.80053e-06
2.5721e-06
1.77855e-06
1.32456e-06
2.93699e-06
0.000252663
0.000305375
0.000403234
0.000327019