/*--------------------------------*- C++ -*----------------------------------*\
| =========                 |                                                 |
| \\      /  F ield         | OpenFOAM: The Open Source CFD Toolbox           |
|  \\    /   O peration     | Version:  2.3.0                                 |
|   \\  /    A nd           | Web:      www.OpenFOAM.org                      |
|    \\/     M anipulation  |                                                 |
\*---------------------------------------------------------------------------*/
FoamFile
{
    version     2.0;
    format      ascii;
    class       volScalarField;
    location    "0.31";
    object      epsilon;
}
// * * * * * * * * * * * * * * * * * * * * * * * * * * * * * * * * * * * * * //

dimensions      [0 2 -3 0 0 0 0];

internalField   nonuniform List<scalar> 
545
(
4.24142e+08
4.03895e+08
3.71583e+08
3.43709e+08
3.24631e+08
4.32354e+08
4.04826e+08
3.70594e+08
3.42007e+08
3.21445e+08
4.46472e+08
4.05584e+08
3.68223e+08
3.38476e+08
3.15744e+08
4.67822e+08
4.04968e+08
3.64417e+08
3.33422e+08
3.07029e+08
4.99469e+08
4.01489e+08
3.60037e+08
3.28006e+08
2.9475e+08
3.14879e+08
3.09552e+08
3.07855e+08
3.07319e+08
3.07148e+08
3.07092e+08
3.07071e+08
3.07061e+08
3.07055e+08
3.07049e+08
3.07045e+08
3.0704e+08
3.07036e+08
3.07032e+08
3.07028e+08
3.07024e+08
3.0702e+08
3.07017e+08
3.07013e+08
3.0701e+08
3.07007e+08
3.07004e+08
3.07001e+08
3.06998e+08
3.06995e+08
3.06993e+08
3.0699e+08
3.06988e+08
3.06986e+08
3.06984e+08
3.06982e+08
3.0698e+08
3.06978e+08
3.06977e+08
3.06975e+08
3.06974e+08
3.06973e+08
3.06972e+08
3.06971e+08
3.0697e+08
3.0697e+08
3.06969e+08
3.06969e+08
3.06969e+08
3.06969e+08
3.1244e+08
3.08805e+08
3.07619e+08
3.07245e+08
3.07125e+08
3.07084e+08
3.07068e+08
3.0706e+08
3.07054e+08
3.07049e+08
3.07045e+08
3.0704e+08
3.07036e+08
3.07032e+08
3.07028e+08
3.07024e+08
3.0702e+08
3.07017e+08
3.07013e+08
3.0701e+08
3.07007e+08
3.07004e+08
3.07001e+08
3.06998e+08
3.06995e+08
3.06993e+08
3.0699e+08
3.06988e+08
3.06986e+08
3.06984e+08
3.06982e+08
3.0698e+08
3.06978e+08
3.06977e+08
3.06975e+08
3.06974e+08
3.06973e+08
3.06972e+08
3.06971e+08
3.0697e+08
3.0697e+08
3.06969e+08
3.06969e+08
3.06969e+08
3.06968e+08
3.08891e+08
3.07555e+08
3.07218e+08
3.07119e+08
3.07086e+08
3.07072e+08
3.07065e+08
3.07059e+08
3.07054e+08
3.07049e+08
3.07045e+08
3.0704e+08
3.07036e+08
3.07032e+08
3.07028e+08
3.07024e+08
3.0702e+08
3.07017e+08
3.07013e+08
3.0701e+08
3.07007e+08
3.07003e+08
3.07001e+08
3.06998e+08
3.06995e+08
3.06992e+08
3.0699e+08
3.06988e+08
3.06986e+08
3.06984e+08
3.06982e+08
3.0698e+08
3.06978e+08
3.06977e+08
3.06975e+08
3.06974e+08
3.06973e+08
3.06972e+08
3.06971e+08
3.0697e+08
3.0697e+08
3.06969e+08
3.06969e+08
3.06968e+08
3.06968e+08
3.04274e+08
3.06095e+08
3.06768e+08
3.0698e+08
3.07043e+08
3.07059e+08
3.0706e+08
3.07057e+08
3.07053e+08
3.07049e+08
3.07044e+08
3.0704e+08
3.07036e+08
3.07032e+08
3.07028e+08
3.07024e+08
3.0702e+08
3.07017e+08
3.07013e+08
3.0701e+08
3.07007e+08
3.07003e+08
3.07e+08
3.06998e+08
3.06995e+08
3.06992e+08
3.0699e+08
3.06988e+08
3.06986e+08
3.06983e+08
3.06982e+08
3.0698e+08
3.06978e+08
3.06977e+08
3.06975e+08
3.06974e+08
3.06973e+08
3.06972e+08
3.06971e+08
3.0697e+08
3.06969e+08
3.06969e+08
3.06969e+08
3.06968e+08
3.06968e+08
2.98893e+08
3.0486e+08
3.06411e+08
3.06871e+08
3.07009e+08
3.07048e+08
3.07057e+08
3.07056e+08
3.07053e+08
3.07049e+08
3.07044e+08
3.0704e+08
3.07036e+08
3.07032e+08
3.07028e+08
3.07024e+08
3.0702e+08
3.07016e+08
3.07013e+08
3.0701e+08
3.07006e+08
3.07003e+08
3.07e+08
3.06998e+08
3.06995e+08
3.06992e+08
3.0699e+08
3.06988e+08
3.06985e+08
3.06983e+08
3.06982e+08
3.0698e+08
3.06978e+08
3.06977e+08
3.06975e+08
3.06974e+08
3.06973e+08
3.06972e+08
3.06971e+08
3.0697e+08
3.06969e+08
3.06969e+08
3.06969e+08
3.06968e+08
3.06968e+08
2.99491e+08
3.04484e+08
3.06267e+08
3.06825e+08
3.06995e+08
3.07044e+08
3.07056e+08
3.07056e+08
3.07053e+08
3.07049e+08
3.07044e+08
3.0704e+08
3.07036e+08
3.07032e+08
3.07028e+08
3.07024e+08
3.0702e+08
3.07016e+08
3.07013e+08
3.0701e+08
3.07006e+08
3.07003e+08
3.07e+08
3.06998e+08
3.06995e+08
3.06992e+08
3.0699e+08
3.06988e+08
3.06985e+08
3.06983e+08
3.06982e+08
3.0698e+08
3.06978e+08
3.06977e+08
3.06975e+08
3.06974e+08
3.06973e+08
3.06972e+08
3.06971e+08
3.0697e+08
3.06969e+08
3.06969e+08
3.06969e+08
3.06968e+08
3.06968e+08
4.99469e+08
4.01489e+08
3.60037e+08
3.28006e+08
2.9475e+08
4.67822e+08
4.04968e+08
3.64417e+08
3.33422e+08
3.07029e+08
4.46472e+08
4.05584e+08
3.68223e+08
3.38476e+08
3.15744e+08
4.32354e+08
4.04826e+08
3.70594e+08
3.42007e+08
3.21445e+08
4.24142e+08
4.03895e+08
3.71583e+08
3.43709e+08
3.24631e+08
2.98893e+08
3.0486e+08
3.06411e+08
3.06871e+08
3.07009e+08
3.07048e+08
3.07057e+08
3.07056e+08
3.07053e+08
3.07049e+08
3.07044e+08
3.0704e+08
3.07036e+08
3.07032e+08
3.07028e+08
3.07024e+08
3.0702e+08
3.07016e+08
3.07013e+08
3.0701e+08
3.07006e+08
3.07003e+08
3.07e+08
3.06998e+08
3.06995e+08
3.06992e+08
3.0699e+08
3.06988e+08
3.06985e+08
3.06983e+08
3.06982e+08
3.0698e+08
3.06978e+08
3.06977e+08
3.06975e+08
3.06974e+08
3.06973e+08
3.06972e+08
3.06971e+08
3.0697e+08
3.06969e+08
3.06969e+08
3.06969e+08
3.06968e+08
3.06968e+08
3.04274e+08
3.06095e+08
3.06768e+08
3.0698e+08
3.07043e+08
3.07059e+08
3.0706e+08
3.07057e+08
3.07053e+08
3.07049e+08
3.07044e+08
3.0704e+08
3.07036e+08
3.07032e+08
3.07028e+08
3.07024e+08
3.0702e+08
3.07017e+08
3.07013e+08
3.0701e+08
3.07007e+08
3.07003e+08
3.07e+08
3.06998e+08
3.06995e+08
3.06992e+08
3.0699e+08
3.06988e+08
3.06986e+08
3.06983e+08
3.06982e+08
3.0698e+08
3.06978e+08
3.06977e+08
3.06975e+08
3.06974e+08
3.06973e+08
3.06972e+08
3.06971e+08
3.0697e+08
3.06969e+08
3.06969e+08
3.06969e+08
3.06968e+08
3.06968e+08
3.08891e+08
3.07555e+08
3.07218e+08
3.07119e+08
3.07086e+08
3.07072e+08
3.07065e+08
3.07059e+08
3.07054e+08
3.07049e+08
3.07045e+08
3.0704e+08
3.07036e+08
3.07032e+08
3.07028e+08
3.07024e+08
3.0702e+08
3.07017e+08
3.07013e+08
3.0701e+08
3.07007e+08
3.07003e+08
3.07001e+08
3.06998e+08
3.06995e+08
3.06992e+08
3.0699e+08
3.06988e+08
3.06986e+08
3.06984e+08
3.06982e+08
3.0698e+08
3.06978e+08
3.06977e+08
3.06975e+08
3.06974e+08
3.06973e+08
3.06972e+08
3.06971e+08
3.0697e+08
3.0697e+08
3.06969e+08
3.06969e+08
3.06968e+08
3.06968e+08
3.1244e+08
3.08805e+08
3.07619e+08
3.07245e+08
3.07125e+08
3.07084e+08
3.07068e+08
3.0706e+08
3.07054e+08
3.07049e+08
3.07045e+08
3.0704e+08
3.07036e+08
3.07032e+08
3.07028e+08
3.07024e+08
3.0702e+08
3.07017e+08
3.07013e+08
3.0701e+08
3.07007e+08
3.07004e+08
3.07001e+08
3.06998e+08
3.06995e+08
3.06993e+08
3.0699e+08
3.06988e+08
3.06986e+08
3.06984e+08
3.06982e+08
3.0698e+08
3.06978e+08
3.06977e+08
3.06975e+08
3.06974e+08
3.06973e+08
3.06972e+08
3.06971e+08
3.0697e+08
3.0697e+08
3.06969e+08
3.06969e+08
3.06969e+08
3.06968e+08
3.14879e+08
3.09552e+08
3.07855e+08
3.07319e+08
3.07148e+08
3.07092e+08
3.07071e+08
3.07061e+08
3.07055e+08
3.07049e+08
3.07045e+08
3.0704e+08
3.07036e+08
3.07032e+08
3.07028e+08
3.07024e+08
3.0702e+08
3.07017e+08
3.07013e+08
3.0701e+08
3.07007e+08
3.07004e+08
3.07001e+08
3.06998e+08
3.06995e+08
3.06993e+08
3.0699e+08
3.06988e+08
3.06986e+08
3.06984e+08
3.06982e+08
3.0698e+08
3.06978e+08
3.06977e+08
3.06975e+08
3.06974e+08
3.06973e+08
3.06972e+08
3.06971e+08
3.0697e+08
3.0697e+08
3.06969e+08
3.06969e+08
3.06969e+08
3.06968e+08
)
;

boundaryField
{
    AirInlet
    {
        type            fixedValue;
        value           uniform 0.1;
    }
    WaterInlet
    {
        type            fixedValue;
        value           uniform 0.1;
    }
    ChannelWall
    {
        type            fixedValue;
        value           uniform 0.1;
    }
    Outlet
    {
        type            inletOutlet;
        inletValue      uniform 0.1;
        value           nonuniform List<scalar> 
11
(
3.06969e+08
3.06968e+08
3.06968e+08
3.06968e+08
3.06968e+08
3.06968e+08
3.06968e+08
3.06968e+08
3.06968e+08
3.06968e+08
3.06968e+08
)
;
    }
    FrontAndBack
    {
        type            empty;
    }
}


// ************************************************************************* //
