/*--------------------------------*- C++ -*----------------------------------*\
| =========                 |                                                 |
| \\      /  F ield         | OpenFOAM: The Open Source CFD Toolbox           |
|  \\    /   O peration     | Version:  2.3.0                                 |
|   \\  /    A nd           | Web:      www.OpenFOAM.org                      |
|    \\/     M anipulation  |                                                 |
\*---------------------------------------------------------------------------*/
FoamFile
{
    version     2.0;
    format      ascii;
    class       volScalarField;
    location    "0.31";
    object      p_rgh;
}
// * * * * * * * * * * * * * * * * * * * * * * * * * * * * * * * * * * * * * //

dimensions      [1 -1 -2 0 0 0 0];

internalField   nonuniform List<scalar> 
545
(
-7.51385e+07
-1.3747e+07
-1.7392e+06
-2.31452e+06
-7.94139e+06
5.42778e+07
-2.6969e+06
-2.07608e+06
-2.21951e+06
-6.43509e+06
9.42882e+07
3.50892e+06
-219448
-269698
-6.75957e+06
5.47519e+07
-2.86751e+06
-1.63579e+06
-13584.9
-6.02945e+06
-8.64784e+07
-2.08046e+06
-306427
4.08622e+06
1.11025e+07
-6.51471e+06
-1.61973e+06
-617517
12995
109189
125731
113594
102264
95028.6
90754.1
88431.5
86381.3
84980
83070.4
81449.3
79118.9
77291.6
74761.1
72626.1
69728.8
67283.7
63988.4
61369.3
58071.5
55485.6
52276.5
49784.7
46692.7
44373.6
41485.3
39280.4
36463.4
34270.2
31256.6
28846.4
25644.4
23211
19950
17427.4
14177.8
11726.1
8645.88
6242.36
3414.43
2014.37
-5.7278e+06
-973459
-578685
-97013.7
12414.6
73720.5
90297.4
93635.5
92190.5
90186.4
88360.4
86570.4
85034.4
83254.8
81443.4
79300.3
77271.9
74953.3
72604.7
69891.3
67200.5
64157.5
61261.6
58252.1
55395.1
52467.3
49692
46866
44228.5
41678.8
39148.2
36635.1
34154
31433
28707.5
25817.8
23064.9
20119
17236.8
14330.7
11549.9
8869.22
6002.32
3361.34
856.417
-6.73741e+06
-425942
-312966
24122.1
41826.3
77662.6
90210.3
92426.4
91736
89620
88557.9
86295.7
85351.3
82991.4
81751.3
79016
77600.8
74688.9
72942.6
69553.5
67495.7
63820.1
61571.5
57952.5
55739.4
52174.5
50054.4
46518.4
44547.3
41358.4
39477.9
36297.8
34510.1
31075.3
29047.6
25424.1
23408.3
19707.5
17571
13971.2
11906.8
8598.93
6340.19
2917.2
1655.62
-7.13522e+06
664566
226183
240664
110969
98641.4
97383.2
93612
92112.4
88998.5
88996.4
85747.9
85844.5
82500.2
82236.3
78495.6
78097.8
74216.6
73456.9
68987.4
67941.2
63283.7
62037.3
57484.1
56247.6
51714.8
50590.9
45987.7
44989.2
40904.9
39908.6
35813.7
34973.5
30580.5
29504.3
24840.4
23873.9
19112.8
18011.7
13532.5
12353.6
8267.41
6756.19
2150.78
1087.81
-1.59558e+06
3.16284e+06
1.14971e+06
434254
156679
110959
99554.4
92027.3
91952
88040.6
89763.8
84911.8
86644.1
81692.6
83065.8
77587.6
78949.5
73403.5
74339.3
68001.3
68814.3
62312.9
62896.5
56636
57152.9
50892.1
51553.2
45045.5
45812.8
40106.9
40654.1
34954.2
35821.5
29686.1
30404.8
23786.8
24824.5
18039.3
18850.8
12697.9
13138.6
7699.8
7505.05
1426.14
2378.52
-1.27718e+07
4.49136e+06
1.85205e+06
562876
172630
114158
99003.4
96045.5
94632.9
92892.7
91673.6
87529.9
85198.2
85741.2
84384.8
83325.6
80246.2
77674.9
72660.1
70331.3
70736.7
68945.2
64106
61460.6
58537.9
55235.2
49801
47069.5
45816.7
45878.8
44152
40068.9
37412.8
34909.7
31344.8
26032.1
22768.3
20003.9
17288.5
19079
17514.3
13295
12691.2
8689.29
3003.31
-8.6487e+07
-2.08855e+06
-313713
4.07998e+06
1.10976e+07
5.47433e+07
-2.87567e+06
-1.64313e+06
-19880.2
-6.03448e+06
9.42794e+07
3.50067e+06
-226871
-276046
-6.76464e+06
5.4269e+07
-2.70519e+06
-2.08355e+06
-2.22585e+06
-6.44014e+06
-7.51473e+07
-1.37553e+07
-1.74666e+06
-2.32084e+06
-7.94643e+06
-1.59935e+06
3.16489e+06
1.14665e+06
436582
153425
113807
96503
94804.4
89135.7
91102.3
86985.8
88184.5
83450.8
84793
79975.1
80694.3
75802.4
76529.6
70864.6
71331.1
65616.5
65448.8
59612.2
59877.1
53893.2
54222.7
47990.4
48674.4
42422.1
43382.7
37370.6
38278.6
32406.4
32907.4
26854.1
27293.7
20979.9
21698.3
15225.8
16065.3
10053
11176.9
4579.85
6157.31
298.879
-7.13901e+06
664902
223798
241364
108738
99884.9
95452.2
95029.1
90652.9
90912.7
87685.7
87703.8
84157.5
84202.1
80529.8
80196.1
76340.5
75878.7
71458.7
70718.2
66110.4
64944.1
60173.5
59257.9
54460.9
53559.9
48653.2
48003.8
43173.6
42733.2
38100.6
37616.1
32963
32161.6
27327.8
26550.3
21606.3
21025.9
16083.5
15562.9
10918.8
10537.9
5605.49
5349.76
101.508
-6.74086e+06
-427240
-314701
23400.4
40450.3
77498.8
89234
92700.4
91441.2
90513.8
88498.5
87114.1
84931.8
83511.4
81221.6
79503.3
77033.3
75098.2
72197.7
69931.2
66813
64202.2
60936.9
58463.4
55219.8
52750.1
49493.9
47184.6
44061
41948
38949
36774.2
33713.5
31238.2
28049
25622.5
22472.3
20188
17076.7
14870.3
11905.1
9822.37
6622.2
4797.03
1977.2
-5.73139e+06
-975517
-580394
-98321.2
11161.2
72937.2
89598.5
93519.1
92293.1
90749.4
88751.8
87026.1
85073.5
83368.4
81303
79361.6
77099.9
74927.1
72276.8
69768.5
66872.7
64076.1
61035.1
58328.8
55307.9
52619.4
49616.9
47068.5
44208.9
41858.7
39057.8
36642.3
33736.9
31063.5
28053.8
25461.3
22584.8
20106.4
17261.6
14873.7
12104.1
9790.86
6882.8
4569.88
1320.68
-6.51837e+06
-1.62221e+06
-619284
11437
107898
124696
112952
102058
95225.9
91219.8
88941.5
86749.2
85150.4
83085.7
81400.6
79062.7
77212
74613.7
72404.7
69462.6
67022.5
63775.2
61238.4
58034.5
55507.5
52319.9
49846.4
46775.7
44472.7
41569.1
39298.4
36340.7
33929.8
30731.9
28262.4
25132.4
22859.9
19821.8
17580.3
14648.4
12417.5
9537.78
7229.34
4490.3
2648.34
)
;

boundaryField
{
    AirInlet
    {
        type            fixedFluxPressure;
        gradient        uniform 3.61986e+08;
        value           uniform -1.27681e+07;
    }
    WaterInlet
    {
        type            fixedFluxPressure;
        gradient        nonuniform List<scalar> 10(0 -0.0361522 0 0 0 0 0 0 0 -0.0369075);
        value           nonuniform List<scalar> 10(-7.51385e+07 5.42778e+07 9.42882e+07 5.47519e+07 -8.64784e+07 -8.6487e+07 5.47433e+07 9.42794e+07 5.4269e+07 -7.51473e+07);
    }
    ChannelWall
    {
        type            fixedFluxPressure;
        gradient        uniform 0;
        value           nonuniform List<scalar> 
110
(
-8.64784e+07
-2.08046e+06
-306427
4.08622e+06
1.11025e+07
-8.6487e+07
-2.08855e+06
-313713
4.07998e+06
1.10976e+07
-7.51473e+07
-1.37553e+07
-1.74666e+06
-2.32084e+06
-7.94643e+06
-6.51837e+06
-1.62221e+06
-619284
11437
107898
124696
112952
102058
95225.9
91219.8
88941.5
86749.2
85150.4
83085.7
81400.6
79062.7
77212
74613.7
72404.7
69462.6
67022.5
63775.2
61238.4
58034.5
55507.5
52319.9
49846.4
46775.7
44472.7
41569.1
39298.4
36340.7
33929.8
30731.9
28262.4
25132.4
22859.9
19821.8
17580.3
14648.4
12417.5
9537.78
7229.34
4490.3
2648.34
-7.51385e+07
-1.3747e+07
-1.7392e+06
-2.31452e+06
-7.94139e+06
-6.51471e+06
-1.61973e+06
-617517
12995
109189
125731
113594
102264
95028.6
90754.1
88431.5
86381.3
84980
83070.4
81449.3
79118.9
77291.6
74761.1
72626.1
69728.8
67283.7
63988.4
61369.3
58071.5
55485.6
52276.5
49784.7
46692.7
44373.6
41485.3
39280.4
36463.4
34270.2
31256.6
28846.4
25644.4
23211
19950
17427.4
14177.8
11726.1
8645.88
6242.36
3414.43
2014.37
)
;
    }
    Outlet
    {
        type            totalPressure;
        rho             rho;
        psi             none;
        gamma           1;
        p0              uniform 0;
        value           uniform 0;
    }
    FrontAndBack
    {
        type            empty;
    }
}


// ************************************************************************* //
