/*--------------------------------*- C++ -*----------------------------------*\
| =========                 |                                                 |
| \\      /  F ield         | OpenFOAM: The Open Source CFD Toolbox           |
|  \\    /   O peration     | Version:  2.3.0                                 |
|   \\  /    A nd           | Web:      www.OpenFOAM.org                      |
|    \\/     M anipulation  |                                                 |
\*---------------------------------------------------------------------------*/
FoamFile
{
    version     2.0;
    format      ascii;
    class       volScalarField;
    location    "2.19946";
    object      Ct2;
}
// * * * * * * * * * * * * * * * * * * * * * * * * * * * * * * * * * * * * * //

dimensions      [0 0 0 0 0 0 0];

internalField   nonuniform List<scalar> 
18816
(
1
1
1
1
1
1
1
1
1
1
1
1
1
1
1
1
1
1
1
1
1
1
1
1
1
1
1
1
1
1
1
1
1
1
1
1
1
1
1
1
1
1
1
1
1
1
1
1
1
1
1
1
1
1
1
1
1
1
1
1
1
1
1
1
1
1
1
1
1
1
1
1
1
1
1
1
1
1
1
1
1
1
1
1
1
1
1
1
1
1
1
1
1
1
1
1
1
1
1
1
1
1
1
1
1
1
1
1
1
1
1
1
1
1
1
1
1
1
1
1
1
1
1
1
1
1
1
1
1.17445
1.37856
1.418
1.36413
1.1303
1.00001
1
1
1
1
1
1
1
1
1
1
1
1
1
1
1
1
1
1
1
1.00015
1.32685
1.52118
1.74701
2.07275
2.94075
3.17814
1.56926
1.14255
1
1
1
1
1
1
1
1
1
1
1
1
1
1
1
1
1
1
1
1.08992
1.24016
1.21645
1.14352
1.28765
1.63878
4.21965
5.63867
1.50495
1.00135
1
1
1
1
1
1
1
1
1
1
1
1
1
1
1
1
1
1
1.00217
1.00051
1.00014
1
1
1.23221
1.94576
8.31448
3.83971
1.35926
1
1
1
1
1
1
1
1
1
1
1
1
1
1
1
1
1
1
1
1
1
1
1
1.00001
1.39089
8.52378
7.91278
1.88836
1.00113
1
1
1
1
1
1
1
1
1
1
1
1
1
1
1
1
1
1
1
1
1
1
1
1.18313
8.1729
8.8939
5.27217
1.36023
1
1
1
1
1
1
1
1
1
1
1
1
1
1
1
1
1
1
1
1
1
1
1
1.00006
7.38993
8.95768
8.45937
2.01318
1
1
1
1
1
1
1
1
1
1
1
1
1
1
1
1
1
1
1
1
1
1
1
1
6.61517
8.95932
8.94115
6.30513
1.31512
1
1
1
1
1
1
1
1
1
1
1
1
1
1
1
1
1
1
1
1
1
1
1
6.1544
8.95933
8.95922
8.83692
3.20995
1.00001
1
1
1
1
1
1
1
1
1
1
1
1
1
1
1.00434
1
1
1
1
1
1
1.05858
6.41089
8.95934
8.95936
8.94634
6.22987
1.24241
1
1
1
1
1
1
1
1
1
1
1
1.27596
1.44936
1.00105
1.39435
1
1
1
1
1
1.00001
1.65142
8.5522
8.95932
8.9594
8.95719
7.50477
1.3255
1
1
1
1
1
1
1
1
1
1
1
3.72072
6.52415
2.72157
1.9177
1
1
1.0003
1.07989
1.39045
2.21403
7.37275
8.94921
8.95926
8.95946
8.95911
8.23694
1.35026
1
1
1
1
1
1
1
1
1
1
1
5.00162
8.46305
7.8417
3.91493
1.19096
1.51006
2.81626
4.89383
7.4781
8.59586
8.93733
8.95923
8.95945
8.95948
8.9594
8.63312
1.37229
1
1
1
1
1
1
1
1
1
1
1.00002
3.76885
8.61751
8.39723
8.17155
4.32626
7.52361
8.65239
8.90562
8.9524
8.95869
8.95917
8.95939
8.95947
8.95948
8.95947
8.83976
1.42573
1
1
1
1
1
1
1
1
1
1
1.71761
8.30689
8.75996
8.60466
8.60492
8.65258
8.90854
8.94764
8.95538
8.95852
8.95907
8.95928
8.95942
8.95947
8.95949
8.95948
8.92333
1.58891
1
1
1
1
1
1
1
1
1
1
8.22722
8.93272
8.86264
8.75305
8.67373
8.71533
8.91305
8.94646
8.95333
8.95869
8.95921
8.95935
8.95945
8.95948
8.95949
8.95949
8.94667
2.00239
1
1
1
1
1
1
1
1
1
1
8.71451
8.94364
8.90413
8.80295
8.70951
8.68694
8.88942
8.9447
8.95382
8.95929
8.95937
8.95943
8.95947
8.95949
8.9595
8.9595
8.9509
2.61669
1
1
1
1
1
1
1
1
1
1.00519
5.54348
8.9338
8.91273
8.7991
8.70819
8.66074
8.90208
8.95043
8.95774
8.95941
8.95948
8.95949
8.9595
8.9595
8.9595
8.9595
8.9538
2.8082
1
1
1
1
1
1
1
1
1
1.45271
8.79451
8.95643
8.95245
8.92635
8.89763
8.83301
8.84128
8.91433
8.95878
8.95939
8.95948
8.9595
8.9595
8.95951
8.95951
8.9595
8.95619
3.13119
1
1
1
1
1
1
1
1
1
4.76343
8.95899
8.95927
8.95937
8.95941
8.95936
8.94832
8.88983
8.93976
8.95947
8.95951
8.95951
8.95951
8.95951
8.95951
8.95951
8.95951
8.95764
3.85322
1
1
1
1
1
1
1
1
1
8.47221
8.95945
8.95947
8.95948
8.95949
8.95948
8.95947
8.95102
8.95869
8.95944
8.95951
8.95951
8.95951
8.95951
8.95951
8.95951
8.95951
8.95874
5.5693
1
1
1
1
1
1
1
1
1.27417
8.91559
8.95951
8.95952
8.95951
8.95952
8.95952
8.95951
8.95909
8.95934
8.95952
8.95952
8.95952
8.95952
8.95952
8.95952
8.95952
8.95952
8.9593
7.70029
1
1
1
1
1
1
1
1
1.28768
8.95737
8.95952
8.95952
8.95952
8.95952
8.95952
8.95952
8.95933
8.95945
8.95952
8.95952
8.95952
8.95952
8.95952
8.95952
8.95952
8.95952
8.95949
8.74956
1
1
1
1
1
1
1
1
1.38905
8.95939
8.95953
8.95953
8.95953
8.95953
8.95953
8.95953
8.95952
8.95952
8.95953
8.95953
8.95953
8.95953
8.95953
8.95953
8.95953
8.95953
8.95952
8.95441
1
1
1
1
1
1
1
1
1
1
1
1
1
1
1
1
1
1
1
1
1
1
1
1
1
1
1
1
1
1
1
1
1
1
1
1
1
1
1
1
1
1
1
1
1
1
1
1.00038
1.00671
1.02388
1.0373
1.0421
1.01574
1.00153
1
1
1
1
1
1
1
1
1
1
1
1
1
1
1
1
1
1
1
1
1
1.00005
1.0011
1.00708
1.01696
1.00293
1.00001
1
1
1
1
1
1
1
1
1
1
1
1
1
1
1
1
1
1
1
1
1
1
1
1
1
1
1
1
1
1
1
1
1
1
1
1
1
1
1
1
1
1
1
1
1
1
1
1
1.00874
1.33399
1.45996
1.55872
1.46383
1.34772
1.13503
1.00045
1
1
1
1
1
1
1
1
1
1
1
1
1
1
1
1
1
1
1.00208
1.32374
1.51491
1.65813
1.89858
3.15401
3.88283
2.50728
1.36034
1.00096
1
1
1
1
1
1
1
1
1
1
1
1
1
1
1
1
1
1
1.10382
1.20455
1.1641
1.08299
1.17153
1.47647
4.17617
7.40828
2.35906
1.28775
1
1
1
1
1
1
1
1
1
1
1
1
1
1
1
1
1
1
1.00149
1.00019
1.00001
1
1
1.10473
1.71232
8.43023
6.52801
1.53867
1.00026
1
1
1
1
1
1
1
1
1
1
1
1
1
1
1
1
1
1
1
1
1
1
1
1.35693
8.44294
8.69541
3.40703
1.27985
1
1
1
1
1
1
1
1
1
1
1
1
1
1
1
1
1
1
1
1
1
1
1
1.15583
7.82808
8.94421
7.27836
1.50925
1
1
1
1
1
1
1
1
1
1
1
1
1
1
1
1
1
1
1
1
1
1
1
1.00028
6.96531
8.95905
8.804
3.39969
1.04046
1
1
1
1
1
1
1
1
1
1
1
1
1
1
1
1
1
1
1
1
1
1
1
6.15443
8.95935
8.95534
7.75984
1.40017
1
1
1
1
1
1
1
1
1
1
1
1
1
1
1
1.00104
1
1
1
1
1
1
1
5.66319
8.95938
8.95941
8.94273
6.19288
1.23915
1
1
1
1
1
1
1
1
1
1
1
1
1.15694
1
1.25388
1.00011
1
1
1
1
1
1.20028
6.92902
8.95938
8.95943
8.95809
8.17924
1.43164
1
1
1
1
1
1
1
1
1
1
1
1.3896
2.12485
1.152
1.78458
1
1
1
1
1
1.01703
1.87963
8.65092
8.9594
8.95945
8.9592
8.56175
1.5108
1
1
1
1
1
1
1
1
1
1
1
5.05476
7.81986
3.80903
2.9581
1
1.06585
1.13221
1.25113
1.51688
2.70319
7.74016
8.95163
8.95943
8.95947
8.9594
8.76984
1.57813
1
1
1
1
1
1
1
1
1
1
1
6.19036
8.78187
8.20808
6.35198
1.37582
2.16054
4.84453
6.59776
8.10808
8.72877
8.94428
8.95931
8.95945
8.95948
8.95946
8.88021
1.71258
1
1
1
1
1
1
1
1
1
1
1.01681
4.9734
8.85989
8.5817
8.5319
7.03922
8.31333
8.82483
8.93346
8.95573
8.95887
8.9592
8.95939
8.95946
8.95948
8.95947
8.93496
2.03262
1
1
1
1
1
1
1
1
1
1
2.60031
8.57265
8.91567
8.73917
8.68039
8.5708
8.79614
8.92456
8.94833
8.95845
8.95903
8.95927
8.95941
8.95947
8.95949
8.95949
8.95458
2.70015
1
1
1
1
1
1
1
1
1
1
8.56469
8.95275
8.93784
8.86552
8.75476
8.57733
8.79523
8.91968
8.94535
8.95871
8.95922
8.95936
8.95944
8.95948
8.95949
8.95949
8.95873
3.81318
1
1
1
1
1
1
1
1
1
1
8.48383
8.95431
8.94337
8.89478
8.80128
8.57938
8.75577
8.92131
8.95025
8.95927
8.95938
8.95943
8.95947
8.95949
8.9595
8.9595
8.9591
4.93566
1
1
1
1
1
1
1
1
1
1.01729
5.32998
8.93505
8.92558
8.83358
8.75879
8.65546
8.86612
8.94555
8.95878
8.95941
8.95948
8.95949
8.9595
8.9595
8.9595
8.9595
8.95934
5.90485
1
1
1
1
1
1
1
1
1
1.80362
8.81263
8.95893
8.95515
8.94191
8.93125
8.88587
8.84191
8.91204
8.95894
8.95942
8.95949
8.9595
8.9595
8.95951
8.95951
8.95951
8.95945
7.10389
1
1
1
1
1
1
1
1
1
8.32095
8.95948
8.95948
8.95949
8.95949
8.95948
8.95593
8.89913
8.94012
8.9593
8.9595
8.95951
8.95951
8.95951
8.95951
8.95951
8.95951
8.95949
8.12054
1
1
1
1
1
1
1
1
1.00127
8.92418
8.95951
8.95951
8.95951
8.95951
8.95951
8.9595
8.93943
8.95372
8.95917
8.9595
8.95951
8.95951
8.95951
8.95951
8.95951
8.95951
8.95951
8.69422
1
1
1
1
1
1
1
1
1.36621
8.94667
8.95952
8.95952
8.95952
8.95952
8.95952
8.95952
8.9563
8.95862
8.95952
8.95952
8.95952
8.95952
8.95952
8.95952
8.95952
8.95952
8.95951
8.8981
1
1
1
1
1
1
1
1
1.3631
8.9575
8.95952
8.95952
8.95952
8.95952
8.95952
8.95952
8.95651
8.95825
8.95952
8.95952
8.95952
8.95952
8.95952
8.95952
8.95952
8.95952
8.95952
8.94702
1
1
1
1
1
1
1
1
2.02128
8.95952
8.95953
8.95953
8.95953
8.95953
8.95953
8.95953
8.95923
8.95945
8.95953
8.95953
8.95953
8.95953
8.95953
8.95953
8.95953
8.95953
8.95953
8.95794
1.00005
1
1
1
1
1
1
1
1
1
1
1
1
1
1
1
1
1
1
1
1
1
1
1
1
1
1
1
1
1
1
1
1
1
1
1
1
1
1
1
1
1
1.00063
1.05468
1.24754
1.35626
1.39036
1.43686
1.51426
1.60512
1.66639
1.68369
1.58693
1.4828
1.37988
1.09056
1
1
1
1
1
1
1
1
1
1.00043
1.01253
1.03256
1.05483
1.13655
1.26654
1.33619
1.36434
1.38004
1.39754
1.41652
1.42634
1.42328
1.39264
1.36292
1.34527
1.34235
1.34317
1.21118
1
1
1
1
1
1
1
1
1.00381
1.02101
1.02233
1.00652
1.00163
1.00397
1.00563
1.00159
1.0007
1.00328
1.03142
1.16043
1.27605
1.3176
1.32474
1.2957
1.2556
1.2049
1.00844
1.00872
1
1
1
1
1
1
1
1.00067
1.01353
1.01466
1.0008
1
1
1
1
1
1.00948
1.29584
1.43904
1.84869
2.36279
2.72295
2.1623
1.49702
1.32402
1.21583
1.00002
1
1
1
1
1
1
1
1
1.00001
1.00086
1.00015
1
1
1
1
1
1.08578
1.33436
1.47458
1.49591
1.56382
2.98206
5.57947
6.48234
2.21633
1.34711
1.1549
1.00089
1
1
1
1
1
1
1
1
1
1
1
1
1
1
1
1.00373
1.13488
1.1599
1.09787
1.02629
1.03813
1.35119
3.32782
8.44719
5.98821
1.66595
1.21766
1.00126
1
1
1
1
1
1
1
1
1
1
1
1
1
1
1
1.00001
1.00027
1.00002
1
1
1
1.03598
1.61638
8.55713
8.53235
3.28946
1.33526
1.00035
1
1
1
1
1
1
1
1
1
1
1
1
1
1
1
1
1
1
1
1
1
1
1.33698
8.38288
8.91688
6.55828
1.54674
1.03241
1
1
1
1
1
1
1
1
1
1
1
1
1
1
1
1
1
1
1
1
1
1
1.22073
7.74977
8.95695
8.48369
2.65281
1.24941
1.00013
1
1
1
1
1
1
1
1
1
1
1
1
1
1
1.01099
1.00445
1
1
1.00004
1
1
1.03764
7.00135
8.95922
8.92534
5.95399
1.35149
1
1
1
1
1
1
1
1
1
1
1
1
1
1
1
1.20619
1.14223
1.00048
1.00366
1.00157
1.00017
1.00001
1.00439
6.32065
8.95929
8.95877
8.57107
1.91938
1
1
1
1
1
1
1
1
1
1
1
1
1
1.15289
1
1.28038
1.09348
1.00158
1.00005
1
1.00001
1
1.00528
5.91821
8.95938
8.95941
8.95699
8.18535
1.55268
1
1
1
1
1
1
1
1
1
1
1
1.28033
1.65135
1.00049
1.45204
1.0416
1.00806
1.00075
1
1.00057
1.00297
1.33524
7.61147
8.95937
8.95943
8.95923
8.76492
2.48579
1
1
1
1
1
1
1
1
1
1
1
2.32448
4.27627
1.30807
3.25128
1.00893
1.1175
1.00001
1
1.11449
1.3093
3.01086
8.80921
8.95936
8.95946
8.95939
8.86534
2.84489
1
1
1
1
1
1
1
1
1
1
1
6.67829
8.19618
4.546
4.7734
1.00597
1.50015
1.33457
1.3562
2.20667
4.09033
8.33678
8.95623
8.9594
8.95947
8.95945
8.91988
3.26543
1
1
1
1
1
1
1
1
1
1
1
7.32019
8.80245
7.71696
7.65699
1.95886
4.47668
6.94262
7.56329
8.48296
8.81577
8.95125
8.95934
8.95945
8.95948
8.95946
8.94487
3.76507
1
1
1
1
1
1
1
1
1
1
1.17956
6.46059
8.90721
8.60136
8.63259
8.05886
8.55351
8.85589
8.9325
8.95537
8.95878
8.9592
8.95939
8.95946
8.95948
8.95948
8.956
4.61832
1.00006
1
1
1
1
1
1
1
1
1
4.54525
8.74315
8.93844
8.77582
8.7438
8.5231
8.71064
8.89865
8.94341
8.95841
8.95902
8.95928
8.95942
8.95947
8.95949
8.95949
8.95911
5.78238
1.00097
1
1
1
1
1
1
1
1
1
8.87551
8.95506
8.94997
8.88751
8.82797
8.55905
8.69929
8.90208
8.94228
8.95881
8.95926
8.95937
8.95945
8.95948
8.95949
8.95949
8.95946
7.07074
1.00461
1
1
1
1
1
1
1
1
1
8.3288
8.95621
8.95236
8.92256
8.86763
8.59692
8.67352
8.90373
8.94781
8.95925
8.95938
8.95944
8.95948
8.95949
8.9595
8.9595
8.95949
7.92088
1.01882
1
1
1
1
1
1
1
1
1.08177
5.54092
8.94073
8.93888
8.87279
8.81821
8.66781
8.83587
8.94343
8.95901
8.95942
8.95948
8.9595
8.9595
8.9595
8.9595
8.9595
8.9595
8.4787
1.02131
1
1
1
1
1
1
1
1
3.22737
8.852
8.95943
8.95837
8.95122
8.94633
8.91481
8.84695
8.91418
8.959
8.95944
8.95949
8.9595
8.9595
8.95951
8.95951
8.95951
8.9595
8.73581
1.01347
1
1
1
1
1
1
1
1
8.88834
8.95951
8.95951
8.95951
8.95951
8.9595
8.95939
8.91153
8.94019
8.95914
8.95949
8.95951
8.95951
8.95951
8.95951
8.95951
8.95951
8.95951
8.83333
1.00067
1
1
1
1
1
1
1
1.10784
8.95836
8.95951
8.95951
8.95951
8.95951
8.95951
8.95951
8.92419
8.94067
8.95898
8.9595
8.95951
8.95951
8.95951
8.95951
8.95951
8.95951
8.95951
8.881
1
1
1
1
1
1
1
1
1.6701
8.95912
8.95952
8.95952
8.95952
8.95952
8.95952
8.95952
8.9442
8.95293
8.95952
8.95952
8.95952
8.95952
8.95952
8.95952
8.95952
8.95952
8.95952
8.93264
1
1
1
1
1
1
1
1
1.70755
8.95948
8.95952
8.95952
8.95952
8.95952
8.95952
8.95952
8.95447
8.95638
8.95952
8.95952
8.95952
8.95952
8.95952
8.95952
8.95952
8.95952
8.95952
8.95746
1.00001
1
1
1
1
1
1
1
5.73637
8.95951
8.95953
8.95953
8.95953
8.95953
8.95953
8.95953
8.959
8.95928
8.95953
8.95953
8.95953
8.95953
8.95953
8.95953
8.95953
8.95953
8.95953
8.95947
1.01119
1
1
1
1
1
1
1
1
1
1
1
1
1
1
1
1
1
1
1
1
1
1
1
1
1
1
1
1
1
1
1
1
1
1
1
1
1
1.00042
1.02811
1.17503
1.32464
1.37868
1.45373
1.64003
1.98838
2.50529
3.2177
4.01086
4.66545
4.91079
4.61154
3.96398
3.26674
2.24485
1.42693
1.00605
1
1
1
1
1.0034
1.17457
1.31067
1.36021
1.40861
1.46395
1.49868
1.53028
1.58429
1.68281
1.80195
1.90714
2.00655
2.08993
2.09491
2.15437
2.32973
2.45725
2.06633
1.76096
1.51149
1.54144
1.45346
1.3435
1
1
1.00015
1.01526
1.25068
1.32431
1.35749
1.40419
1.43042
1.43571
1.41043
1.38431
1.37307
1.35645
1.3272
1.30582
1.32748
1.36252
1.43666
1.61685
1.93681
2.36318
2.39417
1.76053
1.46274
1.24004
1.33701
1.32052
1
1
1.00003
1.20559
1.30683
1.3345
1.35585
1.37241
1.34935
1.29689
1.23531
1.09703
1.0267
1.01496
1.08173
1.30819
1.43778
1.99529
2.73728
4.30179
6.07676
6.90368
4.55305
2.23684
1.45584
1.08803
1.13795
1.23194
1
1
1
1.12554
1.29872
1.31607
1.31828
1.31005
1.23319
1.10022
1.02367
1.0096
1.00939
1.04428
1.27435
1.36085
1.39174
1.34443
1.34345
2.24935
6.52333
8.58132
6.67599
2.5222
1.42439
1.21796
1.0133
1.10063
1
1
1
1.00378
1.26195
1.3326
1.34955
1.32299
1.14467
1.08473
1.06467
1.13592
1.18769
1.17803
1.17413
1.14511
1.06144
1.00501
1.00479
1.30071
3.08387
8.73164
8.58602
4.6064
1.5469
1.25188
1.01572
1.03145
1
1
1
1
1.00705
1.09737
1.20926
1.14678
1.05334
1.0425
1.06983
1.17672
1.03088
1.00137
1.00204
1.00095
1.00003
1
1
1.06733
1.72279
8.72829
8.91641
7.03162
1.95307
1.28874
1.03593
1.02379
1
1
1
1
1
1.00371
1.04484
1.00624
1.00023
1.00033
1.00058
1.01045
1
1
1
1.00006
1
1
1
1.00172
1.38385
8.38308
8.95531
8.46208
3.37318
1.35371
1.15683
1.02785
1
1
1
1
1
1.00033
1.0082
1.00014
1
1
1
1
1
1.03032
1.05285
1.15634
1
1
1
1.01132
1.30008
7.93377
8.95912
8.88328
5.76115
1.50127
1.27983
1.02755
1
1
1
1
1
1.00004
1.00192
1
1
1
1
1.21192
1
1.34934
1.26163
1.3022
1.21653
1.14463
1.27682
1.17378
1.26845
7.42396
8.95933
8.95481
8.05638
1.88722
1.19087
1.03698
1
1
1
1
1
1.00003
1.00217
1
1
1
1.0007
1.46156
1.0398
1.69602
1.31607
1.36918
1.38162
1.31983
1.37001
1.32195
1.24947
7.01705
8.95935
8.95929
8.87907
4.13326
1.26339
1.06805
1
1
1
1
1
1.00004
1.00324
1
1
1
1.34044
1.91613
1.20285
1.88572
1.29855
1.42762
1.4029
1.31517
1.4248
1.32894
1.29402
6.81187
8.95937
8.95937
8.95891
8.70061
2.78078
1.12383
1
1
1
1
1
1.0001
1.00359
1
1
1
2.00294
3.34599
1.2657
2.44853
1.25052
1.64119
1.435
1.32953
1.61753
1.57358
1.97077
8.2599
8.95937
8.95945
8.95933
8.88222
4.17913
1.2077
1
1
1
1
1
1.00045
1.00294
1
1
1
4.03023
5.17601
1.38338
4.79927
1.22094
2.40738
1.46179
1.39151
1.98457
2.73087
5.99557
8.90719
8.95936
8.95946
8.95943
8.92906
4.86145
1.27983
1
1
1
1
1
1.00172
1.00103
1
1
1
6.44067
7.80105
2.7868
6.58031
1.22135
4.58397
2.56918
2.41755
5.50829
6.61283
8.72792
8.95822
8.95937
8.95947
8.95945
8.94961
5.64829
1.31584
1
1
1
1
1
1.00305
1.00007
1
1
1.00002
7.994
8.71023
6.46427
7.8799
2.47305
6.59169
7.5682
7.82331
8.64492
8.77751
8.9465
8.95923
8.95944
8.95948
8.95947
8.95695
6.48841
1.33275
1
1
1
1
1
1.00204
1
1
1
1.3008
8.42075
8.90662
8.25294
8.61552
7.94876
8.54368
8.80988
8.89432
8.94355
8.95277
8.95896
8.95936
8.95946
8.95948
8.95949
8.95915
7.36058
1.34622
1
1
1
1
1
1.00004
1
1
1
6.94185
8.86814
8.94136
8.67022
8.76556
8.43093
8.67228
8.88153
8.93748
8.95822
8.95901
8.9593
8.95943
8.95948
8.95949
8.95949
8.95948
8.09539
1.35735
1
1
1
1
1
1
1
1
1
8.92943
8.95561
8.95349
8.88834
8.85972
8.56887
8.64456
8.89331
8.94147
8.95894
8.95931
8.9594
8.95946
8.95949
8.95949
8.95949
8.95949
8.56661
1.36851
1
1
1
1
1
1
1
1
1.00001
8.51433
8.95765
8.95598
8.93525
8.89872
8.63857
8.63724
8.88834
8.94478
8.95922
8.95937
8.95944
8.95948
8.95949
8.9595
8.9595
8.9595
8.78746
1.38541
1
1
1
1
1
1
1
1
1.23854
6.53653
8.94997
8.94863
8.90368
8.86522
8.69215
8.81411
8.93871
8.95833
8.95939
8.95947
8.9595
8.9595
8.9595
8.9595
8.9595
8.9595
8.8774
1.39289
1
1
1
1
1
1
1
1
6.1377
8.9064
8.95949
8.95942
8.9556
8.95318
8.92866
8.8607
8.91348
8.95868
8.95943
8.95949
8.9595
8.9595
8.95951
8.95951
8.95951
8.95951
8.90908
1.38602
1
1
1
1
1
1
1
1.00105
8.95109
8.95951
8.95951
8.95951
8.95951
8.95951
8.95949
8.91745
8.93447
8.9587
8.95949
8.95951
8.95951
8.95951
8.95951
8.95951
8.95951
8.95951
8.92197
1.35177
1
1
1
1
1
1
1
1.30002
8.95948
8.95951
8.95951
8.95951
8.95951
8.95951
8.95951
8.89599
8.91714
8.95841
8.95949
8.95951
8.95951
8.95951
8.95951
8.95951
8.95951
8.95951
8.93265
1.24297
1
1
1
1
1
1
1.00001
2.54793
8.95949
8.95952
8.95952
8.95952
8.95952
8.95952
8.95952
8.92526
8.942
8.95952
8.95952
8.95952
8.95952
8.95952
8.95952
8.95952
8.95952
8.95952
8.94973
1.05264
1
1
1
1
1
1
1.00017
3.21756
8.95952
8.95952
8.95952
8.95952
8.95952
8.95952
8.95952
8.94698
8.95019
8.95952
8.95952
8.95952
8.95952
8.95952
8.95952
8.95952
8.95952
8.95952
8.95898
1.04224
1
1
1
1
1
1
1.01766
8.35917
8.95953
8.95953
8.95953
8.95953
8.95953
8.95953
8.95953
8.9584
8.95825
8.95953
8.95953
8.95953
8.95953
8.95953
8.95953
8.95953
8.95953
8.95953
8.9595
1.09752
1
1
1
1
1
1
1
1
1
1
1
1
1
1
1
1
1
1
1
1
1
1
1
1
1
1
1
1
1
1
1
1
1
1.0024
1.05558
1.19471
1.3066
1.35235
1.40098
1.51444
1.76366
2.25316
3.05963
4.16196
5.39979
6.51051
7.12171
7.35147
7.53467
7.59786
7.33377
6.45894
5.3939
4.62705
2.22347
1.32547
1
1
1.12439
1.33733
1.50106
1.93774
2.33071
2.75672
3.12876
3.32513
3.36367
3.31334
3.30622
3.5256
3.71037
3.82113
3.8462
3.813
4.66076
5.82015
6.95195
7.5274
6.78555
4.86213
3.14419
1.72163
1.83563
1.5796
1
1
1.35516
1.59041
1.92061
2.04809
2.27583
2.56455
2.66121
2.39232
2.04543
1.76138
1.57723
1.4626
1.41003
1.39924
1.49219
1.79109
2.60602
4.30238
6.17192
7.38547
7.47498
4.81063
2.66037
1.31588
1.382
1.48137
1
1
1.38997
1.73631
1.8549
1.97891
2.04807
1.90579
1.52794
1.36133
1.30107
1.2845
1.27514
1.27267
1.32857
1.45721
1.85504
2.11358
2.65201
5.67725
8.098
8.78642
8.4184
5.91016
2.52753
1.27364
1.30533
1.39219
1
1
1.37942
1.59617
1.77221
1.83145
1.62627
1.37427
1.2795
1.25666
1.24405
1.241
1.25117
1.26493
1.31507
1.34713
1.29402
1.25976
1.25992
1.96201
6.30044
8.87604
8.79823
6.59026
2.49832
1.34152
1.23489
1.35544
1
1
1.35063
1.45622
1.67761
1.73299
1.48844
1.34999
1.28029
1.27533
1.26311
1.25778
1.24998
1.25203
1.19541
1.14897
1.03381
1.00095
1.00063
1.29189
3.77212
8.87876
8.93936
8.04391
3.37717
1.38895
1.23543
1.33484
1
1
1.29475
1.37456
1.46722
1.50673
1.40266
1.36164
1.3332
1.32873
1.30102
1.20874
1.15628
1.00883
1.00898
1.00148
1.00009
1
1
1.14791
2.44147
8.76213
8.95706
8.68864
4.87006
1.54658
1.27243
1.33382
1
1
1.21434
1.32871
1.37548
1.40191
1.36158
1.32938
1.32016
1.32837
1.28591
1.00443
1.00001
1
1
1
1
1
1
1.03238
1.88921
8.58789
8.95916
8.90671
6.87409
2.04517
1.3476
1.3348
1
1
1.13872
1.23845
1.34563
1.375
1.34283
1.28211
1.22155
1.2288
1
1
1
1
1
1
1
1
1
1.05281
1.65312
8.4019
8.95933
8.95392
8.25257
2.86649
1.38742
1.33328
1
1
1.14578
1.14176
1.32505
1.36215
1.33176
1.22643
1.06936
1.02587
1
1.2657
1
8.74357
1
8.78429
1
1
8.87437
1.06169
1.60549
8.23776
8.95934
8.95918
8.83204
4.50171
1.38217
1.33267
1
1
1.18521
1.0602
1.30938
1.36218
1.33337
1.22647
1.00847
1.00199
8.95953
8.86981
8.95953
8.92228
8.95953
8.95349
8.95953
8.95953
8.95946
8.95953
1.57552
8.16133
8.95937
8.95941
8.95135
7.43072
1.59052
1.33538
1.00001
1
1.22725
1.06635
1.30679
1.36583
1.33858
1.23641
1.00103
1.00006
8.65176
8.90209
8.67733
8.92647
8.79408
8.94551
8.945
8.94459
8.84171
8.8648
2.09488
8.20613
8.95937
8.95944
8.95931
8.85786
4.35021
1.34184
1.00001
1
1.24953
1.14375
1.30248
1.37314
1.34343
1.24653
1.00001
1
8.95953
8.92027
8.95953
8.93458
8.95953
8.93261
8.95953
8.95953
8.82249
8.95953
5.4426
8.73863
8.95936
8.95946
8.95942
8.92643
5.50486
1.35202
1.00002
1
1.22951
1.22059
1.29825
1.38393
1.34448
1.22778
1
1
8.87037
8.91803
8.83268
8.93179
8.87723
8.91658
8.86214
8.82984
8.88403
8.93347
8.49438
8.93746
8.95935
8.95947
8.95945
8.94957
6.31727
1.365
1.00003
1.00001
1.12924
1.2128
1.29786
1.38876
1.3413
1.15451
1
1
8.95953
8.92692
8.95953
8.93604
8.95953
8.92764
8.95953
8.95953
8.94057
8.95953
8.94334
8.95846
8.95938
8.95947
8.95946
8.9571
7.12549
1.37834
1.00004
1.00001
1.03542
1.19091
1.30468
1.38936
1.32824
1.02812
1
1
8.95953
8.929
8.95953
8.95303
8.95953
8.9072
8.95953
8.95953
8.95948
8.95953
8.9576
8.9592
8.95944
8.95948
8.95948
8.95905
7.82086
1.40171
1.00004
1.00003
1.02727
1.10667
1.32656
1.38119
1.25559
1.00006
1
1.25768
8.91564
8.93057
8.91617
8.95948
8.95948
8.95953
8.95935
8.95949
8.95953
8.95949
8.95924
8.95942
8.95947
8.95948
8.95949
8.95942
8.34647
1.42491
1.00005
1.00007
1.00949
1.01132
1.33657
1.35327
1.14341
1.0002
1.00009
6.90227
8.95953
8.95536
8.95953
8.95949
8.95953
8.80576
8.95953
8.95953
8.94745
8.95953
8.95937
8.95945
8.95948
8.95949
8.95949
8.95949
8.68125
1.42397
1.00005
1.00015
1.00005
1.00876
1.33766
1.33423
1.07969
1.00037
1.00004
8.91197
8.95953
8.80289
8.95953
8.67813
8.95953
8.60766
8.95953
8.95953
8.95143
8.95953
8.95942
8.95947
8.95949
8.95949
8.95949
8.95949
8.84049
1.43101
1.00005
1.00031
1
1.00501
1.33583
1.29602
1.02245
1.00056
1.01272
8.82385
8.95854
8.95771
8.94389
8.91591
8.65802
8.60943
8.86782
8.94063
8.9592
8.95937
8.95945
8.95948
8.9595
8.9595
8.9595
8.9595
8.91
1.46795
1.00006
1.00061
1
1.01129
1.33099
1.21042
1.00953
1.0029
1.32915
8.04841
8.95698
8.95488
8.92603
8.90091
8.72028
8.811
8.93099
8.95694
8.95936
8.95947
8.9595
8.9595
8.9595
8.9595
8.9595
8.9595
8.93495
1.54778
1.00007
1.00094
1
1.04082
1.31361
1.10328
1.00537
1.0412
7.99446
8.94627
8.9595
8.95949
8.95815
8.95719
8.93864
8.87246
8.90793
8.95803
8.95941
8.95949
8.9595
8.95951
8.95951
8.95951
8.95951
8.95951
8.94328
1.5645
1.00009
1.00132
1
1.14783
1.27505
1.03997
1.00283
1.13851
8.95862
8.95951
8.95951
8.95951
8.95951
8.95951
8.9595
8.91155
8.91853
8.958
8.95948
8.95951
8.95951
8.95951
8.95951
8.95951
8.95951
8.95951
8.94695
1.49078
1.00012
1.00112
1
1.12775
1.21287
1.0177
1.00589
1.45449
8.95951
8.95951
8.95951
8.95951
8.95951
8.95951
8.95951
8.84569
8.87488
8.95753
8.95949
8.95951
8.95951
8.95951
8.95951
8.95951
8.95951
8.95951
8.95062
1.35571
1.00016
1.00126
1
1.08561
1.13617
1.01023
1.03085
4.10675
8.95951
8.95952
8.95952
8.95952
8.95952
8.95952
8.95952
8.89008
8.92026
8.95952
8.95952
8.95952
8.95952
8.95952
8.95952
8.95952
8.95952
8.95952
8.95648
1.27658
1.00015
1.00195
1
1.05539
1.0741
1.00433
1.10356
6.30942
8.95952
8.95952
8.95952
8.95952
8.95952
8.95952
8.95952
8.93214
8.90775
8.95952
8.95952
8.95952
8.95952
8.95952
8.95952
8.95952
8.95952
8.95952
8.95924
1.22343
1.00013
1.00414
1
1.05473
1.02562
1.00264
1.27286
8.88318
8.95953
8.95953
8.95953
8.95953
8.95953
8.95953
8.95953
8.95625
8.88614
8.95953
8.95953
8.95953
8.95953
8.95953
8.95953
8.95953
8.95953
8.95953
8.95948
1.23761
1.00008
1
1
1
1
1
1
1
1
1
1
1
1
1
1
1
1
1
1
1.00003
1.00014
1.00026
1.00032
1.00009
1.00001
1
1
1
1
1
1
1.05235
1.22924
1.3179
1.37408
1.47196
1.65367
1.9516
2.45658
3.24083
4.3348
5.51838
6.42251
6.9386
7.31668
7.66
7.96094
8.18025
8.30596
8.35411
8.32555
7.8715
6.91855
4.67773
3.19099
1.43323
1
1
1.43589
2.66915
4.391
5.84507
6.48679
6.86116
7.01059
7.02974
6.83152
6.63284
6.48278
6.44234
6.42802
6.38763
6.79199
7.51799
8.21621
8.63951
8.83929
8.90442
8.82698
7.97808
5.82356
1.87839
2.11888
1.95406
1
1
2.50996
4.44228
4.8722
5.10606
5.11921
4.83333
4.09427
3.38971
2.74262
2.26369
1.96099
1.78602
1.72389
1.92914
2.48404
3.51852
5.2229
7.48283
8.57951
8.88635
8.8606
7.85316
4.90785
1.43104
1.48204
1.72733
1
1
3.07081
4.27294
4.27227
3.80662
2.99287
2.24737
1.76356
1.51441
1.39751
1.36175
1.36241
1.37668
1.52468
1.732
1.76671
1.77133
2.18529
5.48226
8.31259
8.93671
8.93568
8.30862
4.72202
1.46562
1.34446
1.53889
1
1
2.75993
3.57117
3.5755
2.80173
2.0409
1.64911
1.46862
1.3931
1.35105
1.33201
1.33084
1.33144
1.34893
1.29194
1.22093
1.18694
1.22313
2.13556
7.13035
8.93958
8.95314
8.57526
5.06715
1.65604
1.29428
1.44569
1.00005
1
2.32368
2.9966
3.26105
2.47773
1.82627
1.54909
1.42733
1.36337
1.30177
1.24731
1.22455
1.23717
1.17603
1.128
1.01333
1.00019
1.0001
1.32532
5.87693
8.91343
8.95862
8.85169
6.37437
1.79839
1.28108
1.40808
1.00019
1.00002
1.955
2.33486
2.83824
2.22301
1.70422
1.51869
1.38431
1.29719
1.22876
1.11595
1.11905
1.01995
1.01547
1.00327
1.00033
1
1
1.18676
5.05448
8.87415
8.95923
8.93599
7.71508
2.54934
1.34766
1.40218
1.00033
1.00017
1.74957
1.8885
2.32575
1.9883
1.58499
1.44948
1.37774
1.32333
1.2526
1.00231
1.00001
1
1
1
1
1
1
1.06277
4.5929
8.8391
8.95934
8.95629
8.56835
4.11361
1.53089
1.39615
1.00044
1.00059
1.63004
1.64628
2.03022
1.86742
1.49849
1.3883
1.3491
1.29091
1
1
1
1
1
1
1
1
1
1.16055
4.29374
8.81399
8.95937
8.95918
8.87319
5.90564
1.73313
1.38473
1.00054
1.00157
1.61677
1.53659
1.89531
1.78115
1.47537
1.37602
1.32378
1.24649
1
1
1
1
1
1
1
1
8.95953
1.32821
4.62639
8.80441
8.95941
8.95937
8.94766
7.58789
2.02764
1.36583
1.0005
1.00288
1.65968
1.46697
1.82432
1.78079
1.48809
1.38104
1.30568
1.18468
1.00367
8.95953
8.95953
8.95953
8.95953
8.95953
8.95953
8.95953
8.95953
8.95953
4.63429
8.82929
8.95942
8.95936
8.95866
8.61232
2.89737
1.35321
1.0005
1.0034
1.68501
1.47276
1.80702
1.79964
1.52376
1.39356
1.28398
1.10374
8.95953
8.95953
8.95953
8.95953
8.95953
8.95953
8.95953
8.95953
8.95953
8.57567
6.29625
8.87784
8.95942
8.95945
8.95937
8.9048
5.26525
1.35665
1.00058
1.00399
1.65782
1.53833
1.78526
1.84131
1.57703
1.39703
1.22705
1.02386
1.17956
8.95953
8.95953
8.95953
8.95953
8.95953
8.95953
8.95953
8.95953
8.95953
8.49773
8.93546
8.95943
8.95946
8.95944
8.94194
6.20388
1.36801
1.00076
1.00674
1.55672
1.57978
1.75343
1.88937
1.58953
1.38472
1.05622
1.00038
8.95953
8.95953
8.95953
8.95953
8.95953
8.95953
8.95953
8.95953
8.95953
8.95953
8.93921
8.95765
8.95944
8.95947
8.95945
8.95497
7.00386
1.39398
1.00098
1.00804
1.43867
1.55632
1.70484
1.89263
1.57529
1.353
1.00277
1
1.19217
8.95953
8.95953
8.95953
8.95953
8.95953
8.95953
8.95953
8.95953
8.95953
8.9592
8.95935
8.95945
8.95947
8.95946
8.95857
7.69374
1.45401
1.00123
1.00994
1.39054
1.51279
1.70195
1.86656
1.52019
1.29561
1
1
1.18319
8.95953
8.95953
8.95953
8.95953
8.95953
8.95953
8.95953
8.95953
8.95953
8.95927
8.95941
8.95947
8.95948
8.95948
8.95928
8.21801
1.48106
1.00123
1.01275
1.38179
1.44144
1.7395
1.798
1.39818
1.10888
1.00008
1.20911
8.95953
8.95953
8.95953
8.95953
8.95953
8.95953
8.95953
8.95953
8.95953
8.95953
8.95937
8.95944
8.95948
8.95948
8.95949
8.95948
8.56923
1.454
1.00118
1.0179
1.36998
1.38292
1.75251
1.6513
1.32058
1.03434
1.01004
6.58771
1.85238
8.95953
8.95953
8.95953
8.95953
8.95953
8.95953
8.95953
8.95953
8.95953
8.95941
8.95946
8.95948
8.95949
8.95949
8.95949
8.7733
1.41099
1.00107
1.02744
1.34274
1.37793
1.73444
1.44215
1.18563
1.00843
1.01621
8.78261
7.46175
8.95953
8.95953
8.95953
8.95953
8.95953
8.95953
8.95953
8.95953
8.95953
8.95943
8.95947
8.95949
8.95949
8.95949
8.95949
8.87876
1.4167
1.00096
1.04953
1.31846
1.37198
1.6243
1.32596
1.03886
1.01302
1.18534
8.94337
8.9589
8.95825
8.94859
8.92301
8.65562
8.52014
8.82845
8.93328
8.95917
8.95936
8.95945
8.95949
8.9595
8.9595
8.9595
8.9595
8.92629
1.4749
1.00095
1.09219
1.31326
1.37252
1.4608
1.20951
1.02576
1.11129
1.94052
8.8317
8.95894
8.95858
8.94156
8.92938
8.75302
8.80272
8.91755
8.95487
8.95931
8.95947
8.9595
8.9595
8.9595
8.9595
8.9595
8.9595
8.94485
1.65661
1.00104
1.15222
1.31533
1.3875
1.36023
1.09423
1.03466
1.28222
8.75641
8.95867
8.9595
8.9595
8.95947
8.95938
8.94672
8.8721
8.89065
8.95648
8.95937
8.95949
8.9595
8.95951
8.95951
8.95951
8.95951
8.95951
8.95141
1.77308
1.00125
1.21327
1.32516
1.39282
1.3098
1.05524
1.05096
1.30501
8.95941
8.95951
8.95951
8.95951
8.95951
8.95951
8.95949
8.89066
8.88137
8.95643
8.95947
8.95951
8.95951
8.95951
8.95951
8.95951
8.95951
8.95951
8.95383
1.70369
1.00163
1.24492
1.33612
1.38361
1.2224
1.03412
1.13791
2.38815
8.95951
8.95951
8.95951
8.95951
8.95951
8.95951
8.95951
8.75657
8.7874
8.95562
8.95947
8.95951
8.95951
8.95951
8.95951
8.95951
8.95951
8.95951
8.95543
1.49548
1.00205
1.27802
1.3486
1.36438
1.1364
1.03381
1.25985
6.29316
8.95952
8.95952
8.95952
8.95952
8.95952
8.95952
8.95952
8.81488
8.85905
8.95951
8.95952
8.95952
8.95952
8.95952
8.95952
8.95952
8.95952
8.95952
8.95818
1.33901
1.00228
1.31279
1.35264
1.35505
1.0872
1.03593
1.30972
8.31367
8.95952
8.95952
8.95952
8.95952
8.95952
8.95952
8.95952
8.89401
8.71668
8.95952
8.95952
8.95952
8.95952
8.95952
8.95952
8.95952
8.95952
8.95952
8.95909
1.29692
1.00262
1.36096
1.33397
1.33088
1.05648
1.05769
1.40938
8.95166
8.95953
8.95953
8.95953
8.95953
8.95953
8.95953
8.95953
8.91526
5.4307
8.95953
8.95953
8.95953
8.95953
8.95953
8.95953
8.95953
8.95953
8.95953
8.95946
1.30141
1.00248
1
1
1
1
1
1
1
1
1
1
1
1
1
1
1
1
1.00002
1.0003
1.0013
1.0029
1.00407
1.00455
1.00198
1.0004
1
1
1
1
1
1.01819
1.26799
1.37762
1.63736
2.07801
2.6814
3.43705
4.1841
4.89667
5.44131
5.98589
6.4847
6.94056
7.36506
7.74885
8.08237
8.31841
8.45705
8.53035
8.55812
8.55527
8.3216
7.33803
4.51361
3.91927
1.71731
1
1
2.34796
6.16303
7.40004
7.77429
7.84153
7.83735
7.72827
7.62276
7.51549
7.39889
7.27896
7.18121
7.15727
7.50733
7.88163
8.34686
8.68045
8.85866
8.93238
8.95553
8.94395
8.67257
7.07624
2.49538
2.52269
2.32318
1
1
4.81759
7.09597
7.10362
6.5757
5.87732
5.18717
4.53756
3.97132
3.49022
3.10378
2.84453
2.70618
2.67817
2.99572
3.35879
4.21565
6.19241
8.14916
8.82687
8.95465
8.95046
8.66257
6.45571
1.97019
1.67425
1.97604
1
1
5.80407
6.86838
5.86106
4.54251
3.49643
2.77649
2.30045
1.99702
1.80952
1.69888
1.66473
1.66034
1.69044
1.62737
1.52071
1.474
2.0762
5.87766
8.63431
8.9554
8.95744
8.80616
6.3724
1.92401
1.44517
1.72538
1.00002
1.00001
5.67634
6.19786
4.61216
3.32984
2.53302
2.06637
1.78174
1.61133
1.50987
1.44911
1.41015
1.36839
1.29793
1.22249
1.15234
1.11361
1.2041
2.53878
8.3853
8.95283
8.95883
8.89002
7.05726
2.20226
1.32148
1.57369
1.00019
1.00038
5.3903
5.66016
3.93299
2.78467
2.09811
1.65979
1.39424
1.26365
1.20085
1.15611
1.14411
1.18209
1.13035
1.07384
1.00334
1.00003
1.00001
1.33545
8.19601
8.94814
8.95918
8.94092
7.90093
2.62561
1.32078
1.51981
1.00056
1.00261
4.94033
5.06977
3.62223
2.50051
1.84627
1.43318
1.24659
1.17055
1.08694
1.03316
1.05291
1.02839
1.02145
1.00665
1.00037
1
1
1.14917
8.1376
8.94542
8.95931
8.95598
8.5643