/*--------------------------------*- C++ -*----------------------------------*\
| =========                 |                                                 |
| \\      /  F ield         | OpenFOAM: The Open Source CFD Toolbox           |
|  \\    /   O peration     | Version:  2.3.0                                 |
|   \\  /    A nd           | Web:      www.OpenFOAM.org                      |
|    \\/     M anipulation  |                                                 |
\*---------------------------------------------------------------------------*/
FoamFile
{
    version     2.0;
    format      ascii;
    class       volScalarField;
    location    "2.19946";
    object      k.water;
}
// * * * * * * * * * * * * * * * * * * * * * * * * * * * * * * * * * * * * * //

dimensions      [0 2 -2 0 0 0 0];

internalField   nonuniform List<scalar> 
18816
(
0.00548204
0.0111849
0.0221556
0.0287905
0.0371129
0.0427688
0.0492161
0.0542231
0.0587512
0.061811
0.0641598
0.0651824
0.0652968
0.0637145
0.0608636
0.0560477
0.0499172
0.0418481
0.0329101
0.0229745
0.0147018
0.0107113
0.0157036
0.0241029
0.0335041
0.0375286
0.0327012
0.00881161
1e-15
0.062353
0.0562075
0.0555584
0.0560746
0.0583356
0.0602823
0.0606256
0.060364
0.0596464
0.0592312
0.0578252
0.0546114
0.0512941
0.0476189
0.0433294
0.0385104
0.0327699
0.0271882
0.0216226
0.0169341
0.0146863
0.0161645
0.020371
0.0268068
0.0330428
0.0464585
1e-15
1e-15
1e-15
1e-15
1e-15
1e-15
1e-15
1e-15
1e-15
1e-15
1e-15
1e-15
0.0446672
0.0420862
0.0391361
0.0365763
0.0334513
0.0303412
0.0262973
0.0218135
0.016811
0.0119327
0.00874976
0.00969441
0.0129528
0.0190979
0.0260535
0.0422904
1e-15
1e-15
1e-15
1e-15
1e-15
1e-15
1e-15
1e-15
1e-15
1e-15
1e-15
1e-15
1e-15
0.0331929
0.0310922
0.0286529
0.0257694
0.0227254
0.0183528
0.0139037
0.00988951
0.00645376
0.00333274
0.0024251
0.00538214
0.0121148
0.0231515
0.0429466
1e-15
1e-15
0.0821443
1e-15
1e-15
1e-15
1e-15
1e-15
1e-15
1e-15
1e-15
1e-15
1e-15
0.0216073
0.016393
0.0117329
0.00804026
0.0058822
0.00449139
0.00399382
0.00393223
0.00397945
0.00386235
0.00317847
0.0029736
0.0045568
0.0171714
0.0414769
1e-15
1e-15
0.104221
0.0707387
1e-15
1e-15
1e-15
1e-15
1e-15
1e-15
1e-15
1e-15
1e-15
0.00801799
0.00330907
0.00187431
0.00162723
0.00224342
0.00282772
0.00303275
0.00309021
0.00341104
0.00455047
0.00512811
0.00381657
0.0017757
0.0134256
0.040296
1e-15
1e-15
0.10577
0.0912413
0.0647229
0.0546021
0.0463836
0.0390906
1e-15
1e-15
1e-15
1e-15
1e-15
0.002234
0.000583295
0.000505846
0.000597
0.00109671
0.00260398
0.00302733
0.00303606
0.00296173
0.00392305
0.0058235
0.00606907
0.00261794
0.0113672
0.0379576
1e-15
1e-15
0.105402
0.0935235
0.0804802
0.0648368
0.0535317
0.0467428
0.0349979
0.0292273
0.0190111
1e-15
1e-15
0.000939155
0.000799525
0.000770883
0.00109357
0.000532069
0.0017094
0.00309387
0.00329835
0.00280754
0.00316316
0.00481093
0.00663331
0.00424632
0.0102332
0.0369866
1e-15
1e-15
0.10463
0.093485
0.0798961
0.0630634
0.0516684
0.0445799
0.0388041
0.0311703
0.0198122
1e-15
1e-15
0.000575439
0.000983642
0.000795609
0.00117549
0.000468535
0.00117182
0.00205579
0.00360599
0.00275821
0.00285733
0.00359081
0.00582577
0.00576258
0.00919268
0.0358392
1e-15
1e-15
0.104183
0.0936053
0.0783747
0.0611471
0.0498905
0.0424542
0.0364133
0.028424
0.0156124
1e-15
1e-15
0.00143839
0.00146903
0.00158962
0.00196675
0.00273672
0.00258016
0.00104047
0.00383139
0.00271681
0.00275372
0.00297065
0.00436566
0.00643585
0.0081108
0.0349255
1e-15
1e-15
0.103512
0.0931163
0.0774205
0.0598711
0.0487265
0.0413337
0.0355584
0.026577
0.00893765
0.00148651
0.00166129
0.00195147
0.00183701
0.00149912
0.00176906
0.00183813
0.00168998
0.00205833
0.0039465
0.00265433
0.00266823
0.00270607
0.00316147
0.00590791
0.00853379
0.0336061
1e-15
1e-15
0.10355
0.0929019
0.0772486
0.059023
0.0479183
0.0408083
0.0358765
0.0251424
0.00726347
0.00226487
0.00237879
0.00184543
0.00213343
0.00204112
0.00264724
0.00281049
0.00203885
0.00326564
0.00356101
0.00256272
0.00256574
0.00258938
0.00261706
0.0036996
0.00540749
0.0332076
1e-15
1e-15
0.103272
0.0927223
0.077171
0.0582884
0.0474156
0.0408796
0.0365247
0.0224466
0.00475029
0.000991942
0.00168336
0.0021663
0.00191306
0.00235932
0.0029552
0.00284495
0.00247364
0.00391738
0.00360461
0.00248018
0.00247518
0.00249713
0.00242694
0.00252591
0.002993
0.0323648
1e-15
1e-15
0.100978
0.0932566
0.0773079
0.0577562
0.0474057
0.0412679
0.0373875
0.020478
0.00350407
0.00131895
0.00280398
0.00190729
0.00129633
0.00196156
0.00411697
0.00441201
0.00266226
0.00415124
0.00296345
0.0023186
0.00236956
0.00241696
0.00236964
0.00232209
0.00292466
0.0311352
1e-15
1e-15
0.0940785
0.0922035
0.0771236
0.0572533
0.0475709
0.0419575
0.0376339
0.0144942
0.00141559
0.00121662
0.000882964
0.00134084
0.000862694
0.00205181
0.00327124
0.00413985
0.0029777
0.00262805
0.00188159
0.00210525
0.00227314
0.00233365
0.00232706
0.00227383
0.00306033
0.029724
1e-15
1e-15
0.0876385
0.0851424
0.0762377
0.0570868
0.0483374
0.0432238
0.0370917
0.00923278
0.00101866
0.00109849
0.000770099
0.00117304
0.00132683
0.00093049
0.00106391
0.00117535
0.00136787
0.00117183
0.0014698
0.00201293
0.00216566
0.00224224
0.00226735
0.00219207
0.00309996
0.0284547
1e-15
1e-15
0.0877422
0.0808492
0.0741679
0.0570199
0.0493475
0.044085
0.0346267
0.00448427
0.000952521
0.00107642
0.000760306
0.00106559
0.000678838
0.000940899
0.000725762
0.000857093
0.00113572
0.00107087
0.00142919
0.00192123
0.00207695
0.00215557
0.00221458
0.00214183
0.00301101
0.0273678
1e-15
1e-15
0.0939548
0.0866396
0.0725284
0.0578506
0.0515099
0.0457007
0.030452
0.00174933
0.000933307
0.00104257
0.000800215
0.0010098
0.000733926
0.000848505
0.000845441
0.000947014
0.00119751
0.00136797
0.0015498
0.0018498
0.00197485
0.00205384
0.00213393
0.00204924
0.00279
0.0266155
1e-15
1e-15
0.106703
0.0918866
0.0727261
0.0598238
0.0538043
0.0462255
0.0240769
0.0010171
0.000841753
0.00107417
0.000786952
0.00103711
0.000751379
0.00109835
0.000905828
0.00100572
0.00144703
0.00172133
0.00177158
0.00176165
0.00189195
0.00197065
0.00206913
0.00198039
0.0025086
0.0262405
1e-15
1e-15
0.120253
0.103797
0.0744104
0.0620937
0.0563375
0.0459165
0.0151363
0.00101367
0.00100294
0.00110552
0.000927176
0.0010795
0.000946746
0.00111013
0.000951838
0.00109064
0.00142701
0.00184062
0.00190384
0.00164772
0.00175855
0.00186554
0.00197629
0.00187125
0.00222324
0.0261549
1e-15
1e-15
0.140655
0.126798
0.0773634
0.0660064
0.0592324
0.0408544
0.00705673
0.000828218
0.000993529
0.000949594
0.000975314
0.00100668
0.00108055
0.00113379
0.00104097
0.000922104
0.000823133
0.00100214
0.00135333
0.00134028
0.00156349
0.00175962
0.00189983
0.00175037
0.00198986
0.0258934
1e-15
1e-15
0.180796
0.156243
0.0816101
0.0697279
0.0598993
0.0339258
0.00342807
0.000535387
0.000400658
0.000312259
0.000360005
0.000319123
0.000446329
0.000613078
0.000615656
0.00044955
0.000330639
0.000407398
0.000913944
0.00119057
0.001486
0.00170195
0.0018456
0.00150773
0.00182274
0.0250101
1e-15
1e-15
0.219035
0.20976
0.0856944
0.0715927
0.0571543
0.0221424
0.000787571
0.000546846
0.000593847
0.000517664
0.000463158
0.000430875
0.000375386
0.000347391
0.000367864
0.000477989
0.000635373
0.000741807
0.00098956
0.00118568
0.00143564
0.00166074
0.00180935
0.00091849
0.00161483
0.0231818
1e-15
1e-15
0.237893
0.246568
0.0901351
0.071941
0.0510521
0.011486
0.000270776
0.00049351
0.000441433
0.000333098
0.000240493
0.000197059
0.000159181
0.000280352
0.000230768
0.000280328
0.000492527
0.000609587
0.000895287
0.00112894
0.00139969
0.0016252
0.00177823
9.99997e-16
0.0013896
0.0203719
1e-15
1e-15
0.203855
0.244112
0.0936806
0.071218
0.0425074
0.00435325
9.99116e-16
0.000544597
0.000515461
0.000414592
0.00034539
0.000301277
0.000247549
0.000165094
0.0001752
0.000364052
0.000562958
0.00067525
0.000893284
0.00110913
0.00135284
0.00157221
0.00173095
9.99999e-16
0.00124229
0.0164579
1e-15
1e-15
0.158636
0.205342
0.0948257
0.0688255
0.031331
0.00167967
0.000275272
0.000537257
0.000465369
0.000351163
0.000277387
0.000224917
0.000170196
0.00014747
0.000143864
0.000312631
0.000518259
0.000632863
0.000826253
0.00102742
0.00126454
0.00145093
0.00159795
1e-15
0.00109722
0.0115489
1e-15
1e-15
0.119221
0.160337
0.0933778
0.0655073
0.0246542
0.00115373
0.000591195
0.000520087
0.000440023
0.000330881
0.000276973
0.000236689
0.000202479
8.66842e-05
0.000102311
0.000302363
0.000484696
0.000583151
0.000736813
0.000893061
0.00106606
0.00119264
0.00131513
1e-15
0.00101766
0.00703762
1e-15
1e-15
0.111739
0.121978
0.0908911
0.0581136
0.016806
0.000726
0.000388677
0.000352042
0.000297372
0.000222972
0.000191318
0.000164116
0.000145569
6.01404e-05
0.00010133
0.000219254
0.000324706
0.00037914
0.000461544
0.00053854
0.000616686
0.000660531
0.000731513
0.000924755
0.000795006
0.00619286
1e-15
0.00253612
0.00261628
0.00857005
0.0117462
0.015568
0.0180425
0.0208149
0.0228402
0.0246015
0.0256712
0.0263068
0.0264199
0.0261238
0.0250585
0.0234351
0.0209863
0.018071
0.0144793
0.0107918
0.00696942
0.00429136
0.00325834
0.00473847
0.00779108
0.0120464
0.0147898
0.0132664
1e-15
1e-15
0.0238087
0.0226059
0.0228568
0.0233157
0.024286
0.0248934
0.02496
0.024832
0.0247433
0.0246968
0.0242835
0.0230252
0.0217134
0.020211
0.0183641
0.0162308
0.0136835
0.011212
0.00880852
0.00690939
0.00611826
0.00675107
0.00855639
0.0114098
0.0139904
0.018737
1e-15
0.00094161
0.00457201
0.00415974
0.00396906
0.00367066
0.00348746
0.00322948
0.00299748
0.00287936
0.00288147
0.00505818
0.0197907
0.0184604
0.0173001
0.0162253
0.0148717
0.0134428
0.0116137
0.00966357
0.00748678
0.00551965
0.0045153
0.00490196
0.00603852
0.00867409
0.0115709
0.0179594
1e-15
0.000940385
0.000863068
0.000775723
0.000674097
0.000494127
0.000357105
0.000299255
0.000276923
0.000250654
0.000168969
0.000443723
0.00380255
0.015254
0.0144655
0.0134396
0.0121461
0.0106369
0.00841489
0.00628452
0.00450063
0.00306098
0.00209298
0.00187859
0.0026211
0.00550378
0.010442
0.0182384
1e-15
0.000854529
0.0230321
0.000354027
0.000214027
0.000137662
8.68448e-05
7.41137e-05
7.20437e-05
6.21173e-05
9.69775e-06
6.40447e-05
0.0017489
0.0105386
0.00815144
0.00606759
0.00427202
0.00307217
0.00238411
0.00219947
0.00217651
0.00221272
0.00225807
0.00208086
0.00191618
0.00246309
0.00783458
0.0179516
1e-15
1e-15
0.0413954
0.0199624
0.000200873
4.02238e-05
1.2557e-05
1.06834e-05
8.69219e-06
6.10677e-06
2.60203e-06
9.55993e-06
0.000495985
0.0042197
0.00190964
0.00119451
0.00105939
0.00137898
0.00164948
0.00177871
0.00184396
0.00199306
0.00251076
0.00280138
0.00231756
0.00153034
0.00624975
0.0175766
1e-15
1e-15
0.0443705
0.0365618
0.0192679
0.016356
0.013939
0.0105277
6.36993e-05
1.42791e-05
6.99781e-06
1.36117e-05
0.00012116
0.00127502
0.0004167
0.000328681
0.000381852
0.000720881
0.00143367
0.00171394
0.00178862
0.00177108
0.00219043
0.00295465
0.0030795
0.00183617
0.00547395
0.0166762
1e-15
1e-15
0.0446991
0.0401013
0.0330876
0.0267068
0.0219991
0.0188613
0.0106509
0.00884536
0.00525775
2.965e-05
7.31393e-06
0.000425902
0.000418495
0.000411109
0.00054387
0.000361995
0.00088258
0.00162595
0.00184009
0.00167228
0.00180837
0.00250625
0.00322818
0.0025423
0.00503943
0.0162197
1e-15
1e-15
0.0444102
0.0405367
0.0343172
0.0270482
0.0220786
0.0191864
0.0163156
0.0132415
0.0085139
4.36212e-06
1.94723e-07
0.000228652
0.00050703
0.000466664
0.000580662
0.000324078
0.000615676
0.00115067
0.00191774
0.00162442
0.00166444
0.0019308
0.00282112
0.00311862
0.00461148
0.0156948
1e-15
1e-15
0.0439767
0.0404274
0.0338801
0.0263763
0.0214532
0.0184424
0.0159872
0.0127373
0.0075491
4.95987e-06
8.88688e-06
0.000734531
0.00076526
0.00085684
0.000927906
0.00121835
0.00141125
0.000872954
0.001999
0.00157915
0.0015947
0.00167056
0.0021802
0.00330081
0.00415258
0.0153256
1e-15
1e-15
0.0433062
0.0400696
0.0334741
0.0257592
0.0209076
0.0178859
0.0156057
0.0119185
0.00420916
0.000515219
0.000763913
0.0010877
0.000979491
0.0009688
0.000943115
0.000954694
0.0010186
0.00105186
0.00201245
0.00152536
0.00153373
0.00155073
0.00169581
0.00287067
0.00436714
0.014691
1e-15
1e-15
0.0430376
0.0399327
0.0333758
0.0253721
0.0205305
0.0176391
0.0157244
0.0112799
0.00330993
0.00121688
0.00112942
0.0011105
0.00109161
0.00115807
0.00125785
0.00132367
0.00115224
0.00150491
0.00191705
0.00147152
0.00147635
0.00148934
0.00149207
0.00181531
0.00311273
0.0144781
1e-15
1e-15
0.0424382
0.0393317
0.0332408
0.025046
0.020314
0.0176618
0.0159933
0.0101785
0.0022345
0.000888134
0.00099435
0.00120937
0.00110077
0.00127818
0.00150628
0.00147971
0.00134487
0.00188762
0.00194715
0.0014239
0.00142184
0.00143831
0.00142198
0.00144023
0.00191062
0.014186
1e-15
1e-15
0.0409756
0.0389328
0.0331667
0.0248073
0.0203036
0.0178182
0.0164583
0.00936019
0.00170176
0.00087269
0.0012978
0.00109392
0.000783759
0.00114796
0.00191316
0.00205913
0.00147239
0.00189843
0.00158793
0.0013222
0.00135868
0.00139059
0.00139118
0.00136889
0.00182498
0.0136694
1e-15
1e-15
0.0404481
0.038359
0.0329472
0.0245707
0.020369
0.0181266
0.0166574
0.00692319
0.000927355
0.000830694
0.000650318
0.000875737
0.000711176
0.00116799
0.0016281
0.00197822
0.00154088
0.00133517
0.0011194
0.001214
0.00129824
0.00133959
0.00136109
0.00133743
0.0018458
0.01306
1e-15
1e-15
0.0428442
0.0380818
0.032451
0.0244983
0.0206803
0.0186824
0.0164292
0.00466982
0.000696933
0.000812913
0.000508662
0.000814173
0.000705887
0.000716868
0.000629616
0.000667958
0.000860488
0.000781242
0.000954371
0.00115569
0.00123224
0.00128344
0.00132214
0.001286
0.00182879
0.0125051
1e-15
1e-15
0.0457519
0.0405112
0.031847
0.0244656
0.0210986
0.0190789
0.0154498
0.00247541
0.000663802
0.000814033
0.000555922
0.000786236
0.000468964
0.000657532
0.000526068
0.000595187
0.000826125
0.000796819
0.000939903
0.00109569
0.00117842
0.00123287
0.00128713
0.00125065
0.00175229
0.0119958
1e-15
1e-15
0.0511322
0.0466571
0.0317739
0.0247204
0.0220042
0.0196726
0.0135036
0.00106601
0.000684182
0.000808599
0.000635219
0.000787714
0.000593687
0.000629348
0.000657445
0.000720185
0.00089213
0.00104456
0.00104245
0.00104614
0.0011144
0.00117623
0.00124086
0.00119414
0.0016186
0.0116082
1e-15
1e-15
0.0595083
0.0515895
0.0321566
0.0255001
0.022833
0.0197143
0.0110427
0.000649046
0.000590207
0.000831179
0.000566803
0.000809696
0.00055385
0.00086024
0.000645223
0.00070739
0.00107498
0.00125636
0.00113096
0.000985083
0.00105732
0.00113142
0.0012058
0.00115214
0.00146557
0.0114022
1e-15
1e-15
0.0690532
0.0587289
0.0329289
0.0262668
0.0236492
0.0194605
0.00725634
0.000655724
0.000764378
0.000876058
0.000754535
0.000889959
0.000799161
0.000931078
0.000747638
0.000801492
0.00105121
0.00127872
0.00108145
0.000879065
0.000968408
0.00107666
0.0011606
0.00108313
0.00131475
0.011346
1e-15
1e-15
0.0765891
0.0716584
0.0341663
0.0276808
0.0246635
0.0175538
0.00350415
0.000570409
0.000835843
0.000876525
0.000956449
0.000978345
0.00107454
0.00109069
0.00094504
0.000833016
0.000653021
0.000620766
0.000668441
0.000740827
0.000898502
0.0010376
0.00113266
0.000995783
0.00120258
0.0112219
1e-15
1e-15
0.0839557
0.0806332
0.0357779
0.0291759
0.0249851
0.0149926
0.00187821
0.000360278
0.000292821
0.000245349
0.000270221
0.000250587
0.000351174
0.000419458
0.000380322
0.000279388
0.000285701
0.000344474
0.000562702
0.000712865
0.000882719
0.00101986
0.00111065
0.000806773
0.00109093
0.0108721
1e-15
1e-15
0.0761489
0.0824372
0.03699
0.0299667
0.0242602
0.0102123
0.000524545
0.000332365
0.000334715
0.00027854
0.000238882
0.000213053
0.000182981
0.000178377
0.000196317
0.000262578
0.000360712
0.000423494
0.000569985
0.000702359
0.000855989
0.000996906
0.00108897
0.000475816
0.000950355
0.0101572
1e-15
1e-15
0.0588683
0.0709857
0.0382377
0.030139
0.0220302
0.00567612
0.000153146
0.000318155
0.000292927
0.000227238
0.00017515
0.000146144
0.000119952
0.000149141
0.000137128
0.000209776
0.000325229
0.000395679
0.000540877
0.000678759
0.000835816
0.000970713
0.00106267
0.000322897
0.000812076
0.00909317
1e-15
1e-15
0.046001
0.0594723
0.0386771
0.0299707
0.0186802
0.00238726
6.99668e-05
0.000333216
0.000308516
0.000244832
0.000202542
0.000174138
0.000144087
9.97453e-05
0.000106455
0.000216221
0.000333329
0.000403962
0.000526471
0.000653718
0.000793986
0.000917972
0.00100949
0.000304464
0.000729337
0.00751607
1e-15
1e-15
0.0460751
0.0457481
0.038717
0.0291753
0.0141443
0.000997994
0.000210839
0.000326724
0.000283061
0.000217096
0.000176628
0.000147634
0.000122185
8.83893e-05
0.000103964
0.000204248
0.00030938
0.000372808
0.000474524
0.000584535
0.000710748
0.000805725
0.000883724
0.000271178
0.000635422
0.00537269
1e-15
1e-15
0.052455
0.0440852
0.0385973
0.0280005
0.0114269
0.000755281
0.00034001
0.000288125
0.000246883
0.000189478
0.000161222
0.000139831
0.000121816
7.21295e-05
9.10423e-05
0.000171622
0.000261377
0.000312116
0.000384651
0.000458784
0.000532371
0.000581492
0.000641697
0.00026744
0.00054707
0.00357741
1e-15
1e-15
0.0577967
0.047452
0.038164
0.0250289
0.00805154
0.000376594
0.00014313
0.000141562
0.000127495
0.000105624
9.41278e-05
8.43138e-05
7.6587e-05
5.52554e-05
9.07441e-05
0.000103834
0.000132212
0.000146247
0.000161923
0.000174044
0.000164113
0.000152427
0.000162962
0.000379108
0.000301506
0.00326455
1e-15
0.00196575
0.00137415
0.00360101
0.00486183
0.00650149
0.00754935
0.00877058
0.00964238
0.0103717
0.0107404
0.0108799
0.0107931
0.0104776
0.009757
0.00877007
0.00744163
0.00604906
0.00455695
0.0033041
0.00227179
0.00177516
0.00162244
0.00185512
0.00252108
0.00400376
0.00572791
0.00526041
0.000985368
0.00185879
0.00864144
0.0087498
0.00924154
0.00969524
0.0102828
0.0106986
0.010901
0.011025
0.0112277
0.0113627
0.0113272
0.0107509
0.0101349
0.00934892
0.00841787
0.00736369
0.00614309
0.005019
0.00400137
0.00330441
0.00306085
0.00329865
0.00402304
0.00532283
0.00656178
0.00835206
0.000955157
0.00139171
0.00297724
0.00287388
0.00280615
0.00272089
0.00263487
0.00246552
0.00234766
0.00232274
0.00258104
0.00428198
0.0097341
0.00905209
0.00851733
0.00799071
0.00733022
0.00661045
0.00571343
0.00481505
0.00383804
0.00308548
0.00279796
0.00294366
0.00328939
0.0044079
0.0057006
0.00849601
1e-15
0.00109769
0.00115851
0.00103188
0.0010178
0.000847156
0.000701713
0.000609919
0.000584536
0.000635584
0.000777217
0.0012927
0.00345848
0.00772781
0.00741295
0.00691052
0.00626209
0.00542016
0.00418502
0.00314358
0.00237278
0.00186895
0.00165245
0.0016408
0.00173657
0.00281062
0.00516991
0.00860143
1e-15
0.00106964
0.00543312
0.000804381
0.000718621
0.000588192
0.000473785
0.000430037
0.000438159
0.000467035
0.00050998
0.000736544
0.00202312
0.00557146
0.00442613
0.00339881
0.0023985
0.00175366
0.00147752
0.00144743
0.00147684
0.00152392
0.00161624
0.0016253
0.00154072
0.00165054
0.00389078
0.0085278
1e-15
0.000905342
0.0164457
0.00462001
0.00064189
0.000473753
0.000401692
0.000395341
0.000399097
0.000394663
0.000374925
0.000402129
0.000841036
0.00235146
0.00114838
0.000798522
0.000739162
0.000925467
0.00107602
0.00121348
0.00129353
0.00137633
0.00164186
0.00181311
0.00169703
0.00140764
0.00316372
0.00835524
1e-15
0.00066756
0.0196851
0.0146933
0.00497241
0.00439838
0.00392221
0.00252723
0.000428652
0.000411929
0.000353449
0.000301672
0.000312107
0.000763214
0.00031891
0.000263315
0.00029175
0.000508562
0.000882163
0.00112459
0.00122484
0.00122319
0.00139911
0.0017739
0.00188472
0.00152324
0.00287224
0.00795111
1e-15
1e-15
0.0202639
0.0183549
0.0140682
0.0116357
0.00972949
0.00797821
0.00312313
0.00251893
0.00134799
0.000253071
0.000152552
0.000237304
0.00025663
0.000260295
0.000313358
0.000275338
0.000549238
0.00101153
0.00121256
0.00114818
0.00120191
0.00149785
0.00186583
0.00183753
0.00274084
0.00770616
1e-15
1e-15
0.0202048
0.0189486
0.0158907
0.0126592
0.0104242
0.00909965
0.00736692
0.00596579
0.00383233
0.000131717
5.4477e-05
0.000177242
0.000301498
0.000317496
0.000333691
0.000257544
0.000466757
0.000818846
0.00123971
0.00110209
0.0011201
0.00121797
0.0016187
0.00201678
0.0026197
0.00744216
1e-15
1e-15
0.0200058
0.0188556
0.0158706
0.0124831
0.01023
0.00888062
0.00768749
0.00614993
0.00389607
0.000117472
9.76604e-05
0.000528388
0.000476201
0.000579685
0.000508459
0.000595178
0.000979227
0.000750079
0.00129828
0.00105995
0.00106644
0.00109988
0.00129532
0.00196536
0.00248184
0.00728505
1e-15
1e-15
0.01963
0.0185969
0.0157134
0.012174
0.00994068
0.00857479
0.00753411
0.00581158
0.00221467
0.00059736
0.00050235
0.000880148
0.000667253
0.000823779
0.000625161
0.000607725
0.000823883
0.000687874
0.00132229
0.00102032
0.00102166
0.00103715
0.00109542
0.00160512
0.00263534
0.00696918
1e-15
1e-15
0.0194039
0.018463
0.0156119
0.0119628
0.00973725
0.00842446
0.00754764
0.00545871
0.00177407
0.000914179
0.000668714
0.000918907
0.00071883
0.000898485
0.000744561
0.000757644
0.000879762
0.000861324
0.00131684
0.000989459
0.000982748
0.000999495
0.00101195
0.00113241
0.00207277
0.00686327
1e-15
1e-15
0.0190716
0.0179482
0.0154729
0.0117901
0.00963227
0.00841965
0.00763082
0.00495052
0.00131086
0.000861423
0.000803767
0.000956606
0.000856196
0.000955095
0.00101704
0.00100993
0.000995279
0.00116726
0.00130512
0.000961791
0.000943219
0.000965452
0.000981414
0.000993328
0.00141034
0.00678443
1e-15
1e-15
0.0188013
0.0176933
0.0153856
0.0116656
0.00962564
0.00847749
0.00785985
0.00459135
0.0010099
0.000791113
0.000737533
0.000899285
0.000605074
0.000910533
0.00105757
0.00112896
0.00106005
0.00107765
0.00110792
0.000902569
0.000898466
0.000930281
0.000955779
0.000953533
0.00131422
0.00658259
1e-15
1e-15
0.0199597
0.0179691
0.0152402
0.0115425
0.00965392
0.00861082
0.00797268
0.00354081
0.000784066
0.000787999
0.000625877
0.000815997
0.000688183
0.000904456
0.00103732
0.00117204
0.00105681
0.000959971
0.000920332
0.000836384
0.000855685
0.000893643
0.000931244
0.000921258
0.00128374
0.00631686
1e-15
1e-15
0.0235043
0.019487
0.0150558
0.0115118
0.00979208
0.0088534
0.0078346
0.00252501
0.000592293
0.000803503
0.000445466
0.000783748
0.000465304
0.000688893
0.000478842
0.000495723
0.000779231
0.000687814
0.00082067
0.00078614
0.000808825
0.000854526
0.000902968
0.000884356
0.00123424
0.00607771
1e-15
1e-15
0.0264263
0.0224136
0.014985
0.0115002
0.00996536
0.00901395
0.00736673
0.0014603
0.000602593
0.000810925
0.000520898
0.000776935
0.000417168
0.000630078
0.000479203
0.000551021
0.000801156
0.000745497
0.000789142
0.000737457
0.000770407
0.000822446
0.000879413
0.000856992
0.00115804
0.00583985
1e-15
1e-15
0.0298632
0.0267291
0.0151208
0.0115816
0.0103426
0.00918492
0.00629789
0.000678161
0.000667201
0.000805938
0.000637622
0.000785537
0.00059629
0.000582783
0.000649887
0.000710807
0.000847158
0.00099016
0.000834542
0.000688564
0.00072379
0.000788904
0.000852202
0.00082015
0.00106735
0.00563986
1e-15
1e-15
0.0337497
0.0298768
0.015396
0.0119048
0.0105981
0.00907594
0.00531583
0.000452135
0.000534593
0.000826052
0.000518515
0.000803982
0.000506612
0.000853542
0.000593059
0.000654019
0.0010776
0.00121631
0.000856003
0.000636628
0.000680248
0.000764669
0.000833966
0.000791799
0.000980047
0.00553529
1e-15
1e-15
0.0373917
0.0322416
0.0156726
0.012135
0.0107902
0.00881408
0.00370876
0.000482523
0.000742227
0.000879846
0.000728773
0.00088827
0.000771286
0.000928238
0.000721508
0.000779824
0.00108846
0.00133732
0.000747382
0.000552528
0.000635081
0.000740976
0.000814538
0.000742878
0.000898709
0.00550891
1e-15
1e-15
0.0360593
0.0352223
0.016072
0.0126196
0.0110955
0.00795595
0.00184322
0.000456623
0.000807209
0.000864419
0.000963829
0.000980584
0.0010882
0.00109623
0.000939443
0.000814165
0.000613613
0.000561024
0.00045762
0.000502644
0.000620372
0.000730788
0.000806416
0.000673856
0.000836289
0.00544585
1e-15
1e-15
0.0296738
0.0328251
0.0166095
0.0132625
0.0113
0.0070388
0.00107972
0.000268098
0.000238663
0.000205168
0.000217994
0.000206354
0.000288482
0.000315769
0.000255229
0.000214052
0.000255199
0.00030377
0.000406314
0.000507055
0.000623064
0.000724862
0.000793081
0.000539524
0.000750975
0.00528548
1e-15
1e-15
0.0213746
0.0241552
0.0169526
0.0136547
0.0111605
0.00505678
0.00034644
0.00024367
0.000230947
0.000183898
0.000152309
0.000130334
0.000116779
0.000111363
0.000123366
0.000184246
0.000253146
0.000298459
0.000392372
0.000492655
0.000603845
0.000705551
0.000772614
0.000396821
0.000653029
0.00496152
1e-15
1e-15
0.0170016
0.0170127
0.0173538
0.0137923
0.0103684
0.00297271
0.000147288
0.000240156
0.000222162
0.000174541
0.000140142
0.000117773
9.99284e-05
9.32776e-05
0.000101618
0.000177345
0.000248793
0.000299191
0.000386257
0.000479922
0.000585974
0.000676035
0.000739898
0.000345879
0.000565706
0.00450076
1e-15
1e-15
0.0164432
0.0150464
0.0173608
0.0137972
0.00891756
0.00135579
0.000131123
0.000238278
0.000214042
0.000168035
0.000139293
0.00011871
0.000100928
7.3969e-05
8.30543e-05
0.000158944
0.000231407
0.00028159
0.000359471
0.000447586
0.000540089
0.000614282
0.000672379
0.000329687
0.000504367
0.0037798
1e-15
1e-15
0.0204471
0.0144379
0.0174915
0.0135425
0.00690275
0.000613034
0.00018812
0.000226844
0.000196458
0.000153442
0.000128093
0.000109116
9.56582e-05
6.8423e-05
9.25553e-05
0.000156847
0.000214763
0.000254341
0.000313677
0.000384515
0.000454828
0.000496529
0.00053897
0.000285574
0.000421126
0.00278005
1e-15
1e-15
0.0274886
0.0178061
0.017702
0.0131069
0.00572739
0.000501805
0.000220453
0.000178225
0.000155238
0.000122488
0.000106081
9.31281e-05
8.2277e-05
6.50606e-05
8.85487e-05
0.000114921
0.000161087
0.000190027
0.000227447
0.000273096
0.000298264
0.000298474
0.000338472
0.000248763
0.000314988
0.00210043
1e-15
1e-15
0.0329543
0.0235306
0.0177031
0.0118414
0.00414661
0.000173341
7.32534e-05
8.44755e-05
7.83129e-05
6.90601e-05
6.27186e-05
5.73951e-05
5.25721e-05
5.47862e-05
9.23784e-05
7.10801e-05
8.25709e-05
9.1389e-05
0.000102337
0.000119248
8.57344e-05
8.88547e-05
0.000120033
0.000175506
0.00010138
0.00206858
1e-15
0.00196444
0.00144172
0.00226135
0.00266479
0.00328204
0.0036821
0.00417022
0.00450575
0.00473796
0.00481164
0.00479468
0.00463642
0.00438703
0.00394731
0.0034544
0.00289353
0.00243226
0.00201347
0.00173178
0.00152333
0.00142999
0.00139828
0.00141506
0.00149437
0.00172645
0.00230327
0.00219657
0.00111537
0.00201807
0.00345129
0.00375673
0.00419725
0.00453466
0.00488266
0.00512782
0.0052723
0.00538928
0.00555343
0.00562382
0.00562699
0.00532319
0.00502404
0.00462596
0.00414457
0.00362607
0.00308098
0.00264434
0.00229773
0.00210254
0.00205546
0.00212005
0.00231975
0.00278842
0.00333809
0.00404096
0.00111185
0.00161835
0.00189171
0.00186744
0.0018542
0.00178852
0.00172398
0.00162894
0.00159125
0.0016498
0.00197056
0.00314617
0.00522558
0.00488706
0.00462108
0.00433567
0.00399169
0.00362524
0.00320878
0.00280955
0.00239039
0.00214994
0.00211216
0.00218039
0.00219309
0.00257246
0.00312182
0.00437974
0.000863512
0.00121852
0.000955905
0.000881111
0.00080301
0.000667141
0.000577581
0.000537062
0.000545324
0.000637001
0.000818059
0.00129813
0.00267075
0.00428737
0.00414056
0.00387304
0.00353148
0.00303415
0.00234976
0.00188366
0.00158906
0.00144839
0.0014369
0.0014934
0.00144398
0.00174671
0.00281258
0.00444223
1e-15
0.00113082
0.00156502
0.000697713
0.000633105
0.000507905
0.000442372
0.000418568
0.000450839
0.000498616
0.000592783
0.000851986
0.00175208
0.00322183
0.00262178
0.00204023
0.00145054
0.00114154
0.00105982
0.00111479
0.00116561
0.00120776
0.00129244
0.00137054
0.00136799
0.00136081
0.00218402
0.00441455
1e-15
0.00106498
0.00638156
0.00130161
0.000566705
0.000466044
0.000422819
0.000418037
0.000440547
0.000449755
0.000448187
0.000482311
0.000774368
0.00139608
0.00074018
0.000577736
0.000559583
0.000683198
0.000795018
0.000940756
0.00101638
0.00105596
0.00120272
0.0013559
0.00138724
0.00132376
0.0018263
0.00433942
1e-15
0.00088229
0.00931269
0.00585122
0.00144587
0.00128403
0.00117312
0.000737342
0.000468073
0.000471109
0.00040952
0.000326258
0.000304895
0.000484717
0.000277754
0.000250399
0.000260169
0.000396667
0.000630156
0.000857672
0.000952506
0.000930332
0.000999246
0.00121089
0.00138918
0.00136291
0.00173382
0.00415623
1e-15
0.000688031
0.010027
0.00903599
0.00613982
0.00521595
0.00444117
0.00338634
0.00106138
0.000880194
0.000527192
0.000261032
0.000194726
0.000179727
0.000199817
0.000208918
0.000228708
0.000236758
0.000439852
0.000784827
0.000943229
0.000871054
0.000886057
0.00101972
0.00129508
0.00149604
0.00175964
0.00402032
1e-15
1e-15
0.0100868
0.00970254
0.00801934
0.00647227
0.0053834
0.00469766
0.00349836
0.00283968
0.00185396
0.000182654
9.68629e-05
0.000180465
0.000218687
0.000257208
0.000243674
0.000231322
0.000449923
0.000718056
0.000996383
0.000830967
0.000834013
0.000878521
0.00108749
0.00152774
0.00179957
0.00388637
1e-15
1e-15
0.0100135
0.00965847
0.00819512
0.00650101
0.00537718
0.0047017
0.00404787
0.00324957
0.0022193
0.000364204
0.00015091
0.000464992
0.00036361
0.000470793
0.000355205
0.000373908
0.000885996
0.000692547
0.00108826
0.000798707
0.000788904
0.000813669
0.000917883
0.00137343
0.00180102
0.00383164
1e-15
1e-15
0.00981899
0.00948918
0.0081308
0.00637258
0.00524425
0.00456122
0.0040101
0.00312041
0.00135766
0.000715604
0.000454107
0.000927429
0.000586532
0.000841199
0.000520296
0.000497814
0.000825506
0.000571498
0.00114917
0.00077625
0.000755537
0.000772534
0.000818627
0.00109186
0.00190171
0.00368932
1e-15
1e-15
0.00968202
0.00935797
0.00803816
0.0062364
0.00511841
0.0044555
0.00399668
0.00291271
0.00128666
0.000875261
0.000532358
0.000968389
0.000626807
0.000885991
0.000591261
0.000587951
0.000848633
0.000669319
0.00116766
0.000762026
0.000724903
0.000745575
0.000773566
0.000857032
0.00160849
0.00365121
1e-15
1e-15
0.00963342
0.00902897
0.00791925
0.00613378
0.00506204
0.00444089
0.00401169
0.00264488
0.00103489
0.000909325
0.000798587
0.00100718
0.000866168
0.000922823
0.000910518
0.000902804
0.000942564
0.000992875
0.0011191
0.000749829
0.000693246
0.00071791
0.000754002
0.000777579
0.00119851
0.0036522
1e-15
1e-15
0.00985633
0.00898101
0.00785383
0.0060643
0.00505724
0.00446012
0.00412079
0.00248331
0.000810563
0.000862958
0.00056878
0.000965434
0.000561887
0.000904332
0.000788775
0.000826147
0.000993072
0.00086307
0.00102587
0.000718729
0.000658401
0.000689368
0.000728247
0.000743802
0.00110609
0.00357806
1e-15
1e-15
0.011272
0.00953258
0.00778698
0.0060018