/*--------------------------------*- C++ -*----------------------------------*\
| =========                 |                                                 |
| \\      /  F ield         | OpenFOAM: The Open Source CFD Toolbox           |
|  \\    /   O peration     | Version:  2.3.0                                 |
|   \\  /    A nd           | Web:      www.OpenFOAM.org                      |
|    \\/     M anipulation  |                                                 |
\*---------------------------------------------------------------------------*/
FoamFile
{
    version     2.0;
    format      ascii;
    class       volScalarField;
    location    "17";
    object      p;
}
// * * * * * * * * * * * * * * * * * * * * * * * * * * * * * * * * * * * * * //

dimensions      [1 -1 -2 0 0 0 0];

internalField   nonuniform List<scalar> 
1875
(
107150
107142
107119
107098
107080
107062
107043
107025
107008
106992
106979
106970
106967
106972
106985
107001
107019
107038
107056
107072
107086
107096
107104
107108
107110
106958
106946
106935
106925
106914
106900
106884
106867
106848
106829
106814
106804
106803
106810
106821
106837
106853
106871
106886
106902
106918
106931
106942
106950
106952
106823
106817
106813
106807
106798
106788
106776
106762
106747
106733
106721
106713
106714
106724
106738
106753
106770
106786
106801
106814
106824
106831
106837
106841
106844
106715
106713
106709
106704
106695
106685
106674
106662
106652
106643
106636
106632
106632
106638
106647
106657
106669
106681
106692
106703
106712
106720
106726
106730
106734
106617
106618
106617
106612
106604
106597
106590
106583
106578
106573
106570
106570
106572
106575
106579
106583
106588
106594
106600
106606
106611
106616
106622
106626
106629
106517
106518
106519
106515
106508
106500
106493
106487
106483
106480
106479
106479
106481
106484
106486
106488
106490
106493
106498
106503
106508
106514
106521
106529
106530
106410
106411
106413
106410
106405
106399
106393
106387
106382
106379
106376
106374
106373
106373
106373
106374
106375
106378
106383
106389
106399
106412
106425
106434
106433
106289
106291
106289
106289
106285
106279
106273
106266
106259
106254
106251
106248
106246
106243
106241
106239
106241
106248
106258
106269
106283
106298
106312
106324
106321
106151
106150
106149
106152
106150
106145
106136
106127
106118
106111
106104
106101
106104
106107
106109
106112
106117
106122
106127
106133
106140
106153
106168
106178
106180
106003
106000
106000
106003
106004
106000
105993
105979
105967
105961
105955
105950
105951
105959
105977
105998
106014
106016
106012
106002
105993
105996
106011
106026
106031
105869
105866
105862
105862
105864
105862
105856
105847
105841
105837
105834
105831
105835
105843
105862
105887
105904
105899
105891
105884
105878
105877
105884
105893
105899
105755
105754
105750
105748
105750
105751
105752
105751
105749
105747
105748
105748
105748
105749
105757
105772
105789
105785
105773
105766
105760
105755
105756
105758
105760
105655
105653
105649
105647
105644
105646
105652
105660
105663
105661
105660
105660
105659
105661
105664
105669
105670
105657
105641
105630
105620
105610
105607
105607
105610
105568
105568
105566
105561
105557
105557
105562
105568
105572
105572
105570
105568
105567
105566
105564
105561
105547
105527
105507
105488
105474
105468
105465
105467
105471
105481
105481
105488
105487
105482
105481
105481
105484
105484
105481
105475
105471
105467
105463
105457
105445
105427
105407
105386
105370
105362
105356
105357
105360
105364
105373
105374
105381
105388
105387
105379
105374
105377
105377
105374
105369
105366
105362
105356
105350
105341
105324
105302
105283
105273
105268
105265
105270
105274
105278
105258
105259
105262
105267
105268
105265
105261
105261
105260
105259
105260
105260
105259
105257
105255
105246
105232
105219
105206
105197
105193
105196
105201
105207
105211
105148
105148
105150
105151
105154
105154
105153
105152
105153
105152
105153
105156
105159
105161
105162
105161
105155
105149
105145
105142
105144
105150
105156
105159
105162
105039
105039
105039
105038
105041
105040
105038
105036
105036
105034
105035
105038
105042
105048
105054
105059
105059
105061
105069
105080
105089
105099
105101
105100
105099
104932
104931
104929
104927
104926
104926
104924
104921
104920
104918
104916
104917
104921
104929
104940
104948
104953
104959
104971
104985
105001
105011
105008
105007
105006
104832
104831
104828
104824
104822
104823
104825
104826
104824
104823
104822
104823
104823
104829
104840
104849
104855
104859
104868
104878
104888
104891
104892
104892
104892
104741
104740
104738
104738
104737
104737
104740
104743
104743
104741
104739
104738
104739
104740
104745
104751
104755
104757
104761
104766
104770
104770
104771
104773
104773
104652
104652
104652
104653
104654
104656
104657
104656
104656
104653
104650
104648
104646
104645
104645
104646
104646
104645
104645
104647
104646
104648
104650
104651
104651
104556
104557
104559
104561
104563
104563
104562
104560
104557
104554
104551
104548
104545
104543
104541
104539
104534
104530
104525
104525
104524
104526
104528
104530
104531
104453
104454
104455
104458
104460
104459
104457
104453
104450
104447
104445
104442
104438
104435
104432
104430
104426
104421
104411
104405
104408
104410
104414
104416
104418
104341
104342
104343
104345
104346
104345
104343
104339
104337
104336
104335
104333
104329
104326
104324
104321
104319
104316
104311
104307
104309
104312
104316
104319
104321
104219
104220
104220
104219
104217
104215
104215
104214
104215
104219
104223
104223
104221
104220
104218
104217
104219
104223
104225
104225
104227
104229
104230
104231
104231
104091
104090
104087
104082
104077
104076
104078
104083
104092
104100
104108
104113
104115
104115
104116
104118
104124
104131
104136
104140
104142
104142
104141
104140
104139
103972
103971
103966
103959
103953
103952
103955
103962
103972
103985
103995
104003
104007
104010
104013
104017
104024
104030
104036
104041
104044
104043
104042
104041
104040
103870
103868
103864
103859
103857
103857
103859
103863
103869
103878
103887
103894
103899
103903
103907
103912
103917
103922
103927
103931
103933
103933
103933
103933
103932
103775
103774
103772
103769
103768
103768
103768
103770
103774
103779
103784
103789
103793
103797
103800
103804
103807
103811
103814
103816
103818
103818
103819
103819
103818
103682
103681
103680
103679
103678
103678
103677
103677
103679
103681
103683
103685
103687
103689
103691
103693
103695
103697
103698
103699
103700
103701
103701
103702
103702
103588
103587
103587
103587
103588
103588
103588
103587
103584
103582
103581
103581
103580
103580
103580
103580
103580
103581
103581
103582
103583
103584
103584
103585
103586
103488
103488
103488
103490
103492
103493
103493
103491
103485
103480
103477
103474
103472
103470
103469
103468
103466
103465
103466
103466
103468
103469
103470
103471
103472
103384
103384
103384
103385
103388
103391
103392
103390
103383
103376
103369
103365
103363
103361
103360
103358
103356
103355
103356
103356
103357
103359
103360
103361
103362
103274
103275
103274
103274
103276
103279
103280
103277
103272
103265
103260
103256
103254
103254
103253
103252
103251
103251
103251
103251
103252
103253
103254
103255
103255
103160
103161
103159
103156
103154
103154
103154
103153
103152
103149
103147
103147
103147
103148
103149
103148
103149
103149
103149
103149
103150
103150
103151
103151
103151
103035
103034
103031
103026
103023
103022
103022
103024
103028
103033
103038
103041
103043
103044
103045
103046
103047
103047
103047
103047
103048
103048
103048
103048
103049
102910
102907
102902
102896
102895
102896
102899
102903
102910
102920
102929
102935
102939
102941
102942
102944
102945
102945
102946
102946
102946
102945
102946
102946
102946
102808
102805
102800
102794
102792
102792
102796
102801
102809
102819
102827
102833
102836
102838
102839
102841
102843
102843
102844
102844
102843
102843
102843
102843
102843
102725
102722
102719
102715
102713
102711
102712
102716
102721
102726
102731
102735
102736
102737
102738
102740
102741
102741
102742
102741
102741
102741
102741
102741
102741
102643
102642
102640
102637
102634
102631
102631
102632
102633
102634
102636
102636
102636
102636
102637
102638
102639
102640
102640
102640
102639
102639
102639
102639
102639
102556
102555
102555
102552
102549
102545
102543
102541
102539
102538
102537
102536
102536
102536
102536
102537
102538
102538
102538
102538
102537
102537
102537
102537
102537
102461
102461
102461
102459
102455
102451
102447
102442
102439
102436
102435
102434
102433
102433
102433
102434
102434
102435
102435
102434
102434
102434
102433
102433
102434
102356
102356
102357
102355
102352
102348
102343
102339
102335
102332
102330
102329
102328
102328
102328
102328
102328
102328
102328
102328
102328
102328
102328
102328
102328
102248
102248
102248
102247
102244
102241
102237
102233
102230
102227
102225
102223
102222
102222
102221
102221
102221
102221
102221
102221
102221
102221
102222
102222
102222
102139
102140
102139
102138
102136
102133
102131
102128
102125
102123
102121
102119
102117
102115
102114
102114
102114
102114
102114
102114
102115
102115
102115
102116
102116
102032
102032
102031
102031
102029
102027
102025
102023
102021
102019
102017
102014
102012
102011
102010
102009
102009
102008
102009
102009
102010
102010
102011
102011
102011
101925
101925
101924
101924
101923
101922
101920
101919
101917
101916
101914
101912
101910
101909
101908
101907
101906
101906
101906
101906
101906
101907
101907
101907
101908
101817
101817
101817
101817
101817
101816
101816
101815
101814
101813
101812
101811
101809
101808
101807
101806
101805
101804
101804
101804
101804
101804
101804
101804
101804
101707
101707
101708
101709
101710
101710
101711
101711
101710
101710
101709
101708
101707
101706
101705
101703
101703
101702
101702
101702
101702
101702
101701
101701
101702
101597
101597
101599
101600
101602
101604
101604
101605
101605
101605
101604
101604
101603
101602
101600
101600
101599
101599
101599
101599
101599
101598
101598
101598
101598
101489
101488
101490
101491
101494
101495
101496
101497
101497
101498
101497
101497
101496
101496
101495
101495
101496
101496
101496
101496
101496
101495
101495
101495
101495
101382
101382
101383
101384
101386
101388
101389
101390
101391
101391
101391
101391
101391
101391
101392
101392
101392
101393
101393
101393
101392
101391
101391
101391
101391
101278
101277
101278
101279
101280
101283
101285
101286
101287
101287
101287
101288
101288
101288
101289
101289
101289
101289
101289
101289
101288
101287
101287
101287
101286
101177
101176
101176
101176
101177
101179
101182
101184
101184
101184
101185
101185
101185
101186
101186
101186
101186
101186
101185
101185
101184
101183
101183
101182
101182
101079
101079
101077
101077
101077
101079
101080
101082
101082
101082
101082
101082
101082
101082
101082
101082
101082
101082
101081
101081
101080
101080
101080
101079
101080
100983
100982
100981
100979
100978
100978
100979
100979
100979
100978
100978
100977
100976
100977
100977
100977
100977
100977
100977
100977
100977
100976
100977
100977
100978
100883
100883
100881
100879
100876
100874
100874
100873
100873
100872
100871
100870
100870
100869
100869
100870
100871
100871
100871
100871
100870
100871
100872
100872
100873
100779
100780
100778
100774
100769
100766
100764
100763
100763
100762
100760
100758
100757
100758
100760
100762
100763
100764
100764
100764
100764
100765
100766
100766
100766
100672
100672
100670
100666
100661
100656
100652
100651
100650
100648
100646
100644
100644
100645
100647
100650
100652
100655
100656
100658
100660
100661
100662
100662
100662
100560
100559
100558
100556
100552
100546
100542
100541
100540
100537
100534
100533
100531
100531
100533
100536
100541
100545
100549
100552
100555
100557
100558
100559
100559
100448
100447
100448
100447
100444
100441
100437
100432
100430
100428
100425
100421
100420
100420
100421
100423
100429
100436
100442
100447
100451
100454
100456
100456
100457
100342
100339
100341
100341
100341
100339
100335
100330
100326
100323
100319
100316
100315
100316
100318
100321
100327
100333
100340
100345
100349
100353
100355
100356
100357
100254
100253
100253
100254
100255
100254
100252
100247
100243
100240
100237
100235
100234
100234
100234
100235
100236
100239
100244
100249
100253
100256
100258
100259
100260
100140
100137
100139
100143
100148
100152
100153
100151
100149
100145
100143
100141
100138
100137
100137
100137
100139
100141
100144
100149
100153
100155
100156
100156
100157
100096
100095
100098
100098
100098
100098
100096
100092
100087
100081
100075
100064
100054
100048
100045
100044
100045
100047
100049
100052
100056
100058
100058
100058
100058
100013
100014
100014
100015
100014
100014
100013
100013
100012
100010
100008
100006
100005
100006
100006
100006
100006
100006
100007
100007
100007
100008
100008
100008
100008
100001
100001
100001
100001
100001
100001
100001
100001
100001
100001
100001
100001
100001
100001
100001
100001
100001
100001
100001
100001
100001
100001
100001
100001
100001
100001
100001
100001
100001
100001
100001
100001
100001
100001
100001
100001
100001
100001
100001
100001
100001
100001
100001
100001
100001
100001
100001
100001
100001
100001
100001
100001
100001
100001
100001
100001
100001
100001
100001
100001
100001
100001
100001
100001
100001
100001
100001
100001
100001
100001
100001
100001
100001
100001
100001
100001
100001
100001
100001
100001
100001
100001
100001
100001
100001
100001
100001
100001
100001
100001
100001
100001
100001
100001
100001
100001
100001
100001
100001
100001
100000
100000
100000
100000
100000
100000
100000
100000
100000
100000
100000
100000
100000
100000
100000
100000
100000
100000
100000
100000
100000
100000
100000
100000
100000
100000
100000
100000
100000
100000
100000
100000
100000
100000
100000
100000
100000
100000
100000
100000
100000
100000
100000
100000
100000
100000
100000
100000
100000
100000
100000
100000
100000
100000
100000
100000
100000
100000
100000
100000
100000
100000
100000
100000
100000
100000
100000
100000
100000
100000
100000
100000
100000
100000
100000
)
;

boundaryField
{
    inlet
    {
        type            fixedFluxPressure;
        gradient        nonuniform List<scalar> 
25
(
932.702
928.35
1017.96
1104.05
1183.21
1245.57
1292.06
1333.67
1368.33
1402.74
1443.82
1565.33
1367.27
1308.65
1560.27
1585.3
1576.64
1545.54
1491.71
1435.54
1415.42
1421.38
1507.33
1577.12
1633.21
)
;
        value           nonuniform List<scalar> 
25
(
107156
107149
107125
107105
107087
107070
107052
107034
107017
107001
106989
106981
106976
106981
106995
107012
107030
107048
107065
107081
107095
107106
107114
107119
107121
)
;
    }
    outlet
    {
        type            fixedValue;
        value           uniform 100000;
    }
    walls
    {
        type            fixedFluxPressure;
        gradient        uniform 0;
        value           nonuniform List<scalar> 
150
(
107150
106958
106823
106715
106617
106517
106410
106289
106151
106003
105869
105755
105655
105568
105481
105373
105258
105148
105039
104932
104832
104741
104652
104556
104453
104341
104219
104091
103972
103870
103775
103682
103588
103488
103384
103274
103160
103035
102910
102808
102725
102643
102556
102461
102356
102248
102139
102032
101925
101817
101707
101597
101489
101382
101278
101177
101079
100983
100883
100779
100672
100560
100448
100342
100254
100140
100096
100013
100001
100001
100001
100001
100000
100000
100000
107110
106952
106844
106734
106629
106530
106433
106321
106180
106031
105899
105760
105610
105471
105364
105278
105211
105162
105099
105006
104892
104773
104651
104531
104418
104321
104231
104139
104040
103932
103818
103702
103586
103472
103362
103255
103151
103049
102946
102843
102741
102639
102537
102434
102328
102222
102116
102011
101908
101804
101702
101598
101495
101391
101286
101182
101080
100978
100873
100766
100662
100559
100457
100357
100260
100157
100058
100008
100001
100001
100001
100001
100000
100000
100000
)
;
    }
    defaultFaces
    {
        type            empty;
    }
}


// ************************************************************************* //
