/*--------------------------------*- C++ -*----------------------------------*\
| =========                 |                                                 |
| \\      /  F ield         | OpenFOAM: The Open Source CFD Toolbox           |
|  \\    /   O peration     | Version:  2.3.0                                 |
|   \\  /    A nd           | Web:      www.OpenFOAM.org                      |
|    \\/     M anipulation  |                                                 |
\*---------------------------------------------------------------------------*/
FoamFile
{
    version     2.0;
    format      ascii;
    class       volScalarField;
    location    "17";
    object      rhom;
}
// * * * * * * * * * * * * * * * * * * * * * * * * * * * * * * * * * * * * * //

dimensions      [1 -3 0 0 0 0 0];

internalField   nonuniform List<scalar> 
1875
(
950.32
949.275
945.205
937.878
930.068
923.988
919.348
915.392
912.078
908.957
905.296
904.446
902.305
898.044
894.914
893.908
894.959
897.887
903.083
908.457
909.081
904.715
884.56
866.222
874.574
967.446
967.439
967.481
967.473
967.14
964.77
960.46
954.607
947.738
938.772
926.357
907.419
884.34
870.911
874.845
880.584
887.246
894.265
902.791
911.085
921.131
928.446
932.675
932.067
911.146
967.409
967.446
958.338
947.408
939.335
932.781
922.521
910.676
900.99
886.972
852.856
852.847
852.951
853.018
853.282
862.077
875.81
889.53
901.438
911.402
924.141
933.965
934.844
932.723
911.753
967.409
955.787
922.554
903.204
891.806
880.853
868.168
858.326
852.962
852.991
852.933
852.953
853.017
853.119
859.701
872.777
886.163
897.137
907.396
920.18
934.249
940.205
935.997
933.32
923.104
951.38
947.196
904.412
876.942
864.058
858.754
857.389
857.37
859.527
862.726
866.001
868.734
871.049
874.301
882.333
891.473
900.68
910.108
921.285
933.86
941.522
940.128
934.353
933.188
936.207
944.123
948.986
909.88
879.349
865.201
860.176
863.702
874.003
884.258
892.705
899.071
903.552
906.11
907.768
910.208
913.647
919.509
928.044
935.583
940.874
941.382
937.547
933.274
933.628
940.473
945.432
949.161
927.608
886.628
869.836
867.72
880.531
900.061
914.344
924.839
933.154
937.848
938.889
937.918
935.393
934.282
937.425
941.987
942.664
942.373
939.098
937.069
936.935
940.717
946.811
949.534
949.346
947.686
901.823
876.634
878.374
896.639
922.993
942.213
952.451
957.572
959.337
959.748
959.102
954.846
947.976
942.71
940.5
942.334
940.064
939.552
943.201
951.791
956.079
957.222
951.416
944.694
947.611
919.415
886.102
887.577
907.734
931.408
945.408
949.961
952.819
956.842
962.191
963.691
963.166
953.786
941.981
939.892
939.87
939.14
942.027
953.862
960.87
962.484
962.464
951.45
927.624
941.498
933.858
901.039
894.514
905.672
926.368
938.279
932.29
922.604
922.782
939.329
957.198
965.881
966.386
953.028
941.301
936.348
933.074
932.12
948.481
960.577
962.508
962.521
951.612
918.928
900.852
924.05
913.894
901.938
904.202
915.328
926.291
922.154
895.737
857.874
852.641
891.33
951.889
967.156
967.008
950.114
936.737
931.212
931.266
943.033
960.654
962.574
962.647
951.687
921.606
848.608
869.2
904.222
900.583
901.694
906.564
911.767
909.811
897.718
866.684
852.99
852.64
867.654
939.811
967.156
963.246
938.156
932.632
937.663
949.341
959.425
961.408
962.802
951.699
941.653
847.13
845.615
857.632
886.899
894.178
901.683
910.471
910.03
903.544
881.956
859.925
861.858
866.884
891.643
967.007
958.865
939.832
938.955
939.643
937.83
938.652
948.077
961.507
951.684
951.611
884.061
847.13
845.649
870.005
891.346
904.133
914.809
914.481
911.222
898.56
884.959
891.752
898.726
906.507
956.983
949.67
936.826
932.386
896.812
870.176
891.528
932.636
949.685
950.514
951.252
931.313
863.192
847.129
872.01
896.447
910.066
922.298
921.885
920.482
918.119
920.539
925.471
920.895
913.238
939.359
939.453
927.898
887.62
859.572
864.192
860.322
918.848
943.766
943.442
940.563
944.684
901.407
858.777
867.783
895.232
922.911
935.705
936.771
936.902
931.206
928.71
935.113
932.679
920.198
925.151
922.808
900.029
860.808
864.368
859.822
864.766
912.465
940.438
937.659
929.104
944.428
931.613
880.551
869.077
886.216
927.952
941.716
941.767
934.564
927.394
933.677
946.012
944.579
933.529
928.486
921.051
885.206
864.832
860.009
864.766
872.156
917.881
936.925
935.392
925.917
932.618
932.701
901.383
872.566
879.929
926.332
941.767
933.876
926.765
926.58
940.998
959.026
957.692
950.113
940.039
928.678
901.018
868.056
864.832
864.148
895.858
921.479
933.142
935.219
925.897
918.484
929.156
916.179
881.029
875.285
913.728
937.095
920.351
914.702
926.563
947.92
962.069
962.288
962.321
955.851
943.627
921.712
884.371
870.881
882.647
919.774
920.973
931.765
935.614
928.138
914.503
916.641
913.816
890.903
872.549
892.325
919.12
904.252
894.037
912.201
943.336
961.531
963.092
962.288
961.681
946.237
916.853
885.977
887.691
916.197
930.198
917.557
936.525
935.63
929.111
914.4
903.178
903.024
888.087
869.872
876.021
893.563
891.86
891.759
893.146
907.187
939.809
962.287
963.2
961.349
940.78
905.219
892.293
912.137
931.44
930.465
911.645
940.127
935.651
928.179
916.957
902.211
896.022
881.42
869.777
875.102
886.603
892.984
895.752
896.297
900.836
913.477
943.716
962.287
959.22
932.299
903.96
905.635
931.307
931.362
915.16
911.435
940.556
935.794
929.16
925.422
908.338
899.964
884.993
874.278
879.452
889.826
900.367
906.603
906.951
908.859
915.975
931.259
956.959
952.861
919.556
901.646
918.338
929.783
922.177
900.446
912.483
939.407
935.76
930.199
934.197
921.169
909.267
898.219
889.754
893.174
902.312
916.348
924.075
924.568
924.179
925.468
934.915
953.434
940.264
901.619
887.477
893.017
892.277
886.723
896.56
915.098
938.644
937.017
930.415
937.703
936.88
926.341
914.49
908.282
910.208
920.789
937.304
941.438
940.428
936.553
934.905
941.408
950.877
928.709
888.741
885.418
887.476
885.358
887.476
899.061
916.651
937.709
937.471
931.093
937.902
942.444
941.675
933.429
923.012
921.343
927.456
942.927
951.985
950.858
944.133
941.94
948.381
948.008
923.449
888.547
887.476
885.46
887.476
887.127
905.617
916.487
935.631
937.673
934.815
937.533
942.4
941.999
941.447
935.796
927.519
928.825
941.42
952.897
952.962
949.861
946.554
948.81
942.937
917.783
889.733
886.981
887.476
887.292
898.185
912.574
914.287
934.684
939.09
938.78
939.198
937.131
927.461
916.114
915.611
917.226
925.678
939.096
952.453
953.721
952.961
949.855
947.838
932.486
910.653
892.707
889.932
891.062
896.471
914.314
913.661
914.373
937.737
939.37
939.938
939.884
922.233
891.658
888.252
885.477
888.252
916.422
938.555
953.446
952.961
953.331
951.967
942.935
925.381
909.181
897.778
896.121
901.132
914.769
918.657
913.52
919.78
940.148
937.88
939.979
930.362
899.895
888.251
886.481
888.251
885.485
900.175
939.498
952.961
954.551
952.961
952.547
942.634
926.227
912.823
907.055
907.123
915.784
921.093
918.856
914.812
927.282
940.014
934.304
931.097
923.684
898.718
887.864
888.251
886.862
888.251
891.831
936.953
954.207
952.961
953.753
952.877
946.262
933.4
923.376
920.248
920.809
921.639
921.288
915.045
919.2
931.815
939.344
932.425
918.357
924.812
910.143
892.638
888.111
888.251
887.58
893.804
934.515
952.96
954.526
952.96
952.949
951.614
943.96
933.423
926.348
922.906
921.728
916.398
913.75
923.065
933.296
938.408
932.632
908.212
925.008
924.682
904.607
892.448
889.184
888.251
893.571
931.059
952.679
952.96
953.763
952.96
952.386
945.897
933.603
924.298
918.511
913.328
910.601
913.813
923.83
933.899
936.983
936.748
900.553
923.186
932.677
922.836
903.001
894.577
891.786
892.242
922.793
950.216
954.408
952.96
952.964
952.051
943.522
928.18
915.087
909.313
906.7
908.213
913.33
923.242
934.176
935.68
942.567
900.427
910.88
932.894
938.378
922.493
905.845
898.848
893.746
906.611
942.233
952.96
953.618
952.889
950.966
936.986
914.59
899.71
898.144
903.727
905.706
912.653
922.242
934.287
934.897
946.424
907.622
907.337
922.323
940.873
942.381
927.803
911.066
899.793
898.046
919.404
948.707
952.959
952.803
951.283
930.893
900.385
897.694
897.611
900.898
904.326
913.28
921.602
934.405
934.237
949.211
923.153
914.889
917.295
930.032
942.31
941.689
927.047
909.836
897.998
896.724
925.124
946.833
952.864
951.532
926.685
897.92
897.89
897.693
898.594
905.716
915.413
921.963
934.791
933.766
952.03
938.853
930.142
921.544
905.795
897.815
909.874
920.357
909.397
897.656
896.129
906.494
932.161
952.056
949.848
920.547
898.279
899.006
897.67
899.076
909.328
917.797
923.349
935.014
933.855
953.912
949.408
937.434
913.041
884.857
889.012
884.875
889.491
901.216
896.907
896.549
907.692
929.766
946.84
942.039
911.682
899.548
899.453
897.865
902.287
914.127
919.393
925.249
935.004
935.88
954.34
952.674
927.319
888.181
889.011
884.875
889.011
886.547
890.061
898.294
901.503
915.033
930.881
937.53
926.656
905.721
901.623
899.833
899.907
908.568
917.498
920.219
926.597
934.681
939.49
954.393
945.781
909.459
889.011
887.266
889.011
887.045
889.011
891.893
904.93
913.367
924.846
929.431
925.641
913.072
905.53
903.584
901.351
905.307
915.521
918.924
920.713
927.238
934.071
943.342
954.735
940.863
908.474
891.051
889.011
888.002
889.011
889.892
901.209
916.404
923.373
925.004
925.316
915.289
907.982
906.422
905.834
905.755
912.818
919.906
919.797
921.359
927.555
933.668
946.281
954.951
938.767
911.324
894.672
889.416
889.01
889.234
896.328
911.857
921.88
924.586
924.638
918.426
910.393
908.573
908.482
909.405
912.808
919.779
921.499
921.464
923.41
927.832
933.319
948.009
954.808
938.072
916.217
898.521
891.83
890.337
890.394
899.191
911.938
920.425
922.365
920.631
913.408
910.634
910.447
912.128
915.156
920.392
924.343
923.994
924.61
926.445
928.311
932.758
948.63
950.96
937.218
922.978
902.114
894.277
891.877
891.027
897.709
908.659
914.841
915.786
913.931
911.317
911.613
913.76
917.232
921.334
925.321
926.996
927.103
927.734
928.03
928.021
932.137
948.716
947.347
935.198
931.197
905.405
894.978
891.526
890.533
895.031
902.647
906.935
908.309
909.244
911.095
913.463
917.742
921.493
924.939
927.05
927.94
927.991
927.966
927.82
927.771
932.029
948.627
944.685
935.144
936.561
909.582
895.374
890.8
890.504
893.975
899.159
902.616
904.994
907.835
911.002
914.656
917.795
921.262
924.435
926.13
925.864
924.902
925.666
926.08
926.478
931.698
948.326
942.161
935.425
937.368
915.553
896.316
890.749
890.694
894.453
899.147
902.474
904.849
907.582
910.944
914.313
917.263
920.78
923.169
921.975
919.163
918.85
921.416
922.053
923.203
930.032
947.219
939.856
936.376
937.365
923.49
898.792
891.385
891.723
896.411
900.6
903.504
905.562
908.044
911.31
914.507
917.669
920.352
919.191
913.408
910.564
913.375
918.624
918.853
919.08
926.402
945.151
937.204
937.344
937.368
931.404
903.564
893.813
894.413
900.217
904.684
906.949
908.292
910.409
913.308
916.013
917.757
916.426
908.8
905.533
906.428
911.575
918.178
917.982
915.966
922.004
942.913
933.831
936.013
936.395
933.952
911.067
898.295
899.373
906.457
911.423
912.971
913.671
915.011
916.871
917.003
914.847
905.756
905.523
905.604
906.595
912.167
919.205
918.764
914.272
918.598
941.428
931.161
931.161
931.113
933.737
921.15
904.746
905.259
915.192
920.137
920.647
920.165
919.438
917.993
916.254
905.738
905.493
905.603
906.259
908.813
914.232
920.516
919.487
911.645
917.162
940.542
929.787
920.704
924.223
932.484
928.3
913.162
910.657
922.515
927.918
927.9
923.331
919.494
916.455
910.011
905.497
905.603
906.192
908.874
912.327
916.825
920.95
915.946
908.933
917.816
938.934
928.612
909.176
917.973
929.1
928.466
921.5
915.724
924.315
929.698
929.485
923.024
917.675
912.2
905.621
905.603
906.427
909.355
912.73
915.197
918.267
920.901
908.932
908.603
919.242
935.629
927.824
900.586
906.912
922.893
926.922
923.817
919.938
925.337
929.93
929.302
923.093
917.244
910.972
905.866
907.33
910.685
914.462
915.9
915.929
916.813
918.391
908.501
908.932
920.49
931.248
927.745
895.824
890.918
911.863
922.96
923.395
922.531
926.744
930.367
930.01
924.137
918.525
913.342
911.455
914.419
917.656
917.729
915.389
913.195
915.426
915.059
908.932
908.865
921.025
928.75
929.186
896.828
890.7
897.49
917.275
922.313
924.949
928.812
930.555
930.366
927.299
923.39
921.671
921.908
922.751
921.88
915.88
909.809
912.495
915.172
911.953
908.612
910.174
920.516
928.672
932.735
899.76
890.713
892.475
912.775
922.734
927.32
930.413
930.366
930.515
930.366
929.474
929.606
929.692
922.826
913.08
909.26
909.215
912.271
915.045
912.196
908.931
910.543
920.438
928.925
936.521
903.831
892.715
892.286
909.285
923.173
928.933
930.366
930.957
930.366
930.442
930.366
930.146
919.798
911.805
908.394
908.343
910.892
915.377
915.008
910.099
908.656
910.538
920.603
928.924
937.42
909.972
896.969
892.651
903.901
921.697
928.566
930.718
930.365
931.121
930.365
924.377
913.078
909.891
907.899
908.678
910.81
914.517
918.795
915.661
908.875
908.93
910.443
922.216
928.951
937.544
918.422
902.502
894.189
895.826
915.758
926.609
930.365
931.49
930.365
912.552
888.458
887.185
896.193
907.928
911.769
915.781
917.871
919.144
916.039
911.441
910.503
911.929
922.674
928.996
937.553
925.491
908.97
897.648
895.548
902.431
919.805
930.856
930.365
918.596
885.449
887.185
884.639
887.185
896.306
912.686
918.23
920.196
920.239
917.346
915.651
914.488
915.171
922.933
928.984
937.603
922.032
910.478
901.171
895.884
895.724
903.533
921.012
927.232
894.461
887.184
884.707
887.184
884.647
887.184
901.109
916.796
921.631
921.917
920.552
920.882
920.399
919.76
923.467
928.525
937.647
908.877
908.135
905.752
899.076
896.964
894.446
900.166
903.927
887.184
886.008
887.184
885.726
887.184
885.435
887.184
905.205
921.133
923.636
923.773
923.912
924.055
924.199
925.044
928.471
931.166
906.563
903.688
903.744
899.722
897.049
894.144
890.514
887.454
886.747
887.183
886.878
887.183
886.932
887.183
887.051
888.458
900.162
919.276
923.699
923.854
924.025
924.196
925.247
928.395
933.923
912.339
908.426
910.212
909.201
907.357
905.188
901.69
898.283
897.939
898.374
897.654
895.514
893.5
892.217
890.189
888.291
891.643
907.001
923.097
923.72
923.853
923.065
923.479
928.309
933.923
933.923
933.923
933.923
933.923
933.923
933.923
933.924
933.924
933.924
929.774
920.549
905.036
887.793
871.286
857.197
842.654
832.965
838.051
854.985
874.942
884.422
883.957
889.04
898.553
773.746
771.485
758.707
771.878
772.726
773.447
773.636
773.447
772.757
763.178
732.984
689.237
653.39
631.963
622.048
618.205
616.301
618.169
625.198
640.048
658.028
665.47
669.284
664.763
662.193
524.726
524.159
525.621
527.393
527.184
527.351
527.27
526.958
525.973
523.519
520.607
518.61
518.661
519.3
519.718
520.052
520.561
521.281
521.898
522.418
523.466
524.006
523.999
523.612
523.859
514.573
514.694
514.773
514.689
514.606
514.569
514.557
514.56
514.577
514.591
514.588
514.593
514.617
514.617
514.605
514.597
514.597
514.601
514.61
514.618
514.629
514.644
514.642
514.683
514.73
514.543
514.545
514.551
514.571
514.61
514.643
514.662
514.684
514.693
514.7
514.705
514.708
514.71
514.71
514.707
514.699
514.685
514.668
514.636
514.586
514.556
514.549
514.553
514.551
514.545
514.543
514.549
514.572
514.635
514.68
514.694
514.7
514.703
514.703
514.711
514.713
514.714
514.714
514.714
514.714
514.714
514.713
514.707
514.682
514.611
514.563
514.552
514.559
514.555
514.544
514.544
514.552
514.586
514.66
514.685
514.687
514.677
514.669
514.68
514.706
514.713
514.714
514.714
514.714
514.714
514.713
514.705
514.698
514.67
514.601
514.56
514.552
514.563
514.56
514.547
514.547
514.561
514.608
514.666
514.682
514.678
514.653
514.649
514.675
514.705
514.713
514.714
514.714
514.714
514.714
514.713
514.684
514.655
514.622
514.575
514.552
514.553
514.571
514.565
514.55
514.562
514.6
514.645
514.671
514.676
514.665
514.648
514.674
514.707
514.714
514.714
514.714
514.714
514.714
514.714
514.714
514.711
514.644
514.593
514.563
514.558
514.578
514.604
514.588
514.567
)
;

boundaryField
{
    inlet
    {
        type            calculated;
        value           nonuniform List<scalar> 
25
(
770.947
770.947
770.947
770.947
770.947
770.947
770.947
770.947
770.946
770.946
770.946
770.946
770.946
770.946
770.946
770.946
770.946
770.947
770.947
770.947
770.947
770.947
770.947
770.947
770.947
)
;
    }
    outlet
    {
        type            calculated;
        value           nonuniform List<scalar> 
25
(
514.564
514.603
514.647
514.67
514.676
514.665
514.648
514.714
514.714
514.714
514.714
514.714
514.714
514.714
514.714
514.714
514.714
514.643
514.591
514.562
514.559
514.581
514.607
514.59
514.569
)
;
    }
    walls
    {
        type            calculated;
        value           nonuniform List<scalar> 
150
(
950.32
967.446
967.409
967.409
951.38
944.123
945.432
949.534
951.416
951.45
951.612
951.687
951.699
951.684
950.514
943.442
937.659
935.392
935.219
935.614
935.63
935.651
935.794
935.76
937.017
937.471
937.673
939.09
939.37
937.88
934.304
932.425
932.632
936.748
942.567
946.424
949.211
952.03
953.912
954.34
954.393
954.735
954.951
954.808
950.96
947.347
944.685
942.161
939.856
937.204
933.831
931.161
929.787
928.612
927.824
927.745
929.186
932.735
936.521
937.42
937.544
937.553
937.603
937.647
931.166
933.923
933.923
773.746
524.726
514.573
514.543
514.543
514.544
514.547
514.562
874.574
911.146
911.753
923.104
936.207
940.473
946.811
957.222
962.464
962.521
962.647
962.802
961.507
949.685
943.766
940.438
936.925
933.142
931.765
936.525
940.127
940.556
939.407
938.644
937.709
935.631
934.684
937.737
940.148
940.014
939.344
938.408
936.983
935.68
934.897
934.237
933.766
933.855
935.88
939.49
943.342
946.281
948.009
948.63
948.716
948.627
948.326
947.219
945.151
942.913
941.428
940.542
938.934
935.629
931.248
928.75
928.672
928.925
928.924
928.951
928.996
928.984
928.525
928.471
928.395
928.309
898.553
662.193
523.859
514.73
514.545
514.544
514.547
514.55
514.567
)
;
    }
    defaultFaces
    {
        type            empty;
    }
}


// ************************************************************************* //
