/*--------------------------------*- C++ -*----------------------------------*\
| =========                 |                                                 |
| \\      /  F ield         | OpenFOAM: The Open Source CFD Toolbox           |
|  \\    /   O peration     | Version:  2.3.0                                 |
|   \\  /    A nd           | Web:      www.OpenFOAM.org                      |
|    \\/     M anipulation  |                                                 |
\*---------------------------------------------------------------------------*/
FoamFile
{
    version     2.0;
    format      ascii;
    class       volVectorField;
    location    "17";
    object      U;
}
// * * * * * * * * * * * * * * * * * * * * * * * * * * * * * * * * * * * * * //

dimensions      [0 1 -1 0 0 0 0];

internalField   nonuniform List<vector> 
1875
(
(0.107883 -0.247734 0)
(0.156374 -0.223086 0)
(0.255086 -0.188005 0)
(0.32364 -0.161485 0)
(0.37295 -0.149276 0)
(0.420016 -0.139055 0)
(0.462332 -0.134317 0)
(0.510965 -0.128302 0)
(0.540954 -0.124151 0)
(0.583328 -0.116268 0)
(0.599918 -0.10645 0)
(0.620065 -0.0975248 0)
(0.617926 -0.0857282 0)
(0.597222 -0.0800311 0)
(0.564812 -0.0799401 0)
(0.521221 -0.0644159 0)
(0.47393 -0.0660032 0)
(0.427787 -0.0445057 0)
(0.371116 -0.0415227 0)
(0.329931 -0.0199016 0)
(0.261917 -0.00717442 0)
(0.224262 0.00893592 0)
(0.155225 0.0744242 0)
(0.0873331 0.0570973 0)
(0.0232519 0.00527754 0)
(0.0234842 -0.290307 0)
(0.0865427 -0.187992 0)
(0.118975 -0.0847055 0)
(0.147643 -0.0337686 0)
(0.169455 -0.0279882 0)
(0.197346 -0.0200674 0)
(0.230408 -0.00995515 0)
(0.261329 0.00123218 0)
(0.291729 0.0164646 0)
(0.326285 0.045833 0)
(0.346936 0.0789664 0)
(0.364576 0.144973 0)
(0.369167 0.218336 0)
(0.342658 0.270751 0)
(0.316716 0.298305 0)
(0.280112 0.31073 0)
(0.241891 0.313122 0)
(0.204864 0.306931 0)
(0.166105 0.300837 0)
(0.150395 0.295076 0)
(0.099143 0.280853 0)
(0.0836188 0.262308 0)
(0.0558312 0.267116 0)
(0.0526213 0.267249 0)
(0.00836923 0.292969 0)
(0.0115588 -0.400777 0)
(0.028952 -0.273903 0)
(0.0259331 -0.18569 0)
(0.0256245 -0.172975 0)
(0.0376622 -0.176229 0)
(0.0338565 -0.178502 0)
(0.0389658 -0.180356 0)
(0.0373279 -0.177292 0)
(0.0400987 -0.171103 0)
(0.0431649 -0.150973 0)
(0.0470882 -0.105649 0)
(0.0483994 -0.0607561 0)
(0.0753684 0.0269081 0)
(0.0860079 0.117653 0)
(0.0921856 0.176492 0)
(0.0912072 0.216859 0)
(0.0913332 0.234259 0)
(0.0766432 0.233304 0)
(0.0675377 0.242792 0)
(0.0471338 0.265236 0)
(0.0315775 0.257542 0)
(0.0201149 0.249823 0)
(0.00642818 0.260806 0)
(-0.00452594 0.264453 0)
(-0.0193549 0.259738 0)
(-0.0068455 -0.40232 0)
(-0.0205481 -0.214637 0)
(-0.037995 -0.115789 0)
(-0.0775718 -0.0901731 0)
(-0.0940943 -0.0731892 0)
(-0.128296 -0.0576822 0)
(-0.150159 -0.0567752 0)
(-0.174121 -0.0512965 0)
(-0.193208 -0.0415536 0)
(-0.211501 -0.0238147 0)
(-0.222768 0.0135163 0)
(-0.232725 0.0583384 0)
(-0.234201 0.115304 0)
(-0.222952 0.166844 0)
(-0.199566 0.214988 0)
(-0.177888 0.242179 0)
(-0.14996 0.263253 0)
(-0.131108 0.275922 0)
(-0.115438 0.281201 0)
(-0.0903085 0.28348 0)
(-0.0680964 0.259304 0)
(-0.0533072 0.256203 0)
(-0.0388974 0.264981 0)
(-0.0414249 0.277428 0)
(-0.025882 0.19175 0)
(-0.00330806 -0.353937 0)
(-0.0265629 -0.184606 0)
(-0.0326277 -0.0582137 0)
(-0.114409 -0.0472761 0)
(-0.151085 -0.0445705 0)
(-0.2013 -0.0406551 0)
(-0.235037 -0.0487583 0)
(-0.263665 -0.0505402 0)
(-0.286682 -0.0496825 0)
(-0.303844 -0.0439456 0)
(-0.312484 -0.0257137 0)
(-0.30943 0.00539179 0)
(-0.29477 0.0433513 0)
(-0.273049 0.0852042 0)
(-0.249547 0.124555 0)
(-0.224254 0.157999 0)
(-0.197171 0.18739 0)
(-0.17227 0.199632 0)
(-0.141283 0.214028 0)
(-0.113208 0.203723 0)
(-0.088957 0.20555 0)
(-0.0671104 0.218957 0)
(-0.0457824 0.246774 0)
(-0.0482243 0.263902 0)
(-0.0137587 0.112817 0)
(0.00160693 -0.33631 0)
(-0.00882172 -0.175587 0)
(0.00689017 0.0578099 0)
(-0.0478694 0.146134 0)
(-0.120886 0.123719 0)
(-0.171922 0.100793 0)
(-0.219605 0.0586149 0)
(-0.244984 0.0310265 0)
(-0.262846 0.0128167 0)
(-0.270979 0.00127444 0)
(-0.27076 -0.00726537 0)
(-0.259773 -0.0093995 0)
(-0.242561 0.0100354 0)
(-0.218428 0.038809 0)
(-0.192598 0.0719189 0)
(-0.170622 0.101281 0)
(-0.147646 0.118523 0)
(-0.12555 0.127394 0)
(-0.101431 0.13984 0)
(-0.0984159 0.149294 0)
(-0.0887705 0.150745 0)
(-0.0878064 0.167371 0)
(-0.0709653 0.211567 0)
(-0.0539907 0.218095 0)
(-0.0193132 0.0453926 0)
(0.00851707 -0.332096 0)
(0.00963266 -0.18378 0)
(0.0331531 0.0216001 0)
(0.0175564 0.238963 0)
(-0.0427464 0.240429 0)
(-0.0824238 0.20305 0)
(-0.145352 0.125204 0)
(-0.183327 0.0769684 0)
(-0.20004 0.0220047 0)
(-0.224695 0.000528701 0)
(-0.223146 -0.0280313 0)
(-0.215016 -0.0383423 0)
(-0.192305 -0.0368091 0)
(-0.159815 -0.0191155 0)
(-0.128731 0.018675 0)
(-0.102647 0.0612101 0)
(-0.0843631 0.0894834 0)
(-0.0842139 0.104297 0)
(-0.0885501 0.136722 0)
(-0.106143 0.171297 0)
(-0.13192 0.168129 0)
(-0.151013 0.182237 0)
(-0.143326 0.198436 0)
(-0.0751942 0.12593 0)
(-0.0354025 -0.0301011 0)
(0.0214209 -0.377178 0)
(0.0502513 -0.209777 0)
(0.0464245 0.00205074 0)
(0.0728287 0.320033 0)
(-0.00272704 0.337808 0)
(-0.0486657 0.312928 0)
(-0.104298 0.27487 0)
(-0.15216 0.136363 0)
(-0.21481 0.0918382 0)
(-0.229723 0.0363383 0)
(-0.256024 -0.0344041 0)
(-0.252126 -0.0805879 0)
(-0.245065 -0.113933 0)
(-0.214517 -0.117813 0)
(-0.178981 -0.0804745 0)
(-0.137191 -0.0142243 0)
(-0.119897 0.067906 0)
(-0.149811 0.119316 0)
(-0.183046 0.1792 0)
(-0.218437 0.256249 0)
(-0.254133 0.267214 0)
(-0.266918 0.219909 0)
(-0.190458 0.0631865 0)
(-0.0768757 -0.0987824 0)
(-0.0505829 -0.155154 0)
(0.0250055 -0.479691 0)
(0.054789 -0.288617 0)
(0.0619916 0.00923097 0)
(0.0777418 0.312243 0)
(0.0802703 0.517594 0)
(0.00135563 0.440016 0)
(-0.0618905 0.353416 0)
(-0.124821 0.304652 0)
(-0.170366 0.20589 0)
(-0.202492 0.0802547 0)
(-0.273355 0.017701 0)
(-0.292425 -0.0840365 0)
(-0.297688 -0.13447 0)
(-0.294991 -0.154932 0)
(-0.285191 -0.152444 0)
(-0.250676 -0.0621752 0)
(-0.222997 0.13328 0)
(-0.251576 0.245595 0)
(-0.28134 0.300977 0)
(-0.292226 0.309968 0)
(-0.305741 0.241792 0)
(-0.256824 0.0362214 0)
(-0.149751 -0.230061 0)
(-0.0930463 -0.297639 0)
(-0.0403407 -0.30999 0)
(0.0173774 -0.575207 0)
(0.0461485 -0.333228 0)
(0.0589988 -0.0117378 0)
(0.0693007 0.235419 0)
(0.111082 0.508166 0)
(0.0971094 0.611168 0)
(0.0494495 0.538844 0)
(-0.0297786 0.368693 0)
(-0.0579112 0.257547 0)
(-0.0963067 0.214067 0)
(-0.156793 0.170669 0)
(-0.195995 0.00486578 0)
(-0.272491 -0.132248 0)
(-0.318977 -0.176941 0)
(-0.321301 -0.194219 0)
(-0.285906 -0.139483 0)
(-0.232273 0.0816349 0)
(-0.215871 0.264224 0)
(-0.223743 0.305162 0)
(-0.220407 0.305798 0)
(-0.222418 0.202255 0)
(-0.176951 -0.10204 0)
(-0.125261 -0.327569 0)
(-0.0933116 -0.406681 0)
(-0.0464086 -0.433966 0)
(0.00733733 -0.621564 0)
(0.0230065 -0.359075 0)
(0.0438948 -0.00630862 0)
(0.0499988 0.176845 0)
(0.102388 0.445996 0)
(0.133391 0.597471 0)
(0.144305 0.605981 0)
(0.12557 0.54815 0)
(0.0802103 0.419189 0)
(0.0507754 0.288696 0)
(0.0257784 0.245978 0)
(0.0231265 0.219974 0)
(-0.0367261 0.152872 0)
(-0.101802 0.00460543 0)
(-0.130351 -0.185371 0)
(-0.153993 -0.224701 0)
(-0.166167 -0.0871099 0)
(-0.133711 0.210706 0)
(-0.116233 0.294079 0)
(-0.121196 0.293019 0)
(-0.118341 0.183651 0)
(-0.0980805 -0.0722014 0)
(-0.0789442 -0.350342 0)
(-0.0660008 -0.473637 0)
(-0.0350361 -0.54365 0)
(0.00238923 -0.638256 0)
(0.00394727 -0.391321 0)
(0.0164691 -0.05217 0)
(0.038253 0.156198 0)
(0.0607624 0.315475 0)
(0.118458 0.542753 0)
(0.141773 0.587322 0)
(0.143213 0.552483 0)
(0.138098 0.469973 0)
(0.113359 0.354466 0)
(0.0910524 0.237265 0)
(0.0948141 0.190742 0)
(0.0761097 0.151134 0)
(0.0794303 0.0459113 0)
(0.0498939 -0.0332185 0)
(0.0047656 -0.0876647 0)
(-0.0464328 -0.0723161 0)
(-0.105698 0.186215 0)
(-0.104421 0.313904 0)
(-0.121256 0.312691 0)
(-0.112289 0.152065 0)
(-0.0724002 -0.185046 0)
(-0.0697903 -0.362123 0)
(-0.0593517 -0.529765 0)
(-0.0329284 -0.649668 0)
(0.0015192 -0.631561 0)
(-0.00192685 -0.416465 0)
(0.0144648 -0.0931803 0)
(0.0234749 0.0739184 0)
(0.0183799 0.237437 0)
(0.0626155 0.400504 0)
(0.102232 0.524896 0)
(0.117322 0.522723 0)
(0.126773 0.473243 0)
(0.119201 0.384655 0)
(0.122041 0.257001 0)
(0.110642 0.210332 0)
(0.113442 0.179324 0)
(0.132067 0.0546922 0)
(0.124402 0.0120131 0)
(0.114888 0.00126801 0)
(-0.0301523 0.121017 0)
(-0.112814 0.314423 0)
(-0.117134 0.374386 0)
(-0.127895 0.278872 0)
(-0.0773671 0.0460339 0)
(-0.0797122 -0.204928 0)
(-0.0764436 -0.409432 0)
(-0.0537432 -0.625965 0)
(-0.0228902 -0.79261 0)
(0.00422251 -0.618531 0)
(-0.0153891 -0.409844 0)
(0.000867668 -0.0680504 0)
(-0.036067 0.125963 0)
(-0.0393125 0.263553 0)
(-0.0548278 0.384082 0)
(-0.0126866 0.480936 0)
(0.0230847 0.484383 0)
(0.0638723 0.442535 0)
(0.0927755 0.367938 0)
(0.118438 0.26101 0)
(0.138693 0.211994 0)
(0.18196 0.119213 0)
(0.167712 0.0101301 0)
(0.149182 0.022601 0)
(0.059612 0.24228 0)
(-0.0504635 0.347851 0)
(-0.0784272 0.396825 0)
(-0.090337 0.36935 0)
(-0.0773164 0.215608 0)
(-0.0402381 -0.0264853 0)
(-0.0646448 -0.156542 0)
(-0.0333454 -0.447177 0)
(-0.0283811 -0.653983 0)
(-0.00900369 -0.842229 0)
(0.00433196 -0.608366 0)
(-0.018592 -0.398809 0)
(-0.000824482 -0.067759 0)
(-0.0222161 0.19073 0)
(-0.0523688 0.31014 0)
(-0.0737288 0.357507 0)
(-0.0750378 0.367452 0)
(-0.0153107 0.367842 0)
(0.0444836 0.340989 0)
(0.106875 0.263908 0)
(0.144128 0.152645 0)
(0.166234 0.0964039 0)
(0.168316 0.090015 0)
(0.155699 0.137079 0)
(0.078424 0.251866 0)
(0.0233985 0.396713 0)
(-0.017953 0.425104 0)
(-0.020105 0.43369 0)
(-0.0334902 0.352658 0)
(0.0339697 0.197566 0)
(-0.00916022 0.0650492 0)
(0.0173481 -0.220584 0)
(0.00944882 -0.429649 0)
(0.00850738 -0.655098 0)
(-0.00375452 -0.861758 0)
(0.00716623 -0.624171 0)
(-7.0858e-05 -0.398231 0)
(0.00433308 -0.12075 0)
(0.0369017 0.184835 0)
(0.0191325 0.395728 0)
(-0.0222076 0.393133 0)
(-0.0381822 0.33633 0)
(-0.00910528 0.162653 0)
(0.0507953 0.133238 0)
(0.0940989 0.13084 0)
(0.10707 0.133607 0)
(0.0934833 0.144167 0)
(0.0718105 0.151247 0)
(0.0773937 0.188063 0)
(0.0866817 0.328993 0)
(0.0623233 0.463285 0)
(0.0580177 0.455898 0)
(0.0534176 0.402619 0)
(0.0772713 0.286248 0)
(0.0741337 0.161353 0)
(0.0602254 -0.00489444 0)
(0.0684074 -0.180745 0)
(0.0508558 -0.421186 0)
(0.0334101 -0.622962 0)
(0.0130397 -0.839594 0)
(0.00157256 -0.629057 0)
(0.00148225 -0.380144 0)
(0.00416853 -0.137495 0)
(0.0378191 0.122832 0)
(0.0827021 0.411511 0)
(0.0600018 0.480128 0)
(0.0276906 0.386817 0)
(0.00512403 0.152173 0)
(0.00947077 0.100172 0)
(0.0125187 0.144284 0)
(0.00646741 0.177205 0)
(0.00496668 0.176661 0)
(0.0139011 0.129694 0)
(0.0432415 0.143515 0)
(0.0877116 0.288105 0)
(0.125599 0.427273 0)
(0.176538 0.441713 0)
(0.187967 0.414932 0)
(0.205716 0.360383 0)
(0.177249 0.244417 0)
(0.164222 0.0328344 0)
(0.117508 -0.147846 0)
(0.0896288 -0.380452 0)
(0.0528471 -0.560522 0)
(0.017982 -0.759616 0)
(-0.00625792 -0.622915 0)
(-0.00650871 -0.37397 0)
(0.000924358 -0.168464 0)
(0.0151166 0.0246441 0)
(0.0792042 0.354541 0)
(0.0847479 0.533025 0)
(0.0652994 0.489326 0)
(-0.00512377 0.209235 0)
(-0.0546523 0.138717 0)
(-0.0700387 0.164329 0)
(-0.0796439 0.158891 0)
(-0.0490853 0.138769 0)
(-0.0298816 0.0784943 0)
(0.00955934 0.0488351 0)
(0.0537177 0.126781 0)
(0.132368 0.286605 0)
(0.204225 0.356425 0)
(0.243621 0.350406 0)
(0.260324 0.323362 0)
(0.257733 0.280729 0)
(0.246683 0.161877 0)
(0.180893 0.00317356 0)
(0.131354 -0.256411 0)
(0.0847639 -0.433572 0)
(0.0157641 -0.664757 0)
(-0.00995796 -0.606388 0)
(-0.00917033 -0.388802 0)
(0.00244797 -0.201666 0)
(0.0105833 -0.0244505 0)
(0.056638 0.228552 0)
(0.0925578 0.512462 0)
(0.103628 0.579137 0)
(0.0533263 0.408532 0)
(-0.0340236 0.200558 0)
(-0.0660347 0.193614 0)
(-0.0782873 0.116276 0)
(-0.100154 0.0345062 0)
(-0.0905361 -0.0171085 0)
(-0.0623114 -0.0508423 0)
(-0.0201501 -0.0197468 0)
(0.045947 0.0320689 0)
(0.129919 0.176958 0)
(0.198741 0.280381 0)
(0.206972 0.291825 0)
(0.202111 0.287052 0)
(0.189662 0.224685 0)
(0.143909 0.090319 0)
(0.114476 -0.177053 0)
(0.0656652 -0.304737 0)
(0.0205217 -0.556443 0)
(-0.00585828 -0.589716 0)
(-0.00747281 -0.398197 0)
(0.0013388 -0.234046 0)
(0.0143682 -0.0685912 0)
(0.0322436 0.12347 0)
(0.0908551 0.439059 0)
(0.11526 0.575246 0)
(0.112032 0.523923 0)
(0.0764032 0.374226 0)
(0.0228289 0.290742 0)
(0.023574 0.217327 0)
(-0.00333635 0.15543 0)
(-0.0220861 0.00247552 0)
(-0.0443117 -0.114729 0)
(-0.0320387 -0.127349 0)
(-0.00523851 -0.0877131 0)
(0.0244726 0.0259834 0)
(0.0866756 0.197284 0)
(0.0790049 0.284197 0)
(0.0735872 0.29534 0)
(0.0375402 0.292277 0)
(0.051132 0.103606 0)
(0.0588716 -0.109711 0)
(0.0249486 -0.227982 0)
(0.0071809 -0.508924 0)
(-0.00415298 -0.572283 0)
(-0.0200665 -0.393666 0)
(-0.016178 -0.251335 0)
(-0.00832009 -0.0854097 0)
(-0.00322196 0.0766758 0)
(0.0328115 0.318951 0)
(0.0931343 0.533354 0)
(0.108346 0.516632 0)
(0.115895 0.420071 0)
(0.0994723 0.319839 0)
(0.114677 0.215833 0)
(0.111624 0.156854 0)
(0.108238 0.101102 0)
(0.0842684 -0.00233497 0)
(0.0445858 -0.0892025 0)
(0.0291674 -0.0923859 0)
(0.0117911 0.000998033 0)
(0.0149913 0.201612 0)
(-0.00954029 0.322468 0)
(-0.0539301 0.405808 0)
(-0.0365954 0.245481 0)
(0.0169346 0.00296327 0)
(0.00722895 -0.0894533 0)
(0.00335391 -0.197634 0)
(0.00274496 -0.492094 0)
(-0.0118935 -0.534756 0)
(-0.0313097 -0.366519 0)
(-0.039272 -0.252006 0)
(-0.0357466 -0.0921991 0)
(-0.0369935 0.0527832 0)
(-0.0227994 0.232603 0)
(0.0276914 0.42128 0)
(0.0808986 0.453679 0)
(0.106545 0.401915 0)
(0.124375 0.296146 0)
(0.145841 0.194909 0)
(0.150039 0.144744 0)
(0.152356 0.104259 0)
(0.14872 0.0410359 0)
(0.123055 -0.0256266 0)
(0.0893452 -0.0393752 0)
(0.0437388 0.0452135 0)
(-0.00473632 0.274086 0)
(-0.0606161 0.433383 0)
(-0.0891579 0.383168 0)
(-0.0192323 0.116405 0)
(-0.0137109 0.00916845 0)
(-0.0140461 -0.0646096 0)
(-0.00744872 -0.201023 0)
(0.00385484 -0.488977 0)
(-0.0121133 -0.483089 0)
(-0.0326867 -0.325676 0)
(-0.0468858 -0.242241 0)
(-0.0427169 -0.0923559 0)
(-0.0359432 0.0462617 0)
(-0.0292897 0.180306 0)
(-0.000195116 0.302121 0)
(0.0473903 0.336113 0)
(0.0856063 0.312213 0)
(0.117698 0.223969 0)
(0.140098 0.15659 0)
(0.152624 0.128337 0)
(0.163001 0.0935565 0)
(0.160535 0.0606276 0)
(0.139742 0.0415219 0)
(0.0985729 0.0534919 0)
(0.0263858 0.197422 0)
(-0.0488839 0.442161 0)
(-0.0825592 0.503354 0)
(-0.0734158 0.302489 0)
(-0.0323159 0.0672546 0)
(-0.0474081 -0.000683411 0)
(-0.0311109 -0.0926211 0)
(-0.00882787 -0.247446 0)
(0.00226844 -0.498268 0)
(-0.00709507 -0.444428 0)
(-0.0220413 -0.290034 0)
(-0.0355789 -0.233406 0)
(-0.0306072 -0.123766 0)
(-0.00812075 0.0216666 0)
(0.010294 0.148803 0)
(0.0295908 0.236864 0)
(0.0578463 0.259495 0)
(0.0808928 0.235828 0)
(0.101446 0.169861 0)
(0.112229 0.11824 0)
(0.123613 0.0896582 0)
(0.131738 0.085071 0)
(0.122583 0.0918987 0)
(0.0968345 0.124561 0)
(0.0583972 0.195794 0)
(-0.00575931 0.375125 0)
(-0.051065 0.520173 0)
(-0.073501 0.513249 0)
(-0.0391614 0.228823 0)
(-0.0516307 0.0923764 0)
(-0.0417685 -0.0110294 0)
(-0.0219179 -0.15271 0)
(-0.00560207 -0.281946 0)
(0.00137564 -0.503257 0)
(-0.00429028 -0.42211 0)
(-0.0107944 -0.266681 0)
(-0.0142415 -0.217832 0)
(-0.0120701 -0.16288 0)
(0.0120753 -0.0461381 0)
(0.0475703 0.0926417 0)
(0.0749321 0.196262 0)
(0.0901746 0.224785 0)
(0.0971778 0.211408 0)
(0.097168 0.160184 0)
(0.0954348 0.10706 0)
(0.0924185 0.0812906 0)
(0.0956436 0.097415 0)
(0.0758469 0.144153 0)
(0.0589076 0.183462 0)
(0.0382137 0.271744 0)
(0.0144162 0.454631 0)
(-0.00314362 0.584459 0)
(-0.0257225 0.511801 0)
(0.00523246 0.222804 0)
(-0.0350481 0.0796369 0)
(-0.0118485 -0.0615855 0)
(-0.00719844 -0.183722 0)
(-0.00167115 -0.299902 0)
(0.00252486 -0.507653 0)
(-0.00336838 -0.411335 0)
(0.00237398 -0.263546 0)
(0.0168009 -0.218876 0)
(0.028183 -0.178959 0)
(0.0444068 -0.107771 0)
(0.0690233 0.00955203 0)
(0.100449 0.145347 0)
(0.117341 0.225425 0)
(0.110168 0.223623 0)
(0.0954628 0.18264 0)
(0.0710704 0.124432 0)
(0.0488139 0.0923357 0)
(0.0491224 0.1277 0)
(0.0348428 0.17707 0)
(0.0343696 0.204515 0)
(0.0291864 0.289782 0)
(0.0240561 0.460125 0)
(0.0415999 0.573781 0)
(0.0475934 0.51467 0)
(0.0623061 0.294714 0)
(0.0360666 0.109822 0)
(0.0369659 -0.0458287 0)
(0.0298707 -0.175055 0)
(0.0196856 -0.277438 0)
(0.00861894 -0.48588 0)
(0.00229153 -0.421403 0)
(0.0224736 -0.31794 0)
(0.0483404 -0.271361 0)
(0.0780945 -0.228298 0)
(0.0961138 -0.149463 0)
(0.102068 -0.0402163 0)
(0.11093 0.0807435 0)
(0.119396 0.206657 0)
(0.11234 0.261915 0)
(0.0936807 0.247315 0)
(0.0616342 0.196477 0)
(0.0187721 0.132212 0)
(0.00704128 0.144496 0)
(0.00260396 0.180752 0)
(0.00105568 0.201339 0)
(0.00182661 0.297799 0)
(0.0062545 0.449585 0)
(0.0339432 0.529756 0)
(0.0609882 0.475001 0)
(0.0784389 0.294586 0)
(0.0727818 0.127218 0)
(0.0631139 -0.0317699 0)
(0.040769 -0.144189 0)
(0.022808 -0.244806 0)
(0.0101079 -0.448455 0)
(0.00619813 -0.469119 0)
(0.0267791 -0.385284 0)
(0.0529518 -0.359409 0)
(0.0829033 -0.302114 0)
(0.0954621 -0.182317 0)
(0.0990832 -0.035382 0)
(0.0844626 0.0907149 0)
(0.0820479 0.215173 0)
(0.0730218 0.28989 0)
(0.0554527 0.298786 0)
(0.0360826 0.267162 0)
(-0.00288811 0.202543 0)
(-0.0361518 0.167826 0)
(-0.0434244 0.190723 0)
(-0.0533791 0.207616 0)
(-0.0527106 0.28766 0)
(-0.0362624 0.399754 0)
(-0.00246519 0.436058 0)
(0.0363427 0.391695 0)
(0.0606135 0.275526 0)
(0.0563907 0.142999 0)
(0.049301 0.00650846 0)
(0.0276762 -0.091612 0)
(0.0164793 -0.219209 0)
(0.00920971 -0.420077 0)
(0.00193511 -0.488975 0)
(0.0141658 -0.415634 0)
(0.0209394 -0.402317 0)
(0.0275217 -0.324337 0)
(0.0216542 -0.167881 0)
(0.018234 -0.010732 0)
(0.0147371 0.120962 0)
(0.00621539 0.236851 0)
(-0.00149018 0.312031 0)
(-0.0114514 0.330188 0)
(-0.0221662 0.318581 0)
(-0.0428074 0.280043 0)
(-0.0757548 0.224581 0)
(-0.0889267 0.209774 0)
(-0.096779 0.220521 0)
(-0.100234 0.267217 0)
(-0.0783436 0.32804 0)
(-0.0481258 0.350763 0)
(-0.0220099 0.328797 0)
(-0.00320109 0.250682 0)
(0.00646586 0.125123 0)
(0.00756295 0.027402 0)
(0.00208033 -0.0716769 0)
(0.00845894 -0.212604 0)
(0.00775954 -0.39469 0)
(-0.000583623 -0.491285 0)
(-0.0134398 -0.412449 0)
(-0.0364081 -0.385731 0)
(-0.0450666 -0.278609 0)
(-0.0527286 -0.125249 0)
(-0.0623271 0.0115775 0)
(-0.0574535 0.136816 0)
(-0.0540376 0.270154 0)
(-0.0638977 0.352846 0)
(-0.0714655 0.350897 0)
(-0.0745948 0.340614 0)
(-0.0798011 0.312811 0)
(-0.0956226 0.271978 0)
(-0.109671 0.240476 0)
(-0.115414 0.234655 0)
(-0.114423 0.251012 0)
(-0.101356 0.284943 0)
(-0.0880091 0.304821 0)
(-0.0701598 0.296835 0)
(-0.0489064 0.205657 0)
(-0.0374119 0.111912 0)
(-0.0300211 0.0199839 0)
(-0.0224191 -0.0885623 0)
(-0.0033357 -0.239193 0)
(0.00571634 -0.383647 0)
(-0.00217567 -0.449398 0)
(-0.0285973 -0.345967 0)
(-0.0600351 -0.339516 0)
(-0.0729312 -0.269497 0)
(-0.0737273 -0.13353 0)
(-0.0767597 -0.0112984 0)
(-0.0831498 0.0946445 0)
(-0.0823337 0.255252 0)
(-0.0854328 0.358698 0)
(-0.0907372 0.356716 0)
(-0.0900378 0.344995 0)
(-0.0919177 0.331161 0)
(-0.100287 0.299237 0)
(-0.111596 0.25953 0)
(-0.115071 0.235461 0)
(-0.11533 0.245559 0)
(-0.111873 0.274593 0)
(-0.106911 0.283835 0)
(-0.0877462 0.247818 0)
(-0.0708096 0.172517 0)
(-0.059362 0.0882962 0)
(-0.0450694 -0.00429163 0)
(-0.0314334 -0.125855 0)
(-0.00844147 -0.281737 0)
(-0.00200714 -0.383122 0)
(0.000490315 -0.430619 0)
(-0.0259977 -0.284709 0)
(-0.0624384 -0.296396 0)
(-0.0807807 -0.249712 0)
(-0.0834419 -0.121626 0)
(-0.081788 0.0245978 0)
(-0.102647 0.134417 0)
(-0.103934 0.281904 0)
(-0.110858 0.366686 0)
(-0.111798 0.355362 0)
(-0.110858 0.337759 0)
(-0.109696 0.331178 0)
(-0.111047 0.309599 0)
(-0.114469 0.266991 0)
(-0.117725 0.242152 0)
(-0.120925 0.246762 0)
(-0.120201 0.260198 0)
(-0.111092 0.258385 0)
(-0.0927749 0.20961 0)
(-0.0798239 0.142203 0)
(-0.0636809 0.0554989 0)
(-0.0468856 -0.0412133 0)
(-0.0297372 -0.167027 0)
(-0.0121831 -0.313939 0)
(-0.00580153 -0.403635 0)
(-0.00136378 -0.400648 0)
(-0.021125 -0.195285 0)
(-0.0639006 -0.226388 0)
(-0.0867923 -0.223368 0)
(-0.0946538 -0.126044 0)
(-0.0821769 0.0317459 0)
(-0.0930005 0.149433 0)
(-0.0952847 0.287694 0)
(-0.0984998 0.371108 0)
(-0.102613 0.360076 0)
(-0.105197 0.336822 0)
(-0.105155 0.329452 0)
(-0.105056 0.309753 0)
(-0.105911 0.272583 0)
(-0.108147 0.250412 0)
(-0.11383 0.249407 0)
(-0.113239 0.251371 0)
(-0.104413 0.222442 0)
(-0.0883738 0.175782 0)
(-0.0745036 0.106049 0)
(-0.0568267 0.0165867 0)
(-0.0383288 -0.0820496 0)
(-0.022089 -0.201446 0)
(-0.00960372 -0.337298 0)
(-0.00279377 -0.420512 0)
(-0.00194482 -0.389873 0)
(-0.00696142 -0.138653 0)
(-0.0399556 -0.155926 0)
(-0.0672728 -0.17767 0)
(-0.0847774 -0.130313 0)
(-0.0734141 0.0110763 0)
(-0.0594639 0.165645 0)
(-0.0693585 0.283855 0)
(-0.0644034 0.382439 0)
(-0.0774602 0.373916 0)
(-0.0883001 0.342084 0)
(-0.0910642 0.327095 0)
(-0.0891452 0.310601 0)
(-0.0862211 0.277931 0)
(-0.0851849 0.256798 0)
(-0.089035 0.253388 0)
(-0.0912329 0.244183 0)
(-0.0791698 0.196604 0)
(-0.0745811 0.147866 0)
(-0.058131 0.0693445 0)
(-0.0436704 -0.0222036 0)
(-0.0258342 -0.119426 0)
(-0.0133512 -0.227839 0)
(-0.0046609 -0.353874 0)
(-0.00248842 -0.430798 0)
(-0.00384095 -0.383942 0)
(-0.000238988 -0.115855 0)
(-0.00960853 -0.0872081 0)
(-0.036233 -0.123122 0)
(-0.0555581 -0.116489 0)
(-0.0572815 -0.0233269 0)
(-0.0341148 0.140434 0)
(-0.0188726 0.293398 0)
(-0.0231901 0.395849 0)
(-0.0273126 0.421714 0)
(-0.0534734 0.369759 0)
(-0.0650389 0.326792 0)
(-0.0627723 0.29748 0)
(-0.0533699 0.26618 0)
(-0.0467201 0.25216 0)
(-0.0448254 0.256725 0)
(-0.0498719 0.250862 0)
(-0.0438857 0.187475 0)
(-0.0441059 0.132104 0)
(-0.0348751 0.0417852 0)
(-0.0251956 -0.0538423 0)
(-0.0130491 -0.148912 0)
(-0.00647837 -0.244838 0)
(-0.00207853 -0.362196 0)
(-0.00195867 -0.436251 0)
(-0.00435122 -0.380823 0)
(0.0104075 -0.128258 0)
(0.0279552 -0.0680472 0)
(0.0271598 -0.0730585 0)
(0.0140632 -0.0817645 0)
(-0.00094117 -0.038184 0)
(0.00602598 0.0744434 0)
(0.0304984 0.245988 0)
(0.0423849 0.393392 0)
(0.0395492 0.446927 0)
(0.0181648 0.427309 0)
(-0.0105432 0.354804 0)
(-0.0205121 0.29214 0)
(-0.0195648 0.24821 0)
(-0.0137887 0.234701 0)
(-0.0147466 0.257631 0)
(-0.0183309 0.257643 0)
(-0.0163206 0.183747 0)
(-0.0172084 0.125894 0)
(-0.0143417 0.0347083 0)
(-0.00687225 -0.0710014 0)
(-0.00246601 -0.161585 0)
(0.000373107 -0.250376 0)
(0.000403652 -0.364031 0)
(-0.00175075 -0.43822 0)
(-0.000474992 -0.38468 0)
(0.0209603 -0.198102 0)
(0.0603915 -0.115709 0)
(0.0852064 -0.0747692 0)
(0.0857236 -0.0533817 0)
(0.0707895 -0.0189817 0)
(0.0462091 0.0623501 0)
(0.0411348 0.206699 0)
(0.0484853 0.372778 0)
(0.0449072 0.475578 0)
(0.0350377 0.481862 0)
(0.0138558 0.414172 0)
(-0.00343085 0.316249 0)
(-0.00825345 0.249677 0)
(-0.00781863 0.231674 0)
(-0.0119447 0.2652 0)
(-0.0127394 0.254772 0)
(-0.0105348 0.183066 0)
(-0.0101031 0.120742 0)
(-0.00402947 0.0246641 0)
(0.0042457 -0.0836212 0)
(0.0040067 -0.165954 0)
(0.00562629 -0.25007 0)
(0.00235754 -0.357199 0)
(-0.00220099 -0.438823 0)
(0.00567512 -0.4292 0)
(0.0309346 -0.293621 0)
(0.0645039 -0.21995 0)
(0.0967446 -0.140413 0)
(0.103561 -0.0475115 0)
(0.0905693 0.04326 0)
(0.0576297 0.134152 0)
(0.0267456 0.235997 0)
(0.0219755 0.377218 0)
(0.0174659 0.481476 0)
(0.0117067 0.498196 0)
(0.00057336 0.445908 0)
(-0.00720101 0.33953 0)
(-0.00928897 0.255008 0)
(-0.0137444 0.236805 0)
(-0.020843 0.274809 0)
(-0.0182992 0.251039 0)
(-0.0134545 0.18052 0)
(-0.0093608 0.109792 0)
(0.00369302 0.00506256 0)
(0.00956167 -0.0917867 0)
(0.00858831 -0.163603 0)
(0.00773023 -0.245242 0)
(0.0026278 -0.347794 0)
(-0.00214622 -0.437936 0)
(0.00395597 -0.467294 0)
(0.0251789 -0.351169 0)
(0.0441408 -0.278922 0)
(0.0477916 -0.175103 0)
(0.0400308 -0.0344093 0)
(0.021082 0.0812014 0)
(0.00465804 0.200252 0)
(-0.0211063 0.28728 0)
(-0.0389156 0.39636 0)
(-0.0436628 0.496606 0)
(-0.0428686 0.512012 0)
(-0.0369835 0.447943 0)
(-0.0239639 0.336204 0)
(-0.0266465 0.267107 0)
(-0.0367141 0.259104 0)
(-0.0422288 0.280637 0)
(-0.0304142 0.230069 0)
(-0.0194702 0.166609 0)
(-0.00685808 0.0813292 0)
(0.00871139 -0.0175665 0)
(0.012702 -0.0964295 0)
(0.0108674 -0.159882 0)
(0.00884788 -0.240847 0)
(0.00312723 -0.335588 0)
(-0.00252905 -0.439041 0)
(-0.00218334 -0.480808 0)
(-0.00667544 -0.365449 0)
(-0.0309544 -0.264258 0)
(-0.0545597 -0.0960482 0)
(-0.0724807 0.0321622 0)
(-0.0843478 0.129137 0)
(-0.0948812 0.224788 0)
(-0.114052 0.347169 0)
(-0.129795 0.449627 0)
(-0.122953 0.487148 0)
(-0.10394 0.487153 0)
(-0.0783243 0.402287 0)
(-0.0612009 0.320261 0)
(-0.0608346 0.283888 0)
(-0.0689216 0.275075 0)
(-0.0588045 0.261734 0)
(-0.0389562 0.192656 0)
(-0.0204612 0.131815 0)
(-5.38688e-05 0.0451916 0)
(0.0129367 -0.0383886 0)
(0.0157622 -0.0964561 0)
(0.0152938 -0.153331 0)
(0.013255 -0.231735 0)
(0.0060726 -0.320651 0)
(-0.00111683 -0.438238 0)
(-0.0109622 -0.420983 0)
(-0.0478196 -0.281502 0)
(-0.0828894 -0.166472 0)
(-0.11562 -0.0486915 0)
(-0.131744 0.0393347 0)
(-0.145385 0.148682 0)
(-0.165788 0.277088 0)
(-0.181595 0.380884 0)
(-0.175677 0.430248 0)
(-0.158143 0.441182 0)
(-0.124608 0.417252 0)
(-0.0979969 0.34429 0)
(-0.0862523 0.302611 0)
(-0.0839119 0.286204 0)
(-0.0800597 0.265588 0)
(-0.0589518 0.208545 0)
(-0.0339896 0.144315 0)
(-0.0124425 0.0812374 0)
(0.00682503 0.00818888 0)
(0.0163025 -0.0550409 0)
(0.0188471 -0.0996761 0)
(0.0207965 -0.152474 0)
(0.0198721 -0.223694 0)
(0.0114264 -0.301189 0)
(0.000937553 -0.430489 0)
(-0.0110006 -0.367198 0)
(-0.044795 -0.213159 0)
(-0.0860235 -0.112892 0)
(-0.120259 0.00404244 0)
(-0.149922 0.0905546 0)
(-0.174111 0.196758 0)
(-0.192166 0.3081 0)
(-0.190576 0.368232 0)
(-0.180326 0.387168 0)
(-0.152567 0.377861 0)
(-0.123039 0.347163 0)
(-0.103797 0.311435 0)
(-0.0932411 0.289347 0)
(-0.0844511 0.275733 0)
(-0.0670117 0.226753 0)
(-0.0400239 0.150647 0)
(-0.020315 0.0946597 0)
(-0.00245046 0.0401531 0)
(0.0110531 -0.0183973 0)
(0.0192655 -0.0651687 0)
(0.0233706 -0.104009 0)
(0.028914 -0.155613 0)
(0.0260853 -0.210871 0)
(0.0164875 -0.274105 0)
(0.00261042 -0.410922 0)
(-0.00864707 -0.304577 0)
(-0.0408841 -0.1184 0)
(-0.0801514 -0.0138262 0)
(-0.117033 0.0881505 0)
(-0.147436 0.156681 0)
(-0.170804 0.241494 0)
(-0.177804 0.317731 0)
(-0.175825 0.34302 0)
(-0.159619 0.339173 0)
(-0.135726 0.317737 0)
(-0.115391 0.295198 0)
(-0.0979608 0.277316 0)
(-0.0845466 0.262774 0)
(-0.067726 0.231487 0)
(-0.0442507 0.165611 0)
(-0.0277792 0.10852 0)
(-0.0157368 0.0619448 0)
(-0.00307966 0.0127743 0)
(0.00835736 -0.0397135 0)
(0.0179906 -0.0802846 0)
(0.0268067 -0.117976 0)
(0.0321513 -0.158546 0)
(0.0278589 -0.195803 0)
(0.0160066 -0.246478 0)
(0.000823733 -0.388832 0)
(-0.00553378 -0.263804 0)
(-0.0267883 -0.0505159 0)
(-0.0553208 0.0495724 0)
(-0.0843042 0.151529 0)
(-0.113327 0.211758 0)
(-0.132985 0.271348 0)
(-0.137072 0.31644 0)
(-0.132884 0.319996 0)
(-0.119933 0.302479 0)
(-0.107272 0.274433 0)
(-0.0940902 0.257467 0)
(-0.0824459 0.241118 0)
(-0.0689503 0.221721 0)
(-0.0534261 0.184712 0)
(-0.0400611 0.134998 0)
(-0.0317128 0.0867571 0)
(-0.0222792 0.0383886 0)
(-0.010105 -0.0161202 0)
(0.00226592 -0.0669944 0)
(0.0140398 -0.105532 0)
(0.0251827 -0.137525 0)
(0.029006 -0.156696 0)
(0.023472 -0.173272 0)
(0.0110253 -0.21447 0)
(5.02248e-05 -0.375228 0)
(-0.00274861 -0.241312 0)
(-0.0112151 -0.0045407 0)
(-0.0263164 0.0969448 0)
(-0.0430575 0.206795 0)
(-0.0634107 0.260978 0)
(-0.0803115 0.291935 0)
(-0.0813349 0.31117 0)
(-0.0803123 0.307582 0)
(-0.07382 0.284413 0)
(-0.0704085 0.258469 0)
(-0.0672123 0.240936 0)
(-0.0634475 0.222654 0)
(-0.0570577 0.198115 0)
(-0.0490228 0.163201 0)
(-0.0416701 0.117779 0)
(-0.0341031 0.0678071 0)
(-0.0234611 0.0125921 0)
(-0.0117697 -0.0443346 0)
(-0.00207928 -0.0945725 0)
(0.00714516 -0.131698 0)
(0.0149111 -0.153376 0)
(0.0160358 -0.154969 0)
(0.0131643 -0.156356 0)
(0.00625991 -0.195883 0)
(0.00147311 -0.367485 0)
(-0.00211916 -0.231985 0)
(-0.00274793 0.0135401 0)
(-0.00844379 0.113202 0)
(-0.0138114 0.233959 0)
(-0.0231873 0.297312 0)
(-0.0351092 0.314918 0)
(-0.0397382 0.317676 0)
(-0.0406435 0.304925 0)
(-0.0383112 0.282313 0)
(-0.0396196 0.261542 0)
(-0.0421877 0.243653 0)
(-0.0436807 0.220749 0)
(-0.042711 0.190012 0)
(-0.0388647 0.150829 0)
(-0.0332475 0.101774 0)
(-0.0253736 0.0460547 0)
(-0.0155597 -0.0127533 0)
(-0.00821421 -0.0650769 0)
(-0.00359878 -0.109837 0)
(0.000889131 -0.145744 0)
(0.00478802 -0.159297 0)
(0.00954105 -0.154789 0)
(0.00838335 -0.150818 0)
(0.00443843 -0.188741 0)
(0.00371243 -0.361002 0)
(-0.00191396 -0.229032 0)
(0.00145777 0.0160522 0)
(-0.000326125 0.119797 0)
(-0.00227411 0.237536 0)
(-0.00481728 0.313063 0)
(-0.0119943 0.331234 0)
(-0.0167382 0.32637 0)
(-0.0166253 0.304702 0)
(-0.0173046 0.284581 0)
(-0.0190137 0.268387 0)
(-0.0223705 0.250761 0)
(-0.0247766 0.224922 0)
(-0.0246254 0.187765 0)
(-0.0211886 0.141633 0)
(-0.0141076 0.0883409 0)
(-0.00511468 0.0287048 0)
(0.00136071 -0.0254434 0)
(0.0030405 -0.0707061 0)
(0.00188503 -0.113242 0)
(0.0021329 -0.151666 0)
(0.00608068 -0.170183 0)
(0.0105641 -0.161948 0)
(0.0109027 -0.146325 0)
(0.00716412 -0.183258 0)
(0.00500369 -0.350245 0)
(-0.0012107 -0.227762 0)
(0.00270792 0.0119436 0)
(0.00334924 0.126889 0)
(0.00104856 0.238649 0)
(0.00122424 0.324116 0)
(-0.00656805 0.341808 0)
(-0.0108446 0.328447 0)
(-0.00910163 0.307438 0)
(-0.0078222 0.287136 0)
(-0.00700863 0.272586 0)
(-0.00689961 0.255417 0)
(-0.00582701 0.224788 0)
(-0.00246177 0.180687 0)
(0.00478202 0.126701 0)
(0.0128913 0.0668527 0)
(0.0201458 0.01202 0)
(0.0213168 -0.0304323 0)
(0.0198673 -0.066286 0)
(0.0158706 -0.106317 0)
(0.0148544 -0.153399 0)
(0.0148846 -0.176295 0)
(0.0161048 -0.166979 0)
(0.0157689 -0.142727 0)
(0.0095958 -0.171493 0)
(0.00442331 -0.332789 0)
(0.00210647 -0.228897 0)
(0.00401792 0.00110456 0)
(0.00816143 0.1313 0)
(0.003728 0.236617 0)
(0.00555366 0.334407 0)
(0.000229919 0.357604 0)
(-0.00537853 0.332548 0)
(-0.00343276 0.299713 0)
(0.00195778 0.279991 0)
(0.00859942 0.266893 0)
(0.0147297 0.24957 0)
(0.0197577 0.217444 0)
(0.0258913 0.168886 0)
(0.0320899 0.111407 0)
(0.0372219 0.0580214 0)
(0.0358288 0.013299 0)
(0.0309777 -0.0232643 0)