/*--------------------------------*- C++ -*----------------------------------*\
| =========                 |                                                 |
| \\      /  F ield         | OpenFOAM: The Open Source CFD Toolbox           |
|  \\    /   O peration     | Version:  2.3.0                                 |
|   \\  /    A nd           | Web:      www.OpenFOAM.org                      |
|    \\/     M anipulation  |                                                 |
\*---------------------------------------------------------------------------*/
FoamFile
{
    version     2.0;
    format      ascii;
    class       volVectorField;
    location    "17";
    object      U.waterMean;
}
// * * * * * * * * * * * * * * * * * * * * * * * * * * * * * * * * * * * * * //

dimensions      [0 1 -1 0 0 0 0];

internalField   nonuniform List<vector> 
1875
(
(0.107652 -0.299134 0)
(0.174105 -0.280426 0)
(0.277236 -0.237772 0)
(0.343252 -0.197746 0)
(0.376388 -0.163143 0)
(0.382989 -0.133472 0)
(0.367304 -0.110657 0)
(0.332059 -0.085903 0)
(0.282659 -0.067806 0)
(0.219153 -0.0525184 0)
(0.150064 -0.0390748 0)
(0.0793192 -0.0407253 0)
(0.00491824 -0.0460877 0)
(-0.0665065 -0.0534309 0)
(-0.133768 -0.0653776 0)
(-0.195185 -0.0760689 0)
(-0.247123 -0.0899061 0)
(-0.288083 -0.107352 0)
(-0.315118 -0.122364 0)
(-0.32692 -0.139708 0)
(-0.320246 -0.160709 0)
(-0.294159 -0.188245 0)
(-0.239826 -0.223171 0)
(-0.152428 -0.265651 0)
(-0.0961349 -0.282952 0)
(0.0448603 -0.424981 0)
(0.105532 -0.316218 0)
(0.153686 -0.167165 0)
(0.182625 -0.0531189 0)
(0.192994 0.0399924 0)
(0.194192 0.117959 0)
(0.184187 0.171819 0)
(0.163588 0.208446 0)
(0.138893 0.232791 0)
(0.109551 0.247144 0)
(0.0795132 0.254387 0)
(0.0484072 0.26141 0)
(0.0124597 0.267616 0)
(-0.0227544 0.263662 0)
(-0.0575284 0.257408 0)
(-0.0890636 0.247132 0)
(-0.113838 0.230968 0)
(-0.133656 0.206665 0)
(-0.147294 0.168017 0)
(-0.154968 0.114656 0)
(-0.154446 0.0444909 0)
(-0.14873 -0.0303298 0)
(-0.126451 -0.132095 0)
(-0.0877025 -0.270127 0)
(-0.0396573 -0.375175 0)
(0.0135943 -0.553492 0)
(0.0171838 -0.392997 0)
(0.00817174 -0.254484 0)
(0.00305494 -0.152074 0)
(0.00213242 -0.0646689 0)
(0.00666462 0.0131962 0)
(0.0118562 0.083193 0)
(0.0128894 0.134414 0)
(0.0130038 0.163911 0)
(0.0125717 0.185269 0)
(0.0113483 0.202284 0)
(0.00728622 0.210261 0)
(0.00307984 0.215354 0)
(-0.000917142 0.205899 0)
(-0.00488217 0.189221 0)
(-0.00321578 0.163083 0)
(-0.000885684 0.131117 0)
(0.00478895 0.0929728 0)
(0.008963 0.0453359 0)
(0.0164841 -0.0115976 0)
(0.0223791 -0.0698695 0)
(0.0153224 -0.124767 0)
(0.00548785 -0.202176 0)
(-0.0107456 -0.327689 0)
(-0.0117861 -0.484936 0)
(-0.00550472 -0.538196 0)
(-0.0218613 -0.336208 0)
(-0.043406 -0.19917 0)
(-0.0573464 -0.096546 0)
(-0.0643106 -0.00952198 0)
(-0.0659785 0.0635381 0)
(-0.0595141 0.123227 0)
(-0.0534595 0.166145 0)
(-0.0433748 0.19441 0)
(-0.0331435 0.217053 0)
(-0.0214885 0.233076 0)
(-0.00833163 0.245768 0)
(0.00375099 0.251814 0)
(0.0165387 0.241695 0)
(0.029287 0.222218 0)
(0.0423429 0.201274 0)
(0.0543477 0.17808 0)
(0.06491 0.146415 0)
(0.0726346 0.105291 0)
(0.0773185 0.0508593 0)
(0.0773024 -0.0066854 0)
(0.0672596 -0.0656587 0)
(0.0512161 -0.140173 0)
(0.0252454 -0.261169 0)
(0.00672742 -0.464592 0)
(-0.00785987 -0.518566 0)
(-0.0241866 -0.327572 0)
(-0.045591 -0.190249 0)
(-0.0689919 -0.0958511 0)
(-0.0829045 -0.0238922 0)
(-0.089376 0.0366258 0)
(-0.0866497 0.08842 0)
(-0.0811681 0.120687 0)
(-0.0728105 0.142001 0)
(-0.0605504 0.15635 0)
(-0.0442836 0.164619 0)
(-0.0255134 0.179148 0)
(-0.00713198 0.185537 0)
(0.0139276 0.178569 0)
(0.0336217 0.162331 0)
(0.0514189 0.144818 0)
(0.0684267 0.120374 0)
(0.0826719 0.0952654 0)
(0.0934288 0.062764 0)
(0.0977431 0.0241951 0)
(0.0922103 -0.0190081 0)
(0.0777117 -0.0602791 0)
(0.0522055 -0.124838 0)
(0.0255924 -0.247772 0)
(0.00647402 -0.445316 0)
(-0.00382056 -0.489035 0)
(-0.0157448 -0.282354 0)
(-0.0290731 -0.123343 0)
(-0.0536673 -0.024972 0)
(-0.0720636 0.0346046 0)
(-0.0870133 0.075046 0)
(-0.090672 0.107516 0)
(-0.0921213 0.13294 0)
(-0.087746 0.143079 0)
(-0.0782248 0.146588 0)
(-0.0644437 0.148045 0)
(-0.0461151 0.154073 0)
(-0.0248281 0.157194 0)
(-0.000855746 0.14689 0)
(0.0230116 0.135516 0)
(0.0446441 0.122076 0)
(0.0629261 0.10922 0)
(0.0779828 0.094643 0)
(0.0858794 0.0775238 0)
(0.0856903 0.0605197 0)
(0.0742597 0.0407666 0)
(0.0557945 0.0105564 0)
(0.0288779 -0.0559613 0)
(0.0111692 -0.197867 0)
(0.000625264 -0.420044 0)
(-0.00335684 -0.478225 0)
(-0.00760966 -0.283406 0)
(-0.0138067 -0.114693 0)
(-0.0284565 0.00143816 0)
(-0.0507345 0.0623748 0)
(-0.0671024 0.0958407 0)
(-0.0778486 0.118338 0)
(-0.0836126 0.130138 0)
(-0.0836002 0.125094 0)
(-0.0779576 0.114346 0)
(-0.0674532 0.104149 0)
(-0.0530971 0.0972425 0)
(-0.0311764 0.0879234 0)
(-0.00745462 0.0768042 0)
(0.0152845 0.0708115 0)
(0.035259 0.0675936 0)
(0.0519791 0.0633791 0)
(0.0622441 0.0647741 0)
(0.0657315 0.0672701 0)
(0.0607203 0.069545 0)
(0.0469966 0.0622696 0)
(0.0243008 0.0410522 0)
(0.0055642 -0.0452037 0)
(-0.00201785 -0.204453 0)
(-0.00193881 -0.427621 0)
(0.00168634 -0.470694 0)
(-0.000602973 -0.272956 0)
(-0.00204643 -0.0924133 0)
(-0.00786132 0.0482011 0)
(-0.028138 0.118821 0)
(-0.0453313 0.141771 0)
(-0.060019 0.151187 0)
(-0.066003 0.151221 0)
(-0.0676219 0.13576 0)
(-0.0628877 0.113116 0)
(-0.0542741 0.0912191 0)
(-0.0429714 0.0698724 0)
(-0.0239989 0.0515752 0)
(-0.0042343 0.0385961 0)
(0.0147766 0.0354256 0)
(0.0310479 0.0393933 0)
(0.0443212 0.0514573 0)
(0.0486917 0.0694952 0)
(0.0477142 0.0871095 0)
(0.0384801 0.108765 0)
(0.0220483 0.123116 0)
(-0.00119385 0.0979384 0)
(-0.0144266 -0.0176888 0)
(-0.00940219 -0.209777 0)
(-0.00719977 -0.438476 0)
(0.00296876 -0.479156 0)
(0.00375793 -0.283956 0)
(0.00598502 -0.101708 0)
(0.00795493 0.0537047 0)
(-0.00276565 0.144257 0)
(-0.0193567 0.173987 0)
(-0.0341243 0.175559 0)
(-0.0426102 0.156328 0)
(-0.0457711 0.125711 0)
(-0.0438652 0.0927675 0)
(-0.0376532 0.0646028 0)
(-0.0261897 0.0330052 0)
(-0.01064 0.00643262 0)
(0.00520021 -0.00814471 0)
(0.0186203 -0.00757821 0)
(0.0274799 0.00734718 0)
(0.0324681 0.0323827 0)
(0.0340537 0.0668831 0)
(0.029002 0.103924 0)
(0.0171114 0.140503 0)
(0.000138796 0.16139 0)
(-0.0166136 0.123135 0)
(-0.0179165 -0.0256149 0)
(-0.0112293 -0.230964 0)
(-0.00598293 -0.461847 0)
(0.00478429 -0.489161 0)
(0.00827757 -0.28773 0)
(0.0111338 -0.107541 0)
(0.0175289 0.0604965 0)
(0.0159347 0.175898 0)
(0.00310497 0.214947 0)
(-0.00995185 0.2084 0)
(-0.01856 0.181882 0)
(-0.0249909 0.143339 0)
(-0.0272716 0.100236 0)
(-0.0252669 0.056723 0)
(-0.0169711 0.0136009 0)
(-0.00915309 -0.0143303 0)
(0.00116688 -0.0219445 0)
(0.00914069 -0.0121923 0)
(0.018209 0.00831546 0)
(0.02017 0.0410957 0)
(0.0184354 0.083386 0)
(0.00957675 0.131627 0)
(-0.00472602 0.179412 0)
(-0.0202651 0.20012 0)
(-0.0306934 0.135607 0)
(-0.0213681 -0.0381563 0)
(-0.0141924 -0.246419 0)
(-0.00529854 -0.482693 0)
(0.0043035 -0.5114 0)
(0.0104144 -0.303869 0)
(0.013851 -0.123939 0)
(0.0212858 0.0444317 0)
(0.0255884 0.176068 0)
(0.0220875 0.234242 0)
(0.00939937 0.229601 0)
(-0.00120036 0.194766 0)
(-0.00851257 0.148583 0)
(-0.0139908 0.0957331 0)
(-0.0125945 0.044076 0)
(-0.0111069 0.00325012 0)
(-0.00752646 -0.0337067 0)
(0.00210783 -0.0510641 0)
(0.0086364 -0.04336 0)
(0.0167901 -0.008992 0)
(0.0171639 0.0396476 0)
(0.0127777 0.0985329 0)
(0.000165318 0.160531 0)
(-0.0163537 0.216419 0)
(-0.031634 0.222485 0)
(-0.0333705 0.124796 0)
(-0.0208148 -0.0665068 0)
(-0.0139903 -0.274491 0)
(-0.00296374 -0.509881 0)
(0.00365803 -0.526892 0)
(0.009577 -0.315175 0)
(0.0150123 -0.133364 0)
(0.0231259 0.0344838 0)
(0.0301718 0.173513 0)
(0.0320942 0.250396 0)
(0.0264682 0.257306 0)
(0.015144 0.218838 0)
(0.00789349 0.169356 0)
(0.00247981 0.108001 0)
(0.00170745 0.0485247 0)
(0.00389524 -0.00172582 0)
(0.0075514 -0.0414351 0)
(0.0104622 -0.061626 0)
(0.00973742 -0.0492311 0)
(0.0102126 -0.0121704 0)
(0.00871796 0.0486882 0)
(0.00535616 0.125237 0)
(-0.00840344 0.202079 0)
(-0.022182 0.257708 0)
(-0.0340767 0.240651 0)
(-0.0267349 0.111474 0)
(-0.0165439 -0.0808551 0)
(-0.00886639 -0.293824 0)
(-0.0021995 -0.52462 0)
(0.00326358 -0.542961 0)
(0.0071217 -0.332223 0)
(0.0124156 -0.149245 0)
(0.0185946 0.0130628 0)
(0.0290735 0.159604 0)
(0.0347597 0.249557 0)
(0.0359066 0.270214 0)
(0.0294068 0.236008 0)
(0.0232365 0.175889 0)
(0.0210444 0.105987 0)
(0.0206003 0.0446286 0)
(0.0217821 -0.0037949 0)
(0.0248098 -0.0429339 0)
(0.0223646 -0.0540722 0)
(0.0147257 -0.0405995 0)
(0.0092053 -0.00467313 0)
(0.00282281 0.0520422 0)
(-0.00344918 0.134175 0)
(-0.0121024 0.225828 0)
(-0.0225822 0.27629 0)
(-0.0243537 0.23959 0)
(-0.0127906 0.093243 0)
(-0.0058169 -0.0961662 0)
(-0.00215993 -0.309726 0)
(-0.00128304 -0.534378 0)
(0.0029353 -0.555178 0)
(0.00633596 -0.34121 0)
(0.00922111 -0.158697 0)
(0.0132899 -0.00173783 0)
(0.0237885 0.13925 0)
(0.0337224 0.240337 0)
(0.0402269 0.27113 0)
(0.0416834 0.248084 0)
(0.039277 0.186415 0)
(0.0379442 0.113357 0)
(0.0364625 0.045818 0)
(0.0369963 -0.00708146 0)
(0.0380289 -0.0360497 0)
(0.0349357 -0.0318223 0)
(0.0253473 -0.0162003 0)
(0.0174427 0.0191757 0)
(0.00451772 0.0716952 0)
(-0.0075286 0.153712 0)
(-0.0156028 0.244193 0)
(-0.0204429 0.282557 0)
(-0.0139919 0.225412 0)
(-0.00344069 0.0794934 0)
(-0.000240345 -0.102602 0)
(-0.000105293 -0.311104 0)
(-0.00151436 -0.539165 0)
(0.00227814 -0.566176 0)
(0.00383544 -0.349229 0)
(0.00612551 -0.166758 0)
(0.00806789 -0.0138432 0)
(0.014384 0.113718 0)
(0.0265861 0.216279 0)
(0.0371545 0.254011 0)
(0.0448791 0.23461 0)
(0.0484751 0.1839 0)
(0.0530429 0.110354 0)
(0.0527353 0.0495136 0)
(0.0507168 -0.00514872 0)
(0.0492131 -0.0349521 0)
(0.0464926 -0.0241994 0)
(0.035999 0.00149305 0)
(0.0242324 0.047258 0)
(0.00739459 0.102567 0)
(-0.00630712 0.179789 0)
(-0.0160839 0.254182 0)
(-0.0159957 0.275676 0)
(-0.00793599 0.210309 0)
(-0.0001529 0.06571 0)
(-0.000100079 -0.108635 0)
(-0.000793431 -0.31383 0)
(-0.001405 -0.547051 0)
(0.00141992 -0.572227 0)
(0.00163795 -0.351595 0)
(0.00140747 -0.169478 0)
(0.00174272 -0.0180448 0)
(0.00504042 0.10166 0)
(0.0135935 0.191071 0)
(0.0268621 0.234469 0)
(0.0372488 0.219536 0)
(0.0478968 0.168212 0)
(0.0567047 0.105431 0)
(0.0575294 0.0552256 0)
(0.0566396 0.00468111 0)
(0.0526906 -0.0237336 0)
(0.0466449 -0.00407886 0)
(0.0365765 0.0371675 0)
(0.0248495 0.0845084 0)
(0.0117169 0.138908 0)
(-0.000538543 0.203771 0)
(-0.00715245 0.262827 0)
(-0.00675145 0.267873 0)
(0.000828007 0.194575 0)
(0.00554717 0.0605893 0)
(0.00173886 -0.105803 0)
(0.000956644 -0.314025 0)
(-0.000287319 -0.550059 0)
(0.000542576 -0.575414 0)
(-0.000564942 -0.351763 0)
(-0.00302244 -0.164517 0)
(-0.00556877 -0.0163456 0)
(-0.00394465 0.0932548 0)
(0.00019325 0.171343 0)
(0.0137874 0.206991 0)
(0.0259642 0.184698 0)
(0.0374964 0.137019 0)
(0.0440299 0.091023 0)
(0.0477638 0.0500711 0)
(0.0498298 0.00822779 0)
(0.0496705 -0.00967917 0)
(0.042592 0.0102402 0)
(0.0364486 0.0514316 0)
(0.0275667 0.103981 0)
(0.017204 0.15765 0)
(0.00965137 0.222542 0)
(0.00441069 0.270626 0)
(0.00605143 0.262068 0)
(0.0102562 0.188364 0)
(0.0105732 0.0663073 0)
(0.00840179 -0.100064 0)
(0.00468916 -0.309719 0)
(0.000908975 -0.548858 0)
(9.37112e-05 -0.575463 0)
(-0.00158825 -0.348678 0)
(-0.00426067 -0.158279 0)
(-0.00657891 -0.0115286 0)
(-0.00714721 0.0907 0)
(-0.00289342 0.157989 0)
(0.00822462 0.180407 0)
(0.0167992 0.159592 0)
(0.0229624 0.118074 0)
(0.024924 0.0756603 0)
(0.0302571 0.0387712 0)
(0.0319558 0.00534029 0)
(0.0340644 -0.00625204 0)
(0.0309447 0.0228738 0)
(0.025601 0.070869 0)
(0.0202725 0.125249 0)
(0.0140325 0.176195 0)
(0.00896154 0.227749 0)
(0.00886948 0.269215 0)
(0.0118811 0.259535 0)
(0.0166637 0.186264 0)
(0.0148874 0.0710719 0)
(0.0133579 -0.0914315 0)
(0.00730222 -0.298567 0)
(0.00128028 -0.541819 0)
(0.000598578 -0.575953 0)
(-0.00134005 -0.347301 0)
(-0.00343851 -0.15794 0)
(-0.00159443 -0.00936129 0)
(-0.00227954 0.0858955 0)
(0.00101987 0.14486 0)
(0.00814904 0.162403 0)
(0.0134862 0.145555 0)
(0.016419 0.108661 0)
(0.0163812 0.0664561 0)
(0.0164654 0.0303047 0)
(0.0134416 0.00350839 0)
(0.010272 -0.00319428 0)
(0.00653783 0.0286542 0)
(0.00522046 0.0793427 0)
(0.00357068 0.12948 0)
(0.00392415 0.182109 0)
(0.00434358 0.228515 0)
(0.00569172 0.262499 0)
(0.0104465 0.25064 0)
(0.0159225 0.186759 0)
(0.0143902 0.0802483 0)
(0.0138183 -0.0803349 0)
(0.00718926 -0.284894 0)
(0.000278558 -0.534298 0)
(0.000124528 -0.57619 0)
(-0.00297274 -0.343559 0)
(-0.00468612 -0.155643 0)
(-0.00354114 -0.0149395 0)
(-0.00139015 0.0816323 0)
(0.00288831 0.13645 0)
(0.0100958 0.154235 0)
(0.0145605 0.140651 0)
(0.016687 0.112709 0)
(0.012797 0.0751603 0)
(0.00666616 0.0479839 0)
(-0.0033725 0.0237859 0)
(-0.0119154 0.0112217 0)
(-0.0179619 0.0320272 0)
(-0.0180168 0.0794189 0)
(-0.017438 0.128465 0)
(-0.0153973 0.17421 0)
(-0.0108031 0.218755 0)
(-0.00764003 0.253477 0)
(0.000657967 0.237109 0)
(0.00674272 0.178419 0)
(0.00913621 0.0797232 0)
(0.00903725 -0.071863 0)
(0.00413395 -0.275757 0)
(-0.00104461 -0.530674 0)
(-0.000384515 -0.573009 0)
(-0.00533724 -0.33867 0)
(-0.0070751 -0.153325 0)
(-0.00730094 -0.0192445 0)
(-0.00495218 0.0720429 0)
(0.000170684 0.119222 0)
(0.0079343 0.138212 0)
(0.00974308 0.131867 0)
(0.00952686 0.114573 0)
(0.00374233 0.092222 0)
(-0.00596028 0.06921 0)
(-0.01615 0.0480084 0)
(-0.0246792 0.0311304 0)
(-0.0319039 0.0442009 0)
(-0.0351847 0.080424 0)
(-0.0348507 0.124701 0)
(-0.0324983 0.164073 0)
(-0.0281549 0.207733 0)
(-0.0205532 0.234253 0)
(-0.00897482 0.218898 0)
(-0.00105689 0.166158 0)
(0.00185587 0.0761531 0)
(0.0024831 -0.0643615 0)
(0.00166522 -0.269698 0)
(-0.00209933 -0.531415 0)
(-0.00114271 -0.566107 0)
(-0.00764803 -0.329417 0)
(-0.011388 -0.148709 0)
(-0.0119523 -0.019386 0)
(-0.0112085 0.0645956 0)
(-0.00664623 0.107811 0)
(-0.00377399 0.132847 0)
(-0.00386332 0.133228 0)
(-0.00754383 0.124594 0)
(-0.012449 0.108326 0)
(-0.0189482 0.0905373 0)
(-0.0268573 0.070152 0)
(-0.0340482 0.0518537 0)
(-0.0394328 0.0598239 0)
(-0.0430796 0.087198 0)
(-0.0430947 0.122908 0)
(-0.0424411 0.158385 0)
(-0.0385395 0.192182 0)
(-0.0293124 0.20958 0)
(-0.0169181 0.19788 0)
(-0.00981634 0.156585 0)
(-0.00531827 0.0728178 0)
(-0.00212828 -0.066157 0)
(4.31608e-05 -0.269595 0)
(-0.0017278 -0.534764 0)
(-0.00211542 -0.555003 0)
(-0.00995248 -0.314199 0)
(-0.0168183 -0.139432 0)
(-0.0190732 -0.014352 0)
(-0.0191554 0.0661796 0)
(-0.0162508 0.111157 0)
(-0.0151653 0.139122 0)
(-0.014683 0.144019 0)
(-0.0162166 0.133158 0)
(-0.0196896 0.116093 0)
(-0.0241067 0.103612 0)
(-0.0306317 0.0854652 0)
(-0.0361404 0.0645268 0)
(-0.0408573 0.0693942 0)
(-0.0442391 0.0912653 0)
(-0.045065 0.12371 0)
(-0.0448788 0.155427 0)
(-0.0415698 0.178276 0)
(-0.033516 0.187728 0)
(-0.0230055 0.175305 0)
(-0.0151973 0.144067 0)
(-0.00943637 0.064764 0)
(-0.00247403 -0.0766826 0)
(-0.000356426 -0.27303 0)
(-0.000531677 -0.538324 0)
(-0.00141704 -0.545292 0)
(-0.00746794 -0.30147 0)
(-0.0151158 -0.128986 0)
(-0.018984 -0.0127324 0)
(-0.0192344 0.0588234 0)
(-0.0170361 0.10421 0)
(-0.0139435 0.1328 0)
(-0.0111805 0.138173 0)
(-0.0104603 0.134855 0)
(-0.0147537 0.125761 0)
(-0.0201026 0.116637 0)
(-0.027743 0.0983614 0)
(-0.0335999 0.0792902 0)
(-0.039027 0.0804361 0)
(-0.0433875 0.0975036 0)
(-0.0456975 0.124635 0)
(-0.0447026 0.14965 0)
(-0.041789 0.163564 0)
(-0.0342556 0.166737 0)
(-0.0249754 0.153661 0)
(-0.0167795 0.126111 0)
(-0.00909469 0.0503624 0)
(-0.00076531 -0.0883852 0)
(-0.000446794 -0.277069 0)
(-4.0233e-05 -0.540078 0)
(-0.00103455 -0.537049 0)
(-0.00573917 -0.290482 0)
(-0.00901232 -0.116334 0)
(-0.0123941 -0.0072035 0)
(-0.0130089 0.0565601 0)
(-0.0128073 0.0991855 0)
(-0.00980449 0.124405 0)
(-0.00746059 0.136014 0)
(-0.0082655 0.137349 0)
(-0.0135499 0.13618 0)
(-0.0184054 0.131188 0)
(-0.0243249 0.115716 0)
(-0.0284305 0.0930752 0)
(-0.0352267 0.0935316 0)
(-0.0403088 0.106335 0)
(-0.043917 0.125173 0)
(-0.0430632 0.144644 0)
(-0.0392653 0.152792 0)
(-0.0313158 0.148054 0)
(-0.0237649 0.134434 0)
(-0.0144096 0.107631 0)
(-0.00640515 0.0358525 0)
(0.00118119 -0.0952245 0)
(0.000539739 -0.277071 0)
(0.00016305 -0.540541 0)
(-0.000397306 -0.53313 0)
(-0.00243066 -0.2878 0)
(-0.00249996 -0.116764 0)
(-0.00163568 -0.00682793 0)
(-0.00268926 0.056435 0)
(-0.00459806 0.0974767 0)
(-0.00383199 0.119844 0)
(-0.00303095 0.135949 0)
(-0.00425768 0.145813 0)
(-0.00793028 0.145277 0)
(-0.0114869 0.138716 0)
(-0.0153872 0.125119 0)
(-0.0196303 0.106626 0)
(-0.025984 0.108205 0)
(-0.0314154 0.118256 0)
(-0.0368325 0.131871 0)
(-0.0380835 0.139589 0)
(-0.0336855 0.137883 0)
(-0.02865 0.130153 0)
(-0.0208183 0.11904 0)
(-0.0135636 0.0892173 0)
(-0.00485632 0.0186306 0)
(-0.00026157 -0.10201 0)
(0.000198619 -0.279315 0)
(0.000109819 -0.54039 0)
(9.2904e-05 -0.531535 0)
(-0.00053026 -0.287154 0)
(0.000133559 -0.118815 0)
(0.0035463 -0.0082724 0)
(0.00554762 0.05868 0)
(0.0062941 0.0998101 0)
(0.00715715 0.121681 0)
(0.00765166 0.136935 0)
(0.00814511 0.148702 0)
(0.00631663 0.150901 0)
(0.00316159 0.148078 0)
(-0.00208112 0.138981 0)
(-0.00691286 0.122088 0)
(-0.0137684 0.122684 0)
(-0.0205392 0.132023 0)
(-0.0257879 0.140415 0)
(-0.0280603 0.137739 0)
(-0.0284091 0.131011 0)
(-0.0272714 0.117712 0)
(-0.0207857 0.102572 0)
(-0.0143103 0.0754711 0)
(-0.00522669 0.00183677 0)
(-0.00247254 -0.104904 0)
(-0.000793639 -0.28273 0)
(1.46599e-05 -0.54162 0)
(0.000252685 -0.532215 0)
(-0.00020808 -0.288898 0)
(0.00103534 -0.124539 0)
(0.00552468 -0.0188883 0)
(0.0112593 0.0493816 0)
(0.0162483 0.0928599 0)
(0.0196954 0.118031 0)
(0.0213038 0.134738 0)
(0.0229527 0.150687 0)
(0.0215938 0.159036 0)
(0.0183507 0.16008 0)
(0.0142978 0.152749 0)
(0.00896874 0.138343 0)
(0.00093466 0.139662 0)
(-0.0086406 0.146594 0)
(-0.0153699 0.148805 0)
(-0.0190877 0.143964 0)
(-0.0208984 0.132114 0)
(-0.022026 0.109573 0)
(-0.0205487 0.0880987 0)
(-0.0144776 0.0570495 0)
(-0.00758415 -0.0124391 0)
(-0.00489215 -0.111936 0)
(-0.000674556 -0.288654 0)
(-2.18812e-05 -0.543728 0)
(-6.20753e-05 -0.532112 0)
(-0.000711159 -0.290496 0)
(0.00032996 -0.132046 0)
(0.00566784 -0.0318508 0)
(0.0122056 0.034148 0)
(0.0196467 0.0780211 0)
(0.0249774 0.109586 0)
(0.0278636 0.131686 0)
(0.0297557 0.150817 0)
(0.0310699 0.16204 0)
(0.0298383 0.167192 0)
(0.0283214 0.162665 0)
(0.023639 0.157408 0)
(0.015087 0.165301 0)
(0.00540106 0.168875 0)
(-0.00144128 0.161975 0)
(-0.00629637 0.149474 0)
(-0.00908323 0.132278 0)
(-0.0116832 0.110352 0)
(-0.0138922 0.0853155 0)
(-0.0115763 0.0460738 0)
(-0.00706599 -0.0213 0)
(-0.00454487 -0.119958 0)
(0.000724951 -0.297076 0)
(0.000292518 -0.545349 0)
(-0.000290385 -0.530878 0)
(-0.00209301 -0.290829 0)
(-0.0014043 -0.137982 0)
(0.00307194 -0.0454834 0)
(0.0101931 0.0187678 0)
(0.0163699 0.0625519 0)
(0.0221877 0.0996835 0)
(0.0259601 0.124601 0)
(0.0297171 0.144231 0)
(0.0328004 0.159578 0)
(0.0351866 0.167813 0)
(0.0355715 0.168694 0)
(0.0334074 0.172059 0)
(0.0289602 0.182707 0)
(0.0231437 0.185306 0)
(0.0171965 0.176165 0)
(0.0120439 0.159045 0)
(0.00709339 0.139663 0)
(0.0024539 0.11749 0)
(-0.00110904 0.088877 0)
(-0.000943465 0.0431399 0)
(-0.000556934 -0.0275716 0)
(0.0012939 -0.128597 0)
(0.00360716 -0.299997 0)
(0.00138615 -0.543498 0)
(-0.000603423 -0.527749 0)
(-0.00340896 -0.289855 0)
(-0.00367859 -0.143346 0)
(-0.00128465 -0.058678 0)
(0.00468635 0.00580223 0)
(0.00906628 0.0497749 0)
(0.0144295 0.0888546 0)
(0.0189407 0.116569 0)
(0.0244134 0.137726 0)
(0.0289245 0.153725 0)
(0.0345126 0.164359 0)
(0.0367366 0.169733 0)
(0.0374313 0.177203 0)
(0.034653 0.192551 0)
(0.0306958 0.197615 0)
(0.0270002 0.186906 0)
(0.0234658 0.172379 0)
(0.0184079 0.151782 0)
(0.0147141 0.12845 0)
(0.0116071 0.0967384 0)
(0.0105716 0.0482052 0)
(0.00864923 -0.024109 0)
(0.00834168 -0.130073 0)
(0.00677787 -0.296132 0)
(0.00255234 -0.53658 0)
(-0.000656464 -0.523395 0)
(-0.00441179 -0.286032 0)
(-0.00593026 -0.143359 0)
(-0.00694991 -0.0660394 0)
(-0.00375372 -0.00499035 0)
(-0.00014715 0.038291 0)
(0.00350865 0.0748604 0)
(0.00868148 0.101545 0)
(0.0148613 0.122518 0)
(0.0210891 0.139245 0)
(0.0272313 0.153409 0)
(0.0304977 0.166256 0)
(0.0327236 0.1805 0)
(0.0326531 0.200992 0)
(0.0318276 0.205553 0)
(0.0301787 0.19541 0)
(0.0277122 0.180149 0)
(0.0252882 0.160493 0)
(0.0233789 0.134655 0)
(0.0218318 0.102796 0)
(0.0192363 0.054158 0)
(0.0163125 -0.0199645 0)
(0.0132517 -0.125437 0)
(0.00950802 -0.288699 0)
(0.00303817 -0.525028 0)
(-0.000813219 -0.518041 0)
(-0.00541526 -0.280241 0)
(-0.00792827 -0.138712 0)
(-0.0106878 -0.0649408 0)
(-0.0116306 -0.0112751 0)
(-0.0103917 0.0315116 0)
(-0.00808205 0.065191 0)
(-0.00505191 0.088944 0)
(-0.000400561 0.109254 0)
(0.00575135 0.1266 0)
(0.0127501 0.143688 0)
(0.0186004 0.160227 0)
(0.0233156 0.176714 0)
(0.0266838 0.200445 0)
(0.0290354 0.206213 0)
(0.0304414 0.198434 0)
(0.0303741 0.184231 0)
(0.0298512 0.164935 0)
(0.0284508 0.139597 0)
(0.0268456 0.105645 0)
(0.0238869 0.0624585 0)
(0.020927 -0.0120686 0)
(0.0158483 -0.116814 0)
(0.0105666 -0.276322 0)
(0.00308613 -0.511613 0)
(-0.00105617 -0.511812 0)
(-0.0062821 -0.272348 0)
(-0.0100507 -0.132124 0)
(-0.013261 -0.0582488 0)
(-0.0160811 -0.00796425 0)
(-0.0159697 0.0291623 0)
(-0.0148372 0.0604882 0)
(-0.0137396 0.0827136 0)
(-0.0113983 0.0981359 0)
(-0.00781242 0.110575 0)
(-0.00164578 0.127368 0)
(0.00496362 0.145352 0)
(0.0119736 0.165393 0)
(0.0176616 0.191957 0)
(0.0226604 0.200334 0)
(0.0262351 0.194344 0)
(0.0280961 0.182203 0)
(0.0290283 0.166765 0)
(0.028057 0.144552 0)
(0.0268647 0.113668 0)
(0.0230722 0.068311 0)
(0.0215003 -0.0036029 0)
(0.014778 -0.105578 0)
(0.0100613 -0.262962 0)
(0.00273514 -0.49801 0)
(-0.00173459 -0.504107 0)
(-0.00714042 -0.26142 0)
(-0.011854 -0.123074 0)
(-0.0152677 -0.0516391 0)
(-0.0175991 -0.00519081 0)
(-0.016624 0.0293463 0)
(-0.0147659 0.0603649 0)
(-0.0132865 0.082633 0)
(-0.0109924 0.0971703 0)
(-0.00940749 0.105717 0)
(-0.00691319 0.116794 0)
(-0.00252686 0.132676 0)
(0.00317665 0.15035 0)
(0.00845161 0.18067 0)
(0.0130545 0.190122 0)
(0.0170674 0.188241 0)
(0.0178824 0.181045 0)
(0.0194112 0.166774 0)
(0.0180516 0.146679 0)
(0.0200569 0.114933 0)
(0.017804 0.0736689 0)
(0.0174224 0.00358139 0)
(0.0117383 -0.0943172 0)
(0.00863747 -0.251995 0)
(0.00214305 -0.486047 0)
(-0.00204964 -0.495072 0)
(-0.00718233 -0.250925 0)
(-0.0110143 -0.114947 0)
(-0.0135246 -0.0453528 0)
(-0.0166328 -0.00609567 0)
(-0.0148004 0.0235583 0)
(-0.0129911 0.0539933 0)
(-0.0102577 0.0756416 0)
(-0.00715677 0.0906985 0)
(-0.00685947 0.101827 0)
(-0.00764504 0.112531 0)
(-0.00857791 0.125258 0)
(-0.00620408 0.140079 0)
(-0.00217986 0.173473 0)
(0.0010179 0.185358 0)
(0.00424604 0.186015 0)
(0.00643792 0.179302 0)
(0.0079727 0.166232 0)
(0.00903167 0.146253 0)
(0.011567 0.114133 0)
(0.0116297 0.0746277 0)
(0.0121112 0.00784298 0)
(0.00913076 -0.0863781 0)
(0.00727656 -0.243325 0)
(0.00155192 -0.475897 0)
(-0.00192001 -0.486355 0)
(-0.00697426 -0.243702 0)
(-0.00930114 -0.109834 0)
(-0.0105727 -0.0395566 0)
(-0.0151559 -0.00350302 0)
(-0.0156802 0.0215656 0)
(-0.0159752 0.0495387 0)
(-0.0141578 0.0695845 0)
(-0.0133201 0.0895781 0)
(-0.0145355 0.107027 0)
(-0.0170413 0.121116 0)
(-0.0203093 0.130379 0)
(-0.0195569 0.136278 0)
(-0.016208 0.164706 0)
(-0.0121259 0.17715 0)
(-0.00838749 0.176423 0)
(-0.00455055 0.172792 0)
(-0.00198432 0.161282 0)
(0.000992329 0.140105 0)
(0.0049821 0.1085 0)
(0.00651488 0.0728582 0)
(0.00701115 0.00876093 0)
(0.00709809 -0.0835749 0)
(0.00567969 -0.235988 0)
(0.00127039 -0.468469 0)
(-0.00203405 -0.47722 0)
(-0.00730238 -0.235343 0)
(-0.00974634 -0.107413 0)
(-0.00935068 -0.0314221 0)
(-0.0163895 0.00535924 0)
(-0.0209552 0.0267951 0)
(-0.0250087 0.0516045 0)
(-0.0263846 0.0704324 0)
(-0.0280238 0.0922467 0)
(-0.0294802 0.114392 0)
(-0.0306326 0.127468 0)
(-0.0320898 0.134931 0)
(-0.0308096 0.132652 0)
(-0.0264067 0.155907 0)
(-0.020777 0.169399 0)
(-0.0168447 0.17006 0)
(-0.0126007 0.165219 0)
(-0.00833459 0.152799 0)
(-0.00373681 0.131557 0)
(-0.000209732 0.101828 0)
(0.00182405 0.0694755 0)
(0.00267831 0.00575031 0)
(0.00547286 -0.0836349 0)
(0.00417408 -0.2308 0)
(0.00104356 -0.46228 0)
(-0.00225081 -0.468029 0)
(-0.00731268 -0.226211 0)
(-0.0109449 -0.106469 0)
(-0.00997856 -0.0251258 0)
(-0.0154051 0.0197251 0)
(-0.0208031 0.0394483 0)
(-0.025101 0.0606801 0)
(-0.0287407 0.0758886 0)
(-0.0329358 0.0975583 0)
(-0.0353793 0.116068 0)
(-0.0359004 0.128772 0)
(-0.0368577 0.133722 0)
(-0.0355995 0.125919 0)
(-0.0321885 0.144254 0)
(-0.0254094 0.158947 0)
(-0.020185 0.160825 0)
(-0.0151325 0.154463 0)
(-0.0102241 0.142604 0)
(-0.00563798 0.123246 0)
(-0.00327813 0.0976938 0)
(-0.00124934 0.0654295 0)
(0.000943888 7.93133e-05 0)
(0.00468459 -0.0871884 0)
(0.00320334 -0.228283 0)
(0.000823342 -0.458479 0)
(-0.00253043 -0.458546 0)
(-0.00713308 -0.215676 0)
(-0.0125735 -0.101968 0)
(-0.0125258 -0.0222268 0)
(-0.0132665 0.0279723 0)
(-0.0181244 0.0472889 0)
(-0.0212118 0.0700768 0)
(-0.0259005 0.088781 0)
(-0.0298217 0.108723 0)
(-0.0324965 0.122577 0)
(-0.0334608 0.132008 0)
(-0.0353986 0.136135 0)
(-0.0348265 0.123339 0)
(-0.0328399 0.134109 0)
(-0.028469 0.142761 0)
(-0.0226133 0.149943 0)
(-0.0178792 0.143859 0)
(-0.013525 0.131288 0)
(-0.0103101 0.115459 0)
(-0.00699458 0.0910101 0)
(-0.00144458 0.057356 0)
(0.00274419 -0.00987803 0)
(0.00470361 -0.0896336 0)
(0.00305851 -0.22526 0)
(0.000951019 -0.455106 0)
(-0.00275451 -0.448269 0)
(-0.00732827 -0.204839 0)
(-0.0124702 -0.0938256 0)
(-0.0142397 -0.0241267 0)
(-0.0130482 0.031757 0)
(-0.0163475 0.0537538 0)
(-0.0191795 0.0783994 0)
(-0.0228484 0.0969345 0)
(-0.0247863 0.115018 0)
(-0.0263524 0.126155 0)
(-0.0273336 0.13703 0)
(-0.0288276 0.14007 0)
(-0.0283148 0.124164 0)
(-0.0274079 0.131626 0)
(-0.0266246 0.135172 0)
(-0.0235129 0.136572 0)
(-0.0187431 0.133193 0)
(-0.0145919 0.123502 0)
(-0.0110402 0.1082 0)
(-0.0052044 0.0773439 0)
(0.00358258 0.0434962 0)
(0.00630246 -0.0141842 0)
(0.00770721 -0.0874606 0)
(0.00461417 -0.219137 0)
(0.00169559 -0.450485 0)
(-0.0027538 -0.438302 0)
(-0.0069287 -0.195779 0)
(-0.012038 -0.0865017 0)
(-0.0146005 -0.0224337 0)
(-0.0155064 0.0327112 0)
(-0.0173469 0.0590575 0)
(-0.0196368 0.0858961 0)
(-0.0211898 0.103424 0)
(-0.0218308 0.118829 0)
(-0.0216423 0.130503 0)
(-0.0224411 0.140754 0)
(-0.0218066 0.142518 0)
(-0.019429 0.125085 0)
(-0.0196581 0.13245 0)
(-0.0193641 0.132076 0)
(-0.0181733 0.129598 0)
(-0.0146864 0.122838 0)
(-0.0112587 0.111943 0)
(-0.00587527 0.0946796 0)
(0.00110616 0.0577956 0)
(0.00742072 0.03074 0)
(0.00686403 -0.0179233 0)
(0.00884541 -0.0883856 0)
(0.00516176 -0.212647 0)
(0.00224588 -0.444261 0)
(-0.00267703 -0.427882 0)
(-0.00685766 -0.184991 0)
(-0.012224 -0.0771065 0)
(-0.0150615 -0.0168174 0)
(-0.01839 0.0369697 0)
(-0.0176619 0.060634 0)
(-0.0190127 0.0875296 0)
(-0.020026 0.102099 0)
(-0.0199359 0.11653 0)
(-0.0192225 0.128054 0)
(-0.0181382 0.137273 0)
(-0.0146136 0.134478 0)
(-0.0128512 0.123164 0)
(-0.011994 0.133596 0)
(-0.0120819 0.133089 0)
(-0.0102231 0.127888 0)
(-0.00601905 0.117495 0)
(-0.00228731 0.102083 0)
(0.00332235 0.0822857 0)
(0.00773447 0.0468873 0)
(0.00981321 0.0281102 0)
(0.00868631 -0.018092 0)
(0.0101049 -0.0863348 0)
(0.00535679 -0.205714 0)
(0.00270303 -0.43664 0)
(-0.00229638 -0.419304 0)
(-0.00572066 -0.177418 0)
(-0.00934162 -0.067968 0)
(-0.013006 -0.00996257 0)
(-0.0166709 0.0378229 0)
(-0.0157322 0.0602174 0)
(-0.015304 0.0914357 0)
(-0.015758 0.104891 0)
(-0.0151613 0.116267 0)
(-0.0152093 0.125639 0)
(-0.0131681 0.132068 0)
(-0.0101121 0.131433 0)
(-0.00996324 0.122857 0)
(-0.0088357 0.134503 0)
(-0.0066918 0.129163 0)
(-0.00140528 0.119019 0)
(0.00426347 0.106621 0)
(0.00928062 0.092324 0)
(0.0150736 0.0772308 0)
(0.0173859 0.0451091 0)
(0.0175601 0.0304029 0)
(0.0158193 -0.0155616 0)
(0.0131069 -0.0790669 0)
(0.00737518 -0.195015 0)
(0.00330461 -0.426006 0)
(-0.00218601 -0.41178 0)
(-0.00476417 -0.172452 0)
(-0.00693138 -0.0615053 0)
(-0.0087866 -0.00195993 0)
(-0.0117124 0.04031 0)
(-0.0107176 0.0565616 0)
(-0.00834212 0.0882711 0)
(-0.00651207 0.102419 0)
(-0.00464046 0.116677 0)
(-0.00461989 0.124754 0)
(-0.00230342 0.126255 0)
(-0.000818938 0.129016 0)
(0.00078573 0.12392 0)
(0.000802125 0.131285 0)
(0.00324657 0.11793 0)
(0.0068932 0.106288 0)
(0.0109449 0.0949568 0)
(0.0152885 0.0794369 0)
(0.0206213 0.0685175 0)
(0.0218768 0.0438131 0)
(0.0215773 0.033616 0)
(0.017818 -0.00866998 0)
(0.0115275 -0.0688388 0)
(0.00708382 -0.187519 0)
(0.00294099 -0.415505 0)
(-0.00251913 -0.404583 0)
(-0.0048502 -0.165886 0)
(-0.00638845 -0.0585557 0)
(-0.00617152 0.00110103 0)
(-0.00542561 0.0408573 0)
(-0.0030736 0.0530564 0)
(-0.000773344 0.0834988 0)
(0.000972977 0.0987892 0)
(0.000933219 0.113507 0)
(0.00204305 0.121241 0)
(0.00332945 0.122774 0)
(0.00519808 0.124592 0)
(0.00883301 0.120282 0)
(0.0123079 0.130577 0)
(0.0133337 0.116263 0)
(0.0134982 0.102662 0)
(0.0147546 0.0881476 0)
(0.0176722 0.0710396 0)
(0.0199471 0.0637806 0)
(0.0203783 0.0444425 0)
(0.0200776 0.0386056 0)
(0.0148272 0.005656 0)
(0.010007 -0.0576199 0)
(0.00689438 -0.179682 0)
(0.00257934 -0.405583 0)
(-0.00275844 -0.398125 0)
(-0.00426711 -0.163111 0)
(-0.00415567 -0.0595039 0)
(-0.00259498 -0.00608684 0)
(0.00140094 0.0329694 0)
(0.00348698 0.0443885 0)
(0.0050445 0.0791302 0)
(0.00553787 0.0981724 0)
(0.004451 0.114582 0)
(0.00451027 0.118651 0)
(0.00487992 0.118979 0)
(0.00697322 0.118571 0)
(0.0101961 0.108445 0)
(0.0147673 0.122456 0)
(0.0175307 0.116187 0)
(0.0173168 0.104166 0)
(0.0179798 0.0859074 0)
(0.0181114 0.0688421 0)
(0.0183908 0.0629206 0)
(0.0171062 0.0462348 0)
(0.0152269 0.0453813 0)
(0.01068 0.0138128 0)
(0.00934174 -0.0517983 0)
(0.00768949 -0.172182 0)
(0.00244829 -0.395244 0)
(-0.00327934 -0.391286 0)
(-0.00431015 -0.162309 0)
(-0.00455942 -0.0629471 0)
(-0.00229537 -0.0131347 0)
(0.000783414 0.0272257 0)
(0.00148637 0.0427349 0)
(0.0020224 0.0797503 0)
(0.00386123 0.100685 0)
(0.00592838 0.115624 0)
(0.00806049 0.119519 0)
(0.0104111 0.119029 0)
(0.0118055 0.114307 0)
(0.0133154 0.103675 0)
(0.0163282 0.113783 0)
(0.0201819 0.111349 0)
(0.0203345 0.101567 0)
(0.0207346 0.0855439 0)