/*--------------------------------*- C++ -*----------------------------------*\
| =========                 |                                                 |
| \\      /  F ield         | OpenFOAM: The Open Source CFD Toolbox           |
|  \\    /   O peration     | Version:  2.3.0                                 |
|   \\  /    A nd           | Web:      www.OpenFOAM.org                      |
|    \\/     M anipulation  |                                                 |
\*---------------------------------------------------------------------------*/
FoamFile
{
    version     2.0;
    format      ascii;
    class       volScalarField;
    location    "1.99";
    object      nut.particles;
}
// * * * * * * * * * * * * * * * * * * * * * * * * * * * * * * * * * * * * * //

dimensions      [0 2 -1 0 0 0 0];

internalField   nonuniform List<scalar> 
6000
(
2.3866e-05
2.29805e-05
2.37211e-05
2.37612e-05
2.52413e-05
1.93617e-05
1.26273e-05
1.20716e-05
1.21776e-05
1.40482e-05
2.05531e-05
1.50792e-05
1.13002e-05
1.24018e-05
1.12631e-05
1.27626e-05
1.64746e-05
9.62151e-06
1.02793e-05
1.08342e-05
1.08371e-05
1.04853e-05
1.03617e-05
1.05478e-05
1.2009e-05
1.55664e-05
2.08996e-05
1.42263e-05
9.41345e-06
1.12535e-05
1.08685e-06
1.66354e-06
1.79407e-06
2.08483e-06
2.01606e-06
2.08331e-06
2.23008e-06
1.87276e-06
1.79141e-06
2.04069e-06
1.13e-06
7.38044e-07
8.13457e-07
8.69417e-07
1.00806e-06
1.47714e-06
9.71875e-07
8.48016e-07
8.13175e-07
5.65964e-07
6.6529e-07
6.43352e-07
5.39559e-07
4.8832e-07
4.65422e-07
6.61402e-07
1.35824e-06
2.13928e-06
1.97844e-06
1.51323e-06
9.19142e-07
1.80594e-07
4.1248e-07
1.12423e-06
7.49809e-07
1.30933e-06
3.6397e-06
3.12977e-06
3.07196e-06
1.34063e-06
2.08423e-07
1.55341e-07
1.69815e-07
7.62793e-07
1.31559e-06
1.84293e-06
6.66674e-07
2.54363e-07
2.44298e-07
1.60147e-07
7.09752e-08
1.27439e-07
1.77122e-07
2.80728e-07
3.16654e-07
4.28858e-07
7.22646e-07
2.73185e-06
4.02888e-06
4.66699e-06
3.38222e-07
2.35624e-07
2.45973e-07
2.74988e-07
2.27156e-07
2.72403e-07
1.0465e-06
1.8797e-06
7.78338e-07
3.2498e-07
3.04586e-07
3.09741e-07
3.97767e-07
3.82727e-07
3.7014e-07
5.02761e-07
5.92269e-07
2.75958e-07
2.45985e-07
2.23218e-07
2.3382e-07
2.07929e-07
2.01407e-07
1.67748e-07
1.65123e-07
2.89943e-07
3.38135e-07
4.45122e-07
1.23218e-06
4.11284e-06
2.37646e-07
5.83572e-07
2.5247e-07
2.51487e-07
2.67614e-07
2.69063e-07
3.67942e-07
1.19719e-06
8.78077e-07
3.94775e-07
3.70824e-07
4.17734e-07
4.11945e-07
4.00078e-07
4.9608e-07
4.75945e-07
3.5853e-07
2.68735e-07
2.70527e-07
3.17947e-07
3.31446e-07
2.77601e-07
2.76704e-07
2.42513e-07
2.22182e-07
2.98263e-07
3.43355e-07
2.60702e-07
1.25454e-06
4.7366e-06
3.67392e-07
8.65219e-07
5.71842e-07
2.50288e-07
2.27179e-07
2.32483e-07
3.64629e-07
8.50924e-07
8.38706e-07
2.90882e-07
2.24418e-07
2.82634e-07
3.69649e-07
4.36063e-07
8.6018e-07
7.63594e-07
4.21079e-07
3.29204e-07
4.86804e-07
6.39877e-07
5.48646e-07
5.13297e-07
3.88961e-07
2.86598e-07
2.83821e-07
3.40117e-07
3.08411e-07
1.25216e-07
2.12834e-06
4.94064e-06
4.36771e-07
1.03581e-06
1.26554e-06
4.75983e-07
3.41037e-07
3.32975e-07
4.05637e-07
6.23949e-07
8.58026e-07
5.97078e-07
3.02552e-07
2.9686e-07
4.49661e-07
7.04275e-07
1.59267e-06
8.77391e-07
5.34537e-07
5.206e-07
8.04324e-07
1.26379e-06
1.07616e-06
1.11118e-06
6.6143e-07
3.84015e-07
3.47752e-07
3.66486e-07
2.53373e-07
9.15306e-07
1.98491e-06
2.69713e-06
1.11058e-06
5.92879e-06
2.12942e-06
1.01964e-06
4.14102e-07
3.99964e-07
3.45471e-07
5.15396e-07
1.04957e-06
1.04005e-06
6.13984e-07
4.60295e-07
6.49075e-07
2.05302e-06
3.26788e-06
1.12156e-06
4.99657e-07
5.40076e-07
1.44902e-06
2.72459e-06
2.29751e-06
1.94955e-06
1.13201e-06
7.03687e-07
6.24911e-07
5.61315e-07
4.32508e-07
1.16988e-06
4.24111e-07
3.77856e-07
2.58699e-05
0.00216961
0.00176489
5.70811e-06
3.06577e-07
3.34663e-07
3.41673e-07
6.39792e-07
5.26186e-05
1.28315e-05
1.08433e-06
9.84602e-07
2.49311e-06
2.13305e-05
5.9602e-05
2.28893e-06
6.32757e-07
5.25826e-07
3.18992e-06
3.94805e-05
2.89411e-05
6.52681e-06
1.85778e-06
1.44315e-06
1.35192e-06
1.03049e-06
9.7402e-07
4.98943e-07
2.81322e-07
2.93659e-07
0.00433418
0.00629379
0.00610894
0.00262392
2.77564e-06
8.07573e-07
1.67178e-06
0.000297031
0.000667153
0.000325512
6.63314e-05
1.87335e-05
0.00121381
0.00407393
0.00404515
9.0248e-06
7.27646e-07
7.40465e-07
4.67545e-06
0.000589933
0.000615414
0.000444424
0.000191749
9.62596e-05
9.37476e-05
0.000103216
1.32302e-06
2.60703e-07
3.11262e-07
2.95317e-07
0.00633893
0.00635686
0.00631768
0.00634116
0.00228469
4.59424e-05
0.000238377
0.00126164
0.00175722
0.00150302
0.00188236
0.00414857
0.00410101
0.00448499
0.004108
0.00357585
6.4955e-06
1.7402e-06
5.26742e-05
0.000823478
0.00127642
0.00120452
0.00101343
0.00093006
0.000967651
0.000464491
3.61838e-06
4.89231e-07
3.13151e-07
3.88769e-07
0.00636842
0.00634037
0.00637503
0.00631865
0.00631163
0.00282707
0.00154155
0.00188493
0.0030254
0.00367862
0.00418021
0.00410856
0.00455242
0.00409848
0.0045705
0.00411018
0.00402131
0.000779832
0.000380849
0.000620715
0.00142732
0.00142696
0.00143263
0.00142649
0.00144366
0.000526635
5.84376e-06
3.31934e-06
5.49318e-07
6.76177e-07
0.00629624
0.00507832
0.00593362
0.00640537
0.00629753
0.00571105
0.00367254
0.00306658
0.00409398
0.00416823
0.00410471
0.00445991
0.000174643
0.000565934
0.00403602
0.00453526
0.00411136
0.00426922
0.00141592
0.000428331
0.00142636
0.0014614
0.00142843
0.00148522
0.00142787
0.0003985
6.08458e-06
7.66267e-06
4.39817e-06
4.04567e-06
3.0004e-05
0.000117028
0.00177719
0.00627391
0.0064693
0.00627532
0.00608703
0.00375284
0.00413856
0.00408101
0.00429686
2.90134e-05
8.66816e-06
1.03955e-05
2.01867e-05
4.48954e-05
0.00438443
0.00406526
0.00106124
0.000153416
0.00120956
0.00142933
0.0015233
0.00142916
0.00153718
3.76702e-05
3.69999e-06
4.87936e-06
4.29692e-06
8.45363e-06
4.23333e-06
1.12493e-05
0.000148151
0.00440047
0.00627362
0.00647061
0.00619488
9.00002e-05
2.80717e-05
4.29773e-05
1.84078e-05
4.40676e-06
1.11895e-06
1.91056e-06
3.16307e-06
6.93166e-06
2.41174e-05
3.42856e-05
1.89075e-05
1.51693e-05
0.000159665
0.00157359
0.00142993
0.00157476
0.00142208
5.91126e-06
1.57187e-06
1.23336e-06
1.34373e-06
4.70874e-06
4.29713e-07
1.38132e-06
1.18178e-05
0.00161496
0.00649822
0.00624444
0.00243141
1.12381e-05
4.61268e-06
5.49578e-06
2.25688e-06
1.02809e-07
1.43856e-07
1.46083e-07
2.32675e-07
4.77383e-07
2.75263e-06
5.38408e-06
3.7353e-06
3.4589e-06
8.98447e-06
0.000296034
0.00157795
0.00142957
0.000727774
2.79405e-06
5.67559e-07
4.62763e-07
5.29456e-07
2.22158e-06
2.13086e-07
1.25218e-08
1.33926e-06
1.47333e-05
0.00603321
0.00642902
1.98098e-05
2.7791e-06
5.20133e-07
4.17342e-07
5.2029e-08
1.04476e-07
1.5386e-07
1.49504e-07
1.17601e-07
1.28229e-07
2.09914e-07
6.20041e-07
8.80861e-07
8.52594e-07
1.20437e-06
5.43723e-06
1.63066e-05
2.10653e-05
8.03899e-06
5.66901e-07
4.84392e-07
3.39248e-07
3.9373e-07
1.9173e-06
1.85274e-07
2.28041e-08
2.16376e-08
2.16673e-06
1.97556e-05
0.00498981
1.27082e-05
2.12762e-06
7.66839e-07
2.9488e-07
7.99399e-08
1.07084e-07
1.65847e-07
1.56003e-07
1.36522e-07
1.39423e-07
1.56292e-07
7.54161e-08
2.31618e-07
2.16551e-07
3.55072e-07
5.20617e-07
1.89532e-06
2.46773e-06
1.19636e-06
7.98545e-07
4.52239e-07
3.43543e-07
4.20623e-07
1.82669e-06
1.61419e-07
2.57073e-08
3.52048e-08
1.48785e-07
6.70906e-06
0.00180381
8.23871e-06
1.89036e-06
7.52403e-07
1.64538e-07
8.0874e-08
1.22236e-07
1.46314e-07
1.50156e-07
1.47381e-07
1.5335e-07
1.43306e-07
5.87769e-08
3.12051e-08
1.60574e-07
2.26981e-07
7.60718e-08
6.41593e-08
2.54387e-07
1.06793e-06
9.61928e-07
5.4002e-07
3.79943e-07
4.72814e-07
2.17738e-06
1.41651e-07
3.31111e-08
4.62864e-08
5.68327e-08
2.6609e-06
0.000664093
8.86825e-06
2.76295e-06
6.19731e-07
1.18448e-07
7.15442e-08
1.04717e-07
1.23327e-07
1.35316e-07
1.95999e-07
1.96841e-07
1.47478e-07
9.36016e-08
8.00354e-08
1.14928e-07
6.3503e-08
7.75048e-08
7.29805e-08
2.33335e-07
9.75319e-07
1.10991e-06
7.19446e-07
5.43065e-07
6.41722e-07
3.16078e-06
1.35789e-07
4.51557e-08
6.2298e-08
5.11413e-08
1.49482e-06
0.000462746
0.000459635
4.99546e-06
7.85851e-07
1.18684e-07
7.13506e-08
8.34898e-08
8.26477e-08
1.08836e-07
1.8098e-07
1.82693e-07
1.36426e-07
1.17241e-07
7.6291e-08
7.21508e-08
8.28703e-08
7.21032e-08
8.55769e-08
4.31465e-07
1.12207e-06
1.09778e-06
9.92032e-07
9.93107e-07
1.2335e-06
4.95433e-05
1.41378e-07
6.31927e-08
8.32706e-08
6.69721e-08
8.19087e-07
0.000243002
0.000459702
8.90716e-06
9.92662e-07
1.29631e-07
8.96422e-08
7.71565e-08
7.03038e-08
6.30413e-08
1.32525e-07
1.44098e-07
8.93537e-08
7.86253e-08
8.96514e-08
1.0204e-07
1.28236e-07
7.00214e-08
1.37277e-07
7.47963e-07
1.18797e-06
1.2875e-06
1.36608e-06
1.78227e-06
2.2292e-05
0.0029928
1.49431e-07
9.07124e-08
1.10949e-07
1.09282e-07
5.04112e-07
2.92093e-05
0.000458956
1.36318e-05
1.04577e-06
1.56886e-07
1.04167e-07
9.26956e-08
8.36339e-08
5.46202e-08
8.55738e-08
1.2716e-07
6.00022e-08
5.34953e-08
9.18802e-08
1.3585e-07
1.21585e-07
8.69599e-08
2.21683e-07
1.09025e-06
1.41834e-06
1.58706e-06
2.07513e-06
0.000175135
0.00324274
0.0101835
1.60536e-07
1.27322e-07
1.50703e-07
1.74508e-07
4.55338e-07
8.75679e-06
0.000467567
1.56822e-05
9.15296e-07
1.64831e-07
1.13633e-07
9.76272e-08
1.21638e-07
8.37389e-08
6.91683e-08
1.27411e-07
7.66565e-08
6.25217e-08
1.19843e-07
1.6224e-07
1.15567e-07
7.41679e-08
5.78139e-07
1.38185e-06
1.70526e-06
2.11634e-06
0.000287525
0.00341848
0.00959696
0.0118094
1.88446e-07
1.83532e-07
2.24144e-07
2.87373e-07
6.17228e-07
1.22656e-05
0.000471564
1.24873e-05
7.18015e-07
1.74819e-07
1.36359e-07
9.45997e-08
1.47989e-07
1.39514e-07
8.05933e-08
1.14854e-07
1.19288e-07
9.2341e-08
1.50457e-07
1.89641e-07
8.2024e-08
2.12366e-07
1.22069e-06
1.75598e-06
3.49641e-06
0.000345813
0.00279493
0.00843043
0.0117975
0.0118282
2.48704e-07
2.82654e-07
3.52979e-07
5.08308e-07
1.01317e-06
0.000178505
0.000484108
6.48172e-06
4.87012e-07
1.71672e-07
1.59749e-07
1.16764e-07
1.4495e-07
1.66891e-07
1.36093e-07
9.09148e-08
1.57245e-07
1.15474e-07
1.67501e-07
2.20446e-07
5.23008e-08
1.12116e-06
1.79253e-06
1.35456e-05
0.000385745
0.00228002
0.00676666
0.0114743
0.0118263
0.011609
3.99916e-07
4.44377e-07
5.60596e-07
1.02951e-06
1.83718e-06
0.000469045
0.000478778
2.6628e-06
2.66315e-07
1.88927e-07
1.60295e-07
1.54058e-07
1.42917e-07
1.5915e-07
1.57269e-07
1.23818e-07
1.63916e-07
1.55434e-07
1.41988e-07
2.37719e-07
4.56049e-08
2.54358e-06
3.60211e-05
0.000405705
0.00206321
0.00559928
0.0100669
0.0118156
0.0117997
0.0080541
6.8013e-07
6.85563e-07
8.17681e-07
1.90444e-06
4.9382e-06
0.000458432
1.16772e-05
1.10788e-06
2.30282e-07
1.90441e-07
1.54444e-07
1.76904e-07
1.58192e-07
1.56306e-07
1.66484e-07
1.48514e-07
1.54423e-07
2.26618e-07
1.67894e-07
2.02398e-07
1.12578e-07
4.43101e-06
0.000466736
0.00200312
0.00510138
0.00878045
0.0117323
0.0118187
0.0117264
0.00357086
1.0002e-06
1.00877e-06
1.00237e-06
2.45155e-06
1.19856e-05
2.44189e-05
1.97024e-06
5.33672e-07
2.29734e-07
1.98144e-07
1.61617e-07
2.04828e-07
2.05657e-07
1.88121e-07
1.75631e-07
1.66556e-07
1.65763e-07
2.35333e-07
2.28347e-07
1.6247e-07
2.30851e-07
6.56819e-06
0.00175656
0.00440826
0.00735746
0.00934278
0.0104832
0.0116622
0.00172593
8.61963e-06
1.02749e-06
1.20466e-06
2.91936e-06
2.32288e-06
1.00864e-05
4.58857e-06
5.43918e-07
4.15171e-07
2.01233e-07
2.08363e-07
1.89841e-07
2.39792e-07
2.78122e-07
2.65836e-07
2.50395e-07
2.14718e-07
2.09222e-07
2.48824e-07
2.5468e-07
1.67898e-07
2.76762e-07
6.19669e-06
0.0025618
0.00426268
0.00511837
0.0052233
0.00454892
0.00204542
2.89867e-06
4.63686e-06
9.54627e-07
3.68723e-06
5.65328e-06
1.31288e-06
1.4382e-06
9.25657e-07
3.28139e-07
3.8913e-07
1.80819e-07
2.20516e-07
2.36985e-07
2.55545e-07
3.44661e-07
3.46865e-07
3.84552e-07
3.44457e-07
2.89879e-07
2.62744e-07
2.43699e-07
2.85261e-07
5.7388e-07
1.68013e-06
0.000435771
0.00089676
0.000982642
0.000897322
0.00051589
0.000126434
5.01029e-07
3.31604e-06
1.15464e-06
2.38763e-05
6.06155e-06
6.92515e-07
2.67121e-07
4.13578e-07
3.55386e-07
3.74205e-07
2.04025e-07
2.51112e-07
3.19851e-07
3.04628e-07
3.78224e-07
3.78343e-07
4.98178e-07
5.49166e-07
5.00285e-07
4.42497e-07
4.27402e-07
5.9469e-07
1.16975e-06
3.99117e-06
3.14413e-05
6.09988e-05
8.15063e-05
8.46392e-05
5.2308e-05
2.37951e-06
1.26579e-06
5.20405e-06
1.55191e-06
3.19705e-05
5.07434e-06
5.81056e-07
2.06282e-07
3.70149e-07
4.8969e-07
3.6307e-07
2.57592e-07
3.31062e-07
4.70557e-07
4.30776e-07
4.62925e-07
4.06618e-07
5.25552e-07
7.32311e-07
7.48748e-07
7.93343e-07
8.56815e-07
1.21724e-06
1.9541e-06
6.15641e-05
0.00010852
0.000127847
0.000122897
9.81172e-05
5.86648e-05
2.5646e-05
2.22178e-05
0.000412527
2.18502e-06
6.01583e-05
3.83609e-06
4.49129e-07
2.00215e-07
3.93003e-07
5.83854e-07
3.60747e-07
3.74281e-07
4.73015e-07
7.27991e-07
6.84258e-07
6.60121e-07
5.54071e-07
5.41828e-07
8.91163e-07
1.12981e-06
1.24534e-06
2.94509e-06
4.07906e-05
9.87402e-05
0.000147792
0.000215669
0.000268514
0.000277703
0.000251531
0.000217047
0.000236086
0.000474712
0.00150584
3.86387e-06
0.000188095
2.97955e-06
3.57888e-07
2.66483e-07
3.43505e-07
4.95011e-07
4.83604e-07
6.11496e-07
7.38786e-07
1.18064e-06
1.19861e-06
1.0779e-06
8.88584e-07
7.06914e-07
9.60494e-07
8.21602e-05
0.000211043
0.000282705
0.00030561
0.00030918
0.000322205
0.000373614
0.000435099
0.000473729
0.000492183
0.000531547
0.000702213
0.00123157
0.00259236
0.000897373
0.000272422
3.24765e-06
2.91119e-07
2.9677e-07
2.39828e-07
3.10337e-07
5.88325e-07
1.19936e-06
1.32662e-06
2.02198e-06
2.14455e-06
1.90438e-06
1.53381e-06
1.19271e-06
4.42039e-05
0.000303739
0.000531876
0.000607003
0.000610866
0.000603811
0.000605149
0.000631722
0.000680109
0.000735405
0.000805901
0.00094494
0.00127174
0.00199281
0.00354826
0.00191039
0.000562245
3.76278e-06
1.97728e-07
2.98768e-07
1.8577e-07
2.09494e-07
4.02057e-07
2.5998e-06
2.90648e-06
0.000162624
0.000234904
0.000143932
8.6928e-05
9.3879e-05
0.000276433
0.000641814
0.000927215
0.00100657
0.000998043
0.000981424
0.000977138
0.000992679
0.00103313
0.00110293
0.00122323
0.00145375
0.00190569
0.00281805
0.00450437
0.00190519
0.00013447
1.00094e-05
3.53696e-06
1.40492e-06
1.06869e-06
9.11037e-07
8.66206e-07
1.21927e-05
0.000194644
0.00180761
0.00433192
0.00340795
0.00213871
0.00133778
0.0011299
0.00122583
0.0014404
0.00151422
0.0014934
0.00146069
0.0014466
0.00145669
0.00149857
0.00158726
0.0017548
0.00206591
0.00262559
0.00374317
0.0055982
1.94227e-05
1.50994e-05
1.91003e-05
1.53287e-05
1.32928e-05
1.41019e-05
1.5468e-05
1.64513e-05
0.000540443
0.000575543
0.00134508
0.0048564
0.00510043
0.00490025
0.00446602
0.00308665
0.00226517
0.00213568
0.00214852
0.00210566
0.00205467
0.00202726
0.00202986
0.00207392
0.00218196
0.00239399
0.00277158
0.00347125
0.00479714
0.00685198
1.64284e-06
2.10402e-06
4.61845e-06
6.84645e-06
9.82486e-06
1.29956e-05
2.01912e-05
3.97063e-05
8.53617e-05
3.03988e-05
2.11329e-05
4.98441e-05
0.00484287
0.00510569
0.00490779
0.00471853
0.00346205
0.0029735
0.00287051
0.00279323
0.00273063
0.0026946
0.00269327
0.00274214
0.00287171
0.00312761
0.0035926
0.00444604
0.00600406
0.00826362
3.91665e-07
1.53408e-07
6.08045e-07
8.63593e-07
1.40199e-06
1.88483e-06
2.75543e-06
5.70356e-06
1.04183e-05
7.0312e-06
2.94311e-06
6.34269e-06
3.01354e-05
0.00486882
0.00510117
0.00485167
0.00389217
0.00346168
0.00336926
0.00335804
0.00335928
0.00336007
0.00338627
0.00346454
0.00363425
0.00395546
0.0045308
0.00556641
0.00737437
0.00982892
2.24724e-07
1.02023e-08
7.87304e-09
3.83248e-09
3.10641e-08
1.13458e-07
1.99326e-07
5.71698e-07
1.27416e-06
9.94133e-07
2.98309e-07
1.43313e-06
1.16382e-05
0.00308619
0.00489823
0.00413867
0.00335103
0.00321316
0.00334735
0.00354065
0.003719
0.00387409
0.00400932
0.0041798
0.00443926
0.00486814
0.0055949
0.00684658
0.00891461
0.0115568
1.90567e-07
1.13571e-08
1.13285e-08
1.17661e-08
1.34285e-08
1.6421e-08
1.36012e-08
9.4491e-09
8.50758e-09
2.22384e-08
2.27769e-08
8.77004e-07
1.26348e-05
0.00303521
0.00399588
0.00240398
0.00203249
0.0023486
0.00280039
0.00324425
0.00367353
0.00408734
0.00445029
0.0048138
0.00524908
0.00585934
0.00679909
0.00830869
0.0106526
0.013498
1.57057e-07
1.16491e-08
1.14777e-08
1.19781e-08
1.42532e-08
1.8753e-08
1.55578e-08
1.24171e-08
1.42296e-08
2.68738e-08
2.42041e-08
6.5085e-07
1.54791e-05
0.00303555
0.00114837
0.000644416
0.000874274
0.00137328
0.00195071
0.00260899
0.00331416
0.0040083
0.00468083
0.00534374
0.00606468
0.00695727
0.00819193
0.0100137
0.0126669
0.0157671
1.2623e-07
1.17918e-08
1.19838e-08
1.14544e-08
1.39026e-08
1.89249e-08
1.70964e-08
1.50264e-08
1.50155e-08
3.14043e-08
2.77461e-08
2.21127e-07
8.13978e-06
0.000697954
9.1753e-05
0.000212297
0.000504515
0.000871699
0.00138001
0.00207312
0.00292062
0.00387123
0.00487073
0.00590778
0.00701748
0.00829664
0.00991025
0.0120987
0.0151101
0.0185574
1.00376e-07
1.17777e-08
1.22306e-08
1.23781e-08
1.38144e-08
1.78929e-08
1.85007e-08
1.76705e-08
1.92742e-08
3.66535e-08
2.69203e-08
2.05968e-07
2.80047e-06
8.68013e-06
9.01892e-05
0.000283263
0.000501778
0.000790253
0.00124934
0.00193941
0.00288464
0.00405116
0.00541249
0.00689294
0.00847208
0.0102079
0.0122434
0.0148182
0.0182337
0.0221523
7.89349e-08
1.21684e-08
1.33507e-08
1.32042e-08
1.46081e-08
1.63135e-08
1.85269e-08
1.72805e-08
2.91643e-08
3.74358e-08
3.47101e-08
7.19853e-07
3.66491e-06
1.02658e-05
0.000210089
0.000431028
0.000670449
0.00100938
0.00153706
0.00236283
0.00356439
0.00514402
0.00701833
0.00904239
0.0111307
0.0133017
0.0156923
0.018583
0.0224103
0.0269199
6.1757e-08
1.4479e-08
1.4648e-08
1.42167e-08
1.51096e-08
1.63751e-08
1.8018e-08
2.17632e-08
3.77911e-08
3.43549e-08
1.99089e-07
1.77952e-06
5.21611e-06
0.000115227
0.000404393
0.000754715
0.00121324
0.00183764
0.00274807
0.00410243
0.00599887
0.00839071
0.0110339
0.0136668
0.0161413
0.0185013
0.0209622
0.0239377
0.0280922
0.033232
4.45469e-08
1.8057e-08
1.56054e-08
1.67077e-08
1.47058e-08
1.6009e-08
1.86434e-08
3.44563e-08
3.88797e-08
4.45528e-08
7.60577e-07
3.64092e-06
9.28782e-06
0.000353873
0.000828842
0.00158487
0.00272292
0.0043717
0.00666245
0.00964014
0.0131618
0.0168083
0.0201111
0.0228682
0.0250404
0.02684
0.0287214
0.0313251
0.0355799
0.0412364
2.7187e-08
2.2166e-08
1.77949e-08
1.94693e-08
1.64227e-08
1.89826e-08
2.51052e-08
3.84409e-08
3.52747e-08
2.0043e-07
1.72838e-06
5.20864e-06
0.000211112
0.0009747
0.00218441
0.00427787
0.00768559
0.0127856
0.0193879
0.0265382
0.0328424
0.0368411
0.0383826
0.0388064
0.0387363
0.0385421
0.0388839
0.0405267
0.0445841
0.0505388
1.93419e-08
2.58311e-08
1.97463e-08
2.14493e-08
1.87854e-08
2.2536e-08
3.29138e-08
3.83486e-08
4.70726e-08
6.66978e-07
3.24065e-06
9.49128e-06
0.00101564
0.00311913
0.00689089
0.0133829
0.023816
0.0366447
0.0493325
0.0605275
0.0677612
0.068138
0.0639757
0.0583339
0.0537754
0.0508208
0.0494191
0.0500579
0.0539655
0.0601831
2.73161e-08
2.99109e-08
2.29371e-08
2.1171e-08
2.14378e-08
2.76948e-08
3.79862e-08
3.93786e-08
1.50583e-07
1.42211e-06
4.8094e-06
0.00049838
0.00395744
0.010199
0.0206779
0.0364441
0.05557
0.0686941
0.0694104
0.0688573
0.0692972
0.0688373
0.0693638
0.0658289
0.0592715
0.0564719
0.0557419
0.0572472
0.0622685
0.069388
4.3042e-08
3.73207e-08
2.64431e-08
2.13103e-08
2.57054e-08
3.56775e-08
4.49119e-08
5.03523e-08
4.99452e-07
2.49442e-06
1.42117e-05
0.00363544
0.0131051
0.0262214
0.0433674
0.0608937
0.0632475
0.0633516
0.0528021
0.0374812
0.0277193
0.0311307
0.0412547
0.0421852
0.0447966
0.0489373
0.0538605
0.0602059
0.0691769
0.075709
6.95768e-08
4.68057e-08
3.04437e-08
2.51304e-08
3.12127e-08
4.84194e-08
5.3572e-08
1.13002e-07
1.02073e-06
3.81893e-06
0.00147777
0.0142075
0.028555
0.0409394
0.0473156
0.047376
0.0249529
0.00845227
0.0022863
0.000332605
0.000130441
0.000263299
0.0030891
0.0100771
0.0205836
0.0336731
0.0474788
0.0614525
0.0753512
0.0783064
1.26558e-07
5.93119e-08
3.82729e-08
3.34631e-08
4.55253e-08
6.43534e-08
7.58667e-08
3.29866e-07
1.65504e-06
6.89881e-05
0.0112294
0.0288933
0.0349104
0.0360958
0.0294645
0.00923272
0.000266574
3.46418e-06
3.27075e-06
7.38892e-06
0.000112912
0.000111223
0.000248586
0.00290684
0.0131947
0.0308816
0.0499489
0.0687681
0.0780751
0.0817992
2.34716e-07
7.93883e-08
5.30115e-08
5.23498e-08
7.47835e-08
9.52288e-08
1.37178e-07
6.72163e-07
3.01371e-06
0.0045342
0.0268792
0.0291157
0.0273047
0.0183454
0.00545169
9.78275e-06
2.51053e-06
5.02906e-06
3.21004e-05
0.00214511
0.00414575
0.00413119
0.00577948
0.0157825
0.0345072
0.0548453
0.0716656
0.0771965
0.0810218
0.085207
4.21911e-07
1.16673e-07
8.25908e-08
9.66795e-08
1.29722e-07
1.69736e-07
2.87618e-07
1.03744e-06
0.00060875
0.0197955
0.0271465
0.0236042
0.0132148
0.00443048
0.000185934
1.9956e-06
3.75857e-06
1.50997e-05
0.00252945
0.0152982
0.0368746
0.056266
0.0754351
0.0794795
0.0808182
0.0809623
0.0806714
0.080165
0.0822155
0.0863817
8.03583e-07
1.95731e-07
1.53405e-07
1.79493e-07
2.42332e-07
3.25674e-07
4.23353e-07
3.24109e-06
0.00905941
0.02319
0.0232635
0.0127852
0.00425926
0.000655524
4.93459e-06
1.23491e-06
1.18056e-05
0.000570475
0.013449
0.0453389
0.0784085
0.0824407
0.0826182
0.0826353
0.082726
0.0826638
0.0826686
0.0804058
0.0810797
0.0863633
1.67861e-06
3.88832e-07
3.94386e-07
4.43092e-07
5.39544e-07
5.22832e-07
5.54105e-07
0.00250659
0.0196113
0.0229971
0.0160854
0.00598838
0.00139096
0.00019055
5.7695e-06
2.78252e-05
7.51206e-05
0.00682765
0.0431235
0.0772441
0.0822458
0.0825081
0.0824691
0.0821308
0.0825429
0.0827577
0.0825853
0.077973
0.0775716
0.0845899
3.52875e-06
9.81531e-07
2.0484e-06
2.23844e-06
1.73077e-06
1.30842e-06
0.000314944
0.00959244
0.0212377
0.021169
0.0115974
0.00353503
0.000836026
0.000197394
3.49375e-05
0.000135107
0.00206612
0.0278557
0.0737115
0.0757942
0.0714707
0.0744834
0.0492676
0.000728003
0.0601718
0.0822398
0.0795817
0.0625545
0.0602127
0.0773666
6.24652e-06
4.0076e-06
5.20692e-05
8.36704e-05
1.09936e-05
2.18219e-05
0.00104643
0.0118412
0.0211643
0.0209703
0.0104533
0.00298506
0.000821638
0.000257305
0.00014306
0.00038741
0.0132864
0.0541722
0.0642358
0.0414241
0.0168814
0.00513728
3.74133e-05
1.00977e-05
4.39481e-05
0.029051
0.0417591
0.0306241
0.031432
0.0485878
7.64295e-06
0.000165715
0.00248508
0.00238995
0.000574608
7.11894e-05
0.000832796
0.0113757
0.0214973
0.0210588
0.0110546
0.00309023
0.000891002
0.00033146
0.000163215
0.000708241
0.0146628
0.0452128
0.0361352
0.0132541
0.00206431
3.07005e-05
9.85756e-06
1.91726e-06
8.91347e-06
0.00207911
0.00905398
0.00923585
0.00763855
0.0206475
7.13781e-06
0.000288103
0.00287453
0.00296865
0.00167982
0.000205157
0.000630474
0.00966214
0.0210502
0.0214583
0.0122735
0.00345642
0.00102768
0.00038777
0.00013188
0.000297622
0.00764121
0.0280542
0.0183782
0.0042272
0.000262519
1.48826e-05
1.83854e-06
2.06842e-07
9.00354e-07
2.03244e-05
0.000872252
0.00125014
2.68743e-05
0.00898582
6.56481e-06
0.000286415
0.00298728
0.00288804
0.00300946
0.000210805
0.000453389
0.00772536
0.0216212
0.020972
0.0133919
0.00405207
0.00123576
0.000424439
0.000124957
7.6362e-05
0.0011339
0.0110707
0.0062394
0.000634116
2.07563e-05
2.56864e-06
9.25031e-08
1.47563e-07
1.10076e-07
9.36205e-07
1.29478e-05
1.1852e-05
5.01656e-06
1.59125e-05
6.37762e-06
0.000265148
0.00287896
0.00340199
0.00288047
7.33674e-05
0.000114307
0.00365621
0.0207875
0.0216819
0.0125474
0.00463817
0.00157835
0.000482157
0.000136356
7.04374e-05
0.00018987
0.00155326
0.000112035
1.9017e-05
2.93809e-06
5.52797e-08
9.30409e-08
2.22405e-07
2.39937e-07
3.71331e-07
3.99293e-07
3.95419e-07
4.24921e-07
4.19084e-06
5.38133e-06
0.000198792
0.00315996
0.00288881
0.00343575
6.72193e-05
3.3514e-05
0.00165733
0.0138142
0.0159456
0.010595
0.00561258
0.00218964
0.000613664
0.000167694
0.000103822
0.000131886
3.50852e-05
1.29477e-05
2.30138e-06
2.99951e-08
7.4603e-08
1.47464e-07
3.78517e-07
5.74404e-07
6.56886e-07
6.44865e-07
5.88434e-07
4.96253e-07
5.18273e-06
4.70506e-06
1.15798e-05
0.00287307
0.00357441
0.00288222
0.000644717
2.86926e-05
0.000244602
0.00401128
0.00982153
0.00918395
0.00634561
0.00303914
0.000833234
0.000241555
7.98451e-05
2.68823e-05
8.36557e-06
1.76426e-06
5.35884e-08
6.21283e-08
1.15966e-07
2.43917e-07
1.66339e-06
1.47209e-06
1.02057e-06
9.37878e-07
9.7387e-07
1.37206e-06
2.47831e-05
3.85238e-06
4.21336e-06
0.0028839
0.0028866
0.00361289
0.00273846
0.000355206
0.000227739
0.000434268
0.00100961
0.00158381
0.00265125
0.00217448
0.000917928
3.77443e-05
1.79431e-05
5.33248e-06
1.4217e-06
3.37421e-08
1.2195e-07
1.11398e-07
1.56716e-07
5.49617e-07
6.82861e-06
0.000275604
1.58333e-06
1.33888e-06
1.72426e-06
4.91841e-05
0.00176593
2.58767e-06
2.48696e-06
9.40793e-05
0.00350406
0.00288537
0.00307292
0.00192362
0.000392582
0.000320706
0.000347509
0.000632782
0.00111935
0.000279708
2.38423e-05
8.94674e-06
2.80857e-06
1.0434e-06
1.56625e-08
6.69372e-08
8.0466e-08
1.81706e-07
1.60904e-07
4.55697e-07
7.18863e-06
0.00050317
0.000500167
0.000158573
0.000453377
0.00221354
0.00206827
6.26269e-05
2.16401e-06
2.71316e-06
0.00143652
0.00344602
0.00288269
0.00297047
0.00169544
0.000966967
0.000974371
0.000528761
2.08889e-05
8.45789e-06
2.89987e-06
1.2432e-06
6.12705e-07
2.66837e-08
5.74681e-08
7.54105e-08
7.42933e-08
2.0654e-07
1.53246e-07
1.11642e-07
2.17017e-06
1.81852e-05
0.00109965
0.00110398
0.00207054
0.00222345
5.64735e-05
0.000672108
4.72642e-05
1.75994e-06
3.8638e-06
0.00103145
0.00309333
0.00287855
0.00294138
0.00264974
0.000736507
1.31729e-05
1.93838e-06
5.9074e-07
5.15267e-07
3.01941e-07
1.02162e-08
1.92272e-08
7.77783e-08
1.01129e-07
2.77035e-07
2.36608e-07
1.07787e-07
7.6904e-08
6.27942e-08
2.6093e-06
1.95863e-05
0.000661577
0.00162171
0.00203106
5.65028e-05
0.00134618
0.000691962
9.27123e-05
1.58102e-05
8.71862e-05
0.000916145
0.00268414
0.0028688
0.00151669
1.24968e-05
9.67237e-07
3.33056e-07
1.14427e-07
1.46064e-07
7.1018e-08
1.02265e-08
4.32821e-08
7.57602e-08
2.62923e-07
3.92083e-07
1.45748e-07
5.57474e-08
3.04886e-08
3.43475e-08
7.82582e-08
2.18548e-06
1.46946e-05
0.000225727
0.000820307
5.52894e-05
0.00104646
0.00134836
0.000778131
0.00029105
0.000203045
0.000415413
0.00121845
0.00124506
1.55394e-05
1.451e-06
1.07577e-07
3.52583e-07
2.08951e-07
7.86397e-08
4.26716e-08
2.13226e-08
6.71784e-08
6.6084e-08
3.89294e-07
1.9234e-07
6.68854e-08
3.6329e-08
3.46288e-08
3.36725e-08
4.38971e-08
7.42219e-08
1.59088e-06
7.24125e-06
1.17119e-05
5.68168e-05
0.00104662
0.00134465
0.0012262
0.000855592
0.000584657
0.000582804
0.000679024
1.41106e-05
2.13099e-06
1.84751e-07
1.26914e-07
2.05483e-07
4.43592e-07
1.05e-07
5.09904e-08
4.54392e-08
7.8931e-08
1.85336e-07
3.27636e-07
9.92705e-08
3.74651e-08
3.81449e-08
3.70734e-08
2.83622e-08
3.94046e-08
6.35462e-08
1.3312e-07
7.10175e-07
3.30811e-06
4.67135e-05
0.00104733
0.0011851
0.00121144
0.00111436
0.000948501
0.00095076
3.10577e-05
2.80664e-06
3.62396e-07
3.36587e-07
1.62687e-07
6.98869e-08
1.68247e-07
1.96649e-07
7.46519e-08
5.18486e-08
5.96187e-08
4.2918e-07
1.73503e-07
5.71358e-08
4.40236e-08
4.64774e-08
3.95788e-08
5.70855e-08
7.08792e-08
7.82979e-08
8.1116e-08
9.07506e-08
4.1685e-07
9.54035e-06
0.00104961
0.00111832
0.00109972
0.00107581
0.00107514
0.000317547
4.39529e-06
9.28851e-07
9.45327e-07
8.46096e-07
2.10377e-07
6.12563e-08
6.3594e-08
9.80293e-08
6.71352e-08
4.64895e-08
1.4762e-07
4.24445e-07
5.55853e-08
4.55341e-08
5.9417e-08
8.04818e-08
9.87297e-08
9.38837e-08
6.23863e-08
6.80493e-08
8.89072e-08
7.94803e-08
1.4108e-07
3.24159e-06
0.00106959
0.00117197
0.0010418
0.00107485
0.000695998
5.96591e-06
2.07385e-06
2.30132e-06
2.85302e-06
1.81768e-06
2.06571e-07
5.64448e-08
7.46059e-08
4.98383e-08
1.92453e-08
4.28783e-08
6.08928e-07
2.36564e-07
5.85435e-08
4.62543e-08
9.41023e-08
1.39462e-07
1.62229e-07
1.58165e-07
6.87508e-08
5.80654e-08
6.50778e-08
7.13799e-08
1.17602e-07
2.34112e-06
0.00113145
0.00121726
0.00103864
0.000588399
7.94668e-06
3.37551e-06
4.83418e-05
7.80723e-05
4.79566e-06
1.40802e-06
1.00819e-07
6.9635e-08
6.93846e-08
3.21632e-08
1.71425e-08
1.76973e-07
5.03179e-07
4.7801e-08
5.25917e-08
7.26877e-08
1.58168e-07
2.45853e-07
3.38953e-07
3.07158e-07
9.04004e-08
6.64178e-08
7.16658e-08
6.60958e-08
1.38136e-07
2.6482e-06
0.00099885
0.0012151
0.000522315
5.37084e-06
3.19957e-06
0.000105877
0.000197739
0.000198053
4.26149e-06
4.20045e-07
6.49445e-08
6.59143e-08
6.47975e-08
4.52769e-08
7.23448e-08
2.72562e-07
8.52301e-08
7.43659e-08
7.78796e-08
1.39071e-07
2.87176e-07
5.33e-07
9.0521e-07
6.5812e-07
1.0065e-07
6.46226e-08
7.01494e-08
6.4516e-08
1.73452e-07
2.14393e-06
0.000481902
0.000539446
3.87521e-06
1.70551e-06
2.67803e-06
0.000159447
0.000199031
7.86921e-06
1.41527e-06
1.83343e-07
6.28191e-08
6.37148e-08
6.36088e-08
4.85691e-08
6.86267e-08
9.21707e-08
4.94756e-08
5.30499e-08
1.37595e-07
2.44063e-07
4.45549e-07
9.12919e-07
1.85899e-06
1.35919e-06
1.57983e-07
6.88298e-08
7.58973e-08
6.99879e-08
2.9463e-07
1.64241e-06
7.54505e-05
2.92167e-06
1.50116e-06
1.37509e-06
2.43098e-06
4.07022e-06
5.21631e-06
3.15673e-06
9.05107e-07
2.61225e-07
9.22618e-08
4.9486e-08
4.77494e-08
3.28479e-08
4.78527e-08
4.43313e-08
6.90997e-08
8.68569e-08
1.9719e-07
3.97402e-07
7.0497e-07
1.52512e-06
3.03618e-06
2.04084e-06
2.51649e-07
7.76068e-08
8.74422e-08
1.07318e-07
5.37195e-07
9.71839e-07
3.86104e-06
1.78609e-06
1.50183e-06
1.62562e-06
2.02839e-06
2.5087e-06
3.23979e-06
3.20942e-06
1.31574e-06
3.86749e-07
1.70038e-07
8.54233e-08
4.91351e-08
4.63732e-08
4.58271e-08
6.44906e-08
5.38722e-08
1.00462e-07
2.75444e-07
6.6056e-07
1.05597e-06
1.98741e-06
3.30431e-06
2.2711e-06
3.9181e-07
9.79426e-08
9.64369e-08
2.25122e-07
9.86978e-07
6.29152e-07
1.55203e-06
1.84028e-06
1.74495e-06
1.98718e-06
2.23006e-06
2.47066e-06
2.80298e-06
2.94358e-06
3.42719e-06
1.83473e-06
3.80277e-07
1.22192e-07
7.95808e-08
8.94849e-08
9.06317e-08
9.08583e-08
8.00329e-08
1.54308e-07
5.34669e-07
1.20972e-06
1.49127e-06
2.20586e-06
3.44333e-06
2.50501e-06
6.60199e-07
1.55281e-07
1.34309e-07
5.35299e-07
1.87256e-06
8.86813e-07
2.4349e-06
2.47267e-06
2.55074e-06
2.64516e-06
2.91612e-06
4.37508e-06
0.000378668
0.00144444
0.00186474
0.000219294
3.96368e-06
5.77521e-07
1.38076e-07
1.91686e-07
2.20459e-07
2.1126e-07
1.99565e-07
3.16151e-07
1.50371e-06
2.52811e-06
3.70145e-06
2.01668e-06
3.31101e-06
3.51371e-06
1.15464e-06
2.87126e-07
2.83501e-07
1.34193e-06
3.56707e-06
1.77478e-06
1.95898e-05
3.45622e-05
4.30603e-05
0.000281034
0.00191845
0.00685311
0.0140151