/*--------------------------------*- C++ -*----------------------------------*\
| =========                 |                                                 |
| \\      /  F ield         | OpenFOAM: The Open Source CFD Toolbox           |
|  \\    /   O peration     | Version:  2.3.0                                 |
|   \\  /    A nd           | Web:      www.OpenFOAM.org                      |
|    \\/     M anipulation  |                                                 |
\*---------------------------------------------------------------------------*/
FoamFile
{
    version     2.0;
    format      ascii;
    class       volVectorField;
    location    "1.99";
    object      U.particlesMean;
}
// * * * * * * * * * * * * * * * * * * * * * * * * * * * * * * * * * * * * * //

dimensions      [0 1 -1 0 0 0 0];

internalField   nonuniform List<vector> 
6000
(
(-0.00381607 -0.320635 0)
(0.00283101 -0.352859 0)
(0.0207378 -0.360474 0)
(0.0279798 -0.379463 0)
(0.0267631 -0.397444 0)
(0.0222253 -0.422866 0)
(0.0114871 -0.431247 0)
(-0.00655509 -0.433323 0)
(-0.0148051 -0.425646 0)
(-0.020963 -0.422662 0)
(-0.0312736 -0.420962 0)
(-0.0372526 -0.419438 0)
(-0.0585535 -0.406977 0)
(-0.0844958 -0.384152 0)
(-0.0935086 -0.364669 0)
(-0.0857948 -0.359485 0)
(-0.0751979 -0.355053 0)
(-0.0613436 -0.358074 0)
(-0.0587491 -0.358698 0)
(-0.0552654 -0.351759 0)
(-0.0466187 -0.343262 0)
(-0.0383788 -0.339424 0)
(-0.0299048 -0.342558 0)
(-0.0167362 -0.338352 0)
(-0.00480928 -0.339315 0)
(-0.00369731 -0.350355 0)
(-0.00411443 -0.361724 0)
(-0.000960964 -0.371447 0)
(-0.00427843 -0.376097 0)
(0.00153113 -0.315844 0)
(0.0103523 0.00247759 0)
(0.0166938 0.0178478 0)
(0.0331766 0.010506 0)
(0.0403122 0.00636273 0)
(0.0379683 0.00969538 0)
(0.0335086 0.0149406 0)
(0.024551 0.00660797 0)
(0.00576722 0.00262489 0)
(-0.00496062 0.0179352 0)
(-0.0246282 0.0167468 0)
(-0.04696 0.0141357 0)
(-0.065018 0.0166089 0)
(-0.0862985 0.00554409 0)
(-0.0977577 0.00571678 0)
(-0.096112 0.0054361 0)
(-0.091167 0.00386232 0)
(-0.0852715 0.00927374 0)
(-0.0780792 0.0174802 0)
(-0.0706073 0.00434755 0)
(-0.0628436 0.0110616 0)
(-0.049138 0.0144046 0)
(-0.0375642 0.0115476 0)
(-0.0227802 0.0145243 0)
(-0.0096931 0.014043 0)
(-0.00725922 0.0234779 0)
(-0.00768953 0.0234906 0)
(-0.00832378 0.0163306 0)
(-0.0102352 0.0193005 0)
(-0.00943582 0.036467 0)
(-0.0154248 0.000301754 0)
(-0.00693111 -0.0445528 0)
(0.0129778 -0.07793 0)
(0.0255662 -0.0832467 0)
(0.03125 -0.0701292 0)
(0.0307077 -0.0559381 0)
(0.0249578 -0.0476714 0)
(0.0213966 -0.0492897 0)
(0.0112035 -0.041176 0)
(0.00101029 -0.0329341 0)
(-0.0191282 -0.0285849 0)
(-0.0454433 -0.0224356 0)
(-0.0640299 -0.0227762 0)
(-0.0766753 -0.0339277 0)
(-0.0794331 -0.0425951 0)
(-0.073718 -0.0622459 0)
(-0.0727047 -0.068869 0)
(-0.0719994 -0.0673175 0)
(-0.0699731 -0.0639061 0)
(-0.0608901 -0.0737304 0)
(-0.0510986 -0.0836851 0)
(-0.0373183 -0.0926406 0)
(-0.0241947 -0.0895539 0)
(-0.0120226 -0.0910357 0)
(-0.00157585 -0.0914586 0)
(-0.00166856 -0.0723729 0)
(0.00250656 -0.0684326 0)
(0.00506577 -0.0677313 0)
(0.00436415 -0.0623861 0)
(0.00477854 -0.0448189 0)
(0.00927352 -0.0550791 0)
(-0.00127712 -0.0526471 0)
(0.0120076 -0.0837723 0)
(0.0120723 -0.0827229 0)
(0.0211549 -0.0701796 0)
(0.0249777 -0.0539448 0)
(0.0248453 -0.0463323 0)
(0.0226036 -0.0403201 0)
(0.0170393 -0.0287785 0)
(0.00921784 -0.0183069 0)
(-0.0130682 -0.0130475 0)
(-0.0367304 -0.00903539 0)
(-0.0524532 -0.0123622 0)
(-0.0600386 -0.0279632 0)
(-0.0571401 -0.0413606 0)
(-0.0534177 -0.0627161 0)
(-0.0551905 -0.069594 0)
(-0.0592293 -0.0720765 0)
(-0.059368 -0.0713059 0)
(-0.049908 -0.0793404 0)
(-0.0366383 -0.0894436 0)
(-0.0252934 -0.0975004 0)
(-0.0170821 -0.0988621 0)
(-0.0102632 -0.103645 0)
(-0.000482064 -0.101633 0)
(0.00211858 -0.0841998 0)
(0.0124274 -0.0762801 0)
(0.015972 -0.0671289 0)
(0.0095385 -0.060127 0)
(0.010135 -0.0414656 0)
(0.0134456 -0.0465217 0)
(0.00957896 -0.0775326 0)
(0.00924701 -0.102967 0)
(0.00724613 -0.101608 0)
(0.011979 -0.0813763 0)
(0.0135508 -0.0619613 0)
(0.0140289 -0.0527743 0)
(0.0145626 -0.0447662 0)
(0.0126454 -0.0299407 0)
(0.00643304 -0.0167359 0)
(-0.013002 -0.00954459 0)
(-0.0304104 -0.00662731 0)
(-0.0421533 -0.017368 0)
(-0.0491243 -0.0394427 0)
(-0.0410087 -0.061823 0)
(-0.0392561 -0.0783199 0)
(-0.0438538 -0.0824251 0)
(-0.0473428 -0.0868891 0)
(-0.0470935 -0.0871027 0)
(-0.0387976 -0.102038 0)
(-0.0245047 -0.118443 0)
(-0.0149076 -0.123769 0)
(-0.00842582 -0.120848 0)
(-0.00466768 -0.122419 0)
(0.000956258 -0.114986 0)
(0.00818119 -0.10051 0)
(0.0162202 -0.094402 0)
(0.0159802 -0.0853479 0)
(0.00821789 -0.0767777 0)
(0.0100177 -0.0515167 0)
(0.0113738 -0.0498369 0)
(0.00860439 -0.0944963 0)
(0.0178586 -0.109785 0)
(0.00446305 -0.10366 0)
(0.00875768 -0.0848324 0)
(0.00580206 -0.0653356 0)
(0.00228165 -0.0551081 0)
(0.00214199 -0.0453415 0)
(-0.000121625 -0.031154 0)
(-0.00807818 -0.0143283 0)
(-0.0229517 -0.00915481 0)
(-0.0329244 -0.00877745 0)
(-0.0402943 -0.0188541 0)
(-0.0427636 -0.0437124 0)
(-0.0266775 -0.0682972 0)
(-0.0225728 -0.0819937 0)
(-0.0263533 -0.0874844 0)
(-0.0318297 -0.0882353 0)
(-0.0311498 -0.0930189 0)
(-0.0221549 -0.11489 0)
(-0.0122743 -0.131216 0)
(-0.00546292 -0.134992 0)
(0.000808551 -0.127094 0)
(0.00308783 -0.120478 0)
(0.00611578 -0.110533 0)
(0.0144441 -0.103959 0)
(0.0186758 -0.097024 0)
(0.0115594 -0.0879834 0)
(0.00210793 -0.0804978 0)
(0.00686407 -0.0519524 0)
(0.00900003 -0.0461949 0)
(0.00637447 -0.105062 0)
(0.0182148 -0.115202 0)
(0.0152613 -0.106145 0)
(0.0114303 -0.0849558 0)
(0.0134434 -0.0656078 0)
(0.00211531 -0.0526449 0)
(-0.0062409 -0.0400919 0)
(-0.013947 -0.0265131 0)
(-0.0233275 -0.0128509 0)
(-0.0334913 -0.0111472 0)
(-0.0423728 -0.0143856 0)
(-0.0438274 -0.0219849 0)
(-0.038517 -0.0457002 0)
(-0.0175607 -0.0700689 0)
(-0.0136152 -0.0807908 0)
(-0.0164764 -0.0930138 0)
(-0.0174661 -0.0985435 0)
(-0.0140017 -0.104358 0)
(-0.00848393 -0.121338 0)
(-0.00220705 -0.135026 0)
(0.00367292 -0.135692 0)
(0.00734604 -0.12399 0)
(0.00801556 -0.117954 0)
(0.0112691 -0.111314 0)
(0.014546 -0.105047 0)
(0.0129617 -0.0954113 0)
(0.00410668 -0.0845924 0)
(-0.0065278 -0.0776565 0)
(-0.00266312 -0.0495824 0)
(0.00439202 -0.0428413 0)
(0.00787815 -0.110783 0)
(0.0166472 -0.116366 0)
(0.0142233 -0.104632 0)
(0.0166359 -0.0856636 0)
(0.0141635 -0.0602579 0)
(0.00425134 -0.0417254 0)
(-0.013253 -0.026196 0)
(-0.0254388 -0.0165575 0)
(-0.0364344 -0.00759294 0)
(-0.0433434 -0.00841697 0)
(-0.0506688 -0.0180479 0)
(-0.0467201 -0.0293249 0)
(-0.0353002 -0.0481659 0)
(-0.0152162 -0.0720811 0)
(-0.00680482 -0.0818838 0)
(-0.00671988 -0.0926171 0)
(-0.00594726 -0.107942 0)
(0.000944056 -0.113685 0)
(0.00836611 -0.122046 0)
(0.00768361 -0.130114 0)
(0.00940308 -0.129499 0)
(0.0116935 -0.11969 0)
(0.0124749 -0.113075 0)
(0.0104331 -0.105409 0)
(0.00564304 -0.0974864 0)
(0.00113097 -0.0891935 0)
(-0.00733732 -0.0786776 0)
(-0.0160309 -0.07071 0)
(-0.0110601 -0.046292 0)
(0.000360863 -0.0437297 0)
(0.00696231 -0.110166 0)
(0.0135327 -0.114229 0)
(0.00991881 -0.0969421 0)
(0.0145191 -0.0759352 0)
(0.0145795 -0.0490868 0)
(-0.00297616 -0.0238538 0)
(-0.0188485 -0.00772434 0)
(-0.0375163 -0.00371328 0)
(-0.0480867 -0.00255878 0)
(-0.0525933 -0.00883352 0)
(-0.0559391 -0.0224189 0)
(-0.0470012 -0.035155 0)
(-0.0355207 -0.0552968 0)
(-0.0146004 -0.0791659 0)
(-0.00532258 -0.0891909 0)
(-0.00239035 -0.101093 0)
(-0.000525179 -0.115017 0)
(0.00469458 -0.118184 0)
(0.0143236 -0.12361 0)
(0.0118663 -0.131147 0)
(0.00890961 -0.127787 0)
(0.0104314 -0.114498 0)
(0.00830934 -0.105767 0)
(-0.000575832 -0.0980812 0)
(-0.00749237 -0.0899718 0)
(-0.0156491 -0.0823233 0)
(-0.0228016 -0.0724082 0)
(-0.0271095 -0.0641793 0)
(-0.016872 -0.0442565 0)
(-0.000888531 -0.0481989 0)
(0.00445031 -0.106144 0)
(0.011035 -0.107755 0)
(0.00655058 -0.0878128 0)
(0.00909941 -0.0609412 0)
(0.0104563 -0.0355095 0)
(-0.00400896 -0.0124813 0)
(-0.0218524 0.00126912 0)
(-0.0454647 0.00263388 0)
(-0.0542446 -0.000356764 0)
(-0.0575646 -0.00909912 0)
(-0.0578071 -0.0264813 0)
(-0.0489058 -0.0415685 0)
(-0.0348919 -0.0640737 0)
(-0.0155459 -0.0864466 0)
(-0.0068786 -0.0958558 0)
(-0.004077 -0.109464 0)
(-0.000606874 -0.12301 0)
(0.00434947 -0.128643 0)
(0.00841561 -0.131676 0)
(0.00454522 -0.134845 0)
(0.00190623 -0.127464 0)
(-0.00205317 -0.110007 0)
(-0.00546116 -0.0987087 0)
(-0.0134677 -0.0844186 0)
(-0.0232688 -0.0757288 0)
(-0.0311114 -0.0729716 0)
(-0.036076 -0.067382 0)
(-0.0330133 -0.0590093 0)
(-0.0207035 -0.0442434 0)
(-0.00424852 -0.0497541 0)
(0.00265335 -0.100862 0)
(0.00888746 -0.103649 0)
(0.00344955 -0.0833769 0)
(0.00609906 -0.0565266 0)
(0.0116168 -0.0293509 0)
(-0.00477868 -0.00511949 0)
(-0.0233112 0.00974116 0)
(-0.0422282 0.00691862 0)
(-0.0509743 0.00122173 0)
(-0.0536874 -0.0115373 0)
(-0.0545585 -0.0296057 0)
(-0.0467739 -0.0484607 0)
(-0.0326243 -0.0726192 0)
(-0.0183691 -0.0937113 0)
(-0.00907584 -0.101047 0)
(-0.00433192 -0.115882 0)
(0.000795998 -0.131044 0)
(0.00679314 -0.133305 0)
(0.0037233 -0.132294 0)
(-0.00453504 -0.134074 0)
(-0.0146208 -0.123059 0)
(-0.0222264 -0.103349 0)
(-0.0218562 -0.0858821 0)
(-0.0283933 -0.071331 0)
(-0.0354868 -0.0657076 0)
(-0.0420497 -0.0666486 0)
(-0.0430436 -0.0635885 0)
(-0.0349252 -0.0594569 0)
(-0.024501 -0.0488079 0)
(-0.00808789 -0.0522457 0)
(0.00520603 -0.0989942 0)
(0.00892423 -0.102534 0)
(0.00160639 -0.0816005 0)
(0.00885862 -0.0596206 0)
(0.0107607 -0.0296989 0)
(-0.00206897 -0.00320722 0)
(-0.0193905 0.0117441 0)
(-0.0316063 0.00853891 0)
(-0.0420815 0.00197695 0)
(-0.0415832 -0.0114781 0)
(-0.0452471 -0.0305316 0)
(-0.0418461 -0.0537168 0)
(-0.0277781 -0.0751611 0)
(-0.0178588 -0.0932934 0)
(-0.0099294 -0.102354 0)
(-0.00262068 -0.117449 0)
(0.00466051 -0.130891 0)
(0.00904775 -0.131402 0)
(0.00355519 -0.130338 0)
(-0.0144196 -0.130156 0)
(-0.030095 -0.117992 0)
(-0.0324348 -0.100825 0)
(-0.0352577 -0.079567 0)
(-0.0397809 -0.0632826 0)
(-0.0462765 -0.0584826 0)
(-0.0499121 -0.057686 0)
(-0.0478088 -0.0570312 0)
(-0.0357952 -0.0576431 0)
(-0.0255369 -0.053311 0)
(-0.0090809 -0.0613261 0)
(0.00678313 -0.0998362 0)
(0.00908287 -0.102885 0)
(0.00205555 -0.0825254 0)
(0.0100321 -0.0598836 0)
(0.00979254 -0.0323996 0)
(0.00250946 -0.00391672 0)
(-0.0119862 0.0128137 0)
(-0.0217189 0.0122268 0)
(-0.0339401 0.00197651 0)
(-0.0331728 -0.0119182 0)
(-0.0307576 -0.0308872 0)
(-0.0338403 -0.0560272 0)
(-0.0234919 -0.074499 0)
(-0.0155986 -0.0912879 0)
(-0.00842872 -0.105768 0)
(0.000681256 -0.119175 0)
(0.00768739 -0.125956 0)
(0.00865515 -0.127665 0)
(0.00209433 -0.12798 0)
(-0.0229993 -0.127889 0)
(-0.0339318 -0.118051 0)
(-0.0387485 -0.0991128 0)
(-0.043238 -0.0750305 0)
(-0.0464271 -0.0563773 0)
(-0.0541497 -0.0515136 0)
(-0.0553943 -0.0493312 0)
(-0.0513219 -0.0520473 0)
(-0.03942 -0.0566758 0)
(-0.030193 -0.0573655 0)
(-0.00690515 -0.0742447 0)
(0.00828341 -0.0993411 0)
(0.00877447 -0.102691 0)
(0.00299521 -0.0842574 0)
(0.010979 -0.0619672 0)
(0.0124955 -0.0341996 0)
(0.00884976 -0.00622859 0)
(-0.00455329 0.0136679 0)
(-0.0107901 0.0160271 0)
(-0.0185053 0.00319161 0)
(-0.0223711 -0.00773178 0)
(-0.016994 -0.0262475 0)
(-0.0221886 -0.0497156 0)
(-0.0182466 -0.0694376 0)
(-0.0144445 -0.0873092 0)
(-0.0105484 -0.107466 0)
(-0.00115469 -0.120228 0)
(0.00482996 -0.124119 0)
(0.00696284 -0.121348 0)
(-0.00333096 -0.121779 0)
(-0.0225289 -0.125195 0)
(-0.0335838 -0.116072 0)
(-0.0408171 -0.0952239 0)
(-0.046642 -0.0697564 0)
(-0.0524872 -0.0505198 0)
(-0.060397 -0.0460294 0)
(-0.0599013 -0.0463246 0)
(-0.0534225 -0.0527689 0)
(-0.0417161 -0.0596928 0)
(-0.0327023 -0.07146 0)
(-0.00713175 -0.09165 0)
(0.011375 -0.0997777 0)
(0.010516 -0.10307 0)
(0.00509022 -0.0865424 0)
(0.013522 -0.0642152 0)
(0.0186661 -0.034623 0)
(0.0162846 -0.00797181 0)
(0.00662842 0.0109423 0)
(-0.000602736 0.0153532 0)
(-0.00223661 0.00588087 0)
(-0.00831877 -0.00444045 0)
(-0.00705596 -0.0251772 0)
(-0.00899105 -0.0458021 0)
(-0.0136995 -0.0642116 0)
(-0.0124399 -0.0830213 0)
(-0.00998775 -0.110496 0)
(-0.0040736 -0.121608 0)
(0.00379049 -0.123583 0)
(0.00477501 -0.117678 0)
(-0.00543578 -0.118668 0)
(-0.0195914 -0.122094 0)
(-0.0313176 -0.112009 0)
(-0.0398198 -0.0921735 0)
(-0.0475775 -0.067339 0)
(-0.0559425 -0.0503613 0)
(-0.0651646 -0.0473325 0)
(-0.06372 -0.051186 0)
(-0.0560956 -0.0607234 0)
(-0.0418911 -0.0724438 0)
(-0.0293598 -0.0934004 0)
(-0.00387227 -0.111702 0)
(0.0130115 -0.0989319 0)
(0.0101754 -0.101708 0)
(0.00645855 -0.0877255 0)
(0.0164907 -0.0662844 0)
(0.0241866 -0.033116 0)
(0.0273498 -0.0106645 0)
(0.0233523 0.00793309 0)
(0.0172741 0.0102984 0)
(0.0174024 0.00490511 0)
(0.0117781 0.00189491 0)
(0.00713173 -0.0192515 0)
(0.00394412 -0.0404363 0)
(-0.00658202 -0.0568389 0)
(-0.00927635 -0.0768051 0)
(-0.00696986 -0.105534 0)
(-0.00583372 -0.115839 0)
(0.00249447 -0.118544 0)
(-0.000233102 -0.112082 0)
(-0.00481867 -0.114002 0)
(-0.0184597 -0.117916 0)
(-0.0292384 -0.109476 0)
(-0.0376862 -0.0938723 0)
(-0.0463215 -0.070914 0)
(-0.0572685 -0.0562883 0)
(-0.0656537 -0.0588203 0)
(-0.0620011 -0.0683752 0)
(-0.0518872 -0.0840444 0)
(-0.0375029 -0.0987216 0)
(-0.0245535 -0.122443 0)
(-0.00159764 -0.136324 0)
(0.0103056 -0.100449 0)
(0.00526375 -0.102152 0)
(0.00695845 -0.0893506 0)
(0.0180546 -0.0676024 0)
(0.0276812 -0.0327291 0)
(0.0337726 -0.0113589 0)
(0.0370953 0.00772002 0)
(0.0383261 0.00887981 0)
(0.0348072 0.000693016 0)
(0.0309018 -0.00323862 0)
(0.0257733 -0.0163 0)
(0.0153485 -0.0364903 0)
(0.00509002 -0.0514367 0)
(-0.00311721 -0.0692226 0)
(-0.00274167 -0.094724 0)
(-0.00584008 -0.105732 0)
(-0.000842857 -0.110334 0)
(-0.0017713 -0.106659 0)
(-0.00411044 -0.107244 0)
(-0.0167062 -0.10871 0)
(-0.0300347 -0.104052 0)
(-0.0404633 -0.0896257 0)
(-0.0514714 -0.0701124 0)
(-0.0554469 -0.0600039 0)
(-0.0594059 -0.0666025 0)
(-0.0549129 -0.0766819 0)
(-0.0441582 -0.0949738 0)
(-0.0303895 -0.112524 0)
(-0.0177082 -0.137433 0)
(-0.00203068 -0.150865 0)
(0.002311 -0.104364 0)
(0.00320117 -0.10412 0)
(0.00915809 -0.0928735 0)
(0.020679 -0.0707939 0)
(0.0296117 -0.0356564 0)
(0.0357309 -0.0127011 0)
(0.0452394 0.0103741 0)
(0.0531431 0.0146448 0)
(0.0475821 0.00042245 0)
(0.0422125 -0.008378 0)
(0.0378922 -0.0174338 0)
(0.0298603 -0.0346652 0)
(0.0162638 -0.0466497 0)
(0.00690888 -0.0612589 0)
(0.00241782 -0.0799053 0)
(-0.00389315 -0.0927921 0)
(-0.00281911 -0.0999128 0)
(-0.00235157 -0.0997293 0)
(-0.00186942 -0.0977388 0)
(-0.0094501 -0.0985586 0)
(-0.031303 -0.0914842 0)
(-0.0472315 -0.0778368 0)
(-0.0573464 -0.0606334 0)
(-0.0533174 -0.0515851 0)
(-0.0511908 -0.0644963 0)
(-0.0467097 -0.0750305 0)
(-0.0359583 -0.0966097 0)
(-0.0247361 -0.119402 0)
(-0.0124033 -0.144236 0)
(-0.000670586 -0.158234 0)
(0.00195056 -0.107817 0)
(0.00608924 -0.106041 0)
(0.0131656 -0.096724 0)
(0.0234504 -0.0753434 0)
(0.0292541 -0.0426033 0)
(0.0381483 -0.0226997 0)
(0.0502037 -0.00374275 0)
(0.0649139 0.0102006 0)
(0.0638335 -0.0013341 0)
(0.0497266 -0.0108432 0)
(0.0447378 -0.0166484 0)
(0.0382371 -0.0309073 0)
(0.0267772 -0.0426241 0)
(0.0162615 -0.052184 0)
(0.00773598 -0.0645345 0)
(-0.00120441 -0.0798167 0)
(-0.00137612 -0.0873479 0)
(-0.00304792 -0.0910174 0)
(-0.00188945 -0.0865285 0)
(-0.0091475 -0.0861942 0)
(-0.031723 -0.0781602 0)
(-0.0502364 -0.0652462 0)
(-0.0568958 -0.0531806 0)
(-0.0491021 -0.0467405 0)
(-0.0446925 -0.0637828 0)
(-0.0378843 -0.0749282 0)
(-0.0272213 -0.0965667 0)
(-0.0193126 -0.121021 0)
(-0.00627258 -0.146244 0)
(0.00257067 -0.16168 0)
(0.00578979 -0.108113 0)
(0.0101043 -0.105692 0)
(0.0149174 -0.0987821 0)
(0.028037 -0.0827896 0)
(0.0370616 -0.0505907 0)
(0.049066 -0.0311293 0)
(0.0579665 -0.0149724 0)
(0.0756965 -0.00455361 0)
(0.0746286 -0.00411741 0)
(0.0592671 -0.0106795 0)
(0.0507697 -0.014501 0)
(0.0465935 -0.0250072 0)
(0.0383647 -0.0388123 0)
(0.0226207 -0.0404351 0)
(0.0153876 -0.0527563 0)
(0.00405927 -0.06667 0)
(0.00147218 -0.074023 0)
(-0.00411449 -0.0805875 0)
(-0.00490531 -0.0755657 0)
(-0.0138224 -0.0753576 0)
(-0.0287902 -0.0697374 0)
(-0.0451231 -0.0575718 0)
(-0.0514638 -0.0484675 0)
(-0.0412784 -0.0449831 0)
(-0.036678 -0.0657089 0)
(-0.0305004 -0.0795047 0)
(-0.0204654 -0.0998072 0)
(-0.0138286 -0.12013 0)
(-0.00105897 -0.145262 0)
(0.00759794 -0.164638 0)
(0.00862444 -0.107451 0)
(0.013112 -0.103907 0)
(0.0234098 -0.0997317 0)
(0.0351085 -0.0888927 0)
(0.0439445 -0.0594697 0)
(0.055836 -0.0391777 0)
(0.0659915 -0.0231519 0)
(0.0810801 -0.0144687 0)
(0.0831692 -0.00740062 0)
(0.0690074 -0.00840665 0)
(0.0584139 -0.0103743 0)
(0.0529967 -0.0158169 0)
(0.0475945 -0.02949 0)
(0.0316248 -0.0319569 0)
(0.0207883 -0.0401029 0)
(0.0106959 -0.0541357 0)
(0.0033951 -0.059666 0)
(-0.0050889 -0.0697739 0)
(-0.0104947 -0.0688637 0)
(-0.015193 -0.0676642 0)
(-0.0246721 -0.0633838 0)
(-0.0363544 -0.0508907 0)
(-0.0426631 -0.0461164 0)
(-0.0322244 -0.049698 0)
(-0.0303039 -0.0710455 0)
(-0.0231981 -0.0837494 0)
(-0.0144843 -0.104038 0)
(-0.00805475 -0.121103 0)
(0.00233478 -0.145076 0)
(0.0116805 -0.162442 0)
(0.0107063 -0.111707 0)
(0.0202388 -0.108708 0)
(0.0319126 -0.101862 0)
(0.0430815 -0.0946388 0)
(0.0503609 -0.0667702 0)
(0.0623775 -0.042931 0)
(0.0723087 -0.0300008 0)
(0.0867008 -0.0190811 0)
(0.0884828 -0.007543 0)
(0.0796814 -0.00469688 0)
(0.0650772 -0.00169232 0)
(0.0580698 -0.00550542 0)
(0.0548815 -0.0174095 0)
(0.0429852 -0.0244606 0)
(0.027294 -0.0317108 0)
(0.0155067 -0.0416737 0)
(0.00648783 -0.0494683 0)
(-0.0065205 -0.0647375 0)
(-0.0137361 -0.0635081 0)
(-0.0177288 -0.0608214 0)
(-0.0236861 -0.0560152 0)
(-0.0273716 -0.0459639 0)
(-0.0309864 -0.0435002 0)
(-0.0233873 -0.0532417 0)
(-0.0245308 -0.0782034 0)
(-0.0160586 -0.0891431 0)
(-0.00984177 -0.10633 0)
(-0.0036292 -0.120672 0)
(0.00402187 -0.141183 0)
(0.0106729 -0.157026 0)
(0.0104306 -0.117194 0)
(0.0215314 -0.117245 0)
(0.0344446 -0.108984 0)
(0.047428 -0.0993435 0)
(0.054562 -0.0719215 0)
(0.0669808 -0.0468254 0)
(0.0757209 -0.0348288 0)
(0.0905004 -0.0250587 0)
(0.0935305 -0.00534501 0)
(0.0881908 0.000536139 0)
(0.0744084 0.00478648 0)
(0.0627169 0.00370221 0)
(0.058921 -0.00714684 0)
(0.0534845 -0.0187499 0)
(0.0317444 -0.0273056 0)
(0.0184446 -0.0323299 0)
(0.00853472 -0.0442869 0)
(-0.00359622 -0.0598266 0)
(-0.0145614 -0.0590212 0)
(-0.0162824 -0.0538331 0)
(-0.020068 -0.0494167 0)
(-0.0218822 -0.0420396 0)
(-0.021312 -0.0403119 0)
(-0.0154841 -0.0527164 0)
(-0.0162882 -0.0830103 0)
(-0.00627452 -0.096048 0)
(-0.0043965 -0.108966 0)
(-0.00198038 -0.120397 0)
(0.00310153 -0.14141 0)
(0.00926545 -0.150098 0)
(0.0088478 -0.122153 0)
(0.0217808 -0.127073 0)
(0.0349245 -0.117714 0)
(0.0484541 -0.106081 0)
(0.0560991 -0.0790697 0)
(0.067096 -0.0515384 0)
(0.075519 -0.0430289 0)
(0.0860685 -0.0282786 0)
(0.0927981 -0.00519292 0)
(0.0912315 0.00412786 0)
(0.08189 0.00863075 0)
(0.0729715 0.00827848 0)
(0.0633412 0.00348741 0)
(0.0571157 -0.00894338 0)
(0.0394621 -0.0257731 0)
(0.0203716 -0.0252764 0)
(0.0103073 -0.0362918 0)
(-0.00134188 -0.0533913 0)
(-0.0105796 -0.055848 0)
(-0.0122848 -0.0496654 0)
(-0.0152557 -0.0449117 0)
(-0.0177132 -0.0378393 0)
(-0.0158281 -0.039525 0)
(-0.00753321 -0.0539775 0)
(-0.00756554 -0.0878529 0)
(-0.000128761 -0.10122 0)
(0.00104424 -0.108493 0)
(0.000753863 -0.118216 0)
(0.00189721 -0.141221 0)
(0.00631793 -0.143064 0)
(0.00763317 -0.124529 0)
(0.023534 -0.13166 0)
(0.0378563 -0.126716 0)
(0.0490243 -0.114587 0)
(0.054314 -0.0883737 0)
(0.0617899 -0.059965 0)
(0.0702002 -0.0471767 0)
(0.0774173 -0.0305922 0)
(0.0891921 -0.00788262 0)
(0.0907287 0.00477085 0)
(0.0851107 0.0121501 0)
(0.0786223 0.0107932 0)
(0.0669354 0.00726183 0)
(0.0600543 -0.003113 0)
(0.0401021 -0.018921 0)
(0.0232331 -0.0197134 0)
(0.0137823 -0.0266026 0)
(0.00507667 -0.0479076 0)
(-0.0032185 -0.0530536 0)
(-0.00761662 -0.0492394 0)
(-0.0107491 -0.0429014 0)
(-0.0119602 -0.034333 0)
(-0.0115921 -0.0408144 0)
(-0.00210193 -0.0645091 0)
(-0.00178569 -0.0929889 0)
(0.00372987 -0.102997 0)
(0.00518678 -0.108186 0)
(0.00397303 -0.120935 0)
(0.00163357 -0.144773 0)
(0.00505577 -0.138566 0)
(0.00837695 -0.126945 0)
(0.0284923 -0.135997 0)
(0.0414664 -0.131903 0)
(0.0486007 -0.121268 0)
(0.0520792 -0.0982748 0)
(0.0540258 -0.0678522 0)
(0.0631557 -0.0491498 0)
(0.0696765 -0.0291141 0)
(0.0823177 -0.0100103 0)
(0.0861686 0.00526337 0)
(0.0832983 0.0147879 0)
(0.0781036 0.0145622 0)
(0.0681766 0.0097313 0)
(0.0596587 0.000162608 0)
(0.0367216 -0.0114402 0)
(0.0310023 -0.0133492 0)
(0.0194709 -0.0216703 0)
(0.0121539 -0.0433789 0)
(0.00383226 -0.0510665 0)
(-0.00352392 -0.0504397 0)
(-0.0063397 -0.0461934 0)
(-0.0070328 -0.0357491 0)
(-0.00590889 -0.0451272 0)
(0.00204013 -0.0736372 0)
(0.003982 -0.0988379 0)
(0.0103363 -0.109856 0)
(0.0109778 -0.113259 0)
(0.00866925 -0.130156 0)
(0.00188198 -0.147005 0)
(0.00369266 -0.133653 0)
(0.010078 -0.129939 0)
(0.0306111 -0.141135 0)
(0.0429841 -0.135465 0)
(0.0467391 -0.126569 0)
(0.0463402 -0.104926 0)
(0.0444978 -0.0740989 0)
(0.0515042 -0.0479914 0)
(0.0615508 -0.0258494 0)
(0.0710424 -0.00843671 0)
(0.0779132 0.00694179 0)
(0.0775519 0.0169362 0)
(0.0734922 0.0169122 0)
(0.0656333 0.013249 0)
(0.0526548 0.00643418 0)
(0.0363252 -0.00495058 0)
(0.0359714 -0.00871303 0)
(0.0223336 -0.0194918 0)
(0.0107413 -0.0421347 0)
(0.00713887 -0.0530591 0)
(0.00233792 -0.0558726 0)
(0.000248201 -0.0521 0)
(-0.00173649 -0.0409799 0)
(-0.000112772 -0.0480362 0)
(0.00827024 -0.0730991 0)
(0.0139354 -0.10199 0)
(0.01843 -0.120788 0)
(0.0198218 -0.126587 0)
(0.0163759 -0.140594 0)
(0.00488079 -0.156016 0)
(0.00147817 -0.134251 0)
(0.0102132 -0.141006 0)
(0.0304159 -0.150448 0)
(0.0406396 -0.140828 0)
(0.0415952 -0.131526 0)
(0.0366301 -0.109043 0)
(0.0318061 -0.0775369 0)
(0.038749 -0.0444037 0)
(0.0520912 -0.0246752 0)
(0.0601587 -0.0042741 0)
(0.0671714 0.00899056 0)
(0.0665682 0.0172789 0)
(0.0657869 0.016166 0)
(0.0590258 0.0123163 0)
(0.0441923 0.00664809 0)
(0.0323292 -0.00323513 0)
(0.0342848 -0.00696366 0)
(0.0240048 -0.0196787 0)
(0.0106962 -0.0417259 0)
(0.0113086 -0.052356 0)
(0.00786313 -0.0534684 0)
(0.00438425 -0.0498682 0)
(0.00134734 -0.0414742 0)
(0.00209285 -0.0508664 0)
(0.0101178 -0.0747489 0)
(0.0208257 -0.0997163 0)
(0.0246833 -0.120491 0)
(0.0250786 -0.127608 0)
(0.0202998 -0.139985 0)
(0.00918963 -0.154251 0)
(0.00511433 -0.138802 0)
(0.00771641 -0.155689 0)
(0.0263729 -0.164574 0)
(0.034296 -0.148206 0)
(0.0339276 -0.133052 0)
(0.0268813 -0.11022 0)
(0.0205818 -0.0778495 0)
(0.0264275 -0.0395348 0)
(0.039637 -0.0216881 0)
(0.048623 -0.00248515 0)
(0.0511556 0.0104704 0)
(0.053528 0.016211 0)
(0.055642 0.0138678 0)
(0.0486801 0.0110555 0)
(0.0386875 0.00585614 0)
(0.0273124 -0.00241254 0)
(0.0300572 -0.0077825 0)
(0.0210184 -0.0163644 0)
(0.0101714 -0.0380997 0)
(0.0140562 -0.0466565 0)
(0.0105672 -0.0471216 0)
(0.00640893 -0.0437479 0)
(0.00396342 -0.0418761 0)
(0.00414669 -0.0558479 0)
(0.0083914 -0.0800199 0)
(0.023148 -0.0992635 0)
(0.0280952 -0.116929 0)
(0.0275085 -0.121434 0)
(0.0214014 -0.13126 0)
(0.0104581 -0.147789 0)
(0.00628489 -0.136408 0)
(0.00322745 -0.165705 0)
(0.0206538 -0.171234 0)
(0.026884 -0.150256 0)
(0.0272212 -0.131802 0)
(0.0200497 -0.112268 0)
(0.0118247 -0.0797426 0)
(0.015591 -0.0408513 0)
(0.0281113 -0.0212849 0)
(0.0357945 -0.00496883 0)
(0.0371193 0.0134321 0)
(0.0414445 0.0138354 0)
(0.0438516 0.01044 0)
(0.0384148 0.0104132 0)
(0.0346124 0.00754919 0)
(0.0277547 -0.0029005 0)
(0.0246223 -0.00828002 0)
(0.0182987 -0.00974274 0)
(0.0122729 -0.0314423 0)
(0.0147575 -0.0388386 0)
(0.00946849 -0.037735 0)
(0.00755837 -0.0382941 0)
(0.00630069 -0.0422634 0)
(0.00476517 -0.058605 0)
(0.0120635 -0.0808874 0)
(0.0236055 -0.0983311 0)
(0.0289696 -0.111814 0)
(0.0282788 -0.112229 0)
(0.0219467 -0.12172 0)
(0.00954686 -0.138583 0)
(0.00502964 -0.128479 0)
(-0.00271374 -0.16787 0)
(0.014942 -0.170747 0)
(0.0203666 -0.147814 0)
(0.0214403 -0.12945 0)
(0.0146315 -0.113719 0)
(0.00618625 -0.0853381 0)
(0.00816738 -0.0476319 0)
(0.020932 -0.0263744 0)
(0.0256758 -0.00636413 0)
(0.0281938 0.0132161 0)
(0.0328316 0.0173654 0)
(0.0316706 0.00799099 0)
(0.0279527 0.0086742 0)
(0.0256885 0.00292287 0)
(0.026075 -0.00501453 0)
(0.0177278 -0.00573624 0)
(0.0142224 -0.00527553 0)
(0.0112281 -0.0290201 0)
(0.0103821 -0.0290396 0)
(0.0084379 -0.0273769 0)
(0.00896907 -0.033061 0)
(0.00853622 -0.0421057 0)
(0.0056747 -0.0577471 0)
(0.0166786 -0.0767567 0)
(0.0249912 -0.0944497 0)
(0.0282816 -0.106638 0)
(0.0269174 -0.104135 0)
(0.0203524 -0.114021 0)
(0.00773274 -0.130641 0)
(0.00355401 -0.122167 0)
(-0.00436613 -0.163381 0)
(0.0108899 -0.164546 0)
(0.0133015 -0.144044 0)
(0.0147549 -0.126943 0)
(0.00810745 -0.113981 0)
(0.000260875 -0.0893713 0)
(0.000875484 -0.0522526 0)
(0.0143558 -0.0277361 0)
(0.0193378 -0.00775762 0)
(0.0235415 0.0111035 0)
(0.0300235 0.017658 0)
(0.0271441 0.0143447 0)
(0.0206011 0.00672283 0)
(0.0255164 0.000196279 0)
(0.0237415 -0.00538038 0)
(0.0132171 -0.00202403 0)
(0.0113324 0.000154205 0)
(0.00862539 -0.0233264 0)
(0.00507823 -0.0222701 0)
(0.00439383 -0.0182777 0)
(0.00747895 -0.02911 0)
(0.00974252 -0.0399124 0)
(0.00724552 -0.0547422 0)
(0.0187819 -0.069836 0)
(0.0260248 -0.086992 0)
(0.0265466 -0.0968802 0)
(0.0249315 -0.0930919 0)
(0.0182251 -0.104718 0)
(0.0062208 -0.121305 0)
(0.00305854 -0.113935 0)
(-0.00334212 -0.161285 0)
(0.00695874 -0.156823 0)
(0.00762849 -0.138083 0)
(0.00638361 -0.121805 0)
(0.00131462 -0.111577 0)
(-0.00621643 -0.0920302 0)
(-0.00882239 -0.0538397 0)
(0.00495649 -0.0283843 0)
(0.0142635 -0.00880143 0)
(0.0214423 0.00933205 0)
(0.0289187 0.0194373 0)
(0.0301858 0.0199729 0)
(0.0224446 0.00978263 0)
(0.027879 -0.0015549 0)
(0.0220102 -0.00377975 0)
(0.0118321 0.00156683 0)
(0.00840313 0.00212503 0)
(0.00295883 -0.0221048 0)
(-0.00417414 -0.0200967 0)
(-0.00233393 -0.0170569 0)
(0.00274434 -0.0267632 0)
(0.00841163 -0.0370604 0)
(0.00874566 -0.0488643 0)
(0.020125 -0.0626218 0)
(0.0261132 -0.0810523 0)
(0.025395 -0.0906789 0)
(0.0239557 -0.0847795 0)
(0.016603 -0.0960386 0)
(0.00418226 -0.112395 0)
(0.00303405 -0.106666 0)
(-0.00475058 -0.158961 0)
(0.00278682 -0.149229 0)
(0.00273702 -0.132417 0)
(-0.00174972 -0.115358 0)
(-0.0055195 -0.107458 0)
(-0.0139816 -0.0911047 0)
(-0.018821 -0.0547181 0)
(-0.00419787 -0.0285195 0)
(0.00991081 -0.0116057 0)
(0.0193932 0.00734595 0)
(0.0275749 0.0209903 0)
(0.0319627 0.0248625 0)
(0.0262696 0.01582 0)
(0.0264915 0.00389147 0)
(0.0201724 -0.000614398 0)
(0.0115156 0.00472475 0)
(0.00583215 0.00282568 0)
(-0.00254057 -0.0195812 0)
(-0.0102854 -0.0197846 0)
(-0.00793509 -0.0159309 0)
(-0.00210123 -0.0237361 0)
(0.00602883 -0.0319955 0)
(0.0105627 -0.0437277 0)
(0.0212432 -0.0561049 0)
(0.0246628 -0.0758606 0)
(0.0229304 -0.0836661 0)
(0.0211316 -0.076726 0)
(0.0123096 -0.0877708 0)
(0.000966546 -0.102887 0)
(0.00301995 -0.0989919 0)
(-0.00741537 -0.15386 0)
(-0.00024423 -0.142729 0)
(-0.00206611 -0.125789 0)
(-0.0078456 -0.109514 0)
(-0.0124396 -0.101064 0)
(-0.0207601 -0.0870565 0)
(-0.0263684 -0.054376 0)
(-0.00904527 -0.0283236 0)
(0.00821656 -0.0130415 0)
(0.0178635 0.00540356 0)
(0.0249611 0.0209591 0)
(0.0322126 0.0242306 0)
(0.0275653 0.0184387 0)
(0.0253954 0.00746168 0)
(0.0196006 0.0052649 0)
(0.0128642 0.00944161 0)
(0.00417952 0.00261395 0)
(-0.00505703 -0.0161719 0)
(-0.0146859 -0.0172036 0)
(-0.014019 -0.0137263 0)
(-0.0091823 -0.0201413 0)
(-0.000396348 -0.0326656 0)
(0.0104407 -0.0415536 0)
(0.0219101 -0.0514878 0)
(0.0246583 -0.0709694 0)
(0.0230291 -0.0765521 0)
(0.0183036 -0.0677122 0)
(0.00692433 -0.077395 0)
(-0.00308518 -0.0950989 0)
(0.00262155 -0.0953785 0)
(-0.00964582 -0.147563 0)
(-0.0022227 -0.139469 0)
(-0.0083668 -0.121057 0)
(-0.0134289 -0.104925 0)
(-0.0205078 -0.0943488 0)
(-0.0279216 -0.0816757 0)
(-0.0302527 -0.0544873 0)
(-0.0113954 -0.027284 0)
(0.0069896 -0.0120961 0)
(0.0165083 0.00546759 0)
(0.0230847 0.0201896 0)
(0.0292758 0.0205664 0)
(0.0276276 0.0180676 0)
(0.0264034 0.00843806 0)
(0.0216882 0.0103977 0)
(0.0149033 0.0150263 0)
(0.00483874 0.00192794 0)
(-0.00492157 -0.0108792 0)
(-0.0174823 -0.0133998 0)
(-0.0198288 -0.0108424 0)
(-0.0161108 -0.0217534 0)
(-0.00479821 -0.0359844 0)
(0.0075016 -0.0421095 0)
(0.021171 -0.0487232 0)
(0.0233846 -0.0672892 0)
(0.0137171 -0.068529 0)
(0.00937273 -0.0637256 0)
(0.00153285 -0.0726426 0)
(-0.00445395 -0.08756 0)
(0.00163776 -0.0930743 0)
(-0.00956223 -0.140815 0)
(-0.00177621 -0.13952 0)
(-0.00764685 -0.118649 0)
(-0.0153726 -0.0998235 0)
(-0.0217664 -0.0888904 0)
(-0.0275007 -0.0798184 0)
(-0.0299676 -0.0537345 0)
(-0.0125115 -0.0276538 0)
(0.00420899 -0.0111443 0)
(0.0164335 0.00313678 0)
(0.0241926 0.0174893 0)
(0.029565 0.0159325 0)
(0.0302696 0.018283 0)
(0.0270232 0.0123526 0)
(0.0227489 0.0158409 0)
(0.0163685 0.0189383 0)
(0.00701881 0.00391166 0)
(-0.00362255 -0.005297 0)
(-0.0193004 -0.00758264 0)
(-0.0237902 -0.00585387 0)
(-0.0189344 -0.0219073 0)
(-0.0060816 -0.037271 0)
(0.00636504 -0.0432778 0)
(0.0186932 -0.0477326 0)
(0.0148945 -0.0628958 0)
(0.00485209 -0.0645355 0)
(0.000521635 -0.0626347 0)
(-0.00470848 -0.0711757 0)
(-0.00644618 -0.0881988 0)
(0.00348232 -0.0931827 0)
(-0.00857106 -0.133231 0)
(-0.000529753 -0.134772 0)
(-0.00837861 -0.113391 0)
(-0.0159329 -0.097177 0)
(-0.0226304 -0.0868698 0)
(-0.0226506 -0.0778724 0)
(-0.0244072 -0.0511473 0)
(-0.0141318 -0.028227 0)
(0.00282366 -0.0111617 0)
(0.0175199 0.00291335 0)
(0.0270783 0.0144105 0)
(0.032018 0.0137749 0)
(0.0339309 0.0183051 0)
(0.0290825 0.0172387 0)
(0.0240666 0.0207776 0)
(0.0167207 0.021879 0)
(0.00855616 0.00693875 0)
(-0.00078778 0.00158615 0)
(-0.0194829 -0.00255262 0)
(-0.0261792 -0.00201517 0)
(-0.0198266 -0.0231971 0)
(-0.00675772 -0.0374077 0)
(0.00333919 -0.0429589 0)
(0.0124378 -0.0470948 0)
(0.00657971 -0.0578958 0)
(-0.00186613 -0.0628055 0)
(-0.00905206 -0.0610848 0)
(-0.00899466 -0.0731462 0)
(-0.00996538 -0.0935915 0)
(0.003609 -0.0956343 0)
(-0.00585984 -0.1248 0)
(0.00241418 -0.128802 0)
(-0.00598775 -0.108471 0)
(-0.0134905 -0.0931201 0)
(-0.0193401 -0.0835193 0)
(-0.0169314 -0.073036 0)
(-0.0218496 -0.0478309 0)
(-0.0140461 -0.0276389 0)
(0.00414245 -0.011515 0)
(0.017008 -7.29163e-05 0)
(0.0285259 0.0118715 0)