/*--------------------------------*- C++ -*----------------------------------*\
| =========                 |                                                 |
| \\      /  F ield         | OpenFOAM: The Open Source CFD Toolbox           |
|  \\    /   O peration     | Version:  2.3.0                                 |
|   \\  /    A nd           | Web:      www.OpenFOAM.org                      |
|    \\/     M anipulation  |                                                 |
\*---------------------------------------------------------------------------*/
FoamFile
{
    version     2.0;
    format      ascii;
    class       volScalarField;
    location    "0.094";
    object      p;
}
// * * * * * * * * * * * * * * * * * * * * * * * * * * * * * * * * * * * * * //

dimensions      [1 -1 -2 0 0 0 0];

internalField   nonuniform List<scalar> 
545
(
-9.4197e+07
-1.73545e+07
-2.32392e+06
-3.04982e+06
-1.0113e+07
6.77771e+07
-3.5279e+06
-2.74904e+06
-2.93546e+06
-8.21631e+06
1.17852e+08
4.23958e+06
-425547
-491208
-8.61959e+06
6.83698e+07
-3.74221e+06
-2.19751e+06
-165010
-7.69137e+06
-1.08392e+08
-2.75961e+06
-541166
4.97171e+06
1.38194e+07
-8.41035e+06
-2.18133e+06
-853988
-79236.9
86242.6
103011
80083.8
64636.3
58889.4
56520.5
58385.1
59177.9
62157.1
62960.4
65300.6
64996.6
66424.5
64923.6
65537.5
63282.2
63426
60881.4
61025.1
58383.9
58662.3
56105.9
56518.5
54039.3
54640.3
51879.8
52339.9
49350.8
49503.5
46071.8
45798.5
41743.4
40755.7
36043.3
34297.9
28812.9
26425.3
20144.2
17247
10860.9
8618.08
-7.4012e+06
-1.37122e+06
-823085
-237294
-46724.9
33334.4
50028.1
54800.4
55351.4
56389.3
57746.4
59810.6
61612.1
63613.2
64690.6
65680
65767.2
65634.7
64809.8
64021.2
62658.7
61646
60217.6
59189.4
57804.6
56939.1
55645.8
54908.2
53759.2
52771.4
51452.3
50300.2
48579.2
47054
44837.2
42751.6
39747.3
37073.9
33308.9
29863.2
25458.1
21123.1
15946.7
10758.8
3056.47
-8.69806e+06
-688366
-489615
-105389
-5467.65
43473.8
49837.6
52902.4
54620.9
55603.3
57964.2
59446.9
61987.3
63283.1
65070.8
65279.3
66171.1
65196.3
65222.5
63560.8
63087.2
61178.2
60685.7
58707.9
58284.2
56433.2
56141.7
54396.3
54322.6
52232.3
52017.8
49769.5
49129.4
46479.2
45391.1
42189.6
40281.9
36544.8
33872.7
29341.1
26033.9
20507.1
16185.4
10141.9
6254.18
-9.1884e+06
703532
197340
153724
90393.5
76623.8
57124
53934.1
53794.9
55630
57441
59846.2
61516.4
63770.6
64556.1
65728.2
65662.8
65650.2
64671.7
64088.7
62486.6
61744.4
60116.9
59299.5
57662.2
57089.1
55456.1
55063.7
53741.3
52873.2
51372.6
50438.6
48418
47139.6
44625.8
42913.3
39467.9
37346.3
33074.4
30107.4
25310.6
21104.5
15231.4
9484.49
969.414
-1.92547e+06
3.95313e+06
1.41298e+06
448443
142624
80449.9
53316.9
50687.5
52910.8
54814.2
57824.2
59469.6
61832.7
63480.8
64848.3
65229.2
66144.3
65018.3
65177.3
63542.3
62944.9
61202.1
60709.9
58702.9
58250.7
56560.3
55959.9
54464.5
54547.9
52106
52101.2
49710.4
49130.1
46320.6
45272
42248.4
39950.3
36855
33565.2
29546.8
25950.2
20423.5
15644.7
9091.88
4804.66
-1.54254e+07
5.68365e+06
2.44356e+06
650773
156500
78830.3
52705.1
51896.1
54083
55211.5
57340.9
63230.4
65622
65967.1
68533.6
68962.4
68366.2
65947.4
66709
66851.8
65960.1
64553.5
62358.2
59587.9
58034.1
60729.8
59943.3
58516
55728.7
57667.5
54720
51094.7
48319.4
47440.5
47149.4
46983.6
44334.2
39969.5
38016.1
34220.9
26261.6
21246
14759.1
11113.5
3259.29
-1.08395e+08
-2.7637e+06
-545871
4.96747e+06
1.38173e+07
6.83661e+07
-3.74613e+06
-2.20181e+06
-168801
-7.69368e+06
1.17849e+08
4.23586e+06
-429310
-494391
-8.62187e+06
6.77736e+07
-3.53144e+06
-2.75213e+06
-2.93779e+06
-8.21834e+06
-9.42004e+07
-1.73579e+07
-2.32648e+06
-3.05139e+06
-1.0115e+07
-1.92636e+06
3.95342e+06
1.41335e+06
449243
142324
80686.5
52967.2
51075.7
52699.7
55328.4
57575.9
59875.2
61506.4
63786.8
64433.4
65472.4
65697.6
65281.9
64745.6
63823
62560.1
61522.9
60362.3
59073.2
57902.7
56898
55636.9
54800.4
54220.3
52423
51762.8
50031.3
48740.2
46628
44905.7
42510.5
39582.1
37103.4
33172.3
29763.3
25527
20710.1
15284.9
9482.04
4547.02
-9.18955e+06
703843
198372
154662
90212.6
76624.8
56904.3
54252.2
53862.4
56123.2
57472.2
60165.5
61346.7
63875.1
64200.5
65701.7
65244.9
65641.1
64301.9
64146.5
62210.8
61890.4
59916.4
59513.1
57483.5
57291
55289.1
55261.7
53559.6
53038.8
51161.4
50576.5
48145.9
47243.4
44345.4
42970
39161.9
37373
32719.7
30076.9
24932
21161.3
14989.1
9668.68
792.202
-8.69928e+06
-688102
-488361
-104577
-5581.05
43315.9
49754.8
53149.3
54930.6
56083.9
58242.1
59696.3
61950.3
63199.4
64751
65004.8
65763.4
64937.4
64893.9
63418.2
62900.5
61169.7
60610.5
58787.4
58253.1
56521.2
56112.9
54473.9
54268.5
52264.7
51914.9
49747.3
48952
46399.9
45172
42051.7
40018
36365.6
33547
29090.6
25680.3
20338.3
15997.1
10153
6187.53
-7.40238e+06
-1.37098e+06
-822123
-236804
-46930.4
33108.9
50004.8
55054.1
55783.8
56923.8
58169.9
60069.6
61621.4
63440.1
64337.3
65258.9
65300.6
65231.7
64445.1
63770
62477.8
61572.2
60180.8
59221.9
57830.3
56996.7
55673.7
54948.2
53750.1
52755.9
51380.1
50212.8
48420.7
46886.7
44607
42509.7
39453.8
36778.3
32954.5
29498.7
25065.3
20800.6
15705.7
10679
3025.92
-8.4117e+06
-2.18115e+06
-853526
-79055.1
85951.8
102822
80090.7
64870.1
59365.6
57102.1
58880.9
59459.8
62183.5
62747.4
64912.6
64506.3
65911.5
64447.8
65136
62978.2
63230.3
60778.6
60995.7
58401.9
58707.1
56158.2
56566.5
54070.5
54646.1
51851.1
52274.4
49240
49345
45867.9
45549.7
41452.5
40429.5
35688.1
33916.1
28398.8
25996.1
19735.4
16938.3
10700.3
8573.65
)
;

boundaryField
{
    AirInlet
    {
        type            calculated;
        value           uniform -1.5422e+07;
    }
    WaterInlet
    {
        type            calculated;
        value           nonuniform List<scalar> 10(-9.4197e+07 6.77771e+07 1.17852e+08 6.83698e+07 -1.08392e+08 -1.08395e+08 6.83661e+07 1.17849e+08 6.77736e+07 -9.42004e+07);
    }
    ChannelWall
    {
        type            calculated;
        value           nonuniform List<scalar> 
110
(
-1.08392e+08
-2.75961e+06
-541166
4.97171e+06
1.38194e+07
-1.08395e+08
-2.7637e+06
-545871
4.96747e+06
1.38173e+07
-9.42004e+07
-1.73579e+07
-2.32648e+06
-3.05139e+06
-1.0115e+07
-8.4117e+06
-2.18115e+06
-853526
-79055.2
85951.7
102822
80090.7
64870.1
59365.5
57102
58880.9
59459.8
62183.5
62747.3
64912.5
64506.2
65911.5
64447.7
65135.9
62978.1
63230.3
60778.6
60995.6
58401.9
58707
56158.2
56566.5
54070.5
54646.1
51851
52274.4
49239.9
49344.9
45867.9
45549.7
41452.5
40429.4
35688.1
33916.1
28398.8
25996
19735.3
16938.3
10700.3
8573.6
-9.4197e+07
-1.73545e+07
-2.32392e+06
-3.04982e+06
-1.0113e+07
-8.41035e+06
-2.18133e+06
-853988
-79236.9
86242.7
103011
80083.9
64636.3
58889.4
56520.6
58385.1
59177.9
62157.2
62960.4
65300.7
64996.6
66424.6
64923.7
65537.6
63282.2
63426
60881.5
61025.1
58383.9
58662.3
56106
56518.6
54039.4
54640.3
51879.9
52340
49350.8
49503.5
46071.8
45798.5
41743.4
40755.7
36043.3
34297.9
28813
26425.4
20144.2
17247
10861
8618.12
)
;
    }
    Outlet
    {
        type            calculated;
        value           nonuniform List<scalar> 
11
(
-0.044145
-0.132435
-0.220725
-0.308996
-0.395465
-0.285633
-0.580982
-0.671943
-0.760274
-0.848565
-0.936855
)
;
    }
    FrontAndBack
    {
        type            empty;
    }
}


// ************************************************************************* //
