/*--------------------------------*- C++ -*----------------------------------*\
| =========                 |                                                 |
| \\      /  F ield         | OpenFOAM: The Open Source CFD Toolbox           |
|  \\    /   O peration     | Version:  2.3.0                                 |
|   \\  /    A nd           | Web:      www.OpenFOAM.org                      |
|    \\/     M anipulation  |                                                 |
\*---------------------------------------------------------------------------*/
FoamFile
{
    version     2.0;
    format      ascii;
    class       volScalarField;
    location    "0.026";
    object      alpha.water;
}
// * * * * * * * * * * * * * * * * * * * * * * * * * * * * * * * * * * * * * //

dimensions      [0 0 0 0 0 0 0];

internalField   nonuniform List<scalar> 
545
(
1
1
1
1
1
1
1
1
1
1
1
1
1
1
1
1
1
1
1
1
1
1
1
1
1
1
1
1
1
1
1
1
1
1
1
1
1
1
1
1
1
1
1
1
1
1
1
1
1
1
1
1
1
1
1
1
1
1
1
1
1
1
1
1
1
1
1
1
1
1
1
1
1
1
1
1
1
1
1
1
1
1
1
1
1
1
1
1
1
1
1
1
1
1
1
1
1
1
1
1
1
1
1
1
1
1
1
1
1
1
1
1
1
1
1
1
1
1
1
0.999999
0.999999
0.999999
0.999999
0.999999
0.999999
0.999999
0.999999
0.999999
0.999999
0.999999
0.999999
0.999999
0.999999
0.999999
0.999999
0.999999
0.999999
0.999999
0.999999
0.999999
0.999999
0.999999
0.999999
0.999999
0.999999
0.999999
0.999999
0.999999
0.999999
0.999999
0.999999
0.999999
0.999999
0.999999
0.999999
0.999999
0.999999
0.999999
0.999999
0.999999
1
1
0.99999
0.999969
0.999945
0.999933
0.999931
0.999933
0.999936
0.999939
0.99994
0.99994
0.99994
0.999939
0.999938
0.999938
0.999938
0.999938
0.999938
0.999938
0.999938
0.999938
0.999938
0.999938
0.999938
0.999938
0.999938
0.999938
0.999938
0.999938
0.999938
0.999938
0.999938
0.999938
0.999938
0.999938
0.999938
0.999938
0.999938
0.999938
0.999938
0.999938
0.999938
0.999938
0.999938
1
1
0.999186
0.998856
0.996556
0.994361
0.994312
0.994729
0.995092
0.99539
0.995566
0.995622
0.995591
0.99552
0.995443
0.995386
0.995354
0.995345
0.99535
0.995363
0.995375
0.995385
0.995389
0.995389
0.995385
0.995379
0.995372
0.995369
0.995365
0.995365
0.995365
0.995367
0.995367
0.995366
0.995363
0.99536
0.995356
0.995354
0.995352
0.995352
0.995353
0.995354
0.995354
0.995352
0.99534
0.251494
0.304214
0.61907
0.909498
0.557951
0.445753
0.440922
0.443177
0.568171
0.980212
0.863768
0.533975
0.544455
0.542053
0.5428
0.564912
0.91517
0.631067
0.588708
0.582942
0.583035
0.583924
0.58395
0.788836
0.99088
0.695097
0.432266
0.454477
0.525262
0.503116
0.503128
0.656286
0.971667
0.995558
0.850443
0.397697
0.381875
0.458263
0.43287
0.436756
0.470887
0.887363
0.995426
0.754405
0.672844
1
1
1
1
1
1
1
1
1
1
1
1
1
1
1
1
1
1
1
1
1
1
1
1
1
1
1
0.999186
0.998856
0.996556
0.994361
0.994312
0.99473
0.995092
0.99539
0.995565
0.995621
0.995589
0.995518
0.99544
0.995383
0.99535
0.995341
0.995346
0.995359
0.995371
0.99538
0.995384
0.995384
0.99538
0.995374
0.995367
0.995363
0.995359
0.995359
0.995359
0.995361
0.995361
0.995361
0.995357
0.995354
0.99535
0.995348
0.995345
0.995346
0.995346
0.995348
0.995348
0.995346
0.995334
1
1
0.99999
0.999969
0.999945
0.999933
0.999931
0.999933
0.999936
0.999938
0.99994
0.99994
0.99994
0.999939
0.999938
0.999938
0.999938
0.999938
0.999938
0.999938
0.999938
0.999938
0.999938
0.999938
0.999938
0.999938
0.999938
0.999938
0.999938
0.999938
0.999938
0.999938
0.999938
0.999938
0.999938
0.999938
0.999938
0.999938
0.999938
0.999938
0.999938
0.999938
0.999938
0.999938
0.999937
1
1
1
1
0.999999
0.999999
0.999999
0.999999
0.999999
0.999999
0.999999
0.999999
0.999999
0.999999
0.999999
0.999999
0.999999
0.999999
0.999999
0.999999
0.999999
0.999999
0.999999
0.999999
0.999999
0.999999
0.999999
0.999999
0.999999
0.999999
0.999999
0.999999
0.999999
0.999999
0.999999
0.999999
0.999999
0.999999
0.999999
0.999999
0.999999
0.999999
0.999999
0.999999
0.999999
1
1
1
1
1
1
1
1
1
1
1
1
1
1
1
1
1
1
1
1
1
1
1
1
1
1
1
1
1
1
1
1
1
1
1
1
1
1
1
1
1
1
1
1
1
1
1
1
1
1
1
1
1
1
1
1
1
1
1
1
1
1
1
1
1
1
1
1
1
1
1
1
1
1
1
1
1
1
1
1
1
1
1
1
1
1
1
1
1
1
)
;

boundaryField
{
    AirInlet
    {
        type            fixedValue;
        value           uniform 0;
    }
    WaterInlet
    {
        type            fixedValue;
        value           uniform 1;
    }
    ChannelWall
    {
        type            zeroGradient;
    }
    Outlet
    {
        type            inletOutlet;
        inletValue      uniform 0;
        value           nonuniform List<scalar> 
11
(
1
1
0.999999
0.999938
0.99534
0.672844
0.995334
0.999937
0.999999
1
1
)
;
    }
    FrontAndBack
    {
        type            empty;
    }
}


// ************************************************************************* //
