/*--------------------------------*- C++ -*----------------------------------*\
| =========                 |                                                 |
| \\      /  F ield         | OpenFOAM: The Open Source CFD Toolbox           |
|  \\    /   O peration     | Version:  2.3.0                                 |
|   \\  /    A nd           | Web:      www.OpenFOAM.org                      |
|    \\/     M anipulation  |                                                 |
\*---------------------------------------------------------------------------*/
FoamFile
{
    version     2.0;
    format      ascii;
    class       volVectorField;
    location    "0.4";
    object      U.air;
}
// * * * * * * * * * * * * * * * * * * * * * * * * * * * * * * * * * * * * * //

dimensions      [0 1 -1 0 0 0 0];

internalField   nonuniform List<vector> 
6000
(
(0.0768658 0.265119 0)
(0.223131 0.245873 0)
(0.285374 0.244135 0)
(0.229816 0.231015 0)
(0.024221 0.235167 0)
(-0.114958 0.131378 0)
(-0.134991 0.119393 0)
(-0.222878 0.203658 0)
(-0.337661 0.252117 0)
(-0.385543 0.238379 0)
(-0.339327 0.2266 0)
(-0.277099 0.189279 0)
(-0.23076 0.143247 0)
(-0.188371 0.120188 0)
(-0.054081 0.0920464 0)
(0.10841 0.101929 0)
(0.185999 0.131969 0)
(0.217147 0.148384 0)
(0.27164 0.203594 0)
(0.346324 0.220122 0)
(0.363227 0.241412 0)
(0.248074 0.254164 0)
(0.10624 0.196086 0)
(0.100481 0.135266 0)
(0.0981043 0.167086 0)
(-0.0478432 0.261695 0)
(-0.246861 0.239106 0)
(-0.28488 0.248566 0)
(-0.214009 0.245869 0)
(-0.0744217 0.267361 0)
(0.0996389 0.748028 0)
(0.217128 0.875387 0)
(0.175863 1.0024 0)
(0.0712136 1.24004 0)
(0.0179068 1.25443 0)
(-0.0205124 1.20482 0)
(-0.104693 1.15813 0)
(-0.217381 1.21978 0)
(-0.357873 1.15814 0)
(-0.459808 1.0086 0)
(-0.412342 0.919691 0)
(-0.299724 0.950046 0)
(-0.190338 1.00236 0)
(-0.09865 0.996827 0)
(-0.0280045 0.875974 0)
(0.0160437 0.943596 0)
(0.106813 1.01171 0)
(0.197731 0.994381 0)
(0.308841 0.917841 0)
(0.39579 0.923269 0)
(0.398353 1.0563 0)
(0.283281 1.25864 0)
(0.15082 1.16489 0)
(0.0614202 1.08089 0)
(0.00352235 1.17127 0)
(-0.0280354 1.25994 0)
(-0.0938052 1.19052 0)
(-0.185394 0.975234 0)
(-0.219065 0.885478 0)
(-0.102681 0.752328 0)
(0.0667251 0.502317 0)
(0.0916484 0.751961 0)
(-0.0607011 0.946483 0)
(-0.0847685 1.06346 0)
(-0.0363949 1.04439 0)
(-0.0306116 1.01371 0)
(-0.0698016 1.00617 0)
(-0.130827 1.10036 0)
(-0.23455 1.10849 0)
(-0.319405 0.806446 0)
(-0.298528 0.629313 0)
(-0.184393 0.583676 0)
(-0.0545582 0.64228 0)
(0.00105073 0.724034 0)
(-0.00921084 0.684737 0)
(-0.0536884 0.705731 0)
(-0.0220707 0.695806 0)
(0.0663649 0.599751 0)
(0.204537 0.594639 0)
(0.27864 0.675771 0)
(0.254339 0.896883 0)
(0.191684 1.17244 0)
(0.118047 1.0785 0)
(0.0404487 0.994008 0)
(-0.00971212 0.997286 0)
(0.0173147 1.05011 0)
(0.0766912 1.03292 0)
(0.0429636 0.914117 0)
(-0.106534 0.752902 0)
(-0.0735277 0.494998 0)
(-0.0479396 0.447981 0)
(-0.111031 0.932868 0)
(-0.179 0.969467 0)
(-0.110965 0.987648 0)
(-0.0633376 0.999387 0)
(-0.0369415 0.990337 0)
(-0.0403382 1.02048 0)
(-0.0330447 1.08176 0)
(-0.046404 1.16563 0)
(-0.114673 0.883286 0)
(-0.128114 0.59965 0)
(-0.0600364 0.565115 0)
(-0.0114521 0.702906 0)
(0.00355289 0.849054 0)
(-0.0184709 0.838344 0)
(-0.0504242 0.848453 0)
(-0.0511194 0.783259 0)
(-0.0181115 0.632157 0)
(0.0508123 0.545522 0)
(0.111902 0.687324 0)
(0.0603558 0.990285 0)
(0.00898629 1.16048 0)
(0.026588 1.05436 0)
(0.0210081 0.972756 0)
(0.0137266 0.968886 0)
(0.0482113 0.973127 0)
(0.105755 0.974802 0)
(0.160134 0.945718 0)
(0.0973034 0.931878 0)
(0.0441996 0.433746 0)
(-0.129033 0.561875 0)
(-0.186616 0.905597 0)
(-0.147181 0.907486 0)
(-0.0881269 0.93973 0)
(-0.0540229 0.963297 0)
(-0.0348729 0.995228 0)
(-0.0135052 1.00426 0)
(0.000546125 1.07179 0)
(0.0205925 1.14316 0)
(0.0137189 0.906782 0)
(0.0294941 0.53035 0)
(0.0780699 0.513396 0)
(0.0880489 0.734589 0)
(0.0339578 0.970129 0)
(-0.0234504 0.950968 0)
(-0.0563498 0.9738 0)
(-0.113498 0.865969 0)
(-0.129267 0.619999 0)
(-0.0905546 0.46123 0)
(-0.0411534 0.645131 0)
(-0.0415855 1.01773 0)
(-0.0471152 1.13115 0)
(-0.0181539 1.02739 0)
(-0.00251757 0.982141 0)
(0.0133392 0.953994 0)
(0.0353552 0.945226 0)
(0.073541 0.91533 0)
(0.124355 0.895701 0)
(0.177259 0.880121 0)
(0.126596 0.5442 0)
(-0.0873576 0.712871 0)
(-0.109828 0.85476 0)
(-0.0921305 0.867644 0)
(-0.0556716 0.892511 0)
(-0.0330819 0.940225 0)
(-0.0188085 0.961088 0)
(-0.00273606 0.995729 0)
(-0.00437263 1.05284 0)
(0.0120113 1.10302 0)
(0.103078 0.848227 0)
(0.198548 0.479812 0)
(0.259081 0.492015 0)
(0.195523 0.785735 0)
(0.0745166 1.03873 0)
(-0.00304192 0.92702 0)
(-0.0709868 0.992412 0)
(-0.193538 0.936712 0)
(-0.279942 0.637566 0)
(-0.26339 0.426397 0)
(-0.195664 0.58306 0)
(-0.0888728 0.97262 0)
(-0.0305759 1.09563 0)
(-0.0231658 1.01753 0)
(-0.021064 0.957323 0)
(-0.00552252 0.937356 0)
(0.00668382 0.902921 0)
(0.0387942 0.882688 0)
(0.0724695 0.836552 0)
(0.103986 0.830608 0)
(0.0930757 0.687888 0)
(-0.0183127 0.738805 0)
(-0.00713021 0.830535 0)
(-0.0233097 0.836552 0)
(-0.0198299 0.87415 0)
(-0.00646871 0.909837 0)
(-0.0031642 0.94857 0)
(-0.00517865 0.980947 0)
(-0.0406533 1.04894 0)
(-0.0255777 1.0297 0)
(0.165462 0.673311 0)
(0.315624 0.440041 0)
(0.286702 0.497835 0)
(0.167277 0.962751 0)
(0.0615668 1.13334 0)
(0.00405332 1.06035 0)
(-0.0765972 1.10911 0)
(-0.148098 1.10505 0)
(-0.266611 0.681977 0)
(-0.372318 0.436098 0)
(-0.309153 0.472135 0)
(-0.106299 0.821003 0)
(0.0164896 1.06418 0)
(-0.0118813 1.01195 0)
(-0.0306689 0.954217 0)
(-0.0289416 0.915334 0)
(-0.0256717 0.889729 0)
(-0.00151353 0.842406 0)
(0.015032 0.808954 0)
(-0.000761332 0.787662 0)
(0.0273505 0.715621 0)
(0.0306953 0.704546 0)
(0.0671013 0.836024 0)
(0.040212 0.841883 0)
(0.0173478 0.857792 0)
(0.0226413 0.902005 0)
(0.0158528 0.93431 0)
(-0.0125957 1.00036 0)
(-0.0949326 1.08214 0)
(-0.0443511 0.923973 0)
(0.187751 0.452664 0)
(0.318128 0.444592 0)
(0.178569 0.61867 0)
(0.0218062 1.01572 0)
(0.00339633 1.04748 0)
(-0.0098747 1.02632 0)
(-0.0405008 1.03473 0)
(-0.0342509 1.05185 0)
(-0.154479 0.870556 0)
(-0.304376 0.478835 0)
(-0.319111 0.386487 0)
(-0.124359 0.593422 0)
(0.0451651 1.06145 0)
(0.0011444 1.03136 0)
(-0.0484843 0.948121 0)
(-0.0564748 0.909412 0)
(-0.0565342 0.860825 0)
(-0.0405664 0.823267 0)
(-0.0468328 0.78865 0)
(-0.0755558 0.8012 0)
(-0.0283477 0.675512 0)
(0.0480732 0.603503 0)
(0.125797 0.840873 0)
(0.0910433 0.843312 0)
(0.0619444 0.865191 0)
(0.0466325 0.894719 0)
(0.0255086 0.957834 0)
(-0.0191861 1.05608 0)
(-0.108906 1.14356 0)
(-0.00762434 0.738199 0)
(0.152756 0.307172 0)
(0.202051 0.426341 0)
(0.108252 0.831 0)
(-0.0096529 1.00917 0)
(0.000517443 1.04402 0)
(-0.0130202 1.0379 0)
(-0.0336472 1.04679 0)
(-0.0391121 1.03031 0)
(-0.080665 0.950049 0)
(-0.201849 0.571179 0)
(-0.248524 0.335018 0)
(-0.146215 0.409789 0)
(0.00251799 1.0051 0)
(0.00908853 1.08875 0)
(-0.0651277 0.974956 0)
(-0.0866404 0.892025 0)
(-0.0841676 0.849617 0)
(-0.0864825 0.806372 0)
(-0.102525 0.79014 0)
(-0.13551 0.800257 0)
(-0.0453629 0.566278 0)
(0.0456583 0.477531 0)
(0.157826 0.831969 0)
(0.131211 0.857887 0)
(0.105408 0.866679 0)
(0.0703966 0.904257 0)
(0.0682043 0.953286 0)
(0.0290187 1.07041 0)
(-0.00794611 1.15084 0)
(0.0751126 0.625486 0)
(0.118224 0.257268 0)
(0.120435 0.432277 0)
(0.0938394 0.900076 0)
(0.0409967 1.01329 0)
(0.0208785 1.0463 0)
(-0.00906414 1.06343 0)
(-0.0422794 1.05624 0)
(-0.0740382 1.04628 0)
(-0.110261 0.974908 0)
(-0.179725 0.675844 0)
(-0.177238 0.282938 0)
(-0.174592 0.353226 0)
(-0.102759 0.914961 0)
(-0.0381648 1.12408 0)
(-0.107226 0.991252 0)
(-0.118178 0.893127 0)
(-0.121765 0.835068 0)
(-0.140004 0.802154 0)
(-0.146548 0.781629 0)
(-0.168692 0.784097 0)
(-0.0461155 0.431988 0)
(0.0242465 0.359284 0)
(0.16298 0.778377 0)
(0.178268 0.865351 0)
(0.14888 0.882517 0)
(0.114064 0.909022 0)
(0.0867043 0.980175 0)
(0.0663194 1.12159 0)
(0.106521 1.10303 0)
(0.160869 0.609747 0)
(0.149278 0.266959 0)
(0.101115 0.418419 0)
(0.148393 0.92199 0)
(0.110138 1.03238 0)
(0.0538891 1.08146 0)
(-0.000317983 1.08896 0)
(-0.0544453 1.09783 0)
(-0.115072 1.07333 0)
(-0.196945 1.02096 0)
(-0.200282 0.671691 0)
(-0.19451 0.281043 0)
(-0.253473 0.370032 0)
(-0.216684 0.841776 0)
(-0.134346 1.11592 0)
(-0.124316 1.0364 0)
(-0.145644 0.901075 0)
(-0.179443 0.842497 0)
(-0.198874 0.791398 0)
(-0.213418 0.771814 0)
(-0.186159 0.722932 0)
(-0.0199059 0.29772 0)
(-0.000600734 0.269749 0)
(0.138818 0.649809 0)
(0.20851 0.868839 0)
(0.188168 0.897426 0)
(0.152419 0.933412 0)
(0.118505 0.980098 0)
(0.119654 1.08085 0)
(0.187641 1.00049 0)
(0.240647 0.607871 0)
(0.216277 0.329549 0)
(0.163166 0.39966 0)
(0.202723 0.91502 0)
(0.182797 1.10876 0)
(0.0836017 1.12885 0)
(0.00941374 1.14295 0)
(-0.0596627 1.14039 0)
(-0.142877 1.14876 0)
(-0.252113 1.10861 0)
(-0.236868 0.627983 0)
(-0.279524 0.33322 0)
(-0.320732 0.427392 0)
(-0.313368 0.755768 0)
(-0.220069 1.03015 0)
(-0.171174 1.01266 0)
(-0.197235 0.91781 0)
(-0.236725 0.855927 0)
(-0.287646 0.807574 0)
(-0.275073 0.748314 0)
(-0.166542 0.563862 0)
(0.0368706 0.201967 0)
(-0.0316624 0.229129 0)
(0.0846381 0.497522 0)
(0.209942 0.823863 0)
(0.232724 0.913417 0)
(0.186504 0.941494 0)
(0.160895 0.985374 0)
(0.154682 1.04507 0)
(0.23211 0.895228 0)
(0.294248 0.585398 0)
(0.271688 0.406213 0)
(0.247191 0.423233 0)
(0.215493 0.902302 0)
(0.19864 1.20551 0)
(0.0893299 1.20291 0)
(0.0146065 1.18485 0)
(-0.050693 1.20021 0)
(-0.131181 1.21909 0)
(-0.228142 1.20875 0)
(-0.270212 0.627662 0)
(-0.328072 0.420885 0)
(-0.373354 0.480326 0)
(-0.358666 0.67612 0)
(-0.263947 0.938425 0)
(-0.208679 1.00234 0)
(-0.24865 0.936596 0)
(-0.304492 0.896166 0)
(-0.365254 0.819861 0)
(-0.271579 0.632122 0)
(-0.0784119 0.358577 0)
(0.0656472 0.205475 0)
(-0.0382556 0.237866 0)
(0.0259487 0.366915 0)
(0.161601 0.682839 0)
(0.25045 0.927816 0)
(0.208976 0.96003 0)
(0.179761 0.980834 0)
(0.179725 1.0094 0)
(0.277304 0.798122 0)
(0.338843 0.565679 0)
(0.321649 0.483367 0)
(0.288149 0.481233 0)
(0.189878 0.952099 0)
(0.127564 1.30611 0)
(0.0548023 1.24632 0)
(0.0104343 1.21898 0)
(-0.0232053 1.22557 0)
(-0.0747805 1.2852 0)
(-0.13764 1.31448 0)
(-0.266389 0.703824 0)
(-0.343355 0.5059 0)
(-0.391427 0.547565 0)
(-0.397581 0.627417 0)
(-0.308259 0.846298 0)
(-0.234688 0.997677 0)
(-0.267526 0.973507 0)
(-0.343639 0.943601 0)
(-0.338528 0.789889 0)
(-0.156131 0.40813 0)
(0.0278575 0.243052 0)
(0.0388226 0.252682 0)
(-0.0290692 0.266425 0)
(-0.0239066 0.301427 0)
(0.0772029 0.513759 0)
(0.203106 0.91195 0)
(0.208795 0.976486 0)
(0.186764 0.998831 0)
(0.237788 0.938815 0)
(0.348131 0.711178 0)
(0.377164 0.585504 0)
(0.334923 0.563324 0)
(0.286103 0.57295 0)
(0.0893528 1.09578 0)
(-0.0114611 1.36037 0)
(-0.0210291 1.25219 0)
(-0.0050251 1.19133 0)
(0.022376 1.20911 0)
(0.0283104 1.29513 0)
(0.0244071 1.41353 0)
(-0.158556 0.874846 0)
(-0.317513 0.595531 0)
(-0.379807 0.62372 0)
(-0.424667 0.647968 0)
(-0.390494 0.764003 0)
(-0.300201 0.965847 0)
(-0.27127 1.02938 0)
(-0.299238 1.00057 0)
(-0.194193 0.633965 0)
(-0.0144781 0.258585 0)
(0.0573265 0.217195 0)
(0.0224809 0.312821 0)
(-0.025564 0.307515 0)
(-0.0558275 0.289686 0)
(-0.0093869 0.403333 0)
(0.0982991 0.823822 0)
(0.182511 0.986594 0)
(0.244225 0.974771 0)
(0.348707 0.838216 0)
(0.420815 0.695672 0)
(0.385313 0.658112 0)
(0.306443 0.662166 0)
(0.160148 0.754072 0)
(-0.127136 1.30741 0)
(-0.190366 1.36297 0)
(-0.137253 1.19861 0)
(-0.0319079 1.11343 0)
(0.0895928 1.13486 0)
(0.183964 1.25693 0)
(0.244369 1.44331 0)
(0.105785 1.14443 0)
(-0.201219 0.75018 0)
(-0.322802 0.723148 0)
(-0.422844 0.7296 0)
(-0.462958 0.767491 0)
(-0.403949 0.894041 0)
(-0.294736 1.0007 0)
(-0.187673 0.96666 0)
(-0.0546286 0.474945 0)
(0.0356335 0.221566 0)
(0.0398436 0.217433 0)
(0.000574632 0.364553 0)
(-0.0231132 0.35543 0)
(-0.0667382 0.309242 0)
(-0.0694001 0.363757 0)
(0.0167433 0.717065 0)
(0.170311 0.898125 0)
(0.334562 0.878138 0)
(0.446443 0.791181 0)
(0.446475 0.754689 0)
(0.338679 0.780145 0)
(0.173915 0.826274 0)
(-0.171982 1.07303 0)
(-0.388597 1.45009 0)
(-0.353855 1.31275 0)
(-0.216333 1.07771 0)
(-0.0460135 0.960189 0)
(0.129181 0.986998 0)
(0.300797 1.14382 0)
(0.449107 1.40108 0)
(0.43511 1.40392 0)
(0.156387 1.02864 0)
(-0.167927 0.897209 0)
(-0.356706 0.858067 0)
(-0.472634 0.838896 0)
(-0.474441 0.868804 0)
(-0.346191 0.89673 0)
(-0.124959 0.85372 0)
(0.00666921 0.422356 0)
(0.0194873 0.229648 0)
(0.0114027 0.218066 0)
(-0.0245778 0.383703 0)
(-0.0189893 0.404523 0)
(-0.056345 0.341616 0)
(-0.0731594 0.359094 0)
(-0.00299038 0.613333 0)
(0.19633 0.757142 0)
(0.382962 0.777788 0)
(0.469453 0.789247 0)
(0.412363 0.881802 0)
(0.155578 0.985871 0)
(-0.204243 1.13007 0)
(-0.486255 1.37438 0)
(-0.514635 1.43075 0)
(-0.33547 1.1604 0)
(-0.151838 0.921427 0)
(-0.0231601 0.834168 0)
(0.0894073 0.853055 0)
(0.236174 0.973521 0)
(0.444958 1.23834 0)
(0.617647 1.44722 0)
(0.54146 1.36337 0)
(0.242468 1.20156 0)
(-0.119472 1.07453 0)
(-0.39758 0.964001 0)
(-0.462964 0.877509 0)
(-0.375436 0.79082 0)
(-0.168743 0.697116 0)
(-0.0257112 0.399146 0)
(-0.0206165 0.239384 0)
(-0.019923 0.213623 0)
(-0.0324882 0.37581 0)
(-0.0122424 0.441328 0)
(-0.0293764 0.36782 0)
(-0.0356507 0.360647 0)
(0.0310635 0.497836 0)
(0.215773 0.604702 0)
(0.35902 0.682741 0)
(0.390291 0.819472 0)
(0.214045 1.09654 0)
(-0.218182 1.33991 0)
(-0.488669 1.42103 0)
(-0.536923 1.42158 0)
(-0.360843 1.25788 0)
(-0.143272 0.995183 0)
(-0.0278726 0.856597 0)
(0.00998039 0.817495 0)
(0.0331713 0.82664 0)
(0.0879333 0.88355 0)
(0.233928 1.04305 0)
(0.466161 1.29672 0)
(0.620005 1.43711 0)
(0.559987 1.48097 0)
(0.297607 1.42547 0)
(-0.12052 1.19512 0)
(-0.35283 0.915872 0)
(-0.351874 0.697051 0)
(-0.227012 0.54732 0)
(-0.104741 0.3511 0)
(-0.067301 0.226861 0)
(-0.0463756 0.194356 0)
(-0.0429711 0.349767 0)
(-0.00179479 0.458495 0)
(0.000303718 0.377266 0)
(0.0123844 0.343858 0)
(0.0758733 0.398886 0)
(0.189724 0.483547 0)
(0.269742 0.617666 0)
(0.208408 0.914452 0)
(-0.0927223 1.42765 0)
(-0.385766 1.61041 0)
(-0.430357 1.47266 0)
(-0.277991 1.30811 0)
(-0.0929317 1.11147 0)
(0.0102486 0.945683 0)
(0.0304577 0.881492 0)
(0.0240544 0.859964 0)
(0.0166187 0.865544 0)
(0.0171241 0.894006 0)
(0.0535741 0.971491 0)
(0.173815 1.13936 0)
(0.361478 1.34262 0)
(0.511206 1.53413 0)
(0.468126 1.6709 0)
(0.219735 1.50595 0)
(-0.140097 1.0675 0)
(-0.268437 0.657254 0)
(-0.241872 0.445264 0)
(-0.166139 0.287667 0)
(-0.109526 0.192021 0)
(-0.0728024 0.160453 0)
(-0.048529 0.294781 0)
(0.0100844 0.446809 0)
(0.0200868 0.390005 0)
(0.0349058 0.315724 0)
(0.10387 0.324432 0)
(0.176695 0.426384 0)
(0.112783 0.703299 0)
(-0.0932802 1.16913 0)
(-0.194623 1.56339 0)
(-0.221653 1.70651 0)
(-0.0801955 1.44133 0)
(-0.0143136 1.27628 0)
(0.0354206 1.14928 0)
(0.0415278 1.02799 0)
(0.0280192 0.965251 0)
(0.0236626 0.937048 0)
(0.0230423 0.942511 0)
(0.0219207 0.973797 0)
(0.0198278 1.04779 0)
(0.0358798 1.17616 0)
(0.077549 1.31476 0)
(0.137539 1.49753 0)
(0.290742 1.73962 0)
(0.284964 1.60048 0)
(0.221235 1.35224 0)
(-0.103472 0.787642 0)
(-0.258792 0.391392 0)
(-0.21377 0.22418 0)
(-0.140688 0.144961 0)
(-0.0879366 0.126045 0)
(-0.0539233 0.251808 0)
(0.059519 0.419273 0)
(0.0380414 0.438814 0)
(0.0221512 0.275908 0)
(0.157228 0.251146 0)
(0.242188 0.391614 0)
(-0.0151552 0.925514 0)
(-0.293493 1.27837 0)
(-0.123677 1.55118 0)
(0.118893 1.64217 0)
(0.278125 1.45192 0)
(0.137633 1.36699 0)
(0.028574 1.23451 0)
(-0.00106995 1.13202 0)
(0.00355083 1.06611 0)
(0.0184042 1.04216 0)
(0.0335306 1.03891 0)
(0.0502768 1.06276 0)
(0.0561109 1.11371 0)
(0.0104935 1.22283 0)
(-0.117973 1.34112 0)
(-0.274946 1.44454 0)
(-0.0913405 1.63099 0)
(0.186383 1.54535 0)
(0.38554 1.3586 0)
(0.0479889 1.11163 0)
(-0.29728 0.408918 0)
(-0.256357 0.151196 0)
(-0.158599 0.0801241 0)
(-0.0796175 0.0883316 0)
(-0.0351888 0.197735 0)
(0.114807 0.337257 0)
(0.0712338 0.559745 0)
(0.0500713 0.196304 0)
(0.164715 0.11164 0)
(0.318809 0.37578 0)
(0.168881 1.29122 0)
(-0.134449 1.06962 0)
(-0.00350563 1.30985 0)
(0.262117 1.31746 0)
(0.352976 1.38734 0)
(0.260181 1.37684 0)
(0.171637 1.15333 0)
(0.0990939 0.983391 0)
(0.052366 0.911664 0)
(0.0234866 0.879996 0)
(-0.00237996 0.884769 0)
(-0.0394073 0.901965 0)
(-0.0945721 0.995418 0)
(-0.177519 1.21813 0)
(-0.278792 1.45834 0)
(-0.363475 1.43801 0)
(-0.247506 1.25986 0)
(0.0250282 1.28368 0)
(0.179399 1.21199 0)
(-0.0364623 1.54858 0)
(-0.274008 0.445741 0)
(-0.281699 0.0429138 0)
(-0.166515 -0.0128404 0)
(-0.0696616 0.0963264 0)
(-0.0102423 0.15441 0)
(-0.000203725 0.222145 0)
(0.0670381 0.572556 0)
(0.047617 0.24538 0)
(0.198567 -0.0183704 0)
(0.2748 0.262115 0)
(0.335459 1.43606 0)
(0.207399 1.32327 0)
(0.163499 1.14945 0)
(0.234576 1.25311 0)
(0.290535 1.50665 0)
(0.333379 1.44166 0)
(0.350189 1.3374 0)
(0.282698 1.23778 0)
(0.171696 1.15684 0)
(0.0546989 1.11099 0)
(-0.0636868 1.12377 0)
(-0.188995 1.16251 0)
(-0.304789 1.22074 0)
(-0.35962 1.30911 0)
(-0.322184 1.42681 0)
(-0.252775 1.44424 0)
(-0.216065 1.23826 0)
(-0.173926 1.10777 0)
(-0.215393 1.41113 0)
(-0.189447 1.44997 0)
(-0.25776 0.599115 0)
(-0.277125 -0.0595993 0)
(-0.144217 -0.103734 0)
(-0.0815871 0.0543041 0)
(-0.0320255 0.118534 0)
(-0.0293444 0.260297 0)
(0.0812497 0.483719 0)
(0.122427 0.233329 0)
(0.0901213 -0.139519 0)
(0.122098 0.212992 0)
(0.250574 1.22506 0)
(0.295995 1.23518 0)
(0.252328 1.16647 0)
(0.183758 1.18514 0)
(0.197975 1.21064 0)
(0.255969 1.20555 0)
(0.267411 1.12019 0)
(0.231972 1.07135 0)
(0.151939 1.01084 0)
(0.0482092 1.00181 0)
(-0.0618558 0.993105 0)
(-0.161205 1.03192 0)
(-0.234904 1.06559 0)
(-0.271189 1.15292 0)
(-0.245915 1.19389 0)
(-0.18859 1.22677 0)
(-0.179154 1.16419 0)
(-0.266773 1.19104 0)
(-0.296119 1.27667 0)
(-0.235053 1.28468 0)
(-0.212813 0.645685 0)
(-0.18277 -0.167099 0)
(-0.133492 -0.169467 0)
(-0.109105 0.0635029 0)
(-0.0281815 0.0437164 0)
(-0.0274703 0.229005 0)
(0.0581374 0.379169 0)
(0.0921204 0.259805 0)
(0.0311157 -0.0236786 0)
(-0.00511227 0.0727212 0)
(0.154994 1.06598 0)
(0.246445 1.15026 0)
(0.235685 1.13787 0)
(0.194975 1.12223 0)
(0.190093 1.16735 0)
(0.199941 1.14915 0)
(0.195898 1.13643 0)
(0.163503 1.0884 0)
(0.108949 1.07451 0)
(0.035944 1.04783 0)
(-0.0405649 1.06395 0)
(-0.108839 1.07006 0)
(-0.162748 1.11346 0)
(-0.18915 1.13273 0)
(-0.193777 1.17938 0)
(-0.18094 1.16273 0)
(-0.191877 1.16067 0)
(-0.23369 1.15124 0)
(-0.251334 1.24872 0)
(-0.24654 1.20545 0)
(-0.161178 0.529063 0)
(-0.0720967 -0.155428 0)
(-0.0885026 -0.155107 0)
(-0.0826223 0.0189166 0)
(-0.0120025 -0.0170775 0)
(-0.0453968 0.224542 0)
(0.013204 0.332217 0)
(0.0181107 0.223768 0)
(-0.0212077 0.0712129 0)
(-0.0716983 0.00489912 0)
(0.0877159 0.906054 0)
(0.246219 1.15498 0)
(0.214979 1.13363 0)
(0.192335 1.16165 0)
(0.175608 1.15675 0)
(0.168797 1.17618 0)
(0.149997 1.14601 0)
(0.121877 1.14461 0)
(0.0789008 1.11725 0)
(0.0284672 1.12526 0)
(-0.0244869 1.11432 0)
(-0.0736372 1.13767 0)
(-0.112736 1.13739 0)
(-0.140612 1.17224 0)
(-0.153709 1.16654 0)
(-0.164924 1.18784 0)
(-0.175853 1.16068 0)
(-0.205164 1.19545 0)
(-0.2087 1.21896 0)
(-0.228728 1.19318 0)
(-0.109628 0.363922 0)
(-0.00795305 -0.200799 0)
(-0.0120284 -0.12002 0)
(-0.0325299 -0.0222714 0)
(0.00599461 -0.0430711 0)
(-0.0636545 0.244796 0)
(-0.0250571 0.289116 0)
(-0.0454662 0.221044 0)
(-0.0707091 0.105781 0)
(-0.110719 -0.0164862 0)
(0.044449 0.627218 0)
(0.256432 1.15036 0)
(0.211289 1.18064 0)
(0.181938 1.16133 0)
(0.163752 1.18868 0)
(0.144201 1.17215 0)
(0.123902 1.18412 0)
(0.0956727 1.16318 0)
(0.0625062 1.17386 0)
(0.0241882 1.15844 0)
(-0.0147678 1.17316 0)
(-0.0511055 1.16379 0)
(-0.0830679 1.18369 0)
(-0.106757 1.17455 0)
(-0.125501 1.19586 0)
(-0.13935 1.17672 0)
(-0.153385 1.19187 0)
(-0.170435 1.18018 0)
(-0.182851 1.24332 0)
(-0.186228 1.16432 0)
(-0.0563005 0.199535 0)
(0.031437 -0.226335 0)
(0.0297902 -0.109316 0)
(0.00221485 -0.0276189 0)
(0.0182143 -0.0453588 0)
(-0.0694934 0.274936 0)
(-0.02859 0.282381 0)
(-0.0708258 0.218517 0)
(-0.100063 0.141945 0)
(-0.12081 -0.0132421 0)
(0.0250441 0.344511 0)
(0.240014 1.14549 0)
(0.202457 1.17724 0)
(0.173782 1.1965 0)
(0.149219 1.18591 0)
(0.128871 1.20787 0)
(0.104641 1.19069 0)
(0.0801115 1.20383 0)
(0.0515997 1.18998 0)
(0.0218991 1.20335 0)
(-0.00811808 1.19138 0)
(-0.0369855 1.2061 0)
(-0.0623606 1.19288 0)
(-0.0847802 1.20849 0)
(-0.101753 1.19255 0)
(-0.118603 1.20534 0)
(-0.12869 1.1824 0)
(-0.14444 1.21253 0)
(-0.155898 1.21793 0)
(-0.144305 1.1235 0)
(-0.01029 0.0397923 0)
(0.0581323 -0.243586 0)
(0.0533074 -0.0933331 0)
(0.0194577 -0.0237442 0)
(0.0258709 -0.0318703 0)
(-0.0558975 0.286264 0)
(0.00218029 0.266627 0)
(-0.0660245 0.232523 0)
(-0.097367 0.160001 0)
(-0.105882 -0.0458723 0)
(0.0137852 0.113625 0)
(0.207406 1.12505 0)
(0.200388 1.23578 0)
(0.160685 1.2026 0)
(0.136804 1.22514 0)
(0.11273 1.2076 0)
(0.0911557 1.22545 0)
(0.0677073 1.21216 0)
(0.044491 1.2265 0)
(0.020118 1.21538 0)
(-0.00392727 1.22758 0)
(-0.026851 1.21548 0)
(-0.0487481 1.22643 0)
(-0.0675624 1.2103 0)
(-0.0857418 1.22339 0)
(-0.10016 1.19816 0)
(-0.114407 1.214 0)
(-0.127763 1.19425 0)
(-0.146687 1.23143 0)
(-0.106 1.05437 0)
(0.0289012 -0.106367 0)
(0.0787727 -0.250257 0)
(0.0706322 -0.076065 0)
(0.027195 -0.00407673 0)
(0.030858 -0.0120876 0)
(-0.0277688 0.260577 0)
(0.0603553 0.280248 0)
(-0.0333372 0.235481 0)
(-0.0602745 0.176898 0)
(-0.0766732 -0.0734673 0)
(0.00686096 -0.0779896 0)
(0.161902 1.04878 0)
(0.173478 1.23356 0)
(0.140398 1.24873 0)
(0.116675 1.22302 0)
(0.0981466 1.24696 0)
(0.0770137 1.22669 0)
(0.0580817 1.24392 0)
(0.0380699 1.23169 0)
(0.0184657 1.24637 0)
(-0.000919743 1.23361 0)
(-0.0199739 1.24551 0)
(-0.0377747 1.22855 0)
(-0.0555407 1.24123 0)
(-0.0713583 1.21904 0)
(-0.0887836 1.23226 0)
(-0.104238 1.20358 0)
(-0.129148 1.22767 0)
(-0.164657 1.21778 0)
(-0.0773626 0.971429 0)
(0.068488 -0.21723 0)
(0.0947243 -0.25343 0)
(0.0818225 -0.0538222 0)
(0.0314337 0.010739 0)
(0.0329149 0.00865021 0)
(-0.0199112 0.17014 0)
(0.102425 0.285218 0)
(0.01531 0.240462 0)
(-0.00528176 0.178267 0)
(-0.0345401 -0.0812298 0)
(0.0119523 -0.222451 0)
(0.111343 0.99817 0)
(0.126628 1.27886 0)
(0.107836 1.24083 0)
(0.0950212 1.25977 0)
(0.0802026 1.24132 0)
(0.0645207 1.26016 0)
(0.0481136 1.24404 0)
(0.0326761 1.26372 0)
(0.0165703 1.24903 0)
(0.00094823 1.26405 0)
(-0.0141182 1.24684 0)
(-0.0296177 1.25965 0)
(-0.044133 1.23841 0)
(-0.0601995 1.25169 0)
(-0.075723 1.22518 0)
(-0.0958391 1.23882 0)
(-0.123945 1.22361 0)
(-0.183708 1.25611 0)
(-0.0461055 0.762348 0)
(0.0985317 -0.286033 0)
(0.102084 -0.252402 0)
(0.0826116 -0.0306597 0)
(0.0283838 0.0384815 0)
(0.0312175 0.0269471 0)
(-0.0402092 0.0980591 0)
(0.0909073 0.275912 0)
(0.0772472 0.237533 0)
(0.0599272 0.182215 0)
(0.0153001 -0.0708028 0)
(0.0253696 -0.312878 0)
(0.0639964 0.973021 0)
(0.0810764 1.24427 0)
(0.0787456 1.26758 0)
(0.0728455 1.24674 0)
(0.0641168 1.26797 0)
(0.0520494 1.25432 0)
(0.0399315 1.27291 0)
(0.0273014 1.26123 0)
(0.0148193 1.27639 0)
(0.00258022 1.26241 0)
(-0.00978799 1.27439 0)
(-0.0219506 1.25576 0)
(-0.0346695 1.26634 0)
(-0.0475639 1.24514 0)
(-0.0620532 1.25728 0)
(-0.0782171 1.23355 0)
(-0.107594 1.26953 0)
(-0.153047 1.2628 0)
(-0.00878807 0.538962 0)
(0.109082 -0.315232 0)
(0.102006 -0.240531 0)
(0.0752444 -0.0066004 0)
(0.0187832 0.0584451 0)
(0.0273143 0.0371683 0)
(-0.0469258 0.0814963 0)
(0.030983 0.151571 0)
(0.0909507 0.201818 0)
(0.116267 0.189872 0)
(0.0752006 -0.0434803 0)
(0.0537609 -0.344932 0)
(0.0399319 0.965169 0)
(0.055197 1.2575 0)
(0.0552652 1.24409 0)
(0.0543322 1.26196 0)
(0.049493 1.2574 0)
(0.0415667 1.27517 0)
(0.032152 1.26496 0)
(0.0228024 1.28143 0)
(0.0132275 1.27054 0)
(0.00367787 1.28205 0)
(-0.00571319 1.26783 0)
(-0.0154462 1.27663 0)
(-0.0248975 1.25853 0)
(-0.0354573 1.26961 0)
(-0.0447441 1.24741 0)
(-0.0559803 1.26721 0)
(-0.0782131 1.25047 0)
(-0.0945356 1.27582 0)
(0.0250433 0.36522 0)
(0.10505 -0.329746 0)
(0.0962736 -0.223044 0)
(0.0683172 0.0146785 0)
(0.0110283 0.0840124 0)
(0.0228102 0.03748 0)
(-0.0247739 0.0931729 0)
(-0.0122998 0.0936631 0)
(0.0398838 0.105114 0)
(0.105468 0.153247 0)
(0.112628 -0.0119649 0)
(0.0890188 -0.331071 0)
(0.0380827 0.966836 0)
(0.0482963 1.2256 0)
(0.0432518 1.25408 0)
(0.0418038 1.24819 0)
(0.0385253 1.27411 0)
(0.0325635 1.26445 0)
(0.0261071 1.28285 0)
(0.0189491 1.27384 0)
(0.0117797 1.28775 0)
(0.00471002 1.27529 0)
(-0.00247072 1.28537 0)
(-0.00940781 1.26841 0)
(-0.0164489 1.27756 0)
(-0.0231991 1.25875 0)
(-0.0282899 1.26923 0)
(-0.030948 1.24783 0)
(-0.0470933 1.27196 0)
(-0.0407368 1.25035 0)
(0.0517132 0.234954 0)
(0.0977744 -0.332198 0)
(0.0840804 -0.203238 0)
(0.0573455 0.0295528 0)
(0.00734138 0.104419 0)
(0.0222938 0.0309931 0)
(-0.0067501 0.0935449 0)
(-0.00880933 0.0642398 0)
(0.00518319 0.0535208 0)
(0.0617726 0.0701521 0)
(0.102315 -0.0134216 0)
(0.106498 -0.302147 0)
(0.0375232 0.976074 0)
(0.043512 1.24046 0)
(0.0310638 1.23136 0)
(0.0321094 1.25888 0)
(0.0297145 1.25906 0)
(0.0260592 1.27975 0)
(0.0211834 1.27253 0)
(0.0160068 1.28936 0)
(0.0107208 1.27931 0)
(0.00533716 1.29039 0)
(0.000201712 1.27605 0)
(-0.00486625 1.28378 0)
(-0.00922014 1.26563 0)
(-0.0135481 1.27447 0)
(-0.0137498 1.25142 0)
(-0.0118269 1.2621 0)
(-0.0195202 1.24039 0)
(-0.00696577 1.23221 0)
(0.0659164 0.144794 0)
(0.0916788 -0.324319 0)
(0.0741954 -0.181293 0)
(0.0539217 0.0362676 0)
(0.0116107 0.122295 0)
(0.0259948 0.0235201 0)
(0.00244619 0.0845542 0)
(0.00500567 0.0429292 0)
(0.0101059 0.0180248 0)
(0.0335532 0.00966962 0)
(0.0734164 -0.0427113 0)
(0.100543 -0.273896 0)
(0.0175966 0.992326 0)
(0.0316728 1.2129 0)
(0.0185803 1.24198 0)
(0.0240202 1.23975 0)
(0.0235415 1.27096 0)
(0.0211896 1.26677 0)
(0.0178457 1.28595 0)
(0.0137821 1.27909 0)
(0.00977275 1.29226 0)
(0.0056943 1.28049 0)
(0.00172053 1.28909 0)
(-0.00172669 1.27188 0)
(-0.0046955 1.2781 0)
(-0.00635037 1.25786 0)
(-0.004589 1.26167 0)
(0.000580524 1.23905 0)
(-0.00469928 1.2468 0)
(0.00944759 1.20042 0)
(0.0709552 0.0695891 0)
(0.0851329 -0.309153 0)
(0.0623378 -0.160794 0)
(0.0471632 0.0288672 0)
(0.0174375 0.132785 0)
(0.0326955 0.0198095 0)
(0.00511789 0.0700593 0)
(0.016038 0.0244703 0)
(0.0214457 -0.00873988 0)
(0.0302513 -0.0320693 0)
(0.0610685 -0.0891288 0)
(0.0837984 -0.242967 0)
(-0.0142718 1.00753 0)
(0.0162541 1.21866 0)
(0.0111052 1.2072 0)
(0.0196904 1.24587 0)
(0.0194919 1.25488 0)
(0.0189553 1.27814 0)
(0.015848 1.27407 0)
(0.0125812 1.29073 0)
(0.0089608 1.28182 0)
(0.00545301 1.29169 0)
(0.00214525 1.27758 0)
(-0.000619136 1.28258 0)
(-0.00261459 1.26315 0)
(-0.00287658 1.26646 0)
(4.21293e-05 1.23776 0)
(0.00598947 1.24402 0)
(0.00193648 1.2198 0)
(0.0199279 1.17944 0)
(0.0719469 0.00644555 0)
(0.077835 -0.287231 0)
(0.0527254 -0.138153 0)
(0.0341775 0.0161613 0)
(0.0180233 0.131912 0)
(0.0427099 0.0229214 0)
(0.00491168 0.0542331 0)
(0.0201423 0.00493984 0)
(0.0280721 -0.0332357 0)
(0.0330032 -0.0634191 0)
(0.052738 -0.123378 0)
(0.0582197 -0.18584 0)
(-0.0392299 1.0272 0)
(0.0135462 1.172 0)
(0.0142288 1.20583 0)
(0.0191166 1.22762 0)
(0.0200134 1.26392 0)
(0.0192129 1.26466 0)
(0.01603 1.28483 0)
(0.0121458 1.27995 0)
(0.00836152 1.29223 0)
(0.00453223 1.28095 0)
(0.00108784 1.2873 0)
(-0.00151184 1.26944 0)
(-0.00371016 1.2714 0)
(-0.00252008 1.24797 0)
(-0.00109779 1.24283 0)
(0.00755794 1.21447 0)
(0.00269264 1.22067 0)
(0.0294251 1.15016 0)
(0.0708214 -0.0447764 0)
(0.0714037 -0.262413 0)
(0.0465759 -0.11861 0)
(0.0243757 0.0105459 0)
(0.01473 0.0977924 0)
(0.0493835 0.0325736 0)
(0.00506398 0.0412667 0)
(0.0206597 -0.0141214 0)
(0.0308263 -0.057522 0)
(0.0342138 -0.0907874 0)
(0.0436811 -0.140929 0)
(0.0448397 -0.126784 0)
(-0.0225204 1.01933 0)
(0.0370564 1.15539 0)
(0.0308123 1.1821 0)
(0.0277441 1.23537 0)
(0.0256055 1.25203 0)
(0.0231993 1.27524 0)
(0.0179227 1.27454 0)
(0.0127878 1.29043 0)
(0.00768271 1.28251 0)
(0.00284877 1.29067 0)
(-0.0014858 1.27618 0)
(-0.00495528 1.27803 0)
(-0.00755534 1.25672 0)
(-0.00658891 1.25509 0)
(-0.00635411 1.22027 0)
(0.00268515 1.21652 0)
(-0.000489377 1.18682 0)
(0.0360889 1.11906 0)
(0.0678764 -0.0830441 0)
(0.0652708 -0.238597 0)
(0.0417441 -0.102664 0)
(0.0223815 0.00400065 0)
(0.011377 0.057597 0)
(0.0425751 0.047358 0)
(0.00633763 0.0305553 0)
(0.0221349 -0.0310307 0)
(0.0345358 -0.0794054 0)
(0.0371684 -0.114418 0)
(0.0358274 -0.145768 0)
(0.0464816 -0.0891422 0)
(0.0191543 0.988231 0)
(0.0820386 1.13151 0)
(0.0622017 1.18821 0)
(0.045218 1.22173 0)
(0.0370936 1.2585 0)
(0.0296353 1.2685 0)
(0.0216831 1.28578 0)
(0.0138305 1.28274 0)
(0.00692631 1.29321 0)
(0.00023449 1.28228 0)
(-0.00565754 1.28601 0)
(-0.0106563 1.26869 0)
(-0.0150597 1.26508 0)
(-0.0146708 1.23616 0)
(-0.0176811 1.22341 0)
(-0.00840979 1.18452 0)
(-0.0132733 1.17462 0)
(0.0355539 1.07907 0)
(0.0655722 -0.109231 0)
(0.0600367 -0.215788 0)
(0.0360029 -0.0920947 0)
(0.0158865 -0.0108251 0)
(0.0106684 0.0280021 0)
(0.020581 0.0519619 0)
(0.00811066 0.0184262 0)
(0.0267976 -0.0485716 0)
(0.0424962 -0.0988672 0)
(0.0460981 -0.133058 0)
(0.035366 -0.149249 0)
(0.0703084 -0.0782571 0)
(0.0747884 0.922738 0)
(0.1435 1.15124 0)
(0.0992156 1.18843 0)
(0.0680199 1.23635 0)
(0.0515073 1.25461 0)
(0.0378519 1.27816 0)
(0.0257985 1.28294 0)
(0.0150841 1.29446 0)
(0.00549377 1.29009 0)
(-0.00338951 1.2931 0)
(-0.0114536 1.28029 0)
(-0.0189995 1.27409 0)
(-0.0254454 1.25289 0)
(-0.0292608 1.23819 0)
(-0.034809 1.20161 0)
(-0.0330331 1.17958 0)
(-0.0369869 1.14281 0)
(0.02771 1.02132 0)
(0.0639107 -0.126447 0)
(0.0550587 -0.191745 0)
(0.0258371 -0.0874563 0)
(0.00693054 -0.0238467 0)
(0.00762392 0.00725173 0)
(0.00658093 0.0483695 0)
(0.00983636 0.00220743 0)
(0.0346527 -0.0697158 0)
(0.0557831 -0.11865 0)
(0.0610908 -0.148184 0)
(0.0468407 -0.155384 0)
(0.0916803 -0.0859631 0)
(0.120778 0.82428 0)
(0.198909 1.1774 0)
(0.129103 1.2289 0)
(0.0887805 1.2433 0)
(0.0640002 1.2769 0)
(0.0448966 1.27887 0)
(0.0295825 1.29385 0)
(0.0156034 1.29402 0)
(0.00340409 1.29755 0)
(-0.00799756 1.29089 0)
(-0.018801 1.28705 0)
(-0.0297045 1.2683 0)
(-0.0393695 1.25927 0)
(-0.0485231 1.22883 0)
(-0.0596523 1.20816 0)
(-0.0688024 1.16191 0)
(-0.0842229 1.13142 0)
(0.0062536 0.953916 0)