/*--------------------------------*- C++ -*----------------------------------*\
| =========                 |                                                 |
| \\      /  F ield         | OpenFOAM: The Open Source CFD Toolbox           |
|  \\    /   O peration     | Version:  2.3.0                                 |
|   \\  /    A nd           | Web:      www.OpenFOAM.org                      |
|    \\/     M anipulation  |                                                 |
\*---------------------------------------------------------------------------*/
FoamFile
{
    version     2.0;
    format      ascii;
    class       surfaceScalarField;
    location    "4.20007";
    object      phi.water;
}
// * * * * * * * * * * * * * * * * * * * * * * * * * * * * * * * * * * * * * //

dimensions      [0 3 -1 0 0 0 0];

internalField   nonuniform List<scalar> 
49938
(
-1.29983e-09
4.06182e-09
-3.05126e-09
-2.38352e-09
4.61402e-09
-3.28038e-09
-3.29581e-09
4.19104e-09
-3.42459e-09
-4.16243e-09
4.0211e-09
-3.26901e-09
-4.90811e-09
3.90798e-09
-3.33558e-09
-5.63449e-09
3.81591e-09
-3.24913e-09
-6.3104e-09
3.81981e-09
-3.31221e-09
-6.95073e-09
3.77888e-09
-3.28102e-09
-7.53585e-09
3.71703e-09
-3.25492e-09
-8.08736e-09
3.69877e-09
-3.21868e-09
-8.60363e-09
3.71976e-09
-3.23248e-09
-9.07064e-09
3.75606e-09
-3.2707e-09
-9.4475e-09
3.71613e-09
-3.25665e-09
-9.67967e-09
3.79216e-09
-3.41423e-09
-9.77119e-09
3.89881e-09
-3.60018e-09
-9.61341e-09
4.04879e-09
-3.948e-09
-9.13007e-09
4.20976e-09
-4.39008e-09
-8.254e-09
4.36445e-09
-4.9073e-09
-6.94344e-09
4.46843e-09
-5.42565e-09
-5.13221e-09
4.5419e-09
-5.9907e-09
-2.88771e-09
4.55663e-09
-6.43611e-09
-2.94679e-10
4.49715e-09
-6.73762e-09
1.96774e-09
4.42984e-09
-6.3436e-09
4.34658e-09
4.01794e-09
-6.02714e-09
5.40351e-09
3.71017e-09
-4.39322e-09
4.71168e-09
3.93605e-09
-2.90372e-09
2.92689e-09
4.63636e-09
-2.67177e-09
5.62959e-09
-2.92997e-09
-1.80565e-09
8.15609e-09
-2.54722e-09
-2.59819e-09
8.19636e-09
-3.09869e-09
-3.2038e-09
7.57153e-09
-3.1061e-09
-3.88852e-09
7.27312e-09
-2.86571e-09
-4.53972e-09
6.938e-09
-2.65676e-09
-5.22607e-09
6.77109e-09
-2.49922e-09
-5.8821e-09
6.59994e-09
-2.29358e-09
-6.49091e-09
6.37829e-09
-2.0833e-09
-7.03536e-09
6.11013e-09
-1.86658e-09
-7.51446e-09
5.84529e-09
-1.65219e-09
-7.88124e-09
5.44105e-09
-1.3162e-09
-8.20756e-09
4.9113e-09
-6.7392e-10
-8.49143e-09
4.78657e-09
-6.4275e-10
-8.63597e-09
4.67383e-09
-6.07625e-10
-8.67035e-09
4.62115e-09
-5.75682e-10
-8.53394e-09
4.58088e-09
-5.74775e-10
-8.13954e-09
4.51817e-09
-6.28278e-10
-7.38956e-09
4.40659e-09
-7.33297e-10
-6.25543e-09
4.26535e-09
-8.8386e-10
-4.73966e-09
4.13373e-09
-1.07094e-09
-2.89645e-09
3.88322e-09
-1.14231e-09
-8.67895e-10
3.59773e-09
-1.11089e-09
1.07059e-09
3.55546e-09
-1.04122e-09
2.91956e-09
3.0883e-09
-8.97204e-10
3.78491e-09
3.30494e-09
-4.21109e-10
3.4177e-09
4.33576e-09
3.35979e-11
2.12951e-09
5.92611e-09
9.51162e-11
9.71742e-09
-2.041e-09
-1.92915e-10
1.18244e-08
-3.63883e-09
-1.19775e-09
1.08068e-08
-2.08587e-09
-1.85067e-09
9.394e-09
-1.54234e-09
-2.49981e-09
9.18242e-09
-1.5893e-09
-3.07329e-09
8.79965e-09
-1.54593e-09
-3.68882e-09
8.54808e-09
-1.38132e-09
-4.1471e-09
8.20031e-09
-1.32014e-09
-4.4927e-09
7.81115e-09
-1.21793e-09
-4.80006e-09
7.45084e-09
-1.13064e-09
-5.46204e-09
7.10307e-09
-6.87532e-10
-6.59075e-09
6.38903e-09
-5.92886e-11
-7.13499e-09
5.09995e-09
2.21699e-10
-7.42727e-09
4.62366e-09
5.07852e-10
-7.61408e-09
4.4482e-09
4.49435e-10
-7.74647e-09
4.30674e-09
4.75731e-10
-7.72946e-09
4.07272e-09
5.1259e-10
-7.52718e-09
3.78194e-09
5.515e-10
-7.03721e-09
3.40428e-09
5.2641e-10
-6.12419e-09
2.94812e-09
4.15034e-10
-4.7769e-09
2.53836e-09
2.55353e-10
-3.11407e-09
2.20445e-09
2.01104e-11
-1.28928e-09
1.97602e-09
-2.02911e-10
4.81415e-10
2.025e-09
-2.39841e-10
2.03242e-09
1.82747e-09
-2.90812e-10
2.85925e-09
2.5456e-09
-6.2372e-11
2.55093e-09
4.17737e-09
4.82475e-10
1.35363e-09
6.26062e-09
8.94151e-10
1.15879e-08
-5.91647e-10
1.98406e-10
1.29271e-08
-1.3782e-09
-6.24043e-10
1.26011e-08
-8.23605e-10
-1.04167e-09
1.04077e-08
-6.76449e-10
-1.41076e-09
9.72206e-09
-1.9501e-10
-1.7915e-09
9.23752e-09
-7.73349e-11
-2.22581e-09
8.89149e-09
7.44269e-11
-2.5197e-09
8.44115e-09
4.62093e-11
-2.72595e-09
8.0137e-09
3.48418e-12
-2.85509e-09
7.61025e-09
-2.82519e-11
-3.16352e-09
7.20023e-09
2.17576e-10
-4.22339e-09
6.40112e-09
1.05283e-09
-5.56865e-09
5.19694e-09
1.11641e-09
-6.23231e-09
4.36976e-09
8.88905e-10
-6.58492e-09
4.0276e-09
8.01072e-10
-6.79787e-09
3.59252e-09
9.50187e-10
-6.88242e-09
2.87038e-09
1.31139e-09
-6.82241e-09
2.11099e-09
1.641e-09
-6.47864e-09
1.22474e-09
1.87158e-09
-5.67638e-09
5.01871e-10
1.68264e-09
-4.43461e-09
-4.18603e-11
1.37345e-09
-3.0308e-09
-1.29116e-10
9.55999e-10
-1.43893e-09
-8.5867e-11
4.85452e-10
6.42175e-11
2.75584e-10
2.53928e-10
1.33251e-09
3.81349e-10
1.76301e-10
1.91529e-09
1.80923e-09
1.6195e-10
1.71742e-09
3.81162e-09
5.75493e-10
7.91166e-10
6.39297e-09
8.22643e-10
1.17828e-08
5.66035e-10
-9.55039e-11
1.35065e-08
-5.77242e-10
-3.96399e-10
1.18825e-08
1.89762e-09
-6.2587e-10
1.13576e-08
-3.08888e-10
-9.72616e-10
1.04266e-08
-3.74856e-10
-1.28452e-09
9.80268e-09
-2.74006e-10
-1.6491e-09
9.32076e-09
-8.50012e-11
-1.87004e-09
8.73065e-09
-8.51353e-11
-1.98102e-09
8.16241e-09
-3.23864e-11
-2.05342e-09
7.76161e-09
-7.29717e-11
-2.19537e-09
7.29955e-09
5.30815e-11
-2.95951e-09
6.35505e-09
8.21657e-10
-4.47763e-09
5.03109e-09
1.62679e-09
-5.14319e-09
4.14992e-09
8.52372e-10
-5.19838e-09
3.36933e-09
7.28762e-10
-4.99732e-09
2.2352e-09
1.17766e-09
-4.8013e-09
1.0172e-09
1.68686e-09
-4.78872e-09
3.41006e-10
1.79047e-09
-4.84942e-09
-4.21252e-10
1.73936e-09
-4.63562e-09
-1.32788e-09
1.64696e-09
-4.02508e-09
-2.03489e-09
1.41304e-09
-3.11953e-09
-2.39094e-09
1.38562e-09
-1.91073e-09
-2.45481e-09
1.18468e-09
-5.67012e-10
-1.86168e-09
8.11518e-10
4.44799e-10
-7.44162e-10
1.20703e-10
9.90643e-10
1.23229e-09
3.63872e-11
1.068e-09
3.53788e-09
2.01077e-10
5.51707e-10
6.41039e-09
5.08256e-10
1.19899e-08
3.2986e-10
-2.55916e-10
1.35378e-08
1.38887e-10
-7.11586e-10
1.12496e-08
1.54216e-09
-8.62367e-10
1.10393e-08
1.06554e-09
-6.92945e-10
1.07215e-08
-7.52593e-11
-8.95904e-10
9.88147e-09
3.79481e-10
-1.14918e-09
9.11602e-09
6.50727e-10
-1.33902e-09
8.39475e-09
6.61209e-10
-1.42741e-09
8.07139e-09
1.76818e-10
-1.51166e-09
7.67469e-09
1.64269e-10
-1.53857e-09
7.10229e-09
2.25086e-10
-1.93961e-09
5.96915e-09
7.97601e-10
-2.98728e-09
4.49084e-09
1.56004e-09
-3.1443e-09
3.48532e-09
8.03838e-10
-2.47214e-09
2.21044e-09
5.01811e-10
-1.81284e-09
8.34586e-10
7.5861e-10
-1.75108e-09
3.74495e-11
9.33265e-10
-2.39232e-09
-2.74318e-10
1.26676e-09
-3.40228e-09
-8.20051e-10
1.41226e-09
-3.99756e-09
-1.92382e-09
1.19515e-09
-3.82289e-09
-3.03511e-09
8.31552e-10
-3.29899e-09
-3.45278e-09
5.48706e-10
-2.46998e-09
-3.67783e-09
4.09848e-10
-1.39404e-09
-3.51659e-09
5.96379e-10
-2.97259e-10
-2.15687e-09
3.29023e-10
3.29584e-10
2.22868e-10
3.88161e-10
6.03185e-10
3.14082e-09
1.26148e-10
2.80402e-10
6.30023e-09
4.41178e-10
1.18771e-08
3.88587e-10
-2.9165e-10
1.3509e-08
2.64095e-10
-7.71637e-10
1.10344e-08
7.94989e-10
-1.07617e-09
1.05034e-08
1.03639e-09
-1.38573e-09
1.03193e-08
1.17576e-09
-1.68859e-09
9.442e-09
1.08041e-09
-1.85282e-09
8.52226e-09
1.02176e-09
-1.64516e-09
7.81074e-09
6.24542e-10
-1.07698e-09
7.80629e-09
-1.4267e-10
-1.12403e-09
7.54357e-09
2.83723e-10
-1.14304e-09
6.99401e-09
2.09597e-10
-1.20139e-09
5.77808e-09
2.57012e-10
-1.58166e-09
4.08194e-09
7.77113e-10
-1.3657e-09
2.79847e-09
4.60997e-10
-6.73636e-10
1.42502e-09
9.97065e-11
-2.0085e-10
2.09637e-10
1.56277e-10
-4.44462e-11
-2.05455e-10
8.3895e-11
-4.21457e-10
-1.5204e-10
2.48347e-10
-1.53324e-09
-5.15883e-10
7.97574e-10
-2.69702e-09
-1.84721e-09
1.0793e-09
-3.00041e-09
-3.47413e-09
7.40277e-10
-2.95995e-09
-4.17564e-09
6.83161e-10
-2.56312e-09
-4.33876e-09
2.68303e-10
-1.97829e-09
-4.40972e-09
3.19135e-10
-1.05928e-09
-3.66205e-09
6.00494e-10
-1.55646e-10
-1.18352e-09
5.10806e-10
3.63694e-10
2.67056e-09
-5.10651e-11
1.79833e-10
6.14661e-09
3.40303e-10
1.19397e-08
1.13469e-10
-2.65341e-10
1.34114e-08
3.22132e-10
-6.4045e-10
1.09449e-08
5.01482e-10
-9.65375e-10
1.0141e-08
7.32624e-10
-1.22552e-09
9.69948e-09
1.05419e-09
-1.39369e-09
8.82515e-09
9.09074e-10
-1.47992e-09
7.8737e-09
8.27194e-10
-1.49001e-09
7.20528e-09
7.06332e-10
-1.43791e-09
7.17008e-09
7.5657e-10
-1.48138e-09
7.01664e-09
7.224e-10
-1.23784e-09
6.46909e-09
4.18004e-10
-7.33332e-10
5.3198e-09
-2.25363e-11
-6.13023e-10
3.59331e-09
3.65108e-10
-4.05271e-10
2.24939e-09
3.3758e-10
-1.08303e-10
8.86469e-10
2.43633e-10
6.13225e-11
-1.45236e-10
1.8288e-10
1.50087e-10
-2.28031e-10
-7.03276e-11
6.60701e-11
-7.41517e-11
-2.83397e-15
-1.92785e-10
-3.91977e-10
1.29042e-10
-1.41787e-09
-1.28308e-09
6.53397e-10
-2.11631e-09
-3.22795e-09
4.47545e-10
-2.37464e-09
-4.54725e-09
6.2966e-10
-2.26918e-09
-4.72947e-09
2.85896e-10
-1.95756e-09
-4.85683e-09
1.39864e-10
-1.40466e-09
-4.53733e-09
3.35366e-10
-5.33373e-10
-2.66952e-09
6.27612e-10
1.45107e-10
2.10869e-09
-1.18785e-10
8.17838e-11
5.96335e-09
2.47763e-10
1.19117e-08
1.07924e-10
-2.27125e-10
1.33794e-08
2.29508e-10
-4.77658e-10
1.09203e-08
2.84726e-10
-6.88465e-10
9.9841e-09
4.19685e-10
-8.14229e-10
9.36053e-09
5.09928e-10
-8.56722e-10
8.50611e-09
3.82013e-10
-8.56112e-10
7.57152e-09
3.17874e-10
-8.78007e-10
6.90739e-09
3.38048e-10
-8.79876e-10
6.68595e-09
5.34812e-10
-9.75642e-10
6.69748e-09
4.67151e-10
-7.22183e-10
5.63185e-09
6.42129e-10
-3.50262e-10
4.79706e-09
1.69624e-10
-1.67428e-10
2.98714e-09
4.25376e-10
-2.06297e-11
1.59936e-09
5.01597e-10
-2.81355e-11
6.20254e-10
2.73556e-10
9.71636e-12
-3.14581e-10
1.27465e-10
-2.6095e-10
7.16585e-11
-3.33386e-11
-4.71067e-10
8.15447e-11
5.28783e-11
4.30885e-10
2.65584e-10
-1.56963e-09
-3.27926e-10
-5.55318e-10
2.75696e-11
-1.30874e-09
-2.28978e-09
3.76371e-11
-1.84881e-09
-4.54059e-09
5.33069e-10
-1.99079e-09
-4.88046e-09
2.92995e-10
-1.84889e-09
-5.04235e-09
4.46226e-11
-1.57817e-09
-4.95996e-09
1.58836e-10
-9.02919e-10
-3.8487e-09
5.18725e-10
-4.39975e-11
1.04795e-09
2.03498e-10
-2.92325e-11
5.75392e-09
1.94053e-10
1.18868e-08
-9.72194e-13
-1.80644e-10
1.33835e-08
1.53874e-10
-3.41952e-10
1.09128e-08
1.5308e-10
-4.51874e-10
9.90953e-09
2.19879e-10
-5.03858e-10
9.23044e-09
2.02929e-10
-5.10082e-10
8.39499e-09
1.25857e-10
-4.93637e-10
7.47227e-09
8.77702e-11
-5.36659e-10
6.87628e-09
7.89619e-11
-6.99106e-10
6.65664e-09
1.96463e-10
-1.13405e-09
6.69544e-09
4.66895e-10
-7.22094e-10
4.7817e-09
4.59012e-10
-2.75201e-10
4.47057e-09
-1.01652e-10
4.6783e-11
2.86065e-09
-1.94069e-10
2.20843e-10
1.22746e-09
1.94589e-10
2.93601e-10
7.64483e-10
-2.19605e-10
3.25268e-10
-2.86245e-12
-3.48717e-10
5.295e-10
1.84785e-10
-3.21168e-10
9.4276e-10
1.87628e-10
-5.2075e-10
2.48651e-10
-2.81544e-10
1.24721e-09
-5.21633e-11
8.82095e-12
-2.68063e-10
-8.86006e-10
-1.69054e-09
2.29398e-10
-1.44712e-09
-4.55152e-09
5.71866e-10
-1.70551e-09
-4.98358e-09
3.6151e-10
-1.67583e-09
-5.13795e-09
6.6059e-11
-1.56447e-09
-5.13926e-09
7.05668e-11
-1.23633e-09
-4.54413e-09
3.79826e-10
-1.55666e-10
-9.91982e-10
9.75398e-10
-7.25862e-11
5.47401e-09
1.97009e-10
1.18933e-08
-7.76491e-11
-1.41731e-10
1.34122e-08
9.63227e-11
-2.39014e-10
1.09056e-08
7.26264e-11
-2.75733e-10
9.8594e-09
9.45176e-11
-2.7456e-10
9.1716e-09
6.03071e-11
-2.44064e-10
8.3273e-09
4.26132e-11
-2.21956e-10
7.4393e-09
1.06787e-11
-2.9168e-10
6.87454e-09
8.23036e-11
-6.96588e-10
6.86507e-09
1.95331e-10
-1.55952e-09
6.60372e-09
1.01482e-09
-5.1902e-10
4.5338e-09
-8.29179e-10
3.90373e-11
4.27819e-09
-3.25371e-10
2.41193e-10
3.06201e-09
-3.91886e-10
3.52023e-10
1.22436e-09
-1.09252e-10
4.31337e-10
9.05234e-10
-2.22588e-10
2.51495e-10
2.09186e-10
-3.4587e-11
2.81873e-10
2.77304e-10
-1.26695e-10
5.90073e-10
1.50806e-10
-2.74046e-10
5.84888e-10
-4.23412e-10
1.44729e-10
3.46657e-10
1.46885e-10
9.86682e-11
-4.50913e-10
-1.28918e-09
3.93369e-10
-1.04465e-09
-4.59962e-09
6.41791e-10
-1.36856e-09
-4.99001e-09
3.3034e-10
-1.41177e-09
-5.14619e-09
5.14604e-11
-1.38405e-09
-5.17383e-09
7.44758e-12
-1.18391e-09
-4.8049e-09
6.74392e-11
-1.69388e-10
-2.23009e-09
2.40385e-10
6.3538e-11
5.17108e-09
6.63691e-11
1.20752e-08
-1.26044e-10
-1.17543e-10
1.3463e-08
5.39374e-11
-1.70989e-10
1.08991e-08
9.16983e-11
-1.63879e-10
9.81851e-09
1.41722e-11
-1.33515e-10
9.13476e-09
6.28935e-13
-8.5143e-11
8.28687e-09
-7.0991e-12
-6.93334e-11
7.43507e-09
-1.191e-11
-1.37182e-10
6.91308e-09
3.22313e-11
-5.74708e-10
7.08454e-09
2.248e-10
-1.14947e-09
6.68196e-09
5.26445e-10
-6.2302e-10
4.02009e-09
-4.95567e-12
-1.98264e-10
3.69134e-09
1.97054e-10
7.23467e-11
2.8129e-09
-8.26694e-12
2.05344e-10
1.17602e-09
-8.57952e-11
3.62641e-10
9.86748e-10
-2.41488e-10
3.115e-10
3.22147e-10
-6.41896e-11
3.54851e-10
4.4365e-10
-2.13482e-10
5.26596e-10
2.128e-10
-2.38753e-10
5.55397e-10
-3.97071e-10
-5.80166e-11
7.64672e-10
-3.26928e-11
-3.2227e-11
7.40894e-11
-1.60664e-09
1.01358e-09
-6.47366e-10
-4.65555e-09
7.77796e-10
-1.03426e-09
-4.98283e-09
3.79721e-10
-1.11655e-09
-5.13434e-09
7.0433e-11
-1.10043e-09
-5.20121e-09
1.13469e-11
-9.10879e-10
-4.97109e-09
-2.15298e-11
-1.80506e-10
-2.84391e-09
-1.1062e-10
1.21495e-10
4.8479e-09
1.62326e-11
1.22288e-08
-4.40072e-11
-1.01306e-10
1.35271e-08
2.85514e-11
-1.22398e-10
1.0882e-08
1.03764e-10
-9.12347e-11
9.77678e-09
-1.53439e-11
-4.27415e-11
9.10147e-09
-2.10163e-11
1.8909e-11
8.24884e-09
-2.26776e-11
3.54161e-11
7.43782e-09
-1.9996e-11
-5.69732e-11
6.96795e-09
4.26068e-11
-4.70396e-10
7.31078e-09
1.94136e-10
-1.13316e-09
6.8316e-09
5.4576e-10
-8.529e-10
3.59566e-09
1.48e-10
-3.03546e-10
3.0649e-09
8.53848e-11
2.69424e-11
2.4547e-09
3.05842e-11
2.73386e-10
1.00571e-09
-7.76834e-11
2.89036e-10
9.75074e-10
-5.78049e-12
3.4559e-10
3.04087e-10
-4.08638e-11
3.87337e-10
4.18403e-10
-1.94304e-11
4.48614e-10
1.91499e-10
-4.46285e-11
7.60135e-10
-7.38211e-10
3.14318e-11
1.10671e-09
-6.44532e-10
2.71751e-10
3.38574e-10
-2.4185e-09
1.59283e-09
-3.65719e-10
-4.80563e-09
8.55173e-10
-7.47476e-10
-4.96612e-09
3.65044e-10
-8.61355e-10
-5.09013e-09
6.96647e-11
-8.98509e-10
-5.17928e-09
1.52473e-11
-7.41201e-10
-5.04979e-09
-7.79089e-11
-2.4933e-10
-3.34132e-09
8.88071e-12
1.07591e-10
4.53873e-09
-5.40771e-11
1.22432e-08
8.78979e-11
-8.98352e-11
1.36084e-08
1.04984e-12
-1.00745e-10
1.08538e-08
1.68234e-11
-5.39201e-11
9.73765e-09
-2.59239e-11
3.61538e-12
9.07071e-09
-3.05626e-11
7.01361e-11
8.21655e-09
-3.55399e-11
8.71285e-11
7.44341e-09
-2.34851e-11
-7.63392e-12
7.03236e-09
3.28854e-11
-4.43965e-10
7.51945e-09
2.36892e-10
-1.09639e-09
6.94421e-09
5.72266e-10
-8.63589e-10
3.327e-09
3.76191e-11
-3.10084e-10
2.67383e-09
-1.62804e-10
-6.75564e-12
2.19206e-09
-4.04092e-11
2.35349e-10
8.47388e-10
-8.5843e-11
1.41017e-10
1.01631e-09
5.23384e-11
2.01624e-10
2.7076e-10
-2.93716e-11
3.83849e-10
2.38596e-10
-2.53035e-12
6.5446e-10
-8.72287e-11
1.24882e-11
1.09088e-09
-1.28689e-09
1.22773e-10
1.37983e-09
-1.24281e-09
3.23535e-10
4.85674e-10
-3.01834e-09
1.50326e-09
-1.10537e-10
-4.83296e-09
6.23841e-10
-4.60211e-10
-4.91109e-09
2.94642e-10
-5.96757e-10
-4.99098e-09
3.73968e-11
-6.90573e-10
-5.11189e-09
2.64353e-11
-6.16633e-10
-5.04784e-09
-7.54873e-11
-3.05171e-10
-3.62615e-09
-2.30351e-11
8.26762e-11
4.26079e-09
-1.16581e-10
1.2216e-08
1.0873e-10
-7.91571e-11
1.36904e-08
-1.03523e-11
-9.13405e-11
1.08238e-08
-1.64597e-11
-3.914e-11
9.70173e-09
-1.02191e-11
2.07605e-11
9.04126e-09
-2.59882e-11
8.31128e-11
8.18775e-09
-3.4458e-11
9.44359e-11
7.44793e-09
-1.64076e-11
-3.11711e-11
7.11004e-09
5.19786e-11
-5.4263e-10
7.72504e-09
3.20745e-10
-1.28635e-09
6.98598e-09
7.37776e-10
-1.08399e-09
3.00127e-09
1.28181e-10
-4.43702e-10
2.18946e-09
-1.54981e-10
-1.95923e-10
1.91953e-09
2.47291e-11
8.47123e-11
6.19001e-10
-5.34375e-11
6.36725e-11
1.0409e-09
-5.33172e-12
1.75961e-10
1.3744e-10
2.05253e-11
6.0439e-10
-3.64046e-10
1.81026e-10
1.07629e-09
-9.12993e-10
3.67802e-10
1.28431e-09
-1.66129e-09
1.80303e-10
1.29927e-09
-1.41683e-09
1.69598e-10
5.10269e-10
-3.23614e-09
1.00932e-09
1.17545e-10
-4.6652e-09
2.25001e-10
-2.00337e-10
-4.73346e-09
1.4025e-10
-3.56051e-10
-4.81704e-09
-1.82225e-11
-4.98138e-10
-4.97474e-09
4.93941e-12
-4.8601e-10
-4.96689e-09
-9.28587e-11
-3.24242e-10
-3.77069e-09
-1.35625e-11
5.0803e-11
4.04969e-09
-1.708e-10
1.21974e-08
7.25139e-11
-8.59907e-11
1.37857e-08
-1.65167e-11
-9.48888e-11
1.08105e-08
4.72116e-11
-4.64298e-11
9.68016e-09
2.67805e-12
8.9594e-12
9.01991e-09
-2.66051e-11
6.56799e-11
8.16819e-09
-3.882e-11
6.36991e-11
7.45791e-09
-8.661e-12
-9.492e-11
7.21418e-09
5.63457e-11
-6.62575e-10
7.91474e-09
3.96285e-10
-1.36613e-09
6.91883e-09
8.07183e-10
-1.05974e-09
2.59652e-09
1.06131e-10
-4.47971e-10
1.76929e-09
-1.92157e-10
-2.72029e-10
1.60356e-09
1.43975e-10
8.72315e-11
3.05095e-10
-4.59613e-11
1.46561e-10
7.79342e-10
2.04228e-10
5.9831e-10
-3.44719e-10
3.52117e-11
9.40039e-10
-1.11369e-09
4.22095e-10
1.12135e-09
-1.53499e-09
4.55401e-10
1.26759e-09
-1.87578e-09
7.42865e-11
1.0438e-09
-1.66769e-09
4.76917e-10
5.0184e-10
-3.14081e-09
4.46874e-10
3.05766e-10
-4.33888e-09
-1.30248e-10
4.43383e-11
-4.44619e-09
-2.58414e-11
-1.29528e-10
-4.57019e-09
-7.29809e-11
-3.07753e-10
-4.77938e-09
-1.71345e-11
-3.70623e-10
-4.82623e-09
-7.76782e-11
-2.90542e-10
-3.79124e-09
-5.62561e-11
2.82256e-11
3.92356e-09
-1.99029e-10
1.22511e-08
-1.98875e-11
-9.28464e-11
1.38954e-08
-2.48939e-11
-1.07534e-10
1.08105e-08
5.2963e-11
-7.38303e-11
9.67092e-09
6.85526e-12
-2.8478e-11
9.00723e-09
-2.59107e-11
1.76365e-11
8.15598e-09
-3.34687e-11
-1.00259e-11
7.48338e-09
1.99976e-12
-2.46229e-10
7.33182e-09
1.28513e-10
-9.01856e-10
8.06577e-09
5.33276e-10
-1.58932e-09
6.65024e-09
9.9331e-10
-1.19776e-09
2.38076e-09
-1.73451e-10
-8.0271e-10
1.53386e-09
-1.58929e-10
-4.52565e-10
1.53888e-09
-2.86369e-10
-2.66596e-11
-3.04771e-10
1.94842e-10
5.86023e-10
3.74438e-10
-2.05353e-10
6.36701e-10
-8.66772e-10
4.8672e-10
1.09163e-09
-1.28331e-09
-2.72823e-10
1.37841e-09
-1.62412e-09
-1.92799e-10
1.13173e-09
-2.0029e-09
3.74681e-10
1.20046e-09
-1.65867e-09
-7.76042e-11
7.03643e-10
-2.85969e-09
2.15701e-10
5.0115e-10
-3.93486e-09
-2.01517e-10
2.32452e-10
-4.09619e-09
-8.1301e-11
6.17268e-11
-4.28258e-09
-1.1689e-10
-1.25431e-10
-4.55408e-09
-3.81492e-11
-2.25599e-10
-4.65779e-09
-6.82325e-11
-1.93015e-10
-3.73012e-09
-9.10288e-11
-1.33665e-12
3.90909e-09
-1.81941e-10
1.23544e-08
-9.88035e-11
-9.94189e-11
1.40163e-08
-3.01935e-11
-1.33353e-10
1.08315e-08
-4.96132e-12
-1.19652e-10
9.6896e-09
-2.52736e-11
-1.00431e-10
9.0308e-09
-4.42628e-11
-8.89475e-11
8.17182e-09
-2.89741e-11
-1.91379e-10
7.55669e-09
2.86771e-11
-5.84481e-10
7.52666e-09
2.07561e-10
-1.29452e-09
8.1815e-09
6.30121e-10
-1.74655e-09
6.17843e-09
9.48852e-10
-1.30208e-09
1.83284e-09
1.12767e-10
-8.14812e-10
1.13719e-09
-8.92897e-11
-5.35857e-10
1.18575e-09
7.96371e-11
-1.09548e-10
-1.08934e-09
3.7886e-10
5.51492e-10
-6.59494e-10
3.94013e-10
9.09988e-10
-1.44089e-09
2.31645e-10
9.4201e-10
-1.47072e-09
1.60958e-10
1.07759e-09
-1.69819e-09
-6.06001e-11
1.3571e-09
-2.26299e-09
-1.93539e-11
1.28098e-09
-2.01102e-09
4.28461e-10
7.38732e-10
-2.60695e-09
2.89509e-10
6.09064e-10
-3.56099e-09
-2.44204e-10
3.69872e-10
-3.76333e-09
-9.36676e-11
2.21772e-10
-3.99771e-09
-1.36763e-10
3.31321e-11
-4.33035e-09
-3.509e-11
-8.86668e-11
-4.47607e-09
-5.99115e-11
-8.25173e-11
-3.61039e-09
-1.23998e-10
-1.82212e-11
3.95985e-09
-1.17498e-10
1.25077e-08
-1.66587e-10
-1.11162e-10
1.41544e-08
-3.83589e-11
-1.75099e-10
1.08908e-08
2.32197e-12
-1.93018e-10
9.7359e-09
-4.35373e-11
-2.04653e-10
9.06571e-09
-2.32741e-11
-2.59985e-10
8.19252e-09
3.9686e-11
-4.87885e-10
7.6805e-09
1.14182e-10
-9.29815e-10
7.83929e-09
1.45139e-10
-1.42742e-09
8.2982e-09
4.14912e-10
-1.54196e-09
5.62103e-09
6.95951e-10
-1.01182e-09
1.10106e-09
2.17469e-10
-4.58579e-10
6.81978e-10
-9.50637e-11
-2.40052e-10
7.21186e-10
2.5395e-10
-3.36992e-11
-1.3983e-09
1.12962e-10
1.88891e-10
-1.23428e-09
3.69243e-10
7.26007e-10
-1.71647e-09
-2.55476e-10
7.24335e-10
-1.8171e-09
3.49109e-10
7.47962e-10
-2.13542e-09
4.13678e-10
1.61911e-09
-2.62949e-09
-5.04643e-10
1.7967e-09
-2.84622e-09
6.5761e-10
8.80121e-10
-2.9331e-09
1.24273e-09
6.98919e-10
-3.30207e-09
-7.77245e-11
4.62961e-10
-3.53199e-09
4.62173e-12
3.36457e-10
-3.7672e-09
-1.04014e-10
1.69561e-10
-4.12622e-09
-3.72341e-11
5.24211e-11
-4.29943e-09
-5.94997e-11
9.05009e-14
-3.44458e-09
-1.12567e-10
-5.59526e-11
3.88536e-09
1.38002e-10
1.26583e-08
-2.02906e-10
-1.27558e-10
1.42958e-08
-2.4561e-11
-2.17014e-10
1.09968e-08
3.43166e-11
-2.82431e-10
9.84485e-09
-8.06075e-11
-3.86536e-10
9.18752e-09
-1.70624e-11
-5.49731e-10
8.40668e-09
-5.164e-11
-9.19546e-10
8.14986e-09
-9.65878e-11
-1.52596e-09
8.60884e-09
-1.46573e-10
-2.10901e-09
8.67872e-09
2.60352e-10
-1.72661e-09
4.927e-09
3.22439e-10
-7.37304e-10
8.33182e-10
-7.11516e-10
-2.58939e-10
6.63096e-10
-4.48712e-10
1.13002e-10
1.01974e-09
-6.67469e-10
-5.9811e-11
-9.42677e-10
-2.79178e-10
7.10703e-11
-8.07359e-10
-5.56278e-10
6.2054e-11
-1.37116e-09
-3.36059e-10
3.84723e-10
-1.39751e-09
-7.42238e-10
8.86911e-10
-1.83807e-09
-7.99542e-10
1.54046e-09
-2.51198e-09
-7.71062e-10
2.60365e-09
-2.91967e-09
-9.89743e-10
1.21511e-09
-3.36132e-09
1.81676e-09
9.39657e-10
-3.02165e-09
-4.96072e-12
6.195e-10
-3.20882e-09
-3.01793e-12
4.82325e-10
-3.53312e-09
-9.69002e-11
3.07837e-10
-3.916e-09
-3.57339e-11
1.76248e-10
-4.09728e-09
-7.05672e-11
7.06974e-11
-3.25345e-09
-8.47177e-11
-3.82932e-11
3.3761e-09
6.3147e-10
1.28422e-08
-2.20219e-10
-1.65984e-10
1.45326e-08
-8.77064e-11
-3.17767e-10
1.11888e-08
-3.15644e-11
-4.63458e-10
1.00447e-08
-8.39522e-11
-6.55427e-10
9.44042e-09
-5.57517e-11
-9.94553e-10
8.82921e-09
-7.78741e-11
-1.57146e-09
8.83488e-09
-9.75209e-11
-2.17268e-09
9.38786e-09
-1.66099e-10
-2.37052e-09
9.02779e-09
-3.08578e-10
-1.93652e-09
4.469e-09
1.93786e-11
-1.36419e-09
1.94249e-09
-1.67299e-09
-1.10143e-09
1.89264e-09
-1.48354e-09
-7.92839e-10
1.86046e-09
-1.1396e-09
-7.01432e-10
3.37512e-10
-1.37035e-09
-4.82057e-10
3.91819e-10
-1.41853e-09
-3.24341e-10
1.54841e-10
-1.68371e-09
6.59204e-11
1.5765e-10
-1.94543e-09
6.21791e-10
8.16388e-11
-2.47558e-09
1.34483e-09
-3.49346e-10
-2.88567e-09
2.80309e-09
-5.33091e-10
-3.84484e-09
1.58739e-09
-1.84843e-09
-2.97189e-10
1.10268e-09
-2.17694e-09
-3.60008e-10
7.27304e-10
-2.68326e-09
-1.50177e-10
5.69725e-10
-3.25908e-09
-1.16462e-10
4.15773e-10
-3.72944e-09
-3.26043e-11
3.237e-10
-3.86629e-09
-1.38912e-10
1.88507e-10
-3.03879e-09
-7.8351e-11
1.01745e-10
2.49938e-09
9.77475e-10
1.30638e-08
-1.19132e-10
-1.59567e-10
1.47298e-08
-5.74858e-11
-3.39098e-10
1.13963e-08
-6.655e-11
-5.01904e-10
1.02788e-08
-6.79682e-11
-7.2386e-10
9.73756e-09
-5.57621e-11
-1.05027e-09
9.273e-09
-1.02765e-10
-1.41062e-09
9.40753e-09
-1.9143e-10
-1.58021e-09
9.76264e-09
-1.32834e-10
-9.99236e-10
8.5809e-09
-2.52969e-10
-4.28512e-10
3.37232e-09
5.14923e-10
-7.50112e-10
1.40632e-09
8.60319e-10
-8.77678e-10
1.17936e-09
8.45016e-10
-6.35508e-10
3.00026e-10
1.32955e-09
-4.72647e-10
-4.82337e-10
6.56647e-10
-3.03097e-10
-4.52665e-10
6.74933e-10
-1.39742e-10
-4.10887e-10
4.02373e-10
4.87081e-11
-3.73425e-10
3.42625e-10
3.24689e-10
-3.51473e-10
1.57131e-10
4.70925e-10
-7.15144e-10
2.19562e-10
5.63603e-10
-9.01475e-10
2.75706e-10
4.37261e-10
-1.82732e-09
1.05229e-10
5.20277e-10
-2.10615e-09
-1.53799e-10
5.09577e-10
-2.58087e-09
-9.16875e-11
5.13755e-10
-3.17523e-09
-8.80298e-11
4.70686e-10
-3.66518e-09
-2.11932e-11
4.93149e-10
-3.55243e-09
-3.36322e-10
4.00465e-10
-2.83435e-09
-1.11275e-10
2.47161e-10
1.97994e-09
6.90126e-10
1.31898e-08
1.22777e-10
-1.89915e-10
1.49719e-08
-7.65358e-11
-4.1556e-10
1.16664e-08
-5.67163e-11
-6.48827e-10
1.05885e-08
-3.36891e-11
-9.44573e-10
1.01129e-08
-5.72254e-11
-1.30657e-09
9.75308e-09
-1.09713e-10
-1.60006e-09
9.87939e-09
-1.64112e-10
-1.56789e-09
1.00407e-08
-2.48573e-10
-7.71823e-10
8.48919e-09
-6.83811e-10
-5.55872e-10
3.36316e-09
-2.05692e-10
-5.4617e-10
1.55447e-09
-1.64097e-10
-4.24627e-10
1.18608e-09
-1.27464e-10
-2.81005e-10
1.81786e-11
1.42392e-10
-2.50767e-10
-4.43786e-10
-6.93115e-11
-1.79282e-10
-4.97694e-10
-2.64589e-11
-6.93809e-11
-4.77876e-10
-4.29107e-11
6.20175e-11
-5.28506e-10
2.36826e-11
3.14814e-10
-5.97326e-10
-6.94183e-12
4.62215e-10
-8.50351e-10
-1.21941e-11
7.42099e-10
-1.06812e-09
-1.1324e-10
5.90845e-10
-1.59179e-09
-8.42743e-11
5.38867e-10
-1.9461e-09
-1.0808e-10
4.92902e-10
-2.47075e-09
-6.4158e-11
5.24294e-10
-3.11007e-09
-9.65537e-11
5.38529e-10
-3.64103e-09
-3.83773e-11
6.31336e-10
-3.0899e-09
-5.55335e-10
6.37448e-10
-2.7292e-09
-1.11175e-10
3.56731e-10
1.80289e-09
4.66395e-10
1.31118e-08
4.39317e-10
-1.89206e-10
1.51887e-08
-5.2765e-11
-4.17832e-10
1.19489e-08
1.96232e-12
-6.54043e-10
1.09073e-08
-2.57308e-11
-9.23384e-10
1.0476e-08
-6.83364e-11
-1.22908e-09
1.01374e-08
-6.39912e-11
-1.43654e-09
1.01642e-08
-5.54015e-11
-1.27116e-09
1.00019e-08
-5.7135e-11
-3.52987e-10
7.89559e-09
-2.93673e-10
-2.02648e-10
2.9497e-09
2.61446e-10
-3.39393e-10
1.66426e-09
2.61705e-11
-3.43929e-10
1.21493e-09
-2.39034e-11
-3.32932e-10
2.14279e-10
-2.07194e-10
-2.3223e-10
-4.37859e-10
-1.07406e-10
-1.52437e-10
-6.01907e-10
2.44099e-11
-8.02377e-11
-5.75431e-10
2.53557e-11
-1.09368e-11
-6.37622e-10
3.98152e-11
1.13504e-10
-7.03975e-10
-1.77922e-11
1.86746e-10
-9.30129e-10
6.53599e-12
2.98965e-10
-1.12639e-09
-5.39461e-11
2.93997e-10
-1.54337e-09
-4.34525e-11
3.25521e-10
-1.90826e-09
-6.93561e-11
3.59244e-10
-2.42641e-09
-7.80631e-11
4.47164e-10
-3.09619e-09
-1.01795e-10
5.12858e-10
-3.68243e-09
-2.43024e-11
6.61588e-10
-2.84012e-09
-3.98511e-10
7.59456e-10
-2.74768e-09
-7.94056e-11
3.27794e-10
1.84241e-09
3.94459e-10
1.28796e-08
5.65335e-10
-2.07408e-10
1.54217e-08
-5.25963e-11
-4.52131e-10
1.22578e-08
-6.53338e-12
-7.11544e-10
1.125e-08
-4.10091e-11
-1.01525e-09
1.08295e-08
-2.24727e-11
-1.30252e-09
1.04589e-08
-2.25923e-11
-1.43838e-09
1.03615e-08
-5.15557e-11
-1.20019e-09
9.86358e-09
-5.67565e-11
-2.99712e-10
7.41557e-09
-3.92136e-10
-6.49699e-11
1.92943e-09
7.90617e-10
2.92972e-12
1.14827e-09
4.52827e-10
-6.12576e-11
1.45397e-09
-1.76124e-10
-1.40272e-10
5.51729e-10
-2.6391e-10
-1.07523e-10
-3.59461e-10
-1.11896e-10
-7.0909e-11
-5.76533e-10
-6.20043e-11
-2.15495e-11
-5.72212e-10
-5.25793e-11
2.88269e-11
-6.44399e-10
-4.35988e-11
1.14336e-10
-7.33836e-10
-5.56476e-11
1.55446e-10
-9.33596e-10
-3.76434e-11
2.23871e-10
-1.1248e-09
-7.00198e-11
2.19782e-10
-1.48465e-09
-5.46258e-11
2.44942e-10
-1.87478e-09
-5.86484e-11
2.77983e-10
-2.3913e-09
-6.81527e-11
3.58383e-10
-3.05086e-09
-1.25735e-10
4.53907e-10
-3.67631e-09
-1.01639e-10
5.93426e-10
-2.74766e-09
-2.31986e-10
6.67647e-10
-2.76389e-09
-5.80719e-11
1.83568e-10
2.13873e-09
1.87695e-10
1.26928e-08
3.70396e-10
-1.98665e-10
1.56371e-08
-4.74114e-11
-4.28548e-10
1.2537e-08
-7.07013e-11
-6.58728e-10
1.15525e-08
-7.62012e-11
-9.06388e-10
1.11031e-08
-4.40733e-12
-1.14732e-09
1.06741e-08
3.76489e-11
-1.35953e-09
1.04113e-08
1.90452e-10
-1.28265e-09
9.50191e-09
3.58676e-10
-4.5961e-10
6.30963e-09
3.06195e-10
1.30442e-10
3.34411e-10
1.02086e-09
3.48672e-10
8.38671e-11
8.58332e-10
1.45897e-10
1.32651e-09
3.31716e-10
2.82385e-12
6.57011e-10
3.61884e-11
-2.25532e-11
-4.03791e-10
7.00988e-11
-3.41322e-11
-5.96085e-10
3.11294e-11
-2.79471e-11
-6.09534e-10
3.11375e-11
-4.55111e-12
-6.73145e-10
5.34934e-12
3.82872e-11
-7.7276e-10
-3.91448e-12
6.43763e-11
-9.4339e-10
-1.62945e-11
1.01251e-10
-1.13295e-09
-2.87254e-11
1.06197e-10
-1.45032e-09
-3.92796e-11
1.24828e-10
-1.81813e-09
-7.52769e-11
1.60769e-10
-2.29514e-09
-1.321e-10
2.30817e-10
-2.89607e-09
-2.24838e-10
3.28751e-10
-3.52167e-09
-2.52574e-10
4.00174e-10
-2.68109e-09
-1.37987e-10
4.20099e-10
-2.66782e-09
-1.15987e-10
3.70984e-11
2.66345e-09
-1.43086e-10
1.25834e-08
1.42649e-10
-1.98885e-10
1.57816e-08
2.58397e-11
-4.33786e-10
1.28072e-08
-2.59643e-11
-6.616e-10
1.182e-08
-6.37408e-11
-8.95903e-10
1.13187e-08
3.93398e-11
-1.14604e-09
1.08309e-08
1.0816e-10
-1.44767e-09
1.04367e-08
2.90615e-10
-1.33316e-09
9.27254e-09
-5.05111e-12
-3.02023e-10
4.44284e-09
8.61874e-10
-1.42661e-11
-4.34404e-10
4.93794e-10
4.28453e-11
-4.00683e-10
4.35796e-10
1.38735e-10
5.62861e-10
6.76151e-10
1.69365e-10
1.19968e-10
5.12998e-10
7.64315e-11
-4.11153e-10
1.01596e-10
1.53099e-11
-5.21482e-10
-1.34667e-11
-2.03061e-12
-5.65754e-10
-2.64401e-11
6.67175e-12
-6.20394e-10
-6.14535e-11
1.94781e-11
-7.32769e-10
-5.27972e-11
2.65506e-11
-8.84135e-10
-6.63274e-11
4.22243e-11
-1.06263e-09
-8.59913e-11
5.26885e-11
-1.34424e-09
-1.16546e-10
7.12509e-11
-1.67556e-09
-1.61132e-10
8.95184e-11
-2.09279e-09
-2.20613e-10
1.19456e-10
-2.57888e-09
-3.4712e-10
1.60464e-10
-3.14405e-09
-4.18635e-10
1.91519e-10
-2.90569e-09
1.93542e-10
1.55483e-10
-2.40492e-09
-2.26774e-10
6.05081e-12
3.34333e-09
-5.35084e-10
1.25946e-08
-9.1243e-12
-1.99507e-10
-1.39026e-10
-3.91033e-10
-1.1468e-10
-5.79044e-10
-9.51284e-11
-7.7554e-10
4.44347e-11
-1.00126e-09
1.36241e-10
-1.20903e-09
3.53826e-10
-8.02312e-10
-1.92855e-10
-2.02174e-10
2.19572e-10
-8.51784e-11
1.49412e-10
-7.36058e-11
4.54965e-11
4.54547e-11
2.63449e-10
7.59485e-11
2.43519e-10
2.22686e-11
6.9728e-11
-4.34427e-12
1.57657e-11
-1.04345e-11
-7.5315e-12
-6.56513e-12
-2.67702e-11
-1.45447e-12
-3.54619e-11
2.80539e-12
-4.93858e-11
7.03833e-12
-6.34297e-11
8.96737e-12
-8.42497e-11
1.36968e-11
-1.15999e-10
2.51403e-11
-1.61793e-10
3.45849e-11
-2.36025e-10
3.80373e-11
-2.8285e-10
6.59374e-11
1.80857e-10
4.77868e-11
-1.75709e-10
2.88426e-11
-4.03187e-10
1.41235e-11
-1.77566e-09
5.9723e-09
-7.23066e-09
-3.29331e-09
5.70891e-09
-7.99672e-09
-4.04145e-09
4.56917e-09
-7.19021e-09
-4.982e-09
4.36666e-09
-6.56156e-09
-5.79758e-09
4.09831e-09
-6.39558e-09
-6.58253e-09
3.89927e-09
-6.07906e-09
-7.32241e-09
3.74602e-09
-5.97073e-09
-8.00195e-09
3.57906e-09
-5.766e-09
-8.65228e-09
3.51117e-09
-5.64479e-09
-9.25158e-09
3.50746e-09
-5.61329e-09
-9.81889e-09
3.5687e-09
-5.69657e-09
-1.03223e-08
3.63625e-09
-5.86215e-09
-1.07286e-08
3.71054e-09
-6.01714e-09
-1.09664e-08
3.82346e-09
-6.46108e-09
-1.1039e-08
3.95557e-09
-6.95263e-09
-1.08355e-08
4.11459e-09
-7.74925e-09
-1.02503e-08
4.25591e-09
-8.72769e-09
-9.23283e-09
4.33816e-09
-9.7725e-09