/*--------------------------------*- C++ -*----------------------------------*\
| =========                 |                                                 |
| \\      /  F ield         | OpenFOAM: The Open Source CFD Toolbox           |
|  \\    /   O peration     | Version:  2.3.0                                 |
|   \\  /    A nd           | Web:      www.OpenFOAM.org                      |
|    \\/     M anipulation  |                                                 |
\*---------------------------------------------------------------------------*/
FoamFile
{
    version     2.0;
    format      ascii;
    class       volScalarField;
    location    "1.73";
    object      p;
}
// * * * * * * * * * * * * * * * * * * * * * * * * * * * * * * * * * * * * * //

dimensions      [1 -1 -2 0 0 0 0];

internalField   nonuniform List<scalar> 
6000
(
105915
105909
105903
105900
105897
105895
105894
105895
105899
105903
105906
105914
105931
105947
105950
105934
105909
105891
105886
105906
105933
105952
105958
105955
105942
105926
105912
105906
105907
105912
105864
105861
105856
105850
105847
105845
105844
105843
105843
105845
105850
105856
105864
105868
105859
105833
105800
105783
105778
105798
105837
105866
105879
105880
105872
105860
105848
105835
105826
105822
105836
105833
105827
105820
105815
105814
105812
105809
105809
105810
105814
105823
105828
105822
105798
105754
105720
105710
105709
105714
105749
105797
105824
105832
105824
105814
105801
105784
105767
105756
105790
105791
105789
105785
105782
105781
105778
105775
105775
105776
105778
105783
105779
105763
105725
105678
105666
105662
105661
105659
105666
105705
105736
105744
105732
105738
105741
105729
105714
105703
105718
105723
105730
105737
105741
105741
105741
105741
105741
105742
105742
105739
105727
105703
105655
105631
105629
105625
105623
105621
105620
105636
105658
105659
105649
105655
105674
105674
105664
105656
105620
105626
105639
105657
105672
105681
105690
105697
105700
105702
105700
105688
105671
105642
105604
105596
105593
105591
105589
105587
105589
105592
105595
105587
105586
105588
105604
105614
105611
105606
105474
105481
105503
105537
105570
105592
105613
105629
105640
105644
105642
105629
105615
105589
105567
105562
105561
105561
105560
105561
105563
105556
105540
105528
105534
105537
105544
105554
105555
105552
105394
105395
105400
105412
105439
105478
105513
105537
105555
105565
105569
105565
105557
105540
105531
105530
105530
105533
105536
105540
105536
105512
105486
105483
105488
105491
105495
105499
105499
105498
105363
105362
105361
105360
105361
105370
105394
105434
105462
105482
105494
105499
105499
105493
105495
105498
105499
105503
105509
105515
105498
105459
105441
105442
105446
105451
105451
105447
105448
105449
105343
105343
105341
105337
105330
105325
105324
105334
105362
105395
105418
105434
105444
105452
105460
105465
105466
105468
105474
105475
105443
105407
105401
105403
105409
105413
105409
105401
105400
105402
105327
105327
105325
105318
105310
105300
105292
105287
105287
105299
105333
105364
105388
105409
105423
105429
105430
105427
105430
105421
105382
105359
105360
105366
105374
105376
105366
105357
105356
105359
105311
105310
105307
105299
105289
105278
105269
105261
105254
105251
105258
105285
105320
105349
105373
105383
105382
105374
105375
105358
105319
105312
105316
105326
105336
105334
105323
105317
105317
105320
105289
105287
105282
105274
105265
105256
105247
105239
105233
105228
105225
105229
105247
105271
105295
105310
105311
105298
105302
105285
105259
105261
105266
105276
105288
105286
105281
105281
105283
105284
105252
105248
105243
105240
105237
105231
105224
105217
105212
105209
105204
105195
105184
105185
105200
105210
105208
105198
105210
105208
105203
105207
105213
105220
105232
105236
105240
105246
105251
105252
105185
105179
105178
105185
105196
105200
105197
105194
105191
105186
105175
105149
105111
105083
105083
105090
105087
105094
105106
105130
105147
105155
105160
105166
105175
105185
105197
105209
105217
105220
105089
105087
105091
105105
105128
105150
105158
105159
105156
105145
105113
105067
105021
105002
104997
104999
105004
105015
105016
105051
105090
105106
105113
105117
105120
105128
105143
105160
105173
105178
104984
104984
104993
105009
105034
105064
105087
105094
105085
105055
105003
104956
104940
104947
104952
104955
104956
104961
104957
104977
105027
105055
105066
105068
105063
105057
105066
105084
105103
105113
104874
104877
104890
104908
104930
104954
104975
104983
104964
104925
104895
104885
104889
104901
104915
104922
104919
104915
104910
104910
104951
104985
105002
105002
104985
104965
104965
104986
105008
105020
104790
104792
104801
104815
104830
104845
104858
104865
104863
104853
104850
104853
104857
104861
104873
104883
104879
104870
104864
104854
104866
104895
104911
104903
104874
104855
104852
104871
104907
104924
104762
104763
104765
104770
104777
104785
104797
104809
104819
104825
104828
104831
104833
104833
104835
104840
104836
104825
104818
104810
104800
104805
104817
104801
104783
104775
104776
104786
104815
104839
104754
104755
104755
104757
104761
104766
104774
104785
104798
104808
104812
104813
104813
104811
104808
104803
104794
104783
104777
104769
104758
104749
104745
104743
104741
104741
104743
104750
104763
104776
104751
104751
104752
104753
104756
104759
104764
104772
104783
104793
104797
104796
104795
104792
104785
104769
104753
104746
104740
104734
104727
104718
104714
104716
104718
104720
104723
104730
104736
104741
104747
104747
104748
104749
104750
104753
104756
104761
104769
104776
104780
104780
104778
104772
104757
104732
104714
104712
104708
104703
104698
104694
104692
104693
104694
104696
104701
104709
104713
104714
104742
104742
104742
104743
104744
104746
104748
104750
104754
104758
104761
104760
104756
104746
104723
104693
104680
104681
104678
104674
104670
104667
104666
104666
104667
104668
104672
104680
104681
104683
104736
104736
104736
104736
104737
104738
104739
104739
104739
104740
104739
104737
104729
104712
104683
104659
104653
104652
104649
104645
104641
104639
104637
104636
104636
104636
104637
104641
104644
104645
104729
104729
104729
104729
104729
104729
104728
104726
104722
104718
104714
104709
104697
104675
104647
104632
104628
104625
104621
104617
104613
104610
104607
104606
104604
104603
104602
104600
104597
104594
104720
104720
104720
104720
104719
104718
104715
104709
104701
104693
104686
104677
104662
104640
104618
104609
104604
104600
104594
104589
104585
104580
104577
104574
104572
104570
104568
104560
104545
104525
104711
104710
104710
104709
104708
104705
104699
104688
104676
104665
104654
104643
104627
104608
104594
104588
104583
104576
104569
104562
104556
104551
104547
104544
104541
104538
104535
104523
104502
104488
104700
104699
104698
104697
104694
104688
104677
104662
104646
104632
104620
104608
104594
104581
104572
104568
104562
104554
104545
104536
104528
104522
104517
104514
104511
104508
104504
104492
104477
104469
104686
104685
104684
104681
104675
104664
104647
104628
104611
104597
104584
104573
104562
104553
104549
104546
104541
104533
104521
104509
104500
104493
104488
104484
104481
104479
104475
104466
104456
104452
104667
104666
104663
104657
104647
104630
104610
104590
104573
104559
104547
104536
104527
104522
104520
104519
104515
104507
104494
104481
104471
104464
104459
104455
104453
104450
104447
104441
104434
104432
104639
104637
104632
104623
104608
104588
104567
104549
104533
104519
104507
104497
104490
104485
104484
104483
104480
104474
104463
104451
104440
104434
104429
104426
104425
104423
104420
104416
104412
104410
104598
104595
104588
104576
104558
104539
104521
104504
104490
104477
104466
104457
104450
104445
104442
104441
104438
104433
104426
104418
104408
104403
104399
104397
104396
104396
104394
104392
104390
104389
104543
104539
104532
104519
104503
104487
104472
104458
104445
104433
104423
104414
104407
104402
104398
104395
104392
104389
104386
104383
104376
104372
104369
104368
104368
104369
104368
104368
104368
104368
104479
104476
104469
104459
104447
104434
104421
104409
104398
104388
104379
104371
104363
104357
104353
104349
104345
104343
104344
104347
104344
104340
104338
104338
104340
104341
104343
104344
104346
104347
104413
104411
104406
104398
104389
104379
104369
104359
104350
104341
104333
104325
104318
104312
104306
104302
104298
104297
104301
104308
104312
104308
104307
104308
104311
104314
104316
104320
104324
104326
104350
104348
104344
104338
104331
104324
104316
104307
104299
104292
104285
104278
104271
104265
104259
104255
104252
104253
104259
104268
104276
104275
104275
104277
104281
104285
104289
104294
104301
104304
104287
104286
104283
104279
104273
104267
104260
104254
104247
104241
104234
104229
104223
104217
104211
104208
104207
104210
104218
104228
104237
104240
104242
104246
104252
104257
104261
104267
104275
104280
104226
104225
104223
104219
104215
104210
104205
104199
104193
104188
104183
104178
104172
104167
104162
104159
104160
104168
104178
104189
104197
104202
104208
104215
104222
104229
104234
104239
104249
104254
104166
104166
104164
104161
104158
104154
104149
104145
104140
104135
104131
104127
104122
104116
104110
104106
104108
104119
104134
104149
104159
104167
104175
104185
104195
104203
104209
104214
104220
104224
104108
104107
104106
104104
104102
104099
104096
104092
104089
104086
104083
104079
104073
104066
104057
104048
104043
104053
104078
104104
104122
104134
104145
104158
104172
104183
104188
104191
104189
104185
104050
104049
104048
104048
104047
104046
104044
104043
104042
104041
104040
104035
104028
104019
104005
103988
103969
103967
103998
104045
104080
104102
104118
104134
104151
104164
104168
104165
104144
104133
103992
103991
103991
103992
103992
103993
103994
103996
103998
103999
103998
103995
103988
103977
103960
103933
103919
103917
103927
103964
104019
104059
104085
104106
104123
104133
104131
104105
104061
104041
103933
103932
103933
103934
103936
103938
103941
103945
103948
103950
103951
103949
103946
103938
103923
103905
103900
103900
103903
103913
103944
103990
104026
104048
104055
104046
104032
104003
103981
103972
103871
103871
103872
103873
103876
103879
103883
103887
103892
103896
103900
103903
103906
103907
103903
103894
103893
103893
103893
103895
103902
103918
103938
103952
103959
103961
103961
103957
103953
103951
103807
103807
103808
103810
103813
103817
103822
103828
103834
103841
103850
103859
103870
103883
103892
103888
103886
103885
103885
103885
103886
103889
103896
103908
103920
103930
103937
103941
103942
103942
103739
103739
103741
103743
103747
103752
103758
103766
103775
103786
103799
103816
103835
103858
103881
103882
103879
103877
103876
103876
103876
103878
103882
103891
103903
103915
103925
103931
103934
103935
103667
103668
103670
103673
103678
103684
103692
103701
103714
103729
103747
103769
103796
103828
103862
103873
103871
103867
103866
103865
103865
103867
103871
103879
103889
103901
103913
103921
103926
103928
103592
103593
103595
103599
103604
103611
103621
103633
103648
103667
103691
103719
103752
103791
103834
103860
103862
103858
103855
103853
103853
103854
103858
103865
103874
103885
103897
103908
103916
103919
103514
103515
103517
103521
103527
103535
103546
103560
103577
103600
103628
103662
103701
103747
103796
103839
103851
103847
103843
103841
103840
103840
103843
103848
103856
103866
103877
103889
103900
103906
103434
103435
103437
103442
103448
103456
103467
103481
103500
103525
103556
103595
103640
103693
103750
103807
103835
103836
103831
103828
103826
103826
103827
103830
103834
103842
103852
103863
103875
103882
103353
103354
103356
103360
103366
103374
103384
103397
103415
103440
103474
103517
103568
103627
103692
103761
103812
103823
103819
103815
103812
103811
103812
103812
103812
103816
103822
103831
103835
103839
103272
103273
103275
103279
103285
103292
103299
103308
103321
103345
103381
103427
103483
103548
103621
103701
103776
103805
103807
103801
103798
103797
103796
103793
103789
103787
103787
103789
103788
103789
103193
103193
103195
103199
103206
103215
103222
103227
103233
103249
103280
103327
103387
103457
103536
103625
103718
103779
103791
103787
103783
103781
103779
103773
103763
103754
103748
103743
103741
103744
103116
103116
103120
103127
103139
103155
103168
103174
103177
103181
103192
103225
103284
103356
103439
103534
103638
103732
103768
103770
103765
103763
103759
103748
103732
103715
103703
103696
103695
103699
103046
103049
103056
103067
103082
103105
103129
103142
103142
103135
103131
103139
103181
103248
103332
103430
103540
103654
103729
103745
103742
103738
103730
103715
103691
103670
103654
103645
103643
103644
102984
102991
102998
103010
103028
103052
103080
103105
103114
103098
103081
103075
103091
103142
103219
103316
103428
103550
103659
103702
103706
103699
103687
103667
103639
103616
103599
103587
103579
103572
102927
102933
102943
102954
102966
102983
103006
103029
103053
103051
103027
103014
103013
103044
103107
103197
103307
103429
103550
103630
103647
103636
103620
103601
103574
103550
103532
103515
103499
103489
102868
102874
102879
102881
102887
102900
102918
102939
102959
102978
102962
102946
102940
102957
103004
103080
103182
103300
103420
103522
103558
103551
103533
103518
103494
103471
103449
103426
103405
103398
102804
102801
102798
102796
102799
102808
102823
102842
102862
102884
102880
102870
102869
102879
102911
102971
103060
103170
103286
103394
103452
103454
103436
103423
103404
103384
103360
103330
103307
103304
102725
102717
102710
102704
102703
102708
102720
102739
102766
102785
102789
102789
102794
102804
102828
102873
102947
103045
103154
103259
103337
103354
103338
103324
103311
103295
103270
103235
103212
103211
102637
102629
102619
102609
102605
102609
102622
102649
102671
102689
102700
102708
102717
102730
102751
102785
102844
102928
103026
103125
103209
103249
103242
103225
103215
103203
103178
103149
103136
103129
102550
102542
102529
102520
102520
102533
102551
102570
102592
102608
102619
102629
102643
102659
102677
102704
102750
102820
102907
102997
103077
103131
103140
103124
103115
103107
103093
103081
103073
103063
102470
102462
102452
102454
102463
102476
102493
102510
102524
102535
102544
102553
102570
102587
102603
102625
102661
102720
102798
102880
102952
103003
103022
103020
103012
103002
102996
103012
103015
103011
102404
102399
102401
102410
102421
102433
102444
102456
102466
102473
102475
102477
102487
102505
102522
102544
102575
102625
102696
102774
102844
102890
102904
102911
102903
102889
102890
102916
102942
102957
102355
102356
102365
102377
102387
102395
102403
102411
102416
102415
102404
102389
102380
102395
102423
102456
102490
102536
102601
102679
102752
102803
102815
102818
102822
102825
102831
102840
102854
102881
102320
102325
102336
102349
102358
102364
102369
102372
102368
102353
102333
102323
102320
102324
102336
102364
102405
102452
102512
102591
102673
102739
102765
102770
102779
102789
102797
102802
102807
102817
102297
102302
102311
102322
102328
102332
102331
102325
102316
102308
102303
102301
102302
102302
102305
102314
102334
102373
102430
102507
102597
102681
102732
102743
102753
102763
102771
102778
102783
102787
102288
102289
102293
102297
102299
102300
102299
102297
102295
102294
102294
102296
102298
102299
102299
102300
102305
102320
102355
102427
102518
102611
102690
102718
102729
102739
102748
102756
102762
102766
102285
102285
102285
102286
102286
102286
102287
102288
102289
102290
102292
102294
102296
102297
102298
102298
102299
102302
102315
102349
102433
102532
102617
102676
102696
102707
102717
102725
102733
102733
102283
102283
102283
102283
102283
102284
102285
102286
102287
102289
102290
102292
102293
102294
102296
102297
102298
102299
102302
102316
102358
102453
102541
102605
102644
102661
102672
102679
102680
102681
102282
102282
102282
102282
102282
102283
102284
102285
102286
102287
102288
102290
102291
102292
102293
102295
102296
102298
102300
102305
102330
102390
102478
102537
102576
102598
102609
102614
102616
102619
102281
102281
102281
102281
102281
102282
102282
102283
102284
102285
102286
102288
102289
102290
102291
102293
102294
102296
102298
102301
102316
102359
102432
102482
102515
102535
102546
102551
102549
102556
102279
102279
102279
102280
102280
102280
102281
102281
102282
102283
102284
102285
102287
102288
102289
102290
102292
102293
102295
102298
102310
102349
102400
102442
102470
102485
102490
102492
102493
102498
102278
102278
102278
102278
102278
102279
102279
102280
102280
102281
102282
102283
102284
102286
102287
102288
102289
102291
102292
102296
102306
102342
102396
102424
102441
102450
102451
102451
102453
102455
102276
102276
102276
102276
102277
102277
102277
102278
102278
102279
102280
102281
102282
102283
102284
102285
102287
102288
102290
102293
102302
102330
102372
102398
102409
102414
102418
102420
102423
102423
102275
102275
102275
102275
102275
102275
102275
102276
102276
102277
102278
102279
102280
102281
102282
102283
102284
102285
102287
102290
102299
102322
102351
102372
102384
102390
102394
102397
102397
102399
102273
102273
102273
102273
102273
102273
102273
102274
102274
102274
102275
102276
102277
102278
102279
102280
102281
102283
102284
102287
102295
102314
102335
102351
102363
102370
102374
102375
102374
102377
102271
102271
102271
102271
102271
102271
102271
102272
102272
102272
102273
102273
102274
102275
102276
102277
102279
102280
102281
102284
102291
102305
102320
102332
102341
102348
102351
102353
102353
102354
102269
102269
102269
102269
102269
102269
102270
102270
102270
102270
102270
102271
102272
102273
102274
102275
102276
102277
102278
102281
102287
102296
102305
102313
102319
102325
102328
102330
102332
102333
102268
102268
102268
102268
102268
102268
102268
102268
102268
102268
102268
102268
102269
102270
102271
102272
102273
102274
102276
102277
102280
102285
102290
102295
102299
102303
102306
102309
102312
102314
102266
102266
102266
102266
102266
102266
102266
102266
102266
102266
102266
102266
102267
102267
102268
102269
102271
102272
102273
102273
102273
102274
102276
102278
102281
102283
102286
102289
102294
102296
102264
102264
102264
102264
102264
102264
102264
102264
102264
102264
102264
102264
102264
102265
102266
102267
102268
102269
102269
102267
102264
102262
102262
102262
102263
102264
102267
102272
102276
102277
102263
102263
102263
102263
102262
102262
102262
102262
102262
102262
102262
102262
102262
102262
102263
102265
102266
102267
102266
102261
102255
102251
102248
102247
102247
102248
102251
102253
102254
102256
102261
102261
102261
102261
102261
102260
102260
102260
102260
102260
102260
102260
102260
102260
102261
102262
102264
102264
102261
102253
102246
102240
102235
102232
102231
102231
102231
102231
102231
102231
102260
102260
102260
102260
102259
102259
102258
102258
102258
102258
102258
102258
102258
102258
102259
102260
102262
102262
102254
102245
102236
102229
102223
102218
102214
102212
102209
102207
102205
102203
102259
102259
102258
102258
102258
102257
102257
102256
102256
102256
102256
102255
102256
102256
102257
102258
102259
102257
102247
102237
102227
102217
102209
102202
102196
102190
102186
102181
102177
102172
102258
102258
102257
102257
102256
102256
102255
102254
102254
102254
102253
102253
102253
102254
102255
102256
102257
102251
102239
102227
102215
102204
102193
102184
102175
102167
102160
102153
102147
102143
102257
102257
102256
102256
102255
102254
102253
102252
102252
102251
102251
102251
102251
102252
102252
102253
102254
102243
102229
102214
102200
102187
102174
102163
102152
102142
102133
102125
102118
102114
102256
102255
102255
102254
102253
102252
102251
102250
102250
102249
102249
102249
102249
102249
102250
102250
102248
102233
102215
102198
102182
102167
102152
102139
102126
102115
102105
102096
102089
102087
102254
102253
102253
102252
102251
102250
102249
102248
102247
102246
102246
102246
102246
102247
102247
102245
102238
102220
102199
102180
102161
102143
102127
102112
102098
102086
102075
102067
102062
102060
102251
102251
102250
102250
102249
102248
102247
102245
102244
102244
102243
102243
102244
102244
102243
102239
102228
102207
102184
102162
102141
102121
102103
102086
102071
102058
102047
102040
102035
102033
102248
102247
102247
102246
102246
102245
102244
102242
102241
102241
102240
102240
102241
102241
102240
102234
102219
102196
102171
102146
102123
102101
102080
102062
102046
102032
102021
102013
102007
102004
102244
102243
102243
102242
102242
102241
102240
102239
102238
102237
102237
102237
102237
102238
102237
102230
102210
102186
102160
102134
102108
102084
102061
102041
102022
102006
101993
101983
101976
101972
102239
102239
102239
102238
102237
102237
102236
102235
102234
102234
102233
102233
102233
102234
102234
102222
102199
102172
102144
102117
102089
102063
102038
102015
101994
101976
101961
101950
101941
101937
102235
102234
102234
102234
102233
102232
102232
102231
102230
102230
102229
102229
102229
102230
102230
102213
102186
102156
102126
102095
102064
102035
102008
101984
101961
101941
101925
101912
101903
101899
102230
102229
102229
102229
102228
102228
102227
102227
102226
102226
102225
102225
102225
102225
102224
102207
102175
102141
102108
102073
102037
102005
101977
101950
101925
101903
101885
101871
101862
101857
102224
102224
102224
102223
102223
102223
102223
102222
102222
102222
102221
102221
102221
102220
102217
102202
102168
102130
102091
102052
102013
101978
101948
101919
101889
101863
101843
101829
101819
101814
102216
102216
102217
102218
102218
102218
102218
102218
102218
102218
102218
102217
102217
102215
102212
102200
102165
102121
102079
102032
101986
101948
101916
101885
101853
101824
101801
101784
101773
101768
102207
102208
102208
102210
102212
102213
102214
102214
102214
102214
102214
102214
102213
102212
102208
102197
102163
102116
102073
102026
101974
101926
101885
101847
101813
101783
101758
101738
101724
101718
102194
102196
102198
102201
102205
102208
102210
102211
102211
102211
102211
102210
102209
102208
102205
102194
102162
102117
102069
102015
101955
101900
101851
101807
101769
101735
101706
101683
101669
101662
102172
102179
102183
102189
102196
102202
102206
102207
102207
102207
102207
102206
102205
102204
102203
102199
102172
102108
102037
101973
101909
101851
101798
101751
101710
101673
101643
101619
101604
101597
102130
102142
102157
102169
102181
102192
102200
102203
102204
102203
102203
102202
102201
102201
102202
102199
102148
102070
101993
101917
101844
101780
101724
101675
101632
101596
101567
101545
101531
101524
102071
102084
102106
102132
102155
102174
102191
102199
102200
102199
102198
102197
102197
102197
102197
102188
102111
102015
101926
101843
101766
101698
101639
101589
101546
101511
101483
101463
101449
101443
101996
102012
102037
102069
102105
102140
102169
102189
102195
102194
102193
102191
102191
102192
102191
102168
102061
101950
101850
101759
101678
101608
101548
101497
101454
101420
101393
101374
101362
101356
101917
101930
101957
101992
102033
102078
102122
102163
102185
102187
102185
102183
102184
102185
102180
102121
101993
101871
101761
101665
101581
101509
101448
101397
101356
101323
101298
101280
101269
101263
101839
101847
101871
101907
101950
101998
102050
102104
102155
102173
102172
102171
102172
102174
102155
102041
101899
101770
101656
101557
101472
101400
101339
101289
101249
101219
101196
101180
101170
101166
101765
101769
101787
101819
101860
101908
101961
102018
102084
102139
102147
102147
102151
102146
102076
101925
101776
101645
101530
101432
101347
101276
101217
101170
101133
101106
101087
101075
101068
101065
101688
101692
101704
101730
101766
101810
101859
101915
101979
102051
102088
102096
102105
102073
101938
101777
101627
101496
101382
101286
101204
101136
101081
101038
101006
100984
100971
100964
100961
100961
101610
101611
101619
101640
101670
101707
101750
101799
101854
101916
101964
101996
102005
101917
101764
101604
101456
101324
101211
101117
101040
100979
100930
100892
100867
100853
100849
100849
100852
100855
101526
101526
101530
101547
101571
101601
101636
101674
101717
101762
101801
101849
101838
101723
101571
101414
101263
101128
101015
100924
100857
100807
100768
100738
100718
100713
100720
100732
100742
100748
101433
101432
101437
101451
101470
101492
101518
101545
101572
101600
101634
101685
101635
101514
101365
101206
101051
100918
100810
100731
100681
100645
100616
100589
100573
100572
100589
100612
100631
100642
101333
101325
101338
101351
101366
101383
101401
101416
101431
101451
101494
101510
101430
101305
101153
100991
100842
100721
100637
100586
100552
100525
100499
100473
100459
100460
100482
100508
100525
100540
101229
101217
101236
101249
101262
101276
101287
101294
101300
101323
101360
101317
101224
101094
100943
100786
100656
100565
100514
100486
100463
100442
100420
100402
100391
100395
100412
100421
100444
100456
101122
101124
101135
101149
101162
101174
101181
101182
101182
101191
101183
101122
101021
100891
100740
100604
100504
100449
100423
100407
100393
100378
100363
100350
100346
100352
100362
100373
100400
100397
101040
101047
101046
101057
101070
101079
101082
101078
101069
101055
101016
100944
100834
100696
100554
100443
100378
100352
100340
100331
100320
100309
100301
100301
100309
100320
100327
100335
100350
100372
100980
100983
100978
100980
100988
100993
100990
100980
100959
100924
100868
100781
100656
100509
100382
100311
100284
100276
100272
100267
100264
100265
100269
100277
100287
100296
100303
100311
100320
100335
100926
100926
100923
100919
100919
100917
100905
100884
100847
100795
100725
100617
100470
100336
100273
100254
100249
100247
100247
100247
100249
100253
100258
100265
100272
100280
100287
100293
100299
100306
100874
100874
100874
100870
100860
100846
100824
100788
100734
100661
100576
100445
100315
100258
100245
100242
100241
100241
100242
100243
100246
100249
100252
100257
100263
100269
100275
100279
100283
100286
100825
100826
100827
100821
100801
100771
100743
100692
100617
100523
100420
100306
100253
100241
100240
100240
100241
100241
100241
100243
100244
100246
100249
100252
100256
100261
100265
100267
100270
100272
100778
100779
100778
100764
100734
100697
100660
100601
100510
100402
100301
100252
100240
100240
100240
100240
100240
100241
100241
100242
100243
100244
100245
100247
100250
100253
100255
100257
100259
100260
100732
100732
100724
100699
100665
100625
100580
100516
100417
100311
100254
100240
100239
100240
100240
100240
100239
100240
100240
100240
100241
100241
100242
100243
100244
100246
100247
100249
100250
100251
100684
100680
100663
100634
100599
100557
100508
100439
100340
100265
100243
100239
100239
100239
100239
100238
100238
100238
100238
100239
100239
100239
100239
100239
100240
100240
100241
100242
100243
100243
100631
100622
100602
100572
100537
100496
100445
100375
100290
100250
100241
100240
100239
100238
100238
100237
100237
100237
100237
100237
100236
100236
100236
100235
100235
100235
100235
100236
100236
100237
100573
100562
100542
100514
100482
100444
100396
100332
100268
100245
100241
100239
100238
100237
100236
100236
100235
100235
100235
100234
100234
100233
100232
100232
100231
100230
100230
100230
100231
100232
100515
100505
100487
100463
100436
100402
100360
100308
100260
100244
100240
100239
100237
100236
100235
100234
100233
100233
100232
100232
100231
100230
100229
100228
100227
100226
100226
100226
100227
100228
100462
100454
100439
100420
100397
100369
100335
100294
100258
100243
100239
100237
100235
100234
100232
100231
100231
100230
100230
100229
100228
100226
100225
100224
100223
100223
100222
100222
100223
100224
100416
100409
100399
100384
100366
100343
100314
100283
100255
100241
100236
100234
100232
100231
100230
100228
100228
100227
100227
100226
100224
100223
100222
100221
100220
100219
100219
100219
100220
100221
100376
100371
100366
100354
100339
100319
100296
100272
100250
100237
100231
100229
100227
100226
100225
100225
100224
100224
100223
100222
100221
100219
100218
100217
100216
100216
100215
100216
100216
100218
100342
100339
100337
100329
100316
100299
100279
100259
100242
100230
100224
100222
100221
100220
100220
100221
100221
100220
100220
100218
100217
100216
100215
100214
100213
100212
100212
100212
100213
100215
100313
100312
100311
100306
100296
100281
100263
100245
100230
100220
100215
100214
100214
100214
100215
100216
100216
100216
100216
100214
100213
100212
100211
100211
100210
100209
100209
100209
100210
100212
100288
100288
100287
100284
100276
100263
100247
100230
100216
100208
100206
100206
100207
100208
100209
100211
100212
100212
100211
100210
100209
100209
100208
100207
100207
100206
100206
100206
100207
100209
100266
100265
100264
100263
100257
100247
100232
100214
100204
100200
100198
100199
100201
100202
100204
100206
100207
100207
100207
100206
100205
100205
100204
100204
100204
100203
100203
100204
100205
100206
100244
100244
100242
100241
100239
100231
100217
100203
100198
100196
100195
100195
100196
100198
100199
100201
100202
100202
100202
100202
100202
100201
100201
100201
100201
100200
100200
100201
100202
100204
100224
100224
100222
100221
100220
100216
100205
100197
100195
100194
100193
100193
100193
100194
100195
100197
100197
100198
100198
100198
100198
100198
100198
100198
100197
100197
100198
100198
100199
100201
100206
100205
100205
100203
100202
100201
100196
100194
100193
100193
100192
100192
100191
100191
100192
100193
100193
100194
100194
100194
100194
100194
100194
100194
100194
100194
100195
100195
100197
100199
100188
100188
100188
100188
100188
100189
100190
100190
100191
100191
100191
100190
100189
100188
100189
100189
100190
100190
100190
100190
100191
100191
100191
100191
100191
100191
100192
100192
100194
100196
100172
100172
100173
100174
100175
100177
100181
100185
100187
100188
100189
100188
100186
100185
100185
100186
100186
100186
100186
100187
100187
100187
100187
100188
100188
100188
100189
100190
100191
100193
100156
100156
100159
100161
100163
100167
100171
100176
100180
100182
100184
100184
100183
100182
100182
100182
100182
100183
100183
100183
100184
100184
100184