/*--------------------------------*- C++ -*----------------------------------*\
| =========                 |                                                 |
| \\      /  F ield         | OpenFOAM: The Open Source CFD Toolbox           |
|  \\    /   O peration     | Version:  2.3.0                                 |
|   \\  /    A nd           | Web:      www.OpenFOAM.org                      |
|    \\/     M anipulation  |                                                 |
\*---------------------------------------------------------------------------*/
FoamFile
{
    version     2.0;
    format      ascii;
    class       surfaceScalarField;
    location    "1.73";
    object      phi;
}
// * * * * * * * * * * * * * * * * * * * * * * * * * * * * * * * * * * * * * //

dimensions      [0 3 -1 0 0 0 0];

internalField   nonuniform List<scalar> 
11770
(
5.10971e-06
4.29042e-05
5.98189e-06
4.74362e-05
4.39556e-06
5.00025e-05
2.39789e-06
5.04351e-05
1.02123e-06
4.96891e-05
-6.04606e-08
4.92301e-05
-1.68768e-06
4.97305e-05
-7.55112e-06
5.40568e-05
-8.40607e-06
4.90328e-05
-1.04223e-05
5.02287e-05
-1.63815e-05
5.42415e-05
-2.00782e-05
5.20306e-05
-1.51954e-05
4.34311e-05
-8.78285e-06
4.19666e-05
-2.65655e-06
4.23071e-05
-2.15751e-06
4.81579e-05
-8.2205e-06
5.49868e-05
-1.59515e-05
5.67043e-05
-2.8259e-05
6.14069e-05
-2.8457e-05
4.91248e-05
-1.84814e-05
3.86905e-05
-7.54863e-06
3.75504e-05
1.09443e-06
3.97508e-05
9.83647e-06
3.95792e-05
1.47766e-05
4.34725e-05
1.56962e-05
4.76209e-05
1.29311e-05
5.14179e-05
7.26209e-06
5.44706e-05
2.41655e-06
5.35554e-05
5.08508e-05
2.1083e-06
4.20738e-05
4.57992e-06
4.63387e-05
6.9858e-06
4.90228e-05
5.07671e-06
5.3785e-05
9.96723e-07
5.51813e-05
-1.86873e-06
5.35073e-05
-3.99848e-06
5.32791e-05
-1.88162e-06
5.34075e-05
-4.68392e-06
5.31506e-05
-9.11531e-06
5.59448e-05
-1.33723e-05
5.98863e-05
-1.27768e-05
5.27712e-05
-7.53587e-06
3.92845e-05
-1.86944e-06
3.73617e-05
1.82869e-06
3.96711e-05
1.14014e-06
4.99753e-05
-9.48278e-06
6.68682e-05
-1.78662e-05
6.63967e-05
-3.46109e-05
7.95492e-05
-3.80662e-05
5.37805e-05
-2.57655e-05
2.7429e-05
-1.14274e-05
2.42643e-05
1.34821e-06
2.80946e-05
1.02284e-05
3.18061e-05
1.31417e-05
4.17337e-05
1.68377e-05
4.52043e-05
2.0774e-05
4.88608e-05
1.88424e-05
5.78503e-05
9.34664e-06
6.43926e-05
6.14583e-05
-3.56595e-06
4.57527e-05
6.51067e-07
4.21971e-05
4.23498e-06
4.55261e-05
3.33792e-06
5.47948e-05
-3.74125e-07
5.90524e-05
-5.23305e-07
5.38747e-05
-1.15016e-07
5.31257e-05
-2.14534e-06
5.5683e-05
-2.91429e-06
5.41165e-05
-5.99045e-06
5.92027e-05
-9.86973e-06
6.3963e-05
-1.9026e-06
4.496e-05
4.78123e-06
3.26811e-05
8.37248e-06
3.38393e-05
1.16759e-05
3.64315e-05
7.74265e-06
5.3984e-05
-7.74307e-06
8.24427e-05
-1.82883e-05
7.70223e-05
-2.61769e-05
8.75276e-05
-3.86812e-05
6.63602e-05
-2.88164e-05
1.76217e-05
-1.31249e-05
8.61945e-06
1.11982e-06
1.3897e-05
8.37276e-06
2.46135e-05
8.01124e-06
4.21902e-05
1.24499e-05
4.08693e-05
2.36931e-05
3.77175e-05
2.85515e-05
5.3075e-05
2.06807e-05
7.23157e-05
8.22827e-05
-6.29025e-06
5.21088e-05
-8.26084e-06
4.41787e-05
-7.10636e-06
4.43821e-05
-5.08245e-06
5.27879e-05
-3.63274e-06
5.76443e-05
-1.121e-06
5.14636e-05
3.37608e-07
5.18207e-05
-7.41376e-07
5.69038e-05
-1.009e-06
5.44855e-05
-1.00963e-06
5.9288e-05
1.20007e-06
6.18424e-05
9.48968e-06
3.67407e-05
1.36692e-05
2.85383e-05
1.76412e-05
2.98892e-05
2.3754e-05
3.03339e-05
5.80694e-06
7.19582e-05
-3.7823e-06
9.20535e-05
-1.35119e-05
8.67681e-05
-1.00934e-05
8.41267e-05
-1.77419e-05
7.40221e-05
-2.17096e-05
2.16013e-05
-6.84847e-06
-6.23674e-06
8.55726e-06
-1.50636e-06
1.81205e-05
1.50572e-05
6.20081e-06
5.41397e-05
3.04659e-06
4.40462e-05
1.21158e-05
2.86619e-05
2.32563e-05
4.19454e-05
2.14621e-05
7.41147e-05
0.000103845
-7.04275e-06
5.91998e-05
-1.24396e-05
4.95891e-05
-1.53442e-05
4.73015e-05
-1.42824e-05
5.17461e-05
-1.03165e-05
5.37126e-05
-8.1674e-06
4.93793e-05
-5.71833e-06
4.94592e-05
-3.19627e-06
5.44682e-05
-5.4637e-07
5.19058e-05
4.08426e-06
5.47028e-05
1.21261e-05
5.38601e-05
1.59804e-05
3.29269e-05
1.62982e-05
2.82425e-05
1.87897e-05
2.7407e-05
1.62265e-05
3.29033e-05
-1.47381e-06
8.96749e-05
-4.20031e-06
9.47938e-05
-6.10067e-06
8.86803e-05
-1.82933e-06
7.98653e-05
3.05384e-06
6.91457e-05
-3.36063e-06
2.80167e-05
5.29726e-06
-1.49007e-05
1.58063e-05
-1.20236e-05
2.31884e-05
7.6726e-06
1.03528e-05
6.70027e-05
-1.117e-06
5.55369e-05
2.45178e-06
2.50998e-05
1.30855e-05
3.13204e-05
1.61436e-05
7.1084e-05
0.000120089
-4.86513e-06
6.41127e-05
-1.04621e-05
5.52136e-05
-1.60055e-05
5.2873e-05
-1.65472e-05
5.23172e-05
-1.40062e-05
5.12115e-05
-1.4514e-05
4.99409e-05
-1.35508e-05
4.85535e-05
-8.52566e-06
4.95051e-05
-3.42081e-06
4.68647e-05
5.53454e-06
4.58019e-05
1.65485e-05
4.2885e-05
1.77032e-05
3.17955e-05
1.80352e-05
2.792e-05
2.08828e-05
2.45604e-05
3.88881e-06
4.98993e-05
-1.59689e-06
9.51736e-05
-2.56831e-06
9.57769e-05
-1.67812e-06
8.77995e-05
2.97012e-06
7.52229e-05
9.04116e-06
6.30767e-05
1.7754e-05
1.92993e-05
2.03461e-05
-1.75024e-05
2.30712e-05
-1.4759e-05
1.78686e-05
1.2876e-05
1.47056e-05
7.01907e-05
2.98019e-07
6.9966e-05
1.75283e-07
2.52277e-05
5.82804e-06
2.56753e-05
1.0022e-05
6.69225e-05
0.000130199
-1.13369e-06
6.52737e-05
-7.37118e-06
6.14721e-05
-1.34931e-05
5.90225e-05
-1.61632e-05
5.50201e-05
-1.4328e-05
4.94141e-05
-1.50157e-05
5.06689e-05
-1.48038e-05
4.83833e-05
-1.087e-05
4.56166e-05
-5.3788e-06
4.144e-05
2.71289e-06
3.77979e-05
1.23255e-05
3.32983e-05
1.60633e-05
2.80572e-05
1.94207e-05
2.4554e-05
2.1781e-05
2.21905e-05
7.98809e-06
6.368e-05
4.80278e-06
9.8361e-05
4.20658e-06
9.63758e-05
5.7227e-06
8.62848e-05
8.35497e-06
7.25895e-05
1.91042e-05
5.2323e-05
3.34664e-05
4.92864e-06
3.15692e-05
-1.56147e-05
2.56113e-05
-8.80913e-06
9.48599e-06
2.9008e-05
1.14886e-05
6.82077e-05
6.42751e-06
7.50478e-05
1.92244e-06
2.97363e-05
2.78654e-06
2.48145e-05
4.85313e-06
6.48813e-05
0.000135129
1.41849e-06
6.38747e-05
-6.73307e-07
6.35848e-05
-3.48936e-06
6.18637e-05
-6.99835e-06
5.85582e-05
-1.11683e-05
5.36114e-05
-1.28586e-05
5.23937e-05
-1.15206e-05
4.70814e-05
-9.7569e-06
4.38848e-05
-5.4302e-06
3.71563e-05
6.02327e-07
3.18432e-05
7.23606e-06
2.67054e-05
1.3239e-05
2.20503e-05
1.9336e-05
1.84429e-05
1.983e-05
2.16788e-05
1.61041e-05
6.73364e-05
1.58546e-05
9.85441e-05
1.42773e-05
9.78997e-05
1.49029e-05
8.56295e-05
1.79412e-05
6.95325e-05
3.47938e-05
3.54597e-05
4.37257e-05
-4.01046e-06
3.75107e-05
-9.40524e-06
1.74485e-05
1.12503e-05
2.63138e-06
4.38307e-05
4.21964e-06
6.6635e-05
5.89447e-06
7.33897e-05
1.70506e-06
3.39269e-05
-7.70602e-07
2.72912e-05
-8.54098e-08
6.42199e-05
0.000135122
5.24796e-06
5.86418e-05
1.08048e-05
5.80434e-05
1.24524e-05
6.02316e-05
9.1981e-06
6.18299e-05
2.14096e-06
6.06881e-05
-3.40187e-06
5.79626e-05
-9.32153e-06
5.30274e-05
-8.94728e-06
4.35369e-05
-6.25901e-06
3.44919e-05
-8.98616e-07
2.65159e-05
4.80158e-06
2.10443e-05
9.47189e-06
1.73967e-05
1.43303e-05
1.35799e-05
1.14163e-05
2.45843e-05
1.39975e-05
6.46992e-05
2.22199e-05
9.02292e-05
2.40344e-05
9.59967e-05
2.15899e-05
8.8007e-05
2.56985e-05
6.53899e-05
4.20018e-05
1.91488e-05
4.2457e-05
-4.46654e-06
3.01673e-05
2.88253e-06
6.49077e-06
3.4928e-05
-3.17949e-06
5.35078e-05
-4.54806e-06
6.80155e-05
3.18004e-07
6.85335e-05
-1.42156e-07
3.43858e-05
-4.65838e-06
3.18095e-05
-5.12045e-06
6.47081e-05
0.000130076
4.71977e-06
5.39323e-05
1.44965e-05
4.82766e-05
2.67082e-05
4.80305e-05
3.41674e-05
5.4384e-05
2.92955e-05
6.55759e-05
1.66447e-05
7.06307e-05
3.06701e-06
6.66251e-05
-5.08188e-06
5.17077e-05
-8.7666e-06
3.81944e-05
-4.70027e-06
2.24643e-05
-4.91386e-08
1.64098e-05
3.24402e-06
1.41277e-05
4.53754e-06
1.2301e-05
3.46458e-06
2.56871e-05
1.07898e-05
5.74176e-05
2.45874e-05
7.64509e-05
3.15619e-05
8.90313e-05
2.67963e-05
9.27596e-05
3.01019e-05
6.20742e-05
3.79777e-05
1.12761e-05
3.46216e-05
-1.11087e-06
1.02005e-05
2.73039e-05
-4.84228e-06
4.99756e-05
-1.42934e-05
6.29672e-05
-1.31045e-05
6.68359e-05
-2.15886e-06
5.75919e-05
-1.50872e-06
3.37349e-05
-6.8235e-06
3.71308e-05
-1.00629e-05
6.79756e-05
0.000120078
3.77347e-06
5.01682e-05
1.46748e-05
3.73831e-05
2.75707e-05
3.51432e-05
3.8698e-05
4.32679e-05
4.3332e-05
6.09576e-05
3.99111e-05
7.407e-05
2.98525e-05
7.67029e-05
1.3144e-05
6.84336e-05
9.93175e-07
5.03611e-05
-6.77155e-06
3.02421e-05
-5.62701e-06
1.52754e-05
-1.20522e-06
9.71811e-06
-6.99614e-07
1.18097e-05
1.44562e-06
2.35795e-05
1.17145e-05
4.72216e-05
2.76161e-05
6.06388e-05
3.91828e-05
7.7565e-05
3.09402e-05
0.000101095
3.16748e-05
6.13703e-05
3.08937e-05
1.20632e-05
2.33284e-05
6.45237e-06
-1.5089e-06
5.21478e-05
-1.59213e-05
6.43955e-05
-2.14924e-05
6.8548e-05
-1.3901e-05
5.92523e-05
-3.33141e-06
4.70253e-05
-3.49232e-06
3.38987e-05
-8.58197e-06
4.22304e-05
-1.27614e-05
7.2182e-05
0.000107369
4.61588e-06
4.55618e-05
1.18499e-05
3.01559e-05
1.92623e-05
2.77377e-05
2.90975e-05
3.34422e-05
3.91467e-05
5.0923e-05
4.03913e-05
7.28447e-05
3.95272e-05
7.75874e-05
3.4507e-05
7.34739e-05
2.00325e-05
6.48546e-05
2.84318e-06
4.74485e-05
-3.24972e-06
2.13802e-05
-8.03396e-07
7.27833e-06
2.7777e-06
8.23456e-06
5.10787e-06
2.12648e-05
1.40656e-05
3.8299e-05
2.76134e-05
4.71392e-05
4.08019e-05
6.44436e-05
2.74925e-05
0.000114504
2.68998e-05
6.20001e-05
2.51152e-05
1.38489e-05
9.67633e-06
2.1893e-05
-7.29087e-06
6.91298e-05
-2.06017e-05
7.77197e-05
-2.16479e-05
6.96067e-05
-1.21992e-05
4.98112e-05
-6.5282e-06
4.13586e-05
-7.72295e-06
3.50982e-05
-1.18047e-05
4.6323e-05
-1.27208e-05
7.31224e-05
9.46865e-05
5.74842e-06
3.98242e-05
7.63511e-06
2.8276e-05
8.46762e-06
2.69115e-05
1.27889e-05
2.91285e-05
2.32668e-05
4.04572e-05
3.24697e-05
6.36616e-05
3.28756e-05
7.72059e-05
3.07444e-05
7.56294e-05
2.78015e-05
6.78217e-05
1.95262e-05
5.5745e-05
9.44083e-06
3.14768e-05
5.92012e-06
1.08052e-05
8.0322e-06
6.12799e-06
9.76685e-06
1.95426e-05
1.5618e-05
3.24653e-05
2.34288e-05
3.93482e-05
3.4654e-05
5.32487e-05
1.74077e-05
0.000131834
1.64266e-05
6.30108e-05
1.55045e-05
1.47701e-05
-2.07143e-06
3.94784e-05
-1.02046e-05
7.7286e-05
-1.75671e-05
8.51048e-05
-1.81913e-05
7.02475e-05
-1.31451e-05
4.47718e-05
-1.18703e-05
4.00889e-05
-1.46167e-05
3.78499e-05
-1.62856e-05
4.80018e-05
-1.16114e-05
6.84674e-05
8.31019e-05
5.13863e-06
3.46985e-05
3.51784e-06
2.9906e-05
1.5563e-07
3.02819e-05
-1.61222e-06
3.09044e-05
3.14706e-06
3.57082e-05
1.50613e-05
5.17652e-05
2.11887e-05
7.11045e-05
2.31645e-05
7.36809e-05
2.50393e-05
6.59706e-05
2.8423e-05
5.23781e-05
3.21984e-05
2.77118e-05
2.59092e-05
1.71022e-05
1.53342e-05
1.6711e-05
9.30646e-06
2.55889e-05
1.33767e-05
2.84187e-05
1.98775e-05
3.28712e-05
2.4857e-05
4.83013e-05
5.39122e-06
0.000151405
1.82062e-06
6.6616e-05
-1.06698e-06
1.7657e-05
-1.03141e-05
4.87407e-05
-1.06695e-05
7.76699e-05
-1.01842e-05
8.46483e-05
-1.47368e-05
7.48207e-05
-1.53722e-05
4.54137e-05
-1.77843e-05
4.25063e-05
-2.18061e-05
4.18776e-05
-2.11945e-05
4.73993e-05
-1.22221e-05
5.95097e-05
7.08991e-05
2.9975e-06
3.17165e-05
5.37763e-08
3.2863e-05
-4.28908e-06
3.46375e-05
-8.96647e-06
3.55939e-05
-1.07192e-05
3.74736e-05
-4.84614e-06
4.59085e-05
3.98347e-06
6.22989e-05
1.27224e-05
6.49684e-05
2.25382e-05
5.61773e-05
3.23334e-05
4.26004e-05
3.62668e-05
2.37945e-05
3.5121e-05
1.82672e-05
2.5641e-05
2.62147e-05
1.0737e-05
4.05216e-05
1.10288e-05
2.81495e-05
1.79416e-05
2.59802e-05
9.07635e-06
5.7207e-05
-1.9364e-06
0.000162536
-1.37665e-05
7.84928e-05
-1.90336e-05
2.29313e-05
-1.72005e-05
4.69283e-05
-1.03629e-05
7.08613e-05
-4.75702e-06
7.90714e-05
-8.92534e-06
7.9012e-05
-1.56291e-05
5.2125e-05
-2.04115e-05
4.72959e-05
-2.48359e-05
4.63098e-05
-2.29693e-05
4.55418e-05
-1.32248e-05
4.97774e-05
5.76902e-05
4.83927e-08
3.16865e-05
-3.06175e-06
3.59917e-05
-7.57284e-06
3.91675e-05
-1.27149e-05
4.07549e-05
-1.68162e-05
4.15941e-05
-1.57602e-05
4.48745e-05
-6.72767e-06
5.32937e-05
7.77784e-06
5.04914e-05
2.39996e-05
3.9982e-05
3.46948e-05
3.19318e-05
3.50696e-05
2.34469e-05
3.29836e-05
2.03792e-05
2.30941e-05
3.61376e-05
1.4e-05
4.96474e-05
1.23143e-05
2.98538e-05
1.25788e-05
2.57314e-05
-7.00771e-07
7.0527e-05
3.84346e-06
0.000158093
-2.48631e-05
0.000107255
-3.37648e-05
3.1854e-05
-2.66132e-05
3.98034e-05
-1.29995e-05
5.72754e-05
-2.79904e-06
6.88973e-05
-3.19277e-06
7.94301e-05
-1.27608e-05
6.17033e-05
-1.71548e-05
5.16997e-05
-2.03886e-05
4.95549e-05
-1.93386e-05
4.45023e-05
-1.20381e-05
4.24881e-05
4.56662e-05
-2.24306e-06
3.395e-05
-6.0714e-06
3.98433e-05
-1.01938e-05
4.33142e-05
-1.42866e-05
4.48721e-05
-1.75187e-05
4.48523e-05
-1.64714e-05
4.38569e-05
-5.59332e-06
4.245e-05
1.20722e-05
3.28583e-05
2.84953e-05
2.35903e-05
3.85692e-05
2.18942e-05
3.57532e-05
2.6296e-05
1.96736e-05
3.64855e-05
-1.96651e-06
5.78106e-05
-6.06714e-07
4.83137e-05
8.56228e-06
2.06992e-05
1.45685e-05
1.97375e-05
1.04344e-05
7.46938e-05
1.86584e-05
0.000149946
-1.64783e-05
0.000142451
-3.22638e-05
4.76677e-05
-2.65273e-05
3.40947e-05
-1.38649e-05
4.46397e-05
-1.29153e-06
5.63493e-05
2.89794e-06
7.52679e-05
-4.04041e-06
6.86606e-05
-9.40374e-06
5.70777e-05
-1.33157e-05
5.34824e-05
-1.39771e-05
4.51757e-05
-9.61139e-06
3.81331e-05
3.6067e-05
-5.03682e-06
3.9006e-05
-1.03229e-05
4.51542e-05
-1.30426e-05
4.60604e-05
-1.37851e-05
4.56421e-05
-1.21861e-05
4.32822e-05
-6.72939e-06
3.84323e-05
4.27659e-06
3.14786e-05
1.80941e-05
1.90716e-05
2.92291e-05
1.24813e-05
3.25423e-05
1.86096e-05
2.65963e-05
3.22674e-05
5.93587e-06
5.71697e-05
-1.15367e-05
7.53122e-05
-8.63317e-06
4.54346e-05
6.18708e-06
5.89014e-06
2.38587e-05
2.0755e-06
3.0375e-05
6.82087e-05
3.70789e-05
0.000143309
2.04541e-05
0.00015914
-1.58024e-05
8.39593e-05
-1.73205e-05
3.5637e-05
-1.11141e-05
3.84574e-05
-4.19538e-07
4.56792e-05
9.29787e-06
6.55839e-05
6.32729e-06
7.16651e-05
-1.02997e-06
6.44583e-05
-8.73436e-06
6.12084e-05
-9.96527e-06
4.64227e-05
-6.53305e-06
3.47124e-05
2.95427e-05
-1.02465e-05
4.92722e-05
-1.39586e-05
4.88881e-05
-1.3851e-05
4.59751e-05
-1.03968e-05
4.22115e-05
-5.17756e-06
3.8088e-05
1.16402e-06
3.21159e-05
9.42207e-06
2.32449e-05
1.75773e-05
1.09353e-05
2.28803e-05
7.1915e-06
1.95721e-05
2.1931e-05
6.82443e-06
4.50295e-05
3.76654e-07
6.36366e-05
2.69141e-06
7.30201e-05
2.76089e-06
4.5384e-05
1.10524e-05
-2.39339e-06
2.55517e-05
-1.24173e-05
4.17814e-05
5.2009e-05
4.75791e-05
0.000137574
5.03068e-05
0.000156481
6.47806e-06
0.000127835
-9.48189e-06
5.1621e-05
-7.57206e-06
3.65707e-05
8.07927e-07
3.73202e-05
1.03312e-05
5.6095e-05
8.40177e-06
7.36336e-05
2.82899e-06
7.00603e-05
-6.4333e-06
7.04984e-05
-1.16244e-05
5.16349e-05
-6.0049e-06
2.91012e-05
2.35426e-05
-6.15048e-06
5.54361e-05
-1.26159e-05
5.53675e-05
-1.44915e-05
4.78641e-05
-1.30136e-05
4.0747e-05
-1.10926e-05
3.61808e-05
-1.11514e-05
3.21889e-05
-1.15178e-05
2.36247e-05
-1.05903e-05
1.00171e-05
-7.31992e-06
3.92779e-06
-1.36867e-06
1.59872e-05
3.00925e-06
4.06622e-05
1.02059e-05
5.64545e-05
1.93996e-05
6.38443e-05
1.96212e-05
4.51768e-05
1.91904e-05
-1.95843e-06
2.55397e-05
-1.87643e-05
4.317e-05
3.44026e-05
5.08903e-05
0.000129912
6.10383e-05
0.000146395
4.58824e-05
0.000143046
8.21319e-06
8.93197e-05
-2.46149e-06
4.72651e-05
3.37342e-06
3.15008e-05
5.60132e-06
5.38957e-05
1.2438e-06
7.80263e-05
-8.48408e-06
7.98171e-05
-1.66631e-05
7.87063e-05
-2.18815e-05
5.68715e-05
-8.90191e-06
1.61248e-05
1.46407e-05
-9.54572e-06
6.49917e-05
-1.89567e-05
6.47869e-05
-2.94319e-05
5.83475e-05
-3.80871e-05
4.941e-05
-4.35279e-05
4.16296e-05
-4.4802e-05
3.34723e-05
-4.11633e-05
1.99962e-05
-3.18176e-05
6.80286e-07
-1.83888e-05
-9.49497e-06
-2.94387e-06
5.47248e-07
9.70982e-06
2.80163e-05
1.83387e-05
4.78372e-05
2.85935e-05
5.36037e-05
3.53646e-05
3.84178e-05
3.22175e-05
1.19273e-06
3.00875e-05
-1.66327e-05
3.88804e-05
2.56279e-05
4.74692e-05
0.000121373
5.98384e-05
0.000134077
7.00081e-05
0.000132927
4.57017e-05
0.000113661
1.66593e-05
7.63279e-05
2.0486e-06
4.6124e-05
-4.49329e-06
6.04577e-05
-9.13414e-06
8.26917e-05
-2.00102e-05
9.07162e-05
-2.68224e-05
8.55407e-05
-2.6136e-05
5.61989e-05
-1.0573e-05
5.62266e-07
4.06537e-06
-9.01712e-06
7.40157e-05
-1.80877e-05
7.38644e-05
-2.74188e-05
6.76849e-05
-3.39978e-05
5.59947e-05
-3.57758e-05
4.34133e-05
-3.21597e-05
2.98619e-05
-2.60127e-05
1.3855e-05
-1.71411e-05
-8.18683e-06
-8.08697e-06
-1.85463e-05
1.67904e-06
-9.21624e-06
1.46406e-05
1.50603e-05
2.44357e-05
3.80515e-05
3.61449e-05
4.1906e-05
4.65255e-05
2.80482e-05
4.47409e-05
2.98473e-06
3.57939e-05
-7.68052e-06
3.07884e-05
3.06498e-05
3.9064e-05
0.000113138
5.23501e-05
0.000120832
6.29108e-05
0.000122406
6.40101e-05
0.000112594
4.44968e-05
9.58635e-05
1.32092e-05
7.74254e-05
-5.12953e-06
7.88141e-05
-1.34214e-05
9.10057e-05
-1.97008e-05
9.7018e-05
-2.31266e-05
8.89872e-05
-8.64965e-06
4.17336e-05
-3.00104e-06
-5.08624e-06
1.06336e-06
-5.33879e-06
7.93618e-05
-1.06948e-05
7.92277e-05
-1.53364e-05
7.23333e-05
-1.75273e-05
5.81914e-05
-1.61511e-05
4.20422e-05
-1.18783e-05
2.55936e-05
-6.07168e-06
8.05185e-06
-7.42391e-07
-1.35143e-05
2.70373e-06
-2.19919e-05
6.76197e-06
-1.32735e-05
1.57768e-05
6.04945e-06
2.78148e-05
2.60212e-05
4.14827e-05
2.82479e-05
5.24357e-05
1.71065e-05
5.12602e-05
4.17222e-06
3.8014e-05
5.57616e-06
1.97698e-05
4.89116e-05
2.87742e-05
0.000104166
3.99885e-05
0.000109651
4.98666e-05
0.00011256
5.14281e-05
0.000111061
4.29603e-05
0.000104354
2.37072e-05
9.66973e-05
6.92452e-06
9.56173e-05
-3.20341e-06
0.000101159
-1.00184e-05
0.00010386
-1.20479e-05
9.10408e-05
2.8672e-06
2.68283e-05
1.31603e-06
-3.53483e-06
2.37953e-06
-4.53162e-07
7.98223e-05
-1.56983e-06
8.03516e-05
-2.66388e-06
7.34341e-05
-2.48092e-06
5.80146e-05
1.28978e-07
3.94375e-05
3.70852e-06
2.2018e-05
8.92171e-06
2.84114e-06
1.06166e-05
-1.52086e-05
1.05284e-05
-2.19041e-05
1.17071e-05
-1.4452e-05
1.72006e-05
5.58839e-07
2.89301e-05
1.42982e-05
4.19486e-05
1.52383e-05
5.17045e-05
7.36284e-06
5.11435e-05
4.74853e-06
3.62238e-05
2.05106e-05
1.55877e-05
6.95671e-05
2.31413e-05
9.66401e-05
3.10627e-05
0.000101758
3.82088e-05
0.000105442
4.13002e-05
0.000107997
3.82287e-05
0.000107451
2.91664e-05
0.000105783
1.95024e-05
0.000105306
1.22587e-05
0.000108431
5.40273e-06
0.000110748
2.09213e-06
9.43797e-05
4.75637e-06
2.41729e-05
2.33985e-06
-1.11733e-06
4.72085e-06
2.82362e-06
7.70064e-05
4.59311e-06
7.859e-05
5.84069e-06
7.21941e-05
7.47086e-06
5.63908e-05
1.03071e-05
3.66063e-05
1.46011e-05
1.77277e-05
1.90346e-05
-1.59031e-06
1.89074e-05
-1.50812e-05
1.67339e-05
-1.97313e-05
1.61189e-05
-1.38372e-05
1.97604e-05
-3.08028e-06
2.87445e-05
5.31966e-06
3.8861e-05
5.13026e-06
4.6091e-05
1.44758e-07
4.5387e-05
5.4667e-06
2.88605e-05
3.70523e-05
1.98065e-05
7.86406e-05
2.49268e-05
9.15436e-05
2.96606e-05
9.70495e-05
3.34137e-05
0.000101715
3.54044e-05
0.000106033
3.48784e-05
0.000108003
3.18106e-05
0.000108878
2.70312e-05
0.000110114
2.32451e-05
0.000112248
1.93017e-05
0.000114726
1.51163e-05
9.85958e-05
6.67045e-06
3.2629e-05
3.76474e-06
1.78979e-06
8.48751e-06
4.4166e-06
7.25981e-05
8.43762e-06
7.45774e-05
1.16564e-05
6.89833e-05
1.42551e-05
5.3799e-05
1.7036e-05
3.38305e-05
2.2265e-05
1.25022e-05
2.49384e-05
-4.26205e-06
2.36671e-05
-1.38096e-05
2.0265e-05
-1.63297e-05
1.8415e-05
-1.19871e-05
2.05794e-05
-5.24275e-06
2.6828e-05
-9.24489e-07
3.41224e-05
-2.15726e-06
3.86432e-05
-4.36693e-06
3.73332e-05
6.78758e-06
2.57673e-05
4.8633e-05
2.63849e-05
7.80424e-05
3.01574e-05
8.77934e-05
3.33569e-05
9.38744e-05
3.45974e-05
0.000100501
3.50459e-05
0.000105611
3.43881e-05
0.000108688
3.30883e-05
0.000110205
3.1532e-05
0.000111699
3.01939e-05
0.000113619
2.94065e-05
0.000115549
2.82505e-05
9.9783e-05
1.38829e-05
4.70109e-05
6.07383e-06
9.6009e-06
1.45631e-05
5.91739e-06
6.66893e-05
1.08429e-05
6.96607e-05
1.52418e-05
6.45928e-05
1.85381e-05
5.05097e-05
2.30197e-05
2.93541e-05
2.70996e-05
8.42547e-06
2.77712e-05
-4.93208e-06
2.54543e-05
-1.14923e-05
2.18096e-05
-1.26851e-05
1.96944e-05
-9.87163e-06
2.05401e-05
-6.08679e-06
2.38532e-05
-4.23418e-06
2.77144e-05
-6.01375e-06
2.97424e-05
-6.38899e-06
2.82241e-05
8.31389e-06
2.79476e-05
4.89234e-05
3.24056e-05
7.36032e-05
3.68669e-05
8.33538e-05
3.90354e-05
9.17302e-05
3.92251e-05
0.000100337
3.80864e-05
0.000106777
3.65012e-05
0.000110301
3.49471e-05
0.000111787
3.44812e-05
0.000112195
3.50542e-05
0.000113078
3.68185e-05
0.000113819
4.28393e-05
9.37924e-05
3.50523e-05
5.48188e-05
1.52426e-05
2.94211e-05
2.98137e-05
6.57295e-06
6.0125e-05
1.22074e-05
6.40354e-05
1.73697e-05
5.9439e-05
2.25488e-05
4.53378e-05
2.77326e-05
2.41753e-05
2.9931e-05
6.23005e-06
2.90513e-05
-4.05076e-06
2.59312e-05
-8.37156e-06
2.20868e-05
-8.84041e-06
1.95663e-05
-7.35057e-06
1.91259e-05
-5.6448e-06
2.01713e-05
-5.27718e-06
2.10302e-05
-6.86963e-06
2.05313e-05
-5.88653e-06
2.04739e-05
8.3772e-06
2.94859e-05
3.99237e-05
3.91169e-05
6.39899e-05
4.44724e-05
7.80198e-05
4.64945e-05
8.97325e-05
4.54233e-05
0.000101436
4.28739e-05
0.000109355
4.00667e-05
0.000113137
3.77738e-05
0.000114109
3.69e-05
0.000113098
3.75265e-05
0.000112482
3.97927e-05
0.000111585
4.75637e-05
8.60485e-05
5.04527e-05
5.1955e-05
3.49213e-05
4.4974e-05
6.47512e-05
6.93637e-06
5.31969e-05
1.35302e-05
5.74505e-05
1.97619e-05
5.32159e-05
2.63432e-05
3.87636e-05
3.02369e-05
2.02864e-05
3.04709e-05
5.99919e-06
2.81917e-05
-1.76982e-06
2.46035e-05
-4.78238e-06
2.10455e-05
-5.28177e-06
1.85309e-05
-4.83513e-06
1.71599e-05
-4.27242e-06
1.63653e-05
-4.48096e-06
1.4909e-05
-5.41157e-06
1.24254e-05
-3.40057e-06
1.31411e-05
7.66612e-06
2.49413e-05
2.81336e-05
4.08484e-05
4.80984e-05
5.20823e-05
6.68069e-05
5.45962e-05
8.72446e-05
5.17931e-05
0.000104269
4.7011e-05
0.000114168
4.28355e-05
0.000117343
3.91558e-05
0.000117818
3.71995e-05
0.000115083
3.7152e-05
0.000112559
3.84553e-05
0.00011031
4.22089e-05
8.23191e-05
4.39446e-05
5.02414e-05
3.25634e-05
5.63754e-05
9.73341e-05
7.04236e-06
4.61625e-05
1.44632e-05
5.00384e-05
2.17592e-05
4.59285e-05
2.75178e-05
3.30122e-05
2.99594e-05
1.78499e-05
2.90678e-05
6.89414e-06
2.61887e-05
1.11131e-06
2.26743e-05
-1.26662e-06
1.95087e-05
-2.11522e-06
1.69868e-05
-2.31226e-06
1.50128e-05
-2.29726e-06
1.30002e-05
-2.467e-06
1.01313e-05
-2.54138e-06
6.87794e-06
-1.45402e-07
7.21125e-06
7.33677e-06
1.56545e-05
1.96981e-05
3.12219e-05
3.25434e-05
4.93969e-05
4.86506e-05
5.97668e-05
7.6902e-05
5.4847e-05
0.000109223
4.90894e-05
0.000119959
4.31982e-05
0.000123267
3.86598e-05
0.000122387
3.57338e-05
0.000118038
3.43477e-05
0.000113973
3.38008e-05
0.000110883
3.18777e-05
8.42658e-05
2.83941e-05
5.37439e-05
1.73076e-05
6.748e-05
0.000114664
6.52398e-06
3.96467e-05
1.4028e-05
4.25435e-05
2.13319e-05
3.86336e-05
2.62943e-05
2.80573e-05
2.76591e-05
1.64905e-05
2.61785e-05
8.37827e-06
2.33031e-05
3.98905e-06
2.02577e-05
1.78034e-06
1.75216e-05
6.22113e-07
1.51255e-05
8.49302e-08
1.29182e-05
-8.88478e-08
1.04846e-05
-3.21967e-08
7.40551e-06
5.38985e-07
4.47466e-06
2.78737e-06
4.20248e-06
7.61251e-06
8.77649e-06
1.51303e-05
1.85967e-05
2.27326e-05
3.47224e-05
3.25393e-05
5.29373e-05
5.87116e-05
5.43894e-05
0.000107806
4.81415e-05
0.000126244
4.16842e-05
0.000129759
3.61313e-05
0.000127972
3.21562e-05
0.000122042
2.97967e-05
0.000116359
2.77443e-05
0.000112962
2.15941e-05
9.04403e-05
1.58551e-05
5.95004e-05
8.80452e-06
7.45487e-05
0.000123495
5.69527e-06
3.39598e-05
1.2525e-05
3.57232e-05
1.90987e-05
3.20692e-05
2.31269e-05
2.40366e-05
2.3857e-05
1.57658e-05
2.2341e-05
9.89783e-06
1.99874e-05
6.34509e-06
1.75783e-05
4.1911e-06
1.52939e-05
2.90775e-06
1.31378e-05
2.24227e-06
1.10251e-05
2.02503e-06
8.75872e-06
2.2355e-06
6.22164e-06
3.07762e-06
4.01116e-06
5.00003e-06
3.37843e-06
8.24864e-06
5.62722e-06
1.28868e-05
1.06319e-05
1.77351e-05
1.96036e-05
2.35781e-05
3.60202e-05
4.23135e-05
4.81152e-05
9.57457e-05
4.36873e-05
0.000130712
3.7266e-05
0.000136218
3.14981e-05
0.000133774
2.70778e-05
0.000126492
2.36067e-05
0.000119857
2.07034e-05
0.000115893
1.2368e-05
9.88018e-05
6.58353e-06
6.53016e-05
3.32566e-06
7.78251e-05
0.000126848
4.66673e-06
2.93014e-05
1.04553e-05
2.99438e-05
1.581e-05
2.67231e-05
1.88468e-05
2.10067e-05
1.9293e-05
1.53245e-05
1.81927e-05
1.10015e-05
1.65337e-05
8.00635e-06
1.47292e-05
5.9973e-06
1.29005e-05
4.73775e-06
1.109e-05
4.05408e-06
9.29089e-06
3.8254e-06
7.46252e-06
4.06535e-06
5.64657e-06
4.8954e-06
4.16941e-06
6.47964e-06
3.5426e-06
8.87885e-06
4.4555e-06
1.19786e-05
6.56713e-06
1.56296e-05
9.81595e-06
2.03372e-05
1.91092e-05
3.30336e-05
3.68954e-05
7.79887e-05
3.5332e-05
0.000132317
3.17119e-05
0.000139877
2.631e-05
0.000139211
2.09927e-05
0.000131841
1.64767e-05
0.000124402
1.22918e-05
0.000120107
4.18574e-06
0.000106936
-9.31564e-07
7.04354e-05
-1.77117e-06
7.86829e-05
0.000125104
3.63888e-06
2.56702e-05
8.19131e-06
2.53995e-05
1.21448e-05
2.2777e-05
1.43418e-05
1.88156e-05
1.47967e-05
1.48738e-05
1.42068e-05
1.15944e-05
1.3114e-05
9.10129e-06
1.17884e-05
7.32443e-06
1.0376e-05
6.15143e-06
8.96529e-06
5.46606e-06
7.59658e-06
5.19544e-06
6.29341e-06
5.37011e-06
5.12053e-06
6.07028e-06
4.22192e-06
7.38085e-06
3.7779e-06
9.32631e-06
3.96985e-06
1.17911e-05
4.31314e-06
1.5292e-05
4.22875e-06
2.04288e-05
7.14381e-06
3.01294e-05
2.30267e-05
6.21291e-05
2.84744e-05
0.00012691
2.65987e-05
0.000141793
2.15344e-05
0.000144312
1.51379e-05
0.000138271
8.8666e-06
0.000130703
3.2774e-06
0.000125726
-3.42265e-06
0.000113664
-8.27259e-06
7.53018e-05
-7.11867e-06
7.75465e-05
0.000118012
2.78133e-06
2.28957e-05
6.09165e-06
2.2096e-05
8.84145e-06
2.00333e-05
1.04478e-05
1.72142e-05
1.09437e-05
1.43816e-05
1.06609e-05
1.188e-05
9.89925e-06
9.86485e-06
8.88317e-06
8.34199e-06
7.78944e-06
7.2464e-06
6.74364e-06
6.51305e-06
5.81628e-06
6.12411e-06
5.03463e-06
6.15335e-06
4.40745e-06
6.69949e-06
3.95203e-06
7.83891e-06
3.6905e-06
9.59124e-06
3.52938e-06
1.19565e-05
2.803e-06
1.60241e-05
7.63771e-07
2.24756e-05
-1.79032e-07
3.10826e-05
9.27448e-06
5.26944e-05
2.34624e-05
0.000112758
2.25069e-05
0.00014279
1.68558e-05
0.000150002
9.86821e-06
0.000145294
2.14596e-06
0.000138458
-4.92734e-06
0.00013283
-1.12761e-05
0.00012004
-1.61822e-05
8.02249e-05
-1.40045e-05
7.53854e-05
0.00010403
2.09451e-06
2.08069e-05
4.41093e-06
1.97852e-05
6.32669e-06
1.81226e-05
7.50739e-06
1.60376e-05
7.93283e-06
1.39594e-05
7.74352e-06
1.20718e-05
7.12158e-06
1.04887e-05
6.25874e-06
9.20632e-06
5.3379e-06
8.16851e-06
4.51384e-06
7.3383e-06
3.90122e-06
6.738e-06
3.5349e-06
6.52119e-06
3.36603e-06
6.87033e-06
3.2841e-06
7.92339e-06
3.19975e-06
9.6789e-06
2.89103e-06
1.22695e-05
1.45146e-06
1.74695e-05
-1.93234e-06
2.58678e-05
-4.72455e-06
3.38857e-05
-1.26681e-06
4.92534e-05
1.67803e-05
9.47436e-05
1.75515e-05
0.000142062
1.14862e-05
0.000156108
4.36369e-06
0.000152455
-3.81257e-06
0.000146669
-1.08094e-05
0.000139859
-1.86885e-05
0.000127948
-2.30533e-05
8.46076e-05
-1.86318e-05
7.09795e-05
8.54175e-05
1.55788e-06
1.92541e-05
3.2162e-06
1.81317e-05
4.59613e-06
1.6747e-05
5.45959e-06
1.51779e-05
5.76628e-06
1.36558e-05
5.57358e-06
1.2267e-05
5.0023e-06
1.1062e-05
4.20153e-06
1.00088e-05
3.33277e-06
9.03871e-06
2.56329e-06
8.10909e-06
2.04851e-06
7.25409e-06
1.87934e-06
6.69182e-06
2.00246e-06
6.74903e-06
2.18869e-06
7.73953e-06
2.19966e-06
9.67105e-06
1.63685e-06
1.28365e-05
-3.83052e-07
1.94955e-05
-4.19604e-06
2.96899e-05
-7.21948e-06
3.69206e-05
-6.81239e-06
4.88621e-05
7.1652e-06
8.07943e-05
1.08778e-05
0.000138394
4.85038e-06
0.000162179
-1.61303e-06
0.000158958
-7.96199e-06
0.000153055
-1.3571e-05
0.000145502
-2.37289e-05
0.000138136
-2.72188e-05
8.81165e-05
-1.98301e-05
6.36051e-05
6.56027e-05
1.19223e-06
1.80662e-05
2.43952e-06
1.68887e-05
3.47924e-06
1.57112e-05
4.13403e-06
1.45266e-05
4.35375e-06
1.3439e-05
4.15853e-06
1.24647e-05
3.62157e-06
1.16012e-05
2.84828e-06
1.0784e-05
1.96007e-06
9.92864e-06
1.11236e-06
8.95833e-06
5.22663e-07
7.84518e-06
3.28436e-07
6.88745e-06
5.3083e-07
6.54832e-06
8.48676e-07
7.42383e-06
7.69663e-07
9.75294e-06
-4.25471e-07
1.40356e-05
-3.14976e-06
2.22261e-05
-6.44243e-06
3.29918e-05
-8.34516e-06
3.88345e-05
-7.79616e-06
4.83278e-05
-1.2617e-06
7.42845e-05
3.95329e-07
0.00013678
-3.68597e-06
0.000166305
-7.68765e-06
0.000163001
-1.10247e-05
0.000156431
-1.51895e-05
0.000149702
-2.45845e-05
0.000147562
-2.81423e-05
9.16936e-05
-1.8798e-05
5.42728e-05
4.68153e-05
9.69004e-07
1.71012e-05
1.96356e-06
1.58979e-05
2.79815e-06
1.48801e-05
3.3388e-06
1.39891e-05
3.53469e-06
1.32461e-05
3.38002e-06
1.2622e-05
2.90407e-06
1.20795e-05
2.17035e-06
1.15199e-05
1.25262e-06
1.08483e-05
2.2404e-07
9.98862e-06
-6.67734e-07
8.73837e-06
-1.01466e-06
7.23563e-06
-9.38707e-07
6.47385e-06
-5.92176e-07
7.07923e-06
-7.6023e-07
9.92368e-06
-2.73965e-06
1.60193e-05
-6.64743e-06
2.6141e-05
-9.02635e-06
3.53802e-05
-9.74546e-06
3.95638e-05
-8.89387e-06
4.74889e-05
-9.52265e-06
7.49353e-05
-1.32567e-05
0.000140556
-1.42703e-05
0.000167365
-1.47783e-05
0.00016355
-1.54506e-05
0.00015714
-1.79288e-05
0.000152214
-2.19102e-05
0.000151573
-2.40917e-05
9.38927e-05
-1.45082e-05
4.46976e-05
3.23131e-05
8.29586e-07
1.62751e-05
1.65624e-06
1.50746e-05
2.36495e-06
1.41746e-05
2.85559e-06
1.35015e-05
3.07936e-06
1.30251e-05
3.02089e-06
1.26831e-05
2.67401e-06
1.24288e-05
2.04654e-06
1.21495e-05
1.1586e-06
1.17382e-05
-9.25999e-08
1.12415e-05
-1.48101e-06
1.01281e-05
-2.40041e-06
8.15614e-06
-2.4268e-06
6.5012e-06
-2.08198e-06
6.73603e-06
-1.95306e-06
9.7973e-06
-3.93007e-06
1.80013e-05
-8.79185e-06
3.10124e-05
-1.1071e-05
3.76708e-05
-1.28558e-05
4.13588e-05
-1.38101e-05
4.84545e-05
-2.05616e-05
8.1708e-05
-2.81863e-05
0.000148223
-2.87468e-05
0.000167969
-2.78688e-05
0.000162711
-2.53282e-05
0.000154633
-2.19571e-05
0.000148872
-1.65126e-05
0.000146153
-1.20688e-05
8.94624e-05
-7.2529e-06
3.98862e-05
2.50627e-05
7.02308e-07
1.55759e-05
1.37452e-06
1.44054e-05
1.96701e-06
1.3585e-05
2.41051e-06
1.30607e-05
2.66558e-06
1.27725e-05
2.71825e-06
1.26328e-05
2.55103e-06
1.25982e-05
2.11142e-06
1.25911e-05
1.3041e-06
1.25473e-05
1.46928e-07
1.24e-05
-1.60625e-06
1.18826e-05
-3.62567e-06
1.01766e-05
-4.40378e-06
7.28032e-06
-3.70804e-06
6.0414e-06
-2.45198e-06
8.54347e-06
-2.35878e-06
1.79141e-05
-7.43001e-06
3.60981e-05
-1.43176e-05
4.45757e-05
-2.05566e-05
4.76133e-05
-2.79643e-05
5.5876e-05
-4.16002e-05
9.53701e-05
-4.92926e-05
0.000155958
-5.17345e-05
0.000170455
-5.03967e-05
0.000161411
-4.07591e-05
0.000145027