/*--------------------------------*- C++ -*----------------------------------*\
| =========                 |                                                 |
| \\      /  F ield         | OpenFOAM: The Open Source CFD Toolbox           |
|  \\    /   O peration     | Version:  2.3.0                                 |
|   \\  /    A nd           | Web:      www.OpenFOAM.org                      |
|    \\/     M anipulation  |                                                 |
\*---------------------------------------------------------------------------*/
FoamFile
{
    version     2.0;
    format      ascii;
    class       volScalarField;
    location    "1.73";
    object      pMean;
}
// * * * * * * * * * * * * * * * * * * * * * * * * * * * * * * * * * * * * * //

dimensions      [1 -1 -2 0 0 0 0];

internalField   nonuniform List<scalar> 
6000
(
106337
106337
106336
106334
106333
106333
106333
106333
106333
106334
106334
106334
106333
106332
106333
106335
106336
106337
106339
106340
106340
106340
106339
106339
106339
106340
106341
106342
106342
106344
106266
106266
106265
106263
106262
106262
106262
106262
106262
106262
106262
106260
106259
106258
106259
106261
106263
106264
106266
106267
106267
106267
106266
106264
106265
106267
106270
106271
106271
106273
106216
106215
106214
106214
106214
106215
106214
106214
106215
106215
106214
106212
106209
106208
106209
106211
106214
106216
106217
106218
106218
106217
106215
106214
106215
106217
106220
106221
106221
106221
106162
106160
106159
106160
106162
106162
106162
106163
106164
106164
106163
106160
106158
106156
106157
106159
106162
106164
106165
106166
106165
106164
106162
106161
106162
106163
106166
106167
106166
106166
106107
106106
106106
106107
106108
106109
106110
106112
106113
106113
106111
106109
106107
106106
106107
106109
106112
106114
106114
106114
106113
106112
106110
106109
106109
106109
106110
106111
106110
106111
106053
106052
106052
106053
106055
106056
106058
106060
106061
106061
106060
106059
106059
106059
106060
106061
106062
106062
106062
106062
106061
106060
106058
106056
106054
106053
106054
106055
106054
106056
105999
105999
105999
105999
106001
106005
106007
106009
106010
106010
106010
106011
106012
106014
106014
106014
106012
106011
106011
106010
106009
106007
106005
106003
106001
105999
105998
105998
106000
106002
105947
105946
105945
105946
105950
105955
105958
105960
105960
105960
105961
105963
105966
105967
105967
105965
105962
105961
105959
105958
105957
105954
105951
105950
105948
105946
105944
105945
105948
105951
105895
105894
105893
105895
105901
105907
105911
105913
105913
105913
105914
105916
105919
105919
105919
105916
105913
105911
105908
105907
105905
105903
105901
105899
105897
105895
105894
105896
105900
105902
105845
105843
105843
105846
105852
105859
105865
105867
105867
105866
105867
105870
105871
105871
105870
105867
105864
105861
105859
105857
105856
105853
105852
105850
105848
105847
105847
105850
105854
105857
105796
105795
105795
105799
105805
105812
105819
105823
105822
105820
105821
105822
105823
105822
105820
105818
105815
105813
105811
105809
105807
105805
105804
105802
105801
105801
105802
105806
105811
105814
105749
105748
105749
105752
105757
105764
105772
105777
105777
105775
105774
105774
105774
105773
105771
105770
105768
105766
105763
105762
105760
105758
105756
105755
105754
105755
105758
105763
105768
105771
105703
105703
105704
105706
105711
105718
105725
105730
105732
105730
105728
105727
105726
105725
105724
105723
105721
105718
105716
105714
105712
105710
105708
105707
105707
105710
105714
105719
105725
105729
105659
105659
105660
105662
105666
105672
105678
105683
105686
105685
105682
105680
105679
105678
105677
105676
105674
105671
105668
105667
105664
105661
105658
105657
105658
105663
105668
105674
105680
105684
105616
105616
105617
105618
105622
105627
105632
105636
105639
105639
105637
105633
105632
105632
105631
105629
105627
105624
105621
105618
105614
105610
105607
105605
105608
105614
105620
105627
105632
105635
105574
105574
105575
105576
105578
105582
105586
105589
105592
105593
105590
105587
105587
105587
105585
105583
105581
105577
105574
105570
105565
105561
105557
105556
105559
105564
105570
105576
105580
105582
105533
105533
105534
105535
105536
105539
105541
105544
105545
105545
105544
105542
105541
105541
105540
105538
105534
105531
105527
105522
105518
105514
105511
105510
105513
105517
105521
105526
105529
105531
105493
105493
105494
105495
105495
105497
105499
105500
105501
105500
105499
105498
105497
105496
105495
105492
105489
105486
105481
105476
105471
105468
105465
105465
105467
105470
105474
105477
105479
105481
105453
105453
105454
105455
105455
105456
105457
105457
105457
105457
105456
105454
105453
105451
105449
105446
105443
105440
105435
105430
105426
105422
105420
105421
105422
105424
105427
105429
105431
105432
105413
105413
105414
105415
105414
105414
105415
105415
105414
105414
105413
105411
105409
105406
105403
105400
105396
105393
105389
105384
105380
105378
105377
105377
105378
105380
105381
105383
105384
105385
105371
105372
105372
105372
105372
105372
105372
105372
105371
105370
105369
105368
105365
105362
105358
105353
105349
105346
105343
105339
105337
105335
105335
105334
105335
105335
105337
105338
105339
105340
105329
105329
105329
105329
105329
105329
105328
105327
105326
105326
105325
105324
105321
105318
105313
105307
105303
105301
105298
105295
105293
105293
105292
105292
105291
105292
105293
105295
105295
105295
105285
105285
105285
105286
105286
105286
105284
105283
105282
105281
105281
105280
105277
105274
105268
105262
105259
105257
105254
105251
105249
105249
105249
105249
105248
105248
105249
105251
105251
105251
105241
105240
105241
105242
105242
105242
105240
105238
105237
105236
105236
105235
105233
105229
105224
105219
105216
105213
105210
105206
105205
105205
105205
105205
105205
105205
105205
105207
105206
105205
105196
105195
105196
105197
105198
105196
105194
105192
105192
105191
105191
105191
105189
105185
105181
105177
105173
105170
105165
105162
105160
105160
105159
105160
105160
105160
105161
105161
105160
105159
105150
105150
105151
105151
105152
105150
105147
105146
105146
105146
105146
105146
105144
105141
105138
105135
105130
105126
105121
105118
105116
105115
105115
105114
105114
105115
105115
105114
105112
105111
105105
105105
105104
105104
105104
105102
105100
105099
105099
105100
105101
105101
105100
105097
105095
105092
105087
105083
105079
105075
105074
105073
105072
105071
105070
105069
105069
105067
105064
105063
105059
105058
105057
105056
105055
105054
105052
105052
105053
105054
105055
105056
105055
105053
105051
105048
105045
105041
105038
105035
105032
105031
105031
105029
105027
105026
105024
105022
105020
105019
105010
105009
105008
105007
105006
105005
105004
105004
105006
105007
105009
105011
105010
105008
105006
105005
105002
105000
104997
104994
104991
104990
104989
104987
104985
104983
104981
104978
104976
104975
104961
104959
104957
104956
104955
104955
104955
104956
104958
104960
104962
104964
104965
104963
104962
104961
104960
104959
104957
104953
104950
104948
104947
104944
104941
104939
104937
104934
104932
104931
104910
104907
104906
104904
104904
104905
104905
104907
104910
104913
104916
104918
104919
104918
104917
104917
104917
104917
104915
104911
104908
104905
104903
104900
104897
104895
104893
104890
104888
104887
104857
104855
104853
104852
104852
104854
104855
104857
104861
104866
104870
104872
104873
104873
104872
104873
104873
104874
104871
104867
104864
104861
104858
104855
104853
104850
104848
104845
104844
104843
104804
104802
104801
104799
104800
104802
104803
104807
104811
104817
104822
104826
104827
104827
104827
104827
104828
104828
104826
104822
104819
104816
104813
104810
104808
104806
104804
104801
104799
104799
104751
104749
104749
104748
104749
104751
104753
104756
104762
104768
104774
104779
104781
104781
104781
104781
104781
104780
104778
104776
104773
104771
104768
104765
104764
104762
104760
104757
104755
104755
104698
104698
104698
104699
104701
104703
104706
104708
104712
104718
104724
104730
104734
104735
104734
104734
104733
104733
104731
104729
104727
104725
104723
104722
104721
104719
104717
104714
104712
104712
104648
104648
104650
104652
104654
104657
104660
104662
104665
104669
104674
104680
104684
104686
104687
104686
104686
104685
104684
104682
104681
104680
104679
104679
104678
104676
104673
104670
104668
104668
104601
104601
104603
104606
104609
104613
104615
104617
104618
104621
104625
104630
104634
104636
104638
104638
104638
104637
104637
104635
104635
104634
104635
104636
104635
104633
104629
104626
104624
104624
104555
104556
104558
104560
104564
104568
104570
104571
104572
104573
104576
104580
104584
104586
104588
104590
104591
104591
104590
104589
104589
104590
104592
104593
104592
104588
104585
104582
104580
104581
104510
104512
104513
104515
104517
104521
104524
104525
104525
104526
104528
104532
104535
104538
104540
104542
104544
104544
104544
104544
104544
104546
104549
104550
104548
104544
104540
104538
104537
104537
104466
104467
104468
104468
104470
104474
104477
104478
104478
104479
104481
104484
104487
104490
104492
104494
104497
104498
104499
104499
104500
104503
104506
104506
104504
104500
104497
104495
104494
104495
104422
104421
104421
104421
104423
104426
104429
104430
104431
104431
104434
104436
104440
104443
104445
104448
104450
104452
104453
104455
104457
104460
104462
104463
104460
104457
104454
104453
104452
104452
104375
104374
104373
104374
104375
104378
104381
104382
104383
104384
104387
104390
104393
104396
104399
104401
104404
104406
104408
104411
104413
104416
104419
104419
104417
104414
104412
104411
104410
104410
104328
104327
104326
104327
104329
104332
104334
104335
104336
104337
104340
104343
104346
104349
104353
104356
104359
104361
104364
104367
104369
104372
104374
104375
104373
104372
104370
104369
104368
104368
104281
104280
104280
104282
104284
104287
104289
104290
104290
104290
104293
104296
104299
104303
104306
104310
104314
104317
104320
104323
104326
104329
104330
104330
104329
104328
104328
104327
104326
104326
104236
104235
104236
104239
104242
104244
104245
104245
104245
104245
104247
104250
104252
104256
104260
104265
104269
104272
104275
104279
104283
104285
104285
104286
104286
104286
104285
104285
104285
104285
104193
104193
104194
104197
104199
104201
104202
104202
104201
104201
104202
104204
104206
104210
104215
104219
104223
104227
104231
104235
104239
104240
104241
104242
104242
104242
104242
104243
104243
104244
104152
104152
104154
104156
104157
104158
104158
104158
104157
104156
104157
104158
104160
104164
104169
104174
104178
104182
104186
104190
104194
104196
104197
104198
104199
104199
104199
104200
104201
104201
104111
104112
104113
104114
104115
104115
104114
104113
104112
104111
104111
104112
104114
104117
104122
104128
104133
104137
104140
104144
104148
104151
104152
104154
104154
104154
104155
104156
104156
104157
104070
104071
104072
104072
104072
104071
104069
104068
104066
104064
104063
104063
104066
104070
104076
104082
104087
104091
104095
104099
104102
104104
104107
104108
104108
104108
104109
104109
104110
104109
104029
104029
104029
104028
104027
104025
104023
104020
104016
104014
104013
104014
104017
104021
104028
104034
104040
104045
104049
104053
104056
104058
104059
104061
104060
104060
104060
104061
104061
104061
103986
103985
103984
103982
103980
103978
103974
103969
103965
103962
103962
103964
103967
103973
103979
103986
103993
103999
104004
104008
104009
104010
104011
104012
104011
104011
104011
104012
104011
104011
103940
103938
103936
103934
103931
103928
103924
103918
103912
103911
103912
103915
103919
103924
103930
103937
103945
103952
103958
103962
103962
103962
103962
103962
103961
103961
103961
103962
103961
103960
103890
103889
103886
103884
103881
103878
103873
103867
103862
103861
103863
103867
103871
103875
103881
103888
103895
103904
103911
103914
103914
103913
103912
103911
103911
103911
103911
103911
103910
103910
103840
103838
103835
103834
103832
103829
103825
103819
103815
103814
103816
103820
103824
103827
103832
103838
103845
103854
103861
103864
103864
103862
103861
103861
103861
103860
103861
103860
103859
103859
103790
103788
103787
103786
103785
103783
103779
103774
103772
103772
103773
103775
103777
103780
103783
103788
103795
103802
103809
103813
103813
103812
103811
103811
103811
103811
103810
103809
103808
103808
103743
103742
103742
103741
103740
103738
103736
103733
103732
103731
103731
103731
103732
103734
103737
103740
103744
103749
103756
103760
103762
103761
103761
103761
103761
103761
103760
103759
103758
103758
103699
103699
103698
103698
103697
103696
103695
103693
103692
103691
103690
103689
103689
103690
103691
103694
103696
103698
103703
103708
103711
103712
103712
103712
103712
103712
103710
103709
103708
103709
103658
103657
103657
103657
103656
103656
103656
103655
103653
103651
103650
103648
103648
103647
103648
103648
103649
103650
103654
103659
103662
103664
103665
103665
103665
103663
103662
103660
103660
103660
103619
103618
103617
103617
103617
103617
103617
103616
103614
103612
103610
103609
103607
103606
103605
103604
103604
103606
103609
103613
103616
103618
103619
103619
103618
103616
103614
103612
103612
103612
103579
103578
103578
103577
103577
103578
103579
103578
103576
103573
103571
103570
103568
103565
103564
103562
103562
103564
103566
103569
103572
103574
103575
103574
103573
103570
103567
103565
103565
103566
103539
103539
103538
103537
103537
103539
103540
103539
103538
103536
103533
103531
103528
103526
103524
103522
103521
103522
103524
103526
103528
103531
103532
103531
103529
103526
103523
103521
103521
103522
103498
103498
103497
103497
103497
103499
103501
103501
103500
103498
103495
103492
103490
103487
103484
103483
103482
103482
103483
103484
103486
103489
103489
103487
103485
103483
103480
103478
103478
103478
103455
103455
103455
103456
103457
103459
103461
103462
103462
103460
103457
103454
103451
103448
103446
103444
103443
103442
103442
103442
103444
103446
103446
103444
103442
103439
103436
103436
103436
103435
103412
103412
103413
103414
103416
103418
103421
103422
103423
103421
103419
103416
103413
103410
103407
103406
103404
103402
103402
103402
103403
103403
103402
103400
103397
103394
103391
103392
103392
103391
103369
103369
103371
103373
103375
103377
103380
103381
103381
103381
103378
103376
103373
103371
103369
103367
103365
103363
103362
103363
103363
103362
103359
103355
103352
103348
103345
103345
103345
103345
103327
103327
103329
103330
103333
103335
103337
103338
103339
103338
103336
103334
103332
103331
103329
103327
103325
103323
103323
103323
103322
103319
103315
103310
103306
103302
103299
103298
103297
103297
103286
103286
103287
103288
103290
103291
103293
103294
103295
103295
103294
103292
103289
103288
103287
103286
103285
103283
103282
103281
103280
103276
103270
103265
103260
103256
103253
103251
103250
103250
103245
103245
103245
103245
103247
103248
103249
103250
103250
103250
103249
103248
103246
103244
103244
103244
103243
103242
103240
103238
103235
103230
103224
103219
103214
103210
103207
103205
103204
103204
103204
103203
103203
103203
103203
103205
103205
103205
103205
103204
103204
103202
103201
103200
103199
103200
103200
103199
103197
103193
103188
103183
103177
103172
103168
103164
103161
103158
103157
103157
103163
103162
103162
103161
103161
103161
103161
103160
103159
103158
103157
103155
103154
103153
103153
103154
103155
103154
103151
103146
103140
103134
103129
103125
103121
103118
103114
103111
103109
103108
103122
103121
103120
103119
103118
103118
103116
103114
103112
103110
103109
103107
103106
103106
103106
103107
103108
103107
103104
103099
103092
103085
103081
103077
103074
103071
103067
103063
103060
103059
103079
103079
103078
103077
103075
103074
103072
103069
103065
103062
103059
103058
103057
103057
103058
103059
103060
103059
103056
103050
103042
103036
103032
103030
103027
103024
103020
103015
103011
103010
103034
103034
103034
103033
103031
103029
103026
103022
103017
103012
103009
103008
103008
103009
103010
103012
103012
103011
103007
103000
102992
102987
102984
102982
102980
102977
102972
102968
102964
102962
102987
102988
102987
102986
102985
102983
102980
102975
102969
102964
102962
102961
102961
102962
102964
102964
102964
102962
102958
102950
102942
102937
102935
102934
102932
102930
102926
102922
102918
102916
102939
102939
102939
102938
102937
102936
102932
102927
102922
102918
102916
102916
102916
102917
102918
102918
102917
102914
102908
102900
102892
102887
102885
102886
102885
102884
102881
102877
102874
102872
102890
102891
102890
102890
102889
102887
102884
102879
102876
102873
102873
102872
102873
102873
102874
102873
102871
102867
102859
102851
102842
102837
102836
102837
102838
102837
102836
102833
102830
102828
102842
102842
102842
102841
102841
102839
102836
102833
102831
102830
102829
102830
102830
102830
102830
102829
102826
102820
102811
102802
102793
102788
102787
102789
102790
102790
102789
102788
102786
102784
102795
102795
102795
102794
102793
102792
102790
102788
102787
102787
102787
102788
102788
102788
102787
102785
102781
102774
102765
102755
102746
102741
102739
102741
102742
102742
102741
102741
102739
102738
102749
102749
102749
102749
102748
102747
102746
102745
102745
102745
102746
102746
102746
102746
102745
102742
102737
102729
102719
102709
102701
102696
102694
102693
102693
102693
102692
102691
102690
102689
102704
102704
102704
102704
102703
102703
102703
102703
102704
102705
102705
102705
102705
102704
102702
102698
102692
102683
102674
102664
102657
102652
102648
102645
102644
102643
102641
102640
102639
102639
102659
102659
102659
102660
102660
102660
102660
102661
102663
102664
102664
102663
102662
102660
102657
102652
102645
102636
102627
102618
102611
102606
102602
102597
102594
102593
102591
102589
102588
102587
102614
102613
102614
102615
102616
102616
102616
102618
102620
102621
102621
102619
102617
102615
102611
102605
102597
102588
102578
102570
102564
102559
102554
102549
102545
102543
102541
102539
102537
102536
102568
102567
102568
102569
102571
102571
102572
102574
102575
102576
102576
102575
102573
102569
102564
102558
102549
102538
102529
102522
102516
102511
102506
102500
102495
102492
102490
102488
102486
102485
102521
102521
102522
102523
102525
102526
102527
102529
102530
102530
102530
102529
102527
102524
102518
102510
102499
102488
102480
102473
102467
102461
102456
102450
102445
102441
102438
102437
102435
102435
102473
102474
102475
102476
102478
102479
102481
102483
102484
102484
102483
102482
102480
102477
102470
102460
102449
102439
102430
102423
102416
102410
102404
102399
102394
102391
102388
102386
102384
102384
102426
102426
102427
102429
102429
102430
102432
102434
102435
102435
102435
102434
102432
102428
102420
102410
102398
102389
102380
102372
102365
102358
102353
102349
102345
102342
102339
102336
102335
102334
102377
102379
102379
102380
102381
102381
102382
102384
102386
102386
102386
102385
102382
102376
102368
102358
102347
102337
102328
102320
102313
102308
102304
102301
102298
102295
102292
102289
102287
102286
102329
102330
102330
102331
102331
102331
102332
102335
102336
102337
102336
102334
102330
102324
102316
102306
102295
102285
102276
102269
102264
102260
102257
102255
102252
102249
102246
102243
102240
102239
102279
102280
102280
102280
102280
102279
102281
102284
102286
102287
102286
102283
102278
102272
102263
102253
102242
102232
102225
102219
102216
102214
102212
102209
102207
102203
102199
102196
102193
102192
102228
102228
102228
102228
102228
102228
102231
102234
102236
102236
102235
102231
102225
102218
102209
102199
102188
102180
102174
102171
102170
102169
102166
102163
102160
102156
102152
102149
102146
102145
102176
102176
102176
102176
102176
102178
102181
102183
102185
102185
102182
102178
102171
102163
102154
102144
102135
102129
102125
102124
102124
102123
102120
102117
102113
102109
102104
102101
102099
102098
102124
102123
102123
102123
102125
102128
102131
102133
102134
102133
102130
102124
102117
102108
102099
102090
102083
102079
102077
102077
102077
102076
102073
102069
102064
102059
102055
102053
102052
102052
102071
102071
102071
102072
102075
102079
102081
102083
102083
102081
102077
102070
102062
102054
102045
102038
102032
102029
102028
102028
102028
102026
102023
102019
102014
102009
102006
102005
102004
102004
102020
102020
102020
102021
102024
102028
102031
102032
102031
102028
102023
102016
102008
102000
101992
101985
101980
101978
101978
101978
101977
101975
101972
101968
101963
101959
101956
101955
101955
101956
101969
101969
101968
101969
101972
101976
101979
101980
101979
101975
101969
101961
101953
101946
101938
101932
101928
101927
101927
101927
101926
101924
101920
101917
101912
101909
101906
101905
101906
101906
101918
101917
101917
101918
101920
101924
101927
101928
101926
101922
101915
101907
101899
101890
101883
101878
101876
101875
101876
101876
101875
101872
101869
101866
101862
101859
101856
101855
101856
101856
101867
101866
101865
101866
101869
101872
101874
101875
101873
101869
101862
101854
101845
101835
101828
101824
101822
101823
101824
101824
101823
101821
101818
101815
101812
101809
101806
101805
101804
101804
101815
101814
101814
101815
101818
101820
101822
101823
101821
101817
101810
101802
101792
101782
101774
101770
101769
101770
101772
101773
101772
101770
101768
101765
101762
101759
101755
101752
101751
101750
101763
101762
101763
101764
101767
101770
101771
101772
101770
101766
101760
101751
101742
101732
101724
101718
101716
101718
101720
101722
101722
101720
101718
101715
101712
101708
101703
101700
101697
101695
101712
101712
101714
101716
101719
101720
101722
101722
101721
101717
101711
101703
101693
101684
101676
101670
101667
101667
101670
101672
101673
101671
101669
101665
101662
101657
101652
101647
101644
101641
101664
101665
101667
101670
101672
101674
101675
101675
101674
101670
101664
101656
101647
101639
101631
101625
101621
101620
101622
101624
101624
101623
101620
101616
101612
101608
101602
101597
101592
101590
101616
101618
101620
101623
101627
101628
101629
101629
101627
101623
101618
101610
101602
101594
101588
101583
101578
101576
101576
101577
101576
101574
101571
101567
101563
101558
101553
101548
101543
101541
101568
101570
101573
101577
101580
101582
101583
101582
101580
101576
101570
101564
101556
101550
101545
101540
101536
101533
101531
101530
101528
101525
101522
101519
101515
101509
101504
101499
101495
101494
101520
101522
101525
101529
101533
101534
101535
101534
101532
101528
101523
101517
101510
101505
101500
101496
101493
101489
101486
101483
101480
101477
101474
101471
101466
101460
101455
101451
101449
101449
101473
101474
101477
101480
101484
101485
101486
101486
101484
101480
101475
101469
101463
101458
101454
101450
101447
101444
101441
101437
101433
101430
101427
101423
101419
101413
101408
101405
101404
101404
101424
101425
101427
101431
101434
101435
101436
101436
101435
101431
101426
101419
101413
101408
101405
101402
101399
101397
101394
101390
101386
101383
101380
101377
101373
101368
101364
101362
101361
101361
101375
101376
101378
101380
101383
101384
101385
101385
101384
101380
101375
101368
101362
101357
101354
101351
101349
101347
101345
101342
101339
101336
101334
101331
101328
101324
101322
101320
101319
101318
101327
101327
101328
101330
101332
101333
101334
101334
101332
101328
101322
101316
101310
101306
101302
101299
101297
101296
101294
101292
101291
101289
101288
101286
101285
101282
101281
101279
101278
101277
101278
101278
101279
101280
101282
101282
101281
101280
101278
101274
101269
101264
101259
101256
101252
101248
101246
101245
101243
101242
101243
101243
101242
101241
101241
101240
101239
101238
101237
101237
101230
101230
101230
101230
101231
101230
101228
101225
101223
101220
101217
101214
101211
101207
101204
101200
101198
101197
101196
101195
101196
101197
101197
101197
101196
101197
101197
101197
101197
101197
101182
101181
101180
101180
101179
101176
101173
101171
101170
101169
101167
101165
101163
101161
101158
101155
101153
101152
101151
101151
101151
101152
101153
101153
101152
101152
101154
101155
101155
101156
101133
101132
101131
101129
101127
101124
101122
101121
101121
101120
101120
101119
101118
101115
101113
101111
101110
101109
101109
101108
101108
101109
101110
101110
101109
101108
101109
101111
101112
101114
101084
101083
101081
101079
101077
101075
101074
101074
101074
101075
101075
101074
101073
101071
101070
101069
101068
101068
101067
101067
101067
101068
101069
101069
101068
101067
101066
101066
101068
101070
101035
101034
101033
101031
101030
101030
101029
101030
101030
101031
101031
101030
101029
101028
101028
101028
101028
101027
101027
101027
101026
101027
101028
101029
101028
101027
101025
101025
101025
101026
100987
100987
100986
100985
100985
100986
100987
100988
100988
100988
100987
100987
100986
100986
100986
100987
100987
100987
100987
100987
100987
100987
100988
100989
100989
100988
100987
100985
100984
100984
100941
100942
100942
100942
100943
100945
100946
100947
100947
100946
100945
100944
100944
100944
100945
100946
100947
100948
100948
100948
100947
100947
100948
100949
100950
100950
100949
100947
100945
100945
100900
100900
100900
100900
100902
100905
100907
100907
100907
100906
100904
100903
100903
100903
100904
100906
100907
100908
100908
100908
100908
100907
100907
100908
100909
100910
100909
100908
100906
100904
100860
100860
100859
100859
100862
100865
100868
100868
100867
100866
100864
100862
100862
100863
100865
100866
100867
100867
100868
100867
100867
100867
100866
100866
100867
100868
100868
100867
100865
100863
100820
100820
100820
100820
100823
100826
100828
100829
100828
100826
100824
100822
100822
100824
100825
100826
100827
100827
100827
100826
100826
100825
100824
100824
100824
100824
100824
100824
100822
100821
100780
100780
100780
100781
100783
100786
100789
100789
100789
100787
100784
100783
100783
100785
100786
100786
100786
100786
100785
100785
100785
100784
100782
100781
100780
100780
100780
100779
100778
100778
100739
100739
100740
100741
100742
100746
100748
100749
100749
100747
100745
100744
100745
100746
100747
100747
100747
100746
100745
100745
100744
100743
100741
100739
100738
100737
100736
100735
100735
100735
100699
100699
100700
100701
100702
100705
100707
100708
100708
100706
100705
100705
100706
100707
100707
100707
100707
100706
100705
100705
100705
100703
100701
100698
100697
100696
100695
100694
100693
100694
100660
100660
100660
100660
100661
100663
100666
100667
100667
100666
100666
100666
100667
100668
100668
100669
100668
100667
100667
100666
100666
100665
100663
100660
100658
100657
100656
100654
100654
100654
100621
100621
100621
100621
100621
100623
100625
100626
100626
100626
100627
100628
100628
100629
100630
100631
100630
100630
100630
100629
100629
100628
100626
100623
100621
100619
100618
100617
100616
100616
100583
100583
100582
100582
100582
100583
100584
100585
100586
100588
100589
100590
100591
100592
100593
100594
100594
100594
100594
100594
100593
100593
100590
100587
100585
100583
100582
100580
100580
100580
100546
100545
100544
100544
100543
100544
100545
100546
100548
100550
100552
100553
100555
100556
100558
100559
100559
100559
100559
100559
100559
100558
100556
100553
100550
100548
100547
100545
100545
100545
100509
100508
100507
100506
100505
100505
100507
100509
100511
100513
100516
100517
100519
100521
100523
100524
100525
100525
100525
100525
100525
100524
100522
100519
100516
100514
100512
100511
100510
100511
100473
100471
100470
100469
100468
100468
100470
100473
100475
100478
100481
100483
100485
100487
100489
100490
100491
100492
100492
100492
100491
100490
100489
100486
100483
100480
100478
100477
100477
100478
100437
100436
100434
100433
100432
100433
100435
100439
100442
100445
100448
100451
100453
100455
100457
100459
100460
100460
100460
100459
100458
100457
100456
100453
100450
100447
100446
100445
100445
100445
100402
100401
100399
100399
100399
100400
100403
100407
100411
100414
100418
100421
100423
100425
100427
100429
100430
100430
100430
100428
100426
100425
100424
100422
100419
100416
100415
100414
100413
100413
100367
100367
100367
100367
100367
100369
100372
100376
100380
100385
100389
100392
100395
100397
100399
100401
100402
100401
100400
100398
100396
100394
100393
100391
100389
100387
100385
100384
100382
100381
100336
100336
100336
100336
100338
100339
100342
100346
100351
100356
100361
100365
100368
100370
100372
100374
100374
100374
100372
100370
100367
100365
100362
100361
100360
100359
100357
100354
100352
100350
100306
100306
100307
100308
100309
100311
100314
100318
100324
100329
100334
100338
100342
100344
100346
100348
100348
100347
100345
100343
100340
100337
100334
100332
100331
100329
100327
100324
100321
100319
100278
100278
100278
100279
100281
100284
100287
100292
100298
100303
100308
100312
100316
100318
100320
100322
100322
100321
100319
100317
100314
100310
100307
100304
100301
100299
100296
100294
100292
100291
100250
100250
100251
100253
100255
100258
100262
100267
100273
100278
100283
100287
100290
100293
100295
100297
100297
100296
100294
100292
100288
100285
100281
100277
100274
100270
100267
100266
100265
100264
100224
100224
100226
100228
100231
100234
100239
100244
100249
100254
100259
100263
100266
100269
100271
100272
100272
100272
100270
100267
100264
100260
100256
100252
100247
100243
100240
100239
100239
100239
100201
100201
100203
100206
100209
100212
100217
100222
100227
100232
100237
100241
100244
100246
100248
100249
100249
100248
100247
100244
100241
100237
100233
100228
100223
100219
100216
100215
100215
100216
100179
100180
100182
100185
100188
100192
100196
100202
100207
100212
100216
100220
100223
100225
100226
100227
100227
100226
100225
100223
100219
100216
100211
100206
100201
100197
100194
100193
100193
100193
100160
100161
100163
100166
100170
100173
100177
100182
100188
100193
100197
100201
100204
100206
100206
100207
100206
100205
100204
100202
100199
100195