/*--------------------------------*- C++ -*----------------------------------*\
| =========                 |                                                 |
| \\      /  F ield         | OpenFOAM: The Open Source CFD Toolbox           |
|  \\    /   O peration     | Version:  2.3.0                                 |
|   \\  /    A nd           | Web:      www.OpenFOAM.org                      |
|    \\/     M anipulation  |                                                 |
\*---------------------------------------------------------------------------*/
FoamFile
{
    version     2.0;
    format      ascii;
    class       surfaceScalarField;
    location    "4.19953";
    object      phi.air;
}
// * * * * * * * * * * * * * * * * * * * * * * * * * * * * * * * * * * * * * //

dimensions      [0 3 -1 0 0 0 0];

internalField   nonuniform List<scalar> 
2650
(
-6.70399e-08
1.02137e-07
-2.84839e-08
-6.16338e-08
3.40517e-08
-3.38926e-08
-5.93113e-08
3.55684e-08
-3.22954e-08
-6.30782e-08
4.08646e-08
-3.14493e-08
-6.33536e-08
2.435e-08
-1.81937e-08
-6.0156e-08
1.268e-08
-9.6922e-09
-5.522e-08
3.42752e-09
-1.97217e-09
-3.76087e-08
-2.57324e-09
-8.53419e-09
9.45725e-10
-1.41707e-08
-1.76792e-08
6.81095e-08
-2.88067e-08
-3.14244e-08
1.14105e-07
-6.29018e-09
-3.32929e-08
3.76256e-08
8.95628e-08
-6.55533e-09
-2.1693e-08
1.24053e-07
-5.92403e-08
-4.9464e-08
5.84538e-08
-2.55698e-08
-4.90541e-08
7.34009e-09
-1.81799e-09
-3.66388e-08
-5.30653e-09
-8.99685e-10
-9.13831e-09
-2.12188e-08
2.42932e-10
3.70745e-08
-4.02908e-08
1.03469e-09
6.43556e-08
-2.18505e-08
1.30612e-09
7.37888e-08
-3.99161e-09
-4.1577e-08
1.4989e-07
-7.1573e-09
-4.88775e-08
2.37583e-08
1.75763e-08
-5.4063e-08
2.23047e-08
1.84673e-08
-5.39107e-08
2.12206e-08
1.98656e-08
-4.68145e-08
8.4434e-09
9.34944e-09
-3.85409e-08
-1.33388e-09
6.0464e-09
-2.88361e-08
-1.00336e-08
3.85982e-09
-1.51582e-08
-2.45843e-08
8.34956e-09
8.93258e-09
-4.47451e-08
6.54393e-09
4.73674e-08
-5.46501e-08
-1.27818e-08
8.13482e-08
-3.6163e-08
-4.33762e-09
5.91633e-08
5.79416e-08
5.4819e-08
1.02505e-08
1.69188e-07
4.94628e-09
1.17855e-09
7.77007e-08
-1.02319e-08
-7.27732e-09
1.53247e-08
5.86886e-10
-9.63206e-09
-3.36698e-09
5.34585e-10
-1.45097e-09
-2.95499e-08
5.04885e-11
1.50493e-08
-5.611e-08
-1.00303e-09
2.40844e-08
-3.1321e-08
1.00558e-09
9.89977e-08
-8.48305e-10
-2.91778e-08
1.7553e-07
3.45574e-09
-3.59774e-08
2.05307e-08
1.01822e-08
-3.75127e-08
1.44297e-08
9.62992e-09
-3.29724e-08
9.6448e-09
7.13822e-09
-3.11427e-08
1.0431e-09
5.63768e-09
-2.88147e-08
-7.78423e-09
3.19109e-09
-2.26349e-08
-1.78215e-08
8.64105e-10
-1.36524e-08
-3.41505e-08
6.36657e-10
6.84401e-09
-6.2245e-08
-2.92878e-09
3.52935e-08
-8.08852e-08
-2.19023e-09
6.57551e-08
-6.56156e-08
-1.24375e-09
5.90909e-08
4.41448e-08
1.9799e-08
2.95268e-08
1.70102e-07
2.94482e-08
1.46003e-08
9.76152e-08
-5.00391e-09
2.04767e-09
2.68408e-08
8.19023e-10
-5.0106e-09
3.42802e-09
1.893e-10
-2.94384e-09
-3.15899e-08
-8.11397e-11
6.44883e-09
-6.5774e-08
4.53622e-11
1.57885e-08
-4.14862e-08
1.02418e-09
1.15472e-07
-7.55161e-10
-1.95756e-08
1.91883e-07
3.46869e-09
-2.39265e-08
2.15976e-08
3.20828e-09
-2.358e-08
1.18675e-08
2.20541e-09
-2.0127e-08
4.5006e-09
1.68265e-09
-1.84978e-08
-1.68689e-09
4.25867e-10
-1.78766e-08
-1.00184e-08
6.99091e-11
-1.68666e-08
-2.01315e-08
-2.55962e-10
-1.48588e-08
-3.65313e-08
-2.85814e-10
-8.37261e-09
-6.56683e-08
-3.0301e-09
-3.28963e-09
-8.86993e-08
2.84906e-09
1.20171e-08
-9.24886e-08
1.15344e-08
2.85043e-08
2.21105e-08
4.81467e-09
3.32604e-08
1.60072e-07
5.26121e-09
2.80646e-08
1.05842e-07
-3.04969e-09
1.53768e-08
3.97053e-08
-3.52748e-10
5.86184e-09
1.28354e-08
-3.56689e-11
-2.40543e-09
-2.30676e-08
-2.67321e-10
-1.95825e-09
-6.58719e-08
-4.74197e-10
7.89739e-09
-5.13484e-08
-1.34601e-10
1.2339e-07
-2.78717e-10
-1.2938e-08
2.02904e-07
2.11202e-09
-1.79681e-08
2.59575e-08
5.75469e-10
-1.7153e-08
1.08478e-08
2.01482e-10
-1.37653e-08
9.01596e-10
2.18293e-10
-1.07029e-08
-4.52086e-09
-2.31828e-10
-1.08664e-08
-1.05691e-08
1.61349e-10
-1.32497e-08
-1.83432e-08
-1.56077e-10
-1.83639e-08
-3.23845e-08
-5.42565e-10
-2.58902e-08
-5.83955e-08
2.3728e-10
-3.01817e-08
-8.68223e-08
2.38468e-09
-2.70463e-08
-9.43572e-08
-1.19289e-09
1.61944e-08
5.43857e-09
-2.65706e-08
5.24365e-08
1.54223e-07
-3.0604e-08
5.08874e-08
1.22034e-07
-1.46018e-08
2.85536e-08
6.4311e-08
-2.48042e-09
1.49392e-08
2.36696e-08
2.52827e-09
2.86697e-10
-8.30602e-09
-2.12454e-10
-7.2811e-09
-5.70729e-08
-1.27561e-09
1.72052e-10
-6.02362e-08
1.16816e-09
1.23824e-07
-5.40009e-10
-1.03245e-08
2.11398e-07
2.01524e-09
-1.6217e-08
3.20163e-08
-3.18415e-10
-1.58467e-08
1.11531e-08
-6.93092e-10
-1.12819e-08
-2.65726e-09
-1.0118e-09
-6.55772e-09
-7.53718e-09
-1.03771e-09
-5.93958e-09
-1.08143e-08
-3.8954e-10
-8.8444e-09
-1.51905e-08
-2.7208e-10
-1.66898e-08
-2.54456e-08
4.08689e-11
-2.89373e-08
-4.63994e-08
-1.22355e-09
-4.22604e-08
-7.65269e-08
2.98994e-09
-5.34133e-08
-8.83512e-08
5.52034e-09
-3.75121e-09
-6.95589e-08
2.59915e-08
9.88069e-08
6.84414e-08
-1.57811e-08
1.02774e-07
1.39827e-07
-2.12974e-08
6.7194e-08
1.18697e-07
-1.88727e-08
3.59671e-08
6.04444e-08
-5.86069e-09
1.37471e-08
1.38085e-08
-1.91587e-10
-3.12762e-09
-4.37477e-08
3.55363e-09
-3.30941e-09
-6.13256e-08
1.10614e-09
1.21786e-07
-1.33947e-09
-1.01268e-08
2.18567e-07
3.13021e-09
-1.62479e-08
3.87457e-08
-7.42e-10
-1.6647e-08
1.28726e-08
-1.32469e-09
-1.01208e-08
-6.38698e-09
-2.80987e-09
-4.66109e-09
-1.1349e-08
-1.62424e-09
-3.15862e-09
-1.13842e-08
-9.30784e-10
-4.77717e-09
-1.29732e-08
-6.08443e-10
-8.46656e-09
-2.08632e-08
-9.49329e-10
-1.8631e-08
-3.71432e-08
-7.09178e-10
-3.37496e-08
-6.26646e-08
-2.94205e-10
-4.15854e-08
-7.90658e-08
-2.30801e-09
-1.64978e-08
-8.56589e-08
-9.18737e-09
8.79325e-08
-6.15514e-08
2.66121e-08
1.40052e-07
8.2139e-08
6.55223e-09
1.23991e-07
1.40329e-07
-5.60351e-09
8.35111e-08
1.14728e-07
-1.40834e-08
4.80282e-08
5.55457e-08
-6.54671e-09
1.66263e-08
-8.62007e-09
-3.78896e-09
2.31967e-09
-4.50883e-08
-2.11942e-09
1.26567e-07
-2.27811e-09
-7.81921e-09
2.24349e-07
2.15179e-09
-1.40628e-08
4.67849e-08
-1.89991e-09
-1.65654e-08
1.71459e-08
-1.77622e-09
-7.66041e-09
-1.2434e-08
-2.88187e-09
-2.98039e-09
-1.48758e-08
-1.56246e-09
-1.66997e-09
-1.14174e-08
-1.27003e-09
-2.75405e-09
-1.10229e-08
-8.64156e-10
-5.19151e-09
-1.75605e-08
-8.89232e-10
-9.16106e-09
-3.26184e-08
-6.88227e-10
-1.4651e-08
-5.49023e-08
-3.79705e-09
-1.55083e-08
-7.51252e-08
-4.58508e-09
-5.02912e-09
-8.91846e-08
-8.35353e-09
3.74756e-08
-9.68328e-08
-8.77489e-09
1.31614e-07
-4.11745e-08
3.01945e-08
1.22674e-07
1.2404e-07
2.54017e-08
9.17445e-08
1.38121e-07
7.58603e-09
5.64361e-08
9.99486e-08
-9.19635e-09
2.68484e-08
2.74384e-08
-6.34021e-09
6.47362e-09
-1.6964e-08
-8.08973e-09
1.35842e-07
-2.52398e-09
-9.59702e-09
2.34056e-07
5.50345e-11
-1.44397e-08
5.24007e-08
-9.01965e-10
-1.3933e-08
1.66041e-08
-2.6017e-12
-5.09768e-09
-2.11368e-08
-1.54999e-10
-1.52539e-09
-1.86846e-08
-1.2298e-09
-7.96841e-10
-1.08494e-08
-1.28083e-09
-1.28949e-09
-9.36534e-09
-1.1586e-09
-2.34721e-09
-1.53628e-08
-1.13128e-09
-3.93971e-09
-2.95113e-08
-1.50388e-09
-5.8672e-09
-5.09754e-08
-1.97514e-09
-3.966e-09
-7.60831e-08
-1.55544e-09
4.52473e-09
-9.56431e-08
-3.53876e-09
3.09116e-08
-1.22588e-07
-1.09355e-09
7.30007e-08
-9.83787e-08
1.47398e-08
1.05299e-07
7.74501e-08
1.34716e-08
9.12336e-08
1.3862e-07
1.3646e-08
6.49504e-08
1.25848e-07
4.23836e-10
2.90596e-08
6.90936e-08
-5.59019e-09
1.01253e-08
1.26635e-08
-1.09784e-08
1.49361e-07
-3.13696e-09
-5.82139e-09
1.76408e-10
-1.12818e-08
-1.48249e-09
-8.1208e-09
1.22509e-09
-2.88771e-09
1.91758e-10
-8.95418e-10
-6.20758e-10
-4.19032e-10
-5.29583e-10
-4.24246e-10
-5.54075e-10
-5.76247e-10
-6.35369e-10
-1.00949e-09
-8.10186e-10
-1.18193e-09
-1.6414e-09
-9.08796e-11
-1.7196e-09
2.18289e-09
-1.32672e-09
1.14044e-08
1.23367e-09
2.92757e-08
4.64667e-09
6.28167e-08
1.1762e-09
5.87707e-08
7.55394e-09
4.25283e-08
5.14607e-09
2.00072e-08
-3.43224e-09
1.00045e-08
-6.68208e-09
-1.54769e-09
-7.1241e-08
7.14913e-08
-2.33151e-08
-6.69937e-08
1.26894e-09
-3.39412e-08
-6.50689e-08
4.6282e-09
-3.33918e-08
-7.21919e-08
1.14571e-08
-3.01459e-08
-7.43284e-08
7.60988e-09
-1.75793e-08
-7.01064e-08
1.57617e-09
-9.12425e-09
-6.20067e-08
-1.33229e-09
-2.31325e-09
-3.96383e-08
-1.82739e-08
-6.08303e-09
-3.88132e-09
-4.10447e-08
-5.60845e-09
5.85728e-08
-7.06152e-08
-1.6175e-08
1.15039e-07
-6.35461e-08
-1.96145e-08
1.1267e-07
1.57878e-08
-1.46058e-08
1.4164e-08
7.18566e-08
-2.61001e-08
-5.27283e-08
5.75004e-08
-1.00247e-08
-5.25895e-08
4.9369e-09
-9.23904e-10
-3.92332e-08
-7.88567e-09
-1.70447e-10
-9.19078e-09
-2.3298e-08
-6.9029e-11
3.84347e-08
-4.07839e-08
9.55955e-10
6.78865e-08
-2.21273e-08
2.57768e-10
7.14745e-08
-1.97649e-09
-4.49132e-08
1.15754e-07
-5.98297e-09
-5.30916e-08
1.36605e-08
1.39668e-08
-5.92378e-08
1.47231e-08
1.52927e-08
-5.78531e-08
1.4713e-08
1.59197e-08
-5.24811e-08
2.78611e-09
9.1805e-09
-4.43898e-08
-5.77581e-09
5.45723e-09
-3.13225e-08
-1.41019e-08
3.59455e-09
-1.48126e-08
-3.21889e-08
5.74718e-09
1.07772e-08
-6.20545e-08
1.78334e-09
3.49622e-08
-1.01105e-07
-6.52456e-09
5.23713e-08
-8.67182e-08
1.77981e-09
7.40918e-08
3.37513e-08
1.477e-08
2.69425e-08
1.21651e-07
2.45175e-09
2.45617e-09
7.90556e-08
-7.02369e-09
-7.00027e-09
1.45433e-08
5.41658e-10
-1.04595e-08
-4.0319e-09
2.58629e-10
-1.61124e-09
-3.22547e-08
1.05629e-10
1.5636e-08
-5.88723e-08
-1.01047e-10
2.67757e-08
-3.2717e-08
3.01367e-10
9.79347e-08
-2.88766e-10
-3.22557e-08
1.50375e-07
1.62047e-09
-3.86493e-08
1.67727e-08
1.3569e-08
-4.07481e-08
1.33135e-08
1.33503e-08
-3.69793e-08
8.23769e-09
9.98459e-09
-3.42095e-08
-1.28532e-09
5.68533e-09
-3.10471e-08
-9.98764e-09
2.79243e-09
-2.43703e-08
-2.18968e-08
5.56578e-10
-1.51283e-08
-4.17412e-08
3.56704e-10
5.64608e-10
-7.79641e-08
-2.71365e-09
1.51659e-08
-1.184e-07
5.11475e-10
3.74403e-08
-1.14055e-07
3.91865e-09
4.97655e-08
3.03813e-08
1.03311e-08
4.03826e-08
1.43173e-07
1.73162e-08
1.84562e-08
1.0015e-07
-4.02428e-09
2.48097e-09
3.09876e-08
5.17462e-11
-5.52289e-09
4.11436e-09
2.27145e-12
-3.55496e-09
-3.40003e-08
-2.75562e-10
6.97747e-09
-6.93449e-08
1.41387e-10
1.78998e-08
-4.3089e-08
4.80781e-10
1.15358e-07
-3.15477e-10
-2.11764e-08
1.73561e-07
1.75161e-09
-2.61247e-08
2.06281e-08
4.19488e-09
-2.61818e-08
1.2292e-08
3.29887e-09
-2.2521e-08
3.9525e-09
2.31365e-09
-2.04493e-08
-4.03915e-09
3.22223e-10
-1.94921e-08
-1.24188e-08
-1.66074e-11
-1.86182e-08
-2.43762e-08
-2.13056e-10
-1.7116e-08
-4.46184e-08
-3.22929e-10
-1.74816e-08
-7.98454e-08
-6.72439e-10
-1.788e-08
-1.19105e-07
3.93714e-09
4.17093e-09
-1.30899e-07
6.30007e-09
3.32988e-08
4.08109e-09
1.5318e-09
4.26902e-08
1.35659e-07
3.5037e-09
3.30069e-08
1.09606e-07
-2.73638e-09
1.7345e-08
4.6862e-08
-7.78395e-10
6.07196e-09
1.51206e-08
1.09269e-10
-2.83149e-09
-2.45698e-08
-8.0362e-10
-1.95966e-09
-7.01718e-08
-4.19633e-10
9.11803e-09
-5.44751e-08
5.5575e-10
1.24158e-07
-1.55812e-10
-1.41653e-08
1.89638e-07
3.84097e-10
-1.98293e-08
2.5965e-08
7.90032e-10
-1.92998e-08
1.16436e-08
3.10072e-10
-1.52992e-08
-4.39695e-11
2.19516e-10
-1.20093e-08
-6.21258e-09
-1.19433e-10
-1.18759e-08
-1.24711e-08
2.19843e-12
-1.45633e-08
-2.17207e-08
-2.54734e-10
-2.08806e-08
-3.9208e-08
-5.62672e-10
-3.1655e-08
-6.95341e-08
4.90383e-10
-3.77248e-08
-1.11345e-07
6.03823e-10
-3.63556e-08
-1.27814e-07
-5.67802e-09
1.28943e-08
-4.52751e-08
-2.66276e-08
6.06384e-08
8.85842e-08
-3.10775e-08
5.9184e-08
1.0805e-07
-1.14276e-08
3.41257e-08
7.22938e-08
-2.98163e-09
1.66871e-08
3.2548e-08
2.32699e-09
6.54776e-10
-7.5481e-09
-1.26662e-09
-8.64769e-09
-6.09721e-08
-1.13022e-09
1.72671e-09
-6.46089e-08
1.35317e-09
1.2528e-07
-1.54146e-10
-1.12445e-08
2.02338e-07
7.21199e-10
-1.80376e-08
3.21676e-08
1.96063e-10
-1.80239e-08
1.13218e-08
-3.90559e-10
-1.26102e-08
-5.77242e-09
-6.96138e-10
-7.4506e-09
-1.15043e-08
-6.2512e-10
-6.44253e-09
-1.35901e-08
-2.91228e-10
-9.42427e-09
-1.88353e-08
-2.05176e-10
-1.70769e-08
-3.12947e-08
-3.37315e-10
-3.16211e-08
-5.61429e-08
-1.65712e-09
-4.7337e-08
-9.38554e-08
4.49777e-10
-5.64077e-08
-1.16437e-07
3.07499e-09
-6.19278e-09
-1.0935e-07
4.04282e-08
9.57164e-08
-8.94729e-09
-2.02588e-08
1.21962e-07
8.81579e-08
-2.76055e-08
8.88193e-08
1.06923e-07
-2.04769e-08
4.61617e-08
7.52666e-08
-6.23397e-09
1.77763e-08
2.32363e-08
-2.73663e-09
-2.22365e-09
-3.94919e-08
2.0382e-09
-1.33897e-09
-6.49654e-08
7.98047e-10
1.22786e-07
-1.93063e-10
-9.97255e-09
2.14849e-07
7.20314e-10
-1.80141e-08
3.94025e-08
-4.99281e-12
-1.87489e-08
1.16187e-08
-8.70594e-10
-1.15632e-08
-1.41177e-08
-1.6391e-09
-5.30014e-09
-1.96117e-08
-1.0624e-09
-3.47672e-09
-1.57027e-08
-6.45081e-10
-5.10211e-09
-1.73665e-08
-4.59473e-10
-8.81405e-09
-2.76846e-08
-8.67865e-10
-1.6545e-08
-4.91895e-08
-1.25035e-09
-2.9485e-08
-8.14626e-08
-1.37707e-09
-3.83914e-08
-1.06939e-07
-4.47736e-09
-1.76103e-08
-1.27302e-07
-1.33184e-08
6.28408e-08
-1.13213e-07
5.18271e-08
1.53802e-07
8.13619e-09
-4.49408e-09
1.50989e-07
1.10065e-07
-6.02897e-09
1.19909e-07
1.07724e-07
-1.57152e-08
7.25932e-08
7.34912e-08
-9.68667e-09
2.52731e-08
3.84057e-09
1.57667e-10
4.99024e-09
-4.50366e-08
-1.98213e-09
1.26247e-07
-5.41095e-10
-7.80761e-09
2.24759e-07
1.08356e-10
-1.64982e-08
4.6451e-08
-3.59117e-10
-1.77525e-08
1.22377e-08
-1.13886e-09
-8.8909e-09
-2.45554e-08
-1.2949e-09
-3.05121e-09
-2.72249e-08
-9.00761e-10
-1.68693e-09
-1.75788e-08
-7.62205e-10
-2.85324e-09
-1.6592e-08
-4.78866e-10
-5.35967e-09
-2.57109e-08
-3.79324e-10
-8.69919e-09
-4.64865e-08
-8.6539e-11
-1.29031e-08
-7.83339e-08
-3.66358e-09
-1.23e-08
-1.06444e-07
-7.38648e-09
-2.90398e-09
-1.36805e-07
-1.01378e-08
4.10784e-08
-1.56027e-07
-1.12568e-08
1.21841e-07
-9.0871e-08
4.91292e-08
1.39788e-07
8.98334e-08
2.72427e-08
1.22192e-07
1.24454e-07
8.41318e-09
8.39656e-08
1.08727e-07
-6.09909e-09
3.99477e-08
4.26366e-08
-8.73655e-10
8.546e-09
-1.49626e-08
-7.04605e-09
1.35161e-07
-2.65424e-09
-9.97409e-09
2.35564e-07
-6.58646e-10
-1.728e-08
5.28066e-08
-1.01313e-10
-1.50147e-08
1.02598e-08
-2.84163e-10
-4.99281e-09
-3.58208e-08
2.1342e-10
-1.21299e-09
-3.20185e-08
-5.07471e-10
-7.4373e-10
-1.878e-08
-5.59612e-10
-1.40317e-09
-1.65642e-08
-5.41232e-10
-2.31045e-09
-2.54346e-08
-5.19484e-10
-3.64639e-09
-4.59632e-08
-7.19371e-10
-5.03824e-09
-7.83805e-08
-5.74615e-10
-2.85961e-09
-1.10098e-07
-1.93386e-10
3.9146e-09
-1.45835e-07
-1.7992e-09
2.56136e-08
-1.81028e-07
-1.58445e-09
6.95899e-08
-1.37888e-07
1.8192e-08
1.1552e-07
4.92753e-08
7.70462e-09
1.0944e-07
1.2721e-07
1.68915e-08
8.80629e-08
1.26959e-07
3.77522e-09
4.52474e-08
8.20535e-08
-1.96186e-09
1.27905e-08
1.57078e-08
-9.4607e-09
1.49918e-07
-4.90142e-09
-5.3331e-09
-4.38623e-10
-1.30952e-08
-2.20927e-10
-8.92866e-09
4.78441e-10
-2.4749e-09
6.28465e-10
-8.88493e-10
-1.67637e-10
-4.11917e-10
-1.85684e-10
-3.2849e-10
-2.161e-10
-3.72222e-10
-2.16815e-10
-6.50417e-10
-2.18602e-10
-9.5087e-10
-5.45458e-10
-3.07245e-10
-7.70018e-10
1.11227e-09
-6.05926e-10
6.85583e-09
3.46568e-09
3.18651e-08
3.10802e-09
6.66555e-08
-1.3362e-09
6.90387e-08
6.92551e-09
5.68375e-08
6.69091e-09
2.89191e-08
-1.79048e-09
1.21565e-08
-6.4545e-09
-2.97452e-09
-7.15489e-08
4.01508e-08
1.39516e-08
-6.74709e-08
-2.55683e-08
-6.30229e-09
-6.74554e-08
-2.26692e-08
-4.70432e-09
-7.57675e-08
-1.25387e-08
-3.19768e-09
-7.82516e-08
-4.6129e-09
-4.15359e-09
-7.36543e-08
-3.33924e-09
-3.96101e-09
-6.37659e-08
-6.00905e-09
2.1077e-10
-4.0667e-08
-2.62702e-08
3.64588e-09
-4.52195e-09
-4.45004e-08
9.47785e-09
5.53625e-08
-7.92238e-08
1.01049e-08
1.11208e-07
-7.76589e-08
8.73739e-09
1.18536e-07
-2.43628e-08
8.2925e-09
1.60844e-08
5.69435e-08
2.62454e-08
-5.31403e-08
5.53772e-08
1.01244e-08
-5.32012e-08
3.59807e-09
1.50894e-09
-3.96109e-08
-8.46796e-09
8.91001e-10
-9.38907e-09
-2.40383e-08
1.8648e-10
3.92576e-08
-4.09387e-08
-1.68209e-13
6.85042e-08
-2.24189e-08
-9.13974e-11
6.97663e-08
2.34855e-09
-4.55978e-08
7.87092e-08
1.73027e-09
-5.58449e-08
-2.28312e-09
1.21593e-09
-6.12563e-08
-5.01019e-10
-1.18249e-09
-5.93811e-08
1.97437e-09
-1.98935e-10
-5.45291e-08
-2.29065e-09
2.25417e-09
-4.54747e-08
-8.98061e-09
1.11977e-09
-3.15131e-08
-1.72174e-08
-4.70131e-10
-1.49634e-08
-3.66387e-08
-1.70531e-09
9.65986e-09
-6.77134e-08
4.60457e-10
2.82636e-08
-1.14023e-07
9.79554e-09
5.65248e-08
-1.05429e-07
1.46598e-09
7.12024e-08
-1.88313e-08
-5.53481e-09
4.19203e-08
9.0093e-08
-1.02988e-09
3.42174e-09
7.9517e-08
8.07981e-09
-6.97843e-09
1.49238e-08
-2.94136e-10
-1.07509e-08
-4.0195e-09
-2.91779e-10
-1.66456e-09
-3.28917e-08
-2.02899e-10
1.60431e-08
-5.92081e-08
3.82528e-10
2.73251e-08
-3.3117e-08
-3.10691e-10
9.68819e-08
1.55537e-10
-3.20905e-08
1.1229e-07
5.86084e-10
-3.88176e-08
1.29632e-08
5.00751e-09
-4.0703e-08
9.46995e-09
4.18698e-09
-3.74654e-08
4.93073e-09
2.42458e-09
-3.49902e-08
-1.87839e-09
1.33437e-09
-3.17093e-08
-1.1788e-08
7.82952e-10
-2.48885e-08
-2.4826e-08
-1.86611e-10
-1.60452e-08
-4.68616e-08
2.4477e-10
-3.31667e-09
-8.52855e-08
2.0106e-09
6.52636e-09
-1.30734e-07
7.45772e-09
3.00309e-08
-1.30051e-07
4.99074e-09
3.70772e-08
-6.98011e-09
-8.9849e-09
4.55476e-08
1.10834e-07
-1.24171e-08
2.1289e-08
9.44958e-08
5.67071e-09
2.92943e-09
3.349e-08
-4.2924e-10
-5.71756e-09
4.49244e-09
9.11901e-11
-3.75798e-09
-3.47536e-08
-3.9776e-10
7.25614e-09
-6.99546e-08
-1.65676e-10
1.83663e-08
-4.35777e-08
-1.5286e-10
1.14589e-07
3.07301e-10
-2.18142e-08
1.35243e-07
8.55078e-10
-2.68146e-08
1.98348e-08
2.20786e-09
-2.69117e-08
1.11603e-08
1.69866e-09
-2.32327e-08
2.17365e-09
1.38469e-09
-2.10306e-08
-5.17521e-09
8.77955e-11
-2.00006e-08
-1.32846e-08
-1.19787e-10
-1.92284e-08
-2.60173e-08
-4.3833e-11
-1.83395e-08
-4.85128e-08
1.12792e-10
-2.11863e-08
-8.75303e-08
3.32956e-09
-2.3228e-08
-1.30704e-07
5.97138e-09
-7.9144e-10
-1.44375e-07
-1.96689e-09
2.82101e-08
-2.66411e-08
-8.16743e-09
4.50199e-08
1.02209e-07
-4.8217e-09
3.66048e-08
9.75517e-08
2.78094e-09
1.86083e-08
5.02251e-08
3.37312e-10
6.32977e-09
1.60734e-08
6.88314e-10
-2.94288e-09
-2.4966e-08
-1.31989e-09
-1.99409e-09
-7.09981e-08
-3.60088e-10
9.47704e-09
-5.49698e-08
7.13707e-10
1.23415e-07
2.8594e-10
-1.54578e-08
1.50124e-07
1.14444e-09
-2.04908e-08
2.54859e-08
5.25911e-11
-1.99986e-08
1.17576e-08
3.52874e-10
-1.58205e-08
-6.5013e-10
2.72679e-10
-1.23784e-08
-8.68452e-09
1.95132e-10
-1.21831e-08
-1.3397e-08
-8.1317e-11
-1.49627e-08
-2.3256e-08
-2.46478e-10
-2.17703e-08
-4.18504e-08
-4.24519e-10
-3.3239e-08
-7.61912e-08
-6.3318e-10
-3.98633e-08
-1.22083e-07
-1.43396e-09
-4.24995e-08
-1.42972e-07
-4.46252e-09
5.07042e-09
-9.02563e-08
-1.04663e-08
6.45167e-08
2.85027e-08
-1.6327e-08
6.54764e-08
8.33884e-08
2.10322e-09
3.80506e-08
7.02092e-08
4.49671e-09
1.83207e-08
3.76303e-08
2.9708e-10
8.69747e-10
-5.87264e-09
-2.96517e-09
-9.08972e-09
-6.10293e-08
-1.1578e-09
2.19073e-09
-6.53067e-08
5.05187e-10
1.24548e-07
6.99492e-10
-1.29176e-08
1.63388e-07
4.80273e-10
-1.87403e-08
3.17562e-08
-3.78101e-10
-1.87585e-08
1.09732e-08
4.09069e-10
-1.31081e-08
-7.75059e-09
7.51668e-10
-7.68583e-09
-1.54886e-08
6.3205e-10
-6.5278e-09
-1.51079e-08
2.61127e-10
-9.38977e-09
-2.06741e-08
6.92185e-11
-1.63132e-08
-3.41769e-08
-1.08672e-09
-3.01729e-08
-6.13905e-08
-2.97666e-09
-4.72434e-08
-1.02031e-07
-3.22845e-09
-5.72677e-08
-1.30594e-07
8.22202e-10
-1.08418e-08
-1.33921e-07
3.76703e-08
7.70513e-08
-8.20756e-08
3.47636e-09
1.28942e-07
1.88594e-08
-1.47124e-08
9.99785e-08
7.92037e-08
-1.72753e-10
5.48021e-08
7.50219e-08
1.22592e-09
1.97063e-08
2.92606e-08
-2.89157e-09
-1.20177e-09
-3.41328e-08
-4.0217e-09
-6.3904e-10
-6.529e-08
1.67056e-10
1.21772e-07
1.97896e-09
-1.16937e-08
1.75735e-07
2.01672e-10
-1.87889e-08
3.89872e-08
-2.48511e-10
-1.94437e-08
9.95e-09
8.3393e-10
-1.20743e-08
-1.84325e-08
1.69506e-09
-5.38911e-09
-2.46482e-08
1.07905e-09
-3.49215e-09
-1.82809e-08
6.3145e-10
-5.08483e-09
-1.98663e-08
3.24069e-10
-8.5464e-09
-3.13039e-08
-3.05795e-10
-1.51293e-08
-5.50135e-08
-1.22696e-09
-2.56603e-08
-8.98081e-08
-4.71691e-09
-3.4211e-08
-1.17517e-07
-1.05826e-08
-1.93422e-08
-1.48271e-07
-1.51767e-08
6.24666e-08
-1.4241e-07
3.0503e-08
1.44466e-07
-6.77688e-08
5.33893e-10
1.58222e-07
6.2152e-08
-2.83722e-09
1.38907e-07
8.51222e-08
-6.52958e-09
8.95454e-08
7.36897e-08
-4.83691e-09
3.28825e-08
1.60215e-08
6.72187e-09
6.38536e-09
-4.23723e-08
1.41021e-09
1.24425e-07
3.46199e-09
-1.00792e-08
1.85605e-07
4.41835e-10
-1.73885e-08
4.56494e-08
1.84145e-10
-1.82792e-08
8.4472e-09
1.2692e-09
-8.80747e-09
-3.10707e-08
1.57899e-09
-2.82419e-09
-3.25802e-08
9.23667e-10
-1.58818e-09
-2.10584e-08
7.82452e-10
-2.73646e-09
-1.97577e-08
5.63764e-10
-5.06078e-09
-2.99308e-08
5.68922e-10
-8.12725e-09
-5.295e-08
9.30342e-10
-1.23401e-08
-8.79042e-08
-2.22063e-09
-1.15801e-08
-1.18256e-07
-8.95327e-09
-1.46281e-09
-1.59065e-07
-1.11658e-08
3.98418e-08
-1.79982e-07
-1.65563e-08
1.12983e-07
-1.30047e-07
3.83694e-08
1.4524e-07
3.9038e-08
1.77014e-08
1.39905e-07
9.70539e-08
1.539e-09
1.06938e-07
9.93539e-08
1.44871e-09
5.54632e-08
5.81575e-08
8.7136e-09
1.20521e-08
-9.52287e-09
3.34896e-09
1.32756e-07
1.38782e-09
-1.16596e-08
1.95867e-07
9.10819e-10
-1.80306e-08
5.18392e-08
-5.76866e-11
-1.55366e-08
5.22459e-09
4.51762e-10
-4.61223e-09
-4.31625e-08
-1.95908e-10
-1.06439e-09
-3.71441e-08
5.02585e-10
-6.45887e-10
-2.25882e-08
5.63848e-10
-1.2907e-09
-2.01267e-08
4.79176e-10
-2.11625e-09
-2.99547e-08
3.39416e-10
-3.25633e-09
-5.24924e-08
-2.09167e-11
-4.59083e-09
-8.80006e-08
8.70905e-10
-3.05976e-09
-1.22497e-07
2.32929e-09
2.98232e-09
-1.67725e-07
1.77671e-10
2.0047e-08
-2.04165e-07
2.84035e-09
7.61685e-08
-1.62662e-07
-6.55188e-09
1.12065e-07
9.08641e-09
1.66684e-09
1.22512e-07
1.01014e-07
2.10684e-09
1.0541e-07
1.16255e-07
4.19457e-09
6.36372e-08
9.20675e-08
6.22795e-09
1.84962e-08
2.23191e-08
3.70864e-09
1.47284e-07
-5.76774e-10
-7.19229e-09
8.06017e-10
-1.3466e-08
1.89787e-11
-9.8113e-09
-4.44935e-10
-2.31391e-09
-5.66444e-10
-8.51577e-10
1.74132e-10
-4.01183e-10
1.88057e-10
-3.00376e-10
2.15614e-10
-3.24226e-10
2.30974e-10
-5.5976e-10
2.3796e-10
-8.26442e-10
1.00239e-10
-3.22467e-10
-2.23955e-10
8.1936e-10
-5.56241e-10
5.38829e-09
4.57887e-09
3.60593e-08
-5.27939e-09
6.30034e-08
-2.84436e-09
7.67672e-08
-6.90077e-09
6.8818e-08
3.19782e-09
4.04637e-08
4.15914e-09
1.59612e-08
1.76434e-09
-1.414e-09
-7.074e-08
6.72324e-08
2.29228e-08
-6.60474e-08
-1.9454e-08
1.44308e-08
-6.46013e-08
-1.46159e-08
1.43028e-08
-7.18178e-08
-3.39468e-09
1.32895e-08
-7.40483e-08
-1.5432e-09
5.89253e-09
-7.02877e-08
-1.05196e-09
-2.43387e-10
-6.22196e-08
-2.34897e-09
9.45549e-10
-3.97763e-08
-2.0144e-08
7.89807e-09
-3.6301e-09
-3.91353e-08
1.91701e-08
5.75039e-08
-7.36303e-08
2.96352e-08
1.12858e-07
-6.81306e-08
2.81183e-08
1.11888e-07
1.13399e-08
3.36889e-09
1.36396e-08
7.18407e-08
5.91435e-08
-5.28636e-08
5.74247e-08
2.53449e-08
-5.26946e-08
5.1764e-09
2.13317e-09
-3.92535e-08
-7.72593e-09
1.37538e-09
-9.20627e-09
-2.30886e-08
-3.44189e-10
3.85016e-08
-4.01978e-08
-7.81454e-10
6.7931e-08
-2.20594e-08
-1.18551e-09
7.16404e-08
4.24019e-09
-4.50962e-08
1.09491e-07
5.18695e-09
-5.40297e-08
-7.8372e-11
-8.79253e-09
-5.96401e-08
2.32485e-09
-1.1933e-08
-5.75355e-08
4.94063e-09
-1.00367e-08
-5.29911e-08
-1.20502e-09
-2.34506e-09
-4.45603e-08
-7.00551e-09
-1.29924e-09
-3.13583e-08
-1.42308e-08
-1.78053e-09
-1.47576e-08
-3.21235e-08
-6.35269e-09
1.03892e-08
-6.04895e-08
-3.48757e-09
3.27004e-08
-1.04498e-07
1.83179e-08
4.94912e-08
-9.0873e-08
7.79092e-09
7.24313e-08
3.15507e-08
-4.90879e-08
2.62055e-08
1.21867e-07
-4.65191e-09
2.19792e-09
7.90939e-08
1.06961e-08
-7.08993e-09
1.4744e-08
-4.74472e-10
-1.04604e-08
-3.97701e-09
-5.51449e-10
-1.64713e-09
-3.20834e-08
-6.78498e-11
1.57646e-08
-5.81642e-08
9.8624e-10
2.68042e-08
-3.26317e-08
-9.29586e-10
9.80826e-08
7.61171e-10
-3.15102e-08
1.45051e-07
-2.96206e-09
-3.73852e-08
1.31081e-08
-2.3616e-09
-3.9315e-08
1.02488e-08
-1.73604e-09
-3.63028e-08
5.25399e-09
-1.83635e-09
-3.41257e-08
-1.52932e-09
-1.93827e-09
-3.10825e-08
-9.93857e-09
-7.74927e-10
-2.43931e-08
-2.07172e-08
-6.84689e-10
-1.53473e-08
-4.08026e-08
-9.52032e-11
-7.99808e-10
-7.7431e-08
4.4451e-09
1.27366e-08
-1.2166e-07
1.11196e-08
3.38064e-08
-1.16367e-07
9.47131e-09
4.65214e-08
3.21034e-08
-2.27462e-08
3.9256e-08
1.42667e-07
-2.58448e-08
1.83737e-08
9.95176e-08
6.29132e-09
2.56594e-09
3.09509e-08
-1.12489e-09
-5.45111e-09
4.21232e-09
-1.2521e-10
-3.67335e-09
-3.40002e-08
-2.01988e-10
7.14696e-09
-6.87661e-08
-2.20086e-10
1.79154e-08
-4.29026e-08
-6.50305e-10
1.15506e-07
7.62935e-10
-2.06821e-08
1.68897e-07
-2.02379e-09
-2.59078e-08
2.01271e-08
2.69893e-10
-2.60075e-08
1.20066e-08
4.12689e-11
-2.25004e-08
2.74209e-09
4.01114e-10
-2.04539e-08
-4.164e-09
-8.77908e-11
-1.95245e-08
-1.24014e-08
-1.34925e-10
-1.87434e-08
-2.3192e-08
1.4253e-10
-1.75608e-08
-4.24063e-08
5.5034e-10
-1.93073e-08
-7.98948e-08
7.65851e-09
-2.02731e-08
-1.22207e-07
7.49542e-09
2.47056e-09
-1.33249e-07
-7.88073e-09
3.38693e-08
-1.76101e-09
-6.15291e-09
4.26986e-08
1.3817e-07
-9.08167e-09
3.28394e-08
1.09833e-07
2.4617e-09
1.74223e-08
4.65045e-08
2.96158e-11
6.3468e-09
1.53072e-08
5.46121e-10
-2.88916e-09
-2.50812e-08
-9.5596e-10
-1.94817e-09
-6.99184e-08
1.3018e-11
9.12376e-09
-5.38766e-08
9.62362e-10
1.24355e-07
3.63034e-10
-1.39516e-08
1.8531e-07
-1.12671e-09
-1.97738e-08
2.58215e-08
7.47509e-11
-1.92869e-08
1.16195e-08
2.38898e-10
-1.53027e-08
-6.89345e-11
9.09173e-11
-1.20175e-08
-6.16093e-09
2.75717e-10
-1.19326e-08
-1.2468e-08
-2.08083e-10
-1.47879e-08
-2.17094e-08
-1.38557e-10
-2.14364e-08
-3.75258e-08
4.96356e-11
-3.304e-08
-6.90622e-08
2.40989e-10
-4.00711e-08
-1.14372e-07
-2.32183e-09
-4.37667e-08
-1.33001e-07
-9.26509e-10
5.99302e-09
-8.45384e-08
2.31643e-08
6.26487e-08
4.35768e-08
2.26908e-08
6.00506e-08
1.02524e-07
1.22149e-08
3.52699e-08
7.14809e-08
4.14735e-09
1.85012e-08
3.4599e-08
-2.53682e-09
4.316e-10
-7.13437e-09
-2.91091e-09
-9.30129e-09
-6.11744e-08
2.71807e-11
1.63483e-09
-6.3659e-08
-2.36848e-10
1.25538e-07
9.25799e-10
-1.10867e-08
1.98254e-07
-1.21501e-09
-1.80117e-08
3.20648e-08
2.30309e-10
-1.8022e-08
1.1324e-08
7.10034e-10
-1.26118e-08
-5.77725e-09
1.04524e-09
-7.45425e-09
-1.14373e-08
1.04136e-09
-6.465e-09
-1.35958e-08
3.71109e-10
-9.48504e-09
-1.88486e-08
1.6036e-10
-1.74319e-08
-3.11403e-08
-1.04151e-09
-3.22017e-08
-5.53047e-08
-3.02026e-09
-4.90576e-08
-9.30207e-08
-7.81946e-09
-5.91934e-08
-1.16666e-07
-5.4082e-09
-1.54225e-08
-1.1659e-07
2.58712e-08
7.76406e-08
-8.50182e-08
4.0695e-08
1.24648e-07
1.70136e-08
2.45826e-08
8.97293e-08
8.76894e-08
1.86579e-08
4.61997e-08
7.613e-08
2.74121e-09
1.65333e-08
2.60109e-08
-6.5461e-09
-3.44316e-09
-3.75852e-08
-7.62408e-09
-1.35264e-09
-6.43784e-08
-9.18144e-10
1.23274e-07
2.88268e-09
-9.87399e-09
2.10975e-07
-2.52167e-09
-1.80139e-08
3.93181e-08
5.73236e-10
-1.87503e-08
1.16146e-08
1.29649e-09
-1.15677e-08
-1.41036e-08
2.85016e-09
-5.30139e-09
-1.95669e-08
1.63341e-09
-3.48863e-09
-1.57016e-08
9.23175e-10
-5.17002e-09
-1.73697e-08
5.22084e-10
-9.09534e-09
-2.77134e-08
-4.215e-11
-1.70943e-08
-4.86805e-08
-1.47138e-09
-2.9152e-08
-7.91594e-08
-7.96913e-09
-3.76167e-08
-1.03568e-07
-1.52209e-08
-1.84973e-08
-1.32017e-07
-1.86784e-08
5.6723e-08
-1.27061e-07
-3.10797e-09
1.3726e-07
-7.21506e-08
9.95227e-09
1.54052e-07
5.8346e-08
9.70384e-09
1.31985e-07
8.63408e-08
5.25042e-09
8.06106e-08
7.31002e-08
-7.03579e-10
2.7101e-08
1.36495e-08
8.93953e-09
4.96438e-09
-4.35156e-08
2.62066e-09
1.26762e-07
5.15777e-09
-7.74413e-09
2.21075e-07
-1.84996e-09
-1.65268e-08
4.63895e-08
1.79718e-09
-1.77714e-08
1.22771e-08
1.85346e-09
-8.91012e-09
-2.44496e-08
3.07399e-09
-3.05315e-09
-2.72134e-08
1.57254e-09
-1.67834e-09
-1.75802e-08
1.28196e-09
-2.81016e-09
-1.65999e-08
9.17974e-10
-5.34157e-09
-2.57034e-08
1.06109e-09
-8.89928e-09
-4.62779e-08
1.50316e-09
-1.32833e-08
-7.74317e-08
-1.19582e-09
-1.31191e-08
-1.06678e-07
-7.69897e-09
-3.28718e-09
-1.47821e-07
-6.87402e-09
3.98015e-08
-1.62136e-07
-2.4362e-08
1.06849e-07
-1.12839e-07
1.16251e-08
1.43128e-07
4.93492e-08
-1.04048e-08
1.35794e-07
9.72924e-08
-2.43754e-09
9.9844e-08
9.81945e-08
1.25345e-08
4.99424e-08
5.67594e-08
1.56515e-08
1.02113e-08
-1.02823e-08
9.58691e-09
1.35117e-07
3.53753e-09
-9.85573e-09
2.31908e-07
5.60186e-11
-1.73005e-08
5.2793e-08
8.39276e-10
-1.50562e-08
1.03748e-08
1.13938e-10
-5.01316e-09
-3.57005e-08
1.08289e-10
-1.21863e-09
-3.20224e-08
1.21167e-09
-7.4985e-10
-1.87815e-08
1.28565e-09
-1.44072e-09
-1.65659e-08
1.12201e-09
-2.36181e-09
-2.54268e-08
9.66315e-10
-3.66091e-09
-4.57203e-08
6.96123e-10
-5.23558e-09
-7.71918e-08
1.98461e-09
-3.32316e-09
-1.10911e-07
2.92188e-09
3.46697e-09
-1.56029e-07
-4.05081e-10
2.5224e-08
-1.88209e-07
2.37157e-09
6.9886e-08
-1.40918e-07
-2.30011e-08
1.13695e-07
3.96946e-08
-3.32506e-08
1.20835e-07
1.04053e-07
-1.209e-08
1.02273e-07
1.13722e-07
7.50427e-09
6.00696e-08
9.02835e-08
1.52024e-08
1.73488e-08
2.21424e-08
1.37787e-08
1.49416e-07
2.8179e-09
-5.2282e-09
1.61365e-11
-1.31133e-08
1.37194e-09
-8.95678e-09
-1.19994e-09
-2.48137e-09
-1.24641e-10
-8.88247e-10
6.24788e-10
-4.11993e-10
5.32586e-10
-3.30091e-10
5.57607e-10
-3.72037e-10
6.60287e-10
-6.07777e-10
7.39154e-10
-9.03421e-10
6.93826e-10
-3.02142e-10
9.88214e-10
1.01507e-09
-1.06292e-09
6.46274e-09
5.83178e-09
2.96053e-08
9.63536e-10
6.71424e-08
-1.97284e-08
7.75772e-08
-2.38715e-08
6.79223e-08
4.00012e-12
3.84884e-08
1.03576e-08
1.51511e-08
8.85086e-09
4.23011e-10
-6.7309e-08
9.67327e-08
-6.12602e-08
1.40814e-08
-5.88691e-08
1.76145e-08
-6.26542e-08
2.28492e-08
-6.37578e-08
1.30239e-08
-6.09332e-08
3.24318e-09
-5.60649e-08
2.43697e-09
-3.79741e-08
-3.70883e-09
6.93124e-10
-1.28203e-08
6.76296e-08
-3.03937e-08
1.13272e-07
-1.10778e-08
3.90198e-08
8.41612e-08
-2.16143e-08
1.25296e-07
-4.96081e-08
5.84771e-08
-4.92037e-08
7.66362e-09
-3.65612e-08
-5.05774e-09
-9.15798e-09
-2.12192e-08
3.70548e-08
-4.0034e-08
6.43919e-08
-2.17832e-08
7.4075e-08
-4.08304e-08
1.41765e-07
-4.8613e-08
1.31477e-08
-5.4505e-08
1.17556e-08
-5.3222e-08
1.19948e-08
-4.59041e-08
3.90015e-09
-3.98732e-08
-3.80512e-09
-2.91005e-08
-1.00565e-08
-1.50388e-08
-2.40985e-08
9.4787e-09
-4.07486e-08
4.72912e-08
-5.0068e-08
7.76256e-08
-3.37975e-08
5.80885e-08