/*--------------------------------*- C++ -*----------------------------------*\
| =========                 |                                                 |
| \\      /  F ield         | OpenFOAM: The Open Source CFD Toolbox           |
|  \\    /   O peration     | Version:  2.3.0                                 |
|   \\  /    A nd           | Web:      www.OpenFOAM.org                      |
|    \\/     M anipulation  |                                                 |
\*---------------------------------------------------------------------------*/
FoamFile
{
    version     2.0;
    format      ascii;
    class       volVectorField;
    location    "4.19953";
    object      Ur;
}
// * * * * * * * * * * * * * * * * * * * * * * * * * * * * * * * * * * * * * //

dimensions      [0 1 -1 0 0 0 0];

internalField   nonuniform List<vector> 
1000
(
(-1.06459e-05 0.00405485 -1.18988e-05)
(-1.69647e-05 0.00264347 -9.85934e-06)
(-3.5398e-05 0.00266184 -1.0552e-05)
(-6.34447e-05 0.00248578 -1.40175e-05)
(-5.43806e-05 0.00205003 -7.4528e-06)
(-2.25048e-05 0.0022514 -7.93237e-06)
(-1.82758e-05 0.00262159 -5.77078e-06)
(-6.69108e-05 0.00312185 -4.43457e-06)
(-6.00113e-05 0.00363585 -1.15685e-05)
(7.4452e-05 0.00417937 -4.82399e-06)
(0.000286003 0.00402521 -8.49633e-06)
(0.000105089 0.00246638 3.34694e-05)
(-0.000143526 0.0023894 -1.82995e-05)
(9.96943e-05 0.00202369 -4.35041e-05)
(2.43024e-05 0.00267232 -5.41653e-06)
(-4.03142e-05 0.00312712 -4.38512e-07)
(-6.08649e-05 0.00370708 1.85885e-06)
(5.18497e-05 0.0042685 7.57472e-06)
(0.00012312 0.00393076 1.92086e-05)
(2.93046e-05 0.00234204 -9.79788e-06)
(8.52149e-05 0.00340225 -3.40768e-06)
(4.94576e-05 0.00234688 -9.92182e-06)
(-4.40718e-06 0.00235468 -1.40436e-05)
(-2.63108e-05 0.00237018 -1.78397e-08)
(-3.33018e-05 0.00229537 3.86628e-06)
(-4.32208e-05 0.00231642 2.96901e-06)
(-3.88969e-05 0.00233497 2.24219e-06)
(-3.43507e-05 0.00235872 1.01435e-06)
(-2.38628e-05 0.00241635 1.19297e-05)
(-3.73813e-05 0.00245261 -7.99556e-06)
(0.000163151 0.00246303 8.06259e-07)
(-3.54084e-05 0.00276561 3.94052e-05)
(4.89502e-05 0.00246247 4.51392e-05)
(0.000133625 0.0021384 -3.66951e-06)
(-6.67083e-06 0.00223538 -1.01527e-06)
(-2.59849e-05 0.00226942 1.44837e-06)
(-3.40693e-05 0.00226714 -6.63343e-07)
(3.9218e-06 0.00232076 -1.20943e-05)
(3.19775e-05 0.00236423 3.39367e-05)
(-5.40518e-05 0.00230079 3.4928e-06)
(8.75187e-05 0.00244725 -1.66267e-05)
(3.96232e-05 0.00219629 -8.16162e-06)
(-1.42955e-05 0.00221596 -7.59718e-06)
(-4.37185e-05 0.00230387 -4.61182e-06)
(-4.18789e-05 0.00235833 3.02723e-07)
(-2.7497e-05 0.00198159 3.59174e-06)
(-2.7388e-05 0.00206089 5.04e-06)
(-1.48125e-05 0.00235827 3.63303e-06)
(1.33889e-05 0.00237267 5.79253e-06)
(0.000127538 0.00237927 -6.63154e-06)
(0.000232076 0.00243946 -8.13993e-06)
(-9.47792e-05 0.00273211 5.53007e-06)
(1.91827e-05 0.0023954 1.65257e-05)
(0.000111052 0.00212135 -3.49272e-06)
(1.97354e-05 0.00222034 -1.46167e-07)
(-2.52708e-05 0.00226081 5.66373e-07)
(-1.69768e-05 0.00224284 -2.89842e-06)
(-6.98899e-06 0.0022242 -1.27112e-05)
(6.05972e-05 0.00234855 1.44966e-05)
(-4.03165e-05 0.00236407 5.28653e-07)
(4.79357e-05 0.00227228 -8.93689e-06)
(1.51434e-05 0.00229363 -1.93033e-06)
(-1.94362e-05 0.00229989 -2.93762e-06)
(-3.02349e-05 0.00231483 -2.01794e-06)
(-2.26617e-05 0.00208157 9.1451e-07)
(-8.7597e-06 0.00102395 8.10137e-07)
(-1.11402e-06 0.00116996 1.26618e-07)
(6.56229e-06 0.00208743 -1.51436e-06)
(7.90222e-05 0.00233259 -8.07149e-06)
(0.000244204 0.00233857 1.9227e-06)
(0.000199849 0.00240571 1.4228e-05)
(-7.36917e-05 0.00245274 -7.35716e-06)
(3.78743e-05 0.00215226 -2.59345e-05)
(6.67021e-05 0.00202512 -3.99551e-06)
(5.47819e-05 0.00218996 7.70723e-07)
(-2.36653e-05 0.00224171 -8.85517e-07)
(-1.59389e-05 0.00221131 1.18632e-06)
(-3.55543e-05 0.00217562 -7.93444e-06)
(7.53566e-05 0.00233869 -1.19465e-05)
(-4.11691e-05 0.00233307 -6.6249e-06)
(4.32099e-05 0.00226216 -5.86412e-06)
(1.17351e-05 0.00232055 -1.17468e-06)
(-1.53827e-05 0.00231802 1.28616e-06)
(-2.06635e-05 0.00231622 -5.50455e-07)
(-1.43885e-05 0.0018134 -9.63663e-08)
(-1.32293e-06 0.000222532 -1.96125e-08)
(7.78866e-06 0.000299125 -1.70252e-07)
(1.74779e-05 0.00124358 -2.44975e-06)
(7.48566e-05 0.00230486 -5.04828e-06)
(0.000148792 0.00227506 9.69535e-06)
(4.82303e-05 0.00222228 2.63697e-05)
(7.14087e-05 0.00246012 -7.44775e-06)
(0.000165668 0.00202523 -2.48501e-05)
(0.000226207 0.00196781 3.58818e-06)
(9.98381e-05 0.00214567 4.93873e-06)
(-1.11065e-05 0.00222452 2.10965e-06)
(-4.21268e-05 0.00218423 6.15926e-07)
(-6.75963e-05 0.00214733 -6.18499e-06)
(1.66609e-05 0.00228101 -1.86935e-05)
(-2.55403e-05 0.00227353 -5.38328e-06)
(3.91266e-05 0.00224211 -2.5012e-06)
(6.84347e-06 0.00233341 -3.08332e-06)
(-1.85254e-05 0.00232906 -5.21805e-09)
(-1.70385e-05 0.00231543 -4.7171e-07)
(-1.12641e-05 0.00206066 -1.3737e-07)
(6.90162e-07 -5.10118e-06 -9.52304e-08)
(7.79482e-06 -2.37771e-06 -2.12749e-07)
(1.55198e-05 0.000338718 -5.62813e-07)
(2.73787e-05 0.00176353 -2.42627e-06)
(6.6413e-06 0.00223459 6.78008e-06)
(-2.01341e-05 0.00229438 1.50615e-05)
(0.000167173 0.00259664 9.84653e-06)
(0.000479571 0.0022277 -3.98011e-06)
(0.000340734 0.00201492 8.93984e-07)
(0.000150379 0.00209292 6.18906e-06)
(4.61586e-06 0.00210864 -1.80575e-06)
(-7.98373e-05 0.00212123 1.06375e-06)
(-0.00012501 0.00208309 5.80228e-07)
(-6.48535e-05 0.00218972 -1.85468e-05)
(-3.59737e-05 0.00221464 -1.91037e-07)
(2.89977e-05 0.00227047 -1.77427e-06)
(-2.22102e-06 0.00235457 -3.08711e-06)
(-2.0825e-05 0.00233743 -1.53735e-06)
(-1.69268e-05 0.00231389 -1.02674e-06)
(-9.03042e-06 0.00230798 4.56687e-06)
(8.9154e-07 -2.17302e-05 -1.70592e-07)
(8.31157e-06 -2.1774e-05 -2.42756e-07)
(1.1673e-05 -2.45609e-06 -1.12644e-07)
(8.6948e-06 0.000644432 7.44121e-07)
(-6.58696e-05 0.0016458 5.43386e-06)
(-9.55948e-05 0.00180362 7.92813e-06)
(-4.71709e-05 0.00223076 -1.89008e-05)
(0.000778256 0.00272415 -2.17088e-05)
(0.000567351 0.0027341 1.24405e-05)
(7.04151e-05 0.00226497 -3.215e-05)
(-1.9235e-05 0.00214779 -3.48508e-06)
(-0.000185939 0.00199544 5.69844e-06)
(-0.00018378 0.00196375 1.03865e-06)
(-0.000130741 0.00208288 -2.42905e-06)
(-1.20679e-05 0.00225884 -6.70305e-07)
(3.97088e-05 0.00223128 -7.98722e-06)
(-4.83291e-06 0.0023698 -3.05319e-07)
(-1.61139e-05 0.00234579 -1.48418e-06)
(-1.54824e-05 0.00231027 -1.25845e-06)
(-8.95011e-06 0.00212616 1.44186e-05)
(1.57587e-06 -3.19591e-05 -2.16942e-07)
(7.30411e-06 -3.39275e-05 -1.3858e-07)
(1.22625e-05 -3.10824e-05 -1.1713e-07)
(1.4501e-05 9.23877e-06 5.68862e-08)
(8.91826e-06 0.000521681 -3.28907e-07)
(-3.57616e-05 0.000929364 1.68416e-05)
(-7.81464e-05 0.00164096 3.61243e-05)
(-5.77685e-05 0.00195543 1.66313e-05)
(0.000974484 0.00351609 -4.05697e-06)
(7.3258e-05 0.00285225 -9.2043e-07)
(-0.000219811 0.00223896 -7.61364e-06)
(-0.000223832 0.00205843 -1.14835e-05)
(-0.00015568 0.00193112 -1.99923e-07)
(-0.000109671 0.00203977 4.5769e-06)
(-1.19247e-05 0.00230247 -1.91567e-08)
(4.5994e-05 0.00222928 -6.21962e-06)
(-1.35167e-05 0.00238177 -5.56492e-07)
(-1.92806e-05 0.00234988 -1.67464e-06)
(-1.12217e-05 0.00231273 -2.32709e-06)
(-7.18575e-06 0.00136406 1.58382e-05)
(2.23579e-06 -3.82255e-05 -4.06443e-08)
(6.05157e-06 -4.13914e-05 1.03502e-07)
(9.74925e-06 -4.53418e-05 1.02355e-07)
(1.42053e-05 -5.46475e-05 1.34994e-07)
(2.20397e-05 -7.22917e-05 4.17886e-08)
(9.78497e-07 0.000119163 -2.06537e-07)
(5.68604e-06 0.000360563 2.97299e-06)
(-5.83185e-05 0.000694622 0.000298877)
(0.000452762 0.00274087 3.10344e-06)
(0.00035286 0.00341417 -1.76883e-06)
(-0.000304401 0.00247173 -1.81132e-05)
(-0.000189857 0.00215279 -1.13356e-05)
(-0.000214841 0.00193737 1.72042e-07)
(-0.000109143 0.00203494 -7.24656e-07)
(2.66699e-05 0.00234955 4.54891e-06)
(3.70328e-05 0.00231106 2.47631e-06)
(-1.41931e-05 0.00240288 -7.46868e-07)
(-1.65141e-05 0.00232112 -1.01486e-06)
(-1.18701e-05 0.00114342 2.00525e-06)
(-1.84572e-06 0.00037391 5.6783e-07)
(5.76067e-07 -4.01101e-05 1.6117e-07)
(2.42527e-06 -4.38817e-05 2.0203e-07)
(4.83679e-06 -4.93285e-05 2.43386e-07)
(9.18002e-06 -5.97001e-05 3.6527e-07)
(1.16439e-05 -7.76876e-05 1.02259e-06)
(1.00728e-05 -0.000100342 1.2262e-06)
(-5.14155e-06 -0.000196785 2.7547e-06)
(-5.7292e-05 -0.000179692 -1.76699e-05)
(-6.92557e-05 0.00113341 1.19392e-05)
(0.000118047 0.00346968 -1.48226e-05)
(-0.000195511 0.0026983 -4.99655e-06)
(-0.000166631 0.00224672 -5.16659e-06)
(-0.000171913 0.00198819 -2.39023e-06)
(-5.08251e-05 0.00209125 -1.02337e-06)
(7.60752e-05 0.00235924 6.83833e-06)
(9.67534e-06 0.00205352 -2.98284e-05)
(-1.19584e-05 0.00235881 -4.49751e-05)
(6.88882e-06 0.00229703 -4.28446e-05)
(4.81681e-06 0.0022476 -4.12172e-05)
(-9.81761e-06 0.00247611 -1.95888e-05)
(-1.10209e-05 0.00285348 -1.07844e-05)
(-2.30612e-05 0.00335296 -7.20441e-06)
(-6.04707e-05 0.00409527 -7.77259e-06)
(-4.54732e-05 0.00480119 -1.1966e-05)
(1.41162e-05 0.00569121 -1.46298e-05)
(0.000319714 0.00570196 -3.50896e-06)
(0.000134003 0.00481289 2.68762e-05)
(-0.000223124 0.00309535 -4.2747e-05)
(8.33269e-05 0.00208728 -6.73195e-05)
(2.76002e-05 0.00284287 -6.84023e-06)
(-4.51479e-05 0.00327806 1.37044e-07)
(-5.14563e-05 0.00378269 1.92366e-06)
(8.73207e-05 0.00422722 8.56567e-06)
(0.00013795 0.00392181 1.77963e-05)
(2.66259e-05 0.00237662 -1.11844e-05)
(9.20505e-05 0.00214085 -4.13028e-06)
(6.02969e-05 0.00194982 -9.97581e-07)
(-8.28098e-06 0.00193343 -2.56302e-07)
(-3.77629e-05 0.0020643 8.14328e-06)
(-4.37328e-05 0.00228367 3.75601e-06)
(-5.13773e-05 0.00230952 5.6698e-06)
(-4.35182e-05 0.00232425 7.5996e-06)
(-3.86738e-05 0.00234066 1.1514e-05)
(-2.71382e-05 0.00241025 1.7527e-05)
(4.07339e-05 0.00247233 -1.52569e-05)
(0.000130979 0.00241854 -8.52584e-07)
(-5.34872e-07 0.00270257 5.31057e-05)
(-9.72949e-05 0.00259158 5.8744e-05)
(8.94205e-05 0.00208649 -2.89099e-05)
(-5.95469e-05 0.00220544 1.96644e-06)
(-6.67893e-05 0.00225502 2.16362e-06)
(-5.74009e-05 0.00223551 2.53303e-07)
(1.46962e-05 0.00230456 -1.23508e-05)
(6.73071e-05 0.00238601 3.38481e-05)
(-4.98139e-05 0.00230919 2.64219e-06)
(8.81097e-05 0.00227808 -1.75602e-05)
(4.05965e-05 0.00220294 -6.6026e-06)
(-1.9073e-05 0.00221928 -4.93416e-06)
(-4.85265e-05 0.00228673 9.62557e-07)
(-5.93235e-05 0.00188363 3.10482e-06)
(-3.91758e-05 0.00180454 7.01663e-06)
(-3.68707e-05 0.00182164 4.47987e-06)
(-1.28533e-05 0.00211965 2.60831e-06)
(1.26554e-05 0.00236073 4.28777e-06)
(0.000201689 0.00236069 -1.10631e-05)
(0.000206545 0.00247907 -1.97208e-06)
(-1.21407e-05 0.00280829 3.09906e-05)
(-8.56494e-05 0.00253571 2.74538e-05)
(8.02571e-05 0.00210552 -1.869e-05)
(-3.29586e-05 0.00216462 2.9803e-07)
(-6.20121e-05 0.0022334 -1.56866e-06)
(-3.59196e-05 0.00220143 -1.43508e-06)
(-2.97345e-06 0.00218428 -1.20592e-05)
(0.000104444 0.00237101 4.81681e-06)
(-4.77154e-05 0.00238343 -1.81837e-06)
(4.69297e-05 0.00231195 -8.92552e-06)
(1.8244e-05 0.00229625 -1.75983e-06)
(-2.77856e-05 0.00230251 -2.67241e-06)
(-4.59977e-05 0.00231753 1.67845e-06)
(-3.52911e-05 0.00106701 9.55258e-07)
(-1.21048e-05 0.00065814 2.24847e-07)
(-5.08437e-07 0.000686481 -1.12618e-07)
(1.3215e-05 0.00132807 -1.37743e-06)
(8.66307e-05 0.0023137 -8.87883e-06)
(0.000226794 0.00229254 3.71504e-06)
(0.000208171 0.00232747 1.48898e-05)
(-4.34075e-05 0.00259144 7.24249e-06)
(-4.89605e-06 0.00230887 -1.88703e-05)
(7.62422e-05 0.00201256 -6.9313e-06)
(1.5291e-05 0.00213936 -1.9071e-06)
(-7.83384e-05 0.00221732 7.85683e-07)
(-3.42476e-05 0.00216233 3.58969e-06)
(-4.51781e-05 0.00212794 -1.36163e-06)
(0.000129671 0.00237556 -3.01057e-05)
(-5.17272e-05 0.00237457 -4.98331e-06)
(3.54417e-05 0.00229542 -7.96271e-06)
(1.63762e-05 0.00233661 1.23393e-06)
(-2.3479e-05 0.00232871 -1.34407e-06)
(-3.25471e-05 0.00231879 -1.7743e-07)
(-2.50571e-05 0.00121866 -1.877e-07)
(-6.29322e-06 2.98748e-05 -2.72061e-08)
(7.39522e-06 4.65076e-05 -9.74353e-08)
(1.92173e-05 0.00040437 -7.18149e-07)
(8.38108e-05 0.00215984 -3.21722e-06)
(0.000124225 0.00223745 9.57243e-06)
(9.91757e-05 0.00219763 -5.9408e-06)
(0.000353972 0.00286394 -2.78326e-05)
(0.000171116 0.00215817 -4.35104e-05)
(0.000220462 0.00204849 -4.9985e-08)
(6.98972e-05 0.00211273 -1.4296e-07)
(-5.94194e-05 0.00220762 5.68769e-06)
(-6.13991e-05 0.00212788 1.98854e-06)
(-9.14865e-05 0.0020901 4.18262e-06)
(3.3472e-05 0.00230812 -3.43137e-05)
(-2.37237e-05 0.00229818 -2.86039e-06)
(2.59651e-05 0.00225455 -7.40769e-06)
(4.77729e-06 0.00235745 -1.10231e-07)
(-2.97788e-05 0.0023458 -1.30098e-06)
(-2.84646e-05 0.0023187 -7.67736e-07)
(-2.20542e-05 0.00177629 -4.23105e-07)
(-3.79872e-06 -1.64164e-05 6.07071e-08)
(5.3557e-06 -2.32159e-05 7.65534e-08)
(1.44582e-05 -6.87234e-06 -1.735e-07)
(2.08376e-05 0.00146455 -9.65184e-07)
(-1.03342e-05 0.00195516 -9.77259e-07)
(-4.7243e-05 0.00219589 1.72004e-05)
(0.000275662 0.00282345 1.34954e-05)
(0.00062896 0.00251009 -3.48532e-05)
(0.000364389 0.00222782 -3.7639e-06)
(0.000182188 0.00216866 4.00174e-06)
(-9.59999e-05 0.00207766 9.83794e-06)
(-0.000139877 0.00205475 1.964e-06)
(-0.00016369 0.00201903 4.74844e-06)
(-6.30718e-05 0.00218753 -7.68123e-06)
(-1.02504e-05 0.00225251 -3.57776e-06)
(1.725e-05 0.00229916 -4.42314e-06)
(-8.44056e-06 0.00240025 4.33535e-08)
(-3.64026e-05 0.00235864 -2.70846e-06)
(-2.80252e-05 0.0023119 -1.65566e-06)
(-1.81412e-05 0.00139747 2.40256e-08)
(-2.9142e-06 -3.2965e-05 1.21774e-07)
(7.13329e-06 -3.94204e-05 2.07052e-07)
(9.66297e-06 -4.66964e-05 4.93602e-07)
(1.15394e-05 0.000413545 1.3524e-06)
(-5.44805e-05 0.00113969 7.44993e-06)
(-8.44062e-05 0.00151137 2.05363e-05)
(-4.52069e-05 0.00159436 -3.55367e-05)
(0.000775019 0.00287898 3.43934e-05)
(0.000839688 0.00307065 -1.8349e-05)
(0.000164266 0.00251807 -3.2958e-05)
(-0.000105533 0.00215472 -1.9751e-05)
(-0.000222432 0.00204034 4.18707e-06)
(-0.000292106 0.00187525 5.66166e-07)
(-0.000174902 0.00203148 7.10136e-06)
(3.8642e-05 0.00231851 -4.16591e-06)
(3.54507e-05 0.00229452 7.79831e-07)
(-1.7772e-05 0.00241909 1.98284e-06)
(-3.44414e-05 0.00237079 -1.73355e-06)
(-2.5011e-05 0.00230981 -1.67638e-06)
(-1.19264e-05 0.000525322 -4.95464e-07)
(-6.65942e-07 -4.33942e-05 4.48218e-08)
(6.29937e-06 -4.92598e-05 2.06059e-07)
(1.10037e-05 -5.30517e-05 1.31343e-07)
(1.31604e-05 -5.9069e-05 -7.77627e-08)
(1.51629e-05 0.000229403 -2.13405e-06)
(-6.02312e-06 0.000407 -8.02071e-06)
(2.62179e-06 0.000568238 1.03722e-05)
(3.3848e-05 0.00166818 -2.59208e-05)
(0.00129556 0.00386119 8.61202e-05)
(0.00027908 0.00305518 -9.85199e-06)
(-0.000226955 0.00231446 -6.80473e-06)
(-0.000248274 0.00209845 -1.9629e-05)
(-0.000248342 0.00186797 2.90227e-06)
(-0.000162062 0.00194346 4.8019e-06)
(3.46127e-05 0.00233817 -4.14977e-06)
(4.5265e-05 0.00223116 -3.93256e-06)
(-3.41074e-05 0.002429 1.19846e-06)
(-3.27131e-05 0.00236488 -6.45656e-07)
(-1.6476e-05 0.00196383 -1.29734e-06)
(-3.64292e-06 4.41481e-05 -2.59159e-07)
(1.53155e-06 -5.0685e-05 2.1817e-07)
(5.2888e-06 -5.22961e-05 3.85115e-07)
(8.47551e-06 -5.78035e-05 3.83907e-07)
(1.14474e-05 -7.15195e-05 6.07166e-07)
(1.86626e-05 -0.00011551 1.03276e-08)
(-8.69166e-06 -0.000166667 1.00578e-06)
(5.62072e-06 -0.000251942 1.2726e-05)
(-5.84836e-05 0.000223847 -2.39926e-05)
(0.000454044 0.00294716 -1.81519e-05)
(0.000374784 0.00371156 -2.90263e-05)
(-0.000229681 0.00268865 -3.90414e-07)
(-0.000244027 0.00221662 -2.54431e-05)
(-0.000279573 0.00187611 -1.21219e-05)
(-0.000185237 0.00190838 -2.23326e-06)
(6.19887e-05 0.00236425 -3.76531e-06)
(3.64166e-05 0.00226639 -5.70261e-06)
(-2.92866e-05 0.00245583 4.01842e-07)
(-2.81208e-05 0.00233917 1.57153e-07)
(-2.58461e-05 0.000844488 5.85203e-06)
(-1.93616e-06 -3.87571e-05 4.21767e-07)
(4.75609e-07 -4.73162e-05 2.39149e-07)
(2.30544e-06 -4.62766e-05 2.5902e-07)
(4.54154e-06 -5.24424e-05 3.62615e-07)
(9.404e-06 -6.30591e-05 6.80153e-07)
(1.45107e-05 -0.000100962 1.55481e-06)
(1.53212e-05 -0.000233543 3.51051e-06)
(9.35315e-07 -0.000607875 6.16463e-06)
(-7.54857e-05 -0.00129024 2.53043e-05)
(3.20726e-06 0.00127491 -3.09213e-05)
(0.000219153 0.00402595 -1.98391e-05)
(-0.000130806 0.00290603 -4.04015e-06)
(-0.000177982 0.00231403 1.64185e-06)
(-0.000219811 0.00192132 -7.35325e-06)
(-0.000105191 0.00190221 -3.61986e-06)
(7.99007e-05 0.00234566 3.36229e-06)
(1.29597e-05 0.0021265 2.34288e-06)
(3.30989e-06 0.00279208 -1.8465e-05)
(1.08039e-05 0.00263756 -1.59033e-05)
(-3.90094e-06 0.00253306 -1.62054e-05)
(-1.94399e-05 0.00272263 -1.39506e-05)
(-1.84317e-05 0.00310818 -6.36741e-06)
(-3.5345e-05 0.00364207 -3.13665e-06)
(-6.9619e-05 0.0043593 -1.33603e-06)
(-4.6519e-05 0.00493043 2.47604e-06)
(-2.78742e-06 0.00597136 -1.14959e-06)
(0.000309144 0.0059815 -4.70927e-06)
(0.000178352 0.00531105 -6.01881e-06)
(-0.00022235 0.00312217 2.1643e-06)
(8.23852e-05 0.00213673 8.81157e-07)
(3.19824e-05 0.00289126 1.89332e-07)
(-4.40624e-05 0.00330889 5.4387e-08)
(-5.15896e-05 0.00380953 1.18355e-07)
(8.44182e-05 0.00422058 8.14862e-07)
(0.00014082 0.00392906 -1.65719e-07)
(2.8369e-05 0.00239173 6.48504e-08)
(8.70972e-05 0.00215385 1.30462e-06)
(5.86298e-05 0.00200214 4.59673e-06)
(-1.77569e-05 0.00199466 2.81831e-06)
(-5.01138e-05 0.00210929 -1.76561e-06)
(-5.62932e-05 0.00229241 -2.17458e-07)
(-5.33507e-05 0.00193625 1.66439e-06)
(-4.25911e-05 0.00182938 1.75902e-06)
(-4.15554e-05 0.00190206 2.63854e-06)
(-2.80334e-05 0.00241124 3.20125e-06)
(5.30243e-05 0.00245714 -2.10561e-06)
(0.000120079 0.00236373 -6.27475e-06)
(0.000131092 0.002457 2.34563e-06)
(-2.61306e-05 0.00253545 -1.03256e-06)
(0.000100984 0.00214862 1.14624e-06)
(-4.48879e-05 0.00221093 4.28615e-08)
(-6.31711e-05 0.00225453 -1.9466e-07)
(-5.5307e-05 0.00223314 1.95639e-07)
(1.47528e-05 0.00230194 4.05986e-07)
(5.63356e-05 0.00237917 -2.99743e-07)
(-4.61575e-05 0.00229672 -1.71074e-07)
(5.63171e-05 0.00235846 -4.29161e-06)
(3.9137e-05 0.00227887 -1.01121e-05)
(-3.01602e-05 0.0018549 -7.38758e-06)
(-5.98521e-05 0.00178926 -5.52588e-07)
(-6.31971e-05 0.00181824 6.39854e-06)
(-3.26801e-05 0.00103266 2.61586e-06)
(-2.09548e-05 0.000793942 1.1677e-06)
(1.12513e-06 0.000905146 5.0178e-07)
(2.39369e-05 0.00231499 -2.88653e-06)
(0.00019841 0.00234916 -4.07992e-06)
(0.000219963 0.00246339 2.56345e-06)
(1.40709e-05 0.00273554 1.68769e-06)
(-7.56648e-05 0.0025313 9.98423e-07)
(7.59102e-05 0.00214968 1.36018e-06)
(-3.09742e-05 0.0021677 6.60308e-07)
(-5.47273e-05 0.00223827 3.12246e-07)
(-3.48883e-05 0.00220021 5.39125e-07)
(-1.68337e-06 0.00218243 3.8221e-07)
(9.11323e-05 0.00236231 -1.78638e-07)
(-4.2706e-05 0.00237621 1.82545e-08)
(3.56251e-05 0.00237128 -3.57315e-06)
(1.99727e-05 0.00230844 -4.73733e-06)
(-2.9181e-05 0.00146622 -3.83651e-06)
(-4.77686e-05 0.00127578 -1.48838e-06)
(-3.52287e-05 0.000744325 7.85781e-07)
(-1.09039e-05 0.000228966 1.06412e-07)
(2.93489e-06 0.000108182 -2.42092e-07)
(1.76274e-05 0.000187339 -7.53527e-07)
(8.95008e-05 0.00175421 -1.1053e-06)
(0.000218018 0.00226223 5.91442e-06)
(0.000191705 0.00229367 1.15886e-05)
(1.93835e-05 0.00263277 -6.36438e-06)
(-2.46448e-05 0.00236672 -3.60534e-07)
(9.82163e-05 0.0020845 -4.39706e-06)
(2.27e-05 0.00214577 -3.74928e-06)
(-7.51385e-05 0.00221269 3.27148e-07)
(-3.23776e-05 0.0021665 2.96632e-06)
(-4.43655e-05 0.00212824 2.48034e-07)
(0.000118152 0.00236731 9.60336e-07)
(-4.92383e-05 0.00236385 3.37733e-08)
(3.07729e-05 0.00236296 -1.699e-06)
(1.563e-05 0.00233597 -1.64927e-06)
(-2.46824e-05 0.00191195 -8.19476e-07)
(-3.26627e-05 0.00180159 -1.14089e-07)
(-2.4737e-05 0.000326127 5.91008e-08)
(-5.75901e-06 -3.59729e-06 -3.80734e-08)
(8.21118e-06 -5.07328e-06 -6.74187e-08)
(2.21181e-05 9.37031e-06 -3.65558e-07)
(7.91308e-05 0.000774504 1.21689e-06)
(0.000118887 0.00222349 6.94277e-06)
(0.000107852 0.00215195 -1.23008e-05)
(0.000468143 0.00299184 -5.04516e-05)
(0.000195051 0.00219848 -3.41779e-05)
(0.000206971 0.00203436 -4.56884e-06)
(5.56771e-05 0.0021048 2.54874e-06)
(-6.81517e-05 0.00220494 8.60055e-06)
(-5.63064e-05 0.00214912 5.22688e-06)
(-8.92738e-05 0.0021055 -3.40391e-06)
(3.7471e-05 0.00231224 1.62368e-06)
(-2.79746e-05 0.00228492 3.43501e-08)
(1.92082e-05 0.00230368 -4.2491e-07)
(3.42434e-06 0.0023571 -1.32674e-07)
(-3.18472e-05 0.00234976 -8.82694e-08)
(-2.83814e-05 0.00232166 -2.07054e-08)
(-2.14312e-05 0.000366461 7.14944e-09)
(-3.62562e-06 -2.2422e-05 -2.24382e-09)
(6.20875e-06 -3.17714e-05 7.81935e-08)
(1.59272e-05 -3.17039e-05 5.04112e-08)
(1.92932e-05 0.00015449 5.57119e-07)
(-1.45472e-05 0.00193081 2.25206e-06)
(-6.44411e-05 0.00207598 -2.75896e-06)
(0.000134598 0.00244075 5.19093e-05)
(0.000707641 0.00252957 -5.35012e-05)
(0.000469484 0.00233243 -2.96996e-05)
(0.000129789 0.00219997 2.11104e-05)
(-0.000121181 0.00210943 1.68913e-05)
(-0.000141958 0.0020695 3.73766e-06)
(-0.000172839 0.00203055 -3.75882e-07)
(-6.94683e-05 0.00218101 -3.20315e-06)
(-1.82144e-05 0.00223667 5.44413e-07)
(-9.61554e-06 0.00229638 -2.4963e-07)
(-1.16656e-05 0.00239984 -8.98927e-08)
(-3.75246e-05 0.00235583 -8.27963e-08)
(-2.68759e-05 0.00230872 -2.12776e-08)
(-1.63415e-05 0.000191376 2.28577e-09)
(-2.71082e-06 -3.56756e-05 2.21246e-09)
(7.27643e-06 -4.21125e-05 2.89121e-08)
(1.04457e-05 -4.33437e-05 -7.91779e-08)
(1.42408e-05 -1.60144e-05 8.56972e-07)
(-4.47906e-05 0.00113689 2.32904e-06)
(-8.48305e-05 0.00161639 8.20008e-06)
(-8.4163e-05 0.0015774 -1.82395e-05)
(0.000505938 0.0024131 8.13187e-05)
(0.00103455 0.00324257 -6.95025e-05)
(0.000417887 0.00287492 -2.15946e-05)
(-7.31523e-05 0.00236636 -1.80821e-05)
(-0.000149257 0.00213089 1.00622e-05)
(-0.00030839 0.00193802 9.47572e-06)
(-0.000200101 0.00201272 -6.17363e-06)
(2.00463e-05 0.00229308 -1.6503e-06)
(7.18217e-06 0.00232567 -7.40977e-07)
(-1.98386e-05 0.00241924 -3.05893e-07)
(-3.32773e-05 0.00236361 -1.6588e-08)
(-2.25364e-05 0.00218955 4.78813e-08)
(-9.40341e-06 1.78928e-05 6.09075e-09)
(3.57961e-08 -4.4874e-05 3.19338e-09)
(6.62052e-06 -4.80859e-05 1.16337e-08)
(1.16291e-05 -5.31026e-05 2.5694e-08)
(1.27556e-05 -6.03766e-05 8.71282e-08)
(7.43123e-06 0.000246467 -3.54569e-06)
(-2.73011e-06 0.000483477 -1.84012e-05)
(2.08843e-05 0.000385348 -1.61676e-05)
(-2.12491e-05 0.00159697 -1.23642e-05)
(0.00117132 0.00329324 0.000138443)
(0.000367404 0.00309726 -8.69124e-06)
(-3.50447e-05 0.00251231 -3.12066e-06)
(-0.000278886 0.00223088 -9.99715e-06)
(-0.000265279 0.00200529 1.17045e-05)
(-0.000194869 0.00194339 -2.82599e-06)
(1.7009e-05 0.00230906 -5.06357e-06)
(4.62797e-05 0.00230806 -4.1786e-07)
(-3.45215e-05 0.00242656 -3.1721e-07)
(-3.00731e-05 0.0023564 8.52273e-08)
(-1.54009e-05 0.00149371 5.79387e-08)
(-2.42502e-06 -4.72506e-05 2.76834e-08)
(2.24108e-06 -5.50455e-05 2.94274e-08)
(5.92781e-06 -5.29044e-05 3.52412e-08)
(8.63663e-06 -6.07928e-05 5.21914e-08)
(1.15645e-05 -7.63401e-05 -1.22434e-07)
(1.73914e-05 -0.000117022 -1.70416e-06)
(-9.21038e-06 -0.000154613 2.804e-07)
(5.50123e-06 -0.000407931 6.6261e-06)
(-9.6347e-05 0.000127826 -3.67193e-05)
(0.00014279 0.00223249 9.38611e-05)
(0.000479028 0.00344153 1.61601e-06)
(-5.57765e-05 0.00280314 -1.08257e-05)
(-0.000239554 0.00236792 -4.97123e-06)
(-0.000261303 0.00205697 2.47104e-07)
(-0.000197738 0.00193737 -1.31798e-05)
(3.59179e-05 0.00233778 -6.86574e-06)
(5.09327e-05 0.00232926 1.0829e-07)
(-3.09979e-05 0.00245403 -2.1052e-07)
(-2.19855e-05 0.00233268 7.34786e-09)
(-1.26656e-05 0.000449898 7.85506e-08)
(-1.42008e-06 -4.85995e-05 1.05884e-08)
(3.80925e-07 -5.19086e-05 1.68834e-08)
(2.3227e-06 -4.97261e-05 2.3106e-08)
(4.7078e-06 -5.60731e-05 2.13322e-08)
(9.55265e-06 -6.64829e-05 -1.03264e-07)
(1.49893e-05 -0.000115588 8.21213e-08)
(1.39085e-05 -0.000292396 2.78282e-06)
(1.93986e-06 -0.000964028 1.34368e-06)
(-0.000102558 -0.002042 9.26251e-06)
(-0.000113278 0.000610014 -2.02784e-05)
(0.000124097 0.00263772 -4.21969e-05)
(-7.95002e-05 0.0029269 -8.4337e-06)
(-0.000124297 0.00244645 1.09307e-05)
(-0.000202212 0.0020469 -9.8109e-06)
(-0.000141843 0.00184172 -1.37524e-05)
(5.08189e-05 0.00235149 4.19005e-07)
(7.14549e-06 0.00209337 3.15264e-05)
(-1.07081e-05 0.00246587 3.36468e-05)
(5.13596e-06 0.00235538 3.3163e-05)
(-5.34212e-06 0.00227263 2.25476e-05)
(-1.69518e-05 0.00252919 1.15775e-07)
(-1.24376e-05 0.0028885 1.91577e-06)
(-2.5023e-05 0.00341001 5.3974e-06)
(-6.34998e-05 0.00413518 7.08772e-06)
(-4.51276e-05 0.004783 1.2454e-05)
(1.27011e-05 0.00581104 1.23295e-05)
(0.000289382 0.00580694 -2.85917e-06)
(0.000128721 0.00487578 -2.95329e-05)
(-0.000224047 0.00309826 4.23295e-05)
(8.36951e-05 0.00208507 6.75624e-05)
(2.72554e-05 0.00283756 7.09473e-06)
(-4.5183e-05 0.00327299 -1.3807e-07)
(-5.1381e-05 0.00377287 -1.79913e-06)
(8.73106e-05 0.00420142 -8.95632e-06)
(0.000137857 0.00391078 -1.81557e-05)
(2.69369e-05 0.00237609 1.11814e-05)
(0.000102912 0.00217069 1.20216e-05)
(6.30601e-05 0.00203726 -2.91273e-06)
(-1.14745e-05 0.00200789 -8.76679e-06)
(-4.43698e-05 0.0021285 -1.73793e-05)
(-5.57631e-05 0.00231353 -9.08718e-06)
(-5.36324e-05 0.00231441 -7.26723e-06)
(-4.1891e-05 0.00231085 -4.58941e-06)
(-3.91198e-05 0.00233278 -8.77226e-06)
(-2.71226e-05 0.00241166 -1.12967e-05)
(4.7633e-05 0.00246132 1.07868e-05)
(0.000117567 0.00239157 -6.9732e-06)
(4.35835e-06 0.00266723 -4.76357e-05)
(-9.99878e-05 0.00261219 -5.52033e-05)
(8.88236e-05 0.00208815 3.12036e-05)
(-5.75331e-05 0.0022065 -1.7645e-06)
(-6.64957e-05 0.00225497 -2.36157e-06)
(-5.727e-05 0.00223415 5.83387e-07)
(1.52595e-05 0.00230222 1.29611e-05)
(6.72284e-05 0.0023846 -3.43976e-05)
(-4.95408e-05 0.00231003 -3.03677e-06)
(7.79482e-05 0.00233206 6.60713e-06)
(3.73471e-05 0.00229601 -1.2311e-05)
(-3.31729e-05 0.00228672 -1.05323e-05)
(-6.13652e-05 0.00195011 -6.88749e-06)
(-6.03644e-05 0.00183887 -3.98942e-06)
(-3.95886e-05 0.00181312 -2.89779e-06)
(-3.68003e-05 0.00223442 -1.0128e-06)
(-1.31403e-05 0.0023444 -1.32201e-06)
(1.37374e-05 0.00237258 -5.02808e-06)
(0.00019749 0.0023518 1.00741e-05)
(0.000216148 0.00245881 5.2308e-06)
(-2.69689e-05 0.00281914 -3.20961e-05)
(-8.29814e-05 0.0025425 -3.00753e-05)
(7.77392e-05 0.00210139 1.37956e-05)
(-3.37203e-05 0.00216369 -1.19566e-06)
(-6.15969e-05 0.00223275 1.68551e-06)
(-3.55651e-05 0.00220231 4.52267e-06)
(-2.44039e-06 0.00218195 1.33282e-05)
(0.000104635 0.00236858 -6.09595e-06)
(-4.75937e-05 0.00238423 1.80247e-06)
(4.51627e-05 0.00234472 3.79229e-06)
(1.86533e-05 0.00231393 -7.23556e-06)
(-2.95281e-05 0.00230977 -4.33872e-06)
(-4.73944e-05 0.00158485 -2.46182e-06)
(-3.5093e-05 0.000996684 6.55452e-07)
(-1.39424e-05 0.000684792 -4.88612e-08)
(-5.4274e-06 0.0015414 3.32627e-07)
(7.52985e-06 0.00230788 7.65093e-07)
(8.63194e-05 0.00231175 1.12487e-05)
(0.00022425 0.00227655 1.42271e-05)
(0.000206741 0.00231612 1.29073e-06)
(-4.94798e-05 0.00262028 -1.92314e-06)
(-1.66334e-05 0.00230782 1.79438e-05)
(8.57807e-05 0.00202814 1.21287e-05)
(2.36362e-05 0.00215018 6.09119e-06)
(-7.32896e-05 0.00222056 2.11521e-06)
(-3.03408e-05 0.00217451 3.97026e-06)
(-4.51493e-05 0.00212825 9.37836e-06)
(0.000131623 0.0023687 2.79791e-05)
(-5.19067e-05 0.00237545 5.04837e-06)
(3.67096e-05 0.00231856 6.64922e-06)
(1.48429e-05 0.00233714 -3.30412e-06)
(-2.36941e-05 0.00232903 1.79268e-07)
(-3.24813e-05 0.00195479 -1.36163e-07)
(-2.50441e-05 0.00120819 2.7613e-07)
(-6.35188e-06 5.11452e-05 -6.08214e-08)
(4.87982e-06 0.000494179 -5.36908e-08)
(1.52899e-05 0.00176231 2.79034e-06)
(8.22175e-05 0.0022553 1.10125e-05)
(0.000121355 0.0022293 3.69472e-06)
(0.000125396 0.00224288 -1.20606e-05)
(0.000325458 0.00274213 -9.14574e-07)
(0.000242783 0.00211785 5.593e-05)
(0.000239233 0.00197584 3.74399e-06)
(4.0978e-05 0.0020684 -2.99107e-06)
(-6.60343e-05 0.00220885 -8.19604e-06)
(-4.43085e-05 0.00218955 2.57441e-06)
(-8.61171e-05 0.00211527 1.16987e-05)
(4.16668e-05 0.00230183 3.79839e-05)
(-2.28318e-05 0.00229811 2.8722e-06)
(2.75851e-05 0.00227165 6.54622e-06)
(4.1991e-06 0.00235736 8.87239e-09)
(-2.97277e-05 0.00234582 1.27556e-06)
(-2.84893e-05 0.00232233 7.34984e-07)
(-2.20333e-05 0.00182163 4.31265e-07)
(-3.81535e-06 -1.23004e-05 -8.76361e-08)
(5.06045e-06 -1.25689e-05 6.77738e-08)
(1.47648e-05 0.000676223 1.45545e-06)
(2.22708e-05 0.00187639 1.48683e-06)
(-5.32904e-06 0.00218828 -4.24445e-06)
(-4.99075e-05 0.00210842 -8.11786e-06)
(0.000123297 0.00242999 1.42238e-05)
(0.000632859 0.00244488 1.5671e-05)
(0.000424737 0.00230588 -2.39398e-05)
(0.00017685 0.00224897 7.9447e-06)
(-8.77138e-05 0.0020987 8.21264e-07)
(-9.21018e-05 0.00211154 -7.7169e-06)
(-0.000155996 0.00206763 -4.58436e-06)
(-6.30905e-05 0.00218688 1.90889e-05)
(-9.30755e-06 0.00225361 4.5416e-06)
(1.82474e-05 0.00231252 3.66106e-06)
(-8.49739e-06 0.00240024 1.07485e-07)
(-3.63103e-05 0.00235846 2.63248e-06)
(-2.80599e-05 0.00231184 1.61488e-06)
(-1.80993e-05 0.0014363 -1.42427e-08)
(-2.92077e-06 -3.37923e-05 -1.24111e-07)
(7.15536e-06 -4.00874e-05 -1.30366e-07)
(9.99158e-06 3.38425e-05 -5.02118e-07)
(7.7436e-06 0.000923909 -2.56993e-06)
(-5.64024e-05 0.00172422 -7.13113e-06)
(-9.36781e-05 0.00225217 -1.16101e-05)
(-0.000145337 0.00218632 1.6091e-06)
(0.00030622 0.00236472 -1.01287e-05)
(0.000939919 0.00297832 -2.13489e-05)
(0.000454298 0.00288838 -2.00644e-05)
(-9.90795e-05 0.00234664 -2.72438e-06)
(-0.000135065 0.00218273 -8.4104e-07)
(-0.000263703 0.00197098 4.3642e-06)
(-0.000179266 0.00204887 5.39531e-06)
(4.04814e-05 0.00230317 2.87437e-06)
(3.59294e-05 0.00230674 -1.0089e-06)
(-1.73514e-05 0.00241991 -2.14647e-06)
(-3.45068e-05 0.00237067 1.71392e-06)
(-2.50804e-05 0.00230981 1.70747e-06)
(-1.19098e-05 0.00054311 5.04484e-07)
(-6.55797e-07 -4.33411e-05 -4.57207e-08)
(6.32803e-06 -4.89531e-05 -1.92527e-07)
(1.10088e-05 -5.17359e-05 -1.74134e-07)
(1.09446e-05 0.000145692 -4.58225e-07)
(-8.57768e-06 0.000640836 -1.94253e-06)
(-6.65026e-05 0.00158552 -2.23414e-05)
(-5.72932e-05 0.00140838 -1.07846e-05)
(-6.55804e-05 0.00229171 -3.72921e-05)
(0.000829402 0.00278917 2.6799e-05)
(0.000430135 0.00285153 5.79495e-06)
(-5.56199e-05 0.00262054 -2.19962e-05)
(-0.000235923 0.00226955 2.8332e-05)
(-0.000206488 0.00206166 4.97886e-06)
(-0.000179712 0.00198184 4.09852e-06)
(3.73518e-05 0.00231835 2.61498e-06)
(4.62065e-05 0.00224435 3.46382e-06)
(-3.40445e-05 0.00242953 -1.50998e-06)
(-3.28508e-05 0.00236507 7.52103e-07)
(-1.66539e-05 0.00195408 1.3391e-06)
(-3.63326e-06 4.77978e-05 3.29877e-07)
(1.52952e-06 -5.06778e-05 -1.61427e-07)