/*--------------------------------*- C++ -*----------------------------------*\
| =========                 |                                                 |
| \\      /  F ield         | OpenFOAM: The Open Source CFD Toolbox           |
|  \\    /   O peration     | Version:  2.3.0                                 |
|   \\  /    A nd           | Web:      www.OpenFOAM.org                      |
|    \\/     M anipulation  |                                                 |
\*---------------------------------------------------------------------------*/
FoamFile
{
    version     2.0;
    format      ascii;
    class       volScalarField;
    location    "3.80231";
    object      k.air;
}
// * * * * * * * * * * * * * * * * * * * * * * * * * * * * * * * * * * * * * //

dimensions      [0 2 -2 0 0 0 0];

internalField   nonuniform List<scalar> 
1000
(
0.00327083
0.00338399
0.00256404
0.00201176
0.00180823
0.0017187
0.00149081
0.0011138
0.00125338
0.00234172
1e-15
1e-15
1e-15
0.00265774
0.00177267
0.0010325
0.000746425
0.000861125
0.00127724
0.00224675
0.002845
0.000901864
0.00125182
0.00140625
0.00144877
0.00159833
0.00202303
0.00203812
9.36432e-15
1.76173e-15
0.00100206
1e-15
6.79448e-05
0.000935972
0.00166498
0.00228524
0.00335572
0.00407174
0.003116
0.00194254
0.00280658
0.00227016
0.0034638
0.00355512
0.00357373
0.00354772
0.00378678
0.00378759
0.00222436
2.56088e-15
1e-15
1e-15
0.000374746
0.00209021
0.0017902
0.00211697
0.00445018
0.00699353
0.00622156
0.00197202
0.00279262
0.00236504
0.0032129
0.00331441
0.00336538
0.00339458
0.00382462
0.0041057
0.00245616
2.16161e-15
1e-15
1e-15
0.000391309
0.00187959
0.000860671
0.00113335
0.00382425
0.00770526
0.00638894
0.00206271
0.00280262
0.00199152
0.00225858
0.00278813
0.00301498
0.00302262
0.00350517
0.00445187
0.0048529
1.37268e-07
1.00056e-15
1e-15
2.77295e-13
0.000460055
0.000621034
0.000644807
0.00254911
0.00732377
0.00668172
0.00216362
0.00287632
0.00142668
0.00100545
0.00166241
0.00273483
0.00278604
0.0031116
0.00388185
0.00516266
0.00561721
9.13075e-05
0.000906201
0.000544376
0.000458583
0.000590646
0.00048147
0.00157425
0.00609771
0.00759141
0.00223165
0.00310948
0.00137938
0.00073876
0.000576862
0.00234685
0.00260893
0.00292381
0.00345299
0.00421077
0.00486882
0.000607906
0.00278896
0.00226747
0.00104482
0.00071406
0.000507547
0.00104477
0.0042978
0.00639938
0.00223329
0.00330473
0.00194213
0.0010479
0.000351029
0.00183564
0.00214743
0.00236078
0.00286202
0.00356582
0.00454177
0.00490698
0.00365689
0.0042701
0.0026957
0.00115101
0.000645647
0.000901687
0.00345513
0.00420478
0.00219845
0.00331084
0.00245026
0.00162386
0.000309108
0.00144193
0.00170265
0.00185056
0.00207417
0.00245978
0.00302227
0.00329521
0.00280565
0.00485665
0.00422863
0.00210833
0.000992708
0.000874904
0.00233311
0.00243303
0.00213086
0.00325896
0.00288801
0.00218945
0.0001944
0.000870611
0.000930078
0.000968282
0.00108065
0.00122936
0.00135829
0.00159604
0.000966615
0.0042882
0.00459121
0.00290971
0.00127809
0.000773433
0.00112114
0.00129109
0.00197152
0.00111214
0.00133962
0.000905707
0.000751722
0.000697688
0.000663409
0.000590719
0.000490887
0.000591676
0.00081361
0.000489589
0.000386178
0.000572719
0.00109577
0.000721414
0.000578026
0.000553567
0.000605106
0.000689902
0.000932639
0.000938418
0.001083
0.0012335
0.00129716
0.00136078
0.00162776
0.00204442
0.00211775
0.0015274
0.00131191
0.000448699
0.000323962
0.000266252
0.000912543
0.00115282
0.00141891
0.00260883
0.00442936
0.00574537
0.000934559
0.000769648
0.00223455
0.0020565
0.00202874
0.00206857
0.00219723
0.0023019
0.00231361
0.00207066
0.00101821
0.000242736
0.000190507
0.000333256
0.00091048
0.000731466
0.000783484
0.00237276
0.00570136
0.0112345
0.00102177
0.000768442
0.0021257
0.00179024
0.0018403
0.00186363
0.0019908
0.00215775
0.00231012
0.00239784
0.00165963
0.000334988
0.000181122
0.000217601
0.000770837
0.000450625
0.000498134
0.00145219
0.00584061
0.013547
0.00120192
0.000878061
0.00156446
0.00110738
0.00139688
0.00151125
0.00162541
0.00184806
0.00227765
0.00261977
0.00251573
0.00385984
0.000577847
0.000236924
0.000339212
0.00036504
0.000377254
0.000873387
0.0048569
0.0140463
0.00134844
0.00101494
0.0010422
0.000474895
0.000756183
0.00119174
0.00128513
0.00143272
0.00169883
0.00222215
0.00272751
0.00226669
0.0017367
0.000511736
0.000309135
0.000353529
0.000343585
0.000561021
0.00333087
0.0125877
0.00139936
3.60369e-10
0.000892814
0.000350292
0.000294953
0.000884752
0.00100636
0.00116956
0.00133897
0.00159332
0.00227527
0.00107144
0.00254529
0.00127497
0.0004591
0.000365827
0.000374065
0.000449939
0.00175364
0.00933501
0.00139296
1.25933e-15
0.000983615
0.000547784
0.000242338
0.000604523
0.000689132
0.000786294
0.00101015
0.00129464
0.00192063
0.00197202
0.00350211
0.00251447
0.00101047
0.00045662
0.000432324
0.000483558
0.0011819
0.0061744
0.00123562
1.22452e-15
0.00104475
0.000925394
0.000270841
0.000470824
0.000523355
0.000601734
0.000689404
0.000876045
0.00146445
0.00119027
0.00264635
0.00263154
0.00203897
0.000775779
0.000622348
0.000583188
0.000699413
0.00350619
0.00115989
1.17819e-15
0.00136725
0.00116041
0.000174679
0.000362188
0.000382564
0.000427704
0.000523098
0.000658011
0.000607002
0.00046067
0.00106838
0.0023772
0.00217459
0.00141713
0.000734913
0.000536697
0.000477672
0.00105191
4.01508e-08
0.000646358
0.000849698
0.000562189
0.000499766
0.000478753
0.000462603
0.000425813
0.000380434
0.000352205
0.000370248
0.000338102
0.000409126
0.000559256
0.000746146
0.000537471
0.000496419
0.000506005
0.000557491
0.000611471
0.000668652
0.00047127
0.00128978
0.00114093
0.00117459
0.00126263
0.00152792
0.00183277
0.00177673
0.00125945
0.000957278
0.000245892
0.000315802
0.000351706
0.000821269
0.000975929
0.00125142
0.00221202
0.00426237
0.0067538
0.000680225
8.5931e-10
0.00238123
0.00165712
0.00159641
0.00166168
0.00175476
0.00175564
0.00162316
0.00138043
0.00114168
0.000179387
0.00019644
0.000292514
0.000643866
0.000576911
0.000634159
0.0016537
0.00526225
0.0131814
0.000779185
1.37199e-15
0.00237308
0.00145723
0.00140543
0.00140848
0.00149809
0.00151968
0.00151466
0.00144297
0.00135129
0.00048486
0.000206549
0.000218937
0.000505748
0.00038237
0.0003839
0.000912916
0.0052956
0.016683
0.000994835
1.41552e-15
0.00213115
0.00104219
0.00101591
0.00100913
0.00108973
0.00117761
0.00135729
0.00142722
0.00136394
0.00400884
0.0005503
0.000264544
0.000335727
0.000328236
0.000298245
0.000522943
0.00408831
0.0172714
0.00117785
1.47574e-15
0.00175992
0.000607935
0.000660397
0.000680198
0.00069312
0.000736741
0.000808197
0.000908489
0.00100477
0.00169138
0.0012203
0.000517498
0.000311131
0.000301273
0.000275124
0.000362824
0.00241692
0.0157811
0.00122139
1.47546e-15
0.00141798
0.000418886
0.000408357
0.000456781
0.000461113
0.000529679
0.000592949
0.000672823
0.000752888
0.00107137
0.00292051
0.000862532
0.000373793
0.000275983
0.000291669
0.000333572
0.00103322
0.0123547
0.00120898
1.45955e-15
0.00114189
0.000532318
0.000342865
0.000351959
0.000349358
0.000386485
0.000467326
0.000557594
0.000642412
0.000780435
0.00513813
0.00208031
0.000642531
0.00031465
0.000313876
0.000369967
0.00058582
0.00826714
7.25227e-10
1.43729e-15
0.000924288
0.000807
0.000343807
0.000320075
0.00031507
0.000340513
0.000377703
0.000434381
0.000463889
0.000508975
0.00368068
0.0018911
0.0012558
0.000438367
0.000397742
0.000459391
0.000400175
0.00455777
1.31865e-15
1.42864e-15
0.00095729
0.00102031
0.000344691
0.000312588
0.000308568
0.000324986
0.000344041
0.000380383
0.000349753
0.000340457
0.00114042
0.00152707
0.0013363
0.00075482
0.000525128
0.00041745
0.000338294
0.00103803
1.34489e-15
0.00110362
0.00129792
0.00086536
0.000718775
0.000666638
0.000632283
0.000561114
0.000481427
0.000571205
0.000781493
0.000465261
0.000388264
0.000579234
0.00111057
0.000733088
0.000584605
0.000559045
0.000608592
0.000693396
0.000932815
0.000919452
0.00112808
0.00125766
0.0013199
0.00138007
0.00164119
0.00205464
0.00213596
0.00158246
0.000900258
0.000127939
0.000307324
0.000251267
0.000886839
0.00109564
0.0013269
0.00253436
0.00441104
0.00568216
0.000939192
0.00074779
0.00223912
0.00205238
0.00202664
0.00206744
0.00220161
0.00231135
0.00233272
0.0020209
0.000613966
5.13063e-05
0.000156217
0.000312581
0.000862348
0.000681545
0.000731826
0.00221792
0.0056818
0.0111939
0.00102672
0.000749733
0.00212053
0.00178599
0.00184
0.00186318
0.0019928
0.00217694
0.00230588
0.00223419
0.00127457
0.000290404
0.000252321
0.000246719
0.000730271
0.000429211
0.000460211
0.00129878
0.00579695
0.0135004
0.0012047
0.00085641
0.0015537
0.00109857
0.00139748
0.00151075
0.00162564
0.00185202
0.00230164
0.00251344
0.00203219
0.00390638
0.00103973
0.000540563
0.000465924
0.00037348
0.000300266
0.000736009
0.00478459
0.0140378
0.00135226
0.000999207
0.00104063
0.000473313
0.000758635
0.0011931
0.00128827
0.00143982
0.00172004
0.00218301
0.00203184
0.001727
0.001258
0.000586414
0.000309794
0.000262721
0.000209431
0.000421938
0.003224
0.0126053
0.00140384
1.36114e-09
0.000893964
0.000352021
0.00029638
0.000885509
0.001005
0.00116705
0.00134596
0.00161105
0.00140717
4.36181e-05
0.00107708
0.000692548
0.00031173
0.000212271
0.000210872
0.000303615
0.00164185
0.00933358
0.00139845
1.28771e-15
0.0009952
0.000552554
0.00024352
0.000605199
0.000688422
0.000786173
0.00100692
0.00134923
0.00145372
0.00118166
0.00450909
0.000957037
0.000362882
0.000199814
0.000215021
0.000295377
0.00107103
0.0061867
0.00124526
1.25971e-15
0.00105481
0.000933133
0.000273677
0.000470899
0.000523833
0.000603163
0.000701776
0.000912696
0.00094742
0.00102986
0.00362916
0.000854088
0.000369738
0.000197567
0.000238607
0.000363052
0.000678145
0.003534
0.00116952
1.2196e-15
0.00136943
0.00116958
0.000175317
0.000362221
0.000382628
0.000427069
0.000519219
0.000673678
0.000466146
0.000414701
0.000815902
0.000352689
0.000273909
0.000217224
0.000283121
0.000504312
0.000489379
0.00106467
1.83932e-08
0.00319474
0.00323832
0.00243053
0.00190369
0.00170476
0.00161295
0.00137642
0.00104553
0.00115208
0.00224399
1e-15
1e-15
1e-15
0.0027079
0.00181197
0.00105347
0.00076189
0.000872352
0.00129027
0.00226456
0.00270994
0.000889637
0.00132764
0.0014772
0.00151804
0.0016709
0.00210809
0.00213561
5.85615e-14
1.95726e-15
1e-15
1e-15
8.71227e-06
0.000929761
0.00167048
0.00229653
0.00341855
0.00407814
0.00309807
0.001962
0.00267089
0.00228553
0.00345849
0.00355307
0.00357354
0.0035517
0.0038066
0.00390009
0.00258921
2.89574e-15
1e-15
1.19671e-15
0.000272554
0.00211729
0.00183634
0.00217631
0.00453994
0.00698202
0.00621589
0.00199272
0.00267084
0.00236271
0.00320756
0.00331487
0.00336609
0.003399
0.00383902
0.00418747
0.00295838
2.94944e-15
0.00127458
0.00258245
0.000650758
0.00187219
0.000862841
0.00110199
0.0040808
0.00768894
0.00637738
0.00208426
0.00268907
0.00197877
0.00224967
0.00278779
0.00301422
0.003022
0.0035025
0.00447544
0.00492946
0.000369546
1.00047e-15
0.00431617
0.0020731
0.000898432
0.000635704
0.000540547
0.00273724
0.00731098
0.00667667
0.00218637
0.00277631
0.00142495
0.00100349
0.00166261
0.00273457
0.0027885
0.00311568
0.00388625
0.0051593
0.00492967
1.00381e-15
1e-15
1e-15
1.39911e-15
2.09322e-15
0.0001806
0.00159194
0.00609452
0.00758773
0.00225484
0.00302468
0.00138433
0.000740513
0.000575972
0.00234514
0.0026095
0.00292767
0.00346374
0.00423128
0.00407893
1.32486e-15
1e-15
1e-15
1.07284e-15
1.50878e-15
2.00348e-07
0.000864469
0.00424688
0.00641173
0.00225947
0.00321734
0.00195267
0.00105405
0.000351848
0.00183251
0.00214569
0.00235746
0.0028513
0.0035769
0.00458872
7.36584e-15
1e-15
1e-15
1.00048e-15
1.39574e-15
2.61219e-09
0.000647928
0.0033284
0.00423711
0.00222653
0.00322028
0.00245293
0.00162811
0.000313175
0.00143916
0.00170288
0.0018536
0.00209325
0.00248767
0.00292584
8.95881e-15
1.03114e-15
1e-15
1.00001e-15
1.31177e-15
9.18325e-11
0.00061722
0.00224323
0.00245907
0.00216007
0.00316707
0.0028762
0.0021917
0.000194966
0.000869319
0.000930202
0.000967167
0.00107274
0.001235
0.00138243
9.78857e-09
1.30686e-15
1e-15
1e-15
4.18172e-06
0.000268062
0.000728114
0.00116152
0.00129359
0.0020004
)
;

boundaryField
{
    aeration
    {
        type            fixedValue;
        value           uniform 3.75e-05;
    }
    xsides
    {
        type            kqRWallFunction;
        value           nonuniform List<scalar> 
100
(
0.00327083
0.002845
0.00280658
0.00279262
0.00280262
0.00287632
0.00310948
0.00330473
0.00331084
0.00325896
0.00111214
0.000938418
0.000769648
0.000768442
0.000878061
0.00101494
3.60369e-10
1.25933e-15
1.22452e-15
1.17819e-15
0.000646358
0.00047127
8.5931e-10
1.37199e-15
1.41552e-15
1.47574e-15
1.47546e-15
1.45955e-15
1.43729e-15
1.42864e-15
0.00110362
0.000919452
0.00074779
0.000749733
0.00085641
0.000999207
1.36114e-09
1.28771e-15
1.25971e-15
1.2196e-15
0.00319474
0.00270994
0.00267089
0.00267084
0.00268907
0.00277631
0.00302468
0.00321734
0.00322028
0.00316707
0.00224675
0.00194254
0.00197202
0.00206271
0.00216362
0.00223165
0.00223329
0.00219845
0.00213086
0.00197152
0.000932639
0.000934559
0.00102177
0.00120192
0.00134844
0.00139936
0.00139296
0.00123562
0.00115989
4.01508e-08
0.000668652
0.000680225
0.000779185
0.000994835
0.00117785
0.00122139
0.00120898
7.25227e-10
1.31865e-15
1.34489e-15
0.000932815
0.000939192
0.00102672
0.0012047
0.00135226
0.00140384
0.00139845
0.00124526
0.00116952
1.83932e-08
0.00226456
0.001962
0.00199272
0.00208426
0.00218637
0.00225484
0.00225947
0.00222653
0.00216007
0.0020004
)
;
    }
    zsides
    {
        type            kqRWallFunction;
        value           nonuniform List<scalar> 
400
(
0.00327083
0.002845
0.00280658
0.00279262
0.00280262
0.00287632
0.00310948
0.00330473
0.00331084
0.00325896
0.00338399
0.000901864
0.00227016
0.00236504
0.00199152
0.00142668
0.00137938
0.00194213
0.00245026
0.00288801
0.00256404
0.00125182
0.0034638
0.0032129
0.00225858
0.00100545
0.00073876
0.0010479
0.00162386
0.00218945
0.00201176
0.00140625
0.00355512
0.00331441
0.00278813
0.00166241
0.000576862
0.000351029
0.000309108
0.0001944
0.00180823
0.00144877
0.00357373
0.00336538
0.00301498
0.00273483
0.00234685
0.00183564
0.00144193
0.000870611
0.0017187
0.00159833
0.00354772
0.00339458
0.00302262
0.00278604
0.00260893
0.00214743
0.00170265
0.000930078
0.00149081
0.00202303
0.00378678
0.00382462
0.00350517
0.0031116
0.00292381
0.00236078
0.00185056
0.000968282
0.0011138
0.00203812
0.00378759
0.0041057
0.00445187
0.00388185
0.00345299
0.00286202
0.00207417
0.00108065
0.00125338
9.36432e-15
0.00222436
0.00245616
0.0048529
0.00516266
0.00421077
0.00356582
0.00245978
0.00122936
0.00234172
1.76173e-15
2.56088e-15
2.16161e-15
1.37268e-07
0.00561721
0.00486882
0.00454177
0.00302227
0.00135829
1e-15
0.00100206
1e-15
1e-15
1.00056e-15
9.13075e-05
0.000607906
0.00490698
0.00329521
0.00159604
1e-15
1e-15
1e-15
1e-15
1e-15
0.000906201
0.00278896
0.00365689
0.00280565
0.000966615
1e-15
6.79448e-05
0.000374746
0.000391309
2.77295e-13
0.000544376
0.00226747
0.0042701
0.00485665
0.0042882
0.00265774
0.000935972
0.00209021
0.00187959
0.000460055
0.000458583
0.00104482
0.0026957
0.00422863
0.00459121
0.00177267
0.00166498
0.0017902
0.000860671
0.000621034
0.000590646
0.00071406
0.00115101
0.00210833
0.00290971
0.0010325
0.00228524
0.00211697
0.00113335
0.000644807
0.00048147
0.000507547
0.000645647
0.000992708
0.00127809
0.000746425
0.00335572
0.00445018
0.00382425
0.00254911
0.00157425
0.00104477
0.000901687
0.000874904
0.000773433
0.000861125
0.00407174
0.00699353
0.00770526
0.00732377
0.00609771
0.0042978
0.00345513
0.00233311
0.00112114
0.00127724
0.003116
0.00622156
0.00638894
0.00668172
0.00759141
0.00639938
0.00420478
0.00243303
0.00129109
0.00224675
0.00194254
0.00197202
0.00206271
0.00216362
0.00223165
0.00223329
0.00219845
0.00213086
0.00197152
0.00319474
0.00270994
0.00267089
0.00267084
0.00268907
0.00277631
0.00302468
0.00321734
0.00322028
0.00316707
0.00323832
0.000889637
0.00228553
0.00236271
0.00197877
0.00142495
0.00138433
0.00195267
0.00245293
0.0028762
0.00243053
0.00132764
0.00345849
0.00320756
0.00224967
0.00100349
0.000740513
0.00105405
0.00162811
0.0021917
0.00190369
0.0014772
0.00355307
0.00331487
0.00278779
0.00166261
0.000575972
0.000351848
0.000313175
0.000194966
0.00170476
0.00151804
0.00357354
0.00336609
0.00301422
0.00273457
0.00234514
0.00183251
0.00143916
0.000869319
0.00161295
0.0016709
0.0035517
0.003399
0.003022
0.0027885
0.0026095
0.00214569
0.00170288
0.000930202
0.00137642
0.00210809
0.0038066
0.00383902
0.0035025
0.00311568
0.00292767
0.00235746
0.0018536
0.000967167
0.00104553
0.00213561
0.00390009
0.00418747
0.00447544
0.00388625
0.00346374
0.0028513
0.00209325
0.00107274
0.00115208
5.85615e-14
0.00258921
0.00295838
0.00492946
0.0051593
0.00423128
0.0035769
0.00248767
0.001235
0.00224399
1.95726e-15
2.89574e-15
2.94944e-15
0.000369546
0.00492967
0.00407893
0.00458872
0.00292584
0.00138243
1e-15
1e-15
1e-15
0.00127458
1.00047e-15
1.00381e-15
1.32486e-15
7.36584e-15
8.95881e-15
9.78857e-09
1e-15
1e-15
1.19671e-15
0.00258245
0.00431617
1e-15
1e-15
1e-15
1.03114e-15
1.30686e-15
1e-15
8.71227e-06
0.000272554
0.000650758
0.0020731
1e-15
1e-15
1e-15
1e-15
1e-15
0.0027079
0.000929761
0.00211729
0.00187219
0.000898432
1.39911e-15
1.07284e-15
1.00048e-15
1.00001e-15
1e-15
0.00181197
0.00167048
0.00183634
0.000862841
0.000635704
2.09322e-15
1.50878e-15
1.39574e-15
1.31177e-15
4.18172e-06
0.00105347
0.00229653
0.00217631
0.00110199
0.000540547
0.0001806
2.00348e-07
2.61219e-09
9.18325e-11
0.000268062
0.00076189
0.00341855
0.00453994
0.0040808
0.00273724
0.00159194
0.000864469
0.000647928
0.00061722
0.000728114
0.000872352
0.00407814
0.00698202
0.00768894
0.00731098
0.00609452
0.00424688
0.0033284
0.00224323
0.00116152
0.00129027
0.00309807
0.00621589
0.00637738
0.00667667
0.00758773
0.00641173
0.00423711
0.00245907
0.00129359
0.00226456
0.001962
0.00199272
0.00208426
0.00218637
0.00225484
0.00225947
0.00222653
0.00216007
0.0020004
)
;
    }
    outlet
    {
        type            inletOutlet;
        phi             phi.air;
        inletValue      uniform 3.75e-05;
        value           nonuniform List<scalar> 
100
(
0.00325896
1.17819e-15
1.42864e-15
1.2196e-15
0.00316707
0.00288801
0.00136725
0.00095729
0.00136943
0.0028762
0.00218945
0.00116041
0.00102031
0.00116958
0.0021917
3.75e-05
3.75e-05
3.75e-05
3.75e-05
3.75e-05
3.75e-05
3.75e-05
3.75e-05
3.75e-05
3.75e-05
3.75e-05
3.75e-05
3.75e-05
3.75e-05
3.75e-05
3.75e-05
3.75e-05
3.75e-05
3.75e-05
3.75e-05
3.75e-05
3.75e-05
3.75e-05
3.75e-05
3.75e-05
3.75e-05
3.75e-05
3.75e-05
3.75e-05
3.75e-05
3.75e-05
3.75e-05
3.75e-05
3.75e-05
3.75e-05
3.75e-05
3.75e-05
3.75e-05
3.75e-05
3.75e-05
3.75e-05
3.75e-05
3.75e-05
3.75e-05
1.30686e-15
0.0042882
0.0023772
0.00152707
0.000352689
1e-15
0.00459121
0.00217459
0.0013363
0.000273909
1e-15
0.00290971
0.00141713
0.00075482
0.000217224
4.18172e-06
0.00127809
0.000734913
0.000525128
0.000283121
0.000268062
3.75e-05
3.75e-05
3.75e-05
3.75e-05
3.75e-05
3.75e-05
3.75e-05
3.75e-05
3.75e-05
3.75e-05
3.75e-05
3.75e-05
3.75e-05
3.75e-05
3.75e-05
0.00197152
4.01508e-08
1.34489e-15
1.83932e-08
0.0020004
)
;
    }
}


// ************************************************************************* //
