/*--------------------------------*- C++ -*----------------------------------*\
| =========                 |                                                 |
| \\      /  F ield         | OpenFOAM: The Open Source CFD Toolbox           |
|  \\    /   O peration     | Version:  2.3.0                                 |
|   \\  /    A nd           | Web:      www.OpenFOAM.org                      |
|    \\/     M anipulation  |                                                 |
\*---------------------------------------------------------------------------*/
FoamFile
{
    version     2.0;
    format      ascii;
    class       volScalarField;
    location    "3.80231";
    object      rhom;
}
// * * * * * * * * * * * * * * * * * * * * * * * * * * * * * * * * * * * * * //

dimensions      [1 -3 0 0 0 0 0];

internalField   nonuniform List<scalar> 
1000
(
836.842
904.052
915.2
917.569
915.098
914.927
932.748
953.541
965.514
954.084
877.783
838.285
888.717
926.479
951.77
970.319
978.589
978.633
969.424
897.343
898.548
1016.82
1023.78
1024.3
1024.43
1024.96
1025.88
1026.29
1025.86
1019.34
946.245
875.951
991.996
1021.33
1025.28
1025.94
1026.5
1026.48
1025.28
946.693
927.888
1025.89
1027.02
1027.1
1027.11
1027.11
1027.11
1027.02
1026.18
1022.87
972.58
885.65
1017.45
1026.44
1025.95
1025.59
1026.75
1027.04
1025.7
963.445
946.792
1025.86
1026.9
1027.07
1027.11
1027.11
1027.11
1027.07
1026.47
1021.65
974.276
902.584
998.17
1026.32
1024.74
1023.56
1026.35
1027.09
1025.04
970.393
960.48
1025.02
1026.12
1026.89
1027.1
1027.11
1027.11
1027.11
1027.09
1026.8
981.344
924.821
976.636
1022.22
1023.63
1021.23
1025.36
1027.09
1024.86
973.862
973.039
1022.59
1023.02
1025.88
1027.08
1027.11
1027.11
1027.11
1027.11
1026.92
983.663
939.087
963.672
1009.45
1021.85
1019.07
1024.08
1027.06
1025.24
975.63
974.039
1018.79
1016.01
1021.69
1027.01
1027.11
1027.11
1027.11
1027.11
1026.96
1013.81
956.966
962.511
992.83
1016.33
1016.87
1023.04
1027.03
1025.37
976.892
973.089
1012.53
1004.89
1012.91
1026.94
1027.11
1027.11
1027.11
1027.11
1027.11
1027.02
978.805
965.297
981.104
1007.96
1014.18
1023
1027.02
1025.38
978.954
971.286
1004.59
991.488
1005.27
1026.93
1027.11
1027.11
1027.11
1027.11
1027.11
1027.11
1003.08
971.133
975.38
998.753
1010.25
1024.46
1027.09
1025.45
982.285
967.019
992.069
976.005
1017.41
1027.09
1027.11
1027.11
1027.11
1027.11
1027.11
1027.11
1017.88
977.58
973.678
990.005
1009.06
1026.39
1027.11
1026.33
983.699
878.391
939.1
946.682
948.688
946.596
948.828
967.284
985.488
999.726
1001.51
985.211
896.754
928.656
950.623
972.516
986.183
990.941
989.992
982.068
916.559
950.238
1024.39
1025.83
1025.99
1026.07
1026.36
1026.75
1026.9
1026.69
1025.2
974.255
935.232
1017.94
1024.22
1025.41
1025.64
1026.66
1026.97
1026.59
966.631
977.047
1026.59
1027.07
1027.11
1027.11
1027.11
1027.11
1027.08
1026.91
1025.13
972.768
950.677
1021.41
1025.15
1024.35
1023.82
1026.54
1027.1
1026.79
981.724
989.129
1026.46
1026.96
1027.08
1027.11
1027.11
1027.11
1027.1
1027.07
1026.17
981.251
965.744
1010.99
1024.85
1022.57
1021.46
1025.66
1027.1
1026.63
987.395
996.509
1025.67
1026.25
1026.93
1027.1
1027.11
1027.11
1027.11
1027.11
1026.99
1016.32
991.224
1001.96
1020.55
1020.84
1019.24
1024.52
1027.07
1026.53
989.623
1000.38
1023.74
1023.65
1026.03
1027.08
1027.11
1027.11
1027.11
1027.11
1026.77
997.672
995.031
1000.66
1014.44
1019.23
1017.67
1023.17
1027.02
1026.35
990.614
1000.02
1020.72
1018.08
1022.78
1027.03
1027.11
1027.11
1027.11
1027.11
1027.07
1022.88
1005.99
1003.33
1010.09
1017
1017.07
1022.24
1026.98
1026.19
991.619
998.73
1016.76
1009.57
1017.25
1026.99
1027.11
1027.11
1027.11
1027.11
1027.11
1027.1
1005.93
998.997
1004.6
1014.08
1016.12
1022.87
1027.01
1026.21
993.237
997.492
1012.54
1000.52
1013.68
1027.03
1027.11
1027.11
1027.11
1027.11
1027.11
1027.11
1013.69
992.493
996.773
1009.42
1014.81
1024.59
1027.09
1026.39
995.532
995.907
1006.4
994.976
1022.84
1027.1
1027.11
1027.11
1027.11
1027.11
1027.11
1027.11
1023.82
993.026
991.973
1003.29
1014.19
1026.47
1027.11
1026.92
996.865
894.689
949.866
956.127
957.108
956.072
959.978
976.765
991.776
1003.59
1007.51
986.884
900.604
939.334
958.673
978.626
989.844
994.19
992.853
985.046
921.434
970.014
1025.69
1026.29
1026.39
1026.44
1026.64
1026.91
1027.03
1027.07
1026.93
994.262
948.276
1022.6
1024.67
1025.43
1025.75
1026.68
1027.02
1026.87
972.139
994.317
1026.92
1027.1
1027.11
1027.11
1027.11
1027.11
1027.11
1027.11
1027.01
993.212
968.105
1021.06
1024.4
1023.99
1023.91
1026.37
1027.1
1027.03
987.226
1004.79
1026.87
1027.07
1027.1
1027.11
1027.11
1027.11
1027.11
1027.11
1027.08
1006.48
982.233
1011.63
1023.69
1021.95
1021.52
1025.47
1027.09
1026.97
993.031
1010.85
1026.58
1026.82
1027.05
1027.11
1027.11
1027.11
1027.11
1027.11
1027.1
1024.05
1000.95
1006.33
1019.69
1019.83
1019.46
1024.32
1027.04
1026.88
995.433
1014.52
1025.82
1025.8
1026.74
1027.1
1027.11
1027.11
1027.11
1027.11
1027.07
1022.71
1019.12
1011.87
1015.39
1018.2
1018.15
1023.04
1026.99
1026.76
996.497
1014.51
1024.5
1023.42
1025.62
1027.09
1027.11
1027.11
1027.11
1027.11
1027.1
1026.59
1024.92
1019.21
1016.81
1017.86
1018.14
1022.24
1026.93
1026.71
997.525
1013.85
1022.64
1019.3
1023.78
1027.08
1027.11
1027.11
1027.11
1027.11
1027.11
1027.1
1025.06
1022.03
1019.61
1018.91
1018.52
1022.66
1026.95
1026.75
999.174
1012.65
1020.54
1015.03
1022.76
1027.09
1027.11
1027.11
1027.11
1027.11
1027.11
1027.11
1024.43
1018.75
1018.88
1019.13
1018.95
1024.01
1027.07
1026.9
1001.23
1012.05
1017.58
1013.38
1026.13
1027.11
1027.11
1027.11
1027.11
1027.11
1027.11
1027.11
1026.78
1016.91
1017.17
1018.84
1019.28
1026.13
1027.11
1027.08
1002.66
879.123
940.339
947.822
949.611
947.589
949.543
967.913
985.656
1000.02
1001.67
981.652
891.386
928.809
950.164
972.253
986.047
990.881
989.95
982.043
916.579
950.417
1024.7
1025.91
1026.06
1026.13
1026.4
1026.77
1026.93
1026.82
1025.22
979.48
936.615
1016.74
1024.04
1025.27
1025.49
1026.61
1026.97
1026.58
966.568
977.481
1026.61
1027.07
1027.11
1027.11
1027.11
1027.11
1027.1
1026.97
1025.06
981.262
953.907
1021.76
1025
1024.13
1023.61
1026.44
1027.1
1026.78
981.65
989.872
1026.46
1026.95
1027.08
1027.11
1027.11
1027.11
1027.11
1027.08
1026.39
989.055
969.91
1012.35
1024.76
1022.37
1021.3
1025.45
1027.09
1026.63
987.325
997.188
1025.65
1026.23
1026.93
1027.1
1027.11
1027.11
1027.11
1027.11
1026.98
1017.82
988.206
1000.34
1020.65
1021.01
1019.2
1024.2
1027.05
1026.53
989.542
1001.26
1023.71
1023.62
1026.04
1027.08
1027.11
1027.11
1027.11
1027.11
1026.87
1019.43
1006.37
1004.4
1013.17
1019.21
1017.73
1022.76
1026.99
1026.36
990.526
1000.98
1020.69
1018.09
1022.8
1027.03
1027.11
1027.11
1027.11
1027.11
1026.86
1017.93
1009.33
1006.12
1009.09
1016.11
1017.01
1021.8
1026.94
1026.19
991.521
999.831
1016.77
1009.78
1017.27
1026.99
1027.11
1027.11
1027.11
1027.11
1027.11
1026.94
1024.78
1013.72
1010.92
1014.24
1016.29
1022.02
1026.94
1026.2
993.12
998.749
1012.66
1001.07
1013.6
1027.02
1027.11
1027.11
1027.11
1027.11
1027.11
1027.11
1024.04
1011.29
1010
1012.87
1015.57
1023.73
1027.07
1026.38
995.371
997.325
1006.82
995.585
1022.78
1027.1
1027.11
1027.11
1027.11
1027.11
1027.11
1027.11
1023.81
1001.48
1002.92
1009.41
1014.59
1026.1
1027.11
1026.91
996.734
839.194
907.635
918.168
920.297
917.787
917.679
935.408
955.538
967.602
956.739
877.817
833.556
886.846
925.405
951.033
969.711
978.163
978.26
968.963
896.875
901.618
1018.37
1024.1
1024.53
1024.64
1025.12
1025.99
1026.38
1026.08
1020.7
947.279
874.106
989.026
1020.97
1025.28
1025.97
1026.54
1026.49
1025.27
946.113
930.927
1025.94
1027.02
1027.1
1027.11
1027.11
1027.11
1027.06
1026.46
1023.56
969.432
883.062
1018.89
1026.46
1026.03
1025.7
1026.81
1027.05
1025.71
962.872
949.37
1025.87
1026.89
1027.07
1027.11
1027.11
1027.11
1027.08
1026.75
1023.65
973.151
900.168
998.64
1026.35
1024.83
1023.64
1026.53
1027.1
1025.05
969.79
962.63
1025
1026.1
1026.89
1027.1
1027.11
1027.11
1027.11
1027.1
1026.89
981.094
920.588
971.837
1021.62
1023.61
1021.11
1025.67
1027.1
1024.87
973.212
974.669
1022.55
1023
1025.88
1027.08
1027.11
1027.11
1027.11
1027.11
1026.77
984.416
939.77
963.896
1008.58
1021.37
1018.48
1024.49
1027.08
1025.25
974.955
975.412
1018.72
1015.93
1021.67
1027.01
1027.11
1027.11
1027.11
1027.11
1026.76
1001.42
954.492
960.849
991.838
1015.58
1015.91
1023.51
1027.06
1025.37
976.22
974.468
1012.42
1004.73
1012.79
1026.93
1027.11
1027.11
1027.11
1027.11
1027.11
1026.68
974.246
962.87
981.242
1008
1013.76
1023.49
1027.05
1025.37
978.307
972.659
1004.54
991.298
1004.98
1026.93
1027.11
1027.11
1027.11
1027.11
1027.11
1027.11
989.054
966.176
976.169
1000.91
1011.62
1025.06
1027.1
1025.42
981.633
968.535
992.139
975.946
1017.18
1027.09
1027.11
1027.11
1027.11
1027.11
1027.11
1027.11
1000.6
970.763
973.959
994.8
1012.3
1026.62
1027.11
1026.3
983.127
)
;

boundaryField
{
    aeration
    {
        type            calculated;
        value           nonuniform List<scalar> 
100
(
770.914
770.914
770.914
770.914
770.914
770.914
770.914
770.914
770.914
770.914
770.914
770.914
770.914
770.914
770.914
770.914
770.914
770.914
770.914
770.914
770.914
770.914
770.914
770.914
770.914
770.914
770.914
770.914
770.914
770.914
770.914
770.914
770.914
770.914
770.914
770.915
770.914
770.914
770.914
770.915
770.915
770.914
770.914
770.914
770.915
770.914
770.914
770.914
770.914
770.914
770.914
770.914
770.914
770.914
770.914
770.914
770.914
770.914
770.914
770.914
770.914
770.914
770.914
770.914
770.914
770.914
770.914
770.914
770.914
770.914
770.914
770.914
770.914
770.914
770.914
770.914
770.914
770.914
770.914
770.914
770.914
770.914
770.914
770.914
770.914
770.914
770.914
770.914
770.914
770.914
770.914
770.914
770.914
770.914
770.914
770.914
770.914
770.914
770.914
770.914
)
;
    }
    xsides
    {
        type            calculated;
        value           nonuniform List<scalar> 
100
(
836.842
898.548
927.888
946.792
960.48
973.039
974.039
973.089
971.286
967.019
878.391
950.238
977.047
989.129
996.509
1000.38
1000.02
998.73
997.492
995.907
894.689
970.014
994.317
1004.79
1010.85
1014.52
1014.51
1013.85
1012.65
1012.05
879.123
950.417
977.481
989.872
997.188
1001.26
1000.98
999.831
998.749
997.325
839.194
901.618
930.927
949.37
962.63
974.669
975.412
974.468
972.659
968.535
897.343
946.693
963.445
970.393
973.862
975.63
976.892
978.954
982.285
983.699
916.559
966.631
981.724
987.395
989.623
990.614
991.619
993.237
995.532
996.865
921.434
972.139
987.226
993.031
995.433
996.497
997.525
999.174
1001.23
1002.66
916.579
966.568
981.65
987.325
989.542
990.526
991.521
993.12
995.371
996.734
896.875
946.113
962.872
969.79
973.212
974.955
976.22
978.307
981.633
983.127
)
;
    }
    zsides
    {
        type            calculated;
        value           nonuniform List<scalar> 
400
(
836.842
898.548
927.888
946.792
960.48
973.039
974.039
973.089
971.286
967.019
904.052
1016.82
1025.89
1025.86
1025.02
1022.59
1018.79
1012.53
1004.59
992.069
915.2
1023.78
1027.02
1026.9
1026.12
1023.02
1016.01
1004.89
991.488
976.005
917.569
1024.3
1027.1
1027.07
1026.89
1025.88
1021.69
1012.91
1005.27
1017.41
915.098
1024.43
1027.11
1027.11
1027.1
1027.08
1027.01
1026.94
1026.93
1027.09
914.927
1024.96
1027.11
1027.11
1027.11
1027.11
1027.11
1027.11
1027.11
1027.11
932.748
1025.88
1027.11
1027.11
1027.11
1027.11
1027.11
1027.11
1027.11
1027.11
953.541
1026.29
1027.02
1027.07
1027.11
1027.11
1027.11
1027.11
1027.11
1027.11
965.514
1025.86
1026.18
1026.47
1027.09
1027.11
1027.11
1027.11
1027.11
1027.11
954.084
1019.34
1022.87
1021.65
1026.8
1026.92
1026.96
1027.11
1027.11
1027.11
877.783
946.245
972.58
974.276
981.344
983.663
1013.81
1027.02
1027.11
1027.11
838.285
875.951
885.65
902.584
924.821
939.087
956.966
978.805
1003.08
1017.88
888.717
991.996
1017.45
998.17
976.636
963.672
962.511
965.297
971.133
977.58
926.479
1021.33
1026.44
1026.32
1022.22
1009.45
992.83
981.104
975.38
973.678
951.77
1025.28
1025.95
1024.74
1023.63
1021.85
1016.33
1007.96
998.753
990.005
970.319
1025.94
1025.59
1023.56
1021.23
1019.07
1016.87
1014.18
1010.25
1009.06
978.589
1026.5
1026.75
1026.35
1025.36
1024.08
1023.04
1023
1024.46
1026.39
978.633
1026.48
1027.04
1027.09
1027.09
1027.06
1027.03
1027.02
1027.09
1027.11
969.424
1025.28
1025.7
1025.04
1024.86
1025.24
1025.37
1025.38
1025.45
1026.33
897.343
946.693
963.445
970.393
973.862
975.63
976.892
978.954
982.285
983.699
839.194
901.618
930.927
949.37
962.63
974.669
975.412
974.468
972.659
968.535
907.635
1018.37
1025.94
1025.87
1025
1022.55
1018.72
1012.42
1004.54
992.139
918.168
1024.1
1027.02
1026.89
1026.1
1023
1015.93
1004.73
991.298
975.946
920.297
1024.53
1027.1
1027.07
1026.89
1025.88
1021.67
1012.79
1004.98
1017.18
917.787
1024.64
1027.11
1027.11
1027.1
1027.08
1027.01
1026.93
1026.93
1027.09
917.679
1025.12
1027.11
1027.11
1027.11
1027.11
1027.11
1027.11
1027.11
1027.11
935.408
1025.99
1027.11
1027.11
1027.11
1027.11
1027.11
1027.11
1027.11
1027.11
955.538
1026.38
1027.06
1027.08
1027.11
1027.11
1027.11
1027.11
1027.11
1027.11
967.602
1026.08
1026.46
1026.75
1027.1
1027.11
1027.11
1027.11
1027.11
1027.11
956.739
1020.7
1023.56
1023.65
1026.89
1026.77
1026.76
1027.11
1027.11
1027.11
877.817
947.279
969.432
973.151
981.094
984.416
1001.42
1026.68
1027.11
1027.11
833.556
874.106
883.062
900.168
920.588
939.77
954.492
974.246
989.054
1000.6
886.846
989.026
1018.89
998.64
971.837
963.896
960.849
962.87
966.176
970.763
925.405
1020.97
1026.46
1026.35
1021.62
1008.58
991.838
981.242
976.169
973.959
951.033
1025.28
1026.03
1024.83
1023.61
1021.37
1015.58
1008
1000.91
994.8
969.711
1025.97
1025.7
1023.64
1021.11
1018.48
1015.91
1013.76
1011.62
1012.3
978.163
1026.54
1026.81
1026.53
1025.67
1024.49
1023.51
1023.49
1025.06
1026.62
978.26
1026.49
1027.05
1027.1
1027.1
1027.08
1027.06
1027.05
1027.1
1027.11
968.963
1025.27
1025.71
1025.05
1024.87
1025.25
1025.37
1025.37
1025.42
1026.3
896.875
946.113
962.872
969.79
973.212
974.955
976.22
978.307
981.633
983.127
)
;
    }
    outlet
    {
        type            calculated;
        value           nonuniform List<scalar> 
100
(
967.019
995.907
1012.05
997.325
968.535
992.069
1006.4
1017.58
1006.82
992.139
976.005
994.976
1013.38
995.585
975.946
1027.11
1027.11
1027.11
1027.11
1027.11
1027.11
1027.11
1027.11
1027.11
1027.11
1027.11
1027.11
1027.11
1027.11
1027.11
1027.11
1027.11
1027.11
1027.11
1027.11
1027.11
1027.11
1027.11
1027.11
1027.11
1027.11
1027.11
1027.11
1027.11
1027.11
1027.11
1027.11
1027.11
1027.11
1027.11
1027.11
1027.11
1027.11
1027.11
1027.11
1027.11
1027.11
1027.11
1027.11
1000.6
977.58
993.026
1016.91
1001.48
970.763
973.678
991.973
1017.17
1002.92
973.958
990.005
1003.29
1018.84
1009.41
994.8
1009.06
1014.19
1019.28
1014.59
1012.3
1027.11
1027.11
1027.11
1027.11
1027.11
1027.11
1027.11
1027.11
1027.11
1027.11
1027.11
1027.11
1027.11
1027.11
1027.11
983.699
996.865
1002.66
996.734
983.127
)
;
    }
}


// ************************************************************************* //
