/*--------------------------------*- C++ -*----------------------------------*\
| =========                 |                                                 |
| \\      /  F ield         | OpenFOAM: The Open Source CFD Toolbox           |
|  \\    /   O peration     | Version:  2.3.0                                 |
|   \\  /    A nd           | Web:      www.OpenFOAM.org                      |
|    \\/     M anipulation  |                                                 |
\*---------------------------------------------------------------------------*/
FoamFile
{
    version     2.0;
    format      ascii;
    class       volScalarField;
    location    "90";
    object      epsilon.air;
}
// * * * * * * * * * * * * * * * * * * * * * * * * * * * * * * * * * * * * * //

dimensions      [0 2 -3 0 0 0 0];

internalField   nonuniform List<scalar> 
1875
(
0.274593
0.283596
0.290534
0.297302
0.304586
0.312816
0.321918
0.331738
0.341916
0.351857
0.360899
0.368695
0.37426
0.375985
0.374072
0.36778
0.354024
0.331949
0.302487
0.268284
0.233596
0.20232
0.177315
0.161163
0.164677
0.464269
0.413291
0.381609
0.361517
0.347932
0.338392
0.331466
0.326641
0.323902
0.32364
0.32507
0.32882
0.335466
0.344602
0.35536
0.36516
0.373074
0.375672
0.372
0.361395
0.345191
0.327788
0.316263
0.321861
0.367
0.428765
0.37842
0.348047
0.329794
0.318495
0.311393
0.30695
0.304353
0.303194
0.303321
0.304453
0.307106
0.311748
0.31883
0.328505
0.340655
0.352269
0.359876
0.361373
0.356908
0.346503
0.335454
0.329667
0.335009
0.361564
0.351487
0.309051
0.293009
0.286258
0.283513
0.283087
0.284048
0.286155
0.289027
0.292608
0.296989
0.302194
0.308285
0.315615
0.324501
0.334684
0.344681
0.35226
0.355235
0.352341
0.344205
0.335216
0.332497
0.34258
0.374593
0.368376
0.275723
0.271482
0.271023
0.271983
0.274158
0.2772
0.280879
0.284937
0.289449
0.294646
0.30058
0.307305
0.314924
0.323279
0.331846
0.339742
0.345297
0.346753
0.343591
0.337517
0.332119
0.332518
0.345314
0.377392
0.37774
0.271319
0.270568
0.272642
0.275902
0.279608
0.283203
0.286793
0.29055
0.294661
0.299312
0.304666
0.310777
0.317622
0.324914
0.332109
0.337997
0.341347
0.341945
0.339298
0.334816
0.331976
0.334189
0.346582
0.375158
0.38445
0.278927
0.28501
0.289219
0.29347
0.296452
0.298093
0.29928
0.300805
0.303128
0.306486
0.310807
0.315991
0.32191
0.328291
0.334444
0.339326
0.341538
0.34117
0.338143
0.334178
0.332043
0.333995
0.343455
0.365977
0.387672
0.291759
0.303663
0.310944
0.31512
0.31568
0.313846
0.311504
0.310364
0.31045
0.312289
0.316385
0.322051
0.328674
0.334898
0.340026
0.342525
0.34279
0.340545
0.336599
0.332486
0.330358
0.331772
0.340297
0.361901
0.379465
0.304522
0.320649
0.329345
0.33218
0.329669
0.324288
0.31892
0.316038
0.315617
0.319302
0.324463
0.330082
0.335825
0.340433
0.342628
0.342925
0.341041
0.337227
0.332437
0.328
0.325599
0.326699
0.33518
0.356113
0.309826
0.310717
0.329744
0.339127
0.341118
0.337084
0.330662
0.326185
0.324922
0.326143
0.327845
0.330474
0.334421
0.337034
0.338699
0.339019
0.337502
0.334289
0.33015
0.325877
0.322257
0.320529
0.32246
0.332025
0.353414
0.284174
0.310213
0.331645
0.341633
0.343313
0.338751
0.331932
0.326543
0.324141
0.32373
0.324982
0.326892
0.328493
0.329446
0.329391
0.328267
0.326415
0.324155
0.321754
0.319571
0.318279
0.318656
0.322887
0.334995
0.359056
0.277122
0.3064
0.329232
0.33995
0.342165
0.338366
0.332212
0.326713
0.322864
0.320552
0.319537
0.319121
0.318455
0.317532
0.316521
0.315559
0.314772
0.314329
0.314266
0.31488
0.316729
0.320801
0.32948
0.348133
0.383514
0.282147
0.308119
0.328022
0.337562
0.33992
0.337176
0.33198
0.326563
0.321728
0.317707
0.314301
0.311354
0.308857
0.306947
0.305811
0.305416
0.305743
0.30692
0.309045
0.312436
0.317694
0.326085
0.340223
0.365815
0.406253
0.299838
0.316291
0.329579
0.336185
0.337953
0.335852
0.331503
0.326149
0.320563
0.315196
0.310216
0.305916
0.302548
0.300264
0.299206
0.299113
0.30015
0.302431
0.306213
0.31183
0.320118
0.33265
0.352147
0.381741
0.417861
0.314689
0.324076
0.331636
0.335192
0.336109
0.33441
0.330815
0.325678
0.319887
0.313962
0.308326
0.30345
0.299649
0.297083
0.295875
0.295785
0.297023
0.299707
0.304073
0.310788
0.320796
0.335644
0.358181
0.390273
0.431544
0.317383
0.325353
0.331393
0.333898
0.334663
0.333291
0.330184
0.3255
0.319929
0.314011
0.308259
0.303121
0.298932
0.29595
0.294366
0.294068
0.295217
0.297983
0.30254
0.309379
0.319107
0.332951
0.352887
0.382049
0.42823
0.32028
0.326907
0.33145
0.333029
0.333244
0.331922
0.329314
0.325407
0.320317
0.314633
0.308941
0.303741
0.299382
0.296104
0.294091
0.293424
0.29416
0.296475
0.300425
0.305921
0.313244
0.323248
0.337598
0.359303
0.402339
0.322458
0.328208
0.332354
0.333697
0.333624
0.332361
0.329734
0.325933
0.321328
0.316108
0.310719
0.305627
0.301181
0.297619
0.295101
0.293806
0.293826
0.295207
0.297554
0.300685
0.304858
0.310573
0.318631
0.329546
0.354525
0.320306
0.326943
0.333029
0.335394
0.335329
0.333829
0.331218
0.327687
0.323434
0.318799
0.313902
0.309074
0.304625
0.300795
0.297764
0.295715
0.294798
0.295031
0.296155
0.297829
0.300095
0.303245
0.30796
0.31274
0.321712
0.318902
0.325681
0.333575
0.337884
0.338722
0.33732
0.33436
0.330704
0.326725
0.322562
0.318329
0.314001
0.309783
0.305859
0.302414
0.29965
0.297767
0.296823
0.296787
0.297462
0.298797
0.300969
0.304902
0.309095
0.316337
0.321549
0.32638
0.334179
0.340188
0.342524
0.341831
0.339162
0.335182
0.330854
0.32654
0.322918
0.319772
0.316352
0.312737
0.30913
0.305792
0.303013
0.300987
0.299786
0.299399
0.299809
0.30122
0.304526
0.308516
0.313708
0.328076
0.328545
0.333998
0.340493
0.344574
0.345364
0.343726
0.34023
0.336041
0.331883
0.328074
0.325374
0.323203
0.32051
0.317257
0.313691
0.310183
0.307095
0.304661
0.303052
0.302464
0.303091
0.305616
0.30917
0.312477
0.34833
0.335936
0.334378
0.338453
0.34336
0.345924
0.345758
0.343674
0.340049
0.336512
0.333453
0.330749
0.328954
0.327508
0.32535
0.322265
0.318489
0.31451
0.310841
0.307854
0.306028
0.305744
0.307634
0.311268
0.315128
0.370719
0.343447
0.333211
0.333307
0.33772
0.342323
0.344467
0.344131
0.342239
0.339541
0.337249
0.334802
0.332767
0.332044
0.331535
0.329923
0.326709
0.322328
0.31756
0.313121
0.30978
0.308165
0.308955
0.311708
0.314807
0.391483
0.349259
0.331127
0.325876
0.328319
0.333843
0.338801
0.341365
0.341373
0.339951
0.337831
0.336427
0.335815
0.335608
0.335856
0.335599
0.33363
0.329443
0.323879
0.31809
0.313158
0.309995
0.309292
0.310376
0.311401
0.401168
0.351718
0.328174
0.318783
0.318517
0.323172
0.329713
0.335114
0.338088
0.338661
0.337604
0.336398
0.336168
0.336914
0.338175
0.33901
0.338155
0.334736
0.328875
0.322024
0.315695
0.31105
0.308782
0.307998
0.306749
0.40525
0.355434
0.327992
0.315418
0.311979
0.314782
0.321145
0.328089
0.333404
0.33634
0.337136
0.336896
0.337125
0.338081
0.339473
0.340673
0.340475
0.337756
0.332018
0.324555
0.317176
0.311341
0.307733
0.305243
0.302004
0.409177
0.360073
0.330302
0.315148
0.309298
0.310203
0.315525
0.322839
0.329465
0.334033
0.336255
0.336736
0.337036
0.338075
0.339787
0.341168
0.341167
0.338811
0.333346
0.325683
0.317689
0.311032
0.306435
0.302581
0.29765
0.405064
0.360549
0.332808
0.316531
0.308934
0.30855
0.313178
0.320468
0.32769
0.333033
0.335886
0.336712
0.337247
0.338257
0.339704
0.34089
0.340809
0.33851
0.33326
0.325687
0.317516
0.310472
0.305279
0.300311
0.293971
0.387092
0.352672
0.332223
0.317294
0.30908
0.308387
0.313001
0.320396
0.327798
0.333169
0.335909
0.336722
0.337213
0.33809
0.339277
0.340147
0.339825
0.337439
0.332389
0.325088
0.31708
0.310139
0.30495
0.298992
0.291707
0.361589
0.339016
0.324809
0.313928
0.307989
0.308546
0.313861
0.321445
0.328646
0.333637
0.335968
0.336623
0.336992
0.337644
0.338501
0.33903
0.338431
0.335925
0.331073
0.324248
0.316898
0.310888
0.306436
0.299129
0.290717
0.333381
0.322562
0.314793
0.308667
0.306559
0.30922
0.315577
0.323331
0.330033
0.334213
0.33591
0.336339
0.336591
0.337068
0.337617
0.337775
0.336874
0.334261
0.329593
0.323302
0.31686
0.312017
0.308697
0.301855
0.294494
0.309764
0.309241
0.307677
0.30558
0.30644
0.310984
0.318136
0.32562
0.331351
0.334474
0.335583
0.335839
0.336043
0.336327
0.336526
0.336339
0.335171
0.332483
0.328051
0.322402
0.31698
0.313182
0.310568
0.305663
0.301479
0.302793
0.304432
0.304942
0.304973
0.307886
0.313732
0.321086
0.327701
0.33212
0.334208
0.334811
0.334837
0.334869
0.33502
0.335112
0.334719
0.333384
0.330705
0.326626
0.321848
0.31783
0.315698
0.31437
0.310275
0.308625
0.301002
0.30286
0.30424
0.305874
0.310202
0.31674
0.3236
0.328918
0.331972
0.333134
0.333423
0.333676
0.333754
0.333779
0.333658
0.333056
0.331582
0.328949
0.325274
0.321432
0.31884
0.318313
0.318335
0.31595
0.317542
0.298394
0.301379
0.303934
0.307096
0.312501
0.319142
0.325064
0.329163
0.331363
0.332191
0.332509
0.332555
0.332521
0.332409
0.332111
0.331328
0.329732
0.327148
0.323864
0.320859
0.319348
0.319873
0.32054
0.319802
0.324549
0.295459
0.299732
0.303632
0.308017
0.314133
0.320382
0.325339
0.328658
0.330589
0.331648
0.331802
0.331371
0.331146
0.330919
0.33047
0.329526
0.327814
0.325273
0.322338
0.320012
0.319235
0.320424
0.321876
0.321929
0.327182
0.291835
0.297821
0.303069
0.308372
0.314692
0.320298
0.324494
0.327254
0.328876
0.329723
0.329842
0.329753
0.329611
0.329331
0.328772
0.327693
0.32589
0.323407
0.320779
0.318945
0.318632
0.320164
0.322208
0.323063
0.326783
0.288408
0.296029
0.302191
0.308005
0.314097
0.319124
0.322797
0.325218
0.326605
0.327229
0.327703
0.327986
0.327916
0.327628
0.326999
0.325823
0.323962
0.32156
0.319194
0.317704
0.317674
0.319427
0.32196
0.323939
0.326755
0.284775
0.293591
0.300742
0.306803
0.312557
0.317218
0.320675
0.32303
0.324493
0.325317
0.325782
0.326041
0.326074
0.325805
0.325131
0.323884
0.321997
0.319685
0.317523
0.31622
0.316249
0.317845
0.320162
0.321784
0.322378
0.28089
0.290369
0.298635
0.304873
0.310419
0.314915
0.318321
0.320727
0.322321
0.323329
0.323943
0.324252
0.32428
0.323995
0.323278
0.32199
0.320122
0.317941
0.315997
0.314865
0.31491
0.316531
0.318648
0.319819
0.319566
0.277355
0.28718
0.295894
0.302405
0.307934
0.312413
0.315867
0.318385
0.320138
0.321326
0.32208
0.322473
0.322545
0.322278
0.321562
0.320293
0.318521
0.316554
0.314926
0.314136
0.31451
0.316181
0.318431
0.320504
0.322403
0.274465
0.28436
0.29309
0.299865
0.305468
0.30998
0.313503
0.316133
0.318026
0.319352
0.320248
0.320774
0.320937
0.320729
0.32006
0.318865
0.317235
0.315484
0.314072
0.313663
0.314577
0.31626
0.318462
0.320036
0.320976
0.27241
0.282237
0.290959
0.297764
0.303344
0.307844
0.311405
0.314123
0.316142
0.317606
0.318628
0.319267
0.319525
0.3194
0.318816
0.317749
0.316341
0.314909
0.313901
0.313742
0.314674
0.316799
0.319233
0.320942
0.32162
0.270822
0.280562
0.289211
0.296005
0.301549
0.306029
0.309609
0.312391
0.314527
0.316116
0.317234
0.31797
0.31832
0.318279
0.317786
0.316837
0.315591
0.314582
0.314083
0.314184
0.315134
0.317414
0.319829
0.322265
0.324823
0.269716
0.279305
0.287848
0.294594
0.300082
0.304528
0.308107
0.310927
0.313095
0.314713
0.315995
0.316852
0.317308
0.317365
0.316982
0.316172
0.315116
0.314163
0.313618
0.313923
0.315338
0.317394
0.319789
0.322068
0.323901
0.269079
0.278479
0.286859
0.29351
0.298903
0.303249
0.306806
0.309678
0.311862
0.313602
0.315
0.315942
0.316467
0.316583
0.316241
0.315704
0.314964
0.313987
0.313535
0.313916
0.315333
0.317576
0.320141
0.322269
0.323808
0.268894
0.278052
0.286235
0.292735
0.298024
0.302328
0.305878
0.30876
0.311104
0.313035
0.314221
0.315138
0.315802
0.316031
0.315806
0.315219
0.314567
0.314049
0.313985
0.314429
0.315701
0.317988
0.320148
0.322247
0.324079
0.269113
0.278011
0.285996
0.292445
0.297746
0.302207
0.30575
0.308474
0.310828
0.312478
0.313754
0.314695
0.31527
0.315596
0.315716
0.315161
0.314487
0.314089
0.313838
0.31435
0.315747
0.317877
0.319972
0.32192
0.323598
0.269498
0.278226
0.286157
0.292697
0.29782
0.301889
0.305328
0.308218
0.310365
0.312132
0.313737
0.314775
0.315265
0.31551
0.315454
0.315235
0.314673
0.314002
0.313761
0.314263
0.315645
0.317703
0.319717
0.321617
0.323414
0.27003
0.278811
0.286617
0.292777
0.297659
0.301612
0.304947
0.307757
0.310018
0.312009
0.313327
0.314376
0.315206
0.315484
0.315172
0.314757
0.31422
0.313808
0.31377
0.314228
0.315499
0.317422
0.319218
0.320839
0.322024
0.272257
0.28025
0.287448
0.293292
0.298066
0.302139
0.305374
0.307855
0.310096
0.311647
0.312894
0.313878
0.314601
0.314965
0.315012
0.314591
0.31411
0.313784
0.3137
0.314126
0.315281
0.317059
0.318666
0.320126
0.321242
0.274482
0.282116
0.288896
0.294575
0.299007
0.302472
0.305484
0.308101
0.31002
0.311665
0.313165
0.314129
0.314557
0.314851
0.314983
0.314857
0.314398
0.313888
0.313711
0.31407
0.315114
0.316717
0.318152
0.319388
0.3204
0.278183
0.284707
0.290819
0.295668
0.299655
0.30295
0.30576
0.308151
0.310129
0.311884
0.313035
0.313987
0.314784
0.315129
0.315051
0.314662
0.314251
0.313844
0.313637
0.31391
0.314852
0.316258
0.317493
0.318452
0.319064
0.279425
0.28609
0.292022
0.296819
0.300739
0.304096
0.30675
0.308785
0.310669
0.311971
0.313021
0.313849
0.314443
0.314732
0.314731
0.314496
0.314149
0.313772
0.3136
0.313826
0.314601
0.3158
0.316759
0.317484
0.317875
0.281665
0.288376
0.294008
0.298669
0.30226
0.305027
0.30744
0.309557
0.311092
0.312422
0.313657
0.314428
0.314727
0.314914
0.31495
0.314889
0.314467
0.314015
0.313727
0.313833
0.314407
0.315369
0.316057
0.3165
0.316595
0.287627
0.292286
0.296887
0.30057
0.303636
0.306169
0.308344
0.310214
0.311773
0.313174
0.314062
0.314802
0.315436
0.315694
0.315627
0.315232
0.314821
0.314357
0.313987
0.313945
0.314325
0.315022
0.315448
0.315555
0.315312
0.288693
0.29402
0.298701
0.302427
0.305463
0.308064
0.310086
0.311607
0.313048
0.314001
0.314771
0.315383
0.315815
0.316004
0.315962
0.31572
0.315365
0.314932
0.314524
0.314328
0.314491
0.314868
0.31498
0.314746
0.314151
0.292256
0.297448
0.301752
0.305318
0.308026
0.310054
0.311831
0.313412
0.314529
0.315514
0.316458
0.317006
0.317155
0.317236
0.31721
0.317108
0.316655
0.316124
0.315624
0.315254
0.315123
0.315161
0.314898
0.314236
0.313233
0.29996
0.30293
0.306139
0.308732
0.310934
0.312728
0.314285
0.315652
0.31681
0.317897
0.318592
0.319083
0.319547
0.319712
0.319606
0.319211
0.318769
0.318201
0.317588
0.31703
0.316565
0.316171
0.315433
0.314226
0.312703
0.302863
0.306561
0.309952
0.312691
0.314962
0.31691
0.31839
0.319472
0.320547
0.321232
0.321801
0.322274
0.32265
0.322824
0.322806
0.32259
0.322267
0.321748
0.32106
0.320276
0.319448
0.318502
0.317167
0.315221
0.312987
0.308515
0.312456
0.315834
0.31873
0.320953
0.322631
0.324035
0.325229
0.326087
0.326752
0.327418
0.32808
0.328335
0.328548
0.328678
0.328738
0.328414
0.327871
0.327099
0.32608
0.324817
0.32323
0.321106
0.318162
0.315029
0.319257
0.321807
0.324847
0.32737
0.329475
0.331163
0.332594
0.333876
0.334886
0.335898
0.336636
0.337268
0.337859
0.338296
0.338551
0.338572
0.338406
0.338006
0.337265
0.336089
0.334387
0.332032
0.32881
0.324448
0.31996
0.326897
0.332331
0.337068
0.340661
0.343326
0.345297
0.346788
0.347945
0.349013
0.349985
0.350861
0.351564
0.352339
0.353051
0.353679
0.354163
0.354548
0.354631
0.354256
0.353213
0.351255
0.348068
0.343247
0.336322
0.328529
0.343619
0.353518
0.360717
0.365503
0.368556
0.37046
0.37168
0.372542
0.373255
0.373904
0.374661
0.375555
0.376564
0.377715
0.378997
0.380377
0.381739
0.382928
0.383702
0.383704
0.382426
0.379106
0.372688
0.361828
0.347295
0.390038
0.4037
0.410898
0.414009
0.415055
0.415085
0.414655
0.414182
0.413901
0.413939
0.414394
0.415302
0.416746
0.418669
0.421085
0.423976
0.427331
0.431015
0.434827
0.438383
0.440998
0.44146
0.437738
0.426464
0.404817
0.52966
0.525498
0.514911
0.504763
0.496196
0.48916
0.483638
0.479515
0.476721
0.475205
0.474907
0.475767
0.4777
0.480804
0.485112
0.490715
0.497668
0.506148
0.516326
0.528362
0.542413
0.558339
0.575585
0.592125
0.59909
0.963165
0.769762
0.676798
0.627467
0.597657
0.577656
0.563575
0.553627
0.546924
0.542923
0.541232
0.541602
0.54387
0.54813
0.554474
0.563146
0.574525
0.589231
0.608199
0.632897
0.665929
0.71218
0.782955
0.908234
1.15823
0.585541
0.597945
0.587557
0.572506
0.557019
0.543167
0.531881
0.523311
0.51731
0.513638
0.512048
0.512355
0.514427
0.518364
0.524227
0.532238
0.542746
0.556284
0.573549
0.595301
0.622075
0.653298
0.685587
0.711614
0.705641
0.231801
0.371568
0.429369
0.449151
0.450726
0.445693
0.439119
0.433387
0.429266
0.426814
0.425837
0.426114
0.42744
0.429977
0.433649
0.438615
0.4452
0.453878
0.465209
0.479447
0.495098
0.50618
0.499358
0.442523
0.262201
0.0511254
0.14642
0.233058
0.261766
0.266386
0.261902
0.255242
0.250287
0.247581
0.247186
0.247924
0.24947
0.250901
0.25239
0.254202
0.256717
0.260688
0.266857
0.276297
0.289747
0.306247
0.31693
0.309273
0.25014
0.119948
0.0343241
0.0763325
0.131385
0.151688
0.150347
0.134236
0.118913
0.110178
0.109856
0.114813
0.127721
0.137448
0.142557
0.143549
0.142956
0.142937
0.144551
0.149014
0.158493
0.172939
0.190334
0.205783
0.202185
0.151862
0.07295
0.0648602
0.0743861
0.0890633
0.0826999
0.0493737
0.0270469
0.0164338
0.0131646
0.0134913
0.0172017
0.033896
0.0663599
0.0836955
0.0927112
0.0989823
0.0977174
0.0898597
0.0876126
0.0922328
0.107217
0.131911
0.151438
0.149928
0.12504
0.0970515
0.0989261
0.0671625
0.0499997
0.0198239
0.00262634
0.00067766
0.000345392
0.00027774
0.000444562
0.0016584
0.00706592
0.0298713
0.0662741
0.0800247
0.0693433
0.0430367
0.0268053
0.0227643
0.0257605
0.0376297
0.0660146
0.106273
0.127582
0.120764
0.12456
0.141194
0.0595905
0.0259448
0.00412526
0.000181463
9.20879e-05
9.63984e-05
0.000104787
0.000319378
0.00428089
0.017844
0.0381415
0.0533506
0.0483185
0.0228448
0.0056561
0.000898116
0.000437145
0.000625825
0.00422165
0.0179543
0.050585
0.0818565
0.109121
0.187252
)
;

boundaryField
{
    inlet
    {
        type            fixedValue;
        value           uniform 0.00015;
    }
    outlet
    {
        type            inletOutlet;
        phi             phi.air;
        inletValue      uniform 0.00015;
        value           nonuniform List<scalar> 
25
(
0.141194
0.0595905
0.0259448
0.00015
0.00015
0.00015
0.00015
0.00015
0.00015
0.00015
0.017844
0.0381415
0.0533506
0.0483185
0.0228448
0.0056561
0.00015
0.00015
0.00015
0.00015
0.0179543
0.050585
0.0818565
0.109121
0.187252
)
;
    }
    walls
    {
        type            epsilonWallFunction;
        value           nonuniform List<scalar> 
150
(
1.77264
2.72445
3.06255
3.18092
4.78653
5.70782
6.03231
6.32814
6.11606
4.50819
4.05662
4.01064
3.9596
3.91267
3.86474
3.81793
3.79287
3.78558
3.78148
3.76614
3.71071
3.58133
3.38896
3.18236
3.0478
3.02268
3.11626
3.30163
3.52333
3.75757
3.99904
4.23382
4.44437
4.62251
4.77542
4.91827
5.05754
5.19596
5.33088
5.45168
5.55695
5.65491
5.75049
5.84969
5.95287
6.05973
6.16975
6.28208
6.39605
6.51061
6.62374
6.73325
6.84218
6.94863
7.05238
7.15924
7.2653
7.37262
7.49057
7.61834
7.76281
7.93991
8.15842
8.43734
8.81294
9.34606
10.1619
11.4106
11.4934
10.8321
8.73993
7.2872
6.41251
5.57148
4.39435
1.00471
1.75781
2.09305
2.27713
2.36029
2.39489
2.38974
2.36709
2.31986
2.27923
2.28165
2.34592
2.48939
2.6956
2.92747
3.11775
3.30215
3.48975
3.65233
3.78112
3.8596
3.91079
3.95827
4.00641
4.05234
4.09669
4.14081
4.18605
4.23189
4.27675
4.31689
4.34318
4.35377
4.36507
4.3885
4.42987
4.50363
4.60851
4.73327
4.85126
4.95967
5.0744
5.19795
5.32931
5.46057
5.59718
5.74138
5.88628
6.0331
6.18329
6.33522
6.48912
6.64547
6.80361
6.96403
7.12758
7.29543
7.46926
7.6524
7.84967
8.06892
8.32125
8.6158
8.96676
9.42403
10.084
11.1139
12.7303
12.9909
12.4634
10.7956
9.03099
7.93821
7.4688
6.52169
)
;
        Cmu             0.09;
        kappa           0.41;
        E               9.8;
        value           nonuniform List<scalar> 
150
(
1.77264
2.72445
3.06255
3.18092
4.78653
5.70782
6.03231
6.32814
6.11606
4.50819
4.05662
4.01064
3.9596
3.91267
3.86474
3.81793
3.79287
3.78558
3.78148
3.76614
3.71071
3.58133
3.38896
3.18236
3.0478
3.02268
3.11626
3.30163
3.52333
3.75757
3.99904
4.23382
4.44437
4.62251
4.77542
4.91827
5.05754
5.19596
5.33088
5.45168
5.55695
5.65491
5.75049
5.84969
5.95287
6.05973
6.16975
6.28208
6.39605
6.51061
6.62374
6.73325
6.84218
6.94863
7.05238
7.15924
7.2653
7.37262
7.49057
7.61834
7.76281
7.93991
8.15842
8.43734
8.81294
9.34606
10.1619
11.4106
11.4934
10.8321
8.73993
7.2872
6.41251
5.57148
4.39435
1.00471
1.75781
2.09305
2.27713
2.36029
2.39489
2.38974
2.36709
2.31986
2.27923
2.28165
2.34592
2.48939
2.6956
2.92747
3.11775
3.30215
3.48975
3.65233
3.78112
3.8596
3.91079
3.95827
4.00641
4.05234
4.09669
4.14081
4.18605
4.23189
4.27675
4.31689
4.34318
4.35377
4.36507
4.3885
4.42987
4.50363
4.60851
4.73327
4.85126
4.95967
5.0744
5.19795
5.32931
5.46057
5.59718
5.74138
5.88628
6.0331
6.18329
6.33522
6.48912
6.64547
6.80361
6.96403
7.12758
7.29543
7.46926
7.6524
7.84967
8.06892
8.32125
8.6158
8.96676
9.42403
10.084
11.1139
12.7303
12.9909
12.4634
10.7956
9.03099
7.93821
7.4688
6.52169
)
;
    }
    defaultFaces
    {
        type            empty;
    }
}


// ************************************************************************* //
