/*--------------------------------*- C++ -*----------------------------------*\
| =========                 |                                                 |
| \\      /  F ield         | OpenFOAM: The Open Source CFD Toolbox           |
|  \\    /   O peration     | Version:  2.3.0                                 |
|   \\  /    A nd           | Web:      www.OpenFOAM.org                      |
|    \\/     M anipulation  |                                                 |
\*---------------------------------------------------------------------------*/
FoamFile
{
    version     2.0;
    format      ascii;
    class       volScalarField;
    location    "90";
    object      km;
}
// * * * * * * * * * * * * * * * * * * * * * * * * * * * * * * * * * * * * * //

dimensions      [0 2 -2 0 0 0 0];

internalField   nonuniform List<scalar> 
1875
(
0.056047
0.0583802
0.0614173
0.064251
0.0669257
0.069458
0.0718655
0.0741664
0.0763386
0.0783504
0.0801527
0.0817024
0.0828759
0.0835092
0.0834286
0.0827134
0.080838
0.0774697
0.0727393
0.0669267
0.0605619
0.0541621
0.0480704
0.0424388
0.0383884
0.0746434
0.0756853
0.0766765
0.0772418
0.0775339
0.0776223
0.0775859
0.0775
0.0774803
0.0775763
0.0778734
0.0784536
0.0793395
0.0805188
0.0818522
0.0830587
0.0838611
0.0837257
0.0825049
0.0797694
0.0757352
0.070776
0.0653364
0.0599283
0.0557375
0.0806975
0.0811437
0.0814526
0.0814392
0.0812465
0.0808919
0.0804587
0.0799951
0.0795402
0.0791388
0.0788594
0.0787897
0.0789517
0.0794198
0.0802217
0.0812387
0.0821182
0.0823732
0.0817431
0.0798151
0.0766638
0.0727106
0.0684664
0.0645869
0.0626105
0.0827635
0.0822282
0.0822172
0.0820882
0.081792
0.0814106
0.0810138
0.0806362
0.0803035
0.0800463
0.0798926
0.0798473
0.0799082
0.0801375
0.0805807
0.0811531
0.0816361
0.0816615
0.0809662
0.0791767
0.0762858
0.0728013
0.06945
0.0669072
0.06623
0.0850339
0.0839822
0.0836205
0.0830599
0.0824396
0.0818356
0.0812872
0.0808187
0.0804284
0.0801326
0.0799506
0.0798841
0.0799316
0.0801033
0.0803752
0.0806327
0.0806738
0.0803228
0.0793227
0.0775178
0.0750033
0.0721585
0.0695311
0.0678703
0.0678346
0.088259
0.0870335
0.0862979
0.0852043
0.084148
0.0831345
0.0821738
0.0813359
0.0806539
0.0801594
0.0798439
0.0796881
0.0796478
0.079681
0.079709
0.0796423
0.0793821
0.0787803
0.0776597
0.0759515
0.0737875
0.0714982
0.0695071
0.0683351
0.0684979
0.0915578
0.0905781
0.089651
0.0881913
0.0866795
0.0850443
0.083383
0.0818796
0.0806888
0.0798315
0.0792802
0.0789534
0.0787767
0.0786893
0.0786363
0.0785246
0.0782053
0.0775213
0.0763513
0.0747342
0.0728387
0.0709229
0.0692819
0.0682603
0.0684006
0.0945279
0.0940878
0.0931483
0.0914202
0.089299
0.0867537
0.0841721
0.0819057
0.0801275
0.0788801
0.0781123
0.0777842
0.0777096
0.0777832
0.077821
0.0777182
0.0772913
0.0764417
0.0751711
0.0735807
0.0718352
0.0701284
0.0686945
0.0678422
0.0679678
0.0965022
0.0965315
0.0956498
0.0936211
0.0907963
0.0874023
0.084021
0.081117
0.0789338
0.0776422
0.0771306
0.0769941
0.0770174
0.077103
0.077106
0.0768238
0.0761701
0.0751403
0.0737969
0.0722443
0.0706067
0.0690272
0.0677079
0.0669516
0.0670595
0.0972912
0.0976329
0.0967885
0.0944989
0.0911492
0.0871893
0.0833965
0.0803638
0.0783835
0.0773122
0.0767285
0.0764814
0.0764322
0.0762929
0.0760405
0.0755485
0.07477
0.0737239
0.0724582
0.0710389
0.0695483
0.0680989
0.0668776
0.0661901
0.0662728
0.0972579
0.0977778
0.0969116
0.0944301
0.0908097
0.0866303
0.0827106
0.0796327
0.0775815
0.0764261
0.0758733
0.075625
0.0754628
0.0752995
0.0749713
0.0744512
0.0737339
0.0728274
0.0717525
0.0705407
0.0692414
0.0679479
0.0668356
0.0662188
0.0663173
0.0965916
0.0972063
0.0963519
0.0938947
0.0903687
0.0863821
0.082692
0.0797772
0.0777816
0.0765773
0.0759401
0.0756089
0.0753566
0.0750837
0.0747357
0.0742816
0.0736989
0.0729749
0.0721078
0.0711069
0.0700033
0.0688729
0.0678758
0.0673544
0.0675568
0.0957704
0.0963058
0.0954441
0.0931657
0.0899898
0.0864318
0.0831066
0.0804709
0.0786276
0.0774747
0.0767973
0.0763918
0.0761095
0.0758595
0.0755856
0.0752479
0.0748189
0.0742758
0.0736057
0.0728154
0.0719397
0.0710601
0.0703571
0.0701187
0.0702856
0.0950123
0.0953263
0.0944586
0.0924581
0.0897732
0.0867871
0.0840211
0.0817747
0.0801572
0.0790959
0.0784248
0.0780042
0.0777323
0.0775313
0.0773429
0.0771257
0.0768449
0.076479
0.0760227
0.0754758
0.0748815
0.0743378
0.0740584
0.0740878
0.0741133
0.0942348
0.0943778
0.0935713
0.0918983
0.0897554
0.0873839
0.0851639
0.0833038
0.0819321
0.0809967
0.0803853
0.0800027
0.0797744
0.0796395
0.0795457
0.079454
0.0793327
0.0791578
0.0789139
0.0786236
0.0783245
0.0781059
0.0780761
0.078147
0.0783047
0.0934725
0.0935539
0.0929256
0.0916045
0.0899432
0.0881138
0.0863649
0.0848675
0.0837259
0.0829182
0.0823783
0.0820389
0.0818491
0.0817732
0.0817701
0.0818165
0.0818866
0.0819551
0.0819909
0.0819895
0.0819261
0.0818087
0.081647
0.0814484
0.0816636
0.0930632
0.0931876
0.0927145
0.0916728
0.0903492
0.0889026
0.0875232
0.0863397
0.0853969
0.084695
0.0842069
0.0839013
0.0837511
0.0837264
0.0838056
0.0839731
0.084212
0.0845031
0.0848023
0.0850439
0.085169
0.0851612
0.0849879
0.0846232
0.0848516
0.092944
0.0931572
0.0929175
0.0921493
0.091126
0.0899747
0.0888162
0.0877876
0.0869701
0.0863493
0.0859094
0.0856333
0.0855023
0.0854987
0.0856085
0.0858268
0.0861462
0.0865495
0.0869648
0.0873259
0.0876168
0.0878281
0.0879278
0.0877496
0.0880356
0.092877
0.0932166
0.0934135
0.0930248
0.0922409
0.0912524
0.0902389
0.0893077
0.0885357
0.0879633
0.0875585
0.0873012
0.0871751
0.0871659
0.0872592
0.0874587
0.0877621
0.0881554
0.0885926
0.0890182
0.0894164
0.0897872
0.0901738
0.0903452
0.0907258
0.0926258
0.093108
0.0937414
0.0938147
0.093396
0.0926169
0.0916886
0.0907938
0.0900486
0.0895002
0.0891441
0.0889293
0.0888284
0.0888199
0.0888886
0.0890414
0.0892836
0.0896089
0.0900053
0.0904365
0.090868
0.0913011
0.0918333
0.0922333
0.0926502
0.0917153
0.0922877
0.0932381
0.0938221
0.0938828
0.093521
0.0928345
0.092039
0.0913128
0.0907571
0.0904657
0.0903962
0.090409
0.0904646
0.0905535
0.090678
0.0908557
0.0911001
0.0914103
0.0917735
0.0921686
0.0925933
0.0931311
0.0936116
0.0939288
0.0895718
0.0900931
0.0912751
0.0924732
0.0931893
0.0933414
0.0931051
0.0926218
0.0920905
0.0916589
0.0914264
0.0914744
0.0916932
0.0919432
0.0921559
0.0923279
0.0924823
0.0926511
0.0928536
0.0930989
0.0933947
0.093744
0.0942052
0.0946593
0.0948969
0.0863358
0.0865094
0.0876589
0.0893199
0.0908519
0.091863
0.0922884
0.0922728
0.0920711
0.0919017
0.0918893
0.0920293
0.0924223
0.0929684
0.0934665
0.0938368
0.0940742
0.0942209
0.0943318
0.0944426
0.0945995
0.0948267
0.0951788
0.0955642
0.0957506
0.0827909
0.082538
0.0835583
0.0853655
0.0874006
0.0891445
0.0903641
0.0910657
0.0913958
0.0915605
0.091777
0.0920881
0.0926014
0.0933956
0.0942819
0.0950158
0.0954931
0.0957249
0.0957964
0.0957934
0.095805
0.0958972
0.0961358
0.096429
0.0965265
0.0804401
0.0798001
0.0806468
0.0822948
0.0843989
0.0865103
0.088261
0.0895149
0.0903248
0.0908506
0.0912985
0.0918732
0.0926484
0.0936176
0.0947512
0.0958402
0.0966406
0.0970596
0.0971601
0.0970869
0.0969744
0.0969461
0.097079
0.0972776
0.0972623
0.0799968
0.0791849
0.0797795
0.0811805
0.083043
0.0850905
0.0870112
0.0885688
0.089696
0.0904826
0.0910776
0.0917342
0.0926169
0.0937543
0.0950714
0.096408
0.0975008
0.0981535
0.0983527
0.0982551
0.0980579
0.0979337
0.0979799
0.0980869
0.0979704
0.0816382
0.080831
0.0810718
0.0821041
0.0835826
0.0853204
0.0870997
0.0886826
0.0899044
0.0907799
0.0914429
0.0921021
0.0929825
0.0941405
0.0954983
0.0969266
0.0981896
0.0990325
0.0993568
0.0992798
0.0990393
0.0988528
0.098839
0.0988711
0.0986724
0.084844
0.0841092
0.0840414
0.0846662
0.085708
0.087039
0.088506
0.089888
0.0910063
0.0918254
0.0924377
0.0930046
0.0937637
0.0948332
0.0961639
0.097582
0.0988746
0.0998055
0.100223
0.100187
0.0999378
0.0997206
0.0996765
0.0996601
0.09939
0.0886015
0.0880629
0.0880258
0.0882674
0.0888423
0.0897709
0.0909247
0.0920868
0.0930391
0.0936889
0.0941094
0.0944785
0.095064
0.0959617
0.0971317
0.0984277
0.0996452
0.100562
0.101013
0.101011
0.100772
0.100554
0.100506
0.100445
0.100114
0.0924861
0.0921796
0.0923628
0.092326
0.0924387
0.0930082
0.0938849
0.0948185
0.0955551
0.0959647
0.0961246
0.0962617
0.0966321
0.0973309
0.0983142
0.0994418
0.100519
0.101343
0.101763
0.101766
0.10154
0.101351
0.101345
0.101201
0.100821
0.0964065
0.0962602
0.0962749
0.096066
0.0959734
0.0963279
0.096996
0.0977077
0.0981928
0.0983384
0.0982415
0.0981622
0.0983343
0.0988361
0.0996216
0.100557
0.10146
0.102143
0.102476
0.102448
0.102238
0.10213
0.10222
0.1019
0.101453
0.100144
0.100056
0.0998252
0.0994466
0.0993051
0.0995527
0.100066
0.100561
0.100774
0.100639
0.100302
0.100045
0.100051
0.100377
0.100966
0.101693
0.102392
0.102895
0.103088
0.102974
0.102736
0.102637
0.102729
0.102315
0.101862
0.103437
0.103399
0.103086
0.102605
0.102431
0.102616
0.10299
0.10324
0.103157
0.102745
0.102212
0.101817
0.101696
0.101859
0.10225
0.102764
0.103247
0.103548
0.103575
0.10335
0.10305
0.10288
0.102809
0.102381
0.102028
0.106168
0.106149
0.105828
0.105383
0.105269
0.105441
0.105662
0.10564
0.105254
0.104609
0.103929
0.103415
0.103176
0.103199
0.10343
0.10375
0.104027
0.104137
0.104011
0.1037
0.103385
0.103224
0.103077
0.102489
0.102207
0.108498
0.108504
0.108232
0.107911
0.107874
0.108008
0.108026
0.107707
0.107053
0.106224
0.105454
0.104907
0.104588
0.104491
0.104564
0.104707
0.1048
0.104743
0.104492
0.104125
0.103813
0.103659
0.103438
0.102778
0.102571
0.110654
0.110713
0.110502
0.110292
0.110292
0.110314
0.110081
0.109505
0.108682
0.107779
0.106982
0.106363
0.10596
0.10576
0.105704
0.105701
0.105646
0.105458
0.105123
0.104736
0.104435
0.104275
0.103969
0.103318
0.103216
0.112738
0.112857
0.112714
0.112553
0.112526
0.11236
0.111887
0.111141
0.110251
0.10937
0.108535
0.107823
0.10735
0.107069
0.106915
0.106803
0.106641
0.106368
0.105996
0.105627
0.105363
0.105241
0.105008
0.104441
0.104359
0.114785
0.114984
0.114875
0.114698
0.114559
0.114178
0.113516
0.112656
0.111711
0.110795
0.109954
0.109281
0.108795
0.108469
0.108251
0.108065
0.107834
0.107517
0.107147
0.10682
0.106618
0.106568
0.106481
0.106125
0.105974
0.116764
0.117062
0.116932
0.116692
0.116393
0.115841
0.115065
0.114147
0.113175
0.112235
0.111447
0.110821
0.110331
0.109982
0.109724
0.109491
0.109219
0.108886
0.108536
0.108258
0.108119
0.108152
0.108209
0.108098
0.107879
0.118526
0.118894
0.118802
0.118498
0.118068
0.11742
0.116603
0.115682
0.114736
0.113842
0.113065
0.11244
0.11196
0.111599
0.111315
0.111047
0.110747
0.110406
0.110073
0.109826
0.109722
0.109792
0.10992
0.109912
0.109664
0.120053
0.120448
0.120473
0.120131
0.119635
0.118959
0.118147
0.117257
0.116357
0.115514
0.114777
0.114168
0.113687
0.113314
0.113005
0.112706
0.112381
0.11203
0.111704
0.111465
0.111358
0.111438
0.111554
0.11152
0.111292
0.121462
0.121883
0.121941
0.121619
0.12113
0.120476
0.119705
0.118869
0.118028
0.117242
0.116547
0.115963
0.115489
0.115109
0.11478
0.114456
0.114111
0.113754
0.113437
0.113212
0.113117
0.113158
0.113221
0.113177
0.113003
0.122828
0.123262
0.123324
0.123065
0.122617
0.12201
0.121294
0.12052
0.119742
0.119011
0.118363
0.117812
0.117354
0.116973
0.116631
0.116289
0.115929
0.115566
0.115243
0.115042
0.115001
0.115031
0.115091
0.115019
0.11483
0.124237
0.124692
0.124789
0.124567
0.124155
0.123593
0.122933
0.122222
0.121508
0.120835
0.120232
0.119713
0.119272
0.118894
0.118545
0.118194
0.117833
0.11748
0.11718
0.116982
0.116912
0.116979
0.117049
0.116979
0.116756
0.125693
0.126168
0.126295
0.126113
0.12574
0.125224
0.12462
0.123968
0.123318
0.122701
0.122141
0.121652
0.12123
0.120858
0.120505
0.120147
0.119778
0.119456
0.119198
0.119004
0.118898
0.118941
0.118935
0.118844
0.118667
0.127193
0.127682
0.12784
0.127695
0.127362
0.126893
0.126341
0.125746
0.125146
0.124571
0.124064
0.123612
0.123213
0.122852
0.122504
0.122148
0.121784
0.121444
0.121154
0.120969
0.120918
0.120915
0.120905
0.120815
0.120634
0.128728
0.129229
0.129411
0.129302
0.129006
0.128573
0.128071
0.127535
0.126983
0.126466
0.126006
0.125587
0.125208
0.124858
0.124509
0.124181
0.123851
0.123489
0.123198
0.123012
0.122954
0.122981
0.123005
0.122911
0.122701
0.130286
0.130795
0.131
0.13092
0.13066
0.130276
0.129827
0.129343
0.128863
0.128415
0.127952
0.127551
0.127208
0.126881
0.12655
0.126208
0.125881
0.125581
0.125342
0.125161
0.125077
0.12511
0.125068
0.124955
0.124754
0.131857
0.132373
0.132601
0.132569
0.132366
0.132066
0.131669
0.131209
0.130776
0.130323
0.129908
0.129537
0.129198
0.128897
0.128627
0.12829
0.127957
0.127674
0.127403
0.127234
0.127177
0.127193
0.127148
0.127022
0.12682
0.133427
0.13395
0.134218
0.134255
0.134072
0.133756
0.133396
0.133019
0.132601
0.132212
0.13189
0.131566
0.131235
0.130938
0.13065
0.130377
0.130068
0.129744
0.129482
0.12932
0.129273
0.129293
0.129252
0.129127
0.128917
0.134967
0.135504
0.135791
0.13581
0.135642
0.13537
0.135055
0.134723
0.134378
0.134075
0.133746
0.133459
0.133217
0.132951
0.132639
0.132347
0.132056
0.131791
0.131578
0.131427
0.131381
0.131403
0.131357
0.13123
0.131015
0.136454
0.136978
0.13726
0.137313
0.137213
0.137041
0.136779
0.136453
0.136164
0.135837
0.135543
0.135286
0.13506
0.134839
0.134616
0.134348
0.134088
0.133859
0.13366
0.133528
0.13349
0.133519
0.133476
0.133355
0.133133
0.137923
0.138452
0.138744
0.138858
0.138782
0.138581
0.138358
0.138131
0.137852
0.137604
0.13741
0.137198
0.136962
0.136764
0.136588
0.136401
0.136174
0.135939
0.135753
0.135641
0.135618
0.135654
0.135617
0.135485
0.135261
0.139346
0.139858
0.140183
0.140265
0.140211
0.140072
0.139896
0.139705
0.139509
0.139346
0.139148
0.138987
0.138866
0.138721
0.138547
0.138349
0.138165
0.137984
0.137829
0.137738
0.137739
0.137783
0.137754
0.137622
0.137394
0.140729
0.141231
0.141551
0.141685
0.141694
0.141646
0.141521
0.14134
0.141197
0.141015
0.140859
0.14073
0.140623
0.140516
0.140402
0.140275
0.140145
0.140012
0.139907
0.139854
0.139871
0.139929
0.139902
0.139778
0.139547
0.142149
0.14267
0.142987
0.14317
0.143198
0.143121
0.143031
0.142944
0.142812
0.142707
0.142651
0.142572
0.142466
0.142391
0.142331
0.142284
0.142186
0.142087
0.142009
0.141985
0.14202
0.142092
0.142074
0.141956
0.141723
0.14355
0.144037
0.144392
0.144547
0.144597
0.144577
0.144532
0.144481
0.144428
0.144407
0.144351
0.144329
0.144343
0.144337
0.144312
0.144255
0.144213
0.144165
0.144127
0.144134
0.144194
0.144283
0.144283
0.144171
0.143938
0.14496
0.145437
0.145789
0.145992
0.1461
0.146167
0.146169
0.146127
0.146124
0.146086
0.146073
0.146087
0.146122
0.146159
0.146193
0.14622
0.146245
0.146263
0.146281
0.146324
0.146415
0.146518
0.146538
0.146442
0.146213
0.146502
0.146989
0.147334
0.147584
0.147709
0.147745
0.147778
0.147821
0.147827
0.147863
0.147946
0.148009
0.148048
0.14812
0.148211
0.148319
0.148383
0.148444
0.148513
0.148599
0.148715
0.148844
0.148888
0.148807
0.148586
0.148164
0.148605
0.148982
0.149201
0.149344
0.149427
0.149497
0.14957
0.14965
0.149767
0.14986
0.149967
0.150117
0.150256
0.150384
0.150492
0.150617
0.150737
0.150858
0.150993
0.151142
0.151297
0.151371
0.151316
0.151108
0.150031
0.150448
0.150811
0.151068
0.15126
0.151421
0.151529
0.151604
0.151723
0.151816
0.151936
0.152085
0.152263
0.152447
0.152636
0.152824
0.153025
0.153217
0.1534
0.153583
0.153773
0.153954
0.15407
0.15405
0.153862
0.152304
0.152715
0.153055
0.153344
0.153546
0.153689
0.153826
0.153969
0.154096
0.154232
0.154414
0.154639
0.154828
0.15505
0.155295
0.155566
0.155802
0.156038
0.156271
0.156499
0.156726
0.156942
0.157102
0.157123
0.156963
0.155086
0.155433
0.15578
0.156022
0.156223
0.156402
0.156589
0.156802
0.157013
0.157268
0.157508
0.157762
0.158039
0.158315
0.158586
0.158847
0.159113
0.159384
0.159653
0.159916
0.160175
0.160421
0.160622
0.160696
0.160579
0.1586
0.158908
0.159209
0.159469
0.159717
0.159969
0.160233
0.160511
0.160823
0.161152
0.161482
0.161791
0.162117
0.162434
0.162738
0.163027
0.163321
0.163605
0.163879
0.164144
0.164405
0.164661
0.164894
0.16502
0.164965
0.163272
0.163564
0.163885
0.164248
0.164644
0.165062
0.165494
0.165936
0.16638
0.16681
0.167236
0.167649
0.168037
0.1684
0.168736
0.169046
0.169323
0.169568
0.169783
0.169973
0.170151
0.170325
0.170501
0.170619
0.170605
0.169792
0.170144
0.170664
0.171314
0.172052
0.17281
0.173539
0.174233
0.174887
0.1755
0.176077
0.176612
0.177115
0.177568
0.177968
0.178309
0.178589
0.178793
0.178918
0.178961
0.178926
0.178828
0.1787
0.178601
0.17848
0.179534
0.180217
0.181276
0.182534
0.183773
0.184885
0.18587
0.18675
0.187556
0.188315
0.189038
0.18973
0.190379
0.190994
0.191564
0.19208
0.192513
0.192845
0.193044
0.193072
0.192888
0.192441
0.191759
0.191037
0.190573
0.193955
0.194433
0.19573
0.197133
0.198394
0.199415
0.200256
0.201001
0.201717
0.202443
0.20319
0.20396
0.204743
0.205543
0.206352
0.20716
0.20795
0.208699
0.209366
0.209884
0.210157
0.210046
0.209492
0.208684
0.20863
0.194892
0.194998
0.195398
0.19607
0.196824
0.197551
0.198251
0.198948
0.199666
0.200416
0.201199
0.202011
0.202843
0.203694
0.204559
0.205432
0.206303
0.207161
0.207989
0.208751
0.209396
0.20988
0.210256
0.210824
0.211467
0.187346
0.186175
0.183988
0.182802
0.182609
0.182873
0.183367
0.183998
0.184726
0.185517
0.186336
0.187146
0.18792
0.188648
0.189332
0.189979
0.190605
0.191236
0.191901
0.192612
0.193329
0.194123
0.195925
0.201162
0.205703
0.162392
0.160506
0.152712
0.146641
0.144415
0.14334
0.142518
0.142105
0.142256
0.142959
0.144088
0.145275
0.146301
0.147161
0.147871
0.148483
0.149222
0.150257
0.151781
0.15382
0.156089
0.157936
0.162264
0.175717
0.186916
0.143853
0.139839
0.129424
0.117965
0.109079
0.0993557
0.0910545
0.0865017
0.0867049
0.0904065
0.0988615
0.104368
0.106927
0.107274
0.106878
0.106834
0.107513
0.109316
0.112721
0.116981
0.120877
0.125508
0.136079
0.155515
0.165947
0.132104
0.122891
0.106152
0.0796344
0.0484367
0.0289714
0.0186054
0.0151643
0.0156046
0.0198682
0.0372286
0.0636212
0.0771785
0.0842343
0.0892425
0.0889257
0.0847706
0.0831127
0.0856256
0.0934147
0.103371
0.10957
0.12059
0.13851
0.152275
0.120352
0.0992808
0.0670243
0.0242596
0.00390749
0.000931146
0.000428965
0.000319647
0.000616025
0.00255008
0.00946323
0.0346121
0.0655104
0.0768871
0.0721444
0.0502011
0.03304
0.0279381
0.0306797
0.0420023
0.0673827
0.0904772
0.10822
0.128538
0.146212
0.10283
0.072947
0.0403796
0.00776163
0.000167691
3.06675e-05
3.01238e-05
3.33884e-05
0.000428844
0.00668569
0.0238338
0.0438994
0.0577469
0.0538273
0.0282519
0.00751787
0.0012336
0.000593269
0.000869851
0.00534311
0.0203797
0.0506175
0.0790127
0.105322
0.133579
)
;

boundaryField
{
    inlet
    {
        type            fixedValue;
        value           nonuniform List<scalar> 
25
(
3.75e-05
3.75e-05
3.75e-05
3.75e-05
3.75e-05
3.75e-05
3.75e-05
3.75e-05
3.75e-05
3.75e-05
3.75e-05
3.75e-05
3.75e-05
3.75e-05
3.75e-05
3.75e-05
3.75e-05
3.75e-05
3.75e-05
3.75e-05
3.75e-05
3.75e-05
3.75e-05
3.75e-05
3.75e-05
)
;
    }
    outlet
    {
        type            inletOutlet;
        inletValue      uniform 3.75e-05;
        value           nonuniform List<scalar> 
25
(
0.10283
0.072947
0.0403796
3.75e-05
3.75e-05
3.75e-05
3.75e-05
3.75e-05
3.75e-05
3.75e-05
0.0238338
0.0438994
0.0577469
0.0538273
0.0282519
0.00751787
3.75e-05
3.75e-05
3.75e-05
3.75e-05
0.0203797
0.0506175
0.0790127
0.105322
0.133579
)
;
    }
    walls
    {
        type            kqRWallFunction;
        value           nonuniform List<scalar> 
150
(
0.056047
0.0746434
0.0806975
0.0827635
0.0850339
0.088259
0.0915578
0.0945279
0.0965022
0.0972912
0.0972579
0.0965916
0.0957704
0.0950123
0.0942348
0.0934725
0.0930632
0.092944
0.092877
0.0926258
0.0917153
0.0895718
0.0863358
0.0827909
0.0804401
0.0799968
0.0816382
0.084844
0.0886015
0.0924861
0.0964065
0.100144
0.103437
0.106168
0.108498
0.110654
0.112738
0.114785
0.116764
0.118526
0.120053
0.121462
0.122828
0.124237
0.125693
0.127193
0.128728
0.130286
0.131857
0.133427
0.134967
0.136454
0.137923
0.139346
0.140729
0.142149
0.14355
0.14496
0.146502
0.148164
0.150031
0.152304
0.155086
0.1586
0.163272
0.169792
0.179534
0.193955
0.194892
0.187346
0.162392
0.143853
0.132104
0.120352
0.10283
0.0383884
0.0557375
0.0626105
0.06623
0.0678346
0.0684979
0.0684006
0.0679678
0.0670595
0.0662728
0.0663173
0.0675568
0.0702856
0.0741133
0.0783047
0.0816636
0.0848516
0.0880356
0.0907258
0.0926502
0.0939288
0.0948969
0.0957506
0.0965265
0.0972623
0.0979704
0.0986724
0.09939
0.100114
0.100821
0.101453
0.101862
0.102028
0.102207
0.102571
0.103216
0.104359
0.105974
0.107879
0.109664
0.111292
0.113003
0.11483
0.116756
0.118667
0.120634
0.122701
0.124754
0.12682
0.128917
0.131015
0.133133
0.135261
0.137394
0.139547
0.141723
0.143938
0.146213
0.148586
0.151108
0.153862
0.156963
0.160579
0.164965
0.170605
0.17848
0.190573
0.20863
0.211467
0.205703
0.186916
0.165947
0.152275
0.146212
0.133579
)
;
    }
    defaultFaces
    {
        type            empty;
    }
}


// ************************************************************************* //
