/*--------------------------------*- C++ -*----------------------------------*\
| =========                 |                                                 |
| \\      /  F ield         | OpenFOAM: The Open Source CFD Toolbox           |
|  \\    /   O peration     | Version:  2.3.0                                 |
|   \\  /    A nd           | Web:      www.OpenFOAM.org                      |
|    \\/     M anipulation  |                                                 |
\*---------------------------------------------------------------------------*/
FoamFile
{
    version     2.0;
    format      ascii;
    class       volScalarField;
    location    "90";
    object      p;
}
// * * * * * * * * * * * * * * * * * * * * * * * * * * * * * * * * * * * * * //

dimensions      [1 -1 -2 0 0 0 0];

internalField   nonuniform List<scalar> 
1875
(
107095
107099
107100
107099
107096
107091
107086
107080
107075
107069
107065
107061
107058
107056
107056
107057
107058
107060
107063
107066
107069
107071
107072
107073
107077
106951
106953
106951
106948
106945
106940
106936
106931
106927
106923
106920
106917
106916
106915
106916
106917
106918
106921
106923
106926
106929
106931
106934
106937
106939
106854
106854
106851
106847
106842
106837
106833
106829
106825
106822
106820
106819
106818
106818
106819
106821
106823
106825
106828
106831
106833
106836
106838
106839
106840
106734
106730
106726
106722
106718
106714
106709
106705
106702
106700
106698
106697
106698
106700
106702
106705
106709
106713
106716
106720
106722
106725
106726
106728
106728
106616
106610
106607
106605
106602
106598
106595
106592
106589
106588
106587
106587
106589
106591
106594
106598
106603
106607
106611
106614
106617
106619
106620
106621
106620
106501
106494
106492
106491
106488
106485
106483
106481
106479
106478
106479
106480
106482
106485
106489
106494
106499
106503
106507
106510
106513
106514
106515
106515
106514
106393
106385
106384
106383
106380
106378
106377
106376
106375
106375
106376
106378
106381
106385
106389
106394
106398
106402
106405
106408
106409
106410
106411
106411
106409
106288
106279
106279
106278
106277
106276
106275
106275
106275
106276
106278
106280
106283
106287
106291
106295
106298
106301
106303
106305
106306
106306
106306
106306
106304
106185
106177
106178
106177
106177
106177
106177
106177
106177
106178
106180
106182
106185
106188
106191
106194
106197
106199
106200
106201
106201
106201
106201
106201
106199
106084
106076
106077
106077
106078
106078
106078
106078
106079
106080
106081
106083
106085
106087
106090
106092
106093
106095
106095
106095
106095
106095
106095
106094
106093
105982
105975
105976
105977
105977
105977
105977
105977
105978
105978
105979
105980
105982
105984
105985
105987
105988
105988
105989
105989
105988
105988
105987
105987
105986
105878
105872
105873
105873
105874
105874
105874
105873
105873
105874
105874
105875
105876
105877
105878
105879
105880
105881
105881
105881
105881
105880
105879
105878
105877
105773
105768
105768
105768
105768
105768
105768
105767
105767
105767
105767
105768
105769
105769
105770
105771
105771
105772
105772
105772
105772
105772
105772
105771
105769
105666
105662
105662
105662
105662
105661
105661
105660
105660
105659
105659
105659
105660
105660
105661
105661
105662
105663
105663
105664
105664
105665
105665
105664
105663
105559
105556
105556
105555
105555
105554
105553
105553
105552
105551
105550
105550
105550
105551
105551
105552
105553
105554
105555
105555
105556
105557
105558
105559
105557
105452
105450
105450
105449
105449
105447
105446
105445
105444
105443
105442
105441
105441
105442
105442
105443
105444
105445
105446
105447
105448
105450
105451
105454
105453
105346
105345
105345
105344
105343
105341
105340
105338
105337
105335
105334
105334
105334
105334
105334
105335
105336
105336
105337
105339
105340
105342
105344
105347
105349
105240
105241
105241
105239
105238
105237
105235
105233
105231
105229
105228
105227
105227
105227
105227
105228
105229
105229
105230
105231
105233
105234
105235
105237
105241
105136
105138
105137
105136
105134
105133
105131
105129
105126
105125
105123
105122
105122
105122
105122
105122
105123
105124
105124
105125
105126
105127
105128
105128
105132
105032
105035
105034
105033
105031
105029
105027
105025
105023
105021
105019
105018
105017
105017
105017
105018
105018
105019
105019
105020
105021
105021
105021
105021
105024
104928
104932
104931
104930
104928
104926
104924
104922
104920
104918
104916
104915
104914
104913
104913
104914
104914
104915
104915
104916
104916
104916
104916
104916
104919
104823
104827
104828
104827
104825
104823
104821
104819
104817
104815
104813
104812
104810
104810
104810
104810
104811
104811
104811
104812
104812
104812
104812
104812
104814
104718
104722
104723
104722
104721
104719
104717
104715
104714
104712
104710
104709
104708
104707
104707
104707
104707
104708
104708
104708
104708
104708
104708
104708
104710
104612
104615
104616
104616
104616
104615
104613
104611
104610
104608
104607
104606
104605
104604
104604
104604
104604
104604
104604
104605
104605
104605
104605
104605
104607
104505
104507
104508
104509
104509
104509
104508
104506
104505
104504
104503
104502
104502
104501
104501
104500
104500
104500
104501
104501
104501
104501
104501
104501
104503
104398
104400
104401
104401
104402
104402
104401
104400
104399
104398
104398
104397
104397
104397
104397
104397
104397
104397
104397
104397
104397
104397
104397
104397
104399
104292
104292
104293
104293
104294
104294
104294
104294
104293
104292
104292
104292
104292
104293
104293
104293
104293
104293
104293
104293
104293
104293
104293
104293
104295
104185
104185
104185
104185
104186
104186
104186
104187
104186
104186
104186
104187
104187
104188
104188
104188
104188
104188
104188
104188
104188
104188
104188
104189
104190
104080
104079
104078
104078
104079
104079
104079
104080
104080
104080
104081
104081
104082
104083
104083
104084
104084
104084
104084
104084
104084
104084
104084
104084
104085
103976
103974
103972
103972
103972
103973
103973
103973
103974
103974
103975
103976
103977
103978
103978
103979
103979
103979
103979
103979
103979
103979
103979
103979
103980
103873
103869
103868
103868
103868
103868
103868
103868
103869
103869
103870
103871
103872
103873
103873
103874
103874
103874
103874
103874
103874
103874
103873
103874
103874
103769
103764
103764
103764
103763
103763
103763
103763
103764
103765
103766
103767
103767
103768
103769
103769
103770
103770
103770
103770
103770
103769
103769
103770
103769
103663
103659
103659
103659
103658
103658
103658
103658
103659
103660
103661
103662
103663
103664
103664
103665
103665
103665
103666
103666
103665
103665
103665
103666
103665
103557
103555
103555
103555
103554
103554
103554
103554
103555
103557
103558
103558
103559
103560
103560
103561
103561
103561
103561
103561
103561
103560
103561
103561
103560
103453
103451
103451
103451
103450
103450
103450
103451
103452
103453
103454
103455
103455
103456
103456
103456
103457
103457
103457
103457
103456
103456
103456
103457
103456
103349
103347
103347
103346
103346
103346
103347
103348
103349
103350
103350
103351
103352
103352
103352
103352
103353
103353
103353
103352
103352
103352
103352
103352
103351
103246
103243
103243
103243
103242
103243
103244
103245
103246
103246
103247
103248
103248
103248
103248
103249
103249
103249
103248
103248
103248
103248
103248
103247
103247
103142
103139
103139
103139
103139
103140
103141
103142
103143
103143
103144
103144
103144
103145
103145
103145
103145
103145
103144
103144
103144
103144
103143
103142
103143
103038
103035
103035
103035
103036
103037
103038
103039
103039
103040
103040
103041
103041
103041
103041
103041
103041
103041
103041
103040
103040
103039
103039
103037
103039
102935
102932
102932
102932
102933
102934
102935
102936
102936
102937
102937
102937
102937
102938
102938
102937
102937
102937
102937
102936
102936
102936
102935
102934
102936
102832
102830
102829
102830
102831
102832
102832
102833
102833
102834
102834
102834
102834
102834
102834
102834
102834
102834
102833
102833
102833
102833
102833
102832
102833
102729
102727
102727
102728
102728
102729
102729
102730
102730
102731
102731
102731
102731
102731
102731
102731
102730
102730
102730
102730
102729
102729
102729
102729
102730
102627
102625
102625
102625
102626
102626
102627
102627
102627
102628
102628
102628
102628
102628
102628
102627
102627
102627
102627
102626
102626
102626
102626
102626
102626
102524
102523
102523
102523
102523
102524
102524
102524
102524
102525
102525
102525
102525
102524
102524
102524
102524
102524
102523
102523
102523
102523
102523
102523
102523
102421
102420
102420
102420
102421
102421
102421
102421
102421
102422
102422
102422
102422
102421
102421
102421
102421
102421
102420
102420
102420
102420
102420
102420
102420
102318
102317
102318
102318
102318
102318
102318
102318
102319
102319
102319
102319
102319
102318
102318
102318
102318
102318
102317
102317
102317
102317
102317
102317
102317
102215
102215
102215
102215
102215
102215
102215
102216
102216
102216
102216
102216
102216
102215
102215
102215
102215
102215
102214
102214
102214
102214
102214
102214
102215
102112
102112
102112
102112
102112
102112
102113
102113
102113
102113
102113
102113
102113
102113
102112
102112
102112
102112
102112
102111
102111
102111
102111
102111
102112
102010
102009
102009
102009
102009
102010
102010
102010
102010
102010
102010
102010
102010
102010
102009
102009
102009
102009
102009
102009
102009
102008
102009
102008
102009
101907
101907
101907
101907
101907
101907
101907
101907
101907
101907
101907
101907
101907
101907
101907
101907
101906
101906
101906
101906
101906
101906
101906
101906
101906
101804
101804
101804
101804
101804
101804
101804
101804
101804
101805
101805
101805
101804
101804
101804
101804
101804
101803
101803
101803
101803
101803
101803
101803
101804
101701
101701
101701
101701
101701
101701
101702
101702
101702
101702
101702
101702
101702
101701
101701
101701
101701
101701
101701
101701
101701
101701
101701
101701
101701
101599
101598
101599
101599
101599
101599
101599
101599
101599
101599
101599
101599
101599
101599
101599
101598
101598
101598
101598
101598
101598
101598
101598
101598
101599
101496
101496
101496
101496
101496
101496
101496
101496
101496
101496
101496
101496
101496
101496
101496
101496
101496
101496
101495
101495
101495
101495
101495
101495
101496
101393
101393
101393
101393
101393
101393
101393
101393
101394
101394
101393
101393
101393
101393
101393
101393
101393
101393
101393
101393
101393
101393
101393
101393
101393
101290
101290
101291
101291
101291
101291
101291
101291
101291
101291
101291
101291
101291
101290
101290
101290
101290
101290
101290
101290
101290
101290
101290
101290
101291
101188
101188
101188
101188
101188
101188
101188
101188
101188
101188
101188
101188
101188
101188
101188
101188
101188
101187
101187
101187
101187
101187
101187
101187
101188
101085
101085
101085
101085
101085
101085
101085
101085
101086
101086
101085
101085
101085
101085
101085
101085
101085
101085
101085
101085
101085
101085
101085
101085
101086
100982
100983
100983
100983
100983
100983
100983
100983
100983
100983
100983
100983
100983
100983
100982
100982
100982
100982
100982
100982
100982
100982
100982
100982
100983
100880
100880
100880
100880
100880
100880
100880
100880
100880
100880
100880
100880
100880
100880
100880
100880
100880
100880
100879
100879
100879
100880
100880
100880
100881
100777
100778
100778
100778
100778
100778
100778
100778
100778
100778
100778
100778
100778
100778
100777
100777
100777
100777
100777
100777
100777
100777
100777
100777
100778
100675
100675
100675
100675
100675
100675
100675
100675
100675
100675
100675
100675
100675
100675
100675
100674
100674
100674
100674
100674
100674
100675
100675
100675
100676
100572
100573
100573
100573
100573
100573
100573
100573
100573
100573
100573
100573
100573
100572
100572
100572
100572
100572
100572
100572
100572
100572
100572
100572
100573
100470
100470
100470
100470
100470
100470
100471
100471
100471
100471
100471
100471
100471
100470
100470
100470
100470
100470
100469
100469
100470
100470
100470
100470
100471
100367
100368
100368
100368
100368
100368
100368
100369
100369
100369
100369
100369
100369
100369
100368
100368
100368
100368
100368
100368
100368
100368
100368
100368
100369
100265
100265
100266
100266
100266
100267
100267
100267
100267
100267
100267
100267
100267
100267
100267
100266
100266
100266
100265
100265
100265
100265
100265
100265
100266
100151
100153
100155
100155
100155
100156
100156
100156
100156
100156
100156
100155
100155
100154
100154
100153
100152
100152
100151
100150
100149
100149
100148
100147
100145
100036
100042
100045
100046
100046
100046
100046
100046
100046
100046
100045
100045
100044
100044
100043
100042
100041
100040
100039
100038
100038
100037
100036
100034
100027
100003
100005
100006
100007
100007
100007
100007
100007
100007
100007
100006
100006
100006
100006
100006
100006
100006
100006
100006
100006
100006
100005
100005
100004
100003
100001
100001
100001
100001
100001
100001
100001
100001
100001
100001
100001
100001
100001
100001
100001
100001
100001
100001
100001
100001
100001
100001
100001
100001
100001
100001
100001
100001
100001
100001
100001
100001
100001
100001
100001
100001
100001
100001
100001
100001
100001
100001
100001
100001
100001
100001
100001
100001
100001
100001
100001
100001
100001
100001
100001
100001
100001
100001
100001
100001
100001
100001
100001
100000
100000
100000
100000
100000
100000
100000
100000
100000
100000
100000
100000
100000
100000
100000
100000
100000
100000
100000
100000
100000
100000
100000
100000
100000
100000
100000
100000
100000
100000
100000
100000
100000
100000
100000
100000
100000
100000
100000
100000
100000
100000
100000
100000
100000
100000
100000
100000
100000
100000
100000
100000
100000
100000
100000
100000
100000
100000
100000
100000
100000
100000
100000
100000
100000
100000
100000
100000
100000
100000
100000
100000
100000
100000
100000
100000
100000
100000
100000
100000
100000
100000
100000
100000
100000
100000
100000
)
;

boundaryField
{
    inlet
    {
        type            fixedFluxPressure;
        gradient        nonuniform List<scalar> 
25
(
1438.84
1150.19
1035.39
1019.37
1026.62
1044.45
1067.09
1090.19
1110.34
1125.83
1136.45
1142.45
1138.88
1127.98
1111.52
1096.43
1075.76
1051.82
1026.76
999.588
986.068
1014.02
1137.09
1325.7
1399.76
)
;
        value           nonuniform List<scalar> 
25
(
107104
107107
107107
107106
107102
107098
107093
107088
107082
107077
107072
107069
107066
107064
107063
107064
107065
107067
107070
107073
107075
107078
107080
107082
107086
)
;
    }
    outlet
    {
        type            fixedValue;
        value           uniform 100000;
    }
    walls
    {
        type            fixedFluxPressure;
        gradient        uniform 0;
        value           nonuniform List<scalar> 
150
(
107095
106951
106854
106734
106616
106501
106393
106288
106185
106084
105982
105878
105773
105666
105559
105452
105346
105240
105136
105032
104928
104823
104718
104612
104505
104398
104292
104185
104080
103976
103873
103769
103663
103557
103453
103349
103246
103142
103038
102935
102832
102729
102627
102524
102421
102318
102215
102112
102010
101907
101804
101701
101599
101496
101393
101290
101188
101085
100982
100880
100777
100675
100572
100470
100367
100265
100151
100036
100003
100001
100001
100001
100000
100000
100000
107077
106939
106840
106728
106620
106514
106409
106304
106199
106093
105986
105877
105769
105663
105557
105453
105349
105241
105132
105024
104919
104814
104710
104607
104503
104399
104295
104190
104085
103980
103874
103769
103665
103560
103456
103351
103247
103143
103039
102936
102833
102730
102626
102523
102420
102317
102215
102112
102009
101906
101804
101701
101599
101496
101393
101291
101188
101086
100983
100881
100778
100676
100573
100471
100369
100266
100145
100027
100003
100001
100001
100000
100000
100000
100000
)
;
    }
    defaultFaces
    {
        type            empty;
    }
}


// ************************************************************************* //
