/*--------------------------------*- C++ -*----------------------------------*\
| =========                 |                                                 |
| \\      /  F ield         | OpenFOAM: The Open Source CFD Toolbox           |
|  \\    /   O peration     | Version:  2.3.0                                 |
|   \\  /    A nd           | Web:      www.OpenFOAM.org                      |
|    \\/     M anipulation  |                                                 |
\*---------------------------------------------------------------------------*/
FoamFile
{
    version     2.0;
    format      ascii;
    class       volScalarField;
    location    "0.32";
    object      rho;
}
// * * * * * * * * * * * * * * * * * * * * * * * * * * * * * * * * * * * * * //

dimensions      [1 -3 0 0 0 0 0];

internalField   nonuniform List<scalar> 
6000
(
1039.6
939.955
907.405
987.052
986.048
868.423
1040.67
1040.69
1040.69
1040.69
1040.69
1040.68
1040.66
982.632
806.27
831.337
1014.3
1044.63
1044.65
1044.66
1044.66
1044.66
1044.65
1026.54
874.124
950.332
953.204
885.488
894.969
1042.47
994.715
874.287
869.002
876.606
868.912
871.501
885.574
971.564
994.823
1027.43
1035.5
914.929
804.19
795.647
786.481
795.631
788.141
822.917
960.976
1044.64
1024.26
990.691
959.357
875.772
869.094
875.769
878.43
876.835
873.392
987.447
937.444
869.918
872.965
868.977
872.362
866.378
872.363
1024.53
1038.51
1037.16
965.028
790.416
795.626
788.242
795.626
787.799
795.626
788.616
795.748
1031.36
1043.37
1044.45
1011.59
871.563
875.766
870.393
876.346
872.142
876.834
941.819
893.599
874.282
869.106
872.956
868.353
872.362
869.458
1006.68
1037.16
1041.64
809.479
795.626
788.429
795.626
788.215
795.626
788.279
795.626
789.144
900.442
1048.05
1043.37
984.381
876.346
869.268
876.346
870.935
876.834
874.117
902.721
934.458
872.153
874.282
870.229
872.956
866.587
872.956
1005.24
1042.03
1037.16
795.876
788.743
795.626
788.708
795.626
788.603
795.626
788.834
795.626
794.17
1043.37
1047.12
971.335
872.104
876.346
870.265
876.834
872.531
877.032
934.679
1054.82
874.664
871.608
874.281
871.321
872.956
871.89
1017.95
1037.16
1032.72
789.483
795.626
789.703
795.626
789.529
795.626
789.606
795.626
789.228
795.627
1048.48
1043.37
988.036
876.834
870.791
876.834
873.081
877.032
876.378
1039.15
1206.32
934.24
874.664
873.668
874.281
870.59
874.282
1037.16
1044.21
835.363
795.625
790.583
795.625
790.84
795.625
790.878
795.625
790.809
795.625
790.339
998.979
1049.4
1031.35
875.817
876.834
873.734
877.032
875.989
944.55
1192.69
1290.74
1103.33
930.037
915.995
890.324
874.281
890.863
1038.44
1037.16
796.025
790.191
795.625
792.336
795.625
792.611
795.625
792.495
795.625
791.04
795.625
803.018
1043.37
1044.11
887.325
875.564
877.032
882.264
925.07
1119.89
1286.46
1334.98
1243.48
1078.06
984.31
999.993
932.904
966.656
1037.16
980.36
791.443
795.625
793.794
795.625
794.43
795.625
794.56
795.625
794.087
795.625
791.539
795.626
1044.56
1043.37
966.926
914.542
951.747
961.815
1071.64
1259.99
1331.85
1355.25
1304.3
1207.95
1061.1
1132.21
1169.61
1065.89
938.431
794.195
795.625
793.44
799.299
825.732
835.462
837.535
836.673
832.595
820.28
794.514
795.625
791.591
817.728
988.248
1091.02
1144.26
1098.61
1060.62
1220.21
1315.45
1347.8
1360.26
1334.7
1270.18
1180.27
1260.09
1343.92
1072.24
799.549
795.625
793.654
838.928
927.049
987.076
1010.16
1015.67
1013.59
1003.53
974.715
908.956
825.719
795.625
793.573
834.057
1125.46
1343.68
1249.65
1177.69
1286.2
1342.47
1348.24
1362.15
1356.11
1318.68
1290.47
1345.66
1345.54
999.189
795.626
793.739
859.512
1024.13
1152.74
1205.54
1223.48
1228.08
1226.31
1218.78
1195.52
1134.28
997.042
844.117
795.625
794.889
1061.59
1361.57
1345.08
1288.16
1326.11
1361.78
1351.53
1364.34
1364.54
1359.96
1352.84
1363.36
1344.98
920.787
800.566
893.037
1079.67
1243.8
1306.26
1312.2
1312.06
1312.39
1312.06
1312.33
1312.05
1300.57
1224.68
1054.31
881.443
800.16
965.633
1361.17
1362.47
1352.59
1360.29
1361.86
1299.32
1353.33
1364.03
1365.19
1363.79
1364.79
1194.3
948.222
874.659
1102.87
1301.54
1312.06
1313.75
1312.08
1314.25
1312.08
1314.21
1312.08
1313.78
1312.07
1313.3
1290.55
1078.1
866
975.777
1249.6
1361.74
1363.55
1361.95
1363.47
1233.55
1309.94
1365.78
1363.82
1365.36
1287.32
1002.01
999.384
945.822
1083.42
1277.95
1314.49
1312.02
1314.54
1312.04
1314.55
1312.04
1314.54
1312.03
1314.52
1311.97
1269.49
1067.54
934.456
1019.2
1059.64
1313.77
1361.84
1364.13
1361.79
1217.43
1285.56
1363.52
1365.82
1281.44
809.534
687.8
873.679
777.822
741.241
835.902
1025.77
1127.62
1173.42
1194.1
1197.84
1201.14
1192.5
1174.78
1122
1022.75
834.939
740.889
770.627
859.637
721.514
822.667
1335.33
1361.91
1363.95
1216.94
1145.51
1217.22
1215.71
894.98
547.106
519.503
527.935
519.433
508.991
519.358
522.248
554.229
575.889
592.067
596.416
598.868
590.895
578.103
550.127
524.828
511.252
518.954
509.978
521.365
509.097
525.215
912.842
1363.9
1361.57
1216.92
988.529
891.182
925.663
835.557
529.519
505.593
519.424
505.101
519.348
506.714
519.267
509.84
519.188
512.156
519.115
512.833
519.042
510.784
518.992
507.713
518.949
504.494
518.883
503.89
518.883
516.852
738.301
1147.7
1224.34
1222.34
949.646
890.104
897.937
916.057
531.622
519.424
505.101
519.348
505.781
519.267
508.463
519.188
511.024
519.114
512.704
519.041
511.881
518.992
509.22
518.949
506.296
518.891
503.916
518.843
505.75
518.883
799.472
1007.59
975.062
1154.64
1001.65
891.171
950.966
996.453
529.189
507.138
519.348
505.696
519.266
507.601
519.188
509.91
519.114
511.871
519.041
512.569
518.992
510.742
518.949
508.098
518.883
505.702
518.843
503.924
518.843
518.096
898.661
1009.43
970.006
1037.44
1042.59
890.369
1006.22
1064.41
526.252
519.424
505.56
519.348
507.047
519.266
509.12
519.188
511.166
519.114
512.667
519.041
511.808
518.992
509.632
518.949
507.281
518.883
504.784
518.843
508.17
523.141
992.328
1025.98
971.021
1026.28
1069.58
891.172
1029.93
1111.51
561.977
509.685
519.424
507.12
519.348
508.543
519.266
510.372
519.188
512.101
519.114
512.78
519.041
511.09
518.992
508.824
518.949
506.792
518.883
505.059
518.883
547.062
1080.71
1076.25
970.644
1059.35
1089.07
903.083
1030.2
1138.67
646.031
519.498
506.816
519.423
508.064
519.348
509.786
519.266
511.606
519.188
513.013
519.114
512.13
519.041
510.178
518.992
508.151
518.949
505.833
518.883
511.135
624.159
1129.33
1122.94
973.195
1087.83
1099.71
903.494
1019.03
1159.26
731.56
512.407
519.498
508.343
519.423
509.353
519.348
510.942
519.266
512.554
519.187
513.229
519.114
511.636
519.041
509.552
518.992
507.82
518.949
506.545
518.949
718.473
1148.63
1146.83
1025.3
1115.79
1102.68
903.86
1014.28
1168.18
786.652
519.562
508.506
519.498
509.026
519.423
510.503
519.348
512.202
519.266
513.545
519.187
512.676
519.114
510.831
519.041
509.026
518.992
507.095
518.949
514.07
790.647
1155.57
1156.32
1039.96
1139.04
1103.65
904.259
1014.84
1172.93
822.052
515.02
519.562
509.555
519.498
510.215
519.423
511.633
519.347
513.179
519.266
513.822
519.187
512.312
519.114
510.346
519.041
508.913
518.992
508.837
518.992
843.744
1156.92
1156.54
1040.02
1148.86
1115.79
920.729
1031.54
1184.11
858.761
519.621
510.576
519.562
510.01
519.498
511.314
519.423
512.941
519.347
514.197
519.266
513.352
519.187
511.577
519.114
509.932
519.041
508.393
518.992
517.012
897.721
1156.57
1142.34
1040.53
1149.53
1142.93
958.51
1047.38
1185.39
908.354
517.356
519.621
510.743
519.562
511.173
519.498
512.437
519.423
513.916
519.347
514.538
519.266
513.106
519.187
511.195
519.114
509.808
519.041
511.386
519.041
961.607
1129.41
1126.28
1040.16
1147.4
1185.92
1006.57
1063.47
1185.22
960.831
519.717
512.731
519.621
510.969
519.562
512.217
519.498
513.792
519.423
514.96
519.347
514.144
519.266
512.433
519.187
510.866
519.114
509.259
519.041
543.821
1030.16
1118.09
1113.22
1040.85
1150.03
1254.93
1083.53
1087.73
1179.51
1025.05
519.132
519.717
511.966
519.621
512.152
519.562
513.34
519.498
514.733
519.423
515.366
519.347
514.034
519.266
512.159
519.187
510.568
519.113
513.612
635.81
1090.78
1117.36
1107.98
1040.94
1165.55
1319.62
1207.3
1132.75
1179.91
1102.2
531.631
515.024
519.716
511.829
519.62
513.219
519.562
514.723
519.497
515.846
519.423
515.049
519.347
513.434
519.266
511.936
519.187
510.413
519.113
750.111
1151.64
1134.9
1113.76
1058.08
1199.72
1358.94
1308.83
1223.35
1210.79
1186.37
589.22
519.829
513.511
519.716
513.141
519.62
514.33
519.562
515.657
519.497
516.309
519.423
515.087
519.347
513.316
519.265
511.712
519.187
516.116
845.628
1192.95
1150.34
1131.16
1119.22
1253.27
1367.94
1354.15
1304.85
1269.22
1261.43
698.387
518.112
519.829
512.691
519.716
514.334
519.62
515.784
519.562
516.855
519.497
516.073
519.423
514.589
519.347
513.212
519.265
512.571
519.187
923.413
1220.94
1166.98
1164.57
1208.52
1308.61
1367.98
1367.92
1347.88
1318.5
1294.17
854.31
519.887
516.071
519.829
514.237
519.716
515.452
519.62
516.722
519.562
517.399
519.497
516.272
519.423
514.659
519.347
513.154
519.265
518.484
1008.2
1244.08
1190.56
1219.17
1290.1
1348.94
1363.56
1367.97
1364.66
1344.96
1287.21
1046.09
610.836
519.887
513.911
519.829
515.624
519.716
517.045
519.62
517.968
519.562
517.246
519.497
515.898
519.423
514.6
519.347
515.055
534.69
1099.67
1263.58
1226.33
1281.58
1339.11
1369.12
1255.83
1367.47
1360.08
1343.99
1249.01
1172.71
828.068
520.968
519.887
515.701
519.829
516.799
519.716
517.972
519.62
518.443
519.561
517.577
519.497
516.14
519.422
515.003
519.347
591.087
1176.71
1280.73
1270.99
1326.42
1363.17
1375.38
1088.93
1171.79
1267.9
1264.85
1237.98
1234.49
1042.66
561.42
516.165
519.887
517.271
519.829
518.27
519.716
518.889
519.62
518.573
519.561
517.368
519.497
516.315
519.422
517.394
670.55
1221.49
1298.56
1311.31
1353.42
1373.59
1375.44
1055.46
1061.02
1184.37
1249.57
1258.1
1259.72
1122.95
638.753
519.947
517.75
519.887
518.498
519.829
519.443
519.716
519.427
519.62
519.148
519.561
517.919
519.497
517.545
519.422
750.979
1232
1318.59
1341.03
1368.89
1375.41
1375.44
1061.29
1124.77
1236.72
1275.21
1277.18
1276.78
1138.29
723.271
519.179
519.947
519.354
519.887
519.564
527.749
534.13
534.273
527.968
520.274
519.136
519.561
518.747
519.497
570.745
833.338
1208.73
1335.14
1361.19
1375.35
1375.42
1375.36
1139.4
1206.42
1280
1294.53
1294.02
1285.74
1134.88
786.471
539.798
519.578
522.23
528.784
539.663
554.821
562.16
562.356
555.471
542.556
531.008
525.075
524.403
557.444
683.401
918.749
1178.67
1343.82
1371.45
1375.34
1369.35
1325.64
1203.78
1242.05
1294.97
1302.8
1302.86
1283.72
1135.67
847.928
615.856
556.406
556.583
567.568
580.589
592.624
597.459
598.01
594.052
584.857
573.733
566.472
576.529
659.174
824.007
1021.96
1192.6
1287.97
1358.66
1364.79
1111.87
1126.01
1231.21
1240.29
1284.96
1288.16
1299.75
1271.67
1156.55
928.934
729.343
639.237
624.639
627.762
632.466
638.546
642.024
643.331
641.826
638.467
637.898
642.296
679.937
797.722
961.96
1108.65
1233.21
1233.13
1321.77
1267.24
961.792
1072.88
1243.98
1240.52
1256.77
1246.22
1265.09
1270.59
1189.45
1013.31
852.949
748.178
710.414
699.025
694.22
695.312
698.238
700.592
701.467
703.516
714.982
739.021
810.122
937.283
1059.95
1135.88
1230.46
1232.88
1297.26
1113.87
960.576
1112.17
1253.99
1240.75
1243.28
1243.57
1256.39
1305.21
1200.75
1059.52
961.402
862.554
804.196
777.959
764.948
761.41
763.245
766.576
770.654
779.327
802.934
847.133
936.793
1033.47
1088.41
1124.26
1202.04
1268.1
1228.1
1038.27
960.312
1136.71
1269.26
1247.64
1248.75
1244.46
1292.96
1335.1
1187.44
1060.22
1020.79
956.362
892.689
855.198
835.78
827.906
827.768
831.304
839.067
855.537
889.634
944.266
1017.68
1057.08
1070.09
1087.87
1182.23
1278.95
1181.71
1055.27
984.204
1146.18
1295.33
1278.12
1279.51
1290.98
1333.67
1337.61
1143.57
1032.44
1023.48
1002.74
954.488
914.752
892.803
882.345
880.075
882.51
892.854
914.887
951.658
998.41
1032.33
1037.18
1018.61
1052.98
1185.66
1278.88
1193.04
1105.71
1022.05
1157.28
1326.6
1317.25
1319.77
1331.07
1348.4
1337.87
1103.28
992.834
1004.19
1003.76
978.794
948.038
928.933
918.626
914.797
915.47
925.937
947.696
976.204
1004.65
1021.8
991.519
981.416
1047.27
1203.88
1282.15
1220.79
1163.61
1077.02
1183.92
1353.86
1348.51
1347.67
1348.7
1348.79
1310.21
1084.86
979.33
979.675
992.092
978.544
961.592
949.696
941.598
936.971
936.569
944.842
960.237
976.018
994.597
989.974
980.974
981.193
1062.82
1232.84
1290.96
1261.94
1214.64
1151.96
1230.08
1372.58
1368.3
1364.53
1360.42
1351.19
1276.22
1084.87
979.077
978.834
978.594
977.025
970.172
965.439
960.344
955.903
956.013
960.664
967.294
973.392
980.333
980.545
980.757
983.507
1106.79
1263.35
1302.08
1305.57
1260.28
1233.17
1282.2
1382.08
1378.98
1374.77
1369.88
1358.17
1263.83
1097.95
998.294
982.21
983.98
987.413
989.199
988.732
986.229
983.146
984.402
984.953
983.301
981.19
982.664
980.757
980.974
1020.48
1170.86
1283.42
1304.4
1325.27
1300.99
1298.29
1322.76
1382.81
1382.78
1379.42
1372.86
1356.65
1263.79
1141.69
1069.78
1025.11
1020.33
1028.04
1032.91
1031.67
1030.31
1028.98
1029.97
1026.99
1021.41
1016.92
1009.59
997.642
1010.98
1105.6
1233.02
1283.83
1284.38
1325.91
1330.02
1333.87
1340.32
1382.81
1382.8
1379.53
1369.38
1339.69
1270.58
1195.56
1160.67
1113.06
1093.64
1095.34
1096.91
1091.76
1089.42
1088.59
1087.32
1082.92
1080.22
1080.68
1069.11
1061.07
1100.22
1204.32
1264.75
1278.63
1244.5
1302.52
1340.32
1340.34
1340.36
1382.7
1382.69
1374.44
1359.42
1319.81
1278.76
1235.2
1206.5
1185.52
1162.89
1154.35
1151
1143.9
1139.98
1138.48
1135.58
1132.71
1135.89
1141.54
1135.33
1145.96
1195.83
1259.09
1265.15
1239.98
1222.96
1259.97
1340.29
1340.32
1340.27
1333.78
1357.08
1353.25
1335.7
1309.11
1291.37
1264.68
1217.82
1199.78
1186.43
1176.52
1171.48
1165.47
1161.51
1159.89
1158.24
1158.34
1164.35
1170.55
1174.65
1197.6
1232.68
1265.15
1265.15
1195.7
1218.39
1224.27
1331.34
1284.4
1161.75
1069.12
1296.28
1337.95
1326.5
1313.26
1305.43
1283.95
1228.8
1200.19
1184.93
1175.59
1171
1165.63
1162.01
1161.11
1161.24
1163.45
1168.61
1173.5
1183.39
1205.82
1232.6
1265.15
1255.95
1166.24
1219.99
1238.46
1295.64
1106.7
1093.86
894.51
1143.48
1337.76
1329.03
1322.08
1313.19
1293.64
1248.73
1210.45
1188.06
1174.93
1169.66
1165.39
1162.44
1161.98
1163.63
1166.38
1169.65
1172.96
1183.98
1205.04
1229.72
1259.6
1190.47
1164.32
1219.51
1269.37
1221.54
1093.85
1093.85
894.094
939.647
1289.83
1328.98
1323.08
1312.9
1297.6
1271.4
1238.69
1211.1
1187.71
1178.66
1175.18
1173.74
1173.71
1176.14
1178.44
1179.05
1179.44
1190.2
1208.92
1231.75
1238.12
1164.22
1164.78
1215.27
1269.28
1204.48
1093.85
1093.85
894.14
894.182
1076.8
1328.84
1317.5
1304.36
1296.54
1279.63
1262.46
1247.85
1221.7
1207.67
1204.08
1203.63
1203.56
1204.74
1205.74
1204.8
1202.84
1210.89
1223.96
1240.44
1225.84
1164.78
1164.31
1213.34
1254.55
1222.79
1148.52
1106.28
894.181
894.23
913.566
1172.06
1310.22
1288.94
1280.91
1275.12
1259.26
1257.34
1250.09
1240.33
1237.05
1236.35
1236.09
1235.96
1235.92
1235.11
1233.34
1237.08
1242.59
1247.94
1212.45
1164.1
1164.78
1219.83
1247.69
1237.35
1246.59
1181.2
973.916
926.506
925.549
960.195
1216.35
1289.17
1261.9
1256.25
1234.31
1238.62
1250.29
1250.29
1250.29
1249.64
1249.4
1249.3
1249.08
1248.65
1247.94
1248.3
1249.31
1248.83
1188.33
1164.77
1169.15
1239.53
1259.52
1237.62
1294.05
1262.01
1126
1007.25
993.831
954.568
1059.87
1289.03
1267.87
1232.68
1200.08
1194.25
1236.78
1250.29
1250.29
1250.29
1250.29
1250.23
1250.12
1250.01
1249.89
1249.77
1249.64
1234.63
1166.72
1164.6
1204.88
1267.19
1278.02
1241.06
1294.06
1294.06
1229.22
1061.66
1057.15
954.696
980.406
1280.2
1284.92
1221.44
1183.4
1181.5
1196.43
1226.36
1238.65
1241.26
1240.67
1238.47
1238.99
1242.24
1246.65
1248.13
1237.92
1197.1
1165.62
1176.07
1258.6
1286.18
1287.6
1269.19
1255.34
1276.05
1243.15
1065.38
1060.31
1005.45
990.76
1218.86
1288.07
1226.08
1181.5
1181.18
1181.49
1190.88
1204.52
1210.98
1212.39
1209.74
1208.98
1211.82
1217.35
1218.44
1197.51
1166.32
1165.66
1210.1
1287.32
1287.7
1287.52
1287.77
1146.46
1197.51
1243.15
1065.28
1060.7
1105.66
1027.6
1133.62
1288.05
1251.61
1183.72
1181.49
1181.21
1181.48
1184.03
1187.73
1189.92
1190.12
1187.91
1184.94
1182.01
1178.77
1167.55
1165.66
1165.62
1236.53
1287.81
1287.52
1288.66
1287.51
1142.54
1143.48
1206.45
1063.58
1060.04
1163.75
1064.83
1079.38
1288.07
1283.74
1197.82
1181.23
1181.48
1181.36
1181.6
1182.29
1183.05
1185.11
1183.63
1178.96
1171.74
1166.34
1165.66
1165.49
1169.41
1235.44
1259.88
1279.65
1287.52
1288.99
1142.09
1142.19
1117.72
1060.76
1061.11
1163.96
1083.15
1070.9
1269.06
1286.86
1228.61
1181.48
1181.22
1181.47
1181.42
1181.64
1181.9
1183.63
1183.12
1179.06
1172.41
1167.36
1165.62
1165.66
1178.25
1224.5
1174.77
1234.64
1289.6
1287.51
1142.49
1142.19
1087.77
1061.58
1060.21
1144.47
1088.41
1071.12
1172.75
1286.81
1264.18
1182.05
1181.47
1181.37
1181.47
1181.66
1181.8
1182.65
1182.79
1179.86
1175.88
1171.98
1166.05
1165.6
1189.39
1217.95
1157.5
1226.76
1287.51
1289.63
1142.4
1142.33
1104.26
1061.36
1061.58
1111.2
1094.84
1070.89
1076.59
1286.86
1279.76
1196.44
1181.39
1181.47
1181.42
1181.66
1181.73
1181.93
1182.23
1180.89
1180.27
1177.09
1168.96
1168.08
1199.07
1215.59
1157.99
1223.12
1279.85
1287.51
1172.48
1151.6
1144.6
1061.84
1060.88
1095.56
1114.95
1071.12
1070.32
1220.93
1279.61
1226.42
1184.23
1181.43
1181.46
1181.6
1181.68
1181.5
1181.7
1181.57
1182.08
1178.58
1172.42
1174.43
1200.32
1197.14
1157.47
1213.81
1184.59
1289.48
1213.36
1170.52
1173.11
1062.06
1061.84
1090.11
1155.19
1074.65
1071.12
1098.38
1275.07
1248.32
1196.09
1181.8
1181.43
1181.48
1181.63
1181.46
1181.53
1181.85
1182.09
1178.37
1175.49
1183.16
1200.41
1159.25
1157.99
1196.79
1184.87
1269.87
1213.65
1179.96
1166.73
1062.17
1061.63
1094.93
1205
1109.38
1070.62
1071.12
1225.23
1247.81
1207.97
1185.06
1181.45
1181.44
1181.47
1181.46
1181.54
1181.86
1181.78
1178.38
1179.72
1193.37
1200.31
1157.99
1157.14
1171.62
1197.03
1264.69
1203.05
1185.84
1129.35
1062.59
1062.76
1133.96
1249.32
1179.04
1071.12
1069.61
1153.88
1229.16
1209.22
1189.8
1181.57
1181.44
1181.45
1181.45
1181.66
1181.81
1180.92
1178.8
1186.16
1200.31
1200.41
1157.26
1157.99
1158.07
1251.3
1273.31
1204.16
1204.91
1078.76
1064.18
1093.88
1215.89
1285.71
1239.87
1073.76
1071.11
1108.76
1192.39
1204.28
1191.57
1182.32
1181.44
1181.44
1181.48
1181.78
1181.64
1180.92
1181.71
1194.23
1200.38
1196.08
1157.99
1156.92
1161.39
1309.14
1299.05
1240.37
1245.38
1079.05
1086.24
1199.65
1291.48
1307.5
1253.32
1079.93
1069.64
1090.12
1161.08
1192.65
1190.7
1183.21
1181.44
1181.52
1181.66
1181.81
1181.62
1181.35
1187.05
1200.28
1200.32
1163.62
1157.12
1157.99
1162.46
1319.48
1328.6
1299.52
1296.15
1085.49
1188.97
1294.3
1328
1319.32
1263.54
1091.12
1071.11
1082.52
1145.41
1180.1
1187.24
1183.22
1181.43
1181.67
1181.88
1181.85
1181.7
1182.49
1190.38
1200.32
1200.42
1157.33
1157.99
1156.93
1159.98
1302.69
1342.53
1338.15
1336.85
1163.12
1290.66
1335.02
1338.27
1297.24
1287.39
1125.23
1070.72
1080.99
1139.29
1170.95
1181.59
1182.12
1181.27
1181.58
1182.09
1181.89
1181.66
1182.76
1189.38
1198.07
1196.92
1157.99
1157.16
1157.99
1161.14
1270.47
1344.22
1354.45
1354.93
1272.07
1333.45
1344.31
1341.37
1297.13
1297.27
1185.11
1078.15
1086.66
1137.83
1165.88
1176.66
1179.63
1180.3
1181.25
1182.23
1181.68
1180.76
1181.18
1183.61
1181.17
1162.9
1157.28
1157.99
1157.71
1178.87
1250.88
1343.8
1355.1
1355.11
1327.2
1344.32
1344.31
1313.02
1297.76
1297.73
1251.9
1129.09
1108.08
1141.23
1165.44
1175.38
1178.02
1179.05
1180.8
1182.23
1180.91
1178.65
1177.66
1175.45
1164.52
1157.58
1157.99
1157.74
1170.74
1222.12
1254.66
1339.05
1355.09
1355.17
1344.55
1344.85
1339.46
1246.24
1297.73
1297.72
1294.19
1205.07
1147.55
1156.42
1171.15
1178.64
1179.56
1179.42
1180.73
1182.15
1180.04
1177.21
1176.34
1173.01
1161.09
1157.99
1157.77
1161.67
1213.43
1259.63
1273.39
1318.17
1355.13
1355.08
1344.86
1344.84
1332.7
1216.9
1293.7
1297.67
1296.84
1248.85
1198.18
1185.56
1188.48
1190.27
1186.88
1182.87
1181.47
1182.1
1180.21
1178.8
1179.96
1177.39
1167.82
1158.86
1163.17
1191.7
1249.31
1259.48
1285.82
1305.49
1354.89
1183.59
1344.86
1344.82
1324.42
1205.73
1205.56
1242.09
1263.58
1254.63
1240.12
1215.33
1208.81
1204.98
1198
1189.65
1183.61
1182.3
1182.37
1186.06
1192.17
1193
1190.41
1182.32
1194.38
1230.27
1249.42
1234.06
1279.07
1305.17
1182.28
935.23
1344.78
1330.99
1287.3
1216.36
1156.08
1154.28
1195.58
1253.9
1251.36
1227.64
1216.77
1210.81
1204.1
1194.82
1186.01
1183.06
1186.94
1196.39
1206.58
1212.37
1217.52
1219.47
1230.57
1232.62
1229.28
1196.62
1275.67
1296.38
969.045
918.845
1234.97
1086.68
1186.95
1244.47
1165.14
1147.83
1149.73
1217.72
1238.91
1222.31
1212.02
1206.85
1202.54
1195.13
1187.05
1184.38
1190.7
1201.25
1210.97
1218.07
1226.15
1232.62
1232.62
1232.62
1169.54
1181.86
1275.73
1189.21
918.87
933.311
1169.22
1008.22
1066.61
1244.5
1196.58
1148.12
1147.8
1155.57
1196.59
1197.05
1192.67
1191.1
1193.02
1191.94
1187.14
1185.75
1191.09
1199.23
1205.08
1209.64
1217.34
1232.62
1232.62
1189.53
1147.49
1196.19
1273.59
1034.59
918.853
1036.42
1240.19
1008.28
1014.54
1241.45
1224.35
1148.02
1148.12
1147.68
1154.42
1163.81
1168.04
1171.33
1178.13
1184.25
1186.72
1186.4
1188.97
1189.9
1187.04
1185.64
1189.73
1209.33
1187.91
1149.1
1147.54
1222.73
1242.86
961.185
922.463
1161.99
1243.6
1033.94
1026.49
1203.15
1224.16
1161.77
1147.92
1148.12
1148.06
1149.12
1156.69
1162.49
1169.59
1177.56
1185.09
1186.1
1183.72
1177.46
1169.3
1163.9
1161.44
1155.14
1147.38
1147.54
1157.81
1223.87
1209.54
959.576
952.646
1157.46
1184.83
1073.95
1062.83
1192.87
1223.78
1182.19
1148.12
1147.7
1148.92
1150.77
1157.74
1163.49
1169.49
1175.95
1182.2
1184.48
1179.28
1171.79
1164.61
1158.99
1152.32
1147.22
1147.54
1147.36
1179.45
1223.87
1185.25
961.295
973.925
1045.65
985.526
1047.07
1085.95
1202.43
1224.28
1196.48
1148.01
1148.11
1154.95
1159.97
1164.5
1168.67
1172.37
1176.77
1180.35
1182.43
1178.3
1172.25
1166.56
1161.92
1154.02
1147.54
1147.1
1147.54
1207.03
1223.87
1130.57
950.641
948.688
888.361
864.356
973.387
1058.4
1179.06
1224.01
1212.63
1157.62
1147.95
1158.44
1171.04
1171.05
1170.9
1175.59
1178.85
1180.66
1181.9
1178.67
1173.89
1169.62
1168.49
1159.45
1147.4
1147.54
1158.08
1212.32
1219.16
1027.88
923.04
900.174
837.333
863.015
907.578
989.521
1095.72
1212.09
1212.84
1192.44
1164.81
1163.26
1174.62
1171.48
1169.99
1172.16
1178.45
1181.29
1181.9
1178.11
1171.31
1169.55
1171.96
1165.16
1153.87
1164.22
1183.96
1195.23
1119.61
945.556
891.508
862.326
837.715
863.015
881.641
936.464
1014.93
1149.22
1212.68
1232.78
1223.04
1191.47
1175.79
1170.12
1169.68
1169.93
1172.11
1178.24
1179.47
1172.47
1169.5
1169.7
1172.54
1176.69
1194.95
1214.98
1214.38
1169.82
1040.91
919.912
875.613
847.774
837.715
863.148
878.107
925.434
1003.03
1133.54
1226.28
1267.57
1278.79
1244.3
1184.86
1169.9
1169.93
1169.66
1169.88
1169.9
1170.46
1169.56
1169.74
1169.5
1172.31
1203.02
1257.37
1266.16
1248.24
1180.97
1052.9
938.847
883.491
847.241
837.714
864.638
889.538
954.014
1050.29
1178.51
1267.26
1298.29
1304.79
1290.59
1204.69
1169.93
1169.65
1169.88
1169.68
1169.83
1169.63
1169.79
1169.55
1169.74
1173.56
1235.68
1300.75
1297.64
1285.74
1234.69
1132.83
1021.44
934.423
864.616
838.409
865.323
938.643
1050.01
1170.59
1265.42
1310.63
1321.38
1320.58
1320.11
1236.11
1174.85
1169.93
1169.78
1169.88
1169.76
1169.83
1169.7
1169.79
1169.64
1186.68
1272.51
1323.83
1319.62
1316.8
1297.32
1246.74
1158.8
1044.82
923.589
839.549
879.615
1038.78
1190.06
1283
1324.23
1337.33
1337.67
1335.55
1338.22
1282.22
1206.98
1187.55
1182.89
1176.67
1172.17
1172.52
1177.78
1184.11
1191.13
1229.15
1314.04
1338.11
1337.02
1337.33
1333.4
1317.22
1275.54
1185.12
1031.99
864.39
973.19
1172.7
1294.45
1336.82
1349.49
1350.65
1348.53
1347.16
1347.73
1318.57
1251.64
1223.36
1215.02
1201.42
1190.73
1191.49
1203.76
1217.42
1230.23
1278.06
1339.48
1347.77
1348.06
1348.89
1349.57
1346.39
1332.46
1289.87
1169.61
974.652
1129.55
1283.36
1344.09
1358.33
1359.22
1356.22
1353.11
1351.51
1347.95
1312.31
1238.36
1215.1
1214.83
1214.72
1214.19
1214.52
1215.72
1215.88
1219.9
1263.5
1338.03
1348.13
1351.2
1352.81
1355.76
1357.71
1355.92
1341.38
1281.97
1136.34
1259.56
1342.15
1365.96
1367.04
1362.4
1356.22
1352.21
1348.56
1336.02
1232.85
1150.72
1141.96
1154.69
1184.56
1202.84
1202.15
1180.49
1153.03
1144.1
1165.92
1276.72
1344.58
1348.65
1351.84
1356.57
1362.13
1366.14
1364.59
1341.07
1261.94
1330.57
1369.46
1376.66
1371.76
1363.46
1354.51
1348.03
1339.54
1239.4
1127.85
1123.45
1125.23
1123.69
1125.23
1131.64
1131.43
1124.31
1125.23
1123.48
1125.23
1143.42
1278.8
1342.46
1348.46
1356.4
1364.8
1372.47
1376.65
1369.07
1330.56
1369.34
1383.87
1383.69
1376.44
1366.61
1354.73
1342.82
1276.53
1130.95
1123.58
1125.23
1123.44
1125.23
1123.66
1125.23
1123.69
1125.23
1123.6
1125.23
1123.48
1125.23
1151.05
1298.11
1345.45
1358.38
1369.27
1378.17
1384.44
1384.11
1369.55
1387.87
1388.46
1388.42
1380.51
1372.27
1359.49
1332.49
1189.32
1124.27
1125.23
1123.89
1125.23
1123.98
1125.23
1123.69
1125.23
1123.69
1125.23
1123.92
1125.23
1123.94
1125.23
1215.4
1342.38
1364.46
1374.66
1381.65
1388.42
1388.46
1387.97
1388.52
1388.51
1388.38
1375.68
1373.21
1367.33
1321.33
1165.56
1125.23
1124.71
1125.23
1124.7
1125.23
1124.1
1125.23
1124.04
1125.23
1124.74
1125.23
1124.72
1125.23
1124.9
1189.87
1339.66
1371.02
1373.91
1374.96
1388.36
1388.51
1388.51
1388.54
1388.45
1376.98
1353.15
1362.85
1366.08
1315.77
1190.9
1163.97
1142.49
1135.42
1132.5
1128.57
1125.23
1124.82
1125.23
1124.87
1128.24
1131.82
1134.64
1140.94
1161.99
1211.95
1337.07
1368.73
1361.96
1348.01
1374.37
1388.43
1388.53
1388.15
1385.52
1345.13
1335.82
1341.53
1352.06
1314.75
1257.14
1252.66
1219.55
1200.15
1194.62
1184.32
1170.82
1161.24
1161.33
1170.82
1183.13
1192.92
1197.98
1216.33
1250.51
1269.01
1333.91
1357.28
1341.17
1333.44
1339.95
1385.52
1388.12
1237.91
1227.9
1303.56
1333.74
1338.3
1342.33
1324.98
1314.68
1315.02
1296.02
1278.58
1275.19
1265.15
1249.83
1237.33
1237.51
1249.88
1264
1273.89
1276.96
1293.36
1314.89
1319.18
1337.08
1349.36
1340.58
1332.24
1307.38
1233.37
1224.31
865.37
949.942
1130.95
1295.36
1336.51
1342.17
1340.55
1340.31
1331.81
1309.32
1303.87
1301.59
1292.79
1282.56
1275.37
1275.65
1283.02
1292.71
1301.27
1304.18
1307.06
1331.18
1343.91
1346.35
1347.1
1339.08
1303.31
1148.93
949.46
856.149
715.045
789.699
876.893
1015.31
1184.98
1331.91
1340.56
1340.57
1326.29
1294.78
1291.32
1286.26
1278.93
1272.23
1268.36
1268.7
1273.1
1279.6
1286.69
1292.43
1294.14
1323.84
1346.25
1346.3
1337.61
1202.04
1028.03
875.492
777.728
716.643
712.319
745.534
803.454
798.407
855.954
1133.02
1327.11
1340.52
1309.85
1281.88
1268.21
1258.8
1255.17
1254.09
1253.93
1254.28
1254.88
1256.42
1260.29
1269.88
1283.21
1307.13
1345.14
1329.6
1147.2
861.615
789.146
786.444
734.191
712.887
712.866
731.932
794.293
783.483
783.523
860.109
1139.72
1310.43
1306.1
1289.3
1271.99
1261.77
1258.81
1258.62
1258.96
1259.19
1259.34
1259.83
1263.08
1273.18
1290.03
1305.22
1307.25
1146.75
866.936
776.653
775.69
781.019
724.121
713.113
713.3
727.635
785.886
783.164
783.567
785.765
960.173
1209.72
1304.03
1294.89
1281.57
1273.58
1270.87
1270.33
1270.1
1270.26
1270.55
1271.03
1273.92
1281.58
1294.74
1304.97
1214.46
967.842
785.467
775.339
776.189
776.037
721.337
713.976
713.3
729.571
782.364
782.769
783.175
783.581
922.94
1134.77
1260.07
1264.29
1258.38
1254.24
1251.42
1249.44
1249.04
1248.29
1248.5
1249.97
1253.19
1257.21
1263.57
1264.06
1140.28
923.327
780.638
776.189
775.757
775.382
724.187
713.975
713.3
745.761
805.514
783.174
783.581
792.494
929.411
1110.87
1174.81
1179.7
1180.81
1180.34
1177.61
1174.15
1172.93
1171.64
1172.23
1174.5
1178
1178.81
1179.75
1180.39
1111.4
925.456
788.881
776.216
779.779
799.48
738.391
713.975
714.145
791.282
871.388
814.488
797.315
834.702
967.576
1105.4
1118.33
1116.72
1117.11
1117.18
1115.73
1114.42
1113.78
1113.5
1113.91
1114.74
1115.92
1117.1
1118.24
1123.06
1103.62
956.626
832.006
799.534
831.453
858.65
773.452
714.849
758.867
877.537
952.385
888.73
885.825
937.757
1043.85
1109.02
1109.19
1109.01
1109.47
1109.51
1109.76
1109.71
1110.04
1109.87
1110.3
1110.27
1110.56
1110.51
1110.82
1110.71
1111.2
1032.1
936.076
900.201
927.461
942.872
840.169
725.3
894.855
1004.92
1014.23
990.461
1047.7
1089.76
1126.06
1110.26
1108.86
1109.47
1108.95
1109.76
1109.52
1110.04
1109.72
1110.3
1109.96
1110.57
1110.36
1110.84
1110.27
1111.09
1118.38
1127.59
1089.13
1059.28
1033.15
1044.08
948.701
808.282
1067.33
1149.9
1081.66
1102.47
1193.09
1202.3
1163.09
1109.24
1109.47
1108.9
1109.76
1109.31
1110.04
1109.55
1110.3
1109.81
1110.56
1110.03
1110.82
1110.27
1111.09
1110.47
1111.32
1178.37
1216.26
1207.49
1146.31
1156.67
1096.15
965.502
1214.53
1268.41
1171.13
1193.88
1222.91
1212.67
1150.97
1109.76
1108.93
1109.76
1109.16
1110.04
1109.51
1110.3
1109.76
1110.56
1110.01
1110.82
1110.24
1111.09
1110.47
1111.32
1110.61
1164.23
1240.05
1268.06
1257.41
1261.44
1241.96
1143.79
1300.58
1319.33
1252.83
1233.29
1222.92
1183.71
1118.2
1109.16
1109.76
1109.16
1110.04
1109.87
1110.3
1110.11
1110.56
1110.36
1110.82
1110.62
1111.09
1110.56
1111.32
1110.62
1111.61
1127.98
1207.73
1270.41
1317.15
1319.15
1320.97
1281.65
1321.19
1321.18
1280.23
1229.09
1197.42
1146.13
1110
1110.04
1109.57
1110.04
1109.89
1110.51
1112.28
1113.27
1114
1114.87
1114.55
1113.53
1112.3
1111.32
1111.18
1111.61
1111.4
1111.87
1162.34
1239.25
1316.2
1333.21
1337.98
1336.58
1321.19
1321.18
1278.51
1220.7
1187.14
1154.7
1127.88
1128.52
1134.88
1143.38
1153.44
1162.43
1168.27
1171.42
1173.87
1176.09
1174.76
1171.26
1166.81
1160.77
1152.3
1142.31
1134.03
1135.52
1170.95
1222.68
1301.71
1326.54
1337.98
1337.99
1321.18
1303.24
1278.82
1234.99
1216.91
1209.95
1202.99
1208.47
1220.65
1234.46
1248.27
1258.05
1264.3
1267.25
1270.07
1271.68
1270.74
1267.12
1262.9
1256.23
1246.31
1231.74
1217.13
1213.08
1227.67
1245.75
1287.76
1311.87
1331.03
1337.96
1275.97
1298.83
1288.68
1273.55
1274.74
1282.98
1286.29
1292.07
1298.52
1304.23
1307.73
1309.06
1309.14
1309.09
1309.24
1309.1
1309.25
1309.18
1309.23
1309.11
1307.88
1303.84
1296.6
1292.91
1294.46
1290.19
1294.83
1309.58
1309.64
1279.37
1067.05
1305.54
1305.46
1302.64
1306.36
1308.99
1309
1309.23
1309.04
1309.43
1309.08
1309.62
1309.1
1309.96
1309.11
1310.11
1309.19
1310
1309.26
1309.8
1309.32
1309.71
1309.38
1309.64
1309.43
1309.52
1308.41
1309.57
1309.5
1026.88