/*--------------------------------*- C++ -*----------------------------------*\
| =========                 |                                                 |
| \\      /  F ield         | OpenFOAM: The Open Source CFD Toolbox           |
|  \\    /   O peration     | Version:  2.3.0                                 |
|   \\  /    A nd           | Web:      www.OpenFOAM.org                      |
|    \\/     M anipulation  |                                                 |
\*---------------------------------------------------------------------------*/
FoamFile
{
    version     2.0;
    format      ascii;
    class       volScalarField;
    location    "0.91";
    object      pMean;
}
// * * * * * * * * * * * * * * * * * * * * * * * * * * * * * * * * * * * * * //

dimensions      [1 -1 -2 0 0 0 0];

internalField   nonuniform List<scalar> 
6000
(
106354
106354
106352
106349
106347
106346
106346
106346
106345
106347
106347
106348
106348
106348
106349
106352
106353
106351
106350
106348
106347
106346
106345
106342
106337
106336
106337
106339
106339
106341
106285
106284
106282
106279
106278
106277
106275
106274
106274
106275
106276
106277
106277
106277
106278
106280
106281
106280
106280
106278
106276
106275
106273
106269
106267
106267
106268
106270
106270
106272
106232
106231
106230
106229
106228
106227
106226
106225
106225
106227
106228
106229
106228
106228
106228
106230
106232
106233
106232
106230
106228
106225
106223
106221
106220
106221
106220
106220
106219
106221
106176
106175
106174
106174
106174
106173
106173
106173
106174
106175
106177
106178
106176
106175
106176
106178
106181
106181
106180
106177
106175
106173
106171
106170
106170
106170
106168
106167
106166
106168
106120
106120
106119
106119
106119
106120
106120
106121
106123
106124
106125
106125
106124
106125
106128
106130
106131
106129
106127
106125
106123
106122
106121
106119
106118
106117
106115
106114
106113
106115
106065
106065
106065
106065
106065
106067
106069
106070
106072
106072
106073
106073
106075
106079
106082
106083
106081
106078
106076
106074
106073
106073
106071
106068
106065
106063
106061
106061
106062
106064
106014
106013
106014
106013
106014
106017
106019
106020
106021
106021
106022
106025
106029
106033
106036
106036
106032
106029
106027
106026
106025
106023
106020
106017
106014
106011
106010
106011
106014
106016
105966
105965
105964
105964
105966
105969
105971
105972
105971
105971
105973
105977
105982
105986
105988
105986
105983
105980
105978
105976
105975
105973
105971
105969
105966
105964
105964
105966
105969
105971
105918
105916
105915
105916
105919
105922
105925
105925
105923
105923
105926
105930
105934
105937
105938
105936
105934
105931
105929
105927
105926
105926
105925
105924
105922
105920
105920
105923
105926
105928
105870
105868
105867
105868
105872
105876
105879
105879
105877
105877
105880
105884
105887
105888
105889
105887
105886
105885
105882
105880
105879
105880
105880
105879
105878
105877
105878
105880
105884
105886
105822
105821
105820
105821
105824
105829
105833
105834
105833
105832
105834
105837
105839
105841
105841
105840
105840
105839
105837
105834
105834
105834
105834
105834
105834
105834
105836
105838
105842
105844
105775
105774
105773
105774
105777
105782
105787
105789
105788
105787
105787
105790
105792
105793
105794
105794
105794
105794
105791
105789
105788
105788
105788
105789
105790
105791
105794
105797
105800
105802
105729
105727
105727
105727
105730
105734
105739
105743
105743
105741
105740
105741
105744
105746
105747
105748
105749
105748
105745
105743
105742
105740
105740
105741
105744
105747
105752
105756
105759
105761
105682
105681
105680
105680
105682
105686
105690
105695
105697
105696
105693
105693
105696
105699
105701
105702
105703
105701
105698
105696
105694
105692
105691
105692
105696
105702
105708
105714
105717
105718
105635
105634
105634
105633
105634
105638
105641
105646
105650
105649
105647
105645
105648
105652
105654
105656
105656
105654
105651
105648
105645
105642
105641
105643
105648
105655
105663
105669
105672
105673
105588
105587
105587
105586
105586
105589
105592
105597
105601
105602
105600
105598
105600
105604
105607
105609
105608
105606
105603
105599
105595
105592
105591
105593
105599
105607
105615
105621
105624
105624
105540
105540
105540
105539
105539
105540
105543
105547
105552
105555
105554
105553
105554
105557
105559
105561
105560
105557
105554
105550
105545
105542
105541
105543
105549
105556
105564
105569
105572
105572
105493
105493
105493
105493
105492
105492
105495
105498
105503
105507
105508
105508
105508
105510
105512
105513
105511
105508
105505
105500
105495
105492
105491
105493
105498
105505
105511
105516
105517
105518
105445
105446
105447
105446
105445
105445
105447
105450
105454
105459
105462
105462
105462
105463
105465
105464
105462
105459
105456
105451
105446
105442
105442
105443
105448
105453
105458
105461
105463
105464
105397
105398
105399
105399
105398
105398
105400
105403
105406
105411
105415
105416
105417
105417
105417
105416
105413
105411
105406
105401
105397
105395
105394
105395
105399
105402
105406
105410
105411
105412
105349
105350
105352
105352
105352
105351
105353
105356
105359
105362
105367
105369
105370
105370
105369
105367
105364
105362
105358
105353
105350
105349
105349
105349
105351
105354
105357
105361
105362
105363
105301
105302
105303
105304
105305
105305
105307
105310
105312
105314
105318
105321
105322
105322
105321
105318
105315
105313
105310
105307
105305
105304
105304
105303
105304
105307
105310
105314
105315
105316
105253
105254
105255
105257
105258
105259
105261
105263
105265
105267
105269
105272
105274
105274
105272
105268
105266
105265
105263
105260
105259
105259
105258
105258
105259
105261
105264
105267
105268
105268
105206
105206
105208
105210
105212
105213
105215
105217
105218
105219
105221
105223
105225
105225
105223
105220
105218
105217
105216
105214
105213
105213
105213
105213
105214
105215
105217
105220
105221
105221
105159
105159
105161
105164
105167
105168
105169
105170
105171
105172
105173
105174
105175
105175
105173
105171
105170
105170
105169
105167
105167
105167
105168
105168
105168
105169
105171
105172
105173
105173
105114
105113
105115
105118
105122
105123
105123
105123
105124
105124
105125
105126
105126
105125
105125
105124
105122
105123
105122
105120
105120
105121
105122
105122
105122
105123
105124
105124
105124
105124
105069
105068
105070
105073
105077
105078
105077
105076
105076
105076
105077
105077
105077
105076
105076
105076
105076
105076
105075
105073
105073
105074
105075
105076
105076
105076
105076
105076
105075
105075
105024
105024
105026
105028
105031
105032
105030
105028
105027
105028
105029
105029
105028
105027
105028
105029
105030
105031
105029
105027
105025
105027
105029
105029
105029
105029
105028
105027
105027
105027
104980
104980
104981
104983
104985
104985
104982
104979
104978
104979
104980
104980
104980
104979
104980
104982
104984
104985
104984
104981
104979
104980
104981
104982
104981
104981
104981
104979
104979
104979
104935
104934
104935
104937
104938
104937
104933
104930
104930
104931
104932
104933
104933
104932
104932
104935
104938
104940
104939
104935
104932
104933
104934
104934
104934
104934
104933
104932
104931
104931
104890
104888
104889
104890
104890
104889
104885
104883
104882
104883
104885
104886
104886
104886
104887
104889
104893
104895
104893
104889
104886
104886
104887
104886
104887
104887
104886
104884
104883
104883
104844
104842
104843
104843
104843
104842
104839
104836
104836
104837
104839
104840
104841
104841
104842
104845
104848
104850
104848
104843
104841
104840
104840
104840
104841
104841
104839
104837
104835
104835
104796
104796
104797
104797
104797
104796
104793
104792
104791
104792
104794
104795
104796
104797
104798
104800
104804
104805
104802
104798
104796
104795
104795
104794
104795
104795
104792
104789
104787
104787
104748
104749
104750
104751
104751
104751
104749
104748
104747
104748
104749
104750
104751
104752
104754
104756
104759
104760
104757
104754
104752
104751
104751
104750
104750
104748
104745
104741
104739
104739
104699
104700
104703
104705
104705
104706
104705
104704
104704
104704
104704
104706
104707
104708
104709
104711
104714
104714
104712
104710
104709
104708
104707
104706
104705
104702
104697
104693
104690
104690
104650
104651
104654
104657
104659
104660
104660
104659
104659
104659
104660
104661
104662
104663
104665
104667
104669
104668
104667
104665
104665
104664
104663
104662
104660
104656
104650
104645
104642
104642
104600
104601
104604
104608
104612
104614
104615
104614
104614
104614
104614
104615
104617
104618
104620
104622
104623
104623
104622
104621
104620
104619
104618
104618
104615
104609
104603
104598
104595
104594
104551
104552
104555
104559
104563
104567
104569
104569
104568
104568
104568
104570
104571
104573
104575
104577
104577
104577
104577
104576
104574
104574
104574
104572
104568
104561
104555
104551
104548
104547
104503
104505
104508
104510
104515
104520
104523
104523
104522
104521
104522
104524
104525
104527
104529
104531
104532
104531
104532
104530
104528
104528
104528
104526
104521
104514
104508
104504
104502
104501
104458
104459
104460
104462
104466
104472
104476
104476
104475
104475
104476
104478
104480
104482
104484
104485
104486
104485
104485
104484
104482
104482
104481
104478
104473
104466
104461
104459
104457
104457
104412
104412
104413
104415
104419
104424
104429
104430
104429
104430
104431
104432
104434
104436
104438
104440
104441
104440
104439
104438
104436
104435
104434
104430
104425
104420
104416
104414
104413
104414
104366
104365
104366
104368
104372
104377
104382
104384
104384
104385
104386
104387
104388
104390
104392
104394
104395
104394
104393
104392
104390
104388
104386
104383
104379
104375
104372
104371
104370
104371
104319
104318
104319
104322
104326
104331
104335
104338
104339
104340
104341
104342
104343
104344
104346
104347
104348
104347
104346
104345
104343
104341
104339
104337
104334
104331
104329
104328
104328
104328
104273
104272
104273
104276
104280
104285
104289
104291
104293
104295
104297
104297
104297
104298
104299
104300
104301
104300
104299
104299
104297
104295
104292
104291
104289
104287
104286
104285
104285
104285
104227
104227
104229
104231
104235
104238
104242
104244
104247
104249
104251
104252
104252
104252
104252
104253
104253
104253
104252
104252
104251
104249
104246
104245
104245
104243
104242
104242
104241
104241
104183
104183
104185
104187
104190
104192
104195
104198
104200
104203
104204
104205
104205
104204
104205
104205
104205
104205
104205
104205
104205
104203
104201
104200
104200
104199
104198
104197
104197
104197
104140
104140
104141
104143
104145
104146
104149
104151
104153
104155
104156
104156
104156
104156
104156
104156
104156
104156
104156
104157
104157
104156
104155
104154
104154
104153
104152
104152
104151
104151
104095
104095
104097
104098
104099
104101
104102
104103
104104
104105
104105
104106
104106
104106
104107
104108
104108
104108
104108
104109
104109
104109
104108
104108
104107
104106
104105
104104
104104
104104
104049
104049
104051
104052
104053
104054
104055
104055
104054
104053
104053
104054
104055
104056
104058
104059
104060
104060
104060
104061
104061
104060
104060
104059
104058
104056
104055
104055
104055
104055
104001
104002
104004
104005
104006
104007
104007
104005
104002
103999
103999
104000
104003
104006
104008
104010
104011
104012
104013
104014
104012
104010
104009
104008
104007
104005
104005
104005
104005
104004
103952
103953
103954
103955
103956
103957
103956
103952
103947
103944
103946
103948
103952
103956
103959
103961
103963
103964
103965
103966
103963
103959
103957
103956
103954
103954
103954
103955
103954
103954
103901
103901
103902
103903
103904
103904
103903
103898
103893
103892
103895
103898
103903
103907
103910
103912
103914
103916
103917
103916
103912
103907
103903
103902
103902
103902
103902
103903
103903
103903
103847
103846
103846
103847
103849
103851
103849
103845
103841
103843
103846
103850
103855
103858
103861
103863
103865
103867
103868
103865
103860
103854
103850
103849
103850
103850
103851
103852
103852
103851
103792
103790
103790
103792
103795
103797
103796
103794
103793
103796
103800
103804
103808
103810
103812
103814
103815
103817
103816
103812
103806
103801
103798
103797
103798
103799
103800
103801
103801
103800
103738
103737
103738
103740
103742
103745
103746
103746
103748
103751
103755
103758
103761
103763
103764
103765
103765
103764
103762
103758
103752
103748
103746
103745
103747
103749
103750
103751
103750
103749
103687
103687
103689
103691
103694
103696
103699
103700
103703
103706
103709
103712
103715
103716
103716
103716
103714
103711
103708
103704
103698
103695
103694
103695
103697
103699
103700
103700
103700
103700
103641
103641
103643
103645
103648
103651
103654
103656
103659
103661
103665
103667
103669
103669
103669
103668
103664
103659
103655
103651
103646
103644
103644
103646
103648
103650
103651
103651
103651
103651
103597
103597
103599
103601
103604
103608
103611
103613
103615
103617
103620
103622
103623
103623
103623
103620
103616
103611
103606
103603
103599
103598
103598
103599
103601
103602
103602
103602
103602
103602
103555
103554
103556
103558
103561
103566
103569
103571
103573
103574
103576
103578
103578
103578
103577
103574
103570
103566
103563
103559
103556
103555
103554
103554
103555
103555
103554
103553
103554
103554
103512
103511
103513
103515
103518
103523
103527
103529
103531
103532
103533
103534
103534
103533
103532
103529
103526
103524
103521
103518
103515
103513
103512
103512
103511
103509
103508
103506
103506
103507
103468
103468
103469
103471
103475
103480
103484
103486
103488
103489
103490
103490
103489
103488
103487
103485
103483
103482
103480
103478
103475
103472
103471
103470
103468
103465
103462
103459
103458
103459
103421
103422
103424
103427
103430
103435
103440
103443
103445
103446
103446
103446
103445
103444
103443
103442
103441
103439
103438
103436
103433
103431
103429
103428
103426
103422
103417
103414
103412
103411
103373
103375
103377
103380
103384
103390
103395
103399
103402
103403
103402
103402
103401
103400
103399
103399
103398
103396
103395
103393
103390
103388
103387
103385
103383
103378
103372
103369
103366
103364
103324
103325
103328
103332
103337
103343
103349
103354
103359
103360
103359
103358
103357
103356
103356
103355
103354
103353
103352
103349
103347
103345
103344
103342
103338
103333
103328
103324
103320
103318
103275
103276
103279
103283
103289
103295
103303
103308
103313
103316
103316
103314
103313
103312
103311
103310
103309
103308
103307
103305
103303
103301
103299
103296
103293
103287
103281
103277
103273
103271
103227
103227
103230
103234
103240
103247
103254
103260
103265
103269
103271
103270
103269
103267
103266
103265
103264
103263
103262
103260
103258
103256
103253
103250
103245
103239
103233
103229
103224
103223
103179
103179
103182
103186
103192
103199
103206
103211
103216
103220
103223
103224
103223
103221
103220
103219
103218
103217
103215
103213
103211
103209
103205
103201
103197
103190
103184
103179
103176
103175
103133
103133
103135
103138
103144
103150
103157
103162
103166
103170
103174
103176
103176
103174
103173
103172
103171
103170
103168
103165
103163
103160
103157
103152
103148
103141
103136
103131
103127
103126
103089
103088
103089
103092
103096
103102
103108
103112
103116
103119
103123
103125
103126
103125
103124
103123
103123
103122
103119
103116
103114
103111
103108
103104
103099
103093
103087
103082
103079
103078
103045
103044
103045
103047
103050
103055
103059
103063
103065
103068
103071
103073
103074
103075
103075
103074
103074
103073
103070
103066
103064
103062
103060
103056
103052
103046
103040
103035
103032
103031
103001
103001
103001
103002
103004
103008
103011
103013
103014
103016
103017
103019
103021
103023
103024
103024
103024
103023
103020
103016
103014
103013
103011
103009
103005
102999
102994
102990
102986
102986
102955
102956
102957
102958
102959
102961
102963
102963
102963
102962
102963
102965
102967
102970
102972
102973
102973
102971
102969
102966
102964
102964
102964
102962
102959
102955
102950
102945
102943
102943
102906
102909
102910
102911
102913
102914
102915
102914
102911
102909
102909
102911
102914
102918
102920
102922
102921
102920
102917
102915
102914
102914
102916
102916
102914
102910
102906
102903
102901
102901
102855
102858
102860
102862
102864
102865
102866
102864
102860
102858
102858
102859
102863
102867
102870
102870
102870
102868
102866
102865
102864
102865
102868
102870
102869
102867
102864
102861
102859
102859
102802
102804
102807
102809
102812
102814
102815
102814
102811
102809
102810
102813
102815
102818
102820
102821
102819
102818
102815
102814
102814
102815
102819
102822
102823
102822
102821
102819
102817
102817
102748
102750
102753
102755
102759
102762
102763
102763
102762
102763
102765
102767
102769
102771
102772
102772
102770
102768
102765
102764
102764
102765
102769
102773
102775
102776
102775
102774
102773
102772
102695
102696
102699
102701
102706
102710
102712
102713
102714
102716
102719
102721
102723
102724
102725
102724
102722
102719
102717
102716
102715
102715
102718
102722
102725
102726
102727
102727
102727
102725
102643
102644
102647
102650
102654
102659
102662
102665
102667
102670
102673
102676
102677
102678
102678
102677
102675
102673
102671
102669
102667
102666
102667
102670
102673
102675
102676
102676
102677
102675
102595
102596
102598
102601
102605
102609
102614
102617
102621
102625
102628
102630
102631
102632
102631
102630
102629
102627
102625
102623
102621
102619
102618
102619
102622
102624
102624
102623
102624
102624
102547
102548
102551
102554
102558
102562
102566
102571
102575
102579
102582
102584
102585
102586
102585
102584
102583
102581
102580
102578
102576
102573
102570
102569
102570
102573
102572
102571
102570
102571
102501
102501
102503
102507
102511
102515
102519
102524
102530
102534
102536
102538
102539
102539
102538
102537
102536
102535
102534
102532
102530
102527
102524
102521
102521
102522
102521
102520
102518
102518
102455
102455
102457
102460
102464
102467
102471
102477
102483
102487
102490
102492
102493
102493
102492
102491
102490
102489
102488
102486
102484
102481
102479
102475
102472
102472
102471
102469
102467
102466
102409
102408
102410
102413
102417
102420
102424
102431
102436
102441
102443
102445
102446
102446
102445
102444
102444
102443
102441
102440
102438
102436
102434
102430
102426
102424
102422
102420
102418
102418
102362
102362
102364
102367
102371
102374
102379
102385
102390
102393
102396
102397
102398
102399
102398
102398
102397
102396
102395
102394
102393
102391
102389
102385
102381
102377
102374
102372
102370
102370
102314
102316
102318
102322
102325
102329
102334
102339
102343
102346
102348
102350
102351
102352
102352
102352
102351
102351
102350
102349
102348
102347
102344
102341
102336
102332
102328
102325
102323
102323
102268
102270
102273
102277
102280
102284
102289
102294
102297
102300
102302
102303
102304
102305
102306
102306
102306
102305
102305
102304
102303
102302
102299
102296
102291
102287
102282
102278
102277
102276
102222
102225
102227
102231
102235
102239
102244
102249
102252
102255
102256
102258
102259
102260
102260
102261
102261
102260
102260
102259
102258
102256
102254
102251
102246
102241
102236
102232
102230
102228
102176
102178
102181
102185
102190
102194
102199
102204
102207
102209
102211
102213
102214
102215
102215
102215
102215
102215
102215
102214
102213
102211
102209
102205
102200
102195
102190
102186
102183
102181
102128
102131
102134
102138
102144
102149
102154
102159
102162
102164
102166
102168
102168
102169
102170
102170
102170
102170
102169
102168
102167
102165
102163
102159
102154
102148
102142
102138
102134
102133
102081
102083
102086
102091
102097
102103
102109
102114
102117
102119
102121
102122
102123
102123
102124
102124
102124
102124
102123
102122
102121
102119
102117
102113
102108
102101
102094
102089
102085
102083
102033
102034
102038
102044
102051
102057
102063
102068
102071
102074
102075
102076
102076
102077
102077
102078
102078
102077
102077
102076
102075
102073
102070
102066
102060
102053
102046
102040
102036
102034
101986
101987
101990
101996
102003
102010
102016
102021
102025
102028
102029
102029
102030
102030
102031
102031
102031
102031
102030
102029
102028
102026
102022
102018
102012
102005
101997
101992
101988
101986
101938
101939
101942
101947
101955
101963
101969
101974
101978
101981
101982
101982
101983
101983
101983
101984
101984
101984
101983
101982
101981
101979
101975
101970
101963
101956
101949
101944
101940
101938
101891
101892
101894
101899
101906
101915
101921
101926
101930
101933
101934
101935
101935
101935
101936
101936
101936
101936
101936
101935
101934
101931
101927
101922
101915
101908
101901
101896
101892
101891
101843
101844
101846
101851
101858
101866
101873
101878
101882
101885
101886
101887
101887
101887
101888
101888
101888
101888
101888
101887
101886
101883
101879
101873
101867
101860
101853
101848
101845
101844
101796
101797
101799
101803
101810
101818
101825
101830
101834
101837
101838
101839
101839
101839
101839
101839
101840
101840
101840
101839
101838
101834
101830
101825
101819
101812
101806
101801
101798
101797
101749
101750
101752
101756
101763
101770
101776
101781
101785
101788
101790
101790
101790
101790
101790
101790
101790
101791
101791
101790
101789
101785
101781
101776
101771
101764
101758
101753
101751
101750
101701
101702
101705
101709
101715
101722
101728
101733
101736
101739
101741
101741
101742
101741
101741
101740
101740
101741
101741
101740
101739
101736
101732
101727
101722
101716
101710
101705
101702
101701
101654
101655
101658
101662
101668
101674
101680
101684
101688
101691
101692
101693
101693
101692
101692
101691
101691
101691
101691
101691
101689
101686
101683
101678
101674
101668
101661
101656
101653
101652
101609
101610
101613
101618
101624
101629
101634
101639
101642
101645
101646
101647
101647
101646
101645
101644
101643
101643
101643
101643
101642
101639
101636
101632
101627
101621
101613
101608
101605
101603
101567
101568
101571
101576
101582
101588
101593
101597
101600
101603
101604
101604
101604
101603
101602
101601
101599
101598
101599
101600
101598
101596
101592
101588
101583
101576
101568
101562
101559
101557
101527
101529
101531
101537
101542
101548
101553
101557
101560
101562
101564
101564
101563
101563
101561
101559
101557
101555
101556
101557
101556
101553
101550
101546
101540
101532
101524
101518
101514
101511
101488
101489
101492
101497
101503
101508
101513
101518
101521
101523
101524
101524
101524
101523
101521
101519
101516
101514
101514
101515
101514
101511
101508
101503
101497
101488
101480
101474
101470
101468
101449
101451
101453
101458
101464
101469
101474
101479
101482
101484
101485
101485
101485
101484
101482
101480
101477
101474
101473
101473
101472
101469
101465
101460
101453
101444
101436
101431
101429
101427
101410
101412
101415
101420
101425
101430
101435
101440
101443
101446
101447
101447
101446
101445
101443
101441
101438
101435
101433
101431
101430
101427
101422
101416
101409
101401
101395
101391
101390
101389
101372
101373
101376
101381
101386
101391
101396
101401
101405
101408
101409
101409
101408
101407
101405
101402
101400
101397
101394
101391
101388
101385
101380
101373
101366
101359
101355
101353
101352
101351
101333
101335
101338
101342
101348
101352
101358
101363
101367
101369
101371
101371
101370
101369
101367
101364
101361
101358
101355
101351
101347
101343
101338
101331
101325
101320
101317
101315
101314
101313
101294
101296
101300
101304
101309
101314
101319
101324
101329
101331
101333
101333
101332
101330
101328
101326
101323
101320
101316
101312
101307
101303
101297
101291
101286
101282
101279
101278
101276
101275
101256
101257
101261
101265
101270
101275
101280
101285
101290
101293
101294
101295
101294
101292
101290
101288
101285
101281
101277
101273
101268
101263
101257
101252
101247
101244
101242
101240
101238
101237
101217
101219
101222
101226
101232
101237
101241
101247
101251
101254
101256
101256
101255
101254
101252
101249
101246
101242
101238
101233
101228
101223
101217
101212
101209
101206
101204
101202
101200
101199
101179
101180
101183
101187
101193
101198
101202
101208
101212
101215
101217
101217
101217
101215
101213
101211
101207
101204
101199
101194
101188
101183
101178
101173
101170
101167
101165
101163
101161
101161
101140
101141
101143
101148
101153
101159
101164
101168
101173
101176
101177
101178
101178
101176
101174
101172
101168
101164
101160
101154
101148
101143
101138
101134
101130
101128
101125
101123
101122
101122
101101
101102
101104
101108
101114
101120
101125
101129
101134
101137
101138
101139
101138
101137
101135
101133
101129
101125
101120
101115
101109
101103
101098
101094
101090
101088
101085
101084
101082
101082
101061
101062
101065
101069
101075
101081
101086
101090
101094
101097
101099
101099
101099
101098
101096
101094
101090
101086
101081
101075
101069
101063
101058
101054
101050
101048
101046
101044
101043
101042
101021
101023
101025
101030
101035
101042
101046
101051
101055
101058
101059
101059
101059
101059
101057
101054
101051
101046
101041
101035
101029
101023
101018
101014
101010
101008
101006
101004
101003
101002
100982
100983
100986
100990
100995
101002
101007
101011
101015
101018
101019
101019
101019
101019
101017
101014
101010
101006
101000
100994
100988
100982
100977
100973
100970
100968
100965
100963
100962
100961
100942
100943
100945
100948
100954
100960
100966
100970
100974
100977
100978
100978
100978
100978
100976
100973
100969
100964
100959
100953
100947
100941
100936
100932
100929
100926
100923
100921
100919
100918
100901
100902
100903
100906
100911
100918
100923
100928
100932
100935
100936
100936
100936
100936
100934
100931
100927
100922
100916
100910
100904
100898
100893
100889
100885
100882
100879
100876
100874
100872
100859
100859
100860
100862
100866
100873
100879
100884
100888
100891
100892
100893
100893
100892
100890
100887
100883
100878
100872
100866
100860
100854
100849
100844
100840
100836
100833
100830
100827
100825
100817
100816
100817
100818
100821
100828
100834
100839
100844
100846
100848
100848
100848
100847
100845
100842
100838
100833
100827
100820
100814
100808
100802
100797
100792
100789
100785
100782
100779
100778
100774
100773
100773
100774
100776
100782
100789
100794
100798
100801
100803
100803
100803
100802
100800
100797
100792
100787
100781
100774
100768
100762
100756
100750
100745
100741
100737
100734
100732
100731
100731
100730
100730
100730
100732
100736
100743
100748
100752
100755
100757
100757
100757
100757
100754
100751
100746
100741
100734
100728
100722
100715
100709
100703
100698
100694
100690
100687
100685
100685
100689
100688
100687
100687
100688
100691
100698
100703
100707
100710
100711
100712
100712
100711
100709
100706
100701
100695
100689
100683
100676
100670
100663
100657
100652
100649
100645
100642
100640
100640
100648
100647
100646
100645
100646
100648
100654
100659
100664
100667
100668
100668
100667
100667
100664
100661
100656
100651
100645
100639
100633
100627
100620
100614
100610
100606
100603
100599
100597
100597
100607
100606
100605
100604
100605
100607
100612
100617
100621
100625
100626
100626
100625
100624
100622
100619
100614
100609
100603
100598
100592
100585
100579
100573
100569
100565
100562
100559
100557
100556
100567
100566
100565
100564
100564
100567
100571
100576
100581
100584
100586
100586
100585
100584
100582
100578
100574
100569
100564
100558
100552
100546
100540
100534
100529
100525
100522
100519
100518
100517
100528
100526
100525
100524
100524
100527
100531
100537
100542
100545
100547
100547
100546
100545
100543
100540
100536
100531
100526
100520
100514
100508
100501
100495
100490
100486
100483
100481
100480
100480
100489
100487
100486
100484
100485
100488
100493
100499
100504
100507
100509
100510
100509
100508
100506
100503
100499
100495
100489
100483
100477
100470
100464
100457
100452
100448
100445
100444
100443
100443
100450
100449
100447
100446
100448
100451
100456
100463
100468
100472
100474
100475
100474
100473
100471
100469
100465
100460
100455
100448
100442
100435
100428
100421
100415
100411
100409
100408
100407
100407
100413
100412
100411
100411
100413
100416
100422
100428
100435
100439
100441
100443
100442
100440
100439
100436
100433
100428
100421
100415
100408
100401
100394
100387
100381
100378
100376
100374
100373
100373
100378
100378
100378
100379
100381
100384
100388
100395
100401
100406
100409
100411
100410
100409
100407
100405
100402
100396
100390
100383
100376
100370
100363
100356
100351
100348
100346
100344
100341
100340
100346
100346
100347
100348
100349
100352
100356
100363
100369
100375
100378
100380
100380
100379
100377
100375
100372
100366
100359
100353
100346
100339
100333
100327
100323
100320
100318
100315
100312
100311
100316
100316
100316
100317
100318
100321
100326
100332
100339
100345
100349
100351
100352
100351
100349
100347
100343
100337
100330
100323
100317
100310
100304
100299
100295
100292
100290
100287
100285
100283
100286
100285
100285
100286
100288
100291
100296
100303
100310
100316
100321
100323
100324
100323
100322
100320
100315
100309
100303
100295
100288
100282
100276
100271
100267
100264
100261
100260
100258
100257
100254
100253
100253
100255
100258
100262
100268
100275
100282
100288
100293
100296
100297
100297
100296
100293
100289
100283
100276
100269
100261
100254
100248
100244
100239
100236
100233
100232
100232
100231
100224
100223
100224
100227
100231
100236
100241
100248
100256
100262
100266
100269
100271
100271
100270
100267
100263
100257
100250
100243
100235
100228
100222
100217
100212
100208
100206
100206
100205
100205
100197
100197
100199
100202
100206
100211
100217
100224
100231
100237
100241
100245
100246
100246
100245
100242
100238
100232
100226
100219
100211
100204
100198
100192
100187
100183
100181
100180
100179
100179
100174
100174
100176
100179
100183
100189
100195
100202
100209
100214
100218
100222
100224
100223
100222
100219
100215
100210
100204
100197
100189
100182
100176
100170
100165
100161
100158
100155
100154
100154
100153
100154
100156
100159
100163
100168
100174
100181
100188
100193
100197
100200
100202
100202
100200
100197
100194
100189
100183
100176
100169
100162