/*--------------------------------*- C++ -*----------------------------------*\
| =========                 |                                                 |
| \\      /  F ield         | OpenFOAM: The Open Source CFD Toolbox           |
|  \\    /   O peration     | Version:  2.3.0                                 |
|   \\  /    A nd           | Web:      www.OpenFOAM.org                      |
|    \\/     M anipulation  |                                                 |
\*---------------------------------------------------------------------------*/
FoamFile
{
    version     2.0;
    format      ascii;
    class       volVectorField;
    location    "0.91";
    object      Ur;
}
// * * * * * * * * * * * * * * * * * * * * * * * * * * * * * * * * * * * * * //

dimensions      [0 1 -1 0 0 0 0];

internalField   nonuniform List<vector> 
6000
(
(0.0410723 -0.629822 0)
(0.0922328 -0.517558 0)
(0.125085 -0.488157 0)
(0.10017 -0.458977 0)
(0.0694552 -0.482405 0)
(0.0974718 -0.556308 0)
(0.154603 -0.580949 0)
(0.176581 -0.536159 0)
(0.174808 -0.542435 0)
(0.139762 -0.531409 0)
(0.0727174 -0.530242 0)
(0.00588821 -0.530844 0)
(-0.0634568 -0.506474 0)
(-0.0845141 -0.520401 0)
(-0.096345 -0.470929 0)
(-0.189794 -0.435911 0)
(-0.275358 -0.481131 0)
(-0.243482 -0.600993 0)
(-0.17929 -0.616386 0)
(-0.161456 -0.571709 0)
(-0.179689 -0.500533 0)
(-0.247092 -0.476398 0)
(-0.303532 -0.494243 0)
(-0.250542 -0.549446 0)
(0.0775111 -0.726437 0)
(0.358214 -0.693395 0)
(0.246385 -0.632464 0)
(0.0702079 -0.622359 0)
(0.0143892 -0.609059 0)
(0.00542252 -0.550774 0)
(0.0519368 -1.0595 0)
(0.126709 -0.934375 0)
(0.146474 -0.850908 0)
(0.127538 -0.781131 0)
(0.0963792 -0.806891 0)
(0.0728711 -0.854133 0)
(0.0545003 -0.89676 0)
(0.0702989 -0.912179 0)
(0.131992 -0.948383 0)
(0.138146 -0.854641 0)
(0.072109 -0.828087 0)
(0.0109074 -0.850737 0)
(-0.0163916 -0.857484 0)
(-0.0345996 -0.861739 0)
(-0.0841582 -0.79627 0)
(-0.152859 -0.749209 0)
(-0.198857 -0.859129 0)
(-0.202144 -0.941967 0)
(-0.201627 -0.914194 0)
(-0.237341 -0.867193 0)
(-0.309824 -0.809632 0)
(-0.387594 -0.79534 0)
(-0.431373 -0.871944 0)
(-0.329367 -1.08288 0)
(-0.0474252 -1.5732 0)
(0.266872 -1.36283 0)
(0.269096 -1.02846 0)
(0.0863563 -0.990535 0)
(0.0688377 -1.07597 0)
(0.0608703 -0.957259 0)
(0.0809331 -1.00164 0)
(0.140695 -0.841174 0)
(0.111048 -0.737787 0)
(0.0907662 -0.675407 0)
(0.0626788 -0.69157 0)
(0.0306563 -0.721765 0)
(0.022275 -0.762672 0)
(0.0405696 -0.787355 0)
(0.0710276 -0.796117 0)
(0.0676118 -0.686695 0)
(0.0182172 -0.664266 0)
(-0.0278586 -0.700425 0)
(-0.0429559 -0.744742 0)
(-0.0422302 -0.768421 0)
(-0.0495616 -0.74137 0)
(-0.0645875 -0.689546 0)
(-0.0764688 -0.773081 0)
(-0.0960127 -0.825618 0)
(-0.11623 -0.769342 0)
(-0.171443 -0.714834 0)
(-0.260422 -0.687555 0)
(-0.35793 -0.710714 0)
(-0.385452 -0.858579 0)
(-0.231609 -1.3417 0)
(-0.0221387 -1.70069 0)
(0.103504 -1.6104 0)
(0.182719 -0.926818 0)
(0.0681528 -0.876671 0)
(0.0713751 -1.13192 0)
(0.100668 -0.840736 0)
(0.0419547 -1.04063 0)
(0.0575201 -0.792526 0)
(0.0326613 -0.728181 0)
(0.0304535 -0.704385 0)
(0.026651 -0.736338 0)
(0.0113016 -0.772532 0)
(0.00188581 -0.81585 0)
(0.0191344 -0.852472 0)
(0.0297415 -0.831016 0)
(0.0136182 -0.773887 0)
(-0.0132207 -0.774553 0)
(-0.0481225 -0.799545 0)
(-0.0693263 -0.858131 0)
(-0.0550229 -0.909078 0)
(-0.0140767 -0.843619 0)
(0.00335999 -0.757982 0)
(-0.0139151 -0.779914 0)
(-0.0494581 -0.833951 0)
(-0.0933983 -0.801968 0)
(-0.172119 -0.782671 0)
(-0.284684 -0.784186 0)
(-0.345741 -0.810853 0)
(-0.209157 -1.05834 0)
(0.0295721 -1.57924 0)
(0.0849225 -1.59499 0)
(-0.00643656 -1.57072 0)
(0.00122178 -1.19227 0)
(0.0338643 -0.954547 0)
(0.106974 -1.36128 0)
(0.0786038 -0.725553 0)
(-0.019665 -1.03013 0)
(-0.0310092 -0.816695 0)
(-0.0201538 -0.81333 0)
(-0.0149562 -0.820416 0)
(-0.0236504 -0.861561 0)
(-0.0455495 -0.930455 0)
(-0.0501579 -1.01831 0)
(0.0263023 -1.1029 0)
(0.0771963 -0.993502 0)
(0.0317469 -0.93025 0)
(-0.0266844 -0.923571 0)
(-0.104786 -0.960093 0)
(-0.133185 -1.06346 0)
(-0.00661567 -1.13937 0)
(0.100039 -0.931611 0)
(0.0463983 -0.769683 0)
(-0.0351511 -0.802169 0)
(-0.0771097 -0.91364 0)
(-0.0920482 -0.938382 0)
(-0.161785 -0.86809 0)
(-0.23495 -0.858468 0)
(-0.134668 -0.963535 0)
(0.0997735 -1.4117 0)
(0.183818 -1.4977 0)
(0.124122 -1.5044 0)
(0.0434752 -1.45264 0)
(-0.0401752 -1.34926 0)
(-0.00312549 -1.26783 0)
(0.0869574 -1.37107 0)
(0.036034 -0.627704 0)
(-0.0416881 -1.10922 0)
(-0.0579392 -1.04624 0)
(-0.0291559 -1.03354 0)
(-0.0402394 -1.01267 0)
(-0.0907195 -1.00618 0)
(-0.134222 -1.07125 0)
(-0.0962291 -1.19025 0)
(0.0310798 -1.34861 0)
(0.123995 -1.15681 0)
(0.079206 -1.06818 0)
(-0.0416824 -1.05122 0)
(-0.0936236 -1.08238 0)
(0.00997954 -1.27081 0)
(0.221016 -1.39312 0)
(0.218356 -0.919259 0)
(0.0338352 -0.678501 0)
(-0.121557 -0.799887 0)
(-0.140217 -1.01766 0)
(-0.0754821 -1.04642 0)
(-0.0410373 -0.864487 0)
(0.0138188 -0.959791 0)
(0.18728 -1.24853 0)
(0.267477 -1.39029 0)
(0.214083 -1.43147 0)
(0.154905 -1.41787 0)
(0.0982533 -1.41211 0)
(0.026861 -1.35881 0)
(0.0110172 -1.32757 0)
(0.0696816 -1.30701 0)
(0.0406326 -0.531223 0)
(-0.0284521 -1.20145 0)
(-0.0304346 -1.19245 0)
(0.0175532 -1.13607 0)
(0.0461654 -1.07435 0)
(0.0411656 -1.02558 0)
(0.0347918 -1.12303 0)
(0.0728963 -1.36852 0)
(0.109656 -1.58373 0)
(0.113464 -1.40479 0)
(0.100092 -1.16143 0)
(0.0892226 -1.1503 0)
(0.150811 -1.35447 0)
(0.312821 -1.6249 0)
(0.373328 -1.41603 0)
(0.178236 -0.72219 0)
(-0.04936 -0.536269 0)
(-0.116465 -0.839157 0)
(-0.0593394 -1.28351 0)
(0.000733291 -1.25381 0)
(0.104246 -0.992671 0)
(0.216204 -1.05418 0)
(0.257114 -1.22531 0)
(0.239175 -1.32794 0)
(0.198255 -1.35945 0)
(0.162653 -1.39988 0)
(0.112177 -1.37859 0)
(0.0600488 -1.38946 0)
(0.0400143 -1.34302 0)
(0.0914079 -1.32677 0)
(0.0479318 -0.444523 0)
(0.014961 -1.29147 0)
(0.0927923 -1.35852 0)
(0.213377 -1.31046 0)
(0.313079 -1.21652 0)
(0.372991 -1.13735 0)
(0.382521 -1.18494 0)
(0.330195 -1.33471 0)
(0.216993 -1.43975 0)
(0.140905 -1.397 0)
(0.177029 -1.35826 0)
(0.27274 -1.36573 0)
(0.34192 -1.45284 0)
(0.349737 -1.51947 0)
(0.282554 -1.2374 0)
(0.0713133 -0.503726 0)
(-0.0554321 -0.460007 0)
(0.000109571 -1.07713 0)
(0.111586 -1.21814 0)
(0.135615 -1.13445 0)
(0.173712 -0.991 0)
(0.160209 -0.958845 0)
(0.149454 -1.17367 0)
(0.159002 -1.25306 0)
(0.156844 -1.32452 0)
(0.140576 -1.34669 0)
(0.112744 -1.38194 0)
(0.0736583 -1.35976 0)
(0.0613814 -1.36483 0)
(0.0859191 -1.32209 0)
(0.0375248 -0.385016 0)
(0.0999591 -1.54356 0)
(0.291526 -1.4825 0)
(0.422758 -1.32191 0)
(0.493006 -1.1905 0)
(0.489363 -1.05834 0)
(0.439194 -1.05453 0)
(0.34709 -1.18025 0)
(0.233424 -1.24827 0)
(0.174444 -1.27087 0)
(0.180345 -1.26085 0)
(0.222151 -1.31196 0)
(0.244235 -1.3737 0)
(0.238364 -1.44629 0)
(0.180365 -1.11159 0)
(0.0230734 -0.399646 0)
(-0.00898815 -0.528428 0)
(0.0827041 -1.10845 0)
(0.14317 -1.15863 0)
(0.203335 -1.12336 0)
(0.175226 -0.901057 0)
(0.0828023 -0.83458 0)
(0.0615318 -1.13606 0)
(0.087577 -1.21653 0)
(0.100414 -1.264 0)
(0.10666 -1.32442 0)
(0.098063 -1.33239 0)
(0.0796713 -1.35722 0)
(0.0705152 -1.33326 0)
(0.0771588 -1.31891 0)
(0.0291428 -0.361281 0)
(0.0880902 -1.4186 0)
(0.257632 -1.39969 0)
(0.34611 -1.19645 0)
(0.368309 -1.04094 0)
(0.354224 -0.945663 0)
(0.313588 -0.9658 0)
(0.257686 -1.0908 0)
(0.180197 -1.17856 0)
(0.140182 -1.21876 0)
(0.139073 -1.26699 0)
(0.146881 -1.29986 0)
(0.153281 -1.37383 0)
(0.14033 -1.40059 0)
(0.113581 -1.06868 0)
(0.0185952 -0.370637 0)
(0.0165322 -0.649608 0)
(0.104531 -1.08358 0)
(0.149644 -1.13336 0)
(0.203883 -1.10284 0)
(0.150447 -0.798708 0)
(0.0701587 -0.742114 0)
(0.0298443 -1.09243 0)
(0.0286551 -1.16526 0)
(0.0477218 -1.22688 0)
(0.0631734 -1.26037 0)
(0.0732156 -1.31291 0)
(0.0710615 -1.31123 0)
(0.0721056 -1.32911 0)
(0.0748888 -1.3002 0)
(0.0266751 -0.353578 0)
(0.0682713 -1.44409 0)
(0.180072 -1.40675 0)
(0.230164 -1.16258 0)
(0.234124 -0.985182 0)
(0.201879 -0.874185 0)
(0.168649 -0.921959 0)
(0.142561 -1.04142 0)
(0.0991612 -1.12722 0)
(0.0780699 -1.19695 0)
(0.0755069 -1.23518 0)
(0.0788506 -1.2956 0)
(0.0766813 -1.33122 0)
(0.0610138 -1.36632 0)
(0.0577428 -1.07757 0)
(0.0282858 -0.383715 0)
(0.051923 -0.76572 0)
(0.107058 -1.0407 0)
(0.138928 -1.06117 0)
(0.17746 -1.06841 0)
(0.133037 -0.725032 0)
(0.0861995 -0.67542 0)
(0.0230717 -0.987599 0)
(-0.0222175 -1.11028 0)
(-0.00683549 -1.16121 0)
(0.0162987 -1.2231 0)
(0.0377012 -1.24768 0)
(0.0525077 -1.28947 0)
(0.0641072 -1.28103 0)
(0.0668184 -1.28001 0)
(0.0224879 -0.356962 0)
(0.0517443 -1.46005 0)
(0.120611 -1.40758 0)
(0.131015 -1.12061 0)
(0.110485 -0.899691 0)
(0.0642409 -0.795668 0)
(0.026716 -0.887057 0)
(0.0172637 -1.01197 0)
(0.0118742 -1.10996 0)
(0.00629884 -1.16474 0)
(0.0130032 -1.2277 0)
(0.0208136 -1.25685 0)
(0.021977 -1.2982 0)
(0.00333947 -1.30031 0)
(-0.0111379 -1.10581 0)
(0.037556 -0.464104 0)
(0.111444 -0.82398 0)
(0.115244 -0.986704 0)
(0.123894 -1.00841 0)
(0.144538 -1.01281 0)
(0.120555 -0.68002 0)
(0.0968682 -0.610992 0)
(0.0244842 -0.844005 0)
(-0.0580068 -1.02283 0)
(-0.0666353 -1.09882 0)
(-0.038322 -1.15057 0)
(-0.00327263 -1.20665 0)
(0.027759 -1.22047 0)
(0.0505525 -1.23862 0)
(0.0328414 -1.22157 0)
(0.00295691 -0.38405 0)
(0.0417623 -1.45621 0)
(0.0625344 -1.35874 0)
(0.0321259 -1.0567 0)
(-0.0018989 -0.815925 0)
(-0.0435771 -0.724387 0)
(-0.0916296 -0.842622 0)
(-0.103727 -1.00079 0)
(-0.0798992 -1.09344 0)
(-0.0665123 -1.16548 0)
(-0.042759 -1.20291 0)
(-0.020685 -1.24786 0)
(-0.0052189 -1.25754 0)
(-0.011777 -1.26009 0)
(-0.0189478 -1.13332 0)
(0.0679654 -0.649325 0)
(0.138722 -0.812549 0)
(0.106027 -0.925966 0)
(0.0977471 -0.947943 0)
(0.112204 -0.964004 0)
(0.11384 -0.664902 0)
(0.103367 -0.540865 0)
(0.0408264 -0.691781 0)
(-0.0788664 -0.891648 0)
(-0.139256 -1.00923 0)
(-0.103585 -1.09051 0)
(-0.0464557 -1.13294 0)
(0.0109384 -1.16576 0)
(0.0492985 -1.15767 0)
(0.00943646 -1.12498 0)
(-0.0139332 -0.438529 0)
(0.0293715 -1.41572 0)
(0.00432617 -1.25992 0)
(-0.0574416 -0.963749 0)
(-0.099178 -0.726482 0)
(-0.140129 -0.652989 0)
(-0.191829 -0.784318 0)
(-0.21561 -0.995341 0)
(-0.169844 -1.09794 0)
(-0.128922 -1.15513 0)
(-0.0933079 -1.21115 0)
(-0.0519717 -1.23154 0)
(-0.0138686 -1.25382 0)
(0.0118807 -1.23836 0)
(0.0403832 -1.14699 0)
(0.0982898 -0.748975 0)
(0.10978 -0.757964 0)
(0.0764007 -0.855141 0)
(0.0732598 -0.889371 0)
(0.0783446 -0.900128 0)
(0.0978715 -0.657758 0)
(0.0957896 -0.474703 0)
(0.0569459 -0.551616 0)
(-0.0646689 -0.669127 0)
(-0.193304 -0.910534 0)
(-0.175551 -1.01072 0)
(-0.0887768 -1.08012 0)
(0.0016188 -1.09798 0)
(0.0716541 -1.09228 0)
(0.0524436 -1.01116 0)
(0.00288552 -0.436954 0)
(0.00176259 -1.34624 0)
(-0.053013 -1.12752 0)
(-0.134198 -0.878567 0)
(-0.181023 -0.629798 0)
(-0.223928 -0.578741 0)
(-0.275686 -0.717082 0)
(-0.317689 -0.99896 0)
(-0.258015 -1.10073 0)
(-0.196002 -1.1774 0)
(-0.138573 -1.21154 0)
(-0.0828022 -1.25368 0)
(-0.0205639 -1.25663 0)
(0.0321518 -1.26069 0)
(0.0947672 -1.18871 0)
(0.124544 -0.771526 0)
(0.105381 -0.689721 0)
(0.0678417 -0.773912 0)
(0.0434968 -0.82618 0)
(0.0504368 -0.844323 0)
(0.0591523 -0.625324 0)
(0.0540876 -0.417027 0)
(0.045978 -0.444938 0)
(-0.0176979 -0.472967 0)
(-0.16043 -0.728315 0)
(-0.233582 -0.947517 0)
(-0.140363 -1.03042 0)
(-0.0103193 -1.07104 0)
(0.120605 -1.04514 0)
(0.111953 -0.884619 0)
(0.0145707 -0.363916 0)
(-0.0280171 -1.22904 0)
(-0.09599 -0.984414 0)
(-0.17723 -0.737368 0)
(-0.228566 -0.534915 0)
(-0.269443 -0.500975 0)
(-0.328039 -0.642254 0)
(-0.401652 -0.986562 0)
(-0.348682 -1.12531 0)
(-0.258827 -1.18917 0)
(-0.184565 -1.24597 0)
(-0.113341 -1.26543 0)
(-0.0404517 -1.30138 0)
(0.0280578 -1.30193 0)
(0.096249 -1.27049 0)
(0.129947 -0.772944 0)
(0.123876 -0.617166 0)
(0.0908401 -0.660079 0)
(0.0404523 -0.744527 0)
(0.0150714 -0.789504 0)
(-0.0160593 -0.54885 0)
(-0.0194131 -0.373321 0)
(0.0105982 -0.381835 0)
(0.0196785 -0.384901 0)
(-0.049979 -0.520365 0)
(-0.195329 -0.840171 0)
(-0.18496 -1.02748 0)
(-0.0276101 -1.07709 0)
(0.122212 -1.04969 0)
(0.0600053 -0.677331 0)
(-0.0139466 -0.349559 0)
(-0.0341759 -1.07871 0)
(-0.117176 -0.859279 0)
(-0.188144 -0.60516 0)
(-0.225123 -0.453529 0)
(-0.253724 -0.423373 0)
(-0.312552 -0.542653 0)
(-0.434409 -0.920182 0)
(-0.423641 -1.13544 0)
(-0.321284 -1.2235 0)
(-0.227661 -1.26114 0)
(-0.151677 -1.30599 0)
(-0.0787096 -1.32371 0)
(-0.00959076 -1.36287 0)
(0.0462544 -1.34645 0)
(0.101732 -0.796341 0)
(0.127756 -0.553721 0)
(0.111329 -0.561142 0)
(0.0584945 -0.620636 0)
(-0.0270226 -0.666081 0)
(-0.0934728 -0.46907 0)
(-0.0856208 -0.362279 0)
(-0.0344894 -0.381719 0)
(0.0270927 -0.400719 0)
(0.0491111 -0.459924 0)
(-0.0467092 -0.694139 0)
(-0.143079 -1.01603 0)
(-0.0602668 -1.11693 0)
(0.000736779 -0.98266 0)
(-0.0535986 -0.583844 0)
(-0.044865 -0.472728 0)
(-0.0326222 -0.949223 0)
(-0.109861 -0.693233 0)
(-0.16743 -0.499049 0)
(-0.183933 -0.393574 0)
(-0.192183 -0.363576 0)
(-0.230152 -0.435673 0)
(-0.369296 -0.770462 0)
(-0.469775 -1.13504 0)
(-0.37333 -1.23501 0)
(-0.274636 -1.29699 0)
(-0.188792 -1.31718 0)
(-0.127064 -1.35083 0)
(-0.0699237 -1.38106 0)
(-0.0418357 -1.38997 0)
(0.0411403 -0.862294 0)
(0.103922 -0.513719 0)
(0.098355 -0.491555 0)
(0.0428462 -0.504924 0)
(-0.0672633 -0.543909 0)
(-0.146643 -0.446595 0)
(-0.131369 -0.407643 0)
(-0.0695418 -0.447306 0)
(0.00543251 -0.482261 0)
(0.0830818 -0.51747 0)
(0.0700712 -0.666448 0)
(-0.040854 -0.972138 0)
(-0.10454 -1.15691 0)
(-0.133642 -0.995665 0)
(-0.118411 -0.790525 0)
(-0.0380195 -0.68981 0)
(-0.0358489 -0.798478 0)
(-0.0998899 -0.576735 0)
(-0.134398 -0.434434 0)
(-0.13259 -0.361706 0)
(-0.121965 -0.330833 0)
(-0.131117 -0.355533 0)
(-0.227837 -0.580714 0)
(-0.42892 -1.04267 0)
(-0.427938 -1.24594 0)
(-0.30968 -1.30309 0)
(-0.222342 -1.34471 0)
(-0.162835 -1.34169 0)
(-0.124279 -1.36846 0)
(-0.118662 -1.36746 0)
(-0.0425208 -0.957204 0)
(0.0416713 -0.510014 0)
(0.0433282 -0.432076 0)
(-0.0224594 -0.422431 0)
(-0.125114 -0.482159 0)
(-0.180543 -0.471644 0)
(-0.169091 -0.507638 0)
(-0.118117 -0.57369 0)
(-0.0302398 -0.607001 0)
(0.0418142 -0.617606 0)
(0.0641612 -0.732708 0)
(-0.0128252 -1.02609 0)
(-0.152681 -1.29222 0)
(-0.217995 -1.19946 0)
(-0.0951517 -1.06407 0)
(0.0159622 -0.829687 0)
(-0.0348949 -0.68841 0)
(-0.086964 -0.508261 0)
(-0.103577 -0.405443 0)
(-0.0897627 -0.353699 0)
(-0.0666339 -0.322855 0)
(-0.0519997 -0.315127 0)
(-0.0945449 -0.426453 0)
(-0.281108 -0.832728 0)
(-0.437916 -1.22314 0)
(-0.344929 -1.32405 0)
(-0.238211 -1.34029 0)
(-0.171816 -1.34424 0)
(-0.147365 -1.31569 0)
(-0.155283 -1.31448 0)
(-0.13278 -1.01986 0)
(-0.0652539 -0.54856 0)
(-0.0620096 -0.39297 0)
(-0.121571 -0.382661 0)
(-0.190255 -0.45407 0)
(-0.243871 -0.50593 0)
(-0.219852 -0.615775 0)
(-0.130933 -0.717262 0)
(-0.0441485 -0.739179 0)
(0.00231182 -0.713557 0)
(0.0052071 -0.808467 0)
(-0.0134558 -1.1334 0)
(-0.0835905 -1.38553 0)
(-0.137436 -1.36435 0)
(-0.0647024 -1.33361 0)
(0.00741106 -0.844813 0)
(-0.0302787 -0.606533 0)
(-0.0695511 -0.472802 0)
(-0.071405 -0.399525 0)
(-0.0499511 -0.357978 0)
(-0.0231005 -0.3279 0)
(0.00188252 -0.307855 0)
(-0.00155596 -0.340092 0)
(-0.119547 -0.595645 0)
(-0.351631 -1.11572 0)
(-0.361954 -1.33062 0)
(-0.228627 -1.35546 0)
(-0.144062 -1.31811 0)
(-0.124374 -1.26512 0)
(-0.150419 -1.20778 0)
(-0.193928 -0.961939 0)
(-0.218322 -0.574537 0)
(-0.221577 -0.405033 0)
(-0.236884 -0.389044 0)
(-0.263298 -0.439599 0)
(-0.30554 -0.530689 0)
(-0.340046 -0.767858 0)
(-0.272065 -1.05401 0)
(-0.136172 -1.1156 0)
(-0.047338 -1.04249 0)
(0.00502388 -1.11047 0)
(0.0420123 -1.37906 0)
(0.0381739 -1.51666 0)
(0.0342752 -1.48771 0)
(0.0345817 -1.34486 0)
(0.00789032 -0.877945 0)
(-0.0197711 -0.543209 0)
(-0.0407784 -0.453254 0)
(-0.0331562 -0.40049 0)
(-0.0117417 -0.366005 0)
(0.0136442 -0.338304 0)
(0.0398183 -0.31636 0)
(0.0550233 -0.313366 0)
(0.000630559 -0.42509 0)
(-0.202132 -0.893781 0)
(-0.3192 -1.34089 0)
(-0.178002 -1.3561 0)
(-0.0739797 -1.31127 0)
(-0.0393784 -1.20956 0)
(-0.0853453 -1.04595 0)
(-0.23898 -0.781644 0)
(-0.377085 -0.543742 0)
(-0.403872 -0.450995 0)
(-0.398103 -0.432458 0)
(-0.402971 -0.459209 0)
(-0.446796 -0.630948 0)
(-0.43818 -0.928832 0)
(-0.325666 -1.06107 0)
(-0.209685 -1.08591 0)
(-0.108954 -1.07932 0)
(-0.0125771 -1.10749 0)
(0.0543755 -1.18929 0)
(0.0740514 -1.24185 0)
(0.0790925 -1.24171 0)
(0.0580702 -1.09851 0)
(0.0160152 -0.699392 0)
(-0.00729503 -0.495803 0)
(-0.011553 -0.440407 0)
(0.000604524 -0.40482 0)
(0.021461 -0.377459 0)
(0.0457705 -0.352885 0)
(0.0712147 -0.331239 0)
(0.0923484 -0.316348 0)
(0.0770256 -0.348525 0)
(-0.0541264 -0.66042 0)
(-0.202771 -1.32065 0)
(-0.101762 -1.3902 0)
(0.0273686 -1.31025 0)
(0.111288 -1.15702 0)
(-0.0252052 -0.829582 0)
(-0.279327 -0.556226 0)
(-0.439926 -0.469867 0)
(-0.499044 -0.45131 0)
(-0.509332 -0.44811 0)
(-0.4801 -0.504506 0)
(-0.387454 -0.612712 0)
(-0.324961 -0.785425 0)
(-0.300049 -0.944118 0)
(-0.219996 -0.995968 0)
(-0.128294 -1.00454 0)
(-0.0649037 -1.01205 0)
(-0.0181221 -1.08307 0)
(0.0171144 -1.13684 0)
(0.0314731 -1.13797 0)
(0.0130504 -1.0109 0)
(-0.00199094 -0.634637 0)
(0.00144369 -0.468437 0)
(0.00987743 -0.437754 0)
(0.0273161 -0.41523 0)
(0.0499758 -0.393935 0)
(0.0752333 -0.372097 0)
(0.101267 -0.350424 0)
(0.125037 -0.33027 0)
(0.129052 -0.328709 0)
(0.0618558 -0.512275 0)
(-0.048156 -1.2544 0)
(0.00617426 -1.42012 0)
(0.169338 -1.31243 0)
(0.194271 -1.03986 0)
(-0.0601409 -0.58094 0)
(-0.24729 -0.421519 0)
(-0.330348 -0.388354 0)
(-0.365917 -0.373244 0)
(-0.355262 -0.380993 0)
(-0.299824 -0.457868 0)
(-0.217877 -0.568992 0)
(-0.183552 -0.69596 0)
(-0.216641 -0.891966 0)
(-0.197163 -0.975708 0)
(-0.132217 -0.987408 0)
(-0.0946514 -0.970102 0)
(-0.0693997 -1.04099 0)
(-0.0455771 -1.08327 0)
(-0.0335035 -1.0688 0)
(-0.0408285 -0.920385 0)
(-0.0214368 -0.624248 0)
(0.00776577 -0.463854 0)
(0.0262047 -0.447984 0)
(0.0494025 -0.433473 0)
(0.0756065 -0.416992 0)
(0.103669 -0.397161 0)
(0.132599 -0.375137 0)
(0.160926 -0.35124 0)
(0.177596 -0.336002 0)
(0.153463 -0.476596 0)
(0.10973 -1.19004 0)
(0.161474 -1.45768 0)
(0.256444 -1.26823 0)
(0.0623011 -0.804498 0)
(-0.144809 -0.461821 0)
(-0.204528 -0.407116 0)
(-0.189373 -0.37322 0)
(-0.164562 -0.341043 0)
(-0.135478 -0.333387 0)
(-0.100043 -0.386361 0)
(-0.0651912 -0.493651 0)
(-0.0492616 -0.609175 0)
(-0.0838157 -0.767996 0)
(-0.12647 -0.915915 0)
(-0.117266 -0.956539 0)
(-0.100142 -0.94006 0)
(-0.0914114 -0.999406 0)
(-0.0929879 -1.04348 0)
(-0.0920344 -1.02104 0)
(-0.0779025 -0.878838 0)
(-0.0303794 -0.64045 0)
(0.0127783 -0.486626 0)
(0.0395753 -0.473798 0)
(0.0691429 -0.460529 0)
(0.100399 -0.44802 0)
(0.131747 -0.429059 0)
(0.164277 -0.406598 0)
(0.199416 -0.382221 0)
(0.229463 -0.369795 0)
(0.240884 -0.537201 0)
(0.260791 -1.17251 0)
(0.285357 -1.43476 0)
(0.154696 -1.08885 0)
(-0.114624 -0.610685 0)
(-0.221406 -0.471979 0)
(-0.184555 -0.449424 0)
(-0.12349 -0.421747 0)
(-0.0605985 -0.391296 0)
(-0.0042934 -0.370485 0)
(0.0252427 -0.373909 0)
(0.0329673 -0.416729 0)
(0.040403 -0.51496 0)
(0.0227526 -0.644463 0)
(-0.0344954 -0.787494 0)
(-0.0737187 -0.865895 0)
(-0.0773198 -0.878053 0)
(-0.083591 -0.91028 0)
(-0.104495 -0.961545 0)
(-0.114968 -0.957181 0)
(-0.0939836 -0.861628 0)
(-0.0340604 -0.668227 0)
(0.0205993 -0.55051 0)
(0.0580625 -0.519853 0)
(0.0924214 -0.495748 0)
(0.127007 -0.484695 0)
(0.159362 -0.464689 0)
(0.191934 -0.443277 0)
(0.231409 -0.424872 0)
(0.27057 -0.435677 0)
(0.314226 -0.667001 0)
(0.356854 -1.16588 0)
(0.254411 -1.26828 0)
(-0.0568067 -0.861581 0)
(-0.238229 -0.589967 0)
(-0.239013 -0.532755 0)
(-0.166927 -0.516065 0)
(-0.0934086 -0.4947 0)
(-0.0255003 -0.46886 0)
(0.0323663 -0.446322 0)
(0.0818845 -0.430859 0)
(0.111035 -0.431923 0)
(0.106892 -0.465174 0)
(0.0851819 -0.55375 0)
(0.0410401 -0.666945 0)
(-0.0138614 -0.770268 0)
(-0.0374955 -0.808862 0)
(-0.0590235 -0.822211 0)
(-0.0878166 -0.879763 0)
(-0.105444 -0.898804 0)
(-0.0893735 -0.849503 0)
(-0.0337023 -0.696635 0)
(0.0448978 -0.64646 0)
(0.106671 -0.575533 0)
(0.135118 -0.529712 0)
(0.16052 -0.518286 0)
(0.183325 -0.495319 0)
(0.207093 -0.478357 0)
(0.2442 -0.477177 0)
(0.284495 -0.528939 0)
(0.337149 -0.811231 0)
(0.326844 -1.11661 0)
(0.0922388 -1.04626 0)
(-0.187302 -0.77091 0)
(-0.270376 -0.640469 0)
(-0.220973 -0.610585 0)
(-0.149183 -0.600406 0)
(-0.0712043 -0.584886 0)
(0.000374499 -0.559758 0)
(0.060293 -0.529252 0)
(0.107354 -0.500551 0)
(0.141012 -0.484524 0)
(0.158792 -0.487587 0)
(0.146162 -0.519945 0)
(0.1043 -0.590507 0)
(0.0522622 -0.684719 0)
(0.0093525 -0.732241 0)
(-0.0219022 -0.749263 0)
(-0.0508969 -0.800893 0)
(-0.0756166 -0.837944 0)
(-0.0715468 -0.830887 0)
(-0.029313 -0.719245 0)
(0.0684459 -0.873027 0)
(0.172173 -0.670574 0)
(0.203583 -0.542962 0)
(0.197664 -0.530074 0)
(0.194049 -0.504851 0)
(0.198749 -0.50368 0)
(0.226689 -0.53626 0)
(0.261067 -0.634479 0)
(0.291193 -0.905969 0)
(0.198848 -1.01823 0)
(-0.0529843 -0.899315 0)
(-0.219547 -0.755743 0)
(-0.24152 -0.692483 0)
(-0.207865 -0.68731 0)
(-0.138119 -0.701298 0)
(-0.0495592 -0.697397 0)
(0.032743 -0.658135 0)
(0.0945728 -0.61499 0)
(0.137316 -0.572917 0)
(0.164833 -0.540349 0)
(0.180002 -0.521545 0)
(0.182462 -0.527488 0)
(0.1587 -0.561867 0)
(0.108291 -0.625271 0)
(0.0544359 -0.675141 0)
(0.0229634 -0.700224 0)
(-0.00370381 -0.733901 0)
(-0.0340237 -0.785071 0)
(-0.0444224 -0.804534 0)
(-0.0212336 -0.732557 0)
(0.114691 -1.28346 0)
(0.258752 -0.882892 0)
(0.260538 -0.52673 0)
(0.209738 -0.489642 0)
(0.171932 -0.485637 0)
(0.153534 -0.522579 0)
(0.167909 -0.592318 0)
(0.205653 -0.726059 0)
(0.205383 -0.92569 0)
(0.0708045 -0.910681 0)
(-0.0983041 -0.806207 0)
(-0.188299 -0.735245 0)
(-0.22996 -0.715549 0)
(-0.228054 -0.743517 0)
(-0.156996 -0.804976 0)
(-0.0255171 -0.825745 0)
(0.0856186 -0.773533 0)
(0.1482 -0.703708 0)
(0.183845 -0.6382 0)
(0.198794 -0.587252 0)
(0.202421 -0.553761 0)
(0.198958 -0.53724 0)
(0.184144 -0.550422 0)
(0.145064 -0.591528 0)
(0.0965486 -0.644551 0)
(0.065443 -0.673455 0)
(0.0397817 -0.691713 0)
(0.00949132 -0.741546 0)
(-0.0135225 -0.773575 0)
(-0.010786 -0.735849 0)
(0.0386733 -1.54279 0)
(0.213886 -1.26757 0)
(0.218394 -0.540366 0)
(0.153818 -0.403334 0)
(0.103843 -0.455941 0)
(0.0734853 -0.536607 0)
(0.0755824 -0.646523 0)
(0.128781 -0.805336 0)
(0.134389 -0.900957 0)
(0.0348864 -0.82252 0)
(-0.073623 -0.728307 0)
(-0.166613 -0.68885 0)
(-0.251236 -0.687079 0)
(-0.286778 -0.746806 0)
(-0.21263 -0.900111 0)
(-0.0469961 -0.962684 0)
(0.128043 -0.836818 0)
(0.232423 -0.76936 0)
(0.257216 -0.699383 0)
(0.252351 -0.621644 0)
(0.236098 -0.571813 0)
(0.218263 -0.544416 0)
(0.198585 -0.537525 0)
(0.1669 -0.565507 0)
(0.123845 -0.621567 0)
(0.0902627 -0.659386 0)
(0.0666384 -0.673033 0)
(0.0395075 -0.711637 0)
(0.0121475 -0.747151 0)
(0.000628662 -0.731158 0)
(-0.0508132 -1.38167 0)
(-0.00712136 -1.39802 0)
(0.0333795 -0.690008 0)
(0.00625319 -0.308555 0)
(-0.0124955 -0.419236 0)
(-0.0485803 -0.539514 0)
(-0.0500778 -0.682888 0)
(0.0586334 -0.986883 0)
(0.13692 -0.885938 0)
(0.0796855 -0.740111 0)
(-0.0290411 -0.647921 0)
(-0.151071 -0.606895 0)
(-0.273415 -0.603639 0)
(-0.341416 -0.684019 0)
(-0.258107 -1.00538 0)
(-0.062788 -1.13547 0)
(0.107784 -0.925881 0)
(0.219969 -0.833327 0)
(0.309682 -0.71511 0)
(0.331218 -0.638426 0)
(0.284218 -0.573435 0)
(0.243825 -0.539457 0)
(0.213789 -0.524134 0)
(0.181031 -0.542737 0)
(0.135784 -0.597115 0)
(0.096169 -0.649064 0)
(0.0729786 -0.667171 0)
(0.0486664 -0.695011 0)
(0.0257267 -0.737183 0)
(0.00901113 -0.721797 0)
(-0.0878614 -1.18709 0)
(-0.182689 -1.43107 0)
(-0.10176 -1.03001 0)
(-0.128665 -0.408031 0)
(-0.186657 -0.390235 0)
(-0.166 -0.529975 0)
(-0.150869 -0.766956 0)
(0.0148933 -1.36004 0)
(0.158072 -1.01101 0)
(0.133234 -0.648135 0)
(0.027829 -0.540415 0)
(-0.123944 -0.494394 0)
(-0.251177 -0.474339 0)
(-0.273979 -0.638047 0)
(-0.203946 -1.31204 0)
(-0.074644 -1.52773 0)
(0.0386688 -1.34273 0)
(0.199572 -1.09059 0)
(0.304644 -0.770746 0)
(0.354811 -0.61872 0)
(0.340342 -0.54999 0)
(0.272861 -0.518218 0)
(0.225622 -0.506417 0)
(0.187085 -0.521473 0)
(0.139377 -0.57477 0)
(0.0958421 -0.641065 0)
(0.070168 -0.663368 0)
(0.0456997 -0.688279 0)
(0.0331131 -0.750738 0)
(0.0170902 -0.709675 0)
(-0.088606 -0.982638 0)
(-0.286954 -1.26743 0)
(-0.393291 -1.17804 0)
(-0.37311 -0.790415 0)
(-0.413237 -0.533702 0)
(-0.424878 -0.635859 0)
(-0.317936 -1.12832 0)
(-0.135557 -1.78703 0)
(0.0843129 -1.56347 0)
(0.102695 -0.714978 0)
(0.0466031 -0.414711 0)
(-0.0836017 -0.368873 0)
(-0.196524 -0.340832 0)
(-0.135028 -0.788672 0)
(-0.00428718 -1.51297 0)
(0.0110146 -1.53299 0)
(0.0171454 -1.46096 0)
(0.118772 -1.36765 0)
(0.312763 -1.14155 0)
(0.387611 -0.685716 0)
(0.356286 -0.503316 0)
(0.291515 -0.470966 0)
(0.229084 -0.478069 0)
(0.183312 -0.500262 0)
(0.138018 -0.567195 0)
(0.0988387 -0.641393 0)
(0.0724324 -0.658006 0)
(0.046655 -0.686256 0)
(0.0444108 -0.778095 0)
(0.0270703 -0.685126 0)
(-0.0776529 -0.790665 0)
(-0.26683 -1.03 0)
(-0.486351 -1.01606 0)
(-0.633362 -0.923496 0)
(-0.68247 -0.82061 0)
(-0.695073 -0.938453 0)
(-0.567547 -1.35569 0)
(-0.396767 -1.721 0)
(-0.261183 -1.79019 0)
(-0.0145904 -1.28819 0)
(0.0285015 -0.423233 0)
(-0.0527183 -0.271779 0)
(-0.139477 -0.318466 0)
(-0.1192 -1.22145 0)
(0.0965339 -1.50972 0)
(0.095127 -1.52348 0)
(0.0829786 -1.4503 0)
(0.116376 -1.3921 0)
(0.260343 -1.2781 0)
(0.43636 -0.940908 0)
(0.396025 -0.530589 0)
(0.297082 -0.438302 0)
(0.221772 -0.470363 0)
(0.181311 -0.516347 0)
(0.145561 -0.596258 0)
(0.117525 -0.645931 0)
(0.0922127 -0.65248 0)
(0.0681392 -0.684056 0)
(0.05332 -0.790751 0)
(0.0232673 -0.649621 0)
(-0.0618051 -0.62058 0)
(-0.203154 -0.828226 0)
(-0.363537 -0.79038 0)
(-0.515008 -0.760872 0)
(-0.596159 -0.774217 0)
(-0.614968 -0.930854 0)
(-0.610847 -1.31899 0)
(-0.559107 -1.65451 0)
(-0.468952 -1.76641 0)
(-0.261463 -1.67647 0)
(-0.12003 -0.788578 0)
(-0.0534456 -0.207003 0)
(-0.0789177 -0.484018 0)
(-0.0710361 -1.33729 0)
(0.0841218 -1.5102 0)
(0.125146 -1.50714 0)
(0.143719 -1.47557 0)
(0.187446 -1.41088 0)
(0.30343 -1.28976 0)
(0.384332 -0.939956 0)
(0.381227 -0.590634 0)
(0.340297 -0.498874 0)
(0.285176 -0.531773 0)
(0.233521 -0.58268 0)
(0.18947 -0.620464 0)
(0.149615 -0.632285 0)
(0.116754 -0.641454 0)
(0.0911152 -0.672244 0)
(0.0495256 -0.747689 0)
(0.00957386 -0.621387 0)
(-0.0394988 -0.484083 0)
(-0.135128 -0.659644 0)
(-0.236093 -0.629987 0)
(-0.321842 -0.617043 0)
(-0.379402 -0.645141 0)
(-0.436985 -0.805669 0)
(-0.542716 -1.19091 0)
(-0.620681 -1.62392 0)
(-0.558595 -1.78207 0)
(-0.390539 -1.80605 0)
(-0.0865536 -1.46543 0)
(-0.0530058 -0.288275 0)
(-0.149454 -0.673256 0)
(-0.0653849 -1.37717 0)
(0.0589444 -1.49023 0)
(0.139367 -1.51554 0)
(0.188424 -1.47782 0)
(0.257638 -1.4345 0)
(0.355852 -1.29226 0)
(0.31973 -0.834354 0)
(0.271074 -0.534319 0)
(0.288871 -0.522532 0)
(0.284466 -0.567914 0)
(0.241434 -0.576845 0)
(0.1894 -0.574318 0)
(0.144829 -0.588277 0)
(0.113419 -0.613165 0)
(0.0855268 -0.643084 0)
(0.0436366 -0.678574 0)
(0.00871391 -0.59346 0)
(-0.0163883 -0.401826 0)
(-0.0696947 -0.521204 0)
(-0.131646 -0.518953 0)
(-0.173938 -0.522655 0)
(-0.208335 -0.54646 0)
(-0.26343 -0.661736 0)
(-0.385754 -0.973937 0)
(-0.572011 -1.49582 0)
(-0.586847 -1.83444 0)
(-0.39463 -1.91872 0)
(-0.134562 -1.7725 0)
(-0.0635958 -0.562377 0)
(-0.131065 -0.743232 0)
(-0.0801758 -1.38688 0)
(0.0468194 -1.49647 0)
(0.145322 -1.48951 0)
(0.215105 -1.48262 0)
(0.30052 -1.42761 0)
(0.339078 -1.22422 0)
(0.234103 -0.696107 0)
(0.18887 -0.481615 0)
(0.194716 -0.485698 0)
(0.18582 -0.503122 0)
(0.156701 -0.499236 0)
(0.12645 -0.509363 0)
(0.102535 -0.540363 0)
(0.0838155 -0.575695 0)
(0.063372 -0.602055 0)
(0.0413559 -0.618272 0)
(0.0158878 -0.547817 0)
(-0.00128737 -0.370133 0)
(-0.0243586 -0.433718 0)
(-0.0595819 -0.447653 0)
(-0.081429 -0.459224 0)
(-0.100643 -0.475549 0)
(-0.136835 -0.54663 0)
(-0.231606 -0.76464 0)
(-0.423632 -1.26811 0)
(-0.554149 -1.83579 0)
(-0.417205 -2.06994 0)
(-0.125067 -1.99263 0)
(-0.0276564 -0.786445 0)
(-0.0737032 -0.782615 0)
(-0.0662445 -1.3851 0)
(0.0455455 -1.48136 0)
(0.158945 -1.49651 0)
(0.227809 -1.45849 0)
(0.299232 -1.40816 0)
(0.261546 -1.07183 0)
(0.153096 -0.585225 0)
(0.129878 -0.446674 0)
(0.122719 -0.447611 0)
(0.103353 -0.447138 0)
(0.0838606 -0.447646 0)
(0.071805 -0.46966 0)
(0.0628758 -0.505658 0)
(0.0542981 -0.543286 0)
(0.0446437 -0.563484 0)
(0.0407212 -0.569662 0)
(0.021031 -0.487561 0)
(0.00275151 -0.363602 0)
(-0.00239485 -0.394704 0)
(-0.0174921 -0.409257 0)
(-0.0296299 -0.420535 0)
(-0.0389662 -0.432045 0)
(-0.0555424 -0.471548 0)
(-0.109817 -0.602782 0)
(-0.262304 -1.0009 0)
(-0.480808 -1.71633 0)
(-0.44154 -2.22217 0)
(-0.12727 -2.24251 0)
(0.0571887 -1.05661 0)
(0.0477642 -0.811375 0)
(-0.0034748 -1.34029 0)
(0.044279 -1.46733 0)
(0.168831 -1.47184 0)
(0.246061 -1.44718 0)
(0.265023 -1.34736 0)
(0.16555 -0.897722 0)
(0.0857508 -0.510994 0)
(0.0747257 -0.413914 0)
(0.0629288 -0.408634 0)
(0.0480384 -0.410218 0)
(0.0411962 -0.421851 0)
(0.0413837 -0.447817 0)
(0.0416796 -0.480089 0)
(0.0398573 -0.513818 0)
(0.0368061 -0.528708 0)
(0.0329911 -0.52233 0)
(0.0151371 -0.427217 0)
(0.00397133 -0.365395 0)
(0.00693466 -0.379572 0)
(0.00303286 -0.390393 0)
(-0.00221383 -0.399979 0)
(-0.00568787 -0.409941 0)
(-0.0111554 -0.432468 0)
(-0.037316 -0.503737 0)
(-0.138695 -0.769375 0)
(-0.365484 -1.49814 0)
(-0.459211 -2.37718 0)
(-0.154267 -2.44265 0)
(0.170241 -1.45167 0)
(0.244043 -0.872804 0)
(0.142028 -1.19791 0)
(0.0838818 -1.3946 0)
(0.169829 -1.42611 0)
(0.245981 -1.39893 0)
(0.195435 -1.20617 0)
(0.0704561 -0.741291 0)
(0.0218202 -0.458797 0)
(0.0161705 -0.385324 0)
(0.012199 -0.384722 0)
(0.0122345 -0.395558 0)
(0.0181328 -0.413417 0)
(0.0264236 -0.437228 0)
(0.0328512 -0.462162 0)
(0.0351023 -0.485976 0)
(0.0309097 -0.490079 0)
(0.0148038 -0.467443 0)
(0.00155761 -0.391536 0)
(0.0049989 -0.37028 0)
(0.0120322 -0.375316 0)
(0.0139009 -0.380871 0)
(0.0127681 -0.387847 0)
(0.0110758 -0.397121 0)
(0.00877814 -0.413493 0)
(-0.00231285 -0.453706 0)
(-0.0592942 -0.608674 0)
(-0.247867 -1.24887 0)
(-0.429262 -2.44187 0)
(-0.187689 -2.63206 0)
(0.27641 -1.95076 0)
(0.447958 -1.01437 0)
(0.324952 -1.00703 0)
(0.180166 -1.28313 0)