/*--------------------------------*- C++ -*----------------------------------*\
| =========                 |                                                 |
| \\      /  F ield         | OpenFOAM: The Open Source CFD Toolbox           |
|  \\    /   O peration     | Version:  2.3.0                                 |
|   \\  /    A nd           | Web:      www.OpenFOAM.org                      |
|    \\/     M anipulation  |                                                 |
\*---------------------------------------------------------------------------*/
FoamFile
{
    version     2.0;
    format      ascii;
    class       volScalarField;
    location    "70";
    object      alpha.airMean;
}
// * * * * * * * * * * * * * * * * * * * * * * * * * * * * * * * * * * * * * //

dimensions      [0 0 0 0 0 0 0];

internalField   nonuniform List<scalar> 
1875
(
0.238311
0.220897
0.214469
0.220339
0.229102
0.239026
0.248381
0.256112
0.26205
0.266346
0.26956
0.270927
0.269214
0.267537
0.267258
0.266769
0.263021
0.25635
0.246923
0.235828
0.225675
0.220321
0.224746
0.237776
0.234728
0.185924
0.175952
0.168681
0.170674
0.17702
0.186641
0.196084
0.204039
0.210162
0.215525
0.219455
0.222405
0.226243
0.230244
0.236799
0.243725
0.246046
0.242145
0.230361
0.214665
0.197888
0.183243
0.176003
0.17875
0.166494
0.156583
0.161058
0.168826
0.176303
0.182297
0.18675
0.189226
0.191233
0.194766
0.200355
0.204634
0.2082
0.213523
0.220763
0.232003
0.243499
0.251604
0.251847
0.24481
0.233536
0.221095
0.205394
0.192246
0.178709
0.160281
0.125613
0.145918
0.171133
0.18275
0.187665
0.190326
0.19238
0.193353
0.19567
0.200385
0.204112
0.208809
0.214579
0.222299
0.233231
0.247433
0.258475
0.261046
0.256321
0.247497
0.235362
0.22327
0.210153
0.186925
0.1602
0.106586
0.137302
0.172076
0.184243
0.189861
0.193818
0.196708
0.198656
0.199749
0.20191
0.204752
0.208999
0.214575
0.221199
0.232569
0.245024
0.256448
0.259992
0.259322
0.252008
0.241277
0.228628
0.215159
0.191158
0.161187
0.101033
0.140358
0.178507
0.18961
0.197548
0.202076
0.204173
0.204653
0.204391
0.20438
0.205899
0.208894
0.213755
0.22073
0.23031
0.240501
0.247462
0.252985
0.254429
0.251508
0.244021
0.233518
0.218521
0.195141
0.163615
0.10169
0.152771
0.187717
0.195933
0.206596
0.211668
0.213099
0.21269
0.21074
0.209665
0.210171
0.212434
0.215813
0.220074
0.225687
0.231152
0.236884
0.241352
0.244257
0.243217
0.240724
0.233499
0.219489
0.199569
0.168207
0.105939
0.171416
0.198672
0.205726
0.219749
0.224817
0.224797
0.222488
0.219149
0.217139
0.216547
0.216029
0.21578
0.216263
0.218004
0.221211
0.224406
0.227848
0.231476
0.234414
0.235038
0.229485
0.216178
0.201265
0.174667
0.114471
0.189645
0.208995
0.216721
0.23259
0.236195
0.23449
0.23027
0.225167
0.220515
0.217074
0.214262
0.212197
0.21111
0.211159
0.21131
0.212297
0.214989
0.219923
0.226445
0.229822
0.224146
0.212286
0.201516
0.18002
0.125694
0.205357
0.217991
0.224752
0.23834
0.240617
0.23718
0.231701
0.225608
0.220076
0.215778
0.21157
0.208189
0.206079
0.203934
0.20298
0.203119
0.206201
0.212167
0.220912
0.224857
0.219623
0.209698
0.20219
0.18354
0.136132
0.218489
0.225743
0.228657
0.238941
0.239198
0.235369
0.229653
0.224281
0.218716
0.213887
0.209149
0.205207
0.201241
0.198485
0.196721
0.198065
0.202597
0.209511
0.217797
0.221655
0.21612
0.208969
0.203701
0.187081
0.14406
0.224916
0.231146
0.230863
0.238511
0.237217
0.232618
0.226895
0.221213
0.215747
0.210968
0.20662
0.201927
0.197925
0.194806
0.194076
0.196027
0.201184
0.208821
0.216774
0.219377
0.215269
0.209683
0.205819
0.193708
0.149328
0.228387
0.235182
0.233072
0.238406
0.236315
0.230916
0.224334
0.217414
0.211285
0.206804
0.202873
0.198619
0.195584
0.193463
0.193128
0.195091
0.200789
0.209286
0.215701
0.218178
0.214287
0.21077
0.210246
0.201609
0.152687
0.229813
0.239086
0.23613
0.238904
0.236333
0.230698
0.222767
0.213969
0.206608
0.20201
0.199003
0.196578
0.195322
0.193999
0.194334
0.196317
0.202024
0.20976
0.215392
0.216757
0.213878
0.212976
0.216562
0.20585
0.154973
0.230202
0.239822
0.238495
0.24031
0.236944
0.230885
0.221741
0.212008
0.204099
0.199081
0.19675
0.195556
0.194913
0.19555
0.196084
0.198215
0.203484
0.210338
0.215081
0.216177
0.214885
0.216215
0.219156
0.202858
0.156049
0.229487
0.239324
0.239356
0.241446
0.237868
0.231354
0.221687
0.212303
0.205205
0.199715
0.196513
0.194992
0.195071
0.19573
0.197746
0.200116
0.20472
0.210785
0.215293
0.217574
0.218273
0.217733
0.212824
0.189695
0.156678
0.227914
0.23751
0.239037
0.241008
0.2376
0.231481
0.222947
0.214055
0.207728
0.201827
0.198122
0.196185
0.195595
0.196871
0.198308
0.201109
0.206396
0.212557
0.216747
0.220035
0.220424
0.218585
0.202291
0.168411
0.157815
0.224357
0.235378
0.238131
0.239919
0.236085
0.231063
0.224195
0.216875
0.210764
0.205434
0.200729
0.198296
0.197959
0.198276
0.199942
0.20271
0.20762
0.213729
0.218605
0.220659
0.220632
0.220021
0.196775
0.150088
0.159344
0.218316
0.232849
0.236326
0.238606
0.235902
0.231602
0.226778
0.22129
0.216035
0.210285
0.205115
0.202611
0.201547
0.201676
0.202763
0.204702
0.208307
0.213442
0.21789
0.219642
0.218898
0.220969
0.199882
0.141048
0.161718
0.210578
0.228832
0.234966
0.237986
0.236908
0.234644
0.231101
0.227016
0.222236
0.217411
0.213124
0.209235
0.206632
0.205594
0.205602
0.206117
0.208251
0.212321
0.215671
0.21733
0.217093
0.220826
0.206141
0.138432
0.165123
0.202698
0.222368
0.233325
0.237668
0.238241
0.236583
0.234185
0.231392
0.228617
0.225205
0.220793
0.216361
0.212087
0.209258
0.207491
0.207194
0.208447
0.210802
0.213731
0.216098
0.216405
0.220111
0.210909
0.138528
0.169482
0.196411
0.213785
0.227812
0.235548
0.237692
0.237067
0.235319
0.233293
0.231537
0.229151
0.226796
0.223002
0.218294
0.213508
0.210135
0.208516
0.208533
0.209954
0.212731
0.21592
0.216362
0.220341
0.213762
0.140443
0.174751
0.192614
0.205827
0.219402
0.229759
0.234712
0.235947
0.235193
0.233354
0.231167
0.229715
0.228453
0.227336
0.2237
0.218976
0.213975
0.210758
0.208768
0.209431
0.212048
0.21594
0.217201
0.220893
0.215993
0.143845
0.180893
0.190691
0.200451
0.210567
0.221131
0.228083
0.232033
0.232985
0.231766
0.230376
0.229303
0.229097
0.227708
0.2261
0.222254
0.218102
0.213695
0.210812
0.210017
0.21261
0.216888
0.218571
0.221411
0.217789
0.147293
0.188384
0.19038
0.197329
0.203798
0.212166
0.219569
0.225211
0.228108
0.229231
0.229332
0.229622
0.228853
0.228071
0.226263
0.224506
0.221752
0.217936
0.214282
0.212956
0.214167
0.217449
0.218499
0.221312
0.218933
0.149878
0.193727
0.191142
0.195843
0.19962
0.205308
0.211587
0.217701
0.222506
0.226005
0.228708
0.229467
0.229042
0.227653
0.226898
0.226117
0.225232
0.22231
0.218771
0.216273
0.215943
0.217504
0.217293
0.220926
0.218595
0.151491
0.195956
0.193029
0.195495
0.197974
0.201148
0.205782
0.211135
0.216815
0.222586
0.226878
0.22926
0.228581
0.227913
0.227337
0.227966
0.22786
0.226044
0.222537
0.218995
0.217015
0.217186
0.21613
0.220616
0.217255
0.152639
0.195046
0.196887
0.195813
0.197445
0.199755
0.20272
0.20666
0.212625
0.219171
0.225163
0.228463
0.228722
0.228326
0.228931
0.229547
0.229882
0.228201
0.225093
0.221478
0.218134
0.216707
0.215043
0.219941
0.215173
0.153773
0.191795
0.201466
0.19947
0.198028
0.199298
0.20153
0.204965
0.210562
0.217633
0.224358
0.228549
0.228979
0.229585
0.230701
0.231242
0.231046
0.230041
0.2271
0.223027
0.218617
0.216212
0.213772
0.218972
0.21261
0.15534
0.185444
0.204331
0.204895
0.199714
0.198843
0.200796
0.204495
0.21054
0.217761
0.224793
0.229068
0.230087
0.23095
0.232349
0.232528
0.231886
0.230115
0.227208
0.223463
0.218846
0.215324
0.212811
0.217204
0.20957
0.157736
0.176573
0.206001
0.208751
0.201197
0.199343
0.201243
0.205404
0.212351
0.220342
0.227322
0.230617
0.231595
0.232569
0.233613
0.233518
0.231757
0.229863
0.226527
0.222783
0.217803
0.214479
0.211906
0.215493
0.206003
0.160537
0.167707
0.207345
0.210578
0.20157
0.2007
0.203405
0.208755
0.216438
0.224797
0.230834
0.232702
0.232441
0.232974
0.233918
0.233503
0.231667
0.228899
0.225368
0.220372
0.215785
0.212874
0.210841
0.213392
0.202547
0.163643
0.161267
0.208377
0.210773
0.201365
0.202031
0.206982
0.214229
0.22262
0.23006
0.233599
0.233228
0.232319
0.232874
0.233604
0.232972
0.230337
0.227442
0.223075
0.218622
0.214018
0.211656
0.210027
0.213449
0.200131
0.166406
0.157797
0.208639
0.209678
0.201353
0.204219
0.21136
0.220344
0.228243
0.233056
0.233961
0.233199
0.232277
0.232214
0.232558
0.231272
0.228604
0.225151
0.221492
0.217156
0.213581
0.21122
0.210078
0.214969
0.200098
0.16782
0.155932
0.208622
0.208808
0.202055
0.207261
0.21636
0.225065
0.231556
0.233849
0.234226
0.232984
0.231734
0.231178
0.230884
0.229585
0.226705
0.223655
0.219945
0.216429
0.213608
0.212049
0.211223
0.217542
0.202222
0.168824
0.154447
0.208598
0.20866
0.203779
0.211258
0.219989
0.227526
0.231992
0.233721
0.234009
0.233058
0.231794
0.230539
0.229828
0.227683
0.225208
0.222071
0.219139
0.216259
0.21414
0.213061
0.213014
0.219287
0.206224
0.169484
0.152858
0.209025
0.209213
0.206644
0.215559
0.222211
0.227743
0.231328
0.233529
0.23457
0.233917
0.231754
0.229938
0.227894
0.226025
0.223417
0.221292
0.218772
0.216436
0.214634
0.213966
0.213931
0.220998
0.20947
0.170009
0.151267
0.209994
0.210541
0.21008
0.219415
0.224197
0.228017
0.23133
0.23356
0.234917
0.233833
0.231767
0.228793
0.227166
0.224594
0.222398
0.220408
0.218618
0.216641
0.215149
0.213988
0.214509
0.220306
0.211844
0.170141
0.150179
0.211343
0.212868
0.213202
0.22238
0.226252
0.229217
0.231104
0.233087
0.234287
0.233916
0.231787
0.228631
0.226408
0.22437
0.222141
0.220181
0.218293
0.216831
0.215257
0.214384
0.214727
0.22139
0.214062
0.169902
0.150112
0.212495
0.215474
0.215722
0.224219
0.227724
0.229972
0.231362
0.232738
0.233657
0.233375
0.23223
0.229355
0.227013
0.224716
0.222742
0.220413
0.218416
0.216992
0.215594
0.214733
0.215578
0.221686
0.216886
0.170024
0.151406
0.213437
0.217202
0.21699
0.225108
0.228123
0.230309
0.231323
0.232687
0.233237
0.233316
0.232281
0.230065
0.228036
0.226335
0.223982
0.221423
0.219081
0.217415
0.215484
0.21476
0.216428
0.223965
0.218805
0.170484
0.154028
0.214483
0.218369
0.217347
0.224846
0.228058
0.230122
0.231357
0.232585
0.233402
0.233702
0.232737
0.23064
0.229635
0.227544
0.225186
0.222187
0.219485
0.217237
0.215059
0.214873
0.217476
0.224971
0.220691
0.169742
0.15598
0.215877
0.219284
0.217187
0.223992
0.22729
0.229798
0.231144
0.232665
0.233636
0.233988
0.232901
0.231384
0.230688
0.22842
0.225572
0.222578
0.219772
0.217103
0.215021
0.215668
0.218351
0.226412
0.220812
0.167935
0.157593
0.217222
0.220113
0.217093
0.223081
0.226284
0.229073
0.230977
0.232309
0.233299
0.233654
0.232998
0.23178
0.230948
0.228399
0.225482
0.222371
0.21964
0.217269
0.215455
0.216156
0.218771
0.225546
0.22038
0.165602
0.158555
0.218222
0.220838
0.217374
0.222437
0.225334
0.228469
0.230486
0.231981
0.23301
0.233328
0.232951
0.232093
0.231156
0.228375
0.225445
0.222311
0.219338
0.217282
0.215768
0.216458
0.218675
0.225587
0.21916
0.163566
0.158992
0.219124
0.221437
0.21773
0.222054
0.224585
0.227894
0.230173
0.231959
0.233045
0.23342
0.233102
0.232246
0.231554
0.228938
0.225734
0.222244
0.219064
0.217155
0.215927
0.216623
0.218838
0.224843
0.219056
0.162521
0.158128
0.219771
0.221918
0.217844
0.221592
0.224107
0.227779
0.230537
0.232655
0.233545
0.23374
0.233344
0.232157
0.231563
0.229427
0.226267
0.222699
0.219217
0.217575
0.21631
0.21729
0.21939
0.226073
0.219301
0.161524
0.156102
0.21966
0.221995
0.217756
0.221268
0.224269
0.228481
0.231598
0.233238
0.233776
0.233944
0.233365
0.232057
0.231473
0.229766
0.226826
0.223057
0.219937
0.218536
0.217485
0.218246
0.220049
0.226074
0.220357
0.159899
0.154202
0.218975
0.222069
0.217747
0.221568
0.224953
0.229488
0.232328
0.23383
0.233914
0.233988
0.233538
0.231923
0.230966
0.229756
0.227251
0.223633
0.220908
0.219534
0.218374
0.219159
0.220247
0.226713
0.220727
0.157966
0.152464
0.218318
0.2223
0.218371
0.222476
0.225997
0.230346
0.232862
0.23397
0.233879
0.23365
0.233304
0.231528
0.230344
0.229325
0.227672
0.225176
0.222046
0.220395
0.219185
0.219868
0.220635
0.226599
0.221591
0.155892
0.151248
0.217822
0.222998
0.219674
0.223588
0.227025
0.230934
0.232724
0.233595
0.23352
0.233517
0.232988
0.231073
0.229857
0.229002
0.227734
0.225765
0.223246
0.221409
0.219917
0.220541
0.221072
0.22782
0.222571
0.154098
0.150327
0.217802
0.22399
0.221271
0.224967
0.227436
0.230915
0.23255
0.233671
0.233837
0.233297
0.232423
0.230431
0.229758
0.229356
0.228076
0.226138
0.223976
0.221927
0.220398
0.221246
0.221634
0.22839
0.224233
0.152772
0.14979
0.218434
0.225539
0.222865
0.226237
0.228109
0.231007
0.232581
0.233947
0.23395
0.233215
0.23217
0.230854
0.230781
0.229997
0.228402
0.22645
0.224101
0.221938
0.220358
0.221549
0.222399
0.229793
0.225972
0.151542
0.151619
0.221673
0.228636
0.226112
0.229427
0.23067
0.233208
0.234533
0.235626
0.235678
0.235411
0.235057
0.234056
0.233759
0.232611
0.230865
0.228642
0.225788
0.223521
0.222117
0.223585
0.224965
0.232232
0.229426
0.15222
0.155325
0.226993
0.232656
0.229934
0.233172
0.234476
0.236713
0.237685
0.238521
0.238804
0.239091
0.238848
0.237695
0.237448
0.236146
0.233929
0.231301
0.228241
0.226428
0.225345
0.22718
0.228798
0.236507
0.233248
0.154637
0.159536
0.232203
0.236198
0.233342
0.236623
0.238178
0.240322
0.240725
0.241482
0.241931
0.242431
0.24189
0.241063
0.240596
0.238961
0.236661
0.233817
0.230922
0.229717
0.229243
0.231456
0.232879
0.240263
0.237096
0.157325
0.16354
0.236714
0.239718
0.236674
0.240308
0.241872
0.243521
0.243646
0.244248
0.244851
0.245158
0.245321
0.244331
0.24352
0.241586
0.239421
0.236999
0.234654
0.233848
0.2335
0.235723
0.236714
0.243965
0.240016
0.159781
0.167343
0.241079
0.243419
0.240324
0.244408
0.245986
0.247167
0.24669
0.247316
0.248031
0.248418
0.248327
0.2475
0.246449
0.244903
0.243179
0.241684
0.239257
0.238145
0.23749
0.239323
0.23988
0.246796
0.2427
0.161704
0.171329
0.244949
0.247288
0.244227
0.248215
0.250044
0.250891
0.250053
0.250495
0.251103
0.251079
0.251192
0.250566
0.250365
0.248845
0.247582
0.246207
0.24386
0.242215
0.241286
0.242351
0.242693
0.249971
0.245431
0.163208
0.175568
0.248709
0.250852
0.24765
0.251483
0.253046
0.254221
0.253701
0.254024
0.254253
0.254678
0.255129
0.255009
0.254275
0.252731
0.251482
0.250429
0.247864
0.246264
0.244882
0.245704
0.245807
0.253358
0.248801
0.164289
0.179529
0.251871
0.254079
0.250885
0.254376
0.255621
0.256996
0.25715
0.257727
0.258077
0.258992
0.259716
0.25892
0.258107
0.256418
0.255121
0.253453
0.251396
0.250007
0.248718
0.249351
0.249709
0.256783
0.251765
0.165252
0.182755
0.254916
0.257182
0.253891
0.257121
0.258141
0.259604
0.260208
0.26189
0.263038
0.264236
0.264401
0.263309
0.261834
0.260357
0.258475
0.256501
0.254484
0.253239
0.251784
0.252845
0.253398
0.260149
0.254957
0.166179
0.185727
0.258431
0.261045
0.257192
0.260119
0.261074
0.262826
0.264024
0.265924
0.267628
0.26895
0.269069
0.26753
0.26601
0.264176
0.262542
0.260599
0.258278
0.256801
0.255426
0.25647
0.25705
0.263063
0.258242
0.167401
0.189165
0.262685
0.265565
0.26172
0.264221
0.26517
0.267135
0.26843
0.270388
0.271609
0.272454
0.272393
0.271797
0.270395
0.268823
0.266873
0.265467
0.263374
0.261772
0.259968
0.260465
0.260448
0.265687
0.261843
0.169091
0.192493
0.265065
0.268709
0.265634
0.267975
0.269048
0.270917
0.272129
0.273576
0.273891
0.274085
0.274289
0.274274
0.27366
0.271686
0.269662
0.268198
0.267
0.265766
0.263545
0.262746
0.261753
0.267272
0.263192
0.171175
0.194077
0.262317
0.264642
0.262051
0.264346
0.265104
0.266504
0.267441
0.268521
0.268532
0.268309
0.268195
0.268414
0.268151
0.266824
0.265085
0.263856
0.262931
0.26204
0.259823
0.258055
0.255973
0.260267
0.258309
0.172487
0.210225
0.264817
0.259337
0.256548
0.256735
0.256504
0.256947
0.257681
0.258417
0.258288
0.257463
0.256776
0.257094
0.257764
0.258434
0.258999
0.260097
0.260829
0.260561
0.25901
0.256721
0.253084
0.254507
0.258902
0.191296
0.413247
0.421313
0.405082
0.402897
0.400855
0.397315
0.394221
0.392385
0.391082
0.390808
0.389808
0.38958
0.390795
0.392941
0.396729
0.40041
0.404764
0.409064
0.410555
0.412586
0.413023
0.40985
0.413459
0.426557
0.412063
0.828791
0.795993
0.779687
0.778839
0.779883
0.779827
0.783896
0.78856
0.788073
0.786675
0.782427
0.781206
0.781142
0.781837
0.782764
0.787754
0.794091
0.797681
0.800368
0.801622
0.802996
0.803099
0.802944
0.817583
0.845539
0.988284
0.981899
0.978633
0.978573
0.978907
0.979042
0.979403
0.979791
0.979732
0.979625
0.979102
0.979085
0.979204
0.97939
0.97966
0.980517
0.981152
0.981602
0.982073
0.982215
0.982231
0.982093
0.982114
0.985052
0.99046
0.999943
0.999795
0.999544
0.999446
0.999456
0.999482
0.99951
0.99953
0.999538
0.999541
0.999535
0.999531
0.999531
0.999535
0.999544
0.99956
0.999569
0.999574
0.999573
0.999562
0.999543
0.99953
0.999593
0.999818
0.999958
1
1
0.999999
0.999997
0.999997
0.999997
0.999997
0.999998
0.999998
0.999998
0.999998
0.999998
0.999998
0.999998
0.999998
0.999998
0.999998
0.999998
0.999997
0.999997
0.999997
0.999997
0.999998
1
1
1
1
1
1
1
1
1
1
1
1
1
1
1
1
1
1
1
1
1
1
1
1
1
1
1
1
1
1
1
1
1
1
1
1
1
1
1
1
1
1
1
1
1
1
1
1
1
1
1
1
1
1
1
1
1
1
1
1
1
1
1
1
1
1
1
1
1
1
1
1
1
1
1
1
1
)
;

boundaryField
{
    inlet
    {
        type            calculated;
        value           uniform 0.5;
    }
    outlet
    {
        type            calculated;
        value           nonuniform List<scalar> 
25
(
1
1
1
1
1
1
1
1
1
1
1
1
1
1
1
1
1
1
1
1
1
1
1
1
1
)
;
    }
    walls
    {
        type            calculated;
        value           nonuniform List<scalar> 
150
(
0.238311
0.185924
0.156583
0.125613
0.106586
0.101033
0.10169
0.105939
0.114471
0.125694
0.136132
0.14406
0.149328
0.152687
0.154973
0.156049
0.156678
0.157815
0.159344
0.161718
0.165123
0.169482
0.174751
0.180893
0.188384
0.193727
0.195956
0.195046
0.191795
0.185444
0.176573
0.167707
0.161267
0.157797
0.155932
0.154447
0.152858
0.151267
0.150179
0.150112
0.151406
0.154028
0.15598
0.157593
0.158555
0.158992
0.158128
0.156102
0.154202
0.152464
0.151248
0.150327
0.14979
0.151619
0.155325
0.159536
0.16354
0.167343
0.171329
0.175568
0.179529
0.182755
0.185727
0.189165
0.192493
0.194077
0.210225
0.413247
0.828791
0.988284
0.999943
1
1
1
1
0.234728
0.166494
0.160281
0.1602
0.161187
0.163615
0.168207
0.174667
0.18002
0.18354
0.187081
0.193708
0.201609
0.20585
0.202858
0.189695
0.168411
0.150088
0.141048
0.138432
0.138528
0.140443
0.143845
0.147293
0.149878
0.151491
0.152639
0.153773
0.15534
0.157736
0.160537
0.163643
0.166406
0.16782
0.168824
0.169484
0.170009
0.170141
0.169902
0.170024
0.170484
0.169742
0.167935
0.165602
0.163566
0.162521
0.161524
0.159899
0.157966
0.155892
0.154098
0.152772
0.151542
0.15222
0.154637
0.157325
0.159781
0.161704
0.163208
0.164289
0.165252
0.166179
0.167401
0.169091
0.171175
0.172487
0.191296
0.412063
0.845539
0.99046
0.999958
1
1
1
1
)
;
    }
    defaultFaces
    {
        type            empty;
    }
}


// ************************************************************************* //
