/*--------------------------------*- C++ -*----------------------------------*\
| =========                 |                                                 |
| \\      /  F ield         | OpenFOAM: The Open Source CFD Toolbox           |
|  \\    /   O peration     | Version:  2.3.0                                 |
|   \\  /    A nd           | Web:      www.OpenFOAM.org                      |
|    \\/     M anipulation  |                                                 |
\*---------------------------------------------------------------------------*/
FoamFile
{
    version     2.0;
    format      ascii;
    class       volScalarField;
    location    "0.43";
    object      alpha.air;
}
// * * * * * * * * * * * * * * * * * * * * * * * * * * * * * * * * * * * * * //

dimensions      [0 0 0 0 0 0 0];

internalField   nonuniform List<scalar> 
6000
(
0.526555
0.526554
0.526508
0.526531
0.526522
0.526565
0.526565
0.526613
0.526613
0.534803
0.540268
0.544733
0.574799
0.603189
0.577098
0.605454
0.597043
0.555214
0.536462
0.535329
0.529055
0.529032
0.529013
0.528991
0.528972
0.528961
0.528957
0.52896
0.528983
0.529001
0.526555
0.526508
0.526516
0.526485
0.526528
0.526518
0.526571
0.526567
0.545915
0.570868
0.587015
0.601478
0.604605
0.605038
0.60503
0.605461
0.605031
0.604914
0.592669
0.577227
0.563413
0.531862
0.528992
0.528973
0.52895
0.528943
0.528936
0.528943
0.52896
0.528983
0.526557
0.546234
0.582995
0.603567
0.591031
0.584719
0.5695
0.563757
0.553549
0.538977
0.539009
0.545717
0.547199
0.555847
0.529225
0.548072
0.56122
0.54476
0.546136
0.54608
0.552825
0.569509
0.554964
0.567174
0.588631
0.593961
0.598653
0.577645
0.560265
0.529004
0.542169
0.655927
0.702175
0.71477
0.714221
0.712035
0.702334
0.689486
0.643082
0.570092
0.522998
0.515907
0.51729
0.516158
0.515941
0.515825
0.52475
0.51628
0.517298
0.554416
0.622736
0.680229
0.688288
0.701222
0.71301
0.710799
0.711355
0.697264
0.674654
0.549417
0.663856
0.716993
0.716238
0.718354
0.716055
0.718676
0.715885
0.718122
0.715724
0.652304
0.550456
0.515982
0.515464
0.515941
0.514775
0.515933
0.51555
0.515981
0.524048
0.618179
0.706094
0.716319
0.714159
0.716835
0.714321
0.716468
0.714481
0.716174
0.714643
0.667413
0.716551
0.716421
0.718264
0.716234
0.718818
0.716052
0.718329
0.715885
0.716822
0.700035
0.599895
0.514915
0.515941
0.514596
0.515887
0.514603
0.515933
0.514927
0.552124
0.670811
0.714947
0.714159
0.716569
0.714321
0.717104
0.714481
0.716341
0.714644
0.716208
0.714773
0.716604
0.717613
0.716421
0.718623
0.716238
0.718919
0.716045
0.717978
0.715872
0.69619
0.612672
0.515941
0.514017
0.515886
0.513308
0.515878
0.514027
0.515933
0.55794
0.671465
0.714151
0.716235
0.714317
0.716949
0.714473
0.71673
0.714644
0.716239
0.714804
0.714966
0.716535
0.716421
0.718034
0.716238
0.718898
0.716052
0.718123
0.715872
0.716019
0.652182
0.568296
0.51483
0.515886
0.512783
0.515824
0.512824
0.515878
0.514369
0.529275
0.616031
0.703737
0.714157
0.716176
0.714321
0.717063
0.71448
0.716156
0.714644
0.715843
0.714804
0.711424
0.716992
0.716238
0.71825
0.716054
0.71884
0.715872
0.717381
0.709099
0.585848
0.515886
0.515904
0.51305
0.515865
0.512784
0.515866
0.512816
0.515904
0.515607
0.540362
0.677953
0.715769
0.714159
0.716731
0.714321
0.71642
0.714481
0.715514
0.714644
0.711813
0.695866
0.716238
0.717555
0.716055
0.718575
0.715872
0.718092
0.715689
0.700691
0.558669
0.516013
0.560074
0.586425
0.579613
0.572362
0.591298
0.572591
0.550513
0.515943
0.533684
0.663195
0.713999
0.715936
0.714159
0.716896
0.714321
0.71563
0.714481
0.715124
0.699211
0.671693
0.716473
0.716055
0.717753
0.715872
0.718568
0.715689
0.717207
0.695065
0.589593
0.519769
0.607796
0.676379
0.681999
0.681918
0.683907
0.675724
0.617339
0.531839
0.55882
0.670838
0.715477
0.713997
0.7167
0.714159
0.716041
0.714321
0.714873
0.714481
0.67348
0.642063
0.716055
0.716911
0.715872
0.718264
0.715689
0.718139
0.715505
0.696553
0.629788
0.529697
0.580574
0.67514
0.681918
0.684851
0.681918
0.681903
0.594265
0.526904
0.605939
0.68577
0.713835
0.716379
0.713999
0.716682
0.714159
0.714805
0.714321
0.713868
0.622201
0.604354
0.709808
0.715872
0.7171
0.715689
0.718303
0.715506
0.717416
0.704277
0.657985
0.54673
0.53785
0.643114
0.682288
0.681918
0.684587
0.66892
0.551749
0.520755
0.634304
0.699398
0.715588
0.713837
0.716597
0.713999
0.715257
0.714159
0.698142
0.683668
0.535365
0.560891
0.682079
0.716032
0.715689
0.717766
0.715506
0.717975
0.715324
0.714183
0.670251
0.569018
0.501016
0.590371
0.681875
0.684985
0.681918
0.643013
0.516719
0.520566
0.63951
0.704525
0.713677
0.71612
0.713837
0.716193
0.713999
0.692208
0.639946
0.593548
0.479842
0.51913
0.626701
0.694453
0.716096
0.715506
0.71786
0.715324
0.716769
0.715141
0.666785
0.567729
0.485534
0.549782
0.682121
0.681918
0.684678
0.623749
0.492734
0.516684
0.624107
0.699014
0.714599
0.713677
0.716057
0.713837
0.709391
0.634619
0.562508
0.49515
0.456191
0.487602
0.552306
0.637012
0.711324
0.716621
0.715324
0.716965
0.715141
0.708403
0.640265
0.54386
0.47831
0.538984
0.681917
0.684703
0.681918
0.630174
0.484555
0.497031
0.579644
0.671112
0.713514
0.714725
0.713677
0.714634
0.682598
0.56231
0.499896
0.460869
0.452991
0.466669
0.493791
0.562806
0.681718
0.715324
0.716393
0.715141
0.715413
0.676556
0.582895
0.504554
0.477489
0.553573
0.683333
0.681918
0.684079
0.661925
0.482009
0.477734
0.522333
0.607722
0.690614
0.713514
0.714153
0.713677
0.637394
0.507437
0.469597
0.453395
0.452968
0.457852
0.467493
0.503654
0.625156
0.705204
0.715141
0.715372
0.696676
0.614505
0.519444
0.478111
0.477589
0.61273
0.681918
0.683299
0.681918
0.682495
0.537759
0.47764
0.483698
0.529586
0.62872
0.692643
0.701722
0.685708
0.584511
0.488582
0.458479
0.452981
0.452988
0.457315
0.457958
0.477046
0.557177
0.664168
0.693636
0.691776
0.649284
0.546556
0.480674
0.47801
0.518806
0.679446
0.682402
0.681918
0.682423
0.681918
0.640361
0.486001
0.481096
0.481439
0.554344
0.641309
0.655109
0.617086
0.543001
0.480303
0.45408
0.453014
0.465068
0.458899
0.455066
0.464069
0.508929
0.606294
0.637323
0.633637
0.59101
0.499219
0.480432
0.500569
0.63444
0.679637
0.675305
0.662567
0.66441
0.674245
0.669221
0.590505
0.487714
0.4811
0.501449
0.597214
0.612341
0.541648
0.509297
0.478362
0.456136
0.453047
0.482795
0.460643
0.454254
0.458007
0.484331
0.551876
0.574345
0.560419
0.536498
0.501028
0.510018
0.597718
0.655339
0.660072
0.620654
0.588775
0.592243
0.620081
0.648654
0.634882
0.57308
0.506739
0.509585
0.581033
0.611012
0.497286
0.480663
0.474221
0.460011
0.458527
0.483547
0.460692
0.453816
0.454264
0.468177
0.503496
0.518864
0.495791
0.499491
0.544976
0.587546
0.618066
0.626516
0.584455
0.53091
0.504327
0.506258
0.52998
0.575388
0.604905
0.593249
0.571389
0.565875
0.575299
0.610434
0.484328
0.464453
0.463783
0.461523
0.469843
0.469841
0.459243
0.453833
0.453692
0.456244
0.468097
0.473084
0.465649
0.487492
0.576786
0.587797
0.579203
0.54236
0.495171
0.475007
0.474101
0.47425
0.474671
0.489294
0.523126
0.549385
0.56079
0.571639
0.571892
0.594604
0.509659
0.455307
0.452348
0.452876
0.455494
0.4539
0.455574
0.455226
0.453832
0.453471
0.453841
0.453579
0.456081
0.508507
0.558068
0.538139
0.491694
0.474198
0.474248
0.473496
0.474244
0.473117
0.474244
0.473436
0.474253
0.474213
0.49612
0.557619
0.556379
0.552848
0.543737
0.454469
0.450502
0.45017
0.450596
0.450579
0.457428
0.545269
0.459034
0.453969
0.453543
0.454028
0.467153
0.510342
0.495772
0.474342
0.473026
0.474278
0.473006
0.474268
0.473002
0.474269
0.473009
0.474283
0.473032
0.474334
0.497029
0.51217
0.517915
0.51798
0.632888
0.587579
0.450586
0.450683
0.501953
0.51533
0.543344
0.704886
0.649973
0.561065
0.504044
0.582694
0.622159
0.51957
0.526886
0.559509
0.560756
0.548745
0.544239
0.53947
0.539586
0.545471
0.564128
0.585116
0.609887
0.645788
0.66244
0.575775
0.560103
0.608196
0.764978
0.717684
0.565798
0.504881
0.642833
0.590585
0.671255
0.72229
0.719499
0.715874
0.68149
0.719512
0.759447
0.70746
0.733104
0.778507
0.785313
0.780097
0.780959
0.778915
0.781109
0.784246
0.793104
0.799586
0.806179
0.806354
0.809118
0.77732
0.760911
0.795551
0.807413
0.73814
0.634779
0.614966
0.646922
0.607826
0.709606
0.719779
0.721325
0.7195
0.714263
0.690887
0.778113
0.809406
0.806359
0.810946
0.806361
0.810453
0.806361
0.809808
0.806361
0.809628
0.806361
0.810205
0.806361
0.810897
0.806361
0.811633
0.80636
0.811992
0.806361
0.717257
0.620366
0.646924
0.650297
0.61032
0.719886
0.722018
0.719779
0.721234
0.711218
0.640977
0.771912
0.806361
0.811432
0.806361
0.810707
0.806361
0.810117
0.806361
0.809654
0.806361
0.809916
0.806361
0.810526
0.806361
0.811277
0.806361
0.811939
0.806361
0.807617
0.685453
0.603664
0.647452
0.647044
0.612172
0.720334
0.720057
0.721095
0.719779
0.715036
0.618426
0.765128
0.809925
0.806361
0.810848
0.806361
0.810314
0.806361
0.809811
0.806361
0.809711
0.806361
0.810164
0.806361
0.810736
0.806361
0.811707
0.806361
0.811377
0.806361
0.651441
0.595686
0.647044
0.650412
0.616799
0.715029
0.720908
0.719779
0.720742
0.717033
0.618149
0.760175
0.806361
0.811379
0.806361
0.810482
0.806361
0.809993
0.806361
0.809676
0.806361
0.809869
0.806361
0.810359
0.806361
0.811055
0.806361
0.81167
0.806361
0.806736
0.617307
0.592309
0.647847
0.647153
0.622025
0.677581
0.719779
0.720025
0.719501
0.715643
0.620074
0.751103
0.809569
0.806361
0.810664
0.806361
0.810146
0.806361
0.809739
0.806361
0.809687
0.806361
0.81005
0.806361
0.810539
0.806361
0.81144
0.806361
0.810146
0.802841
0.589057
0.591582
0.647154
0.650211
0.62456
0.612194
0.714778
0.719501
0.719558
0.70845
0.632078
0.738074
0.806361
0.811373
0.806361
0.810292
0.806361
0.80986
0.806361
0.80962
0.806361
0.809782
0.806361
0.810201
0.806361
0.810849
0.806361
0.811241
0.806361
0.777544
0.572219
0.59163
0.64817
0.647153
0.624789
0.556377
0.679092
0.687427
0.705854
0.682944
0.626437
0.724421
0.809727
0.806361
0.810488
0.806361
0.809969
0.806361
0.809625
0.806361
0.809609
0.806361
0.809915
0.806361
0.810355
0.806361
0.811216
0.806361
0.809116
0.741331
0.560686
0.593394
0.646984
0.649786
0.619152
0.531532
0.613226
0.621103
0.647649
0.635164
0.594049
0.715322
0.806361
0.811292
0.806361
0.810057
0.806361
0.809729
0.806361
0.809517
0.806361
0.80966
0.806361
0.810026
0.806361
0.810658
0.806361
0.810788
0.806361
0.711688
0.553608
0.595767
0.64806
0.646983
0.609305
0.513952
0.564623
0.564825
0.589644
0.599457
0.554816
0.71355
0.809701
0.806361
0.81017
0.806361
0.809755
0.806361
0.80948
0.806361
0.809488
0.806361
0.809753
0.806361
0.810145
0.806361
0.810998
0.806361
0.808263
0.68764
0.549031
0.599479
0.646924
0.649461
0.599841
0.499538
0.554199
0.552427
0.57026
0.592193
0.522597
0.732184
0.806361
0.810813
0.806361
0.809781
0.806361
0.809573
0.806361
0.809386
0.806361
0.809506
0.806361
0.809826
0.806361
0.810431
0.806361
0.810158
0.806361
0.666753
0.546852
0.603053
0.647874
0.646923
0.59206
0.481455
0.544543
0.552734
0.589312
0.592014
0.501762
0.764283
0.808898
0.806361
0.809803
0.806361
0.809528
0.806361
0.80932
0.806361
0.809333
0.806361
0.809566
0.806361
0.809901
0.806361
0.810731
0.806361
0.807475
0.649032
0.546074
0.607058
0.646727
0.649059
0.584899
0.461349
0.505204
0.583037
0.591408
0.591974
0.496759
0.780858
0.806361
0.810425
0.806361
0.809556
0.806361
0.809398
0.806361
0.809283
0.806361
0.809321
0.806361
0.809606
0.806361
0.810194
0.806361
0.809453
0.806361
0.632227
0.545956
0.611199
0.647283
0.646726
0.577439
0.448824
0.469417
0.53981
0.591752
0.591407
0.496961
0.77401
0.807967
0.806361
0.809595
0.806361
0.809323
0.806361
0.809195
0.806361
0.809145
0.806361
0.809357
0.806361
0.80966
0.806361
0.810456
0.806361
0.806839
0.614301
0.546032
0.614876
0.646669
0.647846
0.565638
0.445062
0.451686
0.482136
0.587085
0.591704
0.503915
0.746378
0.806361
0.810343
0.806361
0.809384
0.806361
0.80921
0.806361
0.809105
0.806361
0.809103
0.806361
0.809369
0.806361
0.809975
0.806361
0.808669
0.806361
0.590889
0.552412
0.617132
0.635819
0.646668
0.533
0.446819
0.446233
0.460012
0.509759
0.591174
0.512488
0.705336
0.807062
0.806361
0.809466
0.806361
0.809087
0.806361
0.808992
0.806361
0.808942
0.806361
0.809123
0.806361
0.80944
0.806361
0.810258
0.806361
0.805717
0.560931
0.561907
0.613876
0.611398
0.580808
0.485994
0.446788
0.44527
0.452139
0.477774
0.574304
0.510953
0.668428
0.806361
0.810094
0.806361
0.809132
0.806361
0.808955
0.806361
0.80885
0.806361
0.808851
0.806361
0.8091
0.806361
0.809781
0.806361
0.807645
0.784775
0.536222
0.569341
0.593923
0.562319
0.496675
0.457588
0.446787
0.44515
0.449131
0.466878
0.525867
0.511169
0.643086
0.806645
0.806361
0.809156
0.806361
0.80879
0.806361
0.808704
0.806361
0.808689
0.806361
0.808827
0.806361
0.809183
0.806361
0.81007
0.806361
0.72738
0.528384
0.569144
0.554518
0.500382
0.459729
0.448125
0.446767
0.444941
0.447411
0.460489
0.500709
0.511658
0.636395
0.806361
0.809626
0.806361
0.808762
0.806361
0.80861
0.806361
0.808517
0.806361
0.808578
0.806361
0.808747
0.806361
0.809479
0.806361
0.803587
0.658982
0.527521
0.568936
0.509738
0.465783
0.448588
0.448018
0.446736
0.444616
0.446123
0.456459
0.488707
0.504376
0.638763
0.806546
0.806361
0.808681
0.806361
0.80841
0.806361
0.80833
0.806361
0.808315
0.806361
0.808428
0.806361
0.80875
0.806361
0.809519
0.794198
0.60873
0.526783
0.528805
0.478489
0.452792
0.447983
0.448017
0.446588
0.444265
0.444995
0.453348
0.48008
0.495136
0.644945
0.806361
0.808872
0.806361
0.808313
0.806361
0.808181
0.806361
0.808089
0.806361
0.808153
0.806361
0.808253
0.806361
0.808891
0.806361
0.786492
0.563474
0.515366
0.493043
0.461945
0.448142
0.448064
0.44849
0.445385
0.443319
0.44359
0.450077
0.471252
0.486514
0.650211
0.806381
0.806361
0.80812
0.806361
0.807919
0.806361
0.807871
0.806361
0.807842
0.806361
0.807893
0.806361
0.808135
0.806361
0.808482
0.781324
0.524093
0.492993
0.474309
0.454138
0.448117
0.447898
0.460615
0.444039
0.441783
0.441907
0.446201
0.462057
0.478486
0.651636
0.805347
0.807983
0.806361
0.807795
0.806361
0.807676
0.806361
0.807592
0.806361
0.807627
0.806361
0.807636
0.806361
0.808071
0.806361
0.774458
0.50938
0.47874
0.463464
0.449934
0.447923
0.448139
0.461584
0.443668
0.441759
0.441543
0.442103
0.453305
0.469326
0.649079
0.804472
0.806361
0.807464
0.806361
0.807359
0.806361
0.807338
0.806361
0.807295
0.806361
0.807265
0.806361
0.807413
0.806361
0.807242
0.758937
0.525131
0.469659
0.456299
0.448136
0.448172
0.449514
0.461198
0.469427
0.441787
0.441759
0.44158
0.446679
0.459823
0.640571
0.801974
0.807019
0.806361
0.807154
0.806361
0.807081
0.806361
0.807016
0.806361
0.807021
0.806361
0.806922
0.806361
0.807021
0.806361
0.735602
0.548047
0.463411
0.452285
0.448274
0.449225
0.52322
0.472657
0.513816
0.47871
0.443804
0.441845
0.444528
0.457181
0.627382
0.788668
0.806361
0.806631
0.806361
0.806708
0.806361
0.806707
0.806361
0.806679
0.806361
0.806558
0.806361
0.806583
0.806361
0.795311
0.706069
0.561191
0.465454
0.453867
0.466578
0.511386
0.588706
0.534972
0.534584
0.524859
0.476755
0.455932
0.450919
0.479081
0.609656
0.755009
0.79701
0.805098
0.806476
0.806361
0.806467
0.806361
0.806451
0.806361
0.806443
0.80585
0.804428
0.802276
0.7936
0.758074
0.674715
0.564045
0.481704
0.463801
0.515398
0.542066
0.588795
0.561187
0.534884
0.534971
0.512192
0.488783
0.486046
0.498688
0.595362
0.719351
0.770321
0.7902
0.797385
0.797687
0.799368
0.799521
0.799569
0.798664
0.797737
0.794578
0.789643
0.781509
0.758081
0.712669
0.658416
0.588485
0.498559
0.481873
0.539298
0.54338
0.588818
0.544725
0.534959
0.534796
0.523207
0.509617
0.50898
0.510094
0.600156
0.704206
0.745
0.765327
0.77747
0.780249
0.784628
0.78588
0.785603
0.782872
0.779908
0.77454
0.765846
0.751075
0.722841
0.690266
0.671852
0.651783
0.552037
0.493137
0.538395
0.540906
0.578333
0.531617
0.534796
0.534952
0.522379
0.511444
0.512686
0.521904
0.617717
0.710516
0.737814
0.750275
0.763648
0.769267
0.775586
0.777767
0.777032
0.772838
0.767775
0.761425
0.751212
0.73373
0.711788
0.701387
0.715668
0.72634
0.62257
0.499316
0.524744
0.537772
0.565194
0.52078
0.534796
0.534786
0.519677
0.510151
0.513142
0.526917
0.632168
0.730207
0.746554
0.751012
0.762817
0.770006
0.776433
0.777699
0.777178
0.772883
0.766624
0.760032
0.750394
0.736096
0.724087
0.732841
0.759824
0.770769
0.675685
0.506253
0.510357
0.534397
0.548946
0.507819
0.533307
0.534729
0.516123
0.507954
0.511803
0.524784
0.632252
0.749523
0.765644
0.760917
0.768926
0.775165
0.777424
0.777492
0.777421
0.776064
0.770824
0.764392
0.756495
0.749603
0.749849
0.76187
0.771364
0.771322
0.700034
0.510423
0.498605
0.528453
0.527621
0.491128
0.524957
0.532467
0.512156
0.505557
0.509249
0.514806
0.61683
0.755888
0.77639
0.774132
0.776918
0.777159
0.777217
0.777434
0.777217
0.777158
0.776558
0.771978
0.767022
0.765415
0.767986
0.771483
0.771414
0.771264
0.70766
0.506625
0.490202
0.515526
0.50106
0.474062
0.514349
0.522937
0.507335
0.501657
0.503196
0.500081
0.583956
0.750258
0.776589
0.776668
0.776881
0.776944
0.777159
0.777217
0.777157
0.776944
0.776854
0.775638
0.772379
0.771892
0.771748
0.771611
0.771464
0.771316
0.70695
0.501561
0.482851
0.49473
0.477704
0.46133
0.50276
0.511819
0.500772
0.495333
0.493509
0.488289
0.541539
0.725752
0.776233
0.774217
0.774242
0.774605
0.775342
0.775088
0.774257
0.773734
0.773583
0.771759
0.768863
0.769103
0.771323
0.771464
0.771316
0.771167
0.69974
0.502738
0.473634
0.474371
0.462507
0.454514
0.490802
0.499579
0.491991
0.486986
0.484696
0.48397
0.503978
0.675621
0.763185
0.757256
0.756668
0.757647
0.759683
0.758955
0.756784
0.755847
0.756023
0.753995
0.75189
0.754333
0.763402
0.77062
0.771167
0.766173
0.679973
0.507568
0.464624
0.460179
0.454985
0.453245
0.479623
0.487089
0.482246
0.478135
0.476894
0.479378
0.484414
0.618603
0.728767
0.720172
0.717818
0.719664
0.722951
0.72248
0.719521
0.718808
0.719423
0.717505
0.716373
0.721994
0.741146
0.760186
0.761857
0.739249
0.644292
0.508582
0.459947
0.453671
0.453237
0.453231
0.470335
0.475695
0.473383
0.470552
0.470235
0.471807
0.475804
0.588497
0.686725
0.674665
0.669173
0.671477
0.675112
0.675693
0.673393
0.673341
0.673372
0.670903
0.670463
0.678322
0.704772
0.733794
0.731943
0.686212
0.58838
0.502381
0.472776
0.454064
0.45325
0.453191
0.46254
0.4662
0.465818
0.464822
0.465669
0.466338
0.473767
0.587116
0.664348
0.644951
0.635362
0.636753
0.639029
0.640473
0.639685
0.639856
0.638141
0.634733
0.634535
0.641774
0.665709
0.695168
0.686149
0.621438
0.531534
0.487716
0.483023
0.478845
0.461346
0.453253
0.455396
0.457949
0.458924
0.459942
0.462661
0.464526
0.475025
0.594375
0.664212
0.640082
0.62757
0.62736
0.627458
0.62892
0.629056
0.628909
0.626096
0.622471
0.622375
0.627447
0.642528
0.658993
0.639277
0.565537
0.498408
0.475732
0.475692
0.50099
0.509458
0.488942
0.448615
0.450295
0.451946
0.45441
0.45881
0.463553
0.486249
0.607192
0.664096
0.645688
0.633315
0.630387
0.630912
0.631987
0.63214
0.63177
0.629084
0.625758
0.624788
0.630462
0.640221
0.638391
0.604179
0.530907
0.483833
0.469821
0.46924
0.4978
0.517001
0.516929
0.443048
0.444046
0.445934
0.449187
0.453949
0.460822
0.500592
0.614961
0.663883
0.656959
0.647836
0.642703
0.6426
0.642833
0.642814
0.642199
0.640363
0.638209
0.637123
0.642493
0.644294
0.630871
0.582778
0.514031
0.479725
0.468904
0.468884
0.484934
0.510272
0.512173
0.440516
0.440573
0.443072
0.447559
0.452149
0.459586
0.506643
0.608284
0.654655
0.6568
0.656642
0.654592
0.653711
0.653397
0.653244
0.65268
0.652061
0.651589
0.651543
0.652024
0.649563
0.624969
0.567313
0.504376
0.479262
0.472301
0.468852
0.473953
0.490148
0.495021
0.440502
0.440585
0.445308
0.451904
0.456073
0.465338
0.503213
0.573656
0.62264
0.649729
0.655578
0.655088
0.654783
0.654521
0.654273
0.653803
0.653192
0.652952
0.652712
0.652472
0.644787
0.609064
0.547634
0.495501
0.483093
0.494066
0.468833
0.468806
0.475373
0.479678
0.440562
0.450437
0.452483
0.461564
0.466399
0.474138
0.489015
0.520197
0.567537
0.61535
0.636047
0.64134
0.642258
0.642456
0.64239
0.641121
0.639896
0.640659
0.64145
0.637877
0.618545
0.573678
0.52025
0.490213
0.498333
0.510114
0.468793
0.467513
0.468648
0.469739
0.442653
0.456038
0.456547
0.467152
0.468965
0.471565
0.475718
0.485133
0.512279
0.556254
0.587202
0.599466
0.603242
0.604562
0.604811
0.602839
0.600885
0.602243
0.602776
0.594249
0.567072
0.525461
0.49359
0.487509
0.50981
0.510234
0.480384
0.467168
0.464696
0.463292
0.44329
0.455339
0.456702
0.463844
0.465276
0.466656
0.468376
0.472386
0.482177
0.503389
0.527207
0.541243
0.547431
0.549906
0.550458
0.548763
0.54688
0.547508
0.54618
0.535652
0.513273
0.489763
0.476819
0.480838
0.509124
0.505232
0.479357
0.465067
0.461045
0.458912
0.447744
0.454089
0.45684
0.46023
0.462302
0.463339
0.464192
0.466605
0.472422
0.479094
0.487254
0.495647
0.501149
0.503813
0.50452
0.503808
0.502677
0.502168
0.499719
0.49279
0.482931
0.474809
0.47036
0.47323
0.497382
0.492514
0.47449
0.462072
0.458735
0.458727
0.507242
0.460812
0.457199
0.458172
0.460614
0.461831
0.46198
0.464237
0.470035
0.472386
0.473221
0.475651
0.478176
0.480029
0.480854
0.480929
0.480493
0.479611
0.477843
0.475342
0.472785
0.470973
0.470324
0.470238
0.480312
0.479462
0.471143
0.460515
0.45873
0.458719
0.650155
0.520238
0.459791
0.458422
0.46012
0.461217
0.462747
0.468855
0.474105
0.47131
0.471274
0.471334
0.471559
0.471953
0.472413
0.472539
0.47252
0.472158
0.471743
0.471143
0.470941
0.470325
0.469985
0.470324
0.472487
0.472855
0.46989
0.46096
0.458736
0.45876
0.738122
0.666426
0.536393
0.463937
0.460583
0.461709
0.465774
0.480936
0.4928
0.473832
0.471244
0.471155
0.47118
0.471129
0.471122
0.47108
0.471067
0.471038
0.471014
0.470988
0.470965
0.471012
0.470324
0.470031
0.473352
0.470024
0.469245
0.464504
0.471707
0.518603
0.744566
0.737684
0.69438
0.569848
0.473738
0.463296
0.466049
0.48377
0.501641
0.501367
0.477944
0.471245
0.471118
0.471178
0.471047
0.471121
0.471043
0.471066
0.471037
0.471015
0.473944
0.484566
0.469892
0.473406
0.480915
0.470967
0.469316
0.476421
0.562059
0.647565
0.74465
0.74442
0.743593
0.716775
0.603409
0.48287
0.466109
0.48363
0.499918
0.515316
0.514986
0.48306
0.471245
0.471024
0.471177
0.47102
0.471117
0.471024
0.471062
0.471047
0.501547
0.491344
0.470292
0.48297
0.488228
0.476098
0.469403
0.533357
0.651511
0.664643
0.744855
0.744028
0.743831
0.743728
0.727723
0.607526
0.482708
0.48115
0.488039
0.508747
0.521067
0.520856
0.491365
0.471928
0.471014
0.471161
0.471001
0.471106
0.473041
0.499414
0.513203
0.484695
0.469975
0.485789
0.488403
0.482971
0.480836
0.59339
0.664366
0.664502
0.744016
0.743843
0.743304
0.740075
0.738321
0.702374
0.577206
0.47951
0.478908
0.492787
0.517585
0.526106
0.52589
0.506626
0.49034
0.485441
0.48537
0.487081
0.50871
0.530813
0.512941
0.473796
0.470219
0.478866
0.488515
0.497486
0.521046
0.607804
0.662281
0.664361
0.743819
0.74332
0.732158
0.720187
0.718609
0.695826
0.6382
0.51853
0.478929
0.480923
0.499152
0.521586
0.529739
0.529657
0.523984
0.520971
0.521056
0.523003
0.532669
0.532725
0.510275
0.468816
0.467932
0.469214
0.479423
0.498745
0.539065
0.595485
0.644901
0.664233
0.743819
0.732005
0.702765
0.680719
0.672673
0.659205
0.626897
0.554522
0.479052
0.478774
0.481507
0.502694
0.525794
0.530393
0.530393
0.530382
0.530529
0.53105
0.532725
0.531958
0.504715
0.468624
0.466567
0.464235
0.468517
0.486684
0.528103
0.570231
0.616342
0.657451
0.739239
0.70388
0.658905
0.629373
0.614766
0.604328
0.587241
0.546479
0.494869
0.478846
0.4787
0.482505
0.508299
0.528701
0.530367
0.530389
0.530311
0.529572
0.531233
0.527896
0.496543
0.468465
0.466725
0.463549
0.463079
0.472131
0.500988
0.541071
0.587692
0.637534
0.713321
0.661049
0.608609
0.576132
0.559732
0.550544
0.540052
0.519652
0.495317
0.478688
0.478845
0.478686
0.4875
0.519992
0.528292
0.530264
0.52846
0.527182
0.532354
0.527291
0.491492
0.467852
0.466925
0.464021
0.462104
0.464575
0.478349
0.50962
0.558191
0.612322
0.663472
0.608971
0.558436
0.530277
0.517793
0.512066
0.507247
0.496368
0.492576
0.497032
0.491568
0.478851
0.482415
0.508048
0.523472
0.528387
0.525524
0.526948
0.538932
0.53414
0.494663
0.46766
0.467296
0.465084
0.462119
0.46156
0.466833
0.48405
0.524176
0.582313
0.605046
0.555145
0.515815
0.498815
0.493288
0.4922
0.492476
0.486923
0.492383
0.541589
0.562824
0.523546
0.503971
0.506733
0.518742
0.524639
0.523573
0.531847
0.547464
0.54652
0.50713
0.469117
0.467294
0.465842
0.46238
0.460238
0.46086
0.468259
0.492208
0.543648
0.554025
0.511203
0.487696
0.480886
0.480513
0.482318
0.486338
0.481069
0.497504
0.566582
0.571691
0.572501
0.563121
0.520247
0.519465
0.522101
0.523276
0.54295
0.547828
0.548186
0.523937
0.475498
0.466591
0.465504
0.462133
0.459033
0.457184
0.458965
0.470898
0.505318
0.518008
0.48404
0.471631
0.470037
0.471819
0.475302
0.481262
0.478574
0.507012
0.571403
0.573053
0.571691
0.572813
0.559961
0.53077
0.522135
0.527473
0.547884
0.548304
0.547828
0.535825
0.489031
0.465237
0.464467
0.460926
0.4574
0.454278
0.453106
0.459062
0.481272
0.49532
0.46819
0.461105
0.461877
0.464578
0.468543
0.474852
0.477264
0.508565
0.571735
0.571691
0.572927
0.571691
0.572091
0.549889
0.526119
0.53867
0.548195
0.547886
0.54823
0.54323
0.503646
0.464783
0.462642
0.458251
0.454657
0.451282
0.448814
0.451303
0.467018
0.477699
0.457086
0.453468
0.455318
0.458126
0.461733
0.467146
0.472963
0.496131
0.570511
0.572533
0.571691
0.572446
0.571691
0.559371
0.538033
0.547942
0.547933
0.548187
0.547886
0.547562
0.505207
0.46546
0.45867
0.454218
0.451343
0.448545
0.445687
0.445545
0.454251
0.460913
0.448926
0.448293
0.45065
0.453007
0.455791
0.459806
0.465284
0.477369
0.554533
0.571691
0.572001
0.571691
0.571812
0.557818
0.54782
0.548067
0.548141
0.547933
0.548076
0.546168
0.495625
0.4621
0.453778
0.451106
0.449793
0.447699
0.444537
0.442665
0.445009
0.448409
0.444415
0.445978
0.448648
0.450321
0.451895
0.454238
0.457809
0.465575
0.514711
0.559004
0.56222
0.559138
0.555085
0.549014
0.5482
0.548125
0.548067
0.548071
0.546953
0.526561
0.476056
0.455408
0.451636
0.451602
0.451893
0.450037
0.445848
0.442636
0.442629
0.444264
0.44426
0.446783
0.450096
0.450746
0.450737
0.450854
0.452641
0.458079
0.479272
0.518393
0.524781
0.519529
0.521408
0.535984
0.548125
0.548067
0.544888
0.534575
0.523711
0.489978
0.461489
0.452312
0.452333
0.455798
0.458867
0.45658
0.450374
0.442684
0.442622
0.444256
0.444308
0.451509
0.456259
0.454112
0.451009
0.449201
0.44964
0.455225
0.46621
0.481068
0.485228
0.483484
0.494551
0.526346
0.54588
0.544537
0.525872
0.504282
0.486639
0.466992
0.455327
0.452289
0.455531
0.462983
0.4681
0.463044
0.456049
0.447802
0.443678
0.446263
0.450594
0.459812
0.466903
0.460823
0.452764
0.448442
0.448277
0.455202
0.465425
0.467567
0.467885
0.470073
0.487842
0.518413
0.53452
0.527913
0.497642
0.479425
0.468423
0.458659
0.452532
0.452299
0.457389
0.466492
0.468151
0.467474
0.465563
0.470284
0.514125
0.519721
0.476966
0.470677
0.470693
0.46487
0.452925
0.448207
0.448282
0.455397
0.465897
0.465468
0.465477
0.469446
0.489917
0.508988
0.51563
0.503786
0.479947
0.470867
0.465154
0.455709
0.451196
0.451469
0.456523
0.463977
0.466267
0.469222
0.482298
0.607461
0.735721
0.736755
0.623998
0.489818
0.470385
0.461149
0.451527
0.448256
0.448218
0.463757
0.472167
0.465746
0.466776
0.480043
0.494629
0.49884
0.497896
0.488063
0.476049
0.469087
0.466026
0.455428
0.451225
0.451146
0.454783
0.461604
0.463153
0.497894
0.657814
0.813365
0.865577
0.857181
0.814739
0.669065
0.501499
0.458324
0.453785
0.448192
0.449497
0.498361
0.507539
0.498952
0.498917
0.503481
0.501301
0.491537
0.488515
0.485086
0.479175
0.473917
0.480162
0.471952
0.451236
0.451797
0.45447
0.458142
0.531475
0.708306
0.837613
0.870556
0.871069
0.859222
0.859126
0.82794
0.702031
0.540702
0.466638
0.454747
0.475317
0.526855
0.544005
0.547142
0.544461
0.529115
0.512126
0.492666
0.488569
0.490661
0.497673
0.505231
0.518782
0.519445
0.490283
0.476699
0.498259
0.584664
0.730602
0.827908
0.863318
0.871027
0.871025
0.859109
0.859029
0.844534
0.801132
0.71331
0.601748
0.537108
0.536494
0.541373
0.554148
0.558465
0.558543
0.553261
0.528946
0.507568
0.498157
0.510839
0.528742
0.543828
0.554089
0.556821
0.565363
0.585886
0.643837
0.72218
0.778626
0.824339
0.857524
0.87079
0.871025
0.85901
0.856322
0.833222
0.789065
0.73524
0.685169
0.628618
0.582182
0.556539
0.558334
0.559606
0.559516
0.559443
0.550111
0.534429
0.527394
0.540793
0.553812
0.561444
0.564822
0.572262
0.604154
0.645877
0.680737
0.714844
0.758374
0.803285
0.841851
0.865572
0.871004
0.858952
0.84309
0.806734
0.755819
0.704042
0.663615
0.628572
0.589846
0.56379
0.559781
0.559693
0.559606
0.559516
0.559384
0.552394
0.552416
0.561657
0.564752
0.565091
0.5653
0.574034
0.602636
0.632182
0.652274
0.67911
0.724136
0.772501
0.816429
0.850325
0.870688
0.854963
0.815791
0.768085
0.712047
0.658056
0.619181
0.599358
0.578951
0.559816
0.554203
0.556541
0.559516
0.559427
0.558438
0.551394
0.553762
0.562015
0.564653
0.562424
0.559327
0.566427
0.584357
0.596794
0.609016
0.638723
0.683901
0.733047
0.780908
0.823367
0.864701
0.831347
0.773649
0.71651
0.658658
0.608448
0.573016
0.556933
0.549037
0.539683
0.533451
0.535463
0.540617
0.540843
0.53509
0.527916
0.532511
0.542223
0.548258
0.544343
0.539768
0.54384
0.551435
0.556081
0.56771
0.594998
0.634657
0.681419
0.732516
0.783602
0.839388
0.780445
0.714456
0.650352
0.594769
0.554072
0.528047
0.515276
0.509878
0.505035
0.499969
0.498363
0.499002
0.497297
0.491805
0.488076
0.491435
0.499158
0.506968
0.507457
0.507198
0.510184
0.513783
0.517684
0.527429
0.546714
0.576529
0.617106
0.669057
0.727887
0.790008
0.707086
0.637974
0.574113
0.530081
0.50462
0.490508
0.482757
0.478237
0.474799
0.47163
0.469204
0.467395
0.465559
0.463556
0.462774
0.46389
0.466855
0.471077
0.474124
0.476821
0.479633
0.482532
0.486291
0.492409
0.502531
0.519663
0.548048
0.593064
0.654425
0.720565
0.624011
0.55672
0.508109
0.485626
0.474364
0.468101
0.464262
0.461662
0.459757
0.458408
0.457361
0.456506
0.455957
0.455747
0.455778
0.455923
0.456412
0.457619
0.459351
0.461192
0.462945
0.464897
0.467261
0.470271
0.47454
0.481643
0.494738
0.520999
0.572317
0.639732
0.550183
0.497405
0.473065
0.46446
0.459972
0.457583
0.456338
0.455648
0.45526
0.455272
0.455285
0.455305
0.455331
0.455409
0.455479
0.455518
0.455581
0.45578
0.456264
0.456928
0.457566
0.458279
0.45906
0.459897
0.461114
0.463446
0.468119
0.477891
0.505992
0.562788
0.504642