/*--------------------------------*- C++ -*----------------------------------*\
| =========                 |                                                 |
| \\      /  F ield         | OpenFOAM: The Open Source CFD Toolbox           |
|  \\    /   O peration     | Version:  2.3.0                                 |
|   \\  /    A nd           | Web:      www.OpenFOAM.org                      |
|    \\/     M anipulation  |                                                 |
\*---------------------------------------------------------------------------*/
FoamFile
{
    version     2.0;
    format      ascii;
    class       volScalarField;
    location    "1.91";
    object      nut.particles;
}
// * * * * * * * * * * * * * * * * * * * * * * * * * * * * * * * * * * * * * //

dimensions      [0 2 -1 0 0 0 0];

internalField   nonuniform List<scalar> 
6000
(
8.03991e-06
6.59845e-06
8.07767e-06
8.86764e-06
9.34821e-06
8.97863e-06
8.56562e-06
9.81383e-06
1.17898e-05
1.16351e-05
1.13689e-05
1.24884e-05
1.08661e-05
9.867e-06
9.18748e-06
8.02282e-06
6.86657e-06
5.34196e-06
4.32004e-06
3.46879e-06
2.59567e-06
2.45679e-06
2.29299e-06
2.53732e-06
3.44067e-06
3.83086e-06
8.26315e-06
1.04921e-05
1.51831e-05
2.57407e-05
2.81739e-06
2.89623e-06
3.42739e-06
3.804e-06
3.76628e-06
3.48553e-06
3.27549e-06
3.55832e-06
3.7626e-06
5.35545e-06
5.36071e-06
3.86613e-06
2.41691e-06
1.44818e-06
1.05874e-06
8.83642e-07
9.53009e-07
1.14113e-06
1.09474e-06
1.15782e-06
1.09169e-06
1.10384e-06
1.02934e-06
9.46884e-07
1.12317e-06
1.27817e-06
2.58977e-06
2.82924e-06
2.79843e-06
1.63997e-06
2.73267e-06
6.80694e-07
7.49578e-07
1.45053e-06
7.61854e-07
1.42111e-07
5.34852e-07
1.00382e-06
1.96743e-06
6.59112e-06
7.32868e-06
3.42445e-06
8.96495e-07
7.41071e-07
8.72373e-07
1.10933e-06
1.43172e-06
1.22546e-06
1.13571e-06
1.33652e-06
1.34789e-06
1.73082e-06
9.4629e-07
5.00092e-07
9.20935e-07
3.9684e-06
5.90102e-07
3.8683e-06
2.34408e-06
1.19208e-07
9.64365e-06
2.57791e-06
1.6742e-06
2.43544e-06
1.26967e-06
8.5456e-07
2.04819e-06
2.93094e-06
4.0852e-06
1.17598e-05
1.44717e-05
1.35122e-05
5.60002e-06
4.66697e-06
3.62101e-06
2.03141e-06
1.38432e-06
1.29561e-06
1.10009e-06
1.68049e-06
3.14921e-06
0.000185632
0.000583476
0.000584166
0.000188099
1.16158e-05
3.21745e-07
1.93791e-06
9.39175e-07
3.60664e-07
1.90994e-05
1.39391e-05
1.04424e-05
1.06568e-05
1.0438e-05
9.82603e-06
9.28447e-06
1.18196e-05
1.34272e-05
1.96173e-05
2.24389e-05
1.56458e-05
9.28865e-06
1.25897e-05
1.77062e-05
1.34159e-05
5.40532e-06
2.72866e-06
1.67407e-06
3.25292e-06
0.000875452
0.00105067
0.00102547
0.00104221
0.00102255
0.000506309
3.00079e-06
1.59065e-06
8.01858e-07
5.85102e-07
2.99312e-05
2.44242e-05
2.04126e-05
1.43487e-05
1.58149e-05
1.38659e-05
1.61708e-05
1.96376e-05
2.58544e-05
2.37473e-05
1.45489e-05
4.1854e-06
3.22313e-06
3.9094e-06
7.24697e-06
1.70938e-05
2.28667e-05
4.01326e-06
2.84565e-06
0.000743414
0.00107081
0.00102687
0.00111991
0.00102816
0.00106659
0.000264506
3.51766e-06
1.272e-06
7.23396e-07
7.30467e-07
2.08472e-05
2.25685e-05
2.5149e-05
2.05091e-05
1.49077e-05
1.77864e-05
1.78622e-05
1.01041e-05
6.39475e-06
4.11234e-06
2.20223e-06
7.45992e-07
7.03217e-07
6.37714e-07
1.19842e-06
4.73478e-06
3.32267e-05
0.000713882
0.000890196
0.00103707
0.00102553
0.00124692
0.0010307
0.00122603
0.00102914
9.05933e-06
4.13378e-06
2.51471e-06
9.31229e-07
9.7749e-07
1.87249e-06
1.89843e-06
5.40221e-06
1.08065e-05
1.20757e-05
8.78407e-06
3.20948e-06
1.08838e-06
9.05783e-07
8.38949e-07
4.17928e-07
4.59314e-07
4.79242e-07
4.23275e-07
5.26159e-07
1.34739e-06
1.11784e-05
0.00026496
0.000109483
5.61922e-05
0.00119874
0.00102741
0.00143503
0.00103573
0.00125637
8.05679e-06
2.80379e-06
4.40681e-06
3.13617e-06
1.88527e-06
4.05891e-07
2.48463e-08
1.85782e-07
1.14411e-06
2.46823e-06
2.11505e-06
5.17235e-07
1.23354e-07
1.76674e-07
2.61622e-07
2.6886e-07
4.4068e-07
5.36179e-07
7.44219e-07
6.73839e-07
1.19587e-06
2.52968e-06
8.85443e-06
5.54587e-06
3.87746e-06
8.04524e-06
1.70235e-05
0.00103229
0.00143682
0.00103348
4.79256e-06
1.7397e-06
3.02286e-06
5.44936e-06
4.7782e-06
3.14908e-07
4.68841e-08
8.33616e-08
3.32321e-07
1.15161e-06
1.9229e-06
6.51173e-07
1.54765e-07
1.69064e-07
2.47892e-07
2.53514e-07
4.53809e-07
8.63031e-07
6.92174e-07
2.61021e-07
3.30043e-07
1.02793e-06
2.45712e-06
1.11776e-06
2.21987e-07
1.1746e-06
2.36565e-06
6.02932e-06
1.27812e-05
1.1481e-05
1.95585e-06
1.24454e-06
1.24878e-06
3.25643e-06
5.21065e-06
2.54985e-07
5.80845e-08
1.03308e-07
2.81604e-07
1.19729e-06
2.55134e-06
7.25945e-07
1.94557e-07
2.41684e-07
2.57509e-07
3.30972e-07
7.71548e-07
7.92392e-07
1.56707e-07
1.56736e-07
1.99629e-07
4.20096e-07
1.49033e-06
8.71212e-07
1.1909e-07
1.90125e-07
5.71993e-07
9.35842e-07
1.09179e-06
3.91959e-06
2.46501e-06
1.09568e-06
7.50851e-07
9.82643e-07
4.05644e-06
2.05006e-07
7.19629e-08
1.35188e-07
3.00282e-07
1.3645e-06
2.86867e-06
6.84483e-07
3.21205e-07
3.00781e-07
2.31795e-07
5.01024e-07
1.01174e-06
3.60378e-07
1.26621e-07
1.57468e-07
1.61486e-07
3.68234e-07
1.33822e-06
1.14741e-06
2.84569e-07
2.08568e-07
3.35747e-07
2.0825e-07
1.78835e-07
3.80211e-06
4.27219e-06
1.60679e-06
9.17645e-07
6.40264e-07
3.63647e-06
1.66301e-07
9.55772e-08
1.86301e-07
3.68451e-07
1.64582e-06
3.07314e-06
7.91842e-07
4.51602e-07
2.41033e-07
2.29712e-07
6.36774e-07
5.87334e-07
2.01051e-07
1.31449e-07
1.75622e-07
1.66373e-07
2.37791e-07
1.41815e-06
1.63746e-06
4.80244e-07
2.89539e-07
4.40022e-07
2.07073e-07
2.89359e-07
4.64808e-06
4.10719e-06
2.44997e-06
1.2834e-06
6.24419e-07
3.60312e-06
1.50662e-07
1.31457e-07
2.55173e-07
5.00861e-07
1.94946e-06
3.43194e-06
1.04339e-06
4.812e-07
2.39972e-07
2.69403e-07
4.85899e-07
3.89375e-07
2.16631e-07
1.66996e-07
1.60552e-07
2.10626e-07
1.66263e-07
6.7516e-07
1.79365e-06
8.49057e-07
3.96862e-07
2.70219e-07
2.25003e-07
3.1872e-07
4.49694e-06
2.80233e-06
1.62477e-06
9.8158e-07
5.69278e-07
3.53023e-06
1.79584e-07
1.84909e-07
3.49018e-07
7.36042e-07
2.65951e-06
3.82529e-06
1.22909e-06
3.89002e-07
2.58094e-07
2.73048e-07
3.82588e-07
3.62954e-07
2.58409e-07
2.41505e-07
1.59321e-07
2.11585e-07
1.86611e-07
2.03455e-07
8.38292e-07
7.66497e-07
3.12242e-07
1.31885e-07
1.86432e-07
2.54788e-07
4.17368e-06
3.04737e-06
6.69109e-07
5.28614e-07
7.17293e-07
3.54822e-06
2.67816e-07
2.71408e-07
4.86504e-07
1.13564e-06
3.75585e-06
4.01896e-06
9.94886e-07
3.65314e-07
2.55363e-07
3.18552e-07
4.28244e-07
5.16762e-07
4.63232e-07
2.66754e-07
1.9e-07
2.04506e-07
2.37561e-07
1.74962e-07
1.9744e-07
2.94472e-07
1.36983e-07
7.36578e-08
1.15184e-07
2.96361e-07
3.33657e-06
2.67135e-06
6.37599e-07
7.14286e-07
1.02525e-06
3.95574e-06
4.42305e-07
4.16064e-07
6.97825e-07
1.80341e-06
4.85873e-06
4.05816e-06
8.20175e-07
3.70363e-07
2.68121e-07
4.51649e-07
6.603e-07
1.00235e-06
8.43159e-07
3.18444e-07
2.07461e-07
1.86335e-07
2.20685e-07
2.30574e-07
1.24167e-07
1.27227e-07
5.56247e-08
7.49342e-08
1.09811e-07
2.87149e-07
2.48721e-06
1.59308e-06
8.95486e-07
1.21665e-06
1.68367e-06
0.000466244
7.64596e-07
6.45585e-07
9.95435e-07
2.80993e-06
5.27122e-06
3.84393e-06
6.52104e-07
3.93275e-07
3.57184e-07
6.81207e-07
1.11577e-06
1.93655e-06
1.15274e-06
3.5345e-07
1.57308e-07
2.00216e-07
2.20956e-07
2.05722e-07
1.78119e-07
1.27478e-07
1.24767e-07
1.2311e-07
9.70855e-08
2.61906e-07
1.8801e-06
1.43729e-06
2.91289e-06
7.11726e-05
0.000703537
0.0044958
1.33474e-06
9.92752e-07
1.3857e-06
3.99339e-06
4.715e-06
2.93893e-06
7.04106e-07
3.67701e-07
5.81212e-07
1.24153e-06
2.0654e-06
2.29019e-06
8.98198e-07
3.00583e-07
1.88316e-07
2.61319e-07
2.32087e-07
2.24438e-07
2.00061e-07
1.96156e-07
1.12827e-07
1.78759e-07
1.36946e-07
3.67373e-07
1.76802e-06
8.43721e-05
0.000508609
0.00187642
0.00566747
0.0113684
2.20384e-06
4.3219e-06
1.20988e-05
4.12915e-06
3.01555e-06
1.80946e-06
8.32285e-07
3.6399e-07
1.0677e-06
2.11405e-06
1.81146e-06
1.26478e-06
5.80247e-07
3.27978e-07
2.76662e-07
2.88585e-07
2.61418e-07
2.30775e-07
2.13476e-07
1.25545e-07
1.59211e-07
2.09137e-07
5.99847e-08
7.84629e-07
3.81299e-05
0.000944835
0.00301543
0.0069847
0.0121006
0.0130753
4.47813e-05
0.00056134
0.000284122
2.80186e-06
1.8256e-06
1.14905e-06
9.80363e-07
5.21837e-07
1.68283e-06
3.99642e-06
1.14316e-06
7.56746e-07
5.63818e-07
4.53052e-07
4.199e-07
2.56903e-07
2.47175e-07
2.5644e-07
1.61878e-07
1.44543e-07
2.23214e-07
1.59882e-07
2.02099e-07
2.27738e-06
0.000806047
0.00369718
0.00716931
0.0118479
0.0130773
0.0130913
0.00136948
0.00180027
0.000554876
1.29701e-06
1.3306e-06
6.72301e-07
6.80677e-07
8.48764e-07
1.85322e-06
3.22355e-06
1.23127e-06
8.51339e-07
6.71074e-07
6.39471e-07
7.34801e-07
4.44478e-07
2.2912e-07
2.75926e-07
1.99381e-07
1.84927e-07
2.10972e-07
7.74024e-08
7.38622e-07
0.000265297
0.00344146
0.00690445
0.00949974
0.0130452
0.0130939
0.0130015
0.00241918
0.00241357
0.000451647
4.51543e-07
9.95634e-07
7.19486e-07
4.8287e-07
8.7708e-07
1.52072e-06
2.1198e-06
1.51948e-06
1.08475e-06
9.87545e-07
9.33971e-07
1.18944e-06
9.51079e-07
2.32036e-07
3.08216e-07
2.34603e-07
2.07342e-07
1.79266e-07
1.17066e-07
3.17453e-06
0.00216407
0.00582545
0.00737301
0.00893287
0.0130326
0.0128418
0.00121154
0.00242152
0.00238725
0.000277949
4.71172e-07
8.05947e-07
6.93914e-07
5.27992e-07
9.46752e-07
1.32384e-06
2.49499e-06
2.32338e-06
1.7317e-06
1.65918e-06
1.43871e-06
1.61651e-06
1.69062e-06
2.69848e-07
3.18588e-07
2.66003e-07
2.16993e-07
2.03387e-07
4.76884e-07
0.000504986
0.00334872
0.00522318
0.00530115
0.00604028
0.00809884
0.000516803
5.28991e-06
0.000567881
0.000576167
0.000120229
1.29394e-06
1.092e-06
8.39097e-07
3.65038e-07
6.82224e-07
9.59961e-07
4.81804e-06
4.22601e-06
2.87142e-06
7.76885e-06
1.93377e-05
2.0221e-05
3.89898e-06
3.67811e-07
3.49316e-07
2.7216e-07
3.5573e-07
5.69573e-07
1.19343e-06
0.000939634
0.0025817
0.00326787
0.00241879
0.00132057
0.00108
9.74752e-06
7.3472e-07
4.63203e-06
1.06856e-05
0.000197245
2.15091e-05
3.13253e-06
1.81432e-06
5.03315e-07
4.90183e-07
9.80273e-07
1.11483e-05
0.00102355
0.00170168
0.00222415
0.00188091
0.00115067
2.75875e-05
1.43911e-06
3.76625e-07
4.56654e-07
8.83991e-07
1.55756e-06
0.000192408
0.000708908
0.00160536
0.0021374
0.00153994
0.000350155
6.51186e-06
1.37845e-06
3.59897e-07
2.26859e-06
2.79001e-06
0.00023875
0.000406652
3.33468e-05
6.71326e-06
3.38407e-06
7.68975e-07
1.96636e-06
0.000979625
0.00388148
0.00376272
0.003964
0.00376054
0.0037623
0.00096649
3.66852e-06
5.32755e-07
1.19403e-06
2.30295e-06
0.000283103
0.000643706
0.00103021
0.00182377
0.00247615
0.0020901
0.000888065
7.74845e-06
1.21593e-06
6.54498e-07
7.58239e-06
5.57864e-06
0.000528018
0.000562046
0.000529469
0.000533276
5.17775e-05
6.74624e-06
5.95447e-05
0.0038085
0.00374129
0.00424055
0.00377641
0.00424318
0.00376753
0.00322692
3.73919e-06
1.47679e-06
3.13019e-06
0.000232403
0.000946961
0.0016879
0.00255689
0.0039365
0.00527908
0.00535063
0.0038446
0.00126406
2.71333e-06
3.04876e-06
2.83465e-05
3.25766e-05
0.000588887
0.000544786
0.000576748
0.000546509
0.000577587
0.000289586
5.05743e-05
4.39954e-05
4.38376e-05
0.000419416
0.00425052
0.00376953
0.00424154
0.00194156
4.00167e-06
4.54594e-06
7.861e-05
0.00100064
0.00231956
0.00387073
0.00570334
0.00799787
0.00997903
0.0100579
0.0086691
0.00643349
0.00399456
0.00173328
8.33888e-06
8.1889e-06
1.35371e-05
2.41489e-05
2.93556e-05
3.29398e-05
3.42362e-05
2.35275e-05
1.02755e-05
6.75706e-06
5.59727e-06
7.69685e-06
2.32196e-05
0.000684773
0.00370107
3.95347e-05
5.58559e-06
2.71061e-05
0.000777549
0.00272076
0.00457854
0.00626371
0.00758265
0.00804194
0.00753705
0.0061805
0.00464274
0.00309885
0.00423606
0.00635915
9.83927e-07
3.0422e-07
8.03193e-07
1.74548e-06
2.17282e-06
2.53951e-06
2.85625e-06
1.64514e-06
7.40961e-07
6.2262e-07
4.67536e-07
6.43409e-07
2.24575e-06
7.60294e-06
1.69037e-05
8.45486e-06
6.31878e-06
0.000276102
0.00257351
0.00504298
0.00578961
0.00570964
0.00449664
0.0022785
0.00123049
0.000749363
0.000590617
0.000572103
0.00101488
0.00228353
5.12816e-07
1.88527e-08
1.71547e-08
7.40405e-09
9.991e-09
2.52849e-08
7.38756e-08
1.73947e-08
1.72824e-08
3.32107e-08
3.28687e-08
2.15081e-08
5.8895e-08
7.46997e-07
3.82456e-06
4.87259e-06
6.74439e-06
0.00155069
0.00519892
0.00526143
0.00459521
0.0020104
0.000873802
0.000524725
0.000547678
0.000983826
0.000832492
0.000850252
0.000875189
0.0013519
4.64769e-07
2.269e-08
2.20263e-08
2.24927e-08
2.18921e-08
2.21755e-08
2.46059e-08
1.8962e-08
2.46907e-08
3.46643e-08
3.0846e-08
2.74253e-08
9.25032e-08
7.12233e-07
2.52644e-06
4.85659e-06
0.000479711
0.00423205
0.00583503
0.00447205
0.00162068
0.000455192
0.000466795
0.00102166
0.00389491
0.00642391
0.00646366
0.00437875
0.00284533
0.00402904
4.10095e-07
2.26937e-08
2.2107e-08
2.17937e-08
2.05641e-08
2.20047e-08
2.26802e-08
1.95041e-08
2.77144e-08
3.48328e-08
3.20655e-08
3.7928e-08
1.56673e-07
9.80914e-07
2.9315e-06
3.28911e-05
0.00259846
0.00605535
0.00579888
0.00312501
0.00119498
0.00122842
0.00194671
0.00525826
0.0151689
0.0242975
0.0265133
0.0206839
0.0143048
0.0148302
3.64859e-07
2.20462e-08
2.15964e-08
2.07377e-08
2.03506e-08
2.2322e-08
2.10563e-08
2.24374e-08
3.08927e-08
3.63772e-08
3.39543e-08
5.42137e-08
2.87585e-07
1.42897e-06
5.35805e-06
0.000863365
0.00480004
0.00813834
0.00941957
0.00984649
0.0104187
0.0160581
0.0305574
0.0494816
0.0595529
0.0646121
0.066976
0.0650105
0.0590297
0.0573331
3.11895e-07
2.25279e-08
2.13596e-08
2.09977e-08
2.25e-08
2.31264e-08
2.26674e-08
2.60426e-08
3.44254e-08
3.98714e-08
4.04446e-08
8.95912e-08
5.84046e-07
2.53404e-06
4.42889e-05
0.00282586
0.00832554
0.0159277
0.026165
0.0425627
0.0711867
0.0810944
0.0866741
0.0869492
0.0842284
0.0820619
0.0818788
0.0832182
0.0853596
0.0874126
2.5854e-07
2.45126e-08
2.36227e-08
2.30956e-08
2.62559e-08
2.54388e-08
2.68943e-08
3.09202e-08
4.19493e-08
4.51833e-08
5.40923e-08
1.79317e-07
1.293e-06
6.01569e-06
0.00107752
0.00759743
0.0212753
0.0440813
0.0729329
0.0813863
0.0872922
0.0877613
0.0878664
0.0877309
0.0862108
0.0849625
0.085349
0.0875117
0.0911401
0.0941977
2.04353e-07
2.65097e-08
2.61939e-08
2.61168e-08
3.01697e-08
3.02087e-08
3.1157e-08
3.89405e-08
5.16589e-08
5.3658e-08
8.1419e-08
5.17019e-07
2.9216e-06
9.30345e-05
0.00657634
0.0273097
0.0625904
0.0809009
0.0854257
0.0861963
0.0862569
0.086857
0.0861809
0.0843798
0.0832821
0.0834921
0.0851849
0.0886556
0.0929128
0.0953562
1.53562e-07
2.88403e-08
2.97016e-08
3.04786e-08
3.41614e-08
3.64228e-08
3.67997e-08
4.76215e-08
6.21957e-08
6.9353e-08
1.54749e-07
1.46417e-06
6.78006e-06
0.00376991
0.030646
0.0754339
0.0806283
0.0807143
0.0784881
0.0673987
0.0522024
0.0475851
0.0494656
0.0556969
0.0676831
0.0770765
0.0816743
0.0874437
0.0933101
0.0956312
1.08061e-07
3.24492e-08
3.36014e-08
3.56081e-08
3.98732e-08
4.33573e-08
4.57134e-08
6.22683e-08
7.95427e-08
1.00223e-07
6.08512e-07
3.14751e-06
0.000710004
0.0260944
0.0728398
0.075236
0.0462897
0.0148599
0.00420955
0.00253513
0.0024919
0.00362482
0.00738487
0.0156583
0.0292415
0.0474778
0.0728961
0.0824213
0.0909983
0.0956129
7.18606e-08
3.76639e-08
3.94128e-08
4.25999e-08
4.78335e-08
5.30142e-08
6.06932e-08
8.40689e-08
1.03839e-07
1.72729e-07
1.44752e-06
7.84085e-06
0.0138048
0.0532739
0.0541287
0.013003
0.000253668
0.000131662
0.000121009
0.000130686
0.000639687
0.00299269
0.00820023
0.0163421
0.024475
0.0339074
0.0464991
0.0660197
0.0803584
0.0945118
5.13848e-08
4.4999e-08
4.77465e-08
5.26081e-08
6.02633e-08
6.85871e-08
8.55516e-08
1.14812e-07
1.46831e-07
5.30601e-07
3.03468e-06
0.00313969
0.0341667
0.0349572
0.00663043
0.000149291
0.00013382
0.000344198
0.00121741
0.00427122
0.0107987
0.0195455
0.0272053
0.0291394
0.0277132
0.0254723
0.0257158
0.0225547
0.0106402
0.0142128
5.46879e-08
5.58374e-08
5.99102e-08
6.78563e-08
7.90856e-08
9.40414e-08
1.29281e-07
1.67862e-07
2.15896e-07
1.04799e-06
0.000101131
0.0154549
0.0228286
0.00645264
0.000147833
0.000140695
0.00117813
0.00965192
0.030043
0.0542407
0.0619845
0.0630302
0.0603246
0.0416548
0.0242046
0.0142138
0.0123227
0.00375714
1.81351e-05
1.56024e-05
9.06859e-08
7.2761e-08
7.81269e-08
9.30999e-08
1.09866e-07
1.43223e-07
2.13495e-07
2.5827e-07
3.42718e-07
1.70841e-06
0.00288322
0.0139749
0.00782224
0.00130579
0.000262092
0.00203122
0.0207441
0.0614177
0.0643083
0.0631915
0.0656735
0.0632617
0.0639758
0.0549249
0.0275329
0.0110318
0.00506206
3.10623e-05
4.59389e-06
2.32914e-06
1.76579e-07
1.01582e-07
1.10008e-07
1.374e-07
1.74634e-07
2.49706e-07
3.60997e-07
4.04216e-07
6.58983e-07
0.000136956
0.00588032
0.00913151
0.00594747
0.00330753
0.00610959
0.033204
0.0620835
0.0665355
0.063515
0.0694259
0.0635854
0.0688305
0.0634207
0.0637461
0.0492405
0.014174
0.000220314
1.00478e-05
3.58405e-07
7.03946e-07
3.58005e-07
1.54733e-07
1.75948e-07
2.22939e-07
3.08693e-07
4.45452e-07
5.86604e-07
8.50168e-07
2.89271e-06
0.00184255
0.00743287
0.0101042
0.0101874
0.0148584
0.0436651
0.0625131
0.0686838
0.0636256
0.0734851
0.063756
0.0748482
0.0637434
0.0714046
0.0634901
0.0638787
0.02285
1.79078e-05
4.28116e-06
6.65079e-07
1.1197e-06
7.67106e-07
2.63672e-07
3.06985e-07
3.93063e-07
5.55506e-07
7.21335e-07
1.55148e-06
3.74354e-06
0.000521367
0.00349149
0.00859049
0.013202
0.0192475
0.0380674
0.062551
0.0677325
0.0636391
0.0749925
0.0638474
0.0754234
0.0638998
0.075735
0.0638532
0.0749612
0.0635322
0.0635117
0.000535922
2.15296e-06
1.37809e-06
4.53121e-06
1.80942e-06
4.64751e-07
5.45258e-07
8.57547e-07
1.48015e-06
2.55877e-06
0.000171607
0.000578287
0.00110489
0.00333108
0.00858825
0.0161202
0.0287682
0.0531385
0.0647499
0.0634805
0.0736111
0.063781
0.0755169
0.0637079
0.0753944
0.0602402
0.0755693
0.0638274
0.074975
0.0630079
0.031019
2.56799e-06
6.44463e-07
0.003644
4.51838e-06
8.23338e-07
1.34733e-06
2.68389e-06
6.05399e-05
0.000548507
0.00123375
0.00142191
0.00167858
0.00328344
0.00775571
0.0166016
0.0342276
0.057429
0.0631375
0.068374
0.0636474
0.0754916
0.0629322
0.0582767
0.000279046
1.92574e-05
0.00871365
0.0749315
0.0637307
0.0734384
0.0616105
0.00417618
0.00104675
0.00968919
1.11029e-05
2.9045e-06
3.23844e-05
0.000499671
0.00123909
0.00170876
0.0020754
0.00223889
0.00251449
0.00369198
0.00628527
0.0147371
0.0374675
0.0599802
0.0641003
0.063283
0.0706654
0.0619682
0.022757
1.64712e-05
5.70613e-06
4.5894e-06
8.55047e-06
0.000355952
0.0742456
0.0635741
0.072617
0.0610029
0.0158928
0.00923469
0.000203497
0.000244544
0.000552161
0.00105216
0.00188194
0.00253364
0.00290534
0.00306389
0.00352748
0.00367027
0.00342481
0.00979691
0.0407686
0.062284
0.0627215
0.0643256
0.0510912
0.012444
1.59221e-05
5.76375e-06
2.39495e-06
1.69806e-06
2.25583e-06
6.62943e-06
0.000307424
0.0720386
0.0633183
0.0674188
0.0426638
0.00400215
0.000210719
3.2317e-05
4.26668e-05
7.08438e-05
0.000188588
0.000678955
0.00153889
0.00156843
0.0002802
1.44953e-05
6.79946e-05
0.00483842
0.048338
0.0619406
0.0580756
0.0364234
0.0100676
0.000210738
9.65807e-06
2.2315e-06
7.45844e-07
2.63847e-07
6.36498e-07
1.10367e-06
9.35604e-06
0.00681306
0.070834
0.0628261
0.0566832
0.00266255
8.62432e-06
5.23067e-06
5.09212e-06
5.48422e-06
6.64409e-06
7.53202e-06
8.49138e-06
8.52761e-06
4.76943e-06
2.63068e-06
4.7773e-06
0.00382512
0.0559668
0.0611624
0.0380824
0.0123687
0.00193661
1.88681e-05
3.25772e-06
6.95396e-07
1.63761e-07
1.19686e-07
8.75158e-08
2.56727e-08
1.8014e-06
3.99473e-05
0.057582
0.0686071
0.0278539
0.000139766
2.49718e-06
1.74575e-06
1.6965e-06
1.45755e-06
1.1875e-06
1.01757e-06
1.01016e-06
8.18067e-07
8.60131e-07
1.14591e-06
3.73507e-06
0.00894719
0.0555001
0.04714
0.0182412
0.00322207
3.34869e-05
8.05292e-06
1.42087e-06
1.13307e-07
1.21002e-07
1.35512e-07
5.68574e-08
5.86106e-08
7.45365e-08
1.32733e-05
0.00747974
0.0432282
3.36887e-05
1.74701e-05
1.05321e-06
9.86795e-07
9.5802e-07
8.71051e-07
7.35276e-07
6.24675e-07
6.05927e-07
7.34174e-07
9.2458e-07
1.2664e-06
0.000768464
0.0217836
0.0498559
0.0290276
0.00766969
0.00113305
1.61501e-05
2.13148e-06
1.76902e-07
8.67429e-08
1.24259e-07
1.76367e-07
5.16263e-08
6.39429e-08
1.23239e-07
1.29268e-06
2.33404e-05
0.000267514
1.2707e-05
1.26883e-05
9.4538e-07
8.97743e-07
7.64885e-07
7.20849e-07
7.10131e-07
7.3475e-07
8.30918e-07
1.42435e-06
5.53489e-05
0.000328322
0.00486781
0.0286147
0.0352624
0.0171726
0.00308673
2.11827e-05
4.77705e-06
5.83248e-07
5.1213e-08
8.27209e-08
1.4907e-07
2.13708e-07
4.90618e-08
7.60039e-08
1.46123e-07
1.12943e-07
1.53573e-06
1.62459e-05
2.85263e-06
1.14171e-05
1.13133e-06
1.10904e-06
1.0392e-06
1.12922e-06
1.34996e-06
1.6807e-06
1.11868e-05
0.000134133
0.000393988
0.00152412
0.00939971
0.0283836
0.0233941
0.00576405
2.10455e-05
6.74563e-06
9.8504e-07
1.13595e-07
5.6291e-08
8.64927e-08
1.72101e-07
2.16456e-07
4.57029e-08
8.18249e-08
1.54562e-07
1.113e-07
2.22383e-07
1.72006e-06
1.5881e-06
1.01275e-05
5.61804e-05
1.65081e-06
1.58753e-06
1.88731e-06
2.7204e-06
3.95634e-06
2.48525e-05
7.36535e-05
0.000206118
0.00196807
0.0118351
0.0248631
0.00901994
7.11604e-05
5.17383e-06
1.41755e-06
3.71842e-07
7.57187e-08
5.78661e-08
1.02681e-07
1.83819e-07
1.89685e-07
3.98448e-08
9.04648e-08
1.50566e-07
1.03243e-07
2.02809e-07
7.83794e-07
8.40733e-07
8.63311e-06
0.00103631
6.86882e-06
1.9072e-06
2.16818e-06
2.73722e-06
3.55197e-06
3.95723e-06
3.54417e-06
2.50646e-06
0.000388057
0.00920127
0.0168397
0.0025558
7.90527e-06
1.2341e-06
4.50029e-07
1.41554e-07
6.38909e-08
6.1073e-08
1.05534e-07
2.21432e-07
1.20517e-07
4.03698e-08
8.73409e-08
1.43307e-07
1.26931e-07
2.78993e-07
6.63621e-07
5.57451e-07
7.08433e-06
0.00352068
0.000939429
2.5016e-06
2.14699e-06
2.2403e-06
2.19141e-06
1.94843e-06
1.67717e-06
1.2697e-06
5.90902e-06
0.00365506
0.00688126
3.02887e-05
1.84902e-06
3.48164e-07
1.84982e-07
6.12784e-08
6.48694e-08
6.95351e-08
1.27601e-07
2.34145e-07
6.15137e-08
3.91822e-08
8.7649e-08
1.52801e-07
1.54242e-07
3.21787e-07
5.58825e-07
5.01374e-07
6.02852e-06
0.0049606
0.00394338
0.000942843
2.98768e-06
2.12781e-06
1.87889e-06
1.82188e-06
1.88042e-06
1.89287e-06
1.85138e-06
3.7314e-05
0.00110433
9.30137e-06
5.56977e-07
8.15425e-08
4.47389e-08
4.0754e-08
6.4129e-08
8.29645e-08
1.68179e-07
1.87832e-07
4.30368e-08
4.21531e-08
8.01706e-08
1.88849e-07
2.35064e-07
4.65104e-07
5.26215e-07
4.77902e-07
5.10047e-06
0.00496083
0.00496222
0.00425252
0.00145109
0.00014257
7.98558e-06
2.1222e-06
2.01779e-06
1.92244e-06
2.36967e-06
7.05562e-06
1.35192e-05
2.59701e-06
6.06638e-07
6.4308e-08
8.97927e-09
3.34908e-08
7.13752e-08
1.15973e-07
2.16247e-07
1.37298e-07
4.09188e-08
4.89209e-08
7.33271e-08
2.31147e-07
3.15607e-07
6.15666e-07
6.2659e-07
4.57424e-07
4.88825e-06
0.00410291
0.00497056
0.00496296
0.00433626
0.00254954
0.0012467
0.00070722
0.00043776
0.000307766
0.000212968
1.94987e-05
5.855e-06
2.27044e-06
8.5506e-07
1.00862e-07
1.63221e-08
5.02278e-08
1.11815e-07
1.915e-07
2.3514e-07
8.41323e-08
4.44291e-08
5.63693e-08
7.25307e-08
2.77708e-07
4.19078e-07
7.04803e-07
7.60519e-07
5.72406e-07
5.36675e-06
0.00235453
0.00471463
0.00489008
0.00456974
0.00412241
0.00336865
0.00269034
0.00217802
0.0018239
0.00137606
0.000387418
6.85843e-06
2.20646e-06
1.18828e-06
3.67468e-07
1.47774e-07
1.46102e-07
2.12113e-07
2.9414e-07
1.81073e-07
3.96893e-08
4.09871e-08
5.72017e-08
9.37141e-08
3.41452e-07
5.05919e-07
9.11807e-07
1.13028e-06
1.15815e-06
6.52742e-06
0.000862945
0.0028591
0.00397256
0.00386241
0.00361989
0.00330848
0.00287466
0.00232748
0.00203403
0.00203921
0.00127681
9.68246e-06
1.52937e-06
1.11291e-06
9.67688e-07
7.33237e-07
6.61969e-07
5.51826e-07
3.79028e-07
1.11867e-07
2.74295e-08
3.56096e-08
5.37315e-08
1.13062e-07
4.29387e-07
6.98798e-07
1.25241e-06
1.74372e-06
2.62051e-06
0.000470007
0.000258024
0.00094787
0.00236925
0.00257604
0.00232847
0.00197482
0.00145428
0.000895107
0.000496581
0.000672418
0.000930679
7.68378e-06
7.70673e-07
6.44114e-07
9.32331e-07
9.14597e-07
8.33884e-07
5.91552e-07
1.98979e-07
5.31832e-08
3.46936e-08
4.80118e-08
4.81616e-08
1.63393e-07
6.38347e-07
1.07697e-06
1.87197e-06
2.91506e-06
0.000376874
0.00423362
0.000187676
0.000143577
0.000771784
0.00105808
0.000908841
0.000564287
0.000145854
2.42942e-05
2.80813e-06
3.48178e-06
8.79392e-06
2.97528e-06
3.62112e-07
2.18125e-07
3.6637e-07
4.11146e-07
3.00988e-07
1.33526e-07
3.71873e-08
5.17706e-08
5.54481e-08
6.66842e-08
6.09733e-08
2.53537e-07
1.09442e-06
1.93063e-06
2.79869e-06
0.000390265
0.00377954
0.00664815
0.00038162
0.000141202
0.000152631
0.000154551
5.64479e-05
3.09161e-06
1.05711e-06
8.00276e-07
1.14329e-06
2.94833e-06
5.55473e-06
2.39495e-06
2.18673e-07
6.50883e-08
4.08189e-08
3.69996e-08
1.26732e-08
2.68945e-08
4.95071e-08
5.31412e-08
3.79872e-08
6.37674e-08
6.84122e-08
6.55297e-07
2.6831e-06
4.71747e-06
0.000526727
0.00319478
0.00664169
0.00666552
0.00099565
0.000331309
0.000221084
0.000131984
4.24434e-05
8.69386e-06
1.01826e-06
1.16044e-06
1.74758e-06
3.40027e-06
5.39531e-06
1.77982e-06
2.71073e-07
5.11215e-08
3.34104e-08
2.01744e-08
4.95963e-08
6.65341e-08
4.71593e-08
5.65577e-08
7.82542e-08
1.15969e-07
9.66162e-08
2.35216e-06
0.00012118
0.00166801
0.00403923
0.00660671
0.00666424
0.00607967
0.0017075
0.00106413
0.000743431
0.000586257
0.000457532
0.000332967
0.000166829
2.37493e-05
2.25588e-06
2.47292e-06
2.74167e-06
1.36002e-06
4.59731e-07
6.38646e-08
6.42031e-08
6.94218e-08
8.59603e-08
5.57469e-08
6.48412e-08
2.52955e-07
2.29968e-07
6.69686e-07
1.05753e-06
1.41217e-05
0.00233072
0.00478358
0.00519149
0.00663546
0.00662075
0.00137953
0.00168394
0.0015075
0.00128465
0.00125819
0.00126138
0.00120905
0.000791832
0.000336446
3.13896e-05
2.73489e-06
1.8165e-06
9.30139e-07
5.22864e-07
1.49987e-07
7.44145e-08
8.213e-08
6.15978e-08
5.15981e-08
1.62087e-07
4.0497e-07
8.8696e-07
1.676e-06
3.52702e-06
8.19621e-06
2.16711e-05
3.47053e-05
9.65561e-05
0.00159666
0.00660656
0.00112876
0.0013095
0.00125596
0.00103985
0.000956483
0.00116038
0.00108291
0.000693688
0.000171404
1.67645e-05
2.10861e-06
1.52273e-06
7.71629e-07
3.6591e-07
2.30372e-07
7.73938e-08
4.85044e-08
3.30877e-08
8.99429e-08
4.20525e-07
1.58275e-06
2.04301e-06
1.31057e-06
1.61045e-06
8.13191e-07
1.80938e-06
2.09277e-06
3.54686e-06
9.76858e-06
0.00145759
0.00124007
0.00104035
0.00097326
0.000713547
0.000426636
0.000260077
5.57337e-05
6.29457e-06
4.10383e-06
3.73648e-06
2.98508e-06
1.49995e-06
7.1225e-07
3.2243e-07
2.051e-07
1.18902e-07
4.60768e-08
5.10332e-08
3.29515e-07
1.77086e-06
1.95982e-06
8.32132e-07
2.05494e-07
1.78674e-07
2.6277e-07
3.03867e-07
3.02722e-07
3.03356e-07
1.00268e-06
6.20593e-06
0.000587095
0.00104614
0.00100098
0.000836183
0.000351957
2.67014e-06
2.04239e-06
3.28648e-06
3.9122e-06
4.87342e-06
4.15449e-05
7.17497e-06
5.64949e-06
8.00052e-06
1.92421e-06
1.50087e-07
8.13563e-08
2.78053e-07
1.18622e-06
1.61241e-06
3.70898e-07
2.21197e-07
2.26846e-07
3.04894e-07
3.54755e-07
3.69822e-07
3.43941e-07
2.83342e-07
2.6147e-07
4.08906e-07
7.15614e-06
0.000992217
0.000809248
0.000368863
3.36258e-06
1.77437e-06
2.1039e-06
7.02928e-06
0.000124787
0.000576959
0.00152427
0.00116858
0.00101138
0.000325249
9.05394e-06
7.22866e-07
1.28593e-07
4.38084e-07
9.3761e-07
3.96264e-07
2.77494e-07
3.16438e-07
4.38642e-07
4.35439e-07
3.39327e-07
3.21677e-07
3.2377e-07
2.97123e-07
2.90947e-07
6.00451e-07
2.99674e-06
0.000841929
0.000341427
4.91975e-05
7.45585e-06
1.81707e-05
0.000173872
0.00104393
0.00304769
0.00512889
0.00496363
0.00320228
0.00153651
0.000333346
9.5344e-06
1.30945e-06
8.42285e-08
1.72019e-07
2.76195e-07
3.25051e-07
4.09466e-07
7.58521e-07
1.08497e-06
1.02746e-06
5.51284e-07
3.65978e-07
3.24845e-07
3.27696e-07
4.54148e-07
1.07352e-06
2.54293e-06
0.000758373
0.000246986
0.000152687
0.000310803
0.000989271
0.00265465
0.00514256
0.00703628
0.00674649
0.00460663
0.00250181
0.00099064
0.000174771
1.38736e-05
2.66152e-06
9.30481e-08
1.56067e-07
3.19822e-07
4.45013e-07
1.13908e-06
2.01157e-06
2.85843e-06
2.18876e-06
9.80396e-07
4.96653e-07
4.51542e-07
5.12156e-07
7.58722e-07
1.63182e-06
4.28561e-06
0.00102018
0.000566839
0.000965243
0.00222727
0.00410373
0.00623857
0.00764444
0.00742196
0.00581314
0.0035835
0.00178081
0.000714346
0.000224091
0.000271782
6.00036e-06
2.17951e-07
2.74823e-07
3.66342e-07
2.57929e-06
3.47454e-05
0.000952637
0.00117005
0.000748673
1.50557e-06
5.76705e-07
7.22877e-07
9.15407e-07
1.26227e-06
6.34099e-05
0.000192528
0.00211116
0.00194459
0.00316008
0.00505785
0.00685987
0.00814951
0.00851044
0.00770873
0.00601536
0.00409404
0.00255155
0.00155751
0.00105174
0.00130801
1.22362e-05
5.72746e-07
8.81367e-07
3.4282e-06
1.90535e-05
0.00118569
0.00118468
0.00118891
0.00117948
0.00117719
0.000258179
7.59023e-06
4.16919e-05
0.000287115
0.000510495
0.000438759
0.00443008
0.0045211
0.00587747
0.00754875
0.00895284
0.010017
0.0105036
0.0101586
0.00910481
0.00775389
0.00653719
0.00536354
0.0043037
0.00316767
0.000213228
3.41053e-06
8.41338e-06
2.02134e-05
2.12011e-05
2.59278e-05
0.000283131
0.00119037
0.00119488
0.00118908
0.00118089
0.00117389
0.00115558
0.00115049
0.00113831
0.000751092
0.00744005
0.00745257
0.0084981
0.00996115
0.0115526
0.0133133
0.0146224
0.0152938
0.0150456
0.0138934
0.0119352
0.00864519
0.00619267
0.00372327
0.001166
1.66123e-05
1.94071e-05
1.16535e-05
4.33645e-06
2.9263e-06
5.05394e-06
9.39953e-06
1.22994e-05
1.41671e-05
1.67557e-05
2.35473e-05
3.00231e-05
0.000478657
0.00114539
0.00113888
0.0105812
0.0104315
0.0112261
0.0128143
0.015025
0.0172083
0.0175154
0.017479
0.0147114
0.0111194
0.00755049
0.00420082
0.00433419
0.00327593
0.00132997
4.11878e-05
1.02551e-05
1.63994e-06
4.77958e-07
2.96962e-07
2.36045e-07
3.72273e-07
5.1288e-07
6.85443e-07
8.2352e-07
1.8475e-06
3.78067e-06
6.96227e-06
9.81305e-06
0.000151602
0.0139665
0.0136465
0.0142497
0.0159323
0.0179089
0.018006
0.0161579
0.0105442
0.00485288
0.00168976
0.000576393
0.000117637
0.00101285
0.00218843
0.000776221
2.11316e-05
1.49971e-06
3.36996e-07
2.97943e-07
3.27379e-07
3.14904e-07
3.18937e-07
2.92596e-07
2.54312e-07
2.20599e-07
2.09875e-07
2.21556e-07
2.43188e-07
3.21734e-07
5.82094e-06
0.0179039
0.0172796
0.0175482
0.0186562
0.0183436
0.0144136
0.00719026
0.00182918
0.000142889
4.68458e-06
4.82586e-06
5.11883e-06
1.12645e-05
8.19046e-05
1.83244e-05
2.12882e-06
2.62604e-07
2.45961e-07
3.96849e-07
6.30764e-07
7.02302e-07
6.64057e-07
5.54114e-07
4.5087e-07
3.75428e-07
3.07958e-07
2.82092e-07
3.17101e-07
4.65678e-07
1.94298e-06
0.0224653
0.0213865
0.0216908
0.022524
0.0194527
0.0108548
0.00290869
0.000395577
6.93085e-05
4.73151e-05
1.21065e-05
7.08115e-06
8.67701e-06
8.82496e-06