/*--------------------------------*- C++ -*----------------------------------*\
| =========                 |                                                 |
| \\      /  F ield         | OpenFOAM: The Open Source CFD Toolbox           |
|  \\    /   O peration     | Version:  2.3.0                                 |
|   \\  /    A nd           | Web:      www.OpenFOAM.org                      |
|    \\/     M anipulation  |                                                 |
\*---------------------------------------------------------------------------*/
FoamFile
{
    version     2.0;
    format      ascii;
    class       volVectorField;
    location    "4.2";
    object      U.airMean;
}
// * * * * * * * * * * * * * * * * * * * * * * * * * * * * * * * * * * * * * //

dimensions      [0 1 -1 0 0 0 0];

internalField   nonuniform List<vector> 
10000
(
(-0.255288 -1.06191 -0.737102)
(0.033259 -1.07292 -0.744225)
(0.113352 -0.894004 -0.658699)
(0.164553 -0.616653 -0.412464)
(0.207921 -0.416412 -0.252192)
(0.214616 -0.288242 -0.360691)
(0.152817 -0.188751 -0.285579)
(0.0496565 -0.144319 -0.28898)
(0.0100986 -0.142768 -0.270005)
(-0.0145078 -0.145766 -0.246979)
(-0.0379297 -0.162862 -0.283462)
(-0.0942552 -0.248768 -0.268294)
(-0.133695 -0.247881 -0.194958)
(-0.171944 -0.249297 -0.194998)
(-0.200063 -0.291157 -0.19022)
(-0.183011 -0.387494 -0.246094)
(-0.134421 -0.578352 -0.388469)
(-0.0826614 -0.78658 -0.576192)
(-0.011858 -0.909774 -0.6224)
(0.222547 -0.84938 -0.603473)
(0.00724627 -1.15637 -0.0892217)
(0.000923406 -1.10474 -0.0829918)
(0.000294667 -0.911008 -0.0628863)
(-0.00159455 -0.484949 -0.0103039)
(0.0133347 -0.273959 -0.176963)
(0.0588257 -0.080455 -0.825103)
(0.00494279 -0.0759302 -0.481872)
(-0.00602916 -0.102982 -0.371679)
(0.00037763 -0.119465 -0.307662)
(-0.00052339 -0.110612 -0.309922)
(0.00367903 -0.0937492 -0.496935)
(0.00274803 -0.0977189 -0.484134)
(-0.000658981 -0.122167 -0.206886)
(-0.000523143 -0.11862 -0.224515)
(-0.0223487 -0.142492 -0.209471)
(-0.0264232 -0.284118 -0.148299)
(-0.0010309 -0.463678 -0.0136161)
(-0.00174362 -0.797464 -0.0564266)
(9.64993e-05 -0.937092 -0.0655076)
(-0.00231966 -0.87439 -0.0672563)
(0.00374985 -1.19595 -0.0324483)
(0.00337846 -1.1075 -0.0237721)
(0.00308676 -0.923754 -0.0236998)
(-0.00166884 -0.509259 -0.0103576)
(0.00384433 -0.318092 -0.0805563)
(0.00278835 -0.157818 -0.183243)
(0.00180955 -0.131318 -0.21053)
(0.000469342 -0.124797 -0.222488)
(-6.74681e-05 -0.132568 -0.20874)
(-0.000350582 -0.138749 -0.197296)
(-0.000319092 -0.136012 -0.207275)
(0.00646377 -0.147847 -0.18685)
(0.000550235 -0.144398 -0.172901)
(-0.000793261 -0.140198 -0.173312)
(-0.00117852 -0.166492 -0.147146)
(-0.00440603 -0.325306 -0.0826419)
(0.000174843 -0.514099 -0.0138447)
(-0.00409822 -0.802815 -0.0191268)
(-0.00192343 -0.943912 -0.0188713)
(-0.00212293 -0.894969 -0.0237526)
(0.00631818 -1.16363 -0.012221)
(0.00245508 -1.06215 -0.00991021)
(0.00224222 -0.879766 -0.00361621)
(-0.00123213 -0.441996 0.00535395)
(0.000840272 -0.300794 -0.0774502)
(-0.000895906 -0.134201 -0.201699)
(0.000521125 -0.114791 -0.250754)
(-0.000162243 -0.11589 -0.243416)
(-3.52131e-05 -0.126918 -0.222294)
(-2.81041e-05 -0.130666 -0.213256)
(-0.000221565 -0.123701 -0.225171)
(-0.000396078 -0.129359 -0.21835)
(-0.000398173 -0.135297 -0.217661)
(-0.000801403 -0.132304 -0.219815)
(0.000230219 -0.159688 -0.172369)
(-0.000253885 -0.307096 -0.0805377)
(-2.33418e-05 -0.449104 0.00273931)
(-0.00483338 -0.763998 -0.00187207)
(-0.000976894 -0.912973 -0.00457045)
(-0.00464329 -0.859895 -0.00683137)
(0.00233998 -1.1883 -0.0145664)
(0.00291307 -1.05937 -0.0118452)
(0.00311375 -0.907247 -0.00644239)
(0.00203712 -0.456206 0.000783359)
(0.00375676 -0.291172 -0.0785723)
(-0.000786892 -0.140945 -0.181486)
(0.000315943 -0.118878 -0.233747)
(-6.42113e-05 -0.116477 -0.236377)
(-4.26149e-05 -0.127102 -0.217197)
(-7.74653e-05 -0.132356 -0.207914)
(-6.63742e-05 -0.126443 -0.213583)
(-0.000114881 -0.13484 -0.200552)
(-0.000227023 -0.133903 -0.201737)
(-0.00079613 -0.130782 -0.208485)
(6.68981e-05 -0.156265 -0.167384)
(-0.00343592 -0.298475 -0.0821296)
(-0.00217683 -0.457312 -0.000357489)
(-0.00666095 -0.790278 -0.00370483)
(-0.0011991 -0.926003 -0.00416077)
(-0.000602456 -0.875301 -0.00862918)
(0.00301294 -1.19927 -0.0158972)
(0.00226655 -1.04776 -0.0103579)
(0.00256082 -0.914243 -0.00528842)
(0.000517969 -0.438472 0.00367317)
(0.00231499 -0.266991 -0.0804383)
(-0.000455312 -0.130094 -0.192988)
(0.000324704 -0.112797 -0.239402)
(-5.53911e-05 -0.111045 -0.240139)
(-0.000117897 -0.122793 -0.219746)
(-0.000115625 -0.126616 -0.210202)
(-2.69056e-05 -0.120232 -0.218839)
(-0.000116617 -0.127625 -0.206176)
(-8.18276e-05 -0.127778 -0.205462)
(-0.000498648 -0.12432 -0.212203)
(0.000142625 -0.146901 -0.172286)
(-0.00217052 -0.275675 -0.0842851)
(-0.00121279 -0.434956 0.00236424)
(-0.00631697 -0.79541 -0.00227976)
(-0.000979734 -0.935041 -0.0030199)
(-0.000304313 -0.872581 -0.00626585)
(0.00172275 -1.20567 -0.0171047)
(0.00142547 -1.03505 -0.00874645)
(0.00288001 -0.929783 -0.00548849)
(0.00198834 -0.436141 0.00405476)
(0.00427503 -0.245491 -0.0773104)
(-6.00324e-05 -0.124637 -0.191183)
(0.000460776 -0.108974 -0.23428)
(5.36972e-05 -0.106649 -0.237062)
(-0.000164593 -0.117869 -0.216174)
(-8.16919e-05 -0.122928 -0.206494)
(2.73465e-05 -0.115431 -0.21431)
(8.21902e-05 -0.122817 -0.201145)
(0.00022911 -0.121634 -0.202122)
(-0.000173091 -0.117899 -0.209611)
(0.000218945 -0.138922 -0.171758)
(-0.0043167 -0.254931 -0.0819499)
(-0.0024041 -0.426565 0.00289663)
(-0.00607156 -0.80977 -0.00227179)
(-0.000967451 -0.94894 -0.0033726)
(-9.21569e-05 -0.875555 -0.00558623)
(0.00047272 -1.20441 -0.0167724)
(0.000964481 -1.02324 -0.00676023)
(0.00280312 -0.945554 -0.00482479)
(0.00282053 -0.431597 0.00530585)
(0.00326707 -0.197559 -0.0666782)
(0.00108425 -0.110596 -0.186727)
(0.000530104 -0.0991903 -0.224711)
(6.35356e-05 -0.0962826 -0.226241)
(-0.00034969 -0.106456 -0.20331)
(7.08762e-05 -0.109638 -0.193076)
(0.000289411 -0.103713 -0.202317)
(0.000427426 -0.110156 -0.188906)
(0.00061998 -0.109467 -0.190165)
(0.000303431 -0.105949 -0.19917)
(-0.000330514 -0.121706 -0.164072)
(-0.00351699 -0.209585 -0.0714982)
(-0.00292745 -0.41656 0.00422477)
(-0.00591546 -0.823129 -0.00227802)
(-0.000725395 -0.95858 -0.00283342)
(0.000126937 -0.874074 -0.00420188)
(-0.000663937 -1.20165 -0.0166528)
(0.000341988 -1.01231 -0.00461897)
(0.00277038 -0.965396 -0.00487784)
(0.00452732 -0.439736 0.00533688)
(-0.00116628 -0.131788 -0.0203931)
(-0.00165331 -0.0746439 -0.138369)
(0.00066049 -0.0675342 -0.164843)
(-3.29199e-05 -0.063723 -0.165317)
(-0.000886857 -0.0700016 -0.143975)
(0.000554925 -0.0728497 -0.133655)
(0.000342778 -0.0688093 -0.143375)
(-2.17445e-06 -0.0728682 -0.130194)
(0.000867007 -0.0718204 -0.132297)
(0.000175515 -0.0703549 -0.143627)
(0.00230031 -0.0802992 -0.116284)
(-0.000218172 -0.141252 -0.0255771)
(-0.00435433 -0.420305 0.00469989)
(-0.00526858 -0.835345 -0.00239312)
(-0.000570693 -0.968592 -0.00252444)
(0.000753975 -0.874258 -0.00263992)
(-0.00113562 -1.19581 -0.0157516)
(-0.000131879 -1.00136 -0.00217864)
(0.0028396 -0.987212 -0.00601464)
(0.00391129 -0.456629 0.00245257)
(0.00123225 -0.0639844 0.00895594)
(0.000319296 -0.0319436 0.00462397)
(0.00037966 -0.0282112 0.00502864)
(0.000183428 -0.0197271 0.00487295)
(0.000216625 -0.0278749 0.00566274)
(-0.000117411 -0.0291799 0.00592872)
(2.09189e-06 -0.022677 0.00553755)
(0.000156951 -0.0294737 0.00617036)
(-3.80334e-05 -0.0290969 0.00618658)
(-0.000313118 -0.0293523 0.0060077)
(-0.000351714 -0.036827 0.00610709)
(-0.0016061 -0.0617493 0.0107114)
(-0.00335591 -0.435358 0.00224925)
(-0.00427884 -0.846415 -0.00277329)
(-0.000147604 -0.97648 -0.00234752)
(0.00122803 -0.873079 -0.00156944)
(-0.00151841 -1.18855 -0.0143242)
(-0.000609041 -0.99278 -8.93387e-05)
(0.00297799 -1.00673 -0.0066828)
(0.00402398 -0.461482 0.000957557)
(0.000130959 -0.0964139 -0.000585296)
(-0.00038844 -0.0471233 -0.000647445)
(2.00331e-05 -0.032348 -0.000635339)
(5.5542e-05 -0.0291077 -0.000339135)
(-8.05451e-05 -0.0285312 -2.98406e-05)
(0.000144581 -0.0293314 -2.94274e-05)
(1.14935e-06 -0.0301897 -0.000129406)
(-0.000115495 -0.0297509 -0.000105409)
(-1.24679e-05 -0.0291622 -2.28644e-05)
(-0.00010215 -0.0302574 -9.5779e-05)
(6.06261e-05 -0.0414877 -0.000711711)
(-6.64007e-06 -0.0948443 -0.00163228)
(-0.0024779 -0.437669 0.000950485)
(-0.00387502 -0.855593 -0.00317363)
(-0.000155238 -0.98156 -0.00138673)
(0.00173133 -0.870575 -5.6811e-05)
(-0.00224403 -1.17685 -0.0121942)
(-0.00107158 -0.98287 0.00168381)
(0.00302659 -1.02622 -0.00691514)
(0.00486825 -0.455586 0.00184694)
(-0.000221828 -0.0814384 0.000590887)
(-0.000499454 -0.0445636 -0.000119519)
(-0.000145386 -0.0445333 -0.00204004)
(2.22039e-05 -0.0288164 -0.000262109)
(-7.70896e-05 -0.0371701 -0.00134408)
(0.000120387 -0.0383406 -0.00125852)
(1.3905e-05 -0.029035 -7.65353e-05)
(-5.42413e-05 -0.0391503 -0.00126137)
(8.68094e-06 -0.0378667 -0.00113041)
(0.000118562 -0.039313 -0.00118299)
(0.0004073 -0.0534968 -0.00142273)
(0.00088284 -0.0970504 -0.00128616)
(-0.00319543 -0.430079 0.00179125)
(-0.00353836 -0.862843 -0.0035774)
(-0.000252741 -0.984878 -0.000891589)
(0.0025572 -0.865732 0.00105195)
(-0.0037031 -1.16421 -0.0104424)
(-0.00112769 -0.973418 0.00336907)
(0.00310177 -1.05061 -0.0080477)
(0.00491111 -0.452678 0.00189297)
(0.000298593 -0.0787416 0.000437315)
(-0.000153634 -0.0469811 -0.00017274)
(-0.000201841 -0.0469598 -0.000706784)
(-3.5462e-05 -0.0316214 -0.000395872)
(0.000153298 -0.0370281 -0.000443208)
(-0.000120143 -0.0364388 -0.000271806)
(3.17406e-05 -0.0305513 -0.000117695)
(0.00017709 -0.0362794 -0.00015551)
(2.65871e-05 -0.0349921 -0.00013194)
(0.000140271 -0.0370158 -0.000116306)
(0.000272094 -0.0473651 0.000276155)
(-5.0049e-06 -0.0792035 0.000953919)
(-0.00291998 -0.423598 0.00223857)
(-0.00301249 -0.870087 -0.00368637)
(-0.00047211 -0.986099 0.000757842)
(0.0048212 -0.860655 0.00256866)
(-0.00478299 -1.14595 -0.00914162)
(-0.00100663 -0.961742 0.00477243)
(0.00295792 -1.07585 -0.0103019)
(0.00374324 -0.447841 0.00215984)
(0.000367369 -0.0698472 0.000803879)
(-0.000163245 -0.0445173 0.000240615)
(-0.000237295 -0.04774 -0.000275686)
(-0.000151405 -0.033074 -0.000363629)
(-6.62856e-05 -0.0395044 -0.000707135)
(-2.00824e-06 -0.0388468 -0.000650126)
(3.88762e-05 -0.0300464 -0.000163096)
(-3.04947e-05 -0.0381787 -0.000473741)
(3.9805e-05 -0.0369798 -0.000449674)
(0.000114113 -0.0388172 -0.000317832)
(0.000254839 -0.0475357 3.48532e-06)
(-0.000107827 -0.0780089 0.000705933)
(-0.00181383 -0.417208 0.00274982)
(-0.00190683 -0.877265 -0.00442997)
(-0.000783443 -0.988088 0.00120006)
(0.00555295 -0.852951 0.00319204)
(-0.0045763 -1.11808 -0.00739934)
(-0.000893673 -0.947118 0.00544565)
(0.00202895 -1.09353 -0.0117824)
(0.0019326 -0.440732 0.00220656)
(0.000520333 -0.0640647 0.000902146)
(-7.43989e-05 -0.0412456 0.000457296)
(-0.000132348 -0.0469363 4.24779e-05)
(-0.000165663 -0.035246 -0.000232817)
(-5.6536e-05 -0.0442379 -0.000735973)
(-3.90373e-05 -0.0438462 -0.000669271)
(1.82696e-05 -0.0324818 -0.000201761)
(-2.09713e-05 -0.0419088 -0.000362354)
(4.32245e-06 -0.0404196 -0.000479775)
(5.89777e-05 -0.0408757 -0.000429742)
(0.000346005 -0.0486599 -0.00013683)
(-0.000118439 -0.0711666 0.00101337)
(-0.000428092 -0.410742 0.0028429)
(-0.000464099 -0.880156 -0.00433329)
(-0.00112318 -0.984773 0.00278966)
(0.00584337 -0.838444 0.00395885)
(-0.00658702 -1.06551 -0.00288454)
(0.000758941 -0.917618 0.00605929)
(0.000856957 -1.10413 -0.0118028)
(-0.000251584 -0.434306 0.00195891)
(0.000624231 -0.0594815 0.000960328)
(-5.8467e-05 -0.0385369 0.00046831)
(-5.10833e-05 -0.0453648 0.000253656)
(-0.000103243 -0.0342953 3.48769e-05)
(-7.01483e-06 -0.0449845 -0.000488405)
(-7.90859e-05 -0.0438977 -0.000445002)
(-3.37814e-05 -0.0318729 1.64977e-05)
(-2.81207e-05 -0.0407189 -0.000265054)
(9.02134e-06 -0.0412513 -0.000431141)
(0.000106833 -0.0430335 -0.000442421)
(0.000311608 -0.0494758 -0.000123961)
(-0.000284286 -0.0675128 0.000972862)
(0.00116432 -0.403328 0.00297002)
(0.000857846 -0.876026 -0.00280167)
(-0.00123461 -0.970841 0.00511058)
(0.00593947 -0.809482 0.00472304)
(-0.00886349 -0.987302 0.00080206)
(0.00255185 -0.867008 0.00664383)
(-0.000482968 -1.10638 -0.0101609)
(-0.00233879 -0.42546 0.00201397)
(0.000681905 -0.0587622 0.000654167)
(4.8943e-05 -0.0375253 8.66147e-05)
(6.82389e-05 -0.0441037 0.000350916)
(-1.59161e-05 -0.0342757 5.42e-05)
(0.000140582 -0.0460692 -0.000138075)
(-0.000191925 -0.0450663 -0.000144138)
(-2.75712e-05 -0.0316118 1.88759e-05)
(0.000114462 -0.0431045 -0.000235817)
(2.12985e-05 -0.0433428 -0.000373169)
(7.29816e-05 -0.0439988 -0.000299134)
(0.000223689 -0.0483149 -0.000170725)
(-6.64271e-05 -0.0645211 0.000969436)
(0.00271447 -0.395517 0.00320758)
(0.00205396 -0.86368 -0.000691389)
(-0.00081828 -0.942074 0.00773752)
(0.00387242 -0.755334 0.00564999)
(-0.00711832 -0.877469 0.00295309)
(0.00236291 -0.778054 0.006191)
(-0.00233119 -1.10078 -0.00767043)
(-0.00399909 -0.414492 0.00209084)
(0.000248437 -0.062557 -0.000272358)
(0.000130408 -0.0401473 -0.00119309)
(0.000152706 -0.0425347 0.00108499)
(5.079e-05 -0.0350001 -0.000474337)
(0.00030657 -0.0440147 0.00110581)
(-0.000317611 -0.0430013 0.00114308)
(-2.37168e-05 -0.0330437 -0.000388459)
(0.000151665 -0.0417735 0.000859759)
(-0.000107111 -0.0432131 0.000509982)
(-3.45036e-05 -0.0442187 0.000405672)
(0.000204259 -0.0496402 9.08179e-05)
(0.000439563 -0.0627599 0.00167898)
(0.00396927 -0.383361 0.00408276)
(0.0034013 -0.842666 0.00137227)
(-0.000524717 -0.890271 0.0111233)
(0.00213112 -0.665742 0.00677069)
(-0.00310027 -0.702364 0.00583055)
(0.00164077 -0.627394 0.0050895)
(-0.00356764 -1.08801 -0.00332318)
(-0.00503328 -0.392357 0.00355852)
(-0.00171986 -0.0730426 -0.00284951)
(-0.000283129 -0.0536655 -0.00419816)
(0.000105578 -0.0425973 -0.000848684)
(3.58821e-05 -0.041987 -0.00235579)
(0.000124388 -0.0429632 -0.00056217)
(-0.000138479 -0.041502 -0.000413784)
(-5.04381e-05 -0.0385678 -0.00198668)
(-4.43995e-05 -0.0418617 -0.00102369)
(-6.15684e-06 -0.0466818 -0.00201077)
(8.79638e-05 -0.0495041 -0.0024555)
(0.000280216 -0.0585576 -0.00340639)
(0.00174694 -0.0684817 -0.000977997)
(0.00412511 -0.359946 0.0067988)
(0.00419305 -0.80752 0.00588963)
(-7.24235e-06 -0.803914 0.0138685)
(-0.000227483 -0.521289 0.00787522)
(-0.00108738 -0.585895 0.00326868)
(0.000702592 -0.52007 0.00254709)
(-0.00347322 -1.12803 -0.0012521)
(-0.00514526 -0.364628 0.00343373)
(-0.0038736 -0.107806 -0.00209957)
(-0.000617764 -0.0950733 -0.00297289)
(-0.000274738 -0.0674759 -0.00177141)
(-5.9165e-05 -0.0659976 -0.00189919)
(-8.96413e-05 -0.0658799 -0.00161262)
(5.17833e-05 -0.062337 -0.00148842)
(8.35578e-05 -0.0587297 -0.00163709)
(0.000189149 -0.0673584 -0.00194777)
(0.00015165 -0.0807087 -0.00273416)
(0.000227214 -0.0888233 -0.00305403)
(0.000296959 -0.108534 -0.00354331)
(0.0035749 -0.0996873 -0.00199631)
(0.00356779 -0.325507 0.0067486)
(0.00348564 -0.800819 0.00549216)
(4.40851e-05 -0.769214 0.00783504)
(-0.00160584 -0.411435 0.00476721)
(-0.27767 -1.0534 -0.620155)
(0.0363863 -1.06807 -0.641811)
(0.123846 -0.887161 -0.565567)
(0.176428 -0.616614 -0.356065)
(0.220712 -0.417144 -0.218059)
(0.220138 -0.287029 -0.339235)
(0.151486 -0.183445 -0.263597)
(0.0486997 -0.140591 -0.266504)
(0.0106439 -0.139379 -0.249943)
(-0.0145682 -0.141795 -0.230524)
(-0.039915 -0.160287 -0.265367)
(-0.0966441 -0.246221 -0.245613)
(-0.136407 -0.244215 -0.173225)
(-0.175182 -0.245621 -0.17277)
(-0.206273 -0.288176 -0.167207)
(-0.193468 -0.385679 -0.210829)
(-0.144357 -0.5789 -0.333926)
(-0.0901464 -0.78102 -0.492169)
(-0.0132916 -0.904637 -0.532435)
(0.240658 -0.844741 -0.511628)
(0.0054864 -1.15474 -0.0834473)
(0.00114642 -1.10952 -0.0801077)
(0.00176077 -0.913616 -0.0606407)
(-0.000554924 -0.51174 -0.0156875)
(0.0151355 -0.264314 -0.182542)
(0.0608704 -0.0764441 -0.830437)
(0.00421201 -0.0711778 -0.481197)
(-0.00658799 -0.0993663 -0.372298)
(0.000408435 -0.114445 -0.30844)
(-0.000391848 -0.104946 -0.310442)
(0.00537389 -0.0898614 -0.498302)
(0.00455836 -0.0882035 -0.487184)
(0.000937048 -0.110508 -0.210026)
(-0.000553941 -0.109249 -0.227237)
(-0.0243514 -0.13311 -0.212164)
(-0.0302719 -0.272961 -0.152014)
(-0.00309111 -0.495009 -0.0160574)
(-0.00287834 -0.802214 -0.0539819)
(2.95245e-05 -0.941909 -0.0623858)
(-0.000638723 -0.878941 -0.0640242)
(0.00337411 -1.21303 -0.0297438)
(0.00333885 -1.13208 -0.0234093)
(0.003198 -0.946383 -0.0221914)
(-0.00113277 -0.540328 -0.0128751)
(0.00474412 -0.313736 -0.0796296)
(0.00288132 -0.154556 -0.18043)
(0.00179195 -0.126397 -0.208433)
(0.000468014 -0.120613 -0.221671)
(-6.30328e-05 -0.127058 -0.208284)
(-0.00035566 -0.13317 -0.196231)
(-0.000307894 -0.131821 -0.20599)
(0.00645948 -0.141792 -0.185113)
(0.000641055 -0.13849 -0.172229)
(-0.000351289 -0.134455 -0.172929)
(-0.0011346 -0.15864 -0.146143)
(-0.0052869 -0.317837 -0.0817815)
(-0.00046315 -0.539681 -0.0149895)
(-0.00413672 -0.82697 -0.0182117)
(-0.00201723 -0.966668 -0.0175952)
(-0.00173413 -0.916442 -0.0224952)
(0.00666704 -1.19225 -0.0108063)
(0.00245572 -1.09554 -0.0101092)
(0.00236967 -0.914783 -0.00264508)
(-0.00082286 -0.487603 0.00292888)
(0.00108653 -0.296408 -0.0787033)
(-0.000832879 -0.12922 -0.202586)
(0.000522757 -0.109926 -0.251405)
(-0.000166592 -0.111848 -0.243777)
(-3.15453e-05 -0.121409 -0.222548)
(-2.36227e-05 -0.124814 -0.213543)
(-0.000225859 -0.119023 -0.225638)
(-0.000401681 -0.123694 -0.218955)
(-0.00039588 -0.129915 -0.218197)
(-0.000798856 -0.12704 -0.220363)
(0.000234857 -0.153097 -0.172953)
(-0.00047599 -0.299543 -0.0819616)
(-0.000626277 -0.488495 0.000117054)
(-0.00499737 -0.799564 -0.001065)
(-0.00103177 -0.94482 -0.00350473)
(-0.00503614 -0.89066 -0.0060777)
(0.00244529 -1.21891 -0.0141263)
(0.0030166 -1.09334 -0.0122801)
(0.00347449 -0.939203 -0.0053732)
(0.00301699 -0.495624 0.000776929)
(0.00389665 -0.28812 -0.0799719)
(-0.000811382 -0.136177 -0.181516)
(0.000305052 -0.114048 -0.233882)
(-7.4375e-05 -0.112595 -0.236592)
(-4.3244e-05 -0.12178 -0.217389)
(-7.00769e-05 -0.126757 -0.208096)
(-6.46228e-05 -0.12192 -0.213727)
(-0.000113981 -0.129351 -0.200614)
(-0.000220131 -0.128515 -0.202064)
(-0.000788197 -0.125642 -0.208933)
(9.44843e-05 -0.149853 -0.167937)
(-0.00352538 -0.291744 -0.0834793)
(-0.0031177 -0.491343 -0.0010134)
(-0.00707224 -0.823352 -0.00272711)
(-0.00131506 -0.959384 -0.00349089)
(-0.000853596 -0.905673 -0.00790855)
(0.0032474 -1.22857 -0.0157373)
(0.0022739 -1.08068 -0.0107213)
(0.00283237 -0.946099 -0.00429784)
(0.00129485 -0.479194 0.00296028)
(0.00246011 -0.264391 -0.0823786)
(-0.00049685 -0.125786 -0.193705)
(0.000309229 -0.108338 -0.239919)
(-6.83004e-05 -0.107489 -0.240579)
(-0.000120623 -0.117826 -0.220146)
(-0.000112091 -0.121474 -0.210609)
(-2.61911e-05 -0.116133 -0.219325)
(-0.00012274 -0.122565 -0.206724)
(-7.93168e-05 -0.122756 -0.206042)
(-0.000495042 -0.119514 -0.212892)
(0.000161891 -0.141007 -0.17316)
(-0.00230975 -0.269808 -0.086208)
(-0.00203182 -0.470831 0.00114274)
(-0.0066936 -0.828916 -0.00156996)
(-0.00107845 -0.968957 -0.00275536)
(-0.000550974 -0.904059 -0.00581007)
(0.00191761 -1.23603 -0.0171134)
(0.00147527 -1.06919 -0.00904749)
(0.00317651 -0.961879 -0.00433193)
(0.00284898 -0.475414 0.00394058)
(0.00437367 -0.244552 -0.0801862)
(-0.000127009 -0.120448 -0.191872)
(0.000446445 -0.104687 -0.234976)
(4.21846e-05 -0.103132 -0.237729)
(-0.000160549 -0.113218 -0.216897)
(-8.55932e-05 -0.118163 -0.20723)
(2.0869e-05 -0.111514 -0.215046)
(7.08324e-05 -0.117989 -0.201943)
(0.000229363 -0.116855 -0.202986)
(-0.000167951 -0.113269 -0.210585)
(0.000273855 -0.133308 -0.172906)
(-0.00442866 -0.250419 -0.0848162)
(-0.00326479 -0.461759 0.00232689)
(-0.00644351 -0.84252 -0.00146763)
(-0.00105952 -0.981779 -0.00296611)
(-0.000336214 -0.90783 -0.00514822)
(0.000579801 -1.23621 -0.0171262)
(0.000958682 -1.058 -0.00683727)
(0.00308518 -0.977514 -0.00372346)
(0.00355201 -0.470444 0.00577632)
(0.00370113 -0.19976 -0.0714425)
(0.00109907 -0.10663 -0.188821)
(0.000518215 -0.0952092 -0.226465)
(5.96506e-05 -0.0927274 -0.228062)
(-0.000337818 -0.102431 -0.205385)
(6.50104e-05 -0.10558 -0.195374)
(0.00028516 -0.100064 -0.204515)
(0.000429618 -0.105933 -0.191254)
(0.000616754 -0.10519 -0.192511)
(0.000315415 -0.101704 -0.201374)
(-0.000329473 -0.116883 -0.166685)
(-0.00396719 -0.207434 -0.0765621)
(-0.00371656 -0.452233 0.00416319)
(-0.00623944 -0.854613 -0.00162715)
(-0.000853781 -0.991228 -0.00251476)
(-8.86179e-06 -0.907555 -0.00388344)
(-0.000671303 -1.23366 -0.0170324)
(0.00028461 -1.04787 -0.00455136)
(0.00307221 -0.996902 -0.00395585)
(0.00484231 -0.476107 0.00649719)
(-0.000533822 -0.138041 -0.0257905)
(-0.00167346 -0.0710543 -0.141332)
(0.000657686 -0.0640429 -0.167529)
(-3.22128e-05 -0.0606521 -0.168154)
(-0.000896325 -0.0668274 -0.147057)
(0.000576354 -0.0695758 -0.136916)
(0.00034944 -0.0656279 -0.14664)
(-4.87529e-06 -0.0696439 -0.133531)
(0.00088266 -0.0685518 -0.135629)
(0.000191567 -0.066855 -0.14689)
(0.0023684 -0.0765547 -0.119856)
(-0.000583553 -0.145272 -0.0319902)
(-0.00472252 -0.454063 0.00537671)
(-0.00556694 -0.866139 -0.00183567)
(-0.000757241 -1.00089 -0.00230987)
(0.000721006 -0.908294 -0.00244373)
(-0.00131498 -1.22801 -0.0162207)
(-0.000190438 -1.03836 -0.00218269)
(0.00318705 -1.01712 -0.00508537)
(0.00388021 -0.486841 0.00323164)
(0.00150866 -0.084237 0.00781953)
(0.000405604 -0.0352612 0.00378835)
(0.000386584 -0.0321899 0.00398613)
(0.00017447 -0.022567 0.00380854)
(0.000209013 -0.0314433 0.0044546)
(-0.000125345 -0.0326812 0.00463594)
(4.28811e-06 -0.0253514 0.0043)
(0.000166309 -0.0329203 0.00465921)
(-3.00669e-05 -0.0324863 0.00460145)
(-0.000327163 -0.0329366 0.00440345)
(-0.000461624 -0.0407387 0.00458654)
(-0.00208499 -0.080926 0.00883325)
(-0.00335182 -0.462629 0.00274378)
(-0.00452766 -0.875717 -0.00232196)
(-0.000355855 -1.00799 -0.00229341)
(0.00121909 -0.907279 -0.00145645)
(-0.00177004 -1.22077 -0.014988)
(-0.000601373 -1.03068 -6.18532e-05)
(0.00336263 -1.0361 -0.00573942)
(0.00401784 -0.488203 0.00110694)
(0.000218535 -0.0939216 0.000244887)
(-0.000374545 -0.0441446 -0.000266094)
(1.85015e-05 -0.0302605 -0.000251409)
(4.95011e-05 -0.0273354 -8.14631e-05)
(-8.49973e-05 -0.0268941 0.000140585)
(0.000143085 -0.0277025 0.000137989)
(1.22182e-06 -0.0286819 5.90655e-05)
(-0.00011672 -0.0281092 8.02627e-05)
(-1.06313e-05 -0.0275306 0.000138143)
(-8.81378e-05 -0.0285547 9.75707e-05)
(7.31407e-05 -0.0385595 -0.000291156)
(-4.60289e-05 -0.0880698 -0.000389026)
(-0.00251623 -0.461735 0.000966361)
(-0.00412715 -0.88401 -0.00285796)
(-0.000394479 -1.01325 -0.00144408)
(0.0017773 -0.905212 -0.000115829)
(-0.00257119 -1.20981 -0.0131804)
(-0.00103465 -1.02246 0.00166553)
(0.00357239 -1.05583 -0.00618982)
(0.00484322 -0.481709 0.00191)
(-0.000231337 -0.0852552 0.000187419)
(-0.000459823 -0.042737 -8.71466e-05)
(-0.000135362 -0.0420585 -0.00153976)
(1.68914e-05 -0.0270258 -0.000152937)
(-7.51342e-05 -0.0351258 -0.00104608)
(0.000115568 -0.036254 -0.000989024)
(1.21734e-05 -0.0273876 -3.14992e-05)
(-5.34107e-05 -0.0370263 -0.00100027)
(8.16407e-06 -0.0358143 -0.000904671)
(0.000113245 -0.0371514 -0.000944907)
(0.000375953 -0.0505221 -0.00116689)
(0.000830687 -0.0953817 -0.00159983)
(-0.0031934 -0.454134 0.00171264)
(-0.00381867 -0.890845 -0.00332206)
(-0.000544374 -1.01657 -0.000897573)
(0.00264847 -0.901301 0.000804009)
(-0.00412512 -1.19669 -0.0117587)
(-0.00103701 -1.01479 0.0030581)
(0.00381931 -1.0785 -0.00767022)
(0.00487458 -0.477135 0.00186561)
(0.000285311 -0.0819735 0.000233866)
(-0.000131051 -0.044966 -0.000119425)
(-0.000187047 -0.0457095 -0.000508176)
(-3.28412e-05 -0.0298043 -0.000259039)
(0.000148553 -0.0361042 -0.000302569)
(-0.000120355 -0.0358519 -0.000186285)
(2.92604e-05 -0.0290382 -8.35224e-05)
(0.000174686 -0.0360511 -0.000115584)
(2.71051e-05 -0.0345692 -9.75055e-05)
(0.000129624 -0.0362684 -7.69866e-05)
(0.000244313 -0.0471414 0.000174186)
(-3.06143e-05 -0.0847138 0.000467678)
(-0.0029164 -0.447649 0.00211536)
(-0.00347074 -0.897759 -0.00360264)
(-0.000808678 -1.01911 0.000353294)
(0.00499481 -0.897111 0.00197869)
(-0.00528456 -1.17899 -0.0108519)
(-0.000847252 -1.0056 0.00388975)
(0.00391719 -1.10016 -0.0101212)
(0.00370428 -0.470766 0.00198524)
(0.000306184 -0.0751551 0.000428108)
(-0.000143847 -0.0438027 0.000113019)
(-0.000220043 -0.04752 -0.000230769)
(-0.000139816 -0.0314073 -0.00023785)
(-6.61515e-05 -0.038446 -0.00047769)
(-6.19071e-07 -0.0379142 -0.000429279)
(3.59287e-05 -0.0288533 -0.000101594)
(-3.42445e-05 -0.0376109 -0.000296341)
(3.70101e-05 -0.0362379 -0.000292473)
(0.000104798 -0.0377604 -0.000197769)
(0.000238629 -0.0468191 4.76209e-05)
(-0.000111772 -0.0817946 0.000522013)
(-0.00181544 -0.440698 0.00252563)
(-0.00245655 -0.903408 -0.00438356)
(-0.00119003 -1.0219 0.000474676)
(0.00577151 -0.890104 0.00224698)
(-0.0051893 -1.15292 -0.00903595)
(-0.000644688 -0.993706 0.00381669)
(0.00326902 -1.11415 -0.0116682)
(0.00192115 -0.463253 0.00188101)
(0.000530468 -0.0693556 0.000608628)
(-6.10657e-05 -0.0414874 0.000296688)
(-0.000120758 -0.0476568 1.24503e-05)
(-0.000155196 -0.033619 -0.000160524)
(-5.75911e-05 -0.0428692 -0.000538214)
(-3.42235e-05 -0.0422757 -0.000485653)
(1.52007e-05 -0.0307322 -0.000123716)
(-2.318e-05 -0.0407012 -0.000264114)
(1.86247e-06 -0.0391541 -0.000332572)
(5.37011e-05 -0.0395619 -0.000294392)
(0.000325916 -0.0472805 -7.55307e-05)
(-0.00014293 -0.075649 0.000703036)
(-0.00046174 -0.434156 0.00251015)
(-0.00112456 -0.904788 -0.00441925)
(-0.00156528 -1.01896 0.00177451)
(0.00612862 -0.877284 0.00251774)
(-0.00743288 -1.10765 -0.0061271)
(0.00124754 -0.970139 0.00290417)
(0.00238715 -1.12189 -0.0115366)
(-0.000198425 -0.456621 0.00144698)
(0.000757659 -0.0633281 0.000765468)
(-5.60631e-05 -0.0383416 0.000356591)
(-4.27262e-05 -0.0465222 0.000186151)
(-9.42743e-05 -0.0335948 2.24366e-05)
(-6.17047e-06 -0.045004 -0.000397403)
(-7.56503e-05 -0.0438969 -0.00038008)
(-3.36525e-05 -0.0308706 -6.16602e-06)
(-2.53888e-05 -0.040819 -0.000241692)
(7.64711e-06 -0.0406552 -0.000335329)
(9.92825e-05 -0.041973 -0.000329833)
(0.000294648 -0.0481013 -0.000101136)
(-0.000394132 -0.0711815 0.000729787)
(0.0010448 -0.427702 0.00246412)
(9.92655e-05 -0.900682 -0.00315751)
(-0.0017799 -1.00822 0.00331794)
(0.00637514 -0.852352 0.00192756)
(-0.0100906 -1.04362 -0.00567886)
(0.00331645 -0.93078 0.000722935)
(0.00115464 -1.12366 -0.0099974)
(-0.00216147 -0.449213 0.00120229)
(0.000838104 -0.0589916 0.000656225)
(4.52453e-05 -0.0361346 0.000109618)
(7.76959e-05 -0.0451139 0.000265685)
(-1.22486e-05 -0.0331238 6.19994e-05)
(0.000140128 -0.0467189 -0.000118327)
(-0.000187077 -0.0456949 -0.000116966)
(-2.56925e-05 -0.0304983 2.64749e-05)
(0.000112972 -0.0429988 -0.000158548)
(2.31212e-05 -0.0430028 -0.000267086)
(6.42515e-05 -0.0436114 -0.000227996)
(0.000206577 -0.0476916 -0.000122798)
(-0.000230294 -0.0673315 0.000745182)
(0.0024629 -0.421695 0.00242234)
(0.00127618 -0.89035 -0.00164301)
(-0.00145931 -0.986213 0.00441935)
(0.00460106 -0.807441 0.000504655)
(-0.00867559 -0.957435 -0.00855385)
(0.00321228 -0.86346 -0.00391611)
(-0.00101473 -1.11966 -0.00818673)
(-0.0037705 -0.442151 0.000717389)
(0.000398495 -0.0588586 6.108e-05)
(0.000119217 -0.037325 -0.000679425)
(0.000149235 -0.0433521 0.00101543)
(4.84925e-05 -0.0333133 -0.00025372)
(0.000301497 -0.0455022 0.00102599)
(-0.000311578 -0.0444291 0.00104101)
(-1.95932e-05 -0.031243 -0.000207471)
(0.000148969 -0.0425928 0.000842817)
(-0.000105713 -0.0435989 0.000612661)
(-3.29931e-05 -0.0444105 0.00055065)
(0.000187268 -0.0490658 0.000398157)
(0.000219653 -0.0645816 0.00163224)
(0.00360084 -0.414336 0.00274371)
(0.00269898 -0.87406 -0.000494617)
(-0.00112517 -0.947602 0.00527186)
(0.00330588 -0.736946 -0.00237127)
(-0.00497835 -0.840446 -0.00907262)
(0.00231889 -0.765184 -0.00744006)
(-0.00306975 -1.11431 -0.00477493)
(-0.00488497 -0.433686 0.00133917)
(-0.00142711 -0.0667151 -0.00145475)
(-0.000256692 -0.0489402 -0.00237539)
(7.9769e-05 -0.0403655 -0.000117822)
(3.29269e-05 -0.0387525 -0.00133238)
(0.000106621 -0.041322 9.61024e-05)
(-0.000121263 -0.0398236 0.000153128)
(-4.53335e-05 -0.0355351 -0.0011439)
(-3.84087e-05 -0.0397361 -0.000256557)
(-3.524e-07 -0.043528 -0.00084289)
(8.64386e-05 -0.0459706 -0.00107338)
(0.000248933 -0.0538442 -0.00155503)
(0.00138751 -0.0638644 5.58096e-05)
(0.00364111 -0.406584 0.00433542)
(0.00390019 -0.852898 0.00262645)
(-0.000341342 -0.893306 0.00613311)
(0.0014162 -0.640888 -0.00394084)
(-0.00259158 -0.816069 -0.00592818)
(0.000624301 -0.74157 -0.00502642)
(-0.00373978 -1.17256 -0.00299684)
(-0.00528069 -0.433193 0.00110283)
(-0.00355695 -0.0939305 -0.000894098)
(-0.000562927 -0.0823869 -0.001403)
(-0.000250049 -0.0592165 -0.000861478)
(-5.48055e-05 -0.058086 -0.000958923)
(-8.69096e-05 -0.0583069 -0.000783162)
(5.67207e-05 -0.0555627 -0.000756401)
(7.74814e-05 -0.0521524 -0.000864467)
(0.000167411 -0.0598915 -0.0010074)
(0.000137549 -0.0713866 -0.00142148)
(0.000202755 -0.077124 -0.00150276)
(0.000265057 -0.0931149 -0.00164107)
(0.00326211 -0.0881649 -0.000936621)
(0.00334619 -0.406525 0.00409314)
(0.00356476 -0.876174 0.0021633)
(0.000190109 -0.910597 0.00241868)
(-0.000216732 -0.60297 -0.00271729)
(-0.296687 -1.04628 -0.562091)
(0.0381706 -1.06554 -0.590355)
(0.13238 -0.882332 -0.518023)
(0.187608 -0.617138 -0.324386)
(0.233501 -0.416992 -0.19952)
(0.223833 -0.285496 -0.329118)
(0.152441 -0.178839 -0.255147)
(0.0498159 -0.138344 -0.255371)
(0.0105127 -0.137277 -0.240155)
(-0.0148352 -0.139219 -0.223161)
(-0.0411129 -0.158242 -0.257434)
(-0.0978052 -0.243827 -0.23361)
(-0.138146 -0.241075 -0.161192)
(-0.178369 -0.241315 -0.161014)
(-0.211751 -0.284029 -0.155433)
(-0.204019 -0.383784 -0.191686)
(-0.153568 -0.579779 -0.302957)
(-0.0961172 -0.777221 -0.448753)
(-0.0140978 -0.901548 -0.48669)
(0.256096 -0.84159 -0.46522)
(0.00282649 -1.15797 -0.0782912)
(0.00128253 -1.1216 -0.0777906)
(0.00356654 -0.921374 -0.0588059)
(0.00114424 -0.537144 -0.0178814)
(0.0168343 -0.257676 -0.183549)
(0.0624533 -0.0748391 -0.83204)
(0.00366204 -0.0685194 -0.480712)
(-0.00680226 -0.0977914 -0.372519)