/*--------------------------------*- C++ -*----------------------------------*\
| =========                 |                                                 |
| \\      /  F ield         | OpenFOAM: The Open Source CFD Toolbox           |
|  \\    /   O peration     | Version:  2.3.0                                 |
|   \\  /    A nd           | Web:      www.OpenFOAM.org                      |
|    \\/     M anipulation  |                                                 |
\*---------------------------------------------------------------------------*/
FoamFile
{
    version     2.0;
    format      ascii;
    class       volScalarField;
    location    "1.12";
    object      epsilon.air;
}
// * * * * * * * * * * * * * * * * * * * * * * * * * * * * * * * * * * * * * //

dimensions      [0 2 -3 0 0 0 0];

internalField   nonuniform List<scalar> 
6000
(
119.781
17.3438
10.5973
9.53021
9.35094
9.49255
9.76601
9.8651
9.80491
9.59535
9.67321
9.7298
9.65293
9.53937
9.62077
9.80714
9.9461
9.92027
9.81984
9.6534
9.51595
9.40684
9.31371
9.29504
9.40644
9.61247
9.9023
10.8768
17.59
119.948
78.3304
24.569
14.0889
11.5199
11.0767
11.0573
11.1936
11.3309
11.2014
11.0377
11.3217
11.6316
11.8345
11.6031
11.4485
11.4622
11.4389
11.3713
11.2122
10.933
10.6536
10.4284
10.2313
10.1888
10.7551
11.9635
12.7492
14.7622
23.7162
69.1443
53.9942
22.8142
14.6602
11.976
11.0908
10.8293
10.947
11.0166
10.9144
10.886
11.1229
11.2875
11.3551
11.2217
11.0386
10.947
10.9027
10.8237
10.6344
10.372
10.1181
9.912
9.81057
9.93149
10.4621
11.457
12.502
14.4217
20.2129
40.5927
40.7308
20.3344
15.0538
13.1042
12.0117
11.355
11.1529
11.2049
11.2188
11.3768
11.7815
12.3162
12.4973
12.2078
11.9086
11.7402
11.6024
11.4171
11.1854
10.9912
10.8088
10.6223
10.4652
10.4439
10.7875
11.6128
12.6023
13.6784
16.5235
29.9828
29.1865
18.4
16.0603
15.4544
13.7536
12.6067
12.1244
12.1064
12.2152
12.7909
13.7476
14.3238
14.1912
13.6103
13.0264
12.7734
12.5555
12.2023
11.8685
11.6664
11.5538
11.4995
11.4973
11.5089
11.6841
12.2706
13.169
13.799
15.0942
26.5637
22.0971
18.1925
18.6124
20.5734
17.4947
15.4313
14.6175
14.3008
14.4106
14.825
14.9024
14.7151
14.1898
13.4115
12.7784
12.4431
12.1667
11.8176
11.5368
11.3776
11.2911
11.2959
11.4483
11.8013
12.3386
13.0288
13.7409
14.455
15.5885
29.0491
21.6317
19.9152
22.5406
25.4245
22.5945
19.9346
18.4908
17.2703
16.1235
15.0529
14.4624
13.9283
13.2297
12.496
11.9242
11.5696
11.2681
10.9424
10.7157
10.6023
10.5756
10.703
11.0539
11.5953
12.2058
12.7598
13.258
14.1456
16.7664
30.4515
25.073
21.9572
24.9236
25.1213
23.8369
22.3884
20.7538
18.5961
15.9088
14.3025
13.3897
12.694
12.0787
11.5451
11.1157
10.7963
10.4785
10.1588
9.95168
9.85598
9.85088
10.0088
10.3883
10.993
11.602
11.8077
11.8091
12.922
16.5272
28.275
30.8888
23.3313
25.5305
23.9021
23.1318
21.6697
19.7653
17.4993
15.103
13.4579
12.4502
11.7472
11.1964
10.7732
10.4542
10.1815
9.87809
9.59438
9.42296
9.34935
9.32355
9.41813
9.69278
10.0921
10.3691
10.3284
10.2752
11.348
14.3451
23.1241
36.6811
25.7271
27.4234
23.2996
21.7448
20.2335
18.4028
16.2839
14.2614
12.7861
11.8067
11.1361
10.6455
10.2816
10.0085
9.77223
9.55565
9.2951
9.16697
9.08442
8.98235
8.94289
8.98166
9.02366
8.9929
8.92016
8.97576
9.662
11.8382
21.3424
44.4107
28.8153
29.3325
22.8905
20.2326
18.507
16.8165
15.113
13.545
12.3349
11.4669
10.8762
10.4597
10.149
9.87872
9.65402
9.45681
9.1961
9.07985
8.94645
8.72854
8.49033
8.26521
8.10988
8.02634
8.00826
8.00872
8.19663
9.69234
17.9502
53.9009
32.5519
30.9525
22.4104
18.8551
16.9447
15.4661
14.1566
13.0113
12.0889
11.4074
10.9439
10.6278
10.3612
10.064
9.81283
9.49513
9.20763
9.05703
8.81421
8.44189
8.0564
7.76925
7.60921
7.51883
7.44419
7.29414
7.13169
7.89483
12.8551
59.7557
35.4189
30.816
21.7254
17.756
15.7676
14.4667
13.4644
12.6501
12.0206
11.5577
11.3146
11.1826
10.9503
10.5456
10.0858
9.57406
9.24508
9.02361
8.68548
8.25488
7.87232
7.60552
7.43052
7.28599
7.1179
6.85136
6.47512
6.38818
8.79583
63.0922
37.0679
29.4075
20.7692
16.8839
14.9559
13.826
13.0536
12.5054
12.1366
11.9689
11.9559
11.9249
11.589
10.9223
10.2029
9.63518
9.30176
9.03818
8.6853
8.2996
7.96725
7.70872
7.49809
7.29079
7.03535
6.68891
6.25714
6.03213
8.34964
66.2507
38.4147
26.9041
19.6011
16.1827
14.467
13.528
12.9691
12.6445
12.532
12.5679
12.3952
12.1929
11.6972
10.9458
10.2394
9.7468
9.44362
9.1776
8.88459
8.58096
8.297
8.03818
7.78632
7.51116
7.18115
6.7718
6.32574
6.18122
9.35569
70.152
38.6655
24.7208
18.5774
15.6995
14.2562
13.5348
13.1873
13.132
13.2659
12.9895
12.4277
12.0715
11.5455
10.9132
10.3696
9.99933
9.75357
9.54837
9.33708
9.10718
8.86742
8.61889
8.34677
8.02327
7.62394
7.152
6.69845
6.75524
12.0243
76.19
37.4843
23.0513
17.8075
15.4174
14.2852
13.7892
13.7358
13.9455
13.8348
12.9471
12.3828
11.9932
11.5416
11.0962
10.7488
10.5113
10.3403
10.1957
10.0449
9.87415
9.68144
9.46213
9.19995
8.87281
8.46123
7.98073
7.56516
7.89959
15.3195
75.1899
34.2883
21.8403
17.3383
15.33
14.4998
14.3053
14.4116
14.2704
13.49
12.7819
12.4524
12.181
11.8939
11.66
11.4834
11.3423
11.2291
11.1295
11.026
10.9099
10.7756
10.61
10.3973
10.1237
9.77068
9.38561
9.12079
9.64543
18.6812
69.3689
31.3032
20.9888
17.0426
15.3929
14.8646
14.6739
14.2855
13.6319
13.0877
12.8855
12.8054
12.723
12.6458
12.59
12.5406
12.483
12.4216
12.3603
12.2993
12.2411
12.1815
12.1047
12.0028
11.879
11.7045
11.5971
11.7991
12.5241
22.8147
61.905
28.4857
19.8069
16.5248
15.2677
14.6378
14.0632
13.4872
13.1995
13.2378
13.3738
13.5226
13.6476
13.7664
13.8683
13.9279
13.9377
13.9169
13.8868
13.8675
13.8759
13.9187
13.9887
14.1002
14.2743
14.497
14.9132
15.6105
17.3185
28.6653
51.8079
24.5723
17.817
15.299
14.2104
13.5532
13.1998
13.2189
13.4968
13.879
14.2601
14.6235
14.98
15.3069
15.5514
15.6816
15.7171
15.7065
15.6923
15.7115
15.7983
15.9881
16.2943
16.7761
17.4184
18.171
19.2938
20.7387
23.4306
36.9723
39.7529
19.8437
15.175
13.5942
13.1932
13.1247
13.3284
13.7848
14.4011
14.9925
15.554
16.1492
16.7696
17.3334
17.7085
17.8405
17.8293
17.7768
17.7497
17.7944
17.9617
18.3237
18.907
19.6922
21.2428
22.4893
23.12
23.9794
29.0042
46.4762
28.7777
16.1647
13.8226
13.7126
13.8573
14.0317
14.4474
15.2193
16.0026
16.6613
17.3554
18.1849
19.1173
19.9863
20.4646
20.4525
20.2598
20.1041
20.031
20.0799
20.2937
20.7455
21.39
22.2977
23.5474
24.6968
24.6171
25.0966
30.7258
52.2502
27.4395
16.5233
15.0343
15.3175
15.755
16.3617
17.018
17.7903
18.4306
18.9902
19.7491
20.8299
22.2125
23.5395
23.8994
23.4167
22.931
22.6424
22.51
22.5544
22.7858
23.2251
23.7075
23.8873
24.4228
25.0213
25.4523
26.1607
31.3074
61.2081
31.8607
20.3009
20.0786
20.6685
20.4672
20.7819
21.5106
21.5042
21.4719
21.7459
22.4588
23.6276
25.3135
26.8672
26.9336
26.3472
25.6866
25.3484
25.1842
25.2422
25.5408
26.0816
26.6244
26.5822
26.373
25.7858
25.621
26.9463
31.538
65.9367
33.2547
24.1168
26.0635
29.4792
27.9406
27.8561
28.1531
26.8208
25.7995
25.6246
26.0322
26.9733
28.1938
28.7792
28.7683
28.8346
28.5871
28.3232
28.1735
28.2087
28.6427
29.63
31.1037
32.316
31.635
29.031
27.4932
29.0218
33.9109
67.336
29.2841
23.6635
27.0488
32.0124
31.8908
31.9932
30.9188
29.2098
28.0583
27.9234
28.3342
28.896
29.5194
29.9968
30.2138
30.9589
32.0201
32.035
31.6435
31.3928
31.8792
33.4581
36.1877
39.7267
41.6324
38.1389
34.8827
36.0573
44.0378
91.0213
24.9938
21.726
25.5823
29.7919
31.5266
31.3709
30.8033
29.4878
28.4171
28.0107
28.2289
28.91
30.1125
31.5056
32.0982
33.7804
34.968
35.5972
35.2759
34.7587
35.1325
37.0229
40.7842
45.7399
48.1137
45.0334
41.8127
43.4177
56.1654
127.822
25.8978
21.9851
25.2052
28.3776
31.2246
30.7948
30.4054
29.5189
28.6431
28.2579
28.5012
29.4058
30.8975
32.5403
33.5217
34.0555
34.5489
34.7511
34.433
34.0747
34.3634
35.7671
38.7345
42.7572
45.3625
44.2751
42.3908
44.2264
56.1643
132.817
31.5805
24.4004
26.4734
29.241
32.7276
31.1785
30.4249
29.5603
28.9075
28.7986
29.4076
30.7175
32.2849
33.5981
34.1657
33.9362
33.3868
32.8787
32.392
32.1172
32.2936
33.1562
35.052
37.7596
39.8359
40.237
40.4175
43.2146
55.2852
131.553
39.7801
27.9983
29.0249
32.1684
35.6942
32.3148
30.7659
29.7937
29.3638
29.6527
30.6736
32.2339
33.751
34.4108
33.981
33.0497
32.0704
31.2983
30.7386
30.4485
30.4925
30.9282
31.9906
33.7217
35.3925
36.4227
37.8746
41.8291
54.4016
129.209
48.2014
31.9174
32.4423
36.5027
39.5391
33.849
31.3768
30.1796
29.9387
30.5335
31.8242
33.4678
34.8301
34.7569
33.392
31.8748
30.6496
29.7584
29.1553
28.8361
28.7965
28.9851
29.5361
30.6712
32.1211
33.4556
35.4649
39.9774
52.5997
123.997
57.2329
35.9951
36.0284
40.7226
41.2122
34.9111
31.8746
30.5628
30.4317
31.1838
32.5473
34.1749
35.3239
34.61
32.5313
30.6088
29.2015
28.2095
27.5542
27.2048
27.1283
27.2064
27.4812
28.2645
29.6144
31.1082
33.2532
37.7891
49.885
116.025
66.9531
40.0319
39.3597
43.7947
41.2692
35.3224
32.1856
30.8493
30.7477
31.4863
32.7998
34.3258
35.178
33.8089
31.3156
29.2292
27.7109
26.6464
25.9382
25.5584
25.4732
25.5285
25.6834
26.2813
27.6084
29.2439
31.3608
35.6269
46.898
107.887
76.7495
43.9008
42.6703
46.5289
41.1876
35.4552
32.352
31.0002
30.8277
31.4779
32.6691
34.0594
34.4653
32.4012
29.7695
27.7171
26.1651
25.0675
24.3338
23.9373
23.8554
23.9331
24.0713
24.5898
25.9444
27.7608
29.8307
33.6897
44.0288
100.491
85.664
47.362
45.7958
48.4953
40.9565
35.409
32.3558
30.9649
30.7061
31.2328
32.2872
33.4458
33.2234
30.5803
27.9786
26.0644
24.5853
23.4934
22.7638
22.3705
22.2931
22.4058
22.5911
23.1019
24.514
26.5706
28.6628
32.0583
41.4119
93.9409
92.5735
50.3364
48.7879
49.8152
40.6166
35.1951
32.1838
30.7537
30.4003
30.7923
31.6969
32.5702
31.5293
28.5737
26.0866
24.3273
22.9904
21.9585
21.2563
20.8774
20.799
20.9409
21.203
21.7566
23.2242
25.5686
27.8226
30.7734
39.1173
88.2481
98.919
53.1891
51.4598
49.5467
40.089
34.7817
31.8196
30.3742
29.9669
30.2496
31.0034
31.3861
29.4764
26.5508
24.2345
22.6026
21.3978
20.4733
19.8233
19.467
19.3828
19.5416
19.8822
20.5066
22.011
24.6447
27.2306
29.8451
37.1779
83.3142
103.222
55.4036
52.9436
48.0736
39.2694
34.2138
31.3492
29.9351
29.4776
29.6683
30.2061
29.7982
27.3643
24.6663
22.5334
20.9949
19.8832
19.0615
18.4758
18.1408
18.0498
18.2115
18.6123
19.3124
20.8327
23.6919
26.7821
29.2543
35.5895
78.9753
107.193
56.6975
53.1415
46.1085
38.2329
33.5572
30.839
29.4762
28.9962
29.0949
29.2498
27.873
25.4003
23.0104
21.0567
19.5818
18.5117
17.754
17.2285
16.9085
16.8058
16.9558
17.3863
18.1453
19.6649
22.6326
26.2951
28.9151
34.3519
75.2425
108.587
57.2678
52.7967
44.3626
37.167
32.8612
30.3435
29.0431
28.5523
28.5162
27.907
25.946
23.7047
21.62
19.8323
18.4019
17.3296
16.5826
16.09
15.7769
15.656
15.7778
16.2036
16.9896
18.4851
21.442
25.6012
28.7348
33.4083
71.8515
108.437
57.4699
51.9864
42.6052
36.0778
32.1593
29.8779
28.6843
28.1993
27.7844
26.2568
24.2397
22.2936
20.4764
18.841
17.4507
16.3509
15.5661
15.0703
14.7529
14.6032
14.6827
15.0725
15.8428
17.278
20.1147
24.5613
28.4505
32.7087
68.5661
109.867
57.4653
50.6808
40.9297
35.0094
31.5031
29.4792
28.4393
27.8542
26.5567
24.6427
22.8091
21.1184
19.5198
18.0273
16.6897
15.5644
14.7115
14.1607
13.8307
13.6439
13.6676
13.9974
14.7115
16.0456
18.6817
23.1441
27.7606
31.9696
64.9928
113.124
57.209
48.7262
39.3086
33.9774
30.9161
29.2101
28.2761
27.0311
25.0886
23.2261
21.5961
20.1008
18.6771
17.3224
16.0629
14.9403
14.0208
13.3748
12.9908
12.7666
12.727
12.9789
13.6061
14.8031
17.1873
21.4385
26.4928
31.0801
60.2807
112.319
56.1924
46.1555
37.5587
32.9946
30.4381
29.0686
27.6944
25.65
23.6553
21.9754
20.5145
19.1685
17.8893
16.6684
15.512
14.435
13.4819
12.7334
12.2429
11.9641
11.8576
12.0119
12.522
13.5543
15.6507
19.567
24.7809
30.0751
54.8296
111.979
54.4235
42.9212
35.6906
32.0748
30.1173
28.467
26.262
24.1019
22.3106
20.8136
19.4941
18.2762
17.1261
16.0326
14.9903
13.9953
13.0608
12.2451
11.6287
11.242
11.0635
11.1109
11.4813
12.3207
14.1036
17.5622
22.6337
28.2915
47.9276
113.862
51.9772
39.5647
34.0728
31.4356
29.2762
26.8067
24.4783
22.5753
21.0219
19.6969
18.5131
17.4201
16.392
15.4152
14.4804
13.5784
12.704
11.8783
11.1694
10.653
10.3602
10.2931
10.5154
11.1522
12.5775
15.4857
20.026
25.2959
40.1422
110.767
47.8353
36.6974
32.9468
30.154
27.2309
24.6965
22.7032
21.119
19.7975
18.6454
17.6052
16.6402
15.7274
14.8529
14.0077
13.1846
12.3773
11.5867
10.8432
10.2199
9.79029
9.59533
9.65754
10.0786
11.1227
13.3921
17.1414
21.5102
32.6093
99.7011
43.0273
34.0237
30.6907
27.4312
24.6784
22.626
21.0544
19.774
18.6806
17.7116
16.8237
15.9868
15.1811
14.3949
13.6212
12.8563
12.0986
11.349
10.6177
9.94201
9.39449
9.05438
8.95465
9.14742
9.80115
11.3952
14.2861
17.5104
25.9387
82.6734
37.3795
30.2452
26.8795
24.1947
22.2186
20.7417
19.5657
18.5821
17.7239
16.9443
16.2095
15.4959
14.7886
14.079
13.3631
12.6408
11.9148
11.1904
10.4776
9.79595
9.18576
8.71171
8.44337
8.40728
8.68257
9.56826
11.6522
14.0981
20.6366
61.1973
30.5314
25.3964
22.9459
21.2905
20.0579
19.0876
18.2886
17.5993
16.974
16.3793
15.7911
15.193
14.5745
13.9312
13.2623
12.5712
11.8645
11.1515
10.4452
9.76275
9.12914
8.58032
8.1616
7.91337
7.85963
8.12052
9.15941
11.0692
16.2275
41.4608
24.357
21.0909
19.7786
18.9243
18.2716
17.7423
17.2883
16.8723
16.4644
16.0421
15.5902
15.0979
14.5577
13.9665
13.3309
12.6587
11.9598
11.2471
10.5357
9.8434
9.19128
8.60392
8.10333
7.70343
7.41473
7.27795
7.45086
8.3335
12.0554
30.1033
19.9456
18.0498
17.4543
17.1446
16.9353
16.7667
16.6078
16.4295
16.2148
15.9481
15.6155
15.2106
14.7355
14.1937
13.5901
12.9331
12.2355
11.5143
10.7874
10.0735
9.39126
8.75953
8.19947
7.7263
7.3401
7.04239
6.85897
6.83748
9.28671
26.9506
17.5027
16.132
15.9242
15.9691
16.079
16.1846
16.2674
16.2909
16.2366
16.0968
15.8724
15.5609
15.1552
14.6575
14.075
13.4217
12.715
11.9739
11.22
10.4738
9.75406
9.07786
8.45902
7.91456
7.46884
7.14897
6.95691
6.7643
8.95291
27.0129
16.3859
15.1312
15.1152
15.3702
15.6932
16.0078
16.2605
16.4231
16.5004
16.4955
16.3872
16.1643
15.8221
15.3623
14.7945
14.1358
13.4076
12.634
11.8397
11.0483
10.2803
9.55349
8.88375
8.29014
7.80274
7.49647
7.39798
7.31859
10.0921
27.7747
16.274
14.904
14.9353
15.2923
15.7428
16.1682
16.5012
16.7908
17.0092
17.134
17.1474
17.0272
16.7584
16.3384
15.7787
15.1015
14.336
13.5129
12.6617
11.8097
10.9798
10.1911
9.46083
8.81144
8.28753
8.009
8.10125
8.73069
14.6209
29.8584
16.7887
15.2065
15.2126
15.6162
16.1362
16.6377
17.0476
17.4205
17.7865
18.0671
18.2283
18.229
18.039
17.6497
17.0782
16.3589
15.5314
14.6352
13.7046
12.7723
11.8636
10.9982
10.1928
9.46893
8.8735
8.54825
8.68416
9.84846
18.672
32.8208
18.0262
16.0605
15.9723
16.3754
16.922
17.4485
17.9063
18.4835
19.044
19.518
19.8454
19.9635
19.8254
19.421
18.7836
17.9694
17.0353
16.0294
14.9917
13.954
12.9457
11.9864
11.0914
10.277
9.57631
9.10852
9.07333
10.3294
18.8659
36.5129
19.722
17.3569
17.1416
17.5109
18.0657
18.6234
19.2851
20.1066
20.9214
21.64
22.1685
22.4089
22.2858
21.7902
20.9903
19.9883
18.8768
17.7173
16.5389
15.3706
14.24
13.1687
12.1722
11.2617
10.4462
9.79444
9.53971
10.4769
17.7603
40.9246
21.7781
18.9944
18.6488
19.002
19.5624
20.1559
21.1606
22.3084
23.4672
24.5139
25.3149
25.7205
25.5907
24.9042
23.7987
22.4682
21.0692
19.6927
18.3504
17.0245
15.7512
14.5512
13.4437
12.4393
11.516
10.7245
10.3068
10.9291
17.5277
46.0091
24.1604
20.9208
20.4508
20.8014
21.4292
22.2461
23.5923
25.1429
26.7393
28.2467
29.479
30.1583
30.0003
28.9506
27.3269
25.4702
23.6301
21.9401
20.4006
18.9028
17.4618
16.123
14.8959
13.8039
12.752
11.9195
11.4817
12.0681
19.3882
51.7144
26.8301
23.1
22.5203
22.8674
23.5552
24.8477
26.5995
28.6343
30.8177
32.9992
34.9166
36.0984
35.8994
34.1502
31.6669
29.041
26.5741
24.4225
22.616
20.9685
19.3516
17.8488
16.4999
15.3137
14.2206
13.2677
12.9421
14.121
25.0433
57.9161
29.7327
25.4838
24.8097
25.2163
26.1049
27.886
30.1432
32.8047
35.7596
38.8552
41.8331
44.0109
43.7252
40.6271
36.7723
33.1183
29.8876
27.1517
25.003
23.1598
21.386
19.702
18.2202
16.95
15.8404
14.9964
14.8854
17.0713
33.0455
64.4562
32.7917
27.9987
27.2212
27.6786
29.0688
31.3111
34.1992
37.6429
41.5396
45.8103
50.1265
52.8121
52.0641
47.7496
42.2872
37.4673
33.4291
30.1185
27.4934
25.4275
23.5151
21.667
20.0406
18.6839
17.6289
16.8979
17.0055
19.7063
38.2567
71.1225
35.9242
30.5807
29.7113
30.3275
32.2467
35.0619
38.7074
43.0812
48.1437
53.6004
58.2422
59.8733
58.2139
53.7886
47.4645
41.7439
37.05
33.22
30.1262
27.769
25.6931
23.7197
21.9491
20.5068
19.4801
18.8371
19.0908
22.1948
42.2732
77.6838
39.0141
33.1255
32.1868
33.1611
35.5496
39.031
43.5329
49.0637
55.403
61.4742
64.538
62.5239
60.4892
57.6198
51.4883
45.594
40.5367
36.3243
32.8562
30.1515
27.8999
25.8098
23.9139
22.3664
21.2841
20.7147
21.1163
24.5133
47.1416
83.9185
41.9475
35.5493
34.6466
35.983
38.8577
43.016
48.4843
55.32
62.9817
69.8083
68.2927
64.6953
62.3185
59.7768
54.827
48.8345
43.7799
39.3525
35.6036
32.581
30.1302
27.9202
25.924
24.2587
23.0718
22.5533
23.101
26.8294
52.8681
89.7176
44.6464
37.8242
37.0228
38.6535
41.9816
46.7814
53.1956
61.2578
70.2369
76.4745
72.1683
68.0537
65.2716
61.832
57.1645
51.8274
46.8288
42.2731
38.3031
35.0288
32.4026
30.0674
27.9729
26.2178
24.9439
24.4028
25.0623
29.2929
58.7844
95.0689
47.0806
39.908
39.2021
41.0768
44.7531
50.0622
57.0761
65.8951
75.4585
80.3478
76.2807
71.9079
68.3864
64.5075
59.1833
54.2984
49.7148
45.1719
40.9338
37.5018
34.7272
32.2536
30.0669
28.2436
26.9167
26.3417
27.0773
31.8607
64.0411
99.8542
49.2007
41.7427
41.1306
43.2145
47.1486
52.7328
59.9789
68.9508
78.6477
82.602
79.1127
74.8883
71.1746
67.0541
61.1624
56.3378
52.2674
47.8162
43.5514
40.0367
37.0783
34.4735
32.1974
30.3141
28.9581
28.3979
29.2494
34.4132
68.5671
103.976
51.0106
43.3217
42.8056
45.0934
49.2549
54.9987
62.1881
70.5925
79.2767
82.4571
79.307
76.0446
73.7176
69.1183
62.7702
57.8826
53.813
50.3064
46.0885
42.4975
39.4267
36.7231
34.3637
32.4193
31.0387
30.5081
31.5399
37.1243
73.3915
108.104
52.7451
44.6896
44.1493
46.7258
51.2058
57.1966
64.2808
71.877
78.5097
81.5079
79.0394
76.8144
76.346
72.0777
65.0301
59.4749
55.0945
51.9418
48.2538
44.8231
41.8096
39.0477
36.5987
34.5758
33.1582
32.6593
33.8868
40.1081
79.2983
113.597
54.633
45.3437
44.9832
48.0093
52.9537
59.4595
66.2951
73.2824
78.2328
81.2153
80.4857
78.696
78.636
75.8092
68.1089
61.6345
56.8825
53.5007
50.2336
47.2447
44.4479
41.5922
38.9746
36.8153
35.3277
34.8509
36.2811
43.2192
86.1529
121.66
56.9038
47.511
46.4513
48.8758
54.0652
60.9343
67.6491
73.0903
76.9824
79.9717
81.0168
79.9154
78.862
77.3055
70.7634
63.7862
59.0357
55.4294
52.2659
49.8786
47.599
44.5137
41.5544
39.1597
37.5455
37.0651
38.6901
46.3567
93.5533
128.262
60.247
50.1741
48.7601
50.6174
55.2399
61.3833
66.106
70.0294
73.8722
76.9859
78.538
78.1323
76.7143
75.1277
70.7235
64.7354
60.5596
57.1908
54.2605
52.6018
50.9895
47.8241
44.3279
41.5756
39.7773
39.2627
41.0636
49.4439
101.174
133.046
62.6534
51.7724
50.0279
51.5789
55.381
59.6545
63.059
66.4717
69.8005
72.5593
73.9271
73.7114
72.6338
71.3385
68.4343
64.2099
60.8729
58.0797
55.8908
54.9231
53.3585
50.865
47.1276
43.9443
41.9497
41.3893
43.3459
52.3951
108.993
138.047
63.919
52.4856
50.2936
51.3652
54.219
57.4943
60.47
63.3283
65.9809
68.0992
69.187
69.1495
68.5486
67.8208
66.032
63.1924
60.6241
58.5691
57.3002
56.7126
54.5943
52.8747
49.4553
46.1189
43.9713
43.3811
45.4675
55.0486
115.82
140.217
64.3072
52.5808
50.0464
50.5904
52.6832
55.524
58.1958
60.6648
62.8035
64.4462
65.3476
65.4911
65.2378
65.0359
64.2706
62.3747
60.4166
59.1302
58.7785
58.2523
55.9808
54.3077
51.4558
48.1074
45.7706
45.2066
47.4545
57.4642
118.871
140.846
64.3971
52.3501
49.5335
49.5668
51.0158
53.444
56.0258
58.3367
60.2403
61.6151
62.4716
62.8054
62.7825
62.9215
62.8897
61.7284
60.4327
59.8547
60.3033
59.7107
57.6521
55.9348
53.0357
49.7518
47.4955
46.9734
49.5352
60.5731
128.044
140.503
64.2242
51.9122
48.8445
48.538
49.508
51.3365
53.6995
56.1659
58.0168
59.2817
60.2134
60.804
61.0072
61.3101
61.7548
61.2557
60.6402
60.7151
61.7371
61.1008
59.3356
57.6674
54.5028
51.0214
48.9037
48.6436
51.548
63.5609
136.341
139.307
63.7625
51.3866
48.1206
47.5777
48.2103
49.6011
51.4965
53.6335
55.8033
57.3583
58.4124
59.3045
59.8106
60.2142
61.0062
61.1378
61.121
61.739
63.1787
62.4386
60.7551
59.1346
55.8767
52.2989
50.2597
50.1224
53.1951
65.6003
140.635
137.316
63.116
50.855
47.4722
46.7948
47.2501
48.3473
49.8712
51.6857
53.6233
55.5417
57.1354
58.3743
59.24
59.8471
60.9303
61.694
62.1083
63.0328
64.7127
63.8966
62.0758
60.4378
57.1549
53.7798
51.806
51.7045
54.8855
67.4742
142.945
135.085
62.5467
50.5144
47.1154
46.3992
46.8388
47.8686
49.2111
50.7359
52.4063
54.1795
56.0888
57.9388
59.5802
60.4891
61.593
62.944
63.6212
64.5058
66.1535
65.2884
63.3079
61.6759
58.3923
55.2826
53.4531
53.4653
56.8546
70.0475
149.016
133.261
62.3229
50.5683
47.2509
46.5785
47.0581
48.113
49.4534
50.9294
52.4842
54.0842
55.8808
57.9594
60.2177
61.8421
62.9163
64.4218
65.2973
65.9584
67.2854
66.3776
64.3281
62.7921
59.6037
56.8099
55.1906
55.3997
59.1099
73.1557
157.606
132.556
62.603
51.1185
47.9525
47.3863
47.951
49.0743
50.4726
51.9989
53.5862
55.2051
56.929
58.8754
61.0821
63.0898
64.5724
65.9235
66.7932
67.3185
68.3086
67.2784
65.251
63.8074
60.9728
58.5041
57.107
57.5635
61.7368
76.9161
166.731
133.056
63.5713
52.3568
49.3723
48.9545
49.6525
50.8964
52.4075
54.0462
55.7474
57.483
59.2619
61.1263
63.0825
64.9119
66.4018
67.665
68.3658
68.7427
69.5006
68.6106
66.622
65.2734
62.9308
60.6822
59.3946
60.0477
64.8343
82.3859
186.433
135.419
65.4919
54.376
51.5564
51.3256
52.2182
53.6514
55.34
57.1483
59.0146
60.9043
62.7938
64.6633
66.452
68.0024
69.1956
70.0935
70.6065
70.7577
71.2407
70.8167
68.9334
67.7074
65.78
63.5665
62.1939
62.8598
67.95
87.2568
206.98
140.343
68.4765
57.2627
54.5839
54.5827
55.749
57.4641
59.4136
61.4648
63.5723
65.6874
67.7502
69.6911
71.4095
72.7724
73.6933
74.1985
74.3063
74.0081
73.9568
73.8347
72.2209
71.0875
69.4886
67.4101
65.5235
65.6597
70.3849
88.9445
204.748
147.749
72.6586
61.0881
58.4995
58.769
60.3102
62.4399
64.7618
67.1438
69.6021
72.0625
74.4184
76.5491
78.3185
79.5913
80.2787
80.3953
79.9638
79.0298
77.9316
77.3176
76.0192
74.7687
73.64
71.6892
69.207
68.5876
72.3741
89.0355
193.528
157.952
78.0651
65.8424
63.2698
63.8149
65.8164
68.5561
71.4389
74.2746
77.2411
80.2358
83.0831
85.5934
87.584
88.8843
89.3919
89.0983
88.0248
86.232
83.9077
81.6605
80.0191
78.6153
77.3078
75.4873
72.9245
71.8516
74.4619
90.2053
188.946
171.355
84.6276
71.355
68.634
69.3766
71.8327
75.3368
79.1037
82.7159
86.5253
90.3816
94.0306
97.2124
99.6754
101.185
101.609
100.905
99.1006
96.2758
92.5598
88.3177
85.0812
83.0171
81.088
78.7465
76.4759
75.4373
77.2728
90.6656
178.676
188.191
91.9523
77.2642
74.2354
75.036
77.8421
82.1731
87.0411
92.1196
97.3807
102.632
107.557
111.84
115.146
117.149
117.655
116.595
114.018
110.076
104.952
98.873
92.7899
88.9684
86.2573
83.7604
82.1209
80.8665
81.9584
93.2418
170.529
207.341
99.7389
83.315
79.8991
80.8671
84.2055
89.1569
95.4363
102.526
109.847
117.147
123.981
129.961
134.643
137.563
138.413
137.098
133.727
128.604
122.094
114.498
106.284
99.314
95.0728
92.7329
90.7939
89.0247
89.837
101.094
176.685
225.677
107.551
89.5651
86.0859
87.728
92.0117
97.6517
105.286
114.376
124.208
134.168
143.64
152.105
158.929
163.4
164.966
163.476
159.157
152.61
144.534
135.462
125.908
117.058
110.55
106.444
102.866
100.287
101.218
114.671
204.532
244.398
115.834
96.6398
93.4079
95.8306
101.149
108.171
116.972
128.154
140.793
153.933
166.853
178.837
188.914
195.892
198.692
196.981
191.229
182.605
172.424
161.541
150.447
140.061
131.428
124.44
118.62
114.901
116.032
132.557
249.244
269.085
125.423
104.644
101.568
104.75
111.268
119.976
130.611
144.074
159.668
176.519
193.848
210.705
225.637
236.54
241.319
239.258
231.048
219.069
205.811
192.559
179.428
167.266
156.267
146.411
138.079
132.8
133.994
153.891
300.023
289.058
134.884
113.098
110.108
114.008
121.815
132.414
145.419
161.453
180.452
201.744
224.616
247.977
269.87
287.33
295.524
292.575
279.852
262.301
244.464
228.197
213.383
199.187
185.01
171.676
160.337
153.328
154.5
178.622
360.651
299.848
143.189
120.893
118.092
123.095
132.257
144.803
160.17
179.26
202.502
229.161
258.7
290.056
321.961
349.676
363.391
358.73
337.799
311.264
286.708
264.793
249.073
232.894
215.076
198.2
183.617
175.094
176.723
206.264
430.157
327.168
154.608
129.133
125.982
131.645
142.573
157.078
175.187
198.026
226.038
258.568
295.143
335.711
377.714
414.34
437.741
433.711
403.578
363.497
328.236
306.283
288.18
269.404
248.981
227.521
209.07
198.555
200.942
236.315
507.961
353.983
162.03
135.123
133.3
140.068
152.763
170.64
192.702
219.497
251.932
289.958
333.269
381.148
429.51
469.997
501.555
510.128
469.804
416.123
377.475
351.422
330.137
307.458
281.457
255.864
236.159
224.701
227.125
268.469
584.454
356.223
164.881
141.013
142.466
150.809
165.712
186.35
212.265
243.17
279.662
322.396
371.146
423.083
473.161
515.696
547.526
559.358
523.396
469.839
431.872
400.061
374.21
343.586
313.374
286.775
266.086
253.461
255.909
300.631
627.455
350.925
172.837
153.312
155.378
164.911
181.486
204.33
233.962
268.555
308.082
354.709
408.07
464.323
517.233
563.649
591.88
593.572
565.907
521.392
484.739
448.24
414.922
380.444
348.314
320.923
299.615
286.556
287.473
330.754
664.101
372.515
193.23
170.64
171.304
181.619
199.33
224.275
257.329
294.333
335.755
386.648
445.844
508.493
567.629
621.438
647.771
643.492
624.555
580.795
539.367
499.013
459.814
420.197
385.569
358.071
338.567
326.81
326.64
363.769
695.614
426.29
219.123
190.535
189.219
199.829
218.936
245.935
280.391
317.804
361.601
418.841
485.371
556.32
626.044
691.658
719.118
712.741
705.114
653.7
601.18
557.007
508.369
461.931
424.309
398.032
384.429
380.53
378.036
412.006
726.72
472.628
245.233
212.075
208.531
219.194
239.833
269.854
303.091
339.394
388.108
451.856
525.574
604.868
687.172
771.442
807.736
802.873
808.73
738.412
672.723
618.83
559.102
504.267
462.91
437.837
431.274
431.201
429
476.462
827.815
499.357
269.376
236.33
229.223
239.125
261.024
293.065
326.78
363.165
416.562
485.831
564.801
649.617
742.743
849.058
905.345
900.985
923.616
834.355
750.76
680.165
608.733
544.606
497.191
471.147
462.605
455.173
457.027
531.714
1096.91
570.221
299.045
260.503
249.737
258.407
281.312
313.648
348.027
388.462
447.702
521.393
602.833
688.829
786.889
907.352
987.103
990.173
1039.23
941.24
834.278
741.128
654.883
578.93
520.975
481.626
462.96
451.148
454.195
538.541
1163.61
617.368
309.239
272.517
263.569
274.263
299.585
332.482
369.913
418.665
482.394
558.985
640.904
725.389
820.165
937.592
1032.15
1056.8
1119.68
1040.5
922.536
805.447
698.382
607.049
535.263
481.07
449.849
437.705
441.483
520.054
1072.47
571.496
306.069
271.463
268.613
286.899
316.53
353.432
397.187
452.109
520.193
598.191
680.408
763.75
851.682
951.331
1045.83
1096.76
1141.44
1098.19
1003.55
871.133
740.001
630.375
544.988
478.742
433.599
418.376
421.551
486.602
936.617
496.489
308.41
273.434
275.423
300.159
335.297
376.618
426.044
486.922
558.488
636.432
717.482
800.924
886.902
966.809
1044.8
1115.98
1142.28
1111.91
1048.84
922.834
774.283
647.476
552.138
480.647
425.612
400.676
401.387
453.36
847.425
528.377
323.613
286.793
291.126
316.871
357.212
403.149
454.558
517.298
587.616
662.841
736.011
812.03
893.736
960.983
1021.81
1086.55
1097.2
1078.64
1038.13
933.078
781.944
647.943
553.101
490.302
433.981
394.171
387.44
426.758
769.729
652.508
346.35
319.248
317.633
333.929
371.136
416.437
468.904
528.143
594.574
660.64
722.333
787.216
856.595
915.234
962.44
1004.94
1010.34
1008.14
990.777
904.423
763.929
640.172
553.745
495.937
450.082
406.909
387.354
416.438
697.292
709.031
370.217
344.742
349.055
357.007
379.311
415.075
462.245
519.515
580.689
636.013
688.823
744.017
800.577
850.175
886.985
914.273
927.053
935.408
932.546
861.689
734.696
623.548
547.054
493.836
454.173
423.695
404.976
429.119
696.788
753.065
379.26
345.476
355.804
370.034
385.965
414.301
456.138
507.164
556.836
602.05
647.787
694.999
741.989
784.797
820.395
845.213
861.883
870.444
873.043
815.803
702.091
600.378
530.888
483.589
447.743
423.132
417.749
465.352
805.3
748.468
376.435
335.358
343.739
363.399
385.29
413.219
450.563
491.07
527.783
565.749
605.739
646.833
687.342
725.576
760.863
788.087
802.411
808.744
812.62
765.576
665.195
572.839
508.849
466.439
433.604
411.194
410.124
477.059
961.505
666.487
363.849
326.842
335.367
356.642
383.354
412.822
442.425
470.617
499.841
532.365
567.093
602.771
637.845
671.314
702.43
727.262
740.654
747.751
751.992
714.217
628.032
545.053
485.302
445.878
415.361
392.951
390.452
447.7
913.08
590.858
356.945
325.507
334.304
356.49
385.577
410.911
429.739
450.376
475.138
502.846
532.561
563.159
593.127
621.526
647.595
668.823
682.447
691.795
697.608
669.466
596.225
520.635
462.931
423.98
395.181
373.291
369.581
420.777
845.779
644.241
368.332
333.544
338.214
358.93
386.96
401.464
414.399
431.845
452.962
476.468
501.692
527.698
553.06
577.071
599.122
617.84
632.161
644.146
652.715
634.427
572.159
501.378
443.633
402.804
374.951
354.306
349.944
396.396
780.167
753.686
393.502
343.354
342.852
361.505
376.124
385.932
398.258
413.97
432.304
452.382
473.81
495.828
517.351
537.994
557.311
574.674
589.967
604.289
615.239
605.54
554.095
486.759
428.114
384.64
356.263
337.22
332.693
375.928
726.43
875.907
421.568
356.297
346.988
351.975
359.551
369.666
381.966
396.451
412.667
430.01
448.269
466.931
485.343
503.45
520.945
537.644
553.804
569.672
581.773
577.05
536.996
474.57
415.459
370.122
340.543
322.696
318.584
360.169
682.553
968.383
441.574
360.795
340.389
338.818
344.911
354.525
366.21
379.527
393.964
409.002
424.596
440.445
456.374
472.486
488.632
504.873
521.463
537.975
550.251
547.187
515.404
460.629
403.968
358.145
327.529
310.681
307.484
346.755
644.044
1003.83
440.552
355.882
332.591
328.35
332.563
340.901
351.487
363.466
376.201
389.218
402.499
416.03
429.94
444.421
459.445
475.176
491.733
508.194
520.182
517.6
489.495
443.075
392.411
347.791
316.735
300.242
298.504
335.307
623.999
1010.05
434.324
347.816
324.192
319.052
321.847
328.724
337.905
348.395
359.462
370.593
381.872
393.481
405.734
418.851
432.896
448.048
464.304
480.471
492.129
489.557
462.43
422.013
379.661
339.252
308.201
291.52
290.963
325.949
626.789
990.329
425.123
337.25
314.487
310.159
312.235
317.732