/*--------------------------------*- C++ -*----------------------------------*\
| =========                 |                                                 |
| \\      /  F ield         | OpenFOAM: The Open Source CFD Toolbox           |
|  \\    /   O peration     | Version:  2.3.0                                 |
|   \\  /    A nd           | Web:      www.OpenFOAM.org                      |
|    \\/     M anipulation  |                                                 |
\*---------------------------------------------------------------------------*/
FoamFile
{
    version     2.0;
    format      ascii;
    class       surfaceScalarField;
    location    "1.12";
    object      phi.particles;
}
// * * * * * * * * * * * * * * * * * * * * * * * * * * * * * * * * * * * * * //

dimensions      [0 3 -1 0 0 0 0];

internalField   nonuniform List<scalar> 
11770
(
-3.98539e-06
-1.57277e-05
-4.80228e-06
-1.28606e-05
-3.69767e-06
-8.66585e-06
-4.64374e-06
-5.65071e-06
-4.30174e-06
-7.13385e-06
-2.5856e-06
-7.45149e-06
-3.48573e-06
-1.02025e-05
-5.70587e-06
-1.12982e-05
-6.55975e-06
-6.85395e-06
-4.44287e-06
-3.65011e-06
-2.72976e-06
-1.72835e-06
-5.41827e-07
-1.37219e-06
-1.24736e-06
-3.75029e-06
-5.54437e-06
-3.83985e-06
-7.76957e-06
-1.25174e-06
-8.56475e-06
6.67875e-07
-9.30265e-06
3.93075e-07
-1.00543e-05
-1.14153e-06
-1.03638e-05
-1.19172e-06
-9.53672e-06
-7.67425e-07
-8.03754e-06
-6.19504e-07
-6.26628e-06
-5.50921e-07
-4.39906e-06
-5.83658e-07
-1.24462e-06
-1.58146e-06
1.23549e-07
-4.1439e-06
-1.56037e-06
-1.02653e-05
-3.01635e-06
-1.29936e-05
-2.77274e-06
-1.31334e-05
-1.26889e-06
-1.16773e-05
-9.56625e-06
3.33232e-06
-1.74488e-06
6.69462e-06
-4.08636e-06
8.25903e-06
1.09433e-07
4.45699e-06
9.81927e-06
-3.63571e-06
1.33795e-05
-8.06587e-06
1.27804e-05
-8.10813e-06
1.0263e-05
-6.62604e-06
9.63265e-06
-4.87296e-06
9.74393e-06
-3.94552e-06
8.63415e-06
-5.09669e-06
1.12539e-05
-6.97152e-06
1.056e-05
-8.29493e-06
9.88554e-06
-9.79507e-06
8.12465e-06
-1.09433e-05
8.41866e-06
-1.14122e-05
9.98981e-06
-1.14161e-05
1.06593e-05
-1.11706e-05
1.04259e-05
-1.04444e-05
9.14938e-06
-9.2965e-06
6.40426e-06
-8.09555e-06
5.22333e-06
-6.97246e-06
5.93466e-06
-5.67247e-06
6.6521e-06
-3.93319e-06
5.94707e-06
-3.03418e-06
1.04345e-05
-3.96221e-06
9.89629e-06
-4.56954e-06
7.56432e-06
-3.91104e-06
6.30362e-06
-3.3231e-06
5.71034e-06
4.43466e-06
3.70821e-06
-3.9646e-06
9.19766e-06
-8.95734e-06
1.1161e-05
-7.35143e-06
6.75077e-06
5.75352e-06
-4.87742e-06
1.57238e-05
-1.03956e-05
1.17377e-05
-8.41371e-06
8.0806e-06
-4.2563e-06
7.81115e-06
-7.68377e-07
6.41109e-06
-1.07296e-06
3.61325e-06
-4.33982e-06
3.38808e-06
-7.81026e-06
-2.48897e-06
-9.86507e-06
-5.45246e-06
-1.09159e-05
-6.83477e-06
-1.23836e-05
-8.5356e-06
-1.32688e-05
-9.18314e-06
-1.22295e-05
-9.93825e-06
-9.62124e-06
-1.08622e-05
-6.84952e-06
-1.34285e-05
-5.58383e-06
-1.5713e-05
-5.87657e-06
-1.56474e-05
-6.42529e-06
-1.36864e-05
-7.18394e-06
-1.06725e-05
-9.08782e-06
-6.22444e-06
-8.89264e-06
1.98014e-06
-6.75551e-06
6.54294e-06
-3.52276e-06
3.43303e-06
-4.60401e-07
1.74051e-06
6.76698e-07
1.38835e-06
8.07222e-07
5.53036e-06
-4.48567e-06
1.17005e-05
-1.07838e-05
1.25495e-05
-9.45611e-06
8.30432e-06
2.07437e-06
-3.10065e-06
1.82461e-05
-9.04886e-06
1.32351e-05
-6.53918e-06
4.42704e-06
-1.80375e-06
2.2874e-06
9.80311e-07
1.68243e-06
-8.85675e-07
-2.04386e-06
-5.51996e-06
-7.25479e-06
-1.04751e-05
-1.76672e-05
-1.24287e-05
-2.43601e-05
-1.22202e-05
-2.69788e-05
-1.20767e-05
-2.83888e-05
-1.14443e-05
-2.87875e-05
-9.51387e-06
-2.97043e-05
-6.72635e-06
-3.061e-05
-4.78049e-06
-3.18406e-05
-3.85468e-06
-3.23957e-05
-3.59231e-06
-3.14214e-05
-4.39851e-06
-2.85586e-05
-6.79155e-06
-2.3428e-05
-1.14174e-05
-1.53652e-05
-1.41865e-05
-6.18728e-06
-9.90746e-06
-2.66696e-06
-3.4193e-06
-4.39301e-06
1.45111e-06
-4.70099e-06
3.21779e-06
-1.47417e-06
8.68944e-07
7.59916e-06
-8.06568e-06
1.43503e-05
-1.45389e-05
1.40809e-05
-1.31547e-05
9.1302e-06
-3.11673e-06
1.58416e-06
1.68268e-05
-2.88442e-06
1.0161e-05
-3.14754e-06
-3.20146e-06
-2.34589e-06
-6.77664e-06
-3.15211e-06
-8.30603e-06
-7.59528e-06
-1.35187e-05
-1.22994e-05
-2.05291e-05
-1.37241e-05
-2.89404e-05
-1.29861e-05
-3.5376e-05
-1.23151e-05
-3.78307e-05
-1.08454e-05
-3.85306e-05
-8.52944e-06
-3.81902e-05
-6.82855e-06
-3.8511e-05
-5.87087e-06
-3.92302e-05
-5.07696e-06
-3.89346e-05
-4.16839e-06
-3.83596e-05
-3.39684e-06
-3.69784e-05
-3.42376e-06
-3.43894e-05
-5.17157e-06
-3.01582e-05
-7.88837e-06
-2.48197e-05
-1.0034e-05
-1.86219e-05
-8.16568e-06
-1.48638e-05
-3.70507e-06
-1.45936e-05
7.94412e-07
-1.44559e-05
3.58013e-06
-1.01291e-05
-5.03884e-06
7.18902e-06
-1.35752e-05
1.31341e-05
-1.97857e-05
1.10594e-05
-1.86595e-05
7.3483e-06
-1.12634e-05
5.15246e-06
5.53487e-06
2.07515e-06
-3.00551e-06
-2.08586e-06
-1.43113e-05
-7.19388e-06
-1.70407e-05
-1.25066e-05
-1.98639e-05
-1.61104e-05
-2.4e-05
-1.5431e-05
-2.58512e-05
-1.28645e-05
-2.84708e-05
-1.03574e-05
-3.35186e-05
-8.07305e-06
-3.72471e-05
-5.78278e-06
-3.81535e-05
-3.98311e-06
-3.69782e-05
-3.86049e-06
-3.68237e-05
-4.37425e-06
-3.71292e-05
-4.05129e-06
-3.63079e-05
-3.61422e-06
-3.50558e-05
-3.7964e-06
-3.35851e-05
-4.24025e-06
-3.12911e-05
-4.49559e-06
-2.88111e-05
-3.81772e-06
-2.67073e-05
-2.41254e-06
-2.4519e-05
-1.02586e-06
-2.26237e-05
3.05562e-07
-2.20585e-05
2.00257e-06
-2.1522e-05
2.73113e-06
-1.92647e-05
-1.58214e-05
5.42517e-06
-1.86759e-05
8.82925e-06
-2.43513e-05
4.11476e-06
-2.23706e-05
3.49053e-06
-1.82967e-05
4.7942e-06
-1.07963e-05
9.2045e-07
-1.86858e-05
-5.68033e-06
-2.46685e-05
-1.32794e-05
-2.51498e-05
-1.80481e-05
-2.63018e-05
-1.77324e-05
-2.72566e-05
-1.44008e-05
-2.74955e-05
-1.08602e-05
-2.74296e-05
-8.4101e-06
-2.92617e-05
-6.1044e-06
-3.27908e-05
-3.84575e-06
-3.47075e-05
-2.88077e-06
-3.34177e-05
-3.12013e-06
-3.32357e-05
-3.38933e-06
-3.33494e-05
-3.00702e-06
-3.21908e-05
-2.17204e-06
-3.07072e-05
-1.85418e-06
-2.91566e-05
-2.50718e-06
-2.76546e-05
-2.07797e-06
-2.63794e-05
-4.15589e-07
-2.45586e-05
1.50676e-06
-2.31622e-05
2.89374e-06
-2.28473e-05
3.10684e-06
-2.39261e-05
1.42821e-06
-2.48664e-05
-2.90874e-07
-2.45733e-05
-2.40855e-05
3.45323e-06
-2.15267e-05
3.18666e-06
-2.56414e-05
-2.60401e-06
-2.1543e-05
-1.90001e-06
-2.04491e-05
-1.92208e-07
-1.95663e-05
-3.76034e-06
-2.42246e-05
-1.03322e-05
-2.58318e-05
-1.65037e-05
-2.55974e-05
-1.83688e-05
-2.68348e-05
-1.59436e-05
-2.86265e-05
-1.19927e-05
-2.93173e-05
-9.47432e-06
-2.83891e-05
-7.45028e-06
-2.78813e-05
-4.63464e-06
-2.88715e-05
-2.72975e-06
-3.06839e-05
-2.92711e-06
-2.95256e-05
-4.06535e-06
-2.97952e-05
-4.164e-06
-2.99861e-05
-2.78776e-06
-2.90146e-05
-1.42682e-06
-2.75539e-05
-3.76162e-07
-2.56971e-05
3.94513e-07
-2.39967e-05
6.24034e-07
-2.23203e-05
1.24318e-06
-2.04392e-05
3.05775e-06
-1.91047e-05
4.33626e-06
-1.91868e-05
3.48746e-06
-2.11243e-05
-2.23048e-07
-2.40087e-05
-1.47751e-06
-2.30509e-05
-2.51968e-05
1.85342e-06
-2.24744e-05
-1.45233e-06
-2.42188e-05
-7.78372e-06
-1.87726e-05
-6.06175e-06
-1.97942e-05
-4.52063e-06
-2.04567e-05
-7.50757e-06
-2.16856e-05
-1.31935e-05
-2.15656e-05
-1.77768e-05
-2.22522e-05
-1.79154e-05
-2.51192e-05
-1.47946e-05
-2.87358e-05
-1.09709e-05
-2.98124e-05
-8.12628e-06
-2.92002e-05
-6.17728e-06
-2.79551e-05
-3.32851e-06
-2.74029e-05
-8.48396e-07
-2.72814e-05
-9.46599e-07
-2.58813e-05
-1.87896e-06
-2.64441e-05
-2.71079e-06
-2.60657e-05
-2.29296e-06
-2.45377e-05
-7.18905e-07
-2.25979e-05
7.72311e-07
-2.06725e-05
1.59939e-06
-1.86683e-05
2.12873e-06
-1.6753e-05
2.82964e-06
-1.49478e-05
3.49838e-06
-1.35363e-05
3.08376e-06
-1.34637e-05
4.58182e-07
-1.56518e-05
-2.16278e-06
-1.93518e-05
-1.37289e-06
-1.85095e-05
-2.14589e-05
5.45068e-08
-2.07884e-05
-5.11221e-06
-2.13889e-05
-1.12139e-05
-1.61117e-05
-8.87109e-06
-1.74267e-05
-8.02266e-06
-1.77051e-05
-1.17876e-05
-1.67438e-05
-1.62344e-05
-1.66026e-05
-1.77034e-05
-1.88032e-05
-1.56888e-05
-2.32836e-05
-1.26361e-05
-2.64624e-05
-1.04391e-05
-2.72213e-05
-7.91756e-06
-2.76772e-05
-5.19524e-06
-2.71917e-05
-1.69432e-06
-2.62961e-05
9.83618e-07
-2.42503e-05
1.2403e-06
-2.30104e-05
7.35889e-07
-2.31933e-05
5.21086e-07
-2.19424e-05
1.04275e-06
-1.94838e-05
2.08333e-06
-1.68527e-05
3.49752e-06
-1.4658e-05
4.67718e-06
-1.28027e-05
5.15483e-06
-1.09227e-05
5.13756e-06
-8.80892e-06
4.49866e-06
-7.16746e-06
2.32145e-06
-7.00835e-06
-1.07351e-06
-9.10453e-06
-2.76922e-06
-1.29258e-05
-2.6507e-06
-1.35924e-05
-1.26452e-05
-4.32278e-06
-1.53608e-05
-1.27599e-05
-1.77416e-05
-1.80846e-05
-1.43276e-05
-1.47433e-05
-1.5108e-05
-1.48622e-05
-1.44757e-05
-1.69465e-05
-1.32243e-05
-1.80316e-05
-1.38623e-05
-1.66602e-05
-1.63641e-05
-1.33188e-05
-2.06007e-05
-1.05269e-05
-2.2067e-05
-8.58577e-06
-2.27922e-05
-6.5129e-06
-2.4039e-05
-4.4126e-06
-2.37976e-05
-6.01439e-07
-2.28108e-05
2.51516e-06
-2.05032e-05
3.04878e-06
-1.99072e-05
2.76548e-06
-1.94834e-05
2.51844e-06
-1.75945e-05
2.9817e-06
-1.4719e-05
4.42671e-06
-1.16478e-05
6.37078e-06
-8.95084e-06
7.55786e-06
-6.25931e-06
6.6744e-06
-3.84653e-06
4.40907e-06
-2.34808e-06
2.42921e-06
-1.76143e-06
9.11412e-07
-2.08519e-06
-7.99345e-07
-3.50723e-06
-3.0781e-06
-6.06593e-06
-4.69412e-06
-8.22266e-06
-4.70808e-06
-5.8244e-06
-9.29512e-06
-1.70535e-05
-1.339e-05
-2.32403e-05
-1.2806e-05
-2.02741e-05
-1.38714e-05
-1.97392e-05
-1.26242e-05
-1.91697e-05
-1.21387e-05
-1.77914e-05
-1.3238e-05
-1.46646e-05
-1.48137e-05
-1.07992e-05
-1.69168e-05
-8.68583e-06
-1.7528e-05
-7.29821e-06
-1.89723e-05
-5.18668e-06
-2.01795e-05
-2.31621e-06
-1.96746e-05
1.51405e-06
-1.85501e-05
4.42489e-06
-1.68553e-05
5.53352e-06
-1.63671e-05
6.02555e-06
-1.51811e-05
6.11406e-06
-1.32223e-05
6.35218e-06
-9.82477e-06
7.37259e-06
-5.6663e-06
7.53349e-06
-2.04937e-06
5.68339e-06
4.14453e-07
3.33213e-06
1.74013e-06
1.66602e-06
1.95716e-06
6.64316e-07
1.56351e-06
-1.17628e-07
8.46958e-07
-9.91621e-07
-1.83316e-07
-1.87201e-06
-1.75435e-06
-3.68708e-06
-3.16579e-06
-2.76012e-06
-3.41372e-06
-6.5026e-06
-1.73438e-05
-9.38023e-06
-2.55629e-05
-1.09858e-05
-2.30187e-05
-1.30198e-05
-2.12392e-05
-1.16492e-05
-1.92452e-05
-1.18431e-05
-1.65064e-05
-1.27953e-05
-1.19174e-05
-1.32316e-05
-7.15169e-06
-1.38893e-05
-4.60104e-06
-1.4297e-05
-3.21598e-06
-1.5316e-05
-1.91926e-06
-1.59276e-05
1.06513e-06
-1.53208e-05
4.88787e-06
-1.3997e-05
7.2539e-06
-1.23381e-05
8.70469e-06
-1.15821e-05
9.62489e-06
-1.02373e-05
9.71609e-06
-8.06893e-06
9.08933e-06
-3.7838e-06
7.66296e-06
8.94967e-07
5.47697e-06
3.52208e-06
3.53141e-06
4.3911e-06
2.29409e-06
4.4331e-06
1.48854e-06
4.06918e-06
8.27028e-07
3.40675e-06
2.74639e-07
2.54726e-06
-1.39643e-07
1.53969e-06
-5.43378e-07
3.76937e-07
-1.15975e-06
-9.65477e-07
-1.86923e-06
-3.33297e-06
-5.01788e-06
-1.84876e-05
-5.71535e-06
-2.60388e-05
-9.00371e-06
-2.33724e-05
-1.19441e-05
-2.08348e-05
-1.05094e-05
-1.758e-05
-1.08965e-05
-1.2842e-05
-1.08754e-05
-6.97414e-06
-1.09846e-05
-1.10843e-06
-1.11976e-05
2.2469e-06
-1.13494e-05
3.34922e-06
-1.13851e-05
3.92925e-06
-1.04671e-05
5.81483e-06
-8.35258e-06
8.02837e-06
-7.06984e-06
9.72561e-06
-6.08782e-06
1.13586e-05
-5.50808e-06
1.23265e-05
-4.40263e-06
1.13124e-05
-1.84331e-06
8.78915e-06
2.57634e-06
6.34227e-06
5.26617e-06
4.80747e-06
6.14815e-06
3.8497e-06
6.33038e-06
3.02714e-06
6.088e-06
2.23092e-06
5.5524e-06
1.45684e-06
4.7959e-06
7.69532e-07
3.86126e-06
2.50296e-07
2.79136e-06
-2.91662e-08
1.63362e-06
-1.73312e-07
3.6801e-07
-7.18644e-07
-2.41204e-06
-3.35674e-06
-1.81848e-05
-1.32382e-06
-2.56272e-05
-5.95257e-06
-2.24459e-05
-1.00272e-05
-1.87462e-05
-7.56741e-06
-1.28518e-05
-8.09067e-06
-5.81689e-06
-7.1285e-06
5.08488e-07
-7.71928e-06
6.44797e-06
-7.76247e-06
9.67756e-06
-7.16588e-06
1.02241e-05
-6.42186e-06
9.2081e-06
-3.42861e-06
8.33962e-06
-5.64649e-07
8.93038e-06
5.94123e-08
1.09836e-05
8.30059e-08
1.29217e-05
2.95033e-07
1.27733e-05
1.36905e-06
1.03893e-05
3.81589e-06
7.90275e-06
6.23612e-06
6.66781e-06
7.26197e-06
5.82881e-06
7.63315e-06
5.0326e-06
7.62355e-06
4.14682e-06
7.3413e-06
3.185e-06
6.81895e-06
2.2131e-06
6.05982e-06
1.32121e-06
5.06922e-06
6.0361e-07
3.89085e-06
1.18962e-07
2.61556e-06
-1.15431e-07
1.3274e-06
2.07871e-07
-2.09021e-06
-1.40749e-06
-1.75061e-05
1.74198e-06
-2.40176e-05
-3.04723e-06
-1.87332e-05
-6.79466e-06
-1.23043e-05
-2.23766e-06
-5.4143e-06
-3.08806e-06
1.7297e-06
-2.64464e-06
8.11488e-06
-3.57065e-06
1.33749e-05
-2.94854e-06
1.57507e-05
-1.48719e-06
1.36249e-05
1.02637e-06
1.01318e-05
4.86413e-06
9.1194e-06
6.16714e-06
1.02919e-05
5.85875e-06
1.20089e-05
5.19208e-06
1.2786e-05
4.74463e-06
1.16641e-05
5.2723e-06
9.7397e-06
6.71433e-06
8.66379e-06
7.7988e-06
7.96136e-06
8.36548e-06
7.26504e-06
8.6237e-06
6.439e-06
8.65828e-06
5.44081e-06
8.46684e-06
4.29549e-06
8.03169e-06
3.09449e-06
7.30592e-06
1.9601e-06
6.25974e-06
1.03796e-06
4.93373e-06
3.91245e-07
3.46365e-06
8.68066e-09
2.01122e-06
6.31924e-07
-1.32376e-05
3.39629e-06
-2.15817e-05
5.08013e-06
-1.89413e-05
-4.5645e-07
-1.24753e-05
-2.06846e-06
-5.09209e-06
4.20084e-06
2.93505e-06
3.18234e-06
9.97088e-06
1.92934e-06
1.6147e-05
1.50635e-06
1.92506e-05
2.93583e-06
1.77497e-05
6.05218e-06
1.3503e-05
9.8983e-06
1.06997e-05
1.11267e-05
1.00385e-05
1.01778e-05
1.06359e-05
8.7403e-06
1.15907e-05
7.44697e-06
1.18939e-05
6.78725e-06
1.12535e-05
7.11315e-06
1.04966e-05
7.92611e-06
9.96137e-06
8.60636e-06
9.46974e-06
9.08039e-06
8.86491e-06
9.38568e-06
8.02918e-06
9.54174e-06
6.94946e-06
9.54392e-06
5.63296e-06
9.28903e-06
4.19385e-06
8.64147e-06
2.773e-06
7.53452e-06
1.57605e-06
5.98064e-06
7.40081e-07
4.22273e-06
2.23662e-07
2.5576e-06
9.18701e-07
-1.67767e-05
1.01172e-05
-1.92902e-05
1.35461e-05
-1.24204e-05
7.88695e-06
-3.81516e-06
9.27869e-06
3.52975e-06
1.19773e-05
1.19956e-05
9.27253e-06
1.88688e-05
7.11624e-06
2.22611e-05
7.68157e-06
2.06527e-05
1.10808e-05
1.56535e-05
1.50374e-05
1.18005e-05
1.52825e-05
1.07553e-05
1.39866e-05
1.07154e-05
1.21575e-05
1.11268e-05
1.03237e-05
1.16914e-05
8.84678e-06
1.19943e-05
8.04911e-06
1.1875e-05
8.06111e-06
1.16006e-05
8.53833e-06
1.13396e-05
9.09009e-06
1.1031e-05
9.56471e-06
1.05774e-05
9.96673e-06
9.87558e-06
1.03318e-05
8.80224e-06
1.05928e-05
7.36955e-06
1.05545e-05
5.74255e-06
1.00218e-05
4.02515e-06
8.87594e-06
2.43857e-06
7.11244e-06
1.10488e-06
5.0944e-06
4.34391e-07
2.99122e-06
1.02116e-06
-1.16477e-05
1.78328e-05
-1.29335e-05
2.53016e-05
-5.87211e-06
2.25365e-05
4.68978e-06
2.47922e-05
1.46605e-05
1.91133e-05
2.20336e-05
1.40679e-05
2.53892e-05
1.29575e-05
2.3482e-05
1.59105e-05
1.76913e-05
1.92922e-05
1.32204e-05
1.89103e-05
1.2216e-05
1.75725e-05
1.18916e-05
1.5614e-05
1.18368e-05
1.34596e-05
1.20302e-05
1.14435e-05
1.23603e-05
9.84658e-06
1.26355e-05
8.89484e-06
1.2727e-05
8.68008e-06
1.26944e-05
8.97081e-06
1.26402e-05
9.43078e-06
1.25588e-05
9.87943e-06
1.23873e-05
1.03429e-05
1.19444e-05
1.08931e-05
1.10611e-05
1.14276e-05
9.8083e-06
1.15159e-05
8.21918e-06
1.11666e-05
6.32321e-06
1.01625e-05
4.23635e-06
8.26766e-06
1.32187e-06
6.55606e-06
4.25709e-07
3.40616e-06
1.08564e-06
-5.07362e-06
2.63608e-05
-4.86879e-06
3.64776e-05
2.33431e-06
3.58001e-05
1.43508e-05
3.02097e-05
2.33584e-05
2.06504e-05
2.70827e-05
1.72343e-05
2.57748e-05
1.91614e-05
2.03465e-05
2.14424e-05
1.57513e-05
2.19589e-05
1.46538e-05
2.10152e-05
1.40066e-05
1.91347e-05
1.34698e-05
1.68569e-05
1.31262e-05
1.44878e-05
1.30234e-05
1.23096e-05
1.31116e-05
1.06132e-05
1.33002e-05
9.5524e-06
1.34631e-05
9.2179e-06
1.35589e-05
9.40573e-06
1.36569e-05
9.75948e-06
1.38354e-05
1.00773e-05
1.40405e-05
1.04292e-05
1.40673e-05
1.101e-05
1.37555e-05
1.16469e-05
1.32199e-05
1.16047e-05
1.19677e-05
1.16281e-05
9.62634e-06
1.09363e-05
6.6533e-06
5.90856e-06
1.53398e-06
-7.41212e-06
1.72252e-07
2.35953e-06
7.10988e-07
6.15931e-07
2.96346e-05
4.28602e-06
4.01169e-05
1.05745e-05
3.66687e-05
2.00725e-05
2.48289e-05
2.64022e-05
1.89179e-05
2.6877e-05
1.83088e-05
2.31467e-05
2.0976e-05
1.92382e-05
2.38178e-05
1.78688e-05
2.39984e-05
1.68573e-05
2.25558e-05
1.59035e-05
2.04268e-05
1.50753e-05
1.79597e-05
1.44164e-05
1.54139e-05
1.39512e-05
1.30962e-05
1.3701e-05
1.12654e-05
1.36919e-05
1.00663e-05
1.38297e-05
9.68023e-06
1.39461e-05
9.91763e-06
1.40717e-05
1.0204e-05
1.44007e-05
1.02701e-05
1.5007e-05
1.027e-05
1.57868e-05
1.04562e-05
1.64627e-05
1.06032e-05
1.6788e-05
9.51069e-06
1.45742e-05
1.62788e-06
9.72213e-06
-5.13918e-06
2.25567e-06
-1.2108e-05
-2.14642e-06
-2.4792e-05
-1.21688e-06
-8.32486e-06
-2.39912e-06
6.12126e-06
2.10412e-05
1.13445e-05
3.02901e-05
1.87524e-05
2.42828e-05
2.38486e-05
1.79001e-05
2.53637e-05
1.74083e-05
2.42224e-05
1.8936e-05
2.24921e-05
2.31075e-05
2.12353e-05
2.54e-05
1.99708e-05
2.52624e-05
1.87871e-05
2.37872e-05
1.76694e-05
2.15786e-05
1.66754e-05
1.89193e-05
1.5684e-05
1.60364e-05
1.46334e-05
1.33875e-05
1.3842e-05
1.14399e-05
1.3498e-05
1.01122e-05
1.36149e-05
9.98686e-06
1.36949e-05
1.04962e-05
1.36856e-05
1.08345e-05
1.38819e-05
1.05813e-05
1.44999e-05
1.01027e-05
1.57206e-05
9.48307e-06
1.7803e-05
8.09588e-06
1.48828e-05
-4.7517e-07
8.08321e-06
-1.02046e-05
2.28923e-06
-1.62125e-05
-1.3338e-06
-1.84918e-05
-2.44168e-06
-2.09994e-05
-4.3888e-06
-1.85546e-05
-1.04825e-05
6.79867e-06
1.17209e-05
1.42005e-05
1.76642e-05
1.91736e-05
1.4713e-05
2.15538e-05
1.20945e-05
2.27096e-05
1.6305e-05
2.34203e-05
1.90087e-05
2.28992e-05
2.30933e-05
2.22688e-05
2.64415e-05
2.15459e-05
2.66416e-05
2.06325e-05
2.50222e-05
1.95997e-05
2.27538e-05
1.84354e-05
1.99767e-05
1.68866e-05
1.65758e-05
1.49548e-05
1.30591e-05
1.33357e-05
1.07113e-05
1.25536e-05
9.34483e-06
1.26007e-05
9.82225e-06
1.27693e-05
1.1087e-05
1.26207e-05
1.16484e-05
1.26301e-05
1.10131e-05
1.29317e-05
1.0168e-05
1.35504e-05
8.91245e-06
1.06871e-05
6.64046e-06
5.12079e-06
-4.69964e-06
4.54616e-06
-4.96787e-06
3.30407e-06
-4.54764e-06
5.17744e-08
-5.47631e-06
1.89868e-06
-6.91329e-06
7.08872e-07
-1.77643e-05
-1.99589e-05
3.24436e-06
-6.73483e-06
1.18397e-05
-8.91955e-06
1.87301e-05
-1.40157e-05
2.11696e-05
-1.69039e-05
2.1458e-05
-5.68004e-06
2.19624e-05
1.50216e-05
2.26694e-05
2.2281e-05
2.31234e-05
2.68628e-05
2.34337e-05
2.69405e-05
2.30833e-05
2.50066e-05
2.22799e-05
2.32231e-05
2.089e-05
2.12516e-05
1.81272e-05
1.77721e-05
1.44375e-05
1.2785e-05
1.18224e-05
1.02388e-05
1.03626e-05
6.78256e-06
1.05136e-05
9.03837e-06
1.09703e-05
1.16188e-05
1.09668e-05
1.24017e-05
1.1088e-05
1.13444e-05
1.12542e-05
1.03004e-05
1.15621e-05
8.95131e-06
1.15452e-05
6.35888e-06
5.70313e-06
6.32782e-07
3.07571e-06
2.60907e-06
2.28459e-06
1.03317e-05
5.23692e-07
9.89864e-06
3.3472e-06
4.31985e-06
6.08431e-06
-1.37165e-05
-1.74186e-05
4.23007e-06
-3.05359e-05
9.65835e-06
-3.49862e-05
1.43637e-05
-3.87805e-05
2.18814e-05
-4.04962e-05
2.11999e-05
-3.69214e-05
2.04956e-05
-1.20187e-05
2.24914e-05
6.31484e-07
2.53833e-05
2.61312e-06
2.69278e-05
1.59783e-08
2.63854e-05
9.42391e-07
2.5236e-05
2.83463e-06
2.33615e-05
-5.76667e-07
1.86816e-05
-6.42158e-06
1.33761e-05
-1.44778e-05
6.35415e-06
-5.93097e-06
6.36229e-06
2.26604e-06
6.64724e-06
7.6428e-06
7.6112e-06
1.17266e-05
8.43002e-06
1.21657e-05
9.17548e-06
1.09862e-05
9.63809e-06
1.02379e-05
9.65949e-06
9.15711e-06
9.29831e-06
6.90247e-06
4.02786e-06
3.07044e-06
-1.66191e-06
3.37613e-06
-2.80435e-06
1.58192e-05
-3.22816e-07
1.66862e-05
3.85294e-06
3.98917e-06
5.14835e-06
-1.33472e-05
-1.25297e-05
4.58243e-06
-3.74717e-05
9.92936e-06
-4.08038e-05
1.60709e-05
-4.28473e-05
2.53002e-05
-4.48588e-05
3.01602e-05
-4.68296e-05
2.90257e-05
-4.44411e-05
2.83662e-05
-3.607e-05
2.76231e-05
-3.58887e-05
2.49299e-05
-3.83987e-05
2.05658e-05
-3.47543e-05
1.43932e-05
-2.72183e-05
7.51384e-06
-2.82017e-05
4.48429e-06
-3.2029e-05
1.50959e-07
-3.72735e-05
-8.10276e-06
-3.22545e-05
-1.61311e-06
-8.43446e-07
3.83091e-07
6.87895e-06
2.39075e-06
8.74587e-06
5.0291e-06
9.07632e-06
6.78275e-06
8.5518e-06
8.05986e-06
8.57365e-06
8.68277e-06
8.18514e-06
7.22133e-06
7.86928e-06
2.85269e-06
-2.42783e-07
-3.69651e-06
-1.87341e-05
-4.79749e-06
-8.98357e-06
-3.15354e-07
-6.80937e-06
3.01118e-06
-1.76614e-05
2.63659e-06
-2.63845e-05
-1.974e-05
4.6383e-06
-3.77018e-05
1.00332e-05
-4.18036e-05
1.67911e-05
-4.47286e-05
2.34659e-05
-4.88817e-05
2.37963e-05
-5.04241e-05
2.21466e-05
-4.98604e-05
2.24264e-05
-4.8923e-05
2.05633e-05
-4.75774e-05
1.72522e-05
-4.69872e-05
1.23381e-05
-4.00075e-05
6.20549e-06
-3.23871e-05
2.95497e-06
-3.28394e-05
5.52411e-06
-3.68179e-05
1.08373e-05
-4.38283e-05
-1.81717e-07
-5.12051e-05
-1.01008e-05
-3.04867e-05
-6.15882e-06
-4.99158e-06
-2.13222e-06
-1.91966e-05
2.20032e-06
-2.46547e-05
4.00094e-06
-2.48417e-05
6.04825e-06
-2.45366e-05
9.26512e-06
-2.57988e-05
9.72725e-06
-2.60795e-05
2.77804e-06
-3.48244e-05
-1.43591e-06
-5.23992e-05
1.92016e-06
-4.45333e-05
6.4761e-06
-4.2114e-05
6.05311e-06
-4.65197e-05
1.0738e-07
-4.89951e-05
-4.01623e-05
4.20281e-06
-3.91589e-05
9.18956e-06
-4.43878e-05
1.52882e-05
-4.80813e-05
1.91401e-05
-5.26753e-05
1.65394e-05
-5.2157e-05
1.42269e-05
-4.93366e-05
1.49282e-05
-4.81225e-05
1.41068e-05
-4.69989e-05
1.22375e-05
-4.42599e-05
7.99011e-06
-3.52229e-05
2.78461e-06
-3.21929e-05
2.58531e-06
-3.5253e-05
7.29164e-06
-4.07341e-05
9.29895e-06
-4.93499e-05
6.25196e-06
-5.56649e-05
-2.77678e-06
-5.78609e-05
-3.48878e-06
-4.13051e-05
1.68864e-06
-5.72609e-05
9.48255e-07
-6.26446e-05
4.93541e-07
-6.41781e-05
1.67242e-07
-6.54772e-05
1.16927e-07
-6.68029e-05
2.98758e-07
-6.65728e-05
9.32408e-07
-6.56463e-05
2.87927e-06
-6.22828e-05
5.15227e-06
-5.82371e-05
6.7855e-06
-5.68403e-05
6.44876e-06
-5.7365e-05
2.92535e-06
-5.83291e-05
-5.61257e-05
3.48032e-06
-4.16321e-05
7.93832e-06
-4.73175e-05
1.24766e-05
-5.10478e-05
1.33718e-05
-5.36618e-05
1.00744e-05
-5.06122e-05
8.87413e-06
-4.75037e-05
8.77992e-06
-4.64912e-05
8.00765e-06
-4.4933e-05
7.08382e-06
-3.93135e-05
3.72955e-06
-3.29237e-05
7.70075e-07
-3.34604e-05
2.3677e-06
-3.82388e-05
5.05423e-06
-4.43201e-05
3.90694e-06
-5.21749e-05
1.08223e-06
-5.66478e-05
3.92054e-07
-5.85753e-05
3.35003e-07
-5.94893e-05
1.38093e-07
-6.08842e-05
-3.4397e-08
-6.24348e-05
-1.71817e-07
-6.4149e-05
-8.65922e-07
-6.57983e-05
-1.75785e-06
-6.68969e-05
-2.27295e-06
-6.67406e-05
-1.11002e-06
-6.4835e-05
1.7513e-06
-6.06974e-05
4.00093e-06
-5.70139e-05
5.05342e-06
-5.47132e-05
4.85925e-06
-5.40645e-05
3.01849e-06
-5.43027e-05
-5.38831e-05
2.7529e-06
-4.32024e-05
6.1892e-06
-4.89778e-05
9.22338e-06
-5.21281e-05
6.18972e-06
-5.2421e-05
2.33045e-06
-4.52459e-05
3.09158e-06
-4.47901e-05
3.11776e-06
-4.42724e-05
3.42637e-06
-4.06449e-05
1.98799e-06
-3.51874e-05
-1.20095e-06
-3.34686e-05
-1.70683e-06
-3.57981e-05
4.07773e-07
-4.03149e-05
1.67385e-06
-4.61337e-05
4.14791e-07
-5.22352e-05
-1.78205e-06
-5.57036e-05
-2.70099e-06
-5.60344e-05
-2.62928e-06
-5.72782e-05
-2.02565e-06
-5.82886e-05
-1.36914e-06
-5.90539e-05
-1.60145e-06
-6.05177e-05
-2.78252e-06
-6.20811e-05
-3.96551e-06
-6.33422e-05
-4.35868e-06
-6.34358e-05
-3.70436e-06
-6.19036e-05
-1.60203e-06
-5.80298e-05
8.82561e-07
-5.39057e-05
2.76532e-06
-5.04579e-05
3.37549e-06
-4.9199e-05
2.34552e-06
-4.86548e-05
-4.94178e-05
2.01213e-06
-4.37173e-05
4.58828e-06
-4.93424e-05
6.10527e-06
-5.15098e-05
-8.20334e-07
-4.94374e-05
-5.76146e-06
-4.0171e-05
-2.81558e-06
-4.19156e-05
-1.7715e-06
-4.09518e-05
-1.76889e-06
-3.6752e-05
-3.56132e-06
-3.46365e-05
-5.18567e-06
-3.52029e-05
-4.04422e-06
-3.80707e-05
-1.63941e-06
-4.0967e-05
-5.81147e-07
-4.59433e-05
-1.36717e-06
-5.07058e-05
-2.71424e-06
-5.30325e-05
-3.21084e-06
-5.37469e-05
-3.36331e-06
-5.43636e-05
-3.38326e-06
-5.5628e-05
-3.18414e-06
-5.70214e-05
-3.19714e-06
-5.81442e-05
-4.33064e-06
-5.94139e-05
-5.85694e-06
-6.07504e-05
-6.65959e-06
-6.10158e-05
-6.02789e-06
-5.98168e-05
-3.50855e-06
-5.64362e-05
-5.28282e-07
-5.19304e-05
1.27778e-06
-4.78724e-05
1.58258e-06
-4.59761e-05
1.37056e-06
-4.51365e-05
-4.61087e-05
1.32255e-06
-4.3385e-05
3.06952e-06
-4.87669e-05
3.06986e-06
-5.00994e-05
-4.80906e-06
-4.54677e-05
-1.02859e-05
-3.7852e-05
-7.20119e-06
-3.94249e-05
-6.55268e-06
-3.81662e-05
-7.50998e-06
-3.56479e-05
-8.69981e-06
-3.55646e-05
-8.10422e-06
-3.66871e-05
-5.94583e-06
-3.88625e-05
-3.67691e-06
-4.05969e-05
-2.20128e-06
-4.44657e-05
-2.37413e-06
-4.83152e-05
-3.61423e-06
-5.00934e-05
-4.32112e-06
-5.0585e-05
-4.22885e-06
-5.13103e-05
-4.08488e-06
-5.23932e-05
-4.29188e-06
-5.39672e-05
-4.78023e-06
-5.55701e-05
-6.00176e-06
-5.66222e-05
-7.41883e-06
-5.77974e-05
-8.02993e-06
-5.82418e-05
-7.47383e-06
-5.73649e-05
-5.12865e-06
-5.40443e-05
-2.03629e-06
-4.94676e-05
2.18891e-07
-4.48429e-05
1.10701e-06
-4.18316e-05
9.30203e-07
-4.08218e-05
-4.24869e-05
6.48561e-07
-4.25318e-05
1.5407e-06
-4.77456e-05
-6.29966e-07
-4.80474e-05
-8.50166e-06
-4.13823e-05
-1.33636e-05
-3.62727e-05
-1.15825e-05
-3.75211e-05
-1.16545e-05
-3.66893e-05
-1.25356e-05
-3.55878e-05
-1.23631e-05
-3.57312e-05
-9.99789e-06
-3.70169e-05
-7.03923e-06
-3.76232e-05
-4.65079e-06
-3.91206e-05
-2.99215e-06
-4.23193e-05
-3.1421e-06
-4.53972e-05
-4.33109e-06
-4.66297e-05
-4.77244e-06
-4.72453e-05
-4.96293e-06
-4.82335e-05
-5.25071e-06
-4.95333e-05
-5.51035e-06
-5.08365e-05
-6.29396e-06
-5.21954e-05
-7.67033e-06
-5.32358e-05
-9.21049e-06
-5.42925e-05
-1.00964e-05
-5.49068e-05
-9.72071e-06
-5.44297e-05
-7.41789e-06
-5.1815e-05
-3.95907e-06
-4.72532e-05
-1.24289e-06
-4.23035e-05
-1.2918e-07
-3.81108e-05
1.8829e-07
-3.68347e-05
-3.94149e-05
-3.38533e-08
-4.15211e-05
-4.77312e-09
-4.64388e-05
-4.52261e-06
-4.54071e-05
-1.32672e-05
-3.71919e-05
-1.65075e-05
-3.42636e-05
-1.54846e-05
-3.60259e-05
-1.5941e-05
-3.54931e-05
-1.58828e-05
-3.4584e-05
-1.37107e-05
-3.47245e-05
-1.0212e-05
-3.59477e-05
-6.96012e-06
-3.5596e-05
-4.67423e-06
-3.65703e-05
-3.31198e-06
-3.98108e-05
-3.49033e-06
-4.22268e-05
-4.67844e-06
-4.31826e-05
-5.54569e-06
-4.37646e-05
-5.72587e-06
-4.47255e-05
-6.22641e-06
-4.6265e-05
-7.06007e-06
-4.80079e-05
-7.85287e-06
-4.93742e-05
-9.21255e-06
-5.01758e-05
-1.06194e-05
-5.1136e-05
-1.13918e-05
-5.18894e-05
-1.10311e-05
-5.16575e-05
-8.90994e-06
-4.95303e-05
-5.49702e-06
-4.51555e-05
-2.49474e-06
-3.986e-05
-9.00165e-07
-3.50222e-05
-3.14369e-07
-3.32645e-05
-3.60821e-05
-6.82418e-07
-4.04017e-05
-1.30541e-06
-4.49157e-05
-7.1588e-06
-4.23222e-05
-1.71107e-05
-3.31629e-05
-1.96943e-05
-3.21498e-05
-1.89894e-05
-3.43547e-05
-1.80187e-05
-3.40695e-05
-1.61994e-05
-3.28553e-05
-1.3335e-05
-3.30472e-05
-9.64341e-06
-3.34805e-05
-6.24553e-06
-3.32198e-05
-4.44163e-06
-3.40408e-05
-3.66825e-06
-3.68645e-05
-4.33329e-06
-3.89432e-05
-5.59713e-06
-3.96317e-05
-6.09173e-06
-3.98985e-05
-6.44719e-06
-4.12218e-05
-6.99004e-06
-4.287e-05
-7.96413e-06
-4.45917e-05
-9.31643e-06
-4.6208e-05
-1.06206e-05
-4.68499e-05
-1.196e-05
-4.76116e-05
-1.27546e-05
-4.86571e-05
-1.25701e-05
-4.86969e-05
-1.0642e-05
-4.71249e-05
-7.14263e-06
-4.31051e-05
-3.76854e-06
-3.75202e-05
-1.88596e-06
-3.20241e-05
-1.17006e-06
-2.96567e-05
-3.24125e-05
-1.43555e-06
-3.91607e-05
-2.73621e-06
-4.30599e-05
-9.52071e-06
-3.87798e-05
-2.00758e-05
-2.90104e-05
-2.20295e-05
-2.97113e-05
-2.03367e-05
-3.22855e-05
-1.74375e-05
-3.22323e-05
-1.47942e-05
-3.05148e-05
-1.1771e-05
-3.10942e-05
-8.34184e-06
-3.03677e-05
-5.55623e-06
-2.99999e-05
-3.65624e-06
-3.17526e-05
-3.34401e-06
-3.38012e-05
-4.83436e-06
-3.53438e-05
-6.51287e-06
-3.57848e-05
-7.24725e-06
-3.63403e-05
-7.53467e-06
-3.75663e-05
-8.17472e-06
-3.92752e-05
-9.17144e-06
-4.11021e-05
-1.04854e-05
-4.26307e-05
-1.17831e-05
-4.33238e-05
-1.28788e-05
-4.39213e-05
-1.3675e-05
-4.52332e-05
-1.36404e-05
-4.56091e-05
-1.20046e-05
-4.47169e-05
-8.69218e-06
-4.11508e-05
-5.20132e-06
-3.55089e-05
-2.95789e-06
-2.90517e-05
-1.89248e-06
-2.62043e-05
-2.85429e-05
-2.11785e-06
-3.77256e-05
-4.79595e-06
-4.07937e-05
-1.26573e-05
-3.4842e-05
-2.20953e-05
-2.54916e-05
-2.28326e-05
-2.71625e-05
-1.96775e-05
-3.01002e-05
-1.60048e-05
-2.95749e-05
-1.34555e-05
-2.80609e-05
-1.01392e-05
-2.81767e-05
-6.63902e-06
-2.73119e-05
-4.12882e-06
-2.72459e-05
-2.6553e-06
-2.88853e-05
-3.11743e-06
-3.05909e-05
-5.35888e-06
-3.15445e-05
-7.53941e-06
-3.1887e-05
-8.56626e-06
-3.24644e-05
-8.96846e-06
-3.38259e-05
-9.42582e-06
-3.55149e-05
-1.03771e-05
-3.74812e-05
-1.16263e-05
-3.90604e-05
-1.27589e-05
-3.9728e-05
-1.36288e-05
-4.0203e-05
-1.42482e-05
-4.15816e-05
-1.44379e-05
-4.22485e-05
-1.33558e-05
-4.17861e-05
-1.03599e-05
-3.89002e-05
-6.63792e-06
-3.33738e-05
-3.91245e-06
-2.64014e-05
-2.35863e-06
-2.2785e-05
-2.45194e-05
-2.19217e-06
-3.59458e-05
-6.33769e-06
-3.78266e-05
-1.57201e-05
-3.06277e-05
-2.33104e-05
-2.29326e-05
-2.19825e-05
-2.47551e-05
-1.75803e-05
-2.75102e-05
-1.41695e-05
-2.62246e-05
-1.15499e-05
-2.59233e-05
-8.07953e-06
-2.46638e-05
-4.75098e-06
-2.43406e-05
-2.45522e-06
-2.47805e-05
-1.47543e-06
-2.5896e-05
-2.90048e-06
-2.70207e-05
-5.92782e-06
-2.74867e-05
-8.55358e-06
-2.77254e-05
-9.92447e-06
-2.84487e-05
-1.06076e-05
-2.989e-05
-1.10857e-05
-3.17491e-05
-1.17143e-05
-3.36251e-05
-1.26396e-05
-3.50829e-05
-1.35239e-05
-3.58486e-05
-1.41185e-05
-3.63576e-05
-1.46379e-05
-3.77044e-05
-1.49983e-05
-3.87737e-05
-1.436e-05
-3.86903e-05
-1.18793e-05
-3.64616e-05
-8.08911e-06
-3.11911e-05
-4.8919e-06
-2.40189e-05
-2.90384e-06
-1.96092e-05
-2.06277e-05
-2.16773e-06
-3.3978e-05
-7.36125e-06
-3.43576e-05
-1.72104e-05
-2.57906e-05
-2.26222e-05
-2.01785e-05
-2.02242e-05
-2.2423e-05
-1.5609e-05
-2.42294e-05
-1.26947e-05
-2.32462e-05
-9.30797e-06
-2.27687e-05
-5.58608e-06
-2.18446e-05
-2.80773e-06
-2.15644e-05
-5.43237e-07
-2.1992e-05
-3.5109e-07
-2.26495e-05
-2.81974e-06
-2.30666e-05
-6.58275e-06
-2.31917e-05
-9.71191e-06
-2.34132e-05
-1.15289e-05
-2.42718e-05
-1.24208e-05
-2.58428e-05
-1.2853e-05
-2.77335e-05
-1.31567e-05
-2.95949e-05
-1.36105e-05
-3.09136e-05
-1.40939e-05
-3.17011e-05
-1.43976e-05
-3.23757e-05
-1.47415e-05
-3.36282e-05
-1.51853e-05
-3.50386e-05
-1.50529e-05
-3.52459e-05
-1.32188e-05
-3.37497e-05
-9.48184e-06
-2.90067e-05
-5.89483e-06
-2.17281e-05
-3.5609e-06
-1.65906e-05
-1.68447e-05
-3.93064e-06
-3.0814e-05
-1.06847e-05
-3.04218e-05
-2.06143e-05
-2.09748e-05
-2.24545e-05
-1.73802e-05
-1.80965e-05
-1.97149e-05
-1.32504e-05
-2.04604e-05
-1.03286e-05
-2.09362e-05
-6.8062e-06
-1.91452e-05
-3.14433e-06
-1.91044e-05
-4.26958e-07
-1.88133e-05
1.169e-06
-1.88833e-05
4.59758e-07
-1.88651e-05
-2.86773e-06
-1.87229e-05