/*--------------------------------*- C++ -*----------------------------------*\
| =========                 |                                                 |
| \\      /  F ield         | OpenFOAM: The Open Source CFD Toolbox           |
|  \\    /   O peration     | Version:  2.3.0                                 |
|   \\  /    A nd           | Web:      www.OpenFOAM.org                      |
|    \\/     M anipulation  |                                                 |
\*---------------------------------------------------------------------------*/
FoamFile
{
    version     2.0;
    format      ascii;
    class       surfaceScalarField;
    location    "1.12";
    object      phi.air;
}
// * * * * * * * * * * * * * * * * * * * * * * * * * * * * * * * * * * * * * //

dimensions      [0 3 -1 0 0 0 0];

internalField   nonuniform List<scalar> 
11770
(
-1.76909e-05
0.000110489
-2.33829e-05
0.000100135
-1.39727e-05
8.72268e-05
-5.59748e-07
8.4551e-05
1.52282e-05
8.15147e-05
1.99258e-05
8.56572e-05
1.29307e-05
9.52856e-05
5.62721e-06
9.74641e-05
-2.99001e-06
9.70873e-05
-2.17261e-06
8.74173e-05
-4.31011e-06
9.02108e-05
-6.9851e-06
9.20069e-05
-4.81769e-06
9.46886e-05
2.32034e-06
9.52276e-05
3.96774e-06
9.57691e-05
-4.59113e-08
9.61566e-05
-7.07326e-06
9.70507e-05
-1.2055e-05
9.54929e-05
-1.53472e-05
9.40216e-05
-1.50593e-05
9.03763e-05
-1.2427e-05
8.77186e-05
-8.97614e-06
8.59724e-05
-5.3641e-06
8.45371e-05
-2.86688e-06
8.37745e-05
-3.07097e-06
8.81649e-05
-5.98812e-08
9.16591e-05
7.84865e-07
9.20144e-05
-4.56551e-06
9.32455e-05
-1.78553e-06
8.5624e-05
8.5538e-05
-2.16665e-06
0.000102182
-1.24102e-05
9.64405e-05
-3.1851e-06
6.85817e-05
5.40313e-06
6.72865e-05
8.29105e-06
6.9038e-05
8.68488e-06
7.43253e-05
8.8357e-06
8.47693e-05
6.39706e-06
8.88583e-05
4.71708e-06
8.99454e-05
4.9945e-06
8.10075e-05
3.71469e-06
8.64482e-05
1.96652e-06
8.91099e-05
-3.74395e-06
9.16738e-05
-5.7889e-06
8.95645e-05
-7.69723e-06
9.18082e-05
-1.06267e-05
9.40062e-05
-1.18637e-05
9.39444e-05
-1.33517e-05
9.19895e-05
-1.51933e-05
9.10404e-05
-1.68974e-05
8.84927e-05
-1.72431e-05
8.53911e-05
-1.63229e-05
8.23083e-05
-1.31976e-05
7.84171e-05
-6.30109e-06
7.41376e-05
-2.24475e-06
7.64839e-05
-1.03579e-05
8.53415e-05
-1.37672e-05
8.28523e-05
-8.83799e-06
7.96489e-05
-6.83711e-06
7.45716e-05
7.04196e-05
-2.02119e-06
0.000103344
-5.62028e-06
9.85823e-05
9.60872e-07
6.68914e-05
4.94428e-06
7.27948e-05
7.38367e-07
8.40465e-05
2.5658e-06
8.23442e-05
6.95386e-06
8.57712e-05
9.27788e-06
9.04514e-05
1.28308e-05
9.31469e-05
1.18148e-05
9.17272e-05
9.1583e-06
0.000103465
5.25787e-06
0.000111521
-5.49047e-07
0.000115445
-7.21578e-06
0.000111351
-1.2986e-05
0.000113947
-1.59742e-05
0.000115197
-1.41798e-05
0.00011115
-1.11688e-05
0.000107301
-9.40521e-06
0.000107511
-1.26714e-05
0.000109263
-1.76717e-05
0.000108457
-2.02708e-05
0.000104292
-1.85312e-05
9.65677e-05
-1.80311e-05
9.01681e-05
-1.50415e-05
8.61803e-05
-1.43817e-05
9.2071e-05
-1.24973e-05
8.6289e-05
-7.05948e-06
7.96772e-05
-3.17159e-06
7.7232e-05
7.47665e-05
2.68712e-06
9.87339e-05
1.04282e-05
9.09305e-05
8.22981e-06
7.01861e-05
8.37918e-06
8.02109e-05
2.68817e-06
9.82713e-05
-1.47248e-06
9.12976e-05
5.21451e-06
8.34299e-05
1.5989e-05
8.47899e-05
2.50269e-05
8.95808e-05
2.62847e-05
9.8211e-05
2.20731e-05
0.000115271
6.95494e-06
0.000125324
-5.56357e-06
0.000120713
-9.67969e-06
0.000108376
-1.41489e-05
0.000108717
-1.68645e-05
0.000107453
-1.48171e-05
0.000100385
-1.03661e-05
9.51136e-05
-8.76802e-06
9.64307e-05
-1.15208e-05
9.98905e-05
-1.64423e-05
0.000101151
-2.32289e-05
0.000101412
-2.94784e-05
9.92803e-05
-3.36357e-05
9.72991e-05
-3.64348e-05
9.47916e-05
-2.58639e-05
8.86027e-05
-1.43607e-05
7.891e-05
-3.63911e-06
7.25712e-05
6.43661e-07
7.54861e-05
7.90906e-05
1.24644e-05
8.79825e-05
2.82044e-05
7.92564e-05
2.29373e-05
7.98984e-05
1.13608e-05
0.000100309
5.07556e-06
0.000113221
4.6512e-06
9.90615e-05
1.06605e-05
8.53199e-05
2.22554e-05
8.16308e-05
3.38992e-05
8.67103e-05
2.40387e-05
0.000104246
7.29185e-06
0.0001136
-6.43711e-06
0.000113634
-1.45871e-05
0.000105095
-2.25733e-05
9.4497e-05
-2.60431e-05
9.12527e-05
-2.72286e-05
8.76125e-05
-2.69496e-05
7.97753e-05
-2.6471e-05
7.5383e-05
-2.61321e-05
7.70578e-05
-2.56846e-05
8.02174e-05
-2.62826e-05
8.14591e-05
-2.86353e-05
8.20436e-05
-3.29141e-05
8.20368e-05
-3.76772e-05
8.53251e-05
-4.38817e-05
9.12487e-05
-4.02723e-05
8.3195e-05
-2.10171e-05
6.44103e-05
-4.46395e-06
6.06546e-05
2.86338e-06
7.32872e-05
8.92204e-05
2.13264e-05
7.02299e-05
4.30899e-05
6.11048e-05
4.40624e-05
8.12548e-05
8.21535e-06
0.000124692
9.34158e-07
0.000119894
9.04326e-06
9.95657e-05
1.09114e-05
8.95503e-05
1.95642e-05
7.81412e-05
1.04447e-05
8.60731e-05
-7.09569e-06
0.000100439
-2.29881e-05
0.000110681
-3.08939e-05
0.000108776
-3.47435e-05
9.96622e-05
-3.96112e-05
9.16431e-05
-4.17246e-05
8.68791e-05
-4.28352e-05
8.26313e-05
-4.52932e-05
7.57428e-05
-4.66528e-05
7.0027e-05
-4.52577e-05
6.90469e-05
-4.20904e-05
7.08169e-05
-3.92423e-05
7.23002e-05
-3.75357e-05
7.27125e-05
-3.7953e-05
7.20314e-05
-3.9776e-05
7.2666e-05
-4.00966e-05
7.39939e-05
-3.64361e-05
6.44924e-05
-2.08253e-05
4.5592e-05
5.10406e-06
3.90974e-05
1.05192e-05
6.82302e-05
9.53977e-05
2.40574e-05
4.74733e-05
5.06785e-05
3.45461e-05
5.99798e-05
6.33307e-05
2.40384e-05
0.000132946
1.14444e-05
0.000115476
6.34386e-06
9.29887e-05
-1.54216e-06
8.36754e-05
-1.24863e-05
7.61739e-05
-3.15944e-05
9.03474e-05
-4.48999e-05
0.00010453
-4.28881e-05
0.000105544
-3.9684e-05
0.00010408
-4.11157e-05
9.9153e-05
-4.48046e-05
9.34014e-05
-4.81541e-05
8.85922e-05
-5.11471e-05
8.43072e-05
-5.33656e-05
7.69708e-05
-5.12744e-05
6.74161e-05
-4.7616e-05
6.45401e-05
-4.4205e-05
6.61078e-05
-4.17074e-05
6.84483e-05
-3.89117e-05
6.89423e-05
-3.49562e-05
6.67234e-05
-2.99399e-05
6.47081e-05
-2.39819e-05
6.2199e-05
-1.76142e-05
4.90296e-05
-8.44494e-06
2.85304e-05
1.11752e-05
1.9213e-05
4.7386e-06
6.31496e-05
8.51791e-05
1.99062e-05
2.71633e-05
4.11842e-05
1.18091e-05
4.6215e-05
4.75747e-05
3.49798e-05
0.000129832
2.18399e-05
0.000117516
2.83255e-06
9.94539e-05
-1.77689e-05
9.26891e-05
-4.19176e-05
9.03475e-05
-5.19575e-05
9.61165e-05
-4.89676e-05
0.000101239
-4.56511e-05
0.000101548
-4.29449e-05
0.000100849
-4.32364e-05
9.84699e-05
-4.71159e-05
9.53613e-05
-5.22584e-05
9.20635e-05
-5.84777e-05
8.94374e-05
-5.96745e-05
7.79651e-05
-5.45516e-05
6.2889e-05
-4.82314e-05
5.87083e-05
-4.4076e-05
6.18317e-05
-4.16027e-05
6.53143e-05
-3.84818e-05
6.51035e-05
-3.28366e-05
6.08448e-05
-2.30276e-05
5.52202e-05
-9.68303e-06
4.88709e-05
2.33004e-06
3.59568e-05
8.12525e-06
2.05115e-05
7.35226e-06
1.63926e-05
-3.00671e-06
6.36069e-05
7.60706e-05
1.26476e-05
1.39957e-05
2.21685e-05
2.08119e-06
1.44558e-05
5.03586e-05
1.09865e-05
0.000130371
5.18552e-06
0.00012305
-8.86684e-06
0.000113001
-2.39952e-05
0.000108017
-3.89223e-05
0.000105371
-4.65393e-05
0.000103302
-4.72867e-05
0.000101204
-4.61326e-05
9.95327e-05
-4.43528e-05
9.85552e-05
-4.44236e-05
9.80054e-05
-4.72642e-05
9.70362e-05
-5.29021e-05
9.60426e-05
-5.94075e-05
9.44996e-05
-5.77164e-05
7.64531e-05
-5.17787e-05
5.82431e-05
-4.55125e-05
5.42026e-05
-4.1065e-05
5.84557e-05
-3.80381e-05
6.26571e-05
-3.40776e-05
6.13561e-05
-2.67231e-05
5.41281e-05
-1.52325e-05
4.51971e-05
-1.9545e-06
3.76912e-05
8.50511e-06
2.74595e-05
1.10482e-05
1.83174e-05
1.4095e-06
2.25952e-05
1.32978e-08
6.22941e-05
7.45263e-05
8.03796e-06
5.40108e-06
1.08598e-05
-5.71361e-07
-5.74284e-06
6.25876e-05
-6.79655e-06
0.000129679
-1.05292e-05
0.000125737
-1.91879e-05
0.000121247
-2.91894e-05
0.000117739
-3.75734e-05
0.000113205
-4.28528e-05
0.000107568
-4.56339e-05
0.000102572
-4.63139e-05
9.89945e-05
-4.56242e-05
9.68009e-05
-4.47727e-05
9.63013e-05
-4.62106e-05
9.72381e-05
-5.02768e-05
9.85862e-05
-5.38848e-05
9.64026e-05
-4.94051e-05
7.16055e-05
-4.31821e-05
5.28993e-05
-3.71107e-05
5.01021e-05
-3.22352e-05
5.57774e-05
-2.74897e-05
5.97322e-05
-2.09216e-05
5.64895e-05
-1.20303e-05
4.74303e-05
-2.84541e-06
3.87377e-05
3.9687e-06
3.38396e-05
5.92644e-06
2.7865e-05
2.38765e-06
2.25659e-05
-2.91048e-06
2.72305e-05
7.27859e-06
5.38541e-05
7.83239e-05
1.75705e-06
3.88113e-06
5.77142e-07
2.24499e-06
-2.24519e-05
8.02686e-05
-2.13524e-05
0.000127262
-2.38163e-05
0.000127298
-2.87285e-05
0.000125661
-3.36815e-05
0.000122218
-3.85446e-05
0.000117051
-4.2606e-05
0.000110032
-4.57302e-05
0.000103785
-4.68249e-05
9.83505e-05
-4.52032e-05
9.37019e-05
-4.38382e-05
9.34379e-05
-4.39598e-05
9.54848e-05
-4.5949e-05
9.85924e-05
-4.24375e-05
9.17691e-05
-3.64861e-05
6.46127e-05
-3.10531e-05
4.7742e-05
-2.58155e-05
4.65892e-05
-2.03979e-05
5.27134e-05
-1.28428e-05
5.49027e-05
-3.86706e-06
5.04685e-05
2.59947e-06
4.43323e-05
4.98575e-06
4.00686e-05
4.51056e-06
3.73426e-05
-7.89474e-08
3.35313e-05
-7.74252e-06
3.0732e-05
-1.17766e-05
3.41717e-05
2.94142e-07
4.73354e-05
7.85255e-05
-1.69571e-06
5.8359e-06
-5.96051e-06
9.10523e-06
-3.08336e-05
0.000100049
-3.0422e-05
0.000125854
-3.22046e-05
0.00012838
-3.45145e-05
0.000127486
-3.70079e-05
0.00012415
-4.0429e-05
0.000119232
-4.48589e-05
0.000112456
-4.8788e-05
0.000105895
-4.89647e-05
9.71443e-05
-4.50253e-05
8.83183e-05
-4.04904e-05
8.72078e-05
-3.86942e-05
9.14687e-05
-3.55682e-05
9.38362e-05
-2.49358e-05
8.11833e-05
-1.84364e-05
5.72565e-05
-1.49377e-05
4.39779e-05
-1.17101e-05
4.42874e-05
-6.56803e-06
4.92488e-05
5.01642e-07
5.07769e-05
6.35236e-06
4.92101e-05
8.29944e-06
4.68532e-05
6.49104e-06
4.45563e-05
2.43246e-06
4.25129e-05
-4.34527e-06
4.05525e-05
-1.26351e-05
3.98016e-05
-1.6791e-05
4.2268e-05
-1.26259e-05
5.14706e-05
7.58237e-05
-8.91499e-07
7.2536e-06
-8.38993e-06
2.08221e-05
-2.98773e-05
0.000119035
-3.29959e-05
0.000128039
-3.5515e-05
0.000130115
-3.74879e-05
0.000128814
-3.97151e-05
0.000125514
-4.27948e-05
0.00012067
-4.74462e-05
0.000114993
-5.15798e-05
0.000108458
-5.17843e-05
9.63414e-05
-4.30156e-05
7.99613e-05
-3.3732e-05
7.78978e-05
-2.67147e-05
8.38056e-05
-1.66973e-05
8.40674e-05
-4.10553e-06
6.97914e-05
9.9785e-07
5.23132e-05
1.67016e-06
4.30153e-05
2.18041e-06
4.4014e-05
5.04554e-06
4.83835e-05
8.8022e-06
5.10453e-05
1.0934e-05
5.12564e-05
1.02025e-05
5.01946e-05
6.9608e-06
4.88187e-05
2.09161e-06
4.76698e-05
-4.31112e-06
4.7018e-05
-1.1693e-05
4.75415e-05
-1.7413e-05
5.0408e-05
-1.65522e-05
5.85138e-05
7.40287e-05
-1.12045e-06
1.008e-05
-1.46941e-05
3.88876e-05
-2.7659e-05
0.000132241
-3.29458e-05
0.000132279
-3.63795e-05
0.000132533
-3.86235e-05
0.000129906
-4.08145e-05
0.000125936
-4.32946e-05
0.000120946
-4.64273e-05
0.000115861
-5.07406e-05
0.000110795
-4.60156e-05
9.13221e-05
-3.24974e-05
6.83838e-05
-1.89064e-05
6.68083e-05
-6.82619e-06
7.43007e-05
6.16308e-06
7.44098e-05
1.49661e-05
6.35684e-05
1.68954e-05
5.15507e-05
1.46595e-05
4.58343e-05
1.25705e-05
4.74318e-05
1.30789e-05
5.09069e-05
1.41878e-05
5.28805e-05
1.36427e-05
5.33032e-05
1.13185e-05
5.30272e-05
7.69543e-06
5.25647e-05
3.11007e-06
5.22552e-05
-2.27303e-06
5.23613e-05
-8.06215e-06
5.3335e-05
-1.31159e-05
5.59262e-05
-1.30103e-05
6.15008e-05
6.95747e-05
-1.00372e-06
1.15884e-05
-2.35448e-05
6.39418e-05
-2.90364e-05
0.000139365
-3.35003e-05
0.000135356
-3.69749e-05
0.0001342
-3.84102e-05
0.00012905
-3.99074e-05
0.00012452
-4.05474e-05
0.000119071
-4.18216e-05
0.000114575
-4.09494e-05
0.000107294
-2.78383e-05
7.841e-05
-1.37898e-05
5.63553e-05
-1.54474e-06
5.87414e-05
1.04583e-05
6.7538e-05
2.13064e-05
6.86138e-05
2.6305e-05
6.21224e-05
2.56802e-05
5.46882e-05
2.21065e-05
5.16677e-05
1.99152e-05
5.23809e-05
1.88658e-05
5.37088e-05
1.76866e-05
5.48053e-05
1.57447e-05
5.54706e-05
1.29327e-05
5.58746e-05
9.31178e-06
5.61387e-05
5.07611e-06
5.64078e-05
5.03444e-07
5.68389e-05
-3.87068e-06
5.76255e-05
-7.06288e-06
5.91042e-05
-6.7568e-06
6.15694e-05
6.4285e-05
-1.35015e-06
1.25983e-05
-3.20815e-05
9.4107e-05
-3.25811e-05
0.000141606
-3.44316e-05
0.000134893
-3.65183e-05
0.000133203
-3.7812e-05
0.000127131
-3.76259e-05
0.000121305
-3.69087e-05
0.000115484
-3.43389e-05
0.000109395
-2.04068e-05
9.27006e-05
-3.35422e-06
6.26319e-05
4.38551e-06
5.10792e-05
1.07406e-05
5.61093e-05
1.92872e-05
6.36662e-05
2.67578e-05
6.58811e-05
2.9732e-05
6.31601e-05
2.87282e-05
5.91442e-05
2.6513e-05
5.67781e-05
2.45264e-05
5.59291e-05
2.26379e-05
5.61545e-05
2.06698e-05
5.69002e-05
1.82615e-05
5.78112e-05
1.52849e-05
5.87422e-05
1.17122e-05
5.96041e-05
7.67794e-06
6.03415e-05
3.46784e-06
6.09573e-05
-3.35965e-07
6.134e-05
-2.89133e-06
6.16049e-05
-2.89813e-06
6.15461e-05
6.13651e-05
-1.06045e-05
2.83321e-05
-3.9804e-05
0.000118285
-3.50225e-05
0.000135784
-3.53132e-05
0.000132266
-3.64722e-05
0.000130637
-3.6279e-05
0.00012324
-3.46058e-05
0.000116472
-3.0195e-05
0.000108673
-1.63108e-05
9.52839e-05
7.71151e-06
7.25586e-05
1.79941e-05
5.6656e-05
1.76287e-05
5.47828e-05
1.79786e-05
5.87868e-05
2.22282e-05
6.3246e-05
2.70843e-05
6.48179e-05
2.96003e-05
6.36418e-05
2.96522e-05
6.12649e-05
2.86795e-05
5.91308e-05
2.71812e-05
5.79809e-05
2.54749e-05
5.79223e-05
2.35676e-05
5.86537e-05
2.12703e-05
5.99205e-05
1.83652e-05
6.13913e-05
1.4894e-05
6.2805e-05
1.0946e-05
6.40707e-05
6.6699e-06
6.50985e-05
2.60439e-06
6.53619e-05
-7.80292e-07
6.49705e-05
-1.4275e-06
6.22165e-05
5.99365e-05
-2.08096e-05
5.12674e-05
-3.43472e-05
0.000128078
-3.30713e-05
0.000130562
-3.58238e-05
0.000129666
-3.46978e-05
0.000125582
-3.27656e-05
0.000117505
-2.53357e-05
0.00010743
-1.03049e-05
9.43233e-05
1.27545e-05
7.72891e-05
2.78096e-05
6.5738e-05
2.90988e-05
6.27138e-05
2.51761e-05
6.15473e-05
2.3102e-05
6.21088e-05
2.44391e-05
6.30515e-05
2.69467e-05
6.31448e-05
2.88305e-05
6.23085e-05
2.96955e-05
6.09552e-05
2.96501e-05
5.95749e-05
2.89283e-05
5.87301e-05
2.78894e-05
5.87289e-05
2.65778e-05
5.95887e-05
2.47186e-05
6.1258e-05
2.21689e-05
6.33707e-05
1.91949e-05
6.53637e-05
1.54893e-05
6.75132e-05
1.09032e-05
6.96009e-05
6.01408e-06
7.02498e-05
-6.48784e-07
7.12251e-05
-1.87633e-06
6.34766e-05
5.84346e-05
-1.98547e-05
7.02786e-05
-2.32344e-05
0.000129637
-2.9433e-05
0.000130905
-3.2941e-05
0.000126958
-2.73987e-05
0.000117367
-1.53922e-05
0.000105613
1.63357e-06
9.32246e-05
2.04777e-05
8.265e-05
3.32626e-05
7.61283e-05
3.70796e-05
7.34303e-05
3.35516e-05
6.99886e-05
2.88577e-05
6.69374e-05
2.62317e-05
6.47738e-05
2.59349e-05
6.31421e-05
2.69774e-05
6.176e-05
2.84127e-05
6.05828e-05
2.95811e-05
5.96517e-05
3.01105e-05
5.88963e-05
3.01247e-05
5.83857e-05
2.99783e-05
5.83834e-05
2.95949e-05
5.92886e-05
2.85356e-05
6.14631e-05
2.69641e-05
6.42008e-05
2.54122e-05
6.66902e-05
2.2435e-05
7.04187e-05
1.7051e-05
7.48477e-05
1.11154e-05
7.61698e-05
-3.08637e-06
8.32211e-05
-4.41956e-06
6.41878e-05
5.42107e-05
-1.53933e-05
8.56809e-05
-1.61877e-05
0.000131736
-2.08769e-05
0.000133594
-1.38092e-05
0.000120106
1.18261e-06
0.000106532
1.82398e-05
9.65744e-05
3.10963e-05
9.15457e-05
3.98077e-05
8.95922e-05
4.34533e-05
8.64402e-05
3.95849e-05
8.11068e-05
3.42578e-05
7.59563e-05
2.99241e-05
7.1365e-05
2.72763e-05
6.73452e-05
2.63371e-05
6.38425e-05
2.67407e-05
6.09588e-05
2.79274e-05
5.89186e-05
2.91803e-05
5.79175e-05
2.99967e-05
5.75558e-05
3.05574e-05
5.72071e-05
3.13313e-05
5.68773e-05
3.22169e-05
5.75208e-05
3.26255e-05
6.00562e-05
3.32069e-05
6.30625e-05
3.39435e-05
6.60602e-05
3.25311e-05
7.1784e-05
2.48595e-05
8.00373e-05
1.47615e-05
8.31592e-05
-9.10387e-06
0.000104977
-9.5193e-06
6.24145e-05
4.44178e-05
-1.14008e-05
0.000102889
-5.10304e-06
0.000135482
3.77496e-06
0.000135626
1.92489e-05
0.000118218
3.11337e-05
0.000109145
4.04864e-05
0.000104042
4.71085e-05
0.000103405
4.89901e-05
0.000100589
4.44361e-05
9.41031e-05
3.8586e-05
8.72811e-05
3.35118e-05
8.10297e-05
2.95764e-05
7.53298e-05
2.68897e-05
7.004e-05
2.5524e-05
6.50808e-05
2.56371e-05
6.0595e-05
2.68597e-05
5.73035e-05
2.82094e-05
5.60136e-05
2.90149e-05
5.5999e-05
2.96828e-05
5.57161e-05
3.11126e-05
5.46054e-05
3.35519e-05
5.41657e-05
3.66576e-05
5.60674e-05
4.08194e-05
5.86796e-05
4.3411e-05
6.31778e-05
3.78388e-05
7.8384e-05
2.54922e-05
9.00821e-05
8.40264e-06
9.44455e-05
-1.82204e-05
0.000112962
-1.67534e-05
5.58754e-05
2.818e-05
-3.56856e-06
0.000123893
9.61225e-06
0.00014853
2.89143e-05
0.000145321
3.78971e-05
0.000133214
4.39751e-05
0.000121267
5.01327e-05
0.000112067
5.12423e-05
0.000109292
4.74345e-05
0.000106125
4.17192e-05
9.9846e-05
3.66428e-05
9.21058e-05
3.23568e-05
8.52059e-05
2.85449e-05
7.92199e-05
2.53888e-05
7.37153e-05
2.33561e-05
6.80844e-05
2.33406e-05
6.13885e-05
2.51504e-05
5.58998e-05
2.65756e-05
5.4095e-05
2.70824e-05
5.46072e-05
2.72691e-05
5.45896e-05
2.86186e-05
5.2517e-05
3.18941e-05
5.02056e-05
3.82562e-05
4.91398e-05
4.80791e-05
4.78314e-05
5.61753e-05
5.55538e-05
3.86306e-05
8.2017e-05
1.86463e-05
9.48581e-05
-2.19469e-06
0.000101606
-1.26759e-05
0.00010998
-2.00619e-05
5.47533e-05
8.34958e-06
8.19401e-07
0.000136159
1.97102e-05
0.000151273
3.54531e-05
0.000149118
3.32825e-05
0.000144974
4.06347e-05
0.000119968
4.70907e-05
0.00010779
4.86115e-05
0.00010899
4.29517e-05
0.000110013
3.77805e-05
0.000103101
3.48019e-05
9.40143e-05
3.20004e-05
8.72908e-05
2.82142e-05
8.25843e-05
2.34795e-05
7.92229e-05
1.87013e-05
7.54194e-05
1.85125e-05
6.44986e-05
2.22947e-05
5.40327e-05
2.43829e-05
5.20943e-05
2.44067e-05
5.34364e-05
2.38558e-05
5.39781e-05
2.44774e-05
5.11634e-05
2.67156e-05
4.74439e-05
3.25169e-05
4.32174e-05
4.41271e-05
3.64735e-05
5.41681e-05
3.79668e-05
4.02176e-05
8.01938e-05
1.61441e-05
0.000109013
-3.26829e-06
0.000115305
-5.94817e-06
0.000108508
-1.21023e-05
5.55553e-05
1.93986e-06
3.59866e-06
0.000133731
1.92471e-05
0.000138353
2.80317e-05
0.000141592
1.97359e-05
0.000152714
2.951e-05
0.000121384
4.29824e-05
9.78316e-05
4.40242e-05
0.000106677
3.81809e-05
0.000112002
3.44053e-05
0.000104055
3.45524e-05
9.3212e-05
3.4342e-05
8.66988e-05
3.20677e-05
8.28986e-05
2.52916e-05
8.33033e-05
1.00671e-05
8.62397e-05
7.81461e-06
6.65582e-05
1.76333e-05
4.92767e-05
2.10899e-05
4.93371e-05
2.07901e-05
5.21021e-05
2.00403e-05
5.32614e-05
2.00149e-05
5.0224e-05
2.03861e-05
4.64427e-05
2.13877e-05
4.17e-05
2.24698e-05
3.47043e-05
2.59584e-05
3.43323e-05
3.44666e-05
7.32387e-05
1.82193e-05
0.000125146
-2.57967e-06
0.000136423
-2.38064e-06
0.000110449
7.8562e-06
4.95883e-05
1.3604e-05
6.7744e-06
0.000112866
1.75178e-05
0.000113276
2.57897e-05
0.00011768
3.21742e-05
0.00013007
3.51236e-05
0.000119425
4.39347e-05
0.000103794
3.8568e-05
0.000114073
3.50816e-05
0.000117555
3.40542e-05
0.000111908
3.43689e-05
0.000102295
3.4415e-05
9.48016e-05
3.3514e-05
9.19166e-05
2.28977e-05
9.91036e-05
1.8602e-06
0.000107468
-3.5689e-07
7.72804e-05
1.16052e-05
4.24608e-05
1.55862e-05
4.66411e-05
1.54932e-05
5.02049e-05
1.57832e-05
5.17328e-05
1.60686e-05
4.89829e-05
1.53076e-05
4.62122e-05
1.24154e-05
4.39169e-05
5.18333e-06
4.20085e-05
2.86231e-06
4.44251e-05
1.66489e-05
7.47534e-05
1.06739e-05
0.000141684
-3.12186e-06
0.000159157
6.0627e-06
0.000115381
1.60784e-05
5.10028e-05
3.22457e-05
1.42774e-05
8.72549e-05
3.04797e-05
8.57997e-05
5.24864e-05
8.63251e-05
8.69781e-05
8.99876e-05
9.96574e-05
0.000100635
8.16125e-05
0.000114113
5.89352e-05
0.000120964
5.1378e-05
0.000113263
4.58123e-05
0.000107689
3.83961e-05
0.000102321
3.06478e-05
9.70501e-05
2.10699e-05
9.52475e-05
5.31187e-06
0.000104323
-8.8316e-06
0.000112466
-2.8406e-06
7.73599e-05
3.39024e-06
3.05823e-05
5.69938e-06
4.17407e-05
9.32477e-06
4.66839e-05
1.07184e-05
4.93071e-05
1.22143e-05
4.685e-05
1.31152e-05
4.4506e-05
1.18036e-05
4.41595e-05
5.11391e-06
4.72624e-05
-4.51959e-06
5.84771e-05
-3.30804e-06
9.50154e-05
1.3713e-06
0.000155442
5.66788e-06
0.000170272
1.33184e-05
0.000123863
9.65627e-06
6.51889e-05
4.86386e-05
1.85722e-05
6.99644e-05
3.96449e-05
6.67456e-05
6.83049e-05
6.11363e-05
0.000108209
5.42441e-05
0.000132357
6.99714e-05
0.000104292
0.000114864
9.02636e-05
0.000117486
8.03613e-05
0.000111044
7.27077e-05
0.000104307
6.00562e-05
0.000103605
4.41451e-05
0.000102445
2.86525e-05
0.000100566
2.07872e-05
0.000104059
2.51035e-05
0.000104415
1.59393e-05
9.07281e-05
1.06616e-05
5.82824e-05
1.24615e-06
4.80838e-05
4.70318e-06
5.07289e-05
7.42659e-06
5.46059e-05
9.25797e-06
5.50267e-05
1.22912e-05
5.22136e-05
1.60942e-05
5.02158e-05
1.71542e-05
5.48582e-05
8.67272e-06
6.87608e-05
-9.21696e-06
9.53997e-05
4.44705e-06
0.000129287
2.78991e-05
0.000137446
2.63172e-05
0.000110604
7.33119e-06
7.03585e-05
4.64351e-05
1.9267e-05
5.42765e-05
3.98286e-05
4.97404e-05
6.59726e-05
3.85808e-05
9.50452e-05
2.6007e-05
0.000102904
5.15868e-05
8.13932e-05
0.000124268
7.58877e-05
0.000122063
7.20467e-05
0.000114881
6.62459e-05
0.000109608
5.99359e-05
0.000108945
5.28453e-05
0.000108889
4.60078e-05
0.000106154
5.07924e-05
9.89885e-05
6.81505e-05
8.86302e-05
7.27835e-05
8.29046e-05
5.79235e-05
6.87747e-05
4.6573e-05
5.63223e-05
3.9409e-05
4.50144e-05
3.67009e-05
4.59087e-05
3.67163e-05
4.46074e-05
3.94778e-05
4.02371e-05
4.36335e-05
3.65356e-05
4.59037e-05
4.00324e-05
3.8925e-05
5.67589e-05
2.60649e-05
8.48332e-05
3.02192e-05
0.000101871
4.22596e-05
0.000101837
3.91578e-05
8.92333e-05
1.93956e-05
6.78901e-05
4.79319e-05
1.78276e-05
3.82096e-05
3.60611e-05
3.26402e-05
5.76589e-05
1.83847e-05
7.53815e-05
6.48109e-06
6.69917e-05
5.10535e-05
5.97052e-05
0.000127015
5.81301e-05
0.000123203
5.63505e-05
0.000116325
5.27678e-05
0.000112131
5.09588e-05
0.000110955
5.35091e-05
0.000107285
5.77452e-05
0.000102097
6.79511e-05
8.93986e-05
8.51618e-05
7.07963e-05
0.000100886
6.13384e-05
0.000102334
5.44186e-05
9.63392e-05
5.10215e-05
8.45161e-05
4.59463e-05
7.90161e-05
4.29238e-05
7.70841e-05
3.8874e-05
7.65421e-05
3.34318e-05
7.55829e-05
3.02707e-05
7.31328e-05
3.49838e-05
7.00615e-05
5.28723e-05
6.87044e-05
7.9666e-05
6.49553e-05
9.64292e-05
5.77686e-05
9.87622e-05
4.5862e-05
9.26803e-05
2.63634e-05
8.09119e-05
6.8216e-05
1.4923e-05
2.33798e-05
3.023e-05
1.7472e-05
4.58731e-05
3.78541e-06
5.56368e-05
-4.14531e-06
4.14281e-05
5.67325e-05
3.96037e-05
0.000125459
4.1065e-05
0.000121186
4.07101e-05
0.000115488
3.99289e-05
0.000112223
4.29852e-05
0.000108757
4.87418e-05
0.000102134
5.84267e-05
9.25526e-05
6.86813e-05
7.88415e-05
8.00191e-05
5.76423e-05
9.11109e-05
4.62914e-05
9.51047e-05
4.51089e-05
9.31241e-05
4.89194e-05
8.8296e-05
4.94576e-05
8.4462e-05
4.64924e-05
8.17488e-05
4.16235e-05
7.9636e-05
3.57143e-05
7.77342e-05
3.18438e-05
7.58087e-05
3.55396e-05
7.4822e-05
5.17886e-05
7.468e-05
7.76948e-05
7.04974e-05
9.85359e-05
6.06785e-05
0.000106733
4.66591e-05
0.000105441
2.66452e-05
0.000100019
9.39731e-05
1.20111e-05
1.15321e-05
2.4867e-05
5.06451e-06
3.70464e-05
-7.15101e-06
3.86895e-05
-6.1841e-06
1.69481e-05
6.96379e-05
2.07688e-05
0.000118729
2.44637e-05
0.000116353
2.60911e-05
0.000112924
2.89531e-05
0.000109601
3.40916e-05
0.000104342
4.13352e-05
9.50981e-05
5.02214e-05
8.3294e-05
5.85138e-05
6.97301e-05
6.67435e-05
4.82662e-05
7.36247e-05
3.71617e-05
7.7994e-05
3.82291e-05
7.9213e-05
4.63236e-05
7.87244e-05
4.99817e-05
7.72473e-05
4.85207e-05
7.51383e-05
4.43493e-05
7.25162e-05
3.87806e-05
6.9937e-05
3.42908e-05
6.78759e-05
3.64548e-05
6.71768e-05
5.07028e-05
6.69378e-05
7.63505e-05
6.35256e-05
0.000100949
5.49746e-05
0.000114742
4.16327e-05
0.000118407
2.35074e-05
0.00011774
0.000116964
9.6648e-06
2.20675e-06
1.9814e-05
-4.56809e-06
3.09596e-05
-1.70966e-05
2.83675e-05
-6.16664e-06
1.32052e-06
8.55674e-05
6.65846e-06
0.000111552
1.08298e-05
0.000111366
1.40862e-05
0.000109568
1.84113e-05
0.000105734
2.38213e-05
9.90852e-05
2.95051e-05
8.90348e-05
3.59085e-05
7.61774e-05
4.35529e-05
6.15341e-05
5.38996e-05
3.8157e-05
5.98007e-05
3.08389e-05
6.24751e-05
3.43716e-05
6.48924e-05
4.32616e-05
6.68377e-05
4.825e-05
6.7106e-05
4.87344e-05
6.56566e-05
4.61737e-05
6.28297e-05
4.16878e-05
5.95716e-05
3.7102e-05
5.69992e-05
3.78289e-05
5.61643e-05
4.99645e-05
5.61528e-05
7.49794e-05
5.36633e-05
0.000102541
4.64435e-05
0.000121394
3.44183e-05
0.000129956
1.85859e-05
0.000133109
0.000135089
7.72235e-06
-5.17913e-06
1.44343e-05
-1.09638e-05
2.21079e-05
-2.35436e-05
1.48241e-05
-2.65885e-06
-4.10835e-06
9.76443e-05
-1.9761e-06
0.000108505
8.77632e-07
0.00010811
4.32195e-06
0.00010629
8.10599e-06
0.000101887
1.23513e-05
9.43172e-05
1.55976e-05
8.46893e-05
1.8809e-05
7.20448e-05
2.68328e-05
5.38233e-05
3.92488e-05
2.75505e-05
4.66152e-05
2.39414e-05
4.86157e-05
3.16252e-05
5.16295e-05
3.99165e-05
5.5044e-05
4.52115e-05
5.67275e-05
4.73497e-05
5.56503e-05
4.72569e-05
5.24023e-05
4.47073e-05
4.82924e-05
4.06341e-05
4.52275e-05
3.99044e-05
4.45169e-05
4.94781e-05
4.53742e-05
7.30838e-05
4.42497e-05
0.000102938
3.85486e-05
0.000126606
2.80874e-05
0.000139992
1.43619e-05
0.000146399
0.00014915
5.97633e-06
-1.08329e-05
1.0021e-05
-1.49074e-05
1.31726e-05
-2.5235e-05
-5.59286e-07
8.4136e-06
-8.26129e-06
0.000103876
-8.19354e-06
0.000107761
-6.60965e-06
0.000106317
-4.22895e-06
0.000103587
-1.32211e-06
9.81938e-05
1.16388e-06
9.06444e-05
2.59155e-06
8.19558e-05
3.63305e-06
6.98062e-05
1.34558e-05
4.52972e-05
2.65061e-05
1.6616e-05
3.46506e-05
1.61636e-05
3.73847e-05
2.81226e-05
4.03383e-05
3.66089e-05
4.38341e-05
4.19767e-05
4.59667e-05
4.54661e-05
4.52314e-05
4.78405e-05
4.16182e-05
4.78966e-05
3.68785e-05
4.48072e-05
3.35333e-05
4.25888e-05
3.33566e-05
4.89618e-05
3.54544e-05
7.03312e-05
3.61286e-05
0.000101746
3.22574e-05
0.000130062
2.35305e-05
0.000148321
1.17332e-05
0.000157799
0.000160616
4.18319e-06
-1.47672e-05
7.2761e-06
-1.79242e-05
7.34957e-06
-2.39635e-05
-1.14098e-05
2.50949e-05
-1.43626e-05
0.000106296
-1.43599e-05
0.000107153
-1.31268e-05
0.000104433
-1.1276e-05
0.000100856
-9.49824e-06
9.52364e-05
-8.66989e-06
8.8288e-05
-8.47427e-06
8.02554e-05
-7.65558e-06
6.77848e-05
4.69383e-06
3.4616e-05
1.57437e-05
7.03846e-06
2.29101e-05
8.93399e-06
2.74481e-05
2.27275e-05
3.07273e-05
3.31638e-05
3.41077e-05
3.86814e-05
3.59719e-05
4.34929e-05
3.50845e-05
4.83192e-05
3.11863e-05
5.10993e-05
2.60356e-05
4.93237e-05
2.23125e-05
4.5832e-05
2.25153e-05
4.84541e-05
2.60064e-05
6.65433e-05
2.88488e-05
9.85793e-05
2.71934e-05
0.000131367
2.0172e-05
0.000154938
9.9765e-06
0.000167598
0.000170269
2.19975e-06
-1.65915e-05
5.14689e-06
-2.05079e-05
2.75499e-06
-2.03524e-05
-2.13171e-05
4.62968e-05
-2.11679e-05
0.00010607
-2.01097e-05
0.000105108
-1.85156e-05
0.000101654
-1.72628e-05
9.83149e-05
-1.63252e-05
9.30399e-05
-1.69237e-05
8.71961e-05
-1.75288e-05
7.9335e-05
-1.35075e-05
6.32257e-05
-4.03787e-07
2.28443e-05
7.4518e-06
6.66529e-09
1.29636e-05
3.26788e-06
1.85203e-05
1.67213e-05
2.28533e-05
2.86413e-05
2.52184e-05
3.6205e-05
2.66799e-05
4.16801e-05
2.54751e-05
4.88328e-05
2.15822e-05
5.41958e-05
1.64857e-05
5.37843e-05
1.24538e-05
4.94738e-05
1.2537e-05
4.8291e-05
1.70768e-05
6.20399e-05
2.20033e-05
9.3542e-05
2.26869e-05
0.000130419
1.7471e-05
0.000159749
8.74637e-06
0.000175926
0.000178649
5.08918e-07
-1.65318e-05
3.12158e-06
-2.19809e-05
-2.69326e-06
-1.38434e-05
-3.00984e-05
6.83473e-05
-2.67435e-05
0.000102604
-2.44825e-05
0.000101508
-2.32523e-05
9.88048e-05
-2.22352e-05
9.60218e-05
-2.24654e-05
9.16589e-05
-2.33878e-05
8.64619e-05
-2.42199e-05
7.85765e-05
-1.41111e-05
5.37974e-05
-3.10743e-06
1.26111e-05
1.35775e-06
-3.97248e-06
4.84846e-06
-2.69314e-07
9.71931e-06
1.15217e-05
1.50617e-05
2.30877e-05
1.76239e-05
3.33034e-05
1.79945e-05
4.07307e-05
1.64554e-05
4.95807e-05
1.28903e-05
5.69713e-05
8.27262e-06
5.77966e-05
4.29497e-06
5.30734e-05
3.77656e-06
4.87529e-05
8.57066e-06
5.75045e-05
1.52384e-05
8.6971e-05
1.82887e-05
0.000127178
1.5203e-05
0.000162467
7.90688e-06
0.000182823
0.00018616
-2.82487e-07
-1.61197e-05
1.43073e-06
-2.23911e-05
-9.76721e-06
-2.57224e-06
-3.0567e-05
8.47837e-05
-2.82276e-05
9.93853e-05
-2.68626e-05
9.83622e-05
-2.64267e-05
9.66808e-05
-2.60321e-05
9.43825e-05
-2.6929e-05
9.08026e-05
-2.76755e-05
8.5576e-05
-2.57525e-05
7.53056e-05
-1.14015e-05
4.03396e-05
-4.55104e-06
5.98026e-06
-3.01385e-06
-5.17486e-06
-1.55186e-06
-1.7585e-06
2.01711e-06
7.74228e-06
6.54388e-06
1.82858e-05
9.90966e-06
2.94821e-05
9.40972e-06
4.04417e-05
8.01451e-06
5.00887e-05
5.14151e-06
5.91145e-05
1.35542e-06
6.1038e-05
-2.31647e-06
5.63763e-05
-3.53935e-06
4.98779e-05
6.05953e-07
5.3721e-05
8.43421e-06
7.95157e-05
1.38625e-05
0.000121726
1.31117e-05
0.000162922
7.23361e-06
0.000188321
0.000192984
-5.51217e-07
-1.55733e-05
-3.94732e-07
-2.13875e-05
-1.57469e-05
1.20699e-05
-2.56153e-05
9.37176e-05
-2.6945e-05
9.9479e-05
-2.78609e-05
9.73232e-05
-2.83351e-05
9.563e-05
-2.89836e-05
9.33873e-05
-3.00391e-05
9.01686e-05
-3.03079e-05
8.42677e-05
-2.12806e-05
6.60581e-05
-8.22465e-06
2.75169e-05
-5.41366e-06
3.09682e-06
-6.26502e-06
-3.98119e-06
-6.65155e-06
-1.25823e-06
-4.82977e-06
5.76526e-06
-1.49082e-06
1.46126e-05
1.67222e-06
2.57293e-05
1.6883e-06
3.9617e-05
4.8396e-07
5.04801e-05
-1.59229e-06
6.06037e-05
-4.32989e-06
6.33701e-05
-7.50774e-06
5.91866e-05
-9.20852e-06
5.14272e-05
-6.58611e-06
5.13691e-05
1.39847e-06
7.21531e-05
9.20277e-06
0.000114173
1.10784e-05
0.000160886
6.71441e-06
0.000192338
0.000199259
-2.8273e-06
-1.21413e-05
-4.49713e-06
-1.78194e-05
-1.818e-05
2.55219e-05
-2.33075e-05
9.83214e-05
-2.60002e-05
0.000100406
-2.84391e-05
9.7565e-05
-2.92174e-05
9.50908e-05
-3.08047e-05
9.3137e-05
-3.1442e-05
8.92058e-05
-2.84173e-05
7.9991e-05
-1.30429e-05
5.15146e-05
-5.11941e-06
1.9383e-05
-5.75815e-06
3.62252e-06
-8.69058e-06
-6.47425e-07
-1.0917e-05
1.17681e-06
-1.10843e-05
5.83484e-06
-9.3909e-06
1.25985e-05
-6.99162e-06
2.28056e-05
-5.67539e-06
3.76202e-05
-6.32451e-06
5.05149e-05
-7.3809e-06
6.1282e-05
-9.09396e-06
6.48289e-05
-1.15277e-05
6.13265e-05
-1.3436e-05
5.31298e-05
-1.24877e-05
5.0511e-05
-5.21875e-06
6.56169e-05
4.07778e-06
0.000105449
8.81903e-06
0.000156209
6.43688e-06
0.000194446
0.000205213
-3.37328e-06
-8.80593e-06
-5.16322e-06
-1.38096e-05
-1.80866e-05
3.90168e-05
-2.28366e-05
0.000102254
-2.64681e-05
0.000101837
-2.8758e-05
9.7905e-05
-3.04353e-05
9.50398e-05
-3.11395e-05
9.21508e-05
-3.13511e-05
8.77277e-05
-1.99606e-05
6.88795e-05
-5.47223e-06
3.75802e-05
-2.61891e-06
1.62468e-05
-5.93042e-06
6.92896e-06
-1.06379e-05
4.48543e-06
-1.46283e-05
5.44701e-06
-1.67727e-05
7.98242e-06
-1.68387e-05
1.24659e-05
-1.52225e-05
2.08572e-05
-1.28294e-05
3.48482e-05
-1.27766e-05
5.01719e-05
-1.24021e-05
6.07636e-05
-1.3073e-05
6.54031e-05
-1.46134e-05