/*--------------------------------*- C++ -*----------------------------------*\
| =========                 |                                                 |
| \\      /  F ield         | OpenFOAM: The Open Source CFD Toolbox           |
|  \\    /   O peration     | Version:  2.3.0                                 |
|   \\  /    A nd           | Web:      www.OpenFOAM.org                      |
|    \\/     M anipulation  |                                                 |
\*---------------------------------------------------------------------------*/
FoamFile
{
    version     2.0;
    format      ascii;
    class       volScalarField;
    location    "1.02";
    object      alpha.air;
}
// * * * * * * * * * * * * * * * * * * * * * * * * * * * * * * * * * * * * * //

dimensions      [0 0 0 0 0 0 0];

internalField   nonuniform List<scalar> 
6000
(
0.575304
0.561341
0.561231
0.561327
0.562868
0.660712
0.644493
0.646191
0.603139
0.565192
0.56519
0.565209
0.686021
0.665503
0.557257
0.557075
0.557075
0.565929
0.573944
0.606057
0.573195
0.529545
0.521155
0.523929
0.579625
0.610595
0.558403
0.542438
0.580301
0.580247
0.575305
0.575296
0.561137
0.56606
0.65883
0.692122
0.695041
0.692118
0.692827
0.636038
0.62675
0.675699
0.691303
0.686016
0.652404
0.572394
0.616498
0.651591
0.654047
0.656646
0.65405
0.641745
0.605624
0.587982
0.610384
0.610596
0.605042
0.60399
0.642257
0.626694
0.550729
0.55112
0.551122
0.604747
0.692123
0.696734
0.692123
0.69725
0.692123
0.641299
0.646977
0.687699
0.686016
0.691689
0.686016
0.648527
0.645397
0.654052
0.655963
0.654052
0.656636
0.654052
0.655387
0.599818
0.588122
0.589717
0.567331
0.613667
0.641489
0.641823
0.550667
0.550667
0.602188
0.682229
0.694991
0.692123
0.697452
0.692123
0.694285
0.649529
0.650915
0.686002
0.690819
0.686016
0.690127
0.684168
0.654218
0.654782
0.654052
0.656295
0.654052
0.656005
0.654052
0.629767
0.587702
0.572252
0.547641
0.613594
0.641919
0.641579
0.550226
0.576589
0.669373
0.693085
0.692123
0.695994
0.692123
0.697185
0.692123
0.643883
0.640013
0.687098
0.686002
0.691472
0.685991
0.672544
0.647884
0.654052
0.654767
0.654052
0.654849
0.654052
0.653459
0.598072
0.535875
0.524314
0.534542
0.620878
0.641221
0.641503
0.550227
0.6248
0.680632
0.692123
0.693515
0.692123
0.696749
0.692123
0.694764
0.635675
0.627435
0.685988
0.689786
0.685991
0.688882
0.636783
0.621421
0.638803
0.63728
0.625352
0.61659
0.604993
0.573147
0.506439
0.473606
0.47146
0.495176
0.621419
0.6411
0.628454
0.549952
0.62626
0.657799
0.677725
0.692123
0.69398
0.692123
0.696357
0.692123
0.638664
0.627236
0.686365
0.685988
0.688941
0.685969
0.60326
0.572038
0.574983
0.561417
0.540182
0.525167
0.506797
0.477882
0.456993
0.45556
0.455489
0.467494
0.574239
0.623441
0.595863
0.550172
0.608746
0.610052
0.639313
0.687684
0.692123
0.694058
0.692123
0.694029
0.653251
0.628445
0.685969
0.686994
0.685969
0.686536
0.586543
0.519433
0.494196
0.483102
0.474022
0.465768
0.456999
0.455319
0.455531
0.455051
0.455529
0.455343
0.489812
0.572361
0.558231
0.621537
0.596352
0.568628
0.593683
0.655224
0.68907
0.692123
0.693108
0.692123
0.664724
0.61901
0.662765
0.685969
0.685617
0.650199
0.544622
0.478475
0.460501
0.455653
0.455476
0.455548
0.455161
0.455525
0.454598
0.455523
0.454569
0.455449
0.455421
0.495525
0.522233
0.695963
0.605374
0.558186
0.558875
0.598042
0.638864
0.663094
0.678692
0.687011
0.63836
0.558081
0.575072
0.624868
0.628113
0.578409
0.494205
0.459456
0.455627
0.455262
0.455529
0.454516
0.455523
0.454492
0.455521
0.454508
0.455451
0.454535
0.455456
0.458363
0.483976
0.726856
0.641905
0.560881
0.541368
0.542951
0.552594
0.577743
0.606918
0.624552
0.560448
0.483842
0.485754
0.520584
0.539688
0.510877
0.467739
0.455661
0.455079
0.455637
0.454623
0.455614
0.454563
0.455604
0.454517
0.455551
0.454769
0.45551
0.454836
0.455462
0.460403
0.726856
0.685837
0.576665
0.522228
0.499859
0.48993
0.498112
0.51834
0.52445
0.485594
0.462769
0.463205
0.473695
0.488165
0.480684
0.463022
0.455473
0.455829
0.476562
0.513065
0.525254
0.507917
0.520962
0.534779
0.491868
0.472918
0.505391
0.492918
0.455332
0.455336
0.726856
0.69776
0.572595
0.493598
0.469991
0.463058
0.465446
0.474114
0.472975
0.46496
0.461934
0.461945
0.464118
0.470113
0.469748
0.464722
0.504781
0.600194
0.685558
0.728968
0.738449
0.718336
0.725767
0.736703
0.696178
0.657743
0.70418
0.687238
0.531941
0.459832
0.71003
0.668291
0.544203
0.466721
0.462233
0.462265
0.462247
0.462296
0.462205
0.461933
0.461876
0.461926
0.461779
0.461942
0.470427
0.581884
0.720274
0.783202
0.789059
0.789559
0.789061
0.780391
0.780332
0.781697
0.780214
0.780513
0.779928
0.782564
0.7244
0.620719
0.646114
0.594512
0.498238
0.470584
0.494134
0.537856
0.530615
0.481161
0.462273
0.463824
0.461963
0.461787
0.461934
0.461952
0.60894
0.781414
0.790801
0.789061
0.789607
0.789061
0.781496
0.774711
0.780702
0.780215
0.781642
0.78008
0.782244
0.779929
0.781085
0.699157
0.589822
0.583388
0.582075
0.651707
0.731837
0.768989
0.750397
0.683095
0.592261
0.545301
0.511415
0.473667
0.469401
0.615511
0.779611
0.791842
0.789061
0.78978
0.789061
0.769169
0.750179
0.757915
0.780215
0.781562
0.78008
0.781204
0.779929
0.783175
0.779763
0.669163
0.687397
0.699339
0.795823
0.843922
0.850268
0.845902
0.825322
0.802192
0.773044
0.749546
0.728348
0.69701
0.688806
0.763697
0.790698
0.789061
0.790005
0.771184
0.746101
0.720544
0.705007
0.726121
0.775529
0.78008
0.781491
0.779929
0.782221
0.779763
0.781508
0.628012
0.848958
0.858114
0.868722
0.868807
0.853197
0.828909
0.800914
0.788734
0.789061
0.791177
0.789061
0.790754
0.78906
0.789679
0.789061
0.791915
0.771703
0.704765
0.678058
0.663478
0.653543
0.67892
0.755988
0.781184
0.779929
0.781326
0.779763
0.782962
0.779583
0.587003
0.890628
0.881792
0.86899
0.853736
0.83056
0.796966
0.76319
0.750328
0.772435
0.789061
0.791718
0.789061
0.791121
0.789058
0.790522
0.789061
0.737887
0.624432
0.614966
0.605418
0.595267
0.615748
0.723581
0.779929
0.781382
0.779763
0.781719
0.779584
0.780523
0.550548
0.877513
0.86604
0.848963
0.82689
0.800154
0.762658
0.72312
0.709628
0.744255
0.791664
0.789061
0.791797
0.789061
0.790494
0.789061
0.791052
0.721188
0.563714
0.557708
0.549436
0.536795
0.546129
0.678104
0.780176
0.779763
0.780821
0.779584
0.781005
0.779392
0.524764
0.851016
0.838951
0.820405
0.797375
0.76704
0.722697
0.67683
0.671681
0.727189
0.789061
0.791969
0.789061
0.79161
0.789061
0.790356
0.789061
0.730938
0.535697
0.508655
0.503944
0.49775
0.501155
0.607087
0.767008
0.780168
0.779584
0.779944
0.779393
0.732336
0.501757
0.822031
0.810255
0.790348
0.763033
0.726196
0.675837
0.627812
0.637374
0.72531
0.79287
0.789061
0.791924
0.789061
0.790597
0.789061
0.790267
0.744113
0.530499
0.482186
0.479788
0.478414
0.481267
0.535047
0.702793
0.758227
0.761573
0.755301
0.737613
0.604843
0.49042
0.791034
0.778004
0.753915
0.720105
0.67706
0.62467
0.583191
0.620707
0.754565
0.789061
0.791726
0.789061
0.791544
0.789061
0.790058
0.789061
0.749567
0.535839
0.470572
0.468196
0.468098
0.468992
0.486032
0.584659
0.666173
0.685403
0.670373
0.621654
0.490442
0.490401
0.753851
0.738372
0.70918
0.67011
0.623549
0.574689
0.548624
0.622599
0.789061
0.79289
0.789061
0.791797
0.789061
0.79041
0.789061
0.789509
0.745106
0.552359
0.468218
0.468011
0.468205
0.468042
0.468254
0.484415
0.575105
0.60897
0.588806
0.534045
0.490452
0.490427
0.709599
0.692074
0.659074
0.618231
0.57431
0.534611
0.527703
0.629136
0.792412
0.789061
0.791401
0.789061
0.791394
0.789061
0.789741
0.789061
0.726442
0.563941
0.468087
0.468275
0.505564
0.550539
0.570703
0.608495
0.65866
0.672643
0.658342
0.641679
0.627467
0.600165
0.662306
0.644099
0.610357
0.573447
0.539327
0.513308
0.51758
0.639839
0.789061
0.792508
0.789061
0.791523
0.789061
0.790277
0.789061
0.775416
0.688284
0.591279
0.595664
0.694101
0.768263
0.787806
0.795094
0.810642
0.809722
0.805439
0.803237
0.81129
0.818101
0.808762
0.618917
0.602808
0.572722
0.544437
0.521254
0.506998
0.516596
0.665527
0.792508
0.789061
0.791277
0.789061
0.79117
0.789061
0.789123
0.734365
0.654694
0.664556
0.766511
0.84002
0.8519
0.851924
0.852716
0.85197
0.852396
0.852331
0.852695
0.853063
0.852613
0.843131
0.586376
0.575823
0.552118
0.531804
0.515196
0.504114
0.532615
0.725729
0.789061
0.792139
0.789005
0.791265
0.789061
0.789666
0.771146
0.687644
0.654735
0.742098
0.835971
0.852114
0.851924
0.852231
0.85197
0.852302
0.852331
0.852565
0.853035
0.85316
0.853124
0.846719
0.566268
0.563396
0.544209
0.527421
0.514175
0.497288
0.575819
0.7874
0.792155
0.789061
0.791184
0.789061
0.790547
0.789061
0.734411
0.662979
0.693447
0.80087
0.848347
0.851336
0.851279
0.851416
0.852116
0.852306
0.852519
0.852908
0.85323
0.853172
0.853099
0.851599
0.55336
0.558178
0.53973
0.523958
0.514702
0.495804
0.629684
0.790711
0.789061
0.791702
0.789061
0.790737
0.789061
0.781451
0.701395
0.663064
0.738891
0.824852
0.846611
0.846709
0.844971
0.843643
0.845373
0.850644
0.852687
0.853089
0.853111
0.853213
0.853168
0.853092
0.540517
0.551562
0.532852
0.52037
0.516375
0.495845
0.675042
0.789061
0.791778
0.789061
0.790842
0.789061
0.789418
0.755259
0.680951
0.686343
0.767419
0.826124
0.83697
0.836028
0.832596
0.828685
0.82891
0.837814
0.849399
0.852835
0.853095
0.853127
0.85324
0.853213
0.523666
0.537997
0.522206
0.516106
0.512257
0.508931
0.709279
0.790612
0.789061
0.791022
0.789061
0.789599
0.784858
0.718589
0.667946
0.701729
0.776954
0.814004
0.819533
0.820726
0.817689
0.811543
0.808548
0.815475
0.835243
0.851832
0.852869
0.853019
0.853167
0.853283
0.503735
0.517048
0.508883
0.508894
0.496263
0.535404
0.730595
0.789061
0.790966
0.789061
0.789703
0.786885
0.747898
0.676889
0.651713
0.698252
0.759212
0.784021
0.795416
0.80186
0.801548
0.795064
0.789442
0.791324
0.812739
0.841348
0.852862
0.852877
0.852872
0.853061
0.484655
0.494166
0.493272
0.494742
0.485011
0.572386
0.743685
0.790136
0.789061
0.789738
0.782687
0.744137
0.674
0.621549
0.615269
0.66228
0.706642
0.734216
0.759565
0.776609
0.7819
0.778106
0.771389
0.769597
0.7877
0.820271
0.845814
0.852822
0.852847
0.852817
0.469084
0.475136
0.477232
0.477357
0.481902
0.616447
0.75764
0.789061
0.78959
0.7764
0.729396
0.653498
0.580727
0.549204
0.55222
0.587037
0.62064
0.658008
0.701241
0.735729
0.753845
0.757943
0.753789
0.750757
0.762367
0.791666
0.822831
0.84433
0.852817
0.852817
0.459125
0.462737
0.465112
0.466546
0.499973
0.659655
0.767183
0.78854
0.769764
0.711748
0.624624
0.543208
0.502055
0.491418
0.494213
0.508125
0.527251
0.561249
0.613437
0.667452
0.70798
0.729108
0.734308
0.732927
0.73646
0.757524
0.785772
0.818482
0.846148
0.852817
0.454416
0.456884
0.458923
0.468042
0.553768
0.685675
0.749637
0.752228
0.694737
0.59622
0.513029
0.477898
0.466905
0.464224
0.465227
0.469194
0.476347
0.490656
0.520632
0.572923
0.633874
0.681808
0.707474
0.712717
0.709334
0.71726
0.737248
0.774491
0.821774
0.847534
0.45326
0.45596
0.461474
0.499964
0.60029
0.67657
0.697503
0.657147
0.569387
0.49288
0.464302
0.45579
0.452963
0.4522
0.452675
0.454345
0.457594
0.463222
0.473566
0.495783
0.5416
0.607401
0.66327
0.685456
0.678703
0.671608
0.677939
0.711617
0.775146
0.820603
0.453276
0.459635
0.487777
0.556413
0.613985
0.638752
0.605888
0.534865
0.478112
0.456058
0.449323
0.446992
0.446025
0.445732
0.446067
0.447118
0.449064
0.45214
0.456925
0.465077
0.482066
0.522611
0.592551
0.64076
0.641228
0.618703
0.609998
0.629037
0.702134
0.761979
0.45873
0.471901
0.54374
0.589493
0.602723
0.57161
0.508247
0.46636
0.45065
0.445295
0.44328
0.44223
0.441579
0.441328
0.441551
0.442316
0.44372
0.44589
0.449043
0.453569
0.460574
0.474475
0.512467
0.570749
0.590338
0.562064
0.541412
0.53977
0.604287
0.671337
0.524793
0.52463
0.570742
0.589367
0.566991
0.499702
0.460476
0.447388
0.442864
0.441005
0.439861
0.438968
0.438362
0.438103
0.438208
0.438715
0.439734
0.441411
0.443892
0.447302
0.451677
0.457423
0.468593
0.498142
0.527143
0.510981
0.491155
0.483693
0.511804
0.565376
0.616318
0.583351
0.577883
0.571748
0.509181
0.460281
0.445984
0.441431
0.439627
0.438462
0.437481
0.436778
0.436344
0.436182
0.436194
0.43644
0.437009
0.438116
0.440009
0.442866
0.446597
0.450822
0.455776
0.46515
0.479212
0.47754
0.4683
0.465457
0.473089
0.490273
0.616935
0.605847
0.571823
0.52197
0.465265
0.446317
0.440688
0.438753
0.437662
0.436744
0.436106
0.435959
0.435922
0.435942
0.435903
0.435945
0.435948
0.436218
0.437295
0.439425
0.442905
0.447756
0.453962
0.459218
0.461575
0.462758
0.461301
0.461974
0.470914
0.470967
0.616935
0.596686
0.538523
0.473511
0.448699
0.440858
0.438246
0.437192
0.436424
0.435966
0.435951
0.435878
0.435933
0.435773
0.435927
0.435794
0.435936
0.43592
0.435994
0.43701
0.439724
0.445252
0.454348
0.460818
0.460913
0.460998
0.461091
0.462266
0.498599
0.492273
0.608407
0.562577
0.488758
0.453744
0.442447
0.438303
0.43691
0.436297
0.435963
0.43595
0.435849
0.43593
0.435626
0.43592
0.435476
0.43592
0.435689
0.435934
0.43591
0.435975
0.437185
0.442258
0.45452
0.46608
0.461001
0.461099
0.461246
0.504348
0.576031
0.567802
0.567884
0.512847
0.46296
0.446099
0.439356
0.436873
0.436211
0.435973
0.43595
0.435865
0.43593
0.435556
0.435917
0.435358
0.435913
0.435378
0.435918
0.435634
0.435933
0.4359
0.435992
0.439005
0.452613
0.474282
0.461147
0.471716
0.524695
0.587624
0.595285
0.595288
0.523054
0.481359
0.453401
0.442105
0.437424
0.436147
0.436006
0.435967
0.435918
0.435946
0.435632
0.435931
0.435341
0.435913
0.435378
0.435912
0.435375
0.435927
0.435653
0.435943
0.435898
0.436451
0.447398
0.479041
0.514293
0.564257
0.594536
0.59527
0.595289
0.59527
0.506784
0.470806
0.448594
0.439395
0.436278
0.43601
0.435998
0.435966
0.435956
0.435787
0.435938
0.435358
0.435979
0.435509
0.452434
0.435339
0.435917
0.435398
0.435928
0.435664
0.435948
0.435953
0.443568
0.484506
0.583418
0.595251
0.595249
0.595272
0.59018
0.575145
0.505566
0.465734
0.445174
0.437572
0.436041
0.436014
0.43603
0.43604
0.435937
0.435954
0.435586
0.436096
0.44431
0.513432
0.597561
0.47222
0.435893
0.435941
0.43544
0.43594
0.43564
0.435991
0.440053
0.482606
0.580964
0.58481
0.580938
0.575766
0.558329
0.533151
0.503122
0.461319
0.44265
0.436491
0.436034
0.436026
0.43612
0.43625
0.436145
0.436035
0.438205
0.449437
0.506284
0.698479
0.764218
0.606441
0.470427
0.436738
0.435949
0.435471
0.435948
0.435691
0.436443
0.47085
0.554262
0.548325
0.538565
0.53225
0.519062
0.503454
0.496677
0.457736
0.441144
0.436091
0.436043
0.436028
0.436327
0.43667
0.437309
0.440126
0.45036
0.475141
0.630557
0.779859
0.776296
0.723394
0.545341
0.455254
0.435611
0.435945
0.435502
0.435956
0.435935
0.457686
0.519167
0.516969
0.502246
0.499754
0.497837
0.493398
0.488774
0.455572
0.440585
0.436099
0.436041
0.436135
0.436781
0.437779
0.440351
0.447712
0.464893
0.509758
0.76077
0.776423
0.781545
0.770446
0.602477
0.472022
0.44365
0.435515
0.43595
0.435532
0.436049
0.448845
0.494252
0.507423
0.489553
0.489115
0.492305
0.490907
0.482095
0.454265
0.440571
0.436092
0.436059
0.436496
0.437749
0.440102
0.445445
0.456449
0.47401
0.610511
0.776411
0.782476
0.776423
0.777132
0.645988
0.481949
0.45249
0.438841
0.435501
0.435956
0.435673
0.442828
0.476171
0.504821
0.487976
0.487948
0.492364
0.490076
0.475615
0.453166
0.440796
0.436118
0.436056
0.437286
0.439543
0.44384
0.451729
0.464117
0.495001
0.746305
0.782046
0.776432
0.782073
0.776423
0.691583
0.513843
0.456276
0.447746
0.438501
0.435596
0.436002
0.439476
0.461204
0.496522
0.48877
0.490132
0.49627
0.489948
0.468394
0.451938
0.441186
0.436578
0.436599
0.438614
0.442556
0.449422
0.459521
0.482583
0.58414
0.779325
0.77654
0.782624
0.776432
0.777467
0.716364
0.594765
0.482941
0.453049
0.446161
0.438798
0.435908
0.43837
0.451253
0.482399
0.496964
0.510179
0.509951
0.490368
0.460779
0.450237
0.441286
0.437276
0.437666
0.44094
0.447709
0.458366
0.468254
0.549341
0.695267
0.77654
0.782513
0.77654
0.781598
0.776432
0.709794
0.637914
0.570158
0.492707
0.451931
0.444816
0.441048
0.439703
0.446753
0.478296
0.510719
0.509952
0.510417
0.49074
0.453041
0.447022
0.440609
0.437975
0.439511
0.445102
0.456655
0.472527
0.515314
0.634363
0.776472
0.781502
0.776638
0.782091
0.77654
0.775446
0.68568
0.625779
0.599181
0.55988
0.50155
0.463144
0.447071
0.44325
0.455617
0.501994
0.509952
0.510793
0.509951
0.487251
0.44522
0.441984
0.438947
0.4386
0.441913
0.450479
0.465096
0.471779
0.600113
0.7021
0.779314
0.776638
0.782003
0.776638
0.780419
0.768148
0.662802
0.591549
0.572908
0.564341
0.544109
0.506485
0.482331
0.472309
0.496309
0.50995
0.510792
0.509952
0.507212
0.477502
0.43918
0.438701
0.438656
0.438637
0.442537
0.451968
0.465441
0.476295
0.6584
0.755606
0.77654
0.781226
0.776638
0.780821
0.77654
0.768854
0.659764
0.559753
0.526848
0.523253
0.520813
0.518468
0.509833
0.506043
0.509949
0.510648
0.509952
0.510233
0.488971
0.466185
0.438773
0.438759
0.440673
0.438717
0.440252
0.446224
0.457716
0.507246
0.672891
0.776425
0.779017
0.77654
0.781025
0.77654
0.779269
0.776425
0.681065
0.548516
0.491617
0.482401
0.483894
0.492338
0.502292
0.509952
0.510384
0.509952
0.510255
0.497413
0.471013
0.457949
0.443658
0.445395
0.470086
0.44649
0.440246
0.440435
0.443473
0.516765
0.666968
0.773286
0.776425
0.779386
0.77654
0.779254
0.776425
0.77723
0.719438
0.565714
0.472415
0.468891
0.46871
0.474052
0.49173
0.510155
0.509952
0.510174
0.500496
0.475799
0.460496
0.453147
0.472701
0.582096
0.648064
0.497919
0.446081
0.449571
0.475586
0.507512
0.599761
0.72692
0.763963
0.776425
0.777742
0.776425
0.777027
0.776316
0.7316
0.605701
0.495972
0.50366
0.468896
0.468859
0.492279
0.509952
0.508258
0.49851
0.479439
0.463617
0.454623
0.450546
0.603237
0.714058
0.723574
0.679871
0.557734
0.557674
0.559693
0.507558
0.50764
0.589042
0.661042
0.69322
0.715366
0.720912
0.731182
0.730614
0.702378
0.642373
0.623283
0.677937
0.50559
0.468902
0.49556
0.499395
0.493033
0.480245
0.466776
0.456859
0.451152
0.449289
0.661995
0.723576
0.725546
0.723575
0.694256
0.621701
0.613262
0.545041
0.507745
0.50787
0.513373
0.519579
0.540592
0.560302
0.600449
0.628659
0.646884
0.673831
0.749187
0.811972
0.627558
0.477686
0.495544
0.488058
0.47931
0.468903
0.459422
0.452511
0.449107
0.449056
0.623755
0.71178
0.723576
0.725727
0.723576
0.617041
0.589072
0.630883
0.587453
0.533494
0.528591
0.511438
0.511217
0.511439
0.518247
0.560313
0.624258
0.710959
0.805846
0.816726
0.721399
0.493944
0.489253
0.479729
0.470337
0.461589
0.454395
0.44979
0.448319
0.449773
0.564892
0.670872
0.724579
0.723576
0.72539
0.643762
0.562713
0.634253
0.688963
0.683231
0.666641
0.606138
0.577246
0.586768
0.5603
0.581713
0.647037
0.747104
0.816221
0.817781
0.765949
0.521156
0.478505
0.473146
0.46322
0.456099
0.451
0.448391
0.448324
0.452476
0.515706
0.61308
0.723576
0.72504
0.723576
0.698603
0.562738
0.577932
0.689909
0.738098
0.738159
0.716749
0.672274
0.651878
0.623393
0.623502
0.681207
0.767806
0.816641
0.816726
0.775011
0.5584
0.471261
0.463443
0.456548
0.452136
0.449199
0.448374
0.448647
0.459319
0.490343
0.560551
0.703286
0.723576
0.72402
0.714496
0.619401
0.577541
0.635967
0.70074
0.718923
0.702799
0.65057
0.620568
0.616425
0.626613
0.692227
0.772345
0.806511
0.794861
0.749974
0.584398
0.466571
0.455314
0.45212
0.45059
0.449709
0.449392
0.458886
0.466656
0.481605
0.530087
0.649239
0.709744
0.710372
0.698535
0.655337
0.592788
0.610959
0.638425
0.654596
0.637426
0.584061
0.555483
0.572577
0.613257
0.697769
0.759529
0.749814
0.708995
0.679163
0.590916
0.501557
0.465645
0.455734
0.453065
0.454085
0.45823
0.475249
0.46783
0.482589
0.504257
0.576226
0.643558
0.64783
0.648426
0.649694
0.64632
0.636325
0.619895
0.599011
0.565179
0.528801
0.517986
0.53859
0.609157
0.696167
0.708973
0.63995
0.593951
0.586291
0.563352
0.545249
0.536192
0.481368
0.460822
0.461576
0.471966
0.475397
0.46654
0.481943
0.483011
0.507243
0.543518
0.554378
0.577628
0.632254
0.64627
0.646218
0.63103
0.594023
0.539345
0.516958
0.516367
0.532087
0.616815
0.694482
0.644945
0.541908
0.518644
0.514253
0.523196
0.540867
0.540765
0.532737
0.479677
0.474001
0.477911
0.475122
0.462111
0.477308
0.472688
0.473963
0.480443
0.488195
0.514012
0.609054
0.646218
0.646162
0.638966
0.598094
0.542367
0.519705
0.5164
0.531774
0.647884
0.708422
0.625607
0.503098
0.489289
0.482432
0.489327
0.512109
0.529442
0.532762
0.500326
0.487331
0.479249
0.467188
0.456707
0.473072
0.472536
0.472653
0.472562
0.472725
0.489543
0.588456
0.637025
0.63665
0.624775
0.58815
0.542604
0.522735
0.518585
0.557481
0.709526
0.74333
0.64595
0.516772
0.487825
0.474047
0.472363
0.479865
0.49454
0.507967
0.498278
0.483536
0.470484
0.458612
0.452382
0.472525
0.472589
0.47249
0.472653
0.472541
0.497763
0.561776
0.590677
0.586271
0.575574
0.554012
0.532779
0.523035
0.530337
0.640399
0.760293
0.761496
0.676125
0.541083
0.514457
0.478424
0.468561
0.468025
0.472964
0.480758
0.483771
0.472393
0.46029
0.452624
0.44976
0.472526
0.472466
0.472595
0.472472
0.472668
0.503232
0.516381
0.514935
0.51012
0.510249
0.511262
0.512861
0.524796
0.583442
0.723212
0.761385
0.760954
0.673156
0.549928
0.573166
0.514342
0.472119
0.466461
0.466258
0.469417
0.470341
0.462148
0.453504
0.449672
0.44965
0.472539
0.525439
0.495755
0.501831
0.483945
0.481733
0.472052
0.467589
0.468502
0.472508
0.482083
0.499795
0.537507
0.664033
0.755398
0.760954
0.734844
0.631677
0.560233
0.574284
0.573163
0.483421
0.468594
0.464565
0.464416
0.462594
0.455928
0.450084
0.449649
0.449646
0.505674
0.583639
0.577829
0.566867
0.486513
0.46295
0.462501
0.462945
0.463025
0.463055
0.4669
0.493762
0.592846
0.716278
0.753184
0.732624
0.646743
0.554787
0.572904
0.573168
0.574178
0.510519
0.473348
0.464524
0.461647
0.458579
0.453012
0.449664
0.449657
0.449748
0.554295
0.584075
0.58364
0.576261
0.504575
0.462576
0.463032
0.484174
0.491081
0.487641
0.481185
0.539954
0.66374
0.729551
0.737305
0.660646
0.54276
0.503812
0.573166
0.573808
0.573168
0.534808
0.473864
0.462895
0.459734
0.456547
0.452111
0.449705
0.452231
0.50543
0.549293
0.58364
0.583821
0.575431
0.564651
0.557995
0.631149
0.698485
0.685499
0.635878
0.593297
0.630328
0.69424
0.721409
0.708416
0.592261
0.482769
0.473844
0.538744
0.567363
0.573225
0.52891
0.463179
0.459317
0.459201
0.456132
0.455699
0.459837
0.530103
0.674342
0.522973
0.57397
0.582464
0.579912
0.620803
0.690179
0.786017
0.840046
0.835131
0.789811
0.709187
0.678486
0.680057
0.684441
0.661316
0.559085
0.460623
0.45247
0.472959
0.506549
0.538542
0.503455
0.463156
0.479755
0.486111
0.475475
0.487131
0.521109
0.668577
0.745302
0.496593
0.535707
0.55439
0.577218
0.637606
0.696906
0.780463
0.847281
0.847654
0.84133
0.766484
0.668084
0.612031
0.574403
0.559247
0.513657
0.46267
0.450836
0.451297
0.462762
0.488149
0.487817
0.545304
0.612374
0.612382
0.597907
0.606531
0.641886
0.695316
0.698751
0.479732
0.499738
0.520706
0.557659
0.614457
0.657942
0.739647
0.833736
0.848239
0.847654
0.800931
0.647176
0.501136
0.447367
0.448364
0.459528
0.462505
0.451049
0.451671
0.457396
0.472057
0.516314
0.634568
0.643785
0.643929
0.635896
0.637782
0.64417
0.64823
0.598156
0.471063
0.481085
0.496713
0.522408
0.564311
0.619105
0.698934
0.810712
0.847654
0.848074
0.824337
0.64853
0.449509
0.438479
0.438271
0.446933
0.462367
0.461637
0.454728
0.454637
0.467481
0.559971
0.597408
0.579398
0.567093
0.563219
0.565863
0.562504
0.546655
0.504308
0.468628
0.473417
0.483176
0.498034
0.520728
0.569791
0.677
0.790451
0.847699
0.847654
0.831009
0.664242
0.450246
0.436466
0.438337
0.43966
0.462072
0.461021
0.455447
0.461628
0.496627
0.53508
0.512065
0.492732
0.48601
0.484649
0.484691
0.481156
0.474364
0.464607
0.468658
0.471063
0.477196
0.485467
0.497067
0.536386
0.662645
0.775815
0.842057
0.847704
0.816091
0.637366
0.447963
0.437958
0.436392
0.438542
0.463933
0.525943
0.507023
0.497889
0.498236
0.482207
0.468245
0.463533
0.461564
0.460315
0.459264
0.458316
0.45758
0.4555
0.46882
0.470693
0.47513
0.481159
0.487225
0.529216
0.652456
0.758461
0.827611
0.844972
0.789926
0.587177
0.445906
0.436124
0.437958
0.447943
0.534538
0.536406
0.507103
0.482956
0.469043
0.461562
0.459568
0.459072
0.458868
0.459495
0.460404
0.459508
0.459273
0.455769
0.468883
0.47067
0.474174
0.479558
0.485936
0.535391
0.643866
0.734314
0.805966
0.838213
0.779959
0.565093
0.443584
0.437584
0.43636
0.471628
0.543968
0.526785
0.47234
0.461069
0.458234
0.457968
0.458191
0.458095
0.458433
0.460219
0.464334
0.461584
0.462186
0.457438
0.468994
0.470883
0.473187
0.478852
0.492463
0.552114
0.632186
0.703839
0.779415
0.826374
0.78578
0.595707
0.442627
0.435937
0.43795
0.471112
0.543656
0.481433
0.457607
0.455835
0.455813
0.45635
0.456603
0.456579
0.457078
0.460038
0.464681
0.461604
0.46213
0.459846
0.469219
0.471527
0.47223
0.482349
0.520608
0.569726
0.61333
0.667451
0.747121
0.810732
0.798815
0.66802
0.458078
0.437611
0.435921
0.456233
0.494686
0.466547
0.45855
0.459522
0.457189
0.458698
0.459981
0.459916
0.461684
0.464726
0.464682
0.462438
0.462796
0.463952
0.469572
0.472486
0.47388
0.508433
0.561962
0.580739
0.586927
0.624915
0.710969
0.796707
0.810795
0.74187
0.522272
0.436211
0.43796
0.446416
0.471263
0.478984
0.534447
0.556593
0.542013
0.56176
0.589369
0.600621
0.62593
0.666108
0.681783
0.649189
0.659572
0.552382
0.469818
0.473455
0.490548
0.545917
0.580259
0.580496
0.56301
0.579549
0.68658
0.789878
0.810959
0.783286
0.602926
0.438693
0.436433
0.443624
0.479486
0.610345
0.736755
0.749461
0.750099
0.772691
0.791184
0.803756
0.821704
0.844352
0.8651
0.864453
0.871089
0.804012
0.468969
0.474556
0.508854
0.550769
0.576345
0.575921
0.546288
0.548165
0.685934
0.78965
0.809199
0.791454
0.660383
0.457051
0.438681
0.446502
0.528434
0.733883
0.789015
0.789032
0.795796
0.811103
0.821885
0.832521
0.844257
0.855385
0.875224
0.889162
0.889206
0.872504
0.46398
0.471192
0.492928
0.520648
0.544777
0.554206
0.535052
0.549771
0.699767
0.79224
0.797904
0.786704
0.689185
0.498507
0.447035
0.455881
0.600278
0.751201
0.765445
0.758936
0.763936
0.776692
0.785782
0.796716
0.810956
0.824925
0.844149
0.863206
0.882443
0.855676
0.451767
0.4555
0.462589
0.474274
0.493142
0.514541
0.52299
0.56339
0.722456
0.793408
0.781974
0.774595
0.713175
0.522772
0.458868
0.474638
0.639388
0.729207
0.73502
0.728692
0.73153
0.741426
0.749055
0.759859
0.775191
0.789801
0.805567
0.822713
0.84929
0.820665
0.444809
0.444851
0.445786
0.449839
0.459641
0.477841
0.504779
0.574318
0.736669
0.792034
0.774502
0.757377
0.721318
0.536594
0.459309
0.520658
0.648946
0.696886
0.705402
0.701289
0.700861
0.707733
0.712255
0.718938
0.729545
0.741357
0.755028
0.763538
0.784568
0.717455
0.44478
0.444779
0.44481
0.444817
0.445522
0.455901
0.48193
0.568159
0.74241
0.793036
0.777516
0.745393
0.711704
0.5672
0.470373
0.557846
0.627147
0.660542
0.671569
0.669169
0.666854
0.670706
0.672482
0.672254
0.672591
0.675779
0.685866
0.672611
0.636568
0.467098
0.444781
0.445016
0.450317
0.446088
0.445304
0.44542
0.460029
0.539114
0.736595
0.791862
0.783099
0.743175
0.701247
0.628164
0.559365
0.563182
0.588002
0.622098
0.638707
0.639054
0.633227
0.631193
0.628211
0.619417
0.608254
0.599843
0.589773
0.520789
0.447284
0.43092
0.445374
0.515956
0.550907
0.520489
0.446859
0.449658
0.449792
0.496506
0.691343
0.789866
0.779279
0.738224
0.702955
0.683855
0.650501
0.566164
0.558215
0.583858
0.606135
0.610454
0.604427
0.595363
0.583998
0.566301
0.546218
0.52494
0.478483
0.439404
0.430732
0.430585
0.614073
0.78718
0.802335
0.785667
0.63844
0.469911
0.450029
0.453824
0.589493
0.722863
0.738897
0.70959
0.688207
0.705699
0.750737
0.592112
0.5498
0.550757
0.574537
0.58516
0.582997
0.567588
0.548464
0.524587
0.49685
0.465813
0.438281
0.430584
0.430577
0.430517
0.785004
0.877092
0.875902
0.876635
0.852898
0.721781
0.542615
0.474647
0.48065
0.554537
0.619293
0.622498
0.641378
0.721266
0.844035
0.695917
0.549755
0.534553
0.547167
0.563005
0.566948
0.549283
0.524371
0.494436
0.465258
0.441645
0.430834
0.430733
0.43029
0.432701
0.815065
0.875904
0.87677
0.875904
0.876194
0.869916
0.814869
0.70336
0.542217
0.524702
0.524858
0.524633
0.603147
0.777373
0.913061
0.841111
0.6257
0.534676
0.531976
0.54228
0.550547
0.535799
0.503528
0.473097
0.447367
0.432511
0.430853
0.430046
0.431322
0.486828
0.814816
0.877189
0.875904
0.876487
0.875904
0.875964
0.874764
0.858721
0.790154
0.652961
0.591074
0.608088
0.692517
0.872615
0.942394
0.922859
0.800912
0.602981
0.53226
0.531976
0.533581
0.523741
0.487409
0.456814
0.435344
0.431052
0.429842
0.431413
0.488229
0.684689
0.816924
0.875904
0.876416
0.875904
0.874851
0.870788
0.868163
0.865949
0.864854
0.855599
0.835102
0.836235
0.865464
0.930361
0.942173
0.943269
0.915188
0.797055
0.608411
0.532745
0.522218
0.509921
0.475461
0.445146
0.431291
0.429643
0.431169
0.461926
0.658487
0.752987
0.818868
0.876725
0.875904
0.875996
0.868293
0.859877
0.856591
0.857096
0.864416
0.889432
0.918945
0.933852
0.938024
0.942173
0.943396
0.942199
0.943431
0.919063
0.811677
0.622228
0.524244
0.497872
0.467602
0.439676
0.430218
0.431106
0.430257
0.508667
0.693014
0.714819
0.819577
0.875904
0.876021
0.872139
0.857431
0.847149
0.843568
0.844614
0.857257
0.892256
0.930649
0.943
0.942173
0.942844
0.942199
0.943946
0.942224
0.943689
0.928196
0.832805
0.624613
0.497495
0.464357
0.439051
0.431289
0.430066
0.43579
0.510002
0.632326
0.655924
0.821406
0.876186
0.873658
0.860732
0.843534
0.832352
0.827648
0.829672
0.848662
0.89411
0.93545
0.942173
0.943101
0.942193
0.943117
0.942224
0.944278
0.942248
0.943928
0.936989
0.853783
0.630173
0.483365
0.446358
0.430715
0.431387
0.456133
0.51679
0.596911
0.606057
0.820657
0.875904
0.863273
0.845102
0.827824
0.814988
0.808518
0.811743
0.839231
0.895905
0.938645
0.943255
0.942199
0.943067
0.942224
0.943385
0.942248
0.944404
0.942269
0.943671
0.940425
0.875096
0.668973
0.480208
0.433641
0.431
0.458836
0.521661
0.60353
0.570013
0.808606
0.867658
0.84841
0.828731
0.811252
0.796422
0.788302
0.79309
0.829826
0.896717
0.940774
0.942199
0.943261
0.94222
0.94305
0.942248
0.943681
0.942269
0.944363
0.942269
0.942777
0.932436
0.868344
0.657443
0.461318
0.432056
0.454689
0.52569
0.606275
0.557145
0.778216
0.84382
0.825803
0.809772
0.793289
0.776711
0.767604
0.77441
0.82043
0.896493
0.941203
0.943142
0.942224
0.943318
0.942177
0.943211
0.942269
0.944043
0.942289
0.943893
0.942269
0.931159
0.899664
0.787201
0.56563
0.445852
0.470427
0.582044
0.609359
0.570301
0.710226
0.8055
0.788476
0.780758
0.768323
0.75194
0.744186