/*--------------------------------*- C++ -*----------------------------------*\
| =========                 |                                                 |
| \\      /  F ield         | OpenFOAM: The Open Source CFD Toolbox           |
|  \\    /   O peration     | Version:  2.3.0                                 |
|   \\  /    A nd           | Web:      www.OpenFOAM.org                      |
|    \\/     M anipulation  |                                                 |
\*---------------------------------------------------------------------------*/
FoamFile
{
    version     2.0;
    format      ascii;
    class       volVectorField;
    location    "1.02";
    object      U.airMean;
}
// * * * * * * * * * * * * * * * * * * * * * * * * * * * * * * * * * * * * * //

dimensions      [0 1 -1 0 0 0 0];

internalField   nonuniform List<vector> 
6000
(
(-0.00442743 0.253864 0)
(0.0213344 0.223023 0)
(0.0539882 0.232501 0)
(0.0756727 0.231476 0)
(0.079271 0.233383 0)
(0.058077 0.233208 0)
(0.0371257 0.216616 0)
(0.0215821 0.211402 0)
(0.00274569 0.200926 0)
(-0.00912366 0.194957 0)
(-0.00888438 0.19251 0)
(-0.00342474 0.191589 0)
(-0.0186215 0.218896 0)
(-0.0538599 0.234519 0)
(-0.0719867 0.226083 0)
(-0.0392581 0.210359 0)
(0.0051033 0.202296 0)
(0.0210876 0.210293 0)
(0.0079503 0.207961 0)
(0.00403408 0.199571 0)
(0.00720671 0.198642 0)
(0.0192328 0.209773 0)
(0.0367929 0.21071 0)
(0.0495377 0.214329 0)
(0.031129 0.231859 0)
(-0.0138936 0.236903 0)
(-0.0333964 0.222247 0)
(-0.0224348 0.231179 0)
(-0.0320795 0.238252 0)
(-0.0110881 0.260154 0)
(0.0198774 0.947991 0)
(0.0415352 0.943281 0)
(0.065661 0.945596 0)
(0.0726247 0.961134 0)
(0.0744342 0.991545 0)
(0.0823706 1.01641 0)
(0.0811009 1.01317 0)
(0.0526262 1.0299 0)
(0.0133201 1.04214 0)
(-0.0157742 1.01021 0)
(-0.0188215 0.998642 0)
(-0.0214438 1.01935 0)
(-0.0337758 1.02116 0)
(-0.048771 1.03224 0)
(-0.0564942 0.980762 0)
(-0.0414953 0.923822 0)
(-0.0211127 0.946021 0)
(-0.00902595 1.00121 0)
(-0.00126864 0.998342 0)
(0.00493216 1.00126 0)
(0.0188715 0.99379 0)
(0.0309242 0.979961 0)
(0.0431441 0.984516 0)
(0.0291691 1.01246 0)
(-0.0116338 1.05717 0)
(-0.0499237 1.04364 0)
(-0.0606408 1.00263 0)
(-0.060456 0.981647 0)
(-0.0569529 0.998524 0)
(-0.0304136 0.90176 0)
(-0.00119927 0.793785 0)
(0.0229757 0.759722 0)
(0.0355836 0.776038 0)
(0.0370369 0.802508 0)
(0.0482072 0.818056 0)
(0.0679959 0.844603 0)
(0.072927 0.866629 0)
(0.0426277 0.901621 0)
(0.00795299 0.904527 0)
(-0.00949345 0.840251 0)
(-0.00485399 0.819276 0)
(0.0015695 0.851616 0)
(-0.00829457 0.872124 0)
(-0.0262316 0.890793 0)
(-0.039382 0.830039 0)
(-0.0495631 0.7607 0)
(-0.0523603 0.777072 0)
(-0.0407656 0.816133 0)
(-0.0279447 0.820145 0)
(-0.0152734 0.798514 0)
(0.0103281 0.780955 0)
(0.031216 0.790276 0)
(0.0301248 0.805818 0)
(-0.00239083 0.874151 0)
(-0.0423183 0.923852 0)
(-0.0477849 0.889416 0)
(-0.0358282 0.844207 0)
(-0.0330118 0.826786 0)
(-0.0384541 0.843393 0)
(-0.00844276 0.735122 0)
(-0.00748781 0.80652 0)
(-0.00150641 0.77817 0)
(-0.00419039 0.79984 0)
(0.0100382 0.813984 0)
(0.0299594 0.817946 0)
(0.0507061 0.842525 0)
(0.0506233 0.890302 0)
(0.0292313 0.935913 0)
(0.0078453 0.937852 0)
(-0.000722696 0.863918 0)
(0.00242503 0.83121 0)
(0.0109888 0.872907 0)
(0.00442361 0.898705 0)
(-0.012442 0.909223 0)
(-0.0338644 0.851334 0)
(-0.0525377 0.782943 0)
(-0.0526766 0.787415 0)
(-0.0443827 0.829589 0)
(-0.0354148 0.837032 0)
(-0.0167687 0.813414 0)
(0.00126215 0.805718 0)
(0.00664555 0.815231 0)
(-0.0147686 0.846877 0)
(-0.052518 0.937366 0)
(-0.0617378 0.931739 0)
(-0.0416641 0.893259 0)
(-0.0205339 0.851391 0)
(-0.0101614 0.844465 0)
(-0.0205627 0.868968 0)
(-0.00352376 0.724653 0)
(-0.00620867 0.814056 0)
(-0.0236339 0.772759 0)
(-0.0201505 0.781014 0)
(0.0020349 0.785072 0)
(0.0209487 0.794035 0)
(0.0307997 0.833566 0)
(0.0243526 0.899677 0)
(0.00920448 0.952169 0)
(-0.000924484 0.944795 0)
(-0.00319967 0.862614 0)
(-0.00187626 0.82692 0)
(0.00563626 0.864272 0)
(-0.0083195 0.903801 0)
(-0.0275815 0.917969 0)
(-0.0422359 0.864252 0)
(-0.0414482 0.7885 0)
(-0.0302078 0.77882 0)
(-0.028626 0.834952 0)
(-0.0290391 0.824727 0)
(-0.0145835 0.790302 0)
(-0.00755635 0.789826 0)
(-0.0190241 0.815561 0)
(-0.0489508 0.872937 0)
(-0.0708748 0.939861 0)
(-0.0630641 0.916368 0)
(-0.0464358 0.870143 0)
(-0.0264219 0.835045 0)
(-0.0133004 0.829598 0)
(-0.0160006 0.870523 0)
(-0.000439596 0.702051 0)
(-0.0056003 0.822863 0)
(-0.0207291 0.775066 0)
(-0.0220055 0.763269 0)
(0.00217739 0.759786 0)
(0.00751314 0.779281 0)
(0.00798049 0.829468 0)
(0.000467071 0.902902 0)
(-0.00721075 0.954521 0)
(-0.0105194 0.944457 0)
(-0.0110924 0.867866 0)
(-0.0137524 0.827144 0)
(-0.0222584 0.86982 0)
(-0.0447897 0.927446 0)
(-0.0528278 0.922461 0)
(-0.0400124 0.853037 0)
(-0.0128582 0.769655 0)
(0.00396507 0.785065 0)
(-0.00527201 0.850284 0)
(-0.0181174 0.826142 0)
(-0.0205461 0.78857 0)
(-0.0279887 0.799657 0)
(-0.0471988 0.841507 0)
(-0.0672107 0.889351 0)
(-0.0741716 0.936239 0)
(-0.0646873 0.898151 0)
(-0.0564625 0.851273 0)
(-0.045265 0.811487 0)
(-0.0345805 0.816169 0)
(-0.0271877 0.857175 0)
(-0.00329102 0.680209 0)
(-0.00344413 0.822101 0)
(-0.0106112 0.772737 0)
(-0.00630166 0.739633 0)
(0.00163181 0.744922 0)
(0.0017276 0.771594 0)
(-0.00710387 0.827387 0)
(-0.010342 0.902623 0)
(-0.0122937 0.953391 0)
(-0.0175683 0.942748 0)
(-0.0233204 0.866456 0)
(-0.0370501 0.833749 0)
(-0.0594737 0.882609 0)
(-0.0751155 0.928337 0)
(-0.0538786 0.900079 0)
(-0.0235018 0.82454 0)
(0.00471381 0.749482 0)
(0.00976712 0.786409 0)
(-0.00579401 0.869941 0)
(-0.0210331 0.835566 0)
(-0.0339228 0.796222 0)
(-0.0461639 0.810209 0)
(-0.0632245 0.851294 0)
(-0.0767907 0.890693 0)
(-0.0800535 0.91818 0)
(-0.071049 0.881805 0)
(-0.069713 0.829518 0)
(-0.0684291 0.791233 0)
(-0.064926 0.790301 0)
(-0.049746 0.82551 0)
(-0.00962616 0.646166 0)
(0.0044978 0.811141 0)
(0.00728724 0.760132 0)
(0.00831881 0.724211 0)
(0.00537918 0.738001 0)
(-0.00810725 0.772465 0)
(-0.0133596 0.826118 0)
(-0.0143587 0.893684 0)
(-0.00791933 0.950352 0)
(-0.0144378 0.944493 0)
(-0.035345 0.875151 0)
(-0.0617948 0.847848 0)
(-0.080896 0.893741 0)
(-0.0743985 0.906071 0)
(-0.0379259 0.87173 0)
(-0.00460173 0.799887 0)
(0.0165069 0.742341 0)
(1.80856e-05 0.813625 0)
(-0.0270959 0.880842 0)
(-0.0392614 0.842488 0)
(-0.0527637 0.800946 0)
(-0.0635695 0.816068 0)
(-0.080859 0.858015 0)
(-0.091433 0.891046 0)
(-0.0905698 0.901166 0)
(-0.082093 0.862165 0)
(-0.0826167 0.815333 0)
(-0.0882391 0.776663 0)
(-0.0892955 0.769112 0)
(-0.06642 0.78137 0)
(-0.0157697 0.60124 0)
(0.00970478 0.787643 0)
(0.019833 0.740887 0)
(0.0184334 0.706965 0)
(0.00327983 0.742057 0)
(-0.012068 0.774216 0)
(-0.0231695 0.829691 0)
(-0.0158662 0.885885 0)
(-0.00662244 0.942688 0)
(-0.00773028 0.956459 0)
(-0.0433239 0.897751 0)
(-0.0746052 0.861075 0)
(-0.0734548 0.884255 0)
(-0.0524604 0.874604 0)
(-0.0159295 0.843394 0)
(0.00791258 0.775611 0)
(0.0118568 0.749256 0)
(-0.0181102 0.844782 0)
(-0.0473558 0.888591 0)
(-0.0571891 0.844521 0)
(-0.0726394 0.801651 0)
(-0.0922511 0.821497 0)
(-0.107643 0.863303 0)
(-0.109243 0.885442 0)
(-0.104106 0.881179 0)
(-0.0924176 0.848325 0)
(-0.0920059 0.799991 0)
(-0.0996049 0.768605 0)
(-0.097643 0.738187 0)
(-0.0724643 0.734 0)
(-0.0178249 0.549402 0)
(0.0130622 0.758719 0)
(0.0292932 0.722981 0)
(0.0249431 0.699859 0)
(0.00637465 0.745453 0)
(-0.0118378 0.777321 0)
(-0.0186098 0.830355 0)
(-0.0118875 0.877242 0)
(-0.00536135 0.931939 0)
(-0.00140582 0.971845 0)
(-0.0383359 0.931276 0)
(-0.0628722 0.862965 0)
(-0.0483004 0.861672 0)
(-0.0231591 0.846976 0)
(0.00179007 0.825113 0)
(0.00859394 0.771596 0)
(-0.00879293 0.773939 0)
(-0.0444231 0.870954 0)
(-0.0634313 0.894512 0)
(-0.0746099 0.8459 0)
(-0.0977255 0.814962 0)
(-0.127911 0.832719 0)
(-0.136669 0.860968 0)
(-0.129581 0.873039 0)
(-0.115914 0.865919 0)
(-0.101286 0.829407 0)
(-0.096256 0.791399 0)
(-0.101442 0.758177 0)
(-0.0955068 0.712381 0)
(-0.0713013 0.689615 0)
(-0.01755 0.501664 0)
(0.0148254 0.725072 0)
(0.036318 0.704022 0)
(0.0332789 0.692025 0)
(0.0164791 0.748291 0)
(-0.00193442 0.782558 0)
(-0.00983782 0.833292 0)
(-0.00528034 0.885787 0)
(0.00221048 0.922796 0)
(0.0132624 0.988235 0)
(-0.0115018 0.960015 0)
(-0.0352336 0.862982 0)
(-0.0234042 0.833486 0)
(-0.00337715 0.829544 0)
(0.00630681 0.818122 0)
(-0.00514328 0.781819 0)
(-0.0390556 0.80945 0)
(-0.0738718 0.88284 0)
(-0.0806025 0.896572 0)
(-0.0946914 0.850748 0)
(-0.124336 0.839847 0)
(-0.154687 0.840616 0)
(-0.157739 0.852939 0)
(-0.139751 0.857947 0)
(-0.12133 0.844299 0)
(-0.105272 0.814897 0)
(-0.0989987 0.779428 0)
(-0.101948 0.748029 0)
(-0.0944547 0.685769 0)
(-0.0698065 0.647156 0)
(-0.0167623 0.459546 0)
(0.0155137 0.688896 0)
(0.0422416 0.683956 0)
(0.0431338 0.684754 0)
(0.0338028 0.747286 0)
(0.0149104 0.784384 0)
(0.00609254 0.834876 0)
(0.00554951 0.887652 0)
(0.0177411 0.91382 0)
(0.0308899 0.990249 0)
(0.0262299 0.991198 0)
(-0.00418077 0.87248 0)
(-0.00907762 0.818056 0)
(0.000933407 0.824091 0)
(-0.00211993 0.822157 0)
(-0.0296472 0.809596 0)
(-0.0727067 0.843054 0)
(-0.0996423 0.890873 0)
(-0.0982375 0.891772 0)
(-0.111808 0.86763 0)
(-0.143956 0.865102 0)
(-0.162574 0.844448 0)
(-0.152565 0.837689 0)
(-0.134274 0.835968 0)
(-0.122037 0.826673 0)
(-0.11026 0.798303 0)
(-0.106307 0.773977 0)
(-0.109795 0.735288 0)
(-0.0962849 0.664255 0)
(-0.0678411 0.600855 0)
(-0.0139955 0.420984 0)
(0.0148628 0.651947 0)
(0.0456962 0.662876 0)
(0.0542455 0.669659 0)
(0.0564 0.744975 0)
(0.0379155 0.786751 0)
(0.0261246 0.836831 0)
(0.0245987 0.886705 0)
(0.0313669 0.909591 0)
(0.0405728 0.981539 0)
(0.0545168 1.00855 0)
(0.0248745 0.90468 0)
(-0.00430225 0.815871 0)
(-0.00957685 0.826452 0)
(-0.0218346 0.836263 0)
(-0.0587885 0.847485 0)
(-0.101981 0.875956 0)
(-0.117132 0.891205 0)
(-0.114392 0.887085 0)
(-0.122936 0.891085 0)
(-0.149463 0.880306 0)
(-0.149268 0.83931 0)
(-0.132378 0.817319 0)
(-0.122191 0.823697 0)
(-0.121132 0.815274 0)
(-0.120179 0.793809 0)
(-0.123042 0.768846 0)
(-0.12626 0.726344 0)
(-0.101865 0.636033 0)
(-0.0693956 0.555461 0)
(-0.011147 0.386521 0)
(0.0129341 0.616902 0)
(0.0469278 0.638159 0)
(0.0644422 0.648866 0)
(0.0762043 0.737425 0)
(0.0637194 0.790647 0)
(0.0498767 0.837485 0)
(0.0463755 0.885396 0)
(0.0442498 0.914397 0)
(0.0523344 0.965016 0)
(0.0686812 1.01437 0)
(0.0487125 0.942105 0)
(-7.96422e-05 0.841905 0)
(-0.0257143 0.836112 0)
(-0.050718 0.857873 0)
(-0.0914956 0.890739 0)
(-0.124827 0.896171 0)
(-0.131517 0.887737 0)
(-0.121869 0.885006 0)
(-0.127745 0.908128 0)
(-0.136232 0.884122 0)
(-0.126015 0.824754 0)
(-0.11047 0.800773 0)
(-0.110628 0.82215 0)
(-0.124651 0.817506 0)
(-0.136648 0.794688 0)
(-0.147789 0.771567 0)
(-0.143836 0.710443 0)
(-0.105741 0.603628 0)
(-0.067546 0.512001 0)
(-0.0116325 0.352565 0)
(0.0104678 0.587608 0)
(0.0410244 0.607386 0)
(0.0669114 0.620956 0)
(0.0898476 0.722288 0)
(0.0906307 0.78925 0)
(0.0762209 0.838556 0)
(0.0683246 0.885534 0)
(0.0586368 0.916009 0)
(0.0674043 0.957889 0)
(0.0747668 1.00758 0)
(0.0667514 0.974662 0)
(0.0111138 0.886734 0)
(-0.037265 0.858218 0)
(-0.0738563 0.892856 0)
(-0.115914 0.926673 0)
(-0.138195 0.909481 0)
(-0.135918 0.878481 0)
(-0.124168 0.882838 0)
(-0.122517 0.909645 0)
(-0.115835 0.879982 0)
(-0.100005 0.807693 0)
(-0.0919143 0.792539 0)
(-0.103885 0.829152 0)
(-0.129849 0.829669 0)
(-0.156575 0.807965 0)
(-0.169062 0.769847 0)
(-0.150005 0.684431 0)
(-0.100558 0.562741 0)
(-0.0586903 0.472959 0)
(-0.00924443 0.32391 0)
(0.00762057 0.567029 0)
(0.0302721 0.575553 0)
(0.0610966 0.588232 0)
(0.0953411 0.691892 0)
(0.112404 0.786691 0)
(0.101056 0.841797 0)
(0.091551 0.89206 0)
(0.0807715 0.922476 0)
(0.0802021 0.955361 0)
(0.0859545 1.00815 0)
(0.0777436 0.995038 0)
(0.0272129 0.95276 0)
(-0.032874 0.895848 0)
(-0.082894 0.935575 0)
(-0.120174 0.960709 0)
(-0.140526 0.914026 0)
(-0.133781 0.872343 0)
(-0.123646 0.879095 0)
(-0.111592 0.903393 0)
(-0.0917086 0.862643 0)
(-0.0737396 0.794074 0)
(-0.0765341 0.794584 0)
(-0.0976349 0.845961 0)
(-0.130678 0.855087 0)
(-0.166322 0.82589 0)
(-0.169573 0.755856 0)
(-0.133701 0.6429 0)
(-0.0819479 0.523178 0)
(-0.0454967 0.44006 0)
(-0.00652489 0.30438 0)
(0.00272964 0.553738 0)
(0.0190948 0.549323 0)
(0.0499788 0.550523 0)
(0.0920219 0.648873 0)
(0.123112 0.77647 0)
(0.115552 0.840229 0)
(0.109145 0.894304 0)
(0.100941 0.929355 0)
(0.0904373 0.962552 0)
(0.091585 1.00513 0)
(0.0868507 1.0183 0)
(0.0434056 1.00393 0)
(-0.00922672 0.95124 0)
(-0.0682922 0.979548 0)
(-0.102646 0.992047 0)
(-0.128497 0.925177 0)
(-0.124881 0.867228 0)
(-0.111122 0.869705 0)
(-0.0887527 0.882426 0)
(-0.064108 0.838596 0)
(-0.0509889 0.788467 0)
(-0.0634813 0.804964 0)
(-0.0913324 0.865794 0)
(-0.125311 0.881968 0)
(-0.154748 0.844253 0)
(-0.143742 0.724523 0)
(-0.104611 0.601119 0)
(-0.060746 0.489097 0)
(-0.0326683 0.419426 0)
(-0.00813492 0.289442 0)
(-0.00146811 0.548333 0)
(0.0131012 0.527656 0)
(0.0400921 0.512795 0)
(0.0841251 0.600119 0)
(0.121461 0.763973 0)
(0.121959 0.837163 0)
(0.11944 0.891438 0)
(0.112561 0.94122 0)
(0.0942295 0.972213 0)
(0.0906795 1.006 0)
(0.0838045 1.03429 0)
(0.0607558 1.03846 0)
(0.0146091 1.00696 0)
(-0.03611 1.02052 0)
(-0.0700411 1.02787 0)
(-0.101415 0.942276 0)
(-0.103186 0.860768 0)
(-0.0850439 0.850792 0)
(-0.0588991 0.858239 0)
(-0.0401824 0.820311 0)
(-0.0332311 0.790411 0)
(-0.052867 0.820606 0)
(-0.0821744 0.889788 0)
(-0.113625 0.906903 0)
(-0.124205 0.837616 0)
(-0.110887 0.700173 0)
(-0.0753738 0.560072 0)
(-0.0420242 0.46633 0)
(-0.0229459 0.405776 0)
(-0.00723787 0.275049 0)
(-0.0012977 0.54373 0)
(0.0121174 0.509442 0)
(0.0343449 0.481533 0)
(0.0752831 0.554357 0)
(0.112767 0.743813 0)
(0.12193 0.832295 0)
(0.122565 0.885657 0)
(0.118753 0.953899 0)
(0.102925 0.986832 0)
(0.0865402 1.01339 0)
(0.0804834 1.04922 0)
(0.0677136 1.06814 0)
(0.0301491 1.05473 0)
(-0.00293255 1.05651 0)
(-0.0298772 1.06135 0)
(-0.062135 0.965417 0)
(-0.0710124 0.857667 0)
(-0.0575994 0.828011 0)
(-0.0319769 0.842422 0)
(-0.0212653 0.809337 0)
(-0.0222663 0.797102 0)
(-0.0427486 0.838836 0)
(-0.0721431 0.908373 0)
(-0.0949132 0.92172 0)
(-0.0919555 0.820372 0)
(-0.0809917 0.684093 0)
(-0.0524342 0.524032 0)
(-0.0277824 0.447834 0)
(-0.0145073 0.395918 0)
(-0.00313445 0.265716 0)
(0.00153437 0.542063 0)
(0.0128821 0.497808 0)
(0.0323248 0.455376 0)
(0.0685097 0.514091 0)
(0.104698 0.720018 0)
(0.120593 0.824996 0)
(0.117995 0.878762 0)
(0.121015 0.955488 0)
(0.103828 1.00817 0)
(0.0849272 1.02748 0)
(0.0750959 1.05669 0)
(0.0724767 1.0924 0)
(0.044933 1.08429 0)
(0.0224416 1.08365 0)
(0.0141952 1.08449 0)
(-0.0165752 0.994428 0)
(-0.0394798 0.865775 0)
(-0.0357964 0.808093 0)
(-0.0132129 0.830541 0)
(-0.00736498 0.805999 0)
(-0.0146007 0.804286 0)
(-0.0349402 0.856266 0)
(-0.0600422 0.921853 0)
(-0.071481 0.929162 0)
(-0.066887 0.798899 0)
(-0.057026 0.674691 0)
(-0.0370476 0.495941 0)
(-0.0191558 0.432846 0)
(-0.00771634 0.385491 0)
(0.00553758 0.258669 0)
(0.00513558 0.536811 0)
(0.018536 0.48829 0)
(0.0358442 0.432624 0)
(0.0657061 0.48274 0)
(0.0987769 0.68765 0)
(0.117652 0.819707 0)
(0.113032 0.872084 0)
(0.116188 0.951573 0)
(0.106679 1.02794 0)
(0.0848685 1.04284 0)
(0.0723201 1.06136 0)
(0.0740786 1.10711 0)
(0.0635277 1.11364 0)
(0.0420488 1.09258 0)
(0.0467385 1.09835 0)
(0.0258713 1.0277 0)
(-0.00976937 0.889909 0)
(-0.0186881 0.794123 0)
(-0.00146285 0.820318 0)
(0.00222007 0.804991 0)
(-0.00992283 0.813282 0)
(-0.0274012 0.870947 0)
(-0.0474155 0.928395 0)
(-0.048409 0.926734 0)
(-0.0524412 0.787822 0)
(-0.0439158 0.666235 0)
(-0.0287091 0.477004 0)
(-0.0140795 0.418803 0)
(-0.00122235 0.369836 0)
(0.0134759 0.262451 0)
(0.00946795 0.525134 0)
(0.0275049 0.477409 0)
(0.0401027 0.415624 0)
(0.0652181 0.455979 0)
(0.094327 0.654098 0)
(0.113346 0.817738 0)
(0.107146 0.866237 0)
(0.112521 0.94408 0)
(0.108139 1.03894 0)
(0.0878748 1.06547 0)
(0.0700021 1.0675 0)
(0.0721509 1.1067 0)
(0.0796027 1.13176 0)
(0.0621815 1.10908 0)
(0.0643076 1.09802 0)
(0.052332 1.05864 0)
(0.0167743 0.925178 0)
(-0.00202622 0.789556 0)
(0.00475209 0.810246 0)
(0.00774595 0.807635 0)
(-0.00550625 0.822425 0)
(-0.0209225 0.879429 0)
(-0.0330845 0.931228 0)
(-0.032279 0.924139 0)
(-0.0481264 0.784952 0)
(-0.0405354 0.652112 0)
(-0.0288792 0.462772 0)
(-0.0129119 0.400727 0)
(0.00441701 0.356202 0)
(0.0144566 0.271835 0)
(0.0133176 0.503676 0)
(0.0335111 0.467735 0)
(0.0404817 0.403236 0)
(0.0599175 0.434685 0)
(0.0879077 0.62258 0)
(0.109478 0.81313 0)
(0.104129 0.86367 0)
(0.110172 0.933311 0)
(0.113459 1.04526 0)
(0.0959698 1.08566 0)
(0.0720665 1.08129 0)
(0.0692712 1.0977 0)
(0.0847909 1.13568 0)
(0.0874465 1.12694 0)
(0.0763766 1.10322 0)
(0.0669323 1.08161 0)
(0.0398914 0.9601 0)
(0.01498 0.799692 0)
(0.00953063 0.805713 0)
(0.012772 0.811516 0)
(-0.00146147 0.830033 0)
(-0.0140071 0.882853 0)
(-0.0232617 0.931321 0)
(-0.0222281 0.925378 0)
(-0.0462328 0.792144 0)
(-0.0407831 0.634733 0)
(-0.0330051 0.449481 0)
(-0.0155748 0.378551 0)
(0.00435888 0.339543 0)
(0.0119367 0.282038 0)
(0.0122752 0.478019 0)
(0.0344235 0.458992 0)
(0.03399 0.397518 0)
(0.0492981 0.412885 0)
(0.0787548 0.589816 0)
(0.106667 0.804531 0)
(0.107031 0.858312 0)
(0.109109 0.921991 0)
(0.11709 1.04663 0)
(0.105165 1.10456 0)
(0.0790486 1.10288 0)
(0.0697118 1.08911 0)
(0.0836225 1.12666 0)
(0.099145 1.12987 0)
(0.0959043 1.12537 0)
(0.0786061 1.09813 0)
(0.0598716 0.989774 0)
(0.0309148 0.821134 0)
(0.0156694 0.806335 0)
(0.0151255 0.816223 0)
(0.00223964 0.8345 0)
(-0.0100935 0.887301 0)
(-0.0199164 0.930696 0)
(-0.021155 0.926054 0)
(-0.0425252 0.799845 0)
(-0.0375388 0.617002 0)
(-0.0295745 0.438274 0)
(-0.0111757 0.356352 0)
(0.0037546 0.327436 0)
(0.00749424 0.287759 0)
(0.00961514 0.453568 0)
(0.031154 0.454039 0)
(0.025856 0.396573 0)
(0.0348997 0.39515 0)
(0.0647483 0.551121 0)
(0.1039 0.789128 0)
(0.113512 0.854711 0)
(0.11275 0.914164 0)
(0.119432 1.04328 0)
(0.109813 1.12038 0)
(0.0883084 1.12324 0)
(0.0717956 1.09475 0)
(0.0796592 1.10954 0)
(0.0989291 1.12528 0)
(0.105461 1.13623 0)
(0.0939138 1.11672 0)
(0.0751203 1.01757 0)
(0.0454043 0.847234 0)
(0.023518 0.814733 0)
(0.0133834 0.817596 0)
(0.00025992 0.840556 0)
(-0.00908634 0.891438 0)
(-0.022679 0.9351 0)
(-0.0233408 0.924443 0)
(-0.0358463 0.804283 0)
(-0.0270845 0.602263 0)
(-0.0180746 0.426038 0)
(-0.00268303 0.341298 0)
(0.00461626 0.321333 0)
(0.00601872 0.2936 0)
(0.0054284 0.432579 0)
(0.0274453 0.449711 0)
(0.0192069 0.399288 0)
(0.0221869 0.383853 0)
(0.0496755 0.508965 0)
(0.0964295 0.761398 0)
(0.122254 0.849742 0)
(0.120523 0.912346 0)
(0.118562 1.04369 0)
(0.108042 1.13436 0)
(0.0922676 1.14045 0)
(0.0767022 1.10926 0)
(0.0777815 1.09663 0)
(0.0911059 1.11459 0)
(0.103607 1.13895 0)
(0.106393 1.1327 0)
(0.083222 1.04683 0)
(0.0538362 0.874394 0)
(0.0315111 0.829939 0)
(0.0100654 0.829481 0)
(-0.00748219 0.845665 0)
(-0.0178941 0.900909 0)
(-0.0298834 0.941833 0)
(-0.0230305 0.920386 0)
(-0.0250379 0.802459 0)
(-0.0134058 0.582727 0)
(-0.00451561 0.415136 0)
(0.00501189 0.332933 0)
(0.00403075 0.319632 0)
(0.00491208 0.298523 0)
(0.000496776 0.418122 0)
(0.0229596 0.445828 0)
(0.0159193 0.402879 0)
(0.0137532 0.377687 0)
(0.0346416 0.471346 0)
(0.0849375 0.720855 0)
(0.123366 0.836729 0)
(0.12334 0.91735 0)
(0.109357 1.05141 0)
(0.0997591 1.14458 0)
(0.0906017 1.1513 0)
(0.0823768 1.11976 0)
(0.0762241 1.09632 0)
(0.0794189 1.10615 0)
(0.0919972 1.13282 0)
(0.10307 1.13744 0)
(0.0784913 1.08289 0)
(0.0492264 0.899472 0)
(0.0295593 0.850397 0)
(-0.000835072 0.842875 0)
(-0.022462 0.857191 0)
(-0.0363855 0.907256 0)
(-0.0414914 0.94279 0)
(-0.0187939 0.904466 0)
(-0.0119622 0.799263 0)
(-0.00167632 0.564697 0)
(0.00676663 0.407042 0)
(0.00995372 0.33207 0)
(0.00368811 0.319691 0)
(0.00379073 0.301277 0)
(-0.00274957 0.405867 0)
(0.0204044 0.43763 0)
(0.0133723 0.408975 0)
(0.00919585 0.377484 0)
(0.0230776 0.439897 0)
(0.0726173 0.673728 0)
(0.114232 0.821203 0)
(0.114324 0.928669 0)
(0.0919151 1.06347 0)
(0.0846231 1.14948 0)
(0.0840748 1.15747 0)
(0.0846483 1.12612 0)
(0.0748994 1.10698 0)
(0.068207 1.10449 0)
(0.0731515 1.12349 0)
(0.0823024 1.14173 0)
(0.0608922 1.11389 0)
(0.035358 0.924725 0)
(0.0185598 0.87087 0)
(-0.0118265 0.866674 0)
(-0.0386867 0.875792 0)
(-0.0571133 0.920593 0)
(-0.0496628 0.930418 0)
(-0.020896 0.880741 0)
(-0.00585443 0.798342 0)
(0.0059609 0.549539 0)
(0.0151494 0.404443 0)
(0.0150548 0.337081 0)
(0.00394889 0.324786 0)
(0.0049273 0.305167 0)
(-0.000221645 0.393201 0)
(0.020365 0.433072 0)
(0.0101753 0.412273 0)
(0.0080182 0.381426 0)
(0.0178329 0.413615 0)
(0.0641306 0.62868 0)
(0.101487 0.80708 0)
(0.0963869 0.944869 0)
(0.0716524 1.07638 0)
(0.0659013 1.14575 0)
(0.0733957 1.15413 0)
(0.0791527 1.1315 0)
(0.0705926 1.11807 0)
(0.056125 1.11553 0)
(0.0509202 1.11596 0)
(0.0506133 1.14957 0)
(0.0372472 1.13905 0)
(0.0192098 0.9482 0)
(0.00707255 0.892906 0)
(-0.0202892 0.892502 0)
(-0.0497982 0.904389 0)
(-0.064433 0.925941 0)
(-0.0483906 0.910874 0)
(-0.0302717 0.862818 0)
(-0.0112182 0.7872 0)
(0.00892703 0.531084 0)
(0.02036 0.402486 0)
(0.019734 0.345611 0)
(0.00685194 0.329791 0)
(0.00761143 0.310985 0)
(0.00254187 0.376459 0)
(0.02366 0.437224 0)
(0.00990483 0.415911 0)
(0.0122404 0.385421 0)
(0.0195824 0.391976 0)
(0.0602842 0.585895 0)
(0.0922714 0.799818 0)
(0.0808981 0.964279 0)
(0.0550635 1.0865 0)
(0.0511769 1.139 0)
(0.0614916 1.14745 0)
(0.0674576 1.132 0)
(0.0620968 1.13036 0)
(0.0461568 1.13167 0)
(0.0325325 1.12175 0)
(0.0216057 1.15549 0)
(0.0134639 1.1539 0)
(0.00677604 0.965711 0)
(0.00147672 0.91069 0)
(-0.0235366 0.921045 0)
(-0.0509946 0.925821 0)
(-0.0592719 0.926753 0)
(-0.047711 0.892418 0)
(-0.0403539 0.858455 0)
(-0.02368 0.766107 0)
(0.0077843 0.506633 0)
(0.021498 0.400855 0)
(0.023393 0.352525 0)
(0.00998047 0.337277 0)
(0.00857929 0.320442 0)
(-0.0014045 0.357082 0)
(0.0241079 0.444529 0)
(0.0127412 0.413671 0)
(0.0195346 0.38628 0)
(0.0242397 0.377757 0)
(0.0578518 0.540864 0)
(0.0900751 0.795913 0)
(0.073669 0.983801 0)
(0.0480223 1.09526 0)
(0.0457611 1.13146 0)
(0.0539488 1.14127 0)
(0.0556292 1.13695 0)
(0.0511541 1.13954 0)
(0.0345691 1.14691 0)
(0.016284 1.13598 0)
(-0.00453144 1.16559 0)
(-0.0111199 1.16299 0)
(-0.00622893 0.971104 0)
(-0.00405118 0.928273 0)
(-0.0203258 0.947099 0)
(-0.0450676 0.946686 0)
(-0.0507462 0.923025 0)
(-0.051906 0.886068 0)
(-0.0518896 0.858721 0)
(-0.0343026 0.73324 0)
(0.00187663 0.480389 0)
(0.0189286 0.396105 0)
(0.0241539 0.356957 0)
(0.0114763 0.34615 0)
(0.00801673 0.329544 0)
(-0.00554263 0.343082 0)
(0.0182723 0.445617 0)
(0.0123296 0.403941 0)
(0.0253115 0.383285 0)
(0.0287679 0.368536 0)
(0.0570679 0.498447 0)
(0.0874741 0.794263 0)
(0.0715795 1.00271 0)
(0.0506824 1.09742 0)
(0.0490533 1.12678 0)
(0.0525986 1.13841 0)
(0.0520426 1.13984 0)
(0.0454353 1.15094 0)
(0.0304241 1.16212 0)
(0.00546367 1.15953 0)
(-0.0231894 1.17793 0)
(-0.0285608 1.1672 0)
(-0.0148061 0.972979 0)
(-0.0110303 0.93809 0)
(-0.0215092 0.971942 0)
(-0.0406061 0.960029 0)
(-0.0472088 0.925213 0)
(-0.0568173 0.886122 0)
(-0.063226 0.860294 0)
(-0.0408108 0.695477 0)
(-0.00581394 0.455618 0)
(0.0145136 0.388275 0)
(0.0231177 0.360643 0)
(0.0109042 0.358684 0)
(0.00729108 0.338959 0)
(-0.00873495 0.335142 0)
(0.00764571 0.444329 0)
(0.00791151 0.392529 0)
(0.0239349 0.377381 0)
(0.0289865 0.360773 0)
(0.0505383 0.459955 0)
(0.0759027 0.787687 0)
(0.0699236 1.01324 0)
(0.0586988 1.09672 0)
(0.0585305 1.12516 0)
(0.058788 1.13927 0)
(0.0555757 1.14717 0)
(0.0468556 1.15927 0)
(0.0303962 1.18104 0)
(0.00106035 1.18632 0)
(-0.0333748 1.19788 0)
(-0.036266 1.16493 0)
(-0.0208782 0.967696 0)
(-0.0238544 0.947669 0)
(-0.0310473 0.987561 0)
(-0.0476025 0.968661 0)
(-0.0516143 0.926404 0)
(-0.0617962 0.892646 0)
(-0.069591 0.859651 0)
(-0.0433449 0.653735 0)
(-0.010377 0.435108 0)
(0.0114222 0.376139 0)
(0.0207731 0.362787 0)
(0.0085558 0.371157 0)
(0.00608735 0.346103 0)
(-0.0109587 0.338509 0)
(-0.00301307 0.439761 0)
(0.000109446 0.378267 0)
(0.0159738 0.367248 0)
(0.0250421 0.355824 0)
(0.0378164 0.431768 0)
(0.0618972 0.776161 0)
(0.0692022 1.01504 0)
(0.0692887 1.08973 0)
(0.0725632 1.1246 0)
(0.0705295 1.14536 0)
(0.0633515 1.15446 0)
(0.0499685 1.17536 0)
(0.0319062 1.20112 0)
(-0.000721151 1.2197 0)
(-0.0340061 1.21603 0)
(-0.0359116 1.16228 0)
(-0.027127 0.972061 0)
(-0.0361607 0.9575 0)
(-0.0440084 1.00716 0)
(-0.0592953 0.97369 0)
(-0.0602863 0.929784 0)
(-0.0650073 0.89843 0)
(-0.0696555 0.857033 0)
(-0.0413045 0.613692 0)
(-0.00768277 0.417195 0)
(0.0129786 0.365884 0)
(0.0185366 0.36443 0)
(0.00461644 0.386864 0)
(0.00421735 0.351902 0)
(-0.00987464 0.347411 0)
(-0.0076065 0.439621 0)
(-0.00841679 0.370297 0)
(0.00450658 0.355994 0)
(0.0153842 0.353361 0)
(0.0247789 0.412122 0)
(0.0475157 0.752432 0)
(0.0730322 1.00535 0)
(0.0816708 1.07817 0)
(0.0879242 1.12344 0)
(0.0839899 1.15376 0)
(0.0712041 1.16972 0)
(0.0538768 1.19025 0)
(0.033235 1.22669 0)
(0.00252152 1.24886 0)
(-0.0274352 1.23841 0)
(-0.0329312 1.16338 0)
(-0.0324459 0.982359 0)
(-0.0484444 0.970207 0)
(-0.0598803 1.02332 0)
(-0.0726295 0.976709 0)
(-0.0731135 0.927009 0)
(-0.070426 0.90134 0)
(-0.0682547 0.848375 0)
(-0.0330744 0.574308 0)
(0.00316975 0.397456 0)
(0.0192841 0.361055 0)
(0.0176238 0.369752 0)
(0.00228467 0.401062 0)
(0.00363148 0.353681 0)
(-0.00871719 0.354807 0)
(-0.00735623 0.443653 0)
(-0.0138777 0.368256 0)
(-0.00404858 0.346964 0)
(0.00505223 0.351529 0)
(0.0141553 0.397565 0)
(0.0369708 0.718231 0)
(0.077156 0.98554 0)
(0.0956827 1.06755 0)
(0.0988415 1.11952 0)
(0.0931244 1.17062 0)
(0.0763342 1.1854 0)
(0.0572795 1.21183 0)
(0.0358266 1.24882 0)
(0.00671208 1.2774 0)
(-0.0165202 1.25413 0)
(-0.0277461 1.17372 0)
(-0.0356483 0.998799 0)
(-0.0572416 0.985599 0)
(-0.0706996 1.0404 0)
(-0.0825985 0.976461 0)
(-0.0843876 0.925933 0)
(-0.0818371 0.898183 0)
(-0.0627544 0.827456 0)
(-0.0152036 0.532854 0)
(0.0207161 0.38071 0)
(0.0264846 0.363789 0)
(0.0186945 0.377343 0)
(0.00316587 0.415406 0)
(0.00706697 0.357058 0)
(-0.0105986 0.35881 0)
(-0.00535704 0.444833 0)
(-0.00951533 0.365688 0)
(-0.00843353 0.343687 0)
(-0.00458532 0.35066 0)
(0.00710193 0.385226 0)
(0.0314664 0.681014 0)
(0.0826178 0.949975 0)
(0.107063 1.05857 0)
(0.106148 1.12147 0)
(0.0958365 1.18529 0)
(0.0785815 1.20514 0)
(0.0605467 1.22829 0)
(0.0388733 1.27542 0)
(0.0121592 1.29854 0)
(-0.00645575 1.26975 0)
(-0.0198669 1.18961 0)
(-0.0355886 1.02204 0)
(-0.061839 1.00236 0)
(-0.0746902 1.05983 0)
(-0.0887784 0.983013 0)
(-0.0950129 0.927673 0)
(-0.0890634 0.88754 0)
(-0.0475658 0.789372 0)
(0.0119012 0.488603 0)
(0.0383719 0.374425 0)
(0.031572 0.372657 0)
(0.0203022 0.387237 0)
(0.00623883 0.422542 0)
(0.0107863 0.362212 0)
(-0.016217 0.364046 0)
(-0.00563888 0.437892 0)
(-0.00554991 0.369236 0)
(-0.0114284 0.346909 0)
(-0.0125429 0.348997 0)
(0.000953485 0.372416 0)
(0.0294166 0.639884 0)
(0.0850375 0.909819 0)
(0.114844 1.05192 0)
(0.110003 1.12735 0)
(0.0942137 1.20307 0)
(0.0779209 1.21789 0)
(0.0614998 1.24726 0)
(0.0413062 1.29491 0)
(0.0175135 1.32229 0)
(0.00197857 1.27827 0)
(-0.0119563 1.21083 0)
(-0.0315007 1.05171 0)
(-0.0625595 1.02083 0)
(-0.0762083 1.07784 0)
(-0.0926523 0.996634 0)
(-0.102293 0.92854 0)
(-0.0849322 0.863851 0)
(-0.0198689 0.732831 0)
(0.0392624 0.45093 0)
(0.0489241 0.38146 0)
(0.0337883 0.385772 0)
(0.0215911 0.395104 0)
(0.00535581 0.42702 0)
(0.0133108 0.367979 0)
(-0.0207262 0.374585 0)
(-0.0104467 0.423409 0)
(-0.00477693 0.369561 0)
(-0.0105431 0.355437 0)
(-0.0170419 0.348287 0)
(-0.00774356 0.359751 0)
(0.0202838 0.594152 0)
(0.0811903 0.864996 0)
(0.116432 1.03969 0)
(0.111504 1.13915 0)
(0.0914706 1.21698 0)
(0.0761354 1.23464 0)
(0.0595624 1.26017 0)
(0.0417448 1.31602 0)
(0.0228008 1.33611 0)
(0.00865937 1.29176 0)
(-0.00399328 1.22505 0)
(-0.0280679 1.08747 0)
(-0.061707 1.04194 0)
(-0.0793646 1.09269 0)
(-0.0946857 1.01598 0)
(-0.103635 0.922681 0)
(-0.067409 0.821718 0)
(0.0105436 0.667444 0)
(0.0556277 0.430932 0)
(0.0511914 0.396129 0)
(0.0325756 0.398958 0)
(0.0171698 0.405692 0)
(-0.00145948 0.425628 0)
(0.0137645 0.37154 0)
(-0.0189631 0.389282 0)
(-0.00942135 0.409512 0)
(-0.00639947 0.362945 0)
(-0.00785258 0.362681 0)
(-0.0174001 0.352106 0)
(-0.0174268 0.353897 0)
(0.00518234 0.545708 0)
(0.0691534 0.816599 0)
(0.111397 1.02346 0)
(0.107316 1.14748 0)
(0.0888044 1.2348 0)
(0.0722139 1.24506 0)
(0.0576012 1.27744 0)
(0.040242 1.32739 0)
(0.0260967 1.35278 0)
(0.0131793 1.30141 0)
(0.000709876 1.24186 0)
(-0.026913 1.12644 0)
(-0.0639661 1.06721 0)
(-0.083564 1.10471 0)
(-0.0932054 1.03582 0)
(-0.0930858 0.905345 0)
(-0.0411796 0.763069 0)
(0.0292363 0.611158 0)
(0.0574224 0.425514 0)
(0.0462723 0.412442 0)
(0.0251843 0.414511 0)
(0.00861302 0.414237 0)
(-0.00961711 0.423757 0)
(0.0111213 0.368293 0)
(-0.00951995 0.39639 0)
(0.00235961 0.405574 0)
(-0.00614825 0.357864 0)
(-0.00681832 0.368598 0)
(-0.0176568 0.360871 0)
(-0.0248245 0.356303 0)
(-0.00875899 0.499557 0)
(0.0504981 0.760459 0)
(0.0992949 1.00033 0)
(0.101187 1.15678 0)
(0.0851938 1.24406 0)
(0.0703504 1.25942 0)
(0.0564771 1.28938 0)
(0.0384492 1.34197 0)
(0.0253876 1.36092 0)
(0.0119374 1.31942 0)
(-0.00138628 1.25349 0)
(-0.0330136 1.17157 0)
(-0.0691274 1.09407 0)
(-0.0862148 1.11099 0)
(-0.0842669 1.04511 0)
(-0.0722327 0.874303 0)
(-0.0219574 0.708743 0)
(0.0310295 0.570947 0)
(0.0476853 0.427448 0)
(0.0346539 0.429451 0)
(0.0113268 0.42983 0)
(-0.00184903 0.419414 0)
(-0.0176109 0.419053 0)
(0.009137 0.357823 0)
(-3.71573e-05 0.390646 0)
(0.0169241 0.41012 0)
(0.000596023 0.361746 0)
(-0.00767841 0.373469 0)
(-0.0178461 0.373174 0)
(-0.0274912 0.362173 0)
(-0.0138093 0.461314 0)
(0.0322241 0.707304 0)
(0.0816904 0.972876 0)
(0.0917961 1.15906 0)
(0.081769 1.25514 0)
(0.0726948 1.26665 0)
(0.0582781 1.30801 0)
(0.0385837 1.35137 0)
(0.0206241 1.37789 0)
(0.00502421 1.33226 0)
(-0.011092 1.27448 0)
(-0.0419513 1.21083 0)
(-0.0722276 1.11969 0)
(-0.0844893 1.10504 0)
(-0.0705039 1.04239 0)
(-0.0526521 0.843138 0)
(-0.0183132 0.669816 0)
(0.0184807 0.541657 0)
(0.030091 0.431617 0)
(0.0148944 0.447072 0)
(-0.00420756 0.442381 0)