/*--------------------------------*- C++ -*----------------------------------*\
| =========                 |                                                 |
| \\      /  F ield         | OpenFOAM: The Open Source CFD Toolbox           |
|  \\    /   O peration     | Version:  2.3.0                                 |
|   \\  /    A nd           | Web:      www.OpenFOAM.org                      |
|    \\/     M anipulation  |                                                 |
\*---------------------------------------------------------------------------*/
FoamFile
{
    version     2.0;
    format      ascii;
    class       volScalarField;
    location    "0.03";
    object      alpha.particles;
}
// * * * * * * * * * * * * * * * * * * * * * * * * * * * * * * * * * * * * * //

dimensions      [0 0 0 0 0 0 0];

internalField   nonuniform List<scalar> 
6000
(
0.438075
0.437672
0.437338
0.437231
0.437213
0.437213
0.437214
0.437218
0.437228
0.437243
0.437259
0.437277
0.437295
0.437312
0.437329
0.437337
0.43732
0.437302
0.437284
0.437267
0.43725
0.437236
0.437225
0.437221
0.43722
0.43722
0.437238
0.437346
0.437679
0.438083
0.438472
0.444021
0.440897
0.437628
0.437526
0.437493
0.437483
0.437484
0.437494
0.437508
0.437524
0.437542
0.43756
0.437577
0.437593
0.4376
0.437584
0.437567
0.437549
0.437532
0.437515
0.437501
0.437492
0.437491
0.437501
0.437533
0.437635
0.440913
0.444034
0.43848
0.464547
0.483401
0.480974
0.470919
0.462788
0.457648
0.454907
0.453672
0.453195
0.453049
0.453033
0.45306
0.453097
0.453127
0.453146
0.45315
0.453132
0.453102
0.453067
0.453041
0.453058
0.453206
0.453686
0.454926
0.457677
0.462828
0.470963
0.480999
0.483402
0.46455
0.496191
0.51744
0.518611
0.511865
0.50236
0.493907
0.487799
0.484191
0.482378
0.481574
0.481264
0.481175
0.481171
0.481189
0.481202
0.481201
0.481187
0.48117
0.481178
0.481272
0.481586
0.482395
0.484217
0.487838
0.493961
0.502426
0.51193
0.518652
0.517439
0.496159
0.516406
0.532027
0.533754
0.530853
0.526261
0.520823
0.515532
0.51144
0.508821
0.507359
0.50662
0.506279
0.506137
0.506083
0.506066
0.506064
0.50608
0.506134
0.506281
0.506627
0.507372
0.508841
0.511469
0.51557
0.520869
0.526314
0.530922
0.533833
0.532074
0.516362
0.527021
0.537707
0.538174
0.535986
0.533816
0.531391
0.528571
0.525844
0.523684
0.522222
0.521338
0.520846
0.520589
0.520465
0.520415
0.520414
0.520463
0.520587
0.520846
0.521343
0.522231
0.523698
0.525861
0.52859
0.531408
0.533833
0.536031
0.538276
0.537819
0.527041
0.533298
0.540275
0.539405
0.53706
0.535417
0.534063
0.53261
0.531086
0.5297
0.528618
0.527872
0.527404
0.527133
0.526988
0.526926
0.526925
0.526986
0.527131
0.527404
0.527873
0.528621
0.529704
0.531089
0.532608
0.534048
0.535385
0.537031
0.539449
0.540414
0.533417
0.537305
0.541359
0.539561
0.537265
0.53584
0.534792
0.533827
0.532887
0.532012
0.531281
0.530736
0.530367
0.530138
0.530009
0.529952
0.529951
0.530007
0.530136
0.530365
0.530735
0.53128
0.53201
0.532881
0.533813
0.534762
0.53578
0.537164
0.539477
0.541424
0.537485
0.539731
0.541534
0.53937
0.537288
0.536083
0.535202
0.534456
0.533795
0.533202
0.532705
0.532322
0.532053
0.531878
0.531776
0.53173
0.531729
0.531775
0.531876
0.53205
0.53232
0.532703
0.533199
0.533788
0.534443
0.535175
0.536026
0.537169
0.539228
0.541488
0.539868
0.541066
0.54146
0.539084
0.53728
0.536256
0.535501
0.534904
0.534415
0.534001
0.533661
0.533399
0.533212
0.533087
0.533013
0.532978
0.532978
0.533011
0.533085
0.53321
0.533398
0.533661
0.534
0.534414
0.534899
0.53549
0.536226
0.53719
0.538906
0.541296
0.541104
0.541714
0.541154
0.53885
0.537273
0.536345
0.53568
0.535195
0.534815
0.534533
0.534313
0.534145
0.534023
0.533941
0.533892
0.533868
0.533868
0.533891
0.533941
0.534024
0.534147
0.534318
0.53454
0.534823
0.535208
0.535693
0.536354
0.537244
0.538695
0.540959
0.541659
0.54199
0.540903
0.538732
0.537265
0.536345
0.535746
0.535311
0.535003
0.534812
0.534698
0.534605
0.534536
0.53449
0.534461
0.534448
0.534448
0.534462
0.534491
0.534539
0.53461
0.534707
0.534829
0.535024
0.535348
0.535782
0.536395
0.537296
0.538649
0.540699
0.541863
0.542132
0.540798
0.538692
0.537222
0.5363
0.535727
0.535331
0.535147
0.534966
0.534895
0.534849
0.534809
0.534786
0.534776
0.534771
0.534772
0.534778
0.53479
0.534816
0.534858
0.534905
0.534984
0.535169
0.535364
0.535777
0.536374
0.537306
0.538687
0.540617
0.541952
0.542279
0.540796
0.538623
0.537085
0.536173
0.535664
0.53544
0.535284
0.535123
0.535049
0.535006
0.534969
0.534951
0.534949
0.534949
0.534949
0.53495
0.534952
0.534977
0.535016
0.535059
0.53514
0.535303
0.535461
0.535729
0.536285
0.537256
0.538734
0.540664
0.542046
0.542464
0.540767
0.538417
0.53681
0.535947
0.535513
0.535336
0.535234
0.535265
0.535203
0.535162
0.535123
0.535107
0.535106
0.535105
0.535105
0.535107
0.53511
0.535131
0.535171
0.535213
0.535271
0.535253
0.535367
0.535578
0.536081
0.537072
0.538708
0.540776
0.542193
0.542614
0.540582
0.538012
0.536434
0.535659
0.535281
0.535118
0.53508
0.535117
0.535143
0.535181
0.535237
0.535261
0.535259
0.535259
0.535259
0.53526
0.535265
0.535234
0.53518
0.53515
0.535124
0.535095
0.535142
0.535321
0.535757
0.536711
0.538515
0.540867
0.542414
0.542605
0.540147
0.537501
0.536082
0.535378
0.53502
0.534878
0.534865
0.534906
0.534973
0.535032
0.535089
0.535128
0.535149
0.535158
0.535158
0.535148
0.535126
0.535086
0.535031
0.534975
0.53491
0.534869
0.534878
0.53501
0.535365
0.5362
0.538052
0.5408
0.542674
0.542373
0.539567
0.53713
0.535862
0.535133
0.534758
0.534628
0.534625
0.534678
0.534749
0.534819
0.534876
0.534916
0.534941
0.534954
0.534953
0.53494
0.534914
0.534873
0.534818
0.534749
0.534677
0.534619
0.534605
0.534696
0.534986
0.535662
0.537345
0.540421
0.542836
0.541911
0.539197
0.537089
0.53574
0.534883
0.534477
0.534356
0.534368
0.534434
0.534511
0.534583
0.534641
0.534683
0.534709
0.534722
0.534721
0.534709
0.534682
0.53464
0.534582
0.53451
0.53443
0.534355
0.534323
0.534395
0.534674
0.535275
0.536636
0.539666
0.542721
0.541559
0.539304
0.537208
0.535559
0.534556
0.534146
0.53405
0.534084
0.534167
0.534255
0.534333
0.534393
0.534437
0.534464
0.534478
0.534478
0.534464
0.534437
0.534393
0.534332
0.534254
0.534163
0.534074
0.534027
0.534093
0.53441
0.535102
0.536304
0.538875
0.542239
0.541594
0.539652
0.537203
0.535152
0.534098
0.533753
0.533706
0.533773
0.533876
0.533978
0.534064
0.534129
0.534175
0.534204
0.534219
0.534219
0.534205
0.534176
0.53413
0.534064
0.533977
0.533875
0.533771
0.533705
0.53376
0.53411
0.534984
0.536423
0.538608
0.541592
0.541916
0.539958
0.536805
0.534433
0.533525
0.53331
0.53333
0.533436
0.533562
0.533679
0.533774
0.533845
0.533895
0.533927
0.533942
0.533942
0.533927
0.533896
0.533846
0.533774
0.533679
0.533564
0.533442
0.533349
0.533367
0.533688
0.53469
0.536559
0.538914
0.541299
0.542402
0.539787
0.535801
0.533516
0.532929
0.532853
0.532938
0.533081
0.53323
0.533361
0.533465
0.533543
0.533596
0.53363
0.533646
0.533646
0.53363
0.533596
0.533543
0.533465
0.533362
0.533233
0.533089
0.53296
0.532917
0.533128
0.534063
0.536343
0.53935
0.541514
0.542603
0.538917
0.534431
0.532709
0.532415
0.532418
0.532544
0.532715
0.532883
0.533027
0.533139
0.533222
0.533279
0.533314
0.533331
0.533331
0.533314
0.533279
0.533221
0.533138
0.533026
0.532883
0.532716
0.53255
0.53244
0.532504
0.533154
0.535514
0.539348
0.541978
0.542273
0.537449
0.533327
0.532247
0.532015
0.532012
0.532151
0.53234
0.532522
0.532676
0.532795
0.532883
0.532943
0.53298
0.532997
0.532998
0.53298
0.532942
0.532882
0.532793
0.532673
0.532517
0.532331
0.532133
0.531972
0.531932
0.532256
0.534181
0.538724
0.542298
0.541374
0.536173
0.532956
0.532047
0.531664
0.531615
0.531756
0.531955
0.532148
0.532309
0.532435
0.532526
0.532589
0.532627
0.532646
0.532646
0.532627
0.532588
0.532524
0.532431
0.532303
0.532137
0.531936
0.531718
0.531532
0.531465
0.531642
0.532923
0.537392
0.542123
0.540406
0.535775
0.53306
0.531829
0.531266
0.531198
0.531348
0.531558
0.53176
0.531928
0.532058
0.532153
0.532218
0.532258
0.532277
0.532277
0.532257
0.532217
0.53215
0.532053
0.531919
0.531745
0.531533
0.531303
0.531109
0.531062
0.531295
0.532235
0.536017
0.541432
0.539954
0.535984
0.533027
0.531387
0.53077
0.530748
0.530926
0.531151
0.531361
0.531535
0.53167
0.531767
0.531834
0.531875
0.531895
0.531894
0.531874
0.531832
0.531763
0.531663
0.531524
0.531344
0.531124
0.530885
0.530683
0.530649
0.530995
0.532009
0.535222
0.540539
0.540019
0.536115
0.532545
0.530668
0.530199
0.530273
0.530493
0.530736
0.530956
0.531136
0.531273
0.531373
0.531441
0.531483
0.531502
0.531502
0.531481
0.531437
0.531367
0.531265
0.531123
0.530939
0.530713
0.530464
0.530246
0.53019
0.530582
0.531793
0.534923
0.539902
0.54017
0.535755
0.531501
0.529823
0.529623
0.529797
0.530057
0.530318
0.530547
0.530731
0.530871
0.530972
0.53104
0.531082
0.531101
0.5311
0.531079
0.531035
0.530965
0.530862
0.530719
0.530532
0.530301
0.530043
0.529804
0.529702
0.530039
0.531358
0.534654
0.539548
0.540087
0.534665
0.530226
0.529098
0.529108
0.529336
0.529622
0.529896
0.53013
0.530316
0.530456
0.530557
0.530625
0.530666
0.530685
0.530683
0.530662
0.53062
0.530551
0.530449
0.530308
0.530121
0.529888
0.529622
0.529365
0.52922
0.52946
0.530722
0.534168
0.539246
0.539505
0.533131
0.529259
0.528633
0.528672
0.528893
0.529183
0.529461
0.529696
0.52988
0.530018
0.530115
0.53018
0.530219
0.530237
0.530236
0.530217
0.530177
0.530111
0.530015
0.529878
0.529695
0.529464
0.529196
0.528929
0.528762
0.528942
0.530077
0.533485
0.538823
0.53844
0.531848
0.528912
0.528377
0.528282
0.528457
0.528735
0.529007
0.529235
0.529412
0.529541
0.529631
0.52969
0.529726
0.529742
0.529742
0.529726
0.52969
0.529632
0.529543
0.529416
0.529242
0.529018
0.528753
0.528484
0.528318
0.528496
0.529571
0.532809
0.538262
0.537305
0.53135
0.52902
0.528172
0.527893
0.528015
0.528273
0.528531
0.528745
0.528907
0.529022
0.529101
0.529152
0.529182
0.529197
0.529198
0.529185
0.529156
0.529106
0.529029
0.528915
0.528755
0.528545
0.528289
0.528026
0.527869
0.528082
0.529201
0.532306
0.537666
0.53652
0.531556
0.529159
0.527885
0.527466
0.527562
0.527803
0.528042
0.528237
0.52838
0.528477
0.528542
0.528582
0.528606
0.528618
0.528619
0.52861
0.528588
0.528548
0.528484
0.528386
0.528245
0.528052
0.52781
0.527556
0.527406
0.527659
0.528893
0.531996
0.537143
0.536245
0.531975
0.529111
0.527436
0.526988
0.527097
0.527332
0.527556
0.527731
0.527853
0.527933
0.527983
0.528013
0.52803
0.528039
0.52804
0.528033
0.528017
0.527987
0.527936
0.527855
0.527732
0.527557
0.52733
0.527081
0.526928
0.527198
0.528569
0.531817
0.536749
0.536355
0.532299
0.528722
0.526809
0.526465
0.526624
0.526866
0.527081
0.52724
0.527346
0.527411
0.527449
0.527469
0.527481
0.527486
0.527486
0.527481
0.52747
0.527448
0.527408
0.527341
0.527233
0.527073
0.526856
0.526608
0.526435
0.526679
0.528162
0.531682
0.536497
0.536596
0.532223
0.52789
0.526062
0.52592
0.526145
0.526405
0.526617
0.526766
0.526861
0.526915
0.526944
0.526957
0.526964
0.526966
0.526966
0.526963
0.526956
0.526939
0.526908
0.52685
0.526754
0.526604
0.526393
0.526138
0.525931
0.526098
0.52761
0.531484
0.536364
0.536772
0.531634
0.52674
0.525313
0.525382
0.525667
0.525945
0.526159
0.526302
0.526389
0.526436
0.526459
0.526468
0.526471
0.526472
0.526472
0.52647
0.526466
0.526453
0.526427
0.526377
0.526289
0.526145
0.525936
0.525669
0.525423
0.525478
0.526891
0.531109
0.536277
0.536643
0.530454
0.525578
0.524679
0.524877
0.525196
0.525487
0.525702
0.525841
0.525922
0.525964
0.525983
0.525989
0.525991
0.52599
0.52599
0.52599
0.525987
0.525978
0.525956
0.525911
0.525829
0.52569
0.52548
0.525203
0.524921
0.524864
0.526057
0.530486
0.536136
0.536086
0.529063
0.524746
0.524205
0.524413
0.524737
0.525031
0.525244
0.525379
0.525455
0.525493
0.525509
0.525513
0.525514
0.525514
0.525514
0.525515
0.525514
0.525506
0.525487
0.525446
0.525369
0.525235
0.525026
0.524741
0.524436
0.524301
0.525232
0.529645
0.535851
0.535214
0.528001
0.524352
0.523836
0.523974
0.524286
0.524577
0.524786
0.524916
0.524987
0.525021
0.525034
0.525039
0.525039
0.525039
0.52504
0.525041
0.52504
0.525035
0.525018
0.524981
0.524908
0.524779
0.524572
0.524283
0.523966
0.523804
0.524535
0.528727
0.535389
0.534389
0.527518
0.524176
0.523471
0.523536
0.523836
0.524124
0.524327
0.524451
0.524517
0.524548
0.52456
0.524564
0.524565
0.524565
0.524566
0.524567
0.524567
0.524562
0.524548
0.524514
0.524446
0.524322
0.524118
0.523828
0.523506
0.523353
0.524006
0.527906
0.534804
0.533847
0.527379
0.523948
0.523042
0.523079
0.523383
0.523668
0.523867
0.523985
0.524047
0.524075
0.524085
0.524089
0.524089
0.524089
0.52409
0.524091
0.524092
0.524088
0.524076
0.524046
0.523983
0.523863
0.523663
0.523372
0.523047
0.522916
0.523594
0.527277
0.534199
0.533535
0.527211
0.523546
0.522539
0.522603
0.522922
0.523209
0.523403
0.523517
0.523574
0.523599
0.523609
0.523611
0.523611
0.523611
0.523611
0.523612
0.523613
0.523611
0.523601
0.523575
0.523516
0.523402
0.523205
0.522913
0.522581
0.522463
0.523223
0.526826
0.533653
0.533253
0.526862
0.52302
0.52201
0.522116
0.522455
0.522745
0.522937
0.523045
0.523099
0.523121
0.523129
0.52313
0.523129
0.523128
0.523128
0.523129
0.52313
0.523129
0.523122
0.523099
0.523046
0.522936
0.522743
0.52245
0.522107
0.521983
0.522829
0.526475
0.533196
0.532878
0.526445
0.522537
0.521491
0.521624
0.521982
0.522278
0.522467
0.522571
0.52262
0.522639
0.522645
0.522644
0.522642
0.522641
0.52264
0.52264
0.522642
0.522642
0.522637
0.522619
0.52257
0.522466
0.522276
0.521981
0.521624
0.521477
0.522387
0.526149
0.532812
0.532498
0.52627
0.522152
0.520961
0.521122
0.521505
0.521807
0.521993
0.522092
0.522137
0.522154
0.522157
0.522155
0.522152
0.52215
0.522148
0.522149
0.52215
0.522151
0.522148
0.522133
0.522088
0.52199
0.521804
0.521507
0.521133
0.520955
0.521906
0.525803
0.532461
0.532374
0.526389
0.521684
0.520352
0.5206
0.521019
0.52133
0.521514
0.521609
0.52165
0.521663
0.521664
0.521661
0.521658
0.521655
0.521654
0.521654
0.521656
0.521657
0.521656
0.521643
0.521603
0.52151
0.521328
0.521027
0.520634
0.520423
0.521435
0.525473
0.532102
0.532607
0.526405
0.520819
0.519614
0.520049
0.520522
0.520845
0.52103
0.521121
0.521158
0.521168
0.521168
0.521164
0.521161
0.521158
0.521157
0.521157
0.521159
0.521161
0.52116
0.52115
0.521114
0.521025
0.520847
0.520541
0.520125
0.519871
0.521
0.525308
0.531775
0.533013
0.525829
0.518712
0.518785
0.519478
0.520015
0.520354
0.520539
0.520626
0.52066
0.520668
0.520667
0.520663
0.52066
0.520658
0.520657
0.520658
0.52066
0.520662
0.520663
0.520654
0.520621
0.520537
0.520361
0.520047
0.519596
0.519257
0.520508
0.525396
0.531649
0.533131
0.524018
0.516652
0.518004
0.51891
0.519502
0.519855
0.520041
0.520126
0.520157
0.520164
0.520162
0.520159
0.520156
0.520154
0.520154
0.520155
0.520157
0.52016
0.520161
0.520155
0.520125
0.520045
0.519869
0.519543
0.519042
0.518523
0.519503
0.525484
0.531858
0.532506
0.521132
0.51652
0.51741
0.518374
0.518991
0.519353
0.51954
0.519622
0.51965
0.519656
0.519654
0.519651
0.519648
0.519647
0.519647
0.519648
0.519651
0.519655
0.519657
0.519652
0.519625
0.519547
0.51937
0.519029
0.518462
0.517668
0.515831
0.525091
0.532345
0.530955
0.518442
0.516373
0.517014
0.51788
0.518488
0.518851
0.519035
0.519115
0.519141
0.519145
0.519143
0.519139
0.519137
0.519136
0.519137
0.519138
0.519141
0.519146
0.519149
0.519146
0.519121
0.519045
0.518865
0.518505
0.517871
0.516823
0.515182
0.523364
0.532708
0.529236
0.517325
0.516226
0.516702
0.517411
0.517992
0.518348
0.518529
0.518604
0.518628
0.518631
0.518628
0.518625
0.518623
0.518623
0.518624
0.518626
0.518629
0.518634
0.518639
0.518637
0.518613
0.518537
0.518354
0.517979
0.517302
0.516154
0.515092
0.519665
0.532213
0.528071
0.517643
0.51608
0.516348
0.516938
0.517493
0.517839
0.518015
0.518088
0.51811
0.518112
0.518109
0.518107
0.518105
0.518106
0.518107
0.518109
0.518113
0.518118
0.518123
0.518122
0.518099
0.518023
0.517837
0.517456
0.516777
0.515696
0.514978
0.515116
0.530542
0.527557
0.517943
0.515834
0.515893
0.516442
0.51698
0.517318
0.517488
0.517558
0.51758
0.517582
0.517581
0.517579
0.517579
0.51758
0.517581
0.517584
0.517587
0.517592
0.517596
0.517595
0.517573
0.517498
0.517314
0.516938
0.516293
0.515393
0.514855
0.514991
0.528272
0.527164
0.517721
0.515357
0.515375
0.515921
0.516449
0.516776
0.516941
0.517009
0.51703
0.517034
0.517035
0.517035
0.517036
0.517037
0.517038
0.51704
0.517042
0.517045
0.517048
0.517046
0.517025
0.516954
0.516777
0.516418
0.515821
0.515121
0.514731
0.514865
0.526559
0.526546
0.517234
0.515001
0.514879
0.51539
0.515901
0.516216
0.516372
0.516436
0.516457
0.516462
0.516464
0.516465
0.516466
0.516467
0.516468
0.516468
0.516469
0.51647
0.516472
0.51647
0.516451
0.516386
0.516221
0.515883
0.515334
0.514774
0.514601
0.515115
0.525698
0.525813
0.51727
0.514867
0.514423
0.514859
0.515346
0.515644
0.515787
0.515843
0.51586
0.515864
0.515865
0.515866
0.515867
0.515867
0.515867
0.515867
0.515866
0.515867
0.515868
0.515866
0.515851
0.515795
0.515645
0.515331
0.514819
0.514341
0.514471
0.515438
0.525171
0.525376
0.517718
0.514795
0.513943
0.514323
0.51479
0.515068
0.515196
0.515241
0.515252
0.515251
0.515249
0.515248
0.515247
0.515246
0.515245
0.515244
0.515244
0.515245
0.515247
0.515248
0.515238
0.515192
0.515057
0.514766
0.514287
0.513924
0.514397
0.515546
0.524382
0.525342
0.518629
0.513706
0.513343
0.513774
0.514233
0.514497
0.51461
0.514643
0.514645
0.514638
0.514631
0.514626
0.514623
0.514621
0.51462
0.51462
0.514621
0.514624
0.514628
0.514633
0.514629
0.514593
0.514474
0.514203
0.513759
0.513544
0.514471
0.516546
0.523508
0.525619
0.519631
0.506876
0.512604
0.513208
0.513678
0.513933
0.514034
0.514057
0.514051
0.514038
0.514027
0.514019
0.514014
0.514011
0.51401
0.514011
0.514014
0.514018
0.514026
0.514035
0.514036
0.514009
0.513904
0.513653
0.513237
0.512991
0.510746
0.519531
0.523553
0.526976
0.516037
0.507426
0.511758
0.512623
0.513121
0.513374
0.513467
0.513484
0.513473
0.513456
0.513442
0.513433
0.513427
0.513425
0.513424
0.513425
0.513429
0.513435
0.513445
0.513457
0.513463
0.513443
0.513349
0.513113
0.51269
0.512187
0.506653
0.521745
0.525869
0.529248
0.507433
0.506368
0.510874
0.512012
0.512564
0.512821
0.512911
0.512924
0.51291
0.512893
0.512879
0.51287
0.512864
0.512861
0.512861
0.512863
0.512866
0.512873
0.512884
0.512897
0.512907
0.512892
0.512806
0.51257
0.512089
0.511194
0.507351
0.508173
0.530002
0.530398
0.505143
0.507181
0.509997
0.511386
0.512007
0.512276
0.512366
0.512378
0.512365
0.512349
0.512336
0.512327
0.512322
0.51232
0.512319
0.51232
0.512323
0.51233
0.51234
0.512354
0.512366
0.512355
0.512271
0.51202
0.511438
0.510083
0.506329
0.507361
0.531897
0.529118
0.507188
0.506406
0.509115
0.510745
0.511451
0.511741
0.511835
0.511849
0.511837
0.511823
0.511812
0.511804
0.5118
0.511797
0.511795
0.511796
0.511798
0.511804
0.511814
0.511828
0.51184
0.511829
0.511741
0.511461
0.510764
0.509008
0.507107
0.505254
0.530071
0.5257
0.505075
0.506938
0.508257
0.51009
0.510886
0.511207
0.51131
0.511328
0.51132
0.511307
0.511297
0.511291
0.511287
0.511284
0.511282
0.511282
0.511284
0.511289
0.511298
0.51131
0.511321
0.511305
0.511206
0.510891
0.510085
0.508092
0.506486
0.507112
0.525904
0.521219
0.506941
0.506514
0.507488
0.509419
0.510297
0.510649
0.510765
0.51079
0.510783
0.510773
0.510765
0.510759
0.510757
0.510754
0.510752
0.510752
0.510754
0.510759
0.510765
0.510776
0.510782
0.51076
0.510645
0.510295
0.50941
0.507366
0.506864
0.505271
0.521081
0.517415
0.505741
0.506697
0.506878
0.508747
0.509658
0.510034
0.510163
0.510192
0.510188
0.51018
0.510172
0.51017
0.510169
0.510168
0.510168
0.510167
0.510169
0.510173
0.510177
0.510184
0.510186
0.510156
0.510026
0.509653
0.508749
0.506865
0.506613
0.506866
0.517377
0.515266
0.506698
0.506541
0.506456
0.508082
0.508953
0.509336
0.509471
0.509504
0.509504
0.509499
0.509493
0.509491
0.509495
0.509495
0.509497
0.509496
0.509498
0.509495
0.509501
0.509502
0.5095
0.509464
0.509327
0.508949
0.508092
0.506502
0.506623
0.506256
0.515475
0.514638
0.506652
0.506673
0.50618
0.5074
0.508195
0.508563
0.508692
0.508723
0.508727
0.508722
0.508726
0.508721
0.508724
0.508721
0.508724
0.50873
0.50873
0.508727
0.508729
0.508729
0.508723
0.508687
0.508556
0.508192
0.50741
0.506219
0.506678
0.506801
0.51478
0.514322
0.507382
0.507493
0.505987
0.506722
0.507421
0.507752
0.507867
0.507894
0.507896
0.507892
0.507885
0.507895
0.507885
0.507893
0.507897
0.507895
0.507898
0.507906
0.507898
0.507899
0.507897
0.507865
0.507751
0.507422
0.506726
0.505995
0.507366
0.507172
0.514395
0.514566
0.510857
0.509355
0.505759
0.506098
0.506683
0.506963
0.507062
0.507083
0.507081
0.507082
0.507071
0.507077
0.507077
0.507087
0.507088
0.507078
0.507078
0.507078
0.507079
0.507085
0.507087
0.507065
0.506968
0.506688
0.506098
0.505751
0.509169
0.510509
0.514579
0.516747
0.516748
0.510108
0.505321
0.505532
0.506005
0.506243
0.506323
0.506334
0.506332
0.506324
0.506345
0.50632
0.506333
0.506313
0.506312
0.506329
0.506323
0.506315
0.506325
0.506338
0.506337
0.506329
0.506252
0.506016
0.505534
0.505317
0.510108
0.516573
0.516677
0.520874
0.520125
0.508963
0.504604
0.504979
0.505375
0.505582
0.505642
0.505651
0.505644
0.505625
0.505636
0.505631
0.505618
0.505624
0.505623
0.505618
0.505623
0.505636
0.505631
0.505643
0.505645
0.505648
0.505593
0.505388
0.504988
0.504611
0.508989
0.520308
0.520883
0.524149
0.518378
0.505336
0.503691
0.50437
0.504757
0.50494
0.504993
0.504999
0.504983
0.504982
0.504958
0.504979
0.504975
0.505002
0.505
0.504972
0.504966
0.50497
0.504974
0.504973
0.504994
0.505
0.504954
0.504769
0.504381
0.503702
0.505282
0.518489
0.524327
0.524445
0.513493
0.500623
0.502677
0.503677
0.504122
0.504304
0.504354
0.504356
0.504345
0.504359
0.504345
0.504347
0.504361
0.504333
0.504331
0.504357
0.504348
0.504328
0.504349
0.504339
0.504361
0.504362
0.504313
0.50413
0.503684
0.502679
0.500427
0.513176
0.524605
0.523524
0.505007
0.497732
0.501647
0.50294
0.503473
0.503664
0.503711
0.503718
0.503712
0.503713
0.503704
0.503704
0.503685
0.503678
0.503678
0.503688
0.50371
0.503712
0.50371
0.503717
0.503721
0.503716
0.503667
0.503474
0.502937
0.501625
0.497518
0.504258
0.523511
0.521735
0.472376
0.496406
0.500799
0.502207
0.502808
0.503009
0.503052
0.50305
0.503045
0.503026
0.50302
0.503019
0.503017
0.503047
0.503047
0.503019
0.503017
0.503034
0.503026
0.503051
0.503057
0.503054
0.503007
0.502804
0.502199
0.500764
0.496326
0.471766
0.521497
0.519071
0.465806
0.493746
0.500128
0.501509
0.502114
0.502308
0.502345
0.50233
0.502329
0.502304
0.502319
0.502302
0.50233
0.502307
0.502309
0.50233
0.502304
0.502302
0.502315
0.502332
0.50234
0.502342
0.502303
0.502109
0.501499
0.500101
0.493844
0.465835
0.518909
0.513066
0.470421
0.490889
0.499391
0.500807
0.501391
0.501558
0.501582
0.50157
0.501555
0.501544
0.501544
0.501541
0.501527
0.501513
0.501514
0.50153
0.501547
0.501544
0.501551
0.501556
0.501565
0.501578
0.501552
0.501388
0.500799
0.499381
0.491075
0.470429
0.513089
0.505118
0.46592
0.488539
0.498538
0.500056
0.500648
0.500814
0.500824
0.500808
0.500776
0.500775
0.500758
0.500754
0.500737
0.500771
0.500772
0.50074
0.500755
0.500762
0.500771
0.500773
0.5008
0.500825
0.50081
0.500646
0.500053
0.498539
0.488695
0.465947
0.505249
0.498904
0.470297
0.486557
0.497693
0.499299
0.499932
0.50013
0.500147
0.500129
0.500106
0.500098
0.500104
0.500088
0.500105
0.500099
0.500098
0.500104
0.500083
0.500088
0.500098
0.5001
0.50013
0.500148
0.500131
0.499932
0.499298
0.497694
0.486648
0.470306
0.498998
0.496721
0.466487
0.485337
0.496863
0.498595
0.499316
0.499537
0.499581
0.499585
0.499579
0.49957
0.499572
0.499578
0.499576
0.499554
0.49955
0.49957
0.499572
0.499578
0.499569
0.499576
0.499585
0.499581
0.499541
0.499316
0.498594
0.496863
0.485379
0.466495
0.496724
0.498009
0.47018
0.485383
0.495843
0.497877
0.498734
0.498998
0.499078
0.499102
0.499109
0.499106
0.49909
0.499102
0.49909
0.499094
0.499093
0.499082
0.499096
0.499099
0.499105
0.499108
0.499101
0.49908
0.498999
0.498734
0.497876
0.495848
0.485413
0.470188
0.497998
0.501587
0.467031
0.485935
0.494489
0.497011
0.498019
0.498351
0.498461
0.498497
0.498501
0.4985
0.498493
0.498488
0.498485
0.49848
0.498479
0.498478
0.498485
0.498488
0.498498
0.498502
0.498499
0.498466
0.498353
0.498019
0.497011
0.494497
0.485943
0.467037
0.501561
0.50499
0.470065
0.487128
0.492844
0.495875
0.497022
0.497408
0.497516
0.497548
0.497552
0.497554
0.49755
0.497525
0.497534
0.497549
0.497549
0.497532
0.497528
0.497545
0.497545
0.497555
0.497553
0.497521
0.497412
0.497024
0.495877
0.492853
0.487106
0.470072
0.50497
0.504331
0.466898
0.489024
0.491164
0.494411
0.495617
0.49601
0.496118
0.496145
0.496126
0.496109
0.496118
0.496136
0.496165
0.49618
0.496181
0.496173
0.496145
0.49612
0.496114
0.496135
0.49615
0.49612
0.496009
0.495619
0.494416
0.491168
0.488986
0.466906
0.504322
0.501625
0.469945
0.48971
0.489849
0.492833
0.493964
0.494325
0.494408
0.494398
0.494392
0.494409
0.494437
0.494465
0.494392
0.494264
0.49427
0.494408
0.494478
0.494452
0.494428
0.494397
0.494402
0.494405
0.494322
0.493966
0.492837
0.489847
0.489694
0.469953
0.501623
0.4967
0.466497
0.489513
0.48881
0.491291
0.492215
0.492488
0.49254
0.492551
0.492608
0.49264
0.492596
0.49245
0.492173
0.491886
0.491912
0.492182
0.492461
0.492611
0.492649
0.492608
0.492548
0.492534
0.492488
0.492217
0.491293
0.488807
0.489497
0.466507
0.4967
0.490894
0.469829
0.48876
0.488281
0.49016
0.490847
0.491056
0.491152
0.491198
0.491137
0.490997
0.490767
0.490542
0.490406
0.490473
0.49048
0.490404
0.490545
0.490769
0.490998
0.491141
0.491192
0.491148
0.491056
0.490849
0.49016
0.48828
0.488754
0.469837
0.49089
0.485535
0.466569
0.486914
0.487624
0.489021
0.489604
0.489804
0.489823
0.489694
0.489225
0.489207
0.489089
0.489306
0.489914
0.490449
0.490435
0.48991
0.489302
0.489082
0.489203
0.489212
0.489693
0.489821
0.489803
0.489605
0.48902
0.487624
0.486918
0.466577
0.485528
0.48199
0.469717
0.483296
0.486948
0.488026
0.488465
0.48855
0.488356
0.487964
0.488024
0.488118
0.488687
0.489313
0.490049
0.490616
0.490606
0.490042
0.489306
0.488679
0.488107
0.488029
0.487969
0.488357
0.488551
0.488466
0.488026
0.48695
0.483281
0.469725
0.48199
0.478535
0.466881
0.474269
0.486557
0.487366
0.487637
0.487584
0.48749
0.487561
0.487983
0.488531
0.489229
0.489894
0.490499
0.490847
0.490842
0.490493
0.489885
0.489221
0.488521
0.48798
0.487563
0.487491
0.487585
0.487637
0.487365
0.486561
0.474174
0.46689
0.47854
0.475325
0.46961
0.469122
0.485005
0.485748
0.486076
0.486201
0.486547
0.487201
0.487903
0.488553
0.489153
0.489582
0.489758
0.489665
0.489655
0.489755
0.489575
0.489146
0.488547
0.487899
0.487199
0.486547
0.486201
0.486075
0.485745
0.485015
0.469128
0.469618
0.475336
0.473708
0.46759
0.469609
0.482898
0.483967
0.484706
0.485356
0.486056
0.486846
0.487431
0.487731
0.487688
0.487267
0.48641
0.485519
0.485514
0.486408
0.487263
0.487685
0.487728
0.48743
0.486842
0.486055
0.485355
0.484705
0.483965
0.482911
0.469617
0.467599
0.473715
0.470782
0.469508
0.468916
0.482825
0.484107
0.484781
0.485234
0.485615
0.485761
0.485248
0.484236
0.482886
0.481305
0.479297
0.478172
0.47818
0.479269
0.481279
0.48288
0.484233
0.485248
0.485756
0.485613
0.485233
0.48478
0.484107
0.482825
0.468924
0.469515
0.470787
0.469409
0.468187
0.469508
0.481241
0.48342
0.483683
0.483248
0.482365
0.479963
0.476513
0.47376
0.471222
0.469918
0.469558
0.469558
0.469551
0.469561
0.469918
0.471187
0.473739
0.476502
0.479952
0.482362
0.483246
0.483681
0.48342
0.481222
0.469515
0.468195
0.469417
0.471892
0.469508
0.468804
0.471758
0.477687
0.476986
0.474315
0.471394
0.46987
0.470047
0.469835
0.470031
0.469728
0.469748
0.469552
0.469559
0.46975
0.469732
0.470037
0.469843
0.470055
0.469877
0.471387
0.474311
0.476983
0.477684
0.47172
0.468812
0.469516
0.471901
0.484586
0.469301
0.469609
0.469146
0.469714
0.469497
0.469823
0.469614
0.469934
0.469751
0.470047
0.469853
0.470031
0.469738
0.469801
0.469776
0.469742
0.470037
0.469861
0.470055
0.469759
0.469942
0.469624
0.469831
0.469504
0.469722
0.469153
0.469617
0.469309
0.484605
0.505947
0.474459
0.46946
0.469714
0.469573
0.469823
0.469662
0.469934
0.469755
0.470047
0.469857
0.470158
0.469987
0.470056
0.469857
0.469869
0.470048
0.469992
0.470166
0.469864
0.470055
0.469763
0.469942
0.46967
0.469831
0.469581
0.469722
0.469468
0.474474
0.505975
0.513916
0.489701
0.477072
0.474369
0.474889
0.474995
0.475122
0.475211
0.475368
0.475516
0.475713
0.47588
0.476087
0.476292
0.476464
0.476464
0.476305
0.476121
0.475884
0.475709
0.475516
0.475372
0.475217
0.475128
0.475002
0.474896
0.474378
0.477085
0.489713
0.513925
0.516559
0.509262
0.499953
0.494641
0.495811
0.496353
0.496707
0.496977
0.497232
0.497484
0.497726
0.497975
0.498358
0.498822
0.499131
0.499127
0.498869
0.498515
0.498055
0.4977
0.497463
0.497222
0.496973
0.496706
0.496354
0.495812
0.494649
0.499964
0.509243
0.516554
0.513732
0.523325
0.523304
0.522059
0.522108
0.522225
0.522296
0.522334
0.522371
0.522402
0.522442
0.522523
0.522706
0.523005
0.523072
0.523061
0.52303
0.522957
0.522659
0.52248
0.522403
0.522368
0.522331
0.52229
0.522219
0.522107
0.522058
0.523304
0.523324
0.513716
0.443093
0.500032
0.523311
0.523341
0.523324
0.523326
0.52333
0.52333
0.523332
0.523332
0.523345
0.523344
0.523345
0.523344
0.523345
0.523344
0.523345
0.523344
0.523345
0.523343
0.523344
0.523331
0.523331
0.523328
0.523327
0.523323
0.523341
0.523309
0.499928
0.443033
0.239667
0.33968
0.415019
0.439979
0.454241
0.462686
0.468458
0.470746
0.474175
0.476744
0.478018
0.480003
0.474658
0.473637
0.475745
0.475774
0.475264
0.473558
0.4761
0.478596
0.476129
0.474124
0.470732
0.466261
0.462671
0.454305
0.439985
0.414892
0.339703
0.239547
0.0647838
0.116551
0.16837
0.194052
0.21189
0.225801
0.234543
0.239565
0.246313
0.251274
0.255207
0.255544
0.256793
0.256877
0.259752
0.258645
0.258933
0.256338
0.254025
0.253188
0.252214
0.246815
0.239765
0.23066
0.224665
0.211688
0.194081
0.168402
0.116868
0.0646937
0.0133506
0.0205373
0.0264279
0.0321277
0.0368995
0.0416729
0.0448231
0.048587
0.0506638
0.0512843
0.0538466
0.0543319
0.0571584
0.061867
0.0631796
0.0617397
0.0628463
0.0609786
0.0555132
0.0536479
0.0528806
0.0505906
0.0485665
0.0448392
0.0402167
0.0365769
0.032259
0.0273425
0.0203421