/*--------------------------------*- C++ -*----------------------------------*\
| =========                 |                                                 |
| \\      /  F ield         | OpenFOAM: The Open Source CFD Toolbox           |
|  \\    /   O peration     | Version:  2.3.0                                 |
|   \\  /    A nd           | Web:      www.OpenFOAM.org                      |
|    \\/     M anipulation  |                                                 |
\*---------------------------------------------------------------------------*/
FoamFile
{
    version     2.0;
    format      ascii;
    class       volScalarField;
    location    "0.03";
    object      epsilon.air;
}
// * * * * * * * * * * * * * * * * * * * * * * * * * * * * * * * * * * * * * //

dimensions      [0 2 -3 0 0 0 0];

internalField   nonuniform List<scalar> 
6000
(
121.904
17.9736
10.701
9.61653
9.36704
9.30613
9.28869
9.27687
9.26257
9.24618
9.22982
9.21528
9.20372
9.19576
9.1917
9.19168
9.19578
9.20379
9.2154
9.22999
9.24639
9.26281
9.27711
9.2889
9.30624
9.36697
9.61628
10.7007
17.9732
121.904
63.8881
20.2818
12.3956
10.306
9.70305
9.52101
9.46507
9.44229
9.42483
9.4068
9.38874
9.37242
9.35925
9.35013
9.34549
9.34551
9.35018
9.35935
9.37256
9.38891
9.407
9.42505
9.44247
9.46513
9.52083
9.70253
10.3052
12.3945
20.2804
63.8897
39.5913
17.8261
11.8888
9.88314
9.16105
8.89638
8.79623
8.75183
8.72441
8.70205
8.68233
8.66553
8.65238
8.64342
8.63892
8.63895
8.64349
8.65248
8.66564
8.68245
8.70219
8.72453
8.75189
8.79616
8.89606
9.16044
9.88231
11.888
17.825
39.5943
28.4202
14.7527
10.8186
9.20854
8.51241
8.21585
8.09026
8.03246
7.99926
7.97497
7.95505
7.93873
7.92622
7.91779
7.91358
7.91361
7.91786
7.92631
7.93882
7.95513
7.97504
7.9993
8.03244
8.09015
8.21558
8.51196
9.20794
10.8179
14.7519
28.4237
22.8694
12.6973
9.91212
8.65201
8.01492
7.69675
7.54248
7.46704
7.42644
7.40055
7.38152
7.36685
7.35591
7.34862
7.34499
7.34501
7.34867
7.35597
7.3669
7.38156
7.40056
7.42643
7.467
7.54242
7.69669
8.01485
8.65187
9.91168
12.6967
22.87
19.9255
11.3561
9.21734
8.2061
7.63665
7.31309
7.13426
7.03765
6.98483
6.95409
6.93444
6.92095
6.9116
6.90561
6.90268
6.90269
6.90564
6.91163
6.92096
6.93443
6.95406
6.98479
7.03761
7.13427
7.31319
7.63689
8.20645
9.21742
11.3557
19.9206
18.3126
10.5229
8.72629
7.86366
7.34505
7.0245
6.83039
6.7163
6.65071
6.61302
6.59079
6.57718
6.56869
6.56364
6.56127
6.56127
6.56365
6.56869
6.57717
6.59076
6.61297
6.65065
6.71625
6.83039
7.02463
7.34543
7.86441
8.72709
10.5231
18.3034
17.4478
10.0345
8.40419
7.6164
7.12571
6.80733
6.60344
6.47657
6.40017
6.35543
6.32965
6.31487
6.30644
6.30184
6.2998
6.29981
6.30184
6.30644
6.31485
6.32962
6.35538
6.40011
6.4765
6.6034
6.80739
7.12602
7.61729
8.40561
10.0355
17.4384
17.0162
9.76472
8.20537
7.44716
6.96661
6.64667
6.43508
6.2987
6.21378
6.16286
6.13342
6.11693
6.10799
6.10342
6.1015
6.1015
6.10343
6.108
6.11692
6.1334
6.16283
6.21372
6.29861
6.43497
6.64658
6.96667
7.44776
8.20699
9.7659
17.0121
16.8426
9.62734
8.08832
7.33569
6.85501
6.53058
6.31208
6.16824
6.07663
6.02059
5.98779
5.96945
5.9597
5.95487
5.95291
5.95292
5.95489
5.95972
5.96947
5.9878
6.02058
6.07659
6.16816
6.31193
6.53035
6.85473
7.33573
8.08949
9.6293
16.8454
16.8123
9.5639
8.02159
7.26386
6.77825
6.44802
6.22337
6.07355
5.97672
5.91657
5.8809
5.8608
5.85012
5.84488
5.84279
5.8428
5.84492
5.85018
5.86087
5.88097
5.91662
5.97674
6.07352
6.22324
6.44774
6.77773
7.2633
8.02193
9.56563
16.8192
16.8308
9.53959
7.98502
7.21823
6.72575
6.38965
6.1596
6.0048
5.90405
5.8408
5.80284
5.78124
5.76967
5.76397
5.7617
5.76172
5.76404
5.76977
5.78136
5.80298
5.84094
5.90418
6.00489
6.15963
6.38944
6.72519
7.21721
7.98425
9.54016
16.8395
16.8983
9.54003
7.96722
7.18997
6.69011
6.34838
6.11343
5.95485
5.85096
5.78532
5.74563
5.72282
5.71049
5.70438
5.70193
5.70196
5.70448
5.71065
5.72301
5.74584
5.78555
5.8512
5.95508
6.1136
6.34835
6.68963
7.1887
7.96554
9.53979
16.9096
16.9924
9.55056
7.96158
7.1733
6.66599
6.31914
6.08057
5.91901
5.81233
5.74459
5.70344
5.67963
5.66665
5.66017
5.65756
5.6576
5.6603
5.66685
5.67988
5.70372
5.74488
5.81266
5.91933
6.08087
6.31934
6.66579
7.17204
7.95899
9.54888
17.0035
17.0864
9.57353
7.96416
7.16425
6.64955
6.29822
6.05676
5.89289
5.78435
5.71504
5.67261
5.64782
5.63419
5.62733
5.62455
5.6246
5.62748
5.63442
5.64812
5.67292
5.71535
5.78467
5.89322
6.05713
6.29866
6.64984
7.16347
7.96114
9.56995
17.0962
17.1841
9.60233
7.9716
7.15965
6.63797
6.28276
6.0389
5.87334
5.76357
5.69315
5.64979
5.62435
5.61026
5.6031
5.60018
5.60024
5.60325
5.61049
5.62462
5.65008
5.69342
5.76381
5.8736
6.03925
6.28334
6.63882
7.15988
7.96839
9.59664
17.1871
17.2904
9.6351
7.98231
7.15757
6.62955
6.27096
6.02507
5.85819
5.74748
5.67636
5.63243
5.60658
5.59219
5.58482
5.58179
5.58184
5.58496
5.59239
5.6068
5.63264
5.67653
5.7476
5.85829
6.02525
6.27145
6.63072
7.15928
7.981
9.62838
17.2777
17.407
9.66811
7.99287
7.15697
6.62339
6.26175
6.01406
5.84606
5.73459
5.66294
5.61863
5.59249
5.57789
5.57038
5.56727
5.56731
5.57049
5.57805
5.59265
5.61877
5.66301
5.73459
5.84599
6.01399
6.26189
6.62437
7.15981
7.99573
9.66455
17.3733
17.5254
9.69799
8.00267
7.15787
6.61902
6.25434
6.00497
5.83598
5.72388
5.65181
5.60723
5.58088
5.56613
5.55851
5.55535
5.55538
5.5586
5.56625
5.581
5.60732
5.65184
5.72382
5.8358
6.00469
6.25406
6.61928
7.16057
8.01001
9.70282
17.4841
17.6304
9.72563
8.01353
7.16043
6.61595
6.24802
5.99704
5.82721
5.71463
5.64225
5.59746
5.57096
5.55611
5.54842
5.54522
5.54525
5.54849
5.5562
5.57106
5.59753
5.64227
5.71458
5.82705
5.99674
6.24752
6.61536
7.16165
8.02176
9.7383
17.6098
17.7167
9.75473
8.02811
7.16521
6.61356
6.24219
5.98974
5.81924
5.70632
5.63373
5.58881
5.56222
5.5473
5.53957
5.53635
5.53637
5.53963
5.54737
5.5623
5.58889
5.63379
5.70635
5.81923
5.98963
6.24181
6.61253
7.16389
8.0322
9.76795
17.731
17.7877
9.78981
8.04781
7.17122
6.61117
6.23649
5.9828
5.81181
5.69866
5.62596
5.58097
5.55432
5.53936
5.53161
5.52837
5.52838
5.53165
5.53942
5.5544
5.58105
5.62606
5.69878
5.81196
5.98297
6.23653
6.61045
7.1682
8.04507
9.79575
17.8288
17.8578
9.83386
8.0718
7.17683
6.6083
6.23082
5.97619
5.80484
5.69155
5.61879
5.57376
5.54709
5.53211
5.52434
5.52109
5.5211
5.52437
5.53215
5.54714
5.57382
5.61888
5.69169
5.80507
5.97655
6.23133
6.60857
7.17445
8.06373
9.82883
17.9041
17.9458
9.88569
8.09603
7.18055
6.60505
6.22541
5.97002
5.79838
5.68498
5.61216
5.56711
5.54043
5.52544
5.51767
5.51441
5.51441
5.51767
5.52545
5.54045
5.56713
5.61221
5.68506
5.79855
5.97036
6.22611
6.6063
7.181
8.08804
9.8716
17.9721
18.0686
9.93873
8.11563
7.18261
6.60202
6.22055
5.96441
5.79248
5.67896
5.60609
5.56102
5.53432
5.51933
5.51155
5.50828
5.50828
5.51154
5.51931
5.5343
5.56098
5.60605
5.67892
5.79249
5.96454
6.22102
6.6035
7.18592
8.11421
9.92396
18.0521
18.2111
9.98312
8.12955
7.18479
6.59983
6.21636
5.95939
5.78713
5.67347
5.60055
5.55546
5.52876
5.51377
5.50598
5.50271
5.5027
5.50595
5.51372
5.5287
5.55537
5.60044
5.67332
5.78695
5.95922
6.21633
6.60062
7.18873
8.13691
9.98058
18.1648
18.3421
10.0177
8.14219
7.18858
6.59856
6.21272
5.95484
5.78224
5.66848
5.59553
5.55043
5.52374
5.50875
5.50096
5.49769
5.49768
5.50092
5.50868
5.52365
5.55031
5.59537
5.66827
5.78197
5.95446
6.21224
6.59826
7.19086
8.15365
10.0311
18.3003
18.4441
10.0514
8.15881
7.19438
6.59781
6.20937
5.95061
5.77775
5.66392
5.59097
5.5459
5.51923
5.50425
5.49648
5.49321
5.4932
5.49644
5.50418
5.51914
5.54579
5.59083
5.66373
5.77749
5.95023
6.20873
6.59671
7.19388
8.16744
10.072
18.4328
18.5249
10.0929
8.18101
7.20106
6.59702
6.20613
5.94663
5.77359
5.65976
5.58687
5.54185
5.51522
5.50027
5.49251
5.48925
5.48924
5.49247
5.5002
5.51514
5.54176
5.58678
5.65967
5.77347
5.94643
6.20568
6.59582
7.19839
8.18278
10.1093
18.5471
18.6036
10.1449
8.20636
7.2069
6.59588
6.20297
5.94291
5.76978
5.656
5.58319
5.53825
5.51168
5.49677
5.48903
5.48578
5.48577
5.48899
5.49671
5.51161
5.5382
5.58317
5.65602
5.76985
5.943
6.20297
6.5953
7.20385
8.20124
10.15
18.6478
18.7002
10.2031
8.23007
7.21102
6.59453
6.2
5.93948
5.76629
5.65259
5.5799
5.53505
5.50855
5.49369
5.48599
5.48275
5.48273
5.48594
5.49363
5.50851
5.53504
5.57994
5.65273
5.76654
5.93986
6.20049
6.59488
7.20937
8.22133
10.1953
18.747
18.8237
10.2589
8.24831
7.21405
6.59337
6.19731
5.93628
5.76303
5.64942
5.57685
5.53213
5.50572
5.49091
5.48324
5.48002
5.48
5.4832
5.49087
5.50569
5.53215
5.57697
5.64967
5.76343
5.93688
6.19813
6.59446
7.21447
8.24087
10.2424
18.852
18.9638
10.3038
8.2617
7.21737
6.59266
6.19481
5.93316
5.7598
5.64628
5.57385
5.52925
5.50294
5.48821
5.48058
5.47738
5.47737
5.48056
5.48819
5.50296
5.52933
5.57404
5.64661
5.76029
5.93385
6.19572
6.59399
7.2193
8.2591
10.2878
18.9612
19.0988
10.3382
8.27443
7.22201
6.59234
6.19227
5.92986
5.75633
5.64288
5.57059
5.52613
5.49994
5.48528
5.47771
5.47453
5.47453
5.47772
5.48532
5.50002
5.52629
5.57086
5.64328
5.75687
5.93052
6.19303
6.59335
7.22421
8.27693
10.331
19.0701
19.2121
10.3707
8.29051
7.22818
6.5921
6.18943
5.92615
5.75241
5.639
5.56684
5.52251
5.49643
5.48186
5.47434
5.4712
5.47122
5.4744
5.48196
5.4966
5.52276
5.56718
5.63944
5.75293
5.92669
6.1899
6.59244
7.22941
8.29568
10.3742
19.1754
19.3019
10.4094
8.31173
7.23535
6.59157
6.18612
5.92192
5.74792
5.63452
5.56246
5.51826
5.49229
5.4778
5.47034
5.46724
5.46728
5.47044
5.47797
5.49253
5.51857
5.56284
5.63496
5.74838
5.9223
6.18627
6.59122
7.23494
8.31629
10.4195
19.2762
19.3769
10.4581
8.33786
7.24257
6.59046
6.1823
5.9172
5.74293
5.62952
5.55753
5.51344
5.48756
5.47316
5.46575
5.46269
5.46273
5.46588
5.47336
5.48784
5.51378
5.55792
5.62991
5.7433
5.91743
6.18224
6.58972
7.24072
8.3392
10.4689
19.3725
19.4483
10.5178
8.36721
7.2489
6.58872
6.1781
5.91215
5.73762
5.62417
5.55225
5.50824
5.48246
5.46812
5.46077
5.45773
5.45777
5.46089
5.46833
5.48272
5.50856
5.55258
5.62449
5.73788
5.91228
6.17797
6.58801
7.24655
8.36434
10.5234
19.4655
19.5295
10.5861
8.39678
7.25391
6.58659
6.17375
5.907
5.73221
5.61871
5.54683
5.5029
5.47719
5.46292
5.45561
5.45259
5.45263
5.45572
5.4631
5.47742
5.50315
5.54708
5.61893
5.73236
5.90705
6.17364
6.58618
7.25215
8.39095
10.5832
19.5588
19.6331
10.6577
8.42348
7.25796
6.58452
6.16954
5.90197
5.72687
5.61331
5.54146
5.4976
5.47196
5.45775
5.45047
5.44746
5.44749
5.45055
5.45787
5.47212
5.49777
5.54162
5.61342
5.72692
5.90193
6.16943
6.58437
7.25736
8.41769
10.6471
19.6577
19.761
10.7251
8.44595
7.26201
6.5829
6.16568
5.8972
5.72175
5.60809
5.53626
5.49246
5.46688
5.45271
5.44547
5.44247
5.44248
5.44551
5.45278
5.46696
5.49254
5.53632
5.6081
5.72169
5.89705
6.16547
6.58279
7.2623
8.44321
10.7127
19.766
19.8999
10.7836
8.46584
7.2669
6.58193
6.16225
5.89276
5.71691
5.60313
5.53129
5.48753
5.462
5.44788
5.44066
5.43767
5.43768
5.44068
5.4479
5.46202
5.48754
5.53127
5.60304
5.71674
5.89248
6.16188
6.58159
7.26734
8.46699
10.7769
19.8836
20.0305
10.8352
8.48621
7.27299
6.58155
6.15922
5.88864
5.71236
5.59843
5.52658
5.48284
5.45736
5.44328
5.43609
5.43311
5.4331
5.43608
5.44326
5.45734
5.4828
5.52649
5.59828
5.71211
5.88825
6.15868
6.58089
7.2729
8.48965
10.838
20.0058
20.1438
10.8869
8.50933
7.28022
6.58168
6.15651
5.88481
5.70809
5.594
5.52212
5.47841
5.45297
5.43892
5.43175
5.42878
5.42878
5.43173
5.43888
5.45292
5.47834
5.522
5.59382
5.7078
5.88438
6.15588
6.58074
7.27928
8.51245
10.8963
20.1268
20.2452
10.9439
8.53581
7.2884
6.58216
6.15411
5.88126
5.70408
5.58983
5.51792
5.47423
5.44882
5.43481
5.42766
5.4247
5.42469
5.42763
5.43476
5.44876
5.47415
5.51781
5.58965
5.7038
5.88083
6.15346
6.58108
7.28656
8.53651
10.954
20.2428
20.3458
11.0068
8.5651
7.29744
6.58306
6.15201
5.87796
5.70031
5.5859
5.51396
5.47029
5.44491
5.43093
5.4238
5.42085
5.42084
5.42377
5.43089
5.44487
5.47024
5.51388
5.58578
5.7001
5.8776
6.15138
6.58181
7.29472
8.56251
11.0131
20.353
20.4513
11.0732
8.59653
7.30727
6.58432
6.15014
5.87488
5.69676
5.5822
5.51023
5.46659
5.44124
5.42728
5.42016
5.41722
5.41721
5.42014
5.42724
5.44121
5.46657
5.51022
5.58217
5.69667
5.87466
6.14962
6.58302
7.30373
8.59071
11.0749
20.4583
20.5548
11.1419
8.63017
7.3174
6.58559
6.14836
5.87195
5.6934
5.57871
5.50673
5.46311
5.43779
5.42385
5.41675
5.41382
5.41381
5.41673
5.42383
5.43779
5.46314
5.50679
5.57879
5.69348
5.87196
6.14816
6.58464
7.31363
8.62136
11.1399
20.5608
20.6435
11.2162
8.66635
7.32672
6.58634
6.14647
5.86908
5.69018
5.5754
5.50344
5.45986
5.43458
5.42066
5.41357
5.41064
5.41062
5.41354
5.42063
5.43458
5.45992
5.50357
5.57562
5.69049
5.86947
6.14691
6.58657
7.32438
8.65483
11.2086
20.6627
20.7149
11.302
8.70469
7.33401
6.58634
6.14437
5.86625
5.68711
5.5723
5.50037
5.45684
5.4316
5.41771
5.41063
5.40769
5.40768
5.41059
5.41767
5.4316
5.45691
5.50056
5.57263
5.68765
5.8671
6.14573
6.5885
7.33544
8.69134
11.282
20.762
20.7815
11.4011
8.74289
7.33939
6.58587
6.14223
5.86352
5.68422
5.56942
5.49755
5.45408
5.42888
5.415
5.40793
5.405
5.40498
5.40788
5.41495
5.42885
5.45413
5.49773
5.5698
5.68493
5.86475
6.1444
6.58986
7.34532
8.73069
11.3636
20.8508
20.8728
11.5105
8.77033
7.34341
6.58565
6.1404
5.8611
5.68163
5.56681
5.495
5.45158
5.42642
5.41256
5.40551
5.40257
5.40255
5.40544
5.41248
5.42635
5.45157
5.49512
5.56715
5.68231
5.86238
6.14279
6.59029
7.35317
8.77478
11.457
20.9236
21.0243
11.6183
8.7878
7.34731
6.5862
6.13924
5.85918
5.67942
5.56455
5.49276
5.44937
5.42424
5.41041
5.40336
5.40043
5.4004
5.40327
5.41029
5.42411
5.44927
5.49274
5.5647
5.67985
5.86009
6.14106
6.59029
7.35922
8.81387
11.5609
20.9851
21.2233
11.7022
8.80467
7.3534
6.58784
6.13895
5.85785
5.67769
5.56268
5.49086
5.44749
5.42238
5.40856
5.40151
5.39858
5.39854
5.4014
5.40838
5.42216
5.44726
5.49066
5.56254
5.67768
5.85806
6.13958
6.59023
7.36234
8.8358
11.6763
21.0634
21.4123
11.7532
8.82188
7.36225
6.59106
6.13944
5.85716
5.67646
5.56124
5.48934
5.44595
5.42084
5.40702
5.39997
5.39703
5.39699
5.39983
5.4068
5.42054
5.44559
5.48893
5.56078
5.67595
5.85656
6.13874
6.59064
7.36442
8.8495
11.8012
21.2095
21.5551
11.7906
8.84095
7.37254
6.59522
6.14063
5.85713
5.67576
5.56025
5.48824
5.4448
5.41966
5.40583
5.39878
5.39584
5.39579
5.39862
5.40557
5.4193
5.44433
5.48764
5.55951
5.67481
5.85584
6.13899
6.59238
7.36972
8.86386
11.8976
21.4313
21.6563
11.8382
8.86442
7.38387
6.60013
6.14256
5.8576
5.67564
5.55977
5.4876
5.44409
5.41892
5.40507
5.398
5.39505
5.395
5.39784
5.40479
5.41851
5.44355
5.48689
5.55886
5.67444
5.85605
6.14017
6.59632
7.37933
8.87891
11.9514
21.671
21.7521
11.8994
8.89313
7.3969
6.60595
6.14516
5.85865
5.676
5.55987
5.48753
5.44392
5.4187
5.40483
5.39776
5.39481
5.39476
5.3976
5.40457
5.41832
5.4434
5.48683
5.55896
5.67478
5.85694
6.14264
6.60213
7.39134
8.89494
11.9816
21.8583
21.8642
11.9648
8.92574
7.41201
6.61282
6.14843
5.8603
5.67685
5.56035
5.48788
5.44423
5.41899
5.40511
5.39804
5.39509
5.39504
5.39789
5.40487
5.41864
5.44375
5.48724
5.55951
5.67572
5.85876
6.14621
6.6092
7.40504
8.91482
12.0022
21.9665
21.9759
12.0296
8.96276
7.4287
6.6204
6.15222
5.86241
5.67819
5.56133
5.48869
5.44498
5.41971
5.40583
5.39875
5.39581
5.39578
5.39864
5.40564
5.41944
5.44461
5.48821
5.56071
5.67739
5.86134
6.15068
6.61761
7.42155
8.94407
12.0412
22.0522
22.062
12.1075
9.00703
7.445
6.62798
6.15626
5.86483
5.67988
5.56271
5.48996
5.4462
5.42094
5.40707
5.40001
5.39708
5.39705
5.39992
5.40693
5.42075
5.44597
5.48968
5.5624
5.67955
5.86449
6.15591
6.62737
7.44142
8.98579
12.1023
22.1598
22.1235
12.2125
9.07774
7.46292
6.63553
6.16039
5.86748
5.68185
5.5644
5.49154
5.44777
5.42253
5.40867
5.40163
5.39871
5.39869
5.40157
5.40858
5.42241
5.44766
5.49146
5.56439
5.68201
5.86794
6.16143
6.63741
7.46276
9.04695
12.1835
22.2689
22.1754
12.3545
9.14123
7.48263
6.64362
6.16469
5.87031
5.68406
5.56634
5.49341
5.44963
5.42439
5.41056
5.40354
5.40063
5.40061
5.40349
5.4105
5.42434
5.44961
5.49348
5.56659
5.6846
5.87139
6.16669
6.64696
7.48602
9.12665
12.2833
22.3106
22.1647
12.5652
9.18496
7.50097
6.65195
6.16917
5.87332
5.68647
5.56853
5.49551
5.45172
5.4265
5.41269
5.40568
5.40278
5.40277
5.40565
5.41265
5.42649
5.45177
5.49568
5.56891
5.68721
5.87467
6.1715
6.65584
7.50728
9.18695
12.4888
22.2231
22.1393
12.7799
9.22983
7.51718
6.65978
6.17363
5.87642
5.68903
5.57088
5.49781
5.45401
5.4288
5.41501
5.40801
5.40512
5.40512
5.408
5.415
5.42882
5.4541
5.49801
5.5713
5.68978
5.8777
6.17573
6.66313
7.52246
9.2267
12.7033
22.0471
22.1846
12.8608
9.25538
7.52848
6.6663
6.17782
5.8795
5.69165
5.57334
5.50022
5.45642
5.43123
5.41745
5.41047
5.40759
5.40759
5.41047
5.41746
5.43127
5.45652
5.50042
5.5737
5.69227
5.88048
6.17932
6.66848
7.53171
9.25627
12.8365
22.0707
22.3695
12.9326
9.25587
7.53193
6.67092
6.18162
5.88253
5.69431
5.57585
5.50269
5.4589
5.43372
5.41996
5.41299
5.41012
5.41012
5.413
5.41999
5.43378
5.459
5.50286
5.57612
5.69474
5.88317
6.1825
6.67198
7.53291
9.25671
12.9297
22.2846
22.7965
13.0517
9.26065
7.5339
6.67493
6.18543
5.88575
5.69714
5.57851
5.50529
5.46149
5.43633
5.42257
5.41561
5.41275
5.41276
5.41563
5.4226
5.43637
5.46157
5.50542
5.5787
5.69741
5.88611
6.18589
6.6755
7.53507
9.26601
13.0698
22.7811
23.403
13.1818
9.28053
7.5415
6.68056
6.19008
5.88958
5.70047
5.58158
5.50825
5.46441
5.43923
5.42547
5.41851
5.41565
5.41565
5.41852
5.42549
5.43925
5.46445
5.50832
5.58169
5.70061
5.88977
6.19032
6.68107
7.54355
9.29116
13.2154
23.4281
23.8835
13.2827
9.32387
7.56048
6.6902
6.19654
5.89456
5.70465
5.58535
5.51182
5.46789
5.44267
5.42889
5.42191
5.41904
5.41903
5.4219
5.42887
5.44265
5.46789
5.51184
5.58539
5.70471
5.89463
6.19668
6.69078
7.5636
9.33759
13.2953
23.8854
24.1062
13.3088
9.37854
7.59121
6.70532
6.20566
5.90103
5.70987
5.58995
5.5161
5.47201
5.44672
5.4329
5.4259
5.42301
5.423
5.42588
5.43287
5.44671
5.47199
5.51609
5.58994
5.70986
5.90101
6.20568
6.7057
7.593
9.38479
13.3112
24.0667
24.0946
13.2898
9.43443
7.63052
6.72555
6.21719
5.90885
5.71599
5.59525
5.52099
5.47671
5.45129
5.43744
5.43044
5.42757
5.42756
5.43041
5.43742
5.45128
5.47668
5.52096
5.59519
5.71591
5.90873
6.21703
6.72546
7.63076
9.43582
13.2912
24.0728
24.0445
13.2395
9.48827
7.67361
6.74843
6.23021
5.91747
5.72257
5.60087
5.52618
5.48169
5.45623
5.44229
5.4353
5.43238
5.43237
5.43528
5.44228
5.45614
5.48166
5.52613
5.60079
5.72245
5.91726
6.2299
6.748
7.6729
9.48788
13.2443
24.03
23.9159
13.1869
9.53638
7.711
6.76969
6.24303
5.92609
5.72914
5.60647
5.53132
5.4866
5.46104
5.4471
5.44003
5.43711
5.43712
5.44007
5.44713
5.4611
5.48664
5.53129
5.60638
5.72899
5.92584
6.24268
6.76926
7.71048
9.53616
13.1916
23.9102
23.6388
13.1968
9.58604
7.73469
6.78537
6.25396
5.93402
5.73545
5.61196
5.53641
5.49154
5.46576
5.4519
5.44482
5.44206
5.44208
5.44488
5.45196
5.46596
5.49156
5.53638
5.61189
5.73529
5.93377
6.25363
6.78502
7.73435
9.58577
13.1999
23.6474
23.3533
13.2867
9.63684
7.74338
6.79442
6.26239
5.94116
5.74163
5.61756
5.54175
5.49678
5.47108
5.45705
5.45008
5.44713
5.44714
5.45011
5.45711
5.47102
5.49677
5.54176
5.61755
5.74151
5.94094
6.26208
6.79399
7.7426
9.63598
13.2885
23.3521
23.243
13.5154
9.69797
7.74592
6.79966
6.2691
5.9479
5.74799
5.62363
5.54765
5.5025
5.47686
5.46274
5.45561
5.45258
5.45259
5.45565
5.46279
5.47685
5.50259
5.5477
5.62359
5.74786
5.94766
6.26876
6.79902
7.74442
9.69642
13.52
23.2334
23.3022
13.8121
9.72341
7.7489
6.80463
6.27539
5.95464
5.75478
5.63033
5.55419
5.50894
5.4831
5.46912
5.46198
5.45929
5.4593
5.46201
5.46915
5.48328
5.509
5.55419
5.63024
5.75464
5.95442
6.275
6.80386
7.74714
9.7216
13.8288
23.2958
23.5265
14.186
9.70374
7.74965
6.81001
6.28204
5.96188
5.76227
5.63784
5.56169
5.5165
5.49068
5.47669
5.46975
5.46688
5.46688
5.46973
5.47671
5.49067
5.51651
5.56165
5.6378
5.76216
5.96169
6.28167
6.80935
7.74874
9.70232
14.2052
23.5366
23.8743
14.5973
9.68024
7.74844
6.81533
6.28941
5.97009
5.77084
5.6466
5.57052
5.52536
5.49958
5.48547
5.47837
5.47522
5.47521
5.47834
5.48547
5.4995
5.52537
5.57048
5.64652
5.77073
5.9699
6.28908
6.81482
7.74791
9.67938
14.603
23.9053
24.3252
14.6576
9.66655
7.74473
6.82038
6.29776
5.97962
5.7808
5.65672
5.58063
5.53541
5.50948
5.49539
5.48815
5.48541
5.48541
5.48821
5.4954
5.50956
5.53537
5.5806
5.65664
5.78071
5.97945
6.29746
6.82
7.74455
9.66525
14.656
24.3427
25.2528
14.6803
9.65156
7.7453
6.82727
6.30749
5.9905
5.79206
5.66801
5.59195
5.54663
5.52073
5.50664
5.49958
5.4968
5.49679
5.4996
5.50666
5.52078
5.54664
5.59195
5.66803
5.79199
5.99035
6.30723
6.82693
7.74501
9.6502
14.675
25.2431
26.5729
14.7725
9.65349
7.75061
6.83721
6.31892
6.0024
5.80413
5.6801
5.60402
5.55866
5.53272
5.51856
5.51147
5.50823
5.50821
5.51137
5.51859
5.53274
5.5587
5.60403
5.68008
5.80403
6.00225
6.31869
6.83689
7.75021
9.65208
14.7631
26.5515
27.4072
14.8869
9.66984
7.76339
6.85062
6.33214
6.01531
5.81678
5.6926
5.61633
5.5709
5.54476
5.53053
5.52319
5.5203
5.5203
5.52324
5.53057
5.54483
5.57089
5.61631
5.69252
5.81668
6.01515
6.33194
6.85034
7.76292
9.66837
14.8791
27.397
27.5077
14.9553
9.70791
7.7882
6.86851
6.34738
6.02953
5.83037
5.70578
5.62929
5.58375
5.55762
5.54329
5.53608
5.53331
5.53332
5.53615
5.5433
5.55755
5.58372
5.62925
5.70573
5.83029
6.0294
6.34722
6.86828
7.78775
9.70658
14.9515
27.5084
27.3243
14.9443
9.74577
7.82269
6.89213
6.36602
6.04601
5.84585
5.72081
5.64412
5.59849
5.57242
5.55813
5.55099
5.54788
5.54787
5.55094
5.55812
5.57238
5.59846
5.64408
5.72077
5.84578
6.04594
6.36591
6.89195
7.82228
9.74489
14.9419
27.3264
26.9135
14.8913
9.77991
7.86538
6.92248
6.38978
6.06658
5.86505
5.73947
5.66263
5.61694
5.59077
5.57654
5.56934
5.56636
5.56636
5.56932
5.57655
5.59081
5.61693
5.66259
5.7394
5.86497
6.06649
6.38968
6.92232
7.86506
9.77962
14.8907
26.917
26.4991
14.7527
9.78879
7.90742
6.95768
6.41864
6.09212
5.88918
5.763
5.68588
5.64011
5.61399
5.59985
5.59262
5.58962
5.58962
5.59263
5.59983
5.61398
5.64012
5.68584
5.76293
5.8891
6.09203
6.41855
6.95754
7.90723
9.78891
14.7541
26.5021
26.4063
14.5647
9.78178
7.94118
6.99465
6.4518
6.12242
5.91789
5.79099
5.71374
5.66804
5.64192
5.62759
5.62034
5.61738
5.61736
5.62029
5.62754
5.64186
5.66794
5.71365
5.79093
5.91785
6.12239
6.45173
6.99454
7.94108
9.78187
14.5656
26.408
26.4967
14.4059
9.76885
7.96395
7.02819
6.48536
6.1544
5.94883
5.82156
5.744
5.69807
5.6719
5.65778
5.65109
5.64864
5.64863
5.65103
5.6577
5.67179
5.69794
5.74394
5.82151
5.9488
6.15437
6.48531
7.02811
7.96387
9.76867
14.406
26.498
26.8058
14.2866
9.76206
7.98284
7.05926
6.51922
6.18811
5.98185
5.85385
5.77578
5.72972
5.70385
5.69034
5.68397
5.68152
5.68147
5.68395
5.69029
5.70379
5.72969
5.77577
5.85385
5.98183
6.18805
6.51916
7.05919
7.98272
9.76175
14.286
26.8065
27.2808
14.2753
9.76348
7.99588
7.08476
6.5495
6.21946
6.01295
5.8847
5.80705
5.76138
5.73561
5.72136
5.71345
5.70964
5.70963
5.71344
5.72135
5.73561
5.76137
5.80701
5.88468
6.01291
6.21941
6.54944
7.08468
7.99572
9.76313
14.2748
27.2793
27.7455
14.2999
9.78352
8.01657
7.11381
6.58226
6.25334
6.04747
5.9197
5.8419
5.79541
5.76753
5.75065
5.74022
5.73492
5.73499
5.74023
5.75065
5.76753
5.79539
5.84185
5.91964
6.04741
6.25329
6.58219
7.11372
8.01641
9.78329
14.2996
27.744
28.1616
14.3949
9.84567
8.04991
7.14732
6.6183
6.29088
6.08564
5.9574
5.87766
5.82853
5.79809
5.77918
5.7677
5.76211
5.76209
5.76772
5.77919
5.79809
5.82854
5.87764
5.95735
6.08557
6.29081
6.61822
7.14724
8.04981
9.84593
14.3951
28.1591
28.4383
14.4536
9.90846
8.08887
7.18304
6.65549
6.32912
6.12283
5.99218
5.91001
5.85896
5.8279
5.80953
5.79953
5.79535
5.79534
5.79953
5.80952
5.82789
5.85895
5.90999
5.99213
6.12277
6.32905
6.65542
7.18299
8.08883
9.90857
14.454
28.4369
28.9062
14.5593
9.9555
8.15355
7.24062
6.70875
6.37919
6.16997
6.03705
5.95413
5.90403
5.87547
5.86071
5.85463
5.85307
5.8531
5.85461
5.86068
5.87544
5.90398
5.95407
6.03699
6.1699
6.37912
6.7087
7.24057
8.15347
9.95526
14.5597
28.9067
29.3041
14.6854
10.0309
8.22462
7.30187
6.76435
6.43187
6.22229
6.09136
6.01242
5.96757
5.94466
5.9352
5.93323
5.9337
5.93368
5.93322
5.93516
5.9446
5.96749
6.01233
6.09128
6.22221
6.4318
6.7643
7.30183
8.22461
10.0309
14.6862
29.3059
29.3083
14.7204
10.0906
8.27727
7.35172
6.81637
6.48815
6.28433
6.16066
6.08886
6.04941
6.02966
6.02093
6.01787
6.01711
6.01709
6.01783
6.02087
6.02959
6.04932
6.08876
6.16055
6.28423
6.48807
6.81633
7.35172
8.27742
10.091
14.7213
29.3096
29.2638
14.7973
10.1588
8.36198
7.4314
6.89903
6.57656
6.37807
6.25668
6.18373
6.14167
6.11837
6.10626
6.10026
6.09805
6.09801
6.10015
6.10611
6.1182
6.14149
6.18356
6.25653
6.37795
6.57648
6.899
7.43145
8.36225
10.1593
14.7983
29.2649
29.0633
15.066
10.314
8.5027
7.56512
7.02484
6.69862
6.49857
6.37538
6.30087
6.25743
6.23346
6.22119
6.2158
6.21392
6.21388
6.21566
6.22094
6.23317
6.25714
6.3006
6.37514
6.49839
6.69849
7.02477
7.56515
8.50286
10.3145
15.067
29.064
28.3527
15.1911
10.4829
8.65062
7.71527
7.17604
6.85522
6.6631
6.55002
6.48571
6.45061
6.43287
6.42466
6.42159
6.42069
6.42067
6.4215
6.42446
6.4326
6.4503
6.48541
6.54976
6.66288
6.85505
7.17592
7.71522
8.65061
10.4831
15.1916
28.3526
28.1033
14.8877
10.4784
8.75766
7.8696
7.37201
7.08928
6.93053
6.84518
6.80255
6.7841
6.77834
6.77842
6.78028
6.78174
6.78165
6.7801
6.77819
6.77808
6.78383
6.80234
6.84505
6.93044
7.08922
7.37197
7.86956
8.75761
10.4785
14.8881
28.1031
28.9705
13.901
10.3549
8.90824
8.15118
7.75017
7.54632
7.45291
7.41998
7.41888
7.43221
7.44992
7.46602
7.47778
7.48378
7.48346
7.47688
7.46481
7.44898
7.43177
7.41887
7.42023
7.45324
7.54662
7.75043
8.15139
8.90836
10.355
13.9012
28.9706
31.3467
13.6268
10.5235
9.40568
8.87944
8.65355
8.58886
8.60626
8.66169
8.73105
8.79999
8.85875
8.90316
8.93201
8.94609
8.94518
8.92911
8.89908
8.85548
8.79855
8.73125
8.66276
8.60756
8.59015
8.6549
8.88073
9.40673
10.5243
13.6275
31.3475
36.3394
14.5445
11.8601
11.1534
10.9372
10.9459
11.061
11.2169
11.3812
11.5404
11.6913
11.8105
11.8968
11.9455
11.9692
11.9669
11.9367
11.8814
11.8008
11.686
11.5406
11.3843
11.2207
11.0657
10.9515
10.943
11.1584
11.8633
14.5467
36.3417
50.7218
19.9401
16.9168
16.2986
16.1819
16.3173
16.5263
16.7514
16.9667
17.1596
17.3178
17.4437
17.5426
17.6053
17.6271
17.6205
17.5893
17.5293
17.4282
17.3106
17.1648
16.9761
16.7631
16.542
16.3371
16.2037
16.3181
16.9289
19.9494
50.7446
90.3271
36.3161
29.7504
27.8939
26.939
26.4069
26.1338
26.0185
25.9582
25.9476
25.9801
25.9923
26.1229
26.1011
26.0653
26.0486
26.0388
26.0405
26.0051
25.928
25.9528
25.972
26.0464
26.217
26.4902
27.0295
27.9651
29.7855
36.3095
90.3303
95.5722
45.96
38.9204
36.8408
35.622
34.7412
34.1318
33.6621
33.3425
33.1539
33.043
32.9841
32.8589
32.7988
32.7267
32.7056
32.7136
32.7785
32.8791
32.9965
33.0964
33.3029
33.6439
34.1849
34.8967
35.8222
37.0222
39.0526
45.9566
95.4937
90.2827
48.7516
41.6195
39.754
38.6278
37.687
36.9677
36.3955
36.0218
35.8238
35.6588
35.5647
35.4423
35.3362
35.2502
35.2184
35.2373
35.3175
35.447
35.5794
35.7282
35.961
36.3093
36.9233
37.8043
38.733
39.9379
41.7569
48.8774
90.1256
76.1631
47.8216
41.0376
39.2174
38.2368
37.4223
36.7634
36.2837
35.9645
35.7765
35.663
35.5825
35.4874
35.3891
35.3104
35.2808
35.2991
35.3728
35.4857
35.6055
35.7399
35.9268
36.2103
36.7045
37.389
38.2448
39.2999
41.1437
47.9229
75.8595
66.8018
44.6877
39.2824
37.6088
36.8427
36.2907
35.8058
35.4472
35.1925
35.0149
34.9147
34.8228
34.7309
34.6496
34.5934
34.5755
34.599
34.6675
34.7753
34.9067
35.0418
35.1931
35.3996
35.7429
36.2363
36.852
37.6518
39.3396
44.7697
66.4156
60.4982
41.5295
37.2837
35.9299
35.3432
34.949
34.5846
34.2859
34.0723
33.9112
33.799
33.6952
33.5926
33.5128
33.4702
33.4654
33.4971
33.5742
33.6991
33.8455
33.9722
34.0895
34.2352
34.4835
34.8743
35.3242
35.939
37.2967
41.5598
60.098
56.6291
38.9095
35.2994
34.1609
33.7062
33.4307
33.1643
32.9163
32.7159
32.5537
32.4213
32.3034
32.2027
32.1292
32.0975
32.1024
32.1391
32.2188
32.3439
32.4846
32.6071
32.7158
32.8451
33.0436
33.3236
33.6421
34.1269
35.2685
38.865
56.3831
54.5549
36.5814
33.2212
32.2344
31.9061
31.7431
31.5671
31.3608
31.1619
30.9858
30.8333
30.6986
30.5912
30.5223
30.4962
30.5056
30.5446
30.6238
30.7483
30.891
31.0146
31.1249
31.2522
31.4139
31.5992
31.8016
32.1652
33.1624
36.5276
54.4842
53.8466
34.462
31.0335
30.1618
29.9487
29.8954
29.8066
29.6338
29.4319
29.24
29.0709
28.9191
28.8015
28.7284
28.6977
28.7068
28.7494
28.8324
28.9636
29.1094
29.2357
29.3518
29.4817
29.6171
29.7213
29.8159
30.073
30.9686
34.3974
53.8076
53.158
32.2525
28.8057
28.0024
27.8797
27.9188
27.9021
27.7547
27.5515
27.3495
27.1678
26.999
26.8679
26.7834
26.7411
26.7457
26.793
26.8864
27.0247
27.1751
27.3073
27.4282
27.5642
27.6876
27.7305
27.7357
27.9043
28.7434
32.2188
53.1334
52.4008
30.0409
26.5937
25.8297
25.7632
25.8662
25.894
25.7577
25.5585
25.3529
25.1606
24.9777
24.8335
24.7352
24.6809
24.6787
24.7287
24.8325
24.9772
25.1279
25.2648
25.3902
25.5357
25.6673
25.6839
25.6297
25.7372
26.5368
30.0029
52.3693
51.9603
27.9863
24.4757
23.7103
23.6625
23.792
23.8345
23.6998
23.509
23.3018
23.0985
22.9081
22.7558
22.6432
22.5804
22.5727
22.6243
22.7326
22.876
23.0232
23.1624
23.2965
23.4489
23.6028
23.632
23.5622
23.6447
24.4331
27.956
51.9061
51.6156
26.16
22.4999
21.6942
21.6261
21.7454
21.7797
21.651
21.4691
21.261
21.0487
20.8553
20.6938
20.5723
20.5051
20.4978
20.5508
20.6586
20.7945
20.9373
21.08
21.2211
21.3763
21.5485
21.6146
21.5719
21.6702
22.4875
26.1441
51.562
50.9281
24.4781
20.6787
19.807
19.6897
19.7684
19.798
19.6864
19.5114
19.2998
19.0764
18.8735
18.7055
18.5828
18.5166
18.5124
18.5662
18.6697
18.8026
18.9451
19.0946
19.2469
19.4026
19.5808
19.6697
19.6763
19.8227
20.6972
24.4846
50.9522
49.3257
22.9226
19.0396
18.0745
17.8817
17.9011
17.9299
17.8707
17.6937
17.4715
17.2285
17.0107
16.8452
16.7289
16.6645
16.6611
16.7128
16.8119
16.9457
17.0996
17.2658
17.4375
17.6014
17.7701
17.8459
17.8923
18.1125
19.0817
22.9631
49.5322
46.5453
21.3445
17.5804
16.5365
16.2351
16.1751
16.1819
16.1614
16.0496
15.816
15.5496
15.3279
15.1644
15.052
14.9892
14.9816
15.0304
15.1257
15.2588
15.4342
15.6245
15.8192
16.0025
16.1103
16.1605
16.2539
16.5766
17.6325
21.4168
46.8927
42.8281
19.7276
16.2034
15.1268
14.7367
14.6084
14.5815
14.5719
14.5204
14.3677
14.0911
13.8572
13.6875
13.5794
13.5146
13.5018
13.5459
13.6416
13.7788
13.9669
14.1874
14.3904
14.5067
14.5638
14.6171
14.7605
15.1626
16.2561
19.8158
43.2023
38.6434
18.1903
14.9528
13.8666
13.4133