/*--------------------------------*- C++ -*----------------------------------*\
| =========                 |                                                 |
| \\      /  F ield         | OpenFOAM: The Open Source CFD Toolbox           |
|  \\    /   O peration     | Version:  2.3.0                                 |
|   \\  /    A nd           | Web:      www.OpenFOAM.org                      |
|    \\/     M anipulation  |                                                 |
\*---------------------------------------------------------------------------*/
FoamFile
{
    version     2.0;
    format      ascii;
    class       volScalarField;
    location    "0.03";
    object      k.air;
}
// * * * * * * * * * * * * * * * * * * * * * * * * * * * * * * * * * * * * * //

dimensions      [0 2 -2 0 0 0 0];

internalField   nonuniform List<scalar> 
6000
(
0.833123
0.910363
0.928725
0.941604
0.9505
0.956285
0.959857
0.961667
0.962211
0.962012
0.961459
0.960815
0.960237
0.959814
0.959592
0.959591
0.959816
0.960242
0.960823
0.961469
0.962024
0.962226
0.961682
0.95987
0.956293
0.950499
0.941594
0.928714
0.91036
0.833124
0.541394
0.793126
0.873036
0.912637
0.937376
0.953562
0.963898
0.969941
0.973012
0.974238
0.974435
0.974152
0.973723
0.973352
0.973144
0.973145
0.973355
0.97373
0.974161
0.974446
0.97425
0.973025
0.969951
0.963902
0.953553
0.93735
0.912599
0.873003
0.793122
0.541403
0.393438
0.666061
0.77946
0.838791
0.875888
0.90009
0.915027
0.923766
0.928538
0.930831
0.931679
0.931778
0.931567
0.93131
0.931152
0.931153
0.931314
0.931574
0.931785
0.931687
0.930839
0.928545
0.923769
0.915021
0.900068
0.875849
0.838744
0.779429
0.666071
0.393458
0.315204
0.575844
0.703146
0.77252
0.81573
0.844369
0.863132
0.874908
0.881849
0.885601
0.887386
0.888061
0.888189
0.888116
0.888039
0.888041
0.888121
0.888195
0.888067
0.887392
0.885606
0.881852
0.874906
0.863123
0.844348
0.815696
0.772475
0.7031
0.575835
0.31523
0.272455
0.517494
0.648289
0.722699
0.769212
0.800016
0.820759
0.834468
0.84312
0.848229
0.850998
0.852339
0.852888
0.853058
0.85309
0.853092
0.853062
0.852892
0.852343
0.851001
0.84823
0.843119
0.834465
0.820755
0.800008
0.769196
0.722666
0.648227
0.51742
0.27246
0.248342
0.48
0.608857
0.685112
0.733581
0.765713
0.787465
0.802156
0.811822
0.817888
0.82146
0.823408
0.824375
0.824801
0.824952
0.824953
0.824803
0.824377
0.823409
0.82146
0.817886
0.81182
0.802154
0.787465
0.765716
0.733585
0.685102
0.608798
0.479856
0.2483
0.234594
0.456045
0.581022
0.656976
0.706193
0.739135
0.761545
0.776811
0.787053
0.793704
0.797822
0.800225
0.80153
0.802174
0.802432
0.802432
0.802175
0.80153
0.800224
0.797821
0.793701
0.78705
0.776808
0.761547
0.739143
0.706211
0.656997
0.580999
0.455888
0.234514
0.227028
0.441117
0.561958
0.636464
0.68549
0.718711
0.741489
0.757101
0.767676
0.774665
0.779116
0.781818
0.78336
0.784167
0.784506
0.784506
0.784167
0.783361
0.781817
0.779115
0.774662
0.767672
0.757097
0.741489
0.718719
0.685513
0.636509
0.561994
0.441033
0.226944
0.223183
0.432216
0.549341
0.62197
0.670254
0.703317
0.726174
0.741936
0.752678
0.759843
0.764476
0.767351
0.769041
0.769953
0.770347
0.770347
0.769954
0.769042
0.767351
0.764475
0.759841
0.752674
0.741932
0.72617
0.703318
0.670269
0.62202
0.549429
0.432245
0.223145
0.221605
0.427244
0.541274
0.61204
0.659364
0.692
0.714709
0.730453
0.741228
0.748452
0.75316
0.756117
0.757885
0.758856
0.759281
0.759282
0.758858
0.757887
0.75612
0.753162
0.748452
0.741226
0.730449
0.714702
0.691992
0.659365
0.612075
0.541381
0.427395
0.22163
0.221311
0.424674
0.536275
0.605417
0.651773
0.683861
0.706287
0.721892
0.732603
0.739804
0.744514
0.74749
0.749283
0.750278
0.750718
0.750719
0.750282
0.749289
0.747497
0.744521
0.739809
0.732606
0.72189
0.706279
0.683848
0.651758
0.605426
0.536369
0.424883
0.221374
0.221462
0.423451
0.533267
0.601105
0.646578
0.678103
0.700178
0.715559
0.726152
0.733283
0.737953
0.740908
0.742695
0.74369
0.744132
0.744134
0.743696
0.742704
0.74092
0.737965
0.733296
0.726162
0.715565
0.700177
0.678089
0.646554
0.601085
0.53332
0.423665
0.221541
0.222036
0.422958
0.531533
0.598373
0.643088
0.674075
0.695766
0.710909
0.721341
0.728369
0.732973
0.735888
0.73765
0.738632
0.739069
0.739072
0.738641
0.737663
0.735904
0.732992
0.728388
0.721358
0.710923
0.695772
0.674065
0.643055
0.598323
0.531534
0.423149
0.222138
0.222856
0.422882
0.530629
0.596705
0.640775
0.671279
0.692639
0.707544
0.717779
0.724673
0.72919
0.732047
0.733772
0.734733
0.735161
0.735164
0.734744
0.733788
0.732068
0.729213
0.724696
0.717803
0.707562
0.69265
0.671274
0.640739
0.596625
0.530554
0.422992
0.222956
0.223673
0.422989
0.530275
0.595732
0.639245
0.669333
0.690403
0.705086
0.715158
0.721924
0.726341
0.729122
0.730797
0.73173
0.732145
0.732149
0.731742
0.730816
0.729146
0.726366
0.721949
0.715181
0.705106
0.690417
0.669338
0.63922
0.595634
0.530101
0.422996
0.223762
0.224522
0.423328
0.5303
0.595185
0.638215
0.667951
0.688765
0.703259
0.713195
0.719848
0.724175
0.726895
0.728527
0.729433
0.729835
0.729839
0.729445
0.728546
0.726917
0.724198
0.719869
0.713213
0.703276
0.688781
0.667966
0.638214
0.595103
0.530038
0.42309
0.22455
0.225447
0.42393
0.53047
0.594859
0.637491
0.666936
0.687532
0.701864
0.711678
0.718239
0.722497
0.725167
0.726764
0.727647
0.728037
0.72804
0.727657
0.72678
0.725185
0.722514
0.718254
0.711689
0.701873
0.687543
0.666956
0.637522
0.594849
0.530208
0.423354
0.225334
0.226466
0.424655
0.530702
0.594644
0.636962
0.666167
0.686577
0.700768
0.710473
0.716954
0.721153
0.72378
0.725348
0.726211
0.726591
0.726595
0.72622
0.72536
0.723794
0.721166
0.716963
0.710478
0.70077
0.686581
0.666185
0.637015
0.594737
0.5306
0.423911
0.226162
0.2275
0.425245
0.530839
0.594494
0.636566
0.665563
0.685812
0.699878
0.709489
0.715899
0.720047
0.722637
0.724179
0.725026
0.725398
0.725401
0.725033
0.724188
0.722647
0.720056
0.715905
0.709491
0.699877
0.685811
0.665573
0.636618
0.594663
0.531049
0.424775
0.227126
0.228411
0.425484
0.530926
0.594432
0.636271
0.665067
0.685169
0.699127
0.708657
0.715006
0.71911
0.721668
0.723189
0.724023
0.724388
0.72439
0.724028
0.723197
0.721677
0.719119
0.715013
0.708661
0.699129
0.685169
0.665068
0.636295
0.594579
0.531362
0.425708
0.228225
0.229154
0.425463
0.5311
0.594486
0.636046
0.664635
0.684602
0.698466
0.707927
0.714226
0.718294
0.720827
0.72233
0.723153
0.723513
0.723515
0.723157
0.722336
0.720835
0.718304
0.714237
0.707938
0.698476
0.68461
0.664636
0.636035
0.594522
0.531506
0.426294
0.229282
0.229757
0.425476
0.531483
0.59463
0.635855
0.664237
0.684081
0.697865
0.70727
0.713529
0.717567
0.720078
0.721568
0.722382
0.722738
0.722739
0.722386
0.721573
0.720087
0.717578
0.713542
0.707287
0.697886
0.684103
0.66425
0.635833
0.594562
0.531645
0.426399
0.230126
0.23035
0.425774
0.532174
0.594832
0.635665
0.663857
0.683596
0.697312
0.70667
0.712895
0.716909
0.719403
0.720881
0.721688
0.722041
0.722042
0.721691
0.720885
0.71941
0.716918
0.712908
0.706689
0.697338
0.683628
0.663888
0.635666
0.594698
0.531964
0.426379
0.230767
0.2311
0.426665
0.533017
0.594972
0.635457
0.663492
0.683143
0.696802
0.706119
0.712314
0.716308
0.718788
0.720256
0.721058
0.721407
0.721408
0.721059
0.720258
0.718792
0.716314
0.712325
0.706135
0.696825
0.683177
0.663537
0.635505
0.594923
0.532602
0.426568
0.231339
0.232162
0.428204
0.533754
0.59501
0.635239
0.663148
0.682723
0.696331
0.705613
0.711783
0.715758
0.718226
0.719687
0.720483
0.72083
0.72083
0.720483
0.719686
0.718227
0.715761
0.711788
0.705622
0.696347
0.68275
0.663196
0.635321
0.595107
0.53346
0.427273
0.232016
0.233401
0.429686
0.5342
0.594995
0.635034
0.662829
0.682333
0.695896
0.705147
0.711295
0.715256
0.717714
0.719168
0.719961
0.720306
0.720305
0.719959
0.719166
0.717712
0.715255
0.711296
0.70515
0.695904
0.682351
0.662867
0.635119
0.595189
0.53429
0.428718
0.232984
0.234537
0.430597
0.53444
0.595004
0.634856
0.662531
0.681967
0.69549
0.704716
0.710848
0.714798
0.717249
0.718698
0.719488
0.719831
0.719831
0.719485
0.718695
0.717245
0.714795
0.710847
0.704717
0.695495
0.681979
0.662556
0.634918
0.595199
0.534873
0.430276
0.234158
0.235409
0.430965
0.534713
0.595074
0.6347
0.662244
0.681616
0.695106
0.704314
0.710436
0.714379
0.716826
0.718273
0.719061
0.719404
0.719403
0.719059
0.71827
0.716823
0.714377
0.710436
0.704318
0.695114
0.68163
0.662265
0.634734
0.595204
0.535244
0.431471
0.235305
0.236091
0.431231
0.535184
0.595208
0.634545
0.66196
0.681276
0.694741
0.703938
0.710055
0.713997
0.716443
0.717889
0.718678
0.71902
0.71902
0.718675
0.717887
0.716442
0.713998
0.71006
0.703948
0.694757
0.681298
0.661985
0.634566
0.595242
0.535581
0.43226
0.236286
0.236749
0.431834
0.535865
0.595333
0.634373
0.661674
0.680944
0.694391
0.703584
0.709702
0.713647
0.716095
0.717543
0.718332
0.718675
0.718675
0.71833
0.717542
0.716096
0.713651
0.709713
0.703602
0.694418
0.680977
0.66171
0.634399
0.595308
0.535993
0.432915
0.237143
0.237566
0.433006
0.536596
0.595382
0.634176
0.661384
0.680618
0.694055
0.703248
0.709372
0.713322
0.715775
0.717226
0.718017
0.718362
0.718361
0.718016
0.717226
0.715778
0.713329
0.709387
0.703273
0.694089
0.680661
0.661431
0.634216
0.595354
0.536457
0.433666
0.237984
0.238622
0.434569
0.537167
0.595362
0.633961
0.661092
0.680295
0.693725
0.702922
0.709053
0.713011
0.715471
0.716927
0.717722
0.718067
0.718067
0.717721
0.716929
0.715476
0.713022
0.709073
0.702952
0.693764
0.680342
0.661143
0.63401
0.595355
0.536888
0.434537
0.238875
0.239825
0.436044
0.537488
0.595286
0.633737
0.660794
0.679969
0.693393
0.702594
0.708733
0.7127
0.715168
0.71663
0.717428
0.717776
0.717776
0.717429
0.716634
0.715176
0.712715
0.708756
0.702626
0.693433
0.680015
0.660842
0.633784
0.595314
0.537238
0.435411
0.239804
0.240981
0.43703
0.537645
0.595214
0.633511
0.660487
0.67963
0.693045
0.702249
0.708396
0.712371
0.714847
0.716315
0.717117
0.717468
0.717469
0.717121
0.716322
0.714859
0.71239
0.708421
0.702281
0.693083
0.67967
0.660525
0.633544
0.595256
0.537535
0.436193
0.240728
0.241942
0.437484
0.537791
0.595182
0.633287
0.660169
0.679273
0.692674
0.701875
0.708027
0.712009
0.714492
0.715965
0.716772
0.717125
0.717127
0.716778
0.715976
0.714508
0.712032
0.708055
0.701908
0.692708
0.679305
0.660193
0.633298
0.595211
0.537835
0.436874
0.241618
0.242691
0.437625
0.538048
0.595204
0.633067
0.659841
0.678897
0.692276
0.701469
0.707621
0.711607
0.714094
0.715573
0.716383
0.716738
0.716741
0.716391
0.715587
0.714114
0.711632
0.70765
0.7015
0.692304
0.678919
0.65985
0.633056
0.595196
0.538189
0.437497
0.242465
0.243311
0.437803
0.538498
0.595261
0.63285
0.659506
0.678506
0.691856
0.701036
0.707182
0.711169
0.713659
0.71514
0.715953
0.71631
0.716314
0.715963
0.715156
0.71368
0.711194
0.70721
0.701063
0.691879
0.67852
0.659505
0.632825
0.595221
0.538638
0.438134
0.243271
0.243896
0.438289
0.539172
0.595352
0.632641
0.659173
0.67811
0.691425
0.700586
0.706723
0.710707
0.713198
0.714681
0.715495
0.715853
0.715857
0.715505
0.714696
0.713217
0.71073
0.706747
0.700608
0.691441
0.678117
0.659166
0.63261
0.595279
0.539208
0.438878
0.244046
0.244566
0.439349
0.540012
0.59545
0.632445
0.658851
0.677719
0.690994
0.700133
0.706258
0.710237
0.712726
0.714209
0.715024
0.715383
0.715385
0.715032
0.714221
0.712742
0.710255
0.706276
0.700148
0.691004
0.677719
0.658839
0.632414
0.595369
0.539894
0.439831
0.244824
0.245432
0.440986
0.540886
0.595544
0.632268
0.658547
0.677342
0.690574
0.699687
0.705798
0.70977
0.712255
0.713738
0.714553
0.714911
0.714913
0.714559
0.713747
0.712267
0.709782
0.705809
0.699695
0.690575
0.677335
0.658527
0.632235
0.595474
0.540657
0.441056
0.245648
0.24651
0.44294
0.541657
0.595634
0.632112
0.658261
0.676983
0.690169
0.699255
0.705351
0.709314
0.711795
0.713276
0.71409
0.714447
0.714449
0.714093
0.713281
0.711801
0.70932
0.705355
0.699255
0.690163
0.676967
0.658235
0.632073
0.595581
0.54143
0.442532
0.246554
0.247682
0.444765
0.542281
0.59573
0.631972
0.657995
0.676643
0.689784
0.698842
0.704921
0.708874
0.711351
0.712829
0.713642
0.713998
0.713999
0.713643
0.71283
0.711352
0.708874
0.704918
0.698835
0.68977
0.67662
0.657962
0.631929
0.59569
0.542157
0.444139
0.24754
0.248781
0.446176
0.542816
0.59584
0.631847
0.657745
0.676321
0.689419
0.698449
0.704511
0.708454
0.710924
0.712399
0.713211
0.713567
0.713567
0.713211
0.712399
0.710922
0.708449
0.704502
0.698435
0.689398
0.676293
0.657708
0.631802
0.595806
0.542822
0.445718
0.248564
0.249726
0.447236
0.54336
0.595973
0.631735
0.65751
0.676017
0.689072
0.698075
0.70412
0.708053
0.710518
0.71199
0.7128
0.713155
0.713155
0.712799
0.711988
0.710514
0.708046
0.704109
0.698059
0.689049
0.675987
0.657473
0.631691
0.595934
0.543443
0.447164
0.249576
0.250564
0.448215
0.543987
0.596137
0.631641
0.657291
0.675731
0.688744
0.697722
0.70375
0.707673
0.710133
0.711602
0.71241
0.712765
0.712764
0.712409
0.711599
0.710128
0.707665
0.703738
0.697704
0.688721
0.6757
0.657255
0.631595
0.59608
0.544055
0.448459
0.250543
0.251395
0.449334
0.544708
0.596331
0.631564
0.65709
0.675462
0.688435
0.697387
0.7034
0.707314
0.709768
0.711234
0.712041
0.712395
0.712394
0.71204
0.711231
0.709764
0.707307
0.70339
0.697372
0.688414
0.675434
0.657054
0.631513
0.596244
0.544689
0.449651
0.251457
0.252268
0.450589
0.545481
0.596542
0.631501
0.656904
0.67521
0.688143
0.697071
0.703069
0.706975
0.709424
0.710887
0.711693
0.712046
0.712045
0.711691
0.710885
0.709421
0.706971
0.703063
0.69706
0.688127
0.675186
0.65687
0.631447
0.596431
0.545368
0.450811
0.252328
0.253124
0.451788
0.54627
0.596748
0.631439
0.656729
0.674972
0.687867
0.696772
0.702758
0.706655
0.7091
0.710561
0.711365
0.711717
0.711717
0.711364
0.710559
0.709099
0.706654
0.702756
0.696769
0.687859
0.674956
0.656704
0.631398
0.596644
0.546111
0.452011
0.253174
0.253853
0.452833
0.547096
0.596927
0.631369
0.656559
0.674745
0.687606
0.696491
0.702465
0.706356
0.708797
0.710256
0.711058
0.71141
0.711409
0.711057
0.710254
0.708797
0.706357
0.702468
0.696495
0.687608
0.674743
0.656553
0.631363
0.59688
0.546925
0.453282
0.254014
0.254431
0.453937
0.548042
0.597077
0.631298
0.656398
0.674532
0.687361
0.696228
0.702192
0.706078
0.708516
0.709973
0.710774
0.711124
0.711123
0.710771
0.70997
0.708515
0.70608
0.702198
0.696238
0.687373
0.674544
0.656415
0.631334
0.597117
0.547797
0.454565
0.254832
0.254966
0.455526
0.549162
0.597247
0.631249
0.656256
0.674336
0.687135
0.695985
0.701941
0.705822
0.708258
0.709712
0.710512
0.710862
0.710861
0.710509
0.709708
0.708255
0.705823
0.701947
0.695997
0.687152
0.674357
0.656283
0.631297
0.597311
0.548718
0.455788
0.25556
0.255708
0.458143
0.550165
0.597425
0.631242
0.656143
0.674165
0.686932
0.695766
0.701714
0.705591
0.708024
0.709477
0.710275
0.710625
0.710623
0.710271
0.70947
0.708017
0.705587
0.701715
0.695774
0.686947
0.674183
0.656161
0.631259
0.597491
0.549833
0.457009
0.256148
0.256964
0.461713
0.551011
0.597627
0.631266
0.656063
0.674023
0.686758
0.695575
0.701514
0.705386
0.707816
0.709268
0.710065
0.710414
0.710411
0.710059
0.709258
0.707805
0.705376
0.701507
0.695573
0.686761
0.674028
0.656059
0.631253
0.597676
0.550914
0.458599
0.25664
0.258623
0.465243
0.551795
0.597882
0.631316
0.656009
0.673911
0.686614
0.695414
0.701343
0.70521
0.707637
0.709087
0.709883
0.71023
0.710227
0.709874
0.709073
0.70762
0.705191
0.701325
0.695398
0.686601
0.673899
0.655989
0.631277
0.597831
0.55173
0.461258
0.257271
0.260192
0.467623
0.552321
0.598137
0.631383
0.655979
0.673829
0.686502
0.695285
0.701204
0.705066
0.707489
0.708936
0.709731
0.710077
0.710074
0.70972
0.708919
0.707466
0.705038
0.701175
0.695255
0.686474
0.673804
0.655953
0.631335
0.59804
0.552608
0.465286
0.258476
0.261364
0.468692
0.552643
0.598344
0.631451
0.65597
0.673776
0.686424
0.695191
0.701101
0.704956
0.707375
0.70882
0.709613
0.709958
0.709954
0.7096
0.708799
0.707348
0.704922
0.701063
0.695152
0.686387
0.673749
0.655959
0.631447
0.598393
0.553518
0.469563
0.26032
0.262181
0.469273
0.552999
0.598549
0.631533
0.655987
0.673758
0.686383
0.695136
0.701037
0.704886
0.707301
0.708742
0.709533
0.709878
0.709873
0.70952
0.708721
0.707271
0.704849
0.700995
0.695093
0.686345
0.673737
0.655994
0.631596
0.598776
0.554157
0.472587
0.26232
0.262949
0.470105
0.55353
0.59881
0.631646
0.656032
0.673776
0.686386
0.695127
0.701019
0.704862
0.707273
0.708712
0.709501
0.709845
0.709841
0.709489
0.708692
0.707246
0.704829
0.700982
0.69509
0.686355
0.673764
0.656063
0.631749
0.599072
0.554441
0.473882
0.263857
0.263854
0.471235
0.554168
0.599123
0.631796
0.656115
0.673825
0.68642
0.695155
0.701043
0.704883
0.707292
0.70873
0.709519
0.709863
0.709859
0.709508
0.708712
0.707268
0.704854
0.701011
0.695125
0.686399
0.673827
0.65616
0.631908
0.599319
0.554621
0.474078
0.264728
0.264758
0.472232
0.554847
0.599451
0.631967
0.656229
0.673912
0.686492
0.695218
0.701101
0.704938
0.707345
0.708782
0.709571
0.709916
0.709913
0.709563
0.708769
0.707329
0.704919
0.701082
0.695203
0.686488
0.673933
0.656293
0.632099
0.599632
0.555043
0.474391
0.265403
0.265451
0.473052
0.555647
0.599739
0.632149
0.656371
0.674031
0.686598
0.695318
0.701198
0.705034
0.707442
0.708879
0.709669
0.710014
0.710012
0.709663
0.708871
0.707432
0.705025
0.701192
0.69532
0.686615
0.674074
0.656461
0.632326
0.600012
0.555815
0.475239
0.266259
0.265936
0.473919
0.557283
0.60018
0.632379
0.656547
0.674182
0.686735
0.695447
0.701324
0.705159
0.707567
0.709005
0.709796
0.710141
0.71014
0.709792
0.709
0.707563
0.705158
0.701329
0.695463
0.686767
0.674241
0.656649
0.632552
0.600376
0.55695
0.475902
0.267135
0.26633
0.475303
0.558506
0.600617
0.632675
0.656768
0.674367
0.6869
0.695601
0.701473
0.705307
0.707714
0.709153
0.709944
0.710291
0.71029
0.709942
0.709151
0.707714
0.705311
0.701485
0.695625
0.686939
0.674426
0.656851
0.632788
0.600761
0.558173
0.475399
0.26744
0.266208
0.477029
0.559167
0.601033
0.633016
0.657033
0.674586
0.687092
0.695779
0.701643
0.705474
0.70788
0.709319
0.710111
0.710457
0.710457
0.71011
0.709319
0.707883
0.705481
0.701659
0.695804
0.687128
0.67463
0.657077
0.633041
0.601011
0.558772
0.475015
0.266692
0.265994
0.478954
0.55977
0.601436
0.633378
0.657333
0.674834
0.687308
0.695977
0.701832
0.705658
0.708062
0.7095
0.710292
0.710639
0.710639
0.710293
0.709502
0.708067
0.705666
0.701846
0.695998
0.687334
0.674859
0.65734
0.633331
0.601242
0.558814
0.47524
0.265229
0.266389
0.48135
0.55985
0.601777
0.633746
0.657656
0.675104
0.687541
0.69619
0.702034
0.705854
0.708257
0.709694
0.710486
0.710833
0.710834
0.710487
0.709697
0.708262
0.705863
0.702046
0.696205
0.687557
0.675113
0.657644
0.633676
0.60155
0.559092
0.477852
0.265445
0.267946
0.486586
0.560312
0.602109
0.63413
0.658001
0.675392
0.687791
0.696417
0.702249
0.706063
0.708463
0.709899
0.710691
0.711038
0.711039
0.710693
0.709903
0.708468
0.706071
0.702258
0.696426
0.687799
0.675394
0.657988
0.634081
0.601966
0.559874
0.484819
0.267241
0.27145
0.493432
0.561595
0.602693
0.63459
0.65838
0.675706
0.688063
0.696664
0.702483
0.706291
0.708688
0.710122
0.710913
0.711261
0.711261
0.710915
0.710126
0.708692
0.706297
0.702489
0.69667
0.688067
0.675708
0.658379
0.634594
0.602733
0.561832
0.493551
0.271319
0.276297
0.500195
0.56419
0.603792
0.635186
0.658811
0.67606
0.688372
0.696949
0.702755
0.706555
0.708947
0.71038
0.71117
0.711517
0.711517
0.711171
0.710382
0.708949
0.706558
0.702757
0.696951
0.688374
0.676063
0.658822
0.63523
0.60397
0.564746
0.500983
0.276499
0.280092
0.504861
0.567222
0.605282
0.635916
0.659305
0.676465
0.688734
0.697287
0.703079
0.706872
0.70926
0.71069
0.711477
0.711822
0.711822
0.711476
0.710689
0.709259
0.706871
0.703079
0.697287
0.688734
0.676467
0.659317
0.635966
0.605458
0.567717
0.50512
0.280112
0.281814
0.505462
0.569425
0.606725
0.636714
0.659857
0.676923
0.689152
0.697684
0.703462
0.707246
0.709628
0.711055
0.71184
0.712184
0.712183
0.711838
0.711052
0.709627
0.707244
0.703459
0.69768
0.689148
0.67692
0.659863
0.636746
0.606815
0.56962
0.505416
0.281511
0.281701
0.50429
0.570633
0.607955
0.637495
0.660424
0.677412
0.689609
0.698124
0.703891
0.707668
0.710043
0.711468
0.712253
0.712599
0.712598
0.712251
0.711466
0.710042
0.707665
0.703887
0.698117
0.689601
0.677403
0.660417
0.637497
0.607969
0.570644
0.504254
0.281523
0.281293
0.501516
0.57055
0.60872
0.638128
0.660957
0.677903
0.69008
0.698583
0.704343
0.708115
0.710491
0.711909
0.712696
0.713037
0.713036
0.712694
0.711909
0.710484
0.708111
0.704338
0.698574
0.690069
0.677888
0.660941
0.638114
0.608701
0.570553
0.501616
0.281182
0.280274
0.496739
0.569743
0.60883
0.638523
0.661423
0.678376
0.690546
0.699041
0.704795
0.708561
0.710934
0.712354
0.713134
0.713475
0.713476
0.713136
0.712356
0.710937
0.708563
0.704791
0.699032
0.690532
0.678358
0.661402
0.638501
0.608806
0.569753
0.497032
0.28023
0.278056
0.490722
0.568702
0.608615
0.638759
0.661846
0.678842
0.691015
0.699505
0.705254
0.709017
0.711377
0.712803
0.713583
0.713936
0.713938
0.713587
0.712807
0.711391
0.709018
0.70525
0.699498
0.691002
0.678823
0.661822
0.638731
0.608578
0.56866
0.490955
0.278126
0.275724
0.489012
0.568849
0.608401
0.639021
0.662308
0.67935
0.691524
0.700004
0.705746
0.709507
0.711874
0.713287
0.714074
0.714412
0.714413
0.714075
0.713291
0.711869
0.709506
0.705746
0.700002
0.691514
0.679334
0.662286
0.638989
0.608343
0.568785
0.489049
0.275718
0.274794
0.491179
0.569995
0.608586
0.639519
0.662907
0.679958
0.692111
0.700573
0.706301
0.710046
0.712415
0.71382
0.714594
0.714927
0.714927
0.714597
0.713824
0.712414
0.710052
0.706305
0.70057
0.692103
0.679944
0.66289
0.639492
0.608532
0.56993
0.491243
0.274717
0.275252
0.497916
0.571934
0.609371
0.640374
0.6637
0.68069
0.692799
0.701227
0.706929
0.710658
0.713007
0.71442
0.715192
0.71555
0.71555
0.715195
0.714421
0.713019
0.710663
0.70693
0.701222
0.692792
0.680683
0.663691
0.640364
0.609348
0.571941
0.498202
0.2752
0.277028
0.509492
0.573227
0.610773
0.641524
0.664674
0.681557
0.693599
0.701982
0.707657
0.711376
0.713717
0.715125
0.71591
0.716252
0.716251
0.715908
0.715126
0.713716
0.711376
0.707655
0.701981
0.693596
0.681554
0.664672
0.641529
0.610806
0.57332
0.510207
0.277112
0.279889
0.520329
0.574332
0.612299
0.642828
0.665797
0.682561
0.694527
0.702864
0.708509
0.712211
0.714544
0.715938
0.716708
0.717028
0.717028
0.716705
0.715938
0.714539
0.712211
0.708508
0.702861
0.694523
0.682557
0.665792
0.64283
0.612333
0.574407
0.520904
0.280136
0.283608
0.52666
0.575066
0.61368
0.644211
0.667053
0.683706
0.69559
0.703873
0.709479
0.713154
0.715466
0.716854
0.717611
0.717961
0.717961
0.717615
0.716855
0.715471
0.713152
0.709479
0.703869
0.695587
0.683699
0.667039
0.644194
0.613672
0.575042
0.526816
0.283749
0.290899
0.532491
0.5762
0.615237
0.645744
0.668442
0.684976
0.696771
0.704988
0.710557
0.714203
0.716504
0.717886
0.718654
0.718998
0.718998
0.718655
0.717888
0.716508
0.714205
0.710558
0.70499
0.696766
0.684964
0.668421
0.645709
0.615188
0.57611
0.532331
0.290823
0.300933
0.539144
0.577924
0.617009
0.647418
0.669935
0.686322
0.698021
0.706177
0.711708
0.715329
0.717615
0.718986
0.719747
0.720057
0.720056
0.719739
0.718988
0.717618
0.715333
0.711709
0.706176
0.698014
0.686308
0.66991
0.647378
0.61695
0.577824
0.538901
0.30077
0.30716
0.543545
0.580084
0.618764
0.649078
0.671444
0.687702
0.69931
0.707408
0.712895
0.716495
0.718757
0.720117
0.720858
0.721194
0.721194
0.720862
0.720121
0.718763
0.716495
0.712895
0.707402
0.699303
0.687688
0.671422
0.649045
0.61872
0.580005
0.543395
0.307082
0.307823
0.54325
0.581472
0.620204
0.650559
0.672882
0.68909
0.700643
0.708696
0.714156
0.717738
0.719997
0.721348
0.722097
0.722441
0.722443
0.722103
0.721348
0.719992
0.717737
0.714154
0.708693
0.700637
0.689079
0.672867
0.650538
0.620178
0.581425
0.54315
0.307826
0.306434
0.541294
0.581514
0.621259
0.651856
0.674278
0.690516
0.702072
0.710122
0.715579
0.719159
0.721424
0.722779
0.723535
0.723854
0.723853
0.723531
0.722779
0.721422
0.719159
0.715578
0.710121
0.702068
0.690511
0.67427
0.651848
0.621249
0.581504
0.541268
0.30645
0.303312
0.536624
0.580866
0.62207
0.65308
0.675735
0.692092
0.703717
0.711809
0.717294
0.72089
0.723157
0.724522
0.725276
0.725607
0.725606
0.725275
0.724524
0.723162
0.720891
0.717293
0.711806
0.703713
0.692088
0.675733
0.653079
0.622071
0.580872
0.536672
0.303339
0.300126
0.52923
0.579128
0.622576
0.654298
0.677325
0.693899
0.705662
0.713838
0.71937
0.722996
0.725285
0.726667
0.727424
0.727756
0.727756
0.727426
0.726666
0.725286
0.722998
0.719369
0.713835
0.70566
0.693897
0.677326
0.6543
0.622583
0.579153
0.529275
0.300149
0.299411
0.523072
0.576793
0.622828
0.655592
0.679121
0.695977
0.707906
0.716186
0.721793
0.725471
0.727786
0.729168
0.729932
0.730271
0.73027
0.729929
0.729165
0.727783
0.725465
0.721789
0.716184
0.707907
0.69598
0.679124
0.655596
0.622837
0.576813
0.52311
0.299424
0.300082
0.518861
0.575568
0.623217
0.656983
0.681051
0.69821
0.710329
0.718737
0.724414
0.728126
0.730467
0.731878
0.732688
0.733064
0.733063
0.732684
0.731874
0.73046
0.728119
0.724412
0.718737
0.71033
0.698212
0.681054
0.656986
0.623222
0.575572
0.518879
0.300092
0.302375
0.517593
0.575657
0.624144
0.658688
0.683227
0.700666
0.71295
0.721448
0.727175
0.730928
0.733316
0.734781
0.735614
0.735988
0.735984
0.735613
0.734778
0.733313
0.730928
0.727176
0.72145
0.712951
0.700666
0.683227
0.658687
0.624142
0.575655
0.517585
0.302381
0.305906
0.518156
0.576482
0.625526
0.660603
0.685495
0.703145
0.715551
0.724137
0.729963
0.733782
0.736194
0.737611
0.738333
0.738609
0.738609
0.738333
0.737611
0.736195
0.733783
0.729962
0.724138
0.715551
0.703145
0.685493
0.660599
0.625518
0.57647
0.518145
0.305896
0.309318
0.519756
0.578696
0.62789
0.663173
0.688209
0.705977
0.718507
0.727201
0.733067
0.736861
0.739142
0.740384
0.74094
0.741117
0.741121
0.740941
0.740386
0.739143
0.736861
0.733065
0.727199
0.718506
0.705975
0.688206
0.663167
0.62788
0.578681
0.519745
0.309307
0.312344
0.523623
0.583264
0.631211
0.666277
0.691348
0.709212
0.721829
0.730539
0.736313
0.739961
0.742096
0.743226
0.743733
0.743905
0.743904
0.743734
0.743228
0.742097
0.739963
0.736314
0.730538
0.721827
0.70921
0.691344
0.666271
0.631204
0.583264
0.523614
0.312326
0.314339
0.525849
0.586926
0.634452
0.669565
0.694717
0.712654
0.725237
0.733832
0.739495
0.743065
0.74521
0.746422
0.747063
0.74735
0.747349
0.747063
0.746422
0.74521
0.743065
0.739496
0.733831
0.725235
0.712651
0.694713
0.66956
0.634444
0.586921
0.525853
0.314329
0.317696
0.529981
0.590399
0.638624
0.673903
0.699051
0.716931
0.72944
0.737995
0.74371
0.747434
0.749822
0.751335
0.75228
0.752764
0.752766
0.752279
0.751334
0.74982
0.747431
0.743707
0.737993
0.729437
0.716928
0.699048
0.673898
0.638614
0.590386
0.529995
0.317699
0.320608
0.533996
0.594645
0.642898
0.678246
0.703499
0.721494
0.734203
0.743074
0.749203
0.753391
0.75624
0.758164
0.75942
0.760053
0.760052
0.759419
0.758162
0.756236
0.753386
0.749198
0.74307
0.734199
0.72149
0.703495
0.678242
0.642893
0.594643
0.534021
0.320622
0.32064
0.534382
0.597276
0.646038
0.682069
0.708027
0.726703
0.740101
0.749699
0.756501
0.761197
0.764356
0.766384
0.767587
0.768143
0.768141
0.767583
0.766379
0.76435
0.761191
0.756495
0.749693
0.740095
0.726698
0.708023
0.682066
0.64604
0.597284
0.534406
0.32065
0.320323
0.535494
0.600053
0.6509
0.688016
0.715079
0.734783
0.749035
0.759163
0.76616
0.770875
0.773932
0.775824
0.776883
0.777367
0.777364
0.776874
0.775812
0.773919
0.770861
0.766147
0.759153
0.749027
0.734777
0.715074
0.688014
0.650905
0.600063
0.53551
0.320331
0.318852
0.535133
0.6061
0.659107
0.697723
0.725859
0.746389
0.761304
0.771908
0.779289
0.784305
0.787625
0.789733
0.790985
0.791566
0.791563
0.790974
0.789714
0.787602
0.784283
0.779268
0.771891
0.76129
0.746378
0.725851
0.697717
0.659106
0.606111
0.535147
0.318858
0.313645
0.530692
0.613018
0.669501
0.710393
0.74025
0.762491
0.779105
0.791433
0.80043
0.806797
0.811168
0.814014
0.815725
0.81652
0.816517
0.815717
0.813998
0.811145
0.80677
0.800404
0.791411
0.779087
0.762476
0.740238
0.710382
0.669492
0.61302
0.530696
0.313644
0.311622
0.526103
0.61913
0.681878
0.726759
0.76061
0.786933
0.807459
0.823317
0.835295
0.844087
0.850305
0.854482
0.85703
0.858232
0.858224
0.857013
0.854459
0.850275
0.84405
0.835262
0.823292
0.807442
0.786921
0.7606
0.726748
0.681867
0.619127
0.526101
0.311621
0.317727
0.52959
0.631177
0.702738
0.75503
0.796161
0.82952
0.856673
0.878457
0.895465
0.908283
0.917587
0.923952
0.927895
0.929758
0.929729
0.927814
0.923839
0.917483
0.908206
0.895415
0.878431
0.856664
0.82952
0.796164
0.755033
0.702739
0.631177
0.529592
0.317728
0.334535
0.548067
0.663757
0.749664
0.81516
0.869166
0.914695
0.952871
0.983559
1.0076
1.02592
1.03937
1.04871
1.05454
1.05731
1.05723
1.05431
1.0484
1.03907
1.02571
1.00749
0.983513
0.952869
0.914718
0.869208
0.815214
0.749714
0.663792
0.548083
0.334541
0.368066
0.610263
0.7553
0.862907
0.948305
1.02149
1.08327
1.13339
1.17359
1.20526
1.2296
1.24755
1.26011
1.26756
1.27107
1.27089
1.26688
1.25898
1.24673
1.22899
1.20498
1.17349
1.13341
1.0834
1.02166
0.948547
0.86313
0.755443
0.610331
0.368081
0.453992
0.799389
0.989676
1.12241
1.22528
1.30992
1.37951
1.43669
1.48291
1.51972
1.54849
1.57002
1.58565
1.59537
1.59945
1.59903
1.59423
1.58461
1.56885
1.54757
1.51939
1.48286
1.43688
1.38009
1.31065
1.22613
1.12313
0.990118
0.799724
0.454109
0.673079
1.13621
1.3577
1.51405
1.62871
1.72009
1.79486
1.85642
1.90519
1.94401
1.97491
1.99707
2.01735
2.02595
2.02896
2.0282
2.02313
2.01366
1.99704
1.97224
1.94349
1.90497
1.8567
1.79716
1.72228
1.63109
1.51592
1.35866
1.13642
0.67313
0.706929
1.23795
1.55531
1.76926
1.91871
2.02894
2.1147
2.18046
2.23248
2.2741
2.30631
2.33055
2.34397
2.35318
2.35598
2.35514
2.34977
2.34061
2.32606
2.30399
2.27118
2.23008
2.17848
2.11464
2.03203
1.92263
1.7724
1.55695
1.23686
0.706521
0.681961
1.19661
1.56649
1.82803
2.00885
2.13709
2.23339
2.30583
2.3631
2.40948
2.44343
2.46901
2.48448
2.49306
2.49594
2.49472
2.48922
2.47946
2.46412
2.43983
2.40507
2.35967
2.30122
2.22987
2.13798
2.00831
1.82903
1.56594
1.19475
0.681186
0.609707
1.09031
1.51099
1.79305
1.99015
2.13014
2.23384
2.31423
2.37753
2.42725
2.46581
2.49382
2.51184
2.52159
2.52515
2.52406
2.51822
2.50745
2.49013
2.46348
2.4256
2.37494
2.30972
2.2291
2.12546