/*--------------------------------*- C++ -*----------------------------------*\
| =========                 |                                                 |
| \\      /  F ield         | OpenFOAM: The Open Source CFD Toolbox           |
|  \\    /   O peration     | Version:  2.3.0                                 |
|   \\  /    A nd           | Web:      www.OpenFOAM.org                      |
|    \\/     M anipulation  |                                                 |
\*---------------------------------------------------------------------------*/
FoamFile
{
    version     2.0;
    format      ascii;
    class       volScalarField;
    location    "58";
    object      epsilonm;
}
// * * * * * * * * * * * * * * * * * * * * * * * * * * * * * * * * * * * * * //

dimensions      [0 2 -3 0 0 0 0];

internalField   nonuniform List<scalar> 
1875
(
0.271928
0.279472
0.285549
0.291496
0.297883
0.305059
0.312924
0.321309
0.32994
0.33829
0.345799
0.352095
0.356147
0.356188
0.353274
0.345398
0.329867
0.307058
0.27832
0.246596
0.215657
0.188849
0.168413
0.156262
0.16448
0.4637
0.413145
0.381541
0.361383
0.347553
0.337726
0.330487
0.325347
0.3222
0.321326
0.3223
0.325314
0.331161
0.339194
0.348175
0.356711
0.363202
0.364554
0.360569
0.349874
0.333757
0.317013
0.307351
0.316179
0.365368
0.429667
0.380636
0.350977
0.332753
0.321254
0.313873
0.309111
0.306162
0.304609
0.304322
0.305045
0.307162
0.311378
0.318037
0.32736
0.338125
0.34795
0.353959
0.354347
0.349158
0.338705
0.327747
0.323032
0.329814
0.357987
0.355073
0.312621
0.296366
0.289453
0.286643
0.286159
0.287055
0.289045
0.291757
0.295091
0.298988
0.303586
0.309139
0.316015
0.324377
0.333645
0.342152
0.347573
0.348567
0.344746
0.336384
0.327989
0.327031
0.338523
0.370617
0.288444
0.274553
0.272801
0.272967
0.274245
0.276698
0.27989
0.283586
0.287557
0.29189
0.296726
0.302135
0.308361
0.315491
0.323204
0.330813
0.337383
0.341027
0.340939
0.337102
0.330818
0.325962
0.327717
0.341819
0.373955
0.2701
0.266925
0.270249
0.272998
0.276815
0.281113
0.285136
0.288943
0.292729
0.296705
0.301073
0.306044
0.311758
0.318132
0.324802
0.33119
0.335954
0.338076
0.337613
0.334208
0.329488
0.326914
0.330131
0.343132
0.372217
0.273846
0.275667
0.282415
0.287557
0.292864
0.296788
0.299156
0.300766
0.30244
0.304712
0.307889
0.311951
0.31681
0.322336
0.32818
0.333578
0.337382
0.338723
0.337484
0.333855
0.329753
0.327906
0.33039
0.340262
0.363419
0.274185
0.286205
0.299016
0.307672
0.313496
0.315252
0.314398
0.31258
0.311597
0.311654
0.313311
0.31725
0.32282
0.32908
0.334785
0.339092
0.340905
0.340533
0.337671
0.333412
0.329348
0.327446
0.329322
0.338254
0.360217
0.277013
0.296638
0.314608
0.325558
0.33015
0.329116
0.324537
0.319455
0.316578
0.316179
0.319835
0.324787
0.330061
0.335443
0.339491
0.341305
0.341387
0.339345
0.335638
0.331195
0.327279
0.325379
0.327014
0.3359
0.356586
0.278222
0.302443
0.324056
0.336136
0.339943
0.33727
0.331417
0.326916
0.325528
0.326198
0.32736
0.329453
0.332883
0.335209
0.336915
0.337247
0.336024
0.333442
0.330189
0.326946
0.324597
0.323971
0.327069
0.337803
0.360524
0.274576
0.302783
0.326953
0.339738
0.343215
0.339812
0.333195
0.327258
0.324235
0.323479
0.324306
0.325485
0.326613
0.327313
0.327218
0.326534
0.325497
0.324351
0.323322
0.322805
0.323205
0.325654
0.332521
0.349092
0.381837
0.268998
0.30018
0.325655
0.338939
0.342724
0.339785
0.333612
0.327585
0.323082
0.320052
0.318412
0.317623
0.316787
0.315953
0.315355
0.315124
0.315325
0.316126
0.317672
0.320246
0.324426
0.331419
0.343956
0.367167
0.404245
0.275933
0.303346
0.325577
0.337328
0.341036
0.338852
0.333397
0.327366
0.321851
0.317284
0.313569
0.310603
0.30838
0.307067
0.306594
0.306884
0.308117
0.310437
0.314075
0.319428
0.327312
0.3394
0.358424
0.386512
0.420048
0.293497
0.311974
0.327432
0.335936
0.338777
0.337115
0.332615
0.326692
0.320553
0.314959
0.310159
0.306332
0.303601
0.302075
0.301581
0.302013
0.303533
0.306286
0.310647
0.317297
0.327267
0.342053
0.364488
0.396097
0.435519
0.306615
0.3188
0.328978
0.334632
0.336827
0.335535
0.33163
0.326015
0.319859
0.313971
0.308807
0.304668
0.301596
0.299579
0.298686
0.298691
0.299813
0.302208
0.306261
0.312659
0.322136
0.335801
0.35546
0.384558
0.430916
0.307417
0.318851
0.327978
0.332576
0.334496
0.33356
0.33041
0.325544
0.319849
0.314062
0.308704
0.3042
0.300736
0.29834
0.296962
0.296467
0.296834
0.298335
0.301276
0.306053
0.313059
0.323002
0.337033
0.357307
0.39915
0.308764
0.319215
0.327472
0.331642
0.333285
0.332656
0.329956
0.325552
0.320225
0.31462
0.309302
0.304735
0.301119
0.298485
0.296728
0.295736
0.295451
0.29593
0.297294
0.299817
0.303905
0.31028
0.319272
0.329521
0.351345
0.310527
0.320064
0.328267
0.332525
0.334017
0.333311
0.330908
0.326872
0.321745
0.316365
0.311177
0.306593
0.302848
0.300022
0.298033
0.296706
0.295928
0.295701
0.296129
0.297376
0.299794
0.304032
0.310888
0.318046
0.327521
0.307002
0.317886
0.328496
0.334527
0.336566
0.335887
0.333338
0.329424
0.324793
0.319826
0.314926
0.31037
0.306499
0.303455
0.301227
0.299678
0.29863
0.297971
0.297711
0.297998
0.299265
0.302291
0.308309
0.316131
0.32626
0.30732
0.317431
0.328985
0.337162
0.340715
0.340642
0.338366
0.33425
0.329377
0.324193
0.319526
0.315574
0.312001
0.308993
0.306616
0.304834
0.303519
0.302527
0.301785
0.30138
0.301608
0.303143
0.307405
0.313333
0.321
0.313091
0.319872
0.329809
0.33898
0.344296
0.345583
0.344066
0.340432
0.33582
0.331065
0.326145
0.322063
0.31918
0.316615
0.314298
0.312272
0.310529
0.308991
0.307593
0.306399
0.305671
0.305925
0.308391
0.312505
0.318562
0.334444
0.32915
0.33205
0.338923
0.345087
0.348131
0.347943
0.34554
0.341249
0.33668
0.332517
0.329077
0.326698
0.325099
0.32334
0.321338
0.319176
0.316902
0.314541
0.312218
0.310265
0.309222
0.310127
0.31269
0.317695
0.35764
0.337717
0.33186
0.334519
0.340662
0.345718
0.347779
0.347156
0.344607
0.340741
0.337633
0.335346
0.333187
0.331858
0.331265
0.330165
0.328205
0.325436
0.32205
0.318345
0.31482
0.312099
0.311124
0.311474
0.314117
0.375934
0.341715
0.328206
0.325841
0.330015
0.336749
0.342168
0.344596
0.34426
0.342413
0.340001
0.337395
0.33583
0.335658
0.336194
0.336786
0.336073
0.33358
0.329417
0.324315
0.319077
0.314465
0.311393
0.309202
0.308712
0.391447
0.344038
0.323528
0.316458
0.317629
0.323414
0.330909
0.337055
0.34043
0.340913
0.339702
0.337968
0.337315
0.337797
0.3394
0.341344
0.341936
0.340186
0.335745
0.329441
0.322575
0.316181
0.311193
0.306669
0.303383
0.405106
0.347941
0.321589
0.310357
0.308035
0.311473
0.318756
0.326967
0.333622
0.337512
0.338977
0.338716
0.338529
0.339416
0.341588
0.344229
0.345794
0.3447
0.340327
0.333194
0.325023
0.317181
0.310655
0.30424
0.298502
0.413371
0.353441
0.322349
0.307648
0.302669
0.304147
0.310056
0.318697
0.327309
0.333776
0.337659
0.338699
0.339375
0.340929
0.343553
0.346388
0.348181
0.347386
0.343075
0.335487
0.326516
0.317803
0.31039
0.302867
0.295526
0.413574
0.357357
0.323427
0.30686
0.300551
0.301207
0.306511
0.314999
0.324427
0.332294
0.337324
0.338868
0.339932
0.341817
0.344646
0.347569
0.349294
0.348458
0.344098
0.336461
0.327342
0.318482
0.310982
0.303426
0.296016
0.404227
0.354431
0.323551
0.30668
0.300232
0.301045
0.306827
0.315682
0.325364
0.333245
0.337714
0.33908
0.340119
0.34205
0.344951
0.347873
0.349454
0.348383
0.343913
0.336525
0.327862
0.31957
0.312746
0.306157
0.300473
0.377735
0.342368
0.320926
0.306227
0.301029
0.303096
0.309959
0.319342
0.328792
0.33566
0.33872
0.339576
0.340569
0.342602
0.345386
0.347939
0.34909
0.347682
0.343131
0.336135
0.328339
0.321352
0.316337
0.31308
0.312687
0.346482
0.326532
0.313503
0.30425
0.302378
0.306877
0.315309
0.325159
0.333659
0.338415
0.339752
0.340018
0.341015
0.343005
0.345458
0.347514
0.348055
0.346137
0.341503
0.335023
0.328274
0.322857
0.32
0.320715
0.327577
0.320256
0.312758
0.307079
0.303349
0.305283
0.312402
0.32217
0.331662
0.337984
0.340252
0.340302
0.340219
0.341151
0.343027
0.345148
0.346536
0.346406
0.343952
0.339209
0.333173
0.32741
0.323477
0.322348
0.324688
0.336155
0.309459
0.307191
0.305422
0.305257
0.310189
0.319246
0.329275
0.336938
0.340303
0.340513
0.339556
0.339469
0.340784
0.342568
0.344354
0.345168
0.344353
0.341365
0.336468
0.330776
0.325996
0.323901
0.325439
0.327443
0.340042
0.306275
0.305525
0.305854
0.30864
0.315979
0.326024
0.334931
0.339893
0.3411
0.340346
0.339523
0.339724
0.340625
0.34196
0.343091
0.343251
0.341685
0.3381
0.332949
0.327479
0.323636
0.323346
0.327793
0.329952
0.34089
0.30134
0.303422
0.30657
0.312094
0.321297
0.331144
0.337973
0.340736
0.340904
0.340158
0.339986
0.33992
0.33991
0.340726
0.341173
0.340523
0.33813
0.333904
0.328492
0.323301
0.320303
0.321204
0.326798
0.331301
0.339314
0.296065
0.300983
0.307019
0.314772
0.324935
0.333652
0.33858
0.340166
0.33993
0.339142
0.33841
0.337976
0.33834
0.338686
0.338466
0.336956
0.33373
0.328926
0.323425
0.318811
0.316906
0.319125
0.325744
0.331767
0.337684
0.290322
0.298049
0.306705
0.316059
0.326232
0.333656
0.337461
0.338477
0.337959
0.336948
0.336264
0.336242
0.336283
0.336105
0.335131
0.33279
0.328851
0.323695
0.318403
0.314635
0.313905
0.317514
0.324781
0.331585
0.338584
0.284164
0.294486
0.305318
0.315712
0.325407
0.331996
0.335318
0.336332
0.336071
0.33531
0.334587
0.334219
0.333958
0.33326
0.331639
0.32866
0.32429
0.319114
0.314301
0.311388
0.311629
0.316309
0.323883
0.331736
0.340189
0.277928
0.290476
0.302912
0.313807
0.323008
0.329195
0.332597
0.333926
0.334068
0.333704
0.333155
0.332573
0.331871
0.330707
0.328634
0.325311
0.32083
0.315848
0.311503
0.309152
0.309964
0.315204
0.323403
0.331771
0.340824
0.272232
0.286638
0.299998
0.310904
0.319747
0.32587
0.329533
0.331263
0.331752
0.33159
0.331243
0.330795
0.329978
0.328631
0.326393
0.323027
0.318679
0.313973
0.309961
0.307871
0.308764
0.313923
0.322383
0.330983
0.340105
0.267223
0.283148
0.296976
0.307684
0.31628
0.322446
0.326399
0.328574
0.329539
0.329793
0.329668
0.32924
0.328413
0.327068
0.324884
0.321683
0.317622
0.31328
0.309577
0.307581
0.308334
0.313132
0.321713
0.330073
0.338527
0.263049
0.27964
0.293805
0.304396
0.312837
0.319046
0.323245
0.325803
0.327192
0.327834
0.328006
0.327764
0.327085
0.325891
0.323942
0.321104
0.317527
0.313675
0.310286
0.308297
0.308826
0.313235
0.321892
0.330587
0.339201
0.2613
0.277308
0.291195
0.301598
0.309819
0.315962
0.320291
0.323124
0.324862
0.325864
0.326352
0.326373
0.32594
0.325003
0.323391
0.321019
0.318027
0.314747
0.311731
0.3098
0.310219
0.314456
0.323116
0.331989
0.341088
0.261567
0.276752
0.289847
0.299769
0.307587
0.31349
0.317784
0.320748
0.322717
0.323995
0.324768
0.325062
0.324884
0.324219
0.322934
0.320971
0.318384
0.315839
0.313305
0.311607
0.312161
0.316271
0.324375
0.333058
0.342216
0.262423
0.276872
0.289304
0.29871
0.306078
0.311665
0.315821
0.318797
0.320888
0.32235
0.323327
0.323835
0.323873
0.323452
0.322513
0.321062
0.319247
0.316906
0.314674
0.313375
0.314424
0.318619
0.326068
0.334274
0.343257
0.263296
0.277379
0.289323
0.298269
0.305192
0.310436
0.314396
0.317303
0.319421
0.320968
0.322055
0.322689
0.32286
0.32258
0.321863
0.320691
0.319107
0.317171
0.315411
0.314783
0.316594
0.321128
0.327918
0.335747
0.344323
0.267394
0.279832
0.290296
0.298419
0.304875
0.30975
0.313467
0.316245
0.318313
0.319858
0.320971
0.321654
0.321903
0.321699
0.321077
0.320028
0.318517
0.316987
0.315709
0.315736
0.318132
0.322789
0.329037
0.336816
0.34602
0.268135
0.280596
0.291012
0.298891
0.30498
0.309511
0.312965
0.315562
0.317509
0.318962
0.319984
0.320555
0.320554
0.320406
0.32008
0.31936
0.318357
0.316785
0.315753
0.316201
0.318801
0.323151
0.328881
0.336261
0.345428
0.269653
0.282156
0.292631
0.300213
0.305651
0.309718
0.312849
0.315208
0.316976
0.31828
0.31916
0.319555
0.319837
0.319699
0.319229
0.318412
0.317239
0.315953
0.315281
0.316053
0.318532
0.32235
0.32755
0.334215
0.342478
0.276114
0.286441
0.294973
0.301548
0.306541
0.310219
0.313027
0.315148
0.31674
0.317937
0.31881
0.319401
0.319846
0.319596
0.318683
0.31766
0.316336
0.315131
0.31458
0.315349
0.317354
0.320531
0.324939
0.330665
0.337887
0.278004
0.288399
0.296777
0.302988
0.307631
0.310977
0.31347
0.315326
0.316724
0.317773
0.31856
0.319152
0.318898
0.318474
0.317829
0.316905
0.315687
0.314405
0.313729
0.314131
0.3154
0.317678
0.320967
0.325098
0.330234
0.283541
0.292856
0.300595
0.305961
0.309542
0.312208
0.314217
0.315717
0.316825
0.317611
0.318087
0.31821
0.318021
0.317685
0.317267
0.316274
0.315
0.313686
0.312804
0.312624
0.313027
0.314183
0.316062
0.318127
0.320341
0.294265
0.299968
0.304807
0.308548
0.311409
0.313506
0.315071
0.316235
0.317083
0.317674
0.318029
0.31813
0.31835
0.317984
0.317055
0.315918
0.314658
0.313249
0.312107
0.311338
0.31092
0.311053
0.311656
0.311631
0.310863
0.298908
0.30369
0.307787
0.310767
0.313065
0.314707
0.315917
0.316805
0.317446
0.317896
0.318195
0.318407
0.318011
0.317538
0.316656
0.315644
0.314488
0.313133
0.311834
0.3107
0.30979
0.309326
0.309208
0.308027
0.305488
0.304858
0.308162
0.311429
0.31353
0.314824
0.31588
0.316718
0.317347
0.317787
0.318055
0.318137
0.317983
0.317643
0.317237
0.316861
0.316042
0.314802
0.313431
0.312034
0.310732
0.309662
0.309024
0.308805
0.307676
0.305601
0.313003
0.313235
0.314129
0.315097
0.315943
0.316701
0.317332
0.317806
0.318123
0.318289
0.318304
0.318137
0.318096
0.317463
0.316813
0.316015
0.315007
0.313791
0.312439
0.311105
0.309986
0.30927
0.308957
0.307917
0.306135
0.311742
0.313248
0.314598
0.315501
0.31644
0.317198
0.317796
0.318225
0.3185
0.318649
0.318707
0.318737
0.31831
0.317905
0.317098
0.316267
0.315377
0.314266
0.312976
0.311639
0.310467
0.309659
0.309183
0.308026
0.306218
0.312936
0.31475
0.316231
0.316862
0.317373
0.317906
0.318386
0.31874
0.318949
0.319024
0.318991
0.318871
0.318498
0.318245
0.317918
0.317215
0.316143
0.314989
0.313716
0.312386
0.31118
0.310244
0.309498
0.308114
0.306126
0.318659
0.318732
0.318637
0.318633
0.318673
0.318959
0.319279
0.319536
0.319676
0.319693
0.319606
0.319394
0.319319
0.318781
0.318242
0.317597
0.316823
0.31584
0.314684
0.313426
0.312229
0.311164
0.310078
0.308365
0.30611
0.319411
0.320429
0.320687
0.320575
0.320511
0.320585
0.320726
0.320872
0.320949
0.320927
0.320819
0.320651
0.320487
0.320221
0.319555
0.318909
0.318226
0.317331
0.316248
0.315034
0.313823
0.312593
0.311089
0.308999
0.30645
0.32543
0.325524
0.325302
0.324566
0.324032
0.32352
0.323305
0.323262
0.323258
0.323207
0.323088
0.322895
0.322582
0.322425
0.322286
0.321812
0.320982
0.320059
0.318972
0.317726
0.316391
0.314872
0.31282
0.310165
0.307115
0.336798
0.333836
0.331571
0.330098
0.328933
0.328094
0.327654
0.327487
0.327444
0.327411
0.327332
0.32718
0.326975
0.326717
0.326458
0.326074
0.325544
0.324773
0.323728
0.3224
0.320783
0.318735
0.315926
0.312407
0.308488
0.341303
0.339236
0.337731
0.336629
0.335768
0.33534
0.335089
0.335001
0.335012
0.335058
0.335108
0.335164
0.335229
0.335123
0.334723
0.334354
0.333922
0.333228
0.332194
0.330725
0.328676
0.325822
0.321916
0.316934
0.311419
0.34601
0.347172
0.348081
0.348352
0.34836
0.348268
0.348203
0.348187
0.348213
0.348274
0.34838
0.348546
0.348739
0.348889
0.349069
0.349069
0.348829
0.348293
0.34736
0.345821
0.343368
0.339578
0.334029
0.326395
0.317477
0.358225
0.365001
0.369418
0.371774
0.372816
0.373134
0.37312
0.372961
0.372779
0.372643
0.372607
0.372677
0.37286
0.373245
0.373819
0.374382
0.374864
0.375109
0.374969
0.374119
0.372023
0.367898
0.360701
0.349206
0.333922
0.395046
0.410647
0.418054
0.4206
0.420859
0.420006
0.418724
0.417409
0.416272
0.415419
0.414931
0.414841
0.415155
0.415886
0.417006
0.418569
0.420516
0.422785
0.425127
0.427168
0.428234
0.427182
0.422093
0.409823
0.387648
0.543983
0.540634
0.530181
0.519772
0.510629
0.502915
0.496624
0.491632
0.487817
0.485073
0.48338
0.482715
0.48305
0.484384
0.486782
0.490315
0.495116
0.501331
0.509088
0.518549
0.529747
0.542372
0.555796
0.567911
0.570184
1.00267
0.804157
0.709466
0.659265
0.628184
0.606748
0.591217
0.579711
0.57126
0.565268
0.561427
0.559552
0.559532
0.561336
0.5651
0.571054
0.579536
0.591095
0.606656
0.627711
0.656685
0.697857
0.761967
0.878577
1.11633
0.585109
0.611431
0.606903
0.594209
0.57882
0.564062
0.551464
0.541387
0.53373
0.528251
0.524712
0.522957
0.522901
0.524516
0.527941
0.533358
0.541067
0.551486
0.565232
0.582999
0.605193
0.630883
0.65655
0.675426
0.660872
0.226514
0.3706
0.431462
0.453411
0.455198
0.448997
0.441148
0.434373
0.429248
0.425689
0.423439
0.42231
0.422218
0.423079
0.425049
0.42825
0.432938
0.439488
0.448333
0.459528
0.471417
0.478157
0.467516
0.411428
0.244439
0.0502655
0.150704
0.241147
0.266802
0.268851
0.262391
0.254053
0.24718
0.242525
0.239758
0.238317
0.237694
0.23767
0.23807
0.239111
0.241016
0.244186
0.249288
0.257114
0.268084
0.280707
0.288063
0.278625
0.215856
0.0950805
0.0325191
0.083395
0.147532
0.168307
0.166626
0.151838
0.139411
0.131526
0.127741
0.127096
0.127844
0.129334
0.130552
0.131293
0.131805
0.132529
0.134176
0.137861
0.145313
0.157901
0.173772
0.183587
0.176322
0.123715
0.0545861
0.0613795
0.0869193
0.113407
0.104236
0.0732564
0.0549404
0.0453791
0.0418025
0.0435354
0.0486292
0.0562818
0.0632868
0.0679069
0.0694965
0.0689332
0.0665131
0.0645322
0.0653463
0.0698159
0.0813367
0.10474
0.132851
0.133515
0.109466
0.082537
0.0927575
0.07749
0.0541612
0.0211922
0.00725805
0.00232125
0.00136924
0.00141736
0.00277333
0.00712346
0.0134534
0.0196032
0.0235523
0.0245154
0.0233451
0.0195218
0.015971
0.0151608
0.0163714
0.0216511
0.0355176
0.0669754
0.102762
0.103964
0.111573
0.156074
0.0592778
0.0174597
0.00238915
0.000134608
7.68706e-05
6.66338e-05
5.81358e-05
5.35205e-05
0.000225194
0.00145862
0.00321637
0.00446551
0.00472572
0.00422297
0.0028122
0.00171163
0.00121699
0.000948264
0.00173705
0.00579381
0.019812
0.0514269
0.0888559
0.171595
)
;

boundaryField
{
    inlet
    {
        type            fixedValue;
        value           nonuniform List<scalar> 
25
(
0.00015
0.00015
0.00015
0.00015
0.00015
0.00015
0.00015
0.00015
0.00015
0.00015
0.00015
0.00015
0.00015
0.00015
0.00015
0.00015
0.00015
0.00015
0.00015
0.00015
0.00015
0.00015
0.00015
0.00015
0.00015
)
;
    }
    outlet
    {
        type            inletOutlet;
        inletValue      uniform 0.00015;
        value           nonuniform List<scalar> 
25
(
0.156074
0.0592778
0.0174597
0.00015
0.00015
0.00015
0.00015
0.00015
0.00015
0.000225194
0.00145862
0.00321637
0.00446551
0.00472572
0.00422297
0.0028122
0.00171163
0.00121699
0.00015
0.00173705
0.00579381
0.019812
0.0514269
0.0888559
0.171595
)
;
    }
    walls
    {
        type            fixedValue;
        value           nonuniform List<scalar> 
150
(
1.77731
2.75689
3.10873
3.23488
3.37161
3.56342
3.76233
3.94715
4.08336
4.14368
4.15115
4.11757
4.06837
4.01568
3.95945
3.90695
3.88062
3.87364
3.85864
3.80922
3.68116
3.45559
3.15236
2.85444
2.68976
2.66601
2.76239
2.92977
3.11493
3.31367
3.51542
3.6951
3.84403
3.96568
4.07329
4.17289
4.26543
4.34991
4.42628
4.49572
4.55486
4.59625
4.62724
4.66043
4.6967
4.73651
4.78305
4.82916
4.87879
4.93213
4.98178
5.04104
5.1106
5.1873
5.28504
5.40215
5.53041
5.68321
5.8597
6.05178
6.2791
6.55163
6.87058
7.2623
7.75771
8.42314
9.4082
10.8715
11.0322
10.4592
8.54013
7.13049
6.42635
5.41249
4.25585
0.92874
1.66701
2.0045
2.19985
2.29304
2.33511
2.33944
2.3293
2.3034
2.29145
2.32904
2.43717
2.62517
2.84042
3.01885
3.20017
3.3797
3.52327
3.61052
3.66503
3.71445
3.75985
3.79558
3.82085
3.83228
3.83184
3.81397
3.77573
3.7146
3.64084
3.56569
3.51011
3.49307
3.50827
3.54073
3.56777
3.58175
3.60314
3.64142
3.69669
3.76841
3.85752
3.95917
4.07166
4.19605
4.33241
4.47881
4.63265
4.7939
4.96171
5.13527
5.31202
5.4898
5.66696
5.84297
6.02085
6.20426
6.39696
6.60202
6.82272
7.06362
7.33234
7.64162
8.01189
8.48243
9.13671
10.154
11.7263
11.9161
11.363
9.57444
7.85359
6.97122
6.49988
5.49063
)
;
    }
    defaultFaces
    {
        type            empty;
    }
}


// ************************************************************************* //
