/*--------------------------------*- C++ -*----------------------------------*\
| =========                 |                                                 |
| \\      /  F ield         | OpenFOAM: The Open Source CFD Toolbox           |
|  \\    /   O peration     | Version:  2.3.0                                 |
|   \\  /    A nd           | Web:      www.OpenFOAM.org                      |
|    \\/     M anipulation  |                                                 |
\*---------------------------------------------------------------------------*/
FoamFile
{
    version     2.0;
    format      ascii;
    class       volScalarField;
    location    "58";
    object      k.water;
}
// * * * * * * * * * * * * * * * * * * * * * * * * * * * * * * * * * * * * * //

dimensions      [0 2 -2 0 0 0 0];

internalField   nonuniform List<scalar> 
1875
(
0.0561419
0.0582977
0.061148
0.0638238
0.0663373
0.0686973
0.0709187
0.0730145
0.0749702
0.0767619
0.0783457
0.0796712
0.0806047
0.0809524
0.0806682
0.0796234
0.0773528
0.0737498
0.0689649
0.063326
0.057329
0.0514194
0.0458131
0.0404661
0.0364181
0.0752347
0.0762069
0.0771164
0.0776205
0.0778453
0.0778628
0.0777695
0.0776039
0.0774925
0.0775169
0.0777021
0.0781439
0.0788855
0.0798757
0.0809635
0.0819387
0.0823895
0.0819966
0.0804883
0.077505
0.0733697
0.0684016
0.0630818
0.0578859
0.0537916
0.0815065
0.0819618
0.0822639
0.0822343
0.082006
0.0816019
0.0811087
0.0805718
0.0800338
0.0795401
0.0791515
0.0789604
0.0790408
0.0793941
0.0800575
0.0808064
0.0813678
0.0813001
0.0803696
0.0781873
0.0748844
0.0708228
0.0666103
0.0627916
0.060819
0.0836961
0.0832416
0.083288
0.0831727
0.0828581
0.0824292
0.0819668
0.0815126
0.0810931
0.0807346
0.0804483
0.0802572
0.080182
0.0802673
0.0805334
0.0808782
0.081063
0.0807613
0.0797133
0.0776214
0.0746033
0.0711205
0.0678794
0.0654186
0.0647114
0.0853819
0.0850529
0.0847781
0.0842359
0.0835923
0.0829512
0.0823398
0.0817832
0.0812868
0.0808706
0.080548
0.0803242
0.0802194
0.0802371
0.0803351
0.080391
0.0801901
0.0795264
0.0782191
0.0761945
0.0735623
0.0706946
0.0681709
0.066592
0.066531
0.0885766
0.0880681
0.0874179
0.0863483
0.0852789
0.0842373
0.0832123
0.0822772
0.0814774
0.080849
0.08039
0.0800806
0.0798926
0.0797753
0.0796389
0.0793882
0.0789153
0.0780779
0.0767347
0.0748518
0.0725884
0.0702843
0.0683415
0.0671893
0.0673443
0.0918407
0.091576
0.0906805
0.0892426
0.0877386
0.0860713
0.0843384
0.0827301
0.0814067
0.0804088
0.0797146
0.07925
0.0789405
0.0787228
0.078533
0.0782628
0.0777689
0.076887
0.0755433
0.0737941
0.0718235
0.0698943
0.068271
0.0672729
0.0674287
0.0948228
0.095074
0.0941598
0.0924507
0.0903373
0.0877487
0.0850646
0.0826543
0.0807231
0.0793196
0.0783909
0.0779422
0.077785
0.0777503
0.0776788
0.0774403
0.0768695
0.0758859
0.0745111
0.0728509
0.0710758
0.0693754
0.0679569
0.0671075
0.0672338
0.0968916
0.097719
0.0968551
0.0948219
0.0919442
0.0884134
0.0848369
0.0817181
0.0793322
0.0778613
0.0772182
0.0769802
0.0769233
0.0769332
0.0768335
0.0764661
0.0757482
0.0746823
0.0733293
0.0717908
0.0701876
0.0686526
0.0673689
0.0666356
0.0667351
0.0981544
0.0990468
0.0982119
0.0958865
0.0924238
0.0882528
0.0841879
0.0808791
0.07866
0.0773735
0.0765955
0.0762086
0.0760611
0.0758523
0.0755768
0.0750805
0.074334
0.0733535
0.0721791
0.0708671
0.0694873
0.0681411
0.0669977
0.0663699
0.0665046
0.0987823
0.0993678
0.0985119
0.0959759
0.0921954
0.087731
0.0834456
0.079998
0.0776314
0.0762486
0.0755473
0.0751778
0.0749424
0.0747392
0.0744149
0.0739534
0.0733407
0.0725757
0.071667
0.0706324
0.0695098
0.0683794
0.0674133
0.0669507
0.0672296
0.0982917
0.0989266
0.0980707
0.0955278
0.0917859
0.0874442
0.0833316
0.0800271
0.077707
0.0762632
0.0754547
0.0750328
0.0747511
0.074504
0.0742334
0.0739086
0.0734984
0.0729822
0.0723493
0.0716023
0.0707707
0.0699401
0.0693026
0.0690922
0.0692941
0.097508
0.09805
0.0971677
0.0947737
0.0913476
0.0874019
0.083625
0.0805461
0.0783527
0.0769676
0.0761712
0.0757405
0.0755092
0.0753763
0.07527
0.0751362
0.0749422
0.0746695
0.0743082
0.0738632
0.0733753
0.0729452
0.072763
0.0728053
0.0728134
0.0966659
0.0969855
0.0960822
0.093946
0.0909886
0.0876055
0.0843621
0.0816587
0.0796869
0.0784128
0.0776699
0.0773003
0.0771593
0.0771356
0.0771672
0.0771979
0.0771965
0.0771323
0.077001
0.0768222
0.0766376
0.0765263
0.076579
0.0766769
0.0767433
0.0957635
0.0959266
0.0950914
0.0932898
0.0908926
0.0881178
0.0854135
0.0830878
0.0813454
0.0801847
0.0795022
0.079182
0.0790913
0.0791341
0.0792628
0.0794276
0.0795924
0.0797326
0.07984
0.0799256
0.0799739
0.0799782
0.0799123
0.0797641
0.0799277
0.094918
0.0950479
0.0944197
0.092981
0.091059
0.0888245
0.0865988
0.0846289
0.0830881
0.0820061
0.0813236
0.0809799
0.0808853
0.0809672
0.0811666
0.0814296
0.0817213
0.0820266
0.0823345
0.0826359
0.0828962
0.0830655
0.0830856
0.0828143
0.0830975
0.0944943
0.0947047
0.0943118
0.093185
0.0916177
0.0898117
0.0879383
0.0862151
0.0848078
0.0837577
0.0830561
0.0826687
0.0825425
0.0826182
0.0828343
0.0831342
0.0834782
0.0838456
0.084223
0.0846058
0.0849947
0.0854091
0.0857732
0.0857764
0.0861785
0.0943834
0.0947332
0.0946647
0.0939149
0.0926986
0.0911885
0.0895847
0.0880357
0.0866695
0.0856
0.0848397
0.0843755
0.0841752
0.0841951
0.0843779
0.0846719
0.0850221
0.0853951
0.0857731
0.086152
0.0865577
0.0870419
0.0876568
0.0881067
0.0886032
0.094141
0.0946665
0.0951545
0.0949118
0.0940825
0.0928375
0.0913829
0.0899225
0.0886093
0.0875266
0.0867149
0.0861683
0.08588
0.0858217
0.0859423
0.0862036
0.0865421
0.0869069
0.0872655
0.0876059
0.0879493
0.0883596
0.0889653
0.0895568
0.0900627
0.0933354
0.0940087
0.0949316
0.0952889
0.0950106
0.0942073
0.0930333
0.0917116
0.090434
0.0893173
0.0884795
0.0879401
0.0876314
0.0875338
0.0876078
0.087823
0.0881321
0.0884748
0.0888062
0.0891014
0.0893636
0.0896442
0.0900839
0.090535
0.090968
0.0912308
0.0919336
0.0931802
0.0942026
0.094593
0.0943789
0.0937267
0.09278
0.091748
0.0907952
0.0899932
0.0894753
0.089268
0.0892372
0.0893274
0.0895289
0.0898001
0.0900944
0.0903677
0.0905928
0.0907669
0.0909208
0.0911815
0.091452
0.0917859
0.0874639
0.0878965
0.0891834
0.0908249
0.0921794
0.0928821
0.0929243
0.0925445
0.0918793
0.0912232
0.0907112
0.0904263
0.0904177
0.0905964
0.0908666
0.0911565
0.0914419
0.091696
0.0918904
0.0920098
0.092067
0.0920986
0.0922023
0.0923221
0.0925327
0.0822689
0.0822887
0.0834697
0.0853867
0.0874766
0.0892107
0.0903315
0.0908483
0.0908799
0.0906889
0.0905399
0.0905733
0.0907519
0.0911844
0.0918065
0.0923933
0.0928527
0.093156
0.0933041
0.0933142
0.0932377
0.0931289
0.0930898
0.093053
0.0931181
0.0770043
0.076603
0.0777327
0.0796817
0.0820811
0.0844547
0.0864141
0.0878054
0.0886726
0.0891788
0.0895435
0.0898604
0.090342
0.091086
0.0920539
0.0930664
0.0938714
0.0943564
0.0945277
0.0944574
0.0942436
0.0939846
0.0938037
0.0936228
0.093531
0.0740223
0.0732352
0.0741306
0.0758727
0.0780889
0.0805299
0.0828701
0.0848196
0.086278
0.0872983
0.0880365
0.0887201
0.0895687
0.0906478
0.0919428
0.0933092
0.0944763
0.0952159
0.0954735
0.0953512
0.0950083
0.0946025
0.0942832
0.0939591
0.0937174
0.0735911
0.0725673
0.0732283
0.0747229
0.076624
0.0787484
0.0809436
0.083012
0.08475
0.0860936
0.0871521
0.0880593
0.0890665
0.0903188
0.0918039
0.0933764
0.0947866
0.0957382
0.0960935
0.0959363
0.0954759
0.0949314
0.0944935
0.0940646
0.0937102
0.0753579
0.0742651
0.074535
0.0756191
0.0771484
0.078923
0.080835
0.0827582
0.0845155
0.0859562
0.0871228
0.0880587
0.0890946
0.09038
0.0919053
0.0935212
0.0949867
0.0960121
0.0964006
0.0961904
0.0956155
0.0949455
0.094395
0.0938653
0.0934184
0.0783744
0.0775093
0.0773588
0.078026
0.0791706
0.080607
0.0822108
0.0838623
0.085407
0.0866907
0.0877012
0.0884902
0.0894341
0.0906709
0.0921656
0.0937343
0.0951247
0.0960735
0.096388
0.096089
0.0953946
0.0945917
0.0939166
0.0932899
0.0927924
0.081646
0.0810242
0.0808964
0.0812001
0.0819963
0.0831507
0.0845241
0.0859552
0.0872692
0.0882766
0.0889335
0.0894422
0.0901732
0.0912434
0.0925886
0.094003
0.0952201
0.09598
0.096118
0.0956526
0.0948012
0.0938405
0.093003
0.0922515
0.0917874
0.0850825
0.0847252
0.0847711
0.0847137
0.0851641
0.0860769
0.0872507
0.0884698
0.0894996
0.0901274
0.0903756
0.0905961
0.0911075
0.0919828
0.0931078
0.0942657
0.0952009
0.095677
0.0955529
0.0948738
0.0938511
0.0927337
0.0917333
0.0909235
0.0905675
0.0884996
0.0882724
0.088149
0.0879501
0.0882529
0.0890528
0.0900918
0.0910855
0.0917313
0.0918815
0.09173
0.0916916
0.0920093
0.0926755
0.0935435
0.0944081
0.0950155
0.095163
0.094762
0.0938777
0.092705
0.0914648
0.0903353
0.0894993
0.0893162
0.0914867
0.0912611
0.0910033
0.0908053
0.0911271
0.0919066
0.0928181
0.0934865
0.0936414
0.0933061
0.0928401
0.0926204
0.0927604
0.0932232
0.0938373
0.0944019
0.094688
0.0945491
0.0939186
0.0928901
0.0916542
0.0904153
0.0893083
0.088408
0.0883851
0.0939259
0.0937491
0.0935018
0.0933818
0.0937812
0.09454
0.0952165
0.0954206
0.0950283
0.0942772
0.0935642
0.0932369
0.0932941
0.0935982
0.094015
0.0943233
0.0943578
0.0939894
0.093202
0.092111
0.0909254
0.0898729
0.0890706
0.088085
0.0880984
0.0958954
0.0957951
0.095633
0.0956799
0.0961758
0.0968299
0.0971219
0.0968039
0.0959824
0.0950187
0.0942487
0.0938736
0.0937903
0.0939214
0.0941331
0.0942286
0.0940554
0.0935153
0.092627
0.0915297
0.0904602
0.0896724
0.0892801
0.0884168
0.0883531
0.0976216
0.0976322
0.0975996
0.0977769
0.0982868
0.0986599
0.0984845
0.0977259
0.0966659
0.0956447
0.0949151
0.0944284
0.09417
0.0941571
0.0941951
0.0941119
0.093764
0.0930893
0.0921375
0.0910736
0.0901423
0.0895696
0.0894135
0.0890447
0.0888968
0.0992056
0.0993294
0.0994288
0.0996518
0.100024
0.100012
0.0994001
0.0983492
0.0971528
0.0960714
0.0952249
0.0946607
0.0944117
0.0943076
0.0942132
0.0939747
0.093479
0.0926981
0.0917156
0.0907197
0.0899455
0.0895751
0.0896111
0.0895331
0.0893508
0.100666
0.1009
0.101085
0.101262
0.10138
0.100977
0.100061
0.0988435
0.0975664
0.0964285
0.0955593
0.0950109
0.094678
0.0944692
0.0942461
0.0938676
0.0932497
0.0923974
0.091421
0.0905139
0.0898754
0.0896587
0.0897406
0.0896868
0.0895861
0.101989
0.10232
0.102537
0.102597
0.10242
0.101731
0.100646
0.0993623
0.0980736
0.0969363
0.0960398
0.095419
0.0950147
0.0947094
0.0943761
0.0938958
0.0932021
0.0923266
0.0913927
0.0905738
0.0900381
0.0899211
0.0899966
0.0899825
0.0899434
0.103179
0.103588
0.103786
0.103688
0.103262
0.102404
0.101247
0.0999517
0.0986796
0.0975641
0.096665
0.0959942
0.0955116
0.0951235
0.0947101
0.0941676
0.0934513
0.0925968
0.0917191
0.0909687
0.0904992
0.0904394
0.0905828
0.0906039
0.0905801
0.104255
0.104746
0.104875
0.104604
0.104011
0.103072
0.1019
0.100624
0.0993772
0.0982699
0.0973778
0.0967052
0.0961916
0.095766
0.0953218
0.0947666
0.0940625
0.0932425
0.0924087
0.0916998
0.0912539
0.0912042
0.0914142
0.0914925
0.0914948
0.105171
0.105753
0.105805
0.105402
0.104722
0.103765
0.102619
0.101393
0.100205
0.0991479
0.098277
0.097598
0.097073
0.0966384
0.096195
0.0956594
0.0949944
0.0942273
0.0934443
0.0927634
0.0923161
0.0922474
0.0925176
0.0926356
0.0926761
0.105812
0.106427
0.106478
0.10605
0.105369
0.104448
0.103365
0.102217
0.101106
0.100114
0.0992903
0.0986381
0.0981306
0.0977119
0.0972972
0.0968112
0.0962166
0.0955262
0.0947999
0.0941378
0.0936775
0.0935785
0.0938723
0.0940414
0.0941296
0.106289
0.106885
0.106977
0.106602
0.105972
0.10512
0.104126
0.103076
0.102061
0.101155
0.100401
0.0998019
0.0993368
0.0989575
0.0985922
0.0981749
0.0976691
0.0970696
0.0964105
0.0957751
0.0953177
0.0952127
0.0955021
0.0956702
0.0957743
0.106797
0.107395
0.1075
0.107177
0.106601
0.105821
0.104921
0.103976
0.103066
0.102259
0.10159
0.101063
0.100656
0.10033
0.100022
0.0996732
0.0992378
0.0987535
0.0981796
0.0975983
0.0971828
0.0970837
0.0973182
0.0974772
0.0975857
0.10735
0.10795
0.108084
0.107806
0.107284
0.106575
0.105767
0.104927
0.104126
0.103422
0.102846
0.102399
0.102061
0.101798
0.101561
0.101302
0.10099
0.100558
0.100051
0.0995527
0.0992325
0.0991673
0.0993335
0.0994512
0.0995613
0.107954
0.108554
0.108719
0.10849
0.108023
0.107389
0.106672
0.105934
0.10524
0.104639
0.104158
0.103794
0.103528
0.103329
0.10316
0.102972
0.102724
0.10238
0.101974
0.101605
0.101423
0.101425
0.101521
0.1016
0.101699
0.108659
0.109262
0.109402
0.109208
0.108813
0.108258
0.107634
0.106999
0.106409
0.10591
0.105523
0.105244
0.105056
0.104927
0.104824
0.104703
0.104515
0.104275
0.103986
0.103758
0.103704
0.103763
0.103814
0.103873
0.103975
0.109356
0.109953
0.110149
0.110013
0.109677
0.109193
0.108657
0.10812
0.107632
0.107231
0.106931
0.106728
0.106589
0.106541
0.106546
0.106533
0.106478
0.106299
0.106111
0.10601
0.106049
0.106133
0.106191
0.106251
0.106343
0.110103
0.11071
0.110989
0.110916
0.110606
0.110184
0.109732
0.109292
0.108905
0.108602
0.108393
0.108268
0.108259
0.108299
0.108365
0.108417
0.108416
0.108356
0.108301
0.108333
0.108448
0.108564
0.108666
0.108733
0.108794
0.110903
0.111501
0.11173
0.111702
0.111499
0.111183
0.110838
0.110508
0.110232
0.110041
0.109949
0.10996
0.110076
0.110194
0.110288
0.110403
0.110474
0.110522
0.110587
0.110733
0.110909
0.111084
0.11123
0.111304
0.111315
0.111644
0.112211
0.112497
0.112544
0.112439
0.112234
0.111999
0.111781
0.111617
0.111535
0.111552
0.111672
0.111789
0.111982
0.112215
0.112446
0.112636
0.112782
0.11295
0.11318
0.113416
0.113657
0.113861
0.113944
0.113894
0.112524
0.113081
0.113464
0.113578
0.113505
0.113379
0.113241
0.113128
0.113067
0.113079
0.113171
0.113336
0.113569
0.113873
0.114234
0.114549
0.114832
0.115083
0.115344
0.115634
0.115923
0.116218
0.116485
0.116594
0.116491
0.113552
0.114062
0.11439
0.114553
0.114611
0.114602
0.114577
0.114572
0.114615
0.114727
0.114918
0.115186
0.115576
0.115964
0.116333
0.116712
0.117086
0.11742
0.117752
0.118084
0.118407
0.118744
0.119077
0.11921
0.119076
0.114679
0.115136
0.115517
0.115746
0.115897
0.115986
0.11606
0.116154
0.116293
0.116499
0.116785
0.117159
0.117536
0.117983
0.118432
0.1189
0.119361
0.119779
0.120168
0.120533
0.120881
0.121243
0.121611
0.121762
0.121625
0.116109
0.116551
0.117001
0.117272
0.117429
0.117572
0.117721
0.117894
0.11811
0.118383
0.11872
0.119114
0.11957
0.120091
0.120675
0.121226
0.121725
0.122192
0.122617
0.123009
0.123378
0.123748
0.124119
0.124266
0.12413
0.117814
0.118228
0.118592
0.118878
0.119113
0.119332
0.119557
0.119804
0.120089
0.120426
0.120824
0.121278
0.121833
0.122363
0.122944
0.123535
0.124107
0.124634
0.125102
0.125521
0.125908
0.12628
0.126634
0.126773
0.126637
0.119668
0.120068
0.120436
0.120724
0.12102
0.121303
0.121592
0.121901
0.122246
0.122642
0.1231
0.123631
0.124163
0.124764
0.12535
0.125963
0.126578
0.127146
0.127651
0.128094
0.128493
0.128868
0.129208
0.129335
0.129196
0.121858
0.122278
0.12267
0.122943
0.123213
0.123513
0.12384
0.124194
0.124582
0.125013
0.125497
0.126038
0.126606
0.127254
0.127938
0.12859
0.129191
0.12977
0.130299
0.130767
0.131185
0.131566
0.131888
0.132003
0.131857
0.124365
0.124768
0.125063
0.125338
0.125613
0.125941
0.126304
0.126697
0.127121
0.127583
0.12809
0.12864
0.129274
0.129884
0.13054
0.131209
0.13187
0.132491
0.133058
0.133562
0.134013
0.134408
0.134712
0.134812
0.134659
0.127066
0.127422
0.127727
0.128004
0.128305
0.128649
0.129032
0.129451
0.129903
0.130387
0.130912
0.131483
0.132108
0.132767
0.1334
0.134066
0.134743
0.135385
0.13598
0.136518
0.137005
0.137421
0.137707
0.137799
0.137644
0.130224
0.130547
0.130881
0.131145
0.131441
0.131746
0.132114
0.132537
0.133
0.133497
0.134028
0.134593
0.135186
0.135851
0.136559
0.137242
0.137885
0.138524
0.139132
0.139695
0.140211
0.140648
0.140926
0.141016
0.140866
0.13396
0.134224
0.134468
0.134739
0.135004
0.135298
0.135656
0.136075
0.136541
0.137043
0.137574
0.138131
0.13872
0.139338
0.139992
0.140658
0.141329
0.141981
0.142603
0.143184
0.143714
0.144162
0.144446
0.144552
0.144418
0.138272
0.138469
0.138679
0.138906
0.139156
0.139482
0.139854
0.140278
0.140748
0.141253
0.141789
0.142355
0.14295
0.143544
0.144116
0.144723
0.145351
0.145971
0.146572
0.147145
0.14767
0.148112
0.148421
0.148556
0.148452
0.143478
0.143654
0.143851
0.144044
0.144295
0.144613
0.145002
0.145447
0.145933
0.146449
0.146986
0.147543
0.148109
0.148673
0.149248
0.149805
0.150342
0.150866
0.151383
0.151887
0.152363
0.152781
0.153104
0.153273
0.153211
0.149926
0.150097
0.150303
0.150584
0.150952
0.151397
0.151903
0.152444
0.153
0.153557
0.154107
0.154642
0.155157
0.155663
0.156161
0.156624
0.157052
0.157444
0.157812
0.158161
0.15849
0.158792
0.159043
0.159189
0.159155
0.158383
0.158634
0.159048
0.159631
0.160337
0.161086
0.16183
0.162548
0.163228
0.163863
0.164456
0.165005
0.165508
0.165964
0.166364
0.166718
0.167017
0.167263
0.167441
0.167544
0.167573
0.167538
0.167465
0.167381
0.167242
0.170506
0.171203
0.172245
0.173455
0.17463
0.175689
0.176625
0.177451
0.178183
0.178836
0.179429
0.179974
0.180475
0.18093
0.181336
0.181686
0.181972
0.182178
0.182272
0.182224
0.181983
0.181489
0.180767
0.179994
0.179444
0.187756
0.188377
0.189756
0.191165
0.192315
0.193183
0.193862
0.194421
0.194912
0.195367
0.19581
0.196258
0.196715
0.197179
0.197649
0.198124
0.198587
0.19902
0.199396
0.199672
0.19975
0.199449
0.198688
0.197708
0.197525
0.189597
0.189644
0.189969
0.190572
0.19118
0.191704
0.192157
0.192568
0.192961
0.193352
0.193748
0.194155
0.194578
0.195018
0.195473
0.195942
0.196417
0.196887
0.197345
0.197776
0.198146
0.198404
0.1986
0.199059
0.19965
0.182964
0.181093
0.178016
0.176417
0.176017
0.17607
0.176284
0.176592
0.176961
0.177362
0.177767
0.178154
0.178517
0.178855
0.17917
0.179466
0.179761
0.180077
0.180442
0.180879
0.181399
0.182187
0.184216
0.189346
0.193421
0.159814
0.157594
0.147631
0.140402
0.137786
0.13678
0.136083
0.135571
0.135349
0.135397
0.135606
0.135874
0.13613
0.13637
0.136617
0.136906
0.137341
0.138045
0.139099
0.140421
0.141982
0.144301
0.150312
0.164313
0.172545
0.141718
0.137313
0.125063
0.115551
0.111152
0.10547
0.100419
0.0973377
0.0962022
0.096494
0.0974515
0.0986007
0.0994621
0.099959
0.100197
0.100387
0.100867
0.102098
0.104746
0.109111
0.112905
0.116366
0.125314
0.143112
0.151192
0.132203
0.123035
0.105737
0.0853686
0.0641856
0.0509948
0.0441894
0.0419687
0.0440185
0.0490455
0.0557301
0.0616838
0.0655692
0.0669533
0.0664976
0.0644916
0.0625501
0.0628187
0.0655572
0.0730609
0.0876676
0.0996421
0.112453
0.127977
0.139626
0.117949
0.0940013
0.0549034
0.0209924
0.00765494
0.00288452
0.00190032
0.00201161
0.0037004
0.00872503
0.0157099
0.022286
0.0264452
0.0274966
0.0262866
0.0223361
0.0184906
0.0174352
0.0184822
0.0233045
0.0356094
0.061762
0.091863
0.115458
0.133256
0.100338
0.0567251
0.0186718
0.00265995
9.86661e-05
3.34726e-05
2.68457e-05
2.51754e-05
3.21373e-05
0.000277319
0.00181534
0.00392638
0.00540188
0.00572316
0.00514212
0.00349055
0.00215231
0.00152426
0.00115531
0.0020374
0.00638737
0.0203975
0.0509385
0.0857335
0.119074
)
;

boundaryField
{
    inlet
    {
        type            fixedValue;
        value           uniform 3.75e-05;
    }
    outlet
    {
        type            inletOutlet;
        phi             phi.water;
        inletValue      uniform 3.75e-05;
        value           nonuniform List<scalar> 
25
(
0.100338
0.0567251
0.0186718
3.75e-05
3.75e-05
3.75e-05
3.75e-05
3.75e-05
3.75e-05
0.000277319
0.00181534
0.00392638
0.00540188
0.00572316
0.00514212
0.00349055
0.00215231
0.00152426
3.75e-05
0.0020374
0.00638737
0.0203975
0.0509385
0.0857335
0.119074
)
;
    }
    walls
    {
        type            kqRWallFunction;
        value           nonuniform List<scalar> 
150
(
0.0561419
0.0752347
0.0815065
0.0836961
0.0853819
0.0885766
0.0918407
0.0948228
0.0968916
0.0981544
0.0987823
0.0982917
0.097508
0.0966659
0.0957635
0.094918
0.0944943
0.0943834
0.094141
0.0933354
0.0912308
0.0874639
0.0822689
0.0770043
0.0740223
0.0735911
0.0753579
0.0783744
0.081646
0.0850825
0.0884996
0.0914867
0.0939259
0.0958954
0.0976216
0.0992056
0.100666
0.101989
0.103179
0.104255
0.105171
0.105812
0.106289
0.106797
0.10735
0.107954
0.108659
0.109356
0.110103
0.110903
0.111644
0.112524
0.113552
0.114679
0.116109
0.117814
0.119668
0.121858
0.124365
0.127066
0.130224
0.13396
0.138272
0.143478
0.149926
0.158383
0.170506
0.187756
0.189597
0.182964
0.159814
0.141718
0.132203
0.117949
0.100338
0.0364181
0.0537916
0.060819
0.0647114
0.066531
0.0673443
0.0674287
0.0672338
0.0667351
0.0665046
0.0672296
0.0692941
0.0728134
0.0767433
0.0799277
0.0830975
0.0861785
0.0886032
0.0900627
0.090968
0.0917859
0.0925327
0.0931181
0.093531
0.0937174
0.0937102
0.0934184
0.0927924
0.0917874
0.0905675
0.0893162
0.0883851
0.0880984
0.0883531
0.0888968
0.0893508
0.0895861
0.0899434
0.0905801
0.0914948
0.0926761
0.0941296
0.0957743
0.0975857
0.0995613
0.101699
0.103975
0.106343
0.108794
0.111315
0.113894
0.116491
0.119076
0.121625
0.12413
0.126637
0.129196
0.131857
0.134659
0.137644
0.140866
0.144418
0.148452
0.153211
0.159155
0.167242
0.179444
0.197525
0.19965
0.193421
0.172545
0.151192
0.139626
0.133256
0.119074
)
;
    }
    defaultFaces
    {
        type            empty;
    }
}


// ************************************************************************* //
