/*--------------------------------*- C++ -*----------------------------------*\
| =========                 |                                                 |
| \\      /  F ield         | OpenFOAM: The Open Source CFD Toolbox           |
|  \\    /   O peration     | Version:  2.3.0                                 |
|   \\  /    A nd           | Web:      www.OpenFOAM.org                      |
|    \\/     M anipulation  |                                                 |
\*---------------------------------------------------------------------------*/
FoamFile
{
    version     2.0;
    format      ascii;
    class       volScalarField;
    location    "0.61";
    object      alpha.particlesMean;
}
// * * * * * * * * * * * * * * * * * * * * * * * * * * * * * * * * * * * * * //

dimensions      [0 0 0 0 0 0 0];

internalField   nonuniform List<scalar> 
6000
(
0.403304
0.411699
0.41336
0.41708
0.414392
0.413479
0.416677
0.419151
0.416233
0.409945
0.404893
0.404709
0.398875
0.392199
0.392856
0.390458
0.394182
0.401546
0.40478
0.412379
0.417975
0.419282
0.417464
0.412983
0.411658
0.415176
0.417639
0.414446
0.41141
0.404023
0.392513
0.391926
0.386813
0.38214
0.383979
0.384639
0.387168
0.384584
0.381174
0.381941
0.381311
0.380759
0.382047
0.383531
0.385343
0.383769
0.378137
0.376106
0.376516
0.378474
0.384844
0.389496
0.38859
0.384617
0.381419
0.380137
0.380597
0.388832
0.39139
0.390557
0.391889
0.390766
0.384538
0.382953
0.38833
0.388786
0.388427
0.380507
0.381448
0.388184
0.388563
0.386204
0.386129
0.386956
0.392541
0.385324
0.376034
0.376924
0.380557
0.382671
0.384313
0.386624
0.38967
0.382974
0.379439
0.379059
0.38143
0.384993
0.389513
0.389692
0.390289
0.380539
0.376487
0.377502
0.382406
0.387476
0.382695
0.377331
0.378509
0.387544
0.391763
0.388983
0.385357
0.387347
0.391644
0.379082
0.373851
0.379686
0.384485
0.386429
0.381166
0.379272
0.380829
0.375308
0.373641
0.377611
0.377893
0.380744
0.382036
0.391225
0.379844
0.371958
0.371291
0.369818
0.373191
0.375621
0.370689
0.366614
0.371738
0.38213
0.388113
0.384714
0.378781
0.377098
0.382745
0.372177
0.37322
0.378162
0.385992
0.384269
0.376528
0.371614
0.370233
0.365673
0.369485
0.372428
0.375061
0.378375
0.376487
0.382294
0.371414
0.369273
0.371279
0.370842
0.368483
0.364855
0.357798
0.357387
0.363946
0.374441
0.380712
0.379466
0.372155
0.37515
0.380343
0.372607
0.369633
0.37533
0.380816
0.377167
0.369873
0.365844
0.362068
0.360099
0.363586
0.369691
0.375718
0.378749
0.373077
0.375166
0.372033
0.37147
0.374197
0.37255
0.367123
0.358141
0.351445
0.352697
0.359593
0.37158
0.376881
0.377334
0.375983
0.382292
0.386568
0.378638
0.372309
0.373382
0.378487
0.373165
0.367558
0.362203
0.358097
0.355272
0.359189
0.368374
0.37834
0.379642
0.37665
0.37749
0.379433
0.380072
0.379332
0.375069
0.367552
0.359094
0.350009
0.349647
0.357154
0.372141
0.377651
0.377144
0.383904
0.390967
0.391107
0.385466
0.375953
0.374685
0.378443
0.375659
0.367469
0.360317
0.355548
0.355627
0.360634
0.371382
0.380574
0.385225
0.385987
0.386944
0.39764
0.394648
0.391124
0.378609
0.372264
0.36305
0.353935
0.350586
0.356138
0.367907
0.37704
0.378331
0.39268
0.396266
0.39523
0.38741
0.37933
0.374609
0.378116
0.37383
0.365396
0.361826
0.359858
0.361167
0.364442
0.374591
0.385108
0.397009
0.401997
0.406944
0.419823
0.411366
0.401221
0.383701
0.376742
0.368653
0.362615
0.354531
0.353785
0.360302
0.375069
0.383938
0.397373
0.399125
0.395456
0.387565
0.379379
0.375617
0.376165
0.367495
0.361747
0.365206
0.367758
0.365967
0.368468
0.377206
0.387556
0.409372
0.418441
0.42947
0.440126
0.426257
0.407234
0.38689
0.379086
0.372137
0.367903
0.358107
0.351193
0.356004
0.377723
0.393205
0.400502
0.40026
0.395474
0.387159
0.380966
0.379046
0.378455
0.365133
0.362881
0.368497
0.368703
0.368772
0.372112
0.37871
0.389582
0.414146
0.432733
0.449077
0.457106
0.437761
0.410205
0.388562
0.378869
0.372241
0.36733
0.36087
0.34984
0.351545
0.376527
0.402099
0.402347
0.400615
0.394549
0.387467
0.38337
0.385612
0.380108
0.365661
0.366911
0.367927
0.366639
0.368575
0.37357
0.379208
0.389869
0.415355
0.443307
0.467002
0.470233
0.443482
0.41487
0.388198
0.377025
0.369944
0.364115
0.360847
0.350031
0.347238
0.368122
0.405891
0.40523
0.400076
0.392852
0.387283
0.387976
0.393043
0.379443
0.369438
0.368453
0.364375
0.361526
0.365938
0.372561
0.378923
0.390132
0.418409
0.451113
0.483645
0.480059
0.446744
0.421885
0.387751
0.37372
0.366929
0.359965
0.356691
0.350154
0.34504
0.357924
0.398297
0.409045
0.400726
0.390543
0.387885
0.394222
0.395947
0.379473
0.370783
0.365003
0.358473
0.354635
0.361081
0.370567
0.377541
0.392835
0.429616
0.462544
0.495392
0.488417
0.452446
0.429591
0.387146
0.370999
0.362473
0.35586
0.351728
0.34856
0.343849
0.349355
0.382119
0.409076
0.402255
0.390758
0.390624
0.400542
0.395652
0.377379
0.366722
0.358924
0.351201
0.347798
0.355336
0.367103
0.378053
0.402852
0.449246
0.476189
0.502352
0.494073
0.456966
0.436843
0.389992
0.367725
0.357235
0.351869
0.34756
0.345398
0.342767
0.344275
0.358805
0.40217
0.40314
0.391895
0.394836
0.405594
0.391282
0.371573
0.360477
0.351817
0.344306
0.341305
0.349845
0.36291
0.385026
0.422227
0.471435
0.489504
0.505885
0.493356
0.458793
0.444656
0.398368
0.365091
0.352339
0.348453
0.343579
0.341878
0.341241
0.341274
0.345314
0.38504
0.403307
0.393393
0.398507
0.407492
0.384337
0.364765
0.354384
0.344939
0.337682
0.336398
0.345316
0.35835
0.399044
0.443815
0.492562
0.499803
0.506787
0.489719
0.461728
0.452074
0.411551
0.362648
0.348072
0.344431
0.339879
0.337904
0.339028
0.338625
0.33997
0.367753
0.400985
0.395244
0.399193
0.406783
0.378388
0.359506
0.34861
0.338671
0.331946
0.330789
0.340263
0.35978
0.410201
0.462099
0.502693
0.498885
0.50658
0.485914
0.464577
0.458099
0.424768
0.362113
0.343472
0.34028
0.335541
0.333897
0.335416
0.33638
0.337348
0.355768
0.394815
0.395616
0.397991
0.404707
0.377188
0.354298
0.3436
0.333018
0.326636
0.326068
0.334604
0.361448
0.411874
0.473876
0.501045
0.490908
0.502569
0.485003
0.466632
0.463182
0.43529
0.361532
0.338956
0.335821
0.331399
0.329914
0.33123
0.333432
0.336335
0.351283
0.389376
0.394664
0.395258
0.401473
0.378161
0.351292
0.33876
0.32867
0.323202
0.323259
0.32868
0.361937
0.405088
0.4708
0.491614
0.475696
0.495854
0.486125
0.46689
0.469103
0.444559
0.365845
0.335295
0.332044
0.327733
0.326438
0.32773
0.330999
0.335334
0.348939
0.384935
0.392416
0.392559
0.396277
0.382297
0.349819
0.335824
0.326412
0.323286
0.322991
0.326923
0.356908
0.393045
0.459692
0.473124
0.461977
0.482568
0.484795
0.468431
0.473515
0.451183
0.374905
0.335255
0.330964
0.327924
0.325868
0.326998
0.330392
0.335027
0.346402
0.376076
0.391104
0.388935
0.392539
0.384871
0.352042
0.334364
0.328112
0.324596
0.323607
0.32492
0.351197
0.383223
0.449363
0.463045
0.456144
0.479274
0.482211
0.467956
0.4749
0.456473
0.384483
0.3375
0.331893
0.330844
0.32882
0.329564
0.331682
0.335385
0.343095
0.366176
0.384764
0.385122
0.387655
0.385111
0.354192
0.336863
0.330128
0.326692
0.323945
0.324748
0.345616
0.383502
0.447723
0.465668
0.461026
0.480997
0.482502
0.463393
0.469446
0.46123
0.393226
0.340415
0.333421
0.332881
0.3319
0.331836
0.333671
0.336656
0.341705
0.357324
0.375061
0.380938
0.383245
0.3814
0.357914
0.338862
0.33322
0.327663
0.324996
0.324232
0.344435
0.388246
0.447962
0.475337
0.470394
0.48261
0.484325
0.458777
0.46636
0.467507
0.404705
0.343805
0.333875
0.334644
0.333746
0.334029
0.335151
0.338052
0.341336
0.351116
0.366553
0.376122
0.377324
0.378201
0.359734
0.342061
0.33461
0.329845
0.324231
0.326462
0.34534
0.39266
0.448046
0.478203
0.475487
0.484074
0.48453
0.455045
0.463928
0.470324
0.419228
0.349452
0.336175
0.336087
0.335856
0.335509
0.336996
0.338925
0.342035
0.347242
0.359329
0.370263
0.373635
0.373174
0.361787
0.342513
0.337152
0.32992
0.325529
0.328475
0.348627
0.398629
0.450987
0.472473
0.474709
0.486871
0.482099
0.452554
0.460141
0.470935
0.431034
0.360394
0.340517
0.338342
0.337084
0.337823
0.338277
0.340345
0.342609
0.347103
0.353417
0.365341
0.369471
0.368451
0.359081
0.343339
0.336612
0.331367
0.326227
0.336329
0.353275
0.407112
0.455073
0.469894
0.467647
0.487268
0.475705
0.452157
0.456202
0.468234
0.439132
0.373981
0.347613
0.339147
0.339727
0.339587
0.340893
0.341468
0.344191
0.34769
0.353036
0.359092
0.366292
0.362144
0.354111
0.341264
0.33655
0.331182
0.333755
0.347805
0.35855
0.417285
0.458873
0.467968
0.462969
0.485499
0.470467
0.452159
0.454703
0.463965
0.445004
0.386482
0.353877
0.342518
0.340629
0.342478
0.34284
0.344242
0.345388
0.349168
0.352917
0.357388
0.361148
0.358665
0.348407
0.34059
0.335121
0.336081
0.34417
0.35951
0.363569
0.428714
0.462827
0.466412
0.461484
0.483312
0.468697
0.451149
0.452955
0.45999
0.450704
0.398058
0.359846
0.345077
0.342258
0.343642
0.345776
0.346381
0.34759
0.350137
0.354424
0.357044
0.360542
0.355863
0.34759
0.340828
0.338162
0.341333
0.356676
0.361273
0.370939
0.440758
0.467031
0.465832
0.460217
0.479942
0.471192
0.44703
0.451045
0.4567
0.456443
0.411445
0.365835
0.349318
0.342614
0.34534
0.346363
0.348591
0.349365
0.351585
0.354104
0.357444
0.359146
0.353529
0.34604
0.342786
0.340128
0.348733
0.360298
0.361784
0.381405
0.454188
0.472428
0.467597
0.46034
0.477295
0.480106
0.44512
0.449942
0.455149
0.462198
0.428123
0.374876
0.352059
0.345623
0.346153
0.348793
0.349486
0.351611
0.352133
0.354843
0.356065
0.358098
0.349962
0.346167
0.343324
0.344684
0.352122
0.361833
0.361004
0.394115
0.467675
0.478033
0.469394
0.458692
0.475734
0.488379
0.448646
0.451499
0.45563
0.468151
0.446313
0.386388
0.356896
0.347541
0.34928
0.350555
0.352034
0.352487
0.354336
0.354834
0.355671
0.355497
0.348694
0.345398
0.345319
0.346756
0.356159
0.360468
0.362432
0.408383
0.478522
0.481321
0.468346
0.457595
0.476172
0.488395
0.458161
0.458848
0.459592
0.472683
0.464488
0.396642
0.360694
0.352242
0.352032
0.354195
0.354241
0.35474
0.355835
0.355813
0.354295
0.353404
0.347455
0.34574
0.345594
0.350055
0.360797
0.364122
0.366
0.424255
0.486101
0.480431
0.46658
0.454952
0.477432
0.484661
0.46599
0.469379
0.467262
0.473815
0.480424
0.406749
0.367355
0.356691
0.356241
0.357398
0.357903
0.356905
0.358039
0.35657
0.354129
0.350632
0.3477
0.345797
0.346977
0.354872
0.368826
0.367601
0.373784
0.439311
0.490307
0.477088
0.463611
0.45373
0.477723
0.480698
0.466678
0.474512
0.475554
0.475046
0.487747
0.417568
0.373371
0.362549
0.359577
0.361414
0.361079
0.360028
0.359915
0.358636
0.354106
0.349713
0.348152
0.346711
0.347522
0.362397
0.37257
0.372331
0.381868
0.451645
0.488984
0.471997
0.460897
0.451397
0.476086
0.475669
0.459073
0.475951
0.482018
0.478596
0.489241
0.422571
0.380404
0.366268
0.362804
0.364508
0.364633
0.36282
0.362263
0.360631
0.355095
0.350371
0.349097
0.34771
0.348345
0.366221
0.374576
0.37577
0.390025
0.459203
0.483534
0.467162
0.458339
0.450042
0.472692
0.471431
0.454599
0.476259
0.48304
0.480213
0.488236
0.423591
0.384111
0.368881
0.364278
0.366154
0.366863
0.365442
0.364186
0.362638
0.356101
0.351465
0.350298
0.349185
0.348688
0.365776
0.374249
0.380124
0.396537
0.461712
0.476101
0.463137
0.457605
0.446919
0.467041
0.470403
0.461358
0.477679
0.483426
0.479855
0.483518
0.423405
0.386856
0.368937
0.364039
0.365955
0.36723
0.367024
0.365708
0.363748
0.356944
0.35283
0.351548
0.350909
0.350544
0.362555
0.373774
0.382914
0.401754
0.46056
0.46838
0.459975
0.45484
0.446204
0.460113
0.477887
0.473862
0.487403
0.48185
0.477906
0.475934
0.424117
0.387197
0.367919
0.362967
0.364872
0.366774
0.367504
0.366727
0.363671
0.357393
0.354006
0.353099
0.35267
0.352665
0.359354
0.372307
0.385301
0.405371
0.457514
0.461077
0.45457
0.451096
0.44373
0.454763
0.48487
0.482685
0.494486
0.482689
0.476389
0.468815
0.426035
0.387195
0.366074
0.361194
0.363912
0.365717
0.36727
0.366668
0.363156
0.357552
0.355552
0.354423
0.354802
0.355009
0.358538
0.371309
0.386051
0.407652
0.454283
0.453061
0.447335
0.445739
0.439283
0.455338
0.490073
0.480113
0.494093
0.486541
0.47234
0.464752
0.429991
0.386338
0.364546
0.360375
0.362291
0.364844
0.36607
0.366086
0.362243
0.358539
0.356609
0.356082
0.35653
0.357856
0.359431
0.369873
0.386768
0.409475
0.450908
0.445154
0.43919
0.438496
0.431462
0.458375
0.49144
0.473431
0.48818
0.483718
0.469677
0.467412
0.436803
0.386443
0.363607
0.358861
0.361476
0.363155
0.365009
0.364754
0.362145
0.359129
0.358082
0.357148
0.358278
0.360275
0.361203
0.368806
0.386601
0.412228
0.4468
0.438141
0.434175
0.434229
0.431325
0.463518
0.488401
0.466687
0.479351
0.478294
0.470344
0.472454
0.44756
0.387218
0.363324
0.358542
0.359815
0.362147
0.363137
0.36379
0.361745
0.360336
0.358903
0.358657
0.359158
0.362257
0.36132
0.367677
0.387013
0.417111
0.44254
0.433284
0.43044
0.433375
0.43772
0.472764
0.481761
0.461559
0.471596
0.473123
0.471975
0.472356
0.456645
0.390015
0.363948
0.357437
0.359187
0.360195
0.362249
0.362368
0.36203
0.36064
0.360277
0.359444
0.360159
0.361588
0.361004
0.36675
0.387661
0.424098
0.439508
0.430755
0.433175
0.441286
0.44893
0.48633
0.476688
0.458564
0.466559
0.470061
0.471627
0.470135
0.459345
0.39342
0.365173
0.357658
0.3574
0.359623
0.360493
0.361959
0.361492
0.361414
0.360428
0.360571
0.359957
0.360741
0.358881
0.365598
0.388771
0.431947
0.441547
0.438254
0.445316
0.456749
0.465831
0.501811
0.476528
0.460238
0.466652
0.469792
0.46948
0.467276
0.458136
0.396603
0.366763
0.356483
0.357066
0.357879
0.35994
0.360299
0.361376
0.360754
0.360887
0.360195
0.360185
0.358892
0.358064
0.363499
0.390479
0.44178
0.449462
0.451567
0.461905
0.475092
0.485171
0.512492
0.481248
0.464669
0.47008
0.469366
0.468709
0.464231
0.457012
0.398923
0.367663
0.356396
0.354975
0.357594
0.357957
0.359607
0.359541
0.360339
0.359559
0.359997
0.358701
0.358335
0.356305
0.362052
0.394751
0.452882
0.45926
0.467027
0.479921
0.49063
0.49916
0.514813
0.491841
0.470844
0.47509
0.46946
0.468445
0.463932
0.458178
0.401071
0.368768
0.356304
0.35565
0.355663
0.357437
0.357471
0.358695
0.358149
0.358651
0.358023
0.358203
0.357017
0.359026
0.362281
0.40128
0.462635
0.467633
0.481135
0.496605
0.501204
0.502762
0.51383
0.50509
0.479704
0.481658
0.471533
0.468553
0.466475
0.46331
0.405086
0.370615
0.359478
0.356802
0.357132
0.356168
0.357379
0.356873
0.357762
0.357082
0.358128
0.357837
0.359775
0.360874
0.365247
0.408871
0.469398
0.475743
0.493042
0.507442
0.50916
0.501759
0.511471
0.510379
0.493986
0.49451
0.48133
0.471415
0.47196
0.470032
0.41116
0.372806
0.361264
0.360554
0.358743
0.359149
0.358044
0.358863
0.358162
0.359197
0.359227
0.361058
0.361722
0.364971
0.367345
0.414615
0.473173
0.484084
0.501707
0.511451
0.514753
0.502475
0.508202
0.509411
0.498179
0.504434
0.496057
0.48129
0.479145
0.475979
0.418077
0.373654
0.364828
0.362255
0.36257
0.36104
0.361717
0.360757
0.361679
0.361188
0.362712
0.363096
0.365426
0.36668
0.370878
0.408981
0.47334
0.491358
0.506307
0.511731
0.516307
0.504354
0.50451
0.505831
0.497139
0.503092
0.505427
0.493408
0.48652
0.481235
0.423937
0.375375
0.366442
0.365924
0.364392
0.364762
0.363621
0.364313
0.363653
0.364721
0.364732
0.366566
0.367226
0.370462
0.372554
0.397587
0.469782
0.495127
0.507355
0.510639
0.515823
0.502424
0.500848
0.499448
0.496055
0.50012
0.506358
0.500735
0.493742
0.485355
0.424035
0.375096
0.369846
0.367555
0.367983
0.366485
0.367038
0.366038
0.367087
0.366685
0.36805
0.368494
0.370665
0.37199
0.375961
0.388223
0.456106
0.494533
0.506945
0.509326
0.512678
0.497558
0.497349
0.494967
0.490653
0.496205
0.50354
0.502348
0.499326
0.486587
0.417753
0.374824
0.371297
0.370969
0.369491
0.369707
0.368454
0.369139
0.368774
0.369897
0.369961
0.371726
0.372386
0.375432
0.377409
0.38389
0.431485
0.488325
0.505833
0.508759
0.509172
0.492431
0.494609
0.488394
0.479949
0.487932
0.496156
0.499804
0.501234
0.482182
0.405988
0.374939
0.374243
0.372189
0.372421
0.370773
0.371224
0.370484
0.371634
0.371514
0.372884
0.373413
0.375378
0.376488
0.379544
0.381132
0.407751
0.469715
0.502556
0.508338
0.506206
0.487883
0.492911
0.481165
0.473523
0.481059
0.489019
0.492562
0.499001
0.466761
0.394473
0.376273
0.374844
0.374756
0.373198
0.373261
0.372344
0.373152
0.372819
0.374015
0.374197
0.375787
0.376165
0.37824
0.378438
0.379481
0.391075
0.444363
0.495811
0.507612
0.502791
0.483618
0.494174
0.482877
0.472273
0.476856
0.482978
0.485313
0.491844
0.445531
0.387879
0.376089
0.376824
0.375275
0.375589
0.374434
0.375119
0.374429
0.375305
0.375063
0.37631
0.376521
0.377757
0.377329
0.378694
0.377704
0.385093
0.422142
0.488325
0.505963
0.495979
0.482585
0.495908
0.489961
0.471643
0.476336
0.478801
0.478979
0.483177
0.430712
0.385931
0.377874
0.377164
0.377754
0.376809
0.37737
0.376588
0.37733
0.376709
0.377449
0.377366
0.378431
0.377879
0.378256
0.377718
0.379523
0.383378
0.406006
0.475717
0.503223
0.490333
0.482461
0.496578
0.497036
0.478097
0.476853
0.477024
0.474855
0.475381
0.425879
0.388275
0.3793
0.380024
0.37927
0.379993
0.379008
0.379667
0.379055
0.379737
0.379136
0.379912
0.379568
0.380029
0.378586
0.380152
0.380682
0.384516
0.397467
0.460935
0.498215
0.483014
0.481535
0.497535
0.49906
0.483962
0.484918
0.476805
0.473711
0.469604
0.425661
0.391233
0.382616
0.381717
0.382647
0.38181
0.382306
0.381519
0.382297
0.381698
0.382337
0.381928
0.382567
0.381666
0.381656
0.381375
0.383587
0.385964
0.395863
0.450461
0.488067
0.477452
0.478101
0.498793
0.498923
0.486119
0.491501
0.482148
0.475584
0.464671
0.427154
0.396079
0.384737
0.385277
0.384693
0.385324
0.384362
0.384949
0.38446
0.385103
0.384646
0.385355
0.384896
0.385199
0.383468
0.384563
0.38507
0.389091
0.397828
0.447242
0.477642
0.471505
0.468422
0.493477
0.498624
0.486706
0.494255
0.488713
0.476267
0.461466
0.429664
0.400756
0.388798
0.387519
0.388407
0.387596
0.388011
0.387351
0.388106
0.387614
0.388251
0.388058
0.388619
0.387741
0.387238
0.386159
0.388431
0.391652
0.401463
0.450789
0.470601
0.466375
0.46518
0.483603
0.497696
0.487222
0.49352
0.492359
0.476633
0.460003
0.432114
0.405449
0.391909
0.391386
0.390914
0.391355
0.39058
0.391128
0.390806
0.391395
0.391085
0.391858
0.391583
0.391709
0.389696
0.389727
0.390379
0.395503
0.406164
0.457114
0.469313
0.469356
0.465777
0.479608
0.496928
0.486964
0.491951
0.493211
0.477158
0.460404
0.434624
0.408294
0.396287
0.39395
0.39476
0.393969
0.394382
0.393899
0.394618
0.394313
0.394934
0.395003
0.395598
0.394664
0.393748
0.391782
0.394193
0.398709
0.41271
0.464452
0.470881
0.475359
0.466723
0.47838
0.496719
0.48579
0.490485
0.492986
0.47834
0.46267
0.437724
0.411144
0.39891
0.39781
0.397452
0.397747
0.397187
0.397695
0.397565
0.39813
0.39811
0.398944
0.398968
0.398743
0.396301
0.395574
0.396501
0.402825
0.423389
0.472122
0.473427
0.480123
0.467859
0.479345
0.496316
0.484207
0.488565
0.492313
0.481503
0.467826
0.44158
0.41323
0.402521
0.400273
0.401202
0.400524
0.400957
0.400656
0.401352
0.401264
0.402017
0.402425
0.403162
0.401907
0.400005
0.397824
0.400449
0.406869
0.437091
0.478978
0.476223
0.482259
0.469825
0.483099
0.495811
0.482312
0.486762
0.491501
0.485601
0.47492
0.447571
0.416117
0.405105
0.403572
0.403871
0.404146
0.403835
0.40437
0.404438
0.405063
0.405473
0.406569
0.406935
0.405927
0.402204
0.401417
0.40287
0.41162
0.450074
0.483807
0.478505
0.482803
0.472757
0.48803
0.494879
0.480305
0.485072
0.490406
0.489539
0.481735
0.455255
0.419621
0.408716
0.405992
0.407184
0.40676
0.407291
0.407286
0.408091
0.408321
0.409536
0.41079
0.411622
0.408981
0.405322
0.403201
0.406522
0.415856
0.461149
0.486051
0.479824
0.483446
0.477279
0.490868
0.493026
0.477156
0.484108
0.489752
0.492574
0.486533
0.460724
0.424862
0.411489
0.409957
0.409936
0.41015
0.410093
0.410938
0.411395
0.412428
0.41381
0.415905
0.415819
0.412432
0.407005
0.405868
0.408475
0.419435
0.470611
0.486716
0.480944
0.485963
0.4823
0.490867
0.491283
0.475556
0.483524
0.48944
0.49414
0.4877
0.461045
0.429248
0.414621
0.412006
0.413397
0.413325
0.413908
0.414418
0.415558
0.41641
0.418554
0.419867
0.419408
0.414122
0.409283
0.407007
0.411083
0.422703
0.477227
0.48685
0.483081
0.490143
0.486541
0.49148
0.487535
0.475892
0.482949
0.487576
0.49312
0.484043
0.458127
0.432393
0.416056
0.413621
0.414361
0.415502
0.415397
0.416634
0.417279
0.418657
0.420337
0.421047
0.419558
0.414471
0.409743
0.409349
0.41241
0.426485
0.480602
0.488363
0.48645
0.492837
0.490139
0.491835
0.481261
0.476357
0.48147
0.485698
0.489529
0.477227
0.45439
0.434678
0.417952
0.41321
0.414143
0.41484
0.415154
0.415709
0.41655
0.417104
0.41832
0.418888
0.416619
0.412727
0.410871
0.410608
0.414989
0.43079
0.482419
0.491068
0.489788
0.495071
0.491221
0.491855
0.475208
0.474332
0.481235
0.483445
0.485462
0.472012
0.452167
0.435916
0.419665
0.413867
0.412694
0.41377
0.413178
0.413982
0.413835
0.414344
0.414144
0.414257
0.412761
0.411961
0.41126
0.413298
0.417091
0.43534
0.48084
0.493462
0.493633
0.498432
0.490581
0.492465
0.469158
0.470945
0.481597
0.4816
0.482434
0.470246
0.451969
0.436598
0.422278
0.415003
0.413823
0.412932
0.413147
0.413
0.413475
0.413227
0.413626
0.413039
0.413129
0.412456
0.413558
0.415023
0.420655
0.440025
0.478989
0.494598
0.497585
0.503552
0.489642
0.492756
0.464107
0.467538
0.480198
0.480457
0.481381
0.470635
0.453464
0.438289
0.424535
0.417797
0.41543
0.414938
0.414379
0.415013
0.414747
0.415319
0.414993
0.415241
0.414604
0.414904
0.415302
0.417953
0.42449
0.444132
0.477395
0.495596
0.500205
0.505302
0.490168
0.491469
0.461293
0.465142
0.479359
0.480174
0.480432
0.472212
0.455889
0.440648
0.427309
0.419734
0.418262
0.416726
0.416969
0.416762
0.417391
0.417191
0.417667
0.417112
0.417269
0.416844
0.418283
0.420065
0.429748
0.447068
0.475479
0.496212
0.502034
0.504907
0.49114
0.489234
0.457222
0.461841
0.478062
0.480132
0.479758
0.474714
0.459288
0.443417
0.429421
0.422868
0.420291
0.419672
0.418889
0.419566
0.419451
0.42009
0.419777
0.420023
0.41934
0.419915
0.420436
0.423743
0.434595
0.450121
0.473928
0.496135
0.503666
0.501975
0.488744
0.484813
0.452263
0.456883
0.476771
0.479862
0.480111
0.478012
0.463946
0.44663
0.432368
0.42511
0.42354
0.421988
0.421877
0.421743
0.422483
0.422409
0.422871
0.422388
0.422416
0.422479
0.423754
0.427129
0.439584
0.454015
0.473757
0.495621
0.5037
0.498819
0.482142
0.478601
0.448
0.452744
0.474628
0.478938
0.480933
0.480599
0.469274
0.450986
0.435414
0.428326
0.426134
0.425541
0.424234
0.424866
0.424948
0.425646
0.425453
0.42573
0.425098
0.426023
0.426779
0.431996
0.44409
0.458907
0.475192
0.494911
0.50237
0.494668
0.474847
0.472331
0.446665
0.450454
0.470755
0.47777
0.481234
0.481802
0.473741
0.455963
0.439839
0.430807
0.429878
0.428585
0.427542
0.427396
0.428292
0.428425
0.42891
0.428672
0.428706
0.428961
0.431215
0.436281
0.448886
0.4646
0.479064
0.494156
0.499262
0.48878
0.468947
0.468104
0.449409
0.448588
0.463856
0.475925
0.481022
0.482179
0.476724
0.461015
0.444499
0.434315
0.432408
0.432364
0.430279
0.430706
0.431125
0.431909
0.43196
0.432322
0.431494
0.432558
0.43519
0.441062
0.453761
0.470743
0.48404
0.495003
0.495369
0.479919
0.464568
0.467723
0.452965
0.445865
0.457052
0.47353
0.481073
0.482185
0.478488
0.465612
0.449652
0.437404
0.435208
0.434977
0.433827
0.433581
0.434655
0.435009
0.435661
0.435475
0.434997
0.43585
0.43991
0.445108
0.458966
0.476778
0.488662
0.496714
0.492091
0.473406
0.461584
0.468711
0.453878
0.443245
0.454873
0.470528
0.481103
0.482428
0.479594
0.469011
0.454378
0.44158
0.437175
0.437615
0.436997
0.437226
0.437951
0.438766
0.43907
0.439029
0.438489
0.440043
0.443865
0.449919
0.464358
0.482227
0.492334
0.497443
0.489179
0.472163
0.458535
0.468637
0.449796
0.441715
0.455581
0.469874
0.481643
0.48355
0.481248
0.471288
0.4582
0.445003
0.439503
0.438928
0.440763
0.440719
0.441779
0.442313
0.442925
0.442602
0.442408
0.443948
0.448317
0.454424
0.469943
0.487088
0.495383
0.498208
0.489362
0.472906
0.456363
0.465207
0.442582
0.440687
0.456877
0.473409
0.482565
0.48469
0.483944
0.473668
0.460425
0.447917
0.441047
0.440971
0.443918
0.444841
0.445289
0.446189
0.446502
0.44657
0.44632
0.448002
0.451966
0.458881
0.475867
0.491541
0.497174
0.499223
0.492579
0.473193
0.455032
0.458558
0.436685
0.441389
0.457807
0.476922
0.484499
0.484771
0.486144
0.476897
0.461281
0.448955
0.443161
0.443312
0.446753
0.448658
0.449047
0.449843
0.450437
0.450531
0.450607
0.451812
0.455334
0.4629
0.481449
0.49496
0.498269
0.501728
0.494318
0.472652
0.454986
0.451963
0.4313
0.440954
0.458852
0.477562
0.486889
0.485957
0.487384
0.479518
0.460602
0.44925
0.44522
0.446472
0.449601
0.452472
0.452727
0.453682
0.454398
0.454818
0.454984
0.455767
0.458184
0.46633
0.485207
0.497562
0.500613
0.504422
0.494035
0.472502
0.453531
0.445781
0.426294
0.43956
0.459137
0.477267
0.488299
0.487843
0.48848
0.479596
0.459299
0.450108
0.448331
0.449885
0.452953
0.455463
0.456676
0.457513
0.458586
0.459248
0.459512
0.459888
0.461474
0.46858
0.487401
0.499983
0.503044
0.50618
0.493533
0.471849
0.451026
0.439695
0.421543
0.437417
0.458296
0.47693
0.4894
0.488941
0.488915
0.47791
0.458271
0.452236
0.452293
0.453752
0.456332
0.458357
0.460566
0.46163
0.462909
0.463784
0.464186
0.464303
0.465167
0.471074
0.488921
0.50149
0.505182
0.507482
0.493171
0.469972
0.447078
0.432555
0.416842
0.434444
0.456555
0.476493
0.490446
0.489973
0.487936
0.475715
0.460375
0.455877
0.45674
0.457737
0.459778
0.461508
0.464451
0.465954
0.467415
0.46855
0.469001
0.468978
0.469454
0.47478
0.489325
0.501925
0.506888
0.507502
0.492471
0.467093
0.441831
0.4247
0.411725
0.43059
0.453966
0.474863
0.4904
0.491026
0.485837
0.474327
0.464417
0.46151
0.461206
0.461607
0.463264
0.464882
0.468058
0.470392
0.472072
0.47347
0.473715
0.473855
0.474256
0.479868
0.490164
0.501214
0.50744
0.505648
0.490683
0.464401
0.435884
0.416711
0.406266
0.425235
0.45206
0.471552
0.488382
0.4909
0.48455
0.474848
0.469669
0.467602
0.465276
0.465136
0.466457
0.468271
0.471249
0.474581
0.476527
0.477814
0.477986
0.478621
0.480134
0.485504
0.49213
0.500177
0.504665
0.501474
0.487274
0.463244
0.429359
0.408993
0.40133
0.418502
0.44994
0.46705
0.484338
0.489459
0.48443
0.476758
0.474282
0.473515
0.46897
0.467879
0.46916
0.471392
0.47413
0.478197
0.480188
0.480683
0.481534
0.48309
0.486583
0.490873
0.494802
0.499432
0.499962
0.49513
0.482571
0.461688
0.421762
0.401857
0.397454
0.411114
0.445427
0.4621
0.479486
0.487658
0.485234
0.479241
0.477932
0.478642
0.472447
0.470151
0.471495
0.474268
0.476732
0.480724
0.482422
0.482562
0.483821
0.487055
0.492032
0.495497
0.497506
0.498468
0.495967
0.489175
0.476472
0.456507
0.413439
0.397547
0.394774
0.405261
0.439437
0.457635
0.47536
0.485959
0.486329
0.482023
0.481199
0.482529
0.476482
0.472395
0.473514
0.47655
0.478895
0.481785
0.48323
0.483403
0.485281
0.490209
0.495794
0.499031
0.499861
0.497792
0.492971
0.484882
0.470249
0.448591
0.408649
0.399456
0.395423
0.401923
0.434806
0.454305
0.472607
0.484456
0.487611
0.48527
0.484248
0.485633
0.480547
0.475304
0.475514
0.47827
0.480172
0.482041
0.483106
0.483701
0.486566
0.491736
0.497951
0.501106
0.50127
0.497587
0.491703
0.482204
0.465145
0.443912
0.410324
0.405299
0.399139
0.401732
0.431674
0.451966
0.471088
0.483333
0.488735
0.488154
0.486668
0.488006
0.483925
0.478409
0.477756
0.479487
0.480769
0.4819
0.482851
0.483993
0.48758
0.492205
0.498837
0.50188
0.501776
0.497749
0.491743
0.481508
0.463406
0.444603
0.41573
0.412196
0.403845
0.405167
0.430377
0.450266
0.47059
0.482649
0.489222
0.489557
0.487833
0.489352
0.486283
0.481031
0.479868
0.480353
0.480578
0.481477
0.48263
0.484482
0.487903
0.492489
0.498888
0.50161
0.501391
0.498032
0.492263
0.48225
0.463974
0.446857
0.421483
0.419297
0.4084
0.40941
0.431405
0.44938
0.46988
0.481779
0.488575
0.489054
0.487333
0.488904
0.487194
0.482501
0.481089
0.480317
0.479579
0.480274
0.482221
0.483904
0.487346
0.492325
0.498113
0.500251
0.499853
0.497392
0.492059
0.482325
0.463698
0.447369
0.426459
0.425716
0.411048
0.411705
0.431018
0.449153
0.468187
0.479049
0.48593
0.486208
0.484338
0.485827
0.485449
0.481569
0.479316
0.478443
0.476678
0.477528
0.4798
0.48119
0.484536
0.490229
0.495218
0.496818
0.496352
0.494494
0.489259
0.479262
0.460609
0.444699
0.427316
0.428823
0.411389
0.412718
0.429625
0.448681
0.467082
0.476588
0.482677
0.482764
0.480494
0.481808
0.482747
0.479213
0.476522
0.475241
0.473808
0.474283
0.476354
0.477341
0.481021
0.487291
0.491502
0.492672
0.492483
0.490893
0.485012
0.4742
0.455923
0.439328
0.425721
0.427391
0.408111
0.41385
0.428042
0.447184
0.465507
0.475125
0.480296
0.479565
0.476416
0.477509
0.47946
0.475972
0.473083
0.471695
0.470627
0.471078
0.472261
0.473175
0.477019
0.483748
0.487306
0.488292
0.488802
0.486903
0.479833
0.468061
0.450079
0.433972
0.422863
0.420219
0.403238
0.415537
0.427339
0.444627
0.46314
0.473316
0.479047
0.478152
0.473375
0.473343
0.475849
0.472524
0.469769
0.468049
0.46729
0.467454
0.468449
0.46921
0.473116
0.479771
0.482891
0.48403
0.485243
0.482502
0.474005
0.461768
0.444072
0.42905
0.420346
0.410424
0.397716
0.417227
0.425942
0.441341
0.459336
0.470224
0.477159
0.477045
0.47155
0.469976
0.472103
0.469223
0.466423
0.46464
0.463676
0.464043
0.464664
0.465535
0.469312
0.475432
0.478077
0.479708
0.481129
0.477167
0.467503
0.455122
0.437846
0.424322
0.418007
0.400151
0.391884
0.41717
0.424032
0.436988
0.453989
0.466194
0.474652
0.476143
0.470952
0.468556
0.469204
0.466408
0.463521
0.461539
0.460639
0.46082
0.461462
0.462379
0.466217
0.471653
0.473991
0.476355
0.477045
0.471593
0.46102
0.447939
0.431453
0.419562
0.41429
0.390434
0.386215
0.41404
0.421724
0.432101
0.447896
0.461144
0.471108
0.474542
0.470773
0.467521
0.466555
0.463697
0.460623
0.458865
0.457733
0.458013
0.458461
0.459488
0.463306
0.468071
0.470366
0.47318
0.47276
0.465892
0.454576
0.440609
0.425109
0.415437
0.408282
0.381922
0.380183
0.408035
0.419922
0.427212
0.441825
0.455359
0.466536
0.471667
0.469989
0.466375
0.464069
0.461135
0.457825
0.455952
0.454838
0.454932
0.455443
0.456524
0.460635
0.464768
0.467195
0.469767
0.467998
0.460135
0.447885
0.433919
0.419533
0.412601
0.400604
0.373685
0.373971
0.400718
0.418177
0.423092
0.436343
0.449221
0.461507
0.467954
0.467961
0.46465
0.461624
0.458756
0.4551
0.452953
0.451694
0.451802
0.452228
0.453633
0.458103
0.461693
0.464337
0.466123
0.463163
0.454268
0.441255
0.428118
0.415197
0.410585
0.392135
0.365813
0.367472
0.392396
0.414843
0.420121
0.431637
0.443369
0.456214