/*--------------------------------*- C++ -*----------------------------------*\
| =========                 |                                                 |
| \\      /  F ield         | OpenFOAM: The Open Source CFD Toolbox           |
|  \\    /   O peration     | Version:  2.3.0                                 |
|   \\  /    A nd           | Web:      www.OpenFOAM.org                      |
|    \\/     M anipulation  |                                                 |
\*---------------------------------------------------------------------------*/
FoamFile
{
    version     2.0;
    format      ascii;
    class       volScalarField;
    location    "0.61";
    object      nut.air;
}
// * * * * * * * * * * * * * * * * * * * * * * * * * * * * * * * * * * * * * //

dimensions      [0 2 -1 0 0 0 0];

internalField   nonuniform List<scalar> 
6000
(
0.000506708
0.00442964
0.00754194
0.00848847
0.00884662
0.00900155
0.00908044
0.00912291
0.0091303
0.00914754
0.0091788
0.00920561
0.00921609
0.00922471
0.00924184
0.00924256
0.0092281
0.0091919
0.00915776
0.00914342
0.00913436
0.00909045
0.00904788
0.00898734
0.00888831
0.00870926
0.00833088
0.00736374
0.00436941
0.0005064
0.000441229
0.00320049
0.00607767
0.00786142
0.00873927
0.00915934
0.00940297
0.00955716
0.0096559
0.00972815
0.00977495
0.00979508
0.00981055
0.00982184
0.00984126
0.00988586
0.00992162
0.00986373
0.00976173
0.00968016
0.00955026
0.00942013
0.00929082
0.00912835
0.00886367
0.00841134
0.00755059
0.00583318
0.00302325
0.000438499
0.000404769
0.00297566
0.0056249
0.0074663
0.00855551
0.00919902
0.00958504
0.00981738
0.00996669
0.0100887
0.0101851
0.0102675
0.0103405
0.010362
0.0103323
0.0102667
0.0102015
0.0101035
0.0100096
0.00988275
0.00974497
0.00956787
0.00933383
0.00902068
0.00858445
0.00792159
0.00683598
0.00509109
0.00265478
0.000405797
0.000400511
0.00289547
0.00542352
0.00724672
0.00844236
0.00926056
0.00980092
0.0101745
0.0104386
0.0106249
0.0107801
0.0109097
0.010964
0.0109585
0.0108935
0.0107554
0.0105598
0.0103866
0.0102166
0.0100692
0.00991184
0.00965165
0.00928867
0.00884767
0.00827318
0.00746663
0.00631016
0.00462107
0.0024084
0.000375941
0.000391144
0.00282984
0.00529605
0.00708339
0.00838249
0.00934963
0.0100681
0.0105612
0.0108886
0.0111528
0.0113588
0.0115016
0.0115535
0.0115123
0.0113746
0.0111501
0.0108807
0.0106515
0.0104394
0.0102308
0.00999905
0.00969412
0.0092294
0.00867855
0.00800719
0.00711722
0.00588377
0.00421868
0.00216295
0.000337289
0.000367782
0.00272005
0.0051033
0.00693805
0.00832799
0.00945697
0.0103504
0.0109262
0.0113107
0.0116264
0.011869
0.0120223
0.0120685
0.0120078
0.0118394
0.0115781
0.0112779
0.0109952
0.010713
0.0104292
0.0101119
0.00970642
0.00914726
0.00847289
0.00768779
0.00672754
0.00551448
0.00399785
0.00214818
0.000313166
0.000350846
0.00265483
0.00497254
0.00681976
0.00833666
0.00962591
0.010638
0.0113037
0.0117572
0.0121202
0.0123784
0.0125207
0.0125647
0.0125179
0.0123523
0.0120801
0.0117271
0.0113803
0.0110573
0.0107044
0.0102956
0.00979766
0.00916836
0.00841476
0.00755703
0.00652863
0.00527616
0.00379164
0.00207722
0.000300225
0.000340053
0.00259667
0.00486908
0.00675548
0.00840362
0.00982107
0.0109583
0.0117396
0.012276
0.0126616
0.0129063
0.0130287
0.0130677
0.0130298
0.0128756
0.0126035
0.0122638
0.0118652
0.0114483
0.011035
0.0105741
0.0100098
0.00933342
0.00853643
0.00760772
0.00649478
0.00514859
0.00359255
0.00193231
0.000285935
0.000332452
0.00250269
0.0047376
0.00672433
0.00851169
0.0100606
0.0113088
0.0121991
0.0128044
0.0132129
0.0134325
0.0135259
0.0135547
0.0135274
0.0133887
0.0131316
0.012797
0.0124095
0.0119699
0.0114666
0.0109241
0.0103306
0.00963878
0.00881183
0.00781858
0.00662489
0.00515019
0.00343112
0.00166349
0.000265483
0.000322217
0.00235847
0.00457201
0.00670255
0.00863681
0.0102946
0.0116527
0.0126616
0.0133415
0.0137648
0.0139483
0.0139963
0.0140127
0.0140044
0.0138813
0.0136534
0.0133455
0.0129719
0.0125379
0.0120326
0.0114581
0.0108351
0.0100803
0.0091886
0.00815072
0.00688396
0.00530435
0.00342638
0.00145585
0.000240679
0.000306768
0.0020778
0.00438026
0.00671101
0.00881137
0.0105276
0.0119761
0.0131133
0.0138645
0.0143055
0.0144594
0.0144516
0.0144554
0.014468
0.014364
0.0141718
0.0139107
0.0135704
0.0131561
0.0126761
0.012122
0.0114385
0.0106228
0.00965222
0.00853057
0.00720657
0.00558841
0.00363754
0.00151208
0.000224219
0.000285359
0.00178331
0.00427159
0.00679885
0.00899785
0.0107671
0.0122744
0.0135219
0.0143605
0.0148219
0.0149831
0.0149171
0.0148972
0.0149245
0.0148471
0.0146957
0.0144893
0.0141849
0.0137942
0.013327
0.0127573
0.0120301
0.0111686
0.0101741
0.00901034
0.00762323
0.0059502
0.0039397
0.0017016
0.000222967
0.00026454
0.00172355
0.00437997
0.00701084
0.00922442
0.0110177
0.0125465
0.0138724
0.0148213
0.0153039
0.0155222
0.0154077
0.015344
0.0153751
0.0153288
0.0152207
0.0150597
0.0147854
0.0144202
0.0139592
0.0133313
0.0125748
0.0117013
0.0106904
0.00950303
0.00809286
0.00640183
0.00435804
0.00200432
0.000229226
0.000254347
0.00185631
0.00460515
0.00731952
0.0094902
0.01128
0.0128135
0.0141777
0.0152265
0.0157362
0.0160539
0.0159143
0.0157908
0.0158196
0.0158031
0.015721
0.0155923
0.0153494
0.0150009
0.0144817
0.0138377
0.0130936
0.0122184
0.0111888
0.00997512
0.00853628
0.00682068
0.0047439
0.00228733
0.000245653
0.000255198
0.00205211
0.00498754
0.0076536
0.00978408
0.0115547
0.0130774
0.0144431
0.015559
0.0161214
0.0165229
0.0163994
0.016219
0.0162463
0.0162575
0.016188
0.0160853
0.015859
0.015458
0.0149292
0.0143255
0.0136052
0.0127341
0.0116903
0.0104487
0.00897051
0.00719799
0.00503824
0.00246097
0.000261834
0.000263171
0.00235851
0.00535489
0.00798704
0.0100898
0.0118323
0.0133261
0.0146635
0.0158184
0.0164548
0.0168838
0.0168318
0.0166234
0.0166437
0.0166851
0.0166424
0.0165455
0.0162688
0.0158451
0.0153755
0.0148208
0.0141325
0.0132737
0.0122165
0.0109405
0.0094112
0.00756679
0.00530454
0.00259907
0.000275892
0.000280896
0.00255503
0.00564088
0.00830234
0.0103931
0.0121042
0.013551
0.0148298
0.0159761
0.0167194
0.0171233
0.0172887
0.0170717
0.0170417
0.0171045
0.0171031
0.0169589
0.0166345
0.016262
0.0158492
0.0153454
0.0146991
0.0138694
0.0127983
0.0114721
0.00987465
0.00794364
0.00556392
0.00272336
0.000289517
0.00030105
0.00273923
0.00590915
0.00860145
0.0106914
0.0123716
0.0137561
0.0149457
0.0160208
0.0168709
0.0173104
0.0177963
0.0176901
0.0175042
0.0175974
0.017572
0.0173585
0.0170543
0.0167292
0.0163609
0.0159016
0.01531
0.01454
0.0134613
0.0120652
0.010374
0.00833821
0.00582891
0.00284729
0.000303482
0.000321971
0.00293679
0.0061822
0.00889832
0.0109938
0.0126466
0.0139566
0.0150469
0.0160294
0.0169219
0.0175357
0.0181526
0.0183127
0.0180613
0.0181288
0.018036
0.0178015
0.0175329
0.0172401
0.0168943
0.0164593
0.0158979
0.0151662
0.0141377
0.0127039
0.0109116
0.00875661
0.00610669
0.00297733
0.000317775
0.000342103
0.00313842
0.0064617
0.00921326
0.0113205
0.0129444
0.014164
0.0151602
0.0160644
0.0169152
0.0176243
0.0181261
0.018568
0.01855
0.0185771
0.0184678
0.0182696
0.0180386
0.0177617
0.0174167
0.0169649
0.0163913
0.0156114
0.0146447
0.0132954
0.0114517
0.00919446
0.0064057
0.00312013
0.000332193
0.000359837
0.00332627
0.00675659
0.00959071
0.0116754
0.0131982
0.0143246
0.0152547
0.016109
0.0169294
0.017662
0.0181685
0.0185611
0.0188729
0.0189268
0.0188665
0.018725
0.0185284
0.0182565
0.017889
0.0174289
0.0167611
0.0158979
0.014903
0.0136702
0.0119452
0.00963418
0.00673029
0.00328017
0.000346735
0.000373516
0.00348176
0.00707499
0.00990662
0.011891
0.0133186
0.0144218
0.0153328
0.0161564
0.0169553
0.017676
0.0182743
0.0186925
0.01914
0.0192594
0.0192326
0.0191362
0.0189662
0.0186928
0.0182999
0.0177805
0.0170135
0.0161231
0.0150759
0.0138223
0.0122121
0.0100319
0.00705978
0.00345313
0.000361416
0.000382234
0.00360807
0.00726923
0.0100112
0.0118834
0.0132769
0.0144082
0.0153201
0.0161223
0.016886
0.0176234
0.0182678
0.0187461
0.019218
0.0195482
0.0195566
0.0194879
0.0193315
0.0190415
0.0186249
0.0180168
0.017225
0.0163023
0.0152067
0.0138712
0.0122418
0.0101732
0.00731581
0.00361226
0.000374677
0.000384699
0.00368792
0.0073293
0.0100103
0.0118397
0.0132474
0.0143984
0.0153059
0.0160782
0.0167939
0.0174794
0.0181189
0.0186975
0.0192294
0.0197314
0.0198559
0.019799
0.0196457
0.0193449
0.0189139
0.0182267
0.0174052
0.0164519
0.015306
0.0139008
0.0121765
0.0100997
0.00735187
0.00372326
0.000382145
0.000391211
0.00372495
0.00742073
0.0100965
0.0118966
0.013256
0.0144104
0.0153121
0.0160608
0.0167358
0.0173811
0.0180164
0.0186392
0.0192314
0.0198017
0.0201425
0.020081
0.0199166
0.019613
0.0191533
0.0183997
0.0175546
0.0165762
0.0153958
0.0139389
0.0121486
0.0100046
0.00726293
0.00355271
0.00038583
0.000403682
0.00393239
0.00764445
0.0103133
0.0120605
0.0133255
0.0144461
0.0153569
0.0160953
0.0167487
0.0173714
0.0179955
0.0186269
0.0192431
0.0198313
0.0203189
0.0203447
0.020167
0.0198491
0.019348
0.0185427
0.0176797
0.0166875
0.0154878
0.0140046
0.0121845
0.0100345
0.00733108
0.00366066
0.000401057
0.000411415
0.00405875
0.00782863
0.0105426
0.012298
0.0134812
0.0145361
0.0154401
0.0161834
0.0168307
0.0174389
0.0180475
0.0186665
0.0192819
0.0198765
0.0204105
0.0205684
0.0203907
0.0200479
0.0195064
0.0186687
0.0177946
0.016796
0.0155924
0.0141032
0.0122864
0.0101811
0.0075617
0.00396671
0.000418649
0.000415618
0.00410905
0.0079359
0.0107217
0.0125433
0.013702
0.0146694
0.0155426
0.016315
0.0169647
0.0175648
0.0181528
0.0187471
0.0193406
0.0199211
0.0204615
0.0207239
0.0205493
0.0202079
0.0196248
0.0187838
0.0179093
0.0169119
0.0157123
0.0142302
0.0124469
0.0104024
0.00781254
0.00416683
0.000429588
0.000418698
0.0041233
0.00798793
0.0108442
0.012773
0.0139818
0.0148596
0.0157023
0.0164617
0.0171352
0.0177304
0.0182987
0.0188601
0.0194183
0.0199679
0.0204966
0.0208073
0.0206545
0.0203211
0.019686
0.018869
0.0180206
0.0170381
0.0158569
0.0143933
0.012665
0.0106713
0.00804474
0.00429441
0.000437106
0.000420624
0.00411974
0.0079977
0.0109093
0.0129433
0.0142555
0.015069
0.0158883
0.01663
0.0173259
0.0179245
0.0184762
0.0190048
0.0195208
0.02003
0.0205314
0.0208498
0.0207247
0.0203998
0.0197523
0.0189837
0.0181519
0.0171902
0.0160311
0.0146016
0.0129448
0.0109767
0.00826384
0.00439371
0.000441836
0.000418352
0.00412707
0.00800101
0.010941
0.0130604
0.014492
0.0153358
0.0161002
0.0168388
0.0175226
0.0181396
0.018679
0.0191783
0.0196532
0.0201151
0.0205756
0.020882
0.0207945
0.0204712
0.0198309
0.0191182
0.0183202
0.0173779
0.0162459
0.0148678
0.0132849
0.0112987
0.00845686
0.00446284
0.000444577
0.000412468
0.00413217
0.00799977
0.010954
0.0131295
0.0146817
0.015642
0.0163355
0.0170662
0.0177332
0.0183689
0.0189007
0.0193774
0.0198147
0.0202284
0.0206413
0.0209291
0.0209022
0.0205555
0.0199461
0.0192854
0.0185179
0.0176062
0.0165073
0.0151988
0.0136587
0.011589
0.00860751
0.00449916
0.000445638
0.000405054
0.00411594
0.00798298
0.0109552
0.013177
0.0148197
0.0158845
0.0165797
0.0172946
0.0179598
0.0186068
0.0191369
0.019597
0.020003
0.0203697
0.0207376
0.0210137
0.0210432
0.0206882
0.0201173
0.0194878
0.0187326
0.0178635
0.0168069
0.0155727
0.0140268
0.0118361
0.00870441
0.00450479
0.00044531
0.000397516
0.00407709
0.00793858
0.0109281
0.0131889
0.0148911
0.0160668
0.0168136
0.0175264
0.01819
0.0188465
0.0193789
0.0198286
0.0202086
0.020535
0.0208631
0.0211434
0.021207
0.0208647
0.0203244
0.0197002
0.0189806
0.0181448
0.0171412
0.0159376
0.0143133
0.0120045
0.00874412
0.00449082
0.000443705
0.000390507
0.00402071
0.00786135
0.0108593
0.0131487
0.014897
0.0161746
0.0170406
0.0177376
0.0184162
0.0190639
0.0196064
0.0200579
0.0204196
0.0207114
0.0210049
0.0212948
0.0213315
0.0210505
0.0205841
0.0199657
0.0192534
0.0184408
0.0174774
0.0162417
0.0145139
0.0120765
0.00873379
0.00446592
0.000440045
0.000384103
0.00395329
0.00775382
0.010747
0.0130535
0.0148454
0.016182
0.0171545
0.0179123
0.0186038
0.0192554
0.0198123
0.0202732
0.0206227
0.020889
0.0211527
0.0214233
0.0214649
0.0212781
0.0209095
0.0202834
0.0195502
0.0187433
0.0177595
0.0164242
0.0145887
0.0120668
0.00870256
0.00443904
0.000435801
0.000378293
0.00387905
0.00762046
0.0105914
0.0128979
0.0147115
0.0161005
0.0171395
0.0179748
0.0187161
0.0193861
0.0199883
0.020461
0.0208178
0.0210667
0.0213049
0.0215239
0.0215841
0.0214849
0.0212199
0.0206074
0.0198499
0.0190113
0.0179393
0.0165043
0.0145838
0.0120322
0.00866941
0.00441612
0.000432938
0.000373171
0.00380177
0.00746667
0.0103967
0.0126881
0.0145051
0.0159324
0.017035
0.0179288
0.0187183
0.0194412
0.0200871
0.0206397
0.0209938
0.0212539
0.0214709
0.0216304
0.0216893
0.02165
0.0214689
0.0209227
0.0201295
0.0192013
0.0180218
0.0165078
0.0145513
0.0119953
0.00864229
0.00440332
0.000431521
0.000368979
0.0037253
0.00729863
0.0101696
0.0124311
0.0142391
0.0156898
0.0168482
0.0178038
0.0186456
0.0194146
0.0201202
0.0207423
0.0211881
0.0214323
0.0216476
0.0217488
0.0217896
0.0217602
0.021637
0.021189
0.0203507
0.0193152
0.0180494
0.0164854
0.0145125
0.0119608
0.00862283
0.00440037
0.000431162
0.00036615
0.00365348
0.00712245
0.00991672
0.0121327
0.0139194
0.0153792
0.0165787
0.0175931
0.0184967
0.0193243
0.0200833
0.0207652
0.0213005
0.0216258
0.0217984
0.0218673
0.0218966
0.0218723
0.0217949
0.0214005
0.0205024
0.0193681
0.0180295
0.0164299
0.0144473
0.0119067
0.00859335
0.00440152
0.000432294
0.000365102
0.00359441
0.00694702
0.00964916
0.0118021
0.0135507
0.0150027
0.0162303
0.0173015
0.0182749
0.0191741
0.0199996
0.0207428
0.0213537
0.0217569
0.021906
0.0219701
0.0219966
0.0219879
0.0219201
0.0215207
0.0205627
0.0193508
0.0179556
0.0163214
0.0143267
0.0117973
0.00851926
0.00438655
0.000436181
0.00036598
0.00353132
0.00676498
0.00937316
0.0114581
0.0131607
0.0145939
0.015835
0.0169487
0.0179911
0.0189777
0.0198916
0.0207096
0.0213933
0.0218497
0.0219868
0.0220396
0.0220436
0.0220246
0.0219695
0.0215215
0.0204971
0.0192388
0.0177937
0.0161187
0.0140999
0.0115684
0.00832943
0.00430937
0.000445879
0.00037074
0.00341225
0.00654684
0.00906948
0.0110828
0.0127233
0.0141171
0.0153575
0.0165118
0.0176291
0.0187145
0.0197358
0.0206479
0.0213988
0.0218865
0.0220335
0.0220633
0.0220327
0.02198
0.0219097
0.021383
0.020304
0.0190016
0.0175053
0.015776
0.0137046
0.0111208
0.00783819
0.00403867
0.0004413
0.000370071
0.00326521
0.00626811
0.0087615
0.0107263
0.0123174
0.013674
0.0149021
0.0160778
0.017253
0.0184293
0.0195566
0.0205606
0.021348
0.0218533
0.0220552
0.0220711
0.0219953
0.0218854
0.0217093
0.0210543
0.0199447
0.0186049
0.0170634
0.0152719
0.0131039
0.0104953
0.00737356
0.0037488
0.000429347
0.00037617
0.00321392
0.00598661
0.00840301
0.0103807
0.011961
0.0132979
0.0145113
0.0156875
0.0168946
0.0181447
0.0193539
0.0204105
0.0212113
0.0217473
0.0220013
0.0220448
0.0219447
0.0217266
0.0213443
0.0205575
0.0194176
0.018053
0.0164976
0.0146763
0.0125987
0.0101191
0.00702075
0.00333629
0.000396752
0.000373595
0.00313779
0.005811
0.00805999
0.0100153
0.0116533
0.013017
0.014233
0.0153946
0.0166004
0.0178738
0.0191129
0.0201425
0.0209665
0.0215332
0.0218367
0.0219158
0.0218329
0.0215332
0.0209658
0.0200365
0.018849
0.0174898
0.0159998
0.0143561
0.012386
0.00991754
0.00674404
0.00324364
0.000380987
0.00035768
0.00290819
0.00564574
0.00787981
0.00972682
0.0113875
0.0128348
0.0141071
0.015284
0.0164524
0.017621
0.0187656
0.0197759
0.0205925
0.0211828
0.0215056
0.021598
0.0214872
0.0211119
0.0204183
0.01955
0.0185001
0.01724
0.0158198
0.0142086
0.0122453
0.00987388
0.00688173
0.00351303
0.000396164
0.000336084
0.00262939
0.00546827
0.00780697
0.00963879
0.0112208
0.0127344
0.014136
0.0154392
0.0165334
0.0174238
0.0183353
0.0193164
0.0201034
0.0206873
0.0210031
0.0210592
0.0208737
0.0204227
0.019765
0.0192765
0.0185254
0.0172441
0.015769
0.014163
0.0122991
0.0100745
0.00728868
0.00389013
0.000406669
0.000325695
0.00260291
0.00543039
0.00781853
0.00968902
0.0112836
0.0127621
0.0142307
0.0156251
0.0166805
0.0173112
0.017934
0.0187779
0.019541
0.0200818
0.0203611
0.0203658
0.0201308
0.0197039
0.019272
0.0189823
0.0183568
0.0171812
0.015784
0.014229
0.0124555
0.0103689
0.00769302
0.00415175
0.000402216
0.000335774
0.00287348
0.00565024
0.00798893
0.00984928
0.0114293
0.0128668
0.0142661
0.0156039
0.0165736
0.0171073
0.0176746
0.0183422
0.0190027
0.0194869
0.0197367
0.0197162
0.01949
0.0191825
0.0187707
0.0182768
0.0178028
0.0170015
0.0157319
0.0142467
0.0125638
0.0105416
0.00784945
0.00418167
0.000393268
0.000357593
0.00321922
0.00602685
0.00829103
0.0101163
0.0116686
0.013031
0.0143066
0.0154602
0.0162229
0.0167475
0.0173869
0.0180544
0.0186463
0.0190667
0.0192633
0.0192188
0.0189746
0.0186173
0.0182535
0.0178391
0.0174639
0.0168221
0.0156066
0.0141812
0.01255
0.0105058
0.00775017
0.00407067
0.000385771
0.000362161
0.00335875
0.00626705
0.00852988
0.0103417
0.0118749
0.0131955
0.0143894
0.0154239
0.0160439
0.0165482
0.0171149
0.0176619
0.0181701
0.0185407
0.0186989
0.018655
0.0184736
0.018201
0.0178945
0.0175475
0.0172119
0.0166243
0.0154244
0.0140127
0.01237
0.0102918
0.00752951
0.0039031
0.000373732
0.000357632
0.0033016
0.00632291
0.00864355
0.0104692
0.012004
0.0133286
0.0145071
0.0154288
0.0159011
0.0163618
0.0168415
0.017321
0.0177612
0.0180827
0.0182318
0.0182036
0.0180459
0.0178099
0.0175412
0.0172471
0.0169169
0.0163834
0.0151999
0.0137702
0.0120999
0.0100151
0.00728693
0.00374257
0.000364
0.000352169
0.00317438
0.00632437
0.00869093
0.0105221
0.0120782
0.0134446
0.0146217
0.0153386
0.0157363
0.0161435
0.016556
0.0169749
0.0173606
0.0176415
0.0177783
0.0177604
0.0176224
0.0174092
0.0171598
0.0168851
0.0165724
0.0161077
0.0149614
0.0135017
0.0118162
0.00975563
0.00708548
0.00361812
0.000355079
0.000363833
0.00323222
0.00638662
0.0087106
0.010544
0.0121416
0.013564
0.014631
0.0151475
0.0155248
0.0158896
0.0162581
0.016631
0.0169728
0.0172202
0.0173436
0.0173299
0.0172041
0.0170003
0.016748
0.0164637
0.0161472
0.0157701
0.0147224
0.0132448
0.0115674
0.00954994
0.00695067
0.00357383
0.000351244
0.00039028
0.0035319
0.00658476
0.00882677
0.0105823
0.0121798
0.0136127
0.0144858
0.0149081
0.0152587
0.0155974
0.0159414
0.0162842
0.0165929
0.0168151
0.0169248
0.0169106
0.0167876
0.0165808
0.0163117
0.0160006
0.0156716
0.0153607
0.0144673
0.0130213
0.0113718
0.00940306
0.00687064
0.0035676
0.000352357
0.000399247
0.00367675
0.00671399
0.00893715
0.0106483
0.0121723
0.0135116
0.0142319
0.0146188
0.0149449
0.0152705
0.0156027
0.0159274
0.0162129
0.016417
0.0165142
0.0164952
0.0163688
0.0161525
0.015864
0.0155264
0.015178
0.0148743
0.0141811
0.0128472
0.0112266
0.00930279
0.00682103
0.00354316
0.000355638
0.000390828
0.00367685
0.00673162
0.00896794
0.0106642
0.0120954
0.0133337
0.0139801
0.0143017
0.0146033
0.0149195
0.0152449
0.0155585
0.0158283
0.0160189
0.0161056
0.0160802
0.0159472
0.015721
0.0154187
0.0150666
0.0147102
0.0144041
0.0138772
0.012694
0.0111183
0.00924109
0.00680642
0.0035708
0.000362719
0.000386551
0.00354167
0.0066607
0.00891402
0.0105918
0.0119545
0.0131203
0.0137169
0.0139794
0.0142528
0.0145576
0.0148761
0.0151807
0.0154396
0.0156196
0.015698
0.0156656
0.0155258
0.0152919
0.0149829
0.014627
0.0142689
0.0139503
0.0135135
0.0125268
0.0110513
0.00920906
0.00681866
0.00364346
0.000371926
0.000394136
0.00354033
0.00660293
0.00882437
0.0104623
0.0117755
0.0128939
0.013459
0.0136636
0.0139072
0.0141964
0.0145047
0.0148003
0.0150499
0.0152215
0.0152929
0.0152549
0.0151097
0.0148711
0.0145605
0.0142073
0.0138514
0.0135193
0.0131225
0.0123506
0.0110135
0.0091905
0.00682789
0.00367875
0.000376851
0.000401559
0.00361148
0.00659466
0.00874456
0.0103235
0.011589
0.0126743
0.0132117
0.0133611
0.0135725
0.0138425
0.0141379
0.0144234
0.0146642
0.0148288
0.0148951
0.014853
0.014705
0.0144646
0.0141559
0.0138093
0.0134601
0.0131245
0.0127403
0.0120965
0.0108958
0.00916181
0.00680583
0.00359702
0.000378386
0.000396764
0.00368996
0.00664622
0.00870192
0.0101961
0.0114045
0.0124613
0.0129729
0.0130655
0.013248
0.013499
0.0137806
0.0140555
0.0142881
0.014447
0.0145097
0.0144657
0.0143171
0.0140776
0.013773
0.0134357
0.0130981
0.0127705
0.0124088
0.0118078
0.0107345
0.00910847
0.00676651
0.0035476
0.000396592
0.000386308
0.00369225
0.00665802
0.00867389
0.0100889
0.0112307
0.0122544
0.0127335
0.0127778
0.0129341
0.0131676
0.0134363
0.0137013
0.0139267
0.014081
0.0141412
0.0140964
0.0139485
0.0137113
0.0134124
0.0130846
0.0127599
0.0124505
0.0121346
0.0115743
0.0105554
0.00901637
0.00683943
0.0037499
0.000410181
0.000375517
0.00364279
0.00659464
0.00860994
0.00998101
0.0110708
0.0120614
0.0124986
0.0124989
0.0126319
0.0128496
0.0131068
0.0133635
0.0135828
0.0137331
0.0137913
0.013746
0.0135989
0.0133646
0.0130705
0.0127495
0.0124323
0.0121361
0.0118705
0.0113867
0.0103594
0.00887978
0.0068085
0.00378578
0.000411184
0.000366305
0.00357187
0.00649145
0.00850115
0.00985313
0.0109128
0.0118731
0.0122656
0.0122322
0.0123427
0.0125456
0.012793
0.0130429
0.0132574
0.0134043
0.0134606
0.0134144
0.0132675
0.0130345
0.0127424
0.0124232
0.0121098
0.0118329
0.0116542
0.0111652
0.0101236
0.00868313
0.00668867
0.0037458
0.000404403
0.000359032
0.00348785
0.00636857
0.00836232
0.00970743
0.0107523
0.0116851
0.0120376
0.0119733
0.0120642
0.0122552
0.012495
0.0127401
0.0129509
0.013095
0.0131489
0.013101
0.0129524
0.0127176
0.0124225
0.0120998
0.0117872
0.0115339
0.0113925
0.0109282
0.00986563
0.00846177
0.0065276
0.00366794
0.00039757
0.000351568
0.00341769
0.00625507
0.00821467
0.0095536
0.0105904
0.0114944
0.0118056
0.0117202
0.0117958
0.0119778
0.0122129
0.0124548
0.0126633
0.0128046
0.0128555
0.0128043
0.0126515
0.0124106
0.0121073
0.0117762
0.0114639
0.0112501
0.0111699
0.0106949
0.00960851
0.00823663
0.00635799
0.0035859
0.000389824
0.000346187
0.00337865
0.0061676
0.00808115
0.0094056
0.0104298
0.0113007
0.0115717
0.0114717
0.0115373
0.0117137
0.0119461
0.0121866
0.0123934
0.012532
0.0125791
0.0125229
0.0123628
0.0121116
0.0117959
0.0114564
0.0111526
0.0109524
0.0109556
0.0104674
0.00936098
0.00802143
0.00619374
0.00349879
0.000382597
0.00033874
0.00336181
0.0061067
0.00797759
0.0092727
0.0102836
0.0111164
0.0113364
0.0112354
0.0112944
0.0114657
0.0116959
0.0119352
0.0121404
0.0122758
0.012318
0.0122547
0.0120847
0.0118201
0.0114895
0.0111395
0.01084
0.0106762
0.0107379
0.0102551
0.00913435
0.00782174
0.0060392
0.00341258
0.000377734
0.00033208
0.00330885
0.00603197
0.00788805
0.00916216
0.0101633
0.0109549
0.0111131
0.0110148
0.0110687
0.0112355
0.011463
0.0117005
0.0119032
0.0120341
0.0120697
0.0119975
0.011816
0.0115377
0.0111928
0.0108361
0.0105457
0.010408
0.0105116
0.0100461
0.00893456
0.00764635
0.00589595
0.00333229
0.000376573
0.000326945
0.00324165
0.00594405
0.00779854
0.00907297
0.0100739
0.0108093
0.0108949
0.0108074
0.0108603
0.0110236
0.011248
0.0114819
0.0116802
0.0118041
0.0118312
0.0117489
0.0115562
0.0112668
0.0109135
0.0105584
0.0102914
0.0101956
0.0103219
0.00985662
0.00877511
0.00751369
0.00577561
0.00325344
0.000379135
0.000320316
0.00317916
0.00586397
0.00771698
0.00900158
0.0100055
0.010662
0.0106813
0.0106086
0.0106663
0.010829
0.0110491
0.0112773
0.0114684
0.0115831
0.0116004
0.0115072
0.0113046
0.0110083
0.0106535
0.0103058
0.0100555
0.00998561
0.0101166
0.00968458
0.00865381
0.00743856
0.00573977
0.00325763
0.000375491
0.000315123
0.00312708
0.00580032
0.00765818
0.00895512
0.00994756
0.0104919
0.0104681
0.0104177
0.0104861
0.0106493
0.0108642
0.0110844
0.0112664
0.0113706
0.011377
0.0112726
0.0110613
0.010762
0.0104119
0.0100757
0.009839
0.00978076
0.00991188
0.00953368
0.00856654
0.00740698
0.00578035
0.00332052
0.000363885
0.000308934
0.003072
0.00575434
0.00762707
0.00894968
0.00990098
0.0103166
0.0102737
0.0102448
0.0103223
0.0104849
0.0106934
0.0109045
0.0110758
0.0111688
0.0111634
0.0110472
0.0108268
0.0105264
0.0101868
0.00987048
0.00965718
0.00961742
0.00975575
0.00941847
0.00850869
0.00739087
0.00580146
0.00332901
0.000351143
0.000298214
0.00304013
0.00573342
0.0076145
0.0089512
0.00984902
0.0101663
0.010113
0.010099
0.0101804
0.0103389
0.0105394
0.0107402
0.0109001
0.0109813
0.0109636
0.0108349
0.0106044
0.0103024
0.00997602
0.00968369
0.00949579
0.00947371
0.0096138
0.00931941
0.00845861
0.00735625
0.00575562
0.00326134
0.000340277
0.000295437
0.00308713
0.00573788
0.00761664
0.00895445
0.00979948
0.0100479
0.0099958
0.00998787
0.0100651
0.0102152
0.0104052
0.0105946
0.0107428
0.0108125
0.0107819
0.0106398
0.010398
0.0100937
0.00978008
0.00951257
0.00934953
0.00934176
0.00948307
0.00922938
0.00840212
0.00728973
0.00566349
0.00317453
0.000332207
0.000309006
0.00307566
0.00572129
0.00761983
0.00894606
0.00975928
0.00997417
0.00992387
0.00991277
0.00997902
0.0101165
0.0102944
0.0104718
0.010608
0.0106656
0.0106206
0.0104639
0.0102118
0.00990586
0.00960328
0.00935809
0.00921853
0.00922175
0.00935479
0.00913807
0.0083357
0.00720559
0.00556688
0.00309881
0.000323395
0.00031494
0.00306757
0.00570418
0.00762444
0.00892502
0.00971666
0.00993236
0.00988988
0.0098685
0.00992024
0.0100441
0.0102089
0.0103738
0.0104969
0.0105404
0.0104797
0.0103092
0.010049
0.0097439
0.00945185
0.00922628
0.00910694
0.00911715
0.00923892
0.00904992
0.00826805
0.00712239
0.00547976
0.00303754
0.000316545
0.000316154
0.00307469
0.00569855
0.0076035
0.00888963
0.00968557
0.00992684
0.00988122
0.00984705
0.00988489
0.00999487
0.0101464
0.0102982
0.0104075
0.0104357
0.0103598
0.0101771
0.00991179
0.0096104
0.00933007
0.00912199
0.00902053
0.00903505
0.0091402
0.00896984
0.00820778
0.00704863
0.00540105
0.00297265
0.000309522
0.000314291
0.00305549
0.00567636
0.00755624
0.0088397
0.00966806
0.00995066
0.00988823
0.00984097
0.00986702
0.00996447
0.0101033
0.0102425
0.0103376
0.0103508
0.0102603
0.0100678
0.00980032
0.00950558
0.00923853
0.00904726
0.00896052
0.00897663
0.00906161
0.00888993
0.00814773
0.00698733
0.00533449
0.00288504
0.000300209
0.000310268
0.00302466
0.00563095
0.00749497
0.00878005
0.00963749
0.00997791
0.00991059
0.00984956
0.00986372
0.00994916
0.0100769
0.0102042
0.0102858
0.0102844
0.0101813
0.00998116
0.0097142
0.00942795
0.00917535
0.00900031
0.00892704
0.00894546
0.00900721
0.00880537
0.00807406
0.00694366
0.00529318
0.0028113
0.000291425
0.000304515
0.00299781
0.00558629
0.00743307
0.00871701
0.00959565
0.0100067
0.00996494
0.00987268
0.00987267
0.00994653
0.0100643
0.0101813
0.0102504
0.0102366
0.0101229
0.00991739
0.00965216
0.00937509
0.0091364
0.00897739
0.00891749
0.00894383
0.0089937
0.00874364
0.00800958
0.0069001
0.0052804
0.00290929
0.000301698
0.00030071
0.00297619
0.00555093
0.00738164
0.00865947
0.00955133
0.0100341
0.0100358
0.00991507
0.00989097
0.00995371
0.0100638
0.0101728
0.0102322
0.010208
0.010086
0.00987644
0.00961341
0.00934448
0.00911839
0.00897381
0.00892855
0.00897139
0.00901572
0.00870088
0.00795313
0.00687288
0.00530245
0.00295613
0.000306321
0.000299797
0.00295999
0.0055237
0.00734098
0.00861079
0.00951032
0.010062
0.0101089
0.00995793
0.00991857
0.00996891
0.0100749
0.0101802
0.0102328
0.0102008
0.0100727
0.00985995
0.00959822
0.00933528
0.00911831
0.00898602
0.00895514
0.00902165
0.00904005
0.00864629
0.00788377
0.00681199
0.00526044
0.00293207
0.00030273
0.000299542
0.00294636
0.00550074
0.00730826
0.00856893
0.00947001
0.0100743
0.0101696
0.00999752
0.00994535
0.00999337
0.0100968
0.0102024
0.0102551
0.0102184
0.0100866
0.00987134
0.00961016
0.00934922
0.00913562
0.00900931
0.00898865
0.0090755
0.00904641
0.00857369
0.00780624
0.00673957
0.005189
0.00287408
0.00029672
0.000298894
0.00293474
0.00548502
0.00728953
0.00854061
0.0094325
0.0100649
0.0102167
0.0100375
0.00998343
0.0100315
0.0101394
0.0102458
0.0102929
0.0102535
0.0101248
0.00991484
0.00965675
0.00939414
0.00917447
0.00904475
0.00902442
0.00912214
0.00903428
0.00850351
0.00773733
0.00667639
0.00511676
0.0028029
0.000291381
0.000298087
0.00292722
0.00548399
0.00729552
0.0085415
0.00941893
0.0100419
0.0102401
0.0100998
0.0100499
0.0100971
0.0102093
0.0103215
0.0103695
0.0103262
0.010195
0.00998212
0.00972446
0.00946852
0.00924822
0.00910495
0.00907512
0.00917281
0.00901902
0.0084566
0.00769603
0.00663839
0.00507346
0.00276268
0.000286082
0.000298008
0.00292842
0.00550239
0.00732882
0.00857577
0.00944261
0.0100587
0.0102932
0.0101606
0.0101186
0.0101895
0.0103078
0.010425
0.0104778
0.0104429
0.0103189
0.0101121
0.00985793
0.00959459
0.00936857
0.00921108
0.00916261
0.0092232
0.00901234
0.00845135
0.00769255
0.0066316
0.00506084
0.00274718
0.000280573
0.000298919
0.00294051
0.00553968
0.00738597
0.00864131
0.00950798
0.0101262
0.0103881
0.0102731
0.0102306
0.0102917
0.0104294
0.0105494
0.0106032
0.0105766
0.0104658
0.0102832
0.0100529
0.00979956
0.00955568
0.00937537
0.00929576
0.00930913
0.00905179
0.00848517
0.00772317
0.00665138
0.00506637
0.00273875
0.00027574
0.000301123
0.00296201
0.00558724
0.00745866
0.00872697
0.0095995
0.0102242
0.0105021
0.0103964
0.0103555
0.0104237
0.0105547
0.010679
0.0107333
0.0107143
0.0106193
0.010461
0.0102582
0.0100286
0.00978985
0.00958281
0.00946416
0.00942886
0.00912634
0.00854923
0.0077757
0.00668684
0.00507946
0.00273232
0.000272976
0.000304256
0.00298968
0.00564395
0.00753855
0.00882002
0.00969663
0.0103201
0.0105954
0.0105052
0.0104749
0.0105526
0.0106744
0.0108002
0.0108483
0.0108341
0.0107534
0.0106223
0.0104515
0.010251
0.0100235
0.00979504
0.0096329
0.00954897
0.0092096
0.00861984
0.00783349
0.00672734
0.00509578
0.00273342
0.000272955
0.000309645
0.0030313
0.00570762
0.00762139
0.00891295
0.00978322
0.0103876
0.0106478
0.0105847
0.010579
0.0106668
0.0107925
0.0108849
0.0109347
0.0109183
0.0108458
0.0107349
0.0105944
0.0104152
0.0101916
0.00997104
0.00977457
0.00964334
0.00927972
0.0086793
0.00788288
0.00676229
0.00510967
0.00274511
0.000275104
0.000317195
0.00309641
0.00578132
0.00770973
0.00900353
0.0098559
0.0104251
0.0106657
0.0106475
0.0106744
0.010769
0.010883
0.0109583
0.0109741
0.0109493
0.0108755
0.0107621
0.0106225
0.010458
0.0102831
0.0100851
0.00987422
0.00969637
0.00932329
0.00871348
0.00790832
0.00677586
0.00510661
0.00276129
0.000283601
0.000330281
0.00317126
0.00586963
0.00779208
0.00908592
0.0099193
0.0104513
0.0106816
0.0107228
0.0107789
0.0108679
0.0109585
0.0110064
0.0110081
0.0109627
0.0108647
0.0107221
0.0105626
0.0104094
0.0102794
0.0101197
0.00992139
0.00970346
0.00932853
0.00870521