/*--------------------------------*- C++ -*----------------------------------*\
| =========                 |                                                 |
| \\      /  F ield         | OpenFOAM: The Open Source CFD Toolbox           |
|  \\    /   O peration     | Version:  2.3.0                                 |
|   \\  /    A nd           | Web:      www.OpenFOAM.org                      |
|    \\/     M anipulation  |                                                 |
\*---------------------------------------------------------------------------*/
FoamFile
{
    version     2.0;
    format      ascii;
    class       volVectorField;
    location    "0.61";
    object      U.particlesMean;
}
// * * * * * * * * * * * * * * * * * * * * * * * * * * * * * * * * * * * * * //

dimensions      [0 1 -1 0 0 0 0];

internalField   nonuniform List<vector> 
6000
(
(0.00269022 -0.308399 0)
(0.0185368 -0.321988 0)
(0.0329736 -0.326976 0)
(0.0405434 -0.342683 0)
(0.0398589 -0.364725 0)
(0.030356 -0.386901 0)
(0.0231036 -0.390003 0)
(0.0157362 -0.378326 0)
(0.011438 -0.378298 0)
(0.00401745 -0.386538 0)
(0.00188588 -0.393932 0)
(0.00536981 -0.41168 0)
(0.00791578 -0.438218 0)
(0.00431862 -0.454471 0)
(0.000747291 -0.447712 0)
(-0.00574125 -0.464284 0)
(-0.0142004 -0.462494 0)
(-0.0197725 -0.433496 0)
(-0.0261144 -0.39768 0)
(-0.0273868 -0.379554 0)
(-0.0248915 -0.372326 0)
(-0.0237901 -0.368287 0)
(-0.0247882 -0.384544 0)
(-0.0313873 -0.404431 0)
(-0.0432661 -0.392116 0)
(-0.0525636 -0.36291 0)
(-0.050931 -0.341239 0)
(-0.0403804 -0.323185 0)
(-0.0227087 -0.318799 0)
(-0.004629 -0.304382 0)
(0.0185471 -0.0341039 0)
(0.0397002 -0.0167865 0)
(0.0603949 -0.0119156 0)
(0.0717737 -0.00389457 0)
(0.0726406 -8.43515e-06 0)
(0.0627684 0.00914362 0)
(0.047343 0.0111704 0)
(0.0244263 0.0206258 0)
(0.0105085 0.0158101 0)
(0.000748358 0.00168611 0)
(0.00413866 -0.0105192 0)
(0.0115859 0.00250959 0)
(0.0107835 0.00370926 0)
(0.00818988 -0.00623458 0)
(0.000799002 -0.0178494 0)
(-0.014671 -0.00929063 0)
(-0.0214463 -0.00243065 0)
(-0.0266248 -0.00380746 0)
(-0.0234758 -0.0196048 0)
(-0.0193907 -0.00132111 0)
(-0.0178343 0.0297268 0)
(-0.0308717 0.0294292 0)
(-0.0464955 0.0157416 0)
(-0.0645893 0.0101066 0)
(-0.0772112 0.00405792 0)
(-0.0849842 -0.000391481 0)
(-0.0778732 -0.00655186 0)
(-0.0635858 -0.0159565 0)
(-0.0418722 -0.0218243 0)
(-0.0197303 -0.0374759 0)
(0.00657916 -0.0960296 0)
(0.0361289 -0.109631 0)
(0.0594202 -0.100349 0)
(0.0753541 -0.0740308 0)
(0.0814553 -0.0542574 0)
(0.0734982 -0.0339826 0)
(0.0559449 -0.0214188 0)
(0.0298953 -0.0180021 0)
(0.0164665 -0.0287871 0)
(0.00855025 -0.0499019 0)
(0.010769 -0.0587633 0)
(0.014351 -0.060319 0)
(0.0185456 -0.0506515 0)
(0.0119299 -0.0368632 0)
(-0.0019824 -0.0444271 0)
(-0.0216609 -0.0375881 0)
(-0.0323567 -0.0457995 0)
(-0.032406 -0.0632744 0)
(-0.0251743 -0.0654365 0)
(-0.0205762 -0.0581495 0)
(-0.023036 -0.0421182 0)
(-0.0373294 -0.0185793 0)
(-0.0629662 -0.0190984 0)
(-0.0814524 -0.0268916 0)
(-0.0894135 -0.0435926 0)
(-0.0895462 -0.0637121 0)
(-0.0737166 -0.0856056 0)
(-0.0539017 -0.102756 0)
(-0.0372875 -0.105879 0)
(-0.00712306 -0.101627 0)
(0.0083174 -0.121601 0)
(0.0334934 -0.128709 0)
(0.0471772 -0.121502 0)
(0.0746668 -0.0992108 0)
(0.0856804 -0.0722857 0)
(0.0849284 -0.0446322 0)
(0.0672336 -0.0212384 0)
(0.0452151 -0.0127417 0)
(0.0306358 -0.0176137 0)
(0.0209477 -0.0346332 0)
(0.0151308 -0.0443579 0)
(0.0125293 -0.0444534 0)
(0.00930164 -0.0357846 0)
(0.00664341 -0.0255812 0)
(-0.0060943 -0.0310836 0)
(-0.022173 -0.0226854 0)
(-0.0286924 -0.0313861 0)
(-0.0271578 -0.0495087 0)
(-0.0270469 -0.0507405 0)
(-0.0276479 -0.0406538 0)
(-0.0365489 -0.0235471 0)
(-0.0546355 -0.007531 0)
(-0.0782502 -0.0175474 0)
(-0.0933655 -0.0334277 0)
(-0.0961483 -0.0583386 0)
(-0.0869113 -0.0885291 0)
(-0.0678665 -0.114444 0)
(-0.0436837 -0.127434 0)
(-0.0345127 -0.127587 0)
(-0.0109604 -0.124647 0)
(0.00957095 -0.1573 0)
(0.0359799 -0.159795 0)
(0.0474594 -0.151577 0)
(0.0715627 -0.125247 0)
(0.0822672 -0.0895894 0)
(0.0838497 -0.0498714 0)
(0.0689225 -0.0197173 0)
(0.047319 -0.0104959 0)
(0.0276751 -0.018921 0)
(0.0137454 -0.0388987 0)
(0.0059892 -0.0474848 0)
(-0.000837417 -0.0466847 0)
(-0.00333521 -0.0371219 0)
(-0.00117667 -0.0244887 0)
(-0.00798573 -0.0271967 0)
(-0.0156233 -0.0170615 0)
(-0.0150635 -0.0259229 0)
(-0.0172497 -0.051052 0)
(-0.0186868 -0.0548127 0)
(-0.0213455 -0.0480807 0)
(-0.0306897 -0.0270624 0)
(-0.049823 -0.008024 0)
(-0.0736862 -0.0161599 0)
(-0.0899045 -0.0360033 0)
(-0.0917473 -0.0684364 0)
(-0.0824687 -0.109396 0)
(-0.0690702 -0.138408 0)
(-0.0546173 -0.157912 0)
(-0.0372496 -0.160478 0)
(-0.00997079 -0.159525 0)
(0.0114925 -0.174041 0)
(0.0378649 -0.172867 0)
(0.0556226 -0.166219 0)
(0.0724734 -0.136233 0)
(0.0707032 -0.0951678 0)
(0.0682037 -0.0508142 0)
(0.0576959 -0.0156213 0)
(0.0373228 -0.00498229 0)
(0.0160779 -0.0108032 0)
(-0.00102961 -0.0316551 0)
(-0.010157 -0.0393453 0)
(-0.0153989 -0.038558 0)
(-0.0141113 -0.0324415 0)
(-0.00925332 -0.0226589 0)
(-0.00848618 -0.02595 0)
(-0.00822523 -0.0146831 0)
(0.00116803 -0.0172839 0)
(-0.000502413 -0.0376675 0)
(-0.00291231 -0.0471687 0)
(-0.00902984 -0.0420505 0)
(-0.0179914 -0.0220166 0)
(-0.0383133 -0.00417677 0)
(-0.0622962 -0.00885999 0)
(-0.0793061 -0.0295305 0)
(-0.0811696 -0.0695352 0)
(-0.0775316 -0.114869 0)
(-0.0750426 -0.148809 0)
(-0.0594578 -0.172325 0)
(-0.0384777 -0.176367 0)
(-0.0103561 -0.177297 0)
(0.010751 -0.178659 0)
(0.0394585 -0.177842 0)
(0.0576977 -0.167503 0)
(0.0725842 -0.135171 0)
(0.069041 -0.0926714 0)
(0.056982 -0.0410691 0)
(0.0428115 -0.00199474 0)
(0.0218478 0.0122342 0)
(-0.000824473 0.00298515 0)
(-0.0187245 -0.0208895 0)
(-0.0263137 -0.031087 0)
(-0.0278569 -0.034726 0)
(-0.0214593 -0.0317205 0)
(-0.0141509 -0.0261898 0)
(-0.00926723 -0.0239407 0)
(-0.00494527 -0.0214938 0)
(0.00675903 -0.0185369 0)
(0.0138367 -0.0303525 0)
(0.0130417 -0.0372379 0)
(0.00614363 -0.0307986 0)
(-0.00639487 -0.00928119 0)
(-0.0293644 0.00875024 0)
(-0.0511669 0.00710949 0)
(-0.0676069 -0.015322 0)
(-0.0710005 -0.0589216 0)
(-0.0769858 -0.108749 0)
(-0.0738088 -0.146355 0)
(-0.0584327 -0.174858 0)
(-0.0393775 -0.18292 0)
(-0.00828564 -0.182148 0)
(0.012251 -0.17929 0)
(0.0383578 -0.177191 0)
(0.0561982 -0.162232 0)
(0.0669501 -0.127048 0)
(0.0697531 -0.0837094 0)
(0.0561493 -0.0226053 0)
(0.0358763 0.0213007 0)
(0.00892616 0.0383602 0)
(-0.0126391 0.0220398 0)
(-0.0292447 -0.00668997 0)
(-0.0382835 -0.0206604 0)
(-0.0323848 -0.0296039 0)
(-0.0252833 -0.0303477 0)
(-0.0170439 -0.0246316 0)
(-0.0110687 -0.021878 0)
(-0.00528767 -0.0193317 0)
(0.00419563 -0.0210342 0)
(0.0202647 -0.0255535 0)
(0.0238641 -0.0284197 0)
(0.0160058 -0.0180313 0)
(0.00373329 0.00698531 0)
(-0.0175095 0.0265496 0)
(-0.0396664 0.0257977 0)
(-0.0590891 0.00270171 0)
(-0.0680172 -0.0438168 0)
(-0.0745481 -0.101339 0)
(-0.0681634 -0.139668 0)
(-0.0543901 -0.170845 0)
(-0.0366854 -0.184463 0)
(-0.00679581 -0.183109 0)
(0.0104696 -0.178347 0)
(0.0370831 -0.176207 0)
(0.0537856 -0.156101 0)
(0.0618871 -0.121342 0)
(0.0678343 -0.0700064 0)
(0.0503916 0.00116787 0)
(0.0313784 0.0502609 0)
(-0.00290993 0.0644882 0)
(-0.0192267 0.0389171 0)
(-0.0329269 0.00474851 0)
(-0.043166 -0.0148072 0)
(-0.0319945 -0.0281023 0)
(-0.0273171 -0.0324405 0)
(-0.0190572 -0.0283841 0)
(-0.0120979 -0.0242636 0)
(-0.00596146 -0.0220422 0)
(0.00281266 -0.0219273 0)
(0.016766 -0.0241318 0)
(0.0261377 -0.0247646 0)
(0.0197709 -0.0106999 0)
(0.00982387 0.0187755 0)
(-0.00491356 0.0446043 0)
(-0.0305645 0.0491322 0)
(-0.0579673 0.0218218 0)
(-0.0635689 -0.0289528 0)
(-0.0715186 -0.0948885 0)
(-0.062422 -0.135925 0)
(-0.0509567 -0.169009 0)
(-0.0347258 -0.186945 0)
(-0.00165843 -0.182192 0)
(0.00790084 -0.177392 0)
(0.033116 -0.17497 0)
(0.0466893 -0.148696 0)
(0.0546033 -0.111812 0)
(0.0600661 -0.0594603 0)
(0.058329 0.0125987 0)
(0.0418404 0.0624255 0)
(0.00245711 0.0800514 0)
(-0.0128021 0.0560894 0)
(-0.0255354 0.0186811 0)
(-0.0365321 -0.0117074 0)
(-0.0294518 -0.0255588 0)
(-0.0261654 -0.0334581 0)
(-0.0202402 -0.0311735 0)
(-0.0143666 -0.0266724 0)
(-0.00939431 -0.0231967 0)
(-0.0012076 -0.0241613 0)
(0.0136261 -0.0247342 0)
(0.0208189 -0.0216873 0)
(0.0120631 -0.000314987 0)
(0.00392545 0.032057 0)
(-0.013716 0.0604755 0)
(-0.0366824 0.0603982 0)
(-0.0567376 0.0348594 0)
(-0.0642136 -0.0159266 0)
(-0.0650039 -0.0859274 0)
(-0.0559028 -0.13362 0)
(-0.0437509 -0.165998 0)
(-0.0311303 -0.188173 0)
(0.00265394 -0.181068 0)
(0.003924 -0.177366 0)
(0.0268569 -0.176145 0)
(0.0381351 -0.144998 0)
(0.0481707 -0.10498 0)
(0.0563188 -0.0492287 0)
(0.0567084 0.0195409 0)
(0.051284 0.0744471 0)
(0.0275683 0.0914871 0)
(0.00984913 0.0739223 0)
(-0.00152096 0.037976 0)
(-0.0192117 -0.000469048 0)
(-0.0241879 -0.0216875 0)
(-0.023803 -0.0310135 0)
(-0.0211208 -0.0315462 0)
(-0.0171237 -0.0271147 0)
(-0.0125355 -0.0230173 0)
(-0.0046268 -0.0243366 0)
(0.00786606 -0.0226655 0)
(0.00658336 -0.0101653 0)
(-0.00976101 0.0178612 0)
(-0.0266735 0.0494603 0)
(-0.0464104 0.0650729 0)
(-0.051736 0.0609112 0)
(-0.0592213 0.0388656 0)
(-0.0621819 -0.0106419 0)
(-0.0596736 -0.0795862 0)
(-0.0492472 -0.133133 0)
(-0.0357653 -0.164803 0)
(-0.0248556 -0.188207 0)
(0.00751745 -0.179395 0)
(0.00045055 -0.177824 0)
(0.0196382 -0.178861 0)
(0.0285235 -0.142929 0)
(0.0414858 -0.100018 0)
(0.0515485 -0.0489051 0)
(0.0591132 0.0132298 0)
(0.0629 0.063699 0)
(0.0556559 0.0901741 0)
(0.0347734 0.0868864 0)
(0.0243275 0.0562241 0)
(0.00419081 0.0121208 0)
(-0.0146638 -0.013383 0)
(-0.0192982 -0.0244805 0)
(-0.0204249 -0.0284019 0)
(-0.0190508 -0.0259452 0)
(-0.0142212 -0.0215641 0)
(-0.00519612 -0.0213824 0)
(-0.000419256 -0.0137818 0)
(-0.00783347 0.00437779 0)
(-0.0349216 0.0359204 0)
(-0.0580822 0.0584423 0)
(-0.0668034 0.0558968 0)
(-0.0705189 0.0475285 0)
(-0.0725597 0.0277827 0)
(-0.0662596 -0.0183446 0)
(-0.0550465 -0.079855 0)
(-0.0438994 -0.131007 0)
(-0.0274179 -0.163179 0)
(-0.0178415 -0.189867 0)
(0.012536 -0.176556 0)
(-0.0033897 -0.176964 0)
(0.0134954 -0.182331 0)
(0.0206411 -0.145035 0)
(0.0356421 -0.10192 0)
(0.0451139 -0.0544656 0)
(0.0605112 0.00227306 0)
(0.0697774 0.0512769 0)
(0.0709096 0.0781355 0)
(0.0553387 0.0905176 0)
(0.0429005 0.0680559 0)
(0.0297807 0.0222547 0)
(-0.00302526 -0.00388829 0)
(-0.014614 -0.0162674 0)
(-0.0180543 -0.0226679 0)
(-0.0192361 -0.0244939 0)
(-0.0126893 -0.020002 0)
(-0.00724364 -0.0139839 0)
(-0.00657219 -0.00344507 0)
(-0.0233085 0.0202918 0)
(-0.0580881 0.0448831 0)
(-0.0698633 0.0520318 0)
(-0.0792711 0.0445521 0)
(-0.0846027 0.0353548 0)
(-0.0814382 0.0150132 0)
(-0.0679412 -0.0271988 0)
(-0.0519832 -0.0821606 0)
(-0.0390781 -0.130498 0)
(-0.0201508 -0.163422 0)
(-0.0116748 -0.191986 0)
(0.0142725 -0.17068 0)
(-0.00515807 -0.174735 0)
(0.00949398 -0.184112 0)
(0.0134833 -0.149355 0)
(0.0281686 -0.106853 0)
(0.0415471 -0.0618772 0)
(0.0595764 -0.00978895 0)
(0.0718727 0.039925 0)
(0.0754837 0.0669508 0)
(0.0697519 0.0819505 0)
(0.0570727 0.0741083 0)
(0.0475753 0.0310941 0)
(0.00780051 0.0063973 0)
(-0.00901479 -0.00815453 0)
(-0.0142257 -0.0174614 0)
(-0.0164173 -0.0228743 0)
(-0.011084 -0.0153767 0)
(-0.00799794 -0.00626867 0)
(-0.0118408 0.00921539 0)
(-0.0438103 0.0320595 0)
(-0.0668342 0.0452663 0)
(-0.0743162 0.045635 0)
(-0.0844995 0.0378886 0)
(-0.0881905 0.0282869 0)
(-0.0843042 0.00468534 0)
(-0.0645074 -0.0357682 0)
(-0.047055 -0.0877769 0)
(-0.0327535 -0.132041 0)
(-0.0131582 -0.166159 0)
(-0.00592546 -0.191144 0)
(0.00904695 -0.166845 0)
(-0.00431439 -0.173257 0)
(0.00514338 -0.186331 0)
(0.00733174 -0.155562 0)
(0.021587 -0.114989 0)
(0.042249 -0.0709025 0)
(0.0578986 -0.0222358 0)
(0.0723246 0.0296922 0)
(0.0758248 0.0583907 0)
(0.0740508 0.0702357 0)
(0.0660078 0.073099 0)
(0.0584579 0.0365776 0)
(0.0265895 0.0124218 0)
(-4.42969e-05 -0.00180642 0)
(-0.00899513 -0.0122423 0)
(-0.011439 -0.0181783 0)
(-0.00986077 -0.00854225 0)
(-0.00702092 0.00185519 0)
(-0.018436 0.0208897 0)
(-0.0552256 0.0378986 0)
(-0.0707053 0.0421574 0)
(-0.0768272 0.0422882 0)
(-0.0842059 0.0337693 0)
(-0.0887362 0.024497 0)
(-0.0829377 -0.0024647 0)
(-0.0617076 -0.0464889 0)
(-0.0406439 -0.0955001 0)
(-0.026436 -0.135868 0)
(-0.00586498 -0.170754 0)
(-0.00222467 -0.190089 0)
(0.00538883 -0.165294 0)
(-0.00329103 -0.172036 0)
(0.000964356 -0.188835 0)
(0.00213124 -0.160446 0)
(0.0154053 -0.123603 0)
(0.0385231 -0.0750757 0)
(0.0557345 -0.0327197 0)
(0.0694465 0.0211863 0)
(0.0747638 0.0513934 0)
(0.07499 0.0600096 0)
(0.0721209 0.0672209 0)
(0.0683336 0.0411544 0)
(0.0525901 0.0125438 0)
(0.0122103 0.00123635 0)
(-0.00314729 -0.00677013 0)
(-0.00447286 -0.00981152 0)
(-0.00767321 -0.000955359 0)
(-0.0102194 0.00989615 0)
(-0.0328019 0.0284228 0)
(-0.0609727 0.0393733 0)
(-0.0727108 0.0401859 0)
(-0.0774581 0.0395996 0)
(-0.082662 0.0319635 0)
(-0.0848198 0.0249081 0)
(-0.0778213 -0.00328974 0)
(-0.0557733 -0.0559417 0)
(-0.035472 -0.100973 0)
(-0.0185285 -0.140083 0)
(-0.00252225 -0.171144 0)
(-0.00414959 -0.188619 0)
(0.00068855 -0.162022 0)
(-0.00748668 -0.174611 0)
(-0.00256551 -0.189935 0)
(-0.0017541 -0.165766 0)
(0.00767226 -0.132216 0)
(0.0306847 -0.0809272 0)
(0.0493414 -0.0422454 0)
(0.0651029 0.013795 0)
(0.0719552 0.0448922 0)
(0.0738825 0.0515992 0)
(0.0741006 0.0558979 0)
(0.0741598 0.0426677 0)
(0.0623552 0.016103 0)
(0.0319853 0.00336656 0)
(0.00164586 -0.00101513 0)
(0.000590242 0.000353501 0)
(-0.0050779 0.00931921 0)
(-0.0143148 0.0175455 0)
(-0.0402018 0.0336776 0)
(-0.0613368 0.0418287 0)
(-0.0713414 0.0398758 0)
(-0.0755905 0.0370539 0)
(-0.0796235 0.0318293 0)
(-0.0796873 0.0264597 0)
(-0.06813 -0.00284542 0)
(-0.0462932 -0.0626276 0)
(-0.0284255 -0.10229 0)
(-0.0108113 -0.142699 0)
(-0.000755243 -0.17269 0)
(-0.00708109 -0.190533 0)
(-0.0082274 -0.165091 0)
(-0.0138182 -0.171051 0)
(-0.00419604 -0.187402 0)
(-0.00406753 -0.170531 0)
(0.00189371 -0.140163 0)
(0.0191998 -0.0889758 0)
(0.0412969 -0.0513176 0)
(0.0581637 0.00521602 0)
(0.0687808 0.0388269 0)
(0.0712762 0.0445953 0)
(0.0733537 0.0430839 0)
(0.0737491 0.0391405 0)
(0.0663793 0.024203 0)
(0.0501034 0.00913066 0)
(0.0091822 0.00568216 0)
(0.00383151 0.0109754 0)
(-0.0030046 0.0184712 0)
(-0.0154836 0.025438 0)
(-0.0401286 0.0397364 0)
(-0.0568244 0.0469685 0)
(-0.0675817 0.0412201 0)
(-0.0725872 0.0354175 0)
(-0.0756998 0.0334052 0)
(-0.0734474 0.0274599 0)
(-0.0558436 -0.00307988 0)
(-0.0323409 -0.0705727 0)
(-0.0181435 -0.103562 0)
(-0.00363319 -0.144443 0)
(0.000322204 -0.175551 0)
(-0.00843563 -0.196116 0)
(-0.00855354 -0.176458 0)
(-0.0149617 -0.166018 0)
(-0.0039705 -0.184556 0)
(-0.00561634 -0.174353 0)
(-0.00347397 -0.148481 0)
(0.00657396 -0.0974797 0)
(0.0329079 -0.0602055 0)
(0.0497549 -0.00410366 0)
(0.0643136 0.0326848 0)
(0.0685278 0.0394261 0)
(0.071746 0.0326945 0)
(0.0709526 0.0327025 0)
(0.0675355 0.0278846 0)
(0.0547167 0.0175821 0)
(0.0151334 0.0147934 0)
(0.00514917 0.0204825 0)
(-0.00149418 0.025812 0)
(-0.00942938 0.032747 0)
(-0.0326211 0.0449297 0)
(-0.0495949 0.0534754 0)
(-0.0621687 0.0428024 0)
(-0.0678869 0.0358356 0)
(-0.0694897 0.0368133 0)
(-0.0651001 0.0294018 0)
(-0.0392204 -0.00539245 0)
(-0.0166941 -0.0830651 0)
(-0.00577617 -0.115277 0)
(0.00163645 -0.150544 0)
(-0.00052129 -0.181934 0)
(-0.00733719 -0.205656 0)
(-0.00240532 -0.187336 0)
(-0.0113336 -0.1602 0)
(-0.00366141 -0.179192 0)
(-0.00640363 -0.177074 0)
(-0.00698955 -0.156798 0)
(-0.00359854 -0.104839 0)
(0.0267143 -0.0665891 0)
(0.0404419 -0.0145861 0)
(0.0581802 0.0249373 0)
(0.0645347 0.0336263 0)
(0.0693302 0.025085 0)
(0.0673845 0.0259158 0)
(0.0661337 0.0289981 0)
(0.0526724 0.0269297 0)
(0.0157229 0.0262226 0)
(0.00671425 0.0275085 0)
(0.00190156 0.0311245 0)
(-0.00502235 0.0376506 0)
(-0.0214438 0.0482671 0)
(-0.0408701 0.059799 0)
(-0.0536413 0.0471123 0)
(-0.0600832 0.0379619 0)
(-0.0601549 0.0422553 0)
(-0.0508668 0.0336946 0)
(-0.0151894 -0.00823767 0)
(-0.00352369 -0.096291 0)
(0.0042263 -0.13247 0)
(0.00422542 -0.167381 0)
(-0.000174306 -0.189859 0)
(-0.00607732 -0.211636 0)
(0.00883224 -0.199783 0)
(-0.00658634 -0.159305 0)
(0.00160865 -0.177865 0)
(-0.00305171 -0.180991 0)
(-0.0072229 -0.162092 0)
(-0.0105594 -0.10857 0)
(0.0158762 -0.0718484 0)
(0.0358719 -0.0216142 0)
(0.0507084 0.0194903 0)
(0.0583817 0.0299095 0)
(0.0652957 0.0208412 0)
(0.06366 0.0233745 0)
(0.0646134 0.0310335 0)
(0.0516286 0.035891 0)
(0.0182591 0.0343545 0)
(0.00892785 0.0335008 0)
(0.00526112 0.035576 0)
(-0.000344823 0.0423053 0)
(-0.0117478 0.0515007 0)
(-0.031371 0.065123 0)
(-0.0424156 0.0550504 0)
(-0.0492937 0.0453744 0)
(-0.0458254 0.0537438 0)
(-0.0367418 0.0432671 0)
(0.00479328 -0.0106616 0)
(0.00495312 -0.110377 0)
(0.00989505 -0.149823 0)
(0.00551414 -0.185237 0)
(0.000618389 -0.202897 0)
(-0.00172436 -0.21315 0)
(0.0195715 -0.201462 0)
(-0.00238815 -0.159636 0)
(0.00699729 -0.182278 0)
(-0.00203715 -0.182729 0)
(-0.00600999 -0.167329 0)
(-0.0155182 -0.110183 0)
(0.00320708 -0.0596898 0)
(0.0269822 -0.026825 0)
(0.0491792 0.023101 0)
(0.0493473 0.0326702 0)
(0.0567451 0.0258738 0)
(0.0559844 0.0283473 0)
(0.0592355 0.0358862 0)
(0.0517298 0.0432365 0)
(0.0233972 0.0421976 0)
(0.0110709 0.0391048 0)
(0.00753881 0.0394123 0)
(0.0040876 0.0443296 0)
(-0.00336265 0.0540126 0)
(-0.0213594 0.0694284 0)
(-0.0302307 0.0657413 0)
(-0.0371735 0.0585392 0)
(-0.0309355 0.0673085 0)
(-0.022358 0.0534314 0)
(0.0124504 -0.00640666 0)
(0.00372294 -0.110964 0)
(0.0136523 -0.158575 0)
(0.00592783 -0.196732 0)
(0.00201464 -0.20954 0)
(0.00286816 -0.20599 0)
(0.017068 -0.197374 0)
(-0.000695342 -0.165031 0)
(0.00557604 -0.188099 0)
(-0.00483456 -0.182489 0)
(-0.0100767 -0.161842 0)
(-0.0214323 -0.102526 0)
(-0.00686775 -0.0466551 0)
(0.014855 -0.0179189 0)
(0.0426371 0.0257692 0)
(0.0508859 0.0431457 0)
(0.0533032 0.0376541 0)
(0.0500598 0.0405902 0)
(0.0511187 0.0433648 0)
(0.0495992 0.0485759 0)
(0.0324598 0.0469443 0)
(0.0141566 0.042798 0)
(0.0098282 0.041795 0)
(0.00606644 0.0460162 0)
(0.00158444 0.0552526 0)
(-0.0114274 0.0732501 0)
(-0.0153421 0.0794834 0)
(-0.0239345 0.0726759 0)
(-0.019708 0.0797538 0)
(-0.00968299 0.0636588 0)
(0.0156769 0.00802337 0)
(0.00505761 -0.0955488 0)
(0.0155093 -0.15605 0)
(0.00409216 -0.198825 0)
(-0.00127073 -0.208856 0)
(-0.000912409 -0.211591 0)
(0.0100856 -0.191289 0)
(-0.00470839 -0.16869 0)
(0.00182518 -0.196418 0)
(-0.0105464 -0.180945 0)
(-0.0133489 -0.152468 0)
(-0.0274691 -0.0952565 0)
(-0.020929 -0.0332707 0)
(0.00381547 -0.0152119 0)
(0.0309704 0.0273747 0)
(0.0462943 0.0499263 0)
(0.0511875 0.0497484 0)
(0.049804 0.0516669 0)
(0.0486408 0.0531316 0)
(0.0480235 0.0543003 0)
(0.0348876 0.0532296 0)
(0.0214534 0.0457469 0)
(0.0128693 0.0450029 0)
(0.00835532 0.0474366 0)
(0.00387179 0.0564663 0)
(-0.00378498 0.0725105 0)
(-0.00315436 0.0886959 0)
(-0.00861584 0.0861856 0)
(-0.00886613 0.0957546 0)
(-0.00171593 0.0747315 0)
(0.0172759 0.0260745 0)
(0.0108269 -0.0762364 0)
(0.0176038 -0.149322 0)
(0.00686709 -0.188502 0)
(0.00320957 -0.206094 0)
(-0.00398582 -0.215403 0)
(0.00226101 -0.188015 0)
(-0.00658043 -0.16969 0)
(0.000115409 -0.199676 0)
(-0.0129494 -0.18198 0)
(-0.0174279 -0.142184 0)
(-0.0358752 -0.0890404 0)
(-0.0356485 -0.0252228 0)
(-0.00560413 -0.00604924 0)
(0.0191933 0.0289429 0)
(0.0396245 0.0529886 0)
(0.0489748 0.058936 0)
(0.0509701 0.0642075 0)
(0.0499142 0.0634706 0)
(0.0497859 0.0625489 0)
(0.041767 0.0598024 0)
(0.0282842 0.0535457 0)
(0.0185778 0.0482979 0)
(0.0121648 0.049777 0)
(0.00676789 0.0566368 0)
(0.000581644 0.0721785 0)
(0.000467812 0.0901061 0)
(0.00358199 0.0974961 0)
(0.00525939 0.11356 0)
(0.00479877 0.093938 0)
(0.0195889 0.0398097 0)
(0.0179327 -0.0597421 0)
(0.0237063 -0.138543 0)
(0.0133869 -0.182143 0)
(0.00985122 -0.206197 0)
(-0.00135761 -0.22395 0)
(0.00197384 -0.189617 0)
(-0.0092263 -0.168002 0)
(0.00309463 -0.200468 0)
(-0.0125757 -0.175101 0)
(-0.0230036 -0.135518 0)
(-0.0406874 -0.0847031 0)
(-0.044927 -0.0224987 0)
(-0.0104214 0.00337607 0)
(0.0109136 0.0331425 0)
(0.0320935 0.0525994 0)
(0.0458981 0.0650853 0)
(0.0503517 0.0732628 0)
(0.0507469 0.0748422 0)
(0.0511107 0.0715436 0)
(0.0489824 0.0670835 0)
(0.0377212 0.0606806 0)
(0.0245359 0.0552419 0)
(0.0167864 0.0535202 0)
(0.0109441 0.0597154 0)
(0.00288275 0.0729616 0)
(-0.00122154 0.0917998 0)
(0.00768248 0.102033 0)
(0.0137184 0.124909 0)
(0.0105422 0.112048 0)
(0.0216839 0.0541213 0)
(0.0223319 -0.0452571 0)
(0.02866 -0.127113 0)
(0.0186832 -0.172872 0)
(0.016049 -0.209422 0)
(0.00183576 -0.224577 0)
(0.0051476 -0.188495 0)
(-0.0140166 -0.166173 0)
(0.00121298 -0.194586 0)
(-0.0125051 -0.161489 0)
(-0.0268983 -0.126433 0)
(-0.0441174 -0.0802398 0)
(-0.0474122 -0.0240156 0)
(-0.0179623 0.00939731 0)
(0.00510772 0.0330928 0)
(0.0238955 0.0542748 0)
(0.0405029 0.0690055 0)
(0.0482849 0.0811613 0)
(0.0505623 0.083662 0)
(0.0510777 0.0825841 0)
(0.050321 0.0764093 0)
(0.0447507 0.0704749 0)
(0.031495 0.0637613 0)
(0.0198873 0.0608124 0)
(0.0133282 0.0634282 0)
(0.00230698 0.0765773 0)
(-0.0049285 0.0936657 0)
(0.0051749 0.105158 0)
(0.0150822 0.129321 0)
(0.0125142 0.123092 0)
(0.0245713 0.0696601 0)
(0.0294477 -0.0312427 0)
(0.0325056 -0.11747 0)
(0.0229123 -0.163748 0)
(0.0167622 -0.203277 0)
(0.00241511 -0.228257 0)
(0.00633598 -0.185405 0)
(-0.0177785 -0.166014 0)
(0.00087049 -0.186319 0)
(-0.0146162 -0.142296 0)
(-0.0285017 -0.113944 0)
(-0.0448312 -0.0746338 0)
(-0.0490062 -0.0262795 0)
(-0.0252562 0.0110086 0)
(0.00112929 0.0298918 0)
(0.0190238 0.0548293 0)
(0.0345299 0.0711684 0)
(0.0451972 0.086064 0)
(0.0495768 0.0913268 0)
(0.0500889 0.0901007 0)
(0.0495101 0.0869345 0)
(0.0458777 0.0794249 0)
(0.0359607 0.0739561 0)
(0.0222154 0.0695942 0)
(0.0128683 0.0708937 0)
(0.000999202 0.0795149 0)
(-0.00696337 0.0959121 0)
(-0.00156134 0.10722 0)
(0.00862802 0.130743 0)
(0.00976188 0.125211 0)
(0.0189654 0.0682431 0)
(0.0356002 -0.0213257 0)
(0.035454 -0.106066 0)
(0.0270062 -0.150524 0)
(0.0189213 -0.192089 0)
(0.00166894 -0.22505 0)
(0.00869204 -0.183413 0)
(-0.0162519 -0.163458 0)
(0.00294622 -0.177506 0)
(-0.014086 -0.128651 0)
(-0.0258585 -0.101526 0)
(-0.0424295 -0.0695152 0)
(-0.048157 -0.0276397 0)
(-0.0289601 0.010703 0)
(-0.00279405 0.0267871 0)
(0.0152466 0.0510859 0)
(0.0286178 0.0705976 0)
(0.0404038 0.0880085 0)
(0.0476976 0.0968628 0)
(0.0484675 0.0976415 0)
(0.0467836 0.0935288 0)
(0.0423111 0.0888733 0)
(0.0340373 0.0838608 0)
(0.022453 0.0818006 0)
(0.0100217 0.0804901 0)
(-0.000817854 0.0866938 0)
(-0.0079799 0.0990026 0)
(-0.00712929 0.11127 0)
(0.00432697 0.130234 0)
(0.00638406 0.117751 0)
(0.00948682 0.0589162 0)
(0.0382075 -0.0170092 0)
(0.037788 -0.0974321 0)
(0.0309783 -0.136377 0)
(0.0218233 -0.173238 0)
(0.00296556 -0.215433 0)
(0.0109921 -0.180538 0)
(-0.0169345 -0.158123 0)
(0.0025844 -0.16434 0)
(-0.0134664 -0.113223 0)
(-0.0205163 -0.0879686 0)
(-0.035446 -0.0649818 0)
(-0.043101 -0.0299689 0)
(-0.0308621 0.0111462 0)
(-0.0068625 0.0315451 0)
(0.0111132 0.0488212 0)
(0.022344 0.0754517 0)
(0.0334884 0.0907464 0)
(0.0419135 0.102943 0)
(0.0475402 0.105454 0)
(0.0466378 0.104477 0)
(0.0421839 0.100391 0)
(0.0336023 0.0973185 0)
(0.0223092 0.0938973 0)
(0.00964477 0.0933688 0)
(-0.00284214 0.0963549 0)
(-0.00975867 0.107971 0)
(-0.0113084 0.116864 0)
(-0.00149903 0.129961 0)
(-0.00106013 0.107032 0)
(0.0130946 0.0553378 0)
(0.0381809 -0.0166851 0)
(0.0396184 -0.0893734 0)
(0.0336626 -0.120764 0)
(0.0237364 -0.155903 0)
(0.00309887 -0.202418 0)
(0.00999472 -0.175674 0)
(-0.0199842 -0.147855 0)
(-0.000447559 -0.14976 0)
(-0.0123109 -0.097846 0)
(-0.0155635 -0.0736366 0)
(-0.0274602 -0.0586823 0)
(-0.0355936 -0.0331411 0)
(-0.0296759 0.0110639 0)
(-0.00704119 0.0338066 0)
(0.00825664 0.0506935 0)
(0.018391 0.077047 0)
(0.0279423 0.0976231 0)
(0.0346313 0.109444 0)
(0.0404832 0.116011 0)
(0.0394209 0.112422 0)
(0.0353673 0.110765 0)
(0.0273621 0.10753 0)
(0.016937 0.106452 0)
(0.005706 0.105023 0)
(-0.00546121 0.110126 0)
(-0.0108854 0.11813 0)
(-0.0122766 0.125171 0)
(-0.00389239 0.130146 0)
(-0.00451088 0.0988973 0)
(0.0205503 0.053405 0)
(0.041126 -0.0178235 0)
(0.0393644 -0.0821238 0)
(0.0325439 -0.108402 0)
(0.0210333 -0.142016 0)
(0.00215599 -0.19193 0)
(0.00869636 -0.173094 0)
(-0.0201594 -0.134444 0)
(-0.00454796 -0.1338 0)
(-0.0126388 -0.0832324 0)
(-0.0115812 -0.0590585 0)
(-0.019483 -0.051332 0)
(-0.0275881 -0.0342491 0)
(-0.0265931 0.0117838 0)
(-0.00604454 0.0374417 0)
(0.0071842 0.0527676 0)
(0.0158915 0.0792243 0)
(0.0239773 0.100635 0)
(0.0290337 0.115554 0)
(0.0344093 0.123045 0)
(0.0358619 0.125502 0)
(0.0290019 0.120765 0)
(0.02185 0.11895 0)
(0.0124599 0.116889 0)
(0.00296494 0.116848 0)
(-0.00581774 0.120305 0)
(-0.00974979 0.128676 0)
(-0.0107983 0.131832 0)
(-0.00359571 0.131168 0)
(-0.00183424 0.0941237 0)
(0.0261637 0.0529152 0)
(0.0453039 -0.0181106 0)
(0.0370885 -0.0749475 0)
(0.0292398 -0.096744 0)
(0.0171431 -0.128851 0)
(0.00127251 -0.182826 0)
(0.00952064 -0.168853 0)
(-0.015305 -0.124627 0)
(-0.00796347 -0.111883 0)
(-0.0136341 -0.0673842 0)
(-0.00962276 -0.0451138 0)
(-0.0133898 -0.0427026 0)
(-0.0203357 -0.0337247 0)
(-0.0239056 0.0140491 0)
(-0.00711801 0.0427321 0)
(0.00792126 0.0561354 0)
(0.0144933 0.0818986 0)
(0.0206878 0.106568 0)
(0.0246715 0.119931 0)
(0.028712 0.131349 0)
(0.030864 0.134341 0)
(0.0236214 0.131211 0)
(0.0172472 0.127852 0)
(0.00855558 0.127373 0)
(0.000652726 0.125558 0)
(-0.00578017 0.130041 0)
(-0.00774793 0.134448 0)
(-0.00793055 0.135985 0)
(-0.00181163 0.131481 0)
(0.00390603 0.0954821 0)
(0.0308078 0.051859 0)
(0.0448159 -0.015781 0)
(0.0331071 -0.0675194 0)
(0.0245019 -0.0857819 0)
(0.0127364 -0.119261 0)
(0.000908408 -0.175165 0)
(0.0113563 -0.164352 0)
(-0.0117933 -0.119865 0)
(-0.00803769 -0.0949991 0)
(-0.0107553 -0.0576978 0)
(-0.00952716 -0.0331103 0)
(-0.00754293 -0.0348216 0)
(-0.0148452 -0.0306993 0)
(-0.0217796 0.0161482 0)
(-0.00726488 0.0477048 0)
(0.00797839 0.0584603 0)
(0.0136092 0.0854475 0)
(0.0183542 0.110366 0)
(0.0209813 0.127262 0)
(0.0230914 0.137616 0)
(0.0253208 0.144051 0)
(0.0183061 0.140237 0)
(0.0114516 0.137748 0)
(0.00426283 0.135768 0)
(-0.00154612 0.135407 0)
(-0.00499334 0.137158 0)
(-0.00439723 0.141116 0)
(-0.00380552 0.141438 0)
(-0.000458418 0.134425 0)
(0.0136441 0.096706 0)
(0.0385831 0.0571249 0)
(0.043246 -0.0121457 0)
(0.0291721 -0.0595506 0)
(0.0195107 -0.0789711 0)
(0.00968515 -0.11217 0)
(0.000566467 -0.168522 0)
(0.0127905 -0.159664 0)
(-0.00821974 -0.117212 0)
(-0.00618455 -0.0839451 0)
(-0.00746912 -0.0501304 0)
(-0.00565705 -0.0306546 0)
(-0.00187452 -0.0318277 0)
(-0.00467341 -0.0293003 0)
(-0.0198627 0.0168002 0)
(-0.00510911 0.050614 0)
(0.00762064 0.0649005 0)
(0.0128296 0.0881373 0)
(0.0161577 0.115207 0)
(0.0182473 0.132435 0)
(0.0187383 0.144909 0)
(0.0202482 0.15062 0)
(0.0152277 0.150557 0)
(0.00650172 0.146035 0)
(0.000824591 0.145283 0)
(-0.00315796 0.143251 0)
(-0.00440606 0.145546 0)
(-0.00362185 0.14839 0)
(-0.0059043 0.144951 0)
(-0.00358901 0.11905 0)
(0.0212329 0.0887581 0)
(0.04418 0.0600306 0)
(0.0412644 -0.00888895 0)
(0.0257816 -0.0505991 0)
(0.0160129 -0.0744672 0)
(0.00750987 -0.108746 0)
(0.000332469 -0.162254 0)
(0.0130778 -0.156881 0)
(-0.00599805 -0.11985 0)
(-0.00186212 -0.0850979 0)
(-0.00385763 -0.0524187 0)
(0.00219542 -0.036805 0)
(0.00732007 -0.0348862 0)
(0.00647915 -0.0331224 0)
(-0.0134116 0.0150063 0)
(-0.00450655 0.0560729 0)
(0.00572915 0.0716558 0)
(0.0104425 0.0930302 0)
(0.0122458 0.118872 0)
(0.0137697 0.138954 0)
(0.0140276 0.150562 0)
(0.0150692 0.158084 0)
(0.0118663 0.157806 0)
(0.00231239 0.154975 0)
(-0.00168676 0.15252 0)
(-0.00400394 0.152084 0)
(-0.00389712 0.152606 0)
(-0.00407274 0.155835 0)
(-0.00408837 0.138786 0)
(0.000390088 0.105529 0)
(0.0230745 0.0827188 0)
(0.0463356 0.0614534 0)
(0.0381741 -0.00668228 0)
(0.0232206 -0.0451719 0)
(0.0129918 -0.0744408 0)
(0.00631557 -0.108467 0)
(0.000110298 -0.157532 0)
(0.0124893 -0.155603 0)
(-0.00612071 -0.123657 0)
(0.00487622 -0.0946007 0)
(0.00980962 -0.0670878 0)
(0.0137759 -0.0458855 0)
(0.0173996 -0.0398298 0)
(0.0164666 -0.0363562 0)
(-0.00978846 0.0175261 0)
(-0.00224569 0.0590782 0)
(0.00426006 0.077544 0)
(0.00752846 0.097005 0)
(0.00802925 0.123393 0)
(0.00810816 0.143088 0)
(0.00826419 0.157388 0)
(0.00920227 0.163727 0)
(0.00730835 0.165287 0)
(-0.00148194 0.16196 0)
(-0.00392416 0.160625 0)
(-0.00457614 0.158838 0)
(-0.0034262 0.160729 0)
(-0.00369726 0.160821 0)
(0.00259266 0.133854 0)
(0.0118465 0.0996594 0)
(0.0269943 0.0792873 0)
(0.0466116 0.0603849 0)
(0.0361799 -0.00585779 0)
(0.020777 -0.0462027 0)
(0.00951489 -0.074971 0)
(0.00432533 -0.109369 0)
(-0.000172595 -0.157568 0)
(0.0129301 -0.157006 0)
(-0.00721444 -0.120927 0)
(0.0100538 -0.0981918 0)
(0.0136769 -0.0748009 0)
(0.0174963 -0.0531346 0)
(0.0204411 -0.0433598 0)
(0.0207654 -0.0358143 0)
(-0.00983408 0.0213403 0)
(-0.00373513 0.064255 0)
(0.00171743 0.082105 0)
(0.00399473 0.102079 0)
(0.00294828 0.126301 0)
(0.00236599 0.147409 0)
(0.00180156 0.161614 0)
(0.00270331 0.169928 0)
(0.00176924 0.170862 0)
(-0.00508838 0.169424 0)
(-0.0060092 0.166777 0)
(-0.00482293 0.166421 0)
(-0.00254143 0.166286 0)
(-0.000359598 0.164434 0)
(0.0111368 0.124931 0)
(0.0217843 0.0976028 0)
(0.0305124 0.0790505 0)
(0.0462972 0.0571929 0)
(0.0333857 -0.00600706 0)
(0.0163601 -0.0439913 0)
(0.00541512 -0.0739385 0)
(0.00108875 -0.111668 0)
(-0.00255509 -0.16078 0)
(0.0142077 -0.160113 0)
(-0.0100399 -0.113147 0)
(0.00543674 -0.0969591 0)
(0.0105964 -0.0751925 0)
(0.0142088 -0.0521987 0)
(0.0177126 -0.0407827 0)
(0.0167782 -0.0285177 0)
(-0.0149296 0.0283491 0)
(-0.0109598 0.0700746 0)
(-0.00260626 0.0881609 0)
(-0.000433048 0.106307 0)
(-0.00256663 0.131136 0)
(-0.00347308 0.150736 0)
(-0.0050232 0.166222 0)
(-0.00436019 0.174018 0)
(-0.00468224 0.176232 0)
(-0.00883758 0.174667 0)
(-0.00787046 0.173191 0)
(-0.0049213 0.171717 0)
(-0.00134048 0.171643 0)
(0.00364322 0.164683 0)
(0.0169533 0.115363 0)
(0.0254598 0.0938749 0)
(0.0309555 0.0806411 0)
(0.0450244 0.0555286 0)
(0.0299883 -0.00313132 0)
(0.011625 -0.0374721 0)
(0.00151355 -0.0710691 0)
(-0.0026515 -0.112707 0)
(-0.00703583 -0.162113 0)
(0.0152244 -0.161632 0)