/*--------------------------------*- C++ -*----------------------------------*\
| =========                 |                                                 |
| \\      /  F ield         | OpenFOAM: The Open Source CFD Toolbox           |
|  \\    /   O peration     | Version:  2.3.0                                 |
|   \\  /    A nd           | Web:      www.OpenFOAM.org                      |
|    \\/     M anipulation  |                                                 |
\*---------------------------------------------------------------------------*/
FoamFile
{
    version     2.0;
    format      ascii;
    class       volScalarField;
    location    "3.2979";
    object      k.water;
}
// * * * * * * * * * * * * * * * * * * * * * * * * * * * * * * * * * * * * * //

dimensions      [0 2 -2 0 0 0 0];

internalField   nonuniform List<scalar> 
1000
(
0.00207434
0.00270521
0.00181523
0.00114005
0.000800773
0.000188005
1.15983e-12
3.36579e-15
0.00243064
0.00313048
1e-15
1e-15
5.92761e-15
0.00194284
0.00129322
0.00097739
0.00071761
0.0009172
0.00152503
0.00237126
0.00259257
0.0013826
0.000908759
0.00077389
0.000552023
0.000458726
0.000439165
0.000443654
9.92353e-16
1e-15
0.00141179
0.000157922
0.000339065
0.000387
0.000396488
0.00040289
0.000397967
0.00038677
0.000427954
0.00201891
0.00297061
0.00118981
0.000867512
0.000820429
0.000602873
0.000489318
0.000456642
0.000440341
9.94936e-16
1e-15
1e-15
0.000253588
0.000293412
0.000303755
0.000387881
0.000454779
0.000462875
0.000442273
0.000501818
0.00200404
0.00339271
0.00136921
0.000962085
0.000830431
0.000517516
0.000440253
0.000430634
0.000422995
0.00045296
1e-15
1e-15
0.000505419
0.000298362
0.000288769
0.000411526
0.000492172
0.000494926
0.000484077
0.000618174
0.00209455
0.00334401
0.00217732
0.00118317
0.000637168
0.000435683
0.000418634
0.000421532
0.000424976
0.000466302
0.000228023
1e-15
0.000835479
0.000396088
0.000302862
0.000427699
0.000500596
0.000506718
0.000519338
0.000759194
0.00216756
0.00294919
0.0023446
0.000873493
0.000441266
0.000367309
0.000380028
0.000395683
0.000411921
0.000465411
0.000911346
0.00086237
0.00136284
0.000598884
0.000375366
0.000443761
0.000478821
0.000498019
0.000544077
0.000759252
0.00220298
0.00227392
0.00131589
0.000404486
0.000289873
0.00031239
0.000353337
0.000379875
0.000401968
0.000454383
0.00101178
0.00296211
0.00259589
0.000988631
0.000492895
0.000448921
0.000426478
0.000458095
0.000578877
0.000819204
0.00229038
0.0010956
0.000306031
0.000214019
0.000225474
0.000262852
0.000296688
0.000334874
0.000367914
0.000445312
0.000896164
0.00398676
0.00356515
0.00137331
0.000600387
0.000389085
0.000346628
0.000387306
0.000601127
0.000982961
0.00244955
0.000284839
0.000121187
0.000149161
0.000159892
0.000198475
0.000231614
0.000264762
0.000299073
0.000406065
0.000867023
0.00426352
0.00432242
0.00181743
0.000688641
0.000273601
0.000245319
0.00028418
0.000538743
0.00123446
0.00256681
0.000108031
6.30288e-05
8.01078e-05
8.62854e-05
9.94151e-05
0.000109484
0.000119221
0.000129711
0.000206192
0.00116947
0.00510018
0.00439719
0.00175479
0.000624515
0.000107412
0.000121346
0.000133738
0.000239193
0.00162343
0.00249075
0.000842908
0.00118737
0.000873928
0.00075714
0.000685249
0.000473722
0.000446322
0.0004829
0.000709449
0.000965794
0.000296136
0.000273712
0.000437345
0.0007544
0.000569067
0.000520251
0.000473016
0.000499294
0.000597839
0.000904478
0.000761895
0.00078182
0.000582123
0.000508355
0.000380895
0.000312264
0.000302015
0.000318592
0.000106974
0.000493167
0.000341734
0.000165105
0.0002348
0.000262481
0.000285008
0.000296759
0.000293116
0.000282826
0.000329627
0.000821119
0.000779641
0.000743477
0.000659607
0.000504588
0.000332652
0.000269906
0.00026399
0.000276769
0.000179402
0.000170067
0.000214478
0.000240342
0.000231385
0.000241574
0.00027915
0.000283515
0.000279168
0.00029462
0.000459686
0.000782704
0.000769849
0.000773755
0.000677024
0.000399681
0.000234009
0.000210071
0.000212287
0.000231475
0.000302558
0.000233799
0.000160636
0.000222818
0.000275446
0.000263608
0.000300166
0.000279831
0.00026978
0.000300141
0.000620337
0.000800824
0.00029606
0.000939114
0.000622047
0.000258727
0.000185714
0.000185587
0.000190605
0.00021079
0.000300281
0.000334138
0.000181114
0.000184168
0.000260114
0.000291239
0.000305499
0.00026017
0.000238396
0.00029341
0.000789142
0.000802558
1.31446e-12
0.000819109
0.000334454
0.00016785
0.000149203
0.000151966
0.00015748
0.0001757
0.000274587
0.0004651
0.000251025
0.000200693
0.000226767
0.000292905
0.000305711
0.000229936
0.000201964
0.000283093
0.000761424
0.00079348
1e-15
0.000241556
0.000136969
0.00012315
0.000128253
0.000130578
0.000129262
0.00013919
0.00023195
0.000679985
0.000618037
0.000350507
0.000256898
0.000309413
0.000302429
0.000183116
0.000157688
0.000311829
0.000766236
0.000725947
9.99999e-16
6.2103e-05
0.000103257
9.36337e-05
9.41465e-05
9.21753e-05
8.67603e-05
9.22081e-05
0.000210461
0.000580325
0.00129466
0.000737904
0.000341864
0.000349199
0.000293988
0.00012919
0.000116431
0.000402155
0.000858546
3.49807e-15
9.91566e-16
8.16736e-05
7.45989e-05
6.73377e-05
7.20825e-05
7.0878e-05
6.58619e-05
6.08417e-05
0.000175591
0.000626599
0.00163425
0.00136759
0.000541869
0.000439948
0.000231926
8.89877e-05
7.97027e-05
0.000421334
0.000835612
9.92749e-16
2.01864e-11
5.45948e-05
4.92909e-05
4.69459e-05
4.9139e-05
4.71423e-05
4.57771e-05
4.18349e-05
8.08007e-05
0.00100163
0.00219609
0.00163947
0.000622094
0.000446407
9.12629e-05
5.77948e-05
4.64889e-05
0.000105292
0.000869653
9.93015e-16
0.000627189
0.000866879
0.000700153
0.000653195
0.000612317
0.000448596
0.000431368
0.000445316
0.000483583
0.000626823
0.000334674
0.000310655
0.000428551
0.000523046
0.000447536
0.000433757
0.000421961
0.000429579
0.000459216
0.000580557
8.83412e-13
0.000603891
0.000468038
0.000374951
0.000287775
0.000248619
0.000246069
0.000272697
0.000156079
0.000307301
0.000295901
0.000172835
0.000212209
0.00023202
0.000250834
0.000254441
0.000248156
0.000247437
0.000298281
0.000485102
9.93349e-16
0.000611997
0.00052984
0.000325819
0.000210942
0.000185012
0.000190297
0.00022117
0.00017877
0.000149469
0.000195149
0.000241819
0.000217774
0.000223681
0.000247787
0.000226212
0.00021198
0.000240353
0.000447041
0.00038893
9.93617e-16
0.000552262
0.000427497
0.000190005
0.000133702
0.000124886
0.000131145
0.000168159
0.000217253
0.000174597
0.000162344
0.000213769
0.000273191
0.000254916
0.000268555
0.000215277
0.000183958
0.000228985
0.00060967
0.000373216
9.9271e-16
0.000354161
0.000219285
0.000120067
0.000103146
9.86986e-05
0.00010428
0.000138533
0.000227935
0.000201262
0.000133305
0.000151094
0.000237971
0.000280713
0.000272122
0.000194206
0.000134439
0.000203463
0.000777777
2.09571e-08
9.93384e-16
0.000120363
9.92666e-05
8.73629e-05
7.93092e-05
6.76967e-05
6.69551e-05
9.05518e-05
0.000238359
0.000232254
0.000138003
0.000118191
0.000156449
0.000244021
0.000263537
0.000166216
9.83884e-05
0.000191594
0.000739743
1.75455e-15
9.92481e-16
1.95287e-05
6.56069e-05
7.04913e-05
6.14537e-05
5.32692e-05
4.81197e-05
5.69955e-05
0.000169794
0.000371949
0.000199661
0.000115565
0.000122127
0.000211721
0.000252586
0.000124879
6.79934e-05
0.00023699
0.000737499
9.91701e-16
9.92558e-16
4.69064e-05
6.24121e-05
4.9232e-05
4.565e-05
4.21803e-05
3.92351e-05
4.17714e-05
0.000150077
0.000475271
0.000388599
0.000149364
0.000125476
0.000226392
0.000251063
8.68464e-05
5.16461e-05
0.000340083
0.000811585
9.92259e-16
9.91236e-16
6.31343e-05
4.42479e-05
3.95026e-05
3.95782e-05
3.79988e-05
3.68174e-05
3.66705e-05
0.00013551
0.000586751
0.000528476
0.000260251
0.000150119
0.000304089
0.000216266
5.33049e-05
4.05337e-05
0.000355525
0.000753077
9.92271e-16
4.58065e-08
4.30989e-05
3.73918e-05
3.60953e-05
3.6883e-05
3.62085e-05
3.6034e-05
3.56097e-05
6.9913e-05
0.000960758
0.00087327
0.000495075
0.000220556
0.000370594
9.23551e-05
4.06698e-05
3.66413e-05
7.00325e-05
0.000688899
9.92382e-16
0.000843038
0.00118101
0.000863847
0.000745444
0.000667779
0.000472203
0.000435056
0.000471726
0.000698354
0.000975061
0.00030094
0.000273505
0.000444722
0.000775304
0.000585123
0.000533479
0.000478935
0.000505538
0.000607319
0.000913575
0.000754226
0.00077286
0.000573516
0.000497368
0.000371261
0.00030759
0.000298268
0.00031592
0.000112976
0.000480292
0.00028247
0.000173289
0.000234669
0.000263834
0.000285931
0.000297451
0.000293659
0.00028352
0.000330846
0.000829175
0.00076839
0.000738474
0.000654063
0.000493773
0.000326073
0.000267324
0.000262741
0.000276956
0.000148708
0.000212285
0.000199115
0.000251198
0.000230179
0.000241811
0.000278684
0.000282062
0.000278568
0.000294281
0.000459808
0.000788426
0.000758819
0.000771472
0.000671633
0.000389348
0.000231626
0.000209551
0.00021318
0.000240809
0.000172407
0.000266193
0.000253864
0.000263011
0.000281078
0.000262451
0.000294167
0.000276731
0.000268752
0.000299835
0.000620345
0.000806785
0.000340324
0.000940945
0.000608874
0.000255576
0.000185817
0.000185805
0.000191909
0.000221817
0.000212157
0.000216264
0.00019732
0.000223591
0.000263007
0.000280708
0.000294482
0.000253503
0.000236311
0.000292863
0.00079011
0.000808126
2.21506e-12
0.00080018
0.000325294
0.000168046
0.000150296
0.000152535
0.000157848
0.000176532
0.000311463
0.00028268
0.000137591
0.000132297
0.000181722
0.000217632
0.000273453
0.000216902
0.000199116
0.000282732
0.000765453
0.000799794
1.41652e-15
0.000231713
0.000136549
0.000124756
0.000128341
0.000129925
0.000129057
0.000139358
0.000231741
0.000539533
0.000159095
0.000111959
0.000127789
0.00018251
0.000245673
0.000172146
0.000156663
0.000313293
0.000769835
0.000707851
9.99997e-16
6.36757e-05
0.000104181
9.28155e-05
9.34452e-05
9.20184e-05
8.66685e-05
9.17476e-05
0.000209598
0.000626345
0.000224205
7.93931e-05
9.63833e-05
0.000189865
0.000236573
0.000133996
0.000117338
0.000403528
0.000861034
2.83431e-15
9.91824e-16
8.33289e-05
7.34313e-05
6.70931e-05
7.25657e-05
7.10192e-05
6.57693e-05
6.05789e-05
0.000175608
0.000723774
0.000230987
6.57565e-05
9.17092e-05
0.000258059
0.000202601
8.33917e-05
7.90194e-05
0.000421472
0.000842839
9.9282e-16
3.51042e-11
5.52135e-05
4.97592e-05
4.7046e-05
4.91261e-05
4.69984e-05
4.58967e-05
4.17981e-05
8.07287e-05
0.00107495
0.000267643
9.12344e-05
0.000113514
0.000348539
9.87825e-05
5.96635e-05
4.61329e-05
0.000103811
0.0008756
9.93094e-16
0.00207054
0.00267544
0.00178113
0.00110796
0.000759863
0.000281437
3.89319e-12
4.93696e-15
0.00235046
0.00317491
1e-15
1e-15
2.70758e-15
0.00200831
0.0013493
0.00102376
0.000738767
0.000937333
0.00155888
0.00240174
0.00256958
0.00136171
0.000898135
0.000772177
0.000550452
0.000458235
0.000437131
0.000442519
9.92908e-16
1e-15
1e-15
0.000189197
0.000339508
0.000389356
0.000397632
0.000403477
0.000398376
0.000387751
0.000430014
0.0020452
0.00294828
0.00117958
0.000866825
0.000819001
0.000599444
0.000487271
0.000454086
0.000441213
9.951e-16
1e-15
1e-15
0.000296502
0.000290202
0.00030394
0.000387611
0.000453702
0.000462423
0.000441893
0.000502025
0.00202831
0.00337565
0.0013672
0.000968177
0.000825928
0.000514956
0.000440022
0.000430539
0.000425044
1.19144e-15
1e-15
0.00200754
0.000990215
0.000312557
0.000287376
0.000404603
0.000488626
0.000493391
0.000483807
0.000617829
0.0021179
0.0033299
0.00216912
0.00117858
0.000635813
0.000436033
0.000419006
0.000422447
0.000427205
6.37506e-05
1.40779e-06
1e-15
0.000995157
0.00041601
0.000289327
0.000409961
0.00049496
0.000504143
0.000519157
0.000759958
0.00218631
0.00293148
0.00232411
0.000867633
0.000441466
0.000367749
0.00038028
0.000395718
0.000414148
0.000490831
0.000415342
1e-15
1e-15
3.53274e-11
0.000136386
0.000398335
0.000465196
0.000492854
0.000544411
0.000763739
0.0022237
0.00225111
0.00130779
0.000404296
0.000290594
0.000313203
0.000353419
0.000379996
0.000402347
0.000454691
0.000969816
1e-15
1e-15
9.97355e-16
7.13604e-05
0.000350294
0.000408245
0.00045561
0.000583106
0.000823889
0.00230755
0.00108093
0.000306916
0.000214501
0.00022527
0.000261915
0.000296071
0.000334832
0.000368071
0.000446349
0.00101166
1e-15
1e-15
9.99822e-16
0.000138654
0.000314994
0.000341114
0.000389953
0.0006038
0.000986597
0.00246496
0.000282525
0.000122165
0.000147856
0.000159118
0.000198728
0.000231987
0.000264592
0.000298784
0.000407347
0.00098543
1e-15
1e-15
1.04308e-15
0.000276867
0.000236489
0.000244647
0.000283893
0.000538869
0.00124109
0.00258423
0.000108261
6.328e-05
8.09631e-05
8.67956e-05
9.95686e-05
0.000109413
0.000119444
0.00012974
0.000206661
0.00124735
1e-15
1e-15
0.000341189
0.000424455
0.00011299
0.000120745
0.000133703
0.0002377
0.00163096
0.00250533
)
;

boundaryField
{
    aeration
    {
        type            fixedValue;
        value           uniform 3.75e-05;
    }
    xsides
    {
        type            kqRWallFunction;
        value           nonuniform List<scalar> 
100
(
0.00207434
0.00259257
0.00297061
0.00339271
0.00334401
0.00294919
0.00227392
0.0010956
0.000284839
0.000108031
0.000842908
0.000761895
0.000779641
0.000769849
0.00029606
1.31446e-12
1e-15
9.99999e-16
9.91566e-16
2.01864e-11
0.000627189
8.83412e-13
9.93349e-16
9.93617e-16
9.9271e-16
9.93384e-16
9.92481e-16
9.92558e-16
9.91236e-16
4.58065e-08
0.000843038
0.000754226
0.00076839
0.000758819
0.000340324
2.21506e-12
1.41652e-15
9.99997e-16
9.91824e-16
3.51042e-11
0.00207054
0.00256958
0.00294828
0.00337565
0.0033299
0.00293148
0.00225111
0.00108093
0.000282525
0.000108261
0.00237126
0.00201891
0.00200404
0.00209455
0.00216756
0.00220298
0.00229038
0.00244955
0.00256681
0.00249075
0.000904478
0.000821119
0.000782704
0.000800824
0.000802558
0.00079348
0.000725947
3.49807e-15
9.92749e-16
9.93015e-16
0.000580557
0.000485102
0.00038893
0.000373216
2.09571e-08
1.75455e-15
9.91701e-16
9.92259e-16
9.92271e-16
9.92382e-16
0.000913575
0.000829175
0.000788426
0.000806785
0.000808126
0.000799794
0.000707851
2.83431e-15
9.9282e-16
9.93094e-16
0.00240174
0.0020452
0.00202831
0.0021179
0.00218631
0.0022237
0.00230755
0.00246496
0.00258423
0.00250533
)
;
    }
    zsides
    {
        type            kqRWallFunction;
        value           nonuniform List<scalar> 
400
(
0.00207434
0.00259257
0.00297061
0.00339271
0.00334401
0.00294919
0.00227392
0.0010956
0.000284839
0.000108031
0.00270521
0.0013826
0.00118981
0.00136921
0.00217732
0.0023446
0.00131589
0.000306031
0.000121187
6.30288e-05
0.00181523
0.000908759
0.000867512
0.000962085
0.00118317
0.000873493
0.000404486
0.000214019
0.000149161
8.01078e-05
0.00114005
0.00077389
0.000820429
0.000830431
0.000637168
0.000441266
0.000289873
0.000225474
0.000159892
8.62854e-05
0.000800773
0.000552023
0.000602873
0.000517516
0.000435683
0.000367309
0.00031239
0.000262852
0.000198475
9.94151e-05
0.000188005
0.000458726
0.000489318
0.000440253
0.000418634
0.000380028
0.000353337
0.000296688
0.000231614
0.000109484
1.15983e-12
0.000439165
0.000456642
0.000430634
0.000421532
0.000395683
0.000379875
0.000334874
0.000264762
0.000119221
3.36579e-15
0.000443654
0.000440341
0.000422995
0.000424976
0.000411921
0.000401968
0.000367914
0.000299073
0.000129711
0.00243064
9.92353e-16
9.94936e-16
0.00045296
0.000466302
0.000465411
0.000454383
0.000445312
0.000406065
0.000206192
0.00313048
1e-15
1e-15
1e-15
0.000228023
0.000911346
0.00101178
0.000896164
0.000867023
0.00116947
1e-15
0.00141179
1e-15
1e-15
1e-15
0.00086237
0.00296211
0.00398676
0.00426352
0.00510018
1e-15
0.000157922
0.000253588
0.000505419
0.000835479
0.00136284
0.00259589
0.00356515
0.00432242
0.00439719
5.92761e-15
0.000339065
0.000293412
0.000298362
0.000396088
0.000598884
0.000988631
0.00137331
0.00181743
0.00175479
0.00194284
0.000387
0.000303755
0.000288769
0.000302862
0.000375366
0.000492895
0.000600387
0.000688641
0.000624515
0.00129322
0.000396488
0.000387881
0.000411526
0.000427699
0.000443761
0.000448921
0.000389085
0.000273601
0.000107412
0.00097739
0.00040289
0.000454779
0.000492172
0.000500596
0.000478821
0.000426478
0.000346628
0.000245319
0.000121346
0.00071761
0.000397967
0.000462875
0.000494926
0.000506718
0.000498019
0.000458095
0.000387306
0.00028418
0.000133738
0.0009172
0.00038677
0.000442273
0.000484077
0.000519338
0.000544077
0.000578877
0.000601127
0.000538743
0.000239193
0.00152503
0.000427954
0.000501818
0.000618174
0.000759194
0.000759252
0.000819204
0.000982961
0.00123446
0.00162343
0.00237126
0.00201891
0.00200404
0.00209455
0.00216756
0.00220298
0.00229038
0.00244955
0.00256681
0.00249075
0.00207054
0.00256958
0.00294828
0.00337565
0.0033299
0.00293148
0.00225111
0.00108093
0.000282525
0.000108261
0.00267544
0.00136171
0.00117958
0.0013672
0.00216912
0.00232411
0.00130779
0.000306916
0.000122165
6.328e-05
0.00178113
0.000898135
0.000866825
0.000968177
0.00117858
0.000867633
0.000404296
0.000214501
0.000147856
8.09631e-05
0.00110796
0.000772177
0.000819001
0.000825928
0.000635813
0.000441466
0.000290594
0.00022527
0.000159118
8.67956e-05
0.000759863
0.000550452
0.000599444
0.000514956
0.000436033
0.000367749
0.000313203
0.000261915
0.000198728
9.95686e-05
0.000281437
0.000458235
0.000487271
0.000440022
0.000419006
0.00038028
0.000353419
0.000296071
0.000231987
0.000109413
3.89319e-12
0.000437131
0.000454086
0.000430539
0.000422447
0.000395718
0.000379996
0.000334832
0.000264592
0.000119444
4.93696e-15
0.000442519
0.000441213
0.000425044
0.000427205
0.000414148
0.000402347
0.000368071
0.000298784
0.00012974
0.00235046
9.92908e-16
9.951e-16
1.19144e-15
6.37506e-05
0.000490831
0.000454691
0.000446349
0.000407347
0.000206661
0.00317491
1e-15
1e-15
1e-15
1.40779e-06
0.000415342
0.000969816
0.00101166
0.00098543
0.00124735
1e-15
1e-15
1e-15
0.00200754
1e-15
1e-15
1e-15
1e-15
1e-15
1e-15
1e-15
0.000189197
0.000296502
0.000990215
0.000995157
1e-15
1e-15
1e-15
1e-15
1e-15
2.70758e-15
0.000339508
0.000290202
0.000312557
0.00041601
3.53274e-11
9.97355e-16
9.99822e-16
1.04308e-15
0.000341189
0.00200831
0.000389356
0.00030394
0.000287376
0.000289327
0.000136386
7.13604e-05
0.000138654
0.000276867
0.000424455
0.0013493
0.000397632
0.000387611
0.000404603
0.000409961
0.000398335
0.000350294
0.000314994
0.000236489
0.00011299
0.00102376
0.000403477
0.000453702
0.000488626
0.00049496
0.000465196
0.000408245
0.000341114
0.000244647
0.000120745
0.000738767
0.000398376
0.000462423
0.000493391
0.000504143
0.000492854
0.00045561
0.000389953
0.000283893
0.000133703
0.000937333
0.000387751
0.000441893
0.000483807
0.000519157
0.000544411
0.000583106
0.0006038
0.000538869
0.0002377
0.00155888
0.000430014
0.000502025
0.000617829
0.000759958
0.000763739
0.000823889
0.000986597
0.00124109
0.00163096
0.00240174
0.0020452
0.00202831
0.0021179
0.00218631
0.0022237
0.00230755
0.00246496
0.00258423
0.00250533
)
;
    }
    outlet
    {
        type            inletOutlet;
        phi             phi.water;
        inletValue      uniform 3.75e-05;
        value           nonuniform List<scalar> 
100
(
0.000108031
2.01864e-11
4.58065e-08
3.51042e-11
0.000108261
6.30288e-05
3.75e-05
3.75e-05
3.75e-05
6.328e-05
3.75e-05
3.75e-05
3.75e-05
3.75e-05
3.75e-05
3.75e-05
3.75e-05
3.75e-05
3.75e-05
3.75e-05
3.75e-05
3.75e-05
3.75e-05
3.75e-05
3.75e-05
3.75e-05
3.75e-05
3.75e-05
3.75e-05
3.75e-05
3.75e-05
3.75e-05
3.75e-05
3.75e-05
3.75e-05
3.75e-05
3.75e-05
3.75e-05
3.75e-05
3.75e-05
3.75e-05
3.75e-05
3.75e-05
3.75e-05
3.75e-05
0.00116947
0.00100163
0.000960758
0.00107495
0.00124735
0.00510018
0.00219609
0.00087327
0.000267643
1e-15
0.00439719
0.00163947
0.000495075
9.12344e-05
1e-15
0.00175479
0.000622094
0.000220556
0.000113514
0.000341189
0.000624515
0.000446407
0.000370594
0.000348539
0.000424455
3.75e-05
3.75e-05
3.75e-05
3.75e-05
3.75e-05
3.75e-05
3.75e-05
3.75e-05
3.75e-05
3.75e-05
3.75e-05
3.75e-05
3.75e-05
3.75e-05
3.75e-05
3.75e-05
3.75e-05
3.75e-05
3.75e-05
3.75e-05
0.00162343
0.000869653
0.000688899
0.0008756
0.00163096
0.00249075
9.93015e-16
9.92382e-16
9.93094e-16
0.00250533
)
;
    }
}


// ************************************************************************* //
