/*--------------------------------*- C++ -*----------------------------------*\
| =========                 |                                                 |
| \\      /  F ield         | OpenFOAM: The Open Source CFD Toolbox           |
|  \\    /   O peration     | Version:  2.3.0                                 |
|   \\  /    A nd           | Web:      www.OpenFOAM.org                      |
|    \\/     M anipulation  |                                                 |
\*---------------------------------------------------------------------------*/
FoamFile
{
    version     2.0;
    format      ascii;
    class       volScalarField;
    location    "3.2979";
    object      nut.water;
}
// * * * * * * * * * * * * * * * * * * * * * * * * * * * * * * * * * * * * * //

dimensions      [0 2 -1 0 0 0 0];

internalField   nonuniform List<scalar> 
1000
(
5.89494e-06
5.99894e-06
4.37042e-06
3.97005e-06
5.01372e-06
3.60057e-07
1.6721e-23
1.2542e-28
3.61386e-06
5.48416e-06
4.23544e-30
2.79958e-30
5.43702e-29
4.8605e-06
3.55058e-06
3.28433e-06
3.07191e-06
3.01968e-06
3.78444e-06
6.55744e-06
6.54844e-06
5.48977e-06
4.41241e-06
4.40701e-06
4.48413e-06
4.43128e-06
4.21625e-06
4.02873e-06
1.02963e-30
7.48751e-31
1.95205e-06
5.41818e-07
2.6426e-06
3.38403e-06
3.6967e-06
3.94679e-06
4.09255e-06
4.09868e-06
4.92553e-06
6.2751e-06
7.03111e-06
5.41575e-06
5.79338e-06
4.53951e-06
3.90218e-06
3.59873e-06
3.5496e-06
3.8892e-06
4.08684e-30
7.84399e-31
1.38149e-30
7.94254e-07
3.79417e-06
4.13015e-06
4.09747e-06
3.69266e-06
3.63892e-06
3.86219e-06
6.96029e-06
6.19918e-06
8.01484e-06
5.43453e-06
6.76863e-06
4.0086e-06
3.07536e-06
2.98865e-06
3.02374e-06
3.33416e-06
3.39906e-06
1.27782e-30
1.51773e-30
9.38728e-07
3.58354e-06
6.87135e-06
4.29604e-06
3.39154e-06
3.35337e-06
3.76118e-06
9.43673e-06
6.33118e-06
8.01968e-06
6.68863e-06
5.21925e-06
3.04408e-06
2.67431e-06
2.73326e-06
2.77878e-06
2.97504e-06
3.33379e-06
8.80711e-08
1.82476e-30
1.3149e-06
1.4808e-06
7.63778e-06
3.95777e-06
3.14091e-06
3.06988e-06
3.50877e-06
1.15896e-05
6.46477e-06
7.27384e-06
6.92183e-06
3.17162e-06
2.38217e-06
2.37735e-06
2.4184e-06
2.47737e-06
2.56712e-06
3.469e-06
1.34225e-06
6.90486e-07
1.92656e-06
1.4769e-06
3.29309e-06
3.61312e-06
2.72301e-06
2.61411e-06
3.06318e-06
8.41145e-06
6.5133e-06
6.16672e-06
4.61208e-06
2.28597e-06
2.1186e-06
2.14417e-06
2.19409e-06
2.19322e-06
2.21856e-06
2.8994e-06
3.17419e-06
3.73456e-06
3.84207e-06
2.5417e-06
3.11585e-06
3.42581e-06
2.2961e-06
2.15747e-06
2.80686e-06
6.9739e-06
6.61398e-06
3.23269e-06
1.65954e-06
1.88214e-06
1.84215e-06
1.77243e-06
1.73758e-06
1.72237e-06
1.74375e-06
2.54491e-06
4.07165e-06
5.85582e-06
5.70614e-06
3.51038e-06
3.47257e-06
3.19892e-06
1.78766e-06
1.67e-06
3.02055e-06
6.54453e-06
6.37911e-06
9.63719e-07
2.02619e-06
1.4966e-06
1.34953e-06
1.27723e-06
1.25308e-06
1.23934e-06
1.24063e-06
1.93321e-06
5.72157e-06
7.11092e-06
7.38881e-06
4.69632e-06
4.0992e-06
2.67481e-06
1.22805e-06
1.18263e-06
3.53511e-06
5.72496e-06
6.49608e-06
6.53823e-07
1.34724e-06
7.46205e-07
7.03808e-07
6.50927e-07
6.4762e-07
6.57585e-07
6.53322e-07
9.00556e-07
8.23625e-06
9.00545e-06
8.1736e-06
4.81999e-06
4.21352e-06
1.21198e-06
6.75082e-07
6.89047e-07
1.59709e-06
6.04079e-06
6.42863e-06
2.52572e-06
4.48088e-06
4.09806e-06
4.7068e-06
5.47245e-06
2.90292e-06
2.55717e-06
2.57924e-06
2.18536e-06
2.96854e-06
1.13165e-06
1.01107e-06
1.7e-06
3.17121e-06
2.7959e-06
2.95776e-06
3.113e-06
2.89253e-06
2.51005e-06
2.934e-06
1.81288e-06
4.74972e-06
4.5164e-06
4.18294e-06
3.92105e-06
3.70302e-06
3.66454e-06
4.09002e-06
3.244e-07
1.4066e-06
1.09685e-06
1.80208e-06
3.06492e-06
3.46759e-06
3.76604e-06
3.73206e-06
3.75124e-06
3.90016e-06
4.77254e-06
2.59227e-06
1.45273e-06
5.1562e-06
5.64909e-06
3.81853e-06
2.97322e-06
2.77131e-06
2.88213e-06
3.32095e-06
1.27816e-06
3.04566e-07
6.26296e-07
1.91443e-06
4.12792e-06
4.47447e-06
3.91447e-06
3.20503e-06
3.0233e-06
3.48302e-06
6.98781e-06
2.38754e-06
1.14298e-06
4.5375e-06
4.86228e-06
2.74936e-06
2.10948e-06
2.13539e-06
2.20617e-06
2.56055e-06
3.49748e-06
5.77101e-07
4.33381e-07
1.15969e-06
4.43161e-06
6.41755e-06
4.14131e-06
2.9308e-06
2.68167e-06
3.16951e-06
9.75512e-06
2.36419e-06
1.63134e-07
3.77406e-06
3.28807e-06
1.8112e-06
1.79971e-06
1.85649e-06
1.9041e-06
2.18413e-06
3.36386e-06
8.46583e-07
4.91754e-07
7.26012e-07
2.08195e-06
5.77506e-06
3.92718e-06
2.5931e-06
2.12493e-06
2.7413e-06
1.19644e-05
2.15405e-06
1.81026e-24
2.68081e-06
1.48086e-06
1.41069e-06
1.54994e-06
1.50862e-06
1.50097e-06
1.67299e-06
2.90246e-06
1.2379e-06
5.49046e-07
6.30089e-07
1.21637e-06
3.29844e-06
3.54409e-06
2.22376e-06
1.66556e-06
2.39022e-06
9.81466e-06
2.02584e-06
1.35391e-30
6.17022e-07
8.56659e-07
1.42907e-06
1.40089e-06
1.26302e-06
1.15931e-06
1.21045e-06
2.1702e-06
3.25807e-06
1.20603e-06
8.38057e-07
1.08589e-06
2.61022e-06
3.27766e-06
1.7721e-06
1.26414e-06
2.52921e-06
7.23811e-06
1.95056e-06
2.38615e-30
1.49698e-07
1.18583e-06
1.19053e-06
1.03196e-06
9.15375e-07
7.73742e-07
7.69564e-07
1.88242e-06
3.70164e-06
2.95101e-06
1.75696e-06
1.30949e-06
2.74899e-06
3.4679e-06
1.24791e-06
9.50298e-07
3.65337e-06
7.0186e-06
2.84604e-29
7.99018e-30
9.28827e-07
1.10837e-06
9.51851e-07
8.78531e-07
8.01694e-07
7.06286e-07
5.85273e-07
1.54528e-06
4.65078e-06
4.15802e-06
3.61705e-06
2.03946e-06
3.59628e-06
3.12969e-06
9.93459e-07
8.52573e-07
4.25946e-06
5.24827e-06
1.90297e-30
9.00738e-21
1.01321e-06
9.23869e-07
8.84758e-07
9.3652e-07
8.83349e-07
8.58203e-07
7.59983e-07
9.06986e-07
7.38935e-06
6.05624e-06
4.84342e-06
2.68016e-06
4.29997e-06
1.50588e-06
1.03354e-06
8.30162e-07
1.07323e-06
4.26795e-06
1.69989e-30
2.3814e-06
4.55813e-06
4.62566e-06
5.10263e-06
5.53914e-06
3.36218e-06
3.06304e-06
3.03135e-06
2.59167e-06
2.78005e-06
1.60537e-06
1.59669e-06
2.4185e-06
2.98467e-06
2.92671e-06
3.11107e-06
3.26868e-06
3.11179e-06
2.63548e-06
2.39658e-06
5.15984e-24
4.88377e-06
4.70714e-06
3.87916e-06
3.56233e-06
3.45102e-06
3.51057e-06
4.13628e-06
1.66604e-06
1.6266e-06
1.52472e-06
2.44429e-06
3.42687e-06
3.74188e-06
3.8674e-06
3.67864e-06
3.59588e-06
3.86014e-06
5.01661e-06
1.72604e-06
6.62667e-30
5.30192e-06
5.33975e-06
3.17755e-06
2.45912e-06
2.44757e-06
2.61576e-06
3.19485e-06
2.22525e-06
1.04601e-06
1.03296e-06
2.40164e-06
4.34508e-06
4.59198e-06
4.01864e-06
3.12631e-06
2.85983e-06
3.3719e-06
6.86621e-06
1.22752e-06
4.74927e-30
3.886e-06
3.55927e-06
1.79787e-06
1.72187e-06
1.75089e-06
1.85066e-06
2.39394e-06
3.18183e-06
1.34186e-06
9.63523e-07
1.70811e-06
4.67089e-06
6.21081e-06
4.20959e-06
2.87766e-06
2.38468e-06
2.99343e-06
9.24493e-06
1.09429e-06
4.74627e-30
1.57746e-06
1.33371e-06
1.2409e-06
1.45909e-06
1.41609e-06
1.47969e-06
1.91986e-06
3.51312e-06
1.40966e-06
8.39097e-07
1.01828e-06
2.54546e-06
5.14282e-06
4.01079e-06
2.59157e-06
1.68637e-06
2.46123e-06
1.11582e-05
3.19188e-15
2.90647e-30
3.09218e-07
5.93511e-07
1.129e-06
1.22822e-06
1.01171e-06
9.65965e-07
1.26784e-06
3.82719e-06
1.33808e-06
8.14708e-07
8.05674e-07
1.2933e-06
3.05943e-06
3.53944e-06
2.24143e-06
1.2682e-06
2.22769e-06
9.17562e-06
2.09432e-29
4.35553e-30
2.65198e-08
6.6838e-07
1.23786e-06
1.01538e-06
8.28051e-07
7.35813e-07
8.35286e-07
2.27009e-06
2.38078e-06
9.59546e-07
6.98484e-07
8.93905e-07
2.207e-06
3.17963e-06
1.77716e-06
9.65533e-07
2.69716e-06
7.42411e-06
7.21737e-30
7.76229e-30
2.14816e-07
1.02247e-06
9.73532e-07
8.60679e-07
7.87357e-07
7.31977e-07
7.39201e-07
1.87188e-06
3.82675e-06
1.66591e-06
6.34997e-07
8.53271e-07
2.25063e-06
3.19805e-06
1.45455e-06
8.6923e-07
4.07472e-06
7.2505e-06
7.80325e-30
2.80586e-29
1.02247e-06
9.67911e-07
8.89449e-07
8.60287e-07
8.23435e-07
8.02334e-07
7.81507e-07
1.72469e-06
5.14413e-06
2.21026e-06
9.66855e-07
9.03957e-07
3.02173e-06
3.07978e-06
1.02353e-06
8.4873e-07
4.32272e-06
5.73838e-06
7.86675e-30
1.76016e-13
9.69121e-07
9.06193e-07
8.80478e-07
8.86968e-07
8.62515e-07
8.52434e-07
8.34127e-07
1.05656e-06
7.6203e-06
3.65595e-06
2.16336e-06
1.40474e-06
4.3253e-06
1.70735e-06
9.05844e-07
8.52556e-07
1.01068e-06
4.30003e-06
7.75214e-30
2.5367e-06
4.48088e-06
4.08884e-06
4.70887e-06
5.48208e-06
2.94576e-06
2.5213e-06
2.5553e-06
2.18029e-06
2.98526e-06
1.12513e-06
9.85427e-07
1.72148e-06
3.21982e-06
2.82586e-06
2.97438e-06
3.11614e-06
2.90374e-06
2.53043e-06
2.94747e-06
1.79788e-06
4.75185e-06
4.48908e-06
4.10129e-06
3.82209e-06
3.64923e-06
3.64597e-06
4.02413e-06
4.26979e-07
1.3767e-06
1.07732e-06
1.86591e-06
3.03859e-06
3.46147e-06
3.7625e-06
3.72738e-06
3.74933e-06
3.90455e-06
4.77844e-06
2.59851e-06
1.42819e-06
5.14595e-06
5.59376e-06
3.74455e-06
2.92936e-06
2.74997e-06
2.87745e-06
3.31143e-06
9.43702e-07
4.68956e-07
6.53742e-07
2.22944e-06
4.01051e-06
4.48573e-06
3.90282e-06
3.1857e-06
3.01634e-06
3.47897e-06
6.98516e-06
2.38483e-06
1.11978e-06
4.51693e-06
4.803e-06
2.68038e-06
2.09578e-06
2.13098e-06
2.21641e-06
2.69381e-06
1.59445e-06
7.12562e-07
6.2029e-07
1.08308e-06
4.48566e-06
6.36939e-06
4.02818e-06
2.89362e-06
2.6722e-06
3.16519e-06
9.73971e-06
2.36379e-06
2.18167e-07
3.80293e-06
3.2117e-06
1.80002e-06
1.80119e-06
1.85832e-06
1.91755e-06
2.31977e-06
2.26935e-06
5.15602e-07
5.01541e-07
8.10042e-07
1.87578e-06
5.22142e-06
3.77026e-06
2.51855e-06
2.10895e-06
2.7345e-06
1.19927e-05
2.15401e-06
5.10847e-24
2.61667e-06
1.44089e-06
1.41055e-06
1.56149e-06
1.51498e-06
1.50469e-06
1.67233e-06
3.82919e-06
6.68569e-07
2.32187e-07
3.97391e-07
9.16875e-07
2.08785e-06
3.09557e-06
2.07749e-06
1.64959e-06
2.38348e-06
9.89559e-06
2.03322e-06
2.8114e-30
5.85309e-07
8.54036e-07
1.4579e-06
1.40146e-06
1.2558e-06
1.15743e-06
1.21246e-06
2.16528e-06
2.09009e-06
2.38892e-07
3.09415e-07
5.19972e-07
1.35858e-06
2.59882e-06
1.64402e-06
1.25936e-06
2.53871e-06
7.27718e-06
1.8457e-06
2.29683e-30
1.53827e-07
1.19878e-06
1.17986e-06
1.02489e-06
9.13861e-07
7.72529e-07
7.6461e-07
1.86661e-06
3.65356e-06
4.55149e-07
1.32557e-07
3.47792e-07
1.4291e-06
2.62841e-06
1.34079e-06
9.59248e-07
3.66544e-06
7.03512e-06
1.83547e-29
8.0705e-30
9.57897e-07
1.0911e-06
9.49561e-07
8.83144e-07
8.03088e-07
7.0484e-07
5.81399e-07
1.53795e-06
5.26809e-06
4.84354e-07
9.76929e-08
3.50675e-07
2.16868e-06
2.56763e-06
9.13483e-07
8.47264e-07
4.26008e-06
5.33431e-06
2.05306e-30
2.79505e-20
1.02224e-06
9.22668e-07
8.80435e-07
9.36847e-07
8.7902e-07
8.6166e-07
7.59904e-07
9.02602e-07
7.90213e-06
6.81539e-07
2.47776e-07
5.05206e-07
3.72475e-06
1.59632e-06
1.07435e-06
8.20244e-07
1.06014e-06
4.29026e-06
1.64466e-30
5.90094e-06
5.96955e-06
4.31862e-06
3.90778e-06
5.051e-06
7.27718e-07
1.99338e-22
2.76807e-28
3.54978e-06
5.53896e-06
4.63138e-30
2.29566e-30
1.12379e-29
4.97001e-06
3.65242e-06
3.36926e-06
3.10568e-06
3.06461e-06
3.84715e-06
6.61069e-06
6.50661e-06
5.46347e-06
4.39697e-06
4.36046e-06
4.38691e-06
4.37607e-06
4.19071e-06
3.97122e-06
1.10505e-30
7.35775e-31
7.6427e-30
7.25539e-07
2.5708e-06
3.38656e-06
3.69887e-06
3.95066e-06
4.09875e-06
4.10694e-06
4.93807e-06
6.31842e-06
6.9959e-06
5.40321e-06
5.75981e-06
4.47773e-06
3.86042e-06
3.5768e-06
3.54413e-06
3.82431e-06
3.83594e-30
8.89169e-31
3.59948e-30
1.24473e-06
3.43995e-06
4.14806e-06
4.08392e-06
3.66894e-06
3.62866e-06
3.85816e-06
6.95297e-06
6.23631e-06
7.9884e-06
5.41156e-06
6.65404e-06
3.95209e-06
3.05615e-06
2.98499e-06
3.03926e-06
3.33835e-06
2.67977e-29
1.15547e-30
2.11252e-06
2.16099e-06
4.11235e-06
6.82445e-06
4.15527e-06
3.35617e-06
3.3383e-06
3.75912e-06
9.40581e-06
6.3666e-06
8.02187e-06
6.6887e-06
5.16272e-06
3.03321e-06
2.67867e-06
2.73687e-06
2.78698e-06
3.0239e-06
1.48792e-07
3.36576e-12
6.78677e-31
1.30111e-06
1.23648e-06
6.34714e-06
3.74854e-06
3.08142e-06
3.04098e-06
3.50766e-06
1.15917e-05
6.48946e-06
7.26783e-06
6.8874e-06
3.14269e-06
2.38436e-06
2.3849e-06
2.42185e-06
2.47857e-06
2.5636e-06
4.59414e-06
3.28082e-07
8.5168e-31
1.36296e-30
4.95647e-21
3.94028e-07
2.93625e-06
2.60009e-06
2.56821e-06
3.0643e-06
8.509e-06
6.55559e-06
6.12604e-06
4.56913e-06
2.28612e-06
2.12981e-06
2.14853e-06
2.19243e-06
2.19311e-06
2.21866e-06
2.93516e-06
2.41091e-06
9.42847e-31
1.39642e-30
3.36521e-30
7.16942e-08
2.25341e-06
2.16885e-06
2.12211e-06
2.83351e-06
7.03486e-06
6.61613e-06
3.19517e-06
1.66323e-06
1.89147e-06
1.83858e-06
1.76567e-06
1.73384e-06
1.72233e-06
1.74322e-06
2.54591e-06
4.65121e-06
1.30475e-30
1.3628e-30
3.91764e-30
2.66121e-07
2.29872e-06
1.76057e-06
1.67393e-06
3.04123e-06
6.57251e-06
6.39999e-06
9.64925e-07
2.05812e-06
1.48328e-06
1.34263e-06
1.27939e-06
1.2556e-06
1.23806e-06
1.23797e-06
1.94186e-06
6.54053e-06
1.46323e-30
1.61439e-30
4.78782e-30
1.02941e-06
2.00652e-06
1.23598e-06
1.18126e-06
3.53699e-06
5.76252e-06
6.54694e-06
6.63774e-07
1.36486e-06
7.56039e-07
7.0871e-07
6.51498e-07
6.4698e-07
6.58232e-07
6.54745e-07
9.03268e-07
9.08394e-06
1.46576e-30
1.83155e-30
4.72466e-07
2.74754e-06
1.2595e-06
6.7142e-07
6.88757e-07
1.5841e-06
6.06759e-06
6.45336e-06
)
;

boundaryField
{
    aeration
    {
        type            calculated;
        value           uniform 8.4375e-07;
    }
    xsides
    {
        type            nutkWallFunction;
        Cmu             0.09;
        kappa           0.41;
        E               9.8;
        value           nonuniform List<scalar> 
100
(
1.72893e-06
1.93753e-06
2.0753e-06
2.21798e-06
2.20205e-06
2.06776e-06
1.81239e-06
1.2333e-06
5.47695e-07
2.50923e-07
1.0666e-06
1.00729e-06
1.02057e-06
1.01326e-06
5.62288e-07
0
0
0
0
0
9.0018e-07
0
0
0
0
0
0
0
0
0
1.0667e-06
1.00149e-06
1.01217e-06
1.00496e-06
6.16984e-07
0
0
0
0
0
1.7273e-06
1.9288e-06
2.06744e-06
2.21241e-06
2.1974e-06
2.06151e-06
1.80306e-06
1.22426e-06
5.44646e-07
2.5145e-07
1.85161e-06
1.70496e-06
1.69847e-06
1.73758e-06
1.76845e-06
1.78321e-06
1.81909e-06
1.8825e-06
1.92775e-06
1.89853e-06
1.10956e-06
1.05098e-06
1.02285e-06
1.03621e-06
1.03748e-06
1.03082e-06
9.79825e-07
0
0
0
8.60102e-07
7.71969e-07
6.72578e-07
6.55059e-07
0
0
0
0
0
0
1.11577e-06
1.05678e-06
1.02709e-06
1.04057e-06
1.04155e-06
1.03546e-06
9.6571e-07
0
0
0
1.8637e-06
1.71637e-06
1.70905e-06
1.74752e-06
1.77628e-06
1.79179e-06
1.82604e-06
1.88851e-06
1.93437e-06
1.90417e-06
)
;
    }
    zsides
    {
        type            nutkWallFunction;
        Cmu             0.09;
        kappa           0.41;
        E               9.8;
        value           nonuniform List<scalar> 
400
(
1.25682e-07
1.70891e-07
2.00675e-07
2.31468e-07
2.28032e-07
1.99048e-07
1.43786e-07
1.76472e-08
0
0
1.80011e-07
5.36803e-08
3.00182e-08
5.21009e-08
1.35142e-07
1.49977e-07
4.57208e-08
0
0
0
1.00616e-07
0
0
0
2.9165e-08
0
0
0
0
0
2.35576e-08
0
0
0
0
0
0
0
0
0
0
0
0
0
0
0
0
0
0
0
0
0
0
0
0
0
0
0
0
0
0
0
0
0
0
0
0
0
0
0
0
0
0
0
0
0
0
0
0
0
1.57371e-07
0
0
0
0
0
0
0
0
0
2.12616e-07
0
0
0
0
0
6.11324e-09
0
0
2.7397e-08
0
5.70929e-08
0
0
0
0
2.00031e-07
2.71297e-07
2.88692e-07
3.37665e-07
0
0
0
0
0
5.13455e-08
1.71162e-07
2.43414e-07
2.92311e-07
2.96864e-07
0
0
0
0
0
0
2.83115e-09
5.25852e-08
1.00838e-07
9.44788e-08
1.13201e-07
0
0
0
0
0
0
0
0
0
4.29642e-08
0
0
0
0
0
0
0
0
0
1.22153e-09
0
0
0
0
0
0
0
0
0
0
0
0
0
0
0
0
0
0
0
0
0
0
0
0
0
0
0
0
0
6.99617e-08
0
0
0
0
0
0
2.02062e-09
3.56838e-08
8.07052e-08
1.52285e-07
1.20478e-07
1.19068e-07
1.2756e-07
1.34257e-07
1.3746e-07
1.45237e-07
1.58976e-07
1.68773e-07
1.62449e-07
1.25328e-07
1.69001e-07
1.98979e-07
2.30268e-07
2.27031e-07
1.97697e-07
1.41764e-07
1.56666e-08
0
0
1.77622e-07
5.12117e-08
2.87032e-08
5.18627e-08
1.34398e-07
1.48193e-07
4.4739e-08
0
0
0
9.7168e-08
0
0
0
2.85732e-08
0
0
0
0
0
1.93046e-08
0
0
0
0
0
0
0
0
0
0
0
0
0
0
0
0
0
0
0
0
0
0
0
0
0
0
0
0
0
0
0
0
0
0
0
0
0
0
0
0
0
0
0
0
0
0
0
0
0
1.50485e-07
0
0
0
0
0
0
0
0
0
2.15872e-07
0
0
0
0
0
1.30952e-10
6.09624e-09
2.37386e-09
3.72977e-08
0
0
0
1.19401e-07
0
0
0
0
0
0
0
0
0
3.05711e-09
3.76076e-09
0
0
0
0
0
0
0
0
0
0
0
0
0
0
0
1.19474e-07
0
0
0
0
0
0
0
0
0
4.9736e-08
0
0
0
0
0
0
0
0
0
7.79512e-09
0
0
0
0
0
0
0
0
0
0
0
0
0
0
0
0
0
0
0
0
0
0
0
0
0
0
0
0
0
7.37022e-08
0
0
0
0
0
0
2.54064e-09
3.65158e-08
8.15114e-08
1.54904e-07
1.22956e-07
1.21366e-07
1.29716e-07
1.35956e-07
1.39319e-07
1.46745e-07
1.60278e-07
1.70207e-07
1.63669e-07
)
;
    }
    outlet
    {
        type            calculated;
        value           nonuniform List<scalar> 
100
(
6.53823e-07
9.00738e-21
1.76016e-13
2.79505e-20
6.63774e-07
1.34724e-06
8.4375e-07
8.4375e-07
8.4375e-07
1.36486e-06
8.4375e-07
8.4375e-07
8.4375e-07
8.4375e-07
8.4375e-07
8.4375e-07
8.4375e-07
8.4375e-07
8.4375e-07
8.4375e-07
8.4375e-07
8.4375e-07
8.4375e-07
8.4375e-07
8.4375e-07
8.4375e-07
8.4375e-07
8.4375e-07
8.4375e-07
8.4375e-07
8.4375e-07
8.4375e-07
8.4375e-07
8.4375e-07
8.4375e-07
8.4375e-07
8.4375e-07
8.4375e-07
8.4375e-07
8.4375e-07
8.4375e-07
8.4375e-07
8.4375e-07
8.4375e-07
8.4375e-07
8.23625e-06
7.38935e-06
7.6203e-06
7.90213e-06
9.08394e-06
9.00545e-06
6.05624e-06
3.65595e-06
6.81539e-07
1.46576e-30
8.1736e-06
4.84342e-06
2.16336e-06
2.47776e-07
1.83155e-30
4.81999e-06
2.68016e-06
1.40474e-06
5.05206e-07
4.72466e-07
4.21352e-06
4.29997e-06
4.3253e-06
3.72475e-06
2.74754e-06
8.4375e-07
8.4375e-07
8.4375e-07
8.4375e-07
8.4375e-07
8.4375e-07
8.4375e-07
8.4375e-07
8.4375e-07
8.4375e-07
8.4375e-07
8.4375e-07
8.4375e-07
8.4375e-07
8.4375e-07
8.4375e-07
8.4375e-07
8.4375e-07
8.4375e-07
8.4375e-07
6.04079e-06
4.26795e-06
4.30003e-06
4.29026e-06
6.06759e-06
6.42863e-06
1.69989e-30
7.75214e-30
1.64466e-30
6.45336e-06
)
;
    }
}


// ************************************************************************* //
