/*--------------------------------*- C++ -*----------------------------------*\
| =========                 |                                                 |
| \\      /  F ield         | OpenFOAM: The Open Source CFD Toolbox           |
|  \\    /   O peration     | Version:  2.3.0                                 |
|   \\  /    A nd           | Web:      www.OpenFOAM.org                      |
|    \\/     M anipulation  |                                                 |
\*---------------------------------------------------------------------------*/
FoamFile
{
    version     2.0;
    format      ascii;
    class       volScalarField;
    location    "1.20121";
    object      alpha.airMean;
}
// * * * * * * * * * * * * * * * * * * * * * * * * * * * * * * * * * * * * * //

dimensions      [0 0 0 0 0 0 0];

internalField   nonuniform List<scalar> 
1000
(
0.335328
0.328706
0.310565
0.309636
0.309758
0.310806
0.310532
0.310021
0.308904
0.301354
0.305865
0.313666
0.312278
0.307462
0.302975
0.303723
0.308142
0.310347
0.32811
0.334542
0.0844296
0.0858657
0.0792363
0.0758646
0.0762939
0.0784694
0.0788369
0.0789086
0.0774912
0.0700537
0.072098
0.0781898
0.0775463
0.0741336
0.0703776
0.071179
0.0751352
0.0796471
0.0852656
0.0835978
0.00817744
0.029326
0.0247084
0.0212668
0.0230415
0.0315904
0.0304281
0.0310557
0.0267301
0.0166169
0.023526
0.0378867
0.0335507
0.0350049
0.0210168
0.0165373
0.0198962
0.0259128
0.029468
0.00745208
0.00330277
0.0133116
0.00316411
0.00265888
0.0106442
0.0323562
0.0271534
0.0282707
0.0190278
0.00533992
0.0251114
0.0424105
0.0333538
0.0428078
0.0239729
0.0104037
0.000871922
0.00295393
0.012093
0.00268292
0.000144276
0.00112135
2.69106e-05
0.000364838
0.00753737
0.0174685
0.00993472
0.00983434
0.00447458
0.00159419
0.0195747
0.0311024
0.0163793
0.0348623
0.0209152
0.00604718
0.000134402
1.84561e-05
0.000304837
6.01082e-05
1.96817e-07
2.65638e-06
2.16823e-07
8.19312e-05
0.00158052
0.00468971
0.00168522
0.00133296
0.000197593
0.00131078
0.0120606
0.0192783
0.00616909
0.0238775
0.013769
0.00288089
9.21496e-05
1.11226e-07
1.50967e-07
2.04162e-08
2.31607e-10
2.27731e-10
6.53413e-10
7.40203e-07
4.16102e-05
0.000251139
2.98851e-05
1.76015e-05
1.61734e-06
0.000434154
0.00456651
0.0085915
0.000996673
0.0119829
0.00576959
0.000873508
1.94002e-05
2.04847e-08
2.60319e-10
2.25907e-10
1.65046e-11
1.55446e-11
2.29691e-11
1.40652e-10
4.17797e-08
7.73018e-07
1.87829e-08
6.55625e-09
2.82971e-08
2.54575e-05
0.000666173
0.0018205
5.68065e-05
0.00304442
0.00097305
5.0724e-05
2.2834e-07
8.39902e-11
1.77635e-11
1.62021e-11
8.79508e-13
8.59051e-13
1.01135e-12
1.58465e-12
1.92194e-11
1.86079e-10
8.3491e-11
3.79877e-11
7.72772e-11
1.115e-07
1.47687e-05
8.12281e-05
6.58932e-07
0.000179759
2.65837e-05
2.26892e-07
1.05925e-10
5.00192e-12
9.76374e-13
8.81145e-13
3.93771e-14
3.99688e-14
4.41182e-14
5.50335e-14
1.26249e-13
4.02806e-12
2.07565e-12
1.8941e-12
3.53445e-12
9.89955e-11
1.91437e-08
2.97059e-07
9.99775e-10
9.34623e-07
4.26838e-08
1.03251e-10
1.97035e-12
7.20066e-14
4.36251e-14
4.04697e-14
0.359514
0.370592
0.352696
0.361321
0.364436
0.362117
0.366604
0.365669
0.363193
0.354684
0.364486
0.366818
0.369369
0.352673
0.355752
0.356529
0.358546
0.35213
0.370403
0.358913
0.125728
0.167324
0.159433
0.146378
0.14608
0.145481
0.147344
0.148303
0.147408
0.142307
0.15268
0.141365
0.149852
0.134229
0.141937
0.14054
0.145672
0.160595
0.166296
0.123392
0.0194784
0.0749607
0.0723417
0.0710976
0.0719008
0.0706241
0.0699228
0.0713082
0.071624
0.0622789
0.0596969
0.0573633
0.0596495
0.0545474
0.057855
0.0651022
0.0641171
0.0708249
0.0749209
0.0176388
0.0104489
0.042628
0.018987
0.0218164
0.0420462
0.056301
0.0528756
0.0532249
0.0459204
0.0274025
0.051528
0.0540174
0.0534425
0.05558
0.0507907
0.0389839
0.0109441
0.0132583
0.0389291
0.00822066
0.00143378
0.0106888
0.000438103
0.00344063
0.0253842
0.0406032
0.0326207
0.0330561
0.0199366
0.00775342
0.0398959
0.0465668
0.0393985
0.0510204
0.0417399
0.0238037
0.00177138
0.000205603
0.00327785
0.000408224
9.56761e-06
0.000111121
6.61571e-06
0.00100419
0.010087
0.0204492
0.0124678
0.0120684
0.00308698
0.00515182
0.0273833
0.0336386
0.0229457
0.0397199
0.0300073
0.0124875
0.00114697
6.21246e-06
9.68162e-06
7.79104e-07
8.40807e-10
1.24e-08
4.60241e-08
3.4438e-05
0.0011264
0.00414593
0.00129305
0.000989185
4.41452e-05
0.00251684
0.0146908
0.0202193
0.00858132
0.0250908
0.0173638
0.00518246
0.000307101
1.30669e-06
8.68983e-10
3.87359e-10
4.00479e-11
5.46963e-11
8.83557e-11
4.28144e-08
1.00912e-05
0.000103521
1.10441e-05
6.00411e-06
1.36556e-06
0.00037969
0.00462037
0.00842654
0.00128098
0.0109508
0.00593863
0.000783288
1.20306e-05
8.46048e-09
6.85563e-11
3.78794e-11
3.11707e-12
4.40273e-12
5.08642e-12
2.9647e-11
1.91164e-09
8.9082e-08
2.48983e-09
1.14962e-09
3.84325e-09
8.54251e-06
0.000413517
0.00137387
4.35235e-05
0.00188836
0.000571604
1.63452e-05
2.02323e-08
2.93176e-11
4.78553e-12
2.82968e-12
2.01769e-13
2.99861e-13
3.32153e-13
4.46942e-13
2.46755e-12
8.02455e-11
4.17119e-11
3.47533e-11
5.69525e-11
9.7128e-09
4.01703e-06
3.62661e-05
1.6933e-07
5.19645e-05
5.65452e-06
1.3994e-08
3.34729e-11
7.3972e-13
2.71517e-13
1.73203e-13
0.375788
0.392317
0.376048
0.378461
0.377266
0.383769
0.372817
0.373522
0.372184
0.37216
0.372632
0.38246
0.372512
0.383589
0.381155
0.378383
0.375929
0.37576
0.392298
0.375584
0.144553
0.222267
0.218968
0.199779
0.186855
0.19391
0.185152
0.183662
0.179937
0.181831
0.186858
0.180942
0.182266
0.196622
0.190044
0.184459
0.198836
0.219332
0.220749
0.140672
0.0225994
0.108196
0.102986
0.0978363
0.0891752
0.0925407
0.0872729
0.0850734
0.0827875
0.0847761
0.0866159
0.0772605
0.0812591
0.0903004
0.0894354
0.0886831
0.0964932
0.101614
0.106998
0.0205863
0.014336
0.0598283
0.0410259
0.0487044
0.0569955
0.0670818
0.0620409
0.0602015
0.0558454
0.0523238
0.0629379
0.0572179
0.0600207
0.0681497
0.063249
0.0604821
0.0350747
0.0269155
0.056917
0.0114455
0.00343089
0.0239317
0.00145858
0.00899953
0.0352841
0.0497713
0.0428966
0.0422279
0.0336542
0.0146504
0.0477327
0.0499676
0.0472549
0.0605529
0.0487926
0.0378759
0.00501491
0.000813221
0.0129521
0.00136144
4.82423e-05
0.000487887
2.04195e-05
0.00208927
0.016062
0.0281263
0.0212219
0.0212149
0.010274
0.0066794
0.0318253
0.0374041
0.0295025
0.0471741
0.0351186
0.0183832
0.00226933
1.84841e-05
0.000118481
8.44284e-06
1.17292e-08
2.11081e-07
2.74862e-07
0.000123015
0.00286745
0.0083094
0.00431814
0.00417583
0.00029668
0.00335299
0.0177957
0.0238311
0.0136143
0.0308523
0.0214781
0.00751066
0.000585478
3.67048e-06
1.427e-08
8.08823e-10
5.33425e-11
8.02032e-11
1.78693e-10
4.01224e-07
5.87579e-05
0.000454853
0.000117687
0.000101513
3.34844e-06
0.000652995
0.00658011
0.0115182
0.00312136
0.014888
0.00866378
0.00146341
3.22825e-05
3.77241e-08
9.67628e-11
5.0587e-11
4.42407e-12
7.0038e-12
9.75905e-12
9.86427e-11
3.93616e-08
1.29669e-06
1.38708e-07
1.08229e-07
1.47345e-08
2.31379e-05
0.000867492
0.00272479
0.000196649
0.00338322
0.00120219
4.96078e-05
1.04374e-07
4.32072e-11
7.57538e-12
3.98193e-12
3.02563e-13
5.21006e-13
5.81125e-13
9.31347e-13
1.93678e-11
2.2246e-10
1.39326e-10
1.7054e-10
1.1632e-10
5.03093e-08
1.5801e-05
0.000136319
1.61004e-06
0.000152681
2.11496e-05
8.53077e-08
6.3383e-11
1.61329e-12
4.63459e-13
2.5625e-13
0.359429
0.370526
0.35295
0.363971
0.363414
0.364373
0.36636
0.366866
0.362196
0.355309
0.363698
0.367186
0.368378
0.35088
0.354746
0.352102
0.359703
0.352241
0.370404
0.358948
0.125732
0.167268
0.159413
0.148848
0.145345
0.147514
0.147101
0.150975
0.145714
0.143138
0.151296
0.142127
0.148555
0.13378
0.141085
0.137557
0.146783
0.160782
0.166298
0.123424
0.0194801
0.0749256
0.072358
0.0695668
0.0714572
0.0705261
0.0699259
0.0717959
0.071167
0.0622285
0.0594728
0.0593206
0.0598464
0.0541925
0.0581054
0.0659388
0.0635848
0.0708145
0.0749135
0.0176396
0.0104473
0.0426272
0.0189805
0.0218453
0.0420665
0.0562201
0.0528784
0.0532988
0.0459575
0.0273698
0.0514955
0.0545472
0.0534214
0.0555345
0.0509123
0.0391219
0.0109312
0.0132554
0.038931
0.00821556
0.0014314
0.0106831
0.000437754
0.00345652
0.0253915
0.0405978
0.0326169
0.0330756
0.0199322
0.00774649
0.0399108
0.0468301
0.0394022
0.0510219
0.0417503
0.0237752
0.00177274
0.000205379
0.00327855
0.000408872
9.55353e-06
0.000111002
6.61638e-06
0.00100415
0.0100906
0.0204546
0.0124677
0.0120811
0.00308683
0.0051461
0.0274123
0.0337665
0.0229444
0.0397214
0.0300059
0.0124853
0.00114584
6.20309e-06
9.68143e-06
7.76039e-07
8.39921e-10
1.23774e-08
4.60463e-08
3.4454e-05
0.00112738
0.00414882
0.00129349
0.00099102
4.41078e-05
0.00251557
0.0147111
0.0202683
0.00857888
0.0250919
0.0173641
0.00518279
0.000307132
1.30688e-06
8.68964e-10
3.8735e-10
4.00499e-11
5.47045e-11
8.84198e-11
4.29204e-08
1.01103e-05
0.000103681
1.10535e-05
6.02513e-06
1.36518e-06
0.000379873
0.00462476
0.00842945
0.00127994
0.0109503
0.00593887
0.000783426
1.20352e-05
8.46745e-09
6.8564e-11
3.78814e-11
3.11763e-12
4.40328e-12
5.08856e-12
2.9737e-11
1.91802e-09
8.93363e-08
2.49321e-09
1.15685e-09
3.85378e-09
8.55248e-06
0.000413129
0.00136883
4.34018e-05
0.00188784
0.000571583
1.63501e-05
2.02468e-08
2.93231e-11
4.78587e-12
2.82973e-12
2.01818e-13
2.99979e-13
3.32249e-13
4.47211e-13
2.47863e-12
8.06973e-11
4.17723e-11
3.50438e-11
5.69202e-11
9.72364e-09
3.99964e-06
3.58972e-05
1.68013e-07
5.19328e-05
5.65353e-06
1.39995e-08
3.34833e-11
7.39844e-13
2.71554e-13
1.73232e-13
0.335238
0.328639
0.310546
0.309683
0.309689
0.310505
0.310472
0.309865
0.308941
0.301317
0.305813
0.314053
0.312296
0.307539
0.303038
0.303928
0.308168
0.310338
0.32809
0.334551
0.0843841
0.0858283
0.0792413
0.0754289
0.0760458
0.0783371
0.0788161
0.0788153
0.0775068
0.0700162
0.0720899
0.0783937
0.0776472
0.0741453
0.0703824
0.0711638
0.0749937
0.0796396
0.0852526
0.0835935
0.0081755
0.029292
0.0247364
0.0205402
0.0227825
0.0314978
0.030436
0.0309917
0.0267493
0.016574
0.0235326
0.0383073
0.0336468
0.0349646
0.0210445
0.0165473
0.0196076
0.0259135
0.0294576
0.00745138
0.00330483
0.0133249
0.00315835
0.00268616
0.0107274
0.0322603
0.027185
0.0283052
0.0189944
0.00532422
0.0251307
0.0429419
0.0334127
0.0427301
0.0240023
0.0104806
0.000866706
0.00295576
0.0120972
0.00268477
0.000144232
0.00112108
2.68208e-05
0.000366531
0.00752221
0.0174757
0.00992919
0.00984912
0.00447545
0.00159293
0.0196053
0.0312562
0.0163593
0.0348406
0.0208902
0.00601067
0.000134209
1.84602e-05
0.000304979
6.005e-05
1.96498e-07
2.65109e-06
2.1618e-07
8.17962e-05
0.00158128
0.00469507
0.00168485
0.00133523
0.000197857
0.00131057
0.0120778
0.0193306
0.00617192
0.0238695
0.0137617
0.00288008
9.19692e-05
1.10852e-07
1.51074e-07
2.02685e-08
2.31507e-10
2.27685e-10
6.52385e-10
7.39781e-07
4.17043e-05
0.000251582
2.99064e-05
1.7664e-05
1.61584e-06
0.000434232
0.00457187
0.00860111
0.0009961
0.0119788
0.00576791
0.00087353
1.94085e-05
2.04976e-08
2.60316e-10
2.25885e-10
1.64979e-11
1.55435e-11
2.29854e-11
1.41302e-10
4.19435e-08
7.75267e-07
1.88156e-08
6.60993e-09
2.82728e-08
2.54543e-05
0.000666055
0.00181814
5.66841e-05
0.00304281
0.000972669
5.0715e-05
2.28411e-07
8.40069e-11
1.77628e-11
1.61995e-11
8.79083e-13
8.58867e-13
1.01123e-12
1.58613e-12
1.92695e-11
1.87249e-10
8.35608e-11
3.82298e-11
7.68744e-11
1.11339e-07
1.47183e-05
8.07339e-05
6.54536e-07
0.000179585
2.65628e-05
2.2679e-07
1.05875e-10
4.9984e-12
9.76069e-13
8.80782e-13
3.93421e-14
3.99684e-14
4.40897e-14
5.49904e-14
1.26427e-13
4.05408e-12
2.07616e-12
1.90764e-12
3.50829e-12
9.79249e-11
1.89717e-08
2.9312e-07
9.88894e-10
9.33113e-07
4.26254e-08
1.03147e-10
1.96829e-12
7.19587e-14
4.36223e-14
4.0467e-14
)
;

boundaryField
{
    aeration
    {
        type            calculated;
        value           uniform 0.5;
    }
    xsides
    {
        type            calculated;
        value           nonuniform List<scalar> 
100
(
0.335328
0.0844296
0.00817744
0.00330277
0.000144276
1.96817e-07
2.31607e-10
1.65046e-11
8.79508e-13
3.93771e-14
0.359514
0.125728
0.0194784
0.0104489
0.00143378
9.56761e-06
8.40807e-10
4.00479e-11
3.11707e-12
2.01769e-13
0.375788
0.144553
0.0225994
0.014336
0.00343089
4.82423e-05
1.17292e-08
5.33425e-11
4.42407e-12
3.02563e-13
0.359429
0.125732
0.0194801
0.0104473
0.0014314
9.55353e-06
8.39921e-10
4.00499e-11
3.11763e-12
2.01818e-13
0.335238
0.0843841
0.0081755
0.00330483
0.000144232
1.96498e-07
2.31507e-10
1.64979e-11
8.79083e-13
3.93421e-14
0.334542
0.0835978
0.00745208
0.00268292
6.01082e-05
2.04162e-08
2.25907e-10
1.62021e-11
8.81145e-13
4.04697e-14
0.358913
0.123392
0.0176388
0.00822066
0.000408224
7.79104e-07
3.87359e-10
3.78794e-11
2.82968e-12
1.73203e-13
0.375584
0.140672
0.0205863
0.0114455
0.00136144
8.44284e-06
8.08823e-10
5.0587e-11
3.98193e-12
2.5625e-13
0.358948
0.123424
0.0176396
0.00821556
0.000408872
7.76039e-07
3.8735e-10
3.78814e-11
2.82973e-12
1.73232e-13
0.334551
0.0835935
0.00745138
0.00268477
6.005e-05
2.02685e-08
2.25885e-10
1.61995e-11
8.80782e-13
4.0467e-14
)
;
    }
    zsides
    {
        type            calculated;
        value           nonuniform List<scalar> 
400
(
0.335328
0.0844296
0.00817744
0.00330277
0.000144276
1.96817e-07
2.31607e-10
1.65046e-11
8.79508e-13
3.93771e-14
0.328706
0.0858657
0.029326
0.0133116
0.00112135
2.65638e-06
2.27731e-10
1.55446e-11
8.59051e-13
3.99688e-14
0.310565
0.0792363
0.0247084
0.00316411
2.69106e-05
2.16823e-07
6.53413e-10
2.29691e-11
1.01135e-12
4.41182e-14
0.309636
0.0758646
0.0212668
0.00265888
0.000364838
8.19312e-05
7.40203e-07
1.40652e-10
1.58465e-12
5.50335e-14
0.309758
0.0762939
0.0230415
0.0106442
0.00753737
0.00158052
4.16102e-05
4.17797e-08
1.92194e-11
1.26249e-13
0.310806
0.0784694
0.0315904
0.0323562
0.0174685
0.00468971
0.000251139
7.73018e-07
1.86079e-10
4.02806e-12
0.310532
0.0788369
0.0304281
0.0271534
0.00993472
0.00168522
2.98851e-05
1.87829e-08
8.3491e-11
2.07565e-12
0.310021
0.0789086
0.0310557
0.0282707
0.00983434
0.00133296
1.76015e-05
6.55625e-09
3.79877e-11
1.8941e-12
0.308904
0.0774912
0.0267301
0.0190278
0.00447458
0.000197593
1.61734e-06
2.82971e-08
7.72772e-11
3.53445e-12
0.301354
0.0700537
0.0166169
0.00533992
0.00159419
0.00131078
0.000434154
2.54575e-05
1.115e-07
9.89955e-11
0.305865
0.072098
0.023526
0.0251114
0.0195747
0.0120606
0.00456651
0.000666173
1.47687e-05
1.91437e-08
0.313666
0.0781898
0.0378867
0.0424105
0.0311024
0.0192783
0.0085915
0.0018205
8.12281e-05
2.97059e-07
0.312278
0.0775463
0.0335507
0.0333538
0.0163793
0.00616909
0.000996673
5.68065e-05
6.58932e-07
9.99775e-10
0.307462
0.0741336
0.0350049
0.0428078
0.0348623
0.0238775
0.0119829
0.00304442
0.000179759
9.34623e-07
0.302975
0.0703776
0.0210168
0.0239729
0.0209152
0.013769
0.00576959
0.00097305
2.65837e-05
4.26838e-08
0.303723
0.071179
0.0165373
0.0104037
0.00604718
0.00288089
0.000873508
5.0724e-05
2.26892e-07
1.03251e-10
0.308142
0.0751352
0.0198962
0.000871922
0.000134402
9.21496e-05
1.94002e-05
2.2834e-07
1.05925e-10
1.97035e-12
0.310347
0.0796471
0.0259128
0.00295393
1.84561e-05
1.11226e-07
2.04847e-08
8.39902e-11
5.00192e-12
7.20066e-14
0.32811
0.0852656
0.029468
0.012093
0.000304837
1.50967e-07
2.60319e-10
1.77635e-11
9.76374e-13
4.36251e-14
0.334542
0.0835978
0.00745208
0.00268292
6.01082e-05
2.04162e-08
2.25907e-10
1.62021e-11
8.81145e-13
4.04697e-14
0.335238
0.0843841
0.0081755
0.00330483
0.000144232
1.96498e-07
2.31507e-10
1.64979e-11
8.79083e-13
3.93421e-14
0.328639
0.0858283
0.029292
0.0133249
0.00112108
2.65109e-06
2.27685e-10
1.55435e-11
8.58867e-13
3.99684e-14
0.310546
0.0792413
0.0247364
0.00315835
2.68208e-05
2.1618e-07
6.52385e-10
2.29854e-11
1.01123e-12
4.40897e-14
0.309683
0.0754289
0.0205402
0.00268616
0.000366531
8.17962e-05
7.39781e-07
1.41302e-10
1.58613e-12
5.49904e-14
0.309689
0.0760458
0.0227825
0.0107274
0.00752221
0.00158128
4.17043e-05
4.19435e-08
1.92695e-11
1.26427e-13
0.310505
0.0783371
0.0314978
0.0322603
0.0174757
0.00469507
0.000251582
7.75267e-07
1.87249e-10
4.05408e-12
0.310472
0.0788161
0.030436
0.027185
0.00992919
0.00168485
2.99064e-05
1.88156e-08
8.35608e-11
2.07616e-12
0.309865
0.0788153
0.0309917
0.0283052
0.00984912
0.00133523
1.7664e-05
6.60993e-09
3.82298e-11
1.90764e-12
0.308941
0.0775068
0.0267493
0.0189944
0.00447545
0.000197857
1.61584e-06
2.82728e-08
7.68744e-11
3.50829e-12
0.301317
0.0700162
0.016574
0.00532422
0.00159293
0.00131057
0.000434232
2.54543e-05
1.11339e-07
9.79249e-11
0.305813
0.0720899
0.0235326
0.0251307
0.0196053
0.0120778
0.00457187
0.000666055
1.47183e-05
1.89717e-08
0.314053
0.0783937
0.0383073
0.0429419
0.0312562
0.0193306
0.00860111
0.00181814
8.07339e-05
2.9312e-07
0.312296
0.0776472
0.0336468
0.0334127
0.0163593
0.00617192
0.0009961
5.66841e-05
6.54536e-07
9.88894e-10
0.307539
0.0741453
0.0349646
0.0427301
0.0348406
0.0238695
0.0119788
0.00304281
0.000179585
9.33113e-07
0.303038
0.0703824
0.0210445
0.0240023
0.0208902
0.0137617
0.00576791
0.000972669
2.65628e-05
4.26254e-08
0.303928
0.0711638
0.0165473
0.0104806
0.00601067
0.00288008
0.00087353
5.0715e-05
2.2679e-07
1.03147e-10
0.308168
0.0749937
0.0196076
0.000866706
0.000134209
9.19692e-05
1.94085e-05
2.28411e-07
1.05875e-10
1.96829e-12
0.310338
0.0796396
0.0259135
0.00295576
1.84602e-05
1.10852e-07
2.04976e-08
8.40069e-11
4.9984e-12
7.19587e-14
0.32809
0.0852526
0.0294576
0.0120972
0.000304979
1.51074e-07
2.60316e-10
1.77628e-11
9.76069e-13
4.36223e-14
0.334551
0.0835935
0.00745138
0.00268477
6.005e-05
2.02685e-08
2.25885e-10
1.61995e-11
8.80782e-13
4.0467e-14
)
;
    }
    outlet
    {
        type            calculated;
        value           nonuniform List<scalar> 
100
(
1.70155e-14
1.00061e-13
1.52957e-13
1.00068e-13
1.70095e-14
1.58495e-14
1.51544e-13
2.66755e-13
1.51567e-13
1.58498e-14
2.27523e-14
1.75306e-13
3.12197e-13
1.75328e-13
2.27476e-14
3.07665e-14
2.39899e-13
4.33542e-13
2.39943e-13
3.07531e-14
7.39339e-14
1.26822e-12
1.19702e-11
1.27246e-12
7.39109e-14
4.02806e-12
8.02455e-11
2.2246e-10
8.06973e-11
4.05408e-12
2.07565e-12
4.17119e-11
1.39326e-10
4.17723e-11
2.07616e-12
1.8941e-12
3.47533e-11
1.7054e-10
3.50438e-11
1.90764e-12
3.53445e-12
5.69525e-11
1.1632e-10
5.69202e-11
3.50829e-12
9.89955e-11
9.7128e-09
5.03093e-08
9.72364e-09
9.79249e-11
1.91437e-08
4.01703e-06
1.5801e-05
3.99964e-06
1.89717e-08
2.97059e-07
3.62661e-05
0.000136319
3.58972e-05
2.9312e-07
9.99775e-10
1.6933e-07
1.61004e-06
1.68013e-07
9.88894e-10
9.34623e-07
5.19645e-05
0.000152681
5.19328e-05
9.33113e-07
4.26838e-08
5.65452e-06
2.11496e-05
5.65353e-06
4.26254e-08
1.03251e-10
1.3994e-08
8.53077e-08
1.39995e-08
1.03147e-10
4.24225e-14
2.60662e-13
4.52244e-13
2.60686e-13
4.24067e-14
2.61539e-14
1.56615e-13
2.67465e-13
1.56623e-13
2.61484e-14
2.07016e-14
1.33197e-13
2.31441e-13
1.33207e-13
2.07013e-14
1.78849e-14
8.34794e-14
1.23552e-13
8.34896e-14
1.75652e-14
)
;
    }
}


// ************************************************************************* //
