/*--------------------------------*- C++ -*----------------------------------*\
| =========                 |                                                 |
| \\      /  F ield         | OpenFOAM: The Open Source CFD Toolbox           |
|  \\    /   O peration     | Version:  2.3.0                                 |
|   \\  /    A nd           | Web:      www.OpenFOAM.org                      |
|    \\/     M anipulation  |                                                 |
\*---------------------------------------------------------------------------*/
FoamFile
{
    version     2.0;
    format      ascii;
    class       volScalarField;
    location    "1.84";
    object      nut.particles;
}
// * * * * * * * * * * * * * * * * * * * * * * * * * * * * * * * * * * * * * //

dimensions      [0 2 -1 0 0 0 0];

internalField   nonuniform List<scalar> 
6000
(
1.08611e-05
9.71301e-06
1.42692e-05
2.25305e-05
2.66075e-05
2.38291e-05
2.33721e-05
2.1053e-05
1.61274e-05
1.6156e-05
1.74269e-05
1.75637e-05
1.27667e-05
1.30924e-05
1.26205e-05
9.45998e-06
5.81655e-06
3.75393e-06
3.42682e-06
0.000574303
0.000897286
3.34997e-05
1.40764e-05
1.54416e-05
1.52182e-05
1.78459e-05
1.70056e-05
1.52333e-05
1.15735e-05
1.0669e-05
1.26405e-06
1.27057e-06
2.42405e-06
3.08735e-06
3.07056e-06
2.8983e-06
2.44645e-06
2.55617e-06
2.90918e-06
2.74689e-06
1.7125e-06
1.01641e-06
8.99684e-07
9.42905e-07
1.23421e-06
1.59882e-06
1.56317e-06
1.68908e-06
2.18129e-06
0.00088022
0.000335535
4.73056e-06
3.86965e-07
1.41141e-06
1.70471e-06
2.04681e-06
2.31567e-06
2.26604e-06
2.07955e-06
1.392e-06
4.45381e-06
3.17785e-06
1.40802e-06
1.12721e-07
3.39769e-07
5.87205e-07
4.51602e-07
1.25593e-06
2.74443e-06
1.81152e-06
3.31132e-07
2.01064e-07
4.09239e-07
7.32594e-07
1.68421e-06
4.20684e-06
6.22621e-06
8.01532e-06
0.0001946
0.000913936
1.65956e-05
2.66098e-06
5.28426e-07
2.33033e-06
6.00355e-06
5.62879e-06
3.78379e-06
3.74001e-06
2.98356e-06
8.17221e-07
1.70557e-06
5.62505e-07
1.42031e-07
1.13513e-07
2.21408e-07
4.09547e-07
2.95501e-07
5.89842e-07
1.21429e-06
7.01696e-07
3.81656e-07
3.78414e-07
4.32197e-07
3.81944e-07
4.14131e-07
1.26022e-06
3.2003e-06
8.76232e-05
0.000465664
0.000909386
1.21751e-05
1.8292e-06
3.22749e-07
7.40081e-07
6.1978e-06
2.36624e-06
1.29687e-06
1.01407e-06
1.88695e-06
8.98202e-07
1.05103e-06
4.90982e-07
2.0052e-07
1.82711e-07
1.10031e-07
2.15451e-07
2.55022e-07
3.28546e-07
5.90975e-07
4.51415e-07
3.25829e-07
3.18527e-07
2.99126e-07
3.70483e-07
5.3936e-07
1.01058e-06
2.79898e-06
0.000159738
0.000429601
0.000607669
1.25125e-05
1.71486e-06
3.08239e-07
1.73331e-07
9.33981e-06
2.12781e-06
1.57828e-06
1.05102e-06
3.51372e-06
3.80743e-05
7.86814e-07
2.5586e-07
3.0472e-07
2.72406e-07
1.71943e-07
1.67623e-07
2.19568e-07
2.31782e-07
2.5354e-07
1.515e-07
1.9915e-07
3.5014e-07
4.93533e-07
4.99965e-07
7.77791e-07
1.43644e-06
1.19016e-05
0.000455696
0.000473375
0.00038512
1.45772e-05
1.54723e-06
3.28887e-07
1.2143e-07
8.01271e-06
1.17011e-05
1.55788e-06
8.73398e-07
2.63831e-06
0.000159603
5.22781e-07
2.03795e-07
3.48402e-07
3.51843e-07
3.27781e-07
2.85499e-07
2.43989e-07
2.17451e-07
1.09725e-07
8.926e-08
3.59314e-07
8.35984e-07
8.22298e-07
6.62598e-07
8.54606e-07
2.25905e-06
0.000295405
0.000475258
0.000470912
0.000221414
1.03042e-05
9.49292e-07
3.3907e-07
1.45176e-07
6.35829e-06
1.59245e-05
1.71653e-06
8.69882e-07
1.09519e-06
9.27924e-05
3.64093e-07
2.9284e-07
3.24227e-07
3.68286e-07
4.27448e-07
4.66371e-07
3.24453e-07
2.12524e-07
1.54275e-07
1.58329e-07
5.82921e-07
6.6563e-07
5.60017e-07
5.91885e-07
8.49951e-07
2.24241e-06
0.000472511
0.000469667
0.000174592
4.87032e-05
4.49401e-06
1.02633e-07
3.77722e-07
2.53289e-07
3.55647e-06
9.53606e-06
1.83645e-06
9.62713e-07
5.7514e-07
7.6157e-05
3.26621e-07
5.01196e-07
3.8758e-07
3.31039e-07
4.23489e-07
6.08429e-07
4.72064e-07
2.96921e-07
2.51238e-07
3.33824e-07
5.18511e-07
3.91918e-07
5.12116e-07
8.61946e-07
1.84405e-06
9.40267e-06
0.000473244
0.000367256
1.27037e-05
6.56085e-06
8.44144e-07
3.03875e-07
3.32813e-07
2.89042e-07
1.5555e-06
6.00847e-06
3.198e-06
1.16782e-06
5.63352e-07
0.00030363
4.42546e-07
8.60922e-07
6.37083e-07
3.07854e-07
3.93337e-07
5.90418e-07
6.43969e-07
5.23557e-07
3.74249e-07
3.68658e-07
3.79026e-07
4.65732e-07
9.17786e-07
3.19084e-06
5.28569e-06
6.0716e-06
1.09572e-05
1.10687e-05
4.2475e-06
1.02001e-06
1.62939e-07
3.30584e-07
2.38274e-07
8.37592e-08
1.10067e-06
5.06067e-06
4.49533e-06
2.40241e-06
1.76678e-06
0.000314217
7.88428e-07
1.44195e-06
1.23586e-06
3.46086e-07
3.75363e-07
6.14746e-07
8.74791e-07
6.47551e-07
4.0064e-07
4.04984e-07
4.94572e-07
9.12448e-07
2.62141e-06
5.05836e-06
1.44462e-06
7.0258e-07
1.56806e-06
1.9508e-06
1.30948e-06
4.79683e-07
2.74503e-07
2.91077e-07
1.3362e-07
7.42193e-08
1.39476e-06
5.31158e-06
7.20928e-06
3.49215e-06
5.42954e-06
0.00012226
1.55389e-06
4.4267e-05
2.40325e-06
5.12949e-07
3.47595e-07
6.49589e-07
9.84157e-07
6.2207e-07
4.57934e-07
1.05735e-06
9.49814e-07
1.67939e-06
2.95105e-06
1.11714e-06
1.44462e-07
1.30773e-07
1.35974e-07
5.06681e-07
1.39019e-06
7.90084e-07
4.30329e-07
1.7944e-07
1.25537e-07
1.50251e-07
2.11001e-06
6.17459e-06
7.48494e-06
0.000265792
0.00281612
0.000401656
0.000153067
0.000763801
0.000118926
1.02567e-06
2.94484e-07
6.42945e-07
1.00659e-06
7.65589e-07
1.8051e-06
2.44896e-06
1.86928e-06
1.82954e-06
1.28912e-06
4.33702e-07
2.82904e-07
2.01139e-07
2.08451e-07
2.21217e-07
6.1729e-07
7.11784e-07
3.27656e-07
1.41636e-07
1.26911e-07
2.45632e-07
2.21138e-06
6.24333e-06
0.000271855
0.00562541
0.00986543
0.00398059
0.00205768
0.0020483
0.000680661
1.78226e-06
3.29852e-07
5.98939e-07
1.00806e-06
1.30214e-06
6.00827e-06
3.10158e-06
2.37978e-06
1.44205e-06
8.12071e-07
5.88972e-07
4.7778e-07
3.30538e-07
2.25393e-07
2.00453e-07
2.21022e-07
2.53326e-07
1.59522e-07
1.40341e-07
1.44993e-07
4.03454e-07
3.81231e-06
0.000103867
0.00430295
0.00991236
0.0100629
0.00996073
0.00241404
0.00240915
0.00132361
5.41176e-06
1.39048e-06
5.62079e-07
8.7083e-07
2.62262e-06
5.77032e-05
0.000218823
2.21829e-05
1.67067e-06
9.90856e-07
7.60263e-07
7.47603e-07
5.5105e-07
2.57856e-07
2.34136e-07
2.3617e-07
2.28165e-07
1.57458e-07
1.60951e-07
1.66804e-07
9.07296e-07
5.54795e-06
0.0017582
0.00981518
0.0100625
0.00999314
0.0100873
0.00241628
0.00240671
0.00130703
0.000323182
4.41934e-06
2.04844e-06
5.17423e-07
2.68385e-06
0.00116473
0.0028022
0.00105065
0.000189662
1.19067e-05
7.3563e-07
7.03161e-07
7.59276e-07
4.26555e-07
2.43229e-07
2.62106e-07
2.35562e-07
1.93804e-07
2.06488e-07
1.93044e-07
1.33103e-06
5.01118e-05
0.00500907
0.0100296
0.00995806
0.0101202
0.0100795
0.00142538
0.000805029
0.00103186
0.00139997
0.000747291
1.00651e-05
3.42822e-07
3.18421e-06
2.61032e-05
0.00376801
0.00376135
0.00149409
0.00034979
6.28495e-05
1.62962e-05
1.61532e-06
7.71764e-07
2.42729e-07
2.80446e-07
2.34017e-07
1.92754e-07
2.52429e-07
2.4316e-07
1.59456e-06
0.000578686
0.00820072
0.00983742
0.00486123
0.00283551
0.00608318
8.6244e-06
2.20591e-05
0.00137014
0.00152718
0.00146459
1.85319e-05
6.82304e-06
6.37093e-06
6.16159e-06
0.00238133
0.00378205
0.00303611
0.00115553
0.000290223
0.000139531
0.000299586
2.00176e-06
4.51999e-07
2.96625e-07
2.42885e-07
2.58844e-07
3.12544e-07
2.59262e-07
2.20717e-06
0.00184124
0.00814652
0.00371104
3.04361e-05
1.04397e-05
7.41031e-06
3.48518e-07
5.83458e-06
2.93919e-05
0.00146453
0.000324416
8.51759e-06
6.8447e-06
2.87018e-06
1.8539e-06
0.000262027
0.00219068
0.00294011
0.00184772
0.000919475
0.000908238
0.00119456
4.97587e-06
7.98947e-07
4.1668e-07
3.69714e-07
4.57354e-07
6.61579e-07
7.89881e-07
8.20156e-06
0.00231166
0.00340366
2.70942e-05
6.1468e-06
1.06807e-06
6.31648e-07
2.87364e-07
2.20939e-07
3.86161e-06
1.58303e-05
5.80009e-06
1.14245e-06
9.98242e-07
2.28718e-07
9.84738e-07
2.99961e-05
0.00134488
0.00278386
0.00282288
0.00257632
0.00323053
0.00165019
4.61285e-06
1.38183e-06
7.96067e-07
1.3406e-06
1.95135e-06
3.30186e-05
0.000588915
0.00112719
0.00204431
2.58527e-05
4.29394e-06
1.59176e-07
5.154e-08
2.24899e-07
3.02832e-07
2.8849e-07
4.95426e-07
2.59329e-06
2.1145e-06
5.00005e-07
4.33392e-07
4.03621e-07
8.11876e-07
0.000392256
0.00370637
0.00481984
0.00470358
0.0050687
0.0050457
0.00038758
3.20324e-06
2.63552e-06
3.18147e-06
5.34396e-06
0.000880583
0.00276494
0.00277306
0.00136304
0.00128427
8.87397e-06
3.80591e-07
6.00625e-08
6.44822e-08
1.51407e-07
5.28064e-07
5.84891e-07
8.08147e-07
1.78011e-06
1.07529e-06
4.76774e-07
5.81318e-07
6.26704e-07
5.97895e-06
0.000335551
0.00232935
0.00507914
0.00520029
0.00510132
0.00300329
6.46584e-06
4.14749e-06
4.15221e-06
0.000103565
0.00232716
0.0051316
0.00462571
0.00244543
0.00093929
0.00140879
5.042e-06
1.84593e-07
6.50556e-08
6.78746e-08
9.91471e-08
1.36135e-06
1.16586e-06
1.30442e-06
1.88061e-06
5.75038e-07
7.02733e-07
2.11021e-06
8.46859e-06
1.30479e-05
1.17109e-05
1.68726e-05
0.000560796
0.00505636
0.00517802
0.000652715
2.92722e-06
4.27439e-06
6.31885e-06
0.00253516
0.00738292
0.00736215
0.00450062
0.00191543
0.000959972
0.00265272
4.73257e-06
3.63257e-07
7.83566e-08
7.39914e-08
7.94388e-08
0.000191834
0.00070358
0.00060458
2.16304e-05
2.48838e-06
9.95472e-06
1.67504e-05
1.28078e-05
3.96734e-06
6.95881e-07
1.43747e-06
7.69355e-06
7.63418e-05
0.00169918
6.26691e-06
3.52463e-06
2.77574e-06
0.0010595
0.00814538
0.0109904
0.00834603
0.00468048
0.00245992
0.00134092
0.00266152
6.64447e-06
1.15493e-06
1.22821e-07
9.75196e-08
1.02751e-07
0.00100955
0.00100609
0.00100379
0.000823393
3.27828e-05
1.8555e-05
7.64947e-06
1.96443e-06
2.35916e-07
5.54699e-08
4.23826e-08
1.99215e-07
5.52007e-06
1.45019e-05
3.72882e-06
3.83126e-06
0.000347594
0.00724063
0.0150458
0.0150203
0.0116611
0.00808336
0.00605347
0.00432451
0.00247514
1.61284e-05
2.49258e-06
1.96254e-07
1.56053e-07
1.97485e-07
2.55878e-05
2.62192e-05
2.8791e-05
2.37892e-05
1.17424e-05
2.55676e-06
4.13316e-07
6.45044e-08
4.20264e-08
3.71615e-08
4.83252e-08
5.51383e-08
3.28723e-07
2.24868e-06
4.7691e-06
9.75232e-05
0.00610074
0.0181363
0.0245079
0.0250875
0.0241401
0.0231881
0.0225594
0.0190999
0.0104429
0.00403111
6.0195e-06
6.89559e-07
2.48412e-07
4.49698e-07
2.38833e-06
2.40478e-06
2.97573e-06
2.28178e-06
5.47546e-07
2.78084e-08
2.69442e-08
2.84903e-08
3.34021e-08
3.72013e-08
5.92276e-08
6.7706e-08
1.40381e-06
2.83153e-06
4.5767e-06
0.00438741
0.0195086
0.0327327
0.0394326
0.0434976
0.0469957
0.0508025
0.0520252
0.0507435
0.0379604
0.0218345
0.000366042
3.07786e-06
4.33042e-07
1.02978e-06
5.97801e-07
1.00811e-08
1.29079e-08
1.42118e-08
2.02904e-08
2.18203e-08
2.32946e-08
2.88068e-08
3.59647e-08
4.01445e-08
6.60381e-08
1.38389e-07
1.97916e-06
7.40206e-06
0.0022806
0.0178574
0.036697
0.0476217
0.0517227
0.0524076
0.0522505
0.0533555
0.0522954
0.0528651
0.0518178
0.0514851
0.0226029
8.55829e-05
1.44248e-06
2.27035e-06
5.33228e-07
2.43874e-08
2.42332e-08
2.32022e-08
2.24159e-08
2.27776e-08
2.61203e-08
3.33397e-08
4.26892e-08
5.39297e-08
7.95463e-08
6.76981e-07
3.28482e-06
0.000199553
0.0120158
0.0352934
0.0494581
0.0521658
0.0526862
0.0523251
0.0544091
0.0523682
0.0530652
0.0267865
0.0360259
0.0510095
0.0505311
0.019991
1.26411e-05
4.6397e-06
5.06809e-07
2.74745e-08
2.57744e-08
2.50671e-08
2.50594e-08
2.78736e-08
3.32853e-08
4.08596e-08
4.94428e-08
7.28383e-08
9.76386e-08
1.38653e-06
7.48705e-06
0.00297715
0.0267825
0.0477691
0.0521664
0.0528824
0.0523302
0.0543998
0.0523718
0.052741
0.00368382
7.31453e-05
0.000780441
0.0173746
0.0501446
0.0493061
0.00869339
1.04629e-05
4.90869e-07
3.12325e-08
2.99483e-08
2.90232e-08
3.12414e-08
3.54751e-08
4.12957e-08
5.13925e-08
6.24289e-08
9.78674e-08
1.50012e-07
1.97692e-06
2.92915e-05
0.0123402
0.0417362
0.0520335
0.0526205
0.0522933
0.0543989
0.0523232
0.0524619
0.0119893
2.40552e-05
8.55588e-06
5.16903e-06
0.0010062
0.0303928
0.049761
0.0472314
0.0011925
4.64512e-07
3.62943e-08
3.54577e-08
3.60947e-08
3.87171e-08
4.31662e-08
5.1402e-08
6.55099e-08
8.51208e-08
1.34229e-07
5.43435e-07
3.37078e-06
0.000881486
0.0292157
0.0515748
0.0522991
0.0522417
0.0543952
0.0522896
0.0521589
0.000155448
2.05294e-05
3.09936e-05
2.16549e-05
9.20375e-06
0.000978671
0.0158187
0.0483639
0.0453288
0.017897
4.29013e-07
4.34949e-08
4.26222e-08
4.36879e-08
4.72073e-08
5.48466e-08
6.77657e-08
8.85697e-08
1.25924e-07
1.94233e-07
1.05425e-06
8.76072e-06
0.00933946
0.0469177
0.0521343
0.0521345
0.053266
0.0522562
0.0527037
0.000132765
3.45688e-06
5.18688e-06
3.49878e-05
0.000632067
0.000592113
0.00313927
0.01666
0.0256949
0.0229109
0.0228758
3.93996e-07
5.21573e-08
5.20815e-08
5.46572e-08
6.10297e-08
7.29907e-08
9.39593e-08
1.28871e-07
2.06721e-07
3.30522e-07
2.28062e-06
0.000723247
0.0290016
0.0512186
0.0515685
0.0482354
0.0517797
0.0533147
0.0103754
8.87017e-06
2.01507e-07
4.86402e-07
5.17859e-06
2.25555e-05
0.000199026
0.00548921
0.0171663
0.0117363
0.00451068
0.0205619
3.53708e-07
6.60152e-08
6.73924e-08
7.19411e-08
8.24666e-08
1.0282e-07
1.39839e-07
2.0626e-07
3.36929e-07
8.4793e-07
6.16423e-06
0.00754441
0.0447685
0.04885
0.0391249
0.0293565
0.0248794
0.0186694
0.00319399
4.27655e-06
7.68361e-08
7.26204e-08
2.27802e-07
1.7917e-06
1.01616e-05
0.000148022
0.0168163
0.00491796
0.000396695
0.00249556
3.02687e-07
8.80479e-08
9.1141e-08
1.00545e-07
1.19157e-07
1.55955e-07
2.22786e-07
3.43796e-07
4.98446e-07
1.4447e-06
0.00126478
0.0243131
0.0422696
0.0337511
0.0219114
0.0152655
0.0130363
0.00823276
0.000288636
2.18618e-06
1.18525e-07
8.99404e-08
1.07392e-07
2.3699e-07
2.0705e-06
1.47551e-05
0.0106429
0.00155237
0.000134815
1.70039e-05
2.51725e-07
1.22931e-07
1.30987e-07
1.48652e-07
1.83045e-07
2.48928e-07
3.61694e-07
5.36206e-07
7.30507e-07
1.82273e-06
0.00277314
0.021683
0.0251834
0.018981
0.00913566
0.00177043
0.000402729
0.000614177
1.42906e-05
1.06293e-06
1.07164e-07
8.35521e-08
1.56907e-07
2.12569e-07
1.36313e-06
2.00661e-05
0.00635494
0.00098295
1.27629e-05
2.0802e-06
2.22675e-07
1.8203e-07
1.97726e-07
2.32214e-07
2.95994e-07
4.00899e-07
5.60324e-07
8.44722e-07
2.4682e-06
0.000182083
0.00102604
0.00466132
0.00628355
0.00337513
0.000509131
3.15875e-05
2.32422e-05
3.95502e-05
8.66176e-06
3.25065e-07
9.40529e-08
9.53641e-08
1.93267e-07
3.77437e-07
1.45017e-06
1.84842e-05
3.47723e-05
7.45205e-06
1.3034e-06
5.77089e-07
2.60882e-07
2.80835e-07
3.13022e-07
3.78453e-07
4.86501e-07
6.35424e-07
9.23158e-07
1.92355e-06
0.000178863
0.000404422
0.000620445
0.0011697
0.00168318
0.000900326
0.000116156
4.17722e-05
0.000105109
8.33302e-05
4.264e-06
1.35315e-07
9.23076e-08
1.3069e-07
3.41212e-07
9.52455e-07
4.71106e-06
9.00952e-06
4.11389e-06
3.55803e-07
2.69544e-08
5.13744e-07
4.50811e-07
4.28447e-07
4.95454e-07
6.16683e-07
7.98783e-07
1.18792e-06
2.41826e-06
0.000148134
0.000395953
0.00060547
0.000689654
0.00076786
0.000829642
0.000645454
0.000423089
0.000502944
0.000512196
2.05887e-05
1.28067e-06
8.91533e-08
8.86665e-08
2.70563e-07
6.67733e-07
2.32455e-06
6.22518e-06
2.67639e-06
6.49078e-08
4.37399e-08
1.69833e-08
5.045e-07
9.28824e-07
6.29636e-07
8.31988e-07
1.17988e-06
1.89195e-06
2.06169e-05
0.000130827
0.000264994
0.000484766
0.000706514
0.000728976
0.000734561
0.000739803
0.000719244
0.000720968
0.000720267
0.000459895
6.48878e-06
3.25954e-07
8.29898e-08
1.34155e-07
5.01558e-07
1.5713e-06
4.95978e-06
4.91173e-06
2.40627e-07
5.72899e-08
5.37863e-08
3.225e-08
5.68883e-07
1.89197e-06
1.37193e-06
2.07045e-06
3.26429e-06
7.17727e-05
0.000165346
0.000220705
0.00028957
0.00044326
0.000650722
0.000727686
0.000730937
0.000735279
0.00073033
0.000726599
0.000727421
1.54381e-05
1.48839e-06
7.94414e-08
9.50324e-08
4.00542e-07
1.15215e-06
2.51191e-06
2.78477e-06
5.52807e-07
6.89993e-08
8.31515e-08
6.43469e-08
8.10745e-08
8.13511e-07
2.98674e-06
2.77612e-06
3.54676e-06
2.51822e-05
8.44069e-05
0.000133223
0.000188176
0.000272652
0.000334486
0.000421038
0.000552894
0.000675215
0.000731022
0.000726523
0.000723525
1.33278e-05
3.20536e-06
6.4455e-07
4.79761e-08
2.20706e-07
7.05459e-07
1.38719e-06
1.59947e-06
4.59433e-07
6.72101e-08
1.17091e-07
1.18555e-07
9.85186e-08
2.17628e-07
1.29147e-06
2.84708e-06
2.83604e-06
3.55409e-06
4.80332e-06
1.19837e-05
1.85033e-05
6.47911e-05
0.000229726
0.000309986
0.000269039
0.000256167
0.000320859
0.000570811
0.000722744
0.000460433
8.93454e-06
1.10314e-06
2.36651e-07
1.03736e-07
3.94706e-07
1.30203e-06
1.75383e-06
8.01917e-07
3.35421e-07
3.11851e-07
3.58643e-07
2.90466e-07
2.04979e-07
5.39758e-07
2.10828e-06
2.20571e-06
2.30458e-06
2.62716e-06
2.38732e-06
2.04704e-06
1.92037e-06
2.79894e-05
0.00025503
0.000408251
0.000332132
0.000190242
0.000106879
9.56473e-05
6.80876e-05
1.30778e-05
5.58295e-06
7.87688e-07
1.98631e-07
3.27116e-07
1.12993e-06
1.75899e-06
1.07111e-06
5.40154e-07
5.58856e-07
9.02621e-07
1.22333e-06
1.21281e-06
5.04642e-07
9.43456e-07
3.47913e-06
2.02665e-06
1.81988e-06
1.78777e-06
1.45694e-06
1.1981e-06
1.3226e-06
5.03176e-05
0.000371195
0.000627071
0.000552099
0.000309469
0.000114929
3.28984e-05
4.20014e-06
8.77623e-06
3.10686e-06
7.32743e-07
3.10733e-07
5.45761e-07
9.14063e-07
7.44813e-07
5.11415e-07
6.45588e-07
1.36145e-06
2.2038e-06
2.87514e-06
3.16009e-06
8.85599e-06
1.19419e-06
5.14539e-06
2.34528e-06
1.52309e-06
1.47236e-06
1.27574e-06
1.16277e-06
3.28389e-06
8.93483e-05
0.000480979
0.00079753
0.000799995
0.000579026
0.000231989
6.46366e-05
6.74849e-06
7.14252e-06
1.6969e-06
5.31154e-07
3.11507e-07
4.07223e-07
4.30998e-07
4.07622e-07
6.67146e-07
1.35198e-06
2.8058e-06
3.76643e-06
7.45662e-05
0.000294752
0.000523572
0.000148019
7.68764e-05
3.00463e-06
1.47651e-06
1.58151e-06
1.58002e-06
1.93638e-06
1.43982e-05
8.45938e-05
0.000424447
0.000809531
0.000798013
0.000802029
0.000399969
0.000105581
7.49715e-06
5.13448e-06
1.1591e-06
4.02491e-07
2.92138e-07
2.22638e-07
2.21789e-07
3.45711e-07
1.54611e-06
7.08577e-06
6.27652e-05
0.000203412
0.000443015
0.000868353
0.00107692
0.000370328
0.000191862
3.57753e-06
1.3861e-06
1.68891e-06
1.83905e-06
2.10886e-06
2.4524e-06
5.20509e-06
7.92564e-05
0.000796847
0.000812521
0.000796988
0.000464444
0.000102063
9.18421e-06
4.70435e-06
8.44513e-07
2.99263e-07
1.99397e-07
1.07036e-07
1.47969e-07
4.16186e-07
3.02827e-06
1.09078e-05
6.65643e-05
0.000663536
0.00130928
0.0013489
0.00138495
0.000842376
0.00059661
3.65531e-06
1.26894e-06
1.42339e-06
1.4217e-06
1.45635e-06
1.39377e-06
1.26261e-06
1.8247e-06
7.92242e-05
0.000796951
0.000804628
0.000347137
5.60235e-05
8.64848e-06
6.09982e-06
8.31072e-07
1.93684e-07
1.54703e-07
9.12195e-08
1.53554e-07
2.50153e-07
5.02783e-07
1.35444e-06
6.34336e-06
6.9818e-05
0.00134538
0.00141372
0.00134599
1.11848e-05
1.46353e-05
3.51785e-06
1.29171e-06
1.20455e-06
1.0009e-06
9.24786e-07
8.72379e-07
8.33838e-07
9.34456e-07
2.31758e-06
0.000408111
0.000611752
0.000269831
3.51279e-05
6.96974e-06
7.96638e-06
9.12493e-07
1.17627e-07
1.13344e-07
8.95589e-08
1.43195e-07
2.14626e-07
1.93175e-07
6.22009e-08
5.82126e-07
5.01677e-06
0.000111827
0.00134518
1.1394e-05
1.40554e-06
5.54971e-06
0.00010923
1.49599e-06
1.28964e-06
9.99125e-07
8.92034e-07
8.69659e-07
8.91258e-07
9.23849e-07
1.74776e-06
2.34359e-05
0.000506321
0.000397644
0.000118916
3.09031e-05
1.10278e-05
1.04673e-06
1.10474e-07
9.87756e-08
6.49814e-08
1.28939e-07
2.19827e-07
2.22682e-07
9.52224e-08
1.62206e-07
2.18578e-07
4.02807e-06
1.53079e-05
3.92053e-06
1.33779e-06
4.79387e-06
0.00104343
8.12882e-05
3.86578e-06
1.27351e-06
1.08939e-06
1.04995e-06
1.07897e-06
1.12571e-06
1.42902e-06
1.33966e-05
0.000515725
0.000786127
0.000825753
0.000567722
1.22639e-05
1.13412e-06
1.24788e-07
7.9598e-08
6.89131e-08
1.36079e-07
3.05983e-07
2.72883e-07
1.60739e-07
1.91426e-07
7.15228e-08
4.50652e-08
2.68111e-06
5.59882e-06
2.79944e-06
9.37082e-06
0.00261034
0.00108227
0.000427884
0.000226361
0.00016889
0.000140898
0.000122468
0.000107758
0.000120856
0.000290532
0.000677159
0.000882359
0.000929017
0.000889813
2.37636e-05
1.10383e-06
9.41613e-08
4.99453e-08
7.78425e-08
1.78071e-07
3.95606e-07
2.9296e-07
2.11132e-07
1.3578e-07
8.26529e-08
9.3234e-08
3.04722e-07
3.65053e-06
2.87677e-06
1.28787e-05
0.00337276
0.00211312
0.00138511
0.000992321
0.00083781
0.000780241
0.000749578
0.000723315
0.000705806
0.000751748
0.000875752
0.000909129
0.000887868
0.000934444
1.47564e-05
1.917e-06
7.90385e-08
2.50569e-08
1.07656e-07
2.47745e-07
4.71481e-07
2.66718e-07
1.57398e-07
1.12851e-07
1.083e-07
1.45037e-07
2.54609e-07
1.32334e-06
1.90912e-06
1.20896e-05
0.00375935
0.0024036
0.00181814
0.00147334
0.00129126
0.0012068
0.00114699
0.00107853
0.000987857
0.000867977
0.000772058
0.000880627
0.000926173
1.54328e-05
3.93644e-06
2.75738e-06
2.24231e-07
3.43018e-08
1.52297e-07
3.40153e-07
4.98869e-07
2.046e-07
9.941e-08
1.26423e-07
1.72668e-07
2.62618e-07
3.88656e-07
1.03641e-06
1.5007e-06
9.78535e-06
0.00487332
0.00272171
0.00187343
0.00145161
0.00120831
0.00105497
0.000946536
0.000860431
0.000763299
0.000650692
0.000535522
0.00067183
0.000545967
4.44284e-06
1.34648e-06
2.03928e-06
5.53177e-07
5.56489e-08
1.8762e-07
4.42517e-07
4.40002e-07
1.51693e-07
1.08754e-07
1.84704e-07
2.36241e-07
3.35522e-07
6.60043e-07
1.33228e-06
1.4146e-06
8.66941e-06
0.00750713
0.00402463
0.00244439
0.00163483
0.00113198
0.000804666
0.000599797
0.000459926
0.000348607
0.00027853
0.000232038
0.000212046
2.58424e-05
2.64253e-06
6.00246e-07
1.07485e-06
1.03988e-06
1.72604e-07
2.33201e-07
5.66325e-07
3.06498e-07
1.10843e-07
1.39144e-07
2.60329e-07
2.8123e-07
3.5201e-07
1.20113e-06
1.99856e-06
1.35723e-06
8.13468e-06
0.0116381
0.00719647
0.00459374
0.00302392
0.0019255
0.00114853
0.00061213
0.000277512
0.00011013
4.98308e-05
3.14217e-05
5.24644e-05
6.32461e-06
1.77446e-06
2.84888e-07
5.8098e-07
1.34905e-06
7.93607e-07
4.94582e-07
6.14332e-07
1.86733e-07
7.87136e-08
1.73874e-07
3.32265e-07
2.07768e-07
7.31553e-07
1.87443e-06
2.60046e-06
1.87174e-06
7.93366e-06
0.0156842
0.0117419
0.00882734
0.00672875
0.00490603
0.00324748
0.00179186
0.000721664
0.00017043
1.8625e-05
1.24411e-05
1.3476e-05
4.81442e-06
1.64361e-06
2.25691e-07
2.22801e-07
1.02433e-06
1.30016e-06
9.32591e-07
4.79168e-07
8.31426e-08
6.95468e-08
2.12833e-07
4.3459e-07
1.37162e-07
1.44875e-06
2.6227e-06
3.15346e-06
2.31147e-06
1.20784e-05
0.017296
0.0148451
0.0129918
0.0117355
0.0104018
0.00867128
0.00649186
0.0039001
0.00155365
0.000295786
3.67413e-05
1.24272e-05
5.19323e-06
2.01786e-06
2.62134e-07
6.75386e-08
3.95538e-07
9.41771e-07
7.83688e-07
2.14616e-07
3.69445e-08
6.40032e-08
2.95725e-07
3.7926e-07
2.4224e-07
1.66217e-06
3.19005e-06
3.29094e-06
3.10142e-06
0.000273599
0.015719
0.0143349
0.0137714
0.0141286
0.0146158
0.0145357
0.0138362
0.0123517
0.00819564
0.00299502
0.000513832
2.80825e-05
4.10262e-06
2.26314e-06
2.98434e-07
3.1026e-08
8.62145e-09
3.20367e-07
2.40841e-07
6.97508e-08
4.15819e-08
5.55976e-08
2.86222e-07
3.2008e-07
3.77756e-07
1.43917e-06
3.03146e-06
3.56217e-06
3.11187e-05
0.00243255
0.0119486
0.0109537
0.0107153
0.0114232
0.0125878
0.0131203
0.0116849
0.0119525
0.011945
0.00959429
0.00301554
0.000292892
3.07525e-06
2.06449e-06
3.42303e-07
2.17134e-08
3.13775e-08
1.27925e-08
4.17752e-08
4.15607e-08
5.91352e-08
5.07238e-08
2.33436e-07
3.75122e-07
5.40722e-07
1.50972e-06
3.04319e-06
8.71173e-06
0.00179363
0.00643272
0.0076662
0.00646987
0.00566564
0.00530155
0.00482021
0.00433929
0.0013445
0.000406244
0.000390411
0.00405483
0.00411054
0.0012617
3.16008e-06
1.52547e-06
3.02443e-07
2.14111e-08
4.45354e-08
4.49265e-08
3.78429e-08
6.39777e-08
8.0657e-08
6.83371e-08
2.35428e-07
6.84817e-07
1.03206e-06
2.26439e-06
1.08601e-05
0.00115772
0.00564111
0.00647589
0.00456425
0.00323806
0.00212562
0.00113852
0.000377314
0.000742284
1.01283e-05
2.33831e-06
1.65952e-06
2.08737e-06
0.00130701
0.00134437
0.000102294
1.5207e-06
2.68112e-07
2.07728e-08
4.58257e-08
7.28974e-08
8.14433e-08
8.85117e-08
8.55097e-08
9.65681e-08
2.88326e-07
1.25404e-06
1.96542e-06
3.7305e-05
0.000823351
0.00421157
0.0064648
0.00648021
0.00265867
0.00138178
0.000523394
1.44338e-05
3.35087e-06
2.2127e-06
2.42782e-06
3.17617e-06
5.49791e-06
3.0892e-06
1.47163e-06
0.000465339
0.000753888
2.40433e-06
2.60411e-07
3.8836e-08
6.76947e-08
8.33019e-08
9.24731e-08
7.62221e-08
6.84044e-08
1.23368e-07
2.21701e-07
2.24382e-06
2.49589e-05
0.00101222
0.00359452
0.00644676
0.00647789
0.00648938
0.00112924
0.000195739
1.61798e-06
3.52562e-06
6.68376e-06
0.000145326
0.000818266
0.00306128
0.00555794
0.0010895
0.000977549
0.00418094
0.00474682
8.91732e-06
3.01929e-07
7.68094e-08
8.97747e-08
8.09797e-08
7.70584e-08
5.47752e-08
4.91717e-08
1.02524e-07
2.66203e-07
4.52409e-06
0.000788468
0.00440059
0.00640679
0.00645455
0.0064531
0.00228838
0.00022708
0.000232443
0.000315442
0.00336638
0.0138197
0.0397092
0.0638747
0.0651745
0.0662715
0.0617324
0.0462778
0.032654
0.0147351
0.000213492
2.31913e-06
1.01745e-07
1.45387e-07
8.11241e-08
5.70219e-08
6.84807e-08
1.36588e-07
1.35266e-07
6.58284e-07
9.70352e-06
0.00286096
0.00290083
0.00290878
0.00399192
0.00481017
0.00159291
0.00109633
0.00690328
0.0263951
0.066124
0.0689606
0.0710747
0.0687994
0.0713546
0.0667927
0.0678847
0.0652872
0.0617166
0.0371573
0.00385404
6.90814e-06
5.06313e-08
3.15424e-07
2.63284e-07
3.37502e-07
1.21847e-06
1.70979e-06
1.46433e-06
8.63755e-06
1.65761e-05
1.667e-05
1.11827e-05
1.19482e-05
2.10111e-05
0.00134904
0.0015879
0.0213241
0.0628797
0.073254
0.071407
0.0746483
0.0701277
0.0729483
0.0689052
0.0713711
0.0667973
0.0697603
0.0655283
0.0640598
0.0288732
6.66317e-05
5.13573e-07
5.52229e-07
8.33681e-07
1.74231e-06
4.42886e-06
5.31571e-06
1.09073e-05
1.59682e-05
1.02993e-05
2.08343e-06
8.61995e-07
1.12106e-06
2.77367e-06
7.42207e-06
0.000836579
0.0747852
0.0751795
0.0740629
0.0751984
0.0715601
0.0748356
0.0695599
0.0722059
0.0664154
0.0680524
0.0635651
0.0679017
0.064387
0.0625358
0.00481943
2.80859e-06
8.29334e-07
1.25438e-06
2.09937e-06
2.28212e-06
2.51084e-06
6.95736e-06
5.31569e-06
9.17944e-07
2.18836e-07
2.96825e-07
3.59006e-07
4.67271e-07
6.55391e-07
7.96539e-06
0.0753186
0.0749982
0.0754214
0.0740925
0.0752825
0.0677311
0.0346121
0.0114702
0.00117947
0.000117303
0.000524873
0.0270141
0.0636104
0.0625706
0.0350944
1.92965e-05
1.23971e-06
1.08558e-06
8.0346e-07
5.54073e-07
6.09385e-07
9.16231e-07
7.77284e-07
3.79715e-07
2.77803e-07
3.4051e-07
4.02877e-07
6.03738e-07
9.04951e-07
3.9237e-06
0.0753383
0.0756873
0.0748417
0.0747556
0.00637911
6.99594e-05
8.40351e-06
1.3082e-05
1.01653e-05
6.12504e-06
3.5885e-06
6.00742e-06
0.00620996
0.0600479
0.0570136
0.00125337
1.79359e-06
7.0557e-07
3.23174e-07
3.70503e-07
4.61157e-07
5.5368e-07
5.48049e-07
3.6433e-07
4.40985e-07
5.77861e-07
7.57034e-07
1.2827e-06
2.34678e-06
4.09863e-05
0.0760072
0.0748437
0.0299396
0.000169341
1.44546e-05
7.00557e-06
5.61261e-06
5.21702e-06
3.21204e-06
2.21868e-06
1.87272e-06
2.93196e-06
0.000115048
0.00955991
0.0399213
0.00258577
2.13194e-06
6.18759e-07
3.03562e-07
3.20558e-07
5.0916e-07
9.1282e-07
7.38775e-07
7.10715e-07
9.50265e-07
1.0606e-06
1.61289e-06
4.96719e-06
0.000518125
0.00141348
0.0498669
0.00713747
0.000963291
3.01116e-05
1.13717e-05
3.09998e-06
2.41058e-06
1.77162e-06
1.16304e-06
1.34224e-06
2.23627e-06
1.6961e-06
9.60824e-06
0.00252458
0.0113767
0.00229566
1.95716e-06
9.46433e-07
4.51294e-07
3.96262e-07
1.21025e-06
3.02102e-06
1.19277e-06
1.35067e-06
1.25737e-06
2.3895e-06
0.000234684
0.00105914
0.00138359
0.00147135
0.0110842
0.0022917
0.00194077
0.00687259
3.76443e-05
9.34467e-06
2.58399e-06
2.40025e-06
2.37934e-06
2.56718e-06
3.6633e-06
2.42768e-06
1.98926e-06
0.000856298
0.00375154
0.00188337
2.76968e-06
2.03663e-06
1.27743e-06
1.60201e-06
7.32171e-06
0.000112823
0.000515898
0.000511979
0.000608985
0.00108755
0.00150402
0.00159143
0.00103846
0.000975431
0.012189
0.0121181
0.0120803
0.011969
0.00204166
1.7904e-05
6.18935e-06
3.75577e-06
5.03174e-06
1.55581e-05
0.000163123
3.11784e-05
7.07307e-05
0.00112929
0.00323185
0.00202219
2.38782e-05
3.10933e-06
3.82176e-06
9.63815e-06
2.02223e-05
1.86623e-05
0.000509876
0.00122702
0.00156341
0.00191519
0.00190772
0.00192015
0.000994362
0.000975892
0.0117039
0.0118485
0.00693272
0.00513495
0.00175076
0.000184732
8.98232e-06
1.33598e-05
0.000572796
0.0146311
0.0185761
0.0117194
0.00709828
0.0075248
0.00815392
0.00367442
0.000117761
2.68877e-06
6.4092e-06
1.67812e-05
7.54741e-06
2.60866e-06
9.13468e-06
1.73828e-05
2.13272e-05
2.93261e-05
0.000161802
0.00088691
0.00021742
0.00103962
4.05149e-05
8.32713e-05
0.00427893
0.00454761
0.00297261
0.0018991
0.00166144
0.00369355
0.0179722
0.0189032
0.0274538
0.0278498
0.0280409
0.0278447
0.0226704
0.0102821
0.00068815
2.41699e-06
6.5167e-06
5.55863e-06
6.22039e-07
1.43029e-07
2.56035e-07
1.78016e-06
2.52822e-06
3.86089e-06
5.37445e-06
7.71034e-06
6.46624e-06
1.70492e-05
5.3087e-06
9.31878e-06
2.32486e-05
3.67736e-05
4.77484e-05
5.89027e-05
6.97753e-05
0.000808629
0.00408604
0.00228688
0.0023901
0.0263227
0.0280274
0.0282901
0.0281774
0.023537
0.00280749
3.46693e-06
3.59986e-06
9.45025e-07
1.20766e-07
1.48666e-07
1.44594e-07
1.36862e-07
1.50057e-07
1.28301e-07
1.46165e-07
2.05003e-07
2.48561e-07
3.29872e-06
2.21087e-06
2.03217e-07
2.24779e-06
4.22359e-06
5.01631e-06
6.59109e-06
1.05318e-05
1.91236e-05
2.43001e-05
1.99411e-05
1.71507e-05
3.45728e-05
0.0067473
0.0273811
0.0282541
0.027976
0.00699561
4.98065e-06
2.11088e-06
5.08176e-07
2.04724e-07
1.96375e-07
1.96541e-07
1.72338e-07
1.66396e-07
1.95218e-07
2.21421e-07
2.63573e-07
3.3724e-07
1.7141e-06
2.69255e-06
1.40586e-07
6.08224e-08
4.75194e-08
9.78413e-08
6.08377e-07
1.91031e-06
3.19679e-06
3.9395e-06
3.60382e-06
4.46225e-06
5.66691e-06
9.76182e-06
0.000199255
0.0246627
0.0280008
0.0158226
8.28515e-06
1.64575e-06
5.38171e-07
3.03285e-07
2.75866e-07
2.87597e-07
2.61279e-07
2.4811e-07
2.60336e-07
2.59577e-07
3.61948e-07
5.00162e-07
4.39317e-06
3.28026e-06
1.99443e-07
2.47788e-08
2.27141e-08
2.48872e-08
2.49535e-08
2.27138e-08
5.92081e-08
6.94251e-07
1.32662e-06
5.85251e-06
3.30858e-06
1.44963e-06
7.00278e-06
0.00108498
0.0259906
0.0250373
7.66824e-05
1.87649e-06
7.4157e-07
4.47026e-07
4.25476e-07
5.22974e-07
5.07259e-07
4.77828e-07
4.88217e-07
5.73345e-07
8.7729e-07
1.5744e-06
0.000320225
3.81734e-06
2.5148e-07
2.30384e-08
2.27356e-08
2.82787e-08
3.2945e-08
3.02654e-08
2.83923e-08
3.06157e-08
3.43822e-08
5.36573e-06
9.08971e-06
2.99912e-07
7.49687e-07
1.20342e-05
0.00777654
0.0244462
0.00243245
2.93802e-06
1.12666e-06
6.1933e-07
6.0414e-07
7.21697e-07
7.37777e-07
8.43437e-07