/*--------------------------------*- C++ -*----------------------------------*\
| =========                 |                                                 |
| \\      /  F ield         | OpenFOAM: The Open Source CFD Toolbox           |
|  \\    /   O peration     | Version:  2.3.0                                 |
|   \\  /    A nd           | Web:      www.OpenFOAM.org                      |
|    \\/     M anipulation  |                                                 |
\*---------------------------------------------------------------------------*/
FoamFile
{
    version     2.0;
    format      ascii;
    class       volScalarField;
    location    "0.418";
    object      p;
}
// * * * * * * * * * * * * * * * * * * * * * * * * * * * * * * * * * * * * * //

dimensions      [1 -1 -2 0 0 0 0];

internalField   nonuniform List<scalar> 
545
(
-6.49337e+07
-1.1936e+07
-1.56915e+06
-2.07828e+06
-6.95366e+06
4.67914e+07
-2.39798e+06
-1.86423e+06
-1.99974e+06
-5.64452e+06
8.13325e+07
2.95941e+06
-260394
-311863
-5.91943e+06
4.72004e+07
-2.54541e+06
-1.4826e+06
-82090
-5.27278e+06
-7.47251e+07
-1.86854e+06
-340274
3.46154e+06
9.59341e+06
-5.82732e+06
-1.47271e+06
-533854
7828.5
116562
120741
99463.4
85009.9
76711.5
72527.6
70087.5
68114.4
66134.9
63603.1
60952.5
57713
54367
50732.3
47221.4
43485.6
40167
36611
33587.6
30575.3
28129
25808.8
24209.2
22770.2
22099.6
21546.5
21460.4
21470.8
21800.8
21951.3
22263.3
22092.2
22000.9
21078.2
20168.7
18294.5
16008.2
13026.6
9849.88
5807.83
2186.71
-5.1298e+06
-917398
-514032
-104356
25014
72697.9
79597.9
78043.7
74979.6
72020.5
70286.4
68144.9
66405.7
63611.3
61176.6
57674.7
54579.5
50654.4
47377.9
43376.8
40341
36521.8
33744.6
30471.2
28291.4
25693
24336.4
22657.2
22218.2
21493
21575.6
21420.2
21976.6
21883.9
22447
22033.3
22129
21075.2
20294.6
18255
16120.8
13027
9950.33
5700.08
2029.54
-6.0531e+06
-448953
-279765
-10115.3
56950.6
79114.9
79767.6
76456.1
74988.8
71132.3
70878.8
67540.1
67088.6
62974.7
61856.6
57013.8
55294.9
49929.8
48041.2
42643.6
41075.4
35819.3
34465.5
29744.4
29076.6
24934.8
25058.6
21937.7
22968
20820
22293
20732.2
22766.5
21116.6
23267.6
21251.2
22878
20380.3
21065.3
17576.3
16855.1
12340.2
10753.8
4902.79
2963.83
-6.39189e+06
514613
203639
171168
126723
99799
86087.9
75323.1
76526
69153.1
72542.9
65825.3
68821.3
61193.2
63622.5
55188.6
57127.6
48043.2
49785.7
40779.8
42950.1
33976.2
36355
27833.1
31100.1
23013.9
26941.1
20096.7
24885.8
19047.8
24152.2
18869.6
24768.2
19072.4
25312
19225.7
24729.8
18514
22917.7
15806.4
18609.5
10550.3
12683.5
2819.17
4693.98
-1.19303e+06
2.79804e+06
1.06163e+06
365239
158884
98291.4
84643.7
71460.8
77945.3
66807.5
74614.9
63741.1
70979
58944.3
65842.8
52935.4
59365.5
45662
52017.6
38408.4
45376.1
31636.6
38780.9
25442.3
33706.8
20548.9
29366.9
17782.1
27251.4
16924.8
26389.2
16571.9
27250.3
16470.2
27969.4
16610.5
27125
16101.4
25158.4
13739.3
20603
8376.2
15170.9
269.313
7540.98
-1.0253e+07
4.05587e+06
1.81169e+06
496622
160124
101549
81133.5
77589.3
73832.2
71769.2
71680.1
71380.5
69433.1
67954.5
64275.4
59679.1
54052.5
52484.9
50784.9
47544.7
42411.1
40924.4
37090.1
31561.2
28324.6
27076.2
28240.1
28048.5
25219.4
24102.3
25822.3
24976.6
22299.1
22211.9
22274.6
22858.9
26178.9
28531.1
25058.1
21442.3
22001.2
18276.8
14290.6
7202.5
1805.81
-7.47482e+07
-1.88912e+06
-358097
3.44611e+06
9.58102e+06
4.71771e+07
-2.56589e+06
-1.50022e+06
-97401.4
-5.28527e+06
8.13091e+07
2.93889e+06
-277953
-327020
-5.93164e+06
4.6768e+07
-2.41847e+06
-1.88177e+06
-2.01441e+06
-5.65611e+06
-6.49569e+07
-1.19565e+07
-1.58665e+06
-2.0926e+06
-6.96506e+06
-1.2038e+06
2.80446e+06
1.052e+06
373532
150093
106584
76039.8
80172.8
68854.9
76895.3
65432.9
72990.4
61725.8
68229.4
56391.6
62556.5
48889.3
55443.3
42459.7
48133.5
35615.2
41526
29022
36101.5
22912.5
31195.3
19609.3
27848.9
17163.3
27135.1
16242.6
26806
16271.8
27744.3
16709.9
27727.2
17081.9
25832.2
15236.9
23800.4
10570.4
18363.7
5101.82
11820.2
-3023.04
-6.40208e+06
516354
196941
174798
121274
104080
81260.8
80314.7
71846.9
75060.7
67785.8
70991.9
63698.1
66242.5
58299.1
60315.3
51187.4
53270.3
44493.6
46157.7
37587.5
39520.4
31134.5
33848.4
25346.2
29025.8
21798.1
25839.6
19427.5
24803
18617.3
24516.8
18748.3
25237.9
19215.5
25368.2
19218.5
23851.8
17299.7
21352.3
12957.5
16040.5
7193.95
9285.15
-1088.04
-6.06152e+06
-451639
-283763
-10531
54338.8
79902
78239.6
78260.5
74121.4
73536.3
69819
69249.1
65497.1
64374
60052.5
58316.4
53191.3
51334.5
46364
44276.9
39494
37630
33109.9
31827.1
27551.7
27076.6
23836
23965.7
21530.2
22756.9
20744.3
22485.7
20959.4
23041.3
21433.6
23194.2
21192.3
21882.6
19203.8
19149
14979.2
13938
9094.67
7217.12
1733.57
-5.138e+06
-921822
-517594
-106469
23093.1
72134.9
79153
78871.8
75546.4
73298
70571.3
68694.1
66022.5
63721.7
60524.3
57630.4
53799.6
50710.4
46907.2
43701.4
40066.4
37067.2
33717.2
31227
28293
26536
24502.8
23467.9
22229.4
22167.7
21436.4
21897.3
21658
22357.1
22099.9
22473.6
21732.3
21235.2
19697.3
18380.7
15530.6
13210.5
9623.9
6381.19
1927.66
-5.83548e+06
-1.47803e+06
-537316
4977.55
114791
119680
99322.5
85529.7
77762.9
73489.3
70804.7
68354
66115.7
63315.4
60622
57237.2
53986.4
50382.2
47086.3
43413.3
40278.6
36782.9
33961.2
30928.3
28624.6
26294.9
24795.8
23249.4
22571.9
21876.9
21767.9
21591.7
21968.1
21988.4
22366.6
22086.8
21937
20863.7
19890.6
18011.5
15707.4
12857.3
9807.86
6111.3
2806.03
)
;

boundaryField
{
    AirInlet
    {
        type            calculated;
        value           uniform -1.02499e+07;
    }
    WaterInlet
    {
        type            calculated;
        value           nonuniform List<scalar> 10(-6.49337e+07 4.67914e+07 8.13325e+07 4.72004e+07 -7.47251e+07 -7.47482e+07 4.71771e+07 8.13091e+07 4.6768e+07 -6.49569e+07);
    }
    ChannelWall
    {
        type            calculated;
        value           nonuniform List<scalar> 
110
(
-7.47251e+07
-1.86854e+06
-340274
3.46154e+06
9.59341e+06
-7.47482e+07
-1.88912e+06
-358097
3.44611e+06
9.58102e+06
-6.49569e+07
-1.19565e+07
-1.58665e+06
-2.0926e+06
-6.96506e+06
-5.83548e+06
-1.47803e+06
-537316
4977.51
114791
119680
99322.5
85529.6
77762.9
73489.3
70804.7
68354
66115.7
63315.3
60622
57237.1
53986.4
50382.2
47086.3
43413.2
40278.6
36782.8
33961.2
30928.3
28624.5
26294.9
24795.7
23249.3
22571.8
21876.8
21767.9
21591.7
21968
21988.3
22366.6
22086.8
21937
20863.6
19890.5
18011.5
15707.4
12857.2
9807.82
6111.26
2805.99
-6.49337e+07
-1.1936e+07
-1.56915e+06
-2.07828e+06
-6.95366e+06
-5.82732e+06
-1.47271e+06
-533854
7828.54
116562
120741
99463.5
85009.9
76711.5
72527.6
70087.6
68114.5
66134.9
63603.1
60952.5
57713.1
54367
50732.4
47221.4
43485.7
40167
36611.1
33587.7
30575.4
28129.1
25808.8
24209.3
22770.3
22099.7
21546.6
21460.5
21470.8
21800.9
21951.4
22263.3
22092.2
22000.9
21078.2
20168.8
18294.6
16008.3
13026.7
9849.92
5807.88
2186.75
)
;
    }
    Outlet
    {
        type            calculated;
        value           nonuniform List<scalar> 
11
(
-0.044145
-0.132435
-0.220725
-0.308995
-0.395336
-0.487503
-0.580793
-0.671942
-0.760274
-0.848565
-0.936855
)
;
    }
    FrontAndBack
    {
        type            empty;
    }
}


// ************************************************************************* //
