/*--------------------------------*- C++ -*----------------------------------*\
| =========                 |                                                 |
| \\      /  F ield         | OpenFOAM: The Open Source CFD Toolbox           |
|  \\    /   O peration     | Version:  2.3.0                                 |
|   \\  /    A nd           | Web:      www.OpenFOAM.org                      |
|    \\/     M anipulation  |                                                 |
\*---------------------------------------------------------------------------*/
FoamFile
{
    version     2.0;
    format      ascii;
    class       volScalarField;
    location    "2.89998";
    object      alpha.water;
}
// * * * * * * * * * * * * * * * * * * * * * * * * * * * * * * * * * * * * * //

dimensions      [0 0 0 0 0 0 0];

internalField   nonuniform List<scalar> 
10000
(
0.997345
0.997272
0.996924
0.995337
0.940828
0.77426
0.732745
0.575909
0.49306
0.515791
0.48402
0.257237
0.34643
0.376053
0.504538
0.809728
0.99003
0.989514
0.988126
0.987603
1
1
1
0.999995
0.924107
0.734388
0.818552
0.798149
0.770693
0.75309
0.800568
0.231077
0.113054
0.119488
0.151008
0.733697
0.999274
1
1
1
1
1
1
0.999997
0.989134
0.741994
0.684299
0.645077
0.641735
0.646366
0.65488
0.724706
0.524074
0.473132
0.523916
0.984235
0.99998
1
1
1
1
1
1
1
0.991383
0.638903
0.65145
0.636934
0.628687
0.633444
0.642243
0.626531
0.647477
0.609329
0.620689
0.989764
0.999965
1
1
1
1
1
1
1
0.995892
0.665027
0.60249
0.639138
0.667083
0.64038
0.603043
0.647177
0.626115
0.652519
0.613467
0.990648
0.999977
1
1
1
1
1
1
1
0.997493
0.673281
0.626847
0.612778
0.666632
0.595686
0.673133
0.6123
0.662186
0.626865
0.640991
0.994265
0.999996
1
1
1
1
1
1
1
0.999303
0.683633
0.55248
0.651765
0.655649
0.652334
0.655818
0.659489
0.654598
0.649716
0.663422
0.99741
1
1
1
1
1
1
1
1
0.999831
0.780371
0.668655
0.646397
0.691474
0.690074
0.678908
0.69811
0.705761
0.711064
0.828621
0.999212
1
1
1
1
1
1
1
1
0.999994
0.999345
0.998947
0.998212
0.998119
0.997947
0.998113
0.998048
0.998311
0.998495
0.999235
0.999997
1
1
1
1
1
1
1
1
1
1
1
1
1
1
1
1
1
1
1
1
1
1
1
1
1
1
1
1
1
1
1
1
1
1
1
1
1
1
1
1
1
1
1
1
1
1
1
1
1
1
1
1
1
1
1
1
1
1
1
1
1
1
1
1
1
1
1
1
1
1
1
1
1
1
1
1
1
1
1
1
1
1
1
1
1
1
1
1
1
1
1
1
1
1
1
1
1
1
1
1
1
1
1
1
1
1
1
1
1
1
1
1
1
1
1
1
1
1
1
1
1
1
1
1
1
1
1
1
1
1
1
1
1
1
1
1
1
1
1
1
1
1
1
1
1
1
1
1
1
1
1
1
1
1
1
1
1
1
1
1
1
1
1
1
1
1
1
1
1
1
1
1
1
1
1
1
1
1
1
1
1
1
1
1
1
1
1
1
1
1
1
1
1
1
1
1
1
1
1
1
1
1
1
1
1
1
1
1
1
1
1
1
1
1
1
1
1
1
1
1
1
1
1
1
0.997157
0.997228
0.996888
0.995278
0.936961
0.772345
0.727729
0.529219
0.45917
0.496589
0.463924
0.242671
0.340852
0.373714
0.500998
0.792997
0.989779
0.989534
0.988575
0.98801
1
1
1
0.999996
0.910341
0.73338
0.820333
0.800889
0.774413
0.756093
0.803278
0.219959
0.104018
0.112396
0.140505
0.691629
0.999204
1
1
0.999999
1
1
1
0.999998
0.989317
0.746715
0.685355
0.645573
0.642557
0.647422
0.654163
0.729373
0.515457
0.472555
0.517137
0.982416
0.999993
1
1
1
1
1
1
1
0.991334
0.638237
0.653537
0.636939
0.626468
0.633192
0.644199
0.625112
0.648376
0.606585
0.621218
0.990614
0.999983
1
1
1
1
1
1
1
0.994583
0.664492
0.60095
0.639946
0.667097
0.642284
0.600195
0.648621
0.624748
0.653443
0.612986
0.991179
0.999985
1
1
1
1
1
1
1
0.996318
0.673261
0.629115
0.610853
0.667118
0.594135
0.673792
0.610978
0.662498
0.626683
0.64054
0.993882
0.999997
1
1
1
1
1
1
1
0.998891
0.682527
0.55133
0.651976
0.655437
0.651293
0.655758
0.658445
0.65442
0.648841
0.659232
0.997049
1
1
1
1
1
1
1
1
0.999848
0.769192
0.657797
0.636761
0.679129
0.677715
0.668007
0.685745
0.694154
0.70018
0.8178
0.99905
1
1
1
1
1
1
1
1
0.999994
0.999292
0.998893
0.998114
0.997971
0.997769
0.997995
0.997879
0.998178
0.998394
0.999154
0.999996
1
1
1
1
1
1
1
1
1
1
1
1
1
1
1
1
1
1
1
1
1
1
1
1
1
1
1
1
1
1
1
1
1
1
1
1
1
1
1
1
1
1
1
1
1
1
1
1
1
1
1
1
1
1
1
1
1
1
1
1
1
1
1
1
1
1
1
1
1
1
1
1
1
1
1
1
1
1
1
1
1
1
1
1
1
1
1
1
1
1
1
1
1
1
1
1
1
1
1
1
1
1
1
1
1
1
1
1
1
1
1
1
1
1
1
1
1
1
1
1
1
1
1
1
1
1
1
1
1
1
1
1
1
1
1
1
1
1
1
1
1
1
1
1
1
1
1
1
1
1
1
1
1
1
1
1
1
1
1
1
1
1
1
1
1
1
1
1
1
1
1
1
1
1
1
1
1
1
1
1
1
1
1
1
1
1
1
1
1
1
1
1
1
1
1
1
1
1
1
1
1
1
1
1
1
1
1
1
1
1
1
1
1
1
1
1
1
1
1
1
1
1
1
1
0.99708
0.99721
0.996863
0.995227
0.935081
0.771403
0.721769
0.480381
0.435412
0.481936
0.453314
0.232776
0.337953
0.376457
0.502356
0.783252
0.989595
0.989456
0.988768
0.988174
1
1
1
0.999998
0.904962
0.732686
0.821375
0.802532
0.776389
0.757893
0.8048
0.212288
0.0993096
0.108207
0.13469
0.665578
0.999359
1
1
1
1
1
1
0.999999
0.989332
0.74981
0.685811
0.64594
0.643106
0.648074
0.653543
0.732107
0.511461
0.474216
0.514106
0.980735
0.999998
1
1
1
1
1
1
1
0.99131
0.637898
0.654716
0.636917
0.62519
0.633004
0.645303
0.624244
0.648908
0.60493
0.621541
0.991015
0.999993
1
1
1
1
1
1
1
0.993693
0.664156
0.60005
0.640437
0.667103
0.643387
0.598579
0.649471
0.623974
0.653958
0.612733
0.991523
0.999993
1
1
1
1
1
1
1
0.995228
0.673254
0.630389
0.609742
0.667388
0.593174
0.674161
0.610153
0.662674
0.626571
0.640342
0.993696
0.999998
1
1
1
1
1
1
1
0.998318
0.682106
0.550749
0.6523
0.65536
0.650871
0.655739
0.658011
0.654375
0.648446
0.657187
0.996842
1
1
1
1
1
1
1
1
0.999717
0.763025
0.65195
0.631497
0.672559
0.671123
0.662242
0.679149
0.68798
0.694355
0.811781
0.998948
1
1
1
1
1
1
1
1
0.999994
0.999261
0.998863
0.998061
0.997884
0.997675
0.997929
0.997778
0.998098
0.998342
0.999108
0.999995
1
1
1
1
1
1
1
1
1
1
1
1
1
1
1
1
1
1
1
1
1
1
1
1
1
1
1
1
1
1
1
1
1
1
1
1
1
1
1
1
1
1
1
1
1
1
1
1
1
1
1
1
1
1
1
1
1
1
1
1
1
1
1
1
1
1
1
1
1
1
1
1
1
1
1
1
1
1
1
1
1
1
1
1
1
1
1
1
1
1
1
1
1
1
1
1
1
1
1
1
1
1
1
1
1
1
1
1
1
1
1
1
1
1
1
1
1
1
1
1
1
1
1
1
1
1
1
1
1
1
1
1
1
1
1
1
1
1
1
1
1
1
1
1
1
1
1
1
1
1
1
1
1
1
1
1
1
1
1
1
1
1
1
1
1
1
1
1
1
1
1
1
1
1
1
1
1
1
1
1
1
1
1
1
1
1
1
1
1
1
1
1
1
1
1
1
1
1
1
1
1
1
1
1
1
1
1
1
1
1
1
1
1
1
1
1
1
1
1
1
1
1
1
1
0.997094
0.997252
0.996894
0.99528
0.934417
0.770046
0.713814
0.420593
0.410933
0.468405
0.442321
0.22315
0.333995
0.377291
0.500799
0.777591
0.989691
0.989689
0.989091
0.9885
1
1
1
0.999999
0.898261
0.732128
0.822536
0.804987
0.778504
0.759718
0.80651
0.205235
0.0939802
0.103261
0.127796
0.635897
0.999561
1
1
1
1
1
1
1
0.989261
0.753892
0.686369
0.646513
0.643771
0.64885
0.652751
0.735386
0.507611
0.474898
0.511691
0.978312
0.999999
1
1
1
1
1
1
1
0.991187
0.637543
0.656015
0.63689
0.623748
0.632766
0.646524
0.62322
0.649462
0.603062
0.6219
0.991352
0.999996
1
1
1
1
1
1
1
0.992772
0.663756
0.599022
0.641008
0.667096
0.644642
0.596764
0.650458
0.623101
0.654535
0.612458
0.991834
0.999996
1
1
1
1
1
1
1
0.993978
0.673113
0.631806
0.608473
0.667691
0.592023
0.674565
0.609163
0.662873
0.626438
0.640148
0.993489
0.999999
1
1
1
1
1
1
1
0.997838
0.681699
0.550143
0.652705
0.65529
0.65051
0.655721
0.657631
0.654354
0.648061
0.655087
0.996613
1
1
1
1
1
1
1
1
0.999579
0.756065
0.64555
0.6257
0.665467
0.664017
0.656012
0.672033
0.681314
0.688034
0.805104
0.998825
1
1
1
1
1
1
1
1
0.999995
0.999226
0.998826
0.998001
0.997779
0.997567
0.997844
0.997656
0.998003
0.998272
0.999051
0.999995
1
1
1
1
1
1
1
1
1
1
1
1
1
1
1
1
1
1
1
1
1
1
1
1
1
1
1
1
1
1
1
1
1
1
1
1
1
1
1
1
1
1
1
1
1
1
1
1
1
1
1
1
1
1
1
1
1
1
1
1
1
1
1
1
1
1
1
1
1
1
1
1
1
1
1
1
1
1
1
1
1
1
1
1
1
1
1
1
1
1
1
1
1
1
1
1
1
1
1
1
1
1
1
1
1
1
1
1
1
1
1
1
1
1
1
1
1
1
1
1
1
1
1
1
1
1
1
1
1
1
1
1
1
1
1
1
1
1
1
1
1
1
1
1
1
1
1
1
1
1
1
1
1
1
1
1
1
1
1
1
1
1
1
1
1
1
1
1
1
1
1
1
1
1
1
1
1
1
1
1
1
1
1
1
1
1
1
1
1
1
1
1
1
1
1
1
1
1
1
1
1
1
1
1
1
1
1
1
1
1
1
1
1
1
1
1
1
1
1
1
1
1
1
1
0.997097
0.997271
0.996903
0.995297
0.933001
0.766811
0.701744
0.366888
0.388454
0.45893
0.432958
0.213313
0.329276
0.37808
0.500679
0.769906
0.989735
0.989808
0.989323
0.98872
1
1
1
0.999999
0.889356
0.731748
0.823667
0.807087
0.780448
0.761363
0.808115
0.198362
0.0890211
0.0985288
0.121012
0.605996
0.999631
1
1
1
1
1
1
1
0.988899
0.757915
0.686676
0.647018
0.644451
0.649572
0.651886
0.738542
0.504227
0.476838
0.510163
0.975309
0.999999
1
1
1
1
1
1
1
0.991009
0.637289
0.657269
0.636868
0.622374
0.632523
0.647661
0.622243
0.649976
0.601273
0.622278
0.991578
0.999998
1
1
1
1
1
1
1
0.992002
0.663307
0.598006
0.641571
0.667073
0.645848
0.595045
0.651399
0.62228
0.655078
0.612196
0.992041
0.999998
1
1
1
1
1
1
1
0.992891
0.672934
0.63315
0.607252
0.667977
0.59085
0.674923
0.608149
0.663058
0.626308
0.639977
0.993313
0.999999
1
1
1
1
1
1
1
0.997449
0.681402
0.549644
0.653208
0.655243
0.650288
0.655712
0.657382
0.654351
0.647751
0.653298
0.996402
1
1
1
1
1
1
1
1
0.999473
0.749559
0.639749
0.620426
0.659139
0.657683
0.650441
0.665687
0.675375
0.682363
0.79896
0.998704
1
1
1
1
1
1
1
1
0.999994
0.999196
0.998796
0.997955
0.997693
0.997484
0.99777
0.997556
0.99793
0.998206
0.999003
0.999994
1
1
1
1
1
1
1
1
1
1
1
1
1
1
1
1
1
1
1
1
1
1
1
1
1
1
1
1
1
1
1
1
1
1
1
1
1
1
1
1
1
1
1
1
1
1
1
1
1
1
1
1
1
1
1
1
1
1
1
1
1
1
1
1
1
1
1
1
1
1
1
1
1
1
1
1
1
1
1
1
1
1
1
1
1
1
1
1
1
1
1
1
1
1
1
1
1
1
1
1
1
1
1
1
1
1
1
1
1
1
1
1
1
1
1
1
1
1
1
1
1
1
1
1
1
1
1
1
1
1
1
1
1
1
1
1
1
1
1
1
1
1
1
1
1
1
1
1
1
1
1
1
1
1
1
1
1
1
1
1
1
1
1
1
1
1
1
1
1
1
1
1
1
1
1
1
1
1
1
1
1
1
1
1
1
1
1
1
1
1
1
1
1
1
1
1
1
1
1
1
1
1
1
1
1
1
1
1
1
1
1
1
1
1
1
1
1
1
1
1
1
1
1
1
0.997093
0.997298
0.996921
0.995311
0.930003
0.762329
0.687559
0.318459
0.370131
0.45082
0.424709
0.203543
0.32312
0.377823
0.500593
0.763039
0.989773
0.989919
0.989525
0.988906
1
1
1
0.999999
0.8708
0.731279
0.824914
0.808779
0.782307
0.762929
0.809708
0.191906
0.0840084
0.0936031
0.113785
0.575393
0.999652
1
1
1
1
1
1
1
0.988314
0.76216
0.686951
0.647526
0.645176
0.650323
0.650914
0.741822
0.50154
0.479456
0.509313
0.971547
0.999999
1
1
1
1
1
1
1
0.990848
0.637054
0.658499
0.636839
0.620999
0.632256
0.648764
0.621235
0.6504
0.599489
0.622661
0.991701
0.999999
1
1
1
1
1
1
1
0.991436
0.662785
0.596964
0.642152
0.667042
0.647067
0.593334
0.652362
0.621452
0.655614
0.611932
0.992132
0.999999
1
1
1
1
1
1
1
0.992149
0.672522
0.634482
0.606016
0.668249
0.589592
0.675193
0.607056
0.663242
0.626171
0.639821
0.993143
1
1
1
1
1
1
1
1
0.997157
0.681163
0.549237
0.653783
0.655212
0.650174
0.656052
0.657238
0.654379
0.647489
0.651686
0.996198
1
1
1
1
1
1
1
1
0.999378
0.743078
0.634159
0.615318
0.65313
0.651687
0.645039
0.65968
0.669751
0.676962
0.792976
0.998581
1
1
1
1
1
1
1
1
0.999992
0.999173
0.998777
0.997927
0.997644
0.997438
0.997722
0.997499
0.997891
0.99816
0.998974
0.999994
1
1
1
1
1
1
1
1
1
1
1
1
1
1
1
1
1
1
1
1
1
1
1
1
1
1
1
1
1
1
1
1
1
1
1
1
1
1
1
1
1
1
1
1
1
1
1
1
1
1
1
1
1
1
1
1
1
1
1
1
1
1
1
1
1
1
1
1
1
1
1
1
1
1
1
1
1
1
1
1
1
1
1
1
1
1
1
1
1
1
1
1
1
1
1
1
1
1
1
1
1
1
1
1
1
1
1
1
1
1
1
1
1
1
1
1
1
1
1
1
1
1
1
1
1
1
1
1
1
1
1
1
1
1
1
1
1
1
1
1
1
1
1
1
1
1
1
1
1
1
1
1
1
1
1
1
1
1
1
1
1
1
1
1
1
1
1
1
1
1
1
1
1
1
1
1
1
1
1
1
1
1
1
1
1
1
1
1
1
1
1
1
1
1
1
1
1
1
1
1
1
1
1
1
1
1
1
1
1
1
1
1
1
1
1
1
1
1
1
1
1
1
1
1
0.997086
0.997322
0.996935
0.995319
0.924201
0.756311
0.666181
0.275554
0.355999
0.443234
0.417953
0.193934
0.316184
0.377231
0.500778
0.756757
0.989814
0.99001
0.989697
0.989059
1
1
1
0.999999
0.837914
0.730682
0.826248
0.810123
0.784047
0.764406
0.81125
0.185858
0.0791295
0.0886863
0.106619
0.546242
0.999817
1
1
1
1
1
1
1
0.987452
0.766207
0.687133
0.647933
0.645921
0.651053
0.649869
0.74508
0.49974
0.48237
0.508984
0.967042
0.999999
1
1
1
1
1
1
1
0.990752
0.636851
0.65969
0.63681
0.619657
0.63198
0.649804
0.620242
0.650737
0.597749
0.623056
0.991747
1
1
1
1
1
1
1
1
0.991123
0.662192
0.595913
0.642734
0.667001
0.648264
0.591679
0.653308
0.62064
0.656128
0.611669
0.992151
0.999999
1
1
1
1
1
1
1
0.991768
0.671889
0.635768
0.604793
0.668463
0.588294
0.675402
0.60592
0.663417
0.626031
0.639674
0.992985
1
1
1
1
1
1
1
1
0.996928
0.680978
0.548942
0.654415
0.655327
0.650148
0.656396
0.65719
0.654407
0.647276
0.650277
0.996007
1
1
1
1
1
1
1
1
0.999284
0.736844
0.628957
0.610525
0.647544
0.646166
0.63998
0.654149
0.6646
0.671992
0.787362
0.99846
1
1
1
1
1
1
1
1
0.999992
0.999161
0.998772
0.997925
0.997642
0.997441
0.997715
0.997498
0.997899
0.99815
0.99897
0.999994
1
1
1
1
1
1
1
1
1
1
1
1
1
1
1
1
1
1
1
1
1
1
1
1
1
1
1
1
1
1
1
1
1
1
1
1
1
1
1
1
1
1
1
1
1
1
1
1
1
1
1
1
1
1
1
1
1
1
1
1
1
1
1
1
1
1
1
1
1
1
1
1
1
1
1
1
1
1
1
1
1
1
1
1
1
1
1
1
1
1
1
1
1
1
1
1
1
1
1
1
1
1
1
1
1
1
1
1
1
1
1
1
1
1
1
1
1
1
1
1
1
1
1
1
1
1
1
1
1
1
1
1
1
1
1
1
1
1
1
1
1
1
1
1
1
1
1
1
1
1
1
1
1
1
1
1
1
1
1
1
1
1
1
1
1
1
1
1
1
1
1
1
1
1
1
1
1
1
1
1
1
1
1
1
1
1
1
1
1
1
1
1
1
1
1
1
1
1
1
1
1
1
1
1
1
1
1
1
1
1
1
1
1
1
1
1
1
1
1
1
1
1
1
1
0.997078
0.997349
0.996948
0.995324
0.915826
0.749377
0.617063
0.241818
0.345457
0.433248
0.412288
0.184511
0.307105
0.374106
0.501409
0.752568
0.989827
0.990087
0.989844
0.98919
1
1
1
0.999999
0.798065
0.730168
0.827612
0.811376
0.785681
0.765811
0.812744
0.180294
0.0741604
0.0835065
0.0994343
0.522712
0.999997
1
1
1
1
1
1
1
0.986131
0.76996
0.687369
0.648282
0.646699
0.651792
0.648733
0.74827
0.497803
0.485282
0.508928
0.961776
0.999999
1
1
1
1
1
1
1
0.990696
0.636654
0.660845
0.636776
0.618335
0.63169
0.650802
0.619246
0.6509
0.596064
0.623455
0.991749
1
1
1
1
1
1
1
1
0.991025
0.661551
0.594845
0.643322
0.666955
0.649453
0.590057
0.654256
0.6198
0.656626
0.611382
0.992129
1
1
1
1
1
1
1
1
0.991646
0.6709
0.637023
0.603572
0.668614
0.587011
0.675573
0.604786
0.663586
0.625884
0.639538
0.992842
1
1
1
1
1
1
1
1
0.996717
0.680813
0.548744
0.655099
0.655614
0.650291
0.656871
0.657268
0.654445
0.647103
0.649026
0.995826
1
1
1
1
1
1
1
1
0.999175
0.730808
0.624101
0.606057
0.642327
0.641049
0.635276
0.649035
0.659905
0.667435
0.782073
0.99834
1
1
1
1
1
1
1
1
0.999993
0.999146
0.998768
0.997921
0.997651
0.997436
0.997711
0.997514
0.997921
0.998144
0.998969
0.999994
1
1
1
1
1
1
1
1
1
1
1
1
1
1
1
1
1
1
1
1
1
1
1
1
1
1
1
1
1
1
1
1
1
1
1
1
1
1
1
1
1
1
1
1
1
1
1
1
1
1
1
1
1
1
1
1
1
1
1
1
1
1
1
1
1
1
1
1
1
1
1
1
1
1
1
1
1
1
1
1
1
1
1
1
1
1
1
1
1
1
1
1
1
1
1
1
1
1
1
1
1
1
1
1
1
1
1
1
1
1
1
1
1
1
1
1
1
1
1
1
1
1
1
1
1
1
1
1
1
1
1
1
1
1
1
1
1
1
1
1
1
1
1
1
1
1
1
1
1
1
1
1
1
1
1
1
1
1
1
1
1
1
1
1
1
1
1
1
1
1
1
1
1
1
1
1
1
1
1
1
1
1
1
1
1
1
1
1
1
1
1
1
1
1
1
1
1
1
1
1
1
1
1
1
1
1
1
1
1
1
1
1
1
1
1
1
1
1
1
1
1
1
1
1
0.99707
0.997376
0.996958
0.995327
0.906562
0.740771
0.520785
0.216873
0.337954
0.421602
0.407944
0.175479
0.29653
0.368811
0.503258
0.750216
0.989717
0.990151
0.989971
0.989302
1
1
1
0.999999
0.762245
0.729915
0.828997
0.812644
0.7872
0.767114
0.814162
0.175157
0.069311
0.078256
0.0925748
0.507736
0.999997
1
1
1
1
1
1
1
0.984119
0.773235
0.687714
0.648545
0.647496
0.652514
0.647605
0.751382
0.496814
0.488971
0.509372
0.956001
0.999998
1
1
1
1
1
1
1
0.990628
0.636471
0.661956
0.636741
0.617049
0.631395
0.651779
0.618288
0.651108
0.594451
0.623854
0.991668
1
1
1
1
1
1
1
1
0.991026
0.660935
0.593772
0.643905
0.666907
0.650612
0.588494
0.655184
0.619024
0.657101
0.611058
0.992106
1
1
1
1
1
1
1
1
0.991651
0.669573
0.638222
0.602367
0.668729
0.585769
0.675711
0.603696
0.663742
0.625735
0.639409
0.992719
1
1
1
1
1
1
1
1
0.996485
0.680653
0.548632
0.655813
0.655983
0.650474
0.6574
0.657432
0.654491
0.646967
0.647944
0.995658
1
1
1
1
1
1
1
1
0.999042
0.725078
0.619654
0.601946
0.637536
0.636373
0.630966
0.644353
0.655698
0.663326
0.777193
0.998221
1
1
1
1
1
1
1
1
0.999994
0.999132
0.998767
0.997918
0.997669
0.997424
0.997713
0.997535
0.997931
0.998144
0.99897
0.999994
1
1
1
1
1
1
1
1
1
1
1
1
1
1
1
1
1
1
1
1
1
1
1
1
1
1
1
1
1
1
1
1
1
1
1
1
1
1
1
1
1
1
1
1
1
1
1
1
1
1
1
1
1
1
1
1
1
1
1
1
1
1
1
1
1
1
1
1
1
1
1
1
1
1
1
1
1
1
1
1
1
1
1
1
1
1
1
1
1
1
1
1
1
1
1
1
1
1
1
1
1
1
1
1
1
1
1
1
1
1
1
1
1
1
1
1
1
1
1
1
1
1
1
1
1
1
1
1
1
1
1
1
1
1
1
1
1
1
1
1
1
1
1
1
1
1
1
1
1
1
1
1
1
1
1
1
1
1
1
1
1
1
1
1
1
1
1
1
1
1
1
1
1
1
1
1
1
1
1
1
1
1
1
1
1
1
1
1
1
1
1
1
1
1
1
1
1
1
1
1
1
1
1
1
1
1
1
1
1
1
1
1
1
1
1
1
1
1
1
1
1
1
1
1
0.997061
0.997405
0.996965
0.995329
0.897447
0.729939
0.404668
0.201415
0.332471
0.410644
0.404578
0.166901
0.283922
0.358629
0.506485
0.749126
0.989658
0.990205
0.99008
0.989398
1
1
1
0.999999
0.732752
0.729841
0.830702
0.813833
0.788605
0.768321
0.815504
0.170481
0.0642827
0.0727663
0.0857529
0.499492
0.999996
1
1
1
1
1
1
1
0.980764
0.776111
0.688286
0.648766
0.648316
0.65323
0.646439
0.754515
0.496198
0.493277
0.509918
0.950643
0.999998
1
1
1
1
1
1
1
0.990559
0.636299
0.66303
0.636705
0.615795
0.631095
0.652743
0.617343
0.651353
0.592923
0.624225
0.99161
1
1
1
1
1
1
1
1
0.991229
0.660403
0.592695
0.644485
0.666858
0.651748
0.586982
0.656099
0.618261
0.657559
0.610707
0.992092
1
1
1
1
1
1
1
1
0.991877
0.667924
0.639375
0.601174
0.66882
0.584561
0.675825
0.60263
0.663883
0.62558
0.639286
0.992612
1
1
1
1
1
1
1
1
0.9962
0.680461
0.548589
0.656551
0.656438
0.65074
0.657981
0.657667
0.654553
0.646864
0.647006
0.995503
1
1
1
1
1
1
1
1
0.998888
0.719616
0.615561
0.598163
0.633128
0.632096
0.62701
0.640066
0.651908
0.659609
0.772651
0.998102
1
1
1
1
1
1
1
1
0.999994
0.999117
0.998764
0.997912
0.997671
0.997413
0.99772
0.997536
0.997928
0.998148
0.998971
0.999994
1
1
1
1
1
1
1
1
1
1
1
1
1
1
1
1
1
1
1
1
1
1
1
1
1
1
1
1
1
1
1
1
1
1
1
1
1
1
1
1
1
1
1
1
1
1
1
1
1
1
1
1
1
1
1
1
1
1
1
1
1
1
1
1
1
1
1
1
1
1
1
1
1
1
1
1
1
1
1
1
1
1
1
1
1
1
1
1
1
1
1
1
1
1
1
1
1
1
1
1
1
1
1
1
1
1
1
1
1
1
1
1
1
1
1
1
1
1
1
1
1
1
1
1
1
1
1
1
1
1
1
1
1
1
1
1
1
1
1
1
1
1
1
1
1
1
1
1
1
1
1
1
1
1
1
1
1
1
1
1
1
1
1
1
1
1
1
1
1
1
1
1
1
1
1
1
1
1
1
1
1
1
1
1
1
1
1
1
1
1
1
1
1
1
1
1
1
1
1
1
1
1
1
1
1
1
1
1
1
1
1
1
1
1
1
1
1
1
1
1
1
1
1
1
0.997051
0.997435
0.996969
0.995303
0.887854
0.716969
0.352037
0.189664
0.328263
0.403297
0.402373
0.158853
0.270813
0.343036
0.509821
0.733179
0.989621
0.99025
0.990174
0.989478
1
1
1
0.999991
0.706161
0.729793
0.832757
0.814986
0.789897
0.769416
0.81677
0.166199
0.0592824
0.0671638
0.0789871
0.458958
0.999996
1
1
1
1
1
1
1
0.974733
0.778733
0.688924
0.648943
0.649145
0.653923
0.645267
0.757531
0.496053
0.49789
0.511098
0.947187
0.999997
1
1
1
1
1
1
1
0.990533
0.636154
0.664064
0.636672
0.614584
0.630796
0.653675
0.616429
0.651596
0.591499
0.624576
0.991552
1
1
1
1
1
1
1
1
0.991512
0.659995
0.59163
0.645054
0.666808
0.652845
0.585539
0.656985
0.617544
0.657996
0.610336
0.992084
1
1
1
1
1
1
1
1
0.991999
0.666071
0.640464
0.600008
0.668893
0.583419
0.675918
0.601603
0.663981
0.625422
0.63916
0.992524
1
1
1
1
1
1
1
1
0.995867
0.680233
0.548582
0.657288
0.656939
0.651051
0.658587
0.657957
0.654716
0.646789
0.646211
0.995352
1
1
1
1
1
1
1
1
0.998725
0.714499
0.611875
0.594754
0.629142
0.628258
0.623446
0.636211
0.648526
0.656312
0.768512
0.997985
1
1
1
1
1
1
1
1
0.999994
0.999102
0.998763
0.997911
0.99766
0.997411
0.997743
0.997524
0.997914
0.998174
0.998974
0.999994
1
1
1
1
1
1
1
1
1
1
1
1
1
1
1
1
1
1
1
1
1
1
1
1
1
1
1
1
1
1
1
1
1
1
1
1
1
1
1
1
1
1
1
1
1
1
1
1
1
1
1
1
1
1
1
1
1
1
1
1
1
1
1
1
1
1
1
1
1
1
1
1
1
1
1
1
1
1
1
1
1
1
1
1
1
1
1
1
1
1
1
1
1
1
1
1
1
1
1
1
1
1
1
1
1
1
1
1
1
1
1
1
1
1
1
1
1
1
1
1
1
1
1
1
1
1
1
1
1
1
1
1
1
1
1
1
1
1
1
1
1
1
1
1
1
1
1
1
1
1
1
1
1
1
1
1
1
1
1
1
1
1
1
1
1
1
1
1
1
1
1
1
1
1
1
1
1
1
1
1
1
1
1
1
1
1
1
1
1
1
1
1
1
1
1
1
1
1
1
1
1
1
1
1
1
1
1
1
1
1
1
1
1
1
1
1
1
1
1
1
1
1
1
1
0.99704
0.997464
0.99697
0.995249
0.872083
0.703657
0.331761
0.178171
0.323426
0.398848
0.401012
0.151109
0.257762
0.323942
0.516056
0.721637
0.989541
0.990286
0.990256
0.989544
1
1
1
0.999953
0.661883
0.729592
0.834196
0.816076
0.791078
0.770421
0.817954
0.162315
0.0541475
0.0613495
0.0722352
0.41745
0.999996
1
1
1
1
1
1
0.999998
0.964422
0.781395
0.689537
0.649108
0.649977
0.654595
0.644092
0.760497
0.497822
0.502603
0.512812
0.942734
0.999997
1
1
1
1
1
1
1
0.990521
0.636039
0.665057
0.636643
0.613414
0.630501
0.654578
0.61554
0.651876
0.590182
0.624904
0.991483
1
1
1
1
1
1
1
1
0.991702
0.659699
0.590585
0.645613
0.66676
0.653907
0.584159
0.657845
0.616865
0.658414
0.609948
0.992079
1
1
1
1
1
1
1
1
0.991995
0.664094
0.641498
0.598863
0.668953
0.582357
0.675997
0.600612
0.664054
0.62526
0.639031
0.992449
1
1
1
1
1
1
1
1
0.995508
0.679936
0.548634
0.658027
0.657478
0.651402
0.659209
0.658288
0.65492
0.646742
0.64553
0.995192
1
1
1
1
1
1
1
1
0.998554
0.709716
0.608589
0.591735
0.625567
0.624848
0.620268
0.632777
0.645523
0.653407
0.764762
0.997869
1
1
1
1
1
1
1
1
0.999994
0.999092
0.998762
0.997912
0.997648
0.997421
0.997771
0.99751
0.997907
0.998214
0.998977
0.999994
1
1
1
1
1
1
1
1
1
1
1
1
1
1
1
1
1
1
1
1
1
1
1
1
1
1
1
1
1
1
1
1
1
1
1
1
1
1
1
1
1
1
1
1
1
1
1
1
1
1
1
1
1
1
1
1
1
1
1
1
1
1
1
1
1
1
1
1
1
1
1
1
1
1
1
1
1
1
1
1
1
1
1
1
1
1
1
1
1
1
1
1
1
1
1
1
1
1
1
1
1
1
1
1
1
1
1
1
1
1
1
1
1
1
1
1
1
1
1
1
1
1
1
1
1
1
1
1
1
1
1
1
1
1
1
1
1
1
1
1
1
1
1
1
1
1
1
1
1
1
1
1
1
1
1
1
1
1
1
1
1
1
1
1
1
1
1
1
1
1
1
1
1
1
1
1
1
1
1
1
1
1
1
1
1
1
1
1
1
1
1
1
1
1
1
1
1
1
1
1
1
1
1
1
1
1
1
1
1
1
1
1
1
1
1
1
1
1
1
1
1
1
1
1
0.997028
0.99749
0.996966
0.994414
0.836848
0.691002
0.306128
0.167936
0.31635
0.395125
0.400571
0.143812
0.246156
0.303774
0.48934
0.712029
0.989464
0.990313
0.990327
0.989597
1
1
1
0.998448
0.568825
0.729385
0.835488
0.817105
0.792154
0.771353
0.819055
0.158816
0.0490058
0.0557513
0.0656786
0.377755
0.999995
1
1
1
1
1
1
0.999978
0.949416
0.784266
0.690095
0.64926
0.650793
0.655236
0.642931
0.763313
0.500731
0.507583
0.515055
0.937875
0.999996
1
1
1
1
1
1
0.999999
0.99052
0.63596
0.666004
0.636618
0.612292
0.630216
0.65544
0.614687
0.652169
0.589044
0.625211
0.99141
1
1
1
1
1
1
1
1
0.991801
0.659486
0.589577
0.646153
0.666713
0.654921
0.582856
0.658665
0.616239
0.658819
0.609549
0.992079
1
1
1
1
1
1
1
1
0.99189
0.662088
0.642463
0.597747
0.669002
0.581399
0.676062
0.599667
0.664108
0.625091
0.638902
0.992385
1
1
1
1
1
1
1
1
0.995144
0.679585
0.548875
0.658757
0.658034
0.651779
0.659831
0.658645
0.655166
0.646721
0.644948
0.995024
1
1
1
1
1
1
1
1
0.998368
0.705202
0.605542
0.58894
0.622294
0.621765
0.617351
0.629666
0.642803
0.650792
0.761339
0.997752
1
1
1
1
1
1
1
1
0.999994
0.999165
0.999035
0.998311
0.997931
0.997754
0.998053
0.997758
0.998144
0.998361
0.998983
0.999995
1
1
1
1
1
1
1
1
0.999976
0.998285
0.997629
0.997629
0.997629
0.997629
0.997629
0.997629
0.997629
0.997629
0.997629
0.999998
1
1
1
1
1
1
1
1
1
0.999999
0.999999
0.999992
0.999971
0.999955
0.999965
0.999959
0.999991
1
1
1
1
1
1
1
1
1
1
1
1
1
1
1
1
1
1
1
1
1
1
1
1
1
1
1
1
1
1
1
1
1
1
1
1
1
1
1
1
1
1
1
1
1
1
1
1
1
1
1
1
1
1
1
1
1
1
1
1
1
1
1
1
1
1
1
1
1
1
1
1
1
1
1
1
1
1
1
1
1
1
1
1
1
1
1
1
1
1
1
1
1
1
1
1
1
1
1
1
1
1
1
1
1
1
1
1
1
1
1
1
1
1
1
1
1
1
1
1
1
1
1
1
1
1
1
1
1
1
1
1
1
1
1
1
1
1
1
1
1
1
1
1
1
1
1
1
1
1
1
1
1
1
1
1
1
1
1
1
1
1
1
1
1
1
1
1
1
1
1
1
1
1
1
1
1
1
1
1
1
1
1
1
1
1
1
0.997014
0.997508
0.996962
0.987972
0.77413
0.68135
0.27858
0.159966
0.305722
0.389393
0.400761
0.136861
0.234734
0.287558
0.457588
0.698579
0.989394
0.990329
0.990385
0.989637
1
1
0.999993
0.965839
0.411888
0.730468
0.836579
0.81807
0.793126
0.772213
0.820068
0.155712
0.0438312
0.0502079
0.0593825
0.338603
0.999993
1
1
1
1
1
1
0.99989
0.930211
0.787368
0.690582
0.649413
0.651589
0.655847
0.641816
0.76601
0.5044
0.512278
0.518343
0.932755
0.999995
1
1
1
1
1
1
0.999999
0.990536
0.635911
0.666902
0.6366
0.611216
0.629941
0.65626
0.613869
0.652576
0.587949
0.625491
0.991334
1
1
1
1
1
1
1
1
0.991826
0.659336
0.588613
0.646674
0.666669
0.655885
0.581626
0.659444
0.615691
0.659194
0.609141
0.992081
1
1
1
1
1
1
1
1
0.991671
0.660095
0.643361
0.596661
0.669043
0.580534
0.676118
0.598765
0.664149
0.624912
0.638778
0.99233
1
1
1
1
1
1
1
1
0.994791
0.679187
0.549086
0.65948
0.6586
0.652174
0.660447
0.659022
0.655436
0.646719
0.64444
0.994868
1
1
1
1
1
1
1
1
0.99815
0.700033
0.601672
0.585013
0.617681
0.617297
0.613168
0.625195
0.638829
0.647132
0.75722
0.997621
1
1
1
1
1
1
1
1
1
0.999722
0.999648
0.999167
0.999018
0.998879
0.999075
0.998915
0.999144
0.99924
0.999518
1
1
1
1
1
1
1
1
1
1
1
1
1
1
1
1
1
1
1
1
1
1
1
1
1
1
1
1
1
1
1
0.999997
1
1
1
0.999984
1
1
1
1
1
1
1
1
1
1
1
1
1
1
1
1
1
1
1
1
1
1
1
1
1
1
1
1
1
1
1
1
1
1
1
1
1
1
1
1
1
1
1
1
1
1
1
1
1
1
1
1
1
1
1
1
1
1
1
1
1
1
1
1
1
1
1
1
1
1
1
1
1
1
1
1
1
1
1
1
1
1
1
1
1
1
1
1
1
1
1
1
1
1
1
1
1
1
1
1
1
1
1
1
1
1
1
1
1
1
1
1
1
1
1
1
1
1
1
1
1
1
1
1
1
1
1
1
1
1
1
1
1
1
1
1
1
1
1
1
1
1
1
1
1
1
1
1
1
1
1
1
1
1
1
1
1
1
1
1
1
1
1
1
1
1
1
1
1
1
1
1
1
1
1
1
1
1
1
1
1
1
1
1
1
1
1
1
1
0.996999
0.997517
0.996946
0.980793
0.736075
0.676082
0.25385
0.15393
0.29545
0.383624
0.402265
0.130567
0.223267
0.274058
0.441091
0.685319
0.989306
0.990329
0.990424
0.989664
1
1
0.99998
0.946643
0.332937
0.732812
0.837516
0.818968
0.794002
0.772997
0.820998
0.153016
0.0389893
0.0447658
0.0533122
0.301257
0.999962
1
1
1
1
1
1
0.999855
0.91311
0.790515
0.690973
0.649569
0.652347
0.656419
0.640726
0.768435
0.508792
0.517608
0.522017
0.927552
0.999994
1
1
1
1
1
1
0.999999
0.990649
0.635885
0.667746
0.636589
0.610192
0.629682
0.657028
0.613097
0.652983
0.58694
0.625742
0.991256
1
1
1
1
1
1
1
0.999999
0.991816
0.659248
0.587705
0.64717
0.666627
0.656787
0.580476
0.660174
0.615204
0.659544
0.608729
0.992087
1
1
1
1
1
1
1
1
0.991424
0.658174
0.644184
0.595617
0.669076
0.579756
0.676163
0.597915
0.664178
0.624722
0.638668
0.992286
1
1
1
1
1
1
1
1
0.994465
0.678791
0.549267
0.660185
0.65918
0.652595
0.661061
0.659426
0.655739
0.646786
0.644012
0.994749
1
1
1
1
1
1
1
1
0.997916
0.69494
0.597726
0.580956
0.612658
0.61234
0.608698
0.620245
0.634542
0.643281
0.752849
0.997479
1
1
1
1
1
1
1
1
1
0.999741
0.999675
0.999212
0.999078
0.998947
0.999132
0.998981
0.999199
0.999296
0.99955
1
1
1
1
1
1
1
1
1
1
1
1
1
1
1
1
1
1
1
1
1
1
1
1
1
1
1
1
1
1
1
1
1
1
1
1
1
1
1
1
1
1
1
1
1
1
1
1
1
1
1
1
1
1
1
1
1
1
1
1
1
1
1
1
1
1
1
1
1
1
1
1
1
1
1
1
1
1
1
1
1
1
1
1
1
1
1
1
1
1
1
1
1
1
1
1
1
1
1
1
1
1
1
1
1
1
1
1
1
1
1
1
1
1
1
1
1
1
1
1
1
1
1
1
1
1
1
1
1
1
1
1
1
1
1
1
1
1
1
1
1
1
1
1
1
1
1
1
1
1
1
1
1
1
1
1
1
1
1
1
1
1
1
1
1
1
1
1
1
1
1
1
1
1
1
1
1
1
1
1
1
1
1
1
1
1
1
1
1
1
1
1
1
1
1
1
1
1
1
1
1
1
1
1
1
1
1
1
1
1
1
1
1
1
1
1
1
1
1
1
1
1
1
1
1
0.996983
0.997516
0.996926
0.976275
0.72739
0.672512
0.229767
0.149286
0.288409
0.380852
0.404976
0.125847
0.211502
0.261829
0.427619
0.673118
0.989094
0.990322
0.990455
0.989681
1
1
0.999975
0.942985
0.298739
0.735501
0.838413
0.819794
0.794785
0.773717
0.821845
0.150724
0.0341537
0.0393104
0.0473449
0.265543
0.999558
1
1
1
1
1
1
0.999851
0.896502
0.793549
0.691297
0.649736
0.653065
0.656953
0.639642
0.77065
0.514254
0.523256
0.526226
0.922457
0.999989
1
1
1
1
1
1
0.999999
0.990666
0.635867
0.668534
0.636585
0.609218
0.629441
0.657742
0.612372
0.653345
0.586002
0.625956
0.991174
1
1
1
1
1
1
1
0.999999
0.991768
0.659218
0.58686
0.64764
0.666589
0.657624
0.579404
0.660853
0.614753
0.659868
0.608318
0.992096
1
1
1
1
1
1
1
1
0.991257
0.656339
0.644936
0.594615
0.669103
0.57905
0.676201
0.597115
0.664198
0.624552
0.638579
0.992252
1
1
1
1
1
1
1
1
0.994177
0.678415
0.54946
0.660863
0.659761
0.653029
0.661661
0.659844
0.656059
0.646862
0.643657
0.994672
1
1
1
1
1
1
1
1
0.997688
0.690172
0.593996
0.577052
0.607776
0.607485
0.604355
0.615399
0.630391
0.639583
0.748756
0.997307
1
1
1
1
1
1
1
1
1
0.999777
0.999726
0.999296
0.999193
0.999077
0.999241
0.99911
0.999306
0.999395
0.999607
1
1
1
1
1
1
1
1
1
1
1
1
1
1
1
1
1
1
1
1
1
1
1
1
1
1
1
1
1
1
1
1
1
1
1
1
1
1
1
1
1
1
1
1
1
1
1
1
1
1
1
1
1
1
1
1
1
1
1
1
1
1
1
1
1
1
1
1
1
1
1
1
1
1
1
1
1
1
1
1
1
1
1
1
1
1
1
1
1
1
1
1
1
1
1
1
1
1
1
1
1
1
1
1
1
1
1
1
1
1
1
1
1
1
1
1
1
1
1
1
1
1
1
1
1
1
1
1
1
1
1
1
1
1
1
1
1
1
1
1
1
1
1
1
1
1
1
1
1
1
1
1
1
1
1
1
1
1
1
1
1
1
1
1
1
1
1
1
1
1
1
1
1
1
1
1
1
1
1
1
1
1
1
1
1
1
1
1
1
1
1
1
1
1
1
1
1
1
1
1
1
1
1
1
1
1
1
1
1
1
1
1
1
1
1
1
1
1
1
1
1
1
1
1
1
0.996967
0.997515
0.996906
0.97415
0.728291
0.668722
0.209577
0.14585
0.285048
0.380453
0.409255
0.12542
0.20121
0.252821
0.414978
0.661459
0.988323
0.990306
0.990463
0.989678
1
1
0.999975
0.943634
0.266969
0.73912
0.839257
0.820547
0.795481
0.774388
0.822619
0.148814
0.0292702
0.0339863
0.0415796
0.231666
0.99683
1
1
1
1
1
1
0.999853
0.877464
0.796294
0.691552
0.649915
0.653734
0.657442
0.638581
0.772642
0.52012
0.529189
0.530788
0.917773
0.99997
1
1
1
1
1
1
0.999998
0.990515
0.635844
0.66926
0.636586
0.608298
0.629222
0.658396
0.611703
0.653674
0.585158
0.626132
0.991086
1
1
1
1
1
1
1
0.999999
0.991715
0.659248
0.586084
0.648077
0.666554
0.658387
0.578416
0.661474
0.614351
0.66017
0.60792
0.992107
1
1
1
1
1
1
1
1
0.991187
0.654576
0.645612
0.593663
0.669126
0.578416
0.676233
0.59637
0.664214
0.624401
0.638516
0.992225
1
1
1
1
1
1
1
1
0.993939
0.678088
0.549675
0.661509
0.66033
0.653466
0.662238
0.660267
0.656387
0.646971
0.64337
0.994625
1
1
1
1
1
1
1
1
0.997479
0.685836
0.590641
0.573566
0.603448
0.60322
0.600518
0.611136
0.626764
0.636334
0.745145
0.997095
1
1
1
1
1
1
1
1
1
0.99981
0.999768
0.999365
0.999277
0.999172
0.999324
0.999203
0.999382
0.999469
0.999648
1
1
1
1
1
1
1
1
1
1
1
1
1
1
1
1
1
1
1
1
1
1
1
1
1
1
1
1
1
1
1
1
1
1
1
1
1
1
1
1
1
1
1
1
1
1
1
1
1
1
1
1
1
1
1
1
1
1
1
1
1
1
1
1
1
1
1
1
1
1
1
1
1
1
1
1
1
1
1
1
1
1
1
1
1
1
1
1
1
1
1
1
1
1
1
1
1
1
1
1
1
1
1
1
1
1
1
1
1
1
1
1
1
1
1
1
1
1
1
1
1
1
1
1
1
1
1
1
1
1
1
1
1
1
1
1
1
1
1
1
1
1
1
1
1
1
1
1
1
1
1
1
1
1
1
1
1
1
1
1
1
1
1
1
1
1
1
1
1
1
1
1
1
1
1
1
1
1
1
1
1
1
1
1
1
1
1
1
1
1
1
1
1
1
1
1
1
1
1
1
1
1
1
1
1
1
1
1
1
1
1
1
1
1
1
1
1
1
1
1
1
1
1
1
1
0.996951
0.997515
0.996887
0.974127
0.729929
0.664359
0.190671
0.14303
0.284142
0.381803
0.414305
0.124453
0.193753
0.247754
0.403249
0.650336
0.986823
0.990279
0.990457
0.989665
1
1
0.999977
0.945651
0.241384
0.743457
0.840131
0.821241
0.796093
0.775015
0.823313
0.147324
0.0242036
0.0288415
0.0360464
0.200992
0.987936
1
1
1
1
1
1
0.999854
0.855074
0.798735
0.691769
0.650109
0.654354
0.657887
0.637547
0.774494
0.526455
0.53515
0.535567
0.913549
0.999927
1
1
1
1
1
1
0.999998
0.990075
0.635791
0.669919
0.636604
0.607432
0.629025
0.658986
0.611097
0.653963
0.584401
0.626267
0.990994
1
1
1
1
1
1
1
0.999999
0.991696
0.659416
0.585378
0.64848
0.666524
0.659073
0.577514
0.662036
0.613991
0.660448
0.607548
0.992119
1
1
1
1
1
1
1
1
0.991171
0.652861
0.646212
0.592762
0.669145
0.577855
0.67626
0.595682
0.664226
0.62427
0.638482
0.992199
1
1
1
1
1
1
1
1
0.993748
0.67779
0.54991
0.662109
0.660871
0.653887
0.662777
0.660677
0.656707
0.647091
0.643138
0.994584
1
1
1
1
1
1
1
1
0.997283
0.681862
0.587564
0.570361
0.599424
0.599273
0.59696
0.607187
0.623428
0.633358
0.741873
0.996887
1
1
1
1
1
1
1
1
1
0.999846
0.999814
0.999443
0.999376
0.999282
0.999419