/*--------------------------------*- C++ -*----------------------------------*\
| =========                 |                                                 |
| \\      /  F ield         | OpenFOAM: The Open Source CFD Toolbox           |
|  \\    /   O peration     | Version:  2.3.0                                 |
|   \\  /    A nd           | Web:      www.OpenFOAM.org                      |
|    \\/     M anipulation  |                                                 |
\*---------------------------------------------------------------------------*/
FoamFile
{
    version     2.0;
    format      ascii;
    class       volScalarField;
    location    "2.89998";
    object      rhom;
}
// * * * * * * * * * * * * * * * * * * * * * * * * * * * * * * * * * * * * * //

dimensions      [1 -3 0 0 0 0 0];

internalField   nonuniform List<scalar> 
10000
(
1025.75
1025.71
1025.54
1024.72
996.792
911.443
890.17
809.808
767.357
779.004
762.724
646.522
692.224
707.402
773.238
929.616
1022
1021.74
1021.03
1020.76
1027.11
1027.11
1027.11
1027.11
988.224
891.013
934.138
923.683
909.615
900.595
924.923
633.117
572.643
575.94
592.09
890.658
1026.74
1027.11
1027.11
1027.11
1027.11
1027.11
1027.11
1027.11
1021.54
894.91
865.347
845.25
843.537
845.91
850.273
886.051
783.248
757.145
783.167
1019.03
1027.1
1027.11
1027.11
1027.11
1027.11
1027.11
1027.11
1027.11
1022.7
842.086
848.515
841.077
836.852
839.289
843.797
835.747
846.479
826.933
832.753
1021.87
1027.09
1027.11
1027.11
1027.11
1027.11
1027.11
1027.11
1027.11
1025.01
855.472
823.428
842.206
856.526
842.843
823.711
846.326
835.534
849.063
829.053
1022.32
1027.1
1027.11
1027.11
1027.11
1027.11
1027.11
1027.11
1027.11
1025.83
859.701
835.909
828.7
856.295
819.942
859.625
828.455
854.016
835.918
843.156
1024.17
1027.11
1027.11
1027.11
1027.11
1027.11
1027.11
1027.11
1027.11
1026.75
865.005
797.803
848.677
850.667
848.968
850.753
852.634
850.128
847.627
854.649
1025.78
1027.11
1027.11
1027.11
1027.11
1027.11
1027.11
1027.11
1027.11
1027.02
914.574
857.331
845.926
869.023
868.306
862.585
872.424
876.344
879.061
939.297
1026.71
1027.11
1027.11
1027.11
1027.11
1027.11
1027.11
1027.11
1027.11
1027.11
1026.78
1026.57
1026.2
1026.15
1026.06
1026.14
1026.11
1026.25
1026.34
1026.72
1027.11
1027.11
1027.11
1027.11
1027.11
1027.11
1027.11
1027.11
1027.11
1027.11
1027.11
1027.11
1027.11
1027.11
1027.11
1027.11
1027.11
1027.11
1027.11
1027.11
1027.11
1027.11
1027.11
1027.11
1027.11
1027.11
1027.11
1027.11
1027.11
1027.11
1027.11
1027.11
1027.11
1027.11
1027.11
1027.11
1027.11
1027.11
1027.11
1027.11
1027.11
1027.11
1027.11
1027.11
1027.11
1027.11
1027.11
1027.11
1027.11
1027.11
1027.11
1027.11
1027.11
1027.11
1027.11
1027.11
1027.11
1027.11
1027.11
1027.11
1027.11
1027.11
1027.11
1027.11
1027.11
1027.11
1027.11
1027.11
1027.11
1027.11
1027.11
1027.11
1027.11
1027.11
1027.11
1027.11
1027.11
1027.11
1027.11
1027.11
1027.11
1027.11
1027.11
1027.11
1027.11
1027.11
1027.11
1027.11
1027.11
1027.11
1027.11
1027.11
1027.11
1027.11
1027.11
1027.11
1027.11
1027.11
1027.11
1027.11
1027.11
1027.11
1027.11
1027.11
1027.11
1027.11
1027.11
1027.11
1027.11
1027.11
1027.11
1027.11
1027.11
1027.11
1027.11
1027.11
1027.11
1027.11
1027.11
1027.11
1027.11
1027.11
1027.11
1027.11
1027.11
1027.11
1027.11
1027.11
1027.11
1027.11
1027.11
1027.11
1027.11
1027.11
1027.11
1027.11
1027.11
1027.11
1027.11
1027.11
1027.11
1027.11
1027.11
1027.11
1027.11
1027.11
1027.11
1027.11
1027.11
1027.11
1027.11
1027.11
1027.11
1027.11
1027.11
1027.11
1027.11
1027.11
1027.11
1027.11
1027.11
1027.11
1027.11
1027.11
1027.11
1027.11
1027.11
1027.11
1027.11
1027.11
1027.11
1027.11
1027.11
1027.11
1027.11
1027.11
1027.11
1027.11
1027.11
1027.11
1027.11
1027.11
1027.11
1027.11
1027.11
1027.11
1027.11
1027.11
1027.11
1027.11
1027.11
1027.11
1027.11
1027.11
1027.11
1027.11
1027.11
1027.11
1027.11
1027.11
1027.11
1027.11
1027.11
1027.11
1027.11
1027.11
1027.11
1027.11
1027.11
1027.11
1027.11
1027.11
1027.11
1027.11
1027.11
1027.11
1027.11
1027.11
1027.11
1027.11
1027.11
1027.11
1027.11
1027.11
1027.11
1025.65
1025.69
1025.52
1024.69
994.81
910.461
887.6
785.885
749.991
769.165
752.427
639.058
689.366
706.204
771.424
921.043
1021.87
1021.75
1021.26
1020.97
1027.11
1027.11
1027.11
1027.11
981.17
890.496
935.05
925.087
911.521
902.134
926.311
627.421
568.013
572.305
586.708
869.103
1026.7
1027.11
1027.11
1027.11
1027.11
1027.11
1027.11
1027.11
1021.64
897.329
865.888
845.504
843.959
846.451
849.905
888.443
778.833
756.85
779.694
1018.1
1027.11
1027.11
1027.11
1027.11
1027.11
1027.11
1027.11
1027.11
1022.67
841.745
849.585
841.08
835.714
839.16
844.8
835.019
846.94
825.527
833.025
1022.3
1027.1
1027.11
1027.11
1027.11
1027.11
1027.11
1027.11
1027.11
1024.34
855.198
822.639
842.62
856.533
843.819
822.252
847.066
834.833
849.536
828.806
1022.59
1027.1
1027.11
1027.11
1027.11
1027.11
1027.11
1027.11
1027.11
1025.22
859.691
837.071
827.714
856.543
819.147
859.963
827.777
854.176
835.825
842.925
1023.98
1027.11
1027.11
1027.11
1027.11
1027.11
1027.11
1027.11
1027.11
1026.54
864.439
797.214
848.785
850.558
848.435
850.723
852.1
850.037
847.178
852.502
1025.6
1027.11
1027.11
1027.11
1027.11
1027.11
1027.11
1027.11
1027.11
1027.03
908.846
851.768
840.989
862.698
861.973
856.999
866.088
870.397
873.484
933.753
1026.62
1027.11
1027.11
1027.11
1027.11
1027.11
1027.11
1027.11
1027.11
1027.11
1026.75
1026.54
1026.14
1026.07
1025.97
1026.08
1026.02
1026.18
1026.29
1026.68
1027.11
1027.11
1027.11
1027.11
1027.11
1027.11
1027.11
1027.11
1027.11
1027.11
1027.11
1027.11
1027.11
1027.11
1027.11
1027.11
1027.11
1027.11
1027.11
1027.11
1027.11
1027.11
1027.11
1027.11
1027.11
1027.11
1027.11
1027.11
1027.11
1027.11
1027.11
1027.11
1027.11
1027.11
1027.11
1027.11
1027.11
1027.11
1027.11
1027.11
1027.11
1027.11
1027.11
1027.11
1027.11
1027.11
1027.11
1027.11
1027.11
1027.11
1027.11
1027.11
1027.11
1027.11
1027.11
1027.11
1027.11
1027.11
1027.11
1027.11
1027.11
1027.11
1027.11
1027.11
1027.11
1027.11
1027.11
1027.11
1027.11
1027.11
1027.11
1027.11
1027.11
1027.11
1027.11
1027.11
1027.11
1027.11
1027.11
1027.11
1027.11
1027.11
1027.11
1027.11
1027.11
1027.11
1027.11
1027.11
1027.11
1027.11
1027.11
1027.11
1027.11
1027.11
1027.11
1027.11
1027.11
1027.11
1027.11
1027.11
1027.11
1027.11
1027.11
1027.11
1027.11
1027.11
1027.11
1027.11
1027.11
1027.11
1027.11
1027.11
1027.11
1027.11
1027.11
1027.11
1027.11
1027.11
1027.11
1027.11
1027.11
1027.11
1027.11
1027.11
1027.11
1027.11
1027.11
1027.11
1027.11
1027.11
1027.11
1027.11
1027.11
1027.11
1027.11
1027.11
1027.11
1027.11
1027.11
1027.11
1027.11
1027.11
1027.11
1027.11
1027.11
1027.11
1027.11
1027.11
1027.11
1027.11
1027.11
1027.11
1027.11
1027.11
1027.11
1027.11
1027.11
1027.11
1027.11
1027.11
1027.11
1027.11
1027.11
1027.11
1027.11
1027.11
1027.11
1027.11
1027.11
1027.11
1027.11
1027.11
1027.11
1027.11
1027.11
1027.11
1027.11
1027.11
1027.11
1027.11
1027.11
1027.11
1027.11
1027.11
1027.11
1027.11
1027.11
1027.11
1027.11
1027.11
1027.11
1027.11
1027.11
1027.11
1027.11
1027.11
1027.11
1027.11
1027.11
1027.11
1027.11
1027.11
1027.11
1027.11
1027.11
1027.11
1027.11
1027.11
1027.11
1027.11
1027.11
1027.11
1027.11
1027.11
1027.11
1027.11
1027.11
1027.11
1027.11
1027.11
1027.11
1027.11
1027.11
1027.11
1027.11
1025.62
1025.68
1025.5
1024.67
993.847
909.979
884.546
760.86
737.818
761.657
746.991
633.988
687.88
707.61
772.12
916.05
1021.78
1021.71
1021.36
1021.05
1027.11
1027.11
1027.11
1027.11
978.414
890.14
935.584
925.929
912.534
903.056
927.091
623.49
565.6
570.159
583.729
855.754
1026.78
1027.11
1027.11
1027.11
1027.11
1027.11
1027.11
1027.11
1021.64
898.914
866.122
845.692
844.239
846.785
849.588
889.844
776.785
757.701
778.141
1017.24
1027.11
1027.11
1027.11
1027.11
1027.11
1027.11
1027.11
1027.11
1022.66
841.571
850.189
841.068
835.059
839.064
845.365
834.575
847.213
824.678
833.19
1022.51
1027.11
1027.11
1027.11
1027.11
1027.11
1027.11
1027.11
1027.11
1023.88
855.026
822.178
842.872
856.536
844.384
821.424
847.501
834.437
849.8
828.677
1022.77
1027.11
1027.11
1027.11
1027.11
1027.11
1027.11
1027.11
1027.11
1024.67
859.688
837.723
827.144
856.682
818.655
860.152
827.355
854.267
835.767
842.823
1023.88
1027.11
1027.11
1027.11
1027.11
1027.11
1027.11
1027.11
1027.11
1026.25
864.223
796.916
848.951
850.518
848.218
850.713
851.877
850.014
846.976
851.455
1025.49
1027.11
1027.11
1027.11
1027.11
1027.11
1027.11
1027.11
1027.11
1026.97
905.686
848.771
838.291
859.331
858.596
854.045
862.708
867.233
870.499
930.668
1026.57
1027.11
1027.11
1027.11
1027.11
1027.11
1027.11
1027.11
1027.11
1027.11
1026.73
1026.53
1026.12
1026.03
1025.92
1026.05
1025.97
1026.14
1026.26
1026.65
1027.11
1027.11
1027.11
1027.11
1027.11
1027.11
1027.11
1027.11
1027.11
1027.11
1027.11
1027.11
1027.11
1027.11
1027.11
1027.11
1027.11
1027.11
1027.11
1027.11
1027.11
1027.11
1027.11
1027.11
1027.11
1027.11
1027.11
1027.11
1027.11
1027.11
1027.11
1027.11
1027.11
1027.11
1027.11
1027.11
1027.11
1027.11
1027.11
1027.11
1027.11
1027.11
1027.11
1027.11
1027.11
1027.11
1027.11
1027.11
1027.11
1027.11
1027.11
1027.11
1027.11
1027.11
1027.11
1027.11
1027.11
1027.11
1027.11
1027.11
1027.11
1027.11
1027.11
1027.11
1027.11
1027.11
1027.11
1027.11
1027.11
1027.11
1027.11
1027.11
1027.11
1027.11
1027.11
1027.11
1027.11
1027.11
1027.11
1027.11
1027.11
1027.11
1027.11
1027.11
1027.11
1027.11
1027.11
1027.11
1027.11
1027.11
1027.11
1027.11
1027.11
1027.11
1027.11
1027.11
1027.11
1027.11
1027.11
1027.11
1027.11
1027.11
1027.11
1027.11
1027.11
1027.11
1027.11
1027.11
1027.11
1027.11
1027.11
1027.11
1027.11
1027.11
1027.11
1027.11
1027.11
1027.11
1027.11
1027.11
1027.11
1027.11
1027.11
1027.11
1027.11
1027.11
1027.11
1027.11
1027.11
1027.11
1027.11
1027.11
1027.11
1027.11
1027.11
1027.11
1027.11
1027.11
1027.11
1027.11
1027.11
1027.11
1027.11
1027.11
1027.11
1027.11
1027.11
1027.11
1027.11
1027.11
1027.11
1027.11
1027.11
1027.11
1027.11
1027.11
1027.11
1027.11
1027.11
1027.11
1027.11
1027.11
1027.11
1027.11
1027.11
1027.11
1027.11
1027.11
1027.11
1027.11
1027.11
1027.11
1027.11
1027.11
1027.11
1027.11
1027.11
1027.11
1027.11
1027.11
1027.11
1027.11
1027.11
1027.11
1027.11
1027.11
1027.11
1027.11
1027.11
1027.11
1027.11
1027.11
1027.11
1027.11
1027.11
1027.11
1027.11
1027.11
1027.11
1027.11
1027.11
1027.11
1027.11
1027.11
1027.11
1027.11
1027.11
1027.11
1027.11
1027.11
1027.11
1027.11
1027.11
1027.11
1027.11
1027.11
1027.11
1027.11
1027.11
1027.11
1027.11
1027.11
1027.11
1027.11
1027.11
1025.62
1025.7
1025.52
1024.69
993.507
909.284
880.47
730.225
725.275
754.723
741.358
629.056
685.852
708.037
771.322
913.149
1021.83
1021.83
1021.52
1021.22
1027.11
1027.11
1027.11
1027.11
974.98
889.854
936.179
927.187
913.617
903.991
927.967
619.876
562.869
567.625
580.196
840.546
1026.89
1027.11
1027.11
1027.11
1027.11
1027.11
1027.11
1027.11
1021.61
901.006
866.408
845.985
844.58
847.183
849.182
891.524
774.813
758.051
776.903
1016
1027.11
1027.11
1027.11
1027.11
1027.11
1027.11
1027.11
1027.11
1022.6
841.389
850.854
841.054
834.321
838.942
845.991
834.05
847.497
823.721
833.374
1022.68
1027.11
1027.11
1027.11
1027.11
1027.11
1027.11
1027.11
1027.11
1023.41
854.821
821.651
843.165
856.532
845.027
820.494
848.007
833.989
850.096
828.536
1022.93
1027.11
1027.11
1027.11
1027.11
1027.11
1027.11
1027.11
1027.11
1024.03
859.615
838.45
826.494
856.837
818.065
860.359
826.848
854.368
835.699
842.724
1023.77
1027.11
1027.11
1027.11
1027.11
1027.11
1027.11
1027.11
1027.11
1026
864.015
796.606
849.158
850.483
848.034
850.704
851.682
850.003
846.779
850.379
1025.38
1027.11
1027.11
1027.11
1027.11
1027.11
1027.11
1027.11
1027.11
1026.9
902.12
845.492
835.321
855.697
854.954
850.853
859.062
863.817
867.261
927.247
1026.51
1027.11
1027.11
1027.11
1027.11
1027.11
1027.11
1027.11
1027.11
1027.11
1026.71
1026.51
1026.09
1025.97
1025.86
1026.01
1025.91
1026.09
1026.23
1026.62
1027.11
1027.11
1027.11
1027.11
1027.11
1027.11
1027.11
1027.11
1027.11
1027.11
1027.11
1027.11
1027.11
1027.11
1027.11
1027.11
1027.11
1027.11
1027.11
1027.11
1027.11
1027.11
1027.11
1027.11
1027.11
1027.11
1027.11
1027.11
1027.11
1027.11
1027.11
1027.11
1027.11
1027.11
1027.11
1027.11
1027.11
1027.11
1027.11
1027.11
1027.11
1027.11
1027.11
1027.11
1027.11
1027.11
1027.11
1027.11
1027.11
1027.11
1027.11
1027.11
1027.11
1027.11
1027.11
1027.11
1027.11
1027.11
1027.11
1027.11
1027.11
1027.11
1027.11
1027.11
1027.11
1027.11
1027.11
1027.11
1027.11
1027.11
1027.11
1027.11
1027.11
1027.11
1027.11
1027.11
1027.11
1027.11
1027.11
1027.11
1027.11
1027.11
1027.11
1027.11
1027.11
1027.11
1027.11
1027.11
1027.11
1027.11
1027.11
1027.11
1027.11
1027.11
1027.11
1027.11
1027.11
1027.11
1027.11
1027.11
1027.11
1027.11
1027.11
1027.11
1027.11
1027.11
1027.11
1027.11
1027.11
1027.11
1027.11
1027.11
1027.11
1027.11
1027.11
1027.11
1027.11
1027.11
1027.11
1027.11
1027.11
1027.11
1027.11
1027.11
1027.11
1027.11
1027.11
1027.11
1027.11
1027.11
1027.11
1027.11
1027.11
1027.11
1027.11
1027.11
1027.11
1027.11
1027.11
1027.11
1027.11
1027.11
1027.11
1027.11
1027.11
1027.11
1027.11
1027.11
1027.11
1027.11
1027.11
1027.11
1027.11
1027.11
1027.11
1027.11
1027.11
1027.11
1027.11
1027.11
1027.11
1027.11
1027.11
1027.11
1027.11
1027.11
1027.11
1027.11
1027.11
1027.11
1027.11
1027.11
1027.11
1027.11
1027.11
1027.11
1027.11
1027.11
1027.11
1027.11
1027.11
1027.11
1027.11
1027.11
1027.11
1027.11
1027.11
1027.11
1027.11
1027.11
1027.11
1027.11
1027.11
1027.11
1027.11
1027.11
1027.11
1027.11
1027.11
1027.11
1027.11
1027.11
1027.11
1027.11
1027.11
1027.11
1027.11
1027.11
1027.11
1027.11
1027.11
1027.11
1027.11
1027.11
1027.11
1027.11
1027.11
1027.11
1027.11
1027.11
1027.11
1027.11
1027.11
1027.11
1027.11
1025.62
1025.71
1025.52
1024.7
992.781
907.626
874.286
702.707
713.757
749.868
736.56
624.015
683.434
708.441
771.26
909.212
1021.85
1021.89
1021.64
1021.33
1027.11
1027.11
1027.11
1027.11
970.417
889.66
936.758
928.263
914.613
904.834
928.79
616.354
560.328
565.2
576.721
825.225
1026.92
1027.11
1027.11
1027.11
1027.11
1027.11
1027.11
1027.11
1021.42
903.067
866.565
846.244
844.929
847.553
848.738
893.141
773.078
759.044
776.12
1014.46
1027.11
1027.11
1027.11
1027.11
1027.11
1027.11
1027.11
1027.11
1022.5
841.259
851.497
841.043
833.617
838.817
846.574
833.55
847.76
822.805
833.567
1022.8
1027.11
1027.11
1027.11
1027.11
1027.11
1027.11
1027.11
1027.11
1023.01
854.591
821.13
843.453
856.52
845.645
819.613
848.489
833.569
850.374
828.402
1023.03
1027.11
1027.11
1027.11
1027.11
1027.11
1027.11
1027.11
1027.11
1023.47
859.524
839.138
825.868
856.984
817.464
860.543
826.328
854.463
835.633
842.637
1023.68
1027.11
1027.11
1027.11
1027.11
1027.11
1027.11
1027.11
1027.11
1025.8
863.863
796.35
849.416
850.459
847.92
850.699
851.554
850.002
846.62
849.462
1025.27
1027.11
1027.11
1027.11
1027.11
1027.11
1027.11
1027.11
1027.11
1026.84
898.786
842.519
832.619
852.455
851.709
847.998
855.81
860.774
864.355
924.099
1026.45
1027.11
1027.11
1027.11
1027.11
1027.11
1027.11
1027.11
1027.11
1027.11
1026.7
1026.49
1026.06
1025.93
1025.82
1025.97
1025.86
1026.05
1026.19
1026.6
1027.11
1027.11
1027.11
1027.11
1027.11
1027.11
1027.11
1027.11
1027.11
1027.11
1027.11
1027.11
1027.11
1027.11
1027.11
1027.11
1027.11
1027.11
1027.11
1027.11
1027.11
1027.11
1027.11
1027.11
1027.11
1027.11
1027.11
1027.11
1027.11
1027.11
1027.11
1027.11
1027.11
1027.11
1027.11
1027.11
1027.11
1027.11
1027.11
1027.11
1027.11
1027.11
1027.11
1027.11
1027.11
1027.11
1027.11
1027.11
1027.11
1027.11
1027.11
1027.11
1027.11
1027.11
1027.11
1027.11
1027.11
1027.11
1027.11
1027.11
1027.11
1027.11
1027.11
1027.11
1027.11
1027.11
1027.11
1027.11
1027.11
1027.11
1027.11
1027.11
1027.11
1027.11
1027.11
1027.11
1027.11
1027.11
1027.11
1027.11
1027.11
1027.11
1027.11
1027.11
1027.11
1027.11
1027.11
1027.11
1027.11
1027.11
1027.11
1027.11
1027.11
1027.11
1027.11
1027.11
1027.11
1027.11
1027.11
1027.11
1027.11
1027.11
1027.11
1027.11
1027.11
1027.11
1027.11
1027.11
1027.11
1027.11
1027.11
1027.11
1027.11
1027.11
1027.11
1027.11
1027.11
1027.11
1027.11
1027.11
1027.11
1027.11
1027.11
1027.11
1027.11
1027.11
1027.11
1027.11
1027.11
1027.11
1027.11
1027.11
1027.11
1027.11
1027.11
1027.11
1027.11
1027.11
1027.11
1027.11
1027.11
1027.11
1027.11
1027.11
1027.11
1027.11
1027.11
1027.11
1027.11
1027.11
1027.11
1027.11
1027.11
1027.11
1027.11
1027.11
1027.11
1027.11
1027.11
1027.11
1027.11
1027.11
1027.11
1027.11
1027.11
1027.11
1027.11
1027.11
1027.11
1027.11
1027.11
1027.11
1027.11
1027.11
1027.11
1027.11
1027.11
1027.11
1027.11
1027.11
1027.11
1027.11
1027.11
1027.11
1027.11
1027.11
1027.11
1027.11
1027.11
1027.11
1027.11
1027.11
1027.11
1027.11
1027.11
1027.11
1027.11
1027.11
1027.11
1027.11
1027.11
1027.11
1027.11
1027.11
1027.11
1027.11
1027.11
1027.11
1027.11
1027.11
1027.11
1027.11
1027.11
1027.11
1027.11
1027.11
1027.11
1027.11
1027.11
1027.11
1027.11
1027.11
1027.11
1027.11
1027.11
1025.62
1025.73
1025.53
1024.71
991.245
905.329
867.017
677.892
704.368
745.713
732.334
619.009
680.28
708.309
771.217
905.693
1021.87
1021.95
1021.74
1021.43
1027.11
1027.11
1027.11
1027.11
960.909
889.419
937.398
929.13
915.566
905.637
929.606
613.046
557.76
562.676
573.017
809.544
1026.93
1027.11
1027.11
1027.11
1027.11
1027.11
1027.11
1027.11
1021.12
905.242
866.706
846.505
845.3
847.938
848.24
894.822
771.702
760.386
775.685
1012.53
1027.11
1027.11
1027.11
1027.11
1027.11
1027.11
1027.11
1027.11
1022.42
841.139
852.127
841.029
832.912
838.68
847.139
833.033
847.977
821.89
833.764
1022.86
1027.11
1027.11
1027.11
1027.11
1027.11
1027.11
1027.11
1027.11
1022.72
854.323
820.597
843.751
856.504
846.269
818.737
848.982
833.144
850.649
828.266
1023.08
1027.11
1027.11
1027.11
1027.11
1027.11
1027.11
1027.11
1027.11
1023.09
859.312
839.821
825.235
857.123
816.819
860.681
825.768
854.557
835.562
842.556
1023.6
1027.11
1027.11
1027.11
1027.11
1027.11
1027.11
1027.11
1027.11
1025.65
863.74
796.142
849.71
850.443
847.861
850.873
851.481
850.016
846.486
848.636
1025.16
1027.11
1027.11
1027.11
1027.11
1027.11
1027.11
1027.11
1027.11
1026.79
895.465
839.655
830.001
849.376
848.637
845.23
852.732
857.893
861.587
921.033
1026.38
1027.11
1027.11
1027.11
1027.11
1027.11
1027.11
1027.11
1027.11
1027.11
1026.69
1026.48
1026.05
1025.9
1025.8
1025.94
1025.83
1026.03
1026.17
1026.59
1027.11
1027.11
1027.11
1027.11
1027.11
1027.11
1027.11
1027.11
1027.11
1027.11
1027.11
1027.11
1027.11
1027.11
1027.11
1027.11
1027.11
1027.11
1027.11
1027.11
1027.11
1027.11
1027.11
1027.11
1027.11
1027.11
1027.11
1027.11
1027.11
1027.11
1027.11
1027.11
1027.11
1027.11
1027.11
1027.11
1027.11
1027.11
1027.11
1027.11
1027.11
1027.11
1027.11
1027.11
1027.11
1027.11
1027.11
1027.11
1027.11
1027.11
1027.11
1027.11
1027.11
1027.11
1027.11
1027.11
1027.11
1027.11
1027.11
1027.11
1027.11
1027.11
1027.11
1027.11
1027.11
1027.11
1027.11
1027.11
1027.11
1027.11
1027.11
1027.11
1027.11
1027.11
1027.11
1027.11
1027.11
1027.11
1027.11
1027.11
1027.11
1027.11
1027.11
1027.11
1027.11
1027.11
1027.11
1027.11
1027.11
1027.11
1027.11
1027.11
1027.11
1027.11
1027.11
1027.11
1027.11
1027.11
1027.11
1027.11
1027.11
1027.11
1027.11
1027.11
1027.11
1027.11
1027.11
1027.11
1027.11
1027.11
1027.11
1027.11
1027.11
1027.11
1027.11
1027.11
1027.11
1027.11
1027.11
1027.11
1027.11
1027.11
1027.11
1027.11
1027.11
1027.11
1027.11
1027.11
1027.11
1027.11
1027.11
1027.11
1027.11
1027.11
1027.11
1027.11
1027.11
1027.11
1027.11
1027.11
1027.11
1027.11
1027.11
1027.11
1027.11
1027.11
1027.11
1027.11
1027.11
1027.11
1027.11
1027.11
1027.11
1027.11
1027.11
1027.11
1027.11
1027.11
1027.11
1027.11
1027.11
1027.11
1027.11
1027.11
1027.11
1027.11
1027.11
1027.11
1027.11
1027.11
1027.11
1027.11
1027.11
1027.11
1027.11
1027.11
1027.11
1027.11
1027.11
1027.11
1027.11
1027.11
1027.11
1027.11
1027.11
1027.11
1027.11
1027.11
1027.11
1027.11
1027.11
1027.11
1027.11
1027.11
1027.11
1027.11
1027.11
1027.11
1027.11
1027.11
1027.11
1027.11
1027.11
1027.11
1027.11
1027.11
1027.11
1027.11
1027.11
1027.11
1027.11
1027.11
1027.11
1027.11
1027.11
1027.11
1027.11
1027.11
1027.11
1027.11
1027.11
1027.11
1027.11
1027.11
1027.11
1025.62
1025.74
1025.54
1024.71
988.272
902.246
856.063
655.907
697.127
741.826
728.872
614.086
676.726
708.006
771.311
902.474
1021.89
1021.99
1021.83
1021.51
1027.11
1027.11
1027.11
1027.11
944.059
889.113
938.081
929.819
916.458
906.394
930.396
609.947
555.26
560.157
569.345
794.607
1027.02
1027.11
1027.11
1027.11
1027.11
1027.11
1027.11
1027.11
1020.68
907.316
866.799
846.713
845.682
848.312
847.705
896.491
770.78
761.879
775.516
1010.22
1027.11
1027.11
1027.11
1027.11
1027.11
1027.11
1027.11
1027.11
1022.37
841.035
852.737
841.013
832.225
838.539
847.672
832.524
848.15
820.999
833.966
1022.88
1027.11
1027.11
1027.11
1027.11
1027.11
1027.11
1027.11
1027.11
1022.56
854.019
820.058
844.049
856.483
846.883
817.888
849.467
832.728
850.912
828.131
1023.09
1027.11
1027.11
1027.11
1027.11
1027.11
1027.11
1027.11
1027.11
1022.89
858.988
840.48
824.608
857.233
816.154
860.788
825.186
854.647
835.49
842.481
1023.52
1027.11
1027.11
1027.11
1027.11
1027.11
1027.11
1027.11
1027.11
1025.54
863.645
795.99
850.035
850.502
847.848
851.049
851.456
850.03
846.376
847.914
1025.06
1027.11
1027.11
1027.11
1027.11
1027.11
1027.11
1027.11
1027.11
1026.74
892.271
836.99
827.546
846.514
845.808
842.638
849.898
855.253
859.041
918.156
1026.32
1027.11
1027.11
1027.11
1027.11
1027.11
1027.11
1027.11
1027.11
1027.11
1026.68
1026.48
1026.05
1025.9
1025.8
1025.94
1025.83
1026.03
1026.16
1026.58
1027.11
1027.11
1027.11
1027.11
1027.11
1027.11
1027.11
1027.11
1027.11
1027.11
1027.11
1027.11
1027.11
1027.11
1027.11
1027.11
1027.11
1027.11
1027.11
1027.11
1027.11
1027.11
1027.11
1027.11
1027.11
1027.11
1027.11
1027.11
1027.11
1027.11
1027.11
1027.11
1027.11
1027.11
1027.11
1027.11
1027.11
1027.11
1027.11
1027.11
1027.11
1027.11
1027.11
1027.11
1027.11
1027.11
1027.11
1027.11
1027.11
1027.11
1027.11
1027.11
1027.11
1027.11
1027.11
1027.11
1027.11
1027.11
1027.11
1027.11
1027.11
1027.11
1027.11
1027.11
1027.11
1027.11
1027.11
1027.11
1027.11
1027.11
1027.11
1027.11
1027.11
1027.11
1027.11
1027.11
1027.11
1027.11
1027.11
1027.11
1027.11
1027.11
1027.11
1027.11
1027.11
1027.11
1027.11
1027.11
1027.11
1027.11
1027.11
1027.11
1027.11
1027.11
1027.11
1027.11
1027.11
1027.11
1027.11
1027.11
1027.11
1027.11
1027.11
1027.11
1027.11
1027.11
1027.11
1027.11
1027.11
1027.11
1027.11
1027.11
1027.11
1027.11
1027.11
1027.11
1027.11
1027.11
1027.11
1027.11
1027.11
1027.11
1027.11
1027.11
1027.11
1027.11
1027.11
1027.11
1027.11
1027.11
1027.11
1027.11
1027.11
1027.11
1027.11
1027.11
1027.11
1027.11
1027.11
1027.11
1027.11
1027.11
1027.11
1027.11
1027.11
1027.11
1027.11
1027.11
1027.11
1027.11
1027.11
1027.11
1027.11
1027.11
1027.11
1027.11
1027.11
1027.11
1027.11
1027.11
1027.11
1027.11
1027.11
1027.11
1027.11
1027.11
1027.11
1027.11
1027.11
1027.11
1027.11
1027.11
1027.11
1027.11
1027.11
1027.11
1027.11
1027.11
1027.11
1027.11
1027.11
1027.11
1027.11
1027.11
1027.11
1027.11
1027.11
1027.11
1027.11
1027.11
1027.11
1027.11
1027.11
1027.11
1027.11
1027.11
1027.11
1027.11
1027.11
1027.11
1027.11
1027.11
1027.11
1027.11
1027.11
1027.11
1027.11
1027.11
1027.11
1027.11
1027.11
1027.11
1027.11
1027.11
1027.11
1027.11
1027.11
1027.11
1027.11
1027.11
1027.11
1027.11
1027.11
1027.11
1027.11
1025.61
1025.75
1025.55
1024.72
983.981
898.693
830.896
638.621
691.725
736.709
725.969
609.257
672.074
706.405
771.635
900.328
1021.9
1022.03
1021.91
1021.57
1027.11
1027.11
1027.11
1027.11
923.64
888.85
938.78
930.461
917.295
907.114
931.162
607.097
552.714
557.503
565.664
782.55
1027.11
1027.11
1027.11
1027.11
1027.11
1027.11
1027.11
1027.11
1020
909.239
866.92
846.892
846.081
848.69
847.123
898.125
769.787
763.371
775.488
1007.52
1027.11
1027.11
1027.11
1027.11
1027.11
1027.11
1027.11
1027.11
1022.34
840.934
853.329
840.996
831.547
838.39
848.183
832.014
848.233
820.135
834.171
1022.88
1027.11
1027.11
1027.11
1027.11
1027.11
1027.11
1027.11
1027.11
1022.51
853.691
819.511
844.351
856.46
847.492
817.057
849.953
832.298
851.167
827.985
1023.08
1027.11
1027.11
1027.11
1027.11
1027.11
1027.11
1027.11
1027.11
1022.83
858.481
841.123
823.982
857.31
815.497
860.876
824.605
854.733
835.415
842.412
1023.44
1027.11
1027.11
1027.11
1027.11
1027.11
1027.11
1027.11
1027.11
1025.43
863.561
795.889
850.385
850.649
847.921
851.293
851.496
850.05
846.288
847.273
1024.97
1027.11
1027.11
1027.11
1027.11
1027.11
1027.11
1027.11
1027.11
1026.69
889.178
834.502
825.256
843.84
843.186
840.228
847.278
852.848
856.706
915.446
1026.26
1027.11
1027.11
1027.11
1027.11
1027.11
1027.11
1027.11
1027.11
1027.11
1026.67
1026.48
1026.05
1025.91
1025.8
1025.94
1025.84
1026.05
1026.16
1026.58
1027.11
1027.11
1027.11
1027.11
1027.11
1027.11
1027.11
1027.11
1027.11
1027.11
1027.11
1027.11
1027.11
1027.11
1027.11
1027.11
1027.11
1027.11
1027.11
1027.11
1027.11
1027.11
1027.11
1027.11
1027.11
1027.11
1027.11
1027.11
1027.11
1027.11
1027.11
1027.11
1027.11
1027.11
1027.11
1027.11
1027.11
1027.11
1027.11
1027.11
1027.11
1027.11
1027.11
1027.11
1027.11
1027.11
1027.11
1027.11
1027.11
1027.11
1027.11
1027.11
1027.11
1027.11
1027.11
1027.11
1027.11
1027.11
1027.11
1027.11
1027.11
1027.11
1027.11
1027.11
1027.11
1027.11
1027.11
1027.11
1027.11
1027.11
1027.11
1027.11
1027.11
1027.11
1027.11
1027.11
1027.11
1027.11
1027.11
1027.11
1027.11
1027.11
1027.11
1027.11
1027.11
1027.11
1027.11
1027.11
1027.11
1027.11
1027.11
1027.11
1027.11
1027.11
1027.11
1027.11
1027.11
1027.11
1027.11
1027.11
1027.11
1027.11
1027.11
1027.11
1027.11
1027.11
1027.11
1027.11
1027.11
1027.11
1027.11
1027.11
1027.11
1027.11
1027.11
1027.11
1027.11
1027.11
1027.11
1027.11
1027.11
1027.11
1027.11
1027.11
1027.11
1027.11
1027.11
1027.11
1027.11
1027.11
1027.11
1027.11
1027.11
1027.11
1027.11
1027.11
1027.11
1027.11
1027.11
1027.11
1027.11
1027.11
1027.11
1027.11
1027.11
1027.11
1027.11
1027.11
1027.11
1027.11
1027.11
1027.11
1027.11
1027.11
1027.11
1027.11
1027.11
1027.11
1027.11
1027.11
1027.11
1027.11
1027.11
1027.11
1027.11
1027.11
1027.11
1027.11
1027.11
1027.11
1027.11
1027.11
1027.11
1027.11
1027.11
1027.11
1027.11
1027.11
1027.11
1027.11
1027.11
1027.11
1027.11
1027.11
1027.11
1027.11
1027.11
1027.11
1027.11
1027.11
1027.11
1027.11
1027.11
1027.11
1027.11
1027.11
1027.11
1027.11
1027.11
1027.11
1027.11
1027.11
1027.11
1027.11
1027.11
1027.11
1027.11
1027.11
1027.11
1027.11
1027.11
1027.11
1027.11
1027.11
1027.11
1027.11
1027.11
1027.11
1027.11
1027.11
1027.11
1027.11
1027.11
1027.11
1027.11
1025.61
1025.77
1025.55
1024.72
979.234
894.283
781.563
625.839
687.881
730.742
723.743
604.629
666.655
703.692
772.582
899.123
1021.84
1022.06
1021.97
1021.63
1027.11
1027.11
1027.11
1027.11
905.286
888.72
939.49
931.111
918.073
907.781
931.888
604.464
550.229
554.812
562.149
774.876
1027.11
1027.11
1027.11
1027.11
1027.11
1027.11
1027.11
1027.11
1018.97
910.918
867.097
847.026
846.489
849.06
846.545
899.72
769.28
765.261
775.715
1004.57
1027.11
1027.11
1027.11
1027.11
1027.11
1027.11
1027.11
1027.11
1022.31
840.84
853.898
840.978
830.888
838.239
848.684
831.523
848.34
819.309
834.375
1022.84
1027.11
1027.11
1027.11
1027.11
1027.11
1027.11
1027.11
1027.11
1022.51
853.375
818.961
844.649
856.435
848.086
816.257
850.428
831.9
851.411
827.818
1023.07
1027.11
1027.11
1027.11
1027.11
1027.11
1027.11
1027.11
1027.11
1022.83
857.801
841.737
823.365
857.369
814.86
860.946
824.046
854.814
835.339
842.345
1023.38
1027.11
1027.11
1027.11
1027.11
1027.11
1027.11
1027.11
1027.11
1025.31
863.479
795.832
850.751
850.838
848.015
851.564
851.58
850.073
846.218
846.719
1024.89
1027.11
1027.11
1027.11
1027.11
1027.11
1027.11
1027.11
1027.11
1026.62
886.242
832.223
823.15
841.386
840.79
838.019
844.879
850.692
854.6
912.945
1026.2
1027.11
1027.11
1027.11
1027.11
1027.11
1027.11
1027.11
1027.11
1027.11
1026.67
1026.48
1026.04
1025.92
1025.79
1025.94
1025.85
1026.05
1026.16
1026.58
1027.11
1027.11
1027.11
1027.11
1027.11
1027.11
1027.11
1027.11
1027.11
1027.11
1027.11
1027.11
1027.11
1027.11
1027.11
1027.11
1027.11
1027.11
1027.11
1027.11
1027.11
1027.11
1027.11
1027.11
1027.11
1027.11
1027.11
1027.11
1027.11
1027.11
1027.11
1027.11
1027.11
1027.11
1027.11
1027.11
1027.11
1027.11
1027.11
1027.11
1027.11
1027.11
1027.11
1027.11
1027.11
1027.11
1027.11
1027.11
1027.11
1027.11
1027.11
1027.11
1027.11
1027.11
1027.11
1027.11
1027.11
1027.11
1027.11
1027.11
1027.11
1027.11
1027.11
1027.11
1027.11
1027.11
1027.11
1027.11
1027.11
1027.11
1027.11
1027.11
1027.11
1027.11
1027.11
1027.11
1027.11
1027.11
1027.11
1027.11
1027.11
1027.11
1027.11
1027.11
1027.11
1027.11
1027.11
1027.11
1027.11
1027.11
1027.11
1027.11
1027.11
1027.11
1027.11
1027.11
1027.11
1027.11
1027.11
1027.11
1027.11
1027.11
1027.11
1027.11
1027.11
1027.11
1027.11
1027.11
1027.11
1027.11
1027.11
1027.11
1027.11
1027.11
1027.11
1027.11
1027.11
1027.11
1027.11
1027.11
1027.11
1027.11
1027.11
1027.11
1027.11
1027.11
1027.11
1027.11
1027.11
1027.11
1027.11
1027.11
1027.11
1027.11
1027.11
1027.11
1027.11
1027.11
1027.11
1027.11
1027.11
1027.11
1027.11
1027.11
1027.11
1027.11
1027.11
1027.11
1027.11
1027.11
1027.11
1027.11
1027.11
1027.11
1027.11
1027.11
1027.11
1027.11
1027.11
1027.11
1027.11
1027.11
1027.11
1027.11
1027.11
1027.11
1027.11
1027.11
1027.11
1027.11
1027.11
1027.11
1027.11
1027.11
1027.11
1027.11
1027.11
1027.11
1027.11
1027.11
1027.11
1027.11
1027.11
1027.11
1027.11
1027.11
1027.11
1027.11
1027.11
1027.11
1027.11
1027.11
1027.11
1027.11
1027.11
1027.11
1027.11
1027.11
1027.11
1027.11
1027.11
1027.11
1027.11
1027.11
1027.11
1027.11
1027.11
1027.11
1027.11
1027.11
1027.11
1027.11
1027.11
1027.11
1027.11
1027.11
1027.11
1027.11
1027.11
1027.11
1027.11
1027.11
1027.11
1027.11
1027.11
1025.61
1025.78
1025.56
1024.72
974.564
888.733
722.065
617.919
685.071
725.127
722.018
600.234
660.195
698.475
774.235
898.564
1021.81
1022.09
1022.03
1021.68
1027.11
1027.11
1027.11
1027.11
890.174
888.682
940.363
931.72
918.793
908.4
932.576
602.068
547.652
551.999
558.654
770.652
1027.11
1027.11
1027.11
1027.11
1027.11
1027.11
1027.11
1027.11
1017.25
912.391
867.39
847.14
846.91
849.427
845.948
901.325
768.965
767.468
775.994
1001.82
1027.11
1027.11
1027.11
1027.11