/*--------------------------------*- C++ -*----------------------------------*\
| =========                 |                                                 |
| \\      /  F ield         | OpenFOAM: The Open Source CFD Toolbox           |
|  \\    /   O peration     | Version:  2.3.0                                 |
|   \\  /    A nd           | Web:      www.OpenFOAM.org                      |
|    \\/     M anipulation  |                                                 |
\*---------------------------------------------------------------------------*/
FoamFile
{
    version     2.0;
    format      ascii;
    class       volScalarField;
    location    "9";
    object      alpha.airMean;
}
// * * * * * * * * * * * * * * * * * * * * * * * * * * * * * * * * * * * * * //

dimensions      [0 0 0 0 0 0 0];

internalField   nonuniform List<scalar> 
1875
(
0.172662
0.177012
0.188388
0.205876
0.223724
0.239463
0.252908
0.258414
0.258923
0.257323
0.258615
0.254436
0.250188
0.253969
0.251247
0.245854
0.240074
0.231096
0.220008
0.207396
0.194678
0.181176
0.168579
0.160188
0.157014
0.130519
0.14112
0.158787
0.174407
0.194101
0.223981
0.241355
0.24382
0.23073
0.221157
0.213768
0.214219
0.221748
0.225772
0.231944
0.236185
0.233339
0.226444
0.212824
0.193383
0.168584
0.14872
0.133566
0.124533
0.121054
0.139869
0.172349
0.208633
0.22759
0.241933
0.248418
0.248539
0.238016
0.22374
0.213751
0.20817
0.215783
0.228291
0.236786
0.244694
0.252027
0.255789
0.25802
0.259475
0.258204
0.248485
0.22476
0.186179
0.145544
0.131322
0.150189
0.204664
0.248079
0.259222
0.255526
0.250727
0.24058
0.227162
0.210401
0.202919
0.200372
0.211506
0.227859
0.240774
0.250614
0.260729
0.269763
0.27971
0.284572
0.284411
0.280419
0.273732
0.241676
0.176953
0.143062
0.154048
0.21403
0.252232
0.25932
0.253501
0.23963
0.226484
0.210101
0.193939
0.18592
0.187196
0.200313
0.216277
0.23207
0.246063
0.254726
0.264253
0.271748
0.281056
0.286314
0.287271
0.281087
0.246817
0.189789
0.150164
0.157856
0.21044
0.24521
0.256278
0.249343
0.231138
0.214675
0.198515
0.180374
0.171629
0.174679
0.184228
0.200746
0.215568
0.232963
0.244155
0.252783
0.26306
0.271464
0.279728
0.282297
0.276735
0.23942
0.191759
0.158821
0.161651
0.201323
0.236226
0.25027
0.245956
0.225819
0.205479
0.189046
0.171872
0.163931
0.164624
0.173294
0.183098
0.19807
0.213331
0.228242
0.239274
0.249987
0.261218
0.270003
0.27711
0.268144
0.230206
0.190248
0.164974
0.16431
0.194104
0.228637
0.245688
0.243526
0.224466
0.202386
0.184744
0.169865
0.163151
0.164854
0.167081
0.175242
0.181329
0.193023
0.205493
0.219783
0.23385
0.248073
0.262891
0.271154
0.257353
0.217984
0.188209
0.167751
0.16506
0.19166
0.219654
0.238029
0.240196
0.222228
0.200549
0.184198
0.171306
0.165259
0.164599
0.167423
0.167102
0.171954
0.176033
0.186244
0.200385
0.217215
0.234974
0.254869
0.263524
0.244236
0.207177
0.187472
0.168034
0.165391
0.193937
0.211773
0.23049
0.234076
0.220654
0.200714
0.185006
0.173788
0.165516
0.165143
0.163674
0.165793
0.164976
0.168084
0.174909
0.187975
0.204555
0.223421
0.24689
0.253442
0.230791
0.20175
0.188775
0.167851
0.166031
0.19499
0.208466
0.222039
0.228841
0.219434
0.202482
0.185536
0.173149
0.164688
0.160797
0.161793
0.160273
0.16178
0.162158
0.17021
0.182663
0.201792
0.221398
0.241953
0.243191
0.217901
0.198728
0.19098
0.167153
0.166465
0.195979
0.206748
0.218678
0.22438
0.220859
0.204245
0.185626
0.172919
0.163992
0.160591
0.158286
0.159969
0.160732
0.165753
0.173098
0.183887
0.200774
0.222166
0.23923
0.233369
0.211425
0.200115
0.19224
0.166877
0.166276
0.196543
0.20867
0.215755
0.221881
0.217901
0.205794
0.186518
0.172886
0.165814
0.16089
0.161034
0.159026
0.165767
0.171175
0.177126
0.181301
0.195695
0.219967
0.233379
0.227423
0.210463
0.205067
0.192894
0.166261
0.165322
0.197461
0.213517
0.215811
0.21641
0.215407
0.206146
0.189029
0.174244
0.165773
0.16418
0.163345
0.165183
0.167776
0.175023
0.180119
0.182509
0.192317
0.216503
0.228819
0.223118
0.212819
0.212264
0.194005
0.165137
0.163814
0.198441
0.216894
0.217006
0.215165
0.2116
0.204957
0.191676
0.176391
0.167427
0.164944
0.166322
0.166341
0.169909
0.174708
0.180395
0.183822
0.194356
0.213598
0.224239
0.220459
0.216718
0.216078
0.193728
0.163877
0.161786
0.197951
0.217172
0.22018
0.215899
0.209702
0.201866
0.190079
0.177721
0.169732
0.16698
0.164645
0.166677
0.169365
0.175991
0.180943
0.18521
0.196346
0.213867
0.22248
0.222022
0.221496
0.215232
0.190924
0.162055
0.159753
0.195631
0.215635
0.219824
0.216723
0.207018
0.197003
0.184965
0.175409
0.171149
0.169138
0.168586
0.167574
0.171441
0.178071
0.183181
0.187126
0.201152
0.215794
0.221298
0.223586
0.221601
0.212394
0.189821
0.159896
0.157812
0.191617
0.211271
0.218658
0.214871
0.204513
0.192039
0.181348
0.173622
0.169943
0.171931
0.171874
0.172147
0.175287
0.183918
0.190658
0.19394
0.201273
0.213447
0.219611
0.222757
0.220369
0.212601
0.189893
0.157882
0.155913
0.18777
0.206666
0.214615
0.213315
0.202963
0.190074
0.179534
0.173736
0.171491
0.17302
0.174237
0.175148
0.184726
0.191674
0.19661
0.195884
0.200059
0.209041
0.216425
0.22056
0.220785
0.211792
0.190279
0.155912
0.154101
0.185696
0.203793
0.210985
0.20987
0.201218
0.19038
0.180069
0.176479
0.172837
0.175169
0.176491
0.18051
0.18648
0.193719
0.195845
0.196248
0.197464
0.205756
0.21261
0.218153
0.221063
0.208762
0.189152
0.154124
0.152674
0.186377
0.200968
0.207259
0.205081
0.198563
0.19051
0.183047
0.178908
0.17715
0.177629
0.179953
0.182615
0.18717
0.190379
0.192614
0.194367
0.197974
0.202593
0.208688
0.215426
0.217822
0.20316
0.18755
0.152653
0.151524
0.187265
0.198634
0.203403
0.200786
0.194247
0.188562
0.183459
0.182213
0.180683
0.180683
0.182759
0.185765
0.185508
0.188803
0.189487
0.193274
0.196252
0.199018
0.204338
0.211111
0.211548
0.198138
0.184612
0.151609
0.150571
0.187061
0.198376
0.200396
0.197093
0.190969
0.186683
0.184397
0.184283
0.183164
0.184193
0.185701
0.186255
0.186151
0.18706
0.190428
0.192938
0.194022
0.196014
0.199594
0.205176
0.204555
0.193209
0.182447
0.150579
0.149355
0.18608
0.198623
0.198608
0.193616
0.187067
0.185758
0.184933
0.185254
0.185233
0.186482
0.187896
0.188183
0.185695
0.18653
0.190786
0.193847
0.192813
0.1925
0.195271
0.200088
0.198919
0.189436
0.182411
0.148919
0.148313
0.184594
0.198186
0.197424
0.190524
0.184301
0.183127
0.183646
0.185406
0.186647
0.18905
0.190735
0.188974
0.188034
0.187057
0.191361
0.193386
0.192128
0.189874
0.191814
0.196398
0.194875
0.187899
0.183564
0.147625
0.147303
0.182212
0.195704
0.194971
0.189353
0.183352
0.182671
0.184032
0.187571
0.192345
0.195009
0.195012
0.191365
0.189308
0.188569
0.190429
0.192149
0.190069
0.18762
0.189169
0.193552
0.191549
0.189156
0.183633
0.146422
0.146255
0.179388
0.1922
0.192553
0.18916
0.185803
0.183534
0.183805
0.189896
0.194948
0.198406
0.196805
0.191501
0.189922
0.191979
0.192676
0.19074
0.187879
0.184259
0.186483
0.191261
0.190769
0.191888
0.181533
0.144907
0.145112
0.176946
0.189674
0.191181
0.189928
0.186953
0.183881
0.184853
0.189775
0.196492
0.198191
0.195719
0.190188
0.190613
0.194166
0.197242
0.19364
0.187324
0.182809
0.183427
0.187954
0.191769
0.192564
0.178549
0.14354
0.143906
0.175592
0.188686
0.190978
0.18934
0.185947
0.184197
0.185139
0.189627
0.194997
0.196893
0.193313
0.18903
0.192584
0.196858
0.198548
0.198513
0.192978
0.184946
0.181437
0.185947
0.190494
0.190086
0.175131
0.14218
0.142739
0.175107
0.189006
0.190729
0.188065
0.183713
0.182682
0.184511
0.187988
0.191906
0.19241
0.189711
0.188792
0.19422
0.198119
0.200555
0.198507
0.194563
0.188858
0.186879
0.1874
0.190377
0.186152
0.172074
0.140839
0.14157
0.174677
0.188284
0.189594
0.186529
0.182869
0.18131
0.182711
0.184412
0.186376
0.187213
0.185513
0.187049
0.193054
0.19888
0.1994
0.199295
0.195934
0.192991
0.192294
0.193549
0.191282
0.184179
0.169365
0.139519
0.140386
0.173869
0.186745
0.187983
0.185741
0.182111
0.180055
0.179319
0.180274
0.182521
0.183495
0.182735
0.186254
0.192457
0.198153
0.199404
0.198881
0.197434
0.193582
0.194552
0.196201
0.192202
0.181985
0.167913
0.138452
0.139303
0.173715
0.18488
0.186548
0.184167
0.180413
0.179045
0.176543
0.176964
0.178577
0.180006
0.181778
0.184874
0.19158
0.19749
0.198175
0.198068
0.19466
0.192757
0.193534
0.196042
0.190453
0.179227
0.167215
0.137718
0.13844
0.174548
0.183675
0.184058
0.182108
0.179477
0.178605
0.176571
0.175244
0.174276
0.176797
0.178821
0.182589
0.189243
0.194292
0.195321
0.194214
0.191876
0.189915
0.191899
0.192394
0.186349
0.176334
0.166813
0.137157
0.138151
0.175389
0.182958
0.18184
0.179594
0.178895
0.178773
0.177637
0.175155
0.175573
0.175779
0.176386
0.17867
0.185525
0.190255
0.190741
0.190245
0.187582
0.187391
0.1874
0.187399
0.182331
0.173917
0.165177
0.136391
0.138041
0.175182
0.182035
0.179799
0.17713
0.176282
0.177651
0.176363
0.175178
0.177757
0.179865
0.178658
0.178192
0.184924
0.188066
0.188196
0.185558
0.184293
0.183504
0.183148
0.183323
0.179134
0.170936
0.163334
0.135486
0.137762
0.173925
0.180365
0.177679
0.176101
0.174989
0.176561
0.175648
0.177696
0.183721
0.186164
0.181426
0.178929
0.183473
0.187259
0.185777
0.183477
0.181789
0.181438
0.181
0.181136
0.174846
0.16733
0.1625
0.134728
0.137285
0.172677
0.178716
0.17712
0.176376
0.175436
0.177608
0.180672
0.182707
0.188053
0.187677
0.184837
0.177984
0.183295
0.186602
0.186537
0.185092
0.184215
0.18252
0.179737
0.177975
0.170203
0.164245
0.16241
0.133905
0.136847
0.171629
0.177455
0.177173
0.177432
0.1769
0.180318
0.180182
0.185512
0.189197
0.190338
0.185532
0.177677
0.180853
0.185608
0.187369
0.186037
0.184994
0.182085
0.178488
0.175762
0.167877
0.164362
0.162776
0.13282
0.136171
0.170039
0.176827
0.178412
0.178275
0.177132
0.178345
0.180192
0.185095
0.18869
0.188113
0.185626
0.177151
0.179125
0.182486
0.185006
0.183919
0.182121
0.180035
0.177478
0.176686
0.170219
0.166247
0.163355
0.131566
0.135351
0.16893
0.176488
0.178184
0.178715
0.174892
0.176757
0.178702
0.184287
0.185589
0.185871
0.183506
0.177539
0.177753
0.179675
0.180422
0.179431
0.178398
0.177583
0.175562
0.176018
0.172105
0.169754
0.162723
0.130621
0.134549
0.167708
0.17674
0.177443
0.177521
0.175056
0.176367
0.178654
0.181553
0.182486
0.182672
0.181045
0.17598
0.178526
0.17661
0.176242
0.175518
0.175574
0.17544
0.173588
0.176016
0.173026
0.171872
0.160941
0.129894
0.133745
0.166024
0.176971
0.17701
0.178149
0.176214
0.177407
0.176729
0.177634
0.177589
0.177842
0.175617
0.171639
0.177289
0.174513
0.172951
0.172622
0.174216
0.174931
0.17382
0.176978
0.174312
0.171536
0.157966
0.129287
0.132936
0.164114
0.176222
0.177126
0.179378
0.177393
0.177007
0.174022
0.172776
0.172483
0.171644
0.170066
0.16808
0.174817
0.17272
0.170481
0.170523
0.171512
0.173353
0.173025
0.177677
0.174507
0.170482
0.155765
0.129468
0.13291
0.162628
0.174267
0.176287
0.180123
0.177481
0.176749
0.171196
0.169544
0.169278
0.16804
0.168025
0.167355
0.173083
0.170914
0.16953
0.169017
0.16913
0.171508
0.171179
0.176045
0.173257
0.168994
0.155115
0.129328
0.133685
0.161063
0.171757
0.174287
0.179429
0.177236
0.176269
0.170009
0.167607
0.167166
0.166854
0.168434
0.16786
0.172851
0.170518
0.168158
0.166974
0.166391
0.16941
0.170212
0.174541
0.171367
0.167544
0.154414
0.128449
0.133568
0.159805
0.168967
0.171567
0.17625
0.174542
0.175712
0.171141
0.168113
0.166755
0.167358
0.167807
0.166131
0.172832
0.171146
0.166953
0.164764
0.163494
0.168649
0.170772
0.174175
0.170914
0.166749
0.154416
0.127436
0.132616
0.157729
0.165433
0.16749
0.172438
0.171287
0.174448
0.172615
0.169045
0.166608
0.167262
0.166536
0.164077
0.171043
0.171548
0.166933
0.163815
0.162553
0.169517
0.171356
0.175244
0.171175
0.166016
0.154187
0.126344
0.131206
0.155517
0.16174
0.163272
0.169594
0.170062
0.174396
0.172226
0.169246
0.165819
0.166256
0.167377
0.163996
0.169394
0.171863
0.169584
0.164556
0.163948
0.169683
0.170995
0.174943
0.17091
0.164584
0.153505
0.125374
0.129375
0.154223
0.159026
0.161433
0.16832
0.169001
0.173563
0.170811
0.168439
0.16415
0.163681
0.16562
0.163685
0.168572
0.172035
0.172282
0.170127
0.167021
0.170218
0.169652
0.173805
0.169516
0.162485
0.15243
0.124341
0.127954
0.154027
0.157916
0.161146
0.167837
0.168355
0.171821
0.168544
0.166238
0.161919
0.16075
0.163068
0.161099
0.166743
0.170353
0.171068
0.169973
0.169414
0.17068
0.168361
0.171748
0.167024
0.160286
0.151917
0.123119
0.127831
0.154261
0.15874
0.162358
0.168634
0.167597
0.170558
0.166109
0.164478
0.16117
0.15944
0.160476
0.158249
0.164816
0.168942
0.16909
0.169384
0.169097
0.169927
0.16676
0.169631
0.164632
0.158765
0.151712
0.121897
0.128464
0.155087
0.160991
0.164298
0.169114
0.167368
0.170284
0.166161
0.164464
0.161505
0.16001
0.159075
0.157742
0.164515
0.166652
0.167398
0.167578
0.16697
0.167712
0.164303
0.16762
0.16254
0.158065
0.152091
0.120943
0.14321
0.170179
0.177336
0.179998
0.184053
0.179961
0.183197
0.178948
0.17895
0.177933
0.177806
0.176593
0.173278
0.17737
0.179144
0.179408
0.180031
0.177853
0.178623
0.175799
0.179869
0.17457
0.172068
0.167065
0.134487
0.167333
0.1935
0.200609
0.203026
0.206749
0.202396
0.204771
0.201377
0.202829
0.204311
0.206092
0.205586
0.19883
0.202049
0.201793
0.201845
0.201871
0.198693
0.200052
0.197174
0.201607
0.197309
0.195914
0.190806
0.158064
0.191385
0.217453
0.224055
0.225634
0.229036
0.224725
0.228613
0.225975
0.230501
0.234127
0.23719
0.234045
0.228074
0.2292
0.227279
0.225449
0.22429
0.221014
0.223631
0.220581
0.225581
0.222406
0.22147
0.216243
0.181954
0.214676
0.240284
0.246519
0.24842
0.251711
0.248421
0.253231
0.2527
0.258152
0.262315
0.26209
0.261276
0.255177
0.256025
0.252431
0.249741
0.246711
0.244106
0.246837
0.244321
0.249717
0.247953
0.246516
0.240204
0.205438
0.238066
0.262947
0.268595
0.271243
0.276585
0.27533
0.28125
0.280201
0.284706
0.285644
0.285053
0.283503
0.279349
0.278745
0.276024
0.273882
0.273632
0.26925
0.27059
0.26798
0.273829
0.27285
0.27204
0.263774
0.228706
0.26188
0.285953
0.291688
0.294788
0.301741
0.302311
0.30628
0.303488
0.306491
0.306617
0.305027
0.304793
0.300854
0.301011
0.297835
0.297821
0.298037
0.295151
0.295346
0.292906
0.298321
0.298016
0.296988
0.286641
0.25177
0.286469
0.309604
0.315152
0.318449
0.326778
0.32709
0.329737
0.325263
0.326749
0.325792
0.325054
0.325062
0.322337
0.322148
0.319581
0.320131
0.322209
0.319561
0.322153
0.31921
0.325391
0.323365
0.322075
0.309683
0.275326
0.310875
0.333402
0.339191
0.343268
0.351361
0.350529
0.352397
0.347728
0.347769
0.345378
0.344402
0.344513
0.34154
0.341788
0.340496
0.342942
0.345466
0.34537
0.349572
0.347835
0.352494
0.349398
0.345528
0.332401
0.299912
0.335231
0.357933
0.364594
0.367815
0.374409
0.372199
0.373845
0.369105
0.370268
0.368518
0.368653
0.368348
0.365242
0.364444
0.363871
0.366563
0.369359
0.370007
0.375199
0.374166
0.37829
0.373552
0.368177
0.354618
0.325065
0.359218
0.382866
0.389252
0.390945
0.395018
0.392283
0.393704
0.390072
0.391749
0.39243
0.394219
0.394889
0.391504
0.391741
0.39193
0.393552
0.39427
0.394226
0.399032
0.397917
0.400494
0.395565
0.389173
0.376785
0.350486
0.382096
0.407386
0.413499
0.414513
0.417634
0.414642
0.416634
0.412513
0.416315
0.41775
0.41836
0.417372
0.417721
0.419693
0.422482
0.421293
0.420335
0.418795
0.422221
0.420162
0.420966
0.415077
0.409004
0.400331
0.37604
0.406484
0.431015
0.43754
0.44006
0.442905
0.441264
0.441792
0.439997
0.44362
0.441715
0.440607
0.441569
0.443992
0.447021
0.44741
0.44577
0.445245
0.44403
0.445334
0.442952
0.441746
0.436022
0.432119
0.425176
0.400778
0.435481
0.457635
0.464055
0.467351
0.471218
0.469508
0.470423
0.469068
0.470673
0.468282
0.466405
0.465834
0.469373
0.472109
0.47283
0.470977
0.470826
0.469327
0.470761
0.46831
0.466698
0.462136
0.459304
0.453665
0.427615
0.472454
0.48885
0.493847
0.494528
0.496617
0.49753
0.499274
0.499497
0.500008
0.498156
0.494682
0.493171
0.495286
0.498573
0.498981
0.498423
0.498281
0.497492
0.497954
0.495421
0.493815
0.492508
0.490293
0.481767
0.466474
0.597649
0.604023
0.602788
0.603118
0.60489
0.604576
0.602019
0.600279
0.595458
0.598465
0.599249
0.598565
0.595914
0.599488
0.598595
0.594181
0.589595
0.584615
0.584014
0.589144
0.598317
0.604457
0.611443
0.61221
0.607139
0.893521
0.89226
0.887232
0.879199
0.875602
0.877541
0.889957
0.902864
0.901642
0.900065
0.897418
0.893701
0.892846
0.890435
0.882714
0.875986
0.884771
0.886679
0.88337
0.881721
0.88909
0.899126
0.901651
0.902023
0.900647
0.994515
0.994763
0.995002
0.995223
0.995302
0.995763
0.996249
0.996456
0.996256
0.996065
0.995953
0.996005
0.996026
0.996039
0.9961
0.996172
0.99649
0.996653
0.996645
0.996443
0.996344
0.996357
0.99613
0.995755
0.995505
0.999933
0.999938
0.999948
0.999957
0.999964
0.99997
0.999974
0.999976
0.999978
0.999979
0.999978
0.999979
0.999979
0.99998
0.999983
0.999984
0.999985
0.999984
0.999981
0.999977
0.999977
0.999976
0.999976
0.999972
0.999967
0.999999
0.999999
1
1
1
1
1
1
1
1
1
1
1
1
1
1
1
1
1
1
1
1
1
1
1
1
1
1
1
1
1
1
1
1
1
1
1
1
1
1
1
1
1
1
1
1
1
1
1
1
1
1
1
1
1
1
1
1
1
1
1
1
1
1
1
1
1
1
1
1
1
1
1
1
1
1
1
1
1
1
1
1
1
1
1
1
1
1
1
1
1
1
1
1
1
1
1
1
1
1
)
;

boundaryField
{
    inlet
    {
        type            calculated;
        value           uniform 0.5;
    }
    outlet
    {
        type            calculated;
        value           nonuniform List<scalar> 
25
(
1
1
1
1
1
1
1
1
1
1
1
1
1
1
1
1
1
1
1
1
1
1
1
1
1
)
;
    }
    walls
    {
        type            calculated;
        value           nonuniform List<scalar> 
150
(
0.172662
0.130519
0.139869
0.150189
0.154048
0.157856
0.161651
0.16431
0.16506
0.165391
0.166031
0.166465
0.166276
0.165322
0.163814
0.161786
0.159753
0.157812
0.155913
0.154101
0.152674
0.151524
0.150571
0.149355
0.148313
0.147303
0.146255
0.145112
0.143906
0.142739
0.14157
0.140386
0.139303
0.13844
0.138151
0.138041
0.137762
0.137285
0.136847
0.136171
0.135351
0.134549
0.133745
0.132936
0.13291
0.133685
0.133568
0.132616
0.131206
0.129375
0.127954
0.127831
0.128464
0.14321
0.167333
0.191385
0.214676
0.238066
0.26188
0.286469
0.310875
0.335231
0.359218
0.382096
0.406484
0.435481
0.472454
0.597649
0.893521
0.994515
0.999933
0.999999
1
1
1
0.157014
0.121054
0.131322
0.143062
0.150164
0.158821
0.164974
0.167751
0.168034
0.167851
0.167153
0.166877
0.166261
0.165137
0.163877
0.162055
0.159896
0.157882
0.155912
0.154124
0.152653
0.151609
0.150579
0.148919
0.147625
0.146422
0.144907
0.14354
0.14218
0.140839
0.139519
0.138452
0.137718
0.137157
0.136391
0.135486
0.134728
0.133905
0.13282
0.131566
0.130621
0.129894
0.129287
0.129468
0.129328
0.128449
0.127436
0.126344
0.125374
0.124341
0.123119
0.121897
0.120943
0.134487
0.158064
0.181954
0.205438
0.228706
0.25177
0.275326
0.299912
0.325065
0.350486
0.37604
0.400778
0.427615
0.466474
0.607139
0.900647
0.995505
0.999967
1
1
1
1
)
;
    }
    defaultFaces
    {
        type            empty;
    }
}


// ************************************************************************* //
