/*--------------------------------*- C++ -*----------------------------------*\
| =========                 |                                                 |
| \\      /  F ield         | OpenFOAM: The Open Source CFD Toolbox           |
|  \\    /   O peration     | Version:  2.3.0                                 |
|   \\  /    A nd           | Web:      www.OpenFOAM.org                      |
|    \\/     M anipulation  |                                                 |
\*---------------------------------------------------------------------------*/
FoamFile
{
    version     2.0;
    format      ascii;
    class       volScalarField;
    location    "9";
    object      alpha.air;
}
// * * * * * * * * * * * * * * * * * * * * * * * * * * * * * * * * * * * * * //

dimensions      [0 0 0 0 0 0 0];

internalField   nonuniform List<scalar> 
1875
(
0.126429
0.126548
0.132491
0.146127
0.16733
0.20163
0.232274
0.243738
0.233558
0.249307
0.26715
0.2412
0.232181
0.232237
0.221916
0.208273
0.193753
0.179775
0.165684
0.152379
0.13992
0.128859
0.120337
0.115288
0.113671
0.126429
0.126429
0.136858
0.160484
0.209807
0.294999
0.297837
0.203735
0.111977
0.112948
0.158459
0.217423
0.24968
0.257194
0.25469
0.247591
0.237779
0.231503
0.223765
0.215668
0.194306
0.168023
0.140093
0.121682
0.113671
0.126429
0.180356
0.237754
0.300955
0.295042
0.305115
0.294999
0.18353
0.112722
0.109855
0.142148
0.227944
0.282234
0.296217
0.296997
0.298125
0.34983
0.37002
0.386038
0.376731
0.38817
0.360295
0.269724
0.175324
0.145837
0.139376
0.239537
0.296303
0.295042
0.305041
0.295042
0.297786
0.165572
0.107633
0.112722
0.131184
0.221232
0.302458
0.336318
0.338903
0.37674
0.376731
0.388502
0.376731
0.391333
0.376731
0.387776
0.343414
0.198452
0.164784
0.165638
0.246577
0.294999
0.298041
0.295042
0.300905
0.287087
0.153995
0.112498
0.108094
0.121137
0.193059
0.279972
0.339171
0.378301
0.376731
0.386343
0.376731
0.388935
0.376731
0.388923
0.376731
0.338886
0.193569
0.169818
0.170918
0.240712
0.294151
0.294999
0.300337
0.294999
0.278639
0.149837
0.107439
0.112498
0.111997
0.153226
0.220902
0.289825
0.355883
0.380531
0.376731
0.382247
0.376731
0.386287
0.376731
0.380002
0.309184
0.178813
0.177335
0.173024
0.236854
0.292942
0.296512
0.294999
0.29596
0.265648
0.145383
0.112299
0.108231
0.112498
0.126568
0.162877
0.210796
0.276873
0.330457
0.358854
0.376731
0.37909
0.376731
0.379791
0.362642
0.282331
0.171403
0.185165
0.174336
0.226476
0.29017
0.294941
0.29702
0.294921
0.245592
0.138686
0.107133
0.112299
0.110933
0.113304
0.127409
0.153427
0.193758
0.241138
0.282862
0.323443
0.34916
0.37699
0.376731
0.346976
0.2518
0.16985
0.19633
0.176114
0.210451
0.282395
0.295164
0.294941
0.290748
0.222876
0.129713
0.1121
0.107574
0.112299
0.112105
0.113982
0.122194
0.139287
0.165868
0.192207
0.227409
0.274967
0.347601
0.371032
0.328406
0.217775
0.169567
0.20478
0.177294
0.188194
0.264449
0.291052
0.294618
0.287027
0.212528
0.128532
0.107027
0.112299
0.110106
0.112498
0.11245
0.112922
0.11564
0.122225
0.133489
0.160202
0.223445
0.342844
0.363533
0.304361
0.191915
0.181517
0.20578
0.173261
0.16243
0.236668
0.271349
0.284591
0.282986
0.227651
0.145836
0.112299
0.107363
0.112498
0.111659
0.112697
0.113159
0.114647
0.118118
0.128977
0.160279
0.235015
0.353228
0.36059
0.290122
0.19758
0.206826
0.205884
0.166648
0.150341
0.188368
0.235881
0.261726
0.275235
0.257956
0.198516
0.113878
0.112498
0.109747
0.112697
0.11235
0.112872
0.113778
0.118536
0.129687
0.160261
0.235382
0.352959
0.359207
0.295941
0.207645
0.212055
0.201191
0.16346
0.150486
0.153692
0.186172
0.228683
0.26266
0.262582
0.243544
0.166465
0.110165
0.112697
0.111807
0.113096
0.115561
0.116963
0.119356
0.128642
0.154756
0.223723
0.346003
0.356942
0.289933
0.200453
0.211657
0.193519
0.170971
0.157532
0.158102
0.159596
0.192342
0.239001
0.258521
0.254871
0.211335
0.129764
0.110124
0.112872
0.112417
0.117356
0.131786
0.139298
0.13994
0.158928
0.219574
0.344761
0.345738
0.255794
0.191666
0.213111
0.1842
0.1876
0.203399
0.204473
0.171844
0.176851
0.213435
0.248297
0.248872
0.228081
0.152543
0.112872
0.111079
0.113061
0.123877
0.174824
0.205674
0.164412
0.174085
0.247842
0.331232
0.307076
0.20376
0.191414
0.219826
0.177111
0.196567
0.235554
0.245208
0.198785
0.180589
0.196686
0.228213
0.237508
0.224963
0.173865
0.114426
0.113061
0.11312
0.167048
0.20507
0.205798
0.178346
0.184784
0.245493
0.290664
0.248585
0.20246
0.217609
0.219745
0.171935
0.200167
0.241708
0.245112
0.22924
0.187363
0.187029
0.207177
0.217859
0.212383
0.179996
0.127728
0.111666
0.126491
0.165861
0.191189
0.200692
0.175823
0.179205
0.223999
0.243896
0.227843
0.219845
0.264578
0.219217
0.168657
0.201675
0.239577
0.245208
0.230851
0.191739
0.179281
0.181972
0.187727
0.187849
0.171989
0.139001
0.11617
0.136706
0.158709
0.160289
0.179224
0.167493
0.163882
0.193607
0.21628
0.227128
0.261528
0.264366
0.210727
0.167443
0.202887
0.237717
0.242472
0.21687
0.180994
0.164085
0.154744
0.152064
0.156005
0.15378
0.137667
0.12641
0.147985
0.161446
0.146891
0.147684
0.153241
0.154685
0.173
0.198659
0.22345
0.261822
0.255823
0.200381
0.167179
0.202219
0.234733
0.235478
0.215423
0.169935
0.148769
0.137461
0.132725
0.134082
0.135698
0.136545
0.142484
0.167138
0.171254
0.14777
0.135349
0.13569
0.144625
0.165576
0.187553
0.220215
0.254083
0.23433
0.19504
0.166981
0.198359
0.230488
0.227318
0.223434
0.173466
0.145678
0.133504
0.13229
0.132167
0.133171
0.142501
0.162869
0.179
0.179074
0.158478
0.139285
0.133424
0.1336
0.159586
0.189926
0.22284
0.238911
0.2107
0.194212
0.166773
0.196023
0.22839
0.220005
0.224288
0.193401
0.152323
0.134016
0.131946
0.13229
0.137273
0.15526
0.172434
0.179233
0.179195
0.17478
0.15643
0.13683
0.133424
0.145069
0.192093
0.222824
0.220929
0.199325
0.193295
0.166893
0.194551
0.227632
0.215392
0.215342
0.208727
0.178812
0.141965
0.13229
0.131999
0.140568
0.156104
0.17057
0.176121
0.176613
0.17465
0.168288
0.148742
0.133897
0.144783
0.19415
0.217805
0.204659
0.201219
0.19136
0.174806
0.194061
0.218695
0.214236
0.206718
0.201341
0.190581
0.167618
0.13984
0.132567
0.138555
0.148141
0.154239
0.15863
0.159852
0.161639
0.164674
0.158858
0.137729
0.154706
0.196017
0.206112
0.202253
0.202483
0.187451
0.179172
0.191676
0.206746
0.207334
0.206984
0.205512
0.198671
0.187551
0.168036
0.149721
0.144668
0.148064
0.145101
0.137037
0.128538
0.130869
0.154596
0.161543
0.147219
0.171581
0.19929
0.204875
0.2018
0.197482
0.184562
0.179156
0.189293
0.194854
0.196506
0.201512
0.209768
0.221658
0.242808
0.253585
0.223501
0.183769
0.162048
0.147208
0.12604
0.112324
0.121492
0.158706
0.165784
0.16143
0.194561
0.2135
0.212511
0.199533
0.186595
0.183249
0.179328
0.18919
0.189122
0.189347
0.200319
0.230365
0.292299
0.299148
0.29361
0.298702
0.255248
0.210118
0.160119
0.116383
0.112085
0.131219
0.166824
0.174332
0.190048
0.219059
0.220265
0.215063
0.189774
0.182966
0.18282
0.180807
0.189033
0.189124
0.189092
0.230527
0.28885
0.298366
0.29361
0.298621
0.29361
0.292931
0.218728
0.153096
0.115182
0.115227
0.150783
0.179482
0.195132
0.214622
0.220265
0.213498
0.197017
0.183287
0.183119
0.184944
0.182315
0.189033
0.188868
0.195272
0.254137
0.29372
0.29361
0.297278
0.29361
0.29531
0.286515
0.213559
0.146053
0.12058
0.136632
0.175848
0.19918
0.215119
0.221789
0.211568
0.197383
0.189938
0.184806
0.184348
0.187683
0.183303
0.195232
0.189047
0.1991
0.250369
0.284101
0.294399
0.29361
0.296333
0.29361
0.268557
0.198273
0.150383
0.140653
0.170072
0.200897
0.219656
0.232076
0.237311
0.235034
0.22589
0.216745
0.200768
0.19368
0.190267
0.185663
0.201774
0.189905
0.197
0.233765
0.266544
0.288192
0.294941
0.29361
0.291011
0.244641
0.192518
0.16557
0.168457
0.202687
0.234533
0.268157
0.297404
0.30101
0.308182
0.293888
0.245722
0.217634
0.20864
0.198762
0.189652
0.205406
0.199577
0.195994
0.213837
0.242026
0.267527
0.288938
0.294312
0.290051
0.244184
0.201964
0.19051
0.213347
0.274107
0.299963
0.312137
0.301277
0.312788
0.30101
0.304655
0.252045
0.223045
0.216597
0.205079
0.191687
0.206672
0.203545
0.1959
0.202409
0.222254
0.243667
0.269757
0.286365
0.287467
0.259656
0.235413
0.242619
0.29156
0.301277
0.312459
0.301494
0.312666
0.301277
0.310233
0.30101
0.238861
0.218224
0.216171
0.20513
0.192147
0.205464
0.204868
0.195994
0.199076
0.208099
0.220487
0.236837
0.263703
0.275844
0.274389
0.279712
0.300326
0.301277
0.312238
0.301494
0.312389
0.301494
0.310786
0.301277
0.303708
0.233617
0.215664
0.214523
0.20146
0.192339
0.203878
0.206742
0.205203
0.199357
0.199936
0.204755
0.205425
0.22454
0.247273
0.26612
0.281625
0.30101
0.307307
0.301277
0.311593
0.301494
0.307977
0.301277
0.305
0.294083
0.241769
0.224236
0.219654
0.199751
0.190459
0.20172
0.210622
0.236754
0.202185
0.199583
0.193273
0.187396
0.184512
0.202389
0.232687
0.260926
0.285518
0.299349
0.30502
0.301277
0.305281
0.301277
0.302341
0.30101
0.28546
0.247862
0.242192
0.231638
0.20004
0.188748
0.198755
0.224935
0.266833
0.219874
0.201982
0.190088
0.181436
0.18059
0.180624
0.189804
0.216884
0.249444
0.277306
0.291036
0.298305
0.301277
0.301688
0.300123
0.293749
0.269134
0.252439
0.255098
0.242504
0.201559
0.188344
0.1976
0.247094
0.284348
0.258598
0.210836
0.194711
0.18142
0.180585
0.180556
0.180624
0.191353
0.216301
0.24478
0.268437
0.282999
0.292721
0.293867
0.290426
0.276835
0.257834
0.257107
0.257467
0.245967
0.203989
0.188255
0.198094
0.259061
0.284627
0.282251
0.231186
0.207467
0.186116
0.18052
0.180555
0.184495
0.19254
0.201451
0.219043
0.242343
0.265265
0.281837
0.281095
0.272564
0.258598
0.256729
0.257458
0.257429
0.246452
0.208253
0.188179
0.199031
0.255902
0.282765
0.282565
0.246948
0.209153
0.189919
0.191566
0.196597
0.197441
0.196344
0.202145
0.218748
0.239934
0.257175
0.26941
0.262553
0.2548
0.256551
0.256663
0.257342
0.255802
0.246124
0.212204
0.188054
0.197758
0.24663
0.278343
0.279617
0.244823
0.212044
0.205406
0.215975
0.216524
0.204685
0.201398
0.207581
0.225584
0.243242
0.248458
0.250095
0.244539
0.249833
0.256553
0.256029
0.252765
0.253718
0.248383
0.216885
0.188072
0.197097
0.236915
0.269851
0.276554
0.246794
0.216841
0.212944
0.223888
0.225755
0.212717
0.210112
0.222352
0.240514
0.243173
0.239536
0.231978
0.235871
0.24793
0.25073
0.247943
0.245704
0.25295
0.251013
0.219677
0.194499
0.196352
0.229341
0.258593
0.270255
0.250265
0.221751
0.213031
0.22217
0.225903
0.224565
0.225265
0.237972
0.243016
0.243097
0.239336
0.229634
0.23368
0.244425
0.240334
0.237379
0.243532
0.252985
0.249782
0.218716
0.199598
0.19629
0.224147
0.248461
0.262043
0.252268
0.228077
0.21444
0.217154
0.225238
0.228204
0.232714
0.240949
0.242863
0.243016
0.238367
0.22969
0.233273
0.240159
0.24017
0.237425
0.242576
0.249136
0.244953
0.217776
0.201961
0.194189
0.214117
0.23821
0.254178
0.252168
0.235528
0.217286
0.216964
0.220616
0.226076
0.231047
0.237816
0.239661
0.238766
0.231686
0.227191
0.232052
0.240157
0.240153
0.238296
0.237926
0.235743
0.232792
0.214214
0.202445
0.190072
0.204078
0.226495
0.242626
0.245859
0.241022
0.226475
0.216954
0.216964
0.218127
0.223029
0.226717
0.227557
0.225053
0.218881
0.220811
0.232098
0.240153
0.240129
0.239905
0.233618
0.217909
0.21485
0.207759
0.202443
0.184473
0.203835
0.216255
0.228944
0.22971
0.235208
0.249211
0.24436
0.227448
0.219031
0.21597
0.213931
0.21345
0.212259
0.212323
0.218595
0.231451
0.237796
0.238566
0.239318
0.239159
0.211554
0.201749
0.202462
0.201897
0.172096
0.189665
0.200863
0.221643
0.239191
0.254988
0.254951
0.257574
0.253759
0.23132
0.217198
0.209249
0.207168
0.207023
0.209036
0.215893
0.226619
0.231074
0.233386
0.239159
0.24192
0.214791
0.197231
0.197977
0.198366
0.164322
0.170573
0.184288
0.218929
0.257547
0.254951
0.257558
0.254951
0.256551
0.246141
0.223552
0.208934
0.204451
0.203919
0.204317
0.210327
0.216435
0.220627
0.224727
0.240347
0.238683
0.223054
0.197194
0.195228
0.195181
0.163624
0.167036
0.202596
0.240572
0.254951
0.256261
0.254951
0.256465
0.254951
0.245995
0.220751
0.206944
0.203919
0.203586
0.203234
0.202892
0.203263
0.207151
0.223187
0.238683
0.241615
0.22936
0.201327
0.195173
0.195109
0.163518
0.172683
0.21622
0.247205
0.255004
0.254951
0.25541
0.254951
0.255019
0.246939
0.226971
0.218303
0.219604
0.218436
0.205657
0.196565
0.192351
0.192291
0.220066
0.23972
0.238383
0.232647
0.200452
0.195098
0.194995
0.16346
0.177928
0.219046
0.244379
0.252061
0.252947
0.253964
0.253742
0.254051
0.252612
0.249364
0.254426
0.254951
0.258078
0.247677
0.2149
0.192463
0.185795
0.200409
0.230174
0.238611
0.226249
0.197794
0.199762
0.194845
0.163366
0.175541
0.213776
0.237539
0.245924
0.247921
0.249364
0.248921
0.250931
0.253764
0.255274
0.254951
0.258253
0.254951
0.25836
0.254951
0.209315
0.181437
0.178252
0.198055
0.219836
0.217843
0.19781
0.209948
0.19615
0.178518
0.17535
0.198547
0.217168
0.232992
0.240417
0.244561
0.244347
0.245921
0.249948
0.254066
0.255422
0.254951
0.257383
0.254951
0.25743
0.252517
0.215903
0.173991
0.168609
0.185809
0.204986
0.20005
0.219554
0.200275
0.193845
0.180434
0.186023
0.193557
0.20889
0.222532
0.233959
0.239149
0.241791
0.244776
0.249566
0.25485
0.255375
0.254951
0.255561
0.254951
0.255325
0.251042
0.212675
0.168998
0.168277
0.183856
0.205297
0.233201
0.200228
0.191629
0.17868
0.183883
0.192111
0.20283
0.214315
0.226863
0.240065
0.242927
0.244481
0.248115
0.254578
0.25482
0.254708
0.253755
0.25116
0.252627
0.252649
0.239839
0.196268
0.168613
0.184241
0.226213
0.233597
0.203558
0.168283
0.163404
0.177368
0.196993
0.212703
0.227919
0.247575
0.252858
0.250304
0.250071
0.253326
0.254643
0.254584
0.251866
0.246567
0.245518
0.251672
0.252642
0.249719
0.212578
0.180275
0.208833
0.232934
0.228889
0.212039
0.154132
0.156786
0.196497
0.23291
0.248522
0.252808
0.252858
0.252899
0.252612
0.249483
0.247547
0.243869
0.239841
0.236001
0.232114
0.238471
0.248982
0.25077
0.246204
0.226858
0.22326
0.247433
0.232537
0.218634
0.218388
0.153635
0.157623
0.207114
0.24637
0.257026
0.257119
0.249122
0.243717
0.23817
0.232501
0.227606
0.224593
0.223169
0.224765
0.227437
0.233976
0.239404
0.239679
0.237207
0.238666
0.250456
0.25124
0.233142
0.209212
0.216939
0.153155
0.156156
0.191775
0.237819
0.257387
0.26289
0.254582
0.232503
0.221402
0.215854
0.211811
0.210653
0.211906
0.213774
0.214303
0.21384
0.215266
0.218281
0.223668
0.233844
0.248362
0.251859
0.240047
0.209447
0.2093
0.152694
0.157622
0.167209
0.217322
0.250653
0.263091
0.26289
0.263986
0.227634
0.211172
0.20443
0.200233
0.19808
0.196683
0.195089
0.193365
0.192921
0.192892
0.204045
0.222983
0.24232
0.25124
0.239673
0.207811
0.20237
0.164402
0.161212
0.163701
0.191508
0.228507
0.257199
0.263811
0.26289
0.264216
0.232962
0.220171
0.209552
0.195569
0.192921
0.192669
0.192921
0.192081
0.192921
0.1925
0.206191
0.232783
0.251532
0.232672
0.201596
0.201385
0.185553
0.170771
0.166304
0.166979
0.192542
0.233474
0.260482
0.264185
0.262889
0.263066
0.262669
0.263015
0.214183
0.19341
0.192921
0.192284
0.192921
0.191243
0.192921
0.194866
0.234367
0.250371
0.224668
0.203797
0.201387
0.187195
0.170942
0.171236
0.170241
0.175135
0.202387
0.249363
0.262889
0.263184
0.262888
0.263179
0.262886
0.258703
0.21358
0.192122
0.192921
0.191447
0.192921
0.191389
0.204145
0.231927
0.241472
0.215319
0.217017
0.20117
0.181398
0.172701
0.192319
0.204537
0.197332
0.213186
0.252421
0.260191
0.259509
0.259678
0.262157
0.263584
0.262885
0.23227
0.192921
0.19152
0.192921
0.191071
0.192921
0.217095
0.230753
0.23121
0.214828
0.216848
0.201175
0.172518
0.172528
0.195602
0.236783
0.236609
0.236234
0.247031
0.249495
0.249793
0.2517
0.254634
0.250164
0.241452
0.218001
0.191765
0.192921
0.19068
0.193956
0.216447
0.217359
0.217307
0.199714
0.196555
0.203004
0.182849
0.172518
0.172508
0.172518
0.172507
0.189902
0.226243
0.226553
0.226864
0.228774
0.234427
0.235948
0.225791
0.192921
0.191088
0.192921
0.200067
0.192921
0.197329
0.222779
0.199952
0.183174
0.176601
0.176601
0.176601
0.176601
0.491838
0.567435
0.490636
0.495855
0.486752
0.416392
0.361321
0.35889
0.366139
0.382065
0.413359
0.459425
0.485918
0.47976
0.486212
0.573337
0.363032
0.343232
0.322378
0.306364
0.431893
0.555642
0.496743
0.494023
0.491969
0.978934
0.978445
0.977452
0.970999
0.950167
0.938796
0.937507
0.938854
0.926139
0.932552
0.94646
0.952769
0.958977
0.95358
0.956102
0.944906
0.927697
0.928535
0.923785
0.924224
0.964803
0.979074
0.974362
0.974324
0.973802
0.999997
0.999875
0.999704
0.998883
0.997195
0.998847
0.999388
0.999549
0.999548
0.999578
0.999625
0.999597
0.999525
0.999273
0.998939
0.996853
0.998746
0.999404
0.999582
0.999671
0.999776
0.999165
0.998871
0.999459
0.999623
1
0.999999
0.999992
0.999976
0.999979
0.999992
0.999997
0.999999
1
1
1
1
0.999999
1
0.999998
0.999994
0.999999
0.999999
1
1
1
0.999999
0.999999
0.999997
0.999997
1
1
1
1
1
1
1
1
1
1
1
1
1
1
1
1
1
1
1
1
1
1
1
1
1
1
1
1
1
1
1
1
1
1
1
1
1
1
1
1
1
1
1
1
1
1
1
1
1
1
1
1
1
1
1
1
1
1
1
1
1
1
1
1
1
1
1
1
1
1
1
1
1
1
1
1
1
1
1
1
1
1
1
1
1
1
1
1
1
1
1
1
1
1
1
1
1
1
1
1
)
;

boundaryField
{
    inlet
    {
        type            fixedValue;
        value           uniform 0.5;
    }
    outlet
    {
        type            inletOutlet;
        phi             phi.air;
        inletValue      uniform 1;
        value           nonuniform List<scalar> 
25
(
1
1
1
1
1
1
1
1
1
1
1
1
1
1
1
1
1
1
1
1
1
1
1
1
1
)
;
    }
    walls
    {
        type            zeroGradient;
    }
    defaultFaces
    {
        type            empty;
    }
}


// ************************************************************************* //
