/*--------------------------------*- C++ -*----------------------------------*\
| =========                 |                                                 |
| \\      /  F ield         | OpenFOAM: The Open Source CFD Toolbox           |
|  \\    /   O peration     | Version:  2.3.0                                 |
|   \\  /    A nd           | Web:      www.OpenFOAM.org                      |
|    \\/     M anipulation  |                                                 |
\*---------------------------------------------------------------------------*/
FoamFile
{
    version     2.0;
    format      ascii;
    class       volScalarField;
    location    "9";
    object      epsilon.water;
}
// * * * * * * * * * * * * * * * * * * * * * * * * * * * * * * * * * * * * * //

dimensions      [0 2 -3 0 0 0 0];

internalField   nonuniform List<scalar> 
1875
(
0.527706
0.445511
0.42633
0.387033
0.372337
0.432097
0.432472
0.296074
0.192779
0.21939
0.361179
0.524307
0.583624
0.582301
0.432488
0.362161
0.326306
0.317839
0.342504
0.391295
0.442369
0.482416
0.492989
0.473875
0.698248
0.593688
0.651673
0.636968
0.618076
0.553734
0.591779
0.730841
0.726647
0.402643
0.407681
0.638594
0.690933
0.622314
0.463827
0.395855
0.377672
0.43971
0.542319
0.682337
0.745715
0.815346
0.770981
0.735027
0.742906
0.756874
0.456383
0.272331
0.307606
0.348357
0.423275
0.489824
0.588634
0.493377
0.307863
0.328884
0.465431
0.546548
0.518369
0.456952
0.443474
0.455481
0.507864
0.576403
0.586526
0.613853
0.639771
0.585045
0.370822
0.283962
0.716158
0.445148
0.237324
0.265439
0.282163
0.331601
0.38329
0.408558
0.337066
0.238253
0.251589
0.302736
0.400286
0.428816
0.439126
0.428587
0.471094
0.542666
0.570807
0.619441
0.638179
0.634676
0.5788
0.311251
0.199383
0.720806
0.393492
0.229086
0.258735
0.275771
0.307038
0.332179
0.33225
0.226855
0.169252
0.174186
0.200341
0.270787
0.296261
0.333486
0.389855
0.448549
0.520788
0.54983
0.533707
0.490199
0.452914
0.407877
0.216183
0.180843
0.753908
0.405904
0.226339
0.253426
0.266355
0.290899
0.31264
0.283411
0.186767
0.146519
0.150099
0.14802
0.182681
0.21446
0.226565
0.273937
0.329253
0.348064
0.356343
0.35455
0.357843
0.348532
0.311595
0.172514
0.209271
0.712267
0.348515
0.217721
0.249071
0.259776
0.271002
0.277744
0.262174
0.179371
0.151448
0.144723
0.141785
0.156821
0.189496
0.205369
0.244593
0.26641
0.280223
0.309795
0.334495
0.365239
0.373311
0.315089
0.178122
0.272855
0.768226
0.363079
0.210856
0.247273
0.262856
0.271902
0.278391
0.253392
0.186619
0.162905
0.167562
0.159729
0.162861
0.17928
0.20193
0.233955
0.280125
0.309289
0.35042
0.385615
0.471756
0.490468
0.365972
0.242998
0.380013
0.741507
0.383425
0.213191
0.241853
0.262125
0.276702
0.295192
0.267944
0.196794
0.190861
0.193194
0.19093
0.185249
0.187304
0.19733
0.217661
0.252109
0.267542
0.308513
0.353162
0.496977
0.629398
0.424703
0.381062
0.428244
0.7226
0.374966
0.227719
0.243327
0.262922
0.276527
0.309697
0.296173
0.225769
0.21063
0.223055
0.21831
0.212326
0.205525
0.202687
0.206551
0.212906
0.227215
0.265343
0.320229
0.533065
0.669549
0.442144
0.526713
0.409214
0.673045
0.403928
0.250667
0.267138
0.28312
0.299796
0.325931
0.318397
0.249147
0.206918
0.211959
0.215113
0.209535
0.204665
0.203075
0.199065
0.200881
0.212808
0.238824
0.294251
0.545616
0.658975
0.439407
0.500748
0.394898
0.655432
0.475271
0.284998
0.338503
0.331376
0.355374
0.367066
0.352802
0.28816
0.184483
0.187428
0.194919
0.202442
0.205638
0.205636
0.202687
0.200633
0.200814
0.231108
0.297095
0.534551
0.641991
0.431156
0.441794
0.431925
0.653747
0.454055
0.356411
0.427546
0.392074
0.400306
0.410094
0.399081
0.364628
0.245233
0.179734
0.187843
0.208652
0.232329
0.246444
0.25569
0.250887
0.24163
0.247122
0.310893
0.560724
0.596424
0.432034
0.451089
0.528844
0.637099
0.462584
0.431891
0.410604
0.414926
0.418588
0.445429
0.421055
0.381403
0.304335
0.212957
0.203286
0.2225
0.230248
0.242032
0.263321
0.28656
0.269959
0.271921
0.324003
0.556247
0.551049
0.471122
0.50576
0.644969
0.683606
0.387416
0.392389
0.399927
0.427738
0.40462
0.411635
0.402537
0.376321
0.331404
0.241858
0.220496
0.205224
0.193558
0.220131
0.22713
0.232933
0.230826
0.250689
0.325201
0.488079
0.503147
0.553234
0.577112
0.67653
0.610542
0.388795
0.304112
0.34194
0.338567
0.3575
0.357876
0.361088
0.354574
0.327983
0.255872
0.176997
0.1536
0.167052
0.205554
0.237818
0.229788
0.220969
0.2295
0.314579
0.436034
0.505354
0.541518
0.570909
0.638311
0.613091
0.372676
0.247947
0.262826
0.260288
0.297957
0.310309
0.316722
0.312914
0.305557
0.257774
0.182539
0.159059
0.147296
0.201096
0.247488
0.263973
0.226105
0.231365
0.302694
0.385293
0.463549
0.482267
0.503382
0.576793
0.616292
0.356149
0.23449
0.220869
0.216011
0.246096
0.263937
0.268181
0.26934
0.262704
0.245545
0.205979
0.175851
0.186687
0.188651
0.199493
0.270686
0.245322
0.236558
0.262911
0.315585
0.375265
0.405507
0.43589
0.555632
0.626188
0.370712
0.25378
0.233272
0.231354
0.229777
0.237987
0.238921
0.23919
0.242109
0.239064
0.220941
0.20128
0.219394
0.223423
0.205466
0.225455
0.279499
0.26677
0.258263
0.272595
0.302628
0.343532
0.420674
0.598925
0.570343
0.363827
0.292226
0.273853
0.26752
0.240433
0.231925
0.228752
0.229386
0.233157
0.232695
0.229715
0.2346
0.255127
0.252863
0.219964
0.205011
0.231542
0.270826
0.280489
0.278992
0.292391
0.344799
0.458501
0.638387
0.571227
0.378459
0.313986
0.295346
0.298949
0.252791
0.234022
0.223585
0.222405
0.223809
0.226313
0.236426
0.25982
0.274883
0.274371
0.249125
0.217667
0.214841
0.236653
0.277302
0.277304
0.297639
0.375528
0.497597
0.597416
0.566984
0.400333
0.348418
0.306823
0.319936
0.292888
0.251697
0.227948
0.22477
0.227583
0.235472
0.255708
0.275432
0.28944
0.295493
0.288038
0.263302
0.222203
0.222727
0.260664
0.280995
0.317429
0.428858
0.514294
0.48964
0.523186
0.375554
0.384801
0.324947
0.333341
0.326098
0.298445
0.253253
0.233667
0.236146
0.250913
0.27274
0.288655
0.299088
0.309232
0.308098
0.296209
0.274226
0.240625
0.248854
0.29036
0.368811
0.496676
0.546959
0.408393
0.526119
0.375277
0.44134
0.40339
0.375556
0.375893
0.366994
0.343377
0.293098
0.260224
0.254401
0.260345
0.266681
0.272023
0.273543
0.277184
0.291984
0.286406
0.240926
0.26321
0.350255
0.504182
0.575367
0.533319
0.37381
0.472988
0.353456
0.478781
0.508034
0.509072
0.517819
0.502622
0.471104
0.432568
0.379361
0.32497
0.288483
0.266919
0.247628
0.233605
0.238667
0.278694
0.271677
0.264477
0.334089
0.49434
0.574471
0.568381
0.420171
0.357224
0.496425
0.347261
0.450083
0.493905
0.526011
0.53531
0.548037
0.561276
0.550553
0.508438
0.438438
0.367677
0.302269
0.247513
0.218593
0.243816
0.279878
0.288023
0.328317
0.466215
0.562513
0.581434
0.46628
0.364423
0.349147
0.435721
0.336641
0.303534
0.30713
0.327943
0.363902
0.434579
0.466176
0.490286
0.484361
0.452069
0.38999
0.320699
0.242166
0.225835
0.269077
0.300352
0.331339
0.436029
0.543841
0.580625
0.530693
0.39229
0.352303
0.35714
0.467192
0.311078
0.22895
0.226913
0.251011
0.276383
0.2941
0.307847
0.334604
0.368002
0.386655
0.346974
0.297761
0.240684
0.248735
0.300109
0.334438
0.420831
0.53448
0.581691
0.561618
0.441285
0.392263
0.383675
0.378245
0.388289
0.309357
0.202292
0.200437
0.232972
0.256023
0.266944
0.284316
0.292507
0.321583
0.349231
0.337477
0.272036
0.247351
0.28408
0.34388
0.415397
0.531684
0.587377
0.591423
0.503613
0.455711
0.415601
0.395478
0.384994
0.410088
0.333433
0.196707
0.191047
0.224129
0.250148
0.262831
0.277849
0.304144
0.326496
0.330628
0.298593
0.256174
0.272549
0.346254
0.424515
0.534913
0.588133
0.587907
0.535317
0.488049
0.442045
0.38554
0.362717
0.3559
0.413788
0.314865
0.195385
0.186872
0.208133
0.226982
0.248257
0.267492
0.294152
0.306045
0.285451
0.259299
0.26876
0.329843
0.40914
0.50139
0.551236
0.556574
0.501871
0.465485
0.425164
0.365632
0.330798
0.327754
0.327751
0.373146
0.338058
0.211097
0.190536
0.198377
0.20588
0.20812
0.222729
0.237167
0.24994
0.252438
0.263415
0.308228
0.38439
0.455637
0.508961
0.524733
0.472525
0.45355
0.419286
0.376539
0.319243
0.297238
0.303232
0.307177
0.370748
0.321544
0.23075
0.205595
0.200667
0.206208
0.203039
0.210691
0.220067
0.229773
0.254237
0.292259
0.351902
0.399658
0.46015
0.492494
0.468535
0.432
0.406522
0.364482
0.327984
0.267239
0.253048
0.261616
0.262035
0.372092
0.323788
0.254921
0.232365
0.218958
0.225573
0.221228
0.22028
0.236443
0.238651
0.260575
0.303079
0.348208
0.387029
0.428077
0.423719
0.374379
0.33554
0.30595
0.277744
0.257943
0.22183
0.216349
0.219488
0.21293
0.326141
0.326644
0.282059
0.288263
0.240068
0.243736
0.251912
0.247972
0.257502
0.274579
0.278915
0.297828
0.319549
0.340012
0.344577
0.326236
0.282086
0.250322
0.230236
0.225169
0.221953
0.203836
0.200292
0.199213
0.182422
0.326021
0.321296
0.300386
0.347941
0.267419
0.265891
0.275604
0.283839
0.281967
0.292567
0.305246
0.309405
0.312399
0.307727
0.293147
0.275342
0.253274
0.232512
0.219021
0.217537
0.217003
0.204499
0.198828
0.194245
0.173473
0.286463
0.292213
0.293979
0.363759
0.30369
0.272001
0.280961
0.298114
0.313837
0.309758
0.304301
0.308032
0.31027
0.307308
0.300143
0.283825
0.263827
0.243878
0.23368
0.238816
0.23936
0.2295
0.218493
0.205251
0.175656
0.302585
0.291149
0.258777
0.322988
0.326023
0.283681
0.276528
0.280636
0.283616
0.298078
0.290299
0.289617
0.296696
0.303039
0.300723
0.290177
0.271664
0.262024
0.268141
0.272801
0.268827
0.256708
0.242958
0.226879
0.196937
0.277628
0.27783
0.233775
0.297015
0.32888
0.302951
0.282073
0.261814
0.259806
0.259872
0.266409
0.272299
0.279125
0.284227
0.286479
0.287549
0.290045
0.300664
0.301793
0.298822
0.294845
0.278603
0.262992
0.251006
0.221192
0.286331
0.285918
0.255034
0.29518
0.304319
0.298424
0.267442
0.229759
0.219446
0.233134
0.248655
0.255101
0.260939
0.275392
0.288883
0.298219
0.315453
0.314776
0.311536
0.31976
0.301862
0.283783
0.272262
0.263885
0.235404
0.307811
0.315701
0.27105
0.294581
0.30018
0.286373
0.247073
0.227721
0.233508
0.249208
0.254331
0.25832
0.269084
0.288255
0.314139
0.329166
0.332638
0.324228
0.324288
0.316064
0.302099
0.283735
0.277689
0.272772
0.248077
0.296611
0.3076
0.282484
0.292922
0.297089
0.282841
0.249941
0.242919
0.256879
0.267934
0.270513
0.278617
0.294863
0.31299
0.328589
0.335915
0.329685
0.321143
0.319726
0.312258
0.303057
0.293442
0.295348
0.292981
0.270127
0.317203
0.316296
0.285176
0.302863
0.297759
0.283741
0.267677
0.264399
0.27444
0.277495
0.27916
0.285539
0.299405
0.311368
0.313776
0.313685
0.304175
0.308273
0.314631
0.310067
0.296984
0.29738
0.302742
0.302947
0.277047
0.303444
0.310734
0.28646
0.325094
0.302601
0.291911
0.281688
0.278596
0.281434
0.286376
0.288351
0.291185
0.298422
0.300359
0.299693
0.290619
0.287903
0.296385
0.300098
0.297649
0.295867
0.299314
0.303343
0.303392
0.278607
0.30748
0.31545
0.275274
0.325267
0.315406
0.301879
0.287765
0.283599
0.295945
0.297273
0.294763
0.294574
0.297858
0.298292
0.294861
0.290352
0.28395
0.287777
0.29933
0.299151
0.29601
0.29675
0.295423
0.296554
0.275428
0.312623
0.297893
0.294612
0.312077
0.345532
0.331686
0.313087
0.294892
0.290317
0.300427
0.302957
0.304902
0.301729
0.297745
0.294005
0.289562
0.288212
0.298974
0.309734
0.304166
0.29469
0.285822
0.274385
0.274425
0.26467
0.290371
0.287489
0.37332
0.369491
0.40094
0.392211
0.368439
0.352595
0.330811
0.305208
0.296076
0.294231
0.294143
0.292146
0.288064
0.283372
0.290638
0.304526
0.303108
0.297722
0.292349
0.284104
0.264176
0.258296
0.260461
0.300935
0.268363
0.332932
0.361812
0.376185
0.388353
0.393347
0.380089
0.365873
0.341355
0.311578
0.286819
0.277366
0.278172
0.279543
0.281729
0.29011
0.294875
0.293993
0.297235
0.297939
0.294036
0.272329
0.257102
0.256746
0.290983
0.269618
0.240925
0.256394
0.292693
0.330326
0.340743
0.348311
0.346405
0.336299
0.321768
0.301901
0.285491
0.282744
0.282198
0.281696
0.287411
0.296974
0.313319
0.313435
0.314956
0.309113
0.288646
0.257579
0.251402
0.301212
0.246836
0.193851
0.219413
0.250264
0.272696
0.284725
0.293327
0.305715
0.321363
0.320644
0.307922
0.301912
0.301659
0.312712
0.331118
0.351155
0.368351
0.372139
0.396534
0.373156
0.343606
0.309906
0.269917
0.257063
0.302519
0.267819
0.198824
0.220968
0.247147
0.265582
0.276531
0.286209
0.300562
0.321367
0.331267
0.331925
0.342363
0.355597
0.366613
0.365694
0.352797
0.346361
0.333568
0.361082
0.365945
0.343164
0.307175
0.275841
0.288284
0.308753
0.260505
0.226721
0.246637
0.264477
0.270453
0.283909
0.296274
0.309023
0.326098
0.341121
0.349414
0.359796
0.373253
0.380381
0.373825
0.335664
0.298122
0.279471
0.282135
0.316108
0.284329
0.291242
0.27714
0.289887
0.300746
0.264175
0.239216
0.276067
0.283761
0.282682
0.286927
0.29606
0.306491
0.312957
0.318746
0.327164
0.326236
0.319969
0.317697
0.30593
0.292572
0.255525
0.232916
0.236022
0.269525
0.313233
0.288434
0.266496
0.275491
0.299413
0.28395
0.266608
0.316126
0.334537
0.323659
0.327427
0.321199
0.321157
0.322301
0.320765
0.317369
0.309334
0.296095
0.280642
0.267381
0.267126
0.266245
0.244167
0.209374
0.225065
0.287905
0.278544
0.262463
0.275355
0.29533
0.28109
0.314133
0.347029
0.369562
0.397979
0.390577
0.373189
0.362291
0.35169
0.341102
0.324624
0.309017
0.297353
0.283769
0.27518
0.267687
0.267128
0.261317
0.241911
0.20582
0.226291
0.280394
0.273736
0.275954
0.309308
0.230732
0.31706
0.317545
0.329921
0.357241
0.381842
0.409629
0.401098
0.37829
0.36052
0.350799
0.342868
0.320257
0.300743
0.294732
0.292814
0.297414
0.304889
0.299154
0.265685
0.239133
0.278092
0.278152
0.304819
0.307427
0.221043
0.215693
0.22202
0.252379
0.284549
0.306834
0.328415
0.338827
0.341824
0.339948
0.332016
0.320948
0.31548
0.306389
0.302765
0.309287
0.314052
0.326693
0.332504
0.297625
0.224218
0.245589
0.318141
0.338872
0.310138
0.207162
0.155953
0.187535
0.222142
0.243599
0.255009
0.268457
0.287307
0.309035
0.323637
0.329142
0.33661
0.343733
0.341349
0.329174
0.314613
0.307252
0.290419
0.272
0.24136
0.265925
0.308954
0.333551
0.35328
0.305792
0.216344
0.180588
0.209522
0.246588
0.269408
0.293233
0.318403
0.324578
0.321351
0.316851
0.323871
0.325983
0.319984
0.319639
0.314246
0.308732
0.298848
0.277457
0.271742
0.272122
0.308387
0.338696
0.352866
0.291069
0.299162
0.275315
0.2317
0.257723
0.267824
0.284932
0.306257
0.321077
0.335616
0.341092
0.339214
0.336994
0.336041
0.331865
0.330353
0.333552
0.337645
0.337411
0.331991
0.331593
0.31808
0.322691
0.307888
0.293921
0.262758
0.307021
0.295004
0.265574
0.284707
0.312317
0.306386
0.307555
0.316397
0.339687
0.34392
0.34079
0.347143
0.346797
0.344126
0.336959
0.323215
0.33372
0.353263
0.373813
0.349697
0.384481
0.358776
0.341202
0.301123
0.249452
0.326415
0.297874
0.272134
0.290316
0.319808
0.329855
0.327782
0.311799
0.294208
0.299564
0.299531
0.301598
0.32817
0.334395
0.330914
0.321889
0.311494
0.331038
0.348526
0.333887
0.333762
0.350266
0.338357
0.297823
0.295639
0.390608
0.304698
0.261424
0.285814
0.330509
0.371709
0.34024
0.340154
0.314145
0.269178
0.264373
0.267149
0.270298
0.28407
0.297054
0.29817
0.291664
0.293005
0.310918
0.318236
0.310553
0.324173
0.331543
0.320288
0.332026
0.607402
0.402136
0.338104
0.321907
0.316874
0.334748
0.370133
0.351629
0.329284
0.297573
0.282023
0.276024
0.286
0.27541
0.262508
0.259086
0.265994
0.259969
0.261999
0.250358
0.287196
0.301359
0.331429
0.311319
0.316224
0.896573
0.570501
0.337281
0.366465
0.347938
0.314176
0.312299
0.316769
0.303133
0.296506
0.293327
0.288244
0.283335
0.278874
0.262199
0.243455
0.25848
0.262696
0.256486
0.243302
0.234545
0.301125
0.317288
0.310395
0.294304
0.927074
0.782877
0.13964
0.156026
0.18979
0.214699
0.253956
0.284589
0.295114
0.303457
0.296419
0.29214
0.298604
0.27113
0.228713
0.215696
0.248251
0.271116
0.271445
0.348878
0.32238
0.334221
0.314289
0.281905
0.278248
1.3937
2.58409
1.20888
1.12842
1.5925
1.00629
0.397375
0.334155
0.336728
0.353877
0.37317
0.42475
0.565724
1.06724
0.815619
1.03878
1.16955
0.17942
0.137571
0.139616
0.203774
0.356071
1.86859
2.73829
1.99596
2.06929
3.92974
1.42039
3.07359
2.38648
1.53718
1.09548
1.56296
1.84189
1.24543
1.31734
1.60035
1.72817
1.96536
1.82789
1.8338
0.488734
1.10481
1.31073
1.40076
1.34186
1.96948
1.17146
2.81465
2.97927
2.69799
0.115426
0.126478
0.122409
0.101661
0.0512979
0.0353052
0.0371697
0.0407604
0.0274837
0.0309073
0.041237
0.0583377
0.0882211
0.0721079
0.0946005
0.0741005
0.0460542
0.0383213
0.0290356
0.0208404
0.0418263
0.0783972
0.0713161
0.0702455
0.533637
0.00258467
0.00225579
0.00355814
0.00668413
0.00512627
0.0073435
0.00602444
0.00532232
0.0155123
0.00845138
0.00406854
0.00398656
0.00481107
0.00657746
0.00657332
0.00445956
0.00722013
0.0173037
0.0158385
0.0066981
0.00445808
0.00596069
0.00489887
0.00452668
0.460073
1.96141e-05
2.27955e-05
0.000193624
0.000397375
0.000315985
0.00013231
6.52e-05
1.67594e-05
1.10772e-05
5.42184e-05
0.000116545
0.000132566
0.000148703
9.95391e-05
8.20495e-05
5.68847e-05
3.3152e-05
0.000110762
9.73372e-07
5.54622e-07
1.02978e-06
2.68057e-05
1.46802e-05
4.81193e-05
0.273273
2.96469e-05
6.00118e-06
1.74981e-06
4.03619e-07
1.1369e-07
2.11323e-07
1.82071e-06
4.68348e-06
1.24652e-05
2.3565e-05
2.63723e-05
2.74865e-05
3.228e-05
3.45e-05
3.66802e-05
3.75043e-05
3.78565e-05
3.59759e-05
3.3172e-05
2.59846e-05
1.28422e-05
1.10317e-05
1.47552e-05
0.022822
0.132331
3.6084e-05
8.95641e-07
8.00912e-06
4.886e-06
1.34762e-06
9.00977e-07
1.96101e-06
5.45147e-06
1.33163e-05
2.08291e-05
2.37566e-05
2.94647e-05
3.74733e-05
4.63231e-05
5.35004e-05
5.78334e-05
5.96753e-05
5.88308e-05
5.59498e-05
5.06997e-05
4.13232e-05
1.9032e-05
1.79513e-05
0.01131
0.0655798
3.0282e-05
1.25745e-06
1.04956e-05
8.56866e-06
4.64238e-06
3.6361e-06
4.11581e-06
7.62753e-06
1.46487e-05
2.13636e-05
2.77066e-05
3.90583e-05
5.19154e-05
6.34603e-05
7.231e-05
7.85584e-05
8.20604e-05
8.2788e-05
8.09611e-05
7.35411e-05
5.28558e-05
2.92753e-05
2.69654e-05
0.00459994
0.0266526
4.23565e-05
1.58181e-06
1.45852e-05
1.53376e-05
1.47305e-05
1.44175e-05
1.47301e-05
1.71644e-05
2.14879e-05
2.56757e-05
3.21998e-05
5.4567e-05
8.20806e-05
9.97439e-05
0.000109598
0.000114909
0.000117957
0.000119311
0.000118248
0.000110559
6.03804e-05
2.88181e-05
2.41558e-05
2.30986e-07
0.0168748
)
;

boundaryField
{
    inlet
    {
        type            fixedValue;
        value           uniform 0.00015;
    }
    outlet
    {
        type            inletOutlet;
        phi             phi.water;
        inletValue      uniform 0.00015;
        value           nonuniform List<scalar> 
25
(
4.23565e-05
1.58181e-06
1.45852e-05
1.53376e-05
1.47305e-05
1.44175e-05
1.47301e-05
1.71644e-05
2.14879e-05
2.56757e-05
3.21998e-05
0.00015
0.00015
0.00015
0.00015
0.00015
0.00015
0.00015
0.00015
0.00015
0.00015
2.88181e-05
2.41558e-05
2.30986e-07
0.0168748
)
;
    }
    walls
    {
        type            epsilonWallFunction;
        value           nonuniform List<scalar> 
150
(
4.70917e-20
0.0704834
4.22451e-21
4.22451e-21
4.22451e-21
4.22451e-21
4.22451e-21
4.22451e-21
4.22451e-21
4.22451e-21
4.22451e-21
4.22451e-21
4.22451e-21
5.89202e-21
1.24672e-19
1.48613e-20
4.22451e-21
4.22451e-21
4.22451e-21
4.22451e-21
4.22451e-21
4.22451e-21
4.22451e-21
4.22451e-21
5.58787e-20
1.44534e-18
3.31414e-20
4.22451e-21
4.22451e-21
4.22451e-21
4.22451e-21
4.22451e-21
4.22451e-21
4.22451e-21
4.22451e-21
4.22451e-21
4.89436e-21
4.22451e-21
4.22451e-21
4.22451e-21
4.22451e-21
4.22451e-21
4.22451e-21
4.22451e-21
4.22451e-21
4.22451e-21
2.56318e-20
2.15181e-17
4.22451e-21
4.22451e-21
4.22451e-21
4.22451e-21
4.22451e-21
4.22451e-21
1.4407e-20
4.47859e-11
1.59471e-09
4.22451e-21
4.22451e-21
4.22451e-21
4.22451e-21
4.22451e-21
3.78579e-18
3.83344e-19
8.3391e-14
4.22451e-21
4.22451e-21
3.35537
6.57558e-16
4.22451e-21
4.22451e-21
4.22451e-21
4.22451e-21
4.18017e-19
4.22451e-21
4.22451e-21
0.00830892
4.22451e-21
4.22451e-21
4.22451e-21
4.22451e-21
4.22451e-21
4.22451e-21
4.22451e-21
4.22451e-21
4.22451e-21
4.22451e-21
4.22451e-21
4.22451e-21
4.22451e-21
4.22451e-21
4.22451e-21
4.22451e-21
4.22451e-21
4.22451e-21
4.22451e-21
4.22451e-21
4.22451e-21
4.22451e-21
4.22451e-21
4.22451e-21
4.22451e-21
4.22451e-21
4.22451e-21
4.22451e-21
4.22451e-21
4.22451e-21
4.22451e-21
4.22451e-21
4.22451e-21
4.22451e-21
4.22451e-21
4.22451e-21
4.22451e-21
4.22451e-21
4.22451e-21
4.22451e-21
4.22451e-21
4.22451e-21
4.22451e-21
4.22451e-21
4.22451e-21
4.22451e-21
4.22451e-21
4.22451e-21
4.22451e-21
4.22451e-21
4.22451e-21
4.22451e-21
4.22451e-21
4.22451e-21
4.22451e-21
4.22451e-21
4.22451e-21
4.22451e-21
4.22451e-21
4.22451e-21
4.22451e-21
4.22451e-21
4.22451e-21
4.22451e-21
5.25213e-21
1.78908e-20
4.22451e-21
4.22451e-21
4.22451e-21
4.22451e-21
4.22451e-21
4.22451e-21
4.22451e-21
)
;
        Cmu             0.09;
        kappa           0.41;
        E               9.8;
        value           nonuniform List<scalar> 
150
(
4.70917e-20
0.0704834
4.22451e-21
4.22451e-21
4.22451e-21
4.22451e-21
4.22451e-21
4.22451e-21
4.22451e-21
4.22451e-21
4.22451e-21
4.22451e-21
4.22451e-21
5.89202e-21
1.24672e-19
1.48613e-20
4.22451e-21
4.22451e-21
4.22451e-21
4.22451e-21
4.22451e-21
4.22451e-21
4.22451e-21
4.22451e-21
5.58787e-20
1.44534e-18
3.31414e-20
4.22451e-21
4.22451e-21
4.22451e-21
4.22451e-21
4.22451e-21
4.22451e-21
4.22451e-21
4.22451e-21
4.22451e-21
4.89436e-21
4.22451e-21
4.22451e-21
4.22451e-21
4.22451e-21
4.22451e-21
4.22451e-21
4.22451e-21
4.22451e-21
4.22451e-21
2.56318e-20
2.15181e-17
4.22451e-21
4.22451e-21
4.22451e-21
4.22451e-21
4.22451e-21
4.22451e-21
1.4407e-20
4.47859e-11
1.59471e-09
4.22451e-21
4.22451e-21
4.22451e-21
4.22451e-21
4.22451e-21
3.78579e-18
3.83344e-19
8.3391e-14
4.22451e-21
4.22451e-21
3.35537
6.57558e-16
4.22451e-21
4.22451e-21
4.22451e-21
4.22451e-21
4.18017e-19
4.22451e-21
4.22451e-21
0.00830892
4.22451e-21
4.22451e-21
4.22451e-21
4.22451e-21
4.22451e-21
4.22451e-21
4.22451e-21
4.22451e-21
4.22451e-21
4.22451e-21
4.22451e-21
4.22451e-21
4.22451e-21
4.22451e-21
4.22451e-21
4.22451e-21
4.22451e-21
4.22451e-21
4.22451e-21
4.22451e-21
4.22451e-21
4.22451e-21
4.22451e-21
4.22451e-21
4.22451e-21
4.22451e-21
4.22451e-21
4.22451e-21
4.22451e-21
4.22451e-21
4.22451e-21
4.22451e-21
4.22451e-21
4.22451e-21
4.22451e-21
4.22451e-21
4.22451e-21
4.22451e-21
4.22451e-21
4.22451e-21
4.22451e-21
4.22451e-21
4.22451e-21
4.22451e-21
4.22451e-21
4.22451e-21
4.22451e-21
4.22451e-21
4.22451e-21
4.22451e-21
4.22451e-21
4.22451e-21
4.22451e-21
4.22451e-21
4.22451e-21
4.22451e-21
4.22451e-21
4.22451e-21
4.22451e-21
4.22451e-21
4.22451e-21
4.22451e-21
4.22451e-21
4.22451e-21
5.25213e-21
1.78908e-20
4.22451e-21
4.22451e-21
4.22451e-21
4.22451e-21
4.22451e-21
4.22451e-21
4.22451e-21
)
;
    }
    defaultFaces
    {
        type            empty;
    }
}


// ************************************************************************* //
