/*--------------------------------*- C++ -*----------------------------------*\
| =========                 |                                                 |
| \\      /  F ield         | OpenFOAM: The Open Source CFD Toolbox           |
|  \\    /   O peration     | Version:  2.3.0                                 |
|   \\  /    A nd           | Web:      www.OpenFOAM.org                      |
|    \\/     M anipulation  |                                                 |
\*---------------------------------------------------------------------------*/
FoamFile
{
    version     2.0;
    format      ascii;
    class       volScalarField;
    location    "1.57";
    object      k.air;
}
// * * * * * * * * * * * * * * * * * * * * * * * * * * * * * * * * * * * * * //

dimensions      [0 2 -2 0 0 0 0];

internalField   nonuniform List<scalar> 
6000
(
0.820594
0.899425
0.930285
0.957538
0.984197
1.0141
1.04386
1.06996
1.07644
1.05113
1.06006
1.10648
1.12833
1.10586
1.07221
1.04651
1.02169
0.998643
0.977259
0.965555
0.962564
0.967496
0.978083
0.99432
1.00858
1.01507
1.02275
1.02471
0.984461
0.811499
0.545127
0.818543
0.942082
1.02075
1.08555
1.15143
1.23047
1.33446
1.39906
1.38891
1.39639
1.44705
1.41335
1.29922
1.20218
1.14688
1.10365
1.06709
1.04006
1.02555
1.02413
1.03448
1.04476
1.05835
1.07217
1.08312
1.10888
1.16058
1.14528
0.776241
0.371002
0.692985
0.876728
0.977643
1.06097
1.14562
1.23928
1.33405
1.39388
1.45449
1.45762
1.45144
1.39214
1.31099
1.25394
1.21123
1.16473
1.12414
1.09408
1.07663
1.07395
1.08442
1.10034
1.10125
1.09426
1.0939
1.10287
1.13007
1.11349
0.724168
0.28321
0.597326
0.805029
0.938065
1.04259
1.14196
1.24501
1.34019
1.4048
1.48514
1.52246
1.47997
1.41374
1.3591
1.32376
1.29465
1.25885
1.23114
1.20945
1.19117
1.18159
1.18159
1.18249
1.16731
1.14028
1.11707
1.10881
1.13584
1.06853
0.633513
0.267339
0.592019
0.783251
0.933201
1.05962
1.16653
1.2692
1.36076
1.42064
1.47463
1.51261
1.48053
1.45102
1.44141
1.43887
1.4219
1.4028
1.3881
1.37718
1.3673
1.35678
1.34326
1.32517
1.28406
1.22687
1.17009
1.14128
1.15736
0.982019
0.550699
0.277585
0.617581
0.812263
0.95652
1.0989
1.22533
1.32997
1.41294
1.45663
1.48448
1.49977
1.49615
1.50945
1.52881
1.55929
1.55824
1.54406
1.54189
1.54599
1.55595
1.5667
1.55936
1.52431
1.44996
1.3479
1.25027
1.20239
1.14416
0.899727
0.492266
0.307836
0.669687
0.871161
1.02171
1.16224
1.29719
1.4099
1.50475
1.52519
1.52577
1.52722
1.54243
1.58089
1.62256
1.65825
1.66548
1.65339
1.66665
1.68649
1.71443
1.75401
1.79224
1.80431
1.68543
1.51345
1.35541
1.26287
1.08993
0.825112
0.4438
0.336757
0.737254
0.949471
1.10346
1.24468
1.37672
1.49255
1.60248
1.625
1.60399
1.59319
1.61015
1.65517
1.70642
1.74709
1.75455
1.75176
1.77278
1.80522
1.85624
1.93745
2.05152
2.22155
2.02697
1.7343
1.47187
1.27831
1.03648
0.753649
0.393668
0.390052
0.828238
1.04263
1.19267
1.32853
1.45697
1.57415
1.69131
1.74387
1.7098
1.68593
1.6951
1.73524
1.78284
1.81748
1.83288
1.84457
1.87466
1.924
2.00653
2.14625
2.37541
2.74017
2.43608
1.98425
1.59159
1.28966
1.02124
0.715677
0.35348
0.448815
0.908572
1.11876
1.27336
1.40161
1.52658
1.64824
1.77135
1.86846
1.8373
1.80336
1.80183
1.82894
1.86482
1.89451
1.91932
1.94161
1.98533
2.05784
2.17213
2.36613
2.69801
3.03689
2.79838
2.21908
1.72503
1.34192
1.0448
0.720322
0.340524
0.514783
0.983084
1.18922
1.32519
1.44671
1.582
1.70731
1.84691
1.98565
1.98861
1.94183
1.92692
1.94068
1.96795
1.99595
2.02055
2.04817
2.10429
2.19947
2.34545
2.58647
2.92678
3.0151
3.02037
2.44847
1.89192
1.45505
1.11575
0.7537
0.344478
0.512025
0.984285
1.20682
1.35868
1.48325
1.60694
1.75058
1.90422
2.08209
2.14979
2.08984
2.05906
2.06188
2.08519
2.1151
2.13038
2.15341
2.2222
2.34131
2.52092
2.79074
3.05709
3.00741
2.99255
2.66865
2.09992
1.61393
1.2223
0.812098
0.35965
0.482405
0.943078
1.16626
1.33036
1.47915
1.62486
1.76852
1.92893
2.12797
2.26502
2.21941
2.17719
2.17708
2.20452
2.23747
2.23938
2.25254
2.3282
2.46433
2.65058
2.89184
3.04321
2.97075
2.88022
2.78095
2.35001
1.80679
1.35627
0.877111
0.377411
0.446911
0.883172
1.10383
1.27291
1.43717
1.60183
1.755
1.91156
2.10799
2.28792
2.31141
2.26985
2.27507
2.31325
2.34188
2.32696
2.33574
2.40752
2.53258
2.69769
2.89158
2.96316
2.8917
2.79202
2.71784
2.53824
2.02439
1.51494
0.977012
0.41026
0.415878
0.820375
1.03576
1.20394
1.36842
1.53781
1.69218
1.85296
2.04498
2.24584
2.34742
2.32962
2.35432
2.40579
2.41579
2.38767
2.39651
2.45337
2.55016
2.69028
2.84725
2.86782
2.79274
2.70047
2.61219
2.5231
2.21145
1.69485
1.13778
0.478898
0.383405
0.758437
0.967249
1.13131
1.29328
1.46002
1.61203
1.77583
1.96587
2.17701
2.32962
2.36089
2.41857
2.479
2.46217
2.42999
2.43588
2.47018
2.53988
2.65878
2.78145
2.77289
2.6992
2.61295
2.52763
2.44291
2.33228
1.89138
1.32585
0.571788
0.34718
0.700403
0.902869
1.06393
1.21986
1.38393
1.53878
1.7069
1.89756
2.11096
2.29281
2.37475
2.4651
2.52253
2.4857
2.45837
2.45375
2.46795
2.51731
2.61537
2.70895
2.68786
2.61485
2.5324
2.45286
2.37629
2.312
2.03362
1.49449
0.65663
0.315116
0.649318
0.845826
1.00353
1.15552
1.31823
1.48148
1.65927
1.85627
2.06826
2.26288
2.37533
2.49322
2.53578
2.49913
2.47485
2.45671
2.4586
2.49127
2.5665
2.63782
2.60945
2.5385
2.45855
2.38193
2.31084
2.24217
2.07133
1.59108
0.69755
0.290182
0.599195
0.782796
0.941101
1.10935
1.28144
1.45437
1.64026
1.84226
2.04844
2.24164
2.36566
2.49956
2.53179
2.50702
2.48048
2.4559
2.44899
2.46606
2.51597
2.56829
2.53825
2.47033
2.39245
2.31629
2.24621
2.18286
2.04168
1.5998
0.714898
0.264252
0.53365
0.720071
0.905116
1.08987
1.26809
1.44768
1.64079
1.84379
2.04307
2.227
2.34977
2.48662
2.52048
2.50896
2.48351
2.45919
2.44482
2.44425
2.46448
2.50197
2.47043
2.40431
2.33078
2.25423
2.18137
2.1152
1.9678
1.55405
0.709039
0.228653
0.461451
0.685015
0.895272
1.09152
1.27568
1.46013
1.65452
1.85405
2.04634
2.21945
2.33391
2.46788
2.51093
2.51319
2.49942
2.47906
2.45625
2.43463
2.41644
2.42087
2.39539
2.32724
2.25945
2.18391
2.10083
2.01682
1.85107
1.45947
0.674387
0.191888
0.420344
0.68697
0.90891
1.10858
1.29726
1.48488
1.67711
1.87077
2.05609
2.21806
2.32683
2.45908
2.51694
2.53991
2.54483
2.53024
2.49711
2.45162
2.3946
2.33782
2.30242
2.23301
2.16039
2.08051
1.9878
1.88909
1.70526
1.35121
0.621828
0.188124
0.440575
0.719209
0.941501
1.14007
1.3294
1.51703
1.70602
1.89351
2.07142
2.22657
2.33873
2.46757
2.5464
2.60018
2.62863
2.61846
2.56866
2.496
2.41035
2.31306
2.22493
2.14555
2.05846
1.96659
1.86959
1.75623
1.585
1.27194
0.588751
0.204528
0.505153
0.772381
0.986966
1.18246
1.37066
1.55684
1.74239
1.92473
2.09852
2.25592
2.37388
2.49756
2.60285
2.69749
2.75962
2.75066
2.66694
2.55878
2.45157
2.34894
2.24452
2.1333
2.01113
1.89265
1.78646
1.67501
1.51861
1.21081
0.556989
0.245423
0.578281
0.831874
1.04141
1.23466
1.42137
1.60565
1.78831
1.96724
2.13972
2.30427
2.43962
2.56028
2.68729
2.83153
2.9402
2.92782
2.7924
2.6371
2.5107
2.41687
2.33773
2.22689
2.0659
1.91225
1.78952
1.65742
1.46571
1.13713
0.500368
0.283612
0.642809
0.894812
1.10379
1.29662
1.4824
1.66511
1.846
2.02367
2.19775
2.37185
2.53553
2.66773
2.80509
2.99109
3.1461
3.10285
2.8987
2.71537
2.58253
2.49128
2.42807
2.33758
2.19696
2.03603
1.87593
1.6973
1.47432
1.14234
0.510096
0.314612
0.704026
0.962194
1.17434
1.36874
1.55469
1.73661
1.91673
2.09534
2.27208
2.45312
2.64067
2.80502
2.93898
3.11855
3.2514
3.15347
2.97164
2.78999
2.64617
2.53481
2.45467
2.37877
2.26885
2.12412
1.95869
1.76158
1.52811
1.21132
0.579284
0.343268
0.766868
1.03565
1.25387
1.45175
1.63901
1.82057
1.99993
2.18013
2.35814
2.53992
2.72812
2.91207
3.02278
3.18305
3.18879
3.10404
2.95057
2.7815
2.63218
2.50584
2.40299
2.31133
2.21802
2.0986
1.92826
1.72473
1.49675
1.19322
0.581145
0.374243
0.834507
1.11681
1.34378
1.54705
1.73644
1.91757
2.09545
2.27618
2.46049
2.63585
2.80152
2.95056
3.04586
3.1515
3.12046
3.05896
2.91108
2.7281
2.56146
2.41831
2.29751
2.19485
2.09437
1.97501
1.81534
1.62304
1.4049
1.11793
0.542869
0.409436
0.908721
1.20814
1.44754
1.65868
1.85096
2.03097
2.20552
2.38295
2.57364
2.7443
2.87326
2.97584
3.05163
3.08433
3.07214
3.00627
2.8461
2.65513
2.47677
2.31986
2.18596
2.06835
1.9532
1.82582
1.67668
1.50426
1.30291
1.03495
0.502513
0.449397
0.990985
1.31372
1.57065
1.7927
1.98877
2.16737
2.33662
2.50468
2.67575
2.83975
2.9441
3.02246
3.07097
3.04097
3.04232
2.94056
2.76094
2.56865
2.38886
2.2266
2.08447
1.95689
1.83288
1.70272
1.55985
1.40019
1.21315
0.965335
0.474848
0.492093
1.08407
1.43685
1.7161
1.95007
2.14755
2.3248
2.48688
2.63595
2.77491
2.8972
3.00085
3.06659
3.04433
3.00024
2.9696
2.83038
2.6503
2.46842
2.29566
2.13616
1.99278
1.86105
1.73218
1.60125
1.46345
1.31417
1.14033
0.911277
0.456167
0.538394
1.19264
1.58623
1.88795
2.13162
2.32943
2.49815
2.6456
2.76772
2.85744
2.91554
2.99658
3.03193
2.97028
2.91435
2.83694
2.69569
2.5288
2.35966
2.19536
2.04198
1.90176
1.77088
1.6426
1.51273
1.37912
1.23847
1.07823
0.866714
0.440407
0.598303
1.3279
1.75212
2.05534
2.30278
2.51616
2.68918
2.81545
2.89156
2.9195
2.90646
2.91714
2.94845
2.89797
2.82292
2.71853
2.57966
2.42151
2.25911
2.10026
1.95014
1.81145
1.68198
1.55667
1.43085
1.30194
1.16736
1.01843
0.821779
0.423664
0.676674
1.48095
1.89645
2.18935
2.4461
2.68089
2.8604
2.97825
3.02604
2.98961
2.92635
2.87881
2.89348
2.85346
2.77383
2.65063
2.50473
2.34654
2.18384
2.02515
1.87486
1.7343
1.60259
1.47672
1.35255
1.22664
1.09569
0.954066
0.766755
0.397822
0.762353
1.60726
2.01353
2.30531
2.56261
2.79661
2.99067
3.12043
3.15418
3.09514
2.98957
2.92099
2.90304
2.86044
2.77007
2.63659
2.47514
2.30888
2.14263
1.98089
1.82705
1.68192
1.54424
1.4119
1.28248
1.15314
1.0217
0.881509
0.694406
0.361849
0.838832
1.71615
2.13953
2.43986
2.68867
2.90835
3.09193
3.22126
3.27459
3.23045
3.1152
3.02028
2.95738
2.90121
2.7981
2.65599
2.48338
2.30534
2.1317
1.96531
1.80777
1.65831
1.51457
1.37394
1.23487
1.09549
0.954999
0.806813
0.609949
0.318492
0.887683
1.81501
2.26439
2.57457
2.80955
3.02122
3.20766
3.34115
3.40396
3.39348
3.29348
3.17249
3.07049
2.9671
2.85082
2.69966
2.51716
2.32727
2.14365
1.97036
1.8083
1.65547
1.50844
1.3637
1.21881
1.07173
0.916
0.747174
0.530537
0.27084
0.897026
1.85215
2.34806
2.68146
2.91855
3.13136
3.33404
3.49168
3.5706
3.57622
3.49988
3.37403
3.23441
3.08929
2.93123
2.76222
2.57216
2.37113
2.1756
1.99186
1.82247
1.66512
1.51596
1.37121
1.22557
1.07671
0.915905
0.727952
0.492301
0.241858
0.897796
1.90344
2.42186
2.76749
3.01713
3.24167
3.46254
3.65991
3.7797
3.80515
3.75859
3.6319
3.4563
3.26547
3.06356
2.85602
2.64612
2.43293
2.22415
2.0296
1.85111
1.68804
1.53586
1.39215
1.25011
1.1006
0.935013
0.741581
0.497606
0.239108
0.9184
1.98414
2.51653
2.86154
3.12874
3.37277
3.61237
3.84479
4.03105
4.11474
4.11166
3.97205
3.75067
3.5013
3.24543
2.99125
2.74625
2.5134
2.29106
2.0834
1.8949
1.72383
1.56796
1.42295
1.2818
1.13112
0.963156
0.772844
0.529414
0.249236
0.964387
2.08893
2.63134
2.98203
3.27644
3.54873
3.81915
4.09016
4.34768
4.56581
4.6163
4.43611
4.13372
3.80153
3.47553
3.16618
2.87922
2.61731
2.37723
2.15597
1.95655
1.77787
1.61351
1.45785
1.30704
1.15007
0.98098
0.795271
0.567384
0.273452
1.08878
2.26095
2.79244
3.15193
3.47899
3.79081
4.11234
4.44968
4.79697
5.17383
5.32883
5.05179
4.60984
4.15752
3.74365
3.37127
3.03953
2.74526
2.48295
2.24683
2.03483
1.84447
1.6677
1.49797
1.32991
1.16061
0.990459
0.808189
0.58779
0.281295
1.22552
2.45172
3.00222
3.3823
3.74887
4.11263
4.49825
4.91749
5.38347
5.91231
6.16435
5.7431
5.13487
4.53685
4.0242
3.58763
3.21191
2.88605
2.60088
2.34902
2.12397
1.91965
1.72927
1.54789
1.36521
1.18255
1.00934
0.827062
0.609097
0.285492
1.21486
2.47596
3.16675
3.59582
4.01627
4.44425
4.89785
5.38987
5.94012
6.47861
6.72845
6.3073
5.58305
4.87333
4.2818
3.79304
3.38063
3.02688
2.71988
2.45181
2.21381
1.99546
1.79598
1.60674
1.41362
1.22643
1.04778
0.856571
0.628349
0.28744
1.01766
2.28218
3.11785
3.6701
4.1832
4.68051
5.17903
5.6775
6.12805
6.49255
6.73727
6.47662
5.80496
5.09851
4.48573
3.97186
3.5359
3.16051
2.83369
2.54882
2.29898
2.07127
1.86884
1.67341
1.47808
1.29235
1.1075
0.904115
0.65734
0.291304
0.897248
2.13496
2.98254
3.61767
4.18977
4.73256
5.23452
5.67045
6.03093
6.32986
6.5603
6.4207
5.85928
5.23003
4.63978
4.12405
3.67705
3.28651
2.94288
2.64105
2.37863
2.15212
1.95091
1.75079
1.56002
1.37688
1.18858
0.97783
0.711248
0.313423
0.920499
2.15577
2.93817
3.57212
4.14312
4.67292
5.15041
5.54943
5.87071
6.13456
6.36202
6.35201
5.87955
5.32344
4.76746
4.26149
3.81095
3.40963
3.05211
2.73607
2.46312
2.24156
2.03625
1.84032
1.65708
1.47755
1.284
1.05873
0.785614
0.356818
1.00226
2.27185
2.95274
3.54389
4.08123
4.5737
5.00866
5.37612
5.68684
5.95264
6.20073
6.30938
5.91518
5.40872
4.88869
4.39871
3.94786
3.53699
3.16634
2.83804
2.55585
2.33481
2.1303
1.94075
1.7623
1.57277
1.36112
1.12822
0.851043
0.389963
1.06894
2.39833
2.98983
3.52254
4.0132
4.46141
4.8582
5.20473
5.51349
5.79184
6.05466
6.23989
5.96105
5.49893
5.01921
4.55042
4.09974
3.67638
3.28892
2.94644
2.65882
2.43534
2.23061
2.04183
1.84825
1.63689
1.41565
1.17989
0.900262
0.418574
1.12266
2.50225
3.02393
3.50582
3.95286
4.36233
4.73137
5.06435
5.36905
5.64758
5.90354
6.10502
5.99047
5.59112
5.17144
4.73306
4.2809
3.83749
3.42458
3.06331
2.77481
2.54201
2.33123
2.12122
1.90184
1.67795
1.45173
1.21496
0.934114
0.441801
1.15834
2.57304
3.04865
3.49274
3.90545
4.28637
4.63779
4.962
5.25729
5.51971
5.74418
5.91223
5.91434
5.64764
5.35501
4.96947
4.50961
4.03218
3.58076
3.19458
2.89793
2.65018
2.41273
2.175
1.93805
1.70534
1.47395
1.23312
0.944813
0.443549
1.18449
2.62776
3.0669
3.48366
3.87192
4.23393
4.5755
4.89471
5.17841
5.41698
5.59819
5.7137
5.74888
5.69335
5.60822
5.2958
4.80726
4.27103
3.76441
3.33891
3.01764
2.74183
2.47597
2.21618
1.96557
1.72377
1.48505
1.23433
0.929553
0.427383
1.20447
2.66733
3.08019
3.47906
3.85026
4.19911
4.53355
4.84962
5.13152
5.36347
5.5243
5.61311
5.66816
5.81386
5.9303
5.68545
5.17417
4.55064
3.9721
3.49171
3.12805
2.81986
2.52866
2.25049
1.98717
1.73599
1.48804
1.22546
0.902144
0.401758
1.22056
2.70278
3.09177
3.47507
3.83198
4.16792
4.49241
4.80923
5.10431
5.34423
5.48681
5.55108
5.63969
5.86848
6.06192
5.93333
5.47363
4.82806
4.17759
3.64206
3.23162
2.89128
2.57513
2.27988
2.00545
1.7472
1.49211
1.22281
0.898064
0.398719
1.22967
2.73099
3.09604
3.46365
3.80631
4.12859
4.44095
4.75822
5.04739
5.26818
5.39178
5.4759
5.62252
5.80021
5.8637
5.77707
5.50975
4.96657
4.3372
3.76764
3.32634
2.95475
2.61431
2.30461
2.02504
1.76361
1.5087
1.24138
0.919308
0.405674
1.23192
2.74405
3.08929
3.43926
3.77127
4.08554
4.391
4.69055
4.93739
5.14221
5.29635
5.44527
5.58706
5.6331
5.58232
5.48041
5.30182
4.95891
4.39661
3.85842
3.39836
2.99962
2.6412
2.32562
2.04724
1.79338
1.54238
1.27276
0.950523
0.420738
1.24061
2.73482
3.06728
3.40361
3.73555
4.0566
4.36265
4.62171
4.85369
5.097
5.29801
5.43315
5.46076
5.39568
5.30812
5.20012
5.0357
4.79535
4.37715
3.88774
3.42734
3.0182
2.65589
2.3446
2.08437
1.83319
1.57167
1.30187
0.98047
0.435555
1.25687
2.68941
3.02019
3.35965
3.70551
4.03973
4.33543
4.57736
4.86408
5.15794
5.32748
5.34313
5.25759
5.15201
5.05376
4.94391
4.78942
4.58035
4.29431
3.85323
3.4186
3.01638
2.66436
2.37151
2.11161
1.84816
1.59264
1.32356
1.00164
0.445919
1.25814
2.58877
2.96545
3.32866
3.68954
4.02335
4.30382
4.58597
4.9344
5.19412
5.2538
5.16895
5.03981
4.91983
4.81331
4.69997
4.55284
4.36227
4.12219
3.7653
3.37809
3.00338
2.67062
2.38335
2.11415
1.85417
1.60107
1.33735
1.01609
0.453395
1.26279
2.5078
2.96816
3.34647
3.70028
4.01718
4.30551
4.63742
4.96329
5.11281
5.07939
4.95882
4.82179
4.69708
4.58326
4.46439
4.32028
4.14569
3.93143
3.65189
3.31834
2.99192
2.67581
2.38638
2.11316
1.85525
1.6062
1.34737
1.03051
0.460438
1.26632
2.48558
2.99386
3.37754
3.71269
4.02136
4.33781
4.66084
4.87429
4.918
4.85057
4.73294
4.60414
4.4805
4.36239
4.23948
4.09963
3.94494
3.7646
3.52942
3.25601
2.95828
2.66238
2.38042
2.1072
1.85018
1.60496
1.35244
1.04188
0.474688
1.24373
2.44371
2.97065
3.35647
3.70272
4.02808
4.32942
4.56009
4.66699
4.67236
4.60696
4.50349
4.38638
4.2676
4.14967
4.02716
3.89697
3.76979
3.63895
3.44099
3.17319
2.89582
2.61961
2.34664
2.08062
1.82831
1.58658
1.33496
1.02587
0.468861
1.17987
2.3755
2.9272
3.3282
3.67551
3.97394
4.20433
4.34957
4.42269
4.42503
4.3682
4.27637
4.16925
4.05761
3.94395
3.82625
3.70979
3.61133
3.52451
3.34599
3.07688
2.80632
2.53533
2.27444
2.02483
1.78524
1.54977
1.30243
0.998613
0.449837
1.11702
2.31656
2.87793
3.26364
3.57432
3.81516
3.99526
4.12173
4.1859
4.18855
4.13731
4.05376
3.95511
3.85104
3.74415
3.63378
3.53128
3.45565
3.39607
3.21836
2.95456
2.68781
2.43142
2.18778
1.95514
1.72954
1.5041
1.2637
0.968216
0.439163
1.10142
2.29083
2.80551
3.14957
3.41968
3.62978
3.78945
3.90164
3.95688
3.95831
3.91247
3.83682
3.74599
3.64937
3.54945
3.44694
3.35486
3.29018
3.23817
3.05916
2.80791
2.5594
2.32495
2.1019
1.88662
1.67437
1.4594
1.22906
0.942028
0.427411
1.08461
2.22251
2.71423
3.02821
3.26636
3.44977
3.58837
3.68429
3.73063
3.73171
3.69295
3.62627
3.54341
3.45374
3.36021
3.2647
3.17867
3.11377
3.05642
2.87542
2.65452
2.43884
2.23217
2.03082
1.83012
1.62802
1.4202
1.19551
0.912418
0.412329
1.05797
2.13349
2.60488
2.89591
3.1072
3.26701
3.38664
3.46774
3.50709
3.50952
3.47901
3.42249
3.34827
3.26505
3.17755
3.08885
3.00717
2.93708
2.86243
2.68818
2.5106
2.33869
2.16286
1.98039
1.79015
1.59548
1.39519
1.17781
0.901233
0.405315
1.01462
2.026
2.475
2.74713
2.9387
3.08113
3.18555
3.25518
3.28989
3.29447
3.27171
3.22532
3.16034
3.08384
3.0028
2.9223
2.84827
2.78135
2.70024
2.54515
2.39482
2.26288
2.11271
1.93502
1.74897
1.56102
1.36591
1.15029
0.878559
0.395414
0.961672
1.90723
2.33222
2.58841
2.76632
2.89638
2.98955
3.05083
3.08241
3.0884
3.07152
3.03456
2.97907
2.90963
2.83584
2.76546
2.70428
2.65319
2.58196
2.44166
2.31291
2.19213
2.04344
1.87135
1.69204
1.50922
1.31915
1.11101
0.850342
0.383651
0.903088
1.78275
2.18464
2.42806
2.59602
2.71684
2.8019
2.85706
2.88582
2.89213
2.87943
2.85011
2.80311
2.74108
2.67498
2.61501
2.56781
2.53248
2.4681
2.34323
2.23678
2.11156
1.95386
1.78796
1.61889
1.44635
1.26666
1.06928
0.820638
0.370476
0.844172
1.65978
2.03966
2.27207
2.43173
2.54511
2.62393
2.67423
2.70027
2.7061
2.69567
2.6713
2.63135
2.57697
2.51798
2.46647
2.43001
2.40136
2.32845
2.22887
2.12132
1.98798
1.84396
1.69541
1.54249
1.384
1.2166
1.03033
0.792892
0.360137
0.78764
1.54257
1.90153
2.12342
2.27539
2.38224
2.45583
2.50188
2.52492
2.5298
2.52015
2.49834
2.46382
2.41707
2.36422
2.31793
2.2871
2.25562
2.1774
2.10429
1.99277
1.87125
1.74526
1.61418
1.47664
1.33093
1.17421
0.997651
0.770461
0.352402
0.734477
1.43262
1.77145
1.98285
2.12746
2.22835
2.29705
2.33909
2.35895
2.36243
2.35283
2.33184
2.30193
2.26239
2.21456
2.17018
2.13921
2.10021
2.03512
1.96885
1.87698
1.77614
1.66786
1.5525
1.4281
1.29249
1.14343
0.972688
0.751521
0.344154
0.684
1.32979
1.64926
1.8503
1.98785
2.08321
2.14727
2.18504
2.20166
2.20338
2.19345
2.173
2.14655
2.11331
2.07084
2.02726
1.99096
1.94693
1.89435
1.84895
1.78438
1.70605
1.61366
1.51263
1.39874
1.26921
1.12368
0.955968
0.739038
0.340013
0.637593
1.23379
1.53458
1.72546
1.85627
1.9464
2.00582
2.03926
2.05251
2.05228
2.04165
2.02136
1.99687
1.96933
1.93483
1.89467
1.8532
1.80813
1.76858
1.74782
1.71459
1.65742
1.58263
1.48981
1.38154
1.25459
1.11016
0.944759
0.731174
0.338602
0.594091
1.14411
1.42678
1.60794
1.73254
1.81774
1.87231
1.90109
1.91102
1.90886
1.8969
1.87595
1.8514
1.82845
1.80424
1.77193
1.73282
1.69066
1.66016
1.65093
1.64098
1.611
1.55003
1.45402
1.34431
1.22232
1.08419
0.924779
0.717248
0.332182
0.552579
1.05909
1.3252
1.49738
1.61632
1.69692
1.74638
1.77014
1.77689
1.77283
1.75885
1.73579
1.71047
1.69202
1.67618
1.65133
1.62079
1.59272
1.57774
1.5759
1.56952
1.54076
1.48373
1.39907
1.29643
1.18125
1.05101
0.896942
0.69293
0.318087
0.514231
0.979097
1.22971
1.39355
1.50749
1.58345
1.62725
1.64598
1.64973
1.64378
1.62693
1.60109
1.57575
1.55971
1.54975
1.53306
1.51652
1.51272
1.50278
1.49168
1.48365
1.45716
1.40968
1.3436
1.25682
1.1516
1.02803
0.877979
0.676044
0.308644
0.477739
0.903894
1.13995
1.29617
1.40544
1.47654
1.51351
1.52753
1.52877
1.52085
1.50043
1.47173
1.44713
1.43418
1.43125
1.42973
1.42993
1.42603
1.41522
1.40906
1.40424
1.38711
1.35173
1.29828
1.22417
1.12909
1.01227
0.866995
0.669366
0.308833
0.442647
0.832764
1.05553
1.20489
1.30965
1.37448
1.40334
1.41329
1.41234
1.40135
1.37652
1.34687
1.32444
1.31944
1.32963
1.34411
1.34013
1.32465
1.32442
1.33033
1.33402
1.32726
1.3046
1.26314
1.20023
1.1142
1.00341
0.862176
0.667781
0.310688
0.41014
0.766583
0.976392
1.11937
1.21912
1.2756
1.29509
1.30066
1.29614
1.27993
1.25327
1.22414
1.20794
1.21634
1.24465
1.25824
1.2362
1.23291
1.24193
1.2581
1.27206
1.27699
1.26784
1.23991
1.1883
1.11055
1.00405
0.86415
0.669424
0.311946
0.378659
0.704389
0.902213
1.03877
1.13168
1.17679
1.18687
1.18638
1.17535
1.15373
1.1261
1.10122
1.09892
1.12375
1.1562
1.14521
1.13989
1.14682
1.16679
1.19313
1.21844
1.23681
1.24265
1.23055
1.19233
1.12192
1.01735
0.875989
0.677048
0.314822
0.349174
0.647105
0.832461
0.960634
1.0422
1.07268
1.07397
1.06788
1.04826
1.02129
0.994957
0.982385
0.995916
1.02669
1.03141
1.03539
1.04564
1.06735
1.0993
1.13689
1.1746
1.20739
1.23078
1.23744
1.21632
1.15693
1.0533
0.907294
0.698839
0.323433
0.321951
0.594669
0.765156
0.880081
0.942846
0.956508
0.952698
0.939326
0.913596
0.886097
0.867336
0.869071
0.886517
0.899837
0.915818
0.935201
0.961374
0.997218
1.04197
1.09222
1.14329
1.19182
1.2351
1.26487
1.26755
1.22399
1.12371
0.972513
0.752149
0.348546
0.29706
0.543988
0.697928
0.792082
0.829056
0.827552
0.814752
0.797336
0.776072
0.754872
0.74606
0.754654
0.768143
0.790779
0.818285
0.850872
0.891308
0.941069
0.999664
1.06407
1.13068
1.19741
1.26138
1.30729
1.3269
1.30734
1.23051
1.07796
0.853401
0.410786
0.273356
0.492691
0.627743
0.694747
0.705746
0.691187
0.669428
0.654015
0.642302
0.631505
0.633615
0.644923
0.668663
0.701398
0.740222
0.786002
0.840539
0.904975
0.979056
1.0597
1.14101
1.22241
1.29488
1.3495
1.38716
1.39373
1.35054
1.2191
0.995649
0.459609
0.24819
0.43689
0.552571
0.58777
0.579638
0.558186
0.538125
0.527256
0.523008
0.52414
0.533982
0.555968
0.591097
0.635091
0.686546
0.746098
0.815613
0.896295
0.986225
1.08037
1.17084
1.24422
1.30727
1.36851
1.42087
1.45166
1.44394
1.3808
1.12031
0.529864
0.222818
0.380777
0.464442
0.467278
0.455557
0.439323
0.425994
0.421068
0.425315
0.439457
0.462887
0.497626
0.543957
0.59992
0.664637
0.738566
0.822722
0.919223
1.02576
1.12928
1.2097
1.276
1.34249
1.41176
1.48263
1.55578
1.62476
1.64563
1.30412
0.54522
0.195071
0.312397
0.351253
0.347706
0.342836
0.337503
0.335283
0.341096
0.361037
0.392673
0.430858
0.47782
0.534945
0.601769
0.678149
0.766072
0.868857
0.986548
1.10778
1.21115
1.29166
1.36754
1.44637
1.53542
1.64524
1.79422
1.95945
1.99374
1.31855
0.523582
0.161144
0.218947
0.24125
0.245961
0.248573
0.254638
0.272777
0.304738
0.344435
0.389605
0.438167
0.494172
0.56038
0.639222
0.73213
0.841394
0.969288
1.10926
1.2432
1.35752
1.45793
1.55765
1.66456
1.78761
1.94038
2.13986
2.31549
2.15895
1.331
0.549398
0.128003
0.145474
0.161907
0.166872
0.177744
0.212126
0.263194
0.313549
0.364867
0.420237
0.480205
0.546367
0.623848
0.718374
0.832349
0.968432
1.12563
1.29268
1.4529
1.59994
1.73311
1.85568
1.968
2.0796
2.21823
2.36949
2.38196
2.12826
1.56454
0.712911
0.103213
0.104972
0.10741
0.117673
0.159639
0.223422
0.290572
0.354944
0.417215
0.483537
0.551727
0.623614
0.714604
0.830272
0.973586
1.14475
1.33876
1.54429
1.75143
1.93931
2.06149
2.14653
2.22064
2.28502
2.33807
2.3553
2.2754
2.14799
1.9994
0.848568
0.0797635
0.0738047
0.0819326
0.118718
0.188084
0.271804
0.348634
0.417601
0.486865
0.560281
0.63154
0.710978
0.825694
0.972692
1.15475
1.36864
1.60749
1.85911
2.09197
2.2399
2.30251
2.33179
2.34681
2.34062
2.3131
2.25221
2.18022
2.24221
2.16738
0.88931
0.0555153
0.0609638
0.0916879
0.16404
0.253493
0.338141
0.414921
0.486065
0.559555
0.637959
0.713832
0.818271
0.963255
1.14857
1.37476
1.6357
1.91975
2.17677
2.34612
2.4054
2.41266
2.40654
2.38519
2.33346
2.25263
2.16799
2.14114
2.30943
2.13795
0.885953
0.04895
0.0729452
0.147985
0.238477
0.322194
0.404322
0.479761
0.553977
0.635132
0.719755
0.81546
0.953332
1.13138
1.35757
1.62964
1.93809
2.22656
2.41981
2.50153
2.51059
2.49195
2.45797
2.39847
2.30659
2.18773
2.09629
2.09653
2.29515
2.05829
0.873917
0.0593508
0.129099
0.223269
0.303659
0.382079
0.461255
0.538804
0.623003
0.714701
0.815019
0.943233
1.11045
1.32381
1.5932
1.91507
2.23793
2.46996
2.59696
2.64303
2.62595
2.57162
2.49288
2.38786
2.25617
2.11583
2.02327
2.03922
2.24835
1.98189
0.860984
0.0856165
0.191377
0.279477
0.357492
0.43503
0.515847
0.601781
0.696106
0.800585
0.92301
1.07932
1.27639
1.52738
1.84376
2.20008
2.47401
2.6395
2.75201
2.78392
2.73578
2.63583
2.50845
2.36018
2.19914
2.04856
1.95868
1.98648
2.19391
1.9229
0.85158
0.105325
0.22954
0.323423
0.404462
0.486959
0.574259
0.667937
0.770842
0.888779
1.03211
1.21231
1.43785
1.72418
2.07746
2.41669
2.61522
2.75085
2.86776
2.88284
2.80954
2.6752
2.51002
2.32968
2.14984
1.99645
1.91239
1.94836
2.15065
1.88336
0.846506
0.115574
0.257111
0.35922
0.448355
0.536276
0.62957
0.730389
0.842516
0.97397
1.13566
1.33645
1.58546
1.8969
2.24993
2.52452
2.68296
2.82708
2.93215
2.92863
2.83997
2.68715
2.50257
2.30379
2.11485
1.96344
1.88594
1.92543
2.11969
1.8576
0.844232
0.122727
0.275165
0.385227
0.481824
0.576455
0.676145
0.785219
0.908002
1.05302
1.23057
1.44813
1.71309
2.03197
2.35928
2.57886
2.73307
2.88768
2.9682
2.94132
2.8375
2.67832
2.4867
2.28393
2.09507
1.9491
1.8765
1.91331
2.0951
1.83751
0.841985
0.128532
0.290461
0.405118
0.50667
0.607809
0.715002
0.832743
0.966095
1.12389
1.31519
1.54627
1.82245
2.12953
2.42249
2.62435
2.79816
2.95826
3.00977
2.94991
2.82405
2.65804
2.46766
2.27046
2.08909
1.9502
1.87779
1.90535
2.07115
1.81669
0.83768
0.135175
0.306046
0.423762
0.528408
0.634622
0.748502
0.874421
1.01725
1.18574
1.38761
1.62846
1.91221
2.20664
2.47702
2.68396
2.88071
3.04308
3.0699
2.97223
2.8176
2.63929
2.45059
2.26308
2.09299
1.95999
1.88355
1.89718
2.04564
1.79381
0.831603
0.140699
0.319977
0.44153
0.548879
0.658735
0.778149
0.911359
1.06256
1.23875
1.44648
1.69081
1.97383
2.26403
2.53815
2.76037
2.97471
3.14093
3.15371
3.02145
2.83137
2.63439
2.44173
2.26368
2.10614
1.97759
1.89082
1.88753
2.0195
1.76937
0.824006
0.144446
0.327295
0.455624
0.566008
0.679535
0.803808
0.943483
1.10262
1.28502
1.49527
1.73902
2.01807
2.31828
2.6081
2.84695
3.07494
3.25251
3.26639
3.10747
2.87633
2.64928
2.4462
2.27344
2.12896
1.99783
1.89656
1.87732
1.99511
1.74454
0.81511
0.145726
0.32501
0.46381
0.578475
0.696092
0.824471
0.97005
1.13619
1.32545
1.54063
1.78757
2.06916
2.38778
2.68318
2.93303
3.17754
3.38063
3.41267
3.23742
2.96493
2.69474
2.46963
2.29943
2.16093
2.02
1.90301
1.86953
1.97391
1.71988
0.805638
0.148852
0.327876
0.467347
0.586203
0.707209
0.840547
0.991202
1.16183
1.35409
1.57517
1.83544
2.13926
2.46274
2.75141
3.011
3.28209
3.52339
3.58944
3.4097
3.09614
2.77925
2.52323
2.34787
2.20431
2.04791
1.91468
1.86823
1.9574
1.69627
0.795825
0.156043
0.341984
0.481972
0.600759
0.722702
0.856622
1.00647
1.17502
1.3695
1.59959
1.87341
2.18987
2.51415
2.80247
3.07805
3.38098
3.66727
3.78159
3.61205
3.26207
2.89641
2.60735
2.42028
2.26436
2.0884
1.93637
1.87436
1.9461
1.67552
0.786711
0.166489
0.363889
0.497119
0.613566
0.733816
0.865136
1.01191
1.17884
1.37565
1.613
1.89306
2.21644
2.54206
2.83553
3.12986
3.46319
3.79488
3.96574
3.82267
3.44717
3.03694
2.71728
2.51799
2.34748
2.14895
1.97398
1.89283
1.94453
1.66191
0.780717
0.175919
0.381201
0.508594
0.623135
0.741213
0.870104
1.01465
1.18042
1.37724
1.61537
1.89702
2.22195
2.54735
2.85147
3.16894
3.52862
3.89574
4.12091
4.01647
3.63077
3.18718
2.84528
2.63851
2.4564
2.23449
2.03336
1.92968
1.95365
1.65854
0.77895
0.176441
0.389047
0.516245
0.630234
0.746998
0.874456
1.01798
1.18261
1.37641
1.60993
1.88737
2.20269
2.52956
2.85446
3.19694
3.57595
3.96581
4.23566
4.17741
3.79749
3.33396
2.97997
2.77224
2.58753
2.34654
2.11849
1.9881
1.97927
1.6702
0.784312
0.176388
0.394284
0.522434
0.635783
0.751702
0.878582
1.02191
1.18617
1.37747
1.60267
1.86789
2.16832
2.49348
2.83875
3.20428
3.59593
3.99878
4.30276
4.29607
3.93731
3.46783
3.10977
2.90581
2.73143
2.48248
2.23013
2.0697
2.02435
1.69821
0.800347
0.177441
0.398761
0.527555
0.639828
0.754969
0.881689
1.02529
1.19019
1.3808
1.60106
1.85379
2.14036
2.45894
2.80927
3.18841
3.58796
3.99204
4.31739
4.36611
4.04442
3.58329
3.2279
3.03105
2.8771
2.6353
2.36357
2.17121
2.08425
1.73832
0.825908
0.180549
0.402233
0.530036
0.640982
0.756058
0.883707
1.02904
1.19603
1.38742
1.60525
1.85274
2.13325
2.44591
2.78942
3.16518
3.56157
3.95619
4.29187
4.38994
4.11981
3.6794
3.33297
3.14772
3.01863
2.7958
2.50985
2.2851
2.15357
1.78467
0.858463
0.184754
0.401459
0.52893
0.640523
0.757313
0.887394
1.03582
1.20589
1.39984
1.61986
1.86835
2.14577
2.45153
2.78636
3.15141
3.53225
3.90694
4.23903
4.37759
4.16688
3.75822
3.42661
3.25619
3.15296
2.95354
2.65692
2.39995
2.22312
1.83012
0.889055
0.185177
0.398074
0.527531
0.6421
0.762619
0.897375
1.05055
1.22518
1.42353
1.64747
1.8983
2.1759
2.47876
2.80548
3.1541
3.50986
3.85904
4.18155
4.34321
4.18989
3.82258
3.51142
3.35681
3.27571
3.09738
2.79158
2.50402
2.28392
1.869
0.912315
0.183374
0.397606
0.529791
0.648531
0.773805
0.913695
1.07247
1.25297
1.45701
1.68612
1.9414
2.22282
2.52775
2.84919
3.1768
3.50173
3.82645
4.13792
4.30958
4.20095
3.87676
3.58953
3.44952
3.38313
3.217
2.9013
2.58771
2.33067
1.89827
0.930057
0.182489
0.400966
0.536239
0.658913
0.788906
0.934326
1.0993
1.28579
1.49555
1.73075
1.99284
2.28191
2.59097
2.90459
3.20963
3.51102
3.82474
4.13355
4.30388
4.21667
3.92593
3.66108
3.53163
3.46994
3.30252
2.97536
2.64389
2.35966
1.91404
0.942207
0.183983
0.407515
0.545656
0.671676
0.80547
0.954876
1.12329
1.31178
1.52405
1.76293
2.03054
2.32601
2.63024
2.9269
3.2208
3.53496
3.8712
4.18699
4.34015
4.24556
3.97004
3.72096
3.59556
3.52638
3.34477
3.00736
2.66893
2.36925
1.9154
0.948073
0.186364
0.413285
0.552987
0.679339
0.812181
0.958618
1.12178
1.30544
1.51408
1.75105
2.01842
2.30624
2.59637
2.88908
3.20068
3.56183
3.95076
4.28034
4.40498
4.27246
3.99547
3.75787
3.63168
3.54266
3.3375
2.9975
2.6644
2.36177
1.90518