/*--------------------------------*- C++ -*----------------------------------*\
| =========                 |                                                 |
| \\      /  F ield         | OpenFOAM: The Open Source CFD Toolbox           |
|  \\    /   O peration     | Version:  2.3.0                                 |
|   \\  /    A nd           | Web:      www.OpenFOAM.org                      |
|    \\/     M anipulation  |                                                 |
\*---------------------------------------------------------------------------*/
FoamFile
{
    version     2.0;
    format      ascii;
    class       volVectorField;
    location    "1.57";
    object      U.air;
}
// * * * * * * * * * * * * * * * * * * * * * * * * * * * * * * * * * * * * * //

dimensions      [0 1 -1 0 0 0 0];

internalField   nonuniform List<vector> 
6000
(
(0.0103343 0.195313 0)
(0.0675494 0.114784 0)
(0.128941 0.122352 0)
(0.163802 0.125452 0)
(0.175674 0.115 0)
(0.156571 0.131427 0)
(0.0876246 0.197904 0)
(-0.0224919 0.237228 0)
(-0.166566 0.236503 0)
(-0.145146 0.145634 0)
(0.0118724 0.152159 0)
(-0.0402463 0.226839 0)
(-0.214555 0.220473 0)
(-0.322245 0.19154 0)
(-0.37287 0.188061 0)
(-0.396002 0.207939 0)
(-0.385611 0.21941 0)
(-0.318287 0.215201 0)
(-0.201046 0.219026 0)
(-0.0720352 0.222059 0)
(0.0599535 0.211966 0)
(0.161537 0.170515 0)
(0.216568 0.165078 0)
(0.255037 0.172201 0)
(0.271171 0.211433 0)
(0.257983 0.218916 0)
(0.261552 0.221305 0)
(0.265146 0.242524 0)
(0.220791 0.261835 0)
(0.108089 0.381998 0)
(0.0712457 0.814547 0)
(0.172754 0.84326 0)
(0.248231 0.90689 0)
(0.276455 0.965676 0)
(0.280814 1.01083 0)
(0.270585 1.05572 0)
(0.258949 1.09525 0)
(0.203301 1.1536 0)
(0.0751772 1.24652 0)
(-0.0396492 0.909664 0)
(-0.142171 1.03479 0)
(-0.253022 1.2669 0)
(-0.444262 1.22593 0)
(-0.548282 1.09754 0)
(-0.536719 0.98508 0)
(-0.47125 0.941232 0)
(-0.381663 0.86661 0)
(-0.288782 0.808255 0)
(-0.179582 0.763864 0)
(-0.0719065 0.774501 0)
(0.0438027 0.771345 0)
(0.130635 0.869736 0)
(0.222075 0.900903 0)
(0.331145 0.887782 0)
(0.406111 0.912926 0)
(0.467818 0.929969 0)
(0.545138 0.94239 0)
(0.57773 1.10356 0)
(0.438548 1.27209 0)
(0.136988 1.37256 0)
(0.0428902 0.625906 0)
(0.1546 0.554383 0)
(0.29554 0.66124 0)
(0.320405 0.745451 0)
(0.320889 0.768471 0)
(0.330151 0.787798 0)
(0.349583 0.850741 0)
(0.323686 1.01617 0)
(0.271131 1.16061 0)
(0.0902937 0.950741 0)
(-0.14618 0.914693 0)
(-0.249738 1.2198 0)
(-0.445175 1.15274 0)
(-0.47476 0.893171 0)
(-0.371862 0.715634 0)
(-0.235119 0.687987 0)
(-0.124988 0.632724 0)
(-0.063729 0.609221 0)
(-0.0310065 0.586422 0)
(-0.00700419 0.583766 0)
(0.0280032 0.576314 0)
(0.087577 0.603389 0)
(0.190587 0.57892 0)
(0.314245 0.618648 0)
(0.389744 0.705516 0)
(0.48004 0.685233 0)
(0.604074 0.669196 0)
(0.66734 0.92775 0)
(0.508 1.28461 0)
(0.161594 1.51287 0)
(0.0633374 0.546911 0)
(0.100867 0.457088 0)
(0.185952 0.575833 0)
(0.321315 0.733609 0)
(0.355779 0.78657 0)
(0.384689 0.796127 0)
(0.428332 0.885058 0)
(0.408388 1.0944 0)
(0.362748 1.20705 0)
(0.275139 1.22402 0)
(-0.0137171 1.07334 0)
(-0.117897 1.35653 0)
(-0.211496 1.27652 0)
(-0.241527 0.888933 0)
(-0.211916 0.689849 0)
(-0.0767137 0.690858 0)
(0.0411102 0.713089 0)
(0.060089 0.744303 0)
(0.0254597 0.740843 0)
(-0.00133021 0.727181 0)
(-0.000537991 0.699492 0)
(0.0521311 0.665148 0)
(0.119784 0.600671 0)
(0.230622 0.592361 0)
(0.328952 0.686487 0)
(0.435232 0.654462 0)
(0.528884 0.647331 0)
(0.510531 1.00849 0)
(0.307888 1.54545 0)
(0.055962 1.63309 0)
(0.0227654 0.564115 0)
(-0.000676995 0.504989 0)
(0.0366549 0.524715 0)
(0.101123 0.650277 0)
(0.238822 0.728619 0)
(0.31703 0.720325 0)
(0.398577 0.805544 0)
(0.429407 1.10987 0)
(0.381761 1.25399 0)
(0.33685 1.32649 0)
(0.177488 1.31329 0)
(0.0682948 1.36611 0)
(0.124116 1.26775 0)
(0.125035 0.918741 0)
(0.00871455 0.634817 0)
(0.0117064 0.541693 0)
(0.0661589 0.607393 0)
(0.084117 0.686921 0)
(0.06712 0.693278 0)
(0.0468474 0.67864 0)
(0.00876607 0.669254 0)
(0.00322043 0.629854 0)
(0.0716315 0.514554 0)
(0.179323 0.519969 0)
(0.272341 0.627559 0)
(0.373858 0.616708 0)
(0.406246 0.588164 0)
(0.283144 1.14781 0)
(0.0497374 1.66664 0)
(-0.0083963 1.65402 0)
(0.00284639 0.587395 0)
(-0.0359191 0.57085 0)
(-0.091623 0.585296 0)
(-0.058845 0.62877 0)
(0.020064 0.665242 0)
(0.13158 0.64165 0)
(0.234961 0.698601 0)
(0.352243 1.09029 0)
(0.332692 1.29217 0)
(0.307128 1.37714 0)
(0.230522 1.40065 0)
(0.207144 1.37642 0)
(0.269217 1.18582 0)
(0.33851 0.981917 0)
(0.245335 0.806859 0)
(0.122057 0.59352 0)
(0.0616115 0.624791 0)
(0.0802219 0.69705 0)
(0.116217 0.707649 0)
(0.129985 0.691634 0)
(0.0813901 0.708504 0)
(0.0220539 0.618735 0)
(0.0372386 0.437738 0)
(0.11951 0.46952 0)
(0.187138 0.586253 0)
(0.261849 0.595852 0)
(0.209568 0.602665 0)
(0.0464305 1.39653 0)
(-0.0937407 1.64675 0)
(-0.0391577 1.61101 0)
(-0.0144874 0.626406 0)
(-0.070533 0.648891 0)
(-0.13643 0.655196 0)
(-0.168151 0.660255 0)
(-0.127912 0.657758 0)
(-0.0506547 0.615962 0)
(0.030925 0.576054 0)
(0.18882 0.941793 0)
(0.260344 1.31201 0)
(0.260128 1.39378 0)
(0.235852 1.4378 0)
(0.243833 1.35394 0)
(0.263897 1.14179 0)
(0.267748 0.952501 0)
(0.197202 0.823916 0)
(0.0879715 0.640971 0)
(0.0361918 0.553785 0)
(0.0991283 0.551258 0)
(0.198585 0.580485 0)
(0.275233 0.615354 0)
(0.281652 0.723893 0)
(0.206893 0.717537 0)
(0.107569 0.422564 0)
(0.0631768 0.465996 0)
(0.0696646 0.59221 0)
(0.109646 0.583544 0)
(0.0131151 0.741411 0)
(-0.157446 1.51472 0)
(-0.141547 1.56066 0)
(-0.0637146 1.521 0)
(-0.0187532 0.685773 0)
(-0.0942615 0.741343 0)
(-0.18334 0.730125 0)
(-0.228713 0.693787 0)
(-0.228051 0.646841 0)
(-0.189979 0.585369 0)
(-0.121483 0.528805 0)
(0.0148685 0.747572 0)
(0.15838 1.26644 0)
(0.215652 1.37518 0)
(0.235717 1.42571 0)
(0.258215 1.36679 0)
(0.249171 1.13316 0)
(0.212039 1.01172 0)
(0.108553 0.892404 0)
(0.0086495 0.702965 0)
(0.0245133 0.486067 0)
(0.129121 0.434385 0)
(0.251806 0.454977 0)
(0.354279 0.509915 0)
(0.42844 0.665979 0)
(0.451996 0.773972 0)
(0.213049 0.659598 0)
(-0.0351219 0.561762 0)
(-0.100326 0.661566 0)
(-0.0923418 0.576082 0)
(-0.169744 0.954742 0)
(-0.252989 1.49211 0)
(-0.166036 1.47579 0)
(-0.0818709 1.40614 0)
(-0.029203 0.717807 0)
(-0.125994 0.828585 0)
(-0.249594 0.777184 0)
(-0.294682 0.718395 0)
(-0.301811 0.646237 0)
(-0.290773 0.563119 0)
(-0.25281 0.495871 0)
(-0.115216 0.584171 0)
(0.0516289 1.14113 0)
(0.165524 1.33144 0)
(0.224656 1.40774 0)
(0.255355 1.33623 0)
(0.254267 1.17285 0)
(0.196578 1.0663 0)
(0.0951656 0.975882 0)
(0.0388348 0.711317 0)
(0.088225 0.39862 0)
(0.194258 0.329324 0)
(0.301366 0.369151 0)
(0.386613 0.448307 0)
(0.485271 0.595725 0)
(0.580301 0.806517 0)
(0.206494 1.12796 0)
(-0.251753 0.733797 0)
(-0.293981 0.747127 0)
(-0.30944 0.619031 0)
(-0.347487 1.03364 0)
(-0.28613 1.41855 0)
(-0.15716 1.39071 0)
(-0.0685824 1.28411 0)
(-0.111059 0.771835 0)
(-0.183738 0.925963 0)
(-0.279673 0.857258 0)
(-0.335629 0.729965 0)
(-0.366862 0.627848 0)
(-0.35761 0.552993 0)
(-0.343234 0.472734 0)
(-0.233894 0.481913 0)
(-0.0535785 0.972923 0)
(0.121342 1.29178 0)
(0.181056 1.32959 0)
(0.25814 1.30067 0)
(0.254011 1.16214 0)
(0.22958 1.10778 0)
(0.195455 0.988386 0)
(0.194034 0.682373 0)
(0.209952 0.346201 0)
(0.269264 0.258204 0)
(0.34957 0.326316 0)
(0.408427 0.421959 0)
(0.482047 0.544111 0)
(0.502005 0.805459 0)
(0.133488 1.76298 0)
(-0.365271 0.90022 0)
(-0.470329 0.838743 0)
(-0.476773 0.709508 0)
(-0.46497 1.01036 0)
(-0.30319 1.28729 0)
(-0.12248 1.28606 0)
(-0.0412839 1.21016 0)
(-0.086685 0.776365 0)
(-0.176517 0.830169 0)
(-0.260866 0.717343 0)
(-0.334037 0.712798 0)
(-0.377867 0.668232 0)
(-0.389701 0.545411 0)
(-0.402769 0.460773 0)
(-0.335451 0.429305 0)
(-0.156765 0.775381 0)
(0.0794646 1.21701 0)
(0.175534 1.26783 0)
(0.259973 1.22813 0)
(0.271846 1.15593 0)
(0.291998 1.06943 0)
(0.328889 0.937179 0)
(0.372303 0.667181 0)
(0.369605 0.349161 0)
(0.363822 0.221438 0)
(0.396708 0.290886 0)
(0.428562 0.408792 0)
(0.421108 0.522077 0)
(0.222628 0.873539 0)
(0.0806428 2.07121 0)
(-0.268341 1.17971 0)
(-0.58074 0.915196 0)
(-0.571544 0.798193 0)
(-0.514827 0.930413 0)
(-0.323914 1.13254 0)
(-0.118452 1.17506 0)
(-0.0335975 1.17536 0)
(-0.0555343 0.951339 0)
(-0.173532 0.969279 0)
(-0.277175 0.871035 0)
(-0.355183 0.725997 0)
(-0.339802 0.524938 0)
(-0.399407 0.580952 0)
(-0.415561 0.468659 0)
(-0.431063 0.396378 0)
(-0.264562 0.598349 0)
(0.00942218 1.02303 0)
(0.190438 1.1879 0)
(0.259273 1.14451 0)
(0.305195 1.09343 0)
(0.345623 1.00128 0)
(0.419753 0.837932 0)
(0.515932 0.612008 0)
(0.544945 0.366765 0)
(0.511528 0.242694 0)
(0.462671 0.277619 0)
(0.411964 0.394957 0)
(0.320252 0.56973 0)
(0.0370166 1.14326 0)
(-0.0184138 1.8964 0)
(-0.0882834 1.7189 0)
(-0.442532 0.998555 0)
(-0.608258 0.872142 0)
(-0.54441 0.853681 0)
(-0.380949 0.969502 0)
(-0.180592 1.03999 0)
(-0.0580702 1.10818 0)
(-0.0327229 0.878315 0)
(-0.119896 0.875441 0)
(-0.18369 0.80464 0)
(-0.214547 0.663938 0)
(-0.277918 0.61531 0)
(-0.313558 0.530863 0)
(-0.376498 0.459903 0)
(-0.432606 0.378927 0)
(-0.324275 0.460284 0)
(-0.0428888 0.734004 0)
(0.199299 1.10112 0)
(0.255728 1.04848 0)
(0.317627 1.02082 0)
(0.363757 0.908131 0)
(0.478715 0.714944 0)
(0.615797 0.507465 0)
(0.685575 0.354779 0)
(0.649998 0.294868 0)
(0.538262 0.339818 0)
(0.397162 0.461956 0)
(0.224212 0.697413 0)
(-0.000813466 1.34435 0)
(-0.0299553 1.71473 0)
(0.110448 1.72125 0)
(-0.181296 1.36651 0)
(-0.528889 0.949205 0)
(-0.583936 0.806903 0)
(-0.442257 0.81254 0)
(-0.253256 0.887801 0)
(-0.0912936 0.977162 0)
(-0.0249135 0.918998 0)
(-0.0860672 0.883252 0)
(-0.10573 0.780045 0)
(-0.0999457 0.59166 0)
(-0.104928 0.514839 0)
(-0.159614 0.585388 0)
(-0.269996 0.538999 0)
(-0.299309 0.329269 0)
(-0.303878 0.33691 0)
(-0.0671255 0.479995 0)
(0.160198 0.943494 0)
(0.283351 1.01849 0)
(0.309904 0.938961 0)
(0.363766 0.80949 0)
(0.502858 0.562086 0)
(0.650842 0.389597 0)
(0.712668 0.345018 0)
(0.661019 0.36707 0)
(0.522267 0.434186 0)
(0.366265 0.55755 0)
(0.190987 0.825605 0)
(0.0644964 1.38032 0)
(0.0694489 1.56819 0)
(0.165205 1.69915 0)
(0.100633 1.6366 0)
(-0.269743 1.18936 0)
(-0.518966 0.778835 0)
(-0.439771 0.681653 0)
(-0.280325 0.728341 0)
(-0.103336 0.801814 0)
(-0.0231114 0.969116 0)
(-0.0538753 0.897065 0)
(-0.0250838 0.768363 0)
(0.000614844 0.582811 0)
(0.00783414 0.470555 0)
(0.00958004 0.542003 0)
(-0.0513096 0.567437 0)
(-0.113315 0.340848 0)
(-0.155725 0.239065 0)
(-0.0399001 0.339892 0)
(0.124078 0.705965 0)
(0.299552 0.986627 0)
(0.298117 0.886378 0)
(0.365346 0.723545 0)
(0.518269 0.401795 0)
(0.629021 0.302555 0)
(0.652315 0.340265 0)
(0.579283 0.42839 0)
(0.46442 0.518431 0)
(0.345796 0.638926 0)
(0.216045 0.941571 0)
(0.124594 1.37525 0)
(0.131001 1.53304 0)
(0.159225 1.61979 0)
(0.200844 1.67154 0)
(0.0104048 1.604 0)
(-0.259655 0.840561 0)
(-0.375913 0.613199 0)
(-0.243743 0.598034 0)
(-0.0895684 0.629983 0)
(-0.0205659 1.02066 0)
(-0.0209924 0.860595 0)
(0.0458041 0.723344 0)
(0.0962336 0.563104 0)
(0.112775 0.454735 0)
(0.127121 0.520745 0)
(0.129637 0.567474 0)
(0.0888282 0.379525 0)
(0.0217236 0.199867 0)
(0.0415676 0.279722 0)
(0.129401 0.525479 0)
(0.260591 0.940794 0)
(0.267194 0.87121 0)
(0.367263 0.601804 0)
(0.514611 0.264231 0)
(0.583774 0.266369 0)
(0.55115 0.356203 0)
(0.473488 0.477208 0)
(0.403446 0.562764 0)
(0.339298 0.689069 0)
(0.252602 1.03226 0)
(0.177547 1.39296 0)
(0.167848 1.48143 0)
(0.175986 1.59058 0)
(0.194948 1.6128 0)
(0.234657 1.64035 0)
(0.00942794 1.09893 0)
(-0.25203 0.596741 0)
(-0.182379 0.493241 0)
(-0.0617116 0.499313 0)
(-0.00860566 1.05399 0)
(0.00464309 0.806506 0)
(0.0802454 0.658892 0)
(0.163192 0.543015 0)
(0.21852 0.436833 0)
(0.239453 0.504206 0)
(0.261455 0.557378 0)
(0.252532 0.417561 0)
(0.180035 0.245333 0)
(0.147584 0.28035 0)
(0.157556 0.448065 0)
(0.198855 0.903964 0)
(0.230306 0.863779 0)
(0.370682 0.447217 0)
(0.466804 0.190789 0)
(0.478193 0.258898 0)
(0.423539 0.392887 0)
(0.374841 0.492858 0)
(0.353991 0.566872 0)
(0.332663 0.707404 0)
(0.28491 1.09326 0)
(0.21496 1.38378 0)
(0.193607 1.49251 0)
(0.191253 1.54661 0)
(0.197396 1.58989 0)
(0.266843 1.58805 0)
(0.188535 1.43059 0)
(-0.0706215 0.687301 0)
(-0.121541 0.405646 0)
(-0.0283739 0.428877 0)
(0.00296319 1.06254 0)
(0.00694007 0.774215 0)
(0.0849063 0.615156 0)
(0.197232 0.437725 0)
(0.273164 0.398267 0)
(0.298458 0.502701 0)
(0.31022 0.591424 0)
(0.30179 0.48662 0)
(0.243948 0.324611 0)
(0.195973 0.323711 0)
(0.163687 0.452076 0)
(0.14775 0.906675 0)
(0.207152 0.803924 0)
(0.361264 0.311875 0)
(0.390341 0.188477 0)
(0.34938 0.286425 0)
(0.284781 0.401851 0)
(0.271488 0.473453 0)
(0.284836 0.540345 0)
(0.297271 0.690559 0)
(0.294504 1.12348 0)
(0.241551 1.41041 0)
(0.197248 1.47554 0)
(0.180692 1.54054 0)
(0.172808 1.54227 0)
(0.204622 1.52655 0)
(0.243116 1.46335 0)
(0.102707 0.901649 0)
(-0.0136962 0.374893 0)
(0.00877983 0.401421 0)
(-0.000629909 1.07762 0)
(0.0195461 0.774853 0)
(0.12254 0.526584 0)
(0.167954 0.401688 0)
(0.13884 0.400799 0)
(0.162587 0.49941 0)
(0.201777 0.559381 0)
(0.249141 0.48536 0)
(0.221953 0.386606 0)
(0.173544 0.37056 0)
(0.135662 0.484329 0)
(0.10355 0.933406 0)
(0.184412 0.701067 0)
(0.302617 0.245177 0)
(0.265699 0.23061 0)
(0.199356 0.332768 0)
(0.148056 0.398329 0)
(0.145143 0.447071 0)
(0.160561 0.500893 0)
(0.18802 0.63421 0)
(0.250551 1.10057 0)
(0.242599 1.41127 0)
(0.199134 1.49038 0)
(0.157452 1.50959 0)
(0.142033 1.52392 0)
(0.143437 1.46726 0)
(0.170752 1.44579 0)
(0.123691 1.0123 0)
(0.0601402 0.40866 0)
(0.00390303 0.41658 0)
(0.0281053 1.12669 0)
(0.120761 0.717564 0)
(0.145603 0.503813 0)
(0.186442 0.444308 0)
(0.16861 0.444218 0)
(0.165757 0.504169 0)
(0.193398 0.54522 0)
(0.214369 0.505712 0)
(0.181774 0.438032 0)
(0.129782 0.411659 0)
(0.0945137 0.528885 0)
(0.0657955 0.968339 0)
(0.166166 0.615151 0)
(0.185576 0.253473 0)
(0.139061 0.302695 0)
(0.0649225 0.362916 0)
(0.0350866 0.408327 0)
(0.0166469 0.451808 0)
(0.00577904 0.487686 0)
(0.0161636 0.568798 0)
(0.119705 0.982911 0)
(0.208193 1.39996 0)
(0.186633 1.48158 0)
(0.139202 1.5123 0)
(0.0958635 1.49554 0)
(0.0596167 1.45328 0)
(0.0307156 1.4405 0)
(0.0701066 0.995794 0)
(0.091973 0.477159 0)
(0.0112701 0.436479 0)
(0.108281 1.07461 0)
(0.172752 0.696276 0)
(0.244551 0.527355 0)
(0.239457 0.493572 0)
(0.201896 0.496228 0)
(0.175663 0.529089 0)
(0.175901 0.548298 0)
(0.172593 0.525812 0)
(0.137387 0.48289 0)
(0.0862402 0.455304 0)
(0.0407817 0.579116 0)
(0.0470182 0.987051 0)
(0.128659 0.585772 0)
(0.083477 0.32864 0)
(0.0448084 0.362301 0)
(-0.0045497 0.398719 0)
(-0.0370076 0.443353 0)
(-0.0762636 0.492941 0)
(-0.121668 0.52774 0)
(-0.155524 0.566497 0)
(-0.0943888 0.824747 0)
(0.0822907 1.33192 0)
(0.139735 1.4991 0)
(0.0919286 1.53985 0)
(0.0156079 1.52564 0)
(-0.0554118 1.4928 0)
(-0.0528873 1.44859 0)
(0.0591411 0.898928 0)
(0.101068 0.521694 0)
(0.0228631 0.488703 0)
(0.127704 0.989321 0)
(0.237372 0.689459 0)
(0.27287 0.572886 0)
(0.242403 0.540218 0)
(0.203461 0.534659 0)
(0.174629 0.547014 0)
(0.157905 0.555337 0)
(0.139036 0.5451 0)
(0.101615 0.522813 0)
(0.0473364 0.506559 0)
(0.0117254 0.638908 0)
(0.0544397 0.974328 0)
(0.081172 0.626204 0)
(0.0444535 0.39266 0)
(0.00416353 0.401225 0)
(-0.0331283 0.433125 0)
(-0.0783826 0.489255 0)
(-0.138981 0.551245 0)
(-0.214569 0.600752 0)
(-0.294307 0.638939 0)
(-0.30363 0.763794 0)
(-0.178574 1.16586 0)
(-0.0158029 1.50053 0)
(-0.00259361 1.61279 0)
(-0.0546668 1.60933 0)
(-0.0831479 1.55745 0)
(0.0141026 1.37791 0)
(0.119218 0.837171 0)
(0.102507 0.593202 0)
(0.0165459 0.560596 0)
(0.121989 0.906919 0)
(0.2214 0.707568 0)
(0.231653 0.609828 0)
(0.208801 0.572287 0)
(0.183336 0.56135 0)
(0.16018 0.564177 0)
(0.138534 0.568716 0)
(0.112023 0.567044 0)
(0.0727329 0.561047 0)
(0.0177384 0.562016 0)
(-0.00127833 0.679195 0)
(0.0479589 0.957373 0)
(0.0757765 0.695932 0)
(0.0481722 0.444484 0)
(0.0114232 0.440034 0)
(-0.0332356 0.489955 0)
(-0.0949213 0.569717 0)
(-0.177881 0.641975 0)
(-0.273994 0.701287 0)
(-0.377761 0.750145 0)
(-0.4521 0.839669 0)
(-0.410722 1.07771 0)
(-0.274414 1.44349 0)
(-0.147844 1.62444 0)
(-0.0834497 1.63896 0)
(0.00526126 1.52219 0)
(0.158362 1.28314 0)
(0.196843 0.898929 0)
(0.12087 0.71376 0)
(0.0204506 0.636487 0)
(0.0694862 0.808847 0)
(0.146465 0.693847 0)
(0.166698 0.618749 0)
(0.164564 0.586447 0)
(0.15385 0.576684 0)
(0.138348 0.579233 0)
(0.117628 0.586403 0)
(0.0892133 0.592766 0)
(0.0525173 0.597619 0)
(0.0108701 0.610667 0)
(-0.00497759 0.699302 0)
(0.094262 0.931761 0)
(0.10181 0.769877 0)
(0.0876967 0.49291 0)
(0.0549264 0.500623 0)
(0.0026742 0.592245 0)
(-0.0910066 0.709077 0)
(-0.204881 0.771945 0)
(-0.307949 0.814106 0)
(-0.399099 0.86082 0)
(-0.480092 0.948184 0)
(-0.509352 1.13343 0)
(-0.430044 1.40855 0)
(-0.24083 1.62339 0)
(-0.0731231 1.64913 0)
(0.0946956 1.50737 0)
(0.225311 1.30663 0)
(0.215572 1.03761 0)
(0.112649 0.86258 0)
(0.0259044 0.723159 0)
(0.0369086 0.730774 0)
(0.0896008 0.65796 0)
(0.115839 0.608211 0)
(0.124105 0.587076 0)
(0.122336 0.583121 0)
(0.113222 0.590265 0)
(0.0960341 0.603934 0)
(0.0689089 0.619359 0)
(0.0350809 0.63009 0)
(0.00712924 0.639767 0)
(0.00408987 0.692458 0)
(0.105205 0.866507 0)
(0.162101 0.842979 0)
(0.165368 0.554003 0)
(0.158132 0.598336 0)
(0.0958017 0.754829 0)
(-0.0870082 0.919505 0)
(-0.274833 0.901105 0)
(-0.358744 0.896609 0)
(-0.392937 0.933345 0)
(-0.408446 1.01905 0)
(-0.393914 1.19074 0)
(-0.323687 1.45125 0)
(-0.202818 1.67199 0)
(-0.0464436 1.73616 0)
(0.0582043 1.60488 0)
(0.131665 1.40591 0)
(0.122858 1.212 0)
(0.0502607 1.02742 0)
(0.0181361 0.835758 0)
(0.0235611 0.673698 0)
(0.0600013 0.62445 0)
(0.0801048 0.593479 0)
(0.0884587 0.582358 0)
(0.0898304 0.584081 0)
(0.0855045 0.596469 0)
(0.074263 0.617866 0)
(0.051709 0.643388 0)
(0.0202591 0.658274 0)
(0.00240253 0.651463 0)
(0.0199825 0.667335 0)
(0.110293 0.774734 0)
(0.241686 0.840803 0)
(0.304618 0.593769 0)
(0.345489 0.670531 0)
(0.213546 0.956142 0)
(-0.143655 1.12713 0)
(-0.349946 1.0379 0)
(-0.368491 0.99115 0)
(-0.33663 0.988979 0)
(-0.309601 1.05602 0)
(-0.228565 1.189 0)
(-0.0805978 1.38031 0)
(0.00412444 1.47193 0)
(0.00136344 1.54145 0)
(-0.0138991 1.44353 0)
(0.00859507 1.31769 0)
(0.0444959 1.21659 0)
(-0.000194357 1.06431 0)
(-0.0215782 0.870434 0)
(0.0158862 0.640768 0)
(0.0400608 0.603777 0)
(0.0503562 0.583706 0)
(0.053407 0.578293 0)
(0.0535588 0.582978 0)
(0.0521582 0.598192 0)
(0.0484523 0.624557 0)
(0.0363416 0.659045 0)
(0.0079973 0.679949 0)
(-0.00761773 0.650538 0)
(0.0248054 0.623506 0)
(0.117067 0.65766 0)
(0.284443 0.739288 0)
(0.455395 0.537823 0)
(0.471854 0.682849 0)
(0.282793 1.14037 0)
(0.0287367 1.33191 0)
(-0.119444 1.01348 0)
(-0.173367 0.800945 0)
(-0.176918 0.810114 0)
(-0.134025 0.852546 0)
(-0.0630145 0.853129 0)
(-0.00324526 1.06245 0)
(0.0305271 1.39867 0)
(0.0631602 1.55656 0)
(0.0975119 1.4153 0)
(0.10108 1.15705 0)
(0.0855876 1.06466 0)
(0.0224742 0.987878 0)
(-0.00914802 0.699855 0)
(0.00985086 0.624407 0)
(0.0224957 0.596595 0)
(0.0214472 0.583122 0)
(0.0154049 0.580075 0)
(0.0094407 0.584547 0)
(0.00589614 0.598311 0)
(0.00644671 0.624293 0)
(0.0104796 0.663685 0)
(-0.00848036 0.698081 0)
(-0.0272896 0.65821 0)
(0.00611191 0.574277 0)
(0.0956662 0.543305 0)
(0.227665 0.561737 0)
(0.492174 0.406559 0)
(0.287743 0.760665 0)
(0.140647 1.32496 0)
(0.0449171 1.27688 0)
(0.0862652 1.08201 0)
(0.0826981 0.951949 0)
(0.0452561 0.899686 0)
(0.0205954 0.933414 0)
(-0.0213215 0.961893 0)
(-0.0592776 1.12234 0)
(-0.0242731 1.25927 0)
(0.0864057 1.3059 0)
(0.193107 1.26653 0)
(0.216158 1.19858 0)
(0.166997 1.17428 0)
(0.103419 1.11671 0)
(0.041401 0.812169 0)
(0.00471134 0.622369 0)
(0.00559523 0.603994 0)
(-0.00750328 0.596278 0)
(-0.0258892 0.595149 0)
(-0.0440228 0.598638 0)
(-0.0581136 0.608219 0)
(-0.0640002 0.62658 0)
(-0.0530982 0.658251 0)
(-0.043882 0.706712 0)
(-0.0553783 0.651716 0)
(-0.0443282 0.545979 0)
(0.0145366 0.4591 0)
(0.11193 0.401752 0)
(0.216959 0.343516 0)
(0.0134722 0.979099 0)
(-0.110614 1.21116 0)
(-0.0671337 1.0772 0)
(0.0391222 0.89253 0)
(0.0743468 0.798706 0)
(0.0626705 0.788589 0)
(0.0393634 0.800894 0)
(0.00303074 0.833305 0)
(-0.0207597 0.930381 0)
(0.0143236 1.00712 0)
(0.0952473 1.0396 0)
(0.168346 1.02907 0)
(0.192474 1.02953 0)
(0.162267 1.03039 0)
(0.122127 0.990754 0)
(0.0531452 0.751662 0)
(0.000653629 0.631312 0)
(-0.00864093 0.624705 0)
(-0.0322221 0.624822 0)
(-0.0638327 0.628292 0)
(-0.0984384 0.633609 0)
(-0.130424 0.64167 0)
(-0.153393 0.652994 0)
(-0.156204 0.667595 0)
(-0.119963 0.690098 0)
(-0.127921 0.655243 0)
(-0.136719 0.500943 0)
(-0.12172 0.391413 0)
(-0.0694889 0.344839 0)
(-0.0454002 0.500784 0)
(-0.294843 1.10908 0)
(-0.305787 1.18576 0)
(-0.20668 0.98234 0)
(-0.0871346 0.826021 0)
(-0.0336661 0.775363 0)
(-0.00993168 0.754966 0)
(0.00173913 0.760062 0)
(0.00743578 0.806631 0)
(0.0155963 0.879246 0)
(0.051444 0.936562 0)
(0.100555 0.961698 0)
(0.137351 0.970484 0)
(0.158284 1.01206 0)
(0.152851 1.05352 0)
(0.125376 1.01394 0)
(0.0521417 0.82369 0)
(-0.00161103 0.645471 0)
(-0.0157963 0.652648 0)
(-0.045668 0.664795 0)
(-0.0911356 0.679351 0)
(-0.145833 0.688494 0)
(-0.197943 0.691958 0)
(-0.239726 0.699077 0)
(-0.263968 0.70262 0)
(-0.257635 0.70074 0)
(-0.220058 0.676709 0)
(-0.293869 0.530711 0)
(-0.28385 0.359402 0)
(-0.301774 0.404684 0)
(-0.534729 0.722993 0)
(-0.662469 1.1937 0)
(-0.521599 1.10034 0)
(-0.35914 0.86635 0)
(-0.250931 0.751099 0)
(-0.183919 0.739548 0)
(-0.123249 0.739719 0)
(-0.0697647 0.756319 0)
(-0.0236623 0.81217 0)
(0.023627 0.878864 0)
(0.070344 0.896823 0)
(0.114955 0.953701 0)
(0.143531 0.975392 0)
(0.153983 1.00773 0)
(0.160129 1.06232 0)
(0.139119 1.07219 0)
(0.0566171 0.921431 0)
(-0.00019571 0.658535 0)
(-0.0119286 0.681869 0)
(-0.0420566 0.716501 0)
(-0.104835 0.757641 0)
(-0.194446 0.776557 0)
(-0.272961 0.768927 0)
(-0.331332 0.762958 0)
(-0.381556 0.750323 0)
(-0.411009 0.731242 0)
(-0.397839 0.689216 0)
(-0.369146 0.598826 0)
(-0.497047 0.432151 0)
(-0.712781 0.630534 0)
(-0.914369 1.03339 0)
(-0.898676 1.14139 0)
(-0.671873 0.932958 0)
(-0.503248 0.77713 0)
(-0.419706 0.703781 0)
(-0.337645 0.690747 0)
(-0.254011 0.679703 0)
(-0.171327 0.699731 0)
(-0.0893611 0.754112 0)
(-0.00810891 0.819633 0)
(0.0622567 0.869201 0)
(0.11812 0.91318 0)
(0.159672 0.949982 0)
(0.181014 1.01801 0)
(0.184756 1.09657 0)
(0.159467 1.12423 0)
(0.0628295 1.04515 0)
(0.00808086 0.659291 0)
(0.0141252 0.697703 0)
(-0.0113401 0.756535 0)
(-0.0982025 0.840964 0)
(-0.238585 0.873964 0)
(-0.356672 0.847733 0)
(-0.444459 0.85293 0)
(-0.521112 0.832204 0)
(-0.582652 0.788754 0)
(-0.619722 0.72349 0)
(-0.56257 0.666229 0)
(-0.612859 0.692735 0)
(-0.88074 0.908423 0)
(-0.960559 1.1407 0)
(-0.891592 0.981493 0)
(-0.733084 0.80323 0)
(-0.61521 0.714294 0)
(-0.537733 0.657129 0)
(-0.447953 0.623211 0)
(-0.354902 0.617328 0)
(-0.264699 0.637619 0)
(-0.171198 0.684167 0)
(-0.0729117 0.747749 0)
(0.0196881 0.807868 0)
(0.0997454 0.861532 0)
(0.158173 0.921568 0)
(0.197163 1.00282 0)
(0.209067 1.11155 0)
(0.169535 1.19305 0)
(0.059983 1.17252 0)
(0.0162926 0.631891 0)
(0.0283326 0.686072 0)
(-0.0292597 0.801169 0)
(-0.143634 0.912179 0)
(-0.267415 0.946791 0)
(-0.391875 0.894936 0)
(-0.529099 0.921388 0)
(-0.666721 0.919717 0)
(-0.777627 0.890269 0)
(-0.847764 0.804118 0)
(-0.836602 0.739572 0)
(-0.71789 0.884506 0)
(-0.814884 1.04863 0)
(-0.82614 1.1647 0)
(-0.788516 0.895806 0)
(-0.721775 0.731045 0)
(-0.641279 0.664665 0)
(-0.565359 0.607472 0)
(-0.490791 0.559348 0)
(-0.405862 0.558185 0)
(-0.326335 0.575126 0)
(-0.244836 0.614067 0)
(-0.156 0.671722 0)
(-0.0623201 0.73523 0)
(0.0304075 0.798484 0)
(0.113557 0.8771 0)
(0.178563 0.981616 0)
(0.196703 1.13928 0)
(0.149418 1.2799 0)
(0.0457852 1.2902 0)
(0.00984662 0.586748 0)
(-0.0204278 0.689286 0)
(-0.0994573 0.89146 0)
(-0.200273 1.0096 0)
(-0.295009 1.04929 0)
(-0.431971 1.02561 0)
(-0.595203 1.01384 0)
(-0.761294 1.00324 0)
(-0.920067 0.979808 0)
(-1.03352 0.906363 0)
(-1.04328 0.831815 0)
(-0.873349 0.894696 0)
(-0.730596 1.13081 0)
(-0.6426 1.18285 0)
(-0.638556 0.90589 0)
(-0.660819 0.709795 0)
(-0.620221 0.627472 0)
(-0.554146 0.575584 0)
(-0.503673 0.527473 0)
(-0.447541 0.523985 0)
(-0.381904 0.545807 0)
(-0.314216 0.580181 0)
(-0.242322 0.626831 0)
(-0.161885 0.679099 0)
(-0.0735023 0.733275 0)
(0.0190103 0.810165 0)
(0.102291 0.93663 0)
(0.129795 1.16418 0)
(0.0844358 1.36835 0)
(0.0163731 1.37368 0)
(-0.0211622 0.558514 0)
(-0.0796534 0.748634 0)
(-0.159873 0.93283 0)
(-0.226774 1.04244 0)
(-0.313305 1.10143 0)
(-0.455502 1.12792 0)
(-0.605932 1.1485 0)
(-0.812372 1.14936 0)
(-1.01146 1.10055 0)
(-1.14082 0.950964 0)
(-1.17389 0.913419 0)
(-1.06218 0.910071 0)
(-0.803881 1.03855 0)
(-0.547071 1.12469 0)
(-0.491718 0.963376 0)
(-0.552584 0.723877 0)
(-0.561773 0.603885 0)
(-0.530121 0.554677 0)
(-0.498457 0.517281 0)
(-0.465197 0.506602 0)
(-0.420691 0.522538 0)
(-0.367089 0.556209 0)
(-0.30926 0.599751 0)
(-0.24728 0.645972 0)
(-0.180957 0.692832 0)
(-0.108319 0.759749 0)
(-0.0326898 0.904185 0)
(0.00248712 1.19368 0)
(-0.0241495 1.44172 0)
(-0.0221579 1.40436 0)
(-0.06733 0.581193 0)
(-0.105215 0.770307 0)
(-0.157985 0.940006 0)
(-0.241211 1.12246 0)
(-0.350003 1.24067 0)
(-0.500127 1.26069 0)
(-0.633304 1.24279 0)
(-0.769346 1.24336 0)
(-0.958348 1.23214 0)
(-1.11083 0.996711 0)
(-1.19178 0.947325 0)
(-1.13391 0.930256 0)
(-0.948312 0.925859 0)
(-0.674674 0.985275 0)
(-0.477177 0.964083 0)
(-0.468002 0.762702 0)
(-0.506941 0.606525 0)
(-0.509247 0.538976 0)
(-0.488883 0.499586 0)
(-0.462129 0.485919 0)
(-0.426739 0.498891 0)
(-0.383357 0.531379 0)
(-0.337549 0.57815 0)
(-0.29363 0.630312 0)
(-0.256314 0.685457 0)
(-0.225132 0.750997 0)
(-0.189135 0.894147 0)
(-0.144889 1.21876 0)
(-0.139394 1.47828 0)
(-0.0501887 1.35864 0)
(-0.0710748 0.650001 0)
(-0.102956 0.727321 0)
(-0.166025 0.97121 0)
(-0.254808 1.24043 0)
(-0.360965 1.38551 0)
(-0.490972 1.40319 0)
(-0.631014 1.3527 0)
(-0.76351 1.31659 0)
(-0.893304 1.29388 0)
(-1.05653 1.09716 0)
(-1.14835 0.910449 0)
(-1.11761 0.903179 0)
(-1.00607 0.881399 0)
(-0.827605 0.861935 0)
(-0.613863 0.85459 0)
(-0.482746 0.750754 0)
(-0.478349 0.620223 0)
(-0.491582 0.53044 0)
(-0.48221 0.479272 0)
(-0.459156 0.458415 0)
(-0.425484 0.465412 0)
(-0.383416 0.496818 0)
(-0.340559 0.550924 0)
(-0.307267 0.620146 0)
(-0.289345 0.696903 0)
(-0.296987 0.783725 0)
(-0.311669 0.915587 0)
(-0.268282 1.22663 0)
(-0.221207 1.47467 0)
(-0.0644473 1.26505 0)
(0.0160776 0.68004 0)
(-0.023067 0.82561 0)
(-0.168442 1.07763 0)
(-0.198754 1.35768 0)
(-0.324575 1.50226 0)
(-0.429818 1.52514 0)
(-0.561818 1.47421 0)
(-0.722927 1.39449 0)
(-0.860462 1.32183 0)
(-0.981853 1.19503 0)
(-1.04545 0.858084 0)
(-1.04175 0.834187 0)
(-0.968886 0.81838 0)
(-0.868427 0.788526 0)
(-0.723099 0.756838 0)
(-0.587004 0.691776 0)
(-0.508237 0.59574 0)
(-0.495522 0.522622 0)
(-0.486866 0.461734 0)
(-0.465807 0.432271 0)
(-0.430689 0.430321 0)
(-0.38571 0.458266 0)
(-0.336402 0.519022 0)
(-0.302153 0.610968 0)
(-0.295714 0.709083 0)
(-0.307563 0.824952 0)
(-0.345559 0.96018 0)
(-0.32894 1.21138 0)
(-0.255275 1.4382 0)
(-0.0592966 1.15607 0)
(0.0145594 0.696697 0)
(-0.0280041 0.885553 0)
(-0.0505354 1.17269 0)
(-0.173382 1.49947 0)
(-0.280716 1.60787 0)
(-0.369725 1.61505 0)
(-0.465294 1.58097 0)
(-0.60146 1.49109 0)
(-0.788962 1.36833 0)
(-0.880195 1.19244 0)
(-0.906661 0.832418 0)
(-0.938363 0.772905 0)
(-0.912611 0.75521 0)
(-0.849278 0.713509 0)
(-0.763676 0.673848 0)
(-0.657116 0.620826 0)
(-0.574738 0.552951 0)
(-0.525499 0.494439 0)
(-0.503197 0.446893 0)
(-0.477736 0.413261 0)
(-0.43983 0.404032 0)
(-0.393889 0.4236 0)
(-0.347096 0.479022 0)
(-0.291299 0.578036 0)
(-0.274749 0.685362 0)
(-0.304471 0.834197 0)
(-0.339054 0.991098 0)
(-0.312683 1.16005 0)
(-0.222201 1.34732 0)
(-0.053963 1.03975 0)
(0.00274883 0.732914 0)
(-0.0375618 0.989431 0)
(-0.0752191 1.32297 0)
(-0.214541 1.67453 0)
(-0.299213 1.69957 0)
(-0.358058 1.66562 0)
(-0.392533 1.63102 0)
(-0.449377 1.57994 0)
(-0.597607 1.47281 0)
(-0.730419 1.20113 0)
(-0.775006 0.853881 0)
(-0.844086 0.756204 0)
(-0.857001 0.707078 0)
(-0.822336 0.652707 0)
(-0.764856 0.599363 0)
(-0.692133 0.549441 0)
(-0.619789 0.502363 0)
(-0.564803 0.454372 0)
(-0.521831 0.41665 0)
(-0.490246 0.390737 0)
(-0.462671 0.378676 0)
(-0.430349 0.393415 0)
(-0.383573 0.435243 0)
(-0.333531 0.527572 0)
(-0.290747 0.687722 0)
(-0.28709 0.849329 0)
(-0.288904 0.976046 0)
(-0.250156 1.1017 0)
(-0.15981 1.23253 0)
(-0.0408058 0.93628 0)
(-0.0298823 0.889417 0)
(-0.0858292 1.14839 0)
(-0.178198 1.5051 0)
(-0.305757 1.81778 0)
(-0.354002 1.76012 0)
(-0.357647 1.68099 0)
(-0.331964 1.62669 0)
(-0.304379 1.61158 0)
(-0.323798 1.58586 0)
(-0.517116 1.29493 0)
(-0.653506 0.934729 0)
(-0.764049 0.787559 0)
(-0.812269 0.684745 0)
(-0.798893 0.604278 0)
(-0.755348 0.538224 0)
(-0.700615 0.486161 0)
(-0.640798 0.447511 0)
(-0.585615 0.415692 0)
(-0.542301 0.384409 0)
(-0.508354 0.371483 0)
(-0.4865 0.370799 0)
(-0.468317 0.369753 0)
(-0.41808 0.401813 0)
(-0.350061 0.471982 0)
(-0.280304 0.641767 0)
(-0.247677 0.845553 0)
(-0.243473 0.950342 0)
(-0.21352 1.03743 0)
(-0.127231 1.12247 0)
(-0.0468662 0.859787 0)
(-0.0889309 1.15416 0)
(-0.217607 1.3368 0)
(-0.381254 1.67747 0)
(-0.436104 1.87607 0)
(-0.395906 1.7513 0)
(-0.317243 1.64713 0)
(-0.23786 1.59047 0)
(-0.155274 1.58971 0)
(-0.0628667 1.63221 0)
(-0.202314 1.5861 0)
(-0.543957 1.14836 0)
(-0.74062 0.854772 0)
(-0.803471 0.680737 0)
(-0.794103 0.563053 0)
(-0.748878 0.482228 0)
(-0.697556 0.428686 0)
(-0.643649 0.392111 0)
(-0.589663 0.366674 0)
(-0.543344 0.347709 0)
(-0.507376 0.34184 0)
(-0.473461 0.345347 0)
(-0.428094 0.340473 0)
(-0.373476 0.357545 0)
(-0.333062 0.433388 0)
(-0.305383 0.604023 0)
(-0.281153 0.837855 0)
(-0.255697 0.937303 0)
(-0.209923 0.983847 0)
(-0.137708 1.03592 0)
(-0.0400883 0.772894 0)
(-0.191286 1.38732 0)
(-0.367557 1.50884 0)
(-0.501618 1.76641 0)
(-0.512786 1.80977 0)
(-0.390513 1.67665 0)
(-0.272073 1.57681 0)
(-0.154919 1.54012 0)
(-0.0211462 1.53647 0)
(0.0753776 1.61254 0)
(-0.133592 1.73497 0)
(-0.596729 1.36311 0)
(-0.848581 0.954683 0)
(-0.846979 0.65767 0)
(-0.816998 0.508407 0)