/*--------------------------------*- C++ -*----------------------------------*\
| =========                 |                                                 |
| \\      /  F ield         | OpenFOAM: The Open Source CFD Toolbox           |
|  \\    /   O peration     | Version:  2.3.0                                 |
|   \\  /    A nd           | Web:      www.OpenFOAM.org                      |
|    \\/     M anipulation  |                                                 |
\*---------------------------------------------------------------------------*/
FoamFile
{
    version     2.0;
    format      ascii;
    class       volScalarField;
    location    "3.39999";
    object      alpha.water;
}
// * * * * * * * * * * * * * * * * * * * * * * * * * * * * * * * * * * * * * //

dimensions      [0 0 0 0 0 0 0];

internalField   nonuniform List<scalar> 
10000
(
0.996787
0.997152
0.996813
0.991669
0.756278
0.703521
0.65439
0.509784
0.493254
0.563715
0.492706
0.38991
0.364053
0.459181
0.536151
0.833012
0.991582
0.996589
0.996931
0.99647
1
1
1
0.999997
0.608036
0.751513
0.705857
0.794996
0.773136
0.724634
0.749184
0.132509
0.074893
0.0934361
0.150846
0.720534
0.994578
1
1
1
1
1
1
0.999997
0.971175
0.794228
0.644866
0.615878
0.623586
0.644992
0.691353
0.622619
0.452117
0.474087
0.547695
0.983391
0.999962
1
1
1
1
1
1
0.999994
0.990013
0.640873
0.602616
0.625733
0.625249
0.602148
0.630376
0.594115
0.687732
0.675658
0.697635
0.992187
0.999997
1
1
1
1
1
1
0.999994
0.991016
0.664331
0.624344
0.618279
0.571285
0.660009
0.608477
0.664859
0.63491
0.610189
0.677414
0.993663
1
1
1
1
1
1
1
0.999995
0.992678
0.679115
0.608297
0.603659
0.59802
0.621826
0.578408
0.660706
0.634617
0.660524
0.698618
0.995995
1
1
1
1
1
1
1
0.999999
0.996471
0.668441
0.620771
0.66418
0.621306
0.652482
0.634088
0.649409
0.659055
0.655069
0.733514
0.998661
1
1
1
1
1
1
1
1
0.999463
0.783109
0.673561
0.615758
0.639349
0.638718
0.616946
0.640701
0.666489
0.803587
0.871239
0.999788
1
1
1
1
1
1
1
1
0.999996
0.99937
0.99898
0.998588
0.998521
0.998377
0.998253
0.998127
0.998152
0.999349
0.999527
0.999998
1
1
1
1
1
1
1
1
1
1
1
1
1
1
1
1
1
1
1
1
1
1
1
1
1
1
1
1
1
1
1
1
1
1
1
1
1
1
1
1
1
1
1
1
1
1
1
1
1
1
1
1
1
1
1
1
1
1
1
1
1
1
1
1
1
1
1
1
1
1
1
1
1
1
1
1
1
1
1
1
1
1
1
1
1
1
1
1
1
1
1
1
1
1
1
1
1
1
1
1
1
1
1
1
1
1
1
1
1
1
1
1
1
1
1
1
1
1
1
1
1
1
1
1
1
1
1
1
1
1
1
1
1
1
1
1
1
1
1
1
1
1
1
1
1
1
1
1
1
1
1
1
1
1
1
1
1
1
1
1
1
1
1
1
1
1
1
1
1
1
1
1
1
1
1
1
1
1
1
1
1
1
1
1
1
1
1
1
1
1
1
1
1
1
1
1
1
1
1
1
1
1
1
1
1
1
1
1
1
1
1
1
1
1
1
1
1
1
1
1
1
1
1
1
0.99672
0.997102
0.996742
0.990471
0.746263
0.701558
0.650523
0.503671
0.476254
0.559795
0.480315
0.383631
0.353007
0.455301
0.532572
0.819687
0.991915
0.996538
0.996893
0.996404
1
1
1
0.999995
0.580677
0.75175
0.706093
0.79699
0.775481
0.72525
0.752175
0.127976
0.0670997
0.0877664
0.141695
0.67469
0.993029
1
1
1
1
1
1
0.999996
0.962036
0.798944
0.645892
0.615666
0.623529
0.646764
0.692648
0.62854
0.437049
0.469945
0.535232
0.981914
0.999966
1
1
1
1
1
1
0.999993
0.989849
0.640224
0.60238
0.625872
0.626456
0.600885
0.630848
0.59156
0.68986
0.678355
0.699287
0.992258
0.999998
1
1
1
1
1
1
0.999993
0.99073
0.663146
0.624707
0.618702
0.571085
0.660988
0.608488
0.66491
0.635032
0.608018
0.677319
0.993089
1
1
1
1
1
1
1
0.999994
0.992344
0.679605
0.608348
0.602754
0.597027
0.621148
0.577333
0.661075
0.633885
0.66085
0.697477
0.994765
1
1
1
1
1
1
1
0.999999
0.996267
0.66726
0.62052
0.665041
0.620325
0.652877
0.634577
0.649919
0.658861
0.6529
0.72879
0.99809
1
1
1
1
1
1
1
1
0.999317
0.772984
0.667353
0.610227
0.632539
0.631184
0.609719
0.631489
0.65513
0.794579
0.862113
0.999647
1
1
1
1
1
1
1
1
0.999995
0.999321
0.99894
0.998544
0.998465
0.998305
0.998179
0.998023
0.998015
0.999306
0.999484
0.999998
1
1
1
1
1
1
1
1
1
1
1
1
1
1
1
1
1
1
1
1
1
1
1
1
1
1
1
1
1
1
1
1
1
1
1
1
1
1
1
1
1
1
1
1
1
1
1
1
1
1
1
1
1
1
1
1
1
1
1
1
1
1
1
1
1
1
1
1
1
1
1
1
1
1
1
1
1
1
1
1
1
1
1
1
1
1
1
1
1
1
1
1
1
1
1
1
1
1
1
1
1
1
1
1
1
1
1
1
1
1
1
1
1
1
1
1
1
1
1
1
1
1
1
1
1
1
1
1
1
1
1
1
1
1
1
1
1
1
1
1
1
1
1
1
1
1
1
1
1
1
1
1
1
1
1
1
1
1
1
1
1
1
1
1
1
1
1
1
1
1
1
1
1
1
1
1
1
1
1
1
1
1
1
1
1
1
1
1
1
1
1
1
1
1
1
1
1
1
1
1
1
1
1
1
1
1
1
1
1
1
1
1
1
1
1
1
1
1
1
1
1
1
1
1
0.99669
0.997079
0.996697
0.989629
0.740654
0.700636
0.648518
0.501052
0.465698
0.558208
0.474462
0.380208
0.3477
0.459367
0.543483
0.812098
0.992151
0.996504
0.996872
0.996377
1
1
1
0.999826
0.557183
0.751845
0.706266
0.798074
0.776744
0.725612
0.754254
0.12458
0.0631889
0.0846086
0.138629
0.642978
0.994496
1
1
1
1
1
1
0.999997
0.95571
0.802675
0.646473
0.615575
0.623481
0.647799
0.693535
0.633202
0.429625
0.468378
0.532093
0.979937
0.999973
1
1
1
1
1
1
0.999994
0.989753
0.639872
0.602238
0.625944
0.627117
0.600169
0.631122
0.590109
0.691016
0.679909
0.700359
0.992179
0.999999
1
1
1
1
1
1
0.999993
0.990594
0.662567
0.624911
0.618943
0.570992
0.661538
0.60849
0.664937
0.635127
0.606852
0.677135
0.992709
1
1
1
1
1
1
1
0.999995
0.992101
0.679916
0.608374
0.60226
0.596466
0.620768
0.576738
0.66124
0.633369
0.661066
0.696967
0.993885
1
1
1
1
1
1
1
0.999999
0.996035
0.666764
0.620404
0.665559
0.619805
0.653197
0.634935
0.650396
0.658995
0.651837
0.726384
0.997661
1
1
1
1
1
1
1
1
0.999154
0.767251
0.664055
0.607238
0.628922
0.627102
0.605802
0.626469
0.649026
0.789675
0.856733
0.999525
1
1
1
1
1
1
1
1
0.999995
0.999292
0.998917
0.99852
0.998437
0.998269
0.998139
0.99797
0.997936
0.999287
0.999456
0.999998
1
1
1
1
1
1
1
1
1
1
1
1
1
1
1
1
1
1
1
1
1
1
1
1
1
1
1
1
1
1
1
1
1
1
1
1
1
1
1
1
1
1
1
1
1
1
1
1
1
1
1
1
1
1
1
1
1
1
1
1
1
1
1
1
1
1
1
1
1
1
1
1
1
1
1
1
1
1
1
1
1
1
1
1
1
1
1
1
1
1
1
1
1
1
1
1
1
1
1
1
1
1
1
1
1
1
1
1
1
1
1
1
1
1
1
1
1
1
1
1
1
1
1
1
1
1
1
1
1
1
1
1
1
1
1
1
1
1
1
1
1
1
1
1
1
1
1
1
1
1
1
1
1
1
1
1
1
1
1
1
1
1
1
1
1
1
1
1
1
1
1
1
1
1
1
1
1
1
1
1
1
1
1
1
1
1
1
1
1
1
1
1
1
1
1
1
1
1
1
1
1
1
1
1
1
1
1
1
1
1
1
1
1
1
1
1
1
1
1
1
1
1
1
1
0.996743
0.997124
0.996714
0.989046
0.736389
0.699997
0.646677
0.491363
0.45388
0.55638
0.468257
0.377869
0.34434
0.463454
0.554038
0.807996
0.992515
0.996543
0.996921
0.996448
1
1
0.999999
0.996906
0.521858
0.752155
0.706525
0.799248
0.778128
0.72606
0.75688
0.121447
0.0589334
0.080761
0.133789
0.603945
0.997414
1
1
1
1
1
1
0.999987
0.948842
0.807435
0.647218
0.615506
0.623437
0.649034
0.694799
0.638241
0.420741
0.46559
0.527969
0.97638
0.999988
1
1
1
1
1
1
0.999994
0.989597
0.639464
0.602077
0.62602
0.627843
0.599365
0.631428
0.588455
0.692284
0.681676
0.70161
0.992052
0.999999
1
1
1
1
1
1
0.999993
0.990389
0.661978
0.625141
0.619212
0.570906
0.662155
0.608495
0.664986
0.635249
0.605584
0.676842
0.992302
1
1
1
1
1
1
1
0.999995
0.991608
0.680243
0.608406
0.601709
0.595835
0.62034
0.576079
0.661398
0.632817
0.661318
0.696483
0.992903
1
1
1
1
1
1
1
0.999999
0.995577
0.666297
0.620295
0.666157
0.619248
0.653602
0.635376
0.650992
0.65925
0.650737
0.723752
0.997215
1
1
1
1
1
1
1
1
0.998959
0.760785
0.660474
0.603967
0.624996
0.622625
0.601511
0.620962
0.642276
0.784262
0.850452
0.999398
1
1
1
1
1
1
1
1
0.999993
0.999257
0.99889
0.998492
0.998403
0.998222
0.998095
0.997905
0.99784
0.999264
0.999419
0.999997
1
1
1
1
1
1
1
1
1
1
1
1
1
1
1
1
1
1
1
1
1
1
1
1
1
1
1
1
1
1
1
1
1
1
1
1
1
1
1
1
1
1
1
1
1
1
1
1
1
1
1
1
1
1
1
1
1
1
1
1
1
1
1
1
1
1
1
1
1
1
1
1
1
1
1
1
1
1
1
1
1
1
1
1
1
1
1
1
1
1
1
1
1
1
1
1
1
1
1
1
1
1
1
1
1
1
1
1
1
1
1
1
1
1
1
1
1
1
1
1
1
1
1
1
1
1
1
1
1
1
1
1
1
1
1
1
1
1
1
1
1
1
1
1
1
1
1
1
1
1
1
1
1
1
1
1
1
1
1
1
1
1
1
1
1
1
1
1
1
1
1
1
1
1
1
1
1
1
1
1
1
1
1
1
1
1
1
1
1
1
1
1
1
1
1
1
1
1
1
1
1
1
1
1
1
1
1
1
1
1
1
1
1
1
1
1
1
1
1
1
1
1
1
1
0.996763
0.997144
0.996715
0.988855
0.731568
0.698948
0.644323
0.477978
0.442797
0.554055
0.463055
0.376175
0.342384
0.465762
0.564592
0.805677
0.992621
0.996556
0.996941
0.996481
1
1
0.999999
0.988541
0.481817
0.752811
0.706806
0.800336
0.779418
0.726451
0.759673
0.118249
0.0551961
0.0769345
0.127287
0.572114
0.999028
1
1
1
1
1
1
0.999956
0.943902
0.811701
0.6479
0.615414
0.623366
0.650154
0.695907
0.642951
0.412734
0.462983
0.519334
0.970744
0.999995
1
1
1
1
1
1
0.999995
0.989475
0.639115
0.601946
0.626097
0.628525
0.598625
0.631729
0.586923
0.693465
0.683376
0.702804
0.991835
0.999999
1
1
1
1
1
1
0.999993
0.990154
0.661443
0.625356
0.619466
0.570844
0.662733
0.608464
0.665013
0.635395
0.604417
0.676495
0.99186
1
1
1
1
1
1
1
0.999995
0.990914
0.680583
0.608448
0.601196
0.595233
0.619943
0.575475
0.661542
0.632294
0.661572
0.696136
0.992074
1
1
1
1
1
1
1
0.999999
0.994986
0.665954
0.62021
0.666739
0.618742
0.654036
0.635842
0.651648
0.659652
0.649797
0.721379
0.996849
1
1
1
1
1
1
1
1
0.998746
0.754729
0.657271
0.601024
0.621495
0.618581
0.597637
0.615971
0.636136
0.779359
0.844439
0.999297
1
1
1
1
1
1
1
1
0.999991
0.999226
0.99887
0.998471
0.998376
0.998181
0.998063
0.997849
0.997762
0.999246
0.999385
0.999996
1
1
1
1
1
1
1
1
1
1
1
1
1
1
1
1
1
1
1
1
1
1
1
1
1
1
1
1
1
1
1
1
1
1
1
1
1
1
1
1
1
1
1
1
1
1
1
1
1
1
1
1
1
1
1
1
1
1
1
1
1
1
1
1
1
1
1
1
1
1
1
1
1
1
1
1
1
1
1
1
1
1
1
1
1
1
1
1
1
1
1
1
1
1
1
1
1
1
1
1
1
1
1
1
1
1
1
1
1
1
1
1
1
1
1
1
1
1
1
1
1
1
1
1
1
1
1
1
1
1
1
1
1
1
1
1
1
1
1
1
1
1
1
1
1
1
1
1
1
1
1
1
1
1
1
1
1
1
1
1
1
1
1
1
1
1
1
1
1
1
1
1
1
1
1
1
1
1
1
1
1
1
1
1
1
1
1
1
1
1
1
1
1
1
1
1
1
1
1
1
1
1
1
1
1
1
1
1
1
1
1
1
1
1
1
1
1
1
1
1
1
1
1
1
0.996789
0.997172
0.996724
0.989708
0.726321
0.698135
0.641984
0.460861
0.432344
0.551925
0.458551
0.374156
0.341747
0.466626
0.574838
0.805746
0.992311
0.996575
0.996969
0.996523
1
1
0.999999
0.989875
0.454609
0.754245
0.707098
0.801428
0.780677
0.726866
0.762641
0.115041
0.051684
0.0728747
0.118614
0.550334
0.999371
1
1
1
1
1
1
0.999954
0.944525
0.815441
0.648646
0.615345
0.623302
0.651309
0.697058
0.647419
0.404618
0.459924
0.508112
0.963096
0.999997
1
1
1
1
1
1
0.999995
0.989382
0.638804
0.601816
0.626171
0.629192
0.597894
0.632023
0.585377
0.69461
0.685085
0.703912
0.991567
1
1
1
1
1
1
1
0.999993
0.989803
0.660931
0.625572
0.619719
0.570797
0.663307
0.60844
0.66505
0.635557
0.60328
0.676165
0.991394
1
1
1
1
1
1
1
0.999994
0.989979
0.680917
0.608489
0.600687
0.59463
0.619551
0.574883
0.66167
0.631773
0.661832
0.695884
0.991475
1
1
1
1
1
1
1
0.999999
0.994314
0.665678
0.620142
0.667333
0.618267
0.654511
0.636342
0.652364
0.660162
0.648943
0.719068
0.996559
1
1
1
1
1
1
1
1
0.998555
0.74871
0.654213
0.59821
0.618155
0.614688
0.593902
0.611162
0.630197
0.774624
0.838389
0.999218
1
1
1
1
1
1
1
1
0.99999
0.999203
0.99886
0.998457
0.998357
0.998153
0.998046
0.99781
0.997715
0.999234
0.999362
0.999995
1
1
1
1
1
1
1
1
1
1
1
1
1
1
1
1
1
1
1
1
1
1
1
1
1
1
1
1
1
1
1
1
1
1
1
1
1
1
1
1
1
1
1
1
1
1
1
1
1
1
1
1
1
1
1
1
1
1
1
1
1
1
1
1
1
1
1
1
1
1
1
1
1
1
1
1
1
1
1
1
1
1
1
1
1
1
1
1
1
1
1
1
1
1
1
1
1
1
1
1
1
1
1
1
1
1
1
1
1
1
1
1
1
1
1
1
1
1
1
1
1
1
1
1
1
1
1
1
1
1
1
1
1
1
1
1
1
1
1
1
1
1
1
1
1
1
1
1
1
1
1
1
1
1
1
1
1
1
1
1
1
1
1
1
1
1
1
1
1
1
1
1
1
1
1
1
1
1
1
1
1
1
1
1
1
1
1
1
1
1
1
1
1
1
1
1
1
1
1
1
1
1
1
1
1
1
1
1
1
1
1
1
1
1
1
1
1
1
1
1
1
1
1
1
0.996811
0.997199
0.996728
0.990254
0.721481
0.697248
0.639377
0.443336
0.423077
0.549942
0.454991
0.371794
0.341843
0.466607
0.583095
0.81004
0.991896
0.99659
0.996994
0.996564
1
1
1
0.992316
0.430545
0.755885
0.707384
0.802493
0.78187
0.727269
0.765753
0.111828
0.0484652
0.0688637
0.109908
0.52638
0.99933
1
1
1
1
1
1
0.999959
0.94461
0.818324
0.649369
0.615278
0.62323
0.652413
0.698138
0.651808
0.396889
0.457158
0.500353
0.953996
0.999997
1
1
1
1
1
1
0.999996
0.989181
0.638566
0.601699
0.626245
0.629826
0.597201
0.63231
0.583883
0.695694
0.686757
0.704789
0.991276
1
1
1
1
1
1
1
0.999994
0.98931
0.660435
0.625781
0.619963
0.570767
0.663857
0.608388
0.665079
0.635736
0.602196
0.675783
0.990948
1
1
1
1
1
1
1
0.999994
0.989095
0.681255
0.608532
0.600204
0.59404
0.619178
0.574326
0.661792
0.631268
0.66209
0.69571
0.991142
1
1
1
1
1
1
1
0.999999
0.993752
0.665468
0.62009
0.667918
0.617825
0.655006
0.636858
0.653109
0.660766
0.648193
0.71691
0.996334
1
1
1
1
1
1
1
1
0.998395
0.742927
0.651407
0.59564
0.615082
0.611063
0.590419
0.606673
0.62463
0.77024
0.832624
0.999152
1
1
1
1
1
1
1
1
0.999989
0.999191
0.99886
0.998455
0.998352
0.998146
0.998046
0.997801
0.997708
0.999231
0.999354
0.999995
1
1
1
1
1
1
1
1
1
1
1
1
1
1
1
1
1
1
1
1
1
1
1
1
1
1
1
1
1
1
1
1
1
1
1
1
1
1
1
1
1
1
1
1
1
1
1
1
1
1
1
1
1
1
1
1
1
1
1
1
1
1
1
1
1
1
1
1
1
1
1
1
1
1
1
1
1
1
1
1
1
1
1
1
1
1
1
1
1
1
1
1
1
1
1
1
1
1
1
1
1
1
1
1
1
1
1
1
1
1
1
1
1
1
1
1
1
1
1
1
1
1
1
1
1
1
1
1
1
1
1
1
1
1
1
1
1
1
1
1
1
1
1
1
1
1
1
1
1
1
1
1
1
1
1
1
1
1
1
1
1
1
1
1
1
1
1
1
1
1
1
1
1
1
1
1
1
1
1
1
1
1
1
1
1
1
1
1
1
1
1
1
1
1
1
1
1
1
1
1
1
1
1
1
1
1
1
1
1
1
1
1
1
1
1
1
1
1
1
1
1
1
1
1
0.996833
0.997227
0.996735
0.991012
0.717251
0.696384
0.636638
0.426559
0.41417
0.548295
0.45225
0.368457
0.341499
0.460758
0.58832
0.813457
0.991239
0.996604
0.99702
0.996605
1
1
1
0.995026
0.40676
0.757773
0.707693
0.803566
0.783015
0.727685
0.769007
0.108576
0.0453448
0.0648009
0.10202
0.501655
0.998054
1
1
1
1
1
1
0.99997
0.942166
0.820561
0.650101
0.615223
0.623161
0.653519
0.699169
0.656493
0.389431
0.454808
0.493068
0.94305
0.999991
1
1
1
1
1
1
0.999997
0.988731
0.638384
0.601585
0.626318
0.630438
0.596527
0.632598
0.582421
0.69673
0.688413
0.705365
0.990952
1
1
1
1
1
1
1
0.999994
0.988678
0.659951
0.625988
0.620203
0.570748
0.664395
0.608328
0.665112
0.63593
0.601145
0.675396
0.990582
1
1
1
1
1
1
1
0.999994
0.988489
0.681587
0.608573
0.599737
0.593476
0.618816
0.573788
0.661904
0.630772
0.662348
0.695571
0.99103
1
1
1
1
1
1
1
0.999999
0.993414
0.665295
0.620049
0.668502
0.617412
0.655522
0.637392
0.653884
0.661448
0.647525
0.714846
0.996148
1
1
1
1
1
1
1
1
0.998256
0.737325
0.648818
0.593304
0.612235
0.607695
0.587182
0.6025
0.619434
0.766141
0.827147
0.999087
1
1
1
1
1
1
1
1
0.999989
0.999181
0.998862
0.998454
0.998348
0.998141
0.998044
0.997794
0.997705
0.999226
0.999346
0.999995
1
1
1
1
1
1
1
1
1
1
1
1
1
1
1
1
1
1
1
1
1
1
1
1
1
1
1
1
1
1
1
1
1
1
1
1
1
1
1
1
1
1
1
1
1
1
1
1
1
1
1
1
1
1
1
1
1
1
1
1
1
1
1
1
1
1
1
1
1
1
1
1
1
1
1
1
1
1
1
1
1
1
1
1
1
1
1
1
1
1
1
1
1
1
1
1
1
1
1
1
1
1
1
1
1
1
1
1
1
1
1
1
1
1
1
1
1
1
1
1
1
1
1
1
1
1
1
1
1
1
1
1
1
1
1
1
1
1
1
1
1
1
1
1
1
1
1
1
1
1
1
1
1
1
1
1
1
1
1
1
1
1
1
1
1
1
1
1
1
1
1
1
1
1
1
1
1
1
1
1
1
1
1
1
1
1
1
1
1
1
1
1
1
1
1
1
1
1
1
1
1
1
1
1
1
1
1
1
1
1
1
1
1
1
1
1
1
1
1
1
1
1
1
1
0.996855
0.997258
0.99674
0.991824
0.713747
0.695422
0.633594
0.412189
0.406149
0.547054
0.450471
0.364456
0.34088
0.452426
0.590518
0.819394
0.990671
0.996615
0.997047
0.996645
1
1
1
0.997018
0.384534
0.759991
0.708015
0.804616
0.784091
0.728093
0.772378
0.105305
0.0423908
0.0608475
0.0946467
0.493174
0.995045
1
1
1
1
1
1
0.999981
0.93755
0.822381
0.650785
0.615173
0.623089
0.654576
0.700135
0.661809
0.382616
0.453245
0.485648
0.930249
0.99998
1
1
1
1
1
1
0.999997
0.987921
0.638222
0.60148
0.626389
0.631018
0.595888
0.632883
0.581025
0.697712
0.690026
0.705862
0.990549
1
1
1
1
1
1
1
0.999994
0.987989
0.659486
0.626189
0.620434
0.570739
0.664908
0.608242
0.665141
0.636136
0.60014
0.675049
0.990356
1
1
1
1
1
1
1
0.999994
0.988222
0.681917
0.608613
0.599302
0.59294
0.61847
0.573283
0.662009
0.630291
0.6626
0.695414
0.991031
1
1
1
1
1
1
1
0.999999
0.993292
0.665159
0.620018
0.669068
0.617025
0.656042
0.637928
0.654666
0.662186
0.646941
0.712927
0.995977
1
1
1
1
1
1
1
1
0.998118
0.732014
0.646482
0.591224
0.609658
0.604628
0.584231
0.59869
0.61466
0.762406
0.822126
0.999013
1
1
1
1
1
1
1
1
0.99999
0.999173
0.998863
0.998456
0.998347
0.99814
0.998042
0.997792
0.997711
0.999225
0.999341
0.999996
1
1
1
1
1
1
1
1
1
1
1
1
1
1
1
1
1
1
1
1
1
1
1
1
1
1
1
1
1
1
1
1
1
1
1
1
1
1
1
1
1
1
1
1
1
1
1
1
1
1
1
1
1
1
1
1
1
1
1
1
1
1
1
1
1
1
1
1
1
1
1
1
1
1
1
1
1
1
1
1
1
1
1
1
1
1
1
1
1
1
1
1
1
1
1
1
1
1
1
1
1
1
1
1
1
1
1
1
1
1
1
1
1
1
1
1
1
1
1
1
1
1
1
1
1
1
1
1
1
1
1
1
1
1
1
1
1
1
1
1
1
1
1
1
1
1
1
1
1
1
1
1
1
1
1
1
1
1
1
1
1
1
1
1
1
1
1
1
1
1
1
1
1
1
1
1
1
1
1
1
1
1
1
1
1
1
1
1
1
1
1
1
1
1
1
1
1
1
1
1
1
1
1
1
1
1
1
1
1
1
1
1
1
1
1
1
1
1
1
1
1
1
1
1
0.996878
0.997291
0.996744
0.992505
0.710907
0.694415
0.630248
0.399234
0.398522
0.546306
0.449479
0.359072
0.340196
0.443131
0.585498
0.81308
0.990427
0.996623
0.997076
0.996683
1
1
1
0.998196
0.362885
0.762523
0.708338
0.805656
0.785107
0.728503
0.775857
0.102
0.0394195
0.056822
0.0869444
0.479556
0.993348
1
1
1
1
1
1
0.999988
0.931427
0.824169
0.651437
0.615133
0.62302
0.655611
0.701054
0.668116
0.376414
0.452293
0.481133
0.916721
0.999959
1
1
1
1
1
1
0.999997
0.986803
0.638059
0.601378
0.626458
0.631572
0.595273
0.633165
0.57969
0.698645
0.691609
0.706416
0.99005
1
1
1
1
1
1
1
0.999995
0.987401
0.659045
0.626387
0.620658
0.570737
0.665403
0.608143
0.665172
0.636352
0.599173
0.6748
0.99029
1
1
1
1
1
1
1
0.999995
0.988175
0.68224
0.608653
0.598891
0.592427
0.618134
0.572801
0.662103
0.629818
0.66285
0.695147
0.991305
1
1
1
1
1
1
1
0.999999
0.993283
0.665041
0.619993
0.669622
0.616658
0.656568
0.638468
0.655458
0.662971
0.646426
0.711109
0.995796
1
1
1
1
1
1
1
1
0.997959
0.726947
0.644359
0.589356
0.607316
0.601824
0.581536
0.595206
0.610262
0.758966
0.817483
0.998927
1
1
1
1
1
1
1
1
0.999991
0.999164
0.99886
0.998457
0.998346
0.99814
0.998039
0.997791
0.997721
0.999224
0.999335
0.999997
1
1
1
1
1
1
1
1
1
1
1
1
1
1
1
1
1
1
1
1
1
1
1
1
1
1
1
1
1
1
1
1
1
1
1
1
1
1
1
1
1
1
1
1
1
1
1
1
1
1
1
1
1
1
1
1
1
1
1
1
1
1
1
1
1
1
1
1
1
1
1
1
1
1
1
1
1
1
1
1
1
1
1
1
1
1
1
1
1
1
1
1
1
1
1
1
1
1
1
1
1
1
1
1
1
1
1
1
1
1
1
1
1
1
1
1
1
1
1
1
1
1
1
1
1
1
1
1
1
1
1
1
1
1
1
1
1
1
1
1
1
1
1
1
1
1
1
1
1
1
1
1
1
1
1
1
1
1
1
1
1
1
1
1
1
1
1
1
1
1
1
1
1
1
1
1
1
1
1
1
1
1
1
1
1
1
1
1
1
1
1
1
1
1
1
1
1
1
1
1
1
1
1
1
1
1
1
1
1
1
1
1
1
1
1
1
1
1
1
1
1
1
1
1
0.9969
0.997327
0.996746
0.99305
0.708624
0.693272
0.626435
0.387796
0.39195
0.546028
0.44916
0.351797
0.340039
0.434268
0.579685
0.805327
0.990289
0.996626
0.997104
0.996721
1
1
1
0.99891
0.342998
0.765277
0.70866
0.806653
0.786059
0.728898
0.779417
0.0987166
0.0365008
0.0527463
0.0788658
0.457907
0.992333
1
1
1
1
1
1
0.999992
0.922756
0.826239
0.65202
0.615097
0.622951
0.65659
0.701938
0.675435
0.371064
0.451825
0.478267
0.900092
0.999919
1
1
1
1
1
1
0.999998
0.985658
0.637911
0.601281
0.626526
0.632094
0.594695
0.633438
0.578445
0.699527
0.693135
0.707001
0.989571
1
1
1
1
1
1
1
0.999996
0.987087
0.658633
0.626578
0.620874
0.570753
0.665872
0.60802
0.6652
0.636576
0.598254
0.674587
0.990306
1
1
1
1
1
1
1
0.999996
0.988267
0.682557
0.608695
0.598514
0.591941
0.617815
0.572352
0.662191
0.629362
0.663092
0.694651
0.991649
1
1
1
1
1
1
1
0.999999
0.993442
0.664943
0.619972
0.670149
0.616308
0.657084
0.638996
0.656236
0.663777
0.645981
0.709404
0.995589
1
1
1
1
1
1
1
1
0.997775
0.722208
0.64248
0.587727
0.605246
0.599328
0.579149
0.592093
0.606286
0.755875
0.813266
0.998835
1
1
1
1
1
1
1
1
0.999991
0.999157
0.998858
0.998461
0.998352
0.998145
0.998039
0.997796
0.997732
0.999231
0.999331
0.999997
1
1
1
1
1
1
1
1
1
1
1
1
1
1
1
1
1
1
1
1
1
1
1
1
1
1
1
1
1
1
1
1
1
1
1
1
1
1
1
1
1
1
1
1
1
1
1
1
1
1
1
1
1
1
1
1
1
1
1
1
1
1
1
1
1
1
1
1
1
1
1
1
1
1
1
1
1
1
1
1
1
1
1
1
1
1
1
1
1
1
1
1
1
1
1
1
1
1
1
1
1
1
1
1
1
1
1
1
1
1
1
1
1
1
1
1
1
1
1
1
1
1
1
1
1
1
1
1
1
1
1
1
1
1
1
1
1
1
1
1
1
1
1
1
1
1
1
1
1
1
1
1
1
1
1
1
1
1
1
1
1
1
1
1
1
1
1
1
1
1
1
1
1
1
1
1
1
1
1
1
1
1
1
1
1
1
1
1
1
1
1
1
1
1
1
1
1
1
1
1
1
1
1
1
1
1
1
1
1
1
1
1
1
1
1
1
1
1
1
1
1
1
1
1
0.996922
0.997366
0.996745
0.993484
0.707047
0.691997
0.622191
0.377129
0.38609
0.546284
0.452309
0.341458
0.340939
0.425859
0.573245
0.798062
0.989983
0.996626
0.997132
0.996758
1
1
1
0.999353
0.324632
0.768246
0.708985
0.807603
0.78698
0.729284
0.783051
0.0954659
0.0335585
0.0485458
0.0710068
0.442562
0.98977
1
1
1
1
1
1
0.999995
0.912207
0.828846
0.652543
0.615066
0.622887
0.657534
0.702803
0.683649
0.366606
0.451395
0.477359
0.879829
0.999839
1
1
1
1
1
1
0.999998
0.984773
0.637815
0.60119
0.626593
0.632587
0.59415
0.633707
0.577286
0.700362
0.694607
0.707619
0.989251
1
1
1
1
1
1
1
0.999997
0.987016
0.65826
0.626764
0.621084
0.570774
0.666319
0.607879
0.665228
0.636808
0.59738
0.674397
0.990466
1
1
1
1
1
1
1
0.999997
0.988748
0.682865
0.608735
0.598164
0.591478
0.61751
0.571931
0.662273
0.628923
0.663329
0.69397
0.991759
1
1
1
1
1
1
1
1
0.993589
0.664845
0.619955
0.670656
0.615973
0.657592
0.639515
0.656999
0.664595
0.645596
0.707769
0.995361
1
1
1
1
1
1
1
1
0.997577
0.717765
0.640838
0.586341
0.603455
0.597147
0.57709
0.589366
0.602719
0.753103
0.809398
0.998742
1
1
1
1
1
1
1
1
0.999991
0.999152
0.998858
0.998466
0.998382
0.998174
0.998043
0.997835
0.997731
0.999257
0.999329
0.999997
1
1
1
1
1
1
1
1
1
1
1
1
1
1
1
1
1
1
1
1
1
1
1
1
1
1
1
1
1
1
1
1
1
1
1
1
1
1
1
1
1
1
1
1
1
1
1
1
1
1
1
1
1
1
1
1
1
1
1
1
1
1
1
1
1
1
1
1
1
1
1
1
1
1
1
1
1
1
1
1
1
1
1
1
1
1
1
1
1
1
1
1
1
1
1
1
1
1
1
1
1
1
1
1
1
1
1
1
1
1
1
1
1
1
1
1
1
1
1
1
1
1
1
1
1
1
1
1
1
1
1
1
1
1
1
1
1
1
1
1
1
1
1
1
1
1
1
1
1
1
1
1
1
1
1
1
1
1
1
1
1
1
1
1
1
1
1
1
1
1
1
1
1
1
1
1
1
1
1
1
1
1
1
1
1
1
1
1
1
1
1
1
1
1
1
1
1
1
1
1
1
1
1
1
1
1
1
1
1
1
1
1
1
1
1
1
1
1
1
1
1
1
1
1
0.996944
0.997404
0.996737
0.99383
0.705977
0.690483
0.617554
0.368374
0.380751
0.547052
0.459741
0.328135
0.342454
0.418009
0.565217
0.790872
0.989299
0.99662
0.997158
0.996794
1
1
1
0.999634
0.308037
0.771368
0.709312
0.808489
0.787871
0.729657
0.786761
0.0923128
0.0307064
0.0443277
0.0647304
0.427311
0.987402
1
1
1
1
1
1
0.999995
0.899506
0.831938
0.652994
0.615035
0.622831
0.65842
0.703642
0.692251
0.363153
0.450826
0.485077
0.856539
0.999712
1
1
1
1
1
1
0.999998
0.984286
0.637778
0.60111
0.626658
0.633046
0.593647
0.633976
0.576231
0.701153
0.696012
0.708217
0.989139
0.999999
1
1
1
1
1
1
0.999998
0.98716
0.65793
0.626943
0.621285
0.570802
0.666737
0.607713
0.665255
0.637043
0.596565
0.674141
0.990837
1
1
1
1
1
1
1
0.999999
0.98945
0.68316
0.608776
0.597846
0.591041
0.617222
0.571546
0.662351
0.628508
0.663558
0.693222
0.991753
1
1
1
1
1
1
1
1
0.993604
0.664738
0.619942
0.671133
0.615648
0.658083
0.640017
0.657732
0.665413
0.645271
0.706235
0.995117
1
1
1
1
1
1
1
1
0.99738
0.71359
0.639357
0.585073
0.601841
0.595181
0.575225
0.586922
0.599468
0.750608
0.805823
0.998628
1
1
1
1
1
1
1
1
0.999991
0.999261
0.999116
0.998818
0.998695
0.998508
0.998452
0.998187
0.998017
0.999347
0.999364
0.999997
1
1
1
1
1
1
1
1
0.999894
0.997779
0.997744
0.997545
0.997545
0.997545
0.997545
0.997545
0.997545
0.997545
0.997605
0.999997
1
1
1
1
1
1
1
1
1
0.999999
0.999999
0.999999
0.999993
0.999974
0.999981
0.999987
0.999999
1
1
1
1
1
1
1
1
1
1
1
1
1
1
1
1
1
1
1
1
1
1
1
1
1
1
1
1
1
1
1
1
1
1
1
1
1
1
1
1
1
1
1
1
1
1
1
1
1
1
1
1
1
1
1
1
1
1
1
1
1
1
1
1
1
1
1
1
1
1
1
1
1
1
1
1
1
1
1
1
1
1
1
1
1
1
1
1
1
1
1
1
1
1
1
1
1
1
1
1
1
1
1
1
1
1
1
1
1
1
1
1
1
1
1
1
1
1
1
1
1
1
1
1
1
1
1
1
1
1
1
1
1
1
1
1
1
1
1
1
1
1
1
1
1
1
1
1
1
1
1
1
1
1
1
1
1
1
1
1
1
1
1
1
1
1
1
1
1
1
1
1
1
1
1
1
1
1
1
1
1
1
1
1
1
1
1
0.996965
0.997438
0.996724
0.99409
0.705678
0.688676
0.612634
0.361004
0.375326
0.547617
0.471155
0.315346
0.336967
0.411891
0.556056
0.78275
0.988543
0.996609
0.997182
0.996828
1
1
1
0.999798
0.29331
0.774682
0.709649
0.809334
0.78874
0.730026
0.790564
0.0892546
0.0278262
0.0401041
0.0598707
0.394936
0.984637
0.999999
1
1
1
1
1
0.999993
0.884951
0.835308
0.6534
0.615006
0.622784
0.659261
0.704433
0.700709
0.360709
0.450255
0.506808
0.832033
0.999505
1
1
1
1
1
1
0.999999
0.984149
0.637788
0.601043
0.626722
0.633475
0.593185
0.63425
0.575263
0.701905
0.697359
0.708792
0.989131
0.999998
1
1
1
1
1
1
0.999999
0.987768
0.657638
0.627116
0.621478
0.570832
0.667131
0.607527
0.665281
0.637284
0.595814
0.673701
0.991245
0.999999
1
1
1
1
1
1
1
0.990033
0.683436
0.608815
0.597549
0.590628
0.616952
0.571193
0.662424
0.628116
0.66378
0.692469
0.991647
1
1
1
1
1
1
1
1
0.99351
0.664577
0.619934
0.671584
0.615332
0.658558
0.640502
0.65844
0.66623
0.644996
0.70486
0.994872
1
1
1
1
1
1
1
1
0.997174
0.708852
0.637253
0.583079
0.59941
0.592318
0.572479
0.58342
0.595054
0.747569
0.801747
0.998417
1
1
1
1
1
1
1
1
1
0.999735
0.999633
0.999394
0.999358
0.999265
0.999182
0.999088
0.999022
0.999745
0.999755
1
1
1
1
1
1
1
1
1
1
1
1
1
1
1
1
1
1
1
1
1
1
1
1
1
1
1
1
1
1
1
0.999997
1
1
1
0.999977
1
1
1
1
1
1
1
1
1
1
1
1
1
1
1
1
1
1
1
1
1
1
1
1
1
1
1
1
1
1
1
1
1
1
1
1
1
1
1
1
1
1
1
1
1
1
1
1
1
1
1
1
1
1
1
1
1
1
1
1
1
1
1
1
1
1
1
1
1
1
1
1
1
1
1
1
1
1
1
1
1
1
1
1
1
1
1
1
1
1
1
1
1
1
1
1
1
1
1
1
1
1
1
1
1
1
1
1
1
1
1
1
1
1
1
1
1
1
1
1
1
1
1
1
1
1
1
1
1
1
1
1
1
1
1
1
1
1
1
1
1
1
1
1
1
1
1
1
1
1
1
1
1
1
1
1
1
1
1
1
1
1
1
1
1
1
1
1
1
1
1
1
1
1
1
1
1
1
1
1
1
1
1
1
1
1
1
1
1
0.996985
0.997464
0.996707
0.994282
0.705694
0.686504
0.607459
0.354715
0.370488
0.54783
0.487324
0.304192
0.32989
0.407122
0.545547
0.77206
0.9876
0.996597
0.997198
0.99686
1
1
1
0.999887
0.280203
0.778224
0.709996
0.810142
0.789554
0.730392
0.794439
0.0863219
0.0247398
0.0359941
0.054692
0.341319
0.980859
0.999999
1
1
1
1
1
0.999988
0.868467
0.838572
0.653777
0.61498
0.622746
0.660039
0.70515
0.708351
0.359491
0.44985
0.519933
0.809413
0.99918
1
1
1
1
1
1
0.999999
0.984154
0.637922
0.600994
0.626785
0.63387
0.592767
0.634519
0.57437
0.70262
0.698643
0.709435
0.989172
0.999997
1
1
1
1
1
1
1
0.988476
0.657378
0.627281
0.621659
0.570867
0.667495
0.607316
0.665307
0.637525
0.595139
0.673057
0.991516
0.999999
1
1
1
1
1
1
1
0.990406
0.683688
0.608853
0.597274
0.590239
0.616705
0.570877
0.662494
0.627752
0.663992
0.691715
0.991513
1
1
1
1
1
1
1
1
0.993322
0.664408
0.619932
0.672006
0.615028
0.659013
0.640968
0.659119
0.66704
0.644775
0.703748
0.994636
1
1
1
1
1
1
1
1
0.996964
0.704102
0.635115
0.581087
0.59692
0.589311
0.56964
0.579647
0.590285
0.744413
0.797623
0.998077
1
1
1
1
1
1
1
1
1
0.999755
0.999664
0.999428
0.99939
0.999301
0.999219
0.999131
0.999066
0.999763
0.999771
0.999999
1
1
1
1
1
1
1
1
1
1
1
1
1
1
1
1
1
1
1
1
1
1
1
1
1
1
1
1
1
1
1
1
1
1
1
1
1
1
1
1
1
1
1
1
1
1
1
1
1
1
1
1
1
1
1
1
1
1
1
1
1
1
1
1
1
1
1
1
1
1
1
1
1
1
1
1
1
1
1
1
1
1
1
1
1
1
1
1
1
1
1
1
1
1
1
1
1
1
1
1
1
1
1
1
1
1
1
1
1
1
1
1
1
1
1
1
1
1
1
1
1
1
1
1
1
1
1
1
1
1
1
1
1
1
1
1
1
1
1
1
1
1
1
1
1
1
1
1
1
1
1
1
1
1
1
1
1
1
1
1
1
1
1
1
1
1
1
1
1
1
1
1
1
1
1
1
1
1
1
1
1
1
1
1
1
1
1
1
1
1
1
1
1
1
1
1
1
1
1
1
1
1
1
1
1
1
1
1
1
1
1
1
1
1
1
1
1
1
1
1
1
1
1
1
0.997003
0.997485
0.996686
0.994417
0.706163
0.683911
0.602152
0.349
0.366998
0.546621
0.507738
0.295422
0.320573
0.405109
0.533426
0.759432
0.986406
0.996582
0.997208
0.99689
1
1
1
0.999927
0.268814
0.782075
0.710357
0.810911
0.790303
0.730752
0.798302
0.0834641
0.0214838
0.0319869
0.0480525
0.292793
0.975775
0.999998
1
1
1
1
1
0.999978
0.850377
0.841346
0.654162
0.614962
0.622714
0.66076
0.705785
0.714917
0.359002
0.448916
0.521594
0.792573
0.998778
1
1
1
1
1
1
1
0.984263
0.638036
0.600961
0.626848
0.634235
0.592392
0.634772
0.57351
0.703294
0.699865
0.710299
0.989334
0.999996
1
1
1
1
1
1
1
0.989042
0.657147
0.627438
0.621827
0.570912
0.667832
0.607083
0.665333
0.637768
0.594538
0.672436
0.991647
0.999999
1
1
1
1
1
1
1
0.990601
0.683921
0.60889
0.59702
0.589874
0.61648
0.570597
0.662561
0.627418
0.664195
0.69101
0.991416
1
1
1
1
1
1
1
1
0.993143
0.664249
0.619938
0.672401
0.614734
0.659446
0.641413
0.659762
0.667827
0.644601
0.702943
0.994383
1
1
1
1
1
1
1
1
0.996747
0.69961
0.63311
0.579202
0.594549
0.586409
0.566907
0.575995
0.585666
0.741462
0.793749
0.997714
1
1
1
1
1
1
1
1
1
0.999789
0.999713
0.999486
0.999446
0.999368
0.999288
0.999213
0.999152
0.999794
0.999802
0.999999
1
1
1
1
1
1
1
1
1
1
1
1
1
1
1
1
1
1
1
1
1
1
1
1
1
1
1
1
1
1
1
1
1
1
1
1
1
1
1
1
1
1
1
1
1
1
1
1
1
1
1
1
1
1
1
1
1
1
1
1
1
1
1
1
1
1
1
1
1
1
1
1
1
1
1
1
1
1
1
1
1
1
1
1
1
1
1
1
1
1
1
1
1
1
1
1
1
1
1
1
1
1
1
1
1
1
1
1
1
1
1
1
1
1
1
1
1
1
1
1
1
1
1
1
1
1
1
1
1
1
1
1
1
1
1
1
1
1
1
1
1
1
1
1
1
1
1
1
1
1
1
1
1
1
1
1
1
1
1
1
1
1
1
1
1
1
1
1
1
1
1
1
1
1
1
1
1
1
1
1
1
1
1
1
1
1
1
1
1
1
1
1
1
1
1
1
1
1
1
1
1
1
1
1
1
1
1
1
1
1
1
1
1
1
1
1
1
1
1
1
1
1
1
1
0.997019
0.997501
0.996663
0.99451
0.705818
0.680815
0.59694
0.344918
0.365083
0.544358
0.529698
0.290342
0.306883
0.401403
0.521403
0.747202
0.984782
0.996566
0.997215
0.996918
1
1
1
0.999941
0.258966
0.786183
0.710727
0.811621
0.790997
0.731086
0.802044
0.0807135
0.0182011
0.0281299
0.0409295
0.260787
0.968412
0.999997
1
1
1
1
1
0.999961
0.830622
0.843354
0.654563
0.614951
0.622686
0.661416
0.706339
0.720394
0.358833
0.446991
0.518154
0.782207
0.998442
1
1
1
1
1
1
1
0.984437
0.638128
0.600943
0.626911
0.634566
0.592062
0.635003
0.572651
0.703912
0.701008
0.711116
0.989555
0.999996
1
1
1
1
1
1
1
0.989454
0.656945
0.627586
0.621983
0.570968
0.668137
0.606824
0.665359
0.638005
0.594014
0.671895
0.991689
0.999998
1
1
1
1
1
1
1
0.990679
0.684137
0.608929
0.596796
0.589532
0.616281
0.570357
0.662624
0.627118
0.664385
0.690405
0.991338
1
1
1
1
1
1
1
1
0.992994
0.664121
0.619956
0.672761
0.614446
0.659851
0.641829
0.660365
0.668585
0.64447
0.702425
0.994046
1
1
1
1
1
1
1
1
0.996531
0.695501
0.63134
0.577537
0.592463
0.583852
0.564486
0.572785
0.581573
0.738864
0.790294
0.997419
1
1
1
1
1
1
1
1
1
0.999817
0.999756
0.999539
0.999494
0.999422
0.999348
0.999277
0.999217
0.999816
0.999822
1
1
1
1
1
1
1
1
1
1
1
1
1
1
1
1
1
1
1
1
1
1
1
1
1
1
1
1
1
1
1
1
1
1
1
1
1
1
1
1
1
1
1
1
1
1
1
1
1
1
1
1
1
1
1
1
1
1
1
1
1
1
1
1
1
1
1
1
1
1
1
1
1
1
1
1
1
1
1
1
1
1
1
1
1
1
1
1
1
1
1
1
1
1
1
1
1
1
1
1
1
1
1
1
1
1
1
1
1
1
1
1
1
1
1
1
1
1
1
1
1
1
1
1
1
1
1
1
1
1
1
1
1
1
1
1
1
1
1
1
1
1
1
1
1
1
1
1
1
1
1
1
1
1
1
1
1
1
1
1
1
1
1
1
1
1
1
1
1
1
1
1
1
1
1
1
1
1
1
1
1
1
1
1
1
1
1
1
1
1
1
1
1
1
1
1
1
1
1
1
1
1
1
1
1
1
1
1
1
1
1
1
1
1
1
1
1
1
1
1
1
1
1
1
1
0.997034
0.997513
0.996636
0.994572
0.706563
0.677166
0.59215
0.342765
0.363931
0.542819
0.546638
0.287457
0.289394
0.392514
0.512579
0.735749
0.982747
0.996549
0.997222
0.996944
1
1
1
0.999943
0.250588
0.790496
0.711087
0.812275
0.791659
0.731404
0.805651
0.0780568
0.0150387
0.0244588
0.0345791
0.235471
0.95991
0.999995
1
1
1
1
1
0.999938
0.809755
0.84469
0.654968
0.614949
0.622662
0.662014
0.706816
0.725232
0.358458
0.444896
0.508779
0.776978
0.998339
1
1
1
1
1
1
0.999999
0.984686
0.638225
0.600938
0.626976
0.634863
0.591777
0.635221
0.571777
0.704477
0.702057
0.711843
0.98976
0.999995
1
1
1
1
1
1
1
0.989715
0.656775
0.627726
0.622127
0.571035
0.668411
0.606539
0.665386
0.638235
0.593561
0.671435
0.991694
0.999998
1
1
1
1
1
1
1
0.990693
0.68434
0.608971
0.596609