/*--------------------------------*- C++ -*----------------------------------*\
| =========                 |                                                 |
| \\      /  F ield         | OpenFOAM: The Open Source CFD Toolbox           |
|  \\    /   O peration     | Version:  2.3.0                                 |
|   \\  /    A nd           | Web:      www.OpenFOAM.org                      |
|    \\/     M anipulation  |                                                 |
\*---------------------------------------------------------------------------*/
FoamFile
{
    version     2.0;
    format      ascii;
    class       volVectorField;
    location    "3.39999";
    object      U.water;
}
// * * * * * * * * * * * * * * * * * * * * * * * * * * * * * * * * * * * * * //

dimensions      [0 1 -1 0 0 0 0];

internalField   nonuniform List<vector> 
10000
(
(-0.340266 -1.24461 -0.78235)
(0.0205837 -1.416 -0.903506)
(0.154943 -1.27152 -0.753626)
(0.21469 -0.832449 -0.439519)
(0.359862 -0.536864 -0.278139)
(0.347121 -0.365789 -0.550773)
(0.240996 -0.20368 -0.398511)
(0.0252011 -0.101854 -0.315427)
(-0.00323032 -0.0969127 -0.286418)
(-0.0542789 -0.127447 -0.34553)
(-0.206037 -0.228168 -0.585082)
(-0.335841 -0.459124 -0.24174)
(-0.344558 -0.425827 -0.106665)
(-0.352784 -0.416812 -0.107759)
(-0.332127 -0.409319 -0.132704)
(-0.238232 -0.474596 -0.194323)
(-0.222316 -0.7125 -0.406482)
(-0.142392 -1.18315 -0.736274)
(0.00851003 -1.32141 -0.826501)
(0.339403 -1.12024 -0.738622)
(0.00759015 -1.27793 -0.102081)
(0.00480976 -1.50573 -0.134431)
(0.0125754 -1.39112 -0.0809687)
(0.000882101 -0.804536 -0.0242823)
(0.019079 -0.189928 -0.365151)
(0.144783 -0.0155063 -1.47952)
(0.00275043 -0.031265 -0.806232)
(-0.00169855 -0.0460072 -0.497065)
(-0.000383534 -0.0663351 -0.406177)
(0.0024371 -0.0460079 -0.560528)
(-0.0637085 0.00616173 -1.4166)
(-0.0060303 -0.0357488 -1.16447)
(0.00204746 -0.117453 -0.197022)
(-0.0109922 -0.114904 -0.193146)
(-0.00484889 -0.138955 -0.168974)
(0.0356161 -0.290468 -0.0865532)
(0.0092874 -0.405339 -0.00296993)
(0.00367733 -1.27128 -0.0714744)
(0.028849 -1.39681 -0.109431)
(-0.0168946 -1.04235 -0.0552566)
(0.00688499 -1.27518 -0.0244199)
(0.00439149 -1.5384 -0.045136)
(0.0201679 -1.39855 -0.0250279)
(-0.00701264 -0.821431 -0.0154561)
(0.00780477 -0.271457 -0.105189)
(0.00364476 -0.122343 -0.260624)
(0.00263429 -0.0844197 -0.299324)
(0.00031694 -0.0767695 -0.320942)
(0.000302326 -0.0837342 -0.292743)
(-0.000803792 -0.0932739 -0.26229)
(-0.000715851 -0.0992792 -0.314928)
(0.0288472 -0.13126 -0.250904)
(0.00256868 -0.124121 -0.209995)
(0.00161668 -0.115395 -0.208783)
(0.00678907 -0.134129 -0.183831)
(-0.00993556 -0.305616 -0.0941129)
(0.0203966 -0.578777 -0.044684)
(-0.00225623 -1.2915 -0.0126191)
(0.0147062 -1.40704 -0.00899479)
(-0.0191529 -0.760137 0.048169)
(0.0153756 -1.09715 0.0277903)
(0.0107283 -1.49892 -0.0297568)
(0.0204094 -1.28982 -0.0111998)
(-0.0211362 -0.662412 0.00514653)
(-0.000201391 -0.269976 -0.108706)
(-0.00239439 -0.087316 -0.276647)
(0.000761068 -0.0669039 -0.359421)
(9.57685e-06 -0.0698357 -0.348607)
(-5.97261e-05 -0.0783001 -0.315979)
(0.000110841 -0.0803911 -0.298152)
(5.94385e-05 -0.0764936 -0.313095)
(-6.76071e-05 -0.081157 -0.293907)
(4.97397e-05 -0.111842 -0.252514)
(0.000132535 -0.10124 -0.250122)
(0.00182259 -0.129989 -0.205334)
(-0.00895557 -0.309404 -0.101523)
(-0.0326167 -0.664676 -0.0242543)
(-0.00358949 -1.14403 0.029517)
(0.0130955 -1.21863 0.0324187)
(-0.0188658 -0.617027 0.0731744)
(0.0141591 -1.14127 0.0289257)
(0.0221959 -1.47695 -0.0301458)
(-0.00155605 -1.24727 -0.0341619)
(-0.0269294 -0.602863 0.00557568)
(0.00101246 -0.255824 -0.111314)
(-0.00301829 -0.10452 -0.232904)
(3.71562e-05 -0.0742545 -0.331976)
(-0.000100313 -0.071263 -0.344642)
(-2.54443e-05 -0.078007 -0.308734)
(3.31025e-05 -0.0859525 -0.289359)
(1.38062e-05 -0.0853462 -0.288331)
(0.00016449 -0.100978 -0.245272)
(-0.000113423 -0.109514 -0.220758)
(-0.00038826 -0.104556 -0.229908)
(0.0012664 -0.1242 -0.198372)
(-0.00940682 -0.308489 -0.102464)
(-0.04499 -0.714989 0.00126288)
(0.0032328 -1.3253 0.0168196)
(0.0195859 -1.2131 0.0253821)
(0.0101391 -0.636168 0.0582591)
(0.0223499 -1.36889 0.00920355)
(0.0215764 -1.43393 -0.0143305)
(-0.0161346 -1.22888 -0.0392226)
(-0.0275512 -0.430881 0.0224799)
(-0.00356314 -0.250063 -0.113182)
(-0.00312199 -0.0966468 -0.254021)
(-9.55735e-05 -0.0711409 -0.343665)
(-8.04664e-05 -0.0691347 -0.34989)
(-4.52621e-05 -0.0783849 -0.313496)
(0.000136669 -0.0819682 -0.29592)
(0.000155197 -0.079816 -0.300947)
(5.14549e-05 -0.0926756 -0.264338)
(-0.000128625 -0.107041 -0.227655)
(-0.00058958 -0.104045 -0.237464)
(-0.00166217 -0.122841 -0.202651)
(-0.0044687 -0.276666 -0.108651)
(-0.0024182 -0.405332 0.044833)
(0.0277375 -1.52128 -0.00976623)
(0.0194744 -1.04929 0.0427783)
(0.0113133 -0.627123 0.0572396)
(0.00943476 -1.51884 0.0163065)
(0.00631455 -1.2672 0.00239707)
(-0.0231531 -1.22167 -0.0261987)
(-0.0250732 -0.319615 0.0400183)
(-0.00176067 -0.246377 -0.108479)
(-0.00354364 -0.0962428 -0.252735)
(-0.00010114 -0.0731768 -0.332928)
(2.12199e-06 -0.0707354 -0.351623)
(-0.000111031 -0.0780241 -0.313976)
(0.000220425 -0.0842401 -0.292613)
(8.082e-05 -0.0822221 -0.301956)
(2.07817e-05 -0.093986 -0.26041)
(6.00105e-05 -0.106524 -0.229293)
(-0.0005988 -0.10133 -0.238061)
(-0.0025112 -0.11981 -0.206008)
(-0.00501684 -0.259794 -0.106043)
(0.0086885 -0.228908 0.0575739)
(0.0682762 -1.3827 -0.0149576)
(0.0115426 -0.70615 0.0706925)
(-0.0086794 -0.605112 0.059106)
(0.000305095 -1.64962 -0.0239014)
(-0.00799304 -1.20189 0.0187988)
(-0.0115219 -1.17592 0.0155546)
(-0.00778512 -0.203252 0.0485968)
(0.00139423 -0.217517 -0.101036)
(0.000334468 -0.0937834 -0.250493)
(-0.000134999 -0.0744647 -0.319477)
(0.000129181 -0.0676894 -0.338257)
(-0.000116258 -0.0785994 -0.297463)
(0.000122986 -0.0822914 -0.281244)
(3.76089e-05 -0.0772876 -0.296159)
(2.14418e-05 -0.0904645 -0.251783)
(0.000377001 -0.101305 -0.221835)
(-0.000263551 -0.0995886 -0.231795)
(-0.00237703 -0.112901 -0.198619)
(-0.00400224 -0.228196 -0.0879038)
(0.0103144 -0.227292 0.0304549)
(0.0315518 -1.08493 0.00715991)
(0.00437279 -0.663168 0.0419487)
(-0.00993913 -0.624863 0.0411961)
(-0.00591674 -1.633 -0.0533385)
(-0.0214301 -1.21735 0.012544)
(-0.00649911 -1.31032 0.0314166)
(0.0157189 -0.23587 0.0160745)
(-0.0023808 -0.160888 -0.0460395)
(-0.000697688 -0.0690753 -0.191801)
(0.000536626 -0.0572952 -0.23689)
(-0.000467894 -0.052237 -0.263774)
(-0.00162538 -0.0575342 -0.231735)
(0.000523039 -0.0610695 -0.21346)
(-3.35804e-05 -0.0587349 -0.227584)
(-0.000782464 -0.0667218 -0.189265)
(0.000655607 -0.0722751 -0.168097)
(-0.000332139 -0.0718253 -0.175182)
(0.00062815 -0.083492 -0.146938)
(0.00265318 -0.167373 -0.0411033)
(0.00692444 -0.39407 -0.00699831)
(0.0127819 -0.803262 0.0390106)
(-0.00860121 -0.832635 0.00614294)
(-0.00351543 -0.759668 0.0102481)
(-0.0052775 -1.56522 -0.0339399)
(-0.0118329 -1.24289 0.00829956)
(-0.00263157 -1.51276 -0.00156819)
(0.0342242 -0.480508 -0.0168005)
(0.00202701 -0.0695598 0.00417672)
(0.00088676 -0.0292888 0.00336616)
(0.000326308 -0.021544 0.00378812)
(-0.00019278 -0.0137148 0.00313867)
(-6.3731e-05 -0.0276373 0.0032895)
(-6.82359e-05 -0.028856 0.00377779)
(6.05446e-05 -0.0206449 0.00324177)
(0.000332924 -0.0305136 0.00437962)
(0.00014834 -0.0305523 0.0052562)
(-0.00045315 -0.0299736 0.00503822)
(-0.000811504 -0.0415618 0.00445877)
(-0.00115404 -0.0785976 0.00799972)
(0.00300583 -0.580574 -0.0310437)
(0.00876797 -0.760379 0.0306947)
(-0.0295838 -1.12099 -0.00718001)
(0.0124516 -0.976774 0.00490179)
(-0.0237346 -1.51957 -0.0141869)
(0.0087663 -1.21087 0.0248082)
(0.0123679 -1.46884 -0.0198482)
(0.0139983 -0.591423 -0.0162546)
(0.00208281 -0.151348 -0.00248733)
(-0.000351689 -0.0483482 -0.00135126)
(0.000223131 -0.0295189 -0.000600598)
(5.94104e-05 -0.0310411 -0.000931978)
(-0.000296664 -0.0362523 -5.35195e-05)
(0.00016338 -0.0354581 -0.000472362)
(-6.00629e-05 -0.0390857 -0.00107959)
(-0.000250826 -0.0361324 -0.00102545)
(-1.11029e-05 -0.0329882 -0.000641765)
(-7.58855e-05 -0.0345274 -0.000992993)
(0.00044987 -0.055817 -0.00224631)
(0.000629245 -0.158904 -0.00265473)
(0.0120712 -0.648702 -0.0381862)
(-0.00384827 -0.948682 -0.00369339)
(-0.0266958 -1.20445 0.0269382)
(0.00990276 -1.17282 -0.00729033)
(-0.00724976 -1.47412 -0.0159241)
(0.0186855 -1.12424 0.0426924)
(0.0164974 -1.33554 -0.0144767)
(-0.0189116 -0.619846 -0.00781161)
(0.00126537 -0.0941944 0.00536457)
(-0.000778942 -0.0498904 -0.000676301)
(0.000257805 -0.0384617 -0.00167086)
(0.000462886 -0.0285372 -3.37978e-05)
(-2.04073e-05 -0.0397093 -0.000657413)
(-2.655e-07 -0.044748 -0.00106697)
(-8.35114e-05 -0.0358742 1.44516e-05)
(-0.000141254 -0.0509452 -0.0015222)
(-5.46275e-05 -0.046765 -0.00167077)
(0.00010272 -0.0498728 -0.00181464)
(0.000517654 -0.0743153 -0.00177411)
(-0.000799502 -0.118656 0.0011931)
(0.0140195 -0.673426 -0.0341141)
(-0.0168658 -1.04758 -0.000159693)
(0.00380932 -1.28485 0.022934)
(0.0339084 -1.22081 -0.00446514)
(-0.00964824 -1.39974 -0.0186564)
(0.00849387 -1.07562 0.0429241)
(0.00741091 -1.22348 0.00761058)
(-0.0160038 -0.63076 -0.00239081)
(0.00053273 -0.0820267 0.00222499)
(-0.000413912 -0.0539993 -0.000736407)
(-8.68082e-05 -0.043076 -0.0014323)
(0.000627657 -0.0287285 0.000250905)
(0.000428502 -0.034748 0.000394205)
(-0.000324587 -0.0377307 0.000626617)
(1.40206e-05 -0.035063 0.00057776)
(0.000345549 -0.0417579 0.000852222)
(-9.43592e-05 -0.0409638 0.000444369)
(0.000128678 -0.0433617 0.000463816)
(-0.000156027 -0.0548961 0.0017635)
(0.00127555 -0.0934808 0.00191924)
(0.0146239 -0.678804 -0.022683)
(0.00226607 -1.02654 0.0292815)
(0.019591 -1.34889 -0.0035087)
(0.0312853 -1.23308 -0.0325279)
(-0.0319022 -1.35036 -0.0281779)
(-0.00678372 -1.09256 0.0268347)
(0.00719435 -1.20733 0.0228727)
(0.0164376 -0.56823 0.00421396)
(0.00100824 -0.116595 -0.00458691)
(0.000423796 -0.054736 -8.32047e-05)
(-0.000361761 -0.0532298 -0.000752781)
(9.49115e-05 -0.0267475 0.000434601)
(0.00013244 -0.0324516 0.000690892)
(4.11721e-05 -0.0352403 0.000826865)
(3.37494e-05 -0.0313025 0.000935098)
(-1.53195e-05 -0.0388558 0.00109019)
(-6.61554e-05 -0.038567 0.000968437)
(2.42111e-06 -0.0410716 0.000911526)
(-0.000302307 -0.0519482 0.00300293)
(0.0175406 -0.129567 -0.000884058)
(0.00962702 -0.639699 0.00310381)
(0.0284876 -0.83865 0.0957977)
(0.0296712 -1.08611 0.0572777)
(-0.0117237 -1.11403 0.0116058)
(-0.0312698 -1.27442 -0.0237427)
(-0.0160753 -1.18001 0.0101678)
(0.00925812 -1.33025 0.0126158)
(0.0431864 -0.622423 0.00241318)
(0.0064522 -0.142805 -0.00528893)
(0.000802481 -0.0519646 -0.000223833)
(-0.000253801 -0.0449193 0.000585991)
(-0.000434247 -0.0249911 0.000105549)
(6.77416e-05 -0.0290152 0.000405241)
(0.000233614 -0.030927 0.000714112)
(7.26364e-05 -0.026142 0.000893588)
(-0.000109945 -0.0330455 0.00107902)
(-8.75039e-05 -0.0332162 0.00100101)
(0.000144476 -0.0361691 0.000906368)
(0.000700521 -0.0514323 0.00222053)
(0.0217906 -0.140421 0.00388919)
(0.0152147 -0.5942 0.0379055)
(0.0253564 -0.713549 0.144621)
(0.0276221 -0.695486 0.216299)
(-0.0599321 -0.59066 0.259634)
(-0.0171288 -1.04587 0.00742664)
(-0.0111495 -1.28019 -0.00817673)
(0.00682806 -1.53417 -0.00721207)
(0.0307654 -0.708685 -0.00387198)
(0.00805112 -0.116412 0.00142297)
(-0.000521448 -0.0520538 4.38698e-05)
(-6.57913e-05 -0.0423154 0.000504696)
(-0.000175677 -0.0279321 -0.000372504)
(-0.000119333 -0.0315603 -0.000794693)
(0.000161389 -0.0312257 -0.00053371)
(3.12426e-05 -0.0236702 -7.21322e-05)
(-9.88882e-05 -0.0319099 -0.000253286)
(1.87399e-05 -0.0326601 -0.000246971)
(-3.91986e-05 -0.0372582 -4.26485e-05)
(0.002467 -0.0623934 -0.00123935)
(0.0117717 -0.119507 0.00824899)
(0.0132544 -0.55741 0.0599294)
(0.0155849 -0.713294 0.131009)
(0.0224304 -0.681553 0.151167)
(-0.0423051 -0.396646 0.286702)
(0.00282787 -0.791209 0.0271305)
(-0.00037901 -1.21105 -0.00173571)
(-0.00282848 -1.5361 -0.0241106)
(0.0083128 -0.676768 -0.010985)
(0.00132691 -0.0811227 0.003694)
(-0.000927184 -0.0451434 -9.44017e-05)
(-0.000158171 -0.0456299 -0.0015935)
(1.33436e-05 -0.0306908 -0.00186512)
(-0.00010654 -0.0389983 -0.00310599)
(2.08166e-05 -0.0384958 -0.00311306)
(1.04798e-05 -0.0285378 -0.00219744)
(2.06281e-06 -0.0381064 -0.00298596)
(0.00015475 -0.0382645 -0.00282221)
(0.000168378 -0.0420515 -0.00209831)
(0.0037443 -0.0811053 -0.00236195)
(0.00844426 -0.0856343 0.00604619)
(0.00441126 -0.524275 0.0773291)
(0.003294 -0.811132 0.0841736)
(0.0136148 -1.00725 0.0330987)
(0.0364873 -0.516352 0.156836)
(-0.000849154 -0.57177 0.013894)
(0.00863069 -0.881271 0.0289713)
(-0.00780991 -1.54888 -0.0268996)
(-0.00321672 -0.657571 -0.00160576)
(0.000236551 -0.0802979 5.94721e-05)
(1.63036e-05 -0.0545276 -0.00487669)
(-0.000258431 -0.0633982 -0.00434679)
(-0.000112969 -0.0492219 -0.00607204)
(0.000161839 -0.062538 -0.00498665)
(-0.000222788 -0.0623886 -0.00503632)
(-3.22025e-06 -0.0486363 -0.00623839)
(0.000218851 -0.0618638 -0.00500987)
(0.000118995 -0.0610003 -0.00486935)
(0.000552171 -0.0615256 -0.00430072)
(0.000977707 -0.0933115 -0.00153033)
(0.00535217 -0.0663846 0.00435614)
(-0.00324427 -0.524971 0.0741111)
(0.0122676 -1.21126 -0.0341896)
(-0.0173216 -1.48397 -0.041787)
(0.0619382 -1.02546 -0.0099448)
(-0.00881062 -0.351949 0.00686881)
(0.00687523 -0.474867 0.0241111)
(0.00256466 -1.58073 -0.0176416)
(-0.0264582 -0.646753 0.0056073)
(-0.0034395 -0.0934158 -0.00620598)
(-9.5747e-05 -0.103187 -0.0129936)
(-0.000113143 -0.105443 -0.0118253)
(-1.1819e-05 -0.103552 -0.0137737)
(0.00021507 -0.105063 -0.011911)
(-0.000222569 -0.104973 -0.0119182)
(-5.60733e-06 -0.103252 -0.0137855)
(0.000208765 -0.104505 -0.0119046)
(-1.30005e-05 -0.103234 -0.0118203)
(0.000425184 -0.10113 -0.0115858)
(-0.0017201 -0.119324 -0.00842784)
(-0.00579308 -0.0511012 0.0002605)
(0.0125992 -0.54691 0.0156394)
(0.0208552 -1.30242 -0.0818464)
(-0.0139228 -1.59103 -0.0321599)
(0.0194682 -1.35819 -0.0427919)
(-0.00268395 -0.201077 0.00546122)
(0.00381962 -0.281776 0.000480455)
(-0.000487006 -1.60063 -0.0094253)
(-0.0368658 -0.649744 -0.00288294)
(-0.0103443 -0.187375 -0.00400382)
(-0.000535665 -0.233421 -0.00860884)
(-7.73362e-05 -0.235907 -0.00953045)
(-8.82913e-06 -0.234125 -0.00966537)
(1.80092e-05 -0.235502 -0.0096319)
(-2.21481e-05 -0.235363 -0.00963116)
(-4.18238e-06 -0.233685 -0.00966973)
(7.52895e-06 -0.234633 -0.00962089)
(-3.04413e-05 -0.232262 -0.00956678)
(1.5614e-05 -0.22645 -0.00930832)
(-0.000213784 -0.219578 -0.00866098)
(-0.0142247 -0.0985964 -0.000505754)
(0.0379263 -0.553543 -0.0114191)
(0.00441924 -1.34348 -0.0366245)
(0.00121227 -1.61274 -0.0127072)
(-7.28844e-05 -1.40379 -0.0125904)
(-0.362995 -1.24168 -0.70582)
(0.0221333 -1.41257 -0.816538)
(0.168186 -1.25807 -0.661102)
(0.228245 -0.827181 -0.389004)
(0.383017 -0.54316 -0.254688)
(0.352478 -0.366567 -0.527581)
(0.234941 -0.195155 -0.371945)
(0.0222458 -0.0963899 -0.303731)
(-0.00313677 -0.092545 -0.281194)
(-0.0525062 -0.12332 -0.327491)
(-0.206977 -0.226196 -0.571809)
(-0.341185 -0.466147 -0.233429)
(-0.354075 -0.427536 -0.0985191)
(-0.3639 -0.414969 -0.10089)
(-0.346216 -0.40716 -0.119726)
(-0.25606 -0.47611 -0.169446)
(-0.235089 -0.721822 -0.36709)
(-0.153794 -1.17726 -0.652887)
(0.00756256 -1.31847 -0.743929)
(0.357319 -1.12052 -0.67458)
(0.00410654 -1.28261 -0.0999621)
(0.00462824 -1.50667 -0.12993)
(0.0152209 -1.38059 -0.0759121)
(0.00199572 -0.80065 -0.0242171)
(0.0206189 -0.173343 -0.385876)
(0.145949 -0.0133929 -1.48975)
(0.00133976 -0.0290669 -0.804621)
(-0.00182017 -0.0421169 -0.498271)
(-0.000238576 -0.0616217 -0.407296)
(0.00270707 -0.0429582 -0.559117)
(-0.0625685 0.00598563 -1.42144)
(-0.00672263 -0.0314427 -1.19428)
(0.00239976 -0.108376 -0.196576)
(-0.0120086 -0.107362 -0.193015)
(-0.00811219 -0.133606 -0.167344)
(0.029616 -0.28248 -0.0951507)
(0.00715771 -0.452864 -0.00638092)
(0.00286519 -1.27641 -0.0673659)
(0.0298048 -1.40379 -0.104307)
(-0.0137571 -1.05284 -0.0596041)
(0.00786661 -1.29475 -0.0213737)
(0.00307777 -1.55365 -0.0460958)
(0.0206669 -1.40302 -0.0283481)
(-0.00695168 -0.832647 -0.0159323)
(0.00803344 -0.260897 -0.102734)
(0.00378312 -0.119606 -0.25739)
(0.00250092 -0.0797588 -0.297448)
(0.000323587 -0.0720183 -0.319648)
(0.000314535 -0.0784663 -0.292099)
(-0.000849451 -0.0879414 -0.260567)
(-0.000715519 -0.0966071 -0.312813)
(0.0282001 -0.126171 -0.247809)
(0.00235875 -0.117392 -0.206357)
(0.00141624 -0.109276 -0.2059)
(0.00459331 -0.128356 -0.183275)
(-0.0123658 -0.298178 -0.093993)
(0.0195702 -0.612588 -0.035622)
(-0.00233756 -1.31743 -0.00893055)
(0.0141911 -1.43367 -0.00602471)
(-0.0198663 -0.843944 0.0403551)
(0.0170885 -1.16035 0.0309787)
(0.00819442 -1.51948 -0.0319858)
(0.0200255 -1.29719 -0.0153525)
(-0.0208777 -0.720514 0.000122859)
(0.000805063 -0.259003 -0.110713)
(-0.00249102 -0.0809226 -0.277645)
(0.000723614 -0.0623738 -0.36002)
(5.42926e-07 -0.0652005 -0.348831)
(-5.87783e-05 -0.0731823 -0.316259)
(0.000116962 -0.0749836 -0.298507)
(-2.62691e-08 -0.071298 -0.313809)
(-0.000119686 -0.0751344 -0.295406)
(7.01162e-05 -0.104904 -0.253408)
(6.71414e-05 -0.0947316 -0.250904)
(0.00120273 -0.126403 -0.205332)
(-0.0101955 -0.30262 -0.0999101)
(-0.0325412 -0.705623 -0.0179545)
(-0.00506426 -1.23188 0.0333894)
(0.0129185 -1.30972 0.0331608)
(-0.0190991 -0.713908 0.0692666)
(0.0148661 -1.20367 0.036784)
(0.0210732 -1.49147 -0.0316708)
(-0.00217839 -1.25564 -0.0344136)
(-0.0288737 -0.681312 -0.00498656)
(0.00104072 -0.247466 -0.113479)
(-0.00321608 -0.0977606 -0.232364)
(3.57424e-06 -0.0694727 -0.33191)
(-0.000104005 -0.0666379 -0.34467)
(-2.55111e-05 -0.0729287 -0.308732)
(3.01604e-05 -0.0804579 -0.289281)
(1.44343e-05 -0.0798851 -0.28818)
(0.000185638 -0.0947237 -0.244689)
(-8.8095e-05 -0.102516 -0.220958)
(-0.000317261 -0.0978158 -0.229832)
(0.000760602 -0.116232 -0.198207)
(-0.00983845 -0.299833 -0.102041)
(-0.0435588 -0.75591 -0.00721788)
(0.00244002 -1.43226 0.015667)
(0.0197145 -1.3116 0.017832)
(0.0107315 -0.723243 0.0587442)
(0.0232155 -1.41616 0.0177887)
(0.0209476 -1.4495 -0.00855875)
(-0.017085 -1.23914 -0.0383565)
(-0.0305911 -0.515943 0.0119328)
(-0.00282402 -0.241044 -0.115271)
(-0.00317236 -0.0901607 -0.254585)
(-0.000132071 -0.0664952 -0.343864)
(-7.71433e-05 -0.064583 -0.349919)
(-4.57095e-05 -0.0732749 -0.313507)
(0.000133224 -0.0765993 -0.296013)
(0.000153847 -0.0745445 -0.301089)
(5.58941e-05 -0.0866091 -0.264665)
(-0.000137097 -0.100121 -0.227772)
(-0.00054947 -0.0974059 -0.237551)
(-0.00154404 -0.114574 -0.202634)
(-0.00407019 -0.265913 -0.110747)
(-0.00438731 -0.551384 0.0275898)
(0.0288152 -1.53399 -0.0168133)
(0.0200503 -1.17361 0.026046)
(0.0125842 -0.711996 0.0564229)
(0.00846516 -1.58922 0.0135203)
(0.00714438 -1.31016 0.00349495)
(-0.0247055 -1.23679 -0.0174077)
(-0.0293047 -0.413308 0.0307795)
(-0.000579313 -0.239128 -0.111252)
(-0.00331659 -0.0898214 -0.252949)
(-0.000119201 -0.0683613 -0.332955)
(1.2899e-05 -0.0661123 -0.351702)
(-0.000111425 -0.072889 -0.31399)
(0.000219363 -0.0787386 -0.292618)
(7.95896e-05 -0.0768763 -0.302077)
(2.56343e-05 -0.0878728 -0.260528)
(7.62534e-05 -0.0995961 -0.229555)
(-0.000506768 -0.0945546 -0.238165)
(-0.0022009 -0.111626 -0.206289)
(-0.00503788 -0.25103 -0.108602)
(0.0114894 -0.372065 0.046928)
(0.0678086 -1.41183 -0.0216955)
(0.0118658 -0.838483 0.0591584)
(-0.00681167 -0.68922 0.0595372)
(-0.00346973 -1.68136 -0.0332263)
(-0.0095758 -1.25142 0.0177515)
(-0.0126433 -1.23098 0.0236578)
(-0.00878609 -0.324272 0.0438889)
(0.00326409 -0.212645 -0.105012)
(0.000629115 -0.0876761 -0.251928)
(-0.000125525 -0.0693466 -0.320397)
(0.000139429 -0.0629769 -0.339293)
(-8.93515e-05 -0.0732652 -0.298641)
(0.000115389 -0.076729 -0.282563)
(3.96313e-05 -0.0719886 -0.297455)
(4.79524e-05 -0.0843823 -0.253328)
(0.000388376 -0.0945531 -0.223732)
(-0.0001565 -0.0931053 -0.233283)
(-0.00198921 -0.105642 -0.20035)
(-0.00458109 -0.22279 -0.0921059)
(0.0119173 -0.340328 0.0331813)
(0.0335637 -1.1728 -0.0062771)
(0.00424982 -0.765479 0.0480475)
(-0.00896119 -0.69649 0.0471219)
(-0.00593323 -1.66759 -0.055484)
(-0.0236131 -1.25949 0.0140509)
(-0.00639777 -1.38639 0.0309616)
(0.0232893 -0.345381 0.025078)
(-0.000773726 -0.160366 -0.0507713)
(-0.000670952 -0.0626945 -0.194065)
(0.000511281 -0.0520815 -0.238552)
(-0.000456764 -0.0473321 -0.265456)
(-0.0016114 -0.0521052 -0.233302)
(0.000525694 -0.0553961 -0.215227)
(-3.30931e-05 -0.0532691 -0.229432)
(-0.000782382 -0.0607982 -0.191273)
(0.000669361 -0.0663072 -0.170523)
(-0.000265303 -0.0657972 -0.177573)
(0.000999763 -0.0768161 -0.149502)
(0.00197138 -0.165433 -0.0468728)
(0.00661144 -0.432227 0.00549172)
(0.0134272 -0.902127 0.0292509)
(-0.00821632 -0.877638 0.0162042)
(-0.00214639 -0.802826 0.0228231)
(-0.00677034 -1.60062 -0.0379645)
(-0.0124804 -1.28216 0.00813042)
(-0.00104987 -1.52042 -0.00697145)
(0.0334388 -0.502496 -0.00372509)
(0.00237858 -0.10738 0.0051479)
(0.000922601 -0.0326512 0.00275725)
(0.000340723 -0.0262376 0.00297375)
(-0.000185378 -0.0176563 0.0024893)
(-7.74017e-05 -0.0325454 0.00262948)
(-7.02904e-05 -0.0334838 0.00297279)
(4.98517e-05 -0.0240763 0.00260838)
(0.000303063 -0.0347824 0.00340932)
(0.000139889 -0.0344419 0.00402915)
(-0.000451977 -0.0339196 0.00389112)
(-0.000879599 -0.0462129 0.00358756)
(-0.00141749 -0.105768 0.00749522)
(0.00295451 -0.589687 -0.0222094)
(0.0092275 -0.838112 0.0326754)
(-0.0295539 -1.13573 0.0112764)
(0.013232 -1.00331 0.0110215)
(-0.0238089 -1.5462 -0.0192575)
(0.00935656 -1.26458 0.0199662)
(0.0136876 -1.47764 -0.0257775)
(0.0129608 -0.596633 -0.0108261)
(0.00219937 -0.135806 -0.000795898)
(-0.000340032 -0.0444677 -0.000680173)
(0.000207152 -0.0271838 -0.000142548)
(5.31715e-05 -0.028595 -0.000414591)
(-0.000274919 -0.0333724 0.000235451)
(0.00015241 -0.0326319 -4.7458e-05)
(-5.69605e-05 -0.0359844 -0.000539146)
(-0.000232452 -0.0332455 -0.0004572)
(-1.04746e-05 -0.0303626 -0.000210477)
(-6.79871e-05 -0.0317696 -0.000456834)
(0.000423859 -0.0512593 -0.00127247)
(-0.000105626 -0.143028 -0.00135601)
(0.0122638 -0.652867 -0.0345772)
(-0.00385838 -0.96821 0.0123019)
(-0.0273729 -1.24868 0.0386533)
(0.00892174 -1.1753 -0.0046086)
(-0.00826324 -1.49521 -0.0215292)
(0.0197069 -1.19601 0.0370621)
(0.0162507 -1.3534 -0.0111908)
(-0.0202926 -0.62376 -0.00561496)
(0.0017273 -0.116799 0.0019424)
(-0.000711818 -0.0459034 -0.000432502)
(0.00024456 -0.036281 -0.00126539)
(0.000434785 -0.0275665 -3.5074e-06)
(-1.99983e-05 -0.0374843 -0.000561303)
(-1.63096e-06 -0.0422369 -0.000848051)
(-7.54444e-05 -0.0353332 -2.03868e-05)
(-0.000130252 -0.0480704 -0.0011806)
(-5.07734e-05 -0.0441196 -0.00126596)
(8.9938e-05 -0.0470408 -0.00138301)
(0.000426723 -0.0700532 -0.00157066)
(-0.00107712 -0.141665 -0.00196173)
(0.0136671 -0.675607 -0.0321169)
(-0.0184078 -1.06959 0.00884945)
(0.00370368 -1.31998 0.0177277)
(0.0331417 -1.22243 -0.0034646)
(-0.0113056 -1.42314 -0.0237077)
(0.0083901 -1.1508 0.0404201)
(0.00887112 -1.27314 0.0107563)
(-0.0194807 -0.647804 -0.00190765)
(0.000734613 -0.101419 0.00198921)
(-0.000375312 -0.0496963 -0.000519614)
(-8.33323e-05 -0.0406162 -0.000982763)
(0.000580895 -0.0277749 0.000173341)
(0.00042043 -0.034464 0.000317903)
(-0.000334969 -0.0376981 0.000464028)
(8.06824e-06 -0.0345769 0.000388589)
(0.000356941 -0.0421874 0.000593631)
(-8.81033e-05 -0.0412086 0.000308912)
(0.00010647 -0.0438754 0.000300892)
(-0.000241824 -0.0580202 0.00109037)
(0.00231857 -0.124758 0.00116386)
(0.0136093 -0.681117 -0.0170783)
(0.00154521 -1.06045 0.0240824)
(0.0201125 -1.35524 -0.00868559)
(0.0304414 -1.23577 -0.0286019)
(-0.0325131 -1.38068 -0.0332863)
(-0.00830314 -1.1588 0.0276708)
(0.00848379 -1.26984 0.0213651)
(0.0212748 -0.643731 0.00691883)
(0.00057007 -0.108102 -0.00152747)
(0.000394987 -0.0516622 -9.87931e-05)
(-0.000335174 -0.0502136 -0.000529261)
(6.39884e-05 -0.0257279 0.000306336)
(0.000123167 -0.0320189 0.000523477)
(3.39149e-05 -0.0349856 0.00062199)
(2.85051e-05 -0.0305731 0.000647717)
(-1.37354e-05 -0.0389265 0.000818328)
(-6.26775e-05 -0.0385739 0.000725293)
(-1.50797e-05 -0.0412857 0.000691456)
(-0.000249847 -0.0539037 0.00228945)
(0.0215079 -0.134455 0.000669107)
(0.00756046 -0.655775 0.00524193)
(0.0283212 -0.897067 0.0856355)
(0.0326713 -1.13924 0.0474394)
(-0.00996506 -1.14086 0.00215263)
(-0.0316858 -1.31744 -0.0270903)
(-0.0173824 -1.23115 0.00746189)
(0.0116856 -1.40247 0.00969592)
(0.0438569 -0.673115 0.00553337)
(0.00558688 -0.12584 -0.00235688)
(0.000722172 -0.0486823 8.05358e-06)
(-0.000266971 -0.0456377 0.000410663)
(-0.000421799 -0.0238758 3.88854e-05)
(5.34571e-05 -0.0283518 0.000237372)
(0.000220718 -0.030358 0.000461408)
(6.44408e-05 -0.0251352 0.000558041)
(-0.000110394 -0.0326057 0.000731106)
(-8.22006e-05 -0.0327567 0.000671322)
(0.000120369 -0.035838 0.00061381)
(0.000774914 -0.0527887 0.00157803)
(0.0236509 -0.145909 0.00320996)
(0.012153 -0.613923 0.0371864)
(0.0232566 -0.788043 0.139523)
(0.0288792 -0.803737 0.203854)
(-0.0550494 -0.684191 0.237323)
(-0.0175484 -1.13244 -0.00371235)
(-0.0104229 -1.31003 -0.0136539)
(0.012361 -1.52578 -0.00916752)
(0.0287915 -0.706767 -0.00346652)
(0.00775449 -0.114969 0.000825015)
(-0.000512171 -0.0489425 0.000107967)
(-7.12931e-05 -0.042379 0.000360151)
(-0.000164079 -0.0256912 -0.000267605)
(-0.000113413 -0.0297838 -0.000590513)
(0.000153151 -0.0294751 -0.000396072)
(2.90104e-05 -0.0217825 -4.9586e-05)
(-9.42319e-05 -0.0301235 -0.000184467)
(1.87896e-05 -0.0308297 -0.000181865)
(-3.5831e-05 -0.035154 -2.20727e-05)
(0.00239921 -0.0593049 -0.000832183)
(0.0106642 -0.119033 0.00612992)
(0.0106481 -0.579707 0.058015)
(0.0147391 -0.786185 0.132399)
(0.0217931 -0.777857 0.16079)
(-0.0413169 -0.504002 0.283521)
(0.00153718 -0.897949 0.0100896)
(0.00109087 -1.27974 -0.00955061)
(0.000881177 -1.52773 -0.023489)
(0.00761211 -0.676346 -0.00460763)
(0.000308243 -0.0774506 0.0024315)
(-0.000830409 -0.0414288 -2.10606e-05)
(-0.000147543 -0.0430142 -0.00105037)
(1.76494e-05 -0.0281914 -0.00116216)
(-0.00010049 -0.0367502 -0.00209324)
(2.12891e-05 -0.0362779 -0.00209914)
(9.39406e-06 -0.0262111 -0.00137782)
(-3.02302e-07 -0.0359137 -0.00201403)
(0.000144144 -0.0360641 -0.00190497)
(0.000156376 -0.0396141 -0.00141007)
(0.00350458 -0.0761922 -0.0016343)
(0.00669482 -0.0831257 0.00444681)
(0.00279813 -0.548731 0.076045)
(0.00432711 -0.876053 0.0913583)
(0.0122187 -1.05478 0.0477057)
(0.0402296 -0.606758 0.170338)
(-0.00461502 -0.708333 -0.00609769)
(0.0103069 -1.00854 0.00605498)
(-0.0052598 -1.54623 -0.024233)
(-0.00360171 -0.661295 0.000107461)
(0.000125936 -0.0730391 -3.86763e-06)
(6.84993e-05 -0.0497938 -0.00282897)
(-0.00023623 -0.0594308 -0.00226996)
(-0.000102545 -0.0449644 -0.00356765)
(0.000154516 -0.0586307 -0.00270275)
(-0.000210786 -0.0584903 -0.00273627)
(-2.97089e-06 -0.0444272 -0.00367148)
(0.00020689 -0.058001 -0.00272414)
(0.000109107 -0.0572062 -0.00264794)
(0.000506993 -0.0576875 -0.00228914)
(0.000763314 -0.0875175 -0.000302434)
(0.00377592 -0.0638894 0.00317127)
(-0.00253462 -0.548894 0.073007)
(0.012823 -1.21498 -0.024774)
(-0.0176851 -1.49054 -0.0338876)
(0.0635931 -1.04662 0.00977413)
(-0.0131136 -0.518667 -0.0106753)
(0.00730998 -0.720244 -0.00408361)
(0.00417281 -1.57148 -0.0133445)
(-0.025098 -0.64976 -0.00239751)
(-0.00235997 -0.0851429 -0.00382513)
(-6.05004e-05 -0.0919973 -0.00699589)
(-9.80484e-05 -0.0939223 -0.00584683)
(-1.12228e-05 -0.0922046 -0.00738252)
(0.000205494 -0.0935862 -0.00590674)
(-0.000212542 -0.0935095 -0.00591314)
(-5.28122e-06 -0.0919465 -0.007393)
(0.000199022 -0.0931085 -0.00591486)
(-1.45125e-05 -0.092026 -0.00589221)
(0.000373931 -0.0902476 -0.00579437)
(-0.0016861 -0.106186 -0.00360516)
(-0.00551157 -0.0467245 0.000394703)
(0.0137343 -0.559813 0.0109929)
(0.0231973 -1.28878 -0.0763721)
(-0.013702 -1.58701 -0.0272476)
(0.0215985 -1.36147 -0.0346276)
(-0.00488727 -0.426781 -0.0024095)
(0.00289886 -0.64099 -0.00990558)
(-0.00071252 -1.58817 -0.00695089)
(-0.0350971 -0.647009 -0.0100766)
(-0.00947844 -0.165689 -0.00165629)
(-0.000767069 -0.188184 -0.00329552)
(-9.67623e-05 -0.189439 -0.00374885)
(-1.1341e-05 -0.188125 -0.00385775)
(1.70531e-05 -0.189112 -0.00382749)
(-2.1365e-05 -0.189017 -0.0038287)
(-4.01089e-06 -0.187822 -0.00386602)
(7.18169e-06 -0.188524 -0.00383053)
(-2.59761e-05 -0.186934 -0.00382988)
(-9.48192e-06 -0.183249 -0.00373007)
(0.000190677 -0.180609 -0.00371685)
(-0.0134112 -0.0893368 -6.1232e-05)
(0.0357841 -0.550263 -0.0234297)
(0.00804107 -1.31388 -0.0328509)
(0.00160729 -1.60459 -0.0113414)
(0.00131845 -1.39997 -0.0106329)
(-0.386314 -1.24025 -0.643048)
(0.0238504 -1.41148 -0.747247)
(0.180901 -1.24597 -0.593001)
(0.244277 -0.821283 -0.345854)
(0.405735 -0.549649 -0.239485)
(0.354527 -0.367047 -0.517811)
(0.232833 -0.188528 -0.363077)
(0.0209214 -0.0938865 -0.299851)
(-0.0030343 -0.0910053 -0.278775)
(-0.0513698 -0.120743 -0.321055)
(-0.207356 -0.225606 -0.565851)
(-0.342765 -0.469491 -0.229508)
(-0.360433 -0.428682 -0.091778)
(-0.374467 -0.41214 -0.094645)
(-0.361795 -0.402948 -0.110059)
(-0.277571 -0.477452 -0.151469)
(-0.247576 -0.731929 -0.335005)
(-0.16433 -1.17277 -0.59048)
(0.00645735 -1.31731 -0.680603)
(0.376564 -1.12249 -0.620437)
(0.000359445 -1.29742 -0.0977977)
(0.00464883 -1.51487 -0.124992)
(0.0185667 -1.37037 -0.0703241)
(0.00463673 -0.798747 -0.0238011)
(0.0211131 -0.169766 -0.398285)
(0.146525 -0.0126899 -1.49373)
(0.000763468 -0.0282921 -0.803772)
(-0.00177928 -0.0405057 -0.498717)
(-0.00021737 -0.059531 -0.407675)
(0.00278606 -0.0415618 -0.558794)
(-0.0612272 0.00555921 -1.42299)
(-0.00672871 -0.0301639 -1.20609)
(0.00238532 -0.104835 -0.196657)
(-0.0121052 -0.10431 -0.192937)
(-0.00903829 -0.131068 -0.166051)
(0.0244422 -0.279809 -0.0980555)
(0.00257642 -0.517241 -0.00818375)
(0.00205388 -1.28918 -0.0633242)
(0.0308771 -1.42101 -0.100608)
(-0.00877108 -1.07242 -0.0690526)
(0.00841326 -1.32661 -0.0299407)
(0.00263556 -1.57797 -0.0461044)
(0.021325 -1.41111 -0.0307018)
(-0.0061112 -0.84697 -0.0206911)
(0.00884383 -0.250807 -0.101134)
(0.00368943 -0.116091 -0.255817)
(0.00245154 -0.0775192 -0.297044)
(0.000321191 -0.0699189 -0.319317)
(0.000313787 -0.0761771 -0.291946)
(-0.000822883 -0.0854754 -0.260212)
(-0.000722464 -0.0934425 -0.311701)