/*--------------------------------*- C++ -*----------------------------------*\
| =========                 |                                                 |
| \\      /  F ield         | OpenFOAM: The Open Source CFD Toolbox           |
|  \\    /   O peration     | Version:  2.3.0                                 |
|   \\  /    A nd           | Web:      www.OpenFOAM.org                      |
|    \\/     M anipulation  |                                                 |
\*---------------------------------------------------------------------------*/
FoamFile
{
    version     2.0;
    format      ascii;
    class       volScalarField;
    location    "1.80001";
    object      alpha.air;
}
// * * * * * * * * * * * * * * * * * * * * * * * * * * * * * * * * * * * * * //

dimensions      [0 0 0 0 0 0 0];

internalField   nonuniform List<scalar> 
10000
(
0.015437
0.0130704
0.00863825
0.0130351
0.186299
0.266626
0.304058
0.448131
0.599017
0.374582
0.40174
0.534855
0.500268
0.336669
0.172689
0.0389133
0.00733507
0.00598407
0.0040375
0.00396159
8.49661e-07
7.19046e-07
6.42488e-06
0.0102422
0.306622
0.337199
0.323319
0.415934
0.248366
0.262576
0.251255
0.82865
0.813799
0.737288
0.369059
0.051611
2.75793e-06
1.78575e-07
1.51749e-08
1.10682e-08
4.27504e-14
2.71925e-11
6.21227e-10
3.48482e-05
0.0118379
0.224569
0.40301
0.397322
0.353657
0.403414
0.293321
0.398789
0.353428
0.351151
0.301437
0.00492469
2.37802e-06
1.34267e-10
1.08835e-12
8.17012e-15
1.27176e-13
1.94486e-11
2.60088e-10
3.01217e-06
0.00411685
0.401046
0.367157
0.45088
0.40238
0.400603
0.381578
0.386557
0.355751
0.369322
0.314757
0.00359497
5.78941e-07
8.01106e-11
2.20471e-13
3.71764e-15
1.16322e-17
4.34469e-12
9.45579e-11
1.37501e-07
0.00138907
0.41293
0.381005
0.414456
0.384662
0.367873
0.368838
0.401268
0.398708
0.38098
0.185238
0.000146511
6.19303e-10
2.23307e-11
2.85368e-14
9.35229e-16
2.92908e-18
1.185e-13
1.05416e-10
1.54181e-08
0.000424502
0.313697
0.430034
0.40967
0.379042
0.386706
0.400155
0.3718
0.37198
0.381712
0.00899628
1.57298e-06
6.9356e-11
9.44376e-13
1.53211e-15
6.34463e-17
3.05861e-19
1.24843e-14
1.51141e-11
1.04595e-09
1.94518e-06
0.0458058
0.426058
0.417719
0.292146
0.291298
0.361552
0.358175
0.367804
0.368039
0.0200681
2.86947e-06
8.04181e-11
1.37588e-13
8.2697e-17
3.47551e-18
8.28095e-23
1.5631e-16
4.8766e-14
8.34816e-13
6.47514e-10
0.000348476
0.306224
0.284224
0.0117617
0.00637412
0.32425
0.286058
0.269962
0.273661
0.0278575
2.60858e-06
6.02274e-10
2.93891e-14
4.14207e-17
2.91249e-19
1.68781e-22
2.3489e-18
5.78418e-18
2.09637e-16
9.09382e-12
1.20916e-06
0.000982056
0.000958664
2.01449e-06
4.8598e-07
0.00141883
0.00119229
0.00121591
0.00116361
7.68514e-05
7.20151e-09
1.77148e-11
2.04618e-15
1.388e-17
9.78891e-20
0
0
0
0
0
0
0
0
0
0
0
0
0
0
0
0
0
0
0
0
0
0
0
0
0
0
0
0
0
0
0
0
0
0
0
0
0
0
0
0
0
0
0
0
0
0
0
0
0
0
0
0
0
0
0
0
0
0
0
0
0
0
0
0
0
0
0
0
0
0
0
0
0
0
0
0
0
0
0
0
0
0
0
0
0
0
0
0
0
0
0
0
0
0
0
0
0
0
0
0
0
0
0
0
0
0
0
0
0
0
0
0
0
0
0
0
0
0
0
0
0
0
0
0
0
0
0
0
0
0
0
0
0
0
0
0
0
0
0
0
0
0
0
0
0
0
0
0
0
0
0
0
0
0
0
0
0
0
0
0
0
0
0
0
0
0
0
0
0
0
0
0
0
0
0
0
0
0
0
0
0
0
0
0
0
0
0
0
0
0
0
0
0
0
0
0
0
0
0
0
0
0
0
0
0
0
0
0
0
0
0
0
0
0
0
0
0
0
0
0
0.0156898
0.0130209
0.00839793
0.0122264
0.190662
0.267754
0.306539
0.454751
0.63059
0.37632
0.398761
0.520177
0.499907
0.346047
0.182446
0.0424669
0.00700675
0.00573449
0.00407563
0.00403989
8.50046e-07
7.06491e-07
4.73602e-06
0.00825541
0.321681
0.337474
0.322114
0.416013
0.246606
0.259664
0.249661
0.838686
0.819752
0.763058
0.401347
0.0610703
2.59027e-06
1.76046e-07
2.07218e-08
1.87835e-08
8.25382e-14
2.67777e-11
4.79661e-10
2.07179e-05
0.011101
0.216563
0.405055
0.395449
0.350771
0.403234
0.289922
0.397954
0.348479
0.35034
0.299828
0.00453462
1.68241e-06
1.23186e-10
1.24245e-12
9.15638e-15
1.39939e-13
1.87719e-11
2.3062e-10
2.44243e-06
0.0034899
0.399806
0.366976
0.452081
0.402521
0.40128
0.381621
0.385415
0.354722
0.368614
0.317215
0.00320295
4.32596e-07
7.06291e-11
2.82909e-13
3.60379e-15
1.03704e-17
4.09548e-12
7.46011e-11
1.0823e-07
0.00158222
0.413793
0.379179
0.415197
0.384571
0.367248
0.36807
0.401696
0.399242
0.380855
0.196906
0.000190427
4.56919e-10
1.72153e-11
3.00986e-14
8.23925e-16
2.54503e-18
1.12545e-13
6.64974e-11
9.32009e-09
0.00056103
0.324614
0.429819
0.409192
0.379532
0.387233
0.400491
0.372013
0.372007
0.381703
0.00885188
1.47638e-06
6.19081e-11
6.89918e-13
1.2428e-15
5.14098e-17
2.5586e-19
2.60963e-15
1.49043e-12
6.45359e-11
2.63818e-06
0.0493875
0.427309
0.418322
0.300592
0.300419
0.361957
0.358805
0.368513
0.368977
0.0198872
2.84984e-06
6.40892e-11
1.15975e-13
6.77906e-17
2.67828e-18
2.20303e-22
2.23408e-16
5.20318e-14
8.59363e-13
7.47761e-10
0.000355172
0.314861
0.291021
0.012625
0.00683723
0.330949
0.295199
0.278912
0.283053
0.029533
2.98649e-06
6.08714e-11
2.39487e-14
3.13994e-17
2.17043e-19
2.73262e-22
2.72359e-18
4.29555e-18
1.59895e-16
1.12226e-11
9.72471e-07
0.00101471
0.000981306
2.19305e-06
5.25514e-07
0.00148524
0.00127317
0.0012759
0.00122407
8.54471e-05
6.89165e-09
1.32262e-11
1.63437e-15
9.85665e-18
6.79215e-20
0
0
0
0
0
0
0
0
0
0
0
0
0
0
0
0
0
0
0
0
0
0
0
0
0
0
0
0
0
0
0
0
0
0
0
0
0
0
0
0
0
0
0
0
0
0
0
0
0
0
0
0
0
0
0
0
0
0
0
0
0
0
0
0
0
0
0
0
0
0
0
0
0
0
0
0
0
0
0
0
0
0
0
0
0
0
0
0
0
0
0
0
0
0
0
0
0
0
0
0
0
0
0
0
0
0
0
0
0
0
0
0
0
0
0
0
0
0
0
0
0
0
0
0
0
0
0
0
0
0
0
0
0
0
0
0
0
0
0
0
0
0
0
0
0
0
0
0
0
0
0
0
0
0
0
0
0
0
0
0
0
0
0
0
0
0
0
0
0
0
0
0
0
0
0
0
0
0
0
0
0
0
0
0
0
0
0
0
0
0
0
0
0
0
0
0
0
0
0
0
0
0
0
0
0
0
0
0
0
0
0
0
0
0
0
0
0
0
0
0
0.0159235
0.0130822
0.00828237
0.0118213
0.192905
0.268055
0.308074
0.45765
0.65072
0.377909
0.395306
0.485139
0.490723
0.351128
0.189505
0.0448649
0.00687275
0.00560777
0.00410317
0.00408083
8.40083e-07
6.84973e-07
2.49929e-06
0.00607951
0.330268
0.337659
0.321495
0.416146
0.245701
0.258115
0.248839
0.844231
0.823556
0.777315
0.42544
0.0672989
2.3005e-06
1.28371e-07
1.7614e-08
1.73478e-08
1.37713e-13
2.61443e-11
3.88214e-10
1.16559e-05
0.0108802
0.211915
0.406145
0.394325
0.349165
0.403114
0.288057
0.397578
0.345447
0.349659
0.29861
0.00441734
1.43704e-06
1.12127e-10
1.40643e-12
1.14589e-14
1.20169e-13
1.80039e-11
1.96413e-10
1.59393e-06
0.00339684
0.399073
0.366895
0.452762
0.402609
0.401654
0.381683
0.384893
0.354041
0.368161
0.318337
0.00303715
3.06443e-07
6.15074e-11
3.57041e-13
4.0884e-15
9.09246e-18
3.82713e-12
5.77592e-11
6.52764e-08
0.00171042
0.414191
0.378176
0.415659
0.38451
0.366893
0.367641
0.401926
0.39954
0.380792
0.203479
0.000220625
3.39472e-10
1.30507e-11
3.26189e-14
8.17411e-16
2.11993e-18
1.14081e-13
4.7081e-11
6.01014e-09
0.000647216
0.33044
0.429728
0.408926
0.379738
0.387459
0.400701
0.372124
0.372016
0.381706
0.00880358
1.43232e-06
6.11718e-11
4.35262e-13
1.04405e-15
4.13206e-17
2.07406e-19
3.15322e-15
1.36049e-12
6.08128e-11
3.10658e-06
0.0514736
0.427915
0.418598
0.305138
0.305356
0.362141
0.359088
0.368825
0.369404
0.0197402
2.9006e-06
6.24955e-11
8.23002e-14
5.39501e-17
1.95834e-18
6.1465e-22
3.0904e-16
5.70598e-14
8.82756e-13
8.78673e-10
0.000359671
0.319502
0.294648
0.0131278
0.00710621
0.334502
0.300087
0.283716
0.288094
0.0304767
3.19915e-06
5.40955e-11
1.65797e-14
1.52267e-17
1.37547e-19
4.29421e-22
3.0419e-18
3.74056e-18
1.19543e-16
1.36876e-11
8.52064e-07
0.00103564
0.000992043
2.26435e-06
5.35383e-07
0.00151944
0.00131789
0.00131069
0.00125412
9.04807e-05
7.45843e-09
9.34052e-12
1.10956e-15
5.39116e-18
3.56147e-20
0
0
0
0
0
0
0
0
0
0
0
0
0
0
0
0
0
0
0
0
0
0
0
0
0
0
0
0
0
0
0
0
0
0
0
0
0
0
0
0
0
0
0
0
0
0
0
0
0
0
0
0
0
0
0
0
0
0
0
0
0
0
0
0
0
0
0
0
0
0
0
0
0
0
0
0
0
0
0
0
0
0
0
0
0
0
0
0
0
0
0
0
0
0
0
0
0
0
0
0
0
0
0
0
0
0
0
0
0
0
0
0
0
0
0
0
0
0
0
0
0
0
0
0
0
0
0
0
0
0
0
0
0
0
0
0
0
0
0
0
0
0
0
0
0
0
0
0
0
0
0
0
0
0
0
0
0
0
0
0
0
0
0
0
0
0
0
0
0
0
0
0
0
0
0
0
0
0
0
0
0
0
0
0
0
0
0
0
0
0
0
0
0
0
0
0
0
0
0
0
0
0
0
0
0
0
0
0
0
0
0
0
0
0
0
0
0
0
0
0
0.0155097
0.0126567
0.00803605
0.0112956
0.194073
0.267482
0.309441
0.460797
0.671027
0.381405
0.394385
0.481298
0.492928
0.357113
0.196936
0.047157
0.00669675
0.0054397
0.0040356
0.00402808
8.12891e-07
6.51263e-07
1.43058e-06
0.00522462
0.339848
0.337841
0.320844
0.416268
0.244722
0.256402
0.247909
0.848053
0.828681
0.793487
0.457783
0.0746045
1.77927e-06
8.07822e-08
1.81724e-08
2.07639e-08
1.31476e-13
2.5389e-11
3.1192e-10
8.4582e-06
0.0107148
0.206636
0.407319
0.393031
0.347387
0.402966
0.285887
0.398312
0.342666
0.348422
0.296589
0.00433639
1.04194e-06
1.00145e-10
1.50586e-12
1.39887e-14
9.29371e-14
1.71349e-11
1.61737e-10
8.91241e-07
0.0033864
0.39826
0.366821
0.453509
0.402712
0.402079
0.381747
0.384388
0.353192
0.36765
0.319337
0.00288567
2.34451e-07
5.283e-11
4.06598e-13
4.68537e-15
7.97204e-18
3.54484e-12
4.30367e-11
3.44844e-08
0.0018406
0.414595
0.377071
0.416203
0.384444
0.366498
0.367161
0.402176
0.399876
0.380725
0.210878
0.000258008
2.82372e-10
9.85946e-12
3.3986e-14
8.27452e-16
1.76638e-18
1.20019e-13
3.69504e-11
4.69505e-09
0.000747363
0.336779
0.429637
0.408631
0.379929
0.387673
0.400943
0.37224
0.372021
0.381705
0.00877122
1.38526e-06
6.09294e-11
2.73818e-13
8.73539e-16
3.24312e-17
1.68194e-19
4.3223e-15
1.44868e-12
6.11323e-11
3.69324e-06
0.0538587
0.428538
0.418869
0.310113
0.310769
0.362318
0.359358
0.36912
0.369823
0.0195494
2.93956e-06
6.16849e-11
5.29969e-14
4.4314e-17
1.40335e-18
1.72813e-21
4.15819e-16
6.30642e-14
9.29753e-13
1.02917e-09
0.00036586
0.32458
0.298607
0.0137073
0.00741643
0.338353
0.30539
0.288945
0.293589
0.031551
3.4383e-06
5.12767e-11
1.01542e-14
7.20818e-18
8.34271e-20
6.54744e-22
3.29006e-18
4.55897e-18
8.61331e-17
1.63559e-11
7.28498e-07
0.00106585
0.00100853
2.33084e-06
5.37225e-07
0.00155866
0.00137244
0.00135996
0.00129496
9.657e-05
8.51347e-09
6.88151e-12
6.56505e-16
2.33566e-18
1.41004e-20
0
0
0
0
0
0
0
0
0
0
0
0
0
0
0
0
0
0
0
0
0
0
0
0
0
0
0
0
0
0
0
0
0
0
0
0
0
0
0
0
0
0
0
0
0
0
0
0
0
0
0
0
0
0
0
0
0
0
0
0
0
0
0
0
0
0
0
0
0
0
0
0
0
0
0
0
0
0
0
0
0
0
0
0
0
0
0
0
0
0
0
0
0
0
0
0
0
0
0
0
0
0
0
0
0
0
0
0
0
0
0
0
0
0
0
0
0
0
0
0
0
0
0
0
0
0
0
0
0
0
0
0
0
0
0
0
0
0
0
0
0
0
0
0
0
0
0
0
0
0
0
0
0
0
0
0
0
0
0
0
0
0
0
0
0
0
0
0
0
0
0
0
0
0
0
0
0
0
0
0
0
0
0
0
0
0
0
0
0
0
0
0
0
0
0
0
0
0
0
0
0
0
0
0
0
0
0
0
0
0
0
0
0
0
0
0
0
0
0
0
0.0151817
0.0123727
0.00786385
0.0108674
0.195871
0.267277
0.311964
0.464143
0.691424
0.386524
0.393518
0.505011
0.499131
0.365035
0.205515
0.0496889
0.00658743
0.00531772
0.00400621
0.0040066
7.68892e-07
6.02793e-07
8.79513e-07
0.00436479
0.348616
0.337986
0.320236
0.416363
0.243828
0.254802
0.24699
0.851022
0.834918
0.808506
0.496762
0.0818298
1.35466e-06
5.84409e-08
1.81674e-08
2.36659e-08
7.66019e-14
2.45757e-11
2.44247e-10
6.18728e-06
0.0106459
0.202142
0.408495
0.391793
0.345727
0.402854
0.283916
0.398969
0.340201
0.346901
0.294268
0.0042974
7.17417e-07
8.67337e-11
1.49331e-12
1.59587e-14
6.17675e-14
1.62118e-11
1.28202e-10
4.51429e-07
0.00342386
0.397482
0.366744
0.454184
0.402796
0.402469
0.381791
0.38396
0.352367
0.36721
0.320156
0.00276331
1.81711e-07
4.45153e-11
4.21128e-13
5.09266e-15
7.12332e-18
3.25215e-12
3.10349e-11
1.92432e-08
0.00196588
0.414951
0.376042
0.416747
0.384369
0.366124
0.366713
0.402411
0.400193
0.380661
0.217845
0.000298625
2.4002e-10
7.41828e-12
3.2958e-14
8.13607e-16
1.49498e-18
1.24111e-13
2.84135e-11
3.31833e-09
0.000851267
0.342507
0.429546
0.408339
0.380067
0.387839
0.401174
0.372342
0.372023
0.381719
0.00875983
1.34412e-06
6.07223e-11
1.80482e-13
7.34395e-16
2.45409e-17
1.38068e-19
5.83438e-15
1.55061e-12
6.13778e-11
4.32313e-06
0.0561572
0.429073
0.419078
0.314646
0.315724
0.36246
0.35958
0.369357
0.37017
0.0193366
2.95124e-06
6.11298e-11
3.3673e-14
3.85806e-17
9.97706e-19
4.7281e-21
5.48478e-16
6.80598e-14
9.88577e-13
1.19903e-09
0.000372163
0.329156
0.302161
0.0142663
0.00771486
0.341786
0.31016
0.293644
0.298532
0.0325523
3.64944e-06
4.9605e-11
5.84695e-15
4.55166e-18
5.40774e-20
9.68301e-22
3.45847e-18
7.52922e-18
5.83921e-17
1.90587e-11
6.16012e-07
0.00109103
0.00102341
2.37884e-06
5.26491e-07
0.00158727
0.00141943
0.0014031
0.00133289
0.000101943
9.78412e-09
4.52707e-12
3.51447e-16
7.70754e-19
4.32366e-21
0
0
0
0
0
0
0
0
0
0
0
0
0
0
0
0
0
0
0
0
0
0
0
0
0
0
0
0
0
0
0
0
0
0
0
0
0
0
0
0
0
0
0
0
0
0
0
0
0
0
0
0
0
0
0
0
0
0
0
0
0
0
0
0
0
0
0
0
0
0
0
0
0
0
0
0
0
0
0
0
0
0
0
0
0
0
0
0
0
0
0
0
0
0
0
0
0
0
0
0
0
0
0
0
0
0
0
0
0
0
0
0
0
0
0
0
0
0
0
0
0
0
0
0
0
0
0
0
0
0
0
0
0
0
0
0
0
0
0
0
0
0
0
0
0
0
0
0
0
0
0
0
0
0
0
0
0
0
0
0
0
0
0
0
0
0
0
0
0
0
0
0
0
0
0
0
0
0
0
0
0
0
0
0
0
0
0
0
0
0
0
0
0
0
0
0
0
0
0
0
0
0
0
0
0
0
0
0
0
0
0
0
0
0
0
0
0
0
0
0
0.0148457
0.0120707
0.0077067
0.0104756
0.197477
0.266801
0.314806
0.4667
0.710678
0.391177
0.39354
0.511572
0.502895
0.375455
0.213446
0.0523642
0.00650148
0.00520626
0.0039666
0.00397683
7.14477e-07
5.30739e-07
5.44762e-07
0.0035661
0.357183
0.338123
0.31968
0.416466
0.242982
0.253211
0.245952
0.853235
0.842482
0.823293
0.539709
0.0904269
1.1942e-06
4.74685e-08
1.84706e-08
2.67077e-08
3.16234e-14
2.37243e-11
1.84655e-10
4.33039e-06
0.0106159
0.198
0.409661
0.390528
0.344099
0.402738
0.281924
0.397194
0.337485
0.344734
0.291146
0.00427411
4.664e-07
7.26295e-11
1.39764e-12
1.62902e-14
3.12825e-14
1.52944e-11
9.74637e-11
2.11211e-07
0.00352977
0.396712
0.366677
0.454841
0.402879
0.40286
0.381834
0.383576
0.351499
0.366786
0.32076
0.00265113
1.43339e-07
3.65802e-11
4.05119e-13
5.15378e-15
6.45162e-18
2.92973e-12
2.13618e-11
9.98951e-09
0.00208735
0.415277
0.375036
0.417313
0.384291
0.365754
0.366268
0.402637
0.400509
0.380598
0.224776
0.000344176
2.08716e-10
5.53921e-12
3.03904e-14
7.56846e-16
1.2867e-18
1.21023e-13
2.03399e-11
2.25145e-09
0.00096332
0.348004
0.429455
0.408049
0.380172
0.387975
0.401407
0.372434
0.372018
0.381736
0.00875867
1.30981e-06
6.04752e-11
1.25624e-13
6.28874e-16
1.8247e-17
1.16121e-19
7.42071e-15
1.64698e-12
6.15569e-11
5.02102e-06
0.0584911
0.429563
0.419253
0.319028
0.320529
0.362576
0.359766
0.369552
0.370472
0.0190933
2.92371e-06
6.04114e-11
2.1779e-14
3.58711e-17
6.97836e-19
1.22911e-20
7.11024e-16
7.04893e-14
1.04856e-12
1.38989e-09
0.000378998
0.333548
0.305573
0.0148343
0.00801813
0.345049
0.314707
0.298133
0.30326
0.0335419
3.82163e-06
4.77481e-11
3.31837e-15
4.27728e-18
4.12579e-20
1.38872e-21
3.54747e-18
1.37956e-17
3.65463e-17
2.16099e-11
5.12044e-07
0.0011054
0.00103401
2.41702e-06
5.17078e-07
0.00160243
0.00145239
0.00143003
0.00135983
0.000105842
1.12553e-08
1.77992e-12
1.74088e-16
2.81395e-19
1.88138e-21
0
0
0
0
0
0
0
0
0
0
0
0
0
0
0
0
0
0
0
0
0
0
0
0
0
0
0
0
0
0
0
0
0
0
0
0
0
0
0
0
0
0
0
0
0
0
0
0
0
0
0
0
0
0
0
0
0
0
0
0
0
0
0
0
0
0
0
0
0
0
0
0
0
0
0
0
0
0
0
0
0
0
0
0
0
0
0
0
0
0
0
0
0
0
0
0
0
0
0
0
0
0
0
0
0
0
0
0
0
0
0
0
0
0
0
0
0
0
0
0
0
0
0
0
0
0
0
0
0
0
0
0
0
0
0
0
0
0
0
0
0
0
0
0
0
0
0
0
0
0
0
0
0
0
0
0
0
0
0
0
0
0
0
0
0
0
0
0
0
0
0
0
0
0
0
0
0
0
0
0
0
0
0
0
0
0
0
0
0
0
0
0
0
0
0
0
0
0
0
0
0
0
0
0
0
0
0
0
0
0
0
0
0
0
0
0
0
0
0
0
0.0144872
0.0117452
0.0075708
0.0101424
0.199232
0.266357
0.318747
0.468056
0.727836
0.397754
0.39551
0.499966
0.504915
0.386247
0.223357
0.0551067
0.00642953
0.00510827
0.00392984
0.00395045
6.4927e-07
4.92214e-07
3.55442e-07
0.00291371
0.36526
0.338248
0.319177
0.416557
0.242198
0.251697
0.244878
0.854789
0.850589
0.836553
0.577203
0.100928
9.76444e-07
4.18878e-08
1.89357e-08
2.95951e-08
1.25071e-14
2.28303e-11
1.34524e-10
3.00354e-06
0.0105979
0.194232
0.410835
0.389281
0.342548
0.402618
0.280027
0.39114
0.334098
0.341995
0.286832
0.00430428
3.12849e-07
5.87689e-11
1.25777e-12
1.51932e-14
7.93271e-15
1.43583e-11
7.12072e-11
9.09705e-08
0.0036693
0.395965
0.366611
0.455461
0.402951
0.403233
0.381868
0.383232
0.350638
0.366399
0.321133
0.00254051
1.05073e-07
2.92034e-11
3.74707e-13
4.87059e-15
5.89585e-18
2.65481e-12
1.43379e-11
4.81724e-09
0.0022035
0.415572
0.374085
0.417889
0.384209
0.365396
0.365843
0.40285
0.400812
0.380536
0.231415
0.000394908
1.84746e-10
4.09371e-12
2.80005e-14
6.59517e-16
1.12431e-18
1.13275e-13
1.41376e-11
1.55703e-09
0.00108301
0.353081
0.429353
0.407761
0.380243
0.388083
0.401632
0.372515
0.372007
0.381752
0.00878689
1.28349e-06
5.59546e-11
9.08501e-14
5.54262e-16
1.34316e-17
1.02977e-19
8.7712e-15
1.71941e-12
6.17433e-11
5.81125e-06
0.0607908
0.430006
0.419386
0.323116
0.325031
0.362666
0.359921
0.36971
0.37073
0.018828
2.8521e-06
6.03269e-11
1.45933e-14
3.48278e-17
4.87232e-19
2.99216e-20
8.95838e-16
7.07657e-14
1.15945e-12
1.60164e-09
0.000385891
0.337609
0.308722
0.0153937
0.00831544
0.348047
0.318906
0.302272
0.307625
0.0344793
3.93758e-06
4.47447e-11
1.90004e-15
4.17852e-18
3.26851e-20
1.93137e-21
3.56314e-18
2.47534e-17
2.07255e-17
2.28906e-11
4.17985e-07
0.00110599
0.00103587
2.49479e-06
5.14042e-07
0.00160001
0.00146329
0.00143358
0.00136571
0.00010732
1.22175e-08
4.70699e-14
7.96813e-17
7.47019e-20
7.73893e-22
0
0
0
0
0
0
0
0
0
0
0
0
0
0
0
0
0
0
0
0
0
0
0
0
0
0
0
0
0
0
0
0
0
0
0
0
0
0
0
0
0
0
0
0
0
0
0
0
0
0
0
0
0
0
0
0
0
0
0
0
0
0
0
0
0
0
0
0
0
0
0
0
0
0
0
0
0
0
0
0
0
0
0
0
0
0
0
0
0
0
0
0
0
0
0
0
0
0
0
0
0
0
0
0
0
0
0
0
0
0
0
0
0
0
0
0
0
0
0
0
0
0
0
0
0
0
0
0
0
0
0
0
0
0
0
0
0
0
0
0
0
0
0
0
0
0
0
0
0
0
0
0
0
0
0
0
0
0
0
0
0
0
0
0
0
0
0
0
0
0
0
0
0
0
0
0
0
0
0
0
0
0
0
0
0
0
0
0
0
0
0
0
0
0
0
0
0
0
0
0
0
0
0
0
0
0
0
0
0
0
0
0
0
0
0
0
0
0
0
0
0.0140598
0.0113623
0.00745144
0.00985943
0.201024
0.265715
0.323202
0.46822
0.74322
0.410665
0.396035
0.493687
0.508868
0.39647
0.232894
0.0579095
0.00637553
0.00501892
0.00388965
0.00392429
5.70143e-07
5.06706e-07
2.60196e-07
0.00243813
0.373
0.338374
0.31873
0.416641
0.241475
0.250217
0.243661
0.856015
0.858822
0.848524
0.613053
0.1119
7.17194e-07
3.96672e-08
1.97621e-08
3.25171e-08
6.73198e-15
2.18966e-11
9.60944e-11
2.21161e-06
0.0105662
0.190561
0.412011
0.388025
0.341051
0.402463
0.278158
0.383558
0.330062
0.338587
0.282907
0.00431013
2.11314e-07
4.68096e-11
1.11295e-12
1.34963e-14
3.2235e-15
1.33982e-11
5.1712e-11
3.64358e-08
0.00381491
0.395234
0.366551
0.456052
0.403017
0.403596
0.3819
0.382925
0.34976
0.366022
0.32141
0.00242993
7.17538e-08
2.26672e-11
3.47092e-13
4.39662e-15
5.42233e-18
2.42324e-12
1.07398e-11
2.35391e-09
0.00231457
0.415844
0.373181
0.418479
0.384124
0.365047
0.36543
0.403053
0.401106
0.380474
0.237884
0.000451105
1.51888e-10
2.99799e-12
2.62048e-14
5.39819e-16
9.9564e-19
1.03932e-13
1.03564e-11
1.18487e-09
0.00121044
0.357873
0.429228
0.407477
0.380289
0.388169
0.401856
0.372588
0.37199
0.38176
0.00881658
1.26414e-06
3.74935e-11
6.73305e-14
5.0376e-16
9.90994e-18
1.02963e-19
9.70098e-15
1.75584e-12
6.23687e-11
6.74458e-06
0.0630977
0.430423
0.419485
0.327006
0.329334
0.362732
0.360051
0.369839
0.370952
0.0185354
2.7345e-06
5.98322e-11
1.0033e-14
3.44008e-17
3.46431e-19
6.76459e-20
1.09282e-15
7.15948e-14
1.93659e-12
1.83258e-09
0.000393191
0.341383
0.31165
0.0159512
0.00861114
0.350786
0.32278
0.306095
0.311664
0.0353819
3.99663e-06
3.95296e-11
1.10944e-15
3.58177e-18
2.26146e-20
2.60519e-21
3.52064e-18
4.17424e-17
1.04568e-17
2.4143e-11
3.41328e-07
0.00109859
0.001037
2.5773e-06
5.1528e-07
0.00159988
0.00147358
0.00143462
0.00136906
0.000108874
1.31831e-08
1.64019e-14
3.33982e-17
3.06363e-20
3.40738e-22
0
0
0
0
0
0
0
0
0
0
0
0
0
0
0
0
0
0
0
0
0
0
0
0
0
0
0
0
0
0
0
0
0
0
0
0
0
0
0
0
0
0
0
0
0
0
0
0
0
0
0
0
0
0
0
0
0
0
0
0
0
0
0
0
0
0
0
0
0
0
0
0
0
0
0
0
0
0
0
0
0
0
0
0
0
0
0
0
0
0
0
0
0
0
0
0
0
0
0
0
0
0
0
0
0
0
0
0
0
0
0
0
0
0
0
0
0
0
0
0
0
0
0
0
0
0
0
0
0
0
0
0
0
0
0
0
0
0
0
0
0
0
0
0
0
0
0
0
0
0
0
0
0
0
0
0
0
0
0
0
0
0
0
0
0
0
0
0
0
0
0
0
0
0
0
0
0
0
0
0
0
0
0
0
0
0
0
0
0
0
0
0
0
0
0
0
0
0
0
0
0
0
0
0
0
0
0
0
0
0
0
0
0
0
0
0
0
0
0
0
0.0135836
0.010944
0.00734718
0.00961322
0.202942
0.264925
0.328215
0.4652
0.756344
0.444278
0.395903
0.499734
0.51463
0.407672
0.24178
0.0607784
0.00633635
0.00493771
0.00384697
0.00390096
5.45855e-07
5.49554e-07
2.09584e-07
0.00207708
0.380311
0.338501
0.318309
0.416708
0.240805
0.248792
0.242411
0.857168
0.866981
0.859156
0.644063
0.12348
6.20263e-07
3.94338e-08
2.10187e-08
3.54314e-08
4.41729e-15
2.08904e-11
7.13461e-11
1.72662e-06
0.010487
0.186804
0.413198
0.386786
0.339628
0.402275
0.276376
0.374658
0.325449
0.334664
0.278953
0.0043169
1.38341e-07
3.76581e-11
9.84661e-13
1.19483e-14
2.02314e-15
1.24274e-11
3.98157e-11
1.42279e-08
0.0039556
0.394536
0.366491
0.456607
0.403073
0.403933
0.381924
0.382643
0.348895
0.365661
0.321589
0.00233491
4.8587e-08
1.77854e-11
3.23055e-13
3.90412e-15
5.00983e-18
2.20023e-12
9.76853e-12
1.56497e-09
0.00242037
0.416087
0.372338
0.419073
0.384034
0.36471
0.365036
0.403243
0.401384
0.380413
0.24402
0.000512346
1.19104e-10
2.18831e-12
2.45782e-14
4.19052e-16
8.94337e-19
9.47887e-14
7.84293e-12
9.64392e-10
0.00134529
0.362275
0.429086
0.407197
0.380312
0.388233
0.402073
0.372653
0.37197
0.381763
0.00886333
1.2523e-06
1.94844e-11
5.05568e-14
4.7217e-16
7.42994e-18
1.27303e-19
1.0228e-14
1.75072e-12
6.2397e-11
7.86349e-06
0.0653647
0.43081
0.419551
0.330623
0.333353
0.362775
0.360159
0.369945
0.371138
0.0182249
2.61589e-06
2.33626e-11
6.93669e-15
3.44438e-17
2.61291e-19
1.41367e-19
1.29122e-15
7.16073e-14
2.72993e-12
2.081e-09
0.000400694
0.344816
0.314307
0.0164953
0.00889812
0.353236
0.326282
0.309548
0.315326
0.0362293
4.0348e-06
2.46488e-11
6.62174e-16
2.90583e-18
1.57301e-20
3.40964e-21
3.43909e-18
6.56367e-17
4.60989e-18
2.54116e-11
2.77671e-07
0.00107783
0.00103332
2.66722e-06
5.2754e-07
0.00160321
0.00148008
0.00142206
0.00136859
0.000110099
1.41755e-08
2.99957e-15
1.27066e-17
1.69323e-20
1.51574e-22
0
0
0
0
0
0
0
0
0
0
0
0
0
0
0
0
0
0
0
0
0
0
0
0
0
0
0
0
0
0
0
0
0
0
0
0
0
0
0
0
0
0
0
0
0
0
0
0
0
0
0
0
0
0
0
0
0
0
0
0
0
0
0
0
0
0
0
0
0
0
0
0
0
0
0
0
0
0
0
0
0
0
0
0
0
0
0
0
0
0
0
0
0
0
0
0
0
0
0
0
0
0
0
0
0
0
0
0
0
0
0
0
0
0
0
0
0
0
0
0
0
0
0
0
0
0
0
0
0
0
0
0
0
0
0
0
0
0
0
0
0
0
0
0
0
0
0
0
0
0
0
0
0
0
0
0
0
0
0
0
0
0
0
0
0
0
0
0
0
0
0
0
0
0
0
0
0
0
0
0
0
0
0
0
0
0
0
0
0
0
0
0
0
0
0
0
0
0
0
0
0
0
0
0
0
0
0
0
0
0
0
0
0
0
0
0
0
0
0
0
0.0131023
0.0105383
0.00725681
0.00939115
0.204953
0.263894
0.333278
0.462351
0.766894
0.508362
0.398642
0.503404
0.522265
0.419531
0.250463
0.0636483
0.00630729
0.00486345
0.00380232
0.00388104
5.53328e-07
5.54408e-07
1.82514e-07
0.00177743
0.387322
0.338648
0.317913
0.416783
0.240181
0.247297
0.240967
0.858607
0.875112
0.868719
0.671314
0.134492
5.82542e-07
4.02532e-08
2.25912e-08
3.82835e-08
3.31131e-15
1.98357e-11
5.87391e-11
1.38411e-06
0.0103642
0.182736
0.414388
0.385554
0.338266
0.40206
0.274646
0.363346
0.320252
0.330095
0.275154
0.00430646
8.69921e-08
3.14495e-11
8.87045e-13
1.11651e-14
1.56289e-15
1.14568e-11
3.43423e-11
7.39539e-09
0.00409471
0.393867
0.366435
0.457129
0.403122
0.40425
0.381943
0.382338
0.348025
0.365301
0.321688
0.00228294
3.12146e-08
1.46597e-11
3.0452e-13
3.52492e-15
4.6446e-18
1.98615e-12
1.02264e-11
1.13131e-09
0.00252082
0.416298
0.371545
0.419674
0.383943
0.364384
0.364657
0.403422
0.401649
0.380351
0.249918
0.000577736
9.04237e-11
1.59879e-12
2.26901e-14
3.1709e-16
8.21002e-19
8.82738e-14
5.99435e-12
6.50059e-10
0.00148748
0.36639
0.428933
0.406921
0.380319
0.388276
0.402288
0.372712
0.371946
0.381763
0.00892158
1.24676e-06
1.02649e-11
3.80865e-14
4.52856e-16
5.76986e-18
1.97625e-19
1.05022e-14
1.71398e-12
6.23802e-11
9.18541e-06
0.0676214
0.431173
0.419592
0.334032
0.337158
0.362798
0.36025
0.370032
0.371293
0.0178945
2.57064e-06
3.65718e-12
4.7903e-15
3.45567e-17
2.0554e-19
2.72466e-19
1.47711e-15
7.36599e-14
3.46242e-12
2.34438e-09
0.000408708
0.347964
0.316744
0.0170301
0.00918002
0.35544
0.329466
0.312691
0.318668
0.0370306
4.14644e-06
7.06643e-13
4.03118e-16
2.34057e-18
1.21657e-20
4.33306e-21
3.3417e-18
9.65791e-17
1.74344e-18
2.67144e-11
2.24914e-07
0.00106581
0.00102088
2.75653e-06
5.41436e-07
0.00161253
0.00148657
0.00140423
0.00136359
0.000111432
1.54399e-08
2.95497e-16
4.43676e-18
9.1337e-21
6.57657e-23
0
0
0
0
0
0
0
0
0
0
0
0
0
0
0
0
0
0
0
0
0
0
0
0
0
0
0
0
0
0
0
0
0
0
0
0
0
0
0
0
0
0
0
0
0
0
0
0
0
0
0
0
0
0
0
0
0
0
0
0
0
0
0
0
0
0
0
0
0
0
0
0
0
0
0
0
0
0
0
0
0
0
0
0
0
0
0
0
0
0
0
0
0
0
0
0
0
0
0
0
0
0
0
0
0
0
0
0
0
0
0
0
0
0
0
0
0
0
0
0
0
0
0
0
0
0
0
0
0
0
0
0
0
0
0
0
0
0
0
0
0
0
0
0
0
0
0
0
0
0
0
0
0
0
0
0
0
0
0
0
0
0
0
0
0
0
0
0
0
0
0
0
0
0
0
0
0
0
0
0
0
0
0
0
0
0
0
0
0
0
0
0
0
0
0
0
0
0
0
0
0
0
0
0
0
0
0
0
0
0
0
0
0
0
0
0
0
0
0
0
0.0126375
0.0101684
0.00717934
0.00918168
0.207129
0.262649
0.338053
0.466245
0.775191
0.567891
0.405806
0.515875
0.531481
0.431394
0.258807
0.0664708
0.0062939
0.00479522
0.00375703
0.00386526
5.72265e-07
5.36013e-07
1.67782e-07
0.00150024
0.39403
0.338804
0.317549
0.417021
0.239594
0.245615
0.239232
0.860046
0.883193
0.877093
0.695392
0.14505
5.6656e-07
4.17612e-08
2.45035e-08
4.08591e-08
2.69859e-15
1.87209e-11
5.41422e-11
1.09741e-06
0.0101922
0.178345
0.41558
0.384358
0.336981
0.401836
0.273004
0.351352
0.31484
0.325047
0.271363
0.00429935
4.94666e-08
2.74838e-11
8.2263e-13
1.11445e-14
1.28998e-15
1.04932e-11
3.34083e-11
4.28721e-09
0.00423756
0.393239
0.366381
0.457615
0.403159
0.404537
0.381953
0.382033
0.347173
0.364952
0.321744
0.00227224
1.7984e-08
1.26398e-11
2.93783e-13
3.25519e-15
4.31897e-18
1.78193e-12
1.11186e-11
9.83079e-10
0.00261538
0.416478
0.370812
0.420274
0.383848
0.364072
0.364298
0.403585
0.401892
0.380287
0.255458
0.000646259
6.21591e-11
1.16413e-12
2.04892e-14
2.42508e-16
7.85944e-19
8.52216e-14
5.07284e-12
3.20507e-10
0.00163729
0.370138
0.428765
0.406652
0.380303
0.388299
0.402496
0.372764
0.371919
0.381753
0.00899045
1.24147e-06
7.90342e-12
2.85192e-14
4.38845e-16
4.66534e-18
3.47339e-19
1.06475e-14
1.65619e-12
6.23107e-11
1.06838e-05
0.0698274
0.431515
0.41961
0.337178
0.340686
0.362805
0.360325
0.370102
0.371421
0.0175581
2.678e-06
2.77351e-12
3.26892e-15
3.4227e-17
1.62771e-19
4.84095e-19
1.63169e-15
8.05317e-14
4.13265e-12
2.61902e-09
0.000417132
0.350783
0.31892
0.017549
0.00945341
0.357372
0.332297
0.315486
0.321653
0.037765
5.24899e-06
5.4001e-13
2.46361e-16
1.92729e-18
9.54247e-21
5.3533e-21
3.25069e-18
1.34118e-16
5.54883e-19
2.80571e-11
1.78437e-07
0.00106305
0.00100329
2.83937e-06
5.57109e-07
0.00161605
0.00149088
0.00139147
0.00134173
0.000112528
1.7469e-08
1.59793e-17
1.44917e-18
4.96619e-21
3.04695e-23
0
0
0
0
0
0
0
0
0
0
0
0
0
0
0
0
0
0
0
0
0
0
0
0
0
0
0
0
0
0
0
0
0
0
0
0
0
0
0
0
0
0
0
0
0
0
0
0
0
0
0
0
0
0
0
0
0
0
0
0
0
0
0
0
0
0
0
0
0
0
0
0
0
0
0
0
0
0
0
0
0
0
0
0
0
0
0
0
0
0
0
0
0
0
0
0
0
0
0
0
0
0
0
0
0
0
0
0
0
0
0
0
0
0
0
0
0
0
0
0
0
0
0
0
0
0
0
0
0
0
0
0
0
0
0
0
0
0
0
0
0
0
0
0
0
0
0
0
0
0
0
0
0
0
0
0
0
0
0
0
0
0
0
0
0
0
0
0
0
0
0
0
0
0
0
0
0
0
0
0
0
0
0
0
0
0
0
0
0
0
0
0
0
0
0
0
0
0
0
0
0
0
0
0
0
0
0
0
0
0
0
0
0
0
0
0
0
0
0
0
0.0121949
0.00983287
0.007112
0.00897902
0.209463
0.2612
0.342314
0.521547
0.782779
0.59153
0.410288
0.530727
0.542119
0.44297
0.26697
0.0692457
0.00629037
0.00473151
0.00371197
0.00385396
5.84368e-07
4.82591e-07
1.60413e-07
0.00122953
0.400541
0.338974
0.317211
0.417527
0.239043
0.244027
0.23704
0.8613
0.89111
0.884863
0.717163
0.155465
5.61133e-07
4.34991e-08
2.67245e-08
4.29154e-08
2.30924e-15
1.75402e-11
5.41339e-11
8.16897e-07
0.00997898
0.173735
0.41676
0.383214
0.335764
0.401608
0.271431
0.340092
0.309622
0.319567
0.267709
0.00429486
2.2152e-08
2.79812e-11
8.4051e-13
1.23989e-14
1.08251e-15
9.54409e-12
3.48432e-11
2.7734e-09
0.00438636
0.392642
0.366331
0.458065
0.403187
0.404799
0.381956
0.381754
0.346331
0.364606
0.321779
0.00228235
9.45095e-09
1.33876e-11
3.24e-13
3.23741e-15
4.03257e-18
1.5885e-12
1.20479e-11
8.39631e-10
0.00270396
0.41663
0.370131
0.420874
0.383751
0.363775
0.363954
0.403732
0.402116
0.380224
0.260714
0.000717354
3.09913e-11
8.3349e-13
1.79659e-14
1.914e-16
8.19454e-19
8.412e-14
4.94382e-12
1.57785e-10
0.00179439
0.373597
0.428583
0.406392
0.380276
0.388306
0.402697
0.372811
0.371888
0.381726
0.00906402
1.23413e-06
4.78914e-12
2.10068e-14
4.23866e-16
3.82748e-18
6.17209e-19
1.06905e-14
1.58664e-12
6.21953e-11
1.2329e-05
0.0720079
0.431838
0.419613
0.340112
0.34399
0.362789
0.360384
0.370155
0.371525
0.0172203
3.37922e-06
1.5927e-12
2.16905e-15
3.31582e-17
1.26778e-19
7.93772e-19
1.73243e-15
9.38412e-14
4.78829e-12
2.90049e-09
0.000426277
0.353287
0.32085
0.018064
0.00972679
0.359037
0.334794
0.31796
0.324309
0.0384576
9.38199e-06
3.18437e-13
1.47103e-16
1.60741e-18
7.50667e-21
6.44096e-21
3.18647e-18
1.77791e-16
1.47659e-19
2.94407e-11
1.35088e-07
0.00106745
0.000985972
2.89867e-06
5.68161e-07
0.00161662
0.00149364
0.0013875
0.00131044
0.000113281
2.65101e-08
4.77457e-19
4.51458e-19
2.70778e-21
1.41686e-23
0
0
0
0
0
0
0
0
0
0
0
0
0
0
0
0
0
0
0
0
0
0
0
0
0
0
0
0
0
0
0
0
0
0
0
0
0
0
0
0
0
0
0
0
0
0
0
0
0
0
0
0
0
0
0
0
0
0
0
0
0
0
0
0
0
0
0
0
0
0
0
0
0
0
0
0
0
0
0
0
0
0
0
0
0
0
0
0
0
0
0
0
0
0
0
0
0
0
0
0
0
0
0
0
0
0
0
0
0
0
0
0
0
0
0
0
0
0
0
0
0
0
0
0
0
0
0
0
0
0
0
0
0
0
0
0
0
0
0
0
0
0
0
0
0
0
0
0
0
0
0
0
0
0
0
0
0
0
0
0
0
0
0
0
0
0
0
0
0
0
0
0
0
0
0
0
0
0
0
0
0
0
0
0
0
0
0
0
0
0
0
0
0
0
0
0
0
0
0
0
0
0
0
0
0
0
0
0
0
0
0
0
0
0
0
0
0
0
0
0
0.0117752
0.00952668
0.0070502
0.00877982
0.212055
0.259492
0.344248
0.577455
0.790276
0.607339
0.414052
0.539624
0.552506
0.454617
0.274941
0.0719708
0.00628988
0.00467039
0.00366825
0.00384683
5.81824e-07
3.99948e-07
1.57928e-07
0.000959818
0.406806
0.339127
0.316879
0.418188
0.238527
0.242552
0.23454
0.862318
0.898321
0.891927
0.738254
0.166144
5.62461e-07
4.50284e-08
2.8849e-08
4.42939e-08
2.0293e-15
1.6299e-11
5.58869e-11
5.44968e-07
0.00971341
0.169242
0.417912
0.38218
0.33462
0.40139
0.269947
0.330267
0.304921
0.313957
0.264174
0.00428551
7.76263e-09
3.205e-11
9.70855e-13
1.59427e-14
9.09359e-16
8.61679e-12
3.70205e-11
1.99123e-09
0.0045385
0.392073
0.366283
0.458477
0.403203
0.405031
0.381937
0.381506
0.345517
0.364272
0.321867
0.00232275
4.63116e-09
1.56224e-11
3.99949e-13
3.62924e-15
3.8034e-18
1.40615e-12
1.29906e-11
7.17425e-10
0.00278687
0.416756
0.369505
0.421471
0.383652
0.363494
0.36363
0.403859
0.402317
0.380162
0.265592
0.000790485
5.69807e-12
5.74085e-13
1.50913e-14
1.53935e-16
1.03194e-18
8.23586e-14
4.93972e-12
1.49769e-10
0.00195708
0.376712
0.428387
0.406139
0.380237
0.388299
0.402887
0.372852
0.371854
0.3817
0.00913945
1.2192e-06
1.99811e-12
1.50065e-14
4.03253e-16
3.10928e-18
1.04315e-18
1.05713e-14
1.50976e-12
6.21204e-11
1.41043e-05
0.0741308
0.432139
0.419579
0.342795
0.347028