/*--------------------------------*- C++ -*----------------------------------*\
| =========                 |                                                 |
| \\      /  F ield         | OpenFOAM: The Open Source CFD Toolbox           |
|  \\    /   O peration     | Version:  2.3.0                                 |
|   \\  /    A nd           | Web:      www.OpenFOAM.org                      |
|    \\/     M anipulation  |                                                 |
\*---------------------------------------------------------------------------*/
FoamFile
{
    version     2.0;
    format      ascii;
    class       volScalarField;
    location    "2.2";
    object      alpha.air;
}
// * * * * * * * * * * * * * * * * * * * * * * * * * * * * * * * * * * * * * //

dimensions      [0 0 0 0 0 0 0];

internalField   nonuniform List<scalar> 
10000
(
0.00274158
0.00262807
0.00421306
0.0111365
0.16687
0.273596
0.383497
0.470809
0.552001
0.599598
0.527665
0.689423
0.633617
0.588833
0.492523
0.148784
0.0109101
0.00746435
0.00582723
0.00502165
2.50613e-09
2.1779e-09
1.95831e-05
0.0124098
0.248276
0.280516
0.362276
0.206639
0.218868
0.265275
0.247156
0.856605
0.85519
0.865814
0.82732
0.193021
0.0015736
9.85494e-08
3.39233e-08
2.51859e-08
1.11065e-12
1.75114e-10
2.52181e-08
0.000106058
0.0134907
0.215431
0.364828
0.380527
0.358422
0.398712
0.304174
0.384068
0.471837
0.421231
0.417526
0.0171352
5.09187e-05
4.32886e-10
3.69796e-12
2.78254e-14
1.04495e-13
5.46412e-12
2.41585e-10
1.19897e-05
0.0106609
0.356541
0.389468
0.403549
0.374652
0.329065
0.312753
0.427689
0.425362
0.345805
0.319498
0.0121178
3.87314e-05
3.07785e-10
4.42756e-12
4.06169e-14
5.09177e-14
3.49841e-12
1.99689e-10
7.03956e-06
0.0120065
0.338883
0.354951
0.360175
0.404496
0.348149
0.305494
0.320847
0.330674
0.339251
0.310247
0.00638214
6.80871e-06
2.11419e-11
6.35111e-13
1.61371e-14
2.32431e-14
2.96583e-12
4.02408e-10
2.61525e-06
0.00996317
0.34974
0.371657
0.397273
0.356153
0.403025
0.303312
0.303228
0.313611
0.356099
0.319805
0.00450536
1.41578e-06
3.78846e-11
4.36484e-13
8.08195e-15
2.04889e-15
1.00392e-12
5.53892e-10
9.18069e-08
0.00240651
0.353199
0.368237
0.380107
0.400892
0.338854
0.303621
0.307896
0.292517
0.337977
0.273409
0.0018577
3.31866e-08
1.43177e-10
8.80144e-13
5.3881e-15
2.31931e-16
1.13209e-13
3.53008e-11
6.98222e-09
0.000522085
0.219389
0.257891
0.214308
0.28842
0.344758
0.366692
0.335741
0.170187
0.154969
0.132103
0.000491331
3.83924e-09
3.85349e-11
3.13633e-13
7.27637e-16
2.3269e-18
3.24989e-15
9.59849e-13
8.5191e-10
5.11807e-06
0.000615158
0.000716509
0.000494839
0.000908101
0.00150709
0.00128812
0.00121078
0.000462842
0.000342902
0.00050193
1.66052e-06
3.48878e-12
7.37154e-14
1.24062e-15
1.01421e-18
1.85732e-41
3.65379e-39
1.51693e-34
1.31517e-34
1.50853e-33
3.67193e-34
1.06883e-35
1.01338e-37
1.95735e-40
6.95642e-44
6.20659e-54
2.61086e-57
1.14988e-61
6.25407e-69
1.86931e-66
5.91553e-65
2.26371e-65
1.24858e-62
2.25724e-62
2.38736e-63
0
0
0
0
0
0
0
0
0
0
0
0
0
0
0
0
0
0
0
0
0
0
0
0
0
0
0
0
0
0
0
0
0
0
0
0
0
0
0
0
0
0
0
0
0
0
0
0
0
0
0
0
0
0
0
0
0
0
0
0
0
0
0
0
0
0
0
0
0
0
0
0
0
0
0
0
0
0
0
0
0
0
0
0
0
0
0
0
0
0
0
0
0
0
0
0
0
0
0
0
0
0
0
0
0
0
0
0
0
0
0
0
0
0
0
0
0
0
0
0
0
0
0
0
0
0
0
0
0
0
0
0
0
0
0
0
0
0
0
0
0
0
0
0
0
0
0
0
0
0
0
0
0
0
0
0
0
0
0
0
0
0
0
0
0
0
0
0
0
0
0
0
0
0
0
0
0
0
0
0
0
0
0
0
0
0
0
0
0
0
0
0
0
0
0
0
0
0
0
0
0.00283372
0.00264312
0.00405253
0.0107272
0.167733
0.276077
0.382612
0.471793
0.565118
0.613635
0.531584
0.697069
0.642016
0.593055
0.496188
0.165233
0.0111364
0.00753377
0.00587617
0.00513842
6.38243e-09
3.57501e-09
1.68354e-05
0.0100716
0.255781
0.28355
0.363164
0.204663
0.216722
0.263083
0.246291
0.863776
0.864195
0.874518
0.838471
0.237882
0.00269756
1.01844e-07
3.1568e-08
3.31057e-08
4.30079e-13
6.97817e-11
1.96726e-08
9.06246e-05
0.0151923
0.211178
0.364529
0.381074
0.357967
0.40068
0.303937
0.380269
0.472691
0.424382
0.425418
0.0169487
4.31003e-05
2.66808e-10
3.3586e-12
2.79182e-14
8.48505e-14
4.39591e-12
2.01165e-10
1.31434e-05
0.0110218
0.356989
0.390047
0.404276
0.373777
0.328947
0.31274
0.430251
0.429155
0.346065
0.320114
0.0108743
3.37283e-05
2.08041e-10
3.8667e-12
3.68889e-14
3.78373e-14
1.96814e-12
7.6626e-11
7.2563e-06
0.0122963
0.33836
0.354562
0.359437
0.405489
0.346506
0.305503
0.321664
0.331214
0.338588
0.309634
0.00618267
5.56629e-06
1.23348e-11
4.22747e-13
9.80101e-15
1.4095e-14
1.07999e-12
6.80811e-11
2.49054e-06
0.0101246
0.349722
0.371616
0.397258
0.355192
0.404438
0.303263
0.303136
0.313821
0.35604
0.320192
0.0047188
1.03941e-06
2.35416e-11
2.54409e-13
4.87003e-15
1.84776e-15
4.12782e-13
6.79422e-11
8.25071e-08
0.00273401
0.355517
0.368972
0.381731
0.401528
0.338665
0.302346
0.307127
0.294214
0.341051
0.278329
0.00215964
2.15678e-08
9.20566e-11
5.56291e-13
3.68373e-15
2.02408e-16
8.48039e-14
2.51389e-11
5.11033e-09
0.000714576
0.228575
0.264778
0.219891
0.295852
0.35147
0.372903
0.343236
0.17574
0.161095
0.140964
0.000617155
2.30034e-09
2.63887e-11
2.22953e-13
5.14524e-16
1.8407e-18
1.52654e-15
3.59777e-13
5.35161e-10
5.16855e-06
0.000651638
0.000744656
0.000515074
0.000941326
0.00156763
0.00133429
0.00126954
0.000485967
0.000360683
0.000543903
2.25504e-06
2.84792e-12
6.07489e-14
9.86631e-16
7.9214e-19
1.85211e-41
1.75469e-38
1.01961e-33
2.08531e-34
1.44093e-33
4.89514e-34
1.43173e-35
1.33247e-37
2.55241e-40
9.13363e-44
6.72311e-54
2.75254e-57
1.19098e-61
1.1079e-68
2.45629e-66
6.15091e-65
6.60488e-65
6.71109e-62
1.18343e-61
6.66693e-63
0
0
0
0
0
0
0
0
0
0
0
0
0
0
0
0
0
0
0
0
0
0
0
0
0
0
0
0
0
0
0
0
0
0
0
0
0
0
0
0
0
0
0
0
0
0
0
0
0
0
0
0
0
0
0
0
0
0
0
0
0
0
0
0
0
0
0
0
0
0
0
0
0
0
0
0
0
0
0
0
0
0
0
0
0
0
0
0
0
0
0
0
0
0
0
0
0
0
0
0
0
0
0
0
0
0
0
0
0
0
0
0
0
0
0
0
0
0
0
0
0
0
0
0
0
0
0
0
0
0
0
0
0
0
0
0
0
0
0
0
0
0
0
0
0
0
0
0
0
0
0
0
0
0
0
0
0
0
0
0
0
0
0
0
0
0
0
0
0
0
0
0
0
0
0
0
0
0
0
0
0
0
0
0
0
0
0
0
0
0
0
0
0
0
0
0
0
0
0
0
0.00287906
0.00265704
0.00396836
0.0105758
0.168043
0.277587
0.381057
0.472042
0.572368
0.621584
0.531986
0.702206
0.647144
0.593698
0.494666
0.174177
0.0112468
0.00763164
0.00594526
0.00521316
6.66286e-09
2.03155e-09
7.35448e-06
0.00709256
0.258195
0.285249
0.363649
0.203557
0.215545
0.261873
0.245868
0.868799
0.869232
0.879256
0.844487
0.262763
0.00323669
7.12688e-08
2.40419e-08
2.84585e-08
2.12321e-13
3.63221e-11
1.28334e-08
6.86813e-05
0.0165571
0.208482
0.364338
0.381416
0.357743
0.401791
0.303824
0.377212
0.472174
0.425493
0.429476
0.0179049
3.12384e-05
1.13416e-10
2.08173e-12
2.08073e-14
6.65744e-14
3.81921e-12
1.73804e-10
1.19151e-05
0.0111054
0.357299
0.390374
0.404681
0.373289
0.328893
0.312732
0.431655
0.431229
0.346211
0.32049
0.0103459
2.25899e-05
9.76423e-11
2.58509e-12
2.59327e-14
2.92415e-14
1.69972e-12
6.84202e-11
6.51452e-06
0.0122041
0.338105
0.354345
0.359029
0.406039
0.345594
0.305494
0.322122
0.331514
0.33822
0.309319
0.00614747
3.49619e-06
7.11866e-12
2.67447e-13
5.39929e-15
9.93035e-15
7.6036e-13
4.9544e-11
2.0077e-06
0.0101113
0.349714
0.371594
0.397246
0.354658
0.405215
0.303252
0.303086
0.313922
0.356003
0.320365
0.00482094
5.49227e-07
1.34829e-11
1.4166e-13
2.28431e-15
1.37194e-15
2.62771e-13
4.27406e-11
6.38061e-08
0.00303765
0.356738
0.369318
0.382552
0.401826
0.338472
0.301587
0.306602
0.295059
0.342601
0.280796
0.00234325
1.11814e-08
5.15631e-11
3.1401e-13
2.09195e-15
1.56399e-16
6.04759e-14
1.86112e-11
3.37459e-09
0.000876309
0.233507
0.26847
0.222898
0.299826
0.355093
0.376262
0.347318
0.178725
0.16443
0.145899
0.000699772
1.15879e-09
1.58163e-11
1.421e-13
3.31231e-16
1.23379e-18
7.30987e-16
1.78267e-13
2.9417e-10
4.97946e-06
0.000669964
0.000759838
0.000526299
0.000959176
0.00160372
0.00135933
0.00130189
0.000497838
0.000371555
0.000565149
2.62282e-06
2.05468e-12
4.44655e-14
6.52507e-16
5.42319e-19
2.33365e-41
8.4707e-38
6.45917e-33
5.98098e-34
1.76882e-33
2.43889e-33
6.79912e-35
5.90515e-37
1.03157e-39
3.4102e-43
7.36717e-54
2.88921e-57
1.33555e-61
3.4837e-67
4.79881e-65
4.44043e-64
3.63757e-64
3.56014e-61
9.34285e-61
2.50324e-62
0
0
0
0
0
0
0
0
0
0
0
0
0
0
0
0
0
0
0
0
0
0
0
0
0
0
0
0
0
0
0
0
0
0
0
0
0
0
0
0
0
0
0
0
0
0
0
0
0
0
0
0
0
0
0
0
0
0
0
0
0
0
0
0
0
0
0
0
0
0
0
0
0
0
0
0
0
0
0
0
0
0
0
0
0
0
0
0
0
0
0
0
0
0
0
0
0
0
0
0
0
0
0
0
0
0
0
0
0
0
0
0
0
0
0
0
0
0
0
0
0
0
0
0
0
0
0
0
0
0
0
0
0
0
0
0
0
0
0
0
0
0
0
0
0
0
0
0
0
0
0
0
0
0
0
0
0
0
0
0
0
0
0
0
0
0
0
0
0
0
0
0
0
0
0
0
0
0
0
0
0
0
0
0
0
0
0
0
0
0
0
0
0
0
0
0
0
0
0
0
0.00285831
0.00260716
0.00385219
0.00996063
0.164653
0.278857
0.378734
0.474382
0.580629
0.63079
0.532667
0.707218
0.652925
0.598063
0.494958
0.17978
0.0108035
0.00755307
0.00591297
0.00514743
9.81486e-09
3.10739e-09
8.07068e-07
0.00499262
0.262874
0.286949
0.364097
0.202307
0.214244
0.260491
0.245323
0.873163
0.874713
0.884318
0.851129
0.288548
0.00348777
6.79225e-08
2.61166e-08
2.98952e-08
9.05642e-14
1.15259e-11
4.54444e-09
5.51429e-05
0.0187471
0.205639
0.364005
0.381797
0.357506
0.403036
0.303565
0.373083
0.470841
0.426065
0.433481
0.0191036
2.54493e-05
5.38552e-11
1.10411e-12
1.23986e-14
4.77675e-14
3.3919e-12
1.87641e-10
1.19807e-05
0.0111945
0.357642
0.390737
0.405132
0.372747
0.328839
0.312735
0.433217
0.433512
0.346379
0.320938
0.00983662
1.36135e-05
4.4752e-11
1.44038e-12
1.46959e-14
2.048e-14
1.51335e-12
6.65777e-11
5.98328e-06
0.0119405
0.337854
0.354099
0.358575
0.406651
0.344585
0.305484
0.322631
0.331857
0.337822
0.308982
0.0061452
1.86884e-06
3.60517e-12
1.41512e-13
2.50435e-15
6.42682e-15
6.69565e-13
4.78427e-11
1.52128e-06
0.00990567
0.349714
0.371572
0.397229
0.354064
0.406078
0.30325
0.303042
0.314039
0.355964
0.320545
0.00494886
2.45845e-07
7.77198e-12
7.87698e-14
9.99394e-16
8.57611e-16
2.26994e-13
4.1174e-11
4.73243e-08
0.00341491
0.357938
0.369665
0.383415
0.402122
0.33822
0.300715
0.305975
0.295948
0.34424
0.283376
0.00256338
6.02557e-09
2.91732e-11
1.75528e-13
1.06663e-15
1.0457e-16
4.46221e-14
1.39784e-11
2.12066e-09
0.00106557
0.238933
0.272515
0.226201
0.304161
0.359058
0.37994
0.351813
0.182024
0.168133
0.151408
0.000801523
7.06162e-10
1.05169e-11
9.28827e-14
1.93068e-16
7.2655e-19
3.42938e-16
9.35781e-14
1.57972e-10
5.26459e-06
0.000688797
0.000780709
0.000538894
0.000984424
0.00165077
0.00138882
0.00134155
0.00051086
0.000384807
0.0005928
3.03941e-06
1.35936e-12
3.06355e-14
4.10908e-16
3.44293e-19
3.8833e-41
3.93798e-37
3.98699e-32
2.45591e-33
2.09703e-32
3.54864e-32
7.33988e-34
4.82807e-36
6.51341e-39
1.74116e-42
8.93338e-54
3.6437e-57
2.66709e-61
2.13415e-65
3.52523e-63
4.77896e-62
2.41235e-63
1.88695e-60
9.0566e-60
1.19139e-61
0
0
0
0
0
0
0
0
0
0
0
0
0
0
0
0
0
0
0
0
0
0
0
0
0
0
0
0
0
0
0
0
0
0
0
0
0
0
0
0
0
0
0
0
0
0
0
0
0
0
0
0
0
0
0
0
0
0
0
0
0
0
0
0
0
0
0
0
0
0
0
0
0
0
0
0
0
0
0
0
0
0
0
0
0
0
0
0
0
0
0
0
0
0
0
0
0
0
0
0
0
0
0
0
0
0
0
0
0
0
0
0
0
0
0
0
0
0
0
0
0
0
0
0
0
0
0
0
0
0
0
0
0
0
0
0
0
0
0
0
0
0
0
0
0
0
0
0
0
0
0
0
0
0
0
0
0
0
0
0
0
0
0
0
0
0
0
0
0
0
0
0
0
0
0
0
0
0
0
0
0
0
0
0
0
0
0
0
0
0
0
0
0
0
0
0
0
0
0
0
0.00285519
0.00258452
0.00376961
0.0096536
0.164022
0.28117
0.376652
0.477681
0.588613
0.639336
0.532098
0.712439
0.658805
0.601329
0.494915
0.186944
0.0104353
0.00752252
0.00590514
0.00511779
1.21147e-08
3.45676e-09
7.25762e-08
0.00384526
0.269574
0.288431
0.364572
0.201144
0.213035
0.259207
0.244667
0.877481
0.879909
0.88913
0.857726
0.313859
0.00346644
7.01694e-08
2.85885e-08
3.17974e-08
4.55497e-14
4.35891e-12
1.76791e-09
4.71162e-05
0.0214893
0.203645
0.363727
0.382197
0.357302
0.404219
0.303385
0.368573
0.468908
0.426185
0.436851
0.0207657
1.93183e-05
2.52746e-11
5.20433e-13
6.29155e-15
2.99725e-14
2.6368e-12
1.68189e-10
1.15613e-05
0.0111932
0.357924
0.391067
0.405553
0.372235
0.328794
0.312715
0.43466
0.435592
0.346539
0.321372
0.00936383
8.0947e-06
1.97949e-11
6.88178e-13
7.08035e-15
1.27703e-14
1.31638e-12
7.10056e-11
5.492e-06
0.0113175
0.337704
0.353876
0.358155
0.407227
0.343641
0.305469
0.323111
0.332168
0.33744
0.308683
0.00615763
9.61317e-07
1.60773e-12
6.53027e-14
1.01587e-15
3.76069e-15
6.67305e-13
8.2613e-11
1.22621e-06
0.00938534
0.349671
0.371549
0.397213
0.353512
0.406882
0.303262
0.302992
0.31413
0.355918
0.320712
0.00507864
1.12879e-07
4.06488e-12
3.95977e-14
4.1521e-16
4.51274e-16
2.69489e-13
1.56698e-10
3.52065e-08
0.00382989
0.358856
0.369958
0.384176
0.402372
0.337939
0.299868
0.305332
0.296713
0.345663
0.285611
0.00277441
3.31767e-09
1.56077e-11
9.00453e-14
4.86865e-16
6.0762e-17
3.4919e-14
1.14595e-11
1.56111e-09
0.00124401
0.243833
0.276149
0.229187
0.308049
0.362622
0.38326
0.355892
0.18499
0.171499
0.15646
0.000905756
4.48453e-10
7.05849e-12
5.92793e-14
1.03718e-16
3.92543e-19
1.46223e-16
4.863e-14
8.22992e-11
6.67568e-06
0.000701153
0.00079931
0.000547888
0.00100677
0.00168894
0.00141173
0.00137424
0.000520056
0.000394945
0.000618817
3.38794e-06
8.55143e-13
2.05924e-14
2.59508e-16
2.1175e-19
7.08234e-41
1.89922e-36
2.45995e-31
1.19502e-32
4.79718e-30
5.12239e-31
4.63323e-33
1.70367e-35
1.23026e-38
2.29501e-42
1.24151e-53
6.27179e-57
8.57021e-61
8.0816e-64
2.60676e-61
1.58528e-59
1.66376e-62
1.00987e-59
1.13111e-58
6.76723e-61
0
0
0
0
0
0
0
0
0
0
0
0
0
0
0
0
0
0
0
0
0
0
0
0
0
0
0
0
0
0
0
0
0
0
0
0
0
0
0
0
0
0
0
0
0
0
0
0
0
0
0
0
0
0
0
0
0
0
0
0
0
0
0
0
0
0
0
0
0
0
0
0
0
0
0
0
0
0
0
0
0
0
0
0
0
0
0
0
0
0
0
0
0
0
0
0
0
0
0
0
0
0
0
0
0
0
0
0
0
0
0
0
0
0
0
0
0
0
0
0
0
0
0
0
0
0
0
0
0
0
0
0
0
0
0
0
0
0
0
0
0
0
0
0
0
0
0
0
0
0
0
0
0
0
0
0
0
0
0
0
0
0
0
0
0
0
0
0
0
0
0
0
0
0
0
0
0
0
0
0
0
0
0
0
0
0
0
0
0
0
0
0
0
0
0
0
0
0
0
0
0.00285004
0.00255277
0.00369183
0.00946071
0.16413
0.28356
0.374111
0.481823
0.596561
0.647592
0.529737
0.717795
0.665564
0.605137
0.495291
0.194112
0.00993775
0.00750019
0.00589155
0.00508612
1.45833e-08
4.09038e-09
6.71388e-08
0.00299684
0.278732
0.289894
0.365001
0.200016
0.211852
0.257922
0.243819
0.881805
0.88522
0.894046
0.864847
0.341611
0.00290236
7.67779e-08
3.19752e-08
3.48124e-08
2.40278e-14
1.94202e-12
7.79716e-10
3.93148e-05
0.0247651
0.202159
0.363371
0.382633
0.357113
0.405402
0.303142
0.363394
0.466239
0.425252
0.439712
0.0231154
1.29228e-05
1.32891e-11
2.4738e-13
3.08403e-15
1.65829e-14
1.89391e-12
1.44542e-10
1.0427e-05
0.0111181
0.358162
0.391395
0.405967
0.371731
0.328755
0.312703
0.436075
0.437597
0.3467
0.32182
0.00892036
4.62117e-06
1.07352e-11
3.36884e-13
3.2958e-15
7.12602e-15
1.18874e-12
8.53117e-11
4.7076e-06
0.0106508
0.337611
0.353651
0.357742
0.407797
0.342714
0.305451
0.323584
0.332479
0.337069
0.308397
0.00618912
4.91682e-07
7.14264e-13
2.85785e-14
3.77391e-16
2.05734e-15
7.78541e-13
1.26606e-10
1.03147e-06
0.00901446
0.34962
0.371528
0.397194
0.352969
0.407673
0.303279
0.302948
0.314215
0.355873
0.320878
0.0052181
5.63947e-08
2.13426e-12
1.99087e-14
1.72015e-16
1.97974e-16
3.81474e-13
2.06548e-10
2.82368e-08
0.00427661
0.35957
0.370222
0.384883
0.402593
0.337623
0.299009
0.304658
0.297421
0.346985
0.28767
0.00298635
1.84603e-09
8.144e-12
4.50388e-14
2.07416e-16
3.10635e-17
2.29186e-14
8.69111e-12
1.1455e-09
0.00141246
0.24857
0.279639
0.232072
0.311773
0.366043
0.386462
0.359839
0.187857
0.174773
0.161387
0.0010165
2.85283e-10
4.48583e-12
3.4507e-14
5.09351e-17
1.9947e-19
5.84423e-17
2.57839e-14
4.21895e-11
8.44478e-06
0.000707388
0.000811855
0.000552514
0.00102152
0.00171194
0.00142616
0.00139541
0.000524679
0.00040015
0.000638014
3.58401e-06
5.35722e-13
1.33142e-14
1.51006e-16
1.2523e-19
1.38541e-40
1.12129e-35
1.53255e-30
6.58342e-32
2.97859e-32
0
2.73702e-43
0
3.23623e-49
2.15357e-53
0
8.51029e-67
6.15776e-70
4.00467e-76
8.2474e-72
1.06273e-57
1.25021e-61
5.46862e-59
1.57471e-57
4.11196e-60
0
0
0
0
0
0
0
0
0
0
0
0
0
0
0
0
0
0
0
0
0
0
0
0
0
0
0
0
0
0
0
0
0
0
0
0
0
0
0
0
0
0
0
0
0
0
0
0
0
0
0
0
0
0
0
0
0
0
0
0
0
0
0
0
0
0
0
0
0
0
0
0
0
0
0
0
0
0
0
0
0
0
0
0
0
0
0
0
0
0
0
0
0
0
0
0
0
0
0
0
0
0
0
0
0
0
0
0
0
0
0
0
0
0
0
0
0
0
0
0
0
0
0
0
0
0
0
0
0
0
0
0
0
0
0
0
0
0
0
0
0
0
0
0
0
0
0
0
0
0
0
0
0
0
0
0
0
0
0
0
0
0
0
0
0
0
0
0
0
0
0
0
0
0
0
0
0
0
0
0
0
0
0
0
0
0
0
0
0
0
0
0
0
0
0
0
0
0
0
0
0.00284841
0.00252411
0.00362336
0.00940582
0.169147
0.286636
0.372003
0.487325
0.603784
0.65519
0.526914
0.722945
0.672087
0.608315
0.495866
0.201882
0.00943803
0.00748941
0.00588032
0.00506015
1.68055e-08
4.8892e-09
7.25504e-08
0.00241559
0.285309
0.291454
0.365456
0.19894
0.210731
0.256695
0.242707
0.886124
0.89047
0.898902
0.872191
0.371941
0.00216535
8.65297e-08
3.56827e-08
3.82489e-08
1.25383e-14
9.96666e-13
3.81361e-10
3.1515e-05
0.0284468
0.201079
0.363036
0.383133
0.356946
0.406551
0.302927
0.357791
0.462986
0.424057
0.442032
0.0263535
7.94099e-06
2.9125e-12
5.98092e-14
7.04199e-16
8.41121e-15
1.33849e-12
1.23277e-10
8.77583e-06
0.0110079
0.358364
0.391708
0.40636
0.371247
0.328722
0.312683
0.437421
0.439461
0.346855
0.32226
0.00851782
2.69108e-06
3.47763e-12
1.1274e-13
8.8685e-16
3.74862e-15
1.15793e-12
1.02457e-10
3.71492e-06
0.0101293
0.337577
0.353435
0.35735
0.408344
0.341829
0.30543
0.324038
0.33277
0.336709
0.308132
0.00622386
2.44084e-07
3.68594e-13
1.20865e-14
1.32435e-16
1.29305e-15
9.691e-13
1.69889e-10
8.71691e-07
0.00885944
0.349544
0.371506
0.397174
0.352452
0.408424
0.303302
0.302901
0.314285
0.355823
0.321046
0.00536019
2.85345e-08
1.42695e-12
1.09506e-14
7.0599e-17
7.58e-17
5.32326e-13
2.57142e-10
2.88472e-08
0.00473846
0.360101
0.370455
0.38552
0.402783
0.337289
0.298167
0.303974
0.298049
0.348168
0.289501
0.00318848
1.46411e-09
5.60965e-12
2.65011e-14
8.69308e-17
1.4169e-17
1.60522e-14
7.29928e-12
8.66418e-10
0.00157847
0.25295
0.282855
0.234745
0.315203
0.369211
0.389444
0.363534
0.190503
0.17782
0.165985
0.00113125
2.47758e-10
3.08212e-12
1.90535e-14
2.2931e-17
9.6086e-20
2.25181e-17
1.39875e-14
2.14793e-11
8.96258e-06
0.000705034
0.000814943
0.000551448
0.0010247
0.00171541
0.00142884
0.00140072
0.000523879
0.000399923
0.00064334
3.57383e-06
3.43237e-13
8.50876e-15
8.42781e-17
7.09623e-20
3.0522e-40
9.52738e-35
9.58686e-30
3.9843e-31
8.04167e-32
0
0
0
0
0
0
0
0
0
0
5.98131e-62
2.09756e-60
3.118e-58
2.01661e-56
2.3891e-59
0
0
0
0
0
0
0
0
0
0
0
0
0
0
0
0
0
0
0
0
0
0
0
0
0
0
0
0
0
0
0
0
0
0
0
0
0
0
0
0
0
0
0
0
0
0
0
0
0
0
0
0
0
0
0
0
0
0
0
0
0
0
0
0
0
0
0
0
0
0
0
0
0
0
0
0
0
0
0
0
0
0
0
0
0
0
0
0
0
0
0
0
0
0
0
0
0
0
0
0
0
0
0
0
0
0
0
0
0
0
0
0
0
0
0
0
0
0
0
0
0
0
0
0
0
0
0
0
0
0
0
0
0
0
0
0
0
0
0
0
0
0
0
0
0
0
0
0
0
0
0
0
0
0
0
0
0
0
0
0
0
0
0
0
0
0
0
0
0
0
0
0
0
0
0
0
0
0
0
0
0
0
0
0
0
0
0
0
0
0
0
0
0
0
0
0
0
0
0
0
0.00284766
0.00249451
0.00356037
0.00979702
0.179894
0.289761
0.370423
0.494942
0.610657
0.66248
0.523138
0.728054
0.679333
0.611609
0.496745
0.209737
0.00896556
0.00748523
0.00586724
0.00503573
1.87766e-08
5.98269e-09
7.70902e-08
0.00231236
0.289345
0.293355
0.365901
0.197895
0.209651
0.255491
0.241338
0.890476
0.895956
0.903869
0.879771
0.402385
0.00121843
9.95127e-08
4.01844e-08
4.19727e-08
6.4321e-15
6.36683e-13
2.00138e-10
2.71911e-05
0.0328987
0.200105
0.362698
0.383672
0.356793
0.407683
0.302679
0.351674
0.459081
0.42219
0.443868
0.0307459
4.58416e-06
4.74703e-13
1.1052e-14
1.30417e-16
4.05206e-15
1.03234e-12
1.10812e-10
6.86128e-06
0.0108828
0.358551
0.39201
0.40674
0.370777
0.328692
0.312664
0.438724
0.441215
0.347009
0.322707
0.00819079
1.68272e-06
7.65944e-13
2.6685e-14
1.80713e-16
1.83055e-15
1.30707e-12
1.32708e-10
2.72742e-06
0.00974687
0.337568
0.35322
0.356972
0.408876
0.340972
0.305406
0.324477
0.333053
0.336362
0.307879
0.00625992
1.20785e-07
3.36344e-13
5.58588e-15
4.66512e-17
1.12651e-15
1.3868e-12
2.50365e-10
7.41172e-07
0.00883655
0.349438
0.371485
0.39715
0.35195
0.409149
0.303332
0.302857
0.314347
0.355773
0.321217
0.00549953
1.98351e-08
1.98684e-12
8.98386e-15
3.2891e-17
2.63858e-17
8.65081e-13
3.97363e-10
4.80456e-08
0.00523131
0.360508
0.370664
0.386107
0.402949
0.336935
0.297331
0.303276
0.298621
0.349251
0.291164
0.0033843
5.40163e-09
9.95191e-12
2.71894e-14
4.29889e-17
5.85403e-18
2.32591e-14
1.74119e-11
1.79133e-09
0.00177131
0.257047
0.285847
0.237255
0.318388
0.37214
0.392219
0.366997
0.192985
0.180698
0.170323
0.00125182
5.80926e-11
1.19471e-12
8.1739e-15
9.56828e-18
4.38411e-20
8.97303e-18
7.59501e-15
1.07471e-11
9.07708e-06
0.00070664
0.000816545
0.00054931
0.0010264
0.00171639
0.0014306
0.00140509
0.000524949
0.000396403
0.000647555
3.58326e-06
2.19441e-13
5.31353e-15
4.51107e-17
3.87128e-20
7.08191e-40
1.09325e-33
5.94181e-29
2.48763e-30
2.8691e-31
0
0
0
0
0
0
0
0
0
0
6.2514e-61
1.90067e-58
2.24628e-57
2.15743e-55
1.23399e-58
0
0
0
0
0
0
0
0
0
0
0
0
0
0
0
0
0
0
0
0
0
0
0
0
0
0
0
0
0
0
0
0
0
0
0
0
0
0
0
0
0
0
0
0
0
0
0
0
0
0
0
0
0
0
0
0
0
0
0
0
0
0
0
0
0
0
0
0
0
0
0
0
0
0
0
0
0
0
0
0
0
0
0
0
0
0
0
0
0
0
0
0
0
0
0
0
0
0
0
0
0
0
0
0
0
0
0
0
0
0
0
0
0
0
0
0
0
0
0
0
0
0
0
0
0
0
0
0
0
0
0
0
0
0
0
0
0
0
0
0
0
0
0
0
0
0
0
0
0
0
0
0
0
0
0
0
0
0
0
0
0
0
0
0
0
0
0
0
0
0
0
0
0
0
0
0
0
0
0
0
0
0
0
0
0
0
0
0
0
0
0
0
0
0
0
0
0
0
0
0
0.00284976
0.00246536
0.00350296
0.0107176
0.19652
0.292827
0.369225
0.502131
0.617071
0.669496
0.518131
0.732771
0.686118
0.613917
0.498318
0.21689
0.00863008
0.00749007
0.00585479
0.00501376
2.04478e-08
7.33556e-09
8.71441e-08
0.00312758
0.307834
0.295702
0.36632
0.196878
0.208629
0.254344
0.239742
0.894814
0.901489
0.908809
0.887352
0.429864
0.000467213
1.11837e-07
4.45031e-08
4.57258e-08
2.95004e-15
3.50407e-13
1.11427e-10
3.04452e-05
0.0388708
0.198931
0.362411
0.384274
0.356655
0.408775
0.302433
0.345198
0.454578
0.419832
0.445133
0.0362284
2.45967e-06
7.45983e-14
2.02453e-15
2.81623e-17
1.66743e-15
5.80238e-13
8.68662e-11
4.90672e-06
0.0107289
0.358739
0.392293
0.407099
0.370329
0.328667
0.31264
0.439964
0.442825
0.347155
0.323146
0.0079541
1.01358e-06
1.49981e-13
5.39964e-15
3.68118e-17
7.23962e-16
7.3512e-13
8.69835e-11
1.86354e-06
0.00943489
0.337644
0.353011
0.356615
0.409382
0.340159
0.305381
0.324894
0.333317
0.336028
0.307648
0.00629384
6.13317e-08
2.87989e-13
2.80424e-15
1.69951e-17
7.44568e-16
7.2467e-13
1.07825e-10
6.50642e-07
0.00889337
0.349261
0.371464
0.397122
0.351473
0.409833
0.303364
0.302813
0.314396
0.355721
0.321391
0.00562873
1.50248e-08
1.96569e-12
6.71973e-15
1.5327e-17
8.67722e-18
4.51117e-13
1.02475e-10
9.0262e-08
0.00577799
0.360815
0.370848
0.386636
0.403089
0.336576
0.296521
0.302584
0.299128
0.350218
0.29264
0.00357253
6.9347e-09
1.05542e-11
2.26247e-14
2.083e-17
2.22798e-18
5.10368e-14
4.25259e-11
3.06939e-09
0.00205913
0.260769
0.28856
0.239548
0.321274
0.374792
0.394752
0.370182
0.195244
0.183343
0.174313
0.00138196
3.09274e-11
6.25796e-13
4.20548e-15
3.75286e-18
1.89134e-20
3.85765e-18
3.82028e-15
5.0927e-12
8.98743e-06
0.000709615
0.000816324
0.000548579
0.00102523
0.00170493
0.00143072
0.0014068
0.000526308
0.00039338
0.000648361
3.62609e-06
1.28669e-13
3.05191e-15
2.21052e-17
2.03348e-20
1.56568e-39
1.40128e-32
3.59897e-28
1.53318e-29
1.0278e-30
0
0
0
0
0
0
0
0
0
0
7.608e-60
2.84693e-56
2.96449e-56
1.89319e-54
5.33524e-58
0
0
0
0
0
0
0
0
0
0
0
0
0
0
0
0
0
0
0
0
0
0
0
0
0
0
0
0
0
0
0
0
0
0
0
0
0
0
0
0
0
0
0
0
0
0
0
0
0
0
0
0
0
0
0
0
0
0
0
0
0
0
0
0
0
0
0
0
0
0
0
0
0
0
0
0
0
0
0
0
0
0
0
0
0
0
0
0
0
0
0
0
0
0
0
0
0
0
0
0
0
0
0
0
0
0
0
0
0
0
0
0
0
0
0
0
0
0
0
0
0
0
0
0
0
0
0
0
0
0
0
0
0
0
0
0
0
0
0
0
0
0
0
0
0
0
0
0
0
0
0
0
0
0
0
0
0
0
0
0
0
0
0
0
0
0
0
0
0
0
0
0
0
0
0
0
0
0
0
0
0
0
0
0
0
0
0
0
0
0
0
0
0
0
0
0
0
0
0
0
0.00285376
0.00243603
0.00344989
0.0121514
0.223315
0.295513
0.368936
0.50983
0.623366
0.67659
0.511899
0.737178
0.693295
0.615849
0.499328
0.222234
0.00846155
0.00750015
0.00584368
0.00499427
2.17843e-08
8.87742e-09
2.29946e-07
0.00442274
0.395517
0.297972
0.366626
0.195931
0.207651
0.253228
0.237926
0.899228
0.907259
0.913914
0.895016
0.454048
0.00023849
1.23172e-07
4.82779e-08
4.92301e-08
1.41847e-15
2.23825e-13
7.04957e-11
3.54089e-05
0.0470905
0.197129
0.362166
0.384925
0.356526
0.409833
0.302156
0.338263
0.449402
0.416897
0.445687
0.0425937
1.30574e-06
2.08368e-14
5.58767e-16
9.26936e-18
8.46279e-16
4.40475e-13
7.11206e-11
3.16709e-06
0.0105534
0.358931
0.392559
0.407444
0.369899
0.328644
0.312615
0.441155
0.444312
0.347298
0.323584
0.00781237
5.2615e-07
4.739e-14
1.28967e-15
1.00608e-17
5.96889e-16
7.14395e-13
7.51688e-11
1.17106e-06
0.00918403
0.337851
0.352805
0.356273
0.409867
0.339381
0.305353
0.32529
0.333569
0.335706
0.307435
0.00632749
3.07263e-08
2.59473e-13
1.60673e-15
6.72223e-18
1.00246e-15
8.1149e-13
9.78657e-11
6.07758e-07
0.00904738
0.348981
0.371443
0.39709
0.351014
0.410489
0.3034
0.302777
0.314437
0.355669
0.321559
0.00574497
1.37054e-08
1.92333e-12
5.18166e-15
7.09432e-18
2.78984e-18
5.87666e-13
1.14704e-10
1.52299e-07
0.00639551
0.361065
0.37101
0.387122
0.403209
0.33621
0.295729
0.301891
0.299586
0.351096
0.293971
0.00375576
8.38276e-09
1.0819e-11
1.8811e-14
9.49621e-18
7.96816e-19
1.22008e-13
9.16463e-11
6.46419e-09
0.00253603
0.26419
0.291048
0.241674
0.323914
0.377202
0.397074
0.373128
0.197333
0.18581
0.17803
0.00152411
2.20904e-11
3.87489e-13
2.40264e-15
1.38267e-18
7.72555e-21
1.78691e-18
1.65757e-15
2.1448e-12
8.93657e-06
0.000712057
0.000814658
0.000549582
0.0010197
0.0016919
0.00143117
0.00140893
0.00052746
0.000393219
0.000648703
3.67865e-06
6.08385e-14
1.48642e-15
9.37472e-18
1.02333e-20
3.05442e-39
1.78028e-31
2.10709e-27
9.17493e-29
3.44774e-30
0
0
0
0
0
0
0
0
0
0
9.2093e-59
4.103e-54
6.60107e-55
1.38345e-53
1.93053e-57
0
0
0
0
0
0
0
0
0
0
0
0
0
0
0
0
0
0
0
0
0
0
0
0
0
0
0
0
0
0
0
0
0
0
0
0
0
0
0
0
0
0
0
0
0
0
0
0
0
0
0
0
0
0
0
0
0
0
0
0
0
0
0
0
0
0
0
0
0
0
0
0
0
0
0
0
0
0
0
0
0
0
0
0
0
0
0
0
0
0
0
0
0
0
0
0
0
0
0
0
0
0
0
0
0
0
0
0
0
0
0
0
0
0
0
0
0
0
0
0
0
0
0
0
0
0
0
0
0
0
0
0
0
0
0
0
0
0
0
0
0
0
0
0
0
0
0
0
0
0
0
0
0
0
0
0
0
0
0
0
0
0
0
0
0
0
0
0
0
0
0
0
0
0
0
0
0
0
0
0
0
0
0
0
0
0
0
0
0
0
0
0
0
0
0
0
0
0
0
0
0.00286105
0.00240635
0.00340074
0.014179
0.248823
0.297484
0.368986
0.517806
0.629229
0.683447
0.504185
0.74051
0.70029
0.61787
0.499384
0.225916
0.00835274
0.00751761
0.00583434
0.00497765
2.2789e-08
1.05518e-08
3.5599e-06
0.0211435
0.551015
0.299129
0.366785
0.195006
0.206733
0.252165
0.235877
0.903616
0.913152
0.919108
0.902323
0.476336
8.60506e-06
1.31812e-07
5.11011e-08
5.22335e-08
9.65946e-16
2.10229e-13
5.21613e-11
7.98478e-05
0.0581859
0.194517
0.361986
0.385569
0.356408
0.410842
0.301892
0.330995
0.443624
0.41343
0.445483
0.049607
1.00173e-06
1.3106e-14
2.99156e-16
4.78514e-18
6.62499e-16
4.9458e-13
6.58381e-11
1.74034e-06
0.0104435
0.35912
0.392806
0.407767
0.369491
0.328624
0.312585
0.442281
0.44566
0.347432
0.324006
0.00774642
1.89031e-07
2.95744e-14
4.84096e-16
4.03759e-18
8.79334e-16
1.00112e-12
8.93859e-11
6.80484e-07
0.0089899
0.33809
0.352604
0.355952
0.410322
0.338649
0.305323
0.325654
0.333802
0.335398
0.307248
0.00636306
1.82299e-08
2.34883e-13
1.01384e-15
2.80286e-18
1.87964e-15
1.35523e-12
1.44318e-10
6.14905e-07
0.00920746
0.348617
0.371423
0.397056
0.350582
0.411106
0.303436
0.302753
0.314468
0.355615
0.321721
0.00584862
1.34349e-08
1.84292e-12
3.98179e-15
2.87813e-18
8.97344e-19
1.14963e-12
1.97692e-10
2.38615e-07
0.00711041
0.361267
0.371149
0.387559
0.40331
0.33585
0.294971
0.30121
0.299991
0.351878
0.295146
0.00393007
9.82186e-09
1.07553e-11
1.53775e-14
3.30454e-18
2.74129e-19
3.00409e-13
1.78731e-10
1.23567e-08
0.00320693
0.267251
0.293274
0.24359
0.326269
0.379336
0.399148
0.375797
0.199206
0.188043
0.181411
0.00167306
1.71242e-11
2.57572e-13
1.43063e-15
4.5604e-19
3.0035e-21
8.61284e-19
6.10364e-16
7.47282e-13
9.56935e-06
0.000712288
0.000804031
0.000550569
0.00100538
0.00168355
0.00142961
0.00140973
0.000527509
0.000394854
0.000644149
3.73458e-06
1.93004e-14
5.70778e-16
3.28463e-18
4.89231e-21
5.1241e-39
2.13439e-30
1.18266e-26
5.25357e-28
1.09643e-29
0
0
0
0
0
0
0
0
0
0
1.16145e-57
4.04011e-52
1.62781e-53
8.64685e-53
6.08074e-57
0
0
0
0
0
0
0
0
0
0
0
0
0
0
0
0
0
0
0
0
0
0
0
0
0
0
0
0
0
0
0
0
0
0
0
0
0
0
0
0
0
0
0
0
0
0
0
0
0
0
0
0
0
0
0
0
0
0
0
0
0
0
0
0
0
0
0
0
0
0
0
0
0
0
0
0
0
0
0
0
0
0
0
0
0
0
0
0
0
0
0
0
0
0
0
0
0
0
0
0
0
0
0
0
0
0
0
0
0
0
0
0
0
0
0
0
0
0
0
0
0
0
0
0
0
0
0
0
0
0
0
0
0
0
0
0
0
0
0
0
0
0
0
0
0
0
0
0
0
0
0
0
0
0
0
0
0
0
0
0
0
0
0
0
0
0
0
0
0
0
0
0
0
0
0
0
0
0
0
0
0
0
0
0
0
0
0
0
0
0
0
0
0
0
0
0
0
0
0
0
0.00287111
0.00237683
0.00335455
0.0140736
0.256778
0.299036
0.369687
0.52554
0.634756
0.690096
0.49623
0.742183
0.708255
0.620042
0.499489
0.228291
0.00833961
0.00754285
0.0058275
0.00496454
2.35476e-08
1.22691e-08
4.6613e-06
0.0240214
0.641494
0.299117
0.366819
0.194145
0.205866
0.251144
0.233641
0.908027
0.919357
0.924544
0.909347
0.491925
2.37468e-06
1.35989e-07
5.24752e-08
5.45166e-08
1.10384e-15
3.09004e-13
4.4375e-11
7.66319e-05
0.0700067
0.19134
0.361847
0.386218
0.356296
0.411805
0.301651
0.323319
0.43719
0.409437
0.442933
0.0570505
1.37611e-06
1.27961e-14
2.69891e-16
3.83022e-18
6.82967e-16
7.51544e-13
7.02112e-11
8.02907e-07
0.0103936
0.359294
0.393039
0.408073
0.369104
0.328606
0.312555
0.443348
0.446914
0.347562
0.324418
0.00772644
5.96256e-08
2.35124e-14
2.68597e-16
2.34822e-18
1.5185e-15
1.6085e-12
1.23562e-10
3.73577e-07
0.00885415
0.338311
0.352409
0.355648
0.41075
0.337956
0.305292
0.325992
0.33402
0.335105
0.307082
0.00640231
1.17056e-08
2.10873e-13
6.70003e-16
1.22466e-18
3.66832e-15
2.42744e-12
2.30464e-10
6.47216e-07
0.00935666
0.348251
0.371403
0.397024
0.350172
0.411691
0.303474
0.302738
0.31449
0.355559
0.321877
0.0059425
1.2903e-08
1.73467e-12
3.03873e-15
7.75269e-19
3.02671e-19
2.33611e-12
3.42259e-10
3.67078e-07
0.00790152
0.361436
0.371267
0.387953
0.403394
0.335493
0.294241
0.30054
0.300353
0.352582
0.296197
0.00409039
1.13695e-08
1.04505e-11
1.24718e-14
3.31301e-19
9.33802e-20
7.9945e-13
3.39356e-10
2.34852e-08
0.00390625
0.270008
0.295268
0.245304
0.328367
0.381201
0.400966
0.3782
0.200868
0.190052
0.184475
0.0018183
1.31575e-11
1.70851e-13
8.40202e-16
1.29524e-19
1.1205e-21
4.23965e-19
2.09477e-16
2.02907e-13
1.10548e-05
0.000709393
0.000786129
0.000550549
0.000988098
0.00168359
0.00142754
0.00141032
0.000522679
0.000396166
0.000627482
3.77735e-06
3.86377e-15
1.73227e-16
9.45875e-19
2.19901e-21
7.5037e-39
2.37166e-29
6.32128e-26
2.85298e-27
3.72231e-29
0
0
0
0
0
0
0
0
0
0
1.64922e-56
2.18853e-50
3.83817e-52
4.77215e-52
1.72634e-56
0
0
0
0
0
0
0
0
0
0
0
0
0
0
0
0
0
0
0
0
0
0
0
0
0
0
0
0
0
0
0
0
0
0
0
0
0
0
0
0
0
0
0
0
0
0
0
0
0
0
0
0
0
0
0
0
0
0
0
0
0
0
0
0
0
0
0
0
0
0
0
0
0
0
0
0
0
0
0
0
0
0
0
0
0
0
0
0
0
0
0
0
0
0
0
0
0
0
0
0