/*--------------------------------*- C++ -*----------------------------------*\
| =========                 |                                                 |
| \\      /  F ield         | OpenFOAM: The Open Source CFD Toolbox           |
|  \\    /   O peration     | Version:  2.3.0                                 |
|   \\  /    A nd           | Web:      www.OpenFOAM.org                      |
|    \\/     M anipulation  |                                                 |
\*---------------------------------------------------------------------------*/
FoamFile
{
    version     2.0;
    format      ascii;
    class       surfaceScalarField;
    location    "2.2";
    object      phi.water;
}
// * * * * * * * * * * * * * * * * * * * * * * * * * * * * * * * * * * * * * //

dimensions      [0 3 -1 0 0 0 0];

internalField   nonuniform List<scalar> 
23061
(
-2.51719e-08
-2.75938e-07
-2.45977e-06
2.71613e-08
-2.86352e-07
-2.89639e-06
3.99573e-08
-1.01349e-07
-2.0778e-06
4.55153e-08
-1.28317e-07
-1.3656e-06
5.462e-08
-6.68666e-08
-7.85932e-07
3.32803e-08
-2.67153e-08
-1.61434e-06
6.78138e-09
-1.46284e-08
-1.16348e-06
3.99539e-10
-1.4052e-08
-1.04123e-06
1.20769e-10
-1.56003e-08
-9.85239e-07
-3.25884e-09
-1.70437e-08
-9.92985e-07
-1.17934e-08
-1.64817e-08
-1.17143e-06
-1.94061e-08
-3.97759e-08
-6.95365e-07
-2.61675e-08
-3.9633e-08
-3.33634e-07
-3.04611e-08
-3.80734e-08
-3.24621e-07
-2.5584e-08
-3.82549e-08
-3.47687e-07
-1.70958e-08
-5.59922e-08
-4.46885e-07
-1.42622e-08
-8.51785e-08
-9.08819e-07
-1.24772e-08
-9.42537e-08
-1.10797e-06
9.36505e-09
-1.30296e-07
-1.35951e-06
-1.54312e-07
-1.51642e-06
-2.66714e-09
-2.91708e-07
-4.12095e-07
-2.42673e-09
-3.01031e-07
-3.49341e-07
-2.21587e-09
-3.75424e-08
3.23046e-07
-9.99523e-10
-1.27366e-07
-8.0227e-08
1.88043e-08
-5.71497e-08
-6.34459e-07
1.83418e-08
-1.3051e-08
-5.32601e-06
1.22298e-09
-9.81427e-09
-2.94545e-06
4.17505e-10
-1.30663e-08
-1.53785e-06
1.03312e-10
-1.42388e-08
-1.28601e-06
-2.40609e-09
-1.4659e-08
-1.32119e-06
-2.47504e-09
-1.11938e-08
-2.3679e-06
-4.3107e-11
-1.35079e-08
-1.41148e-06
1.37162e-10
-1.83333e-08
-6.07869e-07
2.03381e-10
-1.62494e-08
-6.43966e-07
3.58032e-09
-2.00336e-08
-5.61467e-07
5.14732e-09
-4.88553e-08
-2.83878e-07
6.01701e-10
-6.65809e-08
-9.62932e-08
5.23628e-11
-8.64771e-08
-1.01697e-07
-2.3867e-10
-1.02838e-07
-2.53195e-07
-1.67717e-07
-2.67076e-07
-4.07206e-09
-2.77455e-07
-2.40005e-07
-3.09619e-09
-3.0118e-07
-8.97809e-08
-1.37085e-09
-9.3713e-08
1.28119e-07
-1.53357e-09
-1.0291e-07
-6.89846e-08
1.38619e-09
-5.98854e-08
-2.89569e-07
8.41045e-10
-1.87776e-08
-9.63763e-07
4.02399e-10
-1.37126e-08
-9.29947e-07
5.79721e-11
-1.30666e-08
-1.0554e-06
-8.46454e-11
-1.42228e-08
-9.84625e-07
-8.94672e-11
-1.48679e-08
-9.36887e-07
1.9927e-10
-1.49691e-08
-9.01957e-07
3.04968e-10
-1.58412e-08
-6.72735e-07
8.49547e-11
-1.77006e-08
-6.09665e-07
1.96679e-10
-1.65255e-08
-6.45161e-07
5.2559e-10
-2.04402e-08
-5.65851e-07
1.01397e-09
-4.68463e-08
-3.13754e-07
3.54469e-11
-4.55895e-08
3.31597e-09
4.45503e-10
-9.12475e-08
-3.34457e-08
5.93301e-10
-7.80879e-08
4.42629e-08
-1.73207e-07
-1.28237e-07
-3.63591e-09
-2.49955e-07
-1.82999e-07
-4.30682e-09
-2.84596e-07
-1.5764e-08
-7.47945e-10
-1.92038e-07
-1.72027e-07
-1.12924e-09
-6.36137e-08
6.26548e-08
-3.93665e-10
-5.78716e-08
-2.79755e-07
-2.31371e-10
-1.74264e-08
-9.34451e-07
1.01876e-10
-1.35764e-08
-1.11121e-06
5.10666e-11
-1.29522e-08
-1.12417e-06
3.89387e-11
-1.3947e-08
-1.03257e-06
-3.71641e-11
-1.48071e-08
-9.75535e-07
-9.24576e-11
-1.38722e-08
-1.04394e-06
-1.64475e-11
-1.55693e-08
-9.3696e-07
-5.19374e-12
-1.71007e-08
-8.37527e-07
2.6603e-10
-1.69994e-08
-8.48356e-07
7.97105e-10
-2.08823e-08
-7.02118e-07
8.19956e-10
-4.41526e-08
-3.54103e-07
-6.60611e-11
-3.83839e-08
4.20811e-08
9.68318e-10
-1.12272e-07
-6.067e-08
2.00008e-09
-1.03726e-07
1.65217e-08
-1.62528e-07
-1.13994e-07
-1.82335e-09
-2.23915e-07
-1.45974e-07
-3.52513e-09
-2.70833e-07
2.26712e-08
-1.0467e-09
-2.44955e-07
-1.51699e-07
-2.00276e-11
-3.74767e-08
1.45664e-07
-5.58549e-10
-5.41561e-08
-2.7172e-07
-3.84688e-10
-1.89802e-08
-7.19215e-07
-2.55121e-12
-1.43978e-08
-9.92337e-07
2.53388e-11
-1.3128e-08
-1.092e-06
3.87035e-11
-1.41303e-08
-1.01114e-06
3.97677e-11
-1.45693e-08
-9.76146e-07
3.05944e-11
-1.39097e-08
-1.00739e-06
2.26528e-11
-1.58364e-08
-8.7938e-07
-3.71653e-11
-1.67015e-08
-8.36159e-07
5.98192e-11
-1.66295e-08
-8.43528e-07
-1.19346e-10
-2.07827e-08
-6.91014e-07
-2.97516e-10
-4.2328e-08
-3.66402e-07
-6.28272e-10
-3.76491e-08
3.95749e-08
1.75948e-09
-1.24417e-07
-1.00734e-07
3.60064e-09
-1.36116e-07
-8.10324e-08
-1.15426e-07
-4.12925e-08
-9.87545e-10
-2.05888e-07
-6.58862e-09
-1.87628e-09
-2.73487e-07
5.76803e-08
-1.80131e-09
-2.53043e-07
1.2867e-08
-7.23491e-10
-1.79422e-08
2.03861e-07
-6.57641e-10
-4.9461e-08
-3.00958e-07
-3.82992e-10
-1.82836e-08
-7.8145e-07
-5.81329e-11
-1.45212e-08
-9.89343e-07
5.96664e-12
-1.32362e-08
-1.09271e-06
3.40824e-11
-1.41418e-08
-1.01797e-06
4.5397e-11
-1.45934e-08
-9.74454e-07
3.79199e-11
-1.36093e-08
-1.04997e-06
8.88315e-12
-1.53038e-08
-9.31742e-07
-5.20637e-11
-1.60994e-08
-8.82015e-07
5.07267e-11
-1.6395e-08
-8.67447e-07
7.02272e-11
-2.09302e-08
-6.87841e-07
1.75745e-10
-4.03503e-08
-3.73427e-07
-1.88035e-11
-3.69829e-08
3.70105e-08
2.17755e-09
-1.12866e-07
-5.86416e-08
3.11798e-09
-1.4258e-07
-9.2015e-08
-7.08429e-08
1.14535e-07
1.60171e-10
-2.05788e-07
8.48573e-08
3.20481e-10
-2.93022e-07
5.54473e-08
-9.59799e-10
-2.65094e-07
7.23324e-09
2.53172e-10
-1.27719e-08
1.61883e-07
1.90067e-10
-4.28999e-08
-3.16696e-07
-2.71218e-10
-1.78313e-08
-7.80979e-07
-6.60214e-11
-1.47314e-08
-9.56648e-07
-4.86281e-12
-1.35257e-08
-1.04776e-06
4.47923e-11
-1.43884e-08
-9.92332e-07
5.39517e-11
-1.46573e-08
-9.73638e-07
3.64557e-11
-1.33366e-08
-1.05246e-06
2.02408e-11
-1.50064e-08
-9.32215e-07
-3.27666e-11
-1.56154e-08
-8.92022e-07
1.37777e-10
-1.60897e-08
-8.70074e-07
-3.00104e-11
-2.05816e-08
-6.80882e-07
2.21196e-10
-3.68739e-08
-3.64791e-07
1.24197e-09
-3.86712e-08
3.98238e-08
2.32245e-09
-1.03668e-07
1.14564e-08
1.73642e-09
-1.27037e-07
-6.23076e-08
-8.51795e-08
1.42897e-07
1.18116e-09
-2.23468e-07
8.92231e-08
1.49813e-09
-3.09063e-07
-3.04289e-09
-8.83395e-11
-2.73677e-07
-4.54345e-08
9.0054e-10
-3.56036e-08
6.97257e-08
5.6355e-10
-3.33479e-08
-3.14866e-07
-5.85067e-13
-1.47083e-08
-7.9726e-07
-7.69684e-12
-1.25956e-08
-9.40626e-07
-2.57601e-11
-1.17562e-08
-1.00947e-06
-4.54592e-12
-1.2371e-08
-9.33543e-07
2.05944e-11
-1.23206e-08
-9.27943e-07
4.88941e-11
-1.12271e-08
-1.02409e-06
5.27282e-11
-1.24489e-08
-9.24481e-07
-3.64286e-11
-1.30264e-08
-8.88964e-07
1.19717e-11
-1.3795e-08
-8.53455e-07
-3.19212e-10
-1.75239e-08
-6.47936e-07
7.2995e-11
-3.00045e-08
-3.67397e-07
2.10083e-09
-4.99964e-08
1.85539e-08
1.70254e-09
-1.19497e-07
1.20737e-08
-1.96572e-10
-1.01478e-07
-1.7541e-08
-1.35437e-07
-9.93031e-09
2.88249e-09
-2.38342e-07
7.18766e-09
3.70259e-09
-3.10414e-07
-6.1031e-08
2.6625e-09
-2.6651e-07
-1.33024e-07
1.65329e-09
-7.74037e-08
-4.06926e-08
9.18422e-11
-2.13193e-08
-1.5938e-07
4.21479e-11
-9.16949e-09
-6.24618e-07
7.09259e-11
-7.71349e-09
-7.07268e-07
-6.7236e-11
-6.43534e-09
-7.38375e-07
-2.73744e-11
-7.19961e-09
-6.99513e-07
1.69412e-11
-7.27325e-09
-6.92484e-07
-1.35338e-10
-6.02015e-09
-7.83524e-07
-7.71437e-11
-7.43522e-09
-6.97232e-07
1.67615e-12
-7.77836e-09
-6.83346e-07
4.19419e-11
-8.41564e-09
-6.52564e-07
-3.63688e-10
-1.08896e-08
-4.78375e-07
-5.97127e-10
-1.8934e-08
-2.47267e-07
2.24255e-09
-6.84212e-08
-1.51762e-08
1.76462e-09
-1.34235e-07
-3.3158e-08
-7.8617e-10
-9.01116e-08
2.89993e-08
-1.70918e-07
-9.01342e-08
1.81912e-09
-2.33693e-07
-3.45161e-08
4.40669e-09
-3.04391e-07
-8.58641e-08
3.31873e-09
-2.50996e-07
-1.24665e-07
1.18067e-09
-1.03765e-07
-9.21282e-08
3.65832e-10
-2.01652e-08
2.12231e-08
1.12227e-10
-8.21307e-09
6.99232e-09
6.41514e-11
-5.50622e-09
9.93012e-09
1.98826e-11
-4.06068e-09
1.00598e-08
4.64367e-12
-4.75908e-09
1.03276e-08
-1.05615e-11
-4.76285e-09
1.05649e-08
-1.16646e-11
-3.67828e-09
9.89211e-09
-3.99995e-12
-5.15246e-09
1.01263e-08
-5.20977e-12
-5.45042e-09
1.04394e-08
-5.88729e-11
-5.74515e-09
1.16824e-08
-3.7186e-10
-7.37017e-09
1.44589e-08
-7.17514e-10
-1.51944e-08
2.29565e-08
1.346e-09
-8.09946e-08
-4.72958e-08
9.19768e-10
-1.31008e-07
-4.53623e-08
-7.34896e-10
-9.27649e-08
2.40113e-08
-1.78219e-07
-7.7403e-08
6.989e-10
-2.21566e-07
3.98242e-08
8.74167e-11
-2.91069e-07
-1.27642e-07
-1.03478e-09
-2.35764e-07
-8.96186e-08
-6.82853e-11
-1.09534e-07
-7.79095e-08
2.53111e-10
-2.13245e-08
-1.12035e-09
-9.33144e-11
-1.00388e-08
-5.18293e-09
-2.24259e-11
-8.20728e-09
-4.36216e-09
-1.48123e-11
-6.39176e-09
-3.85023e-09
-2.14252e-12
-7.51831e-09
-4.85389e-09
5.54139e-12
-7.6186e-09
-5.17073e-09
-1.60561e-11
-5.64735e-09
-2.99723e-09
-6.0324e-12
-8.42766e-09
-6.32014e-09
1.58859e-11
-8.91119e-09
-6.78201e-09
6.16191e-11
-8.95818e-09
-6.00214e-09
-9.85628e-11
-1.00785e-08
-5.0407e-09
-3.99146e-11
-1.66272e-08
-1.39964e-09
1.63996e-10
-8.3482e-08
-4.43862e-08
-7.98531e-10
-1.15712e-07
-2.75625e-08
-9.09988e-10
-9.69918e-08
1.20401e-08
-1.73144e-07
-8.9642e-08
2.80906e-10
-2.15583e-07
1.15291e-07
-1.59329e-09
-2.78617e-07
-9.6392e-08
-2.95831e-09
-2.23155e-07
-7.44091e-08
-7.26368e-10
-9.77877e-08
-3.71299e-08
2.86045e-11
-1.5269e-08
8.37558e-09
-9.55217e-11
-9.01465e-09
9.61829e-11
-4.08974e-11
-9.1177e-09
-5.66963e-09
-1.63686e-11
-7.34837e-09
-3.53642e-09
-3.23486e-11
-8.99555e-09
-7.41361e-09
-3.99854e-11
-9.21689e-09
-7.84698e-09
2.55137e-11
-7.3053e-09
-3.80425e-09
6.09748e-11
-1.0647e-08
-1.08552e-08
4.42269e-11
-1.06289e-08
-9.14916e-09
7.23684e-11
-1.04068e-08
-8.10743e-09
5.81582e-12
-1.08088e-08
-6.3955e-09
1.3207e-10
-1.38124e-08
-9.5517e-10
-5.18157e-10
-7.34673e-08
-2.13145e-08
-7.78556e-10
-1.14847e-07
7.19466e-09
-2.26645e-10
-9.97424e-08
7.60752e-09
-1.50476e-07
-7.78182e-08
2.01313e-09
-2.19951e-07
9.10376e-08
-2.5288e-10
-2.63282e-07
-1.23912e-07
-2.89882e-09
-2.08723e-07
-5.04516e-08
-1.48659e-09
-8.67803e-08
8.2057e-09
-1.04036e-10
-1.54356e-08
7.65261e-09
4.44371e-11
-8.01089e-09
3.64741e-09
-6.3714e-12
-8.02655e-09
1.75669e-09
5.32275e-12
-6.98668e-09
-1.20851e-10
-2.19331e-11
-8.24065e-09
5.43982e-10
-4.26555e-11
-8.50982e-09
3.11987e-10
3.8631e-11
-7.90618e-09
-2.56209e-09
5.09083e-11
-1.00102e-08
-6.48846e-10
-4.99244e-12
-9.71766e-09
2.81503e-11
-2.38153e-11
-9.37642e-09
7.93901e-10
-3.62372e-11
-1.00265e-08
6.62012e-10
-2.97855e-11
-1.23007e-08
5.29286e-09
-3.98656e-10
-7.0853e-08
1.06376e-09
9.32489e-10
-1.31807e-07
1.26103e-08
1.30081e-09
-1.00989e-07
4.65287e-09
-1.23323e-07
-5.42053e-09
2.33155e-09
-2.22024e-07
4.57108e-08
5.86939e-10
-2.49654e-07
5.54371e-08
-1.07348e-09
-2.01435e-07
4.69452e-08
-1.11189e-09
-9.04726e-08
1.94315e-08
-2.14474e-10
-2.08841e-08
-5.32911e-10
8.31297e-12
-7.14182e-09
4.26227e-09
5.63809e-11
-8.25499e-09
1.14445e-09
4.33747e-11
-6.12614e-09
2.65886e-09
1.98532e-12
-7.40025e-09
3.06492e-09
1.19972e-11
-7.73946e-09
3.04017e-09
-1.62399e-11
-7.19389e-09
4.8369e-10
-4.08207e-11
-9.07885e-09
3.80702e-09
-4.7375e-11
-9.15566e-09
2.31184e-09
-3.42135e-11
-8.95816e-09
1.99324e-09
-9.13038e-11
-1.02275e-08
6.07365e-10
-9.92226e-11
-1.17316e-08
3.52537e-09
-8.02009e-11
-8.23929e-08
8.4004e-10
1.17299e-09
-1.40038e-07
-8.1738e-09
1.07785e-09
-9.97374e-08
8.78166e-09
-1.16488e-07
5.35489e-08
-2.32064e-09
-2.08195e-07
6.67032e-08
7.16733e-10
-2.56199e-07
1.07868e-07
3.61004e-09
-2.25842e-07
9.93908e-08
1.80603e-09
-9.51484e-08
1.97988e-08
-5.45441e-11
-2.66308e-08
-1.28818e-08
4.16815e-11
-7.65619e-09
7.96403e-10
1.21728e-10
-9.66195e-09
-2.52594e-09
4.32271e-11
-5.32707e-09
2.28187e-09
-5.09551e-11
-6.38906e-09
3.62354e-09
1.46755e-11
-7.29708e-09
3.14846e-09
2.95543e-11
-6.61114e-09
1.91885e-09
-3.32311e-11
-8.28322e-09
3.19805e-09
-5.34568e-11
-8.56037e-09
2.46748e-09
3.06693e-12
-9.00217e-09
7.72457e-10
-1.14328e-10
-1.05401e-08
7.37865e-11
6.72583e-12
-1.1172e-08
3.05496e-09
2.16869e-11
-8.86447e-08
-9.6683e-10
-1.62951e-10
-1.40959e-07
-2.68822e-08
-4.57861e-10
-9.54228e-08
1.59851e-08
-1.28781e-07
3.29891e-08
-4.47768e-09
-1.84912e-07
1.01917e-07
7.95423e-10
-2.66105e-07
3.50591e-08
4.43375e-09
-2.56456e-07
3.08778e-09
2.66277e-09
-9.4578e-08
1.39376e-08
5.54677e-11
-2.27272e-08
-7.08578e-09
-6.44224e-11
-8.94908e-09
-2.1244e-09
2.55129e-11
-1.21135e-08
-6.93601e-09
1.93954e-11
-5.38887e-09
5.2315e-10
2.59628e-11
-6.43852e-09
9.77956e-10
8.54306e-11
-7.6642e-09
2.03356e-10
3.86235e-11
-6.03465e-09
1.74643e-09
-2.91403e-11
-7.6238e-09
2.60208e-09
-2.95471e-11
-8.18853e-09
1.51641e-09
2.22623e-11
-9.00604e-09
2.42917e-10
-7.73589e-11
-1.04676e-08
-1.08476e-09
1.00171e-10
-1.07112e-08
2.7275e-09
3.20833e-11
-8.93223e-08
-2.1373e-09
-1.26471e-09
-1.40877e-07
-2.12164e-08
-1.03755e-09
-8.83564e-08
2.33253e-08
-1.37813e-07
-5.49743e-09
-9.12166e-10
-1.60825e-07
7.49784e-08
2.69313e-09
-2.70696e-07
2.09308e-09
2.66911e-09
-2.64735e-07
-8.34646e-08
1.40598e-09
-8.46122e-08
1.46715e-09
3.00914e-13
-1.58198e-08
6.685e-09
-7.15552e-11
-9.99513e-09
-2.50994e-09
-1.11287e-10
-1.15983e-08
-1.30596e-09
-3.761e-11
-6.5446e-09
-2.08505e-09
5.51539e-11
-7.95532e-09
-3.40526e-09
3.14583e-11
-8.63483e-09
-2.81301e-09
2.18842e-11
-5.96371e-09
1.02478e-09
7.16391e-11
-7.9759e-09
6.78827e-10
5.2186e-11
-7.81813e-09
1.33177e-09
1.94018e-11
-8.73406e-09
-8.41156e-11
-1.85644e-11
-9.7215e-09
-5.421e-10
2.71989e-10
-1.02957e-08
2.1221e-09
1.86872e-10
-8.80504e-08
-2.79369e-09
-8.05212e-10
-1.41209e-07
-1.61451e-08
-2.1209e-10
-7.85777e-08
1.48885e-08
-1.19533e-07
-3.61863e-08
-4.03006e-10
-1.24212e-07
8.84111e-09
7.37362e-10
-2.65801e-07
-7.85976e-08
-2.77611e-10
-2.65028e-07
-7.50981e-08
-5.25859e-10
-6.73222e-08
3.61693e-08
-2.17453e-10
-1.70027e-08
5.37476e-09
2.88875e-11
-1.43522e-08
-8.58449e-09
-5.44154e-11
-9.79111e-09
7.59693e-09
-2.38741e-11
-9.84109e-09
-7.25246e-09
2.36138e-11
-1.13312e-08
-5.59708e-09
-4.06578e-11
-9.70537e-09
-5.60033e-10
-1.22022e-11
-7.28678e-09
-2.26548e-09
9.60592e-11
-1.00566e-08
-1.48431e-09
1.01916e-10
-7.49713e-09
4.24275e-09
4.10691e-11
-7.92019e-09
4.14044e-09
-1.86491e-11
-8.86408e-09
4.34955e-09
2.17769e-10
-9.21798e-09
6.97743e-09
2.76023e-10
-8.76466e-08
-8.13048e-10
1.47044e-10
-1.41782e-07
-2.19856e-08
5.3119e-10
-6.17107e-08
5.89632e-10
-8.35942e-08
-1.09916e-08
-1.7248e-10
-7.81757e-08
-1.05685e-08
-4.85983e-10
-2.54528e-07
-7.51821e-08
-1.54327e-09
-2.64876e-07
-2.50175e-08
-1.47653e-09
-5.34643e-08
7.93986e-08
-4.18796e-10
-2.15659e-08
-2.96858e-09
-4.11116e-11
-2.76792e-08
-2.42241e-08
-3.99234e-11
-1.23998e-08
-1.16019e-09
9.97901e-12
-2.04965e-08
-2.20863e-08
1.29639e-11
-2.28524e-08
-2.09117e-08
-2.41668e-11
-1.57414e-08
-1.13665e-08
1.2059e-12
-1.29811e-08
-1.31553e-08
6.47122e-11
-1.91859e-08
-1.71329e-08
6.58038e-11
-8.56194e-09
6.04994e-10
-2.14138e-11
-6.80683e-09
5.99151e-09
-1.93863e-11
-9.31075e-09
3.9955e-09
1.47687e-10
-1.00062e-08
3.69923e-09
8.82358e-11
-8.80263e-08
-1.6396e-09
-1.23278e-10
-1.41935e-07
-1.55771e-08
1.64487e-10
-3.99551e-08
-8.91547e-09
-5.16015e-08
1.66701e-09
1.31861e-10
-3.13774e-09
5.96118e-11
-3.78304e-09
-1.29749e-09
-6.85462e-09
-7.99534e-10
5.29581e-08
3.71824e-10
4.40402e-10
-7.06388e-11
-1.82845e-08
-5.21799e-11
-5.65375e-09
-1.10989e-11
-1.6533e-08
-6.83653e-11
-1.8111e-08
-3.41094e-11
-1.2748e-08
2.41496e-11
-1.05366e-08
-1.07797e-10
-1.65352e-08
-1.20539e-10
-2.91842e-09
2.46799e-11
1.76382e-09
5.62545e-10
1.65035e-10
5.68669e-10
-2.70114e-09
1.18626e-11
-1.86834e-09
-1.12532e-10
-2.40909e-09
-2.77462e-12
-5.88841e-09
-8.39425e-09
-2.66997e-08
-2.74282e-07
-2.22239e-06
2.90769e-08
-2.86089e-07
-2.6654e-06
4.1756e-08
-1.18423e-07
-1.97125e-06
4.80055e-08
-1.28182e-07
-1.2436e-06
5.65319e-08
-6.54988e-08
-7.31399e-07
3.42522e-08
-2.66324e-08
-1.56611e-06
7.28258e-09
-1.4104e-08
-1.12277e-06
5.75503e-10
-1.33388e-08
-1.02368e-06
1.47696e-10
-1.48736e-08
-9.75569e-07
-3.31032e-09
-1.63486e-08
-9.79563e-07
-1.2186e-08
-1.63671e-08
-1.14311e-06
-2.02828e-08
-3.94175e-08
-6.76565e-07
-2.7438e-08
-3.89949e-08
-3.11035e-07
-3.1958e-08
-3.76344e-08
-3.01207e-07
-2.75123e-08
-3.78142e-08
-3.20081e-07
-1.86447e-08
-5.44285e-08
-4.03343e-07
-1.50367e-08
-8.58642e-08
-8.26089e-07
-1.31514e-08
-9.48348e-08
-1.01439e-06
9.78363e-09
-1.32032e-07
-1.24974e-06
-1.54531e-07
-1.38417e-06
-3.09112e-09
-2.92823e-07
-3.91261e-07
-2.01224e-09
-3.03879e-07
-3.32629e-07
-1.85243e-09
-6.33248e-08
2.67793e-07
-8.54347e-10
-1.29541e-07
-7.98497e-08
1.94129e-08
-5.50577e-08
-6.63996e-07
1.90477e-08
-1.28027e-08
-5.33979e-06
1.24721e-09
-9.10994e-09
-2.93335e-06
4.64671e-10
-1.22162e-08
-1.53821e-06
1.22444e-10
-1.33617e-08
-1.28731e-06
-2.45258e-09
-1.37268e-08
-1.32139e-06
-2.49051e-09
-1.04553e-08
-2.37458e-06
-8.87873e-11
-1.21484e-08
-1.45085e-06
1.11281e-10
-1.67915e-08
-6.1001e-07
1.44356e-10
-1.48438e-08
-6.46514e-07
4.37693e-09
-1.84873e-08
-5.65761e-07
5.67561e-09
-4.57973e-08
-2.92977e-07
2.45727e-10
-7.27577e-08
-1.03893e-07
1.00142e-10
-8.87692e-08
-1.07616e-07
3.54636e-11
-1.13332e-07
-2.7183e-07
-1.70264e-07
-2.48807e-07
-4.25696e-09
-2.80727e-07
-2.49331e-07
-2.723e-09
-3.06882e-07
-8.83116e-08
-9.26064e-10
-1.0541e-07
1.68407e-07
-1.42795e-09
-1.15419e-07
-8.25991e-08
1.39748e-09
-5.83509e-08
-2.89009e-07
8.29381e-10
-1.80429e-08
-9.58355e-07
3.86989e-10
-1.27566e-08
-9.25971e-07
6.24635e-11
-1.22014e-08
-1.05511e-06
-8.48377e-11
-1.3302e-08
-9.84582e-07
-9.07345e-11
-1.39025e-08
-9.3676e-07
2.06741e-10
-1.4075e-08
-8.98799e-07
3.1047e-10
-1.47327e-08
-6.68847e-07
8.39654e-11
-1.64454e-08
-6.07842e-07
1.74305e-10
-1.52972e-08
-6.43498e-07
3.20632e-10
-1.90273e-08
-5.64493e-07
7.19105e-10
-4.43066e-08
-3.15619e-07
-6.38629e-11
-5.62805e-08
-1.23776e-08
7.20372e-10
-9.31649e-08
-2.98343e-08
9.68698e-10
-9.08049e-08
2.14877e-08
-1.77567e-07
-1.1967e-07
-3.51392e-09
-2.53656e-07
-2.06836e-07
-4.4282e-09
-2.94846e-07
-2.68858e-08
-9.25539e-10
-1.95295e-07
-8.56446e-08
-1.25807e-09
-8.46009e-08
3.21695e-08
-3.26253e-10
-5.6039e-08
-2.8299e-07
-1.69123e-10
-1.62722e-08
-9.36392e-07
9.98156e-11
-1.26695e-08
-1.11157e-06
5.58394e-11
-1.21039e-08
-1.12423e-06
3.93181e-11
-1.30369e-08
-1.03282e-06
-3.78156e-11
-1.38482e-08
-9.75511e-07
-9.56834e-11
-1.29592e-08
-1.04498e-06
-1.65833e-11
-1.45239e-08
-9.37201e-07
-4.73715e-12
-1.59698e-08
-8.37892e-07
2.52183e-10
-1.58902e-08
-8.47979e-07
6.89334e-10
-1.9543e-08
-7.02002e-07
6.18078e-10
-4.20636e-08
-3.56271e-07
-1.8067e-10
-4.9217e-08
3.58163e-08
1.12965e-09
-1.13921e-07
-4.12246e-08
2.17273e-09
-1.09976e-07
3.46497e-08
-1.69154e-07
-1.21169e-07
-1.70265e-09
-2.29398e-07
-1.68082e-07
-3.81939e-09
-2.84008e-07
1.39498e-08
-1.14462e-09
-2.49035e-07
-1.00634e-07
1.1421e-10
-5.93332e-08
1.19137e-07
-5.14101e-10
-5.25026e-08
-2.74614e-07
-3.55737e-10
-1.77802e-08
-7.17874e-07
-6.98187e-12
-1.34555e-08
-9.91919e-07
2.56416e-11
-1.22742e-08
-1.09187e-06
3.80141e-11
-1.32088e-08
-1.01099e-06
3.933e-11
-1.36198e-08
-9.76369e-07
3.01137e-11
-1.30058e-08
-1.00733e-06
2.21201e-11
-1.48104e-08
-8.79097e-07
-3.86808e-11
-1.56189e-08
-8.36438e-07
4.62842e-11
-1.55455e-08
-8.43942e-07
-1.61062e-10
-1.94282e-08
-6.90926e-07
-5.43038e-10
-4.04006e-08
-3.67678e-07
-8.74671e-10
-4.7855e-08
3.85445e-08
1.74446e-09
-1.27989e-07
-8.92852e-08
3.52861e-09
-1.39909e-07
-5.28834e-08
-1.30438e-07
-7.83559e-08
-9.76436e-10
-2.14057e-07
-2.09803e-08
-2.05915e-09
-2.85847e-07
6.06025e-08
-2.20115e-09
-2.5782e-07
2.17941e-08
-8.15384e-10
-4.1507e-08
1.84649e-07
-6.11035e-10
-4.80667e-08
-3.05589e-07
-3.85124e-10
-1.70825e-08
-7.82343e-07
-5.68094e-11
-1.35638e-08
-9.8956e-07
6.10705e-12
-1.23647e-08
-1.09269e-06
3.35366e-11
-1.32173e-08
-1.018e-06
4.47569e-11
-1.36366e-08
-9.7445e-07
3.73431e-11
-1.27179e-08
-1.05025e-06
9.0233e-12
-1.43022e-08
-9.32209e-07
-5.17784e-11
-1.50403e-08
-8.82512e-07
5.42468e-11
-1.53141e-08
-8.67779e-07
5.39275e-11
-1.9552e-08
-6.87719e-07
2.13408e-11
-3.85917e-08
-3.752e-07
-1.25822e-10
-4.68837e-08
3.61863e-08
2.09016e-09
-1.23361e-07
-6.54851e-08
2.96246e-09
-1.4722e-07
-8.55766e-08
-9.11556e-08
7.76359e-08
1.87242e-10
-2.14251e-07
8.34348e-08
4.56347e-10
-3.00094e-07
6.94246e-08
-1.04834e-09
-2.67295e-07
1.82131e-08
2.47863e-10
-3.71462e-08
1.56226e-07
2.62187e-10
-4.19448e-08
-3.22827e-07
-2.77044e-10
-1.66412e-08
-7.80888e-07
-6.21838e-11
-1.37446e-08
-9.56704e-07
-4.602e-12
-1.26136e-08
-1.04759e-06
4.48408e-11
-1.34193e-08
-9.92209e-07
5.37863e-11
-1.36795e-08
-9.73616e-07
3.59226e-11
-1.24365e-08
-1.05272e-06
2.03052e-11
-1.4008e-08
-9.32489e-07
-3.14093e-11
-1.45749e-08
-8.92431e-07
1.54356e-10
-1.50151e-08
-8.70554e-07
1.49422e-12
-1.92306e-08
-6.81051e-07
1.155e-10
-3.53827e-08
-3.68113e-07
1.37816e-09
-4.76823e-08
3.93598e-08
2.53296e-09
-1.15748e-07
2.68768e-09
1.5971e-09
-1.35311e-07
-7.32808e-08
-9.65128e-08
1.49355e-07
1.27323e-09
-2.28222e-07
1.00385e-07
1.8423e-09
-3.11727e-07
8.02121e-09
3.13563e-10
-2.74194e-07
-3.70064e-08
1.18556e-09
-5.09974e-08
8.27049e-08
6.90642e-10
-3.29039e-08
-3.23408e-07
1.718e-11
-1.35055e-08
-7.99675e-07
-1.81519e-12
-1.155e-08
-9.42771e-07
-2.41202e-11
-1.07629e-08
-1.01129e-06
-3.89564e-12
-1.13236e-08
-9.35636e-07
2.01042e-11
-1.12836e-08
-9.30347e-07
5.09778e-11
-1.02654e-08
-1.0263e-06
5.50274e-11
-1.14135e-08
-9.27049e-07
-3.55694e-11
-1.19698e-08
-8.91445e-07
2.48895e-11
-1.27083e-08
-8.55795e-07
-3.16426e-10
-1.62784e-08
-6.50512e-07
-2.36449e-11
-2.89844e-08
-3.74087e-07
2.15625e-09
-5.49055e-08
2.35972e-08
1.77279e-09
-1.25446e-07
2.21558e-08
-2.24248e-10
-1.12293e-07
-3.85615e-08
-1.38754e-07
3.18596e-08
2.95654e-09
-2.40237e-07
1.64659e-08
3.8544e-09
-3.13711e-07
-5.99453e-08
2.8634e-09
-2.67199e-07
-1.39028e-07
1.72603e-09
-8.12303e-08
-9.32234e-09
1.96761e-10
-2.28598e-08
-1.67895e-07
6.4099e-11
-8.8855e-09
-6.29133e-07
7.45184e-11
-7.59886e-09
-7.11256e-07
-6.81001e-11
-6.24312e-09
-7.4277e-07
-2.81553e-11
-7.07605e-09
-7.03833e-07
1.70355e-11
-7.14088e-09
-6.96706e-07
-1.34766e-10
-5.87191e-09
-7.87796e-07
-7.33096e-11
-7.31257e-09
-7.01429e-07
3.81929e-12
-7.6368e-09
-6.87771e-07
5.34999e-11
-8.25534e-09
-6.57079e-07
-3.74471e-10
-1.06757e-08
-4.83563e-07
-5.78083e-10
-1.96768e-08
-2.56371e-07
2.27175e-09
-6.93941e-08
-3.53741e-09
1.72893e-09
-1.38035e-07
-2.00266e-08
-8.36029e-10
-9.94274e-08
1.86985e-08
-1.7373e-07
-5.61384e-08
1.71778e-09
-2.38833e-07
-3.64572e-08
4.11934e-09
-3.08112e-07
-9.38637e-08
3.08338e-09
-2.52209e-07
-1.3862e-07
1.16127e-09
-1.04419e-07
-6.70172e-08
4.34558e-10
-2.07089e-08
1.9799e-08
1.15468e-10
-8.07404e-09
6.49995e-09
6.28748e-11
-5.63393e-09
8.01778e-09
1.95521e-11
-4.13207e-09
7.99205e-09
4.61738e-12
-4.90399e-09
8.17048e-09
-1.00992e-11
-4.90307e-09
8.34175e-09
-1.1385e-11
-3.78985e-09
7.81133e-09
-5.10098e-12
-5.27526e-09
8.08269e-09
-9.3574e-12
-5.55484e-09
8.36168e-09
-7.07173e-11
-5.83538e-09
9.32383e-09
-4.22535e-10
-7.37977e-09
1.15147e-08
-7.68198e-10
-1.5605e-08
1.92304e-08
1.27204e-09
-8.13083e-08
-3.74218e-08
8.49106e-10
-1.36507e-07
-4.6467e-08
-8.27378e-10
-1.00369e-07
2.66299e-08
-1.81765e-07
-7.0137e-08
6.53734e-10
-2.31178e-07
3.2264e-08
-1.3101e-11
-2.94374e-07
-1.40714e-07
-9.58542e-10
-2.37238e-07
-1.03645e-07
-2.9806e-11
-1.11126e-07
-7.21315e-08
2.51538e-10
-2.15813e-08
-5.29364e-10
-8.61549e-11
-9.76098e-09
-3.15829e-09
-2.09515e-11
-7.66937e-09
-2.39192e-09
-1.35567e-11
-5.88185e-09
-2.10785e-09
-1.95391e-12
-7.0292e-09
-2.74028e-09
5.22899e-12
-7.12338e-09
-2.95761e-09
-1.44695e-11
-5.19518e-09
-1.57221e-09
-5.54293e-12
-7.88408e-09
-3.72025e-09
1.44758e-11
-8.32837e-09
-4.0285e-09
5.76799e-11
-8.37002e-09
-3.51071e-09
-9.08484e-11
-9.40817e-09
-2.86377e-09
-2.79841e-11
-1.64553e-08
-6.12257e-10
1.19786e-10
-8.50267e-08
-4.08156e-08
-8.26632e-10
-1.26115e-07
-3.7008e-08
-1.01973e-09
-1.03659e-07
1.55231e-08
-1.7763e-07
-9.42833e-08
4.62332e-10
-2.26134e-07
1.09318e-07
-1.43432e-09
-2.81912e-07
-1.06957e-07
-2.74608e-09
-2.25604e-07
-8.47307e-08
-6.49333e-10
-1.0478e-07
-4.55731e-08
3.98223e-11
-1.82182e-08
4.32329e-09
-8.11013e-11
-9.31881e-09
-2.25068e-10
-3.7895e-11
-8.91321e-09
-4.469e-09
-1.51997e-11
-7.072e-09
-2.36897e-09
-3.07591e-11
-8.82965e-09
-5.5976e-09
-3.71369e-11
-9.06242e-09
-5.90157e-09
2.32119e-11
-6.71553e-09
-2.34424e-09
5.78814e-11
-1.07011e-08
-8.07289e-09
4.19237e-11
-1.05399e-08
-6.92171e-09
6.73808e-11
-1.02839e-08
-6.21902e-09
-5.09221e-12
-1.06082e-08
-5.12302e-09
1.49763e-10
-1.51123e-08
-2.45298e-09
-5.96419e-10
-8.03134e-08
-2.52816e-08
-8.42903e-10
-1.23522e-07
4.84824e-09
-2.16715e-10
-1.06241e-07
9.56346e-09
-1.58997e-07
-9.61732e-08
2.13336e-09
-2.29243e-07
9.31451e-08
-3.52712e-10
-2.70149e-07
-1.33189e-07
-3.21382e-09
-2.15152e-07
-5.8043e-08
-1.67057e-09
-9.66178e-08
-1.49923e-09
-1.24362e-10
-1.74607e-08
5.34898e-09
5.39886e-11
-8.21648e-09
2.36673e-09
-3.32652e-12
-8.11427e-09
1.01506e-09
5.63335e-12
-6.97693e-09
-2.24882e-10
-2.09181e-11
-8.40962e-09
1.50501e-10
-3.95968e-11
-8.71226e-09
-1.94924e-11
3.6661e-11
-7.5908e-09
-1.76307e-09
4.81256e-11
-1.05884e-08
-7.73055e-10
-4.65388e-12
-1.01505e-08
-3.08435e-10
-2.71513e-11
-9.71265e-09
2.45174e-10
-5.03302e-11
-1.01799e-08
2.56949e-10
-1.68237e-11
-1.35869e-08
3.73396e-09
-4.2083e-10
-7.73673e-08
-1.4783e-09
9.35977e-10
-1.35034e-07
2.27656e-08
1.29814e-09
-1.07702e-07
5.75129e-09
-1.34663e-07
-2.81269e-08
2.28438e-09
-2.32029e-07
4.87979e-08
6.43773e-10
-2.61434e-07
4.83624e-08
-1.13323e-09
-2.12447e-07
4.60176e-08
-1.20924e-09
-9.81781e-08
2.10678e-08
-2.7629e-10
-1.9871e-08
9.44384e-10
4.98259e-12
-7.09215e-09
2.85667e-09
5.58931e-11
-8.01736e-09
9.9663e-10
4.25948e-11
-6.03071e-09
1.72595e-09
3.50286e-12
-7.46991e-09
2.1643e-09
1.28867e-11
-7.82823e-09
2.14676e-09
-1.74775e-11
-7.20372e-09
1.26978e-10
-4.3e-11
-9.42839e-09
2.67257e-09
-4.66014e-11
-9.47734e-09
1.64228e-09
-3.5108e-11
-9.16944e-09
1.43854e-09
-9.00732e-11
-1.00574e-08
5.39754e-10
-1.01136e-10
-1.26054e-08
2.55494e-09
-2.33595e-10
-8.37267e-08
7.33184e-09
1.06608e-09
-1.42964e-07
-1.54381e-09
1.1171e-09
-1.07188e-07
8.21687e-09
-1.26276e-07
4.69011e-08
-2.55864e-09
-2.22139e-07
5.55412e-08
8.5549e-10
-2.68964e-07
1.11985e-07
3.95385e-09
-2.33909e-07
1.17755e-07
1.83163e-09
-1.01584e-07
2.53267e-08
-1.2905e-10
-2.33912e-08
-7.40084e-09
3.14254e-11
-7.2185e-09
7.62273e-10
1.13182e-10
-9.10346e-09
-1.52159e-09
3.80349e-11
-5.15378e-09
1.48009e-09
-5.13882e-11
-6.33334e-09
2.5764e-09
1.66467e-11
-7.09277e-09
2.34497e-09
3.03561e-11
-6.55035e-09
1.25177e-09
-3.26333e-11
-8.4549e-09
2.28755e-09
-5.21401e-11
-8.74862e-09
1.75826e-09
1.61263e-12
-9.0835e-09
6.32768e-10
-1.15486e-10
-1.00598e-08
1.93354e-10
-2.04594e-11
-1.17573e-08
2.11181e-09
-2.20964e-10
-8.90943e-08
4.60133e-09
-4.40349e-10
-1.43592e-07
-2.60346e-08
-5.08413e-10
-1.04263e-07
1.31277e-08
-1.35208e-07
4.19967e-08
-4.56876e-09
-2.02691e-07
7.91212e-08
1.18028e-09
-2.8139e-07
4.1736e-08
4.62178e-09
-2.59144e-07
2.48806e-08
2.58476e-09
-9.98688e-08
1.42596e-08
-4.82223e-11
-2.24017e-08
-5.44238e-09
-5.94595e-11
-8.20828e-09
-1.12338e-09
1.75937e-11
-1.14269e-08
-4.68967e-09
1.3194e-11
-5.05265e-09
4.26421e-10
2.50035e-11
-6.18403e-09
8.16838e-10
8.14406e-11
-7.23291e-09
2.87056e-10
3.77457e-11
-5.89938e-09
1.13916e-09
-2.82304e-11
-7.65904e-09
1.87219e-09
-2.75358e-11
-8.30959e-09
1.07668e-09
2.25007e-11
-9.0689e-09
1.78284e-10
-8.2102e-11
-1.02489e-08
-7.91121e-10
7.98771e-11
-1.11179e-08
1.92611e-09
-2.23586e-10
-8.99522e-08
-9.75987e-10
-1.64212e-09
-1.43179e-07
-2.02114e-08
-1.04897e-09
-9.90519e-08
1.75212e-08
-1.43378e-07
9.4867e-10
-8.5538e-10
-1.81372e-07
5.05167e-08
3.49987e-09
-2.9538e-07
1.1728e-08
3.0394e-09
-2.65835e-07
-7.63131e-08
1.34697e-09
-8.98584e-08
-6.85082e-09
-5.76022e-12
-1.75407e-08
3.17681e-09
-6.76203e-11
-9.14828e-09
-1.50808e-09
-1.03817e-10
-1.14682e-08
-1.22841e-09
-3.45813e-11
-6.00857e-09
-1.19838e-09
5.22117e-11
-7.49112e-09
-2.18496e-09
2.63546e-11
-8.141e-09
-1.87906e-09
1.97948e-11
-5.63221e-09
7.64159e-10
7.18722e-11
-7.71197e-09
6.79682e-10
5.27441e-11
-7.89772e-09
9.39024e-10
2.00176e-11
-8.9467e-09
-1.73597e-10
-1.9893e-11
-1.00643e-08
-6.86791e-10
2.5416e-10
-1.07138e-08
1.44394e-09
-9.52248e-11
-8.95608e-08
-2.83565e-09
-1.16678e-09
-1.43224e-07
-1.50283e-08
-1.40437e-10
-9.20139e-08
6.82419e-09
-1.30869e-07
-4.98543e-08
-3.40006e-10
-1.53258e-07
-2.092e-08
9.55698e-10
-3.05488e-07
-6.97847e-08
-2.7891e-10
-2.66013e-07
-7.3685e-08
-5.23481e-10
-7.42962e-08
2.08518e-08
-1.97909e-10
-1.63393e-08
3.84774e-09
2.50544e-11
-1.29267e-08
-5.029e-09
-4.80462e-11
-9.61585e-09
5.81767e-09
-2.00091e-11
-8.95065e-09
-4.33841e-09
2.02145e-11
-1.03907e-08
-2.73774e-09
-3.95794e-11
-8.99212e-09
3.50877e-10
-1.06367e-11
-6.67395e-09
-1.25268e-09
8.80433e-11
-9.27388e-09
-2.10766e-11
9.98805e-11
-7.2233e-09
3.55649e-09
4.17211e-11
-8.10267e-09
3.35458e-09
-1.80779e-11
-9.19083e-09
3.53591e-09
1.91909e-10
-9.42132e-09
5.47498e-09
-5.48611e-11
-8.97777e-08
-3.49395e-10
-2.54261e-10
-1.4362e-07
-2.13901e-08
5.49077e-10
-8.2562e-08
-9.66554e-09
-1.05756e-07
-3.63163e-08
-5.57229e-11
-1.24051e-07
-4.02755e-08
-2.95359e-10
-3.05166e-07
-7.5265e-08
-1.67362e-09
-2.65987e-07
-2.36653e-08
-1.44227e-09
-6.3569e-08
6.844e-08
-3.43839e-10
-1.94463e-08
-9.5996e-10
-3.86463e-11
-2.3493e-08
-1.3963e-08
-3.4105e-11
-1.13627e-08
5.82152e-10
1.16055e-11
-1.79989e-08
-1.30837e-08
7.89295e-12
-1.9813e-08
-1.14857e-08
-2.36513e-11
-1.42539e-08
-6.0732e-09
1.40993e-12
-1.18346e-08
-8.01973e-09
5.25867e-11
-1.70034e-08
-9.45451e-09
5.75975e-11
-7.86606e-09
1.24274e-09
-2.37567e-11
-6.73349e-09
4.70368e-09
-1.71153e-11
-8.94595e-09
3.74397e-09
9.69468e-11
-9.50223e-09
3.66607e-09
-2.3056e-11
-9.01328e-08
-1.16453e-09
-3.2825e-10
-1.43956e-07
-1.49356e-08
1.34642e-10
-7.555e-08
-1.63904e-08
-8.98784e-08
-1.48493e-08
-3.68152e-11
-1.51233e-08
-5.89302e-11
-5.89947e-09
-1.59651e-09
-5.04899e-09
-9.78843e-10
4.92764e-08
3.46917e-10
8.71013e-10
-7.2264e-11
-1.04668e-08
-4.54275e-11
-3.4808e-09
-9.19802e-12
-9.7522e-09
-5.91455e-11
-1.05624e-08
-2.98519e-11
-7.71983e-09
1.99235e-11
-6.45014e-09
-1.01201e-10
-9.81607e-09
-1.14603e-10
-1.8141e-09
2.36776e-11
1.17731e-09
5.24828e-10