/*--------------------------------*- C++ -*----------------------------------*\
| =========                 |                                                 |
| \\      /  F ield         | OpenFOAM: The Open Source CFD Toolbox           |
|  \\    /   O peration     | Version:  2.3.0                                 |
|   \\  /    A nd           | Web:      www.OpenFOAM.org                      |
|    \\/     M anipulation  |                                                 |
\*---------------------------------------------------------------------------*/
FoamFile
{
    version     2.0;
    format      ascii;
    class       volScalarField;
    location    "0.599977";
    object      alpha.air;
}
// * * * * * * * * * * * * * * * * * * * * * * * * * * * * * * * * * * * * * //

dimensions      [0 0 0 0 0 0 0];

internalField   nonuniform List<scalar> 
10000
(
0.00307156
0.00308679
0.00429858
0.00747047
0.011516
0.0645443
0.0953442
0.0721701
0.0316554
0.0553126
0.0234605
0.0217354
0.0218552
0.0239753
0.0220964
0.0156293
0.00869914
0.0070649
0.00606659
0.00732657
7.38308e-09
1.38017e-10
1.11544e-08
2.08692e-07
2.14533e-05
0.0483133
0.0112096
0.00305452
0.000346949
0.00188654
6.59081e-05
2.41922e-05
2.95058e-06
2.40778e-06
1.94344e-06
9.10568e-07
1.59465e-07
6.65121e-08
2.40322e-08
1.00371e-07
6.03083e-22
3.26577e-19
1.78269e-15
6.07105e-12
2.91292e-08
0.000640977
0.00013365
5.67604e-05
1.99814e-05
1.48207e-05
1.36517e-06
8.25081e-07
1.1948e-07
2.90558e-08
3.93629e-08
1.22209e-08
3.56213e-11
3.11758e-15
6.66687e-18
1.65799e-19
2.33114e-23
1.17359e-20
2.72772e-17
4.02852e-14
3.64857e-11
1.51568e-08
4.2182e-09
9.21002e-09
9.91465e-09
2.11359e-11
2.09074e-12
3.88962e-11
6.40216e-11
6.88184e-11
3.46387e-11
1.06679e-12
1.31917e-14
2.4538e-19
1.09503e-21
6.88458e-23
0
0
0
0
0
0
0
0
0
0
0
0
0
0
0
0
0
0
0
0
0
0
0
0
0
0
0
0
0
0
0
0
0
0
0
0
0
0
0
0
0
0
0
0
0
0
0
0
0
0
0
0
0
0
0
0
0
0
0
0
0
0
0
0
0
0
0
0
0
0
0
0
0
0
0
0
0
0
0
0
0
0
0
0
0
0
0
0
0
0
0
0
0
0
0
0
0
0
0
0
0
0
0
0
0
0
0
0
0
0
0
0
0
0
0
0
0
0
0
0
0
0
0
0
0
0
0
0
0
0
0
0
0
0
0
0
0
0
0
0
0
0
0
0
0
0
0
0
0
0
0
0
0
0
0
0
0
0
0
0
0
0
0
0
0
0
0
0
0
0
0
0
0
0
0
0
0
0
0
0
0
0
0
0
0
0
0
0
0
0
0
0
0
0
0
0
0
0
0
0
0
0
0
0
0
0
0
0
0
0
0
0
0
0
0
0
0
0
0
0
0
0
0
0
0
0
0
0
0
0
0
0
0
0
0
0
0
0
0
0
0
0
0
0
0
0
0
0
0
0
0
0
0
0
0
0
0
0
0
0
0
0
0
0
0
0
0
0
0
0
0
0
0
0
0
0
0
0
0
0
0
0
0
0
0
0
0
0
0
0
0
0
0
0
0
0
0
0
0
0
0
0
0
0
0
0
0
0
0
0
0
0
0
0
0
0
0
0
0
0
0.00335327
0.00325616
0.00439764
0.00745536
0.0119201
0.0681597
0.104067
0.0803077
0.0342376
0.062416
0.0248883
0.0229762
0.0229809
0.0249864
0.0229514
0.0161359
0.00888687
0.0073416
0.00632511
0.00764258
2.06698e-08
3.52887e-10
9.68464e-09
2.76505e-07
2.12963e-05
0.0609777
0.0167517
0.00515094
0.000564279
0.00324507
0.000103654
3.80158e-05
3.87219e-06
2.53917e-06
2.03337e-06
9.31906e-07
1.87987e-07
9.46132e-08
4.16705e-08
1.44701e-07
4.00069e-22
2.49083e-19
1.1186e-15
1.22935e-12
3.93798e-08
0.000924556
0.000219417
0.000102075
3.78913e-05
2.70183e-05
2.50847e-06
1.53631e-06
2.19983e-07
4.97534e-08
7.07401e-08
2.17136e-08
3.16114e-11
4.37655e-15
8.1252e-18
1.42221e-19
1.1432e-23
1.07582e-20
2.18882e-17
3.16557e-14
5.65285e-11
1.62225e-08
5.5567e-09
1.27875e-08
1.22268e-08
2.69655e-11
2.54966e-12
4.81114e-11
7.87754e-11
8.24988e-11
4.17331e-11
1.27604e-12
1.23079e-14
2.84132e-19
1.14308e-21
6.34037e-23
0
0
0
0
0
0
0
0
0
0
0
0
0
0
0
0
0
0
0
0
0
0
0
0
0
0
0
0
0
0
0
0
0
0
0
0
0
0
0
0
0
0
0
0
0
0
0
0
0
0
0
0
0
0
0
0
0
0
0
0
0
0
0
0
0
0
0
0
0
0
0
0
0
0
0
0
0
0
0
0
0
0
0
0
0
0
0
0
0
0
0
0
0
0
0
0
0
0
0
0
0
0
0
0
0
0
0
0
0
0
0
0
0
0
0
0
0
0
0
0
0
0
0
0
0
0
0
0
0
0
0
0
0
0
0
0
0
0
0
0
0
0
0
0
0
0
0
0
0
0
0
0
0
0
0
0
0
0
0
0
0
0
0
0
0
0
0
0
0
0
0
0
0
0
0
0
0
0
0
0
0
0
0
0
0
0
0
0
0
0
0
0
0
0
0
0
0
0
0
0
0
0
0
0
0
0
0
0
0
0
0
0
0
0
0
0
0
0
0
0
0
0
0
0
0
0
0
0
0
0
0
0
0
0
0
0
0
0
0
0
0
0
0
0
0
0
0
0
0
0
0
0
0
0
0
0
0
0
0
0
0
0
0
0
0
0
0
0
0
0
0
0
0
0
0
0
0
0
0
0
0
0
0
0
0
0
0
0
0
0
0
0
0
0
0
0
0
0
0
0
0
0
0
0
0
0
0
0
0
0
0
0
0
0
0
0
0
0
0
0
0.00348197
0.00333669
0.00444645
0.00746346
0.012169
0.0706003
0.109711
0.0860727
0.0361448
0.0674098
0.0259829
0.0239337
0.0238801
0.0258584
0.02366
0.0165171
0.00898475
0.0074785
0.00646308
0.00778777
2.50993e-08
1.14989e-09
5.35862e-09
2.20025e-07
1.73139e-05
0.0689994
0.0212666
0.00715058
0.000758605
0.00455115
0.000136906
5.01961e-05
4.58515e-06
2.5389e-06
2.00422e-06
8.98814e-07
1.73544e-07
9.50362e-08
4.4642e-08
1.43049e-07
2.73671e-22
1.58404e-19
5.4901e-16
5.98564e-13
4.79997e-08
0.001126
0.000294858
0.000145941
5.62974e-05
3.92366e-05
3.66688e-06
2.26332e-06
3.2115e-07
6.89085e-08
1.00516e-07
3.04179e-08
2.77267e-11
5.86262e-15
1.00679e-17
1.12433e-19
4.80607e-24
8.36291e-21
1.57582e-17
2.14219e-14
9.25345e-11
1.91686e-08
7.25434e-09
2.23732e-08
1.74562e-08
3.55235e-11
3.09442e-12
6.26538e-11
1.06324e-10
1.07439e-10
5.20093e-11
1.52187e-12
1.09657e-14
3.42839e-19
1.21666e-21
5.35641e-23
0
0
0
0
0
0
0
0
0
0
0
0
0
0
0
0
0
0
0
0
0
0
0
0
0
0
0
0
0
0
0
0
0
0
0
0
0
0
0
0
0
0
0
0
0
0
0
0
0
0
0
0
0
0
0
0
0
0
0
0
0
0
0
0
0
0
0
0
0
0
0
0
0
0
0
0
0
0
0
0
0
0
0
0
0
0
0
0
0
0
0
0
0
0
0
0
0
0
0
0
0
0
0
0
0
0
0
0
0
0
0
0
0
0
0
0
0
0
0
0
0
0
0
0
0
0
0
0
0
0
0
0
0
0
0
0
0
0
0
0
0
0
0
0
0
0
0
0
0
0
0
0
0
0
0
0
0
0
0
0
0
0
0
0
0
0
0
0
0
0
0
0
0
0
0
0
0
0
0
0
0
0
0
0
0
0
0
0
0
0
0
0
0
0
0
0
0
0
0
0
0
0
0
0
0
0
0
0
0
0
0
0
0
0
0
0
0
0
0
0
0
0
0
0
0
0
0
0
0
0
0
0
0
0
0
0
0
0
0
0
0
0
0
0
0
0
0
0
0
0
0
0
0
0
0
0
0
0
0
0
0
0
0
0
0
0
0
0
0
0
0
0
0
0
0
0
0
0
0
0
0
0
0
0
0
0
0
0
0
0
0
0
0
0
0
0
0
0
0
0
0
0
0
0
0
0
0
0
0
0
0
0
0
0
0
0
0
0
0
0
0.00349265
0.00335981
0.0044433
0.00728871
0.0122231
0.0725975
0.11468
0.0916838
0.0376993
0.0722322
0.026733
0.0245554
0.0244524
0.0264041
0.0240655
0.0166751
0.00895491
0.00749549
0.00649656
0.0077841
3.2121e-08
8.00395e-09
7.60214e-09
1.8655e-07
1.41165e-05
0.0782473
0.0273063
0.0101756
0.00103392
0.0065145
0.000183939
6.74214e-05
5.6026e-06
2.56078e-06
2.0266e-06
9.04823e-07
1.902e-07
1.1557e-07
6.37248e-08
1.56052e-07
2.23719e-22
8.69024e-20
1.91518e-16
2.30264e-13
6.67845e-08
0.00137729
0.000400264
0.00021142
8.49414e-05
5.80169e-05
5.4693e-06
3.40128e-06
4.77404e-07
9.67686e-08
1.44274e-07
4.31195e-08
1.88743e-11
7.3805e-15
1.22627e-17
8.78842e-20
1.86956e-24
5.98864e-21
1.04329e-17
1.24335e-14
1.56393e-10
2.55706e-08
9.37264e-09
3.05837e-08
3.14523e-08
4.79994e-11
3.73161e-12
8.13369e-11
1.4639e-10
1.42072e-10
6.47974e-11
1.81277e-12
9.6203e-15
4.26381e-19
1.30893e-21
4.10385e-23
0
0
0
0
0
0
0
0
0
0
0
0
0
0
0
0
0
0
0
0
0
0
0
0
0
0
0
0
0
0
0
0
0
0
0
0
0
0
0
0
0
0
0
0
0
0
0
0
0
0
0
0
0
0
0
0
0
0
0
0
0
0
0
0
0
0
0
0
0
0
0
0
0
0
0
0
0
0
0
0
0
0
0
0
0
0
0
0
0
0
0
0
0
0
0
0
0
0
0
0
0
0
0
0
0
0
0
0
0
0
0
0
0
0
0
0
0
0
0
0
0
0
0
0
0
0
0
0
0
0
0
0
0
0
0
0
0
0
0
0
0
0
0
0
0
0
0
0
0
0
0
0
0
0
0
0
0
0
0
0
0
0
0
0
0
0
0
0
0
0
0
0
0
0
0
0
0
0
0
0
0
0
0
0
0
0
0
0
0
0
0
0
0
0
0
0
0
0
0
0
0
0
0
0
0
0
0
0
0
0
0
0
0
0
0
0
0
0
0
0
0
0
0
0
0
0
0
0
0
0
0
0
0
0
0
0
0
0
0
0
0
0
0
0
0
0
0
0
0
0
0
0
0
0
0
0
0
0
0
0
0
0
0
0
0
0
0
0
0
0
0
0
0
0
0
0
0
0
0
0
0
0
0
0
0
0
0
0
0
0
0
0
0
0
0
0
0
0
0
0
0
0
0
0
0
0
0
0
0
0
0
0
0
0
0
0
0
0
0
0
0.00351866
0.00340434
0.00447017
0.00719981
0.0122992
0.0748989
0.120156
0.0982203
0.0394785
0.0777548
0.0275833
0.0252575
0.0251059
0.0270857
0.024572
0.0168718
0.00894728
0.00752699
0.00655019
0.00778084
3.88007e-08
1.51217e-08
1.06981e-08
1.70722e-07
1.32879e-05
0.0880294
0.0344509
0.0142784
0.00138027
0.00915326
0.00024348
8.92473e-05
6.83679e-06
2.55719e-06
2.03616e-06
9.18257e-07
2.11416e-07
1.34235e-07
8.09185e-08
1.70494e-07
2.40004e-22
5.1362e-20
6.55067e-17
6.72955e-14
1.22216e-07
0.00165527
0.000530173
0.000298153
0.000124626
8.37824e-05
7.97933e-06
4.9992e-06
6.92973e-07
1.3278e-07
2.01111e-07
5.92772e-08
8.06111e-12
8.69917e-15
1.42006e-17
7.66047e-20
8.43279e-25
4.33768e-21
6.80568e-18
6.54876e-15
2.69179e-10
3.49308e-08
1.19754e-08
4.15357e-08
4.48895e-08
6.45252e-11
4.46846e-12
1.0439e-10
2.01266e-10
1.87765e-10
8.07492e-11
2.15045e-12
7.86915e-15
5.45022e-19
1.40946e-21
2.74347e-23
0
0
0
0
0
0
0
0
0
0
0
0
0
0
0
0
0
0
0
0
0
0
0
0
0
0
0
0
0
0
0
0
0
0
0
0
0
0
0
0
0
0
0
0
0
0
0
0
0
0
0
0
0
0
0
0
0
0
0
0
0
0
0
0
0
0
0
0
0
0
0
0
0
0
0
0
0
0
0
0
0
0
0
0
0
0
0
0
0
0
0
0
0
0
0
0
0
0
0
0
0
0
0
0
0
0
0
0
0
0
0
0
0
0
0
0
0
0
0
0
0
0
0
0
0
0
0
0
0
0
0
0
0
0
0
0
0
0
0
0
0
0
0
0
0
0
0
0
0
0
0
0
0
0
0
0
0
0
0
0
0
0
0
0
0
0
0
0
0
0
0
0
0
0
0
0
0
0
0
0
0
0
0
0
0
0
0
0
0
0
0
0
0
0
0
0
0
0
0
0
0
0
0
0
0
0
0
0
0
0
0
0
0
0
0
0
0
0
0
0
0
0
0
0
0
0
0
0
0
0
0
0
0
0
0
0
0
0
0
0
0
0
0
0
0
0
0
0
0
0
0
0
0
0
0
0
0
0
0
0
0
0
0
0
0
0
0
0
0
0
0
0
0
0
0
0
0
0
0
0
0
0
0
0
0
0
0
0
0
0
0
0
0
0
0
0
0
0
0
0
0
0
0
0
0
0
0
0
0
0
0
0
0
0
0
0
0
0
0
0
0.00355636
0.0034399
0.0044858
0.00711962
0.0123824
0.0771608
0.125355
0.105114
0.0413338
0.0837382
0.0284481
0.0259656
0.0257519
0.0277199
0.0250335
0.0170633
0.00894537
0.00755708
0.0065976
0.00779
4.56878e-08
2.29059e-08
1.72271e-08
1.64408e-07
1.3767e-05
0.0986046
0.0429417
0.0198507
0.00181472
0.0126933
0.000319255
0.000117104
8.36218e-06
2.54439e-06
2.06011e-06
9.35961e-07
2.35827e-07
1.55105e-07
1.00065e-07
1.86075e-07
3.19942e-22
3.48986e-20
3.48e-17
1.99621e-14
3.07589e-07
0.00196697
0.000689352
0.00041227
0.000179181
0.000119021
1.14714e-05
7.24614e-06
9.8934e-07
1.79314e-07
2.74278e-07
7.98416e-08
2.49464e-12
9.65365e-15
1.55042e-17
7.57473e-20
5.41665e-25
3.35815e-21
4.69484e-18
3.46197e-15
4.48108e-10
4.29595e-08
1.51104e-08
5.54792e-08
6.47592e-08
8.81468e-11
5.31213e-12
1.30716e-10
2.71976e-10
2.44995e-10
1.00713e-10
2.54112e-12
5.43783e-15
6.86367e-19
1.50341e-21
1.54222e-23
0
0
0
0
0
0
0
0
0
0
0
0
0
0
0
0
0
0
0
0
0
0
0
0
0
0
0
0
0
0
0
0
0
0
0
0
0
0
0
0
0
0
0
0
0
0
0
0
0
0
0
0
0
0
0
0
0
0
0
0
0
0
0
0
0
0
0
0
0
0
0
0
0
0
0
0
0
0
0
0
0
0
0
0
0
0
0
0
0
0
0
0
0
0
0
0
0
0
0
0
0
0
0
0
0
0
0
0
0
0
0
0
0
0
0
0
0
0
0
0
0
0
0
0
0
0
0
0
0
0
0
0
0
0
0
0
0
0
0
0
0
0
0
0
0
0
0
0
0
0
0
0
0
0
0
0
0
0
0
0
0
0
0
0
0
0
0
0
0
0
0
0
0
0
0
0
0
0
0
0
0
0
0
0
0
0
0
0
0
0
0
0
0
0
0
0
0
0
0
0
0
0
0
0
0
0
0
0
0
0
0
0
0
0
0
0
0
0
0
0
0
0
0
0
0
0
0
0
0
0
0
0
0
0
0
0
0
0
0
0
0
0
0
0
0
0
0
0
0
0
0
0
0
0
0
0
0
0
0
0
0
0
0
0
0
0
0
0
0
0
0
0
0
0
0
0
0
0
0
0
0
0
0
0
0
0
0
0
0
0
0
0
0
0
0
0
0
0
0
0
0
0
0
0
0
0
0
0
0
0
0
0
0
0
0
0
0
0
0
0
0.00360238
0.00347901
0.00450818
0.00705948
0.0124734
0.0794639
0.130477
0.112542
0.043337
0.0902593
0.0293675
0.0267105
0.0264296
0.0283824
0.0255092
0.017262
0.00895952
0.00759105
0.00664708
0.00780936
5.20121e-08
3.08245e-08
2.57674e-08
1.63351e-07
1.81258e-05
0.109845
0.0527672
0.0271803
0.0023419
0.0172926
0.000413272
0.00015181
1.02053e-05
2.53726e-06
2.10071e-06
9.55991e-07
2.60571e-07
1.76611e-07
1.19603e-07
2.01668e-07
4.75905e-22
2.63646e-20
2.32544e-17
8.51745e-15
7.86388e-07
0.00230457
0.000877843
0.000557806
0.000251971
0.000165911
1.62137e-05
1.03379e-05
1.3858e-06
2.37887e-07
3.65396e-07
1.0522e-07
1.48649e-12
1.0096e-14
1.60967e-17
7.55473e-20
4.31168e-25
3.09329e-21
3.82336e-18
1.98954e-15
7.14748e-10
5.36214e-08
1.87913e-08
7.23815e-08
9.08965e-08
1.20444e-10
6.26743e-12
1.56172e-10
3.60717e-10
3.15495e-10
1.25663e-10
2.99003e-12
2.82836e-15
8.29448e-19
1.5784e-21
8.69558e-24
0
0
0
0
0
0
0
0
0
0
0
0
0
0
0
0
0
0
0
0
0
0
0
0
0
0
0
0
0
0
0
0
0
0
0
0
0
0
0
0
0
0
0
0
0
0
0
0
0
0
0
0
0
0
0
0
0
0
0
0
0
0
0
0
0
0
0
0
0
0
0
0
0
0
0
0
0
0
0
0
0
0
0
0
0
0
0
0
0
0
0
0
0
0
0
0
0
0
0
0
0
0
0
0
0
0
0
0
0
0
0
0
0
0
0
0
0
0
0
0
0
0
0
0
0
0
0
0
0
0
0
0
0
0
0
0
0
0
0
0
0
0
0
0
0
0
0
0
0
0
0
0
0
0
0
0
0
0
0
0
0
0
0
0
0
0
0
0
0
0
0
0
0
0
0
0
0
0
0
0
0
0
0
0
0
0
0
0
0
0
0
0
0
0
0
0
0
0
0
0
0
0
0
0
0
0
0
0
0
0
0
0
0
0
0
0
0
0
0
0
0
0
0
0
0
0
0
0
0
0
0
0
0
0
0
0
0
0
0
0
0
0
0
0
0
0
0
0
0
0
0
0
0
0
0
0
0
0
0
0
0
0
0
0
0
0
0
0
0
0
0
0
0
0
0
0
0
0
0
0
0
0
0
0
0
0
0
0
0
0
0
0
0
0
0
0
0
0
0
0
0
0
0
0
0
0
0
0
0
0
0
0
0
0
0
0
0
0
0
0
0.0036485
0.00351662
0.0045308
0.00701367
0.0125663
0.0817804
0.135307
0.120322
0.0454823
0.0972899
0.0303331
0.027494
0.0271261
0.029047
0.0259784
0.0174625
0.00897382
0.00762458
0.006694
0.00782848
5.78652e-08
3.88293e-08
3.57592e-08
1.65584e-07
2.56267e-05
0.121698
0.0638977
0.0365128
0.00296557
0.023109
0.000527866
0.000194217
1.2399e-05
2.54409e-06
2.1704e-06
9.75535e-07
2.83966e-07
1.98237e-07
1.39231e-07
2.16602e-07
7.23099e-22
2.4494e-20
1.87624e-17
6.2082e-15
1.67109e-06
0.0026595
0.00109406
0.000738315
0.000346701
0.000226837
2.25295e-05
1.45153e-05
1.90392e-06
3.10042e-07
4.7582e-07
1.35945e-07
1.14809e-12
9.9168e-15
1.59909e-17
7.80399e-20
3.55443e-25
3.89854e-21
4.30389e-18
1.56022e-15
1.08329e-09
6.6341e-08
2.29743e-08
9.26888e-08
1.25083e-07
1.63129e-10
7.33651e-12
1.83604e-10
4.6997e-10
4.00828e-10
1.55584e-10
3.50105e-12
1.49228e-15
9.63666e-19
1.63108e-21
6.02814e-24
0
0
0
0
0
0
0
0
0
0
0
0
0
0
0
0
0
0
0
0
0
0
0
0
0
0
0
0
0
0
0
0
0
0
0
0
0
0
0
0
0
0
0
0
0
0
0
0
0
0
0
0
0
0
0
0
0
0
0
0
0
0
0
0
0
0
0
0
0
0
0
0
0
0
0
0
0
0
0
0
0
0
0
0
0
0
0
0
0
0
0
0
0
0
0
0
0
0
0
0
0
0
0
0
0
0
0
0
0
0
0
0
0
0
0
0
0
0
0
0
0
0
0
0
0
0
0
0
0
0
0
0
0
0
0
0
0
0
0
0
0
0
0
0
0
0
0
0
0
0
0
0
0
0
0
0
0
0
0
0
0
0
0
0
0
0
0
0
0
0
0
0
0
0
0
0
0
0
0
0
0
0
0
0
0
0
0
0
0
0
0
0
0
0
0
0
0
0
0
0
0
0
0
0
0
0
0
0
0
0
0
0
0
0
0
0
0
0
0
0
0
0
0
0
0
0
0
0
0
0
0
0
0
0
0
0
0
0
0
0
0
0
0
0
0
0
0
0
0
0
0
0
0
0
0
0
0
0
0
0
0
0
0
0
0
0
0
0
0
0
0
0
0
0
0
0
0
0
0
0
0
0
0
0
0
0
0
0
0
0
0
0
0
0
0
0
0
0
0
0
0
0
0
0
0
0
0
0
0
0
0
0
0
0
0
0
0
0
0
0
0.00369615
0.00355491
0.00455552
0.00697944
0.0126606
0.0841228
0.13977
0.128345
0.0477823
0.104766
0.0313538
0.0283169
0.0278524
0.0297326
0.026446
0.0176659
0.00899321
0.00765914
0.00673986
0.00785217
6.31814e-08
4.67564e-08
4.59188e-08
1.69169e-07
3.41768e-05
0.134085
0.0761971
0.0479485
0.00368227
0.0302526
0.00066448
0.000244976
1.49385e-05
2.59425e-06
2.27515e-06
9.92729e-07
3.04919e-07
2.19394e-07
1.58338e-07
2.30595e-07
1.05743e-21
3.17704e-20
1.9594e-17
7.68905e-15
2.90839e-06
0.00302002
0.00133321
0.000955453
0.000466893
0.000303882
3.07666e-05
2.00422e-05
2.56437e-06
3.96882e-07
6.06217e-07
1.72412e-07
9.03821e-13
9.13636e-15
1.51886e-17
8.44932e-20
2.84418e-25
6.57577e-21
6.73305e-18
1.97758e-15
1.54362e-09
8.07702e-08
2.75227e-08
1.165e-07
1.68423e-07
2.16641e-10
8.51733e-12
2.14052e-10
6.00935e-10
5.0218e-10
1.87653e-10
4.07812e-12
8.35777e-16
1.0795e-18
1.66938e-21
5.61062e-24
0
0
0
0
0
0
0
0
0
0
0
0
0
0
0
0
0
0
0
0
0
0
0
0
0
0
0
0
0
0
0
0
0
0
0
0
0
0
0
0
0
0
0
0
0
0
0
0
0
0
0
0
0
0
0
0
0
0
0
0
0
0
0
0
0
0
0
0
0
0
0
0
0
0
0
0
0
0
0
0
0
0
0
0
0
0
0
0
0
0
0
0
0
0
0
0
0
0
0
0
0
0
0
0
0
0
0
0
0
0
0
0
0
0
0
0
0
0
0
0
0
0
0
0
0
0
0
0
0
0
0
0
0
0
0
0
0
0
0
0
0
0
0
0
0
0
0
0
0
0
0
0
0
0
0
0
0
0
0
0
0
0
0
0
0
0
0
0
0
0
0
0
0
0
0
0
0
0
0
0
0
0
0
0
0
0
0
0
0
0
0
0
0
0
0
0
0
0
0
0
0
0
0
0
0
0
0
0
0
0
0
0
0
0
0
0
0
0
0
0
0
0
0
0
0
0
0
0
0
0
0
0
0
0
0
0
0
0
0
0
0
0
0
0
0
0
0
0
0
0
0
0
0
0
0
0
0
0
0
0
0
0
0
0
0
0
0
0
0
0
0
0
0
0
0
0
0
0
0
0
0
0
0
0
0
0
0
0
0
0
0
0
0
0
0
0
0
0
0
0
0
0
0
0
0
0
0
0
0
0
0
0
0
0
0
0
0
0
0
0
0.00374579
0.00359536
0.00458249
0.00695511
0.0127567
0.0864959
0.143726
0.136433
0.0502308
0.112559
0.03243
0.0291829
0.028614
0.0304238
0.0269111
0.0178731
0.00901684
0.00769601
0.00678593
0.00788018
6.76031e-08
5.40707e-08
5.50759e-08
1.72887e-07
4.51449e-05
0.146897
0.0894363
0.0613881
0.00447809
0.0387659
0.000823738
0.00030431
1.78125e-05
2.70007e-06
2.42106e-06
1.00621e-06
3.22219e-07
2.38836e-07
1.75878e-07
2.43053e-07
1.4308e-21
5.44977e-20
2.71979e-17
1.24212e-14
4.32843e-06
0.00337462
0.00158753
0.00120837
0.000615638
0.0003985
4.12802e-05
2.71903e-05
3.38513e-06
4.99039e-07
7.56615e-07
2.1498e-07
6.8711e-13
7.86785e-15
1.37326e-17
9.62337e-20
2.13463e-25
1.22527e-20
1.17848e-17
3.31743e-15
2.04472e-09
9.64911e-08
3.218e-08
1.43871e-07
2.21917e-07
2.80439e-10
9.80323e-12
2.47448e-10
7.53244e-10
6.20084e-10
2.19055e-10
4.72524e-12
5.85939e-16
1.17203e-18
1.70978e-21
6.15697e-24
0
0
0
0
0
0
0
0
0
0
0
0
0
0
0
0
0
0
0
0
0
0
0
0
0
0
0
0
0
0
0
0
0
0
0
0
0
0
0
0
0
0
0
0
0
0
0
0
0
0
0
0
0
0
0
0
0
0
0
0
0
0
0
0
0
0
0
0
0
0
0
0
0
0
0
0
0
0
0
0
0
0
0
0
0
0
0
0
0
0
0
0
0
0
0
0
0
0
0
0
0
0
0
0
0
0
0
0
0
0
0
0
0
0
0
0
0
0
0
0
0
0
0
0
0
0
0
0
0
0
0
0
0
0
0
0
0
0
0
0
0
0
0
0
0
0
0
0
0
0
0
0
0
0
0
0
0
0
0
0
0
0
0
0
0
0
0
0
0
0
0
0
0
0
0
0
0
0
0
0
0
0
0
0
0
0
0
0
0
0
0
0
0
0
0
0
0
0
0
0
0
0
0
0
0
0
0
0
0
0
0
0
0
0
0
0
0
0
0
0
0
0
0
0
0
0
0
0
0
0
0
0
0
0
0
0
0
0
0
0
0
0
0
0
0
0
0
0
0
0
0
0
0
0
0
0
0
0
0
0
0
0
0
0
0
0
0
0
0
0
0
0
0
0
0
0
0
0
0
0
0
0
0
0
0
0
0
0
0
0
0
0
0
0
0
0
0
0
0
0
0
0
0
0
0
0
0
0
0
0
0
0
0
0
0
0
0
0
0
0
0.0037981
0.00364109
0.00461352
0.00694064
0.0128562
0.0889034
0.147022
0.144414
0.0527625
0.120484
0.0335383
0.0300831
0.0293864
0.0311242
0.0273743
0.0180839
0.00904564
0.00773747
0.00683454
0.00791311
7.14116e-08
5.94277e-08
6.22183e-08
1.76065e-07
6.05491e-05
0.159977
0.103288
0.076512
0.00533575
0.0486034
0.0010053
0.000371986
2.09852e-05
2.89097e-06
2.61533e-06
1.01585e-06
3.34723e-07
2.54392e-07
1.89376e-07
2.53412e-07
1.74077e-21
1.00184e-19
4.36233e-17
2.01605e-14
5.77036e-06
0.00371192
0.00184651
0.00149321
0.000795177
0.00051098
5.43946e-05
3.62098e-05
4.37855e-06
6.16548e-07
9.26172e-07
2.63954e-07
4.7177e-13
6.26537e-15
1.17478e-17
1.11948e-19
1.46943e-25
2.12433e-20
1.88331e-17
5.58605e-15
2.48255e-09
1.12526e-07
3.65134e-08
1.7467e-07
2.86107e-07
3.52333e-10
1.11823e-11
2.83614e-10
9.23841e-10
7.54168e-10
2.45854e-10
5.45455e-12
4.6614e-16
1.2448e-18
1.76888e-21
7.15218e-24
0
0
0
0
0
0
0
0
0
0
0
0
0
0
0
0
0
0
0
0
0
0
0
0
0
0
0
0
0
0
0
0
0
0
0
0
0
0
0
0
0
0
0
0
0
0
0
0
0
0
0
0
0
0
0
0
0
0
0
0
0
0
0
0
0
0
0
0
0
0
0
0
0
0
0
0
0
0
0
0
0
0
0
0
0
0
0
0
0
0
0
0
0
0
0
0
0
0
0
0
0
0
0
0
0
0
0
0
0
0
0
0
0
0
0
0
0
0
0
0
0
0
0
0
0
0
0
0
0
0
0
0
0
0
0
0
0
0
0
0
0
0
0
0
0
0
0
0
0
0
0
0
0
0
0
0
0
0
0
0
0
0
0
0
0
0
0
0
0
0
0
0
0
0
0
0
0
0
0
0
0
0
0
0
0
0
0
0
0
0
0
0
0
0
0
0
0
0
0
0
0
0
0
0
0
0
0
0
0
0
0
0
0
0
0
0
0
0
0
0
0
0
0
0
0
0
0
0
0
0
0
0
0
0
0
0
0
0
0
0
0
0
0
0
0
0
0
0
0
0
0
0
0
0
0
0
0
0
0
0
0
0
0
0
0
0
0
0
0
0
0
0
0
0
0
0
0
0
0
0
0
0
0
0
0
0
0
0
0
0
0
0
0
0
0
0
0
0
0
0
0
0
0
0
0
0
0
0
0
0
0
0
0
0
0
0
0
0
0
0
0.00385324
0.00369359
0.00464986
0.00693555
0.0129601
0.0913424
0.149482
0.152257
0.0553113
0.128392
0.0346839
0.0309975
0.0301736
0.0318318
0.0278354
0.0182978
0.00908026
0.00778574
0.00688785
0.00795166
7.4678e-08
6.15663e-08
6.68283e-08
1.77983e-07
7.97626e-05
0.17312
0.117343
0.092806
0.00623177
0.0595935
0.00120681
0.000447208
2.43894e-05
3.18373e-06
2.85668e-06
1.02118e-06
3.41531e-07
2.63188e-07
1.95671e-07
2.61305e-07
1.86172e-21
1.65829e-19
6.60213e-17
2.64704e-14
7.16809e-06
0.00402016
0.00209794
0.00180334
0.00100666
0.00064003
7.03666e-05
4.72995e-05
5.54901e-06
7.48929e-07
1.11318e-06
3.19595e-07
2.59817e-13
4.44051e-15
9.42748e-18
1.26124e-19
9.12707e-26
3.08833e-20
2.45092e-17
7.06196e-15
2.7234e-09
1.27445e-07
4.15778e-08
2.08575e-07
3.60936e-07
4.28075e-10
1.26378e-11
3.2226e-10
1.10595e-09
9.02957e-10
2.7001e-10
6.2798e-12
3.86518e-16
1.30366e-18
1.85396e-21
7.94354e-24
0
0
0
0
0
0
0
0
0
0
0
0
0
0
0
0
0
0
0
0
0
0
0
0
0
0
0
0
0
0
0
0
0
0
0
0
0
0
0
0
0
0
0
0
0
0
0
0
0
0
0
0
0
0
0
0
0
0
0
0
0
0
0
0
0
0
0
0
0
0
0
0
0
0
0
0
0
0
0
0
0
0
0
0
0
0
0
0
0
0
0
0
0
0
0
0
0
0
0
0
0
0
0
0
0
0
0
0
0
0
0
0
0
0
0
0
0
0
0
0
0
0
0
0
0
0
0
0
0
0
0
0
0
0
0
0
0
0
0
0
0
0
0
0
0
0
0
0
0
0
0
0
0
0
0
0
0
0
0
0
0
0
0
0
0
0
0
0
0
0
0
0
0
0
0
0
0
0
0
0
0
0
0
0
0
0
0
0
0
0
0
0
0
0
0
0
0
0
0
0
0
0
0
0
0
0
0
0
0
0
0
0
0
0
0
0
0
0
0
0
0
0
0
0
0
0
0
0
0
0
0
0
0
0
0
0
0
0
0
0
0
0
0
0
0
0
0
0
0
0
0
0
0
0
0
0
0
0
0
0
0
0
0
0
0
0
0
0
0
0
0
0
0
0
0
0
0
0
0
0
0
0
0
0
0
0
0
0
0
0
0
0
0
0
0
0
0
0
0
0
0
0
0
0
0
0
0
0
0
0
0
0
0
0
0
0
0
0
0
0
0.00391049
0.00375015
0.00469124
0.00693951
0.0130682
0.0937995
0.151109
0.159928
0.0578449
0.136185
0.0358703
0.031947
0.0309836
0.0325468
0.0282942
0.0185149
0.00912111
0.00784115
0.00694615
0.00799598
7.74489e-08
6.11914e-08
6.88182e-08
1.78474e-07
0.000100207
0.186096
0.131153
0.109667
0.00713933
0.0714452
0.00142433
0.00052832
2.79351e-05
3.54487e-06
3.10662e-06
1.02224e-06
3.43186e-07
2.63253e-07
1.94569e-07
2.66648e-07
1.7222e-21
2.20197e-19
8.22094e-17
2.38299e-14
8.54414e-06
0.00428664
0.00232948
0.00213003
0.00124985
0.000782549
8.93421e-05
6.05739e-05
6.89081e-06
8.95196e-07
1.3152e-06
3.82078e-07
9.52067e-14
2.53341e-15
7.00728e-18
1.15062e-19
5.02688e-26
3.52012e-20
2.47193e-17
5.61778e-15
2.66002e-09
1.40136e-07
4.53543e-08
2.45033e-07
4.45514e-07
5.0126e-10
1.41477e-11
3.62973e-10
1.28792e-09
1.06386e-09
2.94452e-10
7.19786e-12
3.31016e-16
1.34946e-18
1.95463e-21
7.75173e-24
0
0
0
0
0
0
0
0
0
0
0
0
0
0
0
0
0
0
0
0
0
0
0
0
0
0
0
0
0
0
0
0
0
0
0
0
0
0
0
0
0
0
0
0
0
0
0
0
0
0
0
0
0
0
0
0
0
0
0
0
0
0
0
0
0
0
0
0
0
0
0
0
0
0
0
0
0
0
0
0
0
0
0
0
0
0
0
0
0
0
0
0
0
0
0
0
0
0
0
0
0
0
0
0
0
0
0
0
0
0
0
0
0
0
0
0
0
0
0
0
0
0
0
0
0
0
0
0
0
0
0
0
0
0
0
0
0
0
0
0
0
0
0
0
0
0
0
0
0
0
0
0
0
0
0
0
0
0
0
0
0
0
0
0
0
0
0
0
0
0
0
0
0
0
0
0
0
0
0
0
0
0
0
0
0
0
0
0
0
0
0
0
0
0
0
0
0
0
0
0
0
0
0
0
0
0
0
0
0
0
0
0
0
0
0
0
0
0
0
0
0
0
0
0
0
0
0
0
0
0
0
0
0
0
0
0
0
0
0
0
0
0
0
0
0
0
0
0
0
0
0
0
0
0
0
0
0
0
0
0
0
0
0
0
0
0
0
0
0
0
0
0
0
0
0
0
0
0
0
0
0
0
0
0
0
0
0
0
0
0
0
0
0
0
0
0
0
0
0
0
0
0
0
0
0
0
0
0
0
0
0
0
0
0
0
0
0
0
0
0
0.00396942
0.00380649
0.00473635
0.00695291
0.0131806
0.0962476
0.152224
0.166822
0.0604225
0.143718
0.0371018
0.0329437
0.0318241
0.0332702
0.0287511
0.0187368
0.00916798
0.00790183
0.00700483
0.00804579
7.97703e-08
6.0108e-08
6.79907e-08
1.77673e-07
0.000120319
0.198675
0.144297
0.126533
0.00803192
0.0837905
0.00165249
0.000613153
3.1489e-05
3.87373e-06
3.32433e-06
1.01343e-06
3.3941e-07
2.58718e-07
1.89417e-07
2.69371e-07
1.36839e-21
2.35904e-19
8.32017e-17
1.53968e-14
9.94007e-06
0.00449853
0.00253066
0.00246348
0.00152285
0.000933692
0.000111318
7.60306e-05
8.38745e-06
1.05347e-06
1.52837e-06
4.51356e-07
5.83054e-14
1.06676e-15
4.76374e-18
8.49515e-20
2.38055e-26
3.16519e-20
1.94487e-17
3.02513e-15
2.26642e-09
1.49858e-07
4.74872e-08
2.8323e-07
5.37907e-07
5.63961e-10
1.56875e-11
4.05214e-10
1.45121e-09
1.23311e-09
3.18906e-10
8.19147e-12
2.95716e-16
1.37787e-18
2.04025e-21
6.15427e-24
0
0
0
0
0
0
0
0
0
0
0
0
0
0
0
0
0
0
0
0
0
0
0
0
0
0
0
0
0
0
0
0
0
0
0
0
0
0
0
0
0
0
0
0
0
0
0
0
0
0
0
0
0
0
0
0
0
0
0
0
0
0
0
0
0
0
0
0
0
0
0
0
0
0
0
0
0
0
0
0
0
0
0
0
0
0
0
0
0
0
0
0
0
0
0
0
0
0
0
0
0
0
0
0
0
0
0
0
0
0
0
0
0
0
0
0
0
0
0
0
0
0
0
0
0
0
0
0
0
0
0
0
0
0
0
0
0
0
0
0
0
0
0
0
0
0
0
0
0
0
0
0
0
0
0
0
0
0
0
0
0
0
0
0
0
0
0
0
0
0
0
0
0
0
0
0
0
0
0
0
0
0
0
0
0
0
0
0
0
0
0
0
0
0
0
0
0
0
0
0
0
0
0
0
0
0
0
0
0
0
0
0
0
0
0
0
0
0
0
0
0
0
0
0
0
0
0
0
0
0
0
0
0
0
0
0
0
0
0
0
0
0
0
0
0
0
0
0
0
0
0
0
0
0
0
0
0
0
0
0
0
0
0
0
0
0
0
0
0
0
0
0
0
0
0
0
0
0
0
0
0
0
0
0
0
0
0
0
0
0
0
0
0
0
0
0
0
0
0
0
0
0
0
0
0
0
0
0
0
0
0
0
0
0
0
0
0
0
0
0
0.00402987
0.00386019
0.00478418
0.00697618
0.0132969
0.0986544
0.153355
0.172928
0.0630207
0.150885
0.0383609
0.0339581
0.0326764
0.0340002
0.0292046
0.0189649
0.00922086
0.00796576
0.00706312
0.00810123
8.17018e-08
5.85193e-08
6.58145e-08
1.75753e-07
0.000140003
0.210649
0.156504
0.142923
0.00888416
0.0962151
0.00188483
0.000699058
3.48767e-05
4.18154e-06
3.51311e-06
1.00219e-06
3.3192e-07
2.50894e-07
1.8141e-07
2.69335e-07
9.32074e-22
2.12928e-19
7.07895e-17
7.27337e-15
1.13295e-05
0.00464603
0.00269564
0.00279341
0.0018219
0.00108727
0.000136112
9.35226e-05
1.00113e-05
1.22061e-06
1.74733e-06
5.26699e-07
1.9849e-13
4.27867e-16
3.03397e-18
5.94291e-20
9.18815e-27
2.30979e-20
1.21371e-17
1.0921e-15
1.61323e-09
1.5585e-07
4.81483e-08
3.22092e-07
6.34934e-07
6.08027e-10
1.72327e-11
4.48332e-10
1.59136e-09
1.40555e-09
3.43094e-10
9.24586e-12
2.8112e-16
1.39056e-18
2.066e-21
3.63043e-24
0
0
0
0
0
0
0
0
0
0
0
0
0
0
0
0
0
0
0
0
0
0
0
0
0
0
0
0
0
0
0
0
0
0
0
0
0
0
0
0
0
0
0
0
0
0
0
0
0
0
0
0
0
0
0
0
0
0
0
0
0
0
0
0
0
0
0
0
0
0
0
0
0
0
0
0
0
0
0
0
0
0
0
0
0
0
0
0
0
0
0
0
0
0
0
0
0
0
0
0
0
0
0
0
0
0
0
0
0
0
0
0
0
0
0
0
0
0
0
0
0
0
0
0
0
0
0
0
0
0
0
0
0
0
0
0
0
0
0
0
0
0
0
0
0
0
0
0
0
0
0
0
0
0
0
0
0
0
0
0
0
0
0
0
0
0
0
0
0
0
0
0
0
0
0
0
0
0
0
0
0
0
0
0
0
0
0
0
0
0
0
0
0
0
0
0
0
0
0
0
0
0
0
0
0
0
0
0
0
0
0
0
0
0
0
0
0
0
0
0
0
0
0
0
0
0
0
0
0
0
0
0
0
0
0
0
0
0
0
0
0
0
0
0
0
0
0
0
0
0
0
0
0
0
0
0
0
0
0
0
0
0
0
0
0
0
0
0
0
0
0
0
0
0
0
0
0
0
0
0
0
0
0
0
0
0
0
0
0
0
0
0
0
0
0
0
0
0
0
0
0
0
0
0
0
0
0
0
0
0
0
0
0
0
0
0
0
0
0
0
0.00409185
0.00391143
0.00483395
0.00700912
0.0134179
0.100919
0.15572
0.178343
0.0656293
0.157617
0.0396491
0.034996
0.0335457
0.0347361
0.0296556
0.0192003
0.00928025
0.00803218
0.00712115
0.00816266
8.33064e-08
5.66195e-08
6.1926e-08
1.73135e-07
0.000159073
0.221831
0.167902
0.158431
0.00967402
0.10831
0.00211436
0.000783181
3.80064e-05
4.45817e-06
3.66941e-06
9.95468e-07
3.21999e-07
2.41552e-07
1.72896e-07
2.6745e-07
5.43016e-22
1.65909e-19
5.26224e-17
1.97773e-15
1.25733e-05
0.00472672
0.00282721
0.00310973
0.00214126
0.00123652
0.000163348
0.000112741
1.17242e-05
1.39296e-06
1.9661e-06
6.06548e-07
5.58601e-13
1.00727e-15
2.29392e-18
6.42879e-20
2.86011e-27
1.36201e-20
6.02465e-18
1.84674e-16
8.87531e-10
1.58103e-07
4.75751e-08
3.60313e-07
7.31925e-07
6.26608e-10
1.87608e-11
4.91588e-10
1.73051e-09
1.57558e-09
3.66745e-10
1.02604e-11
2.94237e-16
1.42116e-18
1.99075e-21
1.41574e-24
0
0
0
0
0
0
0
0
0
0
0
0
0
0
0
0
0
0
0
0
0
0
0
0
0
0
0
0
0
0
0
0
0
0
0
0
0
0
0
0
0
0
0
0
0
0
0
0
0
0
0
0
0
0
0
0
0
0
0
0
0
0
0
0
0
0
0
0
0
0
0
0
0
0
0
0
0
0
0
0
0
0
0
0
0
0
0
0
0
0
0
0
0
0
0
0
0
0
0
0
0
0
0
0
0
0
0
0
0
0
0
0
0
0
0
0
0
0
0
0
0
0
0
0
0
0
0
0
0
0
0
0
0
0
0
0
0
0
0
0
0
0
0
0
0
0
0
0
0
0
0
0
0
0
0
0
0
0
0
0
0
0
0
0
0
0
0
0
0
0
0
0
0
0
0
0
0
0
0
0
0
0
0
0
0
0
0
0
0
0
0
0
0
0
0
0
0
0
0
0
0
0
0
0
0
0
0
0
0
0
0
0
0
0
0
0
0
0
0
0
0
0
0
0
0
0
0
0
0
0
0
0
0
0
0
0
0
0
0
0
0
0
0
0
0
0
0
0
0
0
0
0
0
0
0
0
0
0
0
0
0
0
0
0
0
0
0
0
0
0
0
0
0
0
0
0
0
0
0
0
0
0
0
0
0
0
0
0
0
0
0
0
0
0
0
0
0
0
0
0
0
0
0
0
0
0
0
0
0
0
0
0
0
0
0
0
0
0
0
0
0.00415553
0.00396174
0.00488449
0.00705186
0.0135451
0.103059
0.158759
0.183174
0.0682421
0.163879
0.0409667
0.036063
0.0344369
0.0354789
0.0301057
0.0194446
0.00934718
0.00810191
0.00717751
0.00823081
8.46439e-08
5.45415e-08
5.80338e-08
1.70528e-07
0.000176062
0.232067
0.17882
0.172663
0.0103838
0.119715
0.0023341
0.000862715
4.07926e-05
4.69924e-06
3.79329e-06
9.97586e-07
3.10975e-07
2.317e-07
1.64322e-07
2.63549e-07
2.71701e-22
1.14502e-19
3.45831e-17
2.47622e-16
1.34977e-05
0.00475164
0.00293304
0.00340328
0.00247331
0.00137507
0.000192451
0.000133211
1.34794e-05
1.56628e-06
2.17846e-06
6.88879e-07
1.14341e-12
4.4331e-15
3.43827e-18
1.25958e-19
1.05263e-27
6.57399e-21
2.67727e-18
1.97745e-18
3.95037e-10
1.57936e-07
4.47702e-08
3.96453e-07
8.22492e-07
6.15717e-10
2.02509e-11
5.34178e-10
1.86643e-09
1.73656e-09
3.89598e-10
1.12745e-11
3.45388e-16
1.55977e-18
1.80162e-21
3.41327e-25
0
0
0
0
0
0
0
0
0
0
0
0
0
0
0
0
0
0
0
0
0
0
0
0
0
0
0
0
0
0
0
0
0
0
0
0
0
0
0
0
0
0
0
0
0
0
0
0
0
0
0
0
0
0
0
0
0
0
0
0
0
0
0
0
0
0
0
0
0
0
0
0
0
0
0
0
0
0
0
0
0
0
0
0
0
0
0
0
0
0
0
0
0
0
0
0
0
0
0
0
0
0
0
0
0
0
0
0
0
0
0
0
0
0
0
0
0
0
0
0
0
0
0
0
0
0
0
0
0
0
0
0
0
0
0
0
0
0
0
0
0
0
0
0
0
0
0
0
0
0
0
0
0
0
0
0
0
0
0
0
0
0
0
0
0
0
0
0
0
0
0
0
0
0
0
0
0
0
0
0
0
0
0
0
0
0
0
0
0
0
0
0
0
0
0
0
0
0
0
0
0
0
0
0
0
0
0
0
0
0
0
0
0
0
0
0
0
0
0
0
0
0
0
0
0
0
0
0
0
0
0
0
0
0
0
0
0
0
0
0
0
0
0
0
0
0
0
0
0
0
0
0
0
0
0
0
0
0
0
0
0
0
0
0
0
0
0
0
0
0
0
0
0
0
0
0
0
0
0
0
0
0
0
0
0
0
0
0
0
0
0
0
0
0
0
0
0
0
0
0
0
0
0
0
0
0
0
0
0
0
0
0
0
0
0
0
0
0
0
0
0.00422106
0.0040129
0.00493512
0.00710528
0.0136799
0.10509
0.162006
0.187448
0.070848
0.169651
0.0423104
0.0371589
0.0353496
0.0362283
0.0305555
0.019699
0.00942305
0.00817683
0.00723344
0.00830701
8.57873e-08
5.22125e-08
5.36931e-08
1.6891e-07
0.000189553
0.241243
0.18889
0.185278
0.0110004
0.130134
0.00253741
0.000935089
4.31747e-05
4.90173e-06
3.88689e-06
1.01736e-06
3.00166e-07
2.2207e-07
1.54944e-07
2.58508e-07
1.17738e-22
7.2429e-20
2.07421e-17
3.78654e-17
1.40513e-05
0.004702
0.00301175
0.00366723
0.00280882
0.00149783
0.00022265
0.0001543
1.52222e-05
1.73586e-06
2.37848e-06
7.71606e-07
1.75077e-12
1.11303e-14
8.06717e-18
2.29575e-19
9.537e-28
2.82605e-21
1.28629e-18
1.57682e-18
1.57563e-10
1.50632e-07
4.13486e-08
4.29091e-07
8.9887e-07
5.75625e-10
2.16838e-11
5.75255e-10
1.99686e-09
1.8812e-09
4.11405e-10
1.22703e-11
4.44328e-16
1.92361e-18
1.52865e-21
7.43809e-26
0
0
0
0
0
0
0
0
0
0
0
0
0
0
0
0
0
0
0
0
0
0
0
0
0
0
0
0
0
0
0
0
0
0
0
0
0
0
0
0
0
0
0
0
0
0
0
0
0
0
0
0
0
0
0
0
0
0
0
0
0
0
0
0
0
0
0
0
0
0
0
0
0
0
0
0
0
0
0
0
0
0
0
0
0
0
0
0
0
0
0
0
0
0
0
0
0
0
0
0
0
0
0
0
0
0
0
0
0
0
0
0
0
0
0
0
0
0
0
0
0
0
0
0
0
0
0
0
0
0
0
0
0
0
0
0
0
0
0
0
0
0
0
0
0
0
0
0
0
0
0
0
0
0
0
0
0
0
0
0
0
0
0
0
0
0
0
0
0
0
0
0
0
0
0
0
0
0
0
0
0
0
0
0
0
0
0
0
0
0
0
0
0
0
0
0
0
0
0
0
0
0
0
0
0
0
0
0
0
0
0
0
0
0
0
0
0
0
0
0
0
0
0
0
0
0
0
0
0
0
0
0
0
0
0
0
0
0
0
0
0
0
0
0
0
0
0
0
0
0
0
0
0
0
0
0
0
0
0
0
0
0
0
0
0
0
0
0
0
0
0
0
0
0
0
0
0
0
0
0
0
0
0
0
0
0
0
0
0
0
0
0
0
0
0
0
0
0
0
0
0
0
0
0
0
0
0
0
0
0
0
0
0
0
0
0
0
0
0
0
0.00428891
0.00406672
0.00498654
0.00717188
0.0138229
0.107023
0.165238
0.191501
0.073452
0.174986
0.0436796
0.0382834
0.0362871
0.0369893
0.0310069
0.0199647
0.00950969
0.00825912
0.00729168
0.00839251
8.6853e-08
4.9673e-08
4.88753e-08
1.69751e-07
0.000200317
0.249301
0.197909
0.196123
0.0115156
0.139345
0.0027185
0.000998232
4.51207e-05
5.06544e-06
3.9546e-06
1.02877e-06
2.90916e-07
2.13335e-07
1.45304e-07
2.52606e-07
4.3457e-23
4.30102e-20
1.23841e-17
2.31012e-17
1.43598e-05
0.00460797
0.00306611
0.00389927
0.00313727
0.00160146
0.000252956
0.000175234
1.68921e-05
1.89668e-06
2.56084e-06
8.52752e-07
2.82478e-12
2.45659e-14
1.88784e-17
2.86943e-19
1.34301e-27
1.26888e-21
9.74154e-19
4.62467e-18
8.4959e-11
1.43072e-07
3.64208e-08
4.57001e-07
9.53425e-07
5.11617e-10
2.30398e-11
6.13958e-10
2.11964e-09
2.00287e-09
4.31938e-10
1.32354e-11
5.94625e-16
2.56935e-18
1.23106e-21
1.86084e-26
0
0
0
0
0
0
0
0
0
0
0
0
0
0
0
0
0
0
0
0
0
0
0
0
0
0
0
0
0
0
0
0
0
0
0
0
0
0
0
0
0
0
0
0
0
0
0
0
0
0
0
0
0
0
0
0
0
0
0
0
0
0
0
0
0
0
0
0
0
0
0
0
0
0
0
0
0
0
0
0
0
0
0
0
0
0
0
0
0
0
0
0
0
0
0
0
0
0
0
0
0
0
0
0
0
0
0
0
0
0
0
0
0
0
0
0
0
0
0
0
0
0
0
0
0
0
0
0
0
0
0
0
0
0
0
0
0
0
0
0
0
0
0
0
0
0
0
0
0
0
0
0
0
0
0
0
0
0
0
0
0
0
0
0
0
0
0
0
0
0
0
0
0
0
0
0
0
0
0
0
0
0
0
0
0
0
0
0
0
0
0
0
0
0
0
0
0
0
0
0
0
0
0
0
0
0
0
0
0
0
0
0
0
0
0
0
0
0
0
0
0
0
0
0
0
0
0