/*--------------------------------*- C++ -*----------------------------------*\
| =========                 |                                                 |
| \\      /  F ield         | OpenFOAM: The Open Source CFD Toolbox           |
|  \\    /   O peration     | Version:  2.3.0                                 |
|   \\  /    A nd           | Web:      www.OpenFOAM.org                      |
|    \\/     M anipulation  |                                                 |
\*---------------------------------------------------------------------------*/
FoamFile
{
    version     2.0;
    format      ascii;
    class       surfaceScalarField;
    location    "0.054";
    object      phi;
}
// * * * * * * * * * * * * * * * * * * * * * * * * * * * * * * * * * * * * * //

dimensions      [0 3 -1 0 0 0 0];

internalField   nonuniform List<scalar> 
1024
(
2.4436e-12
5.6401e-14
2.54303e-12
-9.94337e-14
2.57762e-12
-3.45846e-14
2.61634e-12
-3.87276e-14
4.03659e-14
2.57598e-12
2.57496e-12
-1.85618e-14
2.55787e-12
-8.23393e-14
2.56165e-12
-3.83693e-14
2.58232e-12
-5.93916e-14
6.80119e-14
2.55467e-12
2.59534e-12
-1.13906e-13
2.53624e-12
-2.32375e-14
2.52364e-12
-2.57626e-14
2.53765e-12
-7.34014e-14
9.21538e-14
2.5135e-12
2.52426e-12
-1.38165e-13
2.46629e-12
3.47318e-14
2.46029e-12
-1.976e-14
2.46281e-12
-7.59216e-14
1.00567e-13
2.45439e-12
2.36184e-12
2.39657e-12
2.37681e-12
2.30089e-12
2.40145e-12
2.37064e-12
2.05339e-13
2.32481e-12
4.58294e-14
2.32351e-12
1.29515e-15
2.33171e-12
-8.19707e-15
2.33655e-12
-4.83374e-15
2.33876e-12
-2.21406e-15
2.33961e-12
-8.54713e-16
2.33993e-12
-3.13213e-16
2.33999e-12
-6.44639e-17
2.34002e-12
-2.55594e-17
2.34e-12
1.78181e-17
2.34001e-12
-1.29101e-17
2.33999e-12
1.82202e-17
2.34001e-12
-1.65856e-17
2.33999e-12
1.76605e-17
2.34001e-12
-1.7552e-17
2.33999e-12
1.74126e-17
2.34001e-12
-1.85592e-17
2.33999e-12
1.90807e-17
2.34001e-12
-2.06136e-17
2.33999e-12
1.9763e-17
2.34002e-12
-2.18149e-17
2.33999e-12
2.10756e-17
2.34002e-12
-2.21346e-17
2.34e-12
1.93889e-17
2.34002e-12
-2.21395e-17
2.34e-12
2.12063e-17
2.34002e-12
-2.19282e-17
2.34e-12
2.33358e-17
2.34002e-12
-2.17813e-17
2.33999e-12
2.47196e-17
2.34002e-12
-2.27084e-17
2.33999e-12
2.39002e-17
2.34002e-12
-2.25629e-17
2.33999e-12
2.21043e-17
2.34002e-12
-2.37722e-17
2.33999e-12
2.36343e-17
2.34002e-12
-2.29845e-17
2.33999e-12
2.5191e-17
2.34002e-12
-2.42516e-17
2.33999e-12
2.45265e-17
2.34001e-12
-2.28593e-17
2.33998e-12
2.97383e-17
2.33999e-12
-1.02982e-17
1.3063e-16
2.36494e-12
3.95068e-13
2.32546e-12
8.53128e-14
2.32749e-12
-7.34155e-16
2.33353e-12
-1.42356e-14
2.3373e-12
-8.60705e-15
2.33895e-12
-3.86334e-15
2.33966e-12
-1.56907e-15
2.3399e-12
-5.48165e-16
2.34e-12
-1.63978e-16
2.33999e-12
-1.40802e-17
2.34001e-12
-9.9303e-18
2.33998e-12
1.73763e-17
2.34001e-12
-9.62218e-18
2.33998e-12
1.45403e-17
2.34001e-12
-1.3219e-17
2.33998e-12
1.5225e-17
2.34001e-12
-1.58663e-17
2.33998e-12
1.55981e-17
2.34001e-12
-1.47581e-17
2.33998e-12
1.43636e-17
2.34001e-12
-1.55205e-17
2.33998e-12
1.46163e-17
2.34001e-12
-1.47299e-17
2.33997e-12
1.56784e-17
2.34001e-12
-1.90518e-17
2.33997e-12
1.69855e-17
2.34001e-12
-1.74454e-17
2.33997e-12
1.7615e-17
2.34001e-12
-1.61629e-17
2.33997e-12
1.79299e-17
2.34001e-12
-1.66545e-17
2.33997e-12
1.71493e-17
2.34002e-12
-1.83209e-17
2.33997e-12
1.89715e-17
2.34002e-12
-2.02392e-17
2.33998e-12
1.72809e-17
2.34002e-12
-1.92241e-17
2.33998e-12
1.77973e-17
2.34002e-12
-1.66845e-17
2.33998e-12
1.84958e-17
2.34002e-12
-1.77321e-17
2.33998e-12
2.12131e-17
2.34002e-12
-1.61331e-17
2.33999e-12
2.38824e-17
-8.6213e-17
2.34438e-12
5.64187e-13
2.32844e-12
1.01261e-13
2.3341e-12
-6.40257e-15
2.33778e-12
-1.7907e-14
2.33917e-12
-1.00029e-14
2.33967e-12
-4.35908e-15
2.33987e-12
-1.76805e-15
2.33998e-12
-6.58184e-16
2.33998e-12
-1.71382e-16
2.34001e-12
-4.26894e-17
2.33999e-12
1.30673e-17
2.34001e-12
-7.37706e-18
2.33999e-12
1.68932e-17
2.34001e-12
-1.22419e-17
2.33999e-12
1.41736e-17
2.34001e-12
-1.22745e-17
2.33999e-12
1.23675e-17
2.34002e-12
-1.3179e-17
2.33998e-12
1.58199e-17
2.34002e-12
-1.67827e-17
2.33998e-12
1.6529e-17
2.34002e-12
-1.81151e-17
2.33998e-12
1.919e-17
2.34002e-12
-1.76013e-17
2.33998e-12
1.37536e-17
2.34002e-12
-1.63623e-17
2.33998e-12
1.70356e-17
2.34002e-12
-1.70512e-17
2.33998e-12
1.95735e-17
2.34002e-12
-1.78868e-17
2.33998e-12
2.07027e-17
2.34002e-12
-1.98828e-17
2.33998e-12
1.82497e-17
2.34002e-12
-1.66019e-17
2.33998e-12
1.65064e-17
2.34002e-12
-2.02742e-17
2.33998e-12
1.79883e-17
2.34002e-12
-1.99123e-17
2.33998e-12
2.15284e-17
2.34002e-12
-1.91582e-17
2.33998e-12
2.14077e-17
2.34002e-12
-1.75693e-17
2.33997e-12
2.68444e-17
2.34e-12
-4.01228e-18
1.13799e-16
2.32062e-12
6.9796e-13
2.33594e-12
8.59446e-14
2.34387e-12
-1.43334e-14
2.34316e-12
-1.72018e-14
2.3415e-12
-8.34452e-15
2.34053e-12
-3.38131e-15
2.34018e-12
-1.41821e-15
2.34003e-12
-5.14345e-16
2.34002e-12
-1.57646e-16
2.33999e-12
-9.07854e-18
2.34001e-12
-1.35852e-17
2.33999e-12
1.86182e-17
2.34001e-12
-1.13494e-17
2.33999e-12
1.65308e-17
2.34002e-12
-1.63205e-17
2.33998e-12
1.92909e-17
2.34002e-12
-2.00406e-17
2.33998e-12
1.97224e-17
2.34002e-12
-1.65688e-17
2.33998e-12
1.55802e-17
2.34002e-12
-1.62864e-17
2.33998e-12
1.6043e-17
2.34002e-12
-1.47308e-17
2.33998e-12
1.79027e-17
2.34002e-12
-2.29491e-17
2.33998e-12
2.1166e-17
2.34002e-12
-2.01521e-17
2.33998e-12
1.9054e-17
2.34002e-12
-1.75726e-17
2.33998e-12
1.9416e-17
2.34002e-12
-1.61095e-17
2.33998e-12
1.91115e-17
2.34002e-12
-2.12149e-17
2.33998e-12
2.38648e-17
2.34002e-12
-2.25927e-17
2.33998e-12
1.87057e-17
2.34002e-12
-2.18354e-17
2.33998e-12
1.81937e-17
2.34002e-12
-1.7681e-17
2.33998e-12
1.97254e-17
2.34002e-12
-1.85987e-17
2.33998e-12
2.28969e-17
2.34002e-12
-1.61438e-17
2.34e-12
2.1276e-17
-9.31583e-17
2.30983e-12
7.8958e-13
2.35596e-12
3.98157e-14
2.35589e-12
-1.42626e-14
2.34801e-12
-9.32316e-15
2.34331e-12
-3.64434e-15
2.34125e-12
-1.32219e-15
2.34039e-12
-5.56315e-16
2.34011e-12
-2.30039e-16
2.34e-12
-5.12669e-17
2.34e-12
-1.31457e-17
2.33998e-12
8.7437e-18
2.34001e-12
-7.77762e-18
2.33999e-12
1.2284e-17
2.34001e-12
-9.89908e-18
2.33999e-12
9.51628e-18
2.34001e-12
-6.62892e-18
2.33999e-12
6.07264e-18
2.34001e-12
-8.11415e-18
2.33998e-12
1.28828e-17
2.34002e-12
-1.55509e-17
2.33998e-12
1.66743e-17
2.34002e-12
-1.81537e-17
2.33998e-12
2.07261e-17
2.34001e-12
-1.55706e-17
2.33998e-12
9.75069e-18
2.34001e-12
-1.08536e-17
2.33998e-12
1.33287e-17
2.34002e-12
-1.66736e-17
2.33998e-12
1.6709e-17
2.34002e-12
-1.73929e-17
2.33998e-12
2.23712e-17
2.34002e-12
-1.95894e-17
2.33998e-12
1.54659e-17
2.34002e-12
-1.10708e-17
2.33998e-12
1.47094e-17
2.34002e-12
-1.99545e-17
2.33998e-12
1.69823e-17
2.34002e-12
-2.19127e-17
2.33998e-12
2.07287e-17
2.34002e-12
-1.9274e-17
2.33998e-12
2.0123e-17
2.34002e-12
-1.85807e-17
2.33998e-12
2.49321e-17
2.34001e-12
-1.08703e-17
1.17486e-16
2.57916e-12
-7.89582e-13
2.65879e-12
-3.98099e-14
2.63027e-12
1.42564e-14
2.61162e-12
9.32844e-15
2.60433e-12
3.63791e-15
2.60168e-12
1.32784e-15
2.60058e-12
5.51041e-16
2.60011e-12
2.35663e-16
2.60001e-12
4.63602e-17
2.59998e-12
1.84144e-17
2.60001e-12
-1.38101e-17
2.59998e-12
1.29998e-17
2.60001e-12
-1.75598e-17
2.59999e-12
1.48884e-17
2.60001e-12
-1.44701e-17
2.6e-12
1.15145e-17
2.60001e-12
-1.07608e-17
2.59999e-12
1.27057e-17
2.60002e-12
-1.74716e-17
2.59999e-12
2.01247e-17
2.60002e-12
-2.11252e-17
2.59998e-12
2.24229e-17
2.60003e-12
-2.47872e-17
2.59999e-12
1.96326e-17
2.60002e-12
-1.36882e-17
2.59999e-12
1.45514e-17
2.60002e-12
-1.70691e-17
2.59998e-12
2.03157e-17
2.60002e-12
-2.05404e-17
2.59998e-12
2.09468e-17
2.60003e-12
-2.57546e-17
2.59999e-12
2.28946e-17
2.60002e-12
-1.81888e-17
2.6e-12
1.42982e-17
2.60003e-12
-1.73479e-17
2.59999e-12
2.23769e-17
2.60002e-12
-2.01502e-17
2.59998e-12
2.48327e-17
2.60002e-12
-2.32422e-17
2.59998e-12
2.16149e-17
2.60002e-12
-2.25614e-17
2.59998e-12
2.16835e-17
2.60004e-12
-2.69941e-17
2.60001e-12
1.16027e-17
-1.21281e-16
2.36183e-12
1.38165e-13
2.39657e-12
-3.47319e-14
2.37681e-12
1.97604e-14
2.30088e-12
7.59223e-14
-1.00568e-13
2.40145e-12
2.52426e-12
1.13906e-13
2.46629e-12
2.32372e-14
2.46029e-12
2.57629e-14
2.46281e-12
7.34022e-14
-9.21539e-14
2.45439e-12
2.59534e-12
1.85619e-14
2.53624e-12
8.23388e-14
2.52364e-12
3.83696e-14
2.53765e-12
5.93922e-14
-6.80123e-14
2.5135e-12
2.57496e-12
-5.64011e-14
2.55787e-12
9.94331e-14
2.56165e-12
3.45845e-14
2.58232e-12
3.87282e-14
-4.03662e-14
2.55467e-12
2.4436e-12
2.54303e-12
2.57762e-12
2.61634e-12
2.57598e-12
2.30983e-12
-6.97962e-13
2.35596e-12
-8.59423e-14
2.35589e-12
1.43308e-14
2.34801e-12
1.72035e-14
2.34331e-12
8.34166e-15
2.34125e-12
3.38363e-15
2.34039e-12
1.41611e-15
2.34011e-12
5.16684e-16
2.34e-12
1.56067e-16
2.34001e-12
1.10663e-17
2.33998e-12
1.17673e-17
2.34001e-12
-1.66406e-17
2.33998e-12
9.25065e-18
2.34001e-12
-1.46441e-17
2.33998e-12
1.44419e-17
2.34001e-12
-1.74418e-17
2.33998e-12
1.83274e-17
2.34001e-12
-1.80341e-17
2.33998e-12
1.48641e-17
2.34002e-12
-1.38435e-17
2.33998e-12
1.45578e-17
2.34002e-12
-1.44155e-17
2.33998e-12
1.32727e-17
2.34002e-12
-1.63863e-17
2.33998e-12
2.14814e-17
2.34001e-12
-1.98824e-17
2.33998e-12
1.87574e-17
2.34002e-12
-1.77349e-17
2.33998e-12
1.60154e-17
2.34002e-12
-1.80504e-17
2.33998e-12
1.47598e-17
2.34002e-12
-1.77669e-17
2.33998e-12
2.04907e-17
2.34002e-12
-2.25279e-17
2.33998e-12
2.1823e-17
2.34002e-12
-1.81502e-17
2.33998e-12
2.04473e-17
2.34002e-12
-1.71501e-17
2.33998e-12
1.69996e-17
2.34002e-12
-1.90407e-17
2.33998e-12
1.77774e-17
2.34002e-12
-2.13925e-17
2.33998e-12
1.58339e-17
2.34001e-12
-2.12504e-17
9.11558e-17
2.32062e-12
-5.64188e-13
2.33594e-12
-1.0126e-13
2.34387e-12
6.40163e-15
2.34316e-12
1.79069e-14
2.3415e-12
1.0002e-14
2.34053e-12
4.35978e-15
2.34018e-12
1.76736e-15
2.34003e-12
6.58962e-16
2.34002e-12
1.71377e-16
2.33999e-12
4.31298e-17
2.34001e-12
-1.33707e-17
2.33999e-12
7.7716e-18
2.34001e-12
-1.74091e-17
2.33999e-12
1.2609e-17
2.34001e-12
-1.45632e-17
2.33998e-12
1.26811e-17
2.34002e-12
-1.26959e-17
2.33998e-12
1.35259e-17
2.34002e-12
-1.61648e-17
2.33998e-12
1.71323e-17
2.34002e-12
-1.69003e-17
2.33998e-12
1.84641e-17
2.34002e-12
-1.94479e-17
2.33998e-12
1.79287e-17
2.34002e-12
-1.40734e-17
2.33998e-12
1.65619e-17
2.34002e-12
-1.73504e-17
2.33998e-12
1.72671e-17
2.34002e-12
-1.99962e-17
2.33998e-12
1.81278e-17
2.34002e-12
-2.10358e-17
2.33998e-12
2.02967e-17
2.34002e-12
-1.8115e-17
2.33998e-12
1.71885e-17
2.34002e-12
-1.65481e-17
2.33998e-12
2.00473e-17
2.34002e-12
-1.86035e-17
2.33998e-12
2.01156e-17
2.34002e-12
-2.13897e-17
2.33998e-12
1.91721e-17
2.34002e-12
-2.15977e-17
2.33998e-12
1.83022e-17
2.34002e-12
-2.64135e-17
2.34e-12
3.95255e-18
-1.15369e-16
2.34438e-12
-3.95068e-13
2.32844e-12
-8.53122e-14
2.3341e-12
7.33968e-16
2.33778e-12
1.42348e-14
2.33917e-12
8.607e-15
2.33967e-12
3.86357e-15
2.33987e-12
1.56861e-15
2.33998e-12
5.48486e-16
2.33998e-12
1.64412e-16
2.34001e-12
1.41361e-17
2.33999e-12
9.99167e-18
2.34001e-12
-1.74013e-17
2.33999e-12
9.55637e-18
2.34001e-12
-1.45648e-17
2.33999e-12
1.32033e-17
2.34001e-12
-1.51903e-17
2.33999e-12
1.5892e-17
2.34002e-12
-1.558e-17
2.33998e-12
1.47626e-17
2.34002e-12
-1.43972e-17
2.33998e-12
1.54914e-17
2.34002e-12
-1.45832e-17
2.33998e-12
1.47571e-17
2.34002e-12
-1.56574e-17
2.33998e-12
1.90207e-17
2.34002e-12
-1.70411e-17
2.33998e-12
1.7398e-17
2.34002e-12
-1.76776e-17
2.33998e-12
1.60581e-17
2.34002e-12
-1.7999e-17
2.33998e-12
1.65837e-17
2.34002e-12
-1.69468e-17
2.33998e-12
1.86104e-17
2.34002e-12
-1.85601e-17
2.33998e-12
2.03236e-17
2.34002e-12
-1.76295e-17
2.33998e-12
1.8846e-17
2.34002e-12
-1.78067e-17
2.33998e-12
1.69865e-17
2.34002e-12
-1.86635e-17
2.33998e-12
1.76475e-17
2.34002e-12
-2.07648e-17
2.33997e-12
1.68236e-17
2.34e-12
-2.41514e-17
8.32988e-17
2.36494e-12
-2.0534e-13
2.32546e-12
-4.58286e-14
2.32749e-12
-1.29523e-15
2.33353e-12
8.19632e-15
2.3373e-12
4.83391e-15
2.33895e-12
2.21433e-15
2.33966e-12
8.54295e-16
2.3399e-12
3.13302e-16
2.34e-12
6.4863e-17
2.33999e-12
2.54977e-17
2.34001e-12
-1.76264e-17
2.33998e-12
1.28447e-17
2.34001e-12
-1.81989e-17
2.33998e-12
1.64904e-17
2.34001e-12
-1.75661e-17
2.33998e-12
1.75017e-17
2.34001e-12
-1.73041e-17
2.33998e-12
1.85508e-17
2.34001e-12
-1.89732e-17
2.33998e-12
2.05072e-17
2.34001e-12
-1.97318e-17
2.33998e-12
2.17363e-17
2.34001e-12
-2.10139e-17
2.33997e-12
2.20575e-17
2.34001e-12
-1.93875e-17
2.33997e-12
2.20031e-17
2.34001e-12
-2.12306e-17
2.33997e-12
2.17297e-17
2.34001e-12
-2.34741e-17
2.33997e-12
2.15419e-17
2.34001e-12
-2.47156e-17
2.33997e-12
2.296e-17
2.34002e-12
-2.32459e-17
2.33997e-12
2.33474e-17
2.34002e-12
-2.186e-17
2.33998e-12
2.31121e-17
2.34002e-12
-2.43679e-17
2.33998e-12
2.28907e-17
2.34002e-12
-2.48423e-17
2.33998e-12
2.38938e-17
2.34002e-12
-2.50012e-17
2.33998e-12
2.34867e-17
2.34002e-12
-2.87233e-17
2.33999e-12
1.04078e-17
-1.33037e-16
2.37064e-12
2.32481e-12
2.32352e-12
2.33171e-12
2.33655e-12
2.33876e-12
2.33961e-12
2.33993e-12
2.33999e-12
2.34002e-12
2.34e-12
2.34001e-12
2.33999e-12
2.34001e-12
2.33999e-12
2.34001e-12
2.33999e-12
2.34001e-12
2.33999e-12
2.34001e-12
2.33999e-12
2.34002e-12
2.33999e-12
2.34002e-12
2.34e-12
2.34002e-12
2.34e-12
2.34002e-12
2.34e-12
2.34002e-12
2.33999e-12
2.34002e-12
2.33999e-12
2.34002e-12
2.33999e-12
2.34002e-12
2.33999e-12
2.34002e-12
2.33999e-12
2.34002e-12
2.33999e-12
2.34001e-12
2.33999e-12
2.34e-12
)
;

boundaryField
{
    AirInlet
    {
        type            calculated;
        value           uniform -1e-12;
    }
    WaterInlet
    {
        type            calculated;
        value           nonuniform List<scalar> 10(-2.5e-12 -2.5e-12 -2.5e-12 -2.5e-12 -2.5e-12 -2.5e-12 -2.5e-12 -2.5e-12 -2.5e-12 -2.5e-12);
    }
    ChannelWall
    {
        type            calculated;
        value           uniform 0;
    }
    Outlet
    {
        type            calculated;
        value           nonuniform List<scalar> 
11
(
2.33986e-12
2.3402e-12
2.3398e-12
2.3402e-12
2.3398e-12
2.60025e-12
2.3398e-12
2.3402e-12
2.3398e-12
2.3402e-12
2.33986e-12
)
;
    }
    FrontAndBack
    {
        type            empty;
        value           nonuniform 0();
    }
}


// ************************************************************************* //
