/*--------------------------------*- C++ -*----------------------------------*\
| =========                 |                                                 |
| \\      /  F ield         | OpenFOAM: The Open Source CFD Toolbox           |
|  \\    /   O peration     | Version:  2.3.0                                 |
|   \\  /    A nd           | Web:      www.OpenFOAM.org                      |
|    \\/     M anipulation  |                                                 |
\*---------------------------------------------------------------------------*/
FoamFile
{
    version     2.0;
    format      ascii;
    class       volVectorField;
    location    "1.72";
    object      U.particlesMean;
}
// * * * * * * * * * * * * * * * * * * * * * * * * * * * * * * * * * * * * * //

dimensions      [0 1 -1 0 0 0 0];

internalField   nonuniform List<vector> 
6000
(
(-0.00475031 -0.320038 0)
(0.00228244 -0.344687 0)
(0.0221366 -0.341326 0)
(0.0336712 -0.352784 0)
(0.036011 -0.36957 0)
(0.0336336 -0.40246 0)
(0.0229958 -0.417856 0)
(0.00556535 -0.423652 0)
(-0.00239489 -0.420261 0)
(-0.00864865 -0.421389 0)
(-0.0157063 -0.426414 0)
(-0.0147502 -0.428531 0)
(-0.0339819 -0.418488 0)
(-0.0634406 -0.396688 0)
(-0.0749774 -0.377861 0)
(-0.0686181 -0.373694 0)
(-0.0590918 -0.371156 0)
(-0.0444416 -0.376163 0)
(-0.0404832 -0.381752 0)
(-0.0354116 -0.376163 0)
(-0.0264117 -0.368268 0)
(-0.0206744 -0.36317 0)
(-0.0166747 -0.36474 0)
(-0.0107987 -0.357527 0)
(-0.0067162 -0.349909 0)
(-0.0102884 -0.345662 0)
(-0.00918243 -0.352522 0)
(-0.00404779 -0.366544 0)
(-0.00771518 -0.370793 0)
(2.18812e-05 -0.312612 0)
(0.0108065 0.00399817 0)
(0.0196672 0.0203042 0)
(0.0372034 0.0165862 0)
(0.0465952 0.0145205 0)
(0.0472232 0.0161929 0)
(0.0461296 0.0169489 0)
(0.0384541 0.0111284 0)
(0.0190348 0.0083276 0)
(0.00923331 0.0163543 0)
(-0.00664648 0.0170237 0)
(-0.0267473 0.0176448 0)
(-0.0430126 0.0173578 0)
(-0.0653281 0.001266 0)
(-0.0801972 4.76603e-05 0)
(-0.0811886 0.000933746 0)
(-0.078149 -0.00209167 0)
(-0.073691 0.00367299 0)
(-0.0656667 0.0153703 0)
(-0.0557593 0.00403154 0)
(-0.0472665 0.0145746 0)
(-0.0330523 0.0219484 0)
(-0.0222731 0.0201046 0)
(-0.00860341 0.0247398 0)
(0.000726589 0.0245486 0)
(-0.00324347 0.0282758 0)
(-0.0133116 0.0191734 0)
(-0.0178625 0.00749295 0)
(-0.018177 0.00855744 0)
(-0.0138162 0.0264693 0)
(-0.015879 -0.00425218 0)
(-0.00579765 -0.04776 0)
(0.0183449 -0.0832007 0)
(0.0308671 -0.0892376 0)
(0.0382777 -0.0737122 0)
(0.040075 -0.0597355 0)
(0.0360765 -0.0505599 0)
(0.0337163 -0.0486596 0)
(0.023974 -0.0406525 0)
(0.0156047 -0.035039 0)
(-0.00180476 -0.0324078 0)
(-0.0258156 -0.0259636 0)
(-0.0457615 -0.0254354 0)
(-0.0628479 -0.0340331 0)
(-0.0706175 -0.0407284 0)
(-0.0672647 -0.0613219 0)
(-0.0684507 -0.0688318 0)
(-0.0707037 -0.0694224 0)
(-0.0693998 -0.0695415 0)
(-0.0580576 -0.0805438 0)
(-0.0443392 -0.0869433 0)
(-0.0281184 -0.0915911 0)
(-0.0139317 -0.0832266 0)
(-0.00184613 -0.0813719 0)
(0.00765531 -0.0812034 0)
(0.00493779 -0.0647369 0)
(0.001545 -0.063446 0)
(-0.00379346 -0.0726922 0)
(-0.00508052 -0.0703402 0)
(-0.00231554 -0.0537435 0)
(0.00714495 -0.0630555 0)
(-0.000113862 -0.0606887 0)
(0.0193566 -0.0932509 0)
(0.0187312 -0.0926463 0)
(0.0301708 -0.077123 0)
(0.0339748 -0.0594365 0)
(0.0343222 -0.0501686 0)
(0.0329657 -0.0406207 0)
(0.0282496 -0.0289975 0)
(0.0219012 -0.0192802 0)
(0.00120774 -0.0163185 0)
(-0.0229298 -0.0128653 0)
(-0.0431012 -0.0149183 0)
(-0.0589264 -0.0299243 0)
(-0.0602748 -0.0446099 0)
(-0.0578945 -0.0650811 0)
(-0.0608363 -0.0704209 0)
(-0.0648372 -0.0723848 0)
(-0.065758 -0.0738116 0)
(-0.0565468 -0.0847726 0)
(-0.0395218 -0.0938634 0)
(-0.0256185 -0.0980537 0)
(-0.0174172 -0.093194 0)
(-0.0115193 -0.094571 0)
(-0.000943342 -0.0918515 0)
(0.00535867 -0.0765864 0)
(0.0144453 -0.0737824 0)
(0.0118119 -0.0769704 0)
(0.00118415 -0.0736738 0)
(0.00388833 -0.0545402 0)
(0.0121671 -0.0587937 0)
(0.00791925 -0.0904661 0)
(0.0166361 -0.119406 0)
(0.0163178 -0.119469 0)
(0.0214113 -0.0941958 0)
(0.0218954 -0.0709458 0)
(0.0209543 -0.0596035 0)
(0.0220742 -0.0486886 0)
(0.0199869 -0.032357 0)
(0.0147414 -0.0195514 0)
(-0.00485042 -0.0145445 0)
(-0.0259264 -0.0120207 0)
(-0.0439687 -0.0207861 0)
(-0.0583405 -0.0408378 0)
(-0.0528989 -0.0628853 0)
(-0.0506151 -0.080034 0)
(-0.05517 -0.0822643 0)
(-0.0576472 -0.0875882 0)
(-0.0585043 -0.0900307 0)
(-0.050044 -0.109454 0)
(-0.0326379 -0.128275 0)
(-0.0218985 -0.130115 0)
(-0.0164177 -0.119661 0)
(-0.0132971 -0.115604 0)
(-0.00613016 -0.104772 0)
(0.00724274 -0.0913385 0)
(0.0181402 -0.0926011 0)
(0.0158379 -0.0950556 0)
(0.00161422 -0.0938853 0)
(0.00665011 -0.0686899 0)
(0.011584 -0.065929 0)
(0.00805573 -0.108942 0)
(0.0212203 -0.128141 0)
(0.0128319 -0.123521 0)
(0.0178651 -0.100667 0)
(0.0136004 -0.0760405 0)
(0.0086582 -0.0631513 0)
(0.00842254 -0.051491 0)
(0.00616887 -0.037442 0)
(-0.000925635 -0.0186756 0)
(-0.0176858 -0.0134185 0)
(-0.0345585 -0.0125875 0)
(-0.0488945 -0.0186899 0)
(-0.0585564 -0.0409139 0)
(-0.0443597 -0.066017 0)
(-0.0381668 -0.0823567 0)
(-0.0385144 -0.0892635 0)
(-0.0427373 -0.0916815 0)
(-0.0439906 -0.0977322 0)
(-0.0347352 -0.125027 0)
(-0.0218131 -0.144402 0)
(-0.0151256 -0.145237 0)
(-0.0110476 -0.130773 0)
(-0.00932269 -0.117306 0)
(-0.00462506 -0.102628 0)
(0.010392 -0.0947482 0)
(0.0203156 -0.0961106 0)
(0.0127091 -0.0978599 0)
(-0.0011671 -0.0988257 0)
(0.00626801 -0.0711012 0)
(0.0100953 -0.0634312 0)
(0.00588534 -0.119756 0)
(0.0207399 -0.133491 0)
(0.0197162 -0.126183 0)
(0.0192235 -0.103419 0)
(0.0222241 -0.078147 0)
(0.0098235 -0.0619389 0)
(0.000819998 -0.048114 0)
(-0.00612474 -0.033156 0)
(-0.0167766 -0.0162456 0)
(-0.0298545 -0.0122085 0)
(-0.0458636 -0.0128527 0)
(-0.0545028 -0.0156326 0)
(-0.0565437 -0.0377942 0)
(-0.0381366 -0.0639312 0)
(-0.0326549 -0.0790858 0)
(-0.0311519 -0.0955755 0)
(-0.0297129 -0.105259 0)
(-0.0272542 -0.115473 0)
(-0.0204771 -0.138082 0)
(-0.01164 -0.153228 0)
(-0.00702783 -0.150171 0)
(-0.00489479 -0.132604 0)
(-0.00469289 -0.118674 0)
(3.05949e-06 -0.105343 0)
(0.00967693 -0.0964522 0)
(0.015429 -0.0948668 0)
(0.00642134 -0.0944917 0)
(-0.00696856 -0.0952001 0)
(-0.00305862 -0.0689439 0)
(0.00561764 -0.060029 0)
(0.00687347 -0.123696 0)
(0.0177101 -0.132718 0)
(0.0152866 -0.12228 0)
(0.0217421 -0.10369 0)
(0.0213054 -0.0746899 0)
(0.012337 -0.0520265 0)
(-0.00544975 -0.0341798 0)
(-0.0181455 -0.0221809 0)
(-0.0310946 -0.00885908 0)
(-0.0416878 -0.00613475 0)
(-0.0552557 -0.0109193 0)
(-0.0579949 -0.0171577 0)
(-0.0539758 -0.0342313 0)
(-0.0368411 -0.0609468 0)
(-0.0279797 -0.0774065 0)
(-0.0247706 -0.0947859 0)
(-0.0211902 -0.113967 0)
(-0.0133589 -0.129363 0)
(-0.00409456 -0.143578 0)
(-0.00306093 -0.152926 0)
(-0.000545616 -0.147836 0)
(0.00197525 -0.130852 0)
(0.00239092 -0.115895 0)
(0.000882504 -0.101321 0)
(0.00200598 -0.0909184 0)
(0.00371759 -0.089491 0)
(-0.00370479 -0.0874249 0)
(-0.0146666 -0.0858841 0)
(-0.0124551 -0.0656553 0)
(0.00131997 -0.0620846 0)
(0.00552087 -0.120884 0)
(0.013557 -0.128979 0)
(0.00916687 -0.112203 0)
(0.0167739 -0.0920899 0)
(0.0191139 -0.0618997 0)
(0.00252333 -0.033352 0)
(-0.0120565 -0.0150386 0)
(-0.0318331 -0.00867943 0)
(-0.0441245 -0.00313422 0)
(-0.0522643 -0.00404809 0)
(-0.0619057 -0.0112678 0)
(-0.0581282 -0.0185968 0)
(-0.0518875 -0.0370531 0)
(-0.0324126 -0.0630708 0)
(-0.0242267 -0.0798345 0)
(-0.0192315 -0.0972267 0)
(-0.0160054 -0.114332 0)
(-0.00838201 -0.13016 0)
(0.00322897 -0.144755 0)
(0.00331345 -0.154587 0)
(0.00309132 -0.146746 0)
(0.00477282 -0.125695 0)
(0.00191327 -0.108001 0)
(-0.00693462 -0.0945057 0)
(-0.00917855 -0.0851014 0)
(-0.0118472 -0.0844642 0)
(-0.01738 -0.080764 0)
(-0.0248777 -0.0773443 0)
(-0.0186006 -0.063472 0)
(-0.000431127 -0.0682789 0)
(0.00325684 -0.115828 0)
(0.010608 -0.121553 0)
(0.00520879 -0.101611 0)
(0.00964199 -0.0751813 0)
(0.0131599 -0.0474118 0)
(1.60449e-05 -0.0211918 0)
(-0.0161952 -0.00564566 0)
(-0.0407321 -0.00104555 0)
(-0.0507628 0.000671158 0)
(-0.0577639 -0.000851829 0)
(-0.0628625 -0.0120972 0)
(-0.057807 -0.022202 0)
(-0.0463767 -0.0424966 0)
(-0.0265066 -0.0657979 0)
(-0.0181399 -0.0798029 0)
(-0.015831 -0.0961788 0)
(-0.0120955 -0.112063 0)
(-0.00328941 -0.130181 0)
(0.00578727 -0.146313 0)
(0.00357239 -0.155715 0)
(-0.000112113 -0.145037 0)
(-0.00542477 -0.119256 0)
(-0.0104669 -0.100512 0)
(-0.0180762 -0.0831517 0)
(-0.0240783 -0.0746161 0)
(-0.0270701 -0.0759598 0)
(-0.0320793 -0.0736479 0)
(-0.0316189 -0.0685519 0)
(-0.0211633 -0.0617651 0)
(-0.00430069 -0.0704561 0)
(0.00186013 -0.10959 0)
(0.00859736 -0.117069 0)
(0.00196478 -0.0973614 0)
(0.00624052 -0.0711607 0)
(0.0144193 -0.0423819 0)
(-6.58109e-05 -0.014413 0)
(-0.0167001 0.00379165 0)
(-0.0364345 0.00527627 0)
(-0.0479845 0.00448106 0)
(-0.0540688 -0.000303044 0)
(-0.0584217 -0.0122841 0)
(-0.0528118 -0.0259161 0)
(-0.0391152 -0.0470921 0)
(-0.0222134 -0.0684143 0)
(-0.0132528 -0.0790997 0)
(-0.0120475 -0.0953323 0)
(-0.00786607 -0.110696 0)
(0.00178027 -0.126252 0)
(0.00353866 -0.145225 0)
(-0.00498379 -0.152487 0)
(-0.0177412 -0.137845 0)
(-0.0280162 -0.110453 0)
(-0.0284669 -0.086976 0)
(-0.033122 -0.0707235 0)
(-0.0368279 -0.0650445 0)
(-0.0402361 -0.0682295 0)
(-0.0426192 -0.067795 0)
(-0.0352126 -0.0668861 0)
(-0.0241407 -0.0631783 0)
(-0.00795942 -0.0719047 0)
(0.00458765 -0.106205 0)
(0.00849472 -0.114444 0)
(0.000201628 -0.0953214 0)
(0.00970518 -0.0755649 0)
(0.0139873 -0.0448953 0)
(0.00457363 -0.0134357 0)
(-0.0102417 0.00573804 0)
(-0.0235176 0.00767551 0)
(-0.0391963 0.00772665 0)
(-0.0408076 0.00398725 0)
(-0.0479268 -0.00877664 0)
(-0.044897 -0.0265034 0)
(-0.0289713 -0.0449195 0)
(-0.0176722 -0.0652784 0)
(-0.0108937 -0.0799606 0)
(-0.0092299 -0.0974549 0)
(-0.0034729 -0.111249 0)
(0.00281348 -0.12315 0)
(0.0013119 -0.141092 0)
(-0.0169372 -0.144935 0)
(-0.0368473 -0.129415 0)
(-0.041211 -0.105661 0)
(-0.0440438 -0.0796881 0)
(-0.046963 -0.0629556 0)
(-0.0496858 -0.0572215 0)
(-0.0507511 -0.0571375 0)
(-0.0496731 -0.0593195 0)
(-0.0366452 -0.062938 0)
(-0.0250653 -0.0648832 0)
(-0.00859132 -0.0783907 0)
(0.00567471 -0.107139 0)
(0.00803959 -0.114809 0)
(0.000561705 -0.0970445 0)
(0.0113564 -0.0768547 0)
(0.0134038 -0.0497952 0)
(0.0117183 -0.0154801 0)
(0.00052522 0.00647541 0)
(-0.0106142 0.0133141 0)
(-0.0289686 0.0128873 0)
(-0.0297481 0.00784915 0)
(-0.0315963 -0.0042619 0)
(-0.0344872 -0.0250558 0)
(-0.0216816 -0.0422284 0)
(-0.0130981 -0.0635044 0)
(-0.00900564 -0.0847181 0)
(-0.00588337 -0.100882 0)
(-0.000786863 -0.109649 0)
(0.000935832 -0.12054 0)
(-0.00306486 -0.134902 0)
(-0.0289632 -0.138507 0)
(-0.0431864 -0.126329 0)
(-0.0499717 -0.102141 0)
(-0.054131 -0.0753542 0)
(-0.0570084 -0.0562318 0)
(-0.0597635 -0.0497087 0)
(-0.0578516 -0.0474883 0)
(-0.0532008 -0.0521837 0)
(-0.0387974 -0.0591062 0)
(-0.0292744 -0.0648767 0)
(-0.00619107 -0.0874993 0)
(0.00618144 -0.107459 0)
(0.00662712 -0.115831 0)
(0.0010058 -0.100683 0)
(0.0125018 -0.0809715 0)
(0.0172565 -0.0544266 0)
(0.0206143 -0.0206673 0)
(0.0116875 0.00694173 0)
(0.00413501 0.0197612 0)
(-0.00804115 0.0190381 0)
(-0.0174592 0.0159192 0)
(-0.0170284 0.00255456 0)
(-0.0229808 -0.0170568 0)
(-0.0165939 -0.0375612 0)
(-0.0123126 -0.0599641 0)
(-0.0104701 -0.0862419 0)
(-0.00592443 -0.102079 0)
(-0.0037815 -0.108948 0)
(-0.00046069 -0.11623 0)
(-0.0107035 -0.126433 0)
(-0.0310401 -0.132725 0)
(-0.0448531 -0.122069 0)
(-0.0538132 -0.0973526 0)
(-0.0601859 -0.0702318 0)
(-0.0666371 -0.0510679 0)
(-0.0677261 -0.0445193 0)
(-0.06333 -0.0440723 0)
(-0.0540033 -0.050992 0)
(-0.0395981 -0.059301 0)
(-0.0310412 -0.0758341 0)
(-0.00680314 -0.101083 0)
(0.00863767 -0.109399 0)
(0.00732669 -0.118173 0)
(0.0021298 -0.105105 0)
(0.0145907 -0.0856835 0)
(0.0243877 -0.0580814 0)
(0.0307914 -0.0262814 0)
(0.0267402 0.00219337 0)
(0.0178936 0.0206617 0)
(0.011717 0.0252849 0)
(-0.00234785 0.0216355 0)
(-0.00629014 0.00528789 0)
(-0.00996281 -0.0144813 0)
(-0.0143359 -0.0350315 0)
(-0.0117252 -0.0562416 0)
(-0.0117948 -0.0885714 0)
(-0.00873921 -0.102268 0)
(-0.00367634 -0.108082 0)
(-0.00241122 -0.111933 0)
(-0.0132469 -0.121381 0)
(-0.0290785 -0.127318 0)
(-0.0440396 -0.115868 0)
(-0.0544271 -0.0934922 0)
(-0.0642521 -0.0678943 0)
(-0.0732231 -0.0520145 0)
(-0.0739783 -0.0482704 0)
(-0.0669424 -0.0497188 0)
(-0.0556886 -0.0593573 0)
(-0.0394295 -0.0720901 0)
(-0.0274514 -0.0970222 0)
(-0.00388129 -0.119724 0)
(0.0102307 -0.11085 0)
(0.00642474 -0.11978 0)
(0.00244617 -0.108886 0)
(0.0171313 -0.0906072 0)
(0.0306228 -0.0600064 0)
(0.0445567 -0.0341198 0)
(0.047199 -0.00405572 0)
(0.038551 0.0144699 0)
(0.0325203 0.0241673 0)
(0.019025 0.0299897 0)
(0.00807588 0.0116355 0)
(0.00367873 -0.0108124 0)
(-0.00761281 -0.0290988 0)
(-0.00906554 -0.0503006 0)
(-0.00851947 -0.0826391 0)
(-0.011105 -0.0962586 0)
(-0.00439118 -0.10374 0)
(-0.00787851 -0.106926 0)
(-0.012373 -0.116202 0)
(-0.0269077 -0.122375 0)
(-0.0417069 -0.113242 0)
(-0.0526375 -0.0961788 0)
(-0.0639903 -0.0735409 0)
(-0.074996 -0.0605075 0)
(-0.0739189 -0.0630157 0)
(-0.0639402 -0.0707175 0)
(-0.0511722 -0.0870198 0)
(-0.0353406 -0.102552 0)
(-0.0229966 -0.129473 0)
(-0.00215509 -0.147134 0)
(0.00722795 -0.114994 0)
(0.0008091 -0.123623 0)
(0.00256679 -0.114413 0)
(0.0176208 -0.0947303 0)
(0.0338297 -0.0634623 0)
(0.0518044 -0.0399648 0)
(0.0625844 -0.00800157 0)
(0.0597579 0.00978195 0)
(0.0487656 0.0193798 0)
(0.0384117 0.0256332 0)
(0.0292836 0.0148012 0)
(0.0173752 -0.00645148 0)
(0.00709058 -0.0227115 0)
(-0.00146485 -0.0420373 0)
(-0.00314605 -0.0708516 0)
(-0.0104617 -0.0859751 0)
(-0.00686622 -0.0968923 0)
(-0.00941547 -0.103059 0)
(-0.0108117 -0.110518 0)
(-0.0244549 -0.115207 0)
(-0.0400587 -0.110086 0)
(-0.0533023 -0.0935665 0)
(-0.0679709 -0.0750505 0)
(-0.0708296 -0.0663378 0)
(-0.0654722 -0.0740932 0)
(-0.0561709 -0.0824825 0)
(-0.0434609 -0.101663 0)
(-0.0290293 -0.120045 0)
(-0.0163231 -0.147933 0)
(-0.0031246 -0.164474 0)
(-0.0017727 -0.121609 0)
(-0.00114371 -0.129034 0)
(0.00547312 -0.122464 0)
(0.0200603 -0.102299 0)
(0.0349975 -0.0704441 0)
(0.0527485 -0.0459201 0)
(0.0698392 -0.00869848 0)
(0.0728217 0.0125013 0)
(0.0595135 0.0193073 0)
(0.0522209 0.0226246 0)
(0.0459642 0.0161303 0)
(0.0377147 -0.00103927 0)
(0.0222182 -0.0142066 0)
(0.0108001 -0.0313488 0)
(0.00329414 -0.0534081 0)
(-0.00734564 -0.0715555 0)
(-0.00738562 -0.0861514 0)
(-0.00999333 -0.0951176 0)
(-0.00944437 -0.101931 0)
(-0.0173577 -0.10665 0)
(-0.0389832 -0.0992885 0)
(-0.0571572 -0.0847899 0)
(-0.0725937 -0.0671591 0)
(-0.0660468 -0.0588531 0)
(-0.0566448 -0.0731828 0)
(-0.049225 -0.0834251 0)
(-0.035832 -0.10624 0)
(-0.0240923 -0.129952 0)
(-0.0113029 -0.157083 0)
(-0.00154707 -0.174272 0)
(-0.00126548 -0.12725 0)
(0.00307518 -0.133312 0)
(0.0107146 -0.129987 0)
(0.0229938 -0.111181 0)
(0.0331456 -0.082414 0)
(0.0529726 -0.0617754 0)
(0.0706356 -0.0304631 0)
(0.0813489 0.00614582 0)
(0.0757236 0.0213358 0)
(0.0641678 0.0247448 0)
(0.0587205 0.021666 0)
(0.0520374 0.00696503 0)
(0.0373281 -0.00700825 0)
(0.0225683 -0.0191988 0)
(0.00956265 -0.0350558 0)
(-0.00366388 -0.0564915 0)
(-0.00531001 -0.0721949 0)
(-0.00865991 -0.0864279 0)
(-0.0090495 -0.0914849 0)
(-0.016369 -0.0964001 0)
(-0.0362834 -0.0898924 0)
(-0.0576771 -0.0742287 0)
(-0.0710171 -0.0591337 0)
(-0.0598962 -0.0540144 0)
(-0.0496262 -0.0727377 0)
(-0.0402039 -0.084584 0)
(-0.0271289 -0.107636 0)
(-0.0188603 -0.133075 0)
(-0.00485634 -0.160426 0)
(0.00261186 -0.179399 0)
(0.00329469 -0.124813 0)
(0.00736655 -0.129164 0)
(0.0122384 -0.129618 0)
(0.0272694 -0.117468 0)
(0.0396954 -0.0898809 0)
(0.0610411 -0.0710122 0)
(0.0731426 -0.0426159 0)
(0.0882075 -0.00723064 0)
(0.0883309 0.0242569 0)
(0.0777616 0.0284863 0)
(0.0684161 0.0269766 0)
(0.0637189 0.0160759 0)
(0.0520693 -0.000825449 0)
(0.0306491 -0.00512948 0)
(0.0184439 -0.0215004 0)
(0.00286052 -0.041853 0)
(-0.000830435 -0.0590597 0)
(-0.00622813 -0.0769973 0)
(-0.0106682 -0.0808689 0)
(-0.0215698 -0.0864089 0)
(-0.0352257 -0.0817653 0)
(-0.0545621 -0.0658901 0)
(-0.064227 -0.0542825 0)
(-0.0493162 -0.0526425 0)
(-0.0401311 -0.0750599 0)
(-0.0314157 -0.0893837 0)
(-0.0195805 -0.110657 0)
(-0.0129032 -0.131837 0)
(0.000873833 -0.159889 0)
(0.0089548 -0.183688 0)
(0.00660572 -0.118622 0)
(0.0105523 -0.121445 0)
(0.0213109 -0.125307 0)
(0.0341773 -0.118781 0)
(0.0452881 -0.094269 0)
(0.0638973 -0.0741426 0)
(0.0774211 -0.04501 0)
(0.0895736 -0.0149974 0)
(0.0941453 0.0207747 0)
(0.0878471 0.0314643 0)
(0.077541 0.0307245 0)
(0.0707355 0.0259832 0)
(0.0625991 0.00945336 0)
(0.0405518 0.00501798 0)
(0.0241047 -0.00759275 0)
(0.0109065 -0.0291168 0)
(0.00404581 -0.0475393 0)
(-0.00505578 -0.0677307 0)
(-0.0168097 -0.0731323 0)
(-0.0266879 -0.0760461 0)
(-0.0381754 -0.0734546 0)
(-0.049623 -0.0601852 0)
(-0.054588 -0.053004 0)
(-0.0391891 -0.0586428 0)
(-0.033318 -0.0824476 0)
(-0.0229207 -0.0950574 0)
(-0.0130251 -0.115664 0)
(-0.00683452 -0.133234 0)
(0.00469107 -0.159691 0)
(0.0143623 -0.18205 0)
(0.00944398 -0.118617 0)
(0.0190888 -0.122194 0)
(0.0307446 -0.123286 0)
(0.0427046 -0.120855 0)
(0.050858 -0.0977426 0)
(0.066326 -0.0725923 0)
(0.0798265 -0.048366 0)
(0.0912529 -0.0186827 0)
(0.0955445 0.0184739 0)
(0.0941487 0.0345814 0)
(0.0827709 0.0379249 0)
(0.0745256 0.0355111 0)
(0.0689194 0.0222009 0)
(0.0511606 0.0136674 0)
(0.0292667 0.0021505 0)
(0.0156188 -0.0168045 0)
(0.00804344 -0.0399755 0)
(-0.00868884 -0.0637912 0)
(-0.0223044 -0.0654678 0)
(-0.033084 -0.0664551 0)
(-0.0417944 -0.0653947 0)
(-0.0456054 -0.0540733 0)
(-0.0448062 -0.0504899 0)
(-0.0316807 -0.0623284 0)
(-0.0287372 -0.0916612 0)
(-0.0161244 -0.102723 0)
(-0.0089564 -0.119609 0)
(-0.00303875 -0.133439 0)
(0.00624284 -0.155508 0)
(0.0134667 -0.176453 0)
(0.0095482 -0.121001 0)
(0.020872 -0.128548 0)
(0.0338018 -0.12769 0)
(0.0477999 -0.122329 0)
(0.0545748 -0.0985205 0)
(0.06833 -0.0703179 0)
(0.0799941 -0.0482303 0)
(0.0922239 -0.0229787 0)
(0.0970569 0.0183649 0)
(0.0979502 0.0378817 0)
(0.0873983 0.0449007 0)
(0.0762166 0.0438261 0)
(0.0705612 0.0327025 0)
(0.0600986 0.0197095 0)
(0.0314854 0.00695321 0)
(0.0172127 -0.008735 0)
(0.00814974 -0.0357781 0)
(-0.00857783 -0.0578503 0)
(-0.0246592 -0.0590678 0)
(-0.0328596 -0.0581553 0)
(-0.0412219 -0.0575476 0)
(-0.0433155 -0.0487451 0)
(-0.0386016 -0.0475187 0)
(-0.0271352 -0.0616851 0)
(-0.0234704 -0.0962192 0)
(-0.00855925 -0.110617 0)
(-0.00561482 -0.123254 0)
(-0.00216286 -0.133197 0)
(0.00471553 -0.157051 0)
(0.011775 -0.169471 0)
(0.00805803 -0.123865 0)
(0.0215562 -0.136832 0)
(0.0346845 -0.134252 0)
(0.0491917 -0.126046 0)
(0.055338 -0.100769 0)
(0.0665584 -0.0689924 0)
(0.0770424 -0.051311 0)
(0.0854391 -0.0229274 0)
(0.0936263 0.0178837 0)
(0.0972798 0.0403539 0)
(0.0898163 0.0494468 0)
(0.081612 0.0511203 0)
(0.07159 0.043603 0)
(0.0611698 0.0295641 0)
(0.0382308 0.00783714 0)
(0.0176155 -0.00489972 0)
(0.00873541 -0.0276171 0)
(-0.00817454 -0.0501881 0)
(-0.020854 -0.0551234 0)
(-0.0280699 -0.0525751 0)
(-0.0380461 -0.0507768 0)
(-0.0408734 -0.0428177 0)
(-0.0359723 -0.0461588 0)
(-0.0227498 -0.0635397 0)
(-0.0182302 -0.101538 0)
(-0.00659553 -0.115498 0)
(-0.00282057 -0.122107 0)
(0.00106019 -0.130992 0)
(0.00335024 -0.1579 0)
(0.00845466 -0.162094 0)
(0.00722226 -0.124091 0)
(0.0239406 -0.139548 0)
(0.0383639 -0.141381 0)
(0.0502019 -0.131703 0)
(0.0525165 -0.105479 0)
(0.0594288 -0.0722325 0)
(0.069108 -0.0497967 0)
(0.0748085 -0.0209814 0)
(0.0875108 0.0153006 0)
(0.0936177 0.0403571 0)
(0.0893768 0.052721 0)
(0.0816952 0.0560175 0)
(0.0693833 0.0516133 0)
(0.061178 0.0365356 0)
(0.0384809 0.0123374 0)
(0.0207264 -0.000991693 0)
(0.0116136 -0.0176915 0)
(-0.00206663 -0.0448672 0)
(-0.0139728 -0.0522665 0)
(-0.0232306 -0.0502537 0)
(-0.0329069 -0.0463045 0)
(-0.0355197 -0.037906 0)
(-0.0333179 -0.0468703 0)
(-0.019771 -0.0752642 0)
(-0.0161188 -0.108276 0)
(-0.00626335 -0.118377 0)
(-0.000682921 -0.122811 0)
(0.00463897 -0.135362 0)
(0.00355314 -0.162568 0)
(0.00770308 -0.157225 0)
(0.00876219 -0.124991 0)
(0.0300118 -0.14203 0)
(0.042751 -0.144101 0)
(0.0499511 -0.135313 0)
(0.049192 -0.111317 0)
(0.0497551 -0.07513 0)
(0.059851 -0.0471725 0)
(0.0653546 -0.0165348 0)
(0.0781757 0.0130444 0)
(0.0861512 0.0396842 0)
(0.0843327 0.0544549 0)
(0.0768687 0.0593472 0)
(0.0662992 0.0554149 0)
(0.0579585 0.0421459 0)
(0.0358758 0.0174859 0)
(0.0299612 0.00599271 0)
(0.017438 -0.0124976 0)
(0.00437455 -0.0408112 0)
(-0.00875853 -0.0505288 0)
(-0.0203147 -0.0499837 0)
(-0.0270672 -0.0478614 0)
(-0.0289444 -0.0385653 0)
(-0.0271798 -0.0512005 0)
(-0.0163202 -0.0849064 0)
(-0.0116867 -0.114495 0)
(-0.00203873 -0.127453 0)
(0.00312745 -0.130759 0)
(0.0081732 -0.148221 0)
(0.0037982 -0.166093 0)
(0.00666001 -0.15241 0)
(0.0110882 -0.126471 0)
(0.0324983 -0.145498 0)
(0.0443089 -0.144803 0)
(0.0473044 -0.136793 0)
(0.0420421 -0.113295 0)
(0.0386863 -0.0766911 0)
(0.0455059 -0.0428083 0)
(0.0546196 -0.0123156 0)
(0.0637242 0.0144702 0)
(0.0746064 0.039585 0)
(0.0743163 0.0554429 0)
(0.067892 0.0603011 0)
(0.0603251 0.057954 0)
(0.0509322 0.0436734 0)
(0.0355453 0.023037 0)
(0.0355835 0.0122664 0)
(0.0194721 -0.00971676 0)
(0.000609736 -0.0407207 0)
(-0.00798987 -0.0529516 0)
(-0.016156 -0.0558198 0)
(-0.0205756 -0.0531024 0)
(-0.0222171 -0.0434731 0)
(-0.0200472 -0.0538118 0)
(-0.00933097 -0.0833727 0)
(-0.000846691 -0.117501 0)
(0.00611668 -0.140074 0)
(0.010516 -0.147465 0)
(0.0125825 -0.163094 0)
(0.00546209 -0.178922 0)
(0.00406823 -0.154088 0)
(0.010686 -0.135527 0)
(0.0317773 -0.151678 0)
(0.0407138 -0.145011 0)
(0.0411034 -0.136558 0)
(0.0315553 -0.113267 0)
(0.0243794 -0.0773266 0)
(0.0296288 -0.0378464 0)
(0.0420305 -0.0119709 0)
(0.0499314 0.0181529 0)
(0.0603174 0.0395463 0)
(0.0584524 0.0538931 0)
(0.0561932 0.0570968 0)
(0.051434 0.0540068 0)
(0.0406237 0.0407742 0)
(0.0302891 0.0243869 0)
(0.0328076 0.0145635 0)
(0.0195676 -0.00975343 0)
(-0.000476679 -0.0413678 0)
(-0.00587218 -0.0523562 0)
(-0.0130301 -0.0531508 0)
(-0.0182138 -0.049975 0)
(-0.0198534 -0.0434081 0)
(-0.0179994 -0.0564515 0)
(-0.00758611 -0.0846693 0)
(0.00634915 -0.114378 0)
(0.0126185 -0.139489 0)
(0.0154279 -0.148654 0)
(0.0143884 -0.163417 0)
(0.00712461 -0.177839 0)
(0.0063128 -0.160547 0)
(0.00742646 -0.146985 0)
(0.0271117 -0.16162 0)
(0.0336355 -0.147729 0)
(0.033484 -0.13501 0)
(0.0211923 -0.11255 0)
(0.0113147 -0.0766851 0)
(0.0144536 -0.0327596 0)
(0.0263822 -0.00964711 0)
(0.035724 0.019043 0)
(0.0398911 0.0393636 0)
(0.0401793 0.0509774 0)
(0.0419675 0.0523674 0)
(0.0388495 0.0484074 0)
(0.032931 0.0368314 0)
(0.0230435 0.0235354 0)
(0.0268281 0.0125591 0)
(0.0147894 -0.00574385 0)
(-0.00201235 -0.0382475 0)
(-0.00537383 -0.0457892 0)
(-0.0128623 -0.046472 0)
(-0.0185238 -0.0432038 0)
(-0.019306 -0.0436746 0)
(-0.0174366 -0.0620965 0)
(-0.0105906 -0.0907372 0)
(0.00811384 -0.113744 0)
(0.0161045 -0.13531 0)
(0.0184279 -0.141611 0)
(0.0163334 -0.153142 0)
(0.00847351 -0.169474 0)
(0.00746725 -0.15551 0)
(0.00255426 -0.154921 0)
(0.0215017 -0.166355 0)
(0.0264808 -0.148852 0)
(0.026734 -0.13358 0)
(0.0137245 -0.114477 0)
(0.000788224 -0.0787509 0)
(0.00114632 -0.0348324 0)
(0.0120447 -0.0099287 0)
(0.0199536 0.0151872 0)
(0.0218487 0.0411412 0)
(0.0235282 0.0463943 0)
(0.0266384 0.0462764 0)
(0.0262421 0.0434619 0)
(0.0262492 0.0366676 0)
(0.021647 0.0210959 0)
(0.0192558 0.0104034 0)
(0.0103144 0.00215558 0)
(-0.00161773 -0.029272 0)
(-0.00638231 -0.0369667 0)
(-0.0158563 -0.036369 0)
(-0.0192909 -0.0380537 0)
(-0.0190434 -0.0444865 0)
(-0.0186314 -0.0658763 0)
(-0.00797401 -0.0920642 0)
(0.00776232 -0.112855 0)
(0.017272 -0.129531 0)
(0.020359 -0.131323 0)
(0.0183606 -0.141678 0)
(0.00900374 -0.157496 0)
(0.00652327 -0.145563 0)
(-0.00418417 -0.157959 0)
(0.0156074 -0.167229 0)
(0.0202771 -0.147576 0)
(0.0202058 -0.131568 0)
(0.00757555 -0.116248 0)
(-0.00632268 -0.0853609 0)
(-0.00798824 -0.0429604 0)
(0.00283853 -0.0162717 0)
(0.00732774 0.0126467 0)
(0.00988673 0.0395959 0)
(0.0114586 0.0490151 0)
(0.0115185 0.0413704 0)
(0.0123343 0.0386409 0)
(0.0133017 0.0294151 0)
(0.0171111 0.016854 0)
(0.00910796 0.0119035 0)
(0.00341026 0.00759332 0)
(-0.00502244 -0.0232328 0)
(-0.0114367 -0.0251048 0)
(-0.0165537 -0.025805 0)
(-0.0184168 -0.0331943 0)
(-0.0181994 -0.0451003 0)
(-0.0190547 -0.0660461 0)
(-0.00349838 -0.0894336 0)
(0.00962856 -0.110507 0)
(0.0171767 -0.124629 0)
(0.0204997 -0.122709 0)
(0.0182138 -0.132345 0)
(0.00810094 -0.148073 0)
(0.00508155 -0.137858 0)
(-0.00582511 -0.155733 0)
(0.0111292 -0.163191 0)
(0.0128413 -0.145165 0)
(0.0125397 -0.129499 0)
(-6.24216e-05 -0.116855 0)
(-0.0136944 -0.0901953 0)
(-0.0169747 -0.0483603 0)
(-0.00556313 -0.0181836 0)
(-0.000850299 0.010236 0)
(0.00256434 0.0361302 0)
(0.0066117 0.0482232 0)
(0.0059055 0.0459995 0)
(0.00219563 0.0344313 0)
(0.0108892 0.0247949 0)
(0.011812 0.0149732 0)
(0.00127192 0.0148286 0)
(-0.0023534 0.0134731 0)
(-0.0086559 -0.0162874 0)
(-0.0162804 -0.017323 0)
(-0.0195971 -0.0165342 0)
(-0.0196221 -0.0300534 0)
(-0.0177495 -0.0438564 0)
(-0.0176946 -0.064677 0)
(-0.00125285 -0.0844438 0)
(0.0106861 -0.106835 0)
(0.015237 -0.119203 0)
(0.0191837 -0.113841 0)
(0.016925 -0.121737 0)
(0.00712089 -0.137307 0)
(0.00441222 -0.128519 0)
(-0.00410093 -0.156292 0)
(0.00677909 -0.156466 0)
(0.00605857 -0.140074 0)
(0.00287684 -0.124499 0)
(-0.00821698 -0.114443 0)
(-0.021594 -0.0931808 0)
(-0.0287744 -0.0499547 0)
(-0.0170044 -0.0188368 0)
(-0.00747913 0.00831713 0)
(-0.00185627 0.0331944 0)
(0.00448146 0.0494884 0)
(0.00908338 0.0501683 0)
(0.002693 0.0370453 0)
(0.0114848 0.0218281 0)
(0.00734684 0.0160053 0)
(-0.0027864 0.0179349 0)
(-0.00746697 0.0157309 0)
(-0.0154127 -0.0148295 0)
(-0.0256106 -0.0148051 0)
(-0.0254433 -0.0161871 0)
(-0.0232067 -0.0289094 0)
(-0.0189508 -0.0425446 0)
(-0.0156934 -0.0604373 0)
(0.000150398 -0.0790383 0)
(0.0104608 -0.10214 0)
(0.0132403 -0.113581 0)
(0.017381 -0.106909 0)
(0.0149764 -0.112637 0)
(0.00538545 -0.127154 0)
(0.00428588 -0.120347 0)
(-0.00537302 -0.156451 0)
(0.00216075 -0.149508 0)
(0.000298971 -0.13486 0)
(-0.00673035 -0.117787 0)
(-0.0165245 -0.109789 0)
(-0.030908 -0.091875 0)
(-0.0408385 -0.0505372 0)
(-0.0280836 -0.0186537 0)
(-0.013258 0.00458035 0)
(-0.0057917 0.0302211 0)
(0.00290642 0.0503228 0)
(0.0101616 0.0547495 0)
(0.00564664 0.0435265 0)
(0.00818163 0.0276351 0)
(0.00359656 0.0186811 0)
(-0.00498248 0.0211438 0)
(-0.0116735 0.0164607 0)
(-0.0219153 -0.0118384 0)
(-0.0313401 -0.0147354 0)
(-0.0292336 -0.0157913 0)
(-0.0258583 -0.0277075 0)
(-0.020159 -0.0388257 0)
(-0.0127307 -0.0573095 0)
(0.00208686 -0.0734412 0)
(0.00957891 -0.0966848 0)
(0.0114265 -0.105889 0)
(0.0146746 -0.099225 0)
(0.0110035 -0.103779 0)
(0.00236223 -0.116657 0)
(0.00416555 -0.111274 0)
(-0.00804616 -0.153193 0)
(-0.0010322 -0.143898 0)
(-0.00516423 -0.128588 0)
(-0.0142314 -0.111481 0)
(-0.0247749 -0.102296 0)
(-0.0390317 -0.0865594 0)
(-0.0498907 -0.0492476 0)
(-0.03394 -0.0177418 0)
(-0.0162105 0.0026485 0)
(-0.00845811 0.0278296 0)
(-7.97993e-05 0.0488713 0)
(0.00939978 0.0536478 0)
(0.00595785 0.0461117 0)
(0.00579375 0.0310363 0)
(0.00234648 0.0245906 0)
(-0.00449365 0.0265917 0)
(-0.0145228 0.0162847 0)
(-0.0249095 -0.00807919 0)
(-0.0347797 -0.0123664 0)
(-0.0337361 -0.014595 0)
(-0.031342 -0.0257614 0)
(-0.0247963 -0.0422576 0)
(-0.0107798 -0.0569504 0)
(0.00434656 -0.0697743 0)
(0.0108336 -0.0920538 0)
(0.0137948 -0.0985654 0)
(0.013559 -0.0891464 0)
(0.00730517 -0.0937209 0)
(-0.000627824 -0.107846 0)
(0.00402137 -0.106396 0)
(-0.0104044 -0.148654 0)
(-0.00326534 -0.141879 0)
(-0.0125683 -0.123739 0)
(-0.0215326 -0.105905 0)
(-0.0344375 -0.0939006 0)
(-0.0477869 -0.0792361 0)
(-0.0545486 -0.0479836 0)
(-0.0367464 -0.0157111 0)
(-0.0186263 0.00395326 0)
(-0.0101093 0.0278833 0)
(-0.00273212 0.0476142 0)
(0.00497332 0.0491538 0)
(0.00491517 0.0452098 0)
(0.00651819 0.0314319 0)
(0.00435909 0.0299723 0)
(-0.0027848 0.0329954 0)
(-0.0143675 0.0154374 0)
(-0.0244839 -0.00245464 0)
(-0.0363001 -0.00920109 0)
(-0.0380298 -0.0133296 0)
(-0.036495 -0.0304103 0)
(-0.0275622 -0.0489618 0)
(-0.011511 -0.060333 0)
(0.00617091 -0.0688642 0)
(0.0116473 -0.0896476 0)
(0.0066519 -0.0903595 0)
(0.00673595 -0.0843199 0)
(0.00468616 -0.0881352 0)
(-0.00116687 -0.0997649 0)
(0.00444445 -0.102531 0)
(-0.0103481 -0.143398 0)
(-0.0031555 -0.143393 0)
(-0.0124734 -0.12103 0)
(-0.0250944 -0.0991905 0)
(-0.0366029 -0.0865591 0)
(-0.0479427 -0.075455 0)
(-0.0544132 -0.0452634 0)
(-0.0382036 -0.0145185 0)
(-0.0223985 0.00604196 0)
(-0.010328 0.0253051 0)
(-0.00229106 0.0447919 0)
(0.00421694 0.0435045 0)
(0.00706844 0.0449743 0)
(0.00787268 0.0348941 0)
(0.00569943 0.035539 0)
(-0.00135128 0.0372491 0)
(-0.011976 0.0173372 0)
(-0.0223716 0.0031849 0)
(-0.0364932 -0.0042142 0)
(-0.039934 -0.0104734 0)
(-0.0369774 -0.0339546 0)
(-0.0254231 -0.054225 0)
(-0.00971881 -0.0646184 0)
(0.00680907 -0.0703111 0)
(0.00521592 -0.0863255 0)
(6.02763e-05 -0.0863181 0)
(0.00183789 -0.0821865 0)
(0.00133976 -0.084987 0)
(-0.00247542 -0.0972585 0)
(0.0082167 -0.0986554 0)
(-0.0096656 -0.137003 0)
(-0.00295436 -0.138928 0)
(-0.0148335 -0.114526 0)
(-0.0273587 -0.0949535 0)
(-0.0387654 -0.082863 0)
(-0.0433926 -0.0714396 0)
(-0.0485739 -0.0401508 0)
(-0.0407066 -0.013077 0)
(-0.0246198 0.00733204 0)
(-0.00973967 0.0256892 0)
(0.000104229 0.0416903 0)
(0.00609208 0.0409823 0)
(0.0109973 0.0444277 0)
(0.0108079 0.0389297 0)
(0.00735864 0.0404243 0)
(-0.00146508 0.040297 0)
(-0.0101183 0.0201673 0)
(-0.0178466 0.0097724 0)
(-0.0344472 -0.000183072 0)
(-0.039476 -0.0085723 0)
(-0.0346564 -0.0390847 0)
(-0.0220821 -0.0582022 0)
(-0.00838853 -0.0676455 0)
(0.00384531 -0.0715181 0)
(-0.00133248 -0.0811177 0)
(-0.00442735 -0.0842525 0)
(-0.00377968 -0.0797295 0)
(-0.00189469 -0.0841062 0)
(-0.00498012 -0.0958936 0)
(0.0102119 -0.0944364 0)
(-0.00760786 -0.129363 0)
(-0.00109372 -0.133166 0)
(-0.0138268 -0.108738 0)
(-0.026241 -0.0894895 0)
(-0.0363951 -0.0778098 0)
(-0.0380673 -0.0642652 0)
(-0.0468389 -0.0342082 0)
(-0.0414529 -0.010258 0)
(-0.023541 0.00837955 0)
(-0.010877 0.0235661 0)
(0.000785812 0.039653 0)
(0.00932301 0.0432284 0)
(0.015168 0.050789 0)
(0.0153429 0.0454773 0)