/*--------------------------------*- C++ -*----------------------------------*\
| =========                 |                                                 |
| \\      /  F ield         | OpenFOAM: The Open Source CFD Toolbox           |
|  \\    /   O peration     | Version:  2.3.0                                 |
|   \\  /    A nd           | Web:      www.OpenFOAM.org                      |
|    \\/     M anipulation  |                                                 |
\*---------------------------------------------------------------------------*/
FoamFile
{
    version     2.0;
    format      ascii;
    class       volScalarField;
    location    "0.13";
    object      p_rgh;
}
// * * * * * * * * * * * * * * * * * * * * * * * * * * * * * * * * * * * * * //

dimensions      [1 -1 -2 0 0 0 0];

internalField   nonuniform List<scalar> 
545
(
-9.20095e+07
-1.69924e+07
-2.31837e+06
-3.03518e+06
-9.93439e+06
6.61204e+07
-3.494e+06
-2.73519e+06
-2.92634e+06
-8.07867e+06
1.15007e+08
4.08951e+06
-464251
-533410
-8.4693e+06
6.66993e+07
-3.70193e+06
-2.19175e+06
-202568
-7.54113e+06
-1.05868e+08
-2.74331e+06
-576633
4.81695e+06
1.35479e+07
-8.39853e+06
-2.13088e+06
-768092
21297.4
170666
175511
147136
125746
112875
103217
97711.1
92233.9
89120.8
84745.9
82049.2
77450.1
74584.7
69808.7
66984.8
62160.2
59450.1
54790.9
52395.2
47951.6
46058.3
42050.9
40686.3
37283.8
36525.4
33470.6
33041.5
30238.3
30046
27241.8
27050.3
23923
23552.2
20085.1
19469.4
15867.4
14984.3
11082
9992.68
6294.95
5949.08
-7.42425e+06
-1.3452e+06
-741886
-135434
41960.3
108950
119156
116684
109623
102947
97131.3
92733.1
88697.3
85274.6
81589.2
78002
74073.5
70364.9
66422.2
62758.4
58854.3
55408.4
51767.4
48573.3
45369.7
42712.4
39986.7
37966.7
35831.7
34198.4
32345.9
30997.8
29320.1
27998.9
26320.8
24686.9
22779.7
20869.5
18702.4
16692.6
14208.8
11849.3
8956.38
6227.39
1564.09
-8.79319e+06
-684560
-402005
12283.2
89585.8
118589
118757
114678
108788
102213
97262.5
92433
88987.6
84990.6
81928.8
77697.7
74409.8
70008
66774.9
62396.3
59208.6
55039.8
52156.7
48155.9
45765.3
42290
40380.7
37550.8
36286.6
33791.3
32797.5
30561.5
29778.2
27514.7
26818.1
24194.8
23281
20376.3
19197.7
16250.1
14689
11333.2
9185.21
5739.98
4147.22
-9.29897e+06
689691
290905
284269
188991
148301
124729
115293
108026
102171
96851.2
92716.5
88651.1
85313.1
81640.4
78042.3
74058.6
70339.5
66400.4
62776.1
58785
55463.3
51772
48552.4
45326.4
42760.5
39890.7
38054.2
35865.8
34326.1
32328.4
31062.6
29262.8
28020.4
26307.2
24674.5
22798.6
20855.7
18672.4
16776.8
14163.2
11759
8475.83
5233.9
1.82515
-1.58135e+06
3.96617e+06
1.52517e+06
538518
225090
145301
119693
112094
107447
101485
97128.6
92414.8
88968.7
84952.2
82102.4
77648.6
74494.6
69830.9
66888.4
62315.2
59202.3
55029.4
52364.4
47944.2
45891
42273.3
40342.5
37588.1
36483.4
33865.3
32901.1
30492.9
29869.4
27376.9
26991.8
23909
23578
20073.1
19349
16162.5
14777.9
11129.4
8832.5
4977.6
2957.63
-1.39422e+07
5.86492e+06
2.63271e+06
684061
230893
140644
116184
112587
106374
101927
98446
96665.8
92868.8
88724.3
84695.6
81064.6
74166.7
72567.9
68902
65662.5
62321.3
58362.8
51928.8
48842.8
48437.5
46349.3
44396.4
41682.5
39092.5
37909.3
33110.9
31362.5
29122.2
30503.7
30714.3
30013.4
24859.6
25759
22351.5
19120
14025.6
11908.1
8404.42
8694.12
3190.13
-1.05866e+08
-2.74294e+06
-578241
4.81411e+06
1.3546e+07
6.67013e+07
-3.70163e+06
-2.19338e+06
-205078
-7.54281e+06
1.1501e+08
4.08977e+06
-465700
-535316
-8.47053e+06
6.61226e+07
-3.4938e+06
-2.73624e+06
-2.92744e+06
-8.07948e+06
-9.20073e+07
-1.69922e+07
-2.31895e+06
-3.03567e+06
-9.93509e+06
-1.58179e+06
3.96691e+06
1.52502e+06
538890
224497
145645
119163
112435
106962
102134
96838.9
93024.4
88584.7
85459.8
81624
78112.5
73957.4
70312.6
66390.3
62814.4
58715
55543.2
51858.5
48514.5
45440.1
42814.7
39895
38133.6
36027.8
34398.1
32400.5
31058.1
29327.8
27884
26496.8
24388.9
23054.5
20541.7
18805.7
16611.2
14165.6
11670.5
8333.69
5658.69
2606.1
-9.29924e+06
690549
291196
284332
188383
148287
124228
115295
107776
102762
96995.8
93296.3
88580.7
85649.9
81372.8
78272.3
73731.7
70583.3
66117.7
63057.2
58530.8
55773
51532.3
48922.5
45148.7
43139.3
39724
38440.4
35687.3
34683.2
32098.9
31400.8
28974.1
28295.1
26015.6
24916.2
22469.9
21066.7
18299.1
16928.1
13734.4
12018.4
8237.71
5636.27
-215.919
-8.79318e+06
-683804
-401615
12196.2
89003
118172
118189
114334
108735
102780
97806.7
93013.4
89203.3
85184.1
81846.7
77726.3
74264.3
70049.2
66675.8
62489
59156.9
55177.9
52149.5
48361.7
45827
42535.2
40467.6
37807.1
36359.1
34005.9
32807.7
30713.8
29706.1
27589.9
26698.7
24221.6
23118.1
20360.8
18975.7
16152.9
14408.4
11330.8
9103.71
5931.45
4143.58
-7.42423e+06
-1.34467e+06
-741758
-135621
41350.3
108306
118385
116067
109604
103576
97931.3
93414.8
89076.2
85443.3
81576
77955.2
73985.6
70329.1
66384.5
62783.9
58876.4
55493.7
51855.6
48737.9
45537.5
42936.4
40192.1
38206.4
36023
34391.9
32465.4
31102.4
29337.8
28006.3
26257.3
24625.8
22660.8
20758.2
18521.1
16495.1
13957.8
11689.1
8881.59
6308.83
1611.21
-8.39873e+06
-2.13065e+06
-768253
21148.3
170071
174731
146208
124969
112815
103864
98625.7
93004.1
89591.6
84934.9
82065.5
77383.3
74510
69748.2
66959.9
62165.4
59492.5
54864.4
52515.9
48112.1
46264
42282.7
40939.3
37535.9
36767.1
33676.4
33208.3
30343.9
30100.2
27237.6
27001.9
23833.5
23435.8
19939.1
19293.3
15641.6
14724.1
10839.5
9850.39
6331.66
6051.77
)
;

boundaryField
{
    AirInlet
    {
        type            fixedFluxPressure;
        gradient        uniform 2.6324e+08;
        value           uniform -1.39396e+07;
    }
    WaterInlet
    {
        type            fixedFluxPressure;
        gradient        nonuniform List<scalar> 10(0 -0.176693 0 0 -0.0779103 0 0 0 -0.176693 -0.135289);
        value           nonuniform List<scalar> 10(-9.20095e+07 6.61204e+07 1.15007e+08 6.66993e+07 -1.05868e+08 -1.05866e+08 6.67013e+07 1.1501e+08 6.61226e+07 -9.20073e+07);
    }
    ChannelWall
    {
        type            fixedFluxPressure;
        gradient        uniform 0;
        value           nonuniform List<scalar> 
110
(
-1.05868e+08
-2.74331e+06
-576633
4.81695e+06
1.35479e+07
-1.05866e+08
-2.74294e+06
-578241
4.81411e+06
1.3546e+07
-9.20073e+07
-1.69922e+07
-2.31895e+06
-3.03567e+06
-9.93509e+06
-8.39873e+06
-2.13065e+06
-768253
21148.3
170071
174731
146208
124969
112815
103864
98625.7
93004.1
89591.6
84934.9
82065.5
77383.3
74510
69748.2
66959.9
62165.4
59492.5
54864.4
52515.9
48112.1
46264
42282.7
40939.3
37535.9
36767.1
33676.4
33208.3
30343.9
30100.2
27237.6
27001.9
23833.5
23435.8
19939.1
19293.3
15641.6
14724.1
10839.5
9850.39
6331.66
6051.77
-9.20095e+07
-1.69924e+07
-2.31837e+06
-3.03518e+06
-9.93439e+06
-8.39853e+06
-2.13088e+06
-768092
21297.4
170666
175511
147136
125746
112875
103217
97711.1
92233.9
89120.8
84745.9
82049.2
77450.1
74584.7
69808.7
66984.8
62160.2
59450.1
54790.9
52395.2
47951.6
46058.3
42050.9
40686.3
37283.8
36525.4
33470.6
33041.5
30238.3
30046
27241.8
27050.3
23923
23552.2
20085.1
19469.4
15867.4
14984.3
11082
9992.68
6294.95
5949.08
)
;
    }
    Outlet
    {
        type            totalPressure;
        rho             rho;
        psi             none;
        gamma           1;
        p0              uniform 0;
        value           uniform 0;
    }
    FrontAndBack
    {
        type            empty;
    }
}


// ************************************************************************* //
