/*--------------------------------*- C++ -*----------------------------------*\
| =========                 |                                                 |
| \\      /  F ield         | OpenFOAM: The Open Source CFD Toolbox           |
|  \\    /   O peration     | Version:  2.3.0                                 |
|   \\  /    A nd           | Web:      www.OpenFOAM.org                      |
|    \\/     M anipulation  |                                                 |
\*---------------------------------------------------------------------------*/
FoamFile
{
    version     2.0;
    format      ascii;
    class       volScalarField;
    location    "10";
    object      alpha.water;
}
// * * * * * * * * * * * * * * * * * * * * * * * * * * * * * * * * * * * * * //

dimensions      [0 0 0 0 0 0 0];

internalField   nonuniform List<scalar> 
1875
(
0.844818
0.842652
0.82855
0.809155
0.782756
0.744698
0.746941
0.762531
0.785366
0.773272
0.701203
0.746737
0.784424
0.778215
0.765217
0.751757
0.739108
0.73165
0.743336
0.775531
0.792045
0.812546
0.830962
0.840997
0.844549
0.873556
0.873556
0.854869
0.804573
0.731869
0.7247
0.733636
0.759955
0.79457
0.811143
0.800392
0.809282
0.792117
0.773463
0.759985
0.750606
0.738775
0.72695
0.72698
0.739934
0.84135
0.880436
0.894582
0.894582
0.894582
0.873556
0.847063
0.79242
0.739844
0.716008
0.724555
0.742315
0.767508
0.798249
0.811156
0.798673
0.809146
0.785046
0.76906
0.761087
0.75795
0.753577
0.74156
0.727159
0.727253
0.735819
0.787881
0.847128
0.894582
0.894582
0.863717
0.835212
0.795217
0.745565
0.717025
0.727253
0.755522
0.780483
0.80321
0.811048
0.796222
0.807445
0.789715
0.779679
0.772199
0.774015
0.774703
0.768631
0.750113
0.732624
0.728736
0.729728
0.78877
0.881198
0.894582
0.852632
0.850236
0.835451
0.799414
0.753604
0.744322
0.750677
0.772723
0.800356
0.805958
0.794418
0.801973
0.797007
0.799604
0.796399
0.796743
0.794733
0.788551
0.773832
0.745373
0.730457
0.758628
0.827098
0.870812
0.89306
0.856074
0.855716
0.853948
0.849368
0.824284
0.785427
0.75804
0.762007
0.789933
0.800004
0.79441
0.79787
0.80779
0.825718
0.833706
0.83297
0.823064
0.805318
0.788625
0.757752
0.746548
0.810163
0.851982
0.850984
0.85283
0.856381
0.848535
0.819174
0.831985
0.83496
0.818195
0.778334
0.762176
0.775518
0.794549
0.794418
0.79826
0.817619
0.84916
0.866327
0.867172
0.858535
0.834167
0.795706
0.757784
0.758878
0.824047
0.833694
0.79623
0.820914
0.856743
0.803195
0.712648
0.745871
0.817839
0.816879
0.791649
0.762346
0.766638
0.784229
0.795633
0.808907
0.843223
0.876726
0.882373
0.880275
0.870731
0.841368
0.790684
0.753679
0.768148
0.821213
0.744065
0.72572
0.807949
0.857071
0.748896
0.681704
0.67368
0.785503
0.803393
0.780563
0.753281
0.755524
0.779689
0.807574
0.843499
0.884512
0.891581
0.884625
0.868296
0.861269
0.831678
0.767218
0.747931
0.779672
0.802458
0.656685
0.664938
0.801827
0.845771
0.733686
0.677889
0.681704
0.722173
0.77303
0.739442
0.734927
0.758405
0.8006
0.856186
0.891725
0.891588
0.891725
0.866478
0.841575
0.841328
0.808902
0.744721
0.733703
0.772472
0.708632
0.647222
0.656685
0.80059
0.840244
0.739042
0.681704
0.674106
0.681704
0.737179
0.725533
0.734211
0.777103
0.846086
0.891725
0.891588
0.891725
0.878864
0.844357
0.841912
0.850306
0.812038
0.750032
0.726874
0.727996
0.651093
0.656685
0.653696
0.818136
0.843267
0.758851
0.679944
0.681704
0.673473
0.684847
0.725055
0.740277
0.80117
0.875709
0.891588
0.890868
0.869301
0.872202
0.881579
0.88157
0.873626
0.842429
0.790742
0.744501
0.70329
0.656685
0.649553
0.69729
0.826931
0.846061
0.777118
0.681704
0.675773
0.681704
0.674847
0.732979
0.745935
0.790108
0.86528
0.88922
0.866355
0.854402
0.874544
0.891401
0.891384
0.8914
0.880102
0.848473
0.799538
0.740696
0.661001
0.668442
0.763457
0.827284
0.846432
0.798034
0.682432
0.681704
0.67404
0.681704
0.710508
0.742734
0.770605
0.83173
0.877213
0.858914
0.854413
0.86911
0.891571
0.891401
0.874719
0.821849
0.839459
0.797392
0.737296
0.685945
0.71841
0.803425
0.8278
0.846703
0.825199
0.70338
0.67743
0.681704
0.674073
0.681717
0.727929
0.749996
0.790919
0.856977
0.859225
0.856582
0.863734
0.870793
0.87393
0.80537
0.745467
0.763537
0.777683
0.739982
0.725545
0.773596
0.794788
0.828833
0.846768
0.841702
0.728983
0.681704
0.676886
0.681704
0.678704
0.709005
0.750925
0.790009
0.842407
0.858687
0.855628
0.860228
0.846041
0.827978
0.772419
0.745311
0.745467
0.751187
0.746032
0.750495
0.764845
0.752837
0.829135
0.846822
0.842385
0.744062
0.684509
0.681704
0.680677
0.685894
0.727491
0.768485
0.798714
0.83385
0.856969
0.855175
0.845678
0.815734
0.811863
0.798172
0.767058
0.75651
0.755603
0.746651
0.73968
0.709659
0.707204
0.817723
0.846885
0.832193
0.774337
0.716021
0.718833
0.735961
0.751806
0.775946
0.802122
0.817337
0.835139
0.851709
0.850719
0.841689
0.81869
0.812027
0.828365
0.836239
0.809875
0.775756
0.754052
0.731536
0.707158
0.707229
0.812029
0.840531
0.82033
0.80537
0.738415
0.765898
0.818159
0.832257
0.82983
0.838212
0.843156
0.847613
0.852378
0.851908
0.84683
0.834359
0.817834
0.819522
0.8355
0.847983
0.833112
0.79227
0.748869
0.709677
0.718326
0.821972
0.833669
0.815408
0.811547
0.766529
0.773909
0.860278
0.868595
0.86656
0.857342
0.83872
0.830171
0.83482
0.838128
0.836463
0.830681
0.81932
0.815409
0.828031
0.847621
0.853979
0.837265
0.776893
0.720488
0.749548
0.8279
0.831263
0.823481
0.814203
0.790474
0.776205
0.853807
0.868763
0.858452
0.81998
0.783841
0.762455
0.761309
0.772582
0.792184
0.806214
0.804591
0.800815
0.807841
0.833683
0.853837
0.837309
0.772006
0.729712
0.776222
0.8279
0.827196
0.826635
0.81303
0.800041
0.777917
0.841472
0.868595
0.806706
0.767203
0.75934
0.739146
0.729311
0.729511
0.739665
0.760614
0.771641
0.778021
0.79067
0.821338
0.849172
0.823533
0.754642
0.719929
0.760321
0.822119
0.808915
0.814209
0.809653
0.7958
0.782827
0.817577
0.857262
0.808759
0.788699
0.744842
0.739237
0.758188
0.764664
0.764492
0.767529
0.774926
0.781674
0.795588
0.817514
0.833635
0.795168
0.732968
0.675899
0.69424
0.802343
0.787701
0.786932
0.805882
0.788453
0.786952
0.792587
0.828232
0.809224
0.779335
0.745404
0.756413
0.813689
0.814613
0.809357
0.808165
0.811027
0.813215
0.819942
0.825034
0.821054
0.771652
0.706492
0.632246
0.65313
0.791743
0.781177
0.77104
0.800072
0.785742
0.782098
0.77243
0.786606
0.793456
0.774536
0.757263
0.756336
0.771521
0.793302
0.832154
0.86355
0.863901
0.862148
0.856977
0.846968
0.826732
0.772626
0.685049
0.631071
0.660806
0.801854
0.782506
0.771016
0.788828
0.781289
0.772592
0.772171
0.782171
0.787286
0.778334
0.77324
0.766937
0.769653
0.774091
0.790111
0.823938
0.857667
0.867672
0.866823
0.865828
0.836594
0.763542
0.651761
0.635424
0.706151
0.806828
0.795802
0.771905
0.783081
0.782544
0.772452
0.772688
0.785804
0.790906
0.794171
0.79919
0.796086
0.790422
0.780461
0.780092
0.782923
0.815592
0.860347
0.867672
0.862283
0.819867
0.72154
0.649935
0.659354
0.770639
0.805884
0.809627
0.772595
0.788522
0.792758
0.786329
0.781976
0.784078
0.792889
0.81011
0.825824
0.826182
0.822437
0.808717
0.790655
0.782648
0.787148
0.833195
0.866823
0.851582
0.761945
0.667115
0.65077
0.706517
0.791814
0.798633
0.819609
0.772211
0.79156
0.807452
0.813133
0.81255
0.80888
0.809128
0.809521
0.800678
0.786138
0.782095
0.800254
0.799497
0.795244
0.787252
0.812537
0.865794
0.827405
0.711058
0.665894
0.670465
0.752379
0.78417
0.800859
0.827601
0.779588
0.79571
0.82202
0.837358
0.83965
0.835028
0.825735
0.7956
0.761658
0.752259
0.761658
0.753445
0.781197
0.790015
0.787271
0.8043
0.859715
0.791488
0.684499
0.669508
0.717077
0.771445
0.767588
0.812515
0.833985
0.802066
0.815006
0.845026
0.855793
0.852005
0.837784
0.7964
0.761929
0.752361
0.761658
0.75241
0.761929
0.757415
0.776947
0.786407
0.806677
0.84899
0.74946
0.670116
0.687976
0.758336
0.771448
0.766951
0.824985
0.835927
0.825461
0.842592
0.862924
0.860733
0.834385
0.789537
0.762299
0.754362
0.761929
0.753576
0.761929
0.756233
0.762299
0.768159
0.790715
0.813067
0.823025
0.713112
0.67009
0.708609
0.766794
0.771105
0.768421
0.829056
0.835927
0.834577
0.859288
0.862995
0.842926
0.791607
0.762299
0.759291
0.762299
0.757197
0.761929
0.757605
0.762299
0.760565
0.770342
0.798939
0.810225
0.780048
0.685875
0.674518
0.726283
0.763473
0.757178
0.773644
0.829173
0.82704
0.818977
0.856678
0.862975
0.826678
0.778683
0.763023
0.762299
0.759938
0.762299
0.759054
0.762299
0.760682
0.762299
0.774146
0.797673
0.794375
0.733484
0.684185
0.684437
0.741453
0.753942
0.719697
0.770018
0.82928
0.812838
0.778616
0.829722
0.862995
0.820109
0.787154
0.775718
0.766629
0.762299
0.760823
0.762299
0.760887
0.762299
0.763199
0.777483
0.787454
0.755852
0.699964
0.686525
0.704096
0.740173
0.735129
0.71882
0.774753
0.831166
0.808811
0.764377
0.787302
0.858915
0.817308
0.802916
0.799015
0.786219
0.768623
0.762299
0.761612
0.762299
0.762683
0.767582
0.772563
0.762226
0.724504
0.700264
0.696871
0.717176
0.727882
0.705151
0.721023
0.802964
0.832275
0.811826
0.764702
0.766297
0.835615
0.817296
0.815919
0.817881
0.808713
0.791054
0.778548
0.771165
0.768413
0.768965
0.771956
0.771284
0.746057
0.717708
0.702918
0.701426
0.711552
0.704956
0.690942
0.738738
0.816604
0.832275
0.821477
0.764747
0.765632
0.810935
0.813532
0.811877
0.818793
0.818658
0.815677
0.807912
0.796559
0.787837
0.783568
0.781605
0.775085
0.75058
0.721807
0.704517
0.696903
0.694363
0.678682
0.689803
0.757529
0.805697
0.828908
0.827725
0.769238
0.766282
0.79147
0.810915
0.802445
0.803301
0.818727
0.819656
0.819198
0.813166
0.810685
0.807716
0.799256
0.786177
0.76443
0.734525
0.710221
0.694175
0.67955
0.67899
0.688047
0.766349
0.78569
0.809097
0.828693
0.775937
0.774627
0.785364
0.812893
0.804295
0.798328
0.798576
0.797322
0.813509
0.831176
0.834381
0.833983
0.818132
0.801129
0.783775
0.755796
0.723314
0.697438
0.68017
0.67857
0.691861
0.760437
0.779364
0.795773
0.829695
0.781397
0.781297
0.788722
0.8128
0.812849
0.80321
0.794949
0.792609
0.796466
0.812418
0.825831
0.838288
0.843889
0.835417
0.806017
0.7751
0.740318
0.704159
0.680511
0.67899
0.700848
0.7611
0.784074
0.79129
0.832106
0.794028
0.788288
0.790636
0.807981
0.810898
0.808654
0.801462
0.792684
0.784116
0.773497
0.789562
0.819372
0.844177
0.856431
0.839844
0.792169
0.74173
0.70202
0.680551
0.68186
0.71286
0.76412
0.793959
0.791079
0.833955
0.810224
0.805863
0.802384
0.799239
0.798053
0.794405
0.782916
0.765595
0.746169
0.743847
0.746799
0.783247
0.830113
0.858124
0.866224
0.805485
0.731769
0.68986
0.682411
0.69627
0.733623
0.770667
0.808407
0.800656
0.834682
0.820619
0.819324
0.813216
0.799919
0.7837
0.752359
0.743508
0.74613
0.742935
0.74613
0.745166
0.757078
0.810849
0.85685
0.865523
0.790582
0.710783
0.689865
0.691329
0.728456
0.767986
0.793631
0.826762
0.82243
0.834761
0.824825
0.821974
0.80765
0.774756
0.751148
0.745078
0.74613
0.744469
0.74613
0.745344
0.74613
0.75717
0.804023
0.848872
0.845082
0.745536
0.694127
0.693779
0.719342
0.771075
0.803811
0.819053
0.843896
0.848103
0.834879
0.819758
0.820105
0.798811
0.759395
0.746483
0.74613
0.745814
0.74613
0.745766
0.746763
0.751513
0.769453
0.812981
0.83265
0.784315
0.708328
0.694722
0.70942
0.757899
0.801554
0.816609
0.823664
0.847077
0.862146
0.834891
0.808275
0.819458
0.797122
0.760801
0.749981
0.747878
0.747082
0.748326
0.751913
0.759106
0.773841
0.794242
0.807992
0.797338
0.735306
0.703173
0.699796
0.732175
0.783209
0.801651
0.805377
0.809838
0.826796
0.863379
0.834678
0.792729
0.819401
0.801841
0.766267
0.756391
0.753418
0.752549
0.75883
0.769484
0.783423
0.796491
0.803251
0.799706
0.766362
0.723469
0.708286
0.709248
0.74623
0.780022
0.789246
0.771405
0.766156
0.787997
0.861781
0.834153
0.792395
0.819117
0.812842
0.780411
0.765075
0.762816
0.763531
0.775538
0.788682
0.799082
0.80378
0.803783
0.791644
0.757383
0.730494
0.720342
0.721489
0.752252
0.770464
0.754274
0.720283
0.722701
0.754237
0.848819
0.839654
0.794861
0.812661
0.813037
0.805865
0.780484
0.772429
0.771854
0.782287
0.791973
0.799553
0.802924
0.801427
0.785241
0.763854
0.749256
0.743041
0.743229
0.754916
0.75649
0.720621
0.717392
0.717966
0.745254
0.837848
0.8495
0.816028
0.795643
0.802814
0.807271
0.806862
0.794584
0.782269
0.779354
0.786535
0.794674
0.79546
0.791007
0.778706
0.770485
0.769665
0.768843
0.767938
0.763732
0.749445
0.718918
0.717966
0.719088
0.745449
0.834076
0.855728
0.827973
0.787431
0.786004
0.801857
0.807271
0.806858
0.794638
0.778601
0.77956
0.783408
0.779299
0.768007
0.761281
0.76366
0.768637
0.771649
0.771716
0.771651
0.751817
0.722431
0.718212
0.722507
0.747822
0.83415
0.855088
0.820042
0.778044
0.771836
0.786545
0.806189
0.802722
0.789945
0.774881
0.772226
0.770195
0.758659
0.73959
0.731979
0.735253
0.748522
0.767174
0.771651
0.77172
0.755831
0.726833
0.720716
0.728477
0.759869
0.839948
0.839889
0.7838
0.746659
0.771897
0.789222
0.790173
0.777044
0.770795
0.766016
0.763334
0.756236
0.740948
0.728703
0.725844
0.725918
0.72673
0.744083
0.770403
0.771654
0.756529
0.726388
0.724068
0.737439
0.781241
0.843564
0.818567
0.748204
0.743884
0.771917
0.787183
0.761024
0.748414
0.755667
0.760441
0.761142
0.751234
0.738739
0.72933
0.727207
0.725983
0.72598
0.732038
0.759577
0.770795
0.750926
0.722977
0.727279
0.746935
0.802689
0.843782
0.806552
0.743971
0.744372
0.767213
0.774564
0.748322
0.745995
0.756777
0.762137
0.762094
0.749909
0.737159
0.73063
0.728941
0.72659
0.726052
0.726745
0.750415
0.758991
0.736061
0.717617
0.725591
0.7517
0.813969
0.841184
0.805418
0.749292
0.744308
0.760566
0.765379
0.746139
0.746168
0.757882
0.762274
0.759792
0.744928
0.734021
0.729783
0.72466
0.728723
0.728859
0.728728
0.74166
0.739324
0.717415
0.717055
0.722544
0.752938
0.814867
0.831923
0.809462
0.75509
0.744899
0.756421
0.761329
0.746314
0.745876
0.756672
0.762433
0.757638
0.743511
0.732702
0.719516
0.715402
0.719259
0.731163
0.73106
0.725982
0.718708
0.717038
0.717976
0.727402
0.758524
0.796386
0.821661
0.815694
0.758196
0.746102
0.753649
0.759185
0.748475
0.745825
0.7533
0.762537
0.759259
0.747357
0.719443
0.715402
0.710173
0.715402
0.727743
0.724932
0.714898
0.715402
0.717101
0.72282
0.734969
0.754127
0.76833
0.818231
0.822098
0.760728
0.747515
0.753436
0.760069
0.754126
0.751595
0.758742
0.765288
0.756841
0.722877
0.715402
0.709299
0.715402
0.709097
0.715627
0.714929
0.715402
0.718669
0.725419
0.733292
0.742338
0.742818
0.754883
0.819694
0.827028
0.764415
0.749983
0.752983
0.762481
0.76444
0.769915
0.781131
0.771523
0.728011
0.715402
0.708226
0.715402
0.708193
0.715402
0.716179
0.734172
0.739235
0.741153
0.745067
0.750158
0.752278
0.749285
0.75875
0.813185
0.83091
0.768889
0.755661
0.752719
0.763598
0.773716
0.783374
0.787827
0.762329
0.722499
0.712304
0.715402
0.710059
0.715402
0.709205
0.715402
0.755465
0.775775
0.781559
0.784628
0.779917
0.774023
0.762743
0.765204
0.809904
0.837347
0.77163
0.767054
0.753725
0.759571
0.771524
0.782191
0.787798
0.771968
0.72696
0.715402
0.71265
0.715402
0.710738
0.715402
0.709514
0.723018
0.775841
0.806768
0.80794
0.807079
0.803314
0.782308
0.773562
0.814958
0.843652
0.775284
0.771438
0.75375
0.754412
0.763303
0.773779
0.785814
0.785443
0.753142
0.7248
0.715402
0.714126
0.715402
0.713828
0.715402
0.719166
0.742956
0.758879
0.796296
0.80794
0.807079
0.797854
0.782697
0.82375
0.849465
0.784708
0.767491
0.753759
0.754027
0.758756
0.768138
0.781029
0.787533
0.779617
0.755702
0.730116
0.715707
0.71522
0.71707
0.73715
0.771313
0.765506
0.734465
0.734713
0.794874
0.807794
0.793172
0.787488
0.828413
0.837194
0.780813
0.757505
0.754027
0.754067
0.76117
0.769405
0.779781
0.787791
0.787808
0.776747
0.750584
0.722274
0.71953
0.728002
0.760395
0.796
0.791485
0.741219
0.736107
0.794148
0.807079
0.793352
0.797645
0.828413
0.827955
0.783077
0.760441
0.760935
0.767521
0.779571
0.785598
0.790636
0.791066
0.791062
0.791066
0.774522
0.744842
0.737333
0.74677
0.789962
0.796523
0.795049
0.750227
0.746349
0.799557
0.807925
0.807079
0.794258
0.826346
0.651786
0.643938
0.647803
0.678283
0.694277
0.707135
0.712577
0.715296
0.716707
0.716173
0.713028
0.70718
0.691271
0.685785
0.687414
0.697164
0.699883
0.658888
0.656477
0.642297
0.689261
0.734499
0.718199
0.678283
0.610756
0.134282
0.121369
0.114805
0.117403
0.12243
0.124459
0.128663
0.134055
0.137133
0.139227
0.14089
0.15854
0.1744
0.171459
0.161596
0.147885
0.149361
0.136823
0.134966
0.116326
0.115053
0.0886536
0.0832939
0.0839496
0.0937615
0.00283532
0.00297398
0.00291739
0.00261217
0.00237008
0.00208016
0.00189853
0.00186438
0.00192801
0.00198985
0.00212085
0.00250167
0.00293897
0.00309813
0.00318112
0.00322885
0.00345504
0.00315305
0.00263847
0.00199438
0.00158865
0.0010191
0.00114404
0.0013935
0.00205695
2.33377e-05
2.79707e-05
2.05989e-05
1.31551e-05
8.31635e-06
4.97914e-06
3.53471e-06
2.95175e-06
3.19602e-06
3.16458e-06
3.75607e-06
3.61127e-06
2.73944e-06
4.08129e-07
6.91054e-07
8.8572e-07
3.46133e-07
2.67816e-07
1.58196e-07
4.40517e-07
1.07026e-06
3.06268e-06
1.13976e-05
2.43963e-05
1.0889e-05
8.38336e-07
4.12952e-07
8.511e-08
1.63054e-08
4.42916e-09
1.13987e-09
3.59378e-10
1.66789e-10
2.23205e-10
2.24784e-10
3.87605e-10
3.06854e-10
1.30338e-10
3.13383e-12
1.20792e-13
2.74225e-14
4.41869e-14
1.22791e-13
2.06024e-12
1.21463e-11
1.77756e-10
6.61034e-09
1.4477e-07
4.33426e-07
1.29822e-07
7.69186e-08
1.21159e-08
8.46671e-10
4.09786e-11
5.06328e-12
4.26992e-12
4.78095e-12
2.84328e-13
8.89289e-14
2.29816e-14
2.9976e-15
-8.88178e-16
-6.66134e-16
1.44329e-15
6.66134e-16
3.66374e-15
1.74305e-14
1.66089e-13
1.47649e-12
1.09406e-11
4.9073e-12
1.27088e-11
3.84466e-09
2.6724e-08
3.87933e-08
5.77353e-08
1.09316e-08
8.49022e-10
3.35152e-11
3.5969e-12
8.63198e-13
2.30593e-13
6.09512e-14
1.42109e-14
3.88578e-15
4.44089e-16
-6.66134e-16
-4.44089e-16
0
0
1.11022e-16
5.55112e-16
1.66533e-15
2.08722e-14
1.20792e-13
1.07714e-12
7.02827e-12
1.26243e-10
6.29328e-09
2.15101e-08
3.92589e-08
1.10019e-08
9.34431e-10
3.25253e-11
2.38365e-12
3.44058e-13
8.83738e-14
2.85327e-14
6.99441e-15
1.33227e-15
6.66134e-16
-6.66134e-16
0
0
0
0
0
-6.66134e-16
8.88178e-16
8.21565e-15
1.75193e-13
4.57301e-12
1.85632e-11
1.1732e-09
9.60656e-09
)
;

boundaryField
{
    inlet
    {
        type            calculated;
        value           uniform 0.5;
    }
    outlet
    {
        type            calculated;
        value           nonuniform List<scalar> 
25
(
3.92589e-08
1.10019e-08
9.34431e-10
3.25253e-11
0
0
0
0
0
0
0
0
0
0
0
0
0
0
0
0
0
4.57301e-12
1.85632e-11
1.1732e-09
9.60656e-09
)
;
    }
    walls
    {
        type            calculated;
        value           nonuniform List<scalar> 
150
(
0.844818
0.873556
0.873556
0.863717
0.852632
0.856074
0.856381
0.856743
0.857071
0.845771
0.840244
0.843267
0.846061
0.846432
0.846703
0.846768
0.846822
0.846885
0.840531
0.833669
0.831263
0.827196
0.808915
0.787701
0.781177
0.782506
0.795802
0.809627
0.819609
0.827601
0.833985
0.835927
0.835927
0.82704
0.812838
0.808811
0.811826
0.821477
0.827725
0.828693
0.829695
0.832106
0.833955
0.834682
0.834761
0.834879
0.834891
0.834678
0.834153
0.839654
0.8495
0.855728
0.855088
0.839889
0.818567
0.806552
0.805418
0.809462
0.815694
0.822098
0.827028
0.83091
0.837347
0.843652
0.849465
0.837194
0.827955
0.651786
0.134282
0.00283532
2.33377e-05
8.38336e-07
7.69186e-08
5.77353e-08
3.92589e-08
0.844549
0.894582
0.894582
0.894582
0.89306
0.85283
0.820914
0.807949
0.801827
0.80059
0.818136
0.826931
0.827284
0.8278
0.828833
0.829135
0.817723
0.812029
0.821972
0.8279
0.8279
0.822119
0.802343
0.791743
0.801854
0.806828
0.805884
0.798633
0.800859
0.812515
0.824985
0.829056
0.829173
0.82928
0.831166
0.832275
0.832275
0.828908
0.809097
0.795773
0.79129
0.791079
0.800656
0.82243
0.848103
0.862146
0.863379
0.861781
0.848819
0.837848
0.834076
0.83415
0.839948
0.843564
0.843782
0.841184
0.831923
0.821661
0.818231
0.819694
0.813185
0.809904
0.814958
0.82375
0.828413
0.828413
0.826346
0.610756
0.0937615
0.00205695
1.0889e-05
1.29822e-07
3.87933e-08
2.15101e-08
9.60656e-09
)
;
    }
    defaultFaces
    {
        type            empty;
    }
}


// ************************************************************************* //
