/*--------------------------------*- C++ -*----------------------------------*\
| =========                 |                                                 |
| \\      /  F ield         | OpenFOAM: The Open Source CFD Toolbox           |
|  \\    /   O peration     | Version:  2.3.0                                 |
|   \\  /    A nd           | Web:      www.OpenFOAM.org                      |
|    \\/     M anipulation  |                                                 |
\*---------------------------------------------------------------------------*/
FoamFile
{
    version     2.0;
    format      ascii;
    class       volScalarField;
    location    "10";
    object      epsilonm;
}
// * * * * * * * * * * * * * * * * * * * * * * * * * * * * * * * * * * * * * //

dimensions      [0 2 -3 0 0 0 0];

internalField   nonuniform List<scalar> 
1875
(
0.262761
0.274366
0.28022
0.295243
0.298587
0.31063
0.311694
0.295172
0.254659
0.157084
0.160373
0.173605
0.203772
0.249569
0.286584
0.295236
0.301891
0.300048
0.291452
0.282832
0.280552
0.263471
0.264803
0.264776
0.291941
0.331987
0.346714
0.331372
0.28277
0.255845
0.266693
0.276502
0.289517
0.29666
0.362851
0.388138
0.369581
0.334229
0.310442
0.284362
0.27732
0.268889
0.268026
0.270257
0.293639
0.317673
0.308303
0.291111
0.315631
0.391178
0.323008
0.176063
0.176631
0.217305
0.262655
0.29043
0.307596
0.311473
0.300103
0.322082
0.363409
0.347363
0.347015
0.339775
0.326784
0.324294
0.320123
0.314136
0.291677
0.258994
0.210967
0.214953
0.182091
0.148069
0.439346
0.400347
0.225887
0.243249
0.238246
0.273541
0.30439
0.318391
0.318118
0.301688
0.307217
0.338116
0.321252
0.347013
0.341915
0.341812
0.332523
0.320142
0.311881
0.312298
0.302503
0.271901
0.207566
0.193531
0.181546
0.512357
0.434464
0.330136
0.394324
0.407973
0.374772
0.34066
0.348229
0.337135
0.321135
0.326344
0.344264
0.351248
0.363247
0.384464
0.383434
0.37064
0.35156
0.344561
0.320428
0.310346
0.30267
0.288758
0.334924
0.308298
0.74241
0.459863
0.626637
0.610865
0.524668
0.541512
0.510843
0.437055
0.404811
0.36191
0.360185
0.361234
0.342406
0.352315
0.333552
0.316923
0.312721
0.328572
0.331153
0.339058
0.347811
0.374149
0.460041
0.447495
0.452065
0.604151
0.44018
0.562577
0.641946
0.58041
0.567336
0.589973
0.557591
0.472964
0.396082
0.356982
0.358258
0.341341
0.32996
0.291618
0.273719
0.277721
0.291521
0.313532
0.336297
0.379947
0.46374
0.449144
0.467971
0.561178
0.655014
0.42569
0.346541
0.480312
0.530418
0.455553
0.520983
0.55235
0.492265
0.428379
0.326904
0.303781
0.29943
0.267609
0.237762
0.240302
0.254843
0.277499
0.290162
0.337427
0.417044
0.469465
0.430633
0.587573
0.633393
0.590883
0.425874
0.285217
0.373957
0.39226
0.340639
0.371496
0.461739
0.454413
0.395753
0.300186
0.244203
0.232176
0.212399
0.215603
0.232866
0.244914
0.227769
0.253145
0.355824
0.434648
0.473328
0.495271
0.64618
0.662988
0.586298
0.396577
0.273113
0.344899
0.355971
0.291079
0.284003
0.371951
0.379926
0.335506
0.27668
0.240714
0.249959
0.239664
0.239601
0.248182
0.201793
0.202041
0.256282
0.351703
0.438411
0.461521
0.55543
0.673882
0.612513
0.523297
0.407852
0.258886
0.334253
0.352773
0.297607
0.282708
0.320016
0.338243
0.331122
0.28663
0.254303
0.25333
0.250708
0.248743
0.249242
0.201655
0.185193
0.233057
0.314281
0.374776
0.408408
0.505887
0.471647
0.404791
0.51714
0.442634
0.245049
0.337277
0.361883
0.333414
0.320323
0.320763
0.329639
0.312226
0.259136
0.240136
0.235107
0.256945
0.243019
0.268795
0.340379
0.246501
0.233862
0.258572
0.266125
0.251669
0.277451
0.267559
0.335633
0.539637
0.411617
0.226329
0.337586
0.369139
0.374815
0.370349
0.345074
0.305178
0.279861
0.216079
0.182676
0.196867
0.174827
0.171792
0.223244
0.273493
0.414244
0.452799
0.358343
0.309266
0.273856
0.259239
0.242921
0.389774
0.548823
0.440814
0.202152
0.317314
0.377724
0.413161
0.399563
0.389995
0.316507
0.275882
0.207009
0.138309
0.161184
0.168779
0.153593
0.148967
0.168843
0.223903
0.344475
0.359109
0.336788
0.319721
0.310194
0.309614
0.638523
0.629607
0.37583
0.168413
0.258701
0.345603
0.400795
0.415166
0.408475
0.348891
0.283855
0.222601
0.147363
0.13996
0.146243
0.148662
0.14295
0.140975
0.184737
0.215716
0.321074
0.320824
0.341832
0.393863
0.540349
0.736519
0.545417
0.391972
0.154729
0.189552
0.252974
0.270082
0.302696
0.315745
0.295886
0.254591
0.217663
0.164337
0.144541
0.146224
0.136819
0.137339
0.133444
0.160163
0.196807
0.240391
0.28907
0.340431
0.454784
0.59856
0.66158
0.539844
0.430239
0.222412
0.177499
0.214114
0.222081
0.216444
0.21522
0.23016
0.230756
0.213028
0.182083
0.154793
0.154663
0.160904
0.179482
0.150591
0.182065
0.218646
0.231073
0.265239
0.294463
0.398215
0.482805
0.520934
0.530805
0.401176
0.319574
0.27912
0.260767
0.294651
0.316972
0.344313
0.316773
0.308012
0.287971
0.250449
0.206213
0.206013
0.190904
0.190134
0.204718
0.18665
0.21971
0.303266
0.284809
0.271157
0.286384
0.334055
0.454594
0.509452
0.429198
0.346692
0.366791
0.33311
0.28288
0.301899
0.32165
0.37877
0.368341
0.363432
0.364129
0.339647
0.283358
0.265322
0.269831
0.266534
0.25926
0.233688
0.238964
0.267534
0.307356
0.298218
0.332767
0.49262
0.490718
0.405927
0.346034
0.336867
0.404279
0.311211
0.237267
0.246176
0.264477
0.298986
0.346082
0.372681
0.383609
0.377369
0.351789
0.334889
0.334696
0.332505
0.314654
0.26627
0.262301
0.295738
0.310475
0.377262
0.653333
0.474393
0.417668
0.359321
0.332198
0.345225
0.328833
0.258366
0.214615
0.25986
0.325542
0.349283
0.352588
0.340587
0.350253
0.343556
0.334401
0.339616
0.336127
0.323221
0.292987
0.253142
0.276744
0.347448
0.54757
0.76801
0.434472
0.435729
0.374852
0.367797
0.355076
0.351085
0.238352
0.197512
0.295588
0.296777
0.298161
0.287912
0.283319
0.283942
0.285554
0.284587
0.288246
0.29078
0.287365
0.257678
0.239727
0.298531
0.45022
0.676323
0.777433
0.424997
0.403839
0.342947
0.37604
0.364802
0.424002
0.331313
0.251165
0.213279
0.23261
0.33271
0.328533
0.288202
0.283342
0.295045
0.295115
0.273911
0.257527
0.247298
0.249065
0.271489
0.355606
0.479021
0.678845
0.684068
0.435082
0.384205
0.301984
0.335137
0.340855
0.337976
0.376777
0.325786
0.294108
0.293353
0.254516
0.207566
0.232617
0.277347
0.271669
0.268452
0.292844
0.304564
0.291045
0.283232
0.300203
0.348579
0.451102
0.618361
0.599324
0.41985
0.354771
0.271453
0.296865
0.285997
0.29199
0.300311
0.308602
0.315809
0.308366
0.283159
0.27872
0.262319
0.229923
0.217922
0.21165
0.235682
0.252747
0.304857
0.345081
0.352221
0.364517
0.454738
0.594155
0.544058
0.409028
0.346656
0.273975
0.296226
0.280841
0.28439
0.293784
0.296587
0.324722
0.342202
0.351297
0.343715
0.306158
0.294986
0.290674
0.264528
0.22138
0.220982
0.235756
0.277612
0.36422
0.390847
0.488478
0.602555
0.538975
0.379682
0.358042
0.283697
0.297505
0.293441
0.279097
0.279712
0.296108
0.315803
0.332385
0.335607
0.340225
0.34593
0.3493
0.330785
0.311256
0.282502
0.22832
0.229486
0.261387
0.377303
0.452626
0.583183
0.608447
0.515611
0.370775
0.380909
0.307888
0.304886
0.326631
0.321691
0.315224
0.30851
0.314336
0.317459
0.313819
0.318518
0.321841
0.32461
0.335525
0.327791
0.311328
0.263126
0.220105
0.265274
0.401656
0.52062
0.614696
0.575357
0.462743
0.353615
0.391035
0.370114
0.340188
0.353524
0.376829
0.380187
0.380787
0.376102
0.378769
0.383081
0.378112
0.357982
0.351465
0.351704
0.344968
0.329924
0.296626
0.233745
0.31107
0.439406
0.53046
0.590815
0.476705
0.448235
0.35305
0.448473
0.389669
0.362343
0.343931
0.332777
0.338211
0.357274
0.379053
0.397355
0.413573
0.425163
0.424469
0.410493
0.380079
0.366765
0.350536
0.318462
0.260192
0.379179
0.494403
0.543629
0.506042
0.437163
0.462478
0.350298
0.407393
0.352938
0.310201
0.255699
0.255168
0.270851
0.298262
0.329331
0.364445
0.380573
0.392208
0.397589
0.393043
0.380174
0.364637
0.342795
0.317803
0.289045
0.426923
0.519196
0.547088
0.468076
0.439692
0.487963
0.34649
0.426905
0.310389
0.244158
0.215876
0.231751
0.260277
0.281956
0.291047
0.291348
0.294284
0.306882
0.324609
0.346356
0.353064
0.348242
0.329739
0.305854
0.326514
0.46638
0.537562
0.531528
0.454863
0.454786
0.497591
0.343576
0.397417
0.306746
0.22739
0.2047
0.22921
0.258506
0.26565
0.264331
0.263397
0.268087
0.277717
0.29491
0.313419
0.326814
0.329559
0.31401
0.302568
0.364492
0.481044
0.536132
0.488335
0.439389
0.476671
0.472614
0.346913
0.385543
0.291829
0.242725
0.204038
0.235417
0.252634
0.253583
0.254374
0.257431
0.260692
0.269202
0.282779
0.29938
0.309722
0.307867
0.291534
0.307888
0.376759
0.472454
0.516799
0.457382
0.42533
0.481134
0.463679
0.335223
0.378074
0.288811
0.266881
0.210705
0.240071
0.250904
0.246237
0.247487
0.256721
0.261009
0.264127
0.269478
0.274491
0.27564
0.271053
0.27434
0.306732
0.381808
0.446184
0.468943
0.440096
0.432744
0.479967
0.432031
0.332945
0.355212
0.250684
0.288357
0.226844
0.24255
0.244844
0.238379
0.239381
0.249146
0.259284
0.262546
0.262655
0.2599
0.256534
0.255076
0.272002
0.31787
0.379253
0.426314
0.44601
0.425678
0.443527
0.465922
0.378518
0.317535
0.32339
0.223984
0.266869
0.239611
0.235369
0.233753
0.230778
0.231933
0.238367
0.250868
0.261556
0.264002
0.261458
0.259099
0.263028
0.285032
0.328419
0.36659
0.404108
0.420917
0.420781
0.443885
0.448887
0.309068
0.318346
0.369296
0.215385
0.254566
0.256517
0.24399
0.23829
0.231171
0.242274
0.251113
0.254796
0.263237
0.280509
0.285519
0.283865
0.286726
0.300721
0.325211
0.344319
0.374805
0.390065
0.407078
0.424397
0.415683
0.262343
0.29812
0.364907
0.228311
0.258725
0.265382
0.250265
0.252365
0.236023
0.22246
0.237152
0.254903
0.262488
0.275097
0.3119
0.341736
0.346701
0.335306
0.329624
0.334059
0.341838
0.374572
0.393103
0.404239
0.354989
0.242772
0.296694
0.414701
0.266527
0.278919
0.288699
0.261298
0.264814
0.263675
0.250355
0.238954
0.231163
0.230696
0.252781
0.27893
0.31533
0.369953
0.387929
0.365758
0.340428
0.34121
0.372774
0.39406
0.39879
0.310512
0.241082
0.303027
0.516333
0.323294
0.320859
0.340082
0.318097
0.301545
0.294641
0.285551
0.280326
0.271011
0.261493
0.253907
0.244661
0.243213
0.283186
0.358695
0.393837
0.371679
0.350917
0.37496
0.394812
0.4032
0.322532
0.253418
0.287968
0.433968
0.348414
0.350243
0.362017
0.36491
0.366093
0.361015
0.339878
0.331203
0.331012
0.329775
0.309536
0.2748
0.243146
0.22877
0.266361
0.367378
0.389359
0.36589
0.384984
0.399407
0.423449
0.332621
0.253796
0.277005
0.481325
0.31393
0.315366
0.313205
0.320336
0.336532
0.355506
0.385803
0.387371
0.382303
0.367464
0.35213
0.322505
0.267184
0.228615
0.226313
0.32587
0.386734
0.376016
0.394194
0.408605
0.446993
0.338905
0.257721
0.269553
0.514104
0.245521
0.241136
0.250247
0.268564
0.284691
0.307505
0.319324
0.328895
0.332101
0.329362
0.328287
0.320386
0.291612
0.244955
0.233412
0.335768
0.388594
0.390108
0.413759
0.450393
0.489764
0.363185
0.285692
0.267365
0.541333
0.213775
0.218934
0.235402
0.252937
0.260989
0.267776
0.277226
0.286442
0.299414
0.313088
0.325935
0.328151
0.306696
0.262552
0.273094
0.362439
0.396527
0.414928
0.469752
0.523792
0.444711
0.395333
0.357899
0.265337
0.578059
0.214739
0.215639
0.238185
0.254724
0.259259
0.264441
0.272153
0.280231
0.287983
0.300885
0.308816
0.305829
0.274414
0.265996
0.311893
0.376086
0.417624
0.473122
0.517194
0.478985
0.402282
0.40089
0.363574
0.266362
0.621795
0.222679
0.216175
0.245513
0.262468
0.264857
0.266936
0.272119
0.27837
0.280271
0.279091
0.272502
0.262422
0.258621
0.278316
0.336651
0.396868
0.442598
0.478648
0.483608
0.400597
0.390855
0.348463
0.305142
0.270115
0.629255
0.245917
0.218761
0.247364
0.265253
0.269081
0.270882
0.271863
0.270989
0.270477
0.264075
0.257985
0.256306
0.26811
0.308898
0.359529
0.394792
0.427254
0.443152
0.389786
0.340034
0.325972
0.295839
0.237653
0.258752
0.663864
0.271096
0.226941
0.251966
0.281611
0.277156
0.273697
0.274878
0.272191
0.267017
0.26314
0.261956
0.270085
0.291958
0.322884
0.352949
0.371751
0.381762
0.363165
0.322139
0.291287
0.272019
0.26202
0.2197
0.269204
0.627733
0.322865
0.265018
0.257075
0.297347
0.3133
0.298873
0.284899
0.278675
0.27652
0.280373
0.287328
0.297843
0.315144
0.332525
0.342199
0.342915
0.334452
0.309593
0.276122
0.269323
0.247832
0.23884
0.221365
0.285751
0.652205
0.382736
0.34964
0.301948
0.292061
0.319936
0.334863
0.321025
0.299694
0.28593
0.28317
0.292321
0.312081
0.32979
0.339552
0.344577
0.340532
0.32854
0.298731
0.278762
0.252671
0.233764
0.237551
0.233236
0.287657
0.569994
0.383968
0.42609
0.372576
0.337123
0.328838
0.3401
0.347683
0.338776
0.318761
0.299779
0.296423
0.302434
0.317726
0.329713
0.330502
0.328679
0.318827
0.304552
0.300024
0.288228
0.26204
0.259943
0.246958
0.284441
0.559028
0.311722
0.367464
0.375599
0.357041
0.33363
0.332019
0.34099
0.338962
0.329371
0.319678
0.317099
0.312514
0.31093
0.306573
0.296578
0.291744
0.286383
0.284809
0.289234
0.296307
0.287244
0.270687
0.256536
0.315653
0.514055
0.24771
0.300867
0.303186
0.292643
0.280995
0.286706
0.308993
0.322044
0.32466
0.32358
0.322543
0.322128
0.313647
0.303899
0.295362
0.277478
0.266559
0.272411
0.28568
0.298535
0.30119
0.282693
0.270019
0.304488
0.434594
0.199445
0.251546
0.253736
0.240355
0.261578
0.285675
0.303393
0.318495
0.324835
0.332642
0.333101
0.328486
0.317887
0.31131
0.306528
0.291877
0.267055
0.264284
0.277123
0.310348
0.32031
0.30568
0.279553
0.331427
0.438842
0.193532
0.230468
0.232862
0.228936
0.272115
0.285285
0.293346
0.303436
0.313902
0.32367
0.322724
0.320449
0.322225
0.317647
0.308295
0.305213
0.284888
0.274078
0.306605
0.330563
0.324591
0.309477
0.25646
0.276518
0.377325
0.211394
0.231098
0.231377
0.235799
0.274556
0.285092
0.286575
0.284314
0.286605
0.298541
0.309191
0.312922
0.312877
0.314217
0.308467
0.309502
0.299278
0.299126
0.315262
0.314403
0.290771
0.257446
0.215643
0.275125
0.494359
0.238308
0.251414
0.249495
0.257791
0.271804
0.276434
0.27758
0.280218
0.285692
0.295051
0.310026
0.31877
0.326238
0.333327
0.334924
0.337765
0.320973
0.32011
0.311533
0.296444
0.284434
0.263823
0.243496
0.246115
0.475038
0.256282
0.268815
0.26725
0.264732
0.281339
0.286248
0.279349
0.282644
0.300558
0.317783
0.342906
0.355912
0.359343
0.348127
0.340225
0.331584
0.322282
0.304758
0.293498
0.286956
0.281366
0.290405
0.256873
0.237119
0.599928
0.262464
0.278502
0.281429
0.28831
0.290142
0.294316
0.292523
0.300884
0.323187
0.348669
0.332533
0.311263
0.301272
0.298573
0.297156
0.301434
0.302186
0.294535
0.285293
0.282835
0.283143
0.282457
0.227757
0.219999
0.601248
0.27287
0.276327
0.281964
0.282616
0.286638
0.294692
0.280296
0.257161
0.252839
0.275772
0.30815
0.338454
0.348439
0.35673
0.362938
0.366013
0.373793
0.368878
0.369094
0.312683
0.302599
0.275459
0.245582
0.241373
0.67136
0.295667
0.299361
0.2901
0.279812
0.283775
0.275089
0.255366
0.261363
0.30694
0.332869
0.354568
0.372479
0.401929
0.421305
0.436699
0.394811
0.364206
0.351655
0.335478
0.36378
0.349663
0.331413
0.303136
0.272159
0.658696
0.309421
0.348142
0.309885
0.285722
0.275817
0.269463
0.271552
0.285928
0.310748
0.307145
0.3279
0.338256
0.342171
0.346996
0.347643
0.379535
0.347931
0.313912
0.288387
0.282684
0.285316
0.301164
0.293833
0.275023
0.688956
0.324594
0.347487
0.335653
0.325728
0.30394
0.28298
0.280333
0.292131
0.322236
0.31371
0.312359
0.286685
0.272976
0.269896
0.276805
0.315423
0.342809
0.356432
0.32571
0.29559
0.295983
0.299931
0.287559
0.280972
0.537128
0.300857
0.310701
0.372147
0.32535
0.312198
0.299236
0.280054
0.280979
0.294056
0.319433
0.298007
0.305202
0.290029
0.275813
0.269181
0.252566
0.269904
0.298781
0.343037
0.286422
0.292285
0.277701
0.31661
0.380277
0.586377
0.304656
0.310729
0.289672
0.312852
0.308588
0.300452
0.291098
0.280876
0.277004
0.287692
0.3039
0.302647
0.298955
0.30123
0.32441
0.269124
0.254071
0.188248
0.218305
0.25707
0.201461
0.254781
0.277547
0.862613
0.703895
0.271616
0.304637
0.326864
0.326697
0.318024
0.32421
0.316776
0.315064
0.311207
0.297515
0.29492
0.313654
0.322426
0.331553
0.23703
0.208522
0.231952
0.339122
0.436273
0.325133
0.307583
0.307602
0.399483
1.30218
0.891296
0.978269
1.10894
1.21415
1.29593
1.32802
1.2664
1.17843
1.11394
1.08091
1.09653
0.967074
0.868469
0.891343
0.941279
0.993774
0.927887
0.924506
0.973964
1.12171
1.05549
1.94093
1.95736
1.5977
1.66179
0.347876
0.0953883
0.093176
0.089613
0.0876845
0.0855958
0.0785729
0.0737447
0.0735125
0.0750463
0.0781936
0.0766694
0.0834393
0.0968373
0.104732
0.107012
0.0930745
0.0892582
0.0870241
0.0910699
0.0676428
0.0803268
0.073981
0.0698734
0.393548
0.362283
0.0152885
0.0138808
0.012943
0.0121629
0.0117924
0.0112758
0.0112128
0.0121118
0.0137444
0.0146239
0.0150463
0.0171183
0.0193336
0.0204643
0.0194522
0.0157073
0.0152441
0.0163323
0.0191023
0.0172094
0.0127022
0.00904364
0.00922175
0.200518
0.0604105
0.000470507
0.00030636
0.000171106
0.000103928
6.84784e-05
5.06999e-05
4.64789e-05
5.06568e-05
5.34125e-05
6.38731e-05
6.76722e-05
5.99442e-05
1.35962e-05
8.54525e-05
0.000107398
4.7367e-05
3.96945e-05
2.76063e-05
1.41341e-05
5.15464e-06
4.51019e-05
0.000216487
0.000492089
0.0701156
0.0535891
0.00927706
6.07748e-06
1.65221e-05
1.8843e-05
1.3516e-05
1.19426e-05
1.17687e-05
1.28529e-05
1.30757e-05
1.38477e-05
1.38967e-05
1.38302e-05
1.35378e-05
1.36955e-05
1.34581e-05
1.3229e-05
1.26974e-05
1.15664e-05
7.15716e-06
1.34586e-06
6.85085e-07
1.81271e-08
1.30518e-06
0.022119
0.064644
0.0111472
9.54636e-06
8.47751e-06
1.01299e-05
1.07082e-05
1.4461e-05
1.70207e-05
1.93891e-05
2.02296e-05
2.05556e-05
2.07588e-05
2.1231e-05
2.18809e-05
2.18341e-05
2.11561e-05
2.00715e-05
1.92891e-05
1.86079e-05
1.52627e-05
1.24009e-05
4.07919e-06
3.59463e-06
0.00155913
0.00903877
0.0668252
0.011523
8.08617e-06
7.98148e-06
1.50798e-05
2.41371e-05
3.1204e-05
3.43213e-05
3.64632e-05
3.69405e-05
3.68994e-05
3.65173e-05
3.59514e-05
3.59e-05
3.51832e-05
3.43988e-05
3.3719e-05
3.30625e-05
3.35457e-05
3.24982e-05
2.73888e-05
1.38821e-05
5.1915e-06
0.000665025
0.00385181
0.081282
0.0140165
1.34963e-05
1.48774e-05
5.13718e-05
7.32594e-05
7.81454e-05
7.83537e-05
7.66855e-05
7.46659e-05
7.31342e-05
7.15942e-05
6.99567e-05
6.93197e-05
6.80887e-05
6.6777e-05
6.57941e-05
6.60726e-05
6.83683e-05
6.91588e-05
6.33436e-05
3.67184e-05
1.25406e-05
3.05609e-07
0.00259639
)
;

boundaryField
{
    inlet
    {
        type            fixedValue;
        value           nonuniform List<scalar> 
25
(
0.00015
0.00015
0.00015
0.00015
0.00015
0.00015
0.00015
0.00015
0.00015
0.00015
0.00015
0.00015
0.00015
0.00015
0.00015
0.00015
0.00015
0.00015
0.00015
0.00015
0.00015
0.00015
0.00015
0.00015
0.00015
)
;
    }
    outlet
    {
        type            inletOutlet;
        inletValue      uniform 0.00015;
        value           nonuniform List<scalar> 
25
(
0.081282
1e-15
1.34963e-05
1.48774e-05
0.00015
0.00015
0.00015
0.00015
0.00015
0.00015
0.00015
0.00015
0.00015
0.00015
0.00015
0.00015
0.00015
0.00015
0.00015
0.00015
0.00015
3.67184e-05
1.25406e-05
3.05609e-07
0.00259639
)
;
    }
    walls
    {
        type            fixedValue;
        value           nonuniform List<scalar> 
150
(
0.013696
0.0149104
4.22451e-21
4.22451e-21
4.22451e-21
1.09755e-20
1.43196e-17
2.49635e-16
3.65458e-20
4.22451e-21
4.22451e-21
4.22451e-21
4.22451e-21
4.22451e-21
4.22451e-21
4.22451e-21
4.22451e-21
4.22451e-21
4.22451e-21
4.22451e-21
4.22451e-21
4.22451e-21
4.22451e-21
4.22451e-21
4.22451e-21
4.22451e-21
4.22451e-21
4.22451e-21
4.22451e-21
4.22451e-21
4.22451e-21
4.22451e-21
4.22451e-21
4.22451e-21
4.22451e-21
4.22451e-21
4.22451e-21
4.22451e-21
4.22451e-21
4.22451e-21
4.22451e-21
4.22451e-21
4.22451e-21
4.22451e-21
4.22451e-21
4.22451e-21
4.22451e-21
4.22451e-21
4.22451e-21
4.22451e-21
4.22451e-21
4.22451e-21
4.22451e-21
4.22451e-21
4.22451e-21
4.22451e-21
4.22451e-21
4.22451e-21
4.22451e-21
4.22451e-21
4.22451e-21
4.22451e-21
4.22451e-21
4.22451e-21
4.22451e-21
4.22451e-21
4.22451e-21
4.22451e-21
4.22451e-21
4.22451e-21
4.22451e-21
4.22451e-21
4.22451e-21
4.22451e-21
4.22451e-21
4.22451e-21
0.00172067
4.22451e-21
4.22451e-21
4.22451e-21
4.22451e-21
4.22451e-21
4.22451e-21
4.22451e-21
4.22451e-21
4.22451e-21
4.22451e-21
4.22451e-21
4.22451e-21
1.06429e-20
4.22451e-21
7.17755e-20
1.45267e-17
7.17086e-17
4.58131e-19
2.2355e-19
4.91202e-21
7.8967e-21
4.95846e-20
6.71915e-21
7.92844e-20
9.72674e-21
2.8637e-16
1.41888e-19
4.70087e-20
4.81135e-20
5.60515e-21
4.22451e-21
4.22451e-21
4.22451e-21
4.22451e-21
4.22451e-21
4.22451e-21
1.14531e-19
3.88363e-17
3.14298e-18
9.04161e-21
4.22451e-21
6.58204e-21
1.13482e-19
1.29302e-16
1.84409e-16
9.61453e-16
3.42364e-17
3.69187e-20
4.22451e-21
4.22451e-21
4.22451e-21
4.22451e-21
4.22451e-21
4.22451e-21
4.22451e-21
4.22451e-21
4.22451e-21
4.22451e-21
4.22451e-21
4.22451e-21
4.22451e-21
4.22451e-21
4.22451e-21
4.22451e-21
4.22451e-21
4.22451e-21
8.189e-18
4.22451e-21
4.22451e-21
4.22451e-21
4.22451e-21
4.22451e-21
4.22451e-21
)
;
    }
    defaultFaces
    {
        type            empty;
    }
}


// ************************************************************************* //
