/*--------------------------------*- C++ -*----------------------------------*\
| =========                 |                                                 |
| \\      /  F ield         | OpenFOAM: The Open Source CFD Toolbox           |
|  \\    /   O peration     | Version:  2.3.0                                 |
|   \\  /    A nd           | Web:      www.OpenFOAM.org                      |
|    \\/     M anipulation  |                                                 |
\*---------------------------------------------------------------------------*/
FoamFile
{
    version     2.0;
    format      ascii;
    class       volScalarField;
    location    "4.49936";
    object      rho;
}
// * * * * * * * * * * * * * * * * * * * * * * * * * * * * * * * * * * * * * //

dimensions      [1 -3 0 0 0 0 0];

internalField   nonuniform List<scalar> 
18816
(
559.517
529.013
539.181
539.399
544.105
545.033
547.081
547.561
547.457
549.833
553.305
556.777
560.85
569.011
578.576
590.483
603.655
618.249
633.433
648.312
660.746
668.642
659.427
660.392
647.433
616.38
575.317
558.443
572.177
556.644
566.543
566.426
570.563
570.933
570.664
570.54
574.334
578.942
582.389
587.041
608.697
627.514
649.646
673.953
699.737
724.703
745.098
757.981
762.472
755.19
736.173
730.909
711.078
671.992
611.552
577.287
573.15
594.573
595.056
597.271
600.773
601.193
600.13
600.659
608.244
614.424
623.923
626.89
643.679
671.786
697.145
720.268
738.26
750.359
757.278
760.672
761.762
759.416
755.936
765.534
750.216
710.445
639.092
588.443
574.556
585.817
601.344
601.01
603.259
603.069
602.596
607.878
615.232
624.866
643.409
665.845
679.139
703.54
726.077
743.839
756.338
764.545
769.763
773.931
777.104
774.242
763.773
773.173
763.942
733.968
658.482
593.839
577.324
531.108
589.059
603.401
605.655
605.559
605.894
609.369
618.061
631.019
659.38
692.902
712.277
741.426
780.153
826.891
881.523
936.035
970.312
982.591
968.039
937.072
875.957
809.469
778.65
749.466
673.965
597.69
579.999
531.16
561.089
590.197
595.989
597.809
601.008
612.268
622.982
640.006
672.234
715.49
749.203
803.344
884.487
961.495
1000.82
1014.09
1020.73
1023.61
1024.12
1011.77
971.981
879.352
781.82
755.843
683.41
599.889
581.472
531.213
546.159
566.48
577.045
582.128
588.391
607.954
619.318
638.995
682.328
734.087
784.369
856.942
930.877
957.577
966.807
962.21
997.594
1021.09
1026.79
1025.32
1009.02
936.024
808.404
761.665
690.229
601.488
582.677
531.266
542.793
550.423
565.225
572.135
580.835
597.927
610.871
635.387
691.317
747.802
807.878
879.591
919.073
930.744
929.873
906.251
945.953
1004.02
1026.85
1027
1022.89
982.874
860.81
768.598
694.58
602.919
582.748
531.45
540.353
548.192
562.501
570.738
580.148
591.938
606.551
636.391
695.581
754.063
818.337
876.546
887.171
904.947
894.339
896.058
907.715
980.136
1026.55
1027.1
1026.29
1007.34
898.509
763.012
696.924
603.336
582.766
532.156
538.496
548.452
562.517
570.956
580.705
592.418
607.063
642.11
703.28
760.789
815.793
866.898
869.689
884.947
898.99
892.332
895.611
958.863
1026.17
1027.11
1027
1020.25
939.182
740.44
696.483
603.498
582.786
532.365
537.714
548.508
562.492
571.249
580.421
593.449
609.168
662.631
704.088
759.701
804.448
851.37
854.012
866.533
893.987
886.309
883.816
943.951
1025.79
1027.11
1027.1
1025.13
982.798
805.106
696.841
604.041
582.801
532.254
537.85
548.249
562.576
571.588
580.426
593.686
613.979
672.683
704.93
759.187
796.294
840.5
844.991
855.465
882.674
873.273
873.889
943.055
1025.57
1027.11
1027.11
1026.49
1003.7
865.736
698.41
604.895
582.729
533.457
539.054
547.945
562.562
571.858
580.183
593.916
619.921
681.787
710.172
760.783
788.062
828.862
835.879
843.848
858.184
863.009
883.87
984.105
1026.54
1027.11
1027.11
1026.91
1012.95
887.771
698.003
605.511
582.594
535.439
540.734
547.936
562.646
572.14
579.967
594.175
626.437
692.206
721.819
763.437
780.255
817.116
824.82
829.774
830.349
869.155
935.697
1012.98
1027
1027.11
1027.11
1027.06
1019.04
904.416
695.616
605.957
582.579
535.148
541.284
548.006
562.733
572.232
579.563
594.238
635.366
706.486
736.648
765.952
787.333
813.945
813.415
818.404
846.115
932.264
995.796
1024.85
1027.1
1027.11
1027.11
1027.1
1023.26
926.184
691.401
605.832
582.699
534.444
540.382
548.625
562.945
572.483
579.41
594.751
646.859
721.98
749.914
779.407
881.303
813.236
821.083
872.544
944.332
1003.56
1023.2
1026.99
1027.11
1027.11
1027.11
1027.11
1025.72
954.265
689.469
605.545
583.111
535.211
538.272
549.1
563.174
572.46
578.584
596.271
664.051
742.847
767.543
820.89
984.851
830.054
905.941
979.82
1013.62
1024.95
1026.92
1027.11
1027.11
1027.11
1027.11
1027.11
1026.79
983.253
690.294
605.314
583.379
538.396
537.807
549.726
563.879
572.629
578.235
601.432
687.217
763.699
795.834
873.487
1020.05
971.79
1008.08
1022.56
1026.44
1027.06
1027.11
1027.11
1027.11
1027.11
1027.11
1027.11
1027.07
1005.28
692.062
605.136
583.545
538.631
538.641
549.679
563.909
572.004
578.022
610.111
711.332
796.449
842.69
911.083
1026.3
1024.6
1026.69
1027.04
1027.11
1027.11
1027.11
1027.11
1027.11
1027.11
1027.11
1027.11
1027.11
1018.41
693.978
605.158
583.55
535.1
540.856
549.834
564.549
572.286
579.419
627.424
772.326
923.232
945.331
979.697
1026.92
1027.09
1027.11
1027.11
1027.11
1027.11
1027.11
1027.11
1027.11
1027.11
1027.11
1027.11
1027.11
1022.8
698.065
605.315
583.622
534.004
542.179
550.294
565.636
572.593
585.804
684.329
907.115
1015.2
1017.62
1023.77
1027.1
1027.11
1027.11
1027.11
1027.11
1027.11
1027.11
1027.11
1027.11
1027.11
1027.11
1027.11
1027.11
1022.02
714.458
605.643
583.887
534.004
541.935
550.377
565.938
573.185
592.454
734.167
946.118
1004.41
1011.26
1022.94
1027.04
1027.11
1027.11
1027.11
1027.11
1027.11
1027.11
1027.11
1027.11
1027.11
1027.11
1027.11
1027.11
1021.19
744.56
606.146
584.384
537.624
541.904
551.182
566.606
574.673
603.552
778.078
960.672
987.211
1001.09
1022.62
1026.42
1027.11
1027.11
1027.11
1027.11
1027.11
1027.11
1027.11
1027.11
1027.11
1027.11
1027.11
1027.11
1020.56
788.634
607.149
584.766
544.432
541.606
552.269
566.61
575.089
617.087
807.494
950.934
972.829
1000.87
1021.91
1024.94
1027.09
1027.11
1027.11
1027.11
1027.11
1027.11
1027.11
1027.11
1027.11
1027.11
1027.11
1027.11
1020.34
847.833
609.496
584.816
543.404
541.016
553.02
566.62
576.262
634.84
832.278
950.456
971.207
998.143
1018.56
1023.71
1027.08
1027.11
1027.11
1027.11
1027.11
1027.11
1027.11
1027.11
1027.11
1027.11
1027.11
1027.11
1020.43
881.058
614.381
584.835
535.116
539.335
552.988
566.402
577.3
651.805
853.67
942.728
961.449
993.291
1013.37
1023.56
1027.09
1027.11
1027.11
1027.11
1027.11
1027.11
1027.11
1027.11
1027.11
1027.11
1027.11
1027.11
1021.5
874.293
615.695
584.848
531.962
538.999
552.51
566.264
579.789
673.312
855.567
924.642
951.623
976.518
992.758
1024.47
1027.1
1027.11
1027.11
1027.11
1027.11
1027.11
1027.11
1027.11
1027.11
1027.11
1027.11
1027.11
1024.76
827.807
615.413
584.841
533.352
542.571
552.151
566.175
582.629
700.657
853.44
949.389
1007.36
962.174
985.703
1026.64
1027.11
1027.11
1027.11
1027.11
1027.11
1027.11
1027.11
1027.11
1027.11
1027.11
1027.11
1027.11
1026.93
797.433
614.393
536.856
551.223
538.5
537.783
537.467
537.819
540.66
547.03
559.338
573.803
590.703
609.18
629.232
651.567
674.743
698.696
721.507
742.411
760.997
776.462
787.181
791.821
782.193
782.689
764.221
716.543
642.778
544.067
535.667
551.222
550.879
549.581
556.48
566.012
587.387
617.54
653.008
689.588
725.684
761.555
799.164
834.533
863.359
886.13
904.092
919.277
930.162
935.577
936.345
932.385
923.359
919.769
897.053
843.757
756.368
600.896
548.17
550.411
560.897
568.64
590.135
615.638
656.407
698.713
731.733
750.585
767.546
809.415
841.605
857.746
871.349
886.002
901.279
914.324
926.132
937.015
947.218
951.435
951.425
958.452
950.788
906.94
800.488
638.53
558.378
571.066
575.208
593.513
614.81
645.684
692.758
732.584
754.258
760.888
764.31
794.466
820.392
829.696
831.91
837.408
842.778
850.88
865.403
881.672
891.373
896.205
901.882
914.842
939.734
910.31
809.489
644.698
567.742
618.322
597.627
599.764
627.967
670.958
725.079
756.219
764.898
760.777
755.722
769.255
794.715
813.115
833.599
866.25
915.415
963.664
990.835
998.044
989.645
967.885
919.751
872.172
915.693
907.718
821.879
649.876
572.167
616.158
625.66
618.968
648.977
691.754
733.362
754.383
759.638
751.936
743.278
760.288
799.053
837.007
898.025
968.65
1003.2
1013.17
1020.46
1024.67
1025.68
1019.76
993.045
921.305
841.265
890.804
821.436
652.173
572.059
611.96
636.237
645.496
669.871
706.439
745.544
763.195
757.533
750.577
743.509
764.534
813.814
874.345
935.102
957.705
963.186
956.11
991.333
1018.89
1026.85
1026.5
1017.52
966.608
878.734
881.56
819.523
655.022
571.842
607.161
632.341
644.402
667.666
701.752
738.198
754.866
749.862
749.122
747.303
773.137
828.053
886.945
916.398
917.368
924.2
901.723
939.233
1000.76
1026.87
1027.08
1025.32
1001.5
922.635
885.33
815.975
656.375
571.535
603.207
627.754
640.247
663.542
696.092
727.11
739.924
740.071
738.986
747.546
773.951
826.776
882.371
889.4
895.645
891.243
893.154
906.145
977.843
1026.54
1027.11
1026.85
1017.1
946.603
875.701
811.954
658.151
570.306
599.133
624.485
637.721
662.93
696.669
725.542
731.792
726.626
723.609
750.294
778.711
822.048
867.038
883.662
911.717
912.54
900.944
899.562
959.776
1026.2
1027.11
1027.09
1024.61
972.993
809.781
804.459
659.776
570.229
595.729
623.105
636.774
663.255
698.058
723.655
722.331
702.412
746.314
759.846
790.206
814.28
851.622
858.71
885.124
926.91
912.547
895.907
948.591
1025.88
1027.11
1027.11
1026.67
1008.06
882.337
796.265
661.287
570.229
595.014
622.827
636.898
663.957
699.38
722.666
712.428
695.408
755.645
766.135
802.01
819.764
861.088
857.579
880.606
916.877
902.726
902.205
959.027
1025.72
1027.11
1027.11
1027
1018.98
937.086
789.811
661.255
570.229
595.266
622.58
637.141
664.505
700.284
720.936
705.982
692.256
756.822
772.576
806.083
819.711
850.981
846.779
855.979
868.411
886.639
912.463
994.399
1026.67
1027.11
1027.11
1027.08
1022.44
949.311
783.164
660.838
570.31
596.567
622.517
637.587
665.004
700.816
719.324
699.768
690.542
764.074
785.116
812.177
822.062
837.783
838.882
841.533
845.981
902.062
961.73
1017.59
1027.03
1027.11
1027.11
1027.1
1024.61
961.008
771.679
660.011
570.489
599.355
622.48
638.111
665.423
700.972
716.771
692.363
691.727
774.971
799.166
816.722
873.382
837.684
841.533
849.231
878.243
959.129
1006.86
1025.77
1027.11
1027.11
1027.11
1027.11
1025.98
975.39
772.081
659.14
570.767
602.7
622.583
638.724
665.969
701.221
713.869
684.315
695.965
789.714
814.914
824.818
968.326
836.3
866.409
913.89
968.465
1012.97
1024.71
1027.04
1027.11
1027.11
1027.11
1027.11
1026.73
992.485
781.372
659.742
571.131
604.533
622.941
639.117
666.732
701.116
708.023
675.373
708.667
828.895
854.209
891.506
1011.83
901.887
943.717
1001.42
1021.53
1026.22
1027.03
1027.11
1027.11
1027.11
1027.11
1027.11
1027.03
1007.21
795.354
660.985
571.505
605.054
623.988
639.861
668.361
700.605
698.698
665.955
733.098
868.931
909.233
934.242
1024.92
998.429
1017.16
1024.97
1026.88
1027.1
1027.11
1027.11
1027.11
1027.11
1027.11
1027.11
1027.1
1016.42
806.899
662.398
572.02
604.9
625.17
640.694
669.448
696.923
688.488
667.072
766.341
933.735
974.98
948.081
1026.96
1025.76
1026.97
1027.08
1027.11
1027.11
1027.11
1027.11
1027.11
1027.11
1027.11
1027.11
1027.11
1020.96
813.885
664.364
572.283
603.83
626.545
642.237
672.789
698.014
686.45
678.649
843.952
1020.03
1021.82
1017.69
1027.07
1027.1
1027.11
1027.11
1027.11
1027.11
1027.11
1027.11
1027.11
1027.11
1027.11
1027.11
1027.11
1022.2
818.727
666.953
572.851
603.791
628.512
645.438
678.308
698.259
687.468
729.912
968.814
1025.55
1026.23
1026.86
1027.09
1027.11
1027.11
1027.11
1027.11
1027.11
1027.11
1027.11
1027.11
1027.11
1027.11
1027.11
1027.11
1021.72
820.258
669.34
573.089
603.977
630.272
649.294
684.093
700.017
691.537
762.806
975.356
1010.02
1016.63
1024.68
1026.99
1027.11
1027.11
1027.11
1027.11
1027.11
1027.11
1027.11
1027.11
1027.11
1027.11
1027.11
1027.11
1021.56
824.398
671.621
573.416
605.071
632.704
654.255
689.719
703.556
700.878
810.235
989.444
1005.97
1015.15
1024.39
1026.32
1027.1
1027.11
1027.11
1027.11
1027.11
1027.11
1027.11
1027.11
1027.11
1027.11
1027.11
1027.11
1021.58
841.489
672.817
573.636
605.923
634.914
658.973
693.206
703.509
711.318
847.954
996.231
1009.71
1017.46
1022.7
1025.66
1027.1
1027.11
1027.11
1027.11
1027.11
1027.11
1027.11
1027.11
1027.11
1027.11
1027.11
1027.11
1021.65
881.451
673.376
574.027
606.457
637.514
663.5
695.975
702.679
726.147
884.444
1003.54
1009.28
1014.7
1019.53
1025.37
1027.1
1027.11
1027.11
1027.11
1027.11
1027.11
1027.11
1027.11
1027.11
1027.11
1027.11
1027.11
1022.19
926.192
674.637
574.697
606.857
639.825
666.852
695.272
699.687
742.609
915.29
998.824
1001.48
1011.33
1016.26
1025.58
1027.11
1027.11
1027.11
1027.11
1027.11
1027.11
1027.11
1027.11
1027.11
1027.11
1027.11
1027.11
1024.24
929.809
675.383
574.528
606.998
641.738
669.106
694.234
697.111
755.173
928.914
966.397
976.06
1005.64
1002.79
1026.4
1027.11
1027.11
1027.11
1027.11
1027.11
1027.11
1027.11
1027.11
1027.11
1027.11
1027.11
1027.11
1026.29
897.562
675.412
575.007
607.792
644.968
671.401
692.469
695.247
763.782
926.8
977.014
1016.95
993.643
993.108
1027.05
1027.11
1027.11
1027.11
1027.11
1027.11
1027.11
1027.11
1027.11
1027.11
1027.11
1027.11
1027.11
1027.08
831.264
674.753
536.654
544.534
563.632
574.698
588.652
600.36
613.141
626.448
642.351
660.76
680.95
701.92
723.195
745.294
766.601
787.326
806.286
822.817
836.764
847.859
855.333
858.182
851.445
850.483
832.596
786.145
716.777
588.487
575.453
673.26
712.149
724.923
745.403
762.847
780.971
800.605
820.391
840.663
861.267
884.298
910.011
932.235
951.124
967.085
980.365
990.889
998.407
1002.9
1005.18
1005.73
1003.89
1003.39
995.222
959.967
886.238
713.766
639.016
752.938
798.701
829.431
855.677
875.501
895.408
913.162
926.035
933.512
939.259
947.919
960.734
970.518
977.881
984.71
990.868
995.764
999.085
1000.57
1000.27
997.741
997.332
995.234
994.761
989.136
938.869
779.565
680.975
812.817
853.513
872.731
895.349
912.015
926.35
936.348
940.039
939.845
937.303
941.2
943.762
941.533
932.52
925.12
923.729
929.647
942.379
951.237
954.963
954.966
941.987
934.985
954.305
980.723
945.17
791.29
708.604
795.714
863.752
900.063
914.531
924.322
936.916
942.832
943.959
935.307
920.046
905.052
896.207
887.581
891.626
921.759
960.029
994.241
1009.37
1013.58
1013.74
1004.39
977.568
937.357
909.643
961.143
943.864
801.978
717.489
768.439
834.384
876.842
888.88
902.974
925.329
938.258
938.027
915.795
885.928
866.848
866.173
892.535
928.608
981.245
1004.57
1009.66
1018.39
1025.02
1026.78
1025.79
1016.57
975.509
899.746
939.732
938.418
807.291
722.59
747.998
801.465
832.986
848.688
874.844
909.274
926.781
918.336
891.834
867.474
855.938
870.829
910.557
945.866
957.81
956.85
946.487
982.332
1016.26
1026.97
1027.04
1024.77
1003.26
948.428
933.625
930.953
813.12
721.726
732.973
774.669
793.024
813.592
848.779
887.705
901.442
887.359
868.962
863.674
858.569
867.634
903.898
916.943
917.144
924.581
899.297
938.128
999.59
1026.83
1027.11
1026.79
1018.25
971.481
935.734
924.662
816.241
721.053
722.715
757.751
769.991
795.75
834.296
869.417
875.258
864.763
843.719
852.572
842.481
850.33
892.097
900.899
897.604
891.218
893.323
916.829
982.004
1026.56
1027.11
1027.08
1024.39
986.084
914.822
920.079
819.674
720.75
713.646
748.195
761.42
792.051
835.004
864.843
863.088
840.322
809.908
835.716
844.748
839.996
870.07
910.006
934.476
917.078
918.151
928.824
971.252
1026.31
1027.11
1027.11
1026.67
1006.09
888.652
913.625
822.276
720.281
706.877
743.962
758.043
792.663
836.437
862.689
847.578
807.032
838.066
834.218
857.885
883.766
891.456
918.974
956.741
958.849
962.696
943.453
967.548
1026.12
1027.11
1027.11
1027.07
1023.26
971.943
906.422
824.282
720.297
706.354
742.787
758.248
793.99
837.78
861.27
831.778
792.358
836.564
826.317
861.873
931.402
940.736
931.393
958.162
971.685
972.669
971.078
987.668
1026.04
1027.11
1027.11
1027.1
1025.59
996.505
900.369
823.665
720.431
707.292
742.732
758.868
795.32
838.894
859.103
820.2
782.337
828.009
824.985
865.585
953.02
936.338
925.684
938.424
946.768
967.346
975.18
1009.68
1026.86
1027.11
1027.11
1027.11
1026.16
998.951
893.373
822.321
720.806
710.119
743.204
759.9
796.694
839.17
856.922
808.977
773.633
829.931
835.952
874.796
961.533
919.427
923.953
935.605
938.226
972.118
999.277
1022.99
1027.08
1027.11
1027.11
1027.11
1026.58
1002.89
886.114
820.276
721.428
714.328
743.893
761.065
797.946
839.089
853.516
794.876
764.266
839.05
867.175
899.539
990.425
907.326
935.462
933.514
945.053
993.987
1018.35
1026.62
1027.11
1027.11
1027.11
1027.11
1026.85
1008.32
891.72
819.615
722.227
719.065
744.669
762.53
799.407
839.092
849.177
778.813
757.21
868.343
910.057
896.248
1017.84
894.521
956.863
975.127
997.188
1020.88
1026.05
1027.09
1027.11
1027.11
1027.11
1027.11
1027.01
1014.58
908.206
820.395
723.226
722.626
745.376
763.882
801.203
838.719
840.307
762.493
765.14
947.638
972.17
968.765
1024.49
987.532
994.529
1018.41
1025.32
1026.86
1027.09
1027.11
1027.11
1027.11
1027.11
1027.11
1027.08
1018.86
925.013
821.899
724.309
724.703
746.955
765.955
804.462
837.549
823.208
744.48
791.147
979.378
995.957
981.442
1026.67
1019.29
1024.01
1026.45
1027.05
1027.11
1027.11
1027.11
1027.11
1027.11
1027.11
1027.11
1027.1
1020.92
936.458
823.516
725.771
725.356
748.916
768.014
805.659
832.545
805.725
735.425
826.723
1006.12
1017.15
983.512
1027.05
1026.55
1027.07
1027.1
1027.11
1027.11
1027.11
1027.11
1027.11
1027.11
1027.11
1027.11
1027.11
1021.63
948.164
825.521
726.857
725.574
751.43
770.89
810.193
830.954
783.848
745.143
893.895
1025.01
1025.72
1023.26
1027.07
1027.11
1027.11
1027.11
1027.11
1027.11
1027.11
1027.11
1027.11
1027.11
1027.11
1027.11
1027.11
1021.68
949.813
828.136
728.502
726.733
754.958
776.686
815.849
824.585
784.509
792.113
994.237
1025.19
1026.32
1026.92
1027.08
1027.11
1027.11
1027.11
1027.11
1027.11
1027.11
1027.11
1027.11
1027.11
1027.11
1027.11
1027.11
1021.85
941.503
830.294
729.7
728.849
758.088
784.097
821.756
822.379
786.234
833.931
996.022
1013.08
1020.88
1025.8
1026.95
1027.11
1027.11
1027.11
1027.11
1027.11
1027.11
1027.11
1027.11
1027.11
1027.11
1027.11
1027.11
1022.05
920.041
832.612
731.393
732.828
762.297
792.36
824.933
819.681
792.298
886.944
1009.49
1016.28
1020.98
1024.71
1026.59
1027.11
1027.11
1027.11
1027.11
1027.11
1027.11
1027.11
1027.11
1027.11
1027.11
1027.11
1027.11
1022.28
917.709
833.335
733.278
735.903
766.201
799.692
827.946
815.038
800.239
924.839
1013.34
1015.31
1018.88
1022.2
1026.34
1027.11
1027.11
1027.11
1027.11
1027.11
1027.11
1027.11
1027.11
1027.11
1027.11
1027.11
1027.11
1022.72
936.848
831.652
735.406
737.797
770.439
805.279
827.058
811.916
811.798
954.755
1009.43
1011.04
1014.25
1018.99
1026.22
1027.11
1027.11
1027.11
1027.11
1027.11
1027.11
1027.11
1027.11
1027.11
1027.11
1027.11
1027.11
1024.22
976.331
828.598
737.557
738.512
773.742
808.206
823.991
806.521
825
976.646
999.872
999.817
1008.67
1014.61
1026.46
1027.11
1027.11
1027.11
1027.11
1027.11
1027.11
1027.11
1027.11
1027.11
1027.11
1027.11
1027.11
1025.97
987.813
826.788
738.312
738.519
776.331
809.772
820.658
803.065
840.926
972.766
976.673
994.065
1004.53
1001.82
1026.9
1027.11
1027.11
1027.11
1027.11
1027.11
1027.11
1027.11
1027.11
1027.11
1027.11
1027.11
1027.11
1026.87
968.579
827.474
740.162
739.558
781.042
809.401
815.682
799.669
862.968
976.849
1010.17
1023.23
1000.41
996.43
1027.1
1027.11
1027.11
1027.11
1027.11
1027.11
1027.11
1027.11
1027.11
1027.11
1027.11
1027.11
1027.11
1027.1
894.579
827.867
536.336
567.452
594.211
610.174
630.136
646.59
664.3
681.674
700.083
719.508
739.814
760.474
781.05
801.559
820.994
839.417
855.661
869.373
880.354
888.713
894.01
895.958
890.893
889.247
874.139
833.804
771.207
614.557
635.854
790.964
823.385
837.048
857.238
873.143
888.988
904.9
920.063
935.115
950.078
965.525
980.907
992.886
1001.92
1008.55
1013.22
1016.76
1019.18
1020.6
1021.27
1021.18
1020.75
1020.45
1018.03
1006.03
965.094
771.903
726.714
884.231
923.811
944.788
961.697
972.326
981.996
989.701
994.653
997.231
998.689
1000.54
1003.3
1005.5
1006.86
1007.95
1008.43
1005.25
1001.81
998.593
996.201
993.985
991.15
989.036
991.492
1000.23
990.567
841.324
779.997
937.354
956.829
972.73
982.461
989.218
994.551
997.561
998.492
998.068
996.879
994.968
990.441
982.131
971.097
962.029
959.864
968.639
981.517
990.461
995.999
997.849
986.047
975.298
957.469
980.275
986.148
863.961
812.018
930.628
973.762
983.694
990.023
993.773
996.418
997.296
996.065
990.684
980.581
964.6
946.548
934.545
934.016
963.662
990.604
1010.14
1018.09
1022.54
1024.1
1022.84
1014.31
992.383
945.137
962.235
981.396
877.529
825.624
909.975
962.42
981.214
987.547
990.696
993.408
993.59
984.3
969.714
949.628
929.65
921.142
935.553
960.28
993.203
1002.34
1002.96
1015.03
1024.63
1027.01
1027.04
1025.4
1009.72
959.805
954.594
976.132
884.203
832.499
890.505
940.199
965.837
974.393
980.538
986.017
985.446
967.946
949.384
931.559
921.731
919.292
941.26
955.84
959.702
949.974
939.453
980.67
1015.54
1027.01
1027.11
1026.85
1020.95
988.135
950.629
970.665
889.576
835.227
874.489
914.769
934.73
947.242
961.526
973.611
973.514
951.642
935.759
927.757
920.987
910.342
923.248
920.329
922.485
929.583
896.797
950.797
1003.57
1026.83
1027.11
1027.08
1025.07
1000.29
954.044
966.479
892.871
836.799
863.502
895.707
909.869
929.757
949.309
961.927
958.881
936.392
914.992
916.136
899.158
876.536
901.471
913.202
901.268
896.512
888.737
943.247
994.387
1026.65
1027.11
1027.11
1026.62
1010.45
942.482
964.51
895.781
837.865
854.678
884.391
899.042
922.578
945.956
958.749
949.093
913.338
875.211
898.45
901.416
929.624
886.519
920.327
929.126
874.13
937.968
983.939
990.779
1026.51
1027.11
1027.11
1027.05
1021.05
963.191
961.927
897.855
838.634
847.468
879.093
894.137
922.833
946.189
957.256
934.905
879.62
891.658
901.532
891.004
996.412
931.904
983.517
977.871
935.492
1003.62
1001.22
997.227
1026.44
1027.11
1027.11
1027.11
1026.46
1010.98
959.167
899.431
839.349
846.798
877.308
894.299
923.896
946.602
956.124
920.572
863.917
889.626
877.811
892.596
1012.4
980.587
993.291
1006.04
1003.36
1016.6
1016.58
1011.36
1026.53
1027.11
1027.11
1027.11
1026.74
1016.03
957.091
899.373
840.176
847.863
877.036
895.027
925.185
946.786
954.503
909.273
851.447
876.135
862.393
896.292
1016.8
978.296
993.381
1006.38
1008.63
1017.12
1018.43
1021.42
1026.99
1027.11
1027.11
1027.11
1026.84
1015.92
954.445
899.08
841.228
851.03
877.601
896.272
926.567
946.643
952.884
898.087
839.274
887.815
907.951
898.502
1020.36
957.931
997.423
1004.77
1006.21
1016.83
1022.38
1026.14
1027.1
1027.11
1027.11
1027.11
1026.94
1017
952.313
898.484
842.564
855.445
878.474
897.639
927.779
946.368
950.341
882.558
830.845
936.035
969.446
936.114
1024.67
950.648
1004.05
1004.03
1005.3
1019.38
1025.31
1027.02
1027.11
1027.11
1027.11
1027.11
1027.01
1018.73
955.914
898.509
844.118
860.048
879.556
899.272
929.165
946.13
946.866
863.429
821.253
971.16
1000.52
955.298
1026.02
954.223
1012.3
1013.56
1017.1
1025.45
1026.81
1027.11
1027.11
1027.11
1027.11
1027.11
1027.06
1020.78
963.775
898.922
845.971
863.754
880.573
900.817
930.662
945.532
939.241
841.314
823.556
1008.86
1014.6
1000.76
1026.36
1011.62
1020.11
1025.26
1026.41
1027.03
1027.1
1027.11
1027.11
1027.11
1027.11
1027.11
1027.09
1022.17
972.975
899.659
847.896
866.596
882.449
903.208
933.745
944.234
920.797
818.936
845.479
1018.35
1020.21
1007.26
1026.99
1025.71
1026.49
1026.99
1027.1
1027.11
1027.11
1027.11
1027.11
1027.11
1027.11
1027.11
1027.11
1022.88
983.722
900.427
850.063
868.371
884.721
905.699
933.57
939.749
897.85
803.497
875.192
1022.71
1024.19
1006.65
1027.06
1026.91
1027.1
1027.11
1027.11
1027.11
1027.11
1027.11
1027.11
1027.11
1027.11
1027.11
1027.11
1023.26
995.689
901.368
851.599
869.472
887.627
908.786
935.531
936.282
871.383
810.907
930.09
1025.47
1026.07
1024.76
1027.07
1027.11
1027.11
1027.11
1027.11
1027.11
1027.11
1027.11
1027.11
1027.11
1027.11
1027.11
1027.11
1023.56
998.104
902.617
853.409
871.534
891.791
914.438
937.983
923.258
859.291
852.03
1008.62
1024.92
1026.36
1026.91
1027.08
1027.11
1027.11
1027.11
1027.11
1027.11
1027.11
1027.11
1027.11
1027.11
1027.11
1027.11
1027.11
1023.81
993.257
903.92
854.695
874.355
895.558
921.006
941.268
910.204
859.646
887.359
1008.19
1017.32
1023.46
1026.13
1026.95
1027.11
1027.11
1027.11
1027.11
1027.11
1027.11
1027.11
1027.11
1027.11
1027.11
1027.11
1027.11
1024.04
978.176
904.981
856.43
879.249
900.342
927.037
939.91
898.816
863.369
934.65
1017.01
1019.36
1022.25
1025.04
1026.76
1027.11
1027.11
1027.11
1027.11
1027.11
1027.11
1027.11
1027.11
1027.11
1027.11
1027.11
1027.11
1024.45
975.415
905.943
858.201
884.101
904.764
931.355
936.941
889.78
869.352
965.709
1013.22
1013.96
1019.29
1023.47
1026.65
1027.11
1027.11
1027.11
1027.11
1027.11
1027.11
1027.11
1027.11
1027.11
1027.11
1027.11
1027.11
1025.32
990.065
906.141
859.942
887.828
909.404
933.869
931.726
884.853
879.436
987.069
1005.25
1005.9
1013.44
1019.75
1026.62
1027.11
1027.11
1027.11
1027.11
1027.11
1027.11
1027.11
1027.11
1027.11
1027.11
1027.11
1027.11
1026.28
1008.66
906.385
861.511
889.544
912.785
933.888
924.51
879.604
887.85
990.429
996.105
998.162
1007.12
1012.58
1026.83
1027.11
1027.11
1027.11
1027.11
1027.11
1027.11
1027.11
1027.11
1027.11
1027.11
1027.11
1027.11
1026.85
1008.38
906.677
862.463
889.826
915.193
933.381
918.014
876.582
898.555
987.261
994.756
1006.9
1002.71
1001.28
1027.04
1027.11
1027.11
1027.11
1027.11
1027.11
1027.11
1027.11
1027.11
1027.11
1027.11
1027.11
1027.11
1027.06
993.898
907.222
864.628
890.626
918.829
931.45
908.929
872.813
913.788
997.36
1023.66
1026.01
1001.86
999.848
1027.11
1027.11
1027.11
1027.11
1027.11
1027.11
1027.11
1027.11
1027.11
1027.11
1027.11
1027.11
1027.11
1027.1
934.308
907.694
545.234
602.507
635.93
655.84
678.215
696.16
714.362
731.738
749.503
767.734
786.288
804.986
823.356
841.308
857.991
873.45
886.759
897.895
906.465
912.832
916.67
918.026
913.742
911.298
897.974
863.773
808.307
639.491
694.315
884.988
916.505
928.924
944.63
955.31
965.238
974.754
983.565
991.981
999.663
1006.55
1012.42
1016.65
1019.61
1021.88
1023.48
1024.46
1024.79
1024.69
1024.64
1024.54
1024.21
1023.93
1022.72
1019.07
999.91
805.311
792.75
971.259
996.217
1005.02
1010.15
1012.31
1013.86
1014.88
1015.33
1015.38
1015.03
1014.87
1015.33
1015.63
1015.2
1013.45
1011.72
1010.66
1012.34
1015.78
1018.43
1019.23
1017.46
1015.85
1008.22
1011.84
1008.64
872.127
842.874
1000.62
1008.32
1010.28
1011.25
1012.51
1013.53
1013.91
1013.24
1011.7
1009.18
1004.96
998.172
989.117
981.022
977.277
982.802
995.393
1006.61
1013.99
1018.39
1020.06
1016.51
1011.78
994.714
995.783
1003.43
895.559
872.654
998.363
1009.2
1009.91
1011.1
1011.43
1009.8
1006.51
1001.6
995.171
986.488
974.596
962.777
956.911
966.599
989.327
1006.99
1016.78
1022.05
1025.51
1026.66
1026.73
1025.3
1018.2
989.36
986.016
998.599
908.56
887.527
989.441
1006.12
1009.19
1009.85
1006.61
1000.64
992.618
982.96
972.372
961.846
953.372
950.645
964.5
982.26
995.926
997.067
994.624
1011.83
1024.02
1027.07
1027.11
1026.94
1023.16
998.662
970.666
993.271
914.822
895.545
979.322
1000.01
1006.91
1006.99
999.374
989.172
978.204
968.386
960.495
954.328
951.542
950.955
962.088
964.288
954.746
944.485
935.71
983.221
1017.91
1026.99
1027.11
1027.09
1025.88
1011.8
978.956
989.074
919.452
900.021
969.878
990.262
999.863
1000.42
991.551
981.427
971.527
963.657
956.887
953.282
951.005
941.236
940.164
923.263
927.296
934.179
890.121
954.184
1012.54
1026.88
1027.11
1027.11
1026.74
1017.96
989.569
987.221
922.263
902.864
963.014
981.151
991.494
994.824
986.508
977.212
967.763
958.466
944.784
939.637
935.559
897.113
911.096
886.675
893.814
883.595
873.45
937.558
1009.85
1026.8
1027.11
1027.11
1027.04
1022.28
985.698
986.787
924.472
904.863
957.286
975.143
986.924
991.871
984.295
975.437
964.539
945.595
912.211
897.934
896.919
917.366
842.261
823.902
823.9
823.9
911.988
958.844
1009.37
1026.77
1027.11
1027.11
1027.11
1025.99
1003.74
985.648
925.851
906.399
953.162
972.229
984.516
991.034
983.207
974.529
958.462
923.707
902.218
966.666
861.173
1023.46
840.847
1026.84
823.907
823.9
1027.07
955.931
1017.07
1026.82
1027.11
1027.11
1027.11
1026.9
1020.48
983.632
926.629
907.728
953.116
970.758
984.549
990.768
983.02
974.216
952.698
912.291
1027.11
1025.5
1027.11
1026.12
1027.11
1027.1
1027.11
1027.11
1027.04
1027.11
1022.54
1026.94
1027.11
1027.11
1027.11
1026.96
1021.31
982.412
927.136
909.085
954.131
970.643
984.767
990.692
983.114
974.211
947.448
900.562
1026.95
1025.89
1025.8
1027.09
1026.78
1027.09
1027.06
1027.01
1027.01
1027.07
1025.94
1027.07
1027.11
1027.11
1027.11
1027
1021.06
981.013
927.062
910.607
956.489
970.999
985.112
990.713
983.328
974.354
942.251
890.442
1027.11
1012.3
1027.11
1027.1
1027.11
1027.1
1027.11
1027.11
1027.02
1027.11
1027
1027.11
1027.11
1027.11
1027.11
1027.04
1021.33
978.598
926.806
912.348
959.259
971.551
985.443
990.763
983.649
974.245
932.206
875.368
1026.99
1027.09
1027
1027.09
1027.02
1027.09
1027.07
1027.05
1027.08
1027.09
1027.11
1027.11
1027.11
1027.11
1027.11
1027.07
1022.01
977.522
926.621
914.178
961.717
972.344
985.821
990.868
983.998
973.71
917.581
862.494
1027.11
1027.1
1027.11
1027.09
1027.11
1027.1
1027.11
1027.11
1027.1
1027.11
1027.11
1027.11
1027.11
1027.11
1027.11
1027.09
1023.13
979.191
926.728
916.039
963.553
973.19
986.212
991.015
984.435
971.021
896.355
848.379
1027.11
1027.05
1027.11
1027.09
1027.11
1027.09
1027.11
1027.11
1027.11
1027.11
1027.11
1027.11
1027.11
1027.11
1027.11
1027.1
1024.1
989.04
926.949
917.647
965.143
974.499
986.858
991.34
984.173
960.322
869.374
844.302
1027.08
1027.09
1027.06
1027.1
1027.1
1027.11
1027.11
1027.11
1027.11
1027.11
1027.11
1027.11
1027.11
1027.11
1027.11
1027.11
1024.58
1004.91
927.173
919.206
966.486
975.981
987.558
991.244
982.2
939.432
848.769
849.203
1027.11
1027.06
1027.11
1027.11
1027.11
1026.98
1027.11
1027.11
1027.1
1027.11
1027.11
1027.11
1027.11
1027.11
1027.11
1027.11
1024.82
1015.71
927.631
920.284
967.643
977.692
988.264
991.312
976.137
911.645
851.963
882.732
1027.11
1025.84
1027.11
1026.82
1027.11
1026.86
1027.11
1027.11