/*--------------------------------*- C++ -*----------------------------------*\
| =========                 |                                                 |
| \\      /  F ield         | OpenFOAM: The Open Source CFD Toolbox           |
|  \\    /   O peration     | Version:  2.3.0                                 |
|   \\  /    A nd           | Web:      www.OpenFOAM.org                      |
|    \\/     M anipulation  |                                                 |
\*---------------------------------------------------------------------------*/
FoamFile
{
    version     2.0;
    format      ascii;
    class       volScalarField;
    location    "0.64";
    object      alpha.particlesMean;
}
// * * * * * * * * * * * * * * * * * * * * * * * * * * * * * * * * * * * * * //

dimensions      [0 0 0 0 0 0 0];

internalField   nonuniform List<scalar> 
6000
(
0.405921
0.413921
0.415468
0.418398
0.415056
0.413925
0.417863
0.420588
0.41825
0.412232
0.406756
0.406054
0.400784
0.395076
0.395694
0.393167
0.397204
0.404279
0.407362
0.414603
0.419934
0.420953
0.418001
0.41456
0.413715
0.417091
0.419441
0.416398
0.413503
0.406458
0.395428
0.394176
0.388744
0.38407
0.385816
0.386437
0.388856
0.386472
0.38402
0.384696
0.383721
0.383172
0.384408
0.385942
0.387704
0.386209
0.380931
0.379683
0.380366
0.381901
0.38739
0.391427
0.39048
0.386708
0.383869
0.38309
0.383846
0.391871
0.394371
0.39362
0.395141
0.394135
0.388188
0.38666
0.39176
0.392127
0.391736
0.384272
0.385252
0.39168
0.392009
0.389759
0.389732
0.390511
0.395714
0.388776
0.379908
0.380655
0.384163
0.386114
0.387859
0.390056
0.392961
0.386572
0.383172
0.382722
0.384887
0.388321
0.392406
0.391549
0.3916
0.383154
0.379712
0.381234
0.386186
0.391027
0.38646
0.381363
0.382402
0.391104
0.395101
0.392476
0.388991
0.390764
0.392177
0.379373
0.374602
0.38008
0.384876
0.386787
0.383617
0.382877
0.384089
0.377781
0.375565
0.378755
0.378451
0.38046
0.380401
0.386911
0.376033
0.370218
0.371351
0.371884
0.37681
0.379716
0.375036
0.370481
0.374391
0.384669
0.390579
0.387658
0.380691
0.375096
0.37743
0.366656
0.36819
0.373136
0.380881
0.379399
0.373627
0.371023
0.369358
0.363628
0.366592
0.369143
0.371025
0.372934
0.369538
0.373802
0.362999
0.362223
0.366298
0.369068
0.370359
0.368936
0.361077
0.357994
0.363234
0.373476
0.379209
0.377116
0.367651
0.369494
0.374286
0.367073
0.364075
0.369671
0.374753
0.371424
0.3644
0.36081
0.357283
0.355365
0.358792
0.364994
0.370442
0.372052
0.364892
0.366669
0.362207
0.362234
0.366519
0.367463
0.366267
0.360581
0.350918
0.349199
0.355352
0.366737
0.371526
0.37161
0.370286
0.376206
0.380377
0.372648
0.366789
0.367655
0.37268
0.367479
0.362265
0.357108
0.353251
0.350563
0.355198
0.364687
0.374204
0.373792
0.368403
0.36889
0.369238
0.370175
0.371189
0.369323
0.365186
0.360246
0.349273
0.345221
0.352329
0.366621
0.371868
0.37143
0.377921
0.384575
0.384564
0.379329
0.3701
0.369056
0.372495
0.369987
0.362097
0.355367
0.350873
0.352007
0.358119
0.369376
0.378457
0.38062
0.377847
0.377908
0.386592
0.384144
0.382834
0.373209
0.369836
0.364672
0.35507
0.346628
0.351368
0.362587
0.371668
0.373523
0.387126
0.389808
0.388635
0.381036
0.373483
0.368838
0.372329
0.368131
0.360208
0.356815
0.356276
0.358915
0.363277
0.374345
0.384756
0.393353
0.394203
0.397102
0.407749
0.400336
0.393044
0.378881
0.374701
0.370655
0.365985
0.351975
0.349127
0.355537
0.37144
0.381237
0.39347
0.393247
0.388753
0.381332
0.373394
0.369947
0.37034
0.362208
0.356703
0.361453
0.365809
0.365002
0.368866
0.378557
0.388548
0.406657
0.411536
0.419618
0.427213
0.415129
0.399496
0.382784
0.377718
0.374342
0.373285
0.357759
0.346681
0.351863
0.376412
0.39288
0.398599
0.395012
0.388966
0.380825
0.375045
0.373087
0.372654
0.359909
0.358792
0.367111
0.368974
0.370058
0.374549
0.381679
0.391864
0.413069
0.427495
0.440699
0.44404
0.427166
0.403326
0.385271
0.37839
0.374732
0.37304
0.363371
0.346156
0.348084
0.3773
0.40357
0.401648
0.39579
0.388106
0.381242
0.377221
0.379476
0.374158
0.360651
0.365057
0.369449
0.370084
0.373091
0.378562
0.384159
0.393878
0.416556
0.440574
0.461039
0.458038
0.434216
0.409179
0.386027
0.377458
0.372829
0.369961
0.366844
0.348563
0.3445
0.370235
0.40842
0.404627
0.395232
0.386616
0.380971
0.381729
0.386481
0.373606
0.366263
0.370127
0.369513
0.368324
0.373109
0.379589
0.385571
0.395919
0.422019
0.45136
0.480384
0.46955
0.439375
0.417659
0.38699
0.375211
0.370556
0.365838
0.364083
0.352236
0.343808
0.360935
0.4016
0.407861
0.395682
0.384342
0.381642
0.387615
0.38933
0.375188
0.37182
0.370832
0.366431
0.363306
0.369597
0.378634
0.385174
0.399548
0.43428
0.464942
0.494781
0.479887
0.447073
0.426992
0.387982
0.373756
0.367059
0.362119
0.359403
0.35398
0.344795
0.353054
0.386289
0.407503
0.396983
0.384657
0.384254
0.393779
0.390204
0.377365
0.372615
0.367286
0.360451
0.357346
0.364559
0.375746
0.386102
0.409601
0.453631
0.479031
0.503366
0.4875
0.453559
0.435848
0.3923
0.371949
0.362948
0.358793
0.355406
0.352941
0.34532
0.347668
0.363951
0.401192
0.398031
0.38593
0.388715
0.399662
0.389742
0.376894
0.36889
0.361206
0.354179
0.351357
0.359503
0.371937
0.392966
0.428329
0.47508
0.492078
0.507299
0.488706
0.457198
0.445039
0.401811
0.370766
0.359257
0.356169
0.351774
0.350135
0.344442
0.343165
0.350885
0.385986
0.399074
0.388011
0.393429
0.404735
0.388211
0.372857
0.363696
0.354833
0.347953
0.346734
0.355238
0.367651
0.406419
0.449042
0.495386
0.502064
0.508345
0.48679
0.461593
0.453607
0.415738
0.36965
0.356156
0.352964
0.348508
0.346545
0.342776
0.34022
0.344165
0.370557
0.398478
0.391046
0.39665
0.408597
0.385469
0.368534
0.358343
0.348908
0.342494
0.341319
0.350354
0.369015
0.417076
0.466522
0.505144
0.501304
0.508257
0.48448
0.465673
0.460592
0.429437
0.370094
0.352534
0.349471
0.344607
0.342911
0.340365
0.338512
0.339723
0.358803
0.394119
0.393628
0.398783
0.409737
0.385206
0.363739
0.353608
0.343509
0.337284
0.33595
0.344293
0.370398
0.418613
0.477754
0.503625
0.493781
0.504506
0.48477
0.46875
0.46636
0.440198
0.370105
0.348635
0.345463
0.340848
0.33925
0.337925
0.33698
0.337598
0.351561
0.389564
0.395585
0.398803
0.407796
0.386384
0.36093
0.348988
0.339228
0.332557
0.329115
0.335338
0.370211
0.411872
0.474781
0.494647
0.479339
0.49816
0.486792
0.469803
0.472563
0.449405
0.374359
0.344653
0.341373
0.337209
0.335882
0.33573
0.335847
0.33562
0.345842
0.384363
0.395316
0.397521
0.4032
0.390427
0.35953
0.346084
0.335553
0.328169
0.322588
0.326828
0.362168
0.399808
0.464013
0.477011
0.466306
0.485549
0.486184
0.471789
0.477047
0.455666
0.38141
0.341441
0.336936
0.334798
0.333321
0.333656
0.33438
0.334384
0.341505
0.372038
0.393744
0.394396
0.399742
0.392917
0.361648
0.343739
0.333489
0.324349
0.319019
0.320283
0.349057
0.386852
0.453647
0.467325
0.460757
0.482446
0.484118
0.4716
0.478391
0.459199
0.387155
0.339313
0.332884
0.332756
0.331817
0.332311
0.332849
0.333147
0.337447
0.358808
0.383863
0.390512
0.395076
0.393167
0.363599
0.344566
0.331641
0.322753
0.318819
0.319353
0.339638
0.380021
0.449171
0.469428
0.465379
0.484052
0.484642
0.467331
0.472444
0.461331
0.391987
0.338204
0.329701
0.330081
0.33013
0.330228
0.330793
0.332326
0.335378
0.350486
0.368668
0.385225
0.390767
0.389618
0.366966
0.345165
0.331711
0.322518
0.319631
0.319092
0.338118
0.38056
0.444054
0.476868
0.474127
0.485503
0.48638
0.4621
0.468354
0.465385
0.399637
0.33835
0.32822
0.328863
0.328599
0.328714
0.329668
0.331969
0.335247
0.34427
0.359285
0.37408
0.384559
0.386492
0.368292
0.346997
0.33125
0.324392
0.319091
0.320984
0.339211
0.384165
0.439607
0.476552
0.478274
0.486827
0.485784
0.456818
0.46518
0.466849
0.410961
0.342993
0.330114
0.330244
0.329786
0.329693
0.330848
0.332949
0.335629
0.340876
0.352142
0.363293
0.378061
0.381285
0.369917
0.345923
0.332483
0.324514
0.320182
0.323135
0.342143
0.390001
0.440294
0.467898
0.476107
0.48912
0.481979
0.452136
0.460654
0.466581
0.421689
0.353318
0.334466
0.332153
0.331195
0.33165
0.332331
0.334052
0.33646
0.340454
0.346762
0.35801
0.368672
0.376277
0.36709
0.344542
0.331248
0.32593
0.320998
0.330415
0.346774
0.397964
0.443804
0.463046
0.467713
0.488699
0.474116
0.449869
0.455606
0.463936
0.430391
0.366362
0.341056
0.33316
0.333483
0.33358
0.334587
0.335373
0.337731
0.341303
0.346144
0.35217
0.362348
0.369384
0.36181
0.340267
0.330794
0.325887
0.328023
0.341561
0.351636
0.407785
0.447417
0.460213
0.461697
0.486196
0.468545
0.449772
0.453471
0.460699
0.437909
0.378251
0.3472
0.336153
0.334573
0.336117
0.33668
0.337807
0.339109
0.342471
0.346285
0.350395
0.356403
0.364499
0.355327
0.337645
0.329472
0.3305
0.338097
0.352537
0.356586
0.418588
0.45141
0.459096
0.459226
0.483394
0.46752
0.448857
0.451681
0.458047
0.445888
0.389973
0.35278
0.338813
0.335921
0.337445
0.339278
0.340055
0.341004
0.343635
0.34751
0.350219
0.35572
0.361631
0.352559
0.33626
0.332307
0.335527
0.349863
0.354397
0.363479
0.430158
0.45614
0.459771
0.457993
0.479506
0.470878
0.445499
0.450582
0.455942
0.453887
0.404684
0.358597
0.342676
0.336465
0.338881
0.340039
0.341984
0.342899
0.344803
0.347416
0.350477
0.354711
0.360302
0.348488
0.336968
0.334246
0.342441
0.353469
0.354727
0.373587
0.442936
0.462842
0.462932
0.458699
0.476677
0.480344
0.445034
0.450471
0.4554
0.461044
0.423059
0.367179
0.345467
0.339178
0.339838
0.342192
0.343015
0.344863
0.345538
0.347935
0.349285
0.354257
0.356585
0.34702
0.337341
0.338545
0.345718
0.354795
0.354142
0.385621
0.456227
0.470241
0.466163
0.457743
0.475197
0.489112
0.449742
0.452753
0.456639
0.467657
0.442558
0.378482
0.349973
0.341161
0.34269
0.344034
0.345307
0.345875
0.347457
0.348112
0.348848
0.352386
0.354188
0.345155
0.339451
0.340624
0.349463
0.353632
0.355397
0.399301
0.467953
0.4756
0.46657
0.457149
0.475629
0.489881
0.459913
0.460412
0.461003
0.472734
0.461598
0.389382
0.353698
0.345553
0.345441
0.347398
0.347547
0.347891
0.349066
0.348908
0.347706
0.350712
0.351051
0.344432
0.340263
0.344037
0.353966
0.357024
0.358905
0.414687
0.477699
0.477002
0.466098
0.455015
0.476953
0.486898
0.468266
0.471082
0.468829
0.474569
0.478318
0.401132
0.36008
0.349882
0.349394
0.350556
0.350955
0.350086
0.351038
0.349767
0.347625
0.347955
0.348928
0.343877
0.342636
0.349467
0.361759
0.360432
0.366367
0.430976
0.485078
0.476187
0.464356
0.454545
0.477867
0.48351
0.469551
0.476533
0.477202
0.476378
0.486812
0.414133
0.366779
0.355684
0.352774
0.354422
0.354073
0.352988
0.352955
0.351656
0.347737
0.346178
0.347138
0.344492
0.344579
0.358063
0.366025
0.365208
0.37555
0.446987
0.487533
0.47321
0.462834
0.453443
0.47746
0.478962
0.462713
0.478348
0.483772
0.480213
0.489467
0.42179
0.376194
0.36056
0.356818
0.358193
0.357918
0.355804
0.355128
0.35368
0.348746
0.34572
0.346316
0.345046
0.346169
0.363063
0.369408
0.370251
0.387403
0.459019
0.484706
0.469661
0.461331
0.45334
0.475336
0.475092
0.45873
0.478981
0.485083
0.482093
0.48929
0.425236
0.383184
0.365642
0.36046
0.361752
0.361738
0.359056
0.357205
0.355804
0.349936
0.346128
0.34618
0.345602
0.345995
0.363494
0.371477
0.37837
0.398865
0.464132
0.478622
0.466486
0.461321
0.451224
0.470677
0.474253
0.465391
0.480613
0.485738
0.482032
0.485244
0.426672
0.388493
0.368533
0.363097
0.364307
0.364977
0.362728
0.359496
0.357588
0.351099
0.347212
0.346526
0.346259
0.346131
0.360654
0.374141
0.385974
0.407005
0.46402
0.471764
0.463909
0.45914
0.451035
0.464446
0.481502
0.477496
0.490132
0.484502
0.480422
0.478267
0.428115
0.390341
0.369735
0.364549
0.365946
0.367563
0.366718
0.362834
0.358793
0.351839
0.348226
0.347626
0.347162
0.347102
0.356908
0.37555
0.391187
0.411451
0.461516
0.46509
0.459026
0.455843
0.448913
0.459491
0.488247
0.486057
0.497109
0.485563
0.479216
0.471685
0.430315
0.39118
0.369442
0.364641
0.367208
0.368976
0.36997
0.366683
0.360316
0.352091
0.349759
0.348624
0.349056
0.349194
0.355135
0.376129
0.392773
0.413951
0.458624
0.457598
0.45227
0.450874
0.444757
0.460068
0.493262
0.483715
0.496919
0.489481
0.475599
0.468021
0.434361
0.391098
0.36918
0.365239
0.367322
0.369985
0.371112
0.369878
0.361477
0.353148
0.350692
0.350275
0.350623
0.351977
0.355921
0.374923
0.393689
0.415829
0.455481
0.450101
0.444523
0.443949
0.437154
0.4629
0.494546
0.477324
0.491408
0.486992
0.473282
0.470759
0.44112
0.391968
0.369417
0.365008
0.367839
0.369703
0.371425
0.370511
0.362094
0.353576
0.352182
0.351213
0.352379
0.354428
0.358541
0.373595
0.393578
0.418496
0.451543
0.443341
0.439565
0.439518
0.434968
0.466584
0.491382
0.469748
0.482971
0.481949
0.474079
0.475716
0.451597
0.393371
0.370168
0.365786
0.367293
0.36968
0.370395
0.369586
0.360722
0.3545
0.3529
0.352741
0.353159
0.357318
0.361056
0.372608
0.393899
0.423118
0.447391
0.438543
0.43523
0.435735
0.435154
0.470701
0.482614
0.461509
0.474767
0.476959
0.475685
0.47567
0.460386
0.396502
0.371607
0.365668
0.367527
0.368466
0.369786
0.366756
0.359312
0.354623
0.354285
0.353439
0.354269
0.358727
0.364322
0.372804
0.394501
0.429721
0.444281
0.434397
0.433518
0.437004
0.439752
0.477994
0.472871
0.454479
0.467172
0.473423
0.47522
0.47343
0.463003
0.400221
0.373534
0.366542
0.366317
0.368092
0.367912
0.364429
0.357694
0.355651
0.354535
0.354727
0.354503
0.359701
0.365286
0.373026
0.395674
0.437006
0.443912
0.436656
0.43889
0.446633
0.454543
0.491765
0.468579
0.452689
0.46352
0.470583
0.472661
0.470596
0.462162
0.4038
0.375502
0.365738
0.366128
0.366343
0.367022
0.361777
0.35795
0.355906
0.35571
0.355149
0.355932
0.359196
0.365556
0.37163
0.397283
0.444415
0.447208
0.444348
0.451505
0.464035
0.474389
0.506974
0.472053
0.455683
0.462975
0.466374
0.469637
0.467708
0.461506
0.406276
0.376501
0.36564
0.363957
0.365892
0.364703
0.361602
0.357907
0.357363
0.356163
0.356914
0.356709
0.360211
0.363409
0.369612
0.399698
0.452131
0.453042
0.457372
0.469998
0.481969
0.49283
0.514987
0.484175
0.461569
0.465782
0.462687
0.46663
0.466272
0.462405
0.408211
0.376914
0.363707
0.363144
0.36378
0.36415
0.360923
0.359521
0.357926
0.358042
0.357939
0.359029
0.360286
0.36357
0.366963
0.403599
0.459537
0.459937
0.472375
0.489026
0.497135
0.503111
0.515866
0.50001
0.471413
0.473583
0.464551
0.465826
0.467033
0.465598
0.410596
0.376543
0.362977
0.360595
0.363458
0.362577
0.362061
0.360054
0.360076
0.359076
0.360472
0.360334
0.361992
0.36172
0.366121
0.40899
0.465332
0.469
0.48622
0.503655
0.509523
0.504288
0.513877
0.507399
0.48874
0.490056
0.477903
0.470548
0.472201
0.470939
0.414787
0.376216
0.359556
0.360283
0.361508
0.362981
0.361825
0.362061
0.360863
0.361488
0.361533
0.362455
0.361333
0.362041
0.36428
0.41309
0.46965
0.479035
0.4975
0.511313
0.516564
0.505302
0.510765
0.508213
0.496619
0.504007
0.496334
0.48276
0.480562
0.477133
0.420847
0.37251
0.358278
0.358069
0.361608
0.361483
0.362736
0.361755
0.362349
0.361531
0.362742
0.361664
0.361634
0.360021
0.364015
0.4064
0.471127
0.488105
0.504923
0.51316
0.518429
0.507104
0.506923
0.505691
0.497677
0.504317
0.506731
0.495532
0.488785
0.482946
0.424071
0.368015
0.357632
0.358484
0.359559
0.361452
0.360959
0.36183
0.360918
0.361608
0.361083
0.361357
0.360003
0.361772
0.363549
0.394947
0.468864
0.493586
0.507892
0.512666
0.518029
0.505253
0.503077
0.500376
0.496598
0.500313
0.505781
0.502125
0.495904
0.485778
0.417387
0.365796
0.36091
0.358612
0.359996
0.3594
0.360573
0.359661
0.360659
0.359895
0.360884
0.360299
0.361839
0.362712
0.366723
0.385527
0.456703
0.494599
0.508398
0.511679
0.515027
0.500633
0.499427
0.496104
0.486325
0.490125
0.496702
0.499136
0.500629
0.481674
0.407064
0.365655
0.362109
0.361978
0.360414
0.360875
0.359663
0.36052
0.36005
0.361184
0.361049
0.362712
0.363172
0.366219
0.367887
0.379916
0.433959
0.489715
0.507737
0.511248
0.511708
0.495719
0.495453
0.488075
0.472713
0.480233
0.488169
0.492121
0.499946
0.473167
0.395361
0.365585
0.365099
0.362975
0.363359
0.36162
0.362216
0.36136
0.362603
0.362368
0.363792
0.364166
0.366168
0.36703
0.370136
0.374949
0.411728
0.472448
0.504752
0.51085
0.508858
0.491295
0.493052
0.475094
0.4665
0.473771
0.481274
0.484744
0.494988
0.458344
0.384473
0.367033
0.365497
0.365586
0.363929
0.364157
0.363121
0.36405
0.363598
0.364871
0.364928
0.366557
0.366777
0.368892
0.368874
0.371281
0.39487
0.448461
0.498329
0.510133
0.505622
0.486784
0.494249
0.475485
0.465388
0.469702
0.475599
0.47775
0.486473
0.440513
0.378548
0.366698
0.367556
0.365917
0.366376
0.365102
0.365926
0.365118
0.3661
0.365754
0.367056
0.367121
0.368432
0.367849
0.369322
0.368558
0.386121
0.427411
0.491158
0.508485
0.499103
0.485575
0.495903
0.483506
0.464746
0.469269
0.471571
0.471798
0.477748
0.428259
0.377231
0.368556
0.367701
0.36844
0.367365
0.368071
0.367164
0.36803
0.367306
0.368141
0.367945
0.369074
0.368403
0.368905
0.368189
0.370125
0.380482
0.411787
0.479114
0.50574
0.493491
0.485234
0.496543
0.492916
0.470947
0.469745
0.469934
0.467812
0.470323
0.424469
0.380059
0.369759
0.370604
0.369716
0.370571
0.369456
0.370257
0.369526
0.370322
0.369635
0.370487
0.370012
0.370595
0.369044
0.37071
0.371126
0.378497
0.400457
0.464949
0.500816
0.486175
0.484361
0.497458
0.497293
0.477304
0.477458
0.469716
0.466785
0.464875
0.424671
0.383335
0.373074
0.372028
0.373102
0.37212
0.372773
0.371856
0.372762
0.372055
0.3728
0.372281
0.373014
0.371996
0.372143
0.37167
0.373983
0.378089
0.393922
0.454347
0.490846
0.480076
0.47971
0.500144
0.498704
0.483065
0.486433
0.475288
0.468562
0.460718
0.426468
0.388185
0.374926
0.375607
0.374872
0.37565
0.374547
0.375289
0.374667
0.375433
0.374875
0.375672
0.375077
0.37552
0.373685
0.374911
0.375259
0.3804
0.392031
0.445565
0.478307
0.468364
0.462681
0.493871
0.499432
0.486781
0.492487
0.484618
0.469487
0.458593
0.429024
0.392579
0.378963
0.377544
0.378589
0.37762
0.378208
0.377399
0.378296
0.377681
0.378432
0.378115
0.37878
0.377772
0.377461
0.376215
0.378597
0.382659
0.394891
0.444546
0.4643
0.458711
0.457662
0.479579
0.498972
0.488642
0.493799
0.490721
0.471232
0.45823
0.431406
0.396598
0.381733
0.381427
0.380786
0.381395
0.380458
0.381176
0.380703
0.381428
0.381004
0.381867
0.381448
0.381722
0.379605
0.379831
0.380253
0.386116
0.400596
0.450991
0.461557
0.461643
0.458077
0.473755
0.497944
0.488292
0.49293
0.492865
0.473311
0.459566
0.433822
0.398608
0.386099
0.383663
0.38464
0.383685
0.384277
0.383631
0.3845
0.38406
0.384799
0.384736
0.385429
0.38437
0.383663
0.381552
0.384086
0.388894
0.408423
0.459398
0.463191
0.467238
0.459127
0.472403
0.497289
0.485526
0.49147
0.493108
0.475579
0.462254
0.436929
0.400847
0.388382
0.387547
0.387013
0.387485
0.386751
0.387433
0.387142
0.387845
0.3877
0.388618
0.388491
0.388424
0.385899
0.385401
0.386048
0.392563
0.42044
0.467617
0.465702
0.471904
0.460067
0.473392
0.497676
0.483739
0.487876
0.491681
0.479157
0.467317
0.440712
0.402628
0.392038
0.389686
0.390778
0.389932
0.390542
0.39007
0.390916
0.390687
0.391547
0.391815
0.392635
0.391279
0.389624
0.387303
0.390047
0.396331
0.435344
0.474727
0.468396
0.473851
0.462089
0.476852
0.498256
0.483372
0.485292
0.489762
0.483153
0.474093
0.445978
0.405132
0.394273
0.393037
0.393134
0.393582
0.39309
0.393792
0.393696
0.39445
0.394723
0.395883
0.396089
0.395268
0.391529
0.390967
0.392111
0.400979
0.449218
0.479719
0.470481
0.474465
0.464757
0.481728
0.497817
0.483314
0.485214
0.488133
0.486936
0.481251
0.452265
0.408277
0.39794
0.395139
0.396477
0.39588
0.396576
0.396395
0.397337
0.397418
0.398711
0.399796
0.400697
0.398028
0.394689
0.392424
0.395832
0.405185
0.460766
0.48201
0.47176
0.475028
0.469199
0.484906
0.496079
0.480895
0.486594
0.48871
0.489822
0.486758
0.456054
0.413329
0.400354
0.39912
0.398922
0.399301
0.399059
0.40005
0.400332
0.401467
0.40268
0.404779
0.404564
0.401466
0.39611
0.395207
0.397456
0.408762
0.470232
0.482653
0.472887
0.477483
0.473914
0.485766
0.494417
0.47943
0.486757
0.490795
0.491376
0.488614
0.454556
0.417389
0.403565
0.400878
0.402396
0.402145
0.40288
0.4032
0.404451
0.405139
0.407303
0.408459
0.408115
0.402935
0.398462
0.396053
0.400176
0.41198
0.476608
0.482826
0.475163
0.481589
0.478034
0.487709
0.490591
0.479745
0.486429
0.489895
0.491901
0.485387
0.450066
0.420505
0.40471
0.402611
0.403151
0.404401
0.404124
0.405477
0.405952
0.407402
0.408909
0.409678
0.408139
0.403408
0.398725
0.398523
0.401217
0.415633
0.479826
0.484516
0.479082
0.4852
0.482351
0.490302
0.484338
0.480196
0.485059
0.488468
0.489993
0.478864
0.445332
0.422545
0.40674
0.402039
0.403107
0.403601
0.404067
0.404442
0.405395
0.40581
0.40708
0.407522
0.405456
0.401616
0.399974
0.399489
0.403899
0.419689
0.481236
0.487636
0.483306
0.489226
0.487266
0.492843
0.478529
0.478256
0.48484
0.486537
0.486836
0.472295
0.442271
0.423862
0.40816
0.402844
0.401575
0.402749
0.402018
0.402949
0.402676
0.403291
0.402995
0.403205
0.401662
0.401014
0.400181
0.402285
0.405698
0.423869
0.478613
0.490473
0.488307
0.495023
0.490945
0.494804
0.472724
0.475038
0.48518
0.484948
0.484364
0.46858
0.441161
0.424375
0.410862
0.403759
0.402801
0.401787
0.402153
0.401863
0.402464
0.402104
0.402605
0.40193
0.402129
0.401376
0.402535
0.403701
0.409298
0.428035
0.476236
0.492105
0.493987
0.50301
0.491976
0.495452
0.466617
0.471712
0.483858
0.483993
0.483654
0.467491
0.441682
0.426124
0.412811
0.40659
0.404186
0.403862
0.403162
0.403931
0.403536
0.404221
0.403783
0.404143
0.403419
0.403819
0.404057
0.406722
0.412771
0.43171
0.474228
0.493636
0.498923
0.506523
0.492975
0.49423
0.460193
0.468443
0.48302
0.483763
0.482973
0.467103
0.443298
0.428229
0.415658
0.408274
0.407033
0.405399
0.405797
0.405438
0.406198
0.405863
0.406458
0.405801
0.406076
0.405575
0.407039
0.408516
0.417967
0.43447
0.471957
0.495058
0.50252
0.506804
0.493918
0.492037
0.453257
0.462778
0.481525
0.483642
0.482023
0.467624
0.446162
0.431013
0.417466
0.411425
0.408812
0.408377
0.40745
0.408273
0.408005
0.408769
0.408334
0.408703
0.407927
0.408598
0.408971
0.412243
0.422413
0.43739
0.470021
0.496092
0.50487
0.504189
0.491628
0.487484
0.447811
0.455648
0.479503
0.483153
0.481453
0.469625
0.450592
0.433924
0.420483
0.413395
0.412066
0.410402
0.410479
0.410175
0.411054
0.410832
0.41142
0.410828
0.410984
0.410945
0.412256
0.415258
0.427345
0.441079
0.469125
0.496462
0.505228
0.501207
0.485344
0.481462
0.443744
0.450291
0.476365
0.481699
0.481217
0.472105
0.455831
0.43823
0.423167
0.41663
0.414373
0.413973
0.412537
0.413327
0.413243
0.414068
0.413746
0.414145
0.413415
0.414422
0.415013
0.420113
0.431471
0.445764
0.469277
0.496291
0.504214
0.497267
0.478382
0.475483
0.442474
0.447455
0.471472
0.479779
0.48063
0.474087
0.460573
0.442833
0.427606
0.418814
0.418109
0.416687
0.41588
0.415563
0.416592
0.416572
0.417179
0.416821
0.416982
0.417119
0.419371
0.423981
0.436213
0.451166
0.471309
0.495675
0.501483
0.491628
0.472674
0.471347
0.445094
0.445492
0.46392
0.477113
0.480153
0.475439
0.464073
0.447792
0.431822
0.422341
0.42035
0.420479
0.4183
0.418896
0.419137
0.42004
0.419956
0.420431
0.419515
0.420653
0.423019
0.428756
0.440708
0.457064
0.474778
0.495037
0.497593
0.482525
0.46717
0.469464
0.449301
0.443041
0.456981
0.4742
0.480361
0.476369
0.46651
0.45206
0.436961
0.425096
0.423192
0.422782
0.421873
0.421466
0.42266
0.422859
0.423616
0.423316
0.422981
0.423691
0.42766
0.432395
0.445823
0.463095
0.479609
0.494603
0.492931
0.473931
0.461354
0.46833
0.451171
0.440931
0.454728
0.471173
0.480691
0.477707
0.468464
0.455415
0.441243
0.429268
0.424898
0.425486
0.42471
0.425113
0.425656
0.426578
0.426746
0.426826
0.426195
0.42779
0.431285
0.4372
0.450842
0.469258
0.485187
0.495042
0.488641
0.471269
0.457714
0.467345
0.447967
0.440042
0.455439
0.470582
0.481757
0.480398
0.471395
0.457529
0.445112
0.432341
0.427288
0.426559
0.428487
0.428282
0.429452
0.429836
0.430542
0.430127
0.430046
0.431425
0.435676
0.441283
0.456288
0.475583
0.490479
0.496793
0.488805
0.472157
0.455611
0.46404
0.441611
0.439777
0.45717
0.474288
0.483182
0.483242
0.476018
0.460089
0.44702
0.435311
0.428598
0.428688
0.431321
0.432374
0.432667
0.433656
0.43385
0.434016
0.433683
0.435378
0.439018
0.445745
0.461874
0.481889
0.494098
0.498517
0.492298
0.473051
0.454342
0.457915
0.436405
0.441149
0.458703
0.478014
0.485318
0.484379
0.480302
0.463698
0.44805
0.436122
0.430778
0.430755
0.434198
0.435865
0.436382
0.437033
0.437704
0.437707
0.437864
0.438942
0.442366
0.449393
0.467481
0.486905
0.496314
0.501251
0.494148
0.472885
0.454483
0.452398
0.431519
0.441194
0.460022
0.478736
0.487719
0.486011
0.482511
0.466902
0.447217
0.436583
0.432593
0.433934
0.436754
0.43965
0.439778
0.4408
0.441402
0.44188
0.441969
0.442782
0.444972
0.452847
0.471482
0.490367
0.499069
0.503956
0.493954
0.472906
0.453653
0.447338
0.426936
0.440102
0.460232
0.478341
0.48908
0.487968
0.483356
0.467194
0.446164
0.437239
0.435707
0.437035
0.440111
0.44237
0.443656
0.44437
0.445474
0.446046
0.446354
0.446664
0.448222
0.454854
0.473981
0.493019
0.5016
0.505729
0.493571
0.472565
0.452134
0.442444
0.422797
0.438399
0.459388
0.477909
0.490129
0.489073
0.483019
0.465381
0.445022
0.439433
0.439344
0.440875
0.443187
0.445261
0.447275
0.448378
0.449547
0.450428
0.450771
0.450921
0.451667
0.457372
0.475584
0.49471
0.503999
0.507271
0.493639
0.471455
0.449602
0.4367
0.419234
0.436386
0.458219
0.477852
0.491405
0.490198
0.481446
0.462862
0.447192
0.442758
0.443725
0.444532
0.446618
0.44816
0.45107
0.452452
0.453892
0.454951
0.455401
0.455353
0.45583
0.46082
0.476123
0.495996
0.506387
0.507742
0.493619
0.469632
0.44587
0.430125
0.415671
0.433943
0.456663
0.476859
0.4917
0.49159
0.47942
0.461405
0.450914
0.448274
0.447856
0.448364
0.449823
0.451483
0.454454
0.45674
0.45839
0.459801
0.459994
0.460049
0.460376
0.465756
0.477261
0.496771
0.507576
0.506438
0.492545
0.467866
0.441045
0.423048
0.411723
0.42995
0.455597
0.474105
0.48997
0.491717
0.478374
0.461856
0.456053
0.45397
0.451863
0.451609
0.452987
0.454647
0.457598
0.460976
0.463246
0.464819
0.464845
0.464979
0.466069
0.471142
0.479768
0.496918
0.505344
0.502885
0.489804
0.467279
0.435202
0.415866
0.407916
0.424304
0.454127
0.470155
0.486304
0.490227
0.478046
0.463661
0.460364
0.459719
0.455285
0.454345
0.455483
0.457748
0.460686
0.465353
0.468374
0.469631
0.470204
0.470592
0.472752
0.476687
0.483096
0.496593
0.501149
0.497209
0.485656
0.46602
0.428027
0.408971
0.40475
0.417736
0.450264
0.465827
0.48199
0.488201
0.47804
0.465847
0.463931
0.464538
0.458701
0.456427
0.457813
0.460783
0.464103
0.469525
0.472986
0.474315
0.475242
0.476809
0.479573
0.482243
0.486658
0.49529
0.497509
0.491787
0.479956
0.460988
0.419665
0.402531
0.402062
0.412337
0.444804
0.46187
0.478336
0.486264
0.478024
0.46849
0.467054
0.468322
0.462491
0.458657
0.459867
0.463707
0.467708
0.472804
0.47652
0.478153
0.479719
0.482869
0.485956
0.487854
0.490341
0.493949
0.494618
0.487785
0.473912
0.453032
0.412381
0.396967
0.400135
0.408498
0.440276
0.45877
0.475844
0.484428
0.478757
0.472177
0.47045
0.471485
0.466548
0.461509
0.462239
0.466502
0.470893
0.475461
0.479039
0.481106
0.483744
0.487434
0.491466
0.493076
0.49391
0.493584
0.492458
0.484907
0.468551
0.446152
0.407003
0.395398
0.398662
0.405874
0.436859
0.45642
0.474397
0.482924
0.480723
0.476823
0.47419
0.474699
0.470319
0.464933
0.465139
0.469227
0.473621
0.477687
0.481028
0.483372
0.486835
0.490527
0.495651
0.497375
0.497145
0.494443
0.490924
0.482584
0.464035
0.440538
0.405624
0.400113
0.397346
0.404386
0.433734
0.454523
0.473755
0.482407
0.483718
0.481556
0.478073
0.477992
0.47393
0.46831
0.468368
0.471891
0.475625
0.479389
0.482458
0.485078
0.488462
0.492596
0.498184
0.500094
0.499404
0.496012
0.490631
0.480562
0.459964
0.437773
0.409436
0.406881
0.396616
0.402841
0.430264
0.451908
0.472746
0.482301
0.486401
0.485067
0.481301
0.480645
0.477037
0.471189
0.471247
0.473863
0.476705
0.479897
0.483112
0.485199
0.488605
0.493367
0.498812
0.500625
0.49985
0.496781
0.490504
0.479142
0.458029
0.43863
0.415296
0.413111
0.396693
0.400348
0.424737
0.447649
0.469657
0.480654
0.486479
0.485616
0.482028
0.481219
0.4783
0.472443
0.471751
0.47415
0.475675
0.478435
0.481404
0.482974
0.486255
0.491745
0.496575
0.498129
0.497535
0.495166
0.488763
0.477193
0.457033
0.438959
0.418568
0.417015
0.396672
0.399138
0.418907
0.442704
0.465416
0.477856
0.484565
0.484198
0.480966
0.480428
0.478796
0.473007
0.471584
0.47312
0.474339
0.476091
0.478483
0.479562
0.483133
0.489144
0.493217
0.494422
0.494262
0.492489
0.485993
0.47436
0.455411
0.437306
0.420497
0.418279
0.393675
0.400443
0.415804
0.437649
0.460435
0.473931
0.481429
0.481526
0.47836
0.478429
0.478334
0.472916
0.470806
0.47158
0.472368
0.473522
0.474869
0.475846
0.479565
0.485995
0.489398
0.490387
0.490938
0.489086
0.482014
0.470155
0.452114
0.435229
0.421633
0.415563
0.389518
0.403163
0.416164
0.434584
0.455507
0.469426
0.477898
0.47862
0.474938
0.475442
0.476786
0.472086
0.469802
0.469596
0.469917
0.470421
0.47151
0.472331
0.476116
0.482483
0.485453
0.486541
0.487729
0.485135
0.476954
0.465041
0.447724
0.432616
0.422551
0.410519
0.385331
0.406422
0.41677
0.433276
0.452088
0.464536
0.473848
0.475347
0.471158
0.471622
0.47412
0.470528
0.468204
0.467363
0.46693
0.467456
0.468156
0.469069
0.472735
0.47861
0.481147
0.482697
0.484052
0.480284
0.471053
0.459154
0.442479
0.429237
0.422398
0.403802
0.381606
0.408619
0.417535
0.431839
0.449423
0.461491
0.470227
0.472484
0.46847
0.468382
0.471309
0.468652
0.466406
0.464967
0.464317
0.4646
0.465298
0.466242
0.469963
0.475197
0.477465
0.479739
0.480404
0.475209
0.465123
0.452611
0.436792
0.42527
0.419815
0.396085
0.378819
0.408575
0.418508
0.430327
0.446602
0.459211
0.468106
0.470258
0.46645
0.465436
0.468345
0.4665
0.46412
0.462681
0.461699
0.462044
0.462547
0.463594
0.467293
0.471893
0.474135
0.476864
0.476497
0.469972
0.459195
0.445868
0.431043
0.421707
0.414564
0.388631
0.376343
0.406313
0.420152
0.428667
0.443509
0.456335
0.466148
0.469073
0.465437
0.463152
0.465629
0.464387
0.461675
0.460006
0.458982
0.459134
0.459704
0.460812
0.464799
0.468801
0.471176
0.473688
0.472056
0.464609
0.452969
0.439676
0.425955
0.419287
0.407612
0.381275
0.373969
0.402706
0.421374
0.427081
0.44021
0.452439
0.463569
0.467886
0.465059
0.462178
0.463279
0.462356
0.459187
0.457156
0.455932
0.456099
0.456617
0.458061
0.462409
0.465899
0.468483
0.470245
0.467486
0.45907
0.446729
0.434259
0.421975
0.41757
0.399846
0.374286
0.370987
0.397418
0.420132
0.425611
0.436709
0.447845
0.45986