/*--------------------------------*- C++ -*----------------------------------*\
| =========                 |                                                 |
| \\      /  F ield         | OpenFOAM: The Open Source CFD Toolbox           |
|  \\    /   O peration     | Version:  2.3.0                                 |
|   \\  /    A nd           | Web:      www.OpenFOAM.org                      |
|    \\/     M anipulation  |                                                 |
\*---------------------------------------------------------------------------*/
FoamFile
{
    version     2.0;
    format      ascii;
    class       volVectorField;
    location    "0.85";
    object      U;
}
// * * * * * * * * * * * * * * * * * * * * * * * * * * * * * * * * * * * * * //

dimensions      [0 1 -1 0 0 0 0];

internalField   nonuniform List<vector> 
2268
(
(-0.0249025 0.00981787 0)
(-0.0869871 0.0147854 0)
(-0.158428 0.0182155 0)
(-0.238585 0.0199644 0)
(-0.304062 0.0139555 0)
(-0.323002 0.00220224 0)
(-0.298757 -0.00600367 0)
(-0.267906 -0.00680029 0)
(-0.238554 -0.00644558 0)
(-0.210033 -0.00610895 0)
(-0.183218 -0.00487086 0)
(-0.163064 -0.0025587 0)
(-0.153753 -0.00101998 0)
(-0.152688 -0.00297407 0)
(-0.1496 -0.00829004 0)
(-0.143533 -0.00799885 0)
(-0.161944 0.0110231 0)
(-0.243482 0.0271296 0)
(-0.328358 0.0173552 0)
(-0.320059 -0.00958879 0)
(-0.234723 -0.028695 0)
(-0.138057 -0.0333831 0)
(-0.042585 -0.0255454 0)
(-0.0540415 0.0480911 0)
(-0.155141 0.0536801 0)
(-0.248501 0.0547355 0)
(-0.324753 0.0484283 0)
(-0.355992 0.025471 0)
(-0.340812 -0.00423458 0)
(-0.311304 -0.0209694 0)
(-0.275559 -0.0226611 0)
(-0.242834 -0.0210748 0)
(-0.211469 -0.0205563 0)
(-0.180184 -0.0179839 0)
(-0.152811 -0.0114864 0)
(-0.135213 -0.00311311 0)
(-0.132945 0.00293829 0)
(-0.149981 0.00508292 0)
(-0.18759 0.013989 0)
(-0.242053 0.0386749 0)
(-0.292241 0.0464117 0)
(-0.285721 0.0151427 0)
(-0.210624 -0.0342185 0)
(-0.150296 -0.0642547 0)
(-0.0866226 -0.074406 0)
(-0.0217814 -0.0608565 0)
(-0.0609508 0.0996005 0)
(-0.160427 0.0995684 0)
(-0.248238 0.0920095 0)
(-0.32093 0.0727202 0)
(-0.35646 0.0309489 0)
(-0.352696 -0.0151953 0)
(-0.324924 -0.038892 0)
(-0.290272 -0.0405844 0)
(-0.25534 -0.0372736 0)
(-0.220015 -0.0367633 0)
(-0.183673 -0.0339565 0)
(-0.149338 -0.0248087 0)
(-0.121858 -0.0108969 0)
(-0.104926 0.00401735 0)
(-0.103222 0.0186812 0)
(-0.121919 0.0358833 0)
(-0.156344 0.0531229 0)
(-0.172192 0.0431376 0)
(-0.136231 -0.009998 0)
(-0.0848094 -0.0611673 0)
(-0.0515859 -0.0842328 0)
(-0.031547 -0.0921429 0)
(0.0044312 -0.0730354 0)
(-0.0568397 0.150088 0)
(-0.14482 0.143158 0)
(-0.227999 0.12819 0)
(-0.302608 0.0986848 0)
(-0.342783 0.0410928 0)
(-0.342912 -0.0213022 0)
(-0.325556 -0.0544265 0)
(-0.303759 -0.0570338 0)
(-0.272806 -0.0543022 0)
(-0.234804 -0.055038 0)
(-0.194145 -0.0523809 0)
(-0.156395 -0.0410099 0)
(-0.126804 -0.0233977 0)
(-0.106042 -0.00468136 0)
(-0.0904793 0.0152907 0)
(-0.0767598 0.0387677 0)
(-0.0658727 0.0555666 0)
(-0.0508178 0.0401722 0)
(-0.0210221 -0.0157506 0)
(-0.0150486 -0.0667865 0)
(-0.0051048 -0.0879867 0)
(-0.0106297 -0.0988628 0)
(0.0186097 -0.0697942 0)
(-0.0483219 0.194427 0)
(-0.12389 0.182807 0)
(-0.200316 0.163144 0)
(-0.268076 0.125702 0)
(-0.301634 0.0540882 0)
(-0.303679 -0.0219474 0)
(-0.307355 -0.0598718 0)
(-0.310432 -0.0658966 0)
(-0.291331 -0.0694013 0)
(-0.252722 -0.0750498 0)
(-0.205101 -0.0728136 0)
(-0.160654 -0.0576841 0)
(-0.128355 -0.0348731 0)
(-0.108111 -0.0129333 0)
(-0.0930172 0.00674352 0)
(-0.0742393 0.0270326 0)
(-0.0474129 0.040058 0)
(-0.0198369 0.0255086 0)
(-0.00539277 -0.0226255 0)
(-0.0209551 -0.0698441 0)
(-0.016542 -0.0904982 0)
(-0.0139389 -0.106262 0)
(0.0237654 -0.0674725 0)
(-0.0373941 0.231234 0)
(-0.0982347 0.217243 0)
(-0.163025 0.192147 0)
(-0.216873 0.146516 0)
(-0.240724 0.0650494 0)
(-0.246535 -0.0151003 0)
(-0.278363 -0.0519723 0)
(-0.313473 -0.0644151 0)
(-0.309683 -0.080156 0)
(-0.269702 -0.0953122 0)
(-0.209487 -0.0952216 0)
(-0.153189 -0.075164 0)
(-0.117179 -0.0450259 0)
(-0.0992171 -0.0189199 0)
(-0.0880289 0.000796667 0)
(-0.0756615 0.0178458 0)
(-0.0589577 0.0271798 0)
(-0.041927 0.0160426 0)
(-0.0358279 -0.020777 0)
(-0.0511264 -0.0675139 0)
(-0.0362841 -0.0962015 0)
(-0.00816413 -0.120668 0)
(0.0280281 -0.0652799 0)
(-0.0238772 0.257114 0)
(-0.0704402 0.24374 0)
(-0.125017 0.214767 0)
(-0.16238 0.162858 0)
(-0.171994 0.0778522 0)
(-0.182089 -0.00249171 0)
(-0.255108 -0.0361062 0)
(-0.320574 -0.0529798 0)
(-0.323429 -0.0864553 0)
(-0.269897 -0.121241 0)
(-0.188039 -0.129035 0)
(-0.117082 -0.100821 0)
(-0.0785096 -0.0571684 0)
(-0.0672295 -0.0233022 0)
(-0.0649582 -0.00224958 0)
(-0.0617095 0.0139584 0)
(-0.0562319 0.0239085 0)
(-0.0522 0.0169518 0)
(-0.0533576 -0.0157202 0)
(-0.0622238 -0.067709 0)
(-0.036031 -0.113458 0)
(0.019494 -0.148021 0)
(0.0393326 -0.054012 0)
(-0.0107017 0.281108 0)
(-0.0367848 0.271283 0)
(-0.0700492 0.232678 0)
(-0.0762746 0.169228 0)
(-0.066493 0.0846973 0)
(-0.115875 0.0291077 0)
(-0.253221 0.0130838 0)
(-0.332163 -0.0278502 0)
(-0.325797 -0.106541 0)
(-0.256744 -0.1708 0)
(-0.167126 -0.179787 0)
(-0.0883082 -0.135757 0)
(-0.0420956 -0.0731558 0)
(-0.0308925 -0.0267549 0)
(-0.0324454 -0.00217505 0)
(-0.0349423 0.0124243 0)
(-0.0389758 0.0208273 0)
(-0.0462879 0.0138709 0)
(-0.0555414 -0.0162439 0)
(-0.0614639 -0.0752723 0)
(-0.0347616 -0.14274 0)
(0.051247 -0.1568 0)
(0.0764598 -0.0206323 0)
(0.000954994 0.0177982 0)
(-0.311273 0.0656108 0)
(-0.524301 0.0273614 0)
(-0.41114 -0.0419648 0)
(-0.151542 -0.082373 0)
(0.0869315 -0.0743275 0)
(0.19102 -0.0409639 0)
(-0.0798351 0.0729175 0)
(-0.413776 0.0651152 0)
(-0.164458 -0.0437532 0)
(0.0117681 -0.0393701 0)
(0.028341 -0.012329 0)
(0.0580574 -0.00814969 0)
(0.148371 -0.00183471 0)
(0.208335 0.0532561 0)
(0.0513731 0.0694454 0)
(-0.1882 -0.0145306 0)
(-0.230354 -0.0318713 0)
(-0.0476264 -0.00786951 0)
(-0.140996 0.115915 0)
(-0.468215 0.154998 0)
(-0.48838 0.0283009 0)
(-0.323186 -0.121654 0)
(-0.127127 -0.191895 0)
(-0.00807246 -0.0913985 0)
(-0.213654 0.109168 0)
(-0.440983 0.158025 0)
(-0.287608 -0.0261953 0)
(-0.0583586 -0.160462 0)
(-0.0349282 -0.0493447 0)
(-0.00848546 0.000166456 0)
(0.0327771 -0.0535488 0)
(0.160307 -0.0794468 0)
(0.279433 0.00385533 0)
(0.274329 0.120084 0)
(0.116852 0.112225 0)
(-0.197468 -0.0145702 0)
(-0.159872 -0.12734 0)
(-0.169633 0.226906 0)
(-0.389801 0.209458 0)
(-0.332898 0.00112412 0)
(-0.263002 -0.18055 0)
(-0.138958 -0.234597 0)
(-0.236282 -0.0107921 0)
(-0.476193 0.188367 0)
(-0.450235 0.115425 0)
(-0.201025 -0.118222 0)
(-0.435923 -0.147508 0)
(-0.347142 -0.0745493 0)
(-0.255633 -0.0263206 0)
(-0.222937 -0.0782303 0)
(-0.119641 -0.111452 0)
(0.0894939 -0.00375196 0)
(0.213521 0.124395 0)
(0.278221 0.172726 0)
(-0.020574 0.086274 0)
(0.00788729 -0.179791 0)
(-0.138345 0.321271 0)
(-0.261468 0.250138 0)
(-0.217791 0.0024379 0)
(-0.164649 -0.201041 0)
(-0.135147 -0.222488 0)
(-0.344254 0.059952 0)
(-0.500072 0.209282 0)
(-0.368554 0.0434625 0)
(-0.533732 -0.0705568 0)
(-0.874217 -0.0841434 0)
(-0.907661 -0.0708118 0)
(-0.801224 -0.036003 0)
(-0.776545 -0.102379 0)
(-0.633895 -0.18902 0)
(-0.268552 -0.107932 0)
(0.0149508 0.0821716 0)
(0.230474 0.168339 0)
(0.0897056 0.14137 0)
(0.165259 -0.117851 0)
(-0.0911816 0.382266 0)
(-0.136154 0.265523 0)
(-0.0965736 -0.0134626 0)
(-0.0260973 -0.204806 0)
(-0.0939078 -0.173651 0)
(-0.362664 0.12399 0)
(-0.447276 0.225423 0)
(-0.408086 0.12141 0)
(-0.831739 0.116921 0)
(-1.32782 0.0295053 0)
(-1.69829 -0.0305458 0)
(-1.66723 -0.100293 0)
(-1.52441 -0.252989 0)
(-1.25183 -0.378544 0)
(-0.808988 -0.295956 0)
(-0.27746 -0.0631905 0)
(0.0516378 0.111481 0)
(0.0786532 0.146199 0)
(0.217295 -0.0711015 0)
(-0.0403015 0.412828 0)
(-0.0180183 0.258939 0)
(0.0543058 -0.0314229 0)
(0.12305 -0.191496 0)
(-0.0404002 -0.0958724 0)
(-0.369201 0.183863 0)
(-0.424576 0.255517 0)
(-0.429442 0.270125 0)
(-0.888203 0.271563 0)
(-1.22718 0.186413 0)
(-1.54113 0.0834717 0)
(-1.72721 -0.112722 0)
(-1.62459 -0.374382 0)
(-1.44115 -0.546177 0)
(-1.19154 -0.489832 0)
(-0.745826 -0.244963 0)
(-0.229392 -0.00363133 0)
(-0.00625451 0.0797181 0)
(0.233372 -0.00895822 0)
(0.0122423 0.403298 0)
(0.0897286 0.242484 0)
(0.226132 -0.0493414 0)
(0.240755 -0.151519 0)
(-0.0125538 0.00605835 0)
(-0.392205 0.259585 0)
(-0.462522 0.307073 0)
(-0.555603 0.391532 0)
(-0.916238 0.381523 0)
(-0.969518 0.287562 0)
(-0.976413 0.182341 0)
(-1.01016 0.0151521 0)
(-1.01693 -0.306145 0)
(-1.10784 -0.562451 0)
(-1.13175 -0.591437 0)
(-0.966212 -0.42378 0)
(-0.580039 -0.209064 0)
(-0.142233 -0.0373274 0)
(0.181864 0.0298505 0)
(0.0603792 0.357233 0)
(0.164366 0.208852 0)
(0.357507 -0.0980592 0)
(0.277704 -0.0970922 0)
(-0.0365216 0.134586 0)
(-0.42708 0.343017 0)
(-0.588176 0.349653 0)
(-0.839612 0.447704 0)
(-0.9729 0.393897 0)
(-0.758533 0.237502 0)
(-0.580645 0.124039 0)
(-0.574231 -0.0297737 0)
(-0.692985 -0.222916 0)
(-0.760441 -0.502992 0)
(-0.860384 -0.587461 0)
(-0.873357 -0.496565 0)
(-0.646982 -0.381205 0)
(-0.320457 -0.23531 0)
(-0.0352104 0.00184994 0)
(0.0307968 0.251284 0)
(0.0356767 0.263924 0)
(0.00794817 0.230166 0)
(-0.0339615 0.183178 0)
(-0.131096 0.14257 0)
(-0.254247 0.12524 0)
(-0.348039 0.0755771 0)
(-0.396943 -0.0379354 0)
(-0.402958 -0.150612 0)
(-0.37885 -0.214325 0)
(-0.316421 -0.227418 0)
(-0.214449 -0.181562 0)
(-0.125984 -0.10529 0)
(-0.0822978 -0.0450447 0)
(-0.0632749 -0.0100613 0)
(-0.0475606 0.0188347 0)
(-0.0469337 0.0437394 0)
(-0.0602074 0.0448344 0)
(-0.0811685 0.0045326 0)
(-0.124473 -0.0888005 0)
(-0.129927 -0.150039 0)
(0.0520941 -0.184193 0)
(0.200527 0.0309218 0)
(-0.0946777 0.216417 0)
(-0.136534 0.310309 0)
(-0.246475 0.29908 0)
(-0.318215 0.27289 0)
(-0.377538 0.244229 0)
(-0.459409 0.207295 0)
(-0.552576 0.149289 0)
(-0.656417 0.0734384 0)
(-0.775933 -0.0423895 0)
(-0.852172 -0.196703 0)
(-0.788789 -0.298887 0)
(-0.610238 -0.283 0)
(-0.43101 -0.181649 0)
(-0.286774 -0.0922358 0)
(-0.209467 -0.0514519 0)
(-0.149373 -0.0231173 0)
(-0.110889 0.0025158 0)
(-0.161451 0.0211555 0)
(-0.294115 0.059995 0)
(-0.430611 0.0361449 0)
(-0.340311 -0.272928 0)
(-0.0395663 -0.606997 0)
(0.336583 -0.0841774 0)
(-0.75038 0.56942 0)
(-0.889473 0.519236 0)
(-1.01238 0.45585 0)
(-1.14283 0.36649 0)
(-1.19841 0.329977 0)
(-1.26075 0.330228 0)
(-1.40071 0.245771 0)
(-1.59999 0.095353 0)
(-1.77062 -0.0589232 0)
(-1.73111 -0.25936 0)
(-1.52023 -0.543661 0)
(-1.28009 -0.545066 0)
(-1.07586 -0.396193 0)
(-0.776892 -0.202328 0)
(-0.806462 -0.133323 0)
(-0.951926 -0.0343671 0)
(-0.897054 0.119624 0)
(-0.965372 0.263401 0)
(-0.999429 0.234589 0)
(-0.886597 -0.127206 0)
(-0.462585 -0.814328 0)
(-0.366997 -1.02952 0)
(0.07081 -0.244431 0)
(-1.62667 1.71741 0)
(-1.88962 0.714523 0)
(-1.95538 0.406014 0)
(-1.93983 0.285567 0)
(-1.90602 0.285947 0)
(-1.90745 0.365961 0)
(-2.02893 0.436744 0)
(-2.27403 0.373531 0)
(-2.34208 0.0544122 0)
(-2.06493 -0.580591 0)
(-1.7973 -0.856011 0)
(-1.5662 -0.753254 0)
(-1.37974 -0.550909 0)
(-1.20039 -0.272443 0)
(-1.05842 -0.0960073 0)
(-0.998259 0.106213 0)
(-1.15119 0.0276702 0)
(-1.27815 0.0745015 0)
(-1.16906 0.0551607 0)
(-0.700589 -0.287912 0)
(-0.373557 -0.955272 0)
(-0.525758 -1.00258 0)
(-0.524785 -0.138462 0)
(-1.63404 3.35801 0)
(-2.15483 0.692713 0)
(-2.26302 0.400431 0)
(-2.26662 0.307524 0)
(-2.28786 0.348371 0)
(-2.46977 0.550588 0)
(-2.54682 0.628302 0)
(-2.4955 0.32832 0)
(-2.30268 -0.174564 0)
(-2.10791 -0.854706 0)
(-1.95998 -1.06752 0)
(-1.75709 -0.947678 0)
(-1.55033 -0.754975 0)
(-1.34466 -0.533198 0)
(-1.12804 -0.295639 0)
(-0.844972 0.0712431 0)
(-0.73333 0.160343 0)
(-0.727859 0.232224 0)
(-0.533973 -0.16729 0)
(-0.356373 -0.672045 0)
(-0.474724 -0.999295 0)
(-0.628972 -0.915571 0)
(-0.734103 -0.187391 0)
(-1.02236 4.91572 0)
(-1.78336 1.20712 0)
(-1.81492 0.686699 0)
(-2.18838 0.450784 0)
(-2.4897 0.539939 0)
(-2.60658 0.629874 0)
(-2.58155 0.638399 0)
(-2.46213 0.453215 0)
(-2.35013 -0.0380754 0)
(-2.30404 -0.85256 0)
(-2.25238 -1.23212 0)
(-2.02765 -1.15909 0)
(-1.77916 -0.996109 0)
(-1.49555 -0.751129 0)
(-1.24415 -0.548331 0)
(-0.967848 -0.322265 0)
(-0.693573 -0.152116 0)
(-0.473529 -0.0160277 0)
(-0.353301 -0.169947 0)
(-0.44488 -0.497768 0)
(-0.647116 -0.826319 0)
(-0.788436 -0.7436 0)
(-0.873797 0.0681757 0)
(-0.552025 6.44659 0)
(-1.06015 2.13788 0)
(-1.4127 1.31288 0)
(-1.81717 0.861366 0)
(-2.08072 0.631703 0)
(-2.16417 0.548543 0)
(-2.1354 0.391262 0)
(-2.07357 0.103885 0)
(-2.08568 -0.309776 0)
(-2.25249 -0.812729 0)
(-2.46246 -1.25832 0)
(-2.48661 -1.39908 0)
(-2.26828 -1.26957 0)
(-1.91423 -1.04491 0)
(-1.59316 -0.842543 0)
(-1.22553 -0.57044 0)
(-0.949898 -0.391797 0)
(-0.742888 -0.217472 0)
(-0.657784 -0.122314 0)
(-0.825352 -0.400729 0)
(-0.994063 -0.760811 0)
(-1.05467 -0.636949 0)
(-1.09316 0.243987 0)
(-0.322371 6.91351 0)
(-0.666633 2.84974 0)
(-1.25722 1.6691 0)
(-1.36626 1.12494 0)
(-1.45395 0.800933 0)
(-1.47184 0.627973 0)
(-1.47639 0.455743 0)
(-1.4973 0.217064 0)
(-1.59869 -0.141245 0)
(-1.83914 -0.581407 0)
(-2.20563 -1.01495 0)
(-2.5585 -1.37684 0)
(-2.74739 -1.53432 0)
(-2.67513 -1.41642 0)
(-2.36754 -1.15136 0)
(-1.90782 -0.82911 0)
(-1.53019 -0.577816 0)
(-1.24725 -0.275351 0)
(-1.20182 -0.1714 0)
(-1.36998 -0.371558 0)
(-1.50228 -0.774358 0)
(-1.41223 -0.469976 0)
(-1.3096 0.702481 0)
(-0.105959 7.05666 0)
(-0.287248 3.27972 0)
(-1.06587 1.76008 0)
(-0.914275 1.15125 0)
(-0.916377 0.799314 0)
(-0.829164 0.634095 0)
(-0.779383 0.491438 0)
(-0.765838 0.321703 0)
(-0.823563 0.0912234 0)
(-1.02258 -0.209109 0)
(-1.37611 -0.539188 0)
(-1.84431 -0.878499 0)
(-2.35094 -1.21631 0)
(-2.8003 -1.48946 0)
(-3.09176 -1.56878 0)
(-3.18581 -1.34227 0)
(-3.12825 -0.985525 0)
(-2.84457 -0.391738 0)
(-2.27882 0.0838707 0)
(-1.90022 -0.228727 0)
(-1.86379 -0.808587 0)
(-1.85547 -0.609797 0)
(-1.57149 0.220435 0)
(0.152371 6.82456 0)
(0.144679 4.1571 0)
(-0.832174 1.82242 0)
(-0.595745 1.10308 0)
(-0.634012 0.686613 0)
(-0.485909 0.501807 0)
(-0.355319 0.395496 0)
(-0.250889 0.293763 0)
(-0.219232 0.162627 0)
(-0.281337 0.00020935 0)
(-0.455732 -0.171873 0)
(-0.761676 -0.363526 0)
(-1.18181 -0.565833 0)
(-1.67921 -0.770649 0)
(-2.13481 -0.965232 0)
(-2.47554 -1.11273 0)
(-2.6701 -1.16559 0)
(-2.63399 -1.04893 0)
(-2.32771 -0.771747 0)
(-1.96628 -0.683242 0)
(-1.82125 -0.822444 0)
(-1.83601 -0.681788 0)
(-1.61864 -0.301844 0)
(0.39605 6.31421 0)
(0.599611 4.94865 0)
(-0.398159 2.1123 0)
(-0.422513 1.07335 0)
(-0.492182 0.600117 0)
(-0.382638 0.344884 0)
(-0.240413 0.215501 0)
(-0.0701108 0.152286 0)
(0.0586231 0.108389 0)
(0.106854 0.0511942 0)
(0.0579589 -0.0309951 0)
(-0.0828565 -0.131783 0)
(-0.305187 -0.249046 0)
(-0.644922 -0.381385 0)
(-1.03303 -0.543081 0)
(-1.435 -0.703541 0)
(-1.77037 -0.799028 0)
(-1.94257 -0.846341 0)
(-1.92564 -0.890896 0)
(-1.85167 -0.951507 0)
(-1.8336 -0.939222 0)
(-1.79462 -0.741125 0)
(-1.6589 -0.475103 0)
(0.604265 5.50713 0)
(1.04735 5.43812 0)
(0.296986 2.78365 0)
(-0.189806 1.18307 0)
(-0.337173 0.574811 0)
(-0.308361 0.243962 0)
(-0.216274 0.0487501 0)
(-0.0612468 -0.0429265 0)
(0.110759 -0.0485457 0)
(0.250417 -0.0154781 0)
(0.313418 0.00746353 0)
(0.285457 -0.00497719 0)
(0.178903 -0.0433905 0)
(-0.00349892 -0.113661 0)
(-0.245598 -0.248367 0)
(-0.548629 -0.394602 0)
(-0.846725 -0.550113 0)
(-1.04921 -0.693347 0)
(-1.19687 -0.805696 0)
(-1.32501 -0.888825 0)
(-1.45121 -0.953716 0)
(-1.39881 -0.935169 0)
(-1.18247 -0.799156 0)
(0.72309 4.39095 0)
(1.41264 5.51717 0)
(1.05605 3.56831 0)
(0.353704 1.63023 0)
(-0.038979 0.661476 0)
(-0.129949 0.21387 0)
(-0.100854 -0.0540234 0)
(-0.00047648 -0.20436 0)
(0.138379 -0.225693 0)
(0.287074 -0.15685 0)
(0.405393 -0.0632263 0)
(0.463381 0.0054911 0)
(0.460181 0.0364049 0)
(0.406134 0.0364938 0)
(0.30478 -0.00701908 0)
(0.114708 -0.134 0)
(-0.0566159 -0.306872 0)
(-0.233679 -0.451456 0)
(-0.427573 -0.581139 0)
(-0.633657 -0.702596 0)
(-0.854509 -0.825481 0)
(-0.935108 -0.924116 0)
(-0.883038 -0.904373 0)
(0.693955 3.13433 0)
(1.60287 5.14524 0)
(1.64861 4.10068 0)
(1.07777 2.29926 0)
(0.511448 0.996892 0)
(0.240304 0.304947 0)
(0.175108 -0.0824426 0)
(0.202253 -0.303317 0)
(0.273739 -0.357416 0)
(0.369068 -0.282688 0)
(0.463265 -0.159775 0)
(0.535556 -0.0490383 0)
(0.576957 0.0241647 0)
(0.58662 0.0587627 0)
(0.568975 0.0620018 0)
(0.493725 0.00860714 0)
(0.349873 -0.136946 0)
(0.140375 -0.293114 0)
(0.00522159 -0.404941 0)
(-0.134915 -0.519566 0)
(-0.347382 -0.64394 0)
(-0.487173 -0.804838 0)
(-0.560236 -0.960731 0)
(0.508446 1.96409 0)
(1.55287 4.42268 0)
(1.94657 4.25507 0)
(1.68398 2.88101 0)
(1.17023 1.49238 0)
(0.788295 0.568596 0)
(0.606927 0.00699421 0)
(0.538813 -0.312181 0)
(0.520172 -0.412028 0)
(0.533256 -0.345602 0)
(0.562169 -0.217053 0)
(0.593664 -0.098886 0)
(0.625059 -0.0141237 0)
(0.651208 0.0360852 0)
(0.671292 0.0621963 0)
(0.67318 0.0662642 0)
(0.626109 0.0206896 0)
(0.495312 -0.102547 0)
(0.298294 -0.272087 0)
(0.159403 -0.402538 0)
(0.0408173 -0.499631 0)
(-0.0672549 -0.64966 0)
(-0.184858 -0.828097 0)
(0.231956 1.05069 0)
(1.28051 3.53326 0)
(1.92059 4.02995 0)
(1.97489 3.1558 0)
(1.67702 1.92434 0)
(1.33134 0.909899 0)
(1.08988 0.207463 0)
(0.931807 -0.215659 0)
(0.816055 -0.369321 0)
(0.737376 -0.326251 0)
(0.693088 -0.209704 0)
(0.670691 -0.104786 0)
(0.666195 -0.0328876 0)
(0.676722 0.0106773 0)
(0.696812 0.0345783 0)
(0.723539 0.0491361 0)
(0.74224 0.0556062 0)
(0.720415 0.0199191 0)
(0.62742 -0.0849056 0)
(0.459381 -0.247773 0)
(0.319022 -0.400054 0)
(0.240638 -0.553553 0)
(0.148675 -0.737384 0)
(-0.0464024 0.494459 0)
(0.864673 2.67342 0)
(1.6037 3.53407 0)
(1.9097 3.12039 0)
(1.86798 2.15966 0)
(1.66799 1.19321 0)
(1.4546 0.438558 0)
(1.25811 -0.0412629 0)
(1.0718 -0.236208 0)
(0.917975 -0.227185 0)
(0.813368 -0.141995 0)
(0.748628 -0.0657804 0)
(0.71253 -0.0191413 0)
(0.699527 0.00490811 0)
(0.703578 0.0140391 0)
(0.722041 0.0160019 0)
(0.754121 0.0221544 0)
(0.789566 0.0259565 0)
(0.798386 -0.0104967 0)
(0.751325 -0.12121 0)
(0.64884 -0.274343 0)
(0.540127 -0.452882 0)
(0.443211 -0.642501 0)
(-0.229011 0.273093 0)
(0.43682 1.99019 0)
(1.11846 2.92648 0)
(1.56936 2.84286 0)
(1.74643 2.16564 0)
(1.7255 1.33952 0)
(1.60095 0.627162 0)
(1.41651 0.158344 0)
(1.20514 -0.0484704 0)
(1.01876 -0.0762004 0)
(0.886861 -0.0373504 0)
(0.802888 -0.000388504 0)
(0.751112 0.0171673 0)
(0.722257 0.0193662 0)
(0.710766 0.0116181 0)
(0.71273 -0.00224486 0)
(0.728899 -0.016048 0)
(0.761965 -0.0232928 0)
(0.805557 -0.0406605 0)
(0.829565 -0.0876886 0)
(0.814723 -0.200532 0)
(0.758891 -0.362516 0)
(0.658896 -0.522311 0)
(-0.264948 0.287158 0)
(0.074719 1.47503 0)
(0.629235 2.3329 0)
(1.11997 2.4316 0)
(1.43335 1.98852 0)
(1.55945 1.33918 0)
(1.53152 0.742267 0)
(1.39032 0.339888 0)
(1.19963 0.145135 0)
(1.02704 0.0834899 0)
(0.902749 0.0735171 0)
(0.821316 0.0707424 0)
(0.768318 0.061464 0)
(0.734148 0.0449502 0)
(0.71375 0.0232344 0)
(0.703317 -0.00209554 0)
(0.701676 -0.0302058 0)
(0.711761 -0.0586772 0)
(0.737092 -0.0875283 0)
(0.769206 -0.130792 0)
(0.788237 -0.19874 0)
(0.775322 -0.294381 0)
(0.712847 -0.405896 0)
(-0.218566 0.416481 0)
(-0.147254 1.14764 0)
(0.259747 1.83248 0)
(0.714141 1.98232 0)
(1.07587 1.70475 0)
(1.28102 1.23738 0)
(1.32015 0.792165 0)
(1.23388 0.48018 0)
(1.09625 0.304775 0)
(0.968314 0.215847 0)
(0.872559 0.167141 0)
(0.80604 0.133473 0)
(0.759858 0.103626 0)
(0.727188 0.0732645 0)
(0.704004 0.0416147 0)
(0.687584 0.00903376 0)
(0.676192 -0.0252499 0)
(0.669528 -0.0629062 0)
(0.669761 -0.104637 0)
(0.677116 -0.152172 0)
(0.681612 -0.21135 0)
(0.670395 -0.285333 0)
(0.626645 -0.358866 0)
(-0.132722 0.589074 0)
(-0.190648 1.00964 0)
(0.0663634 1.4513 0)
(0.439384 1.5697 0)
(0.775637 1.40188 0)
(0.990429 1.09715 0)
(1.06219 0.795171 0)
(1.03 0.564562 0)
(0.954632 0.40884 0)
(0.877766 0.305802 0)
(0.814511 0.234955 0)
(0.766004 0.182535 0)
(0.729311 0.139312 0)
(0.701077 0.0998106 0)
(0.678686 0.0617883 0)
(0.660475 0.0246723 0)
(0.645361 -0.0125261 0)
(0.632034 -0.0521127 0)
(0.619615 -0.0958707 0)
(0.607957 -0.143913 0)
(0.593904 -0.19611 0)
(0.571317 -0.251348 0)
(0.528679 -0.303683 0)
(-0.0481458 0.716592 0)
(-0.118701 0.976953 0)
(0.0282564 1.19089 0)
(0.303796 1.24545 0)
(0.568982 1.14475 0)
(0.751298 0.960378 0)
(0.833388 0.764134 0)
(0.843079 0.594278 0)
(0.817535 0.459774 0)
(0.780873 0.35696 0)
(0.744154 0.278932 0)
(0.711633 0.218115 0)
(0.684246 0.167699 0)
(0.66122 0.122922 0)
(0.641321 0.0812354 0)
(0.623699 0.0414752 0)
(0.607879 0.00265535 0)
(0.593019 -0.03695 0)
(0.577294 -0.0788819 0)
(0.55917 -0.123309 0)
(0.536979 -0.169094 0)
(0.508911 -0.214434 0)
(0.470763 -0.254388 0)
(0.00223029 0.756423 0)
(-0.0213152 0.966071 0)
(0.0709715 1.02432 0)
(0.257681 1.01912 0)
(0.445282 0.952937 0)
(0.584907 0.842216 0)
(0.664305 0.713202 0)
(0.696954 0.586757 0)
(0.701004 0.474582 0)
(0.689723 0.380946 0)
(0.671567 0.304831 0)
(0.651637 0.242381 0)
(0.632412 0.189276 0)
(0.614548 0.142117 0)
(0.597861 0.0986952 0)
(0.58206 0.0576703 0)
(0.566945 0.0180718 0)
(0.552031 -0.0211784 0)
(0.536048 -0.0611879 0)
(0.517523 -0.101891 0)
(0.495022 -0.142493 0)
(0.46794 -0.181669 0)
(0.434368 -0.216464 0)
(0.017707 0.737338 0)
(0.0422333 0.933828 0)
(0.119331 0.908544 0)
(0.24562 0.86665 0)
(0.374042 0.816703 0)
(0.477333 0.746194 0)
(0.547027 0.657402 0)
(0.587119 0.561584 0)
(0.6051 0.469761 0)
(0.608138 0.388124 0)
(0.602235 0.317929 0)
(0.59178 0.257603 0)
(0.579406 0.204769 0)
(0.566358 0.157286 0)
(0.55307 0.11352 0)
(0.539619 0.0722902 0)
(0.525939 0.0327478 0)
(0.511698 -0.00577797 0)
(0.496265 -0.0438271 0)
(0.478724 -0.0814216 0)
(0.457981 -0.11807 0)
(0.433861 -0.152925 0)
(0.405421 -0.183831 0)
(0.0173427 0.699503 0)
(0.0662454 0.876447 0)
(0.141897 0.815891 0)
(0.234955 0.759611 0)
(0.326218 0.719137 0)
(0.403714 0.670314 0)
(0.46238 0.605387 0)
(0.502215 0.5307 0)
(0.525707 0.455376 0)
(0.536518 0.385214 0)
(0.538532 0.322117 0)
(0.535 0.265742 0)
(0.528171 0.214962 0)
(0.51938 0.168573 0)
(0.50932 0.125516 0)
(0.498278 0.0849332 0)
(0.48629 0.0461763 0)
(0.4732 0.00879428 0)
(0.458671 -0.0274407 0)
(0.442281 -0.0625912 0)
(0.42343 -0.0963442 0)
(0.40202 -0.128141 0)
(0.377386 -0.15658 0)
(0.0150107 0.659099 0)
(0.0697633 0.809409 0)
(0.142851 0.736174 0)
(0.217416 0.678708 0)
(0.286806 0.64586 0)
(0.347455 0.609551 0)
(0.39693 0.559223 0)
(0.434068 0.499113 0)
(0.4592 0.436558 0)
(0.474052 0.376322 0)
(0.481013 0.320238 0)
(0.482344 0.268518 0)
(0.479791 0.220761 0)
(0.47454 0.176398 0)
(0.467318 0.134842 0)
(0.458515 0.0955598 0)
(0.448278 0.0581213 0)
(0.436584 0.0222393 0)
(0.423327 -0.0121989 0)
(0.408299 -0.0453547 0)
(0.391223 -0.0768728 0)
(0.372245 -0.106458 0)
(0.350886 -0.13315 0)
(0.0140807 0.620178 0)
(0.0668331 0.743619 0)
(0.133932 0.666653 0)
(0.196174 0.613832 0)
(0.251948 0.587703 0)
(0.301538 0.559292 0)
(0.343999 0.518426 0)
(0.377951 0.468684 0)
(0.40289 0.416005 0)
(0.419559 0.364085 0)
(0.429413 0.314427 0)
(0.433982 0.267443 0)
(0.434553 0.223138 0)
(0.432085 0.181348 0)
(0.42724 0.141818 0)
(0.42044 0.104271 0)
(0.41192 0.0684548 0)
(0.401801 0.0341923 0)
(0.389916 0.00140875 0)
(0.376404 -0.0299223 0)
(0.361287 -0.0596337 0)
(0.344552 -0.0875057 0)
(0.325952 -0.112866 0)
(0.0136563 0.583426 0)
(0.0623242 0.682936 0)
(0.12205 0.606308 0)
(0.174828 0.560071 0)
(0.221242 0.539654 0)
(0.263105 0.516569 0)
(0.300102 0.482237 0)
(0.330893 0.440177 0)
(0.354722 0.39525 0)
(0.37187 0.350226 0)
(0.383227 0.306244 0)
(0.389816 0.263762 0)
(0.392556 0.222994 0)
(0.392188 0.184015 0)
(0.389276 0.146788 0)
(0.384225 0.111211 0)
(0.377305 0.077166 0)
(0.368679 0.04456 0)
(0.358399 0.0133388 0)
(0.346534 -0.0162832 0)
(0.333166 -0.0444541 0)
(0.318522 -0.070926 0)
(0.302309 -0.095205 0)
(0.0130948 0.549079 0)
(0.0573026 0.628236 0)
(0.109777 0.554075 0)
(0.154916 0.514663 0)
(0.194382 0.49891 0)
(0.230458 0.479585 0)
(0.263021 0.450035 0)
(0.290827 0.413888 0)
(0.313114 0.375143 0)
(0.32996 0.33583 0)
(0.341916 0.296775 0)
(0.349659 0.258413 0)
(0.353834 0.221059 0)
(0.355001 0.184916 0)
(0.353624 0.150078 0)
(0.350065 0.116562 0)
(0.344593 0.0843471 0)
(0.337406 0.053419 0)
(0.328636 0.0237906 0)
(0.318349 -0.00444186 0)
(0.306655 -0.0312218 0)
(0.293848 -0.0564614 0)
(0.279702 -0.0798054 0)
(0.0123944 0.51734 0)
(0.0521672 0.579492 0)
(0.0980107 0.508854 0)
(0.136858 0.475809 0)
(0.170887 0.463759 0)
(0.202387 0.447185 0)
(0.231228 0.421314 0)
(0.256279 0.389864 0)
(0.276858 0.356126 0)
(0.292965 0.321558 0)
(0.304945 0.286741 0)
(0.313243 0.252072 0)
(0.318308 0.217898 0)
(0.320557 0.184485 0)
(0.32036 0.152001 0)
(0.318027 0.120538 0)
(0.31381 0.0901462 0)
(0.307909 0.0608626 0)
(0.300475 0.0327322 0)
(0.291634 0.00582904 0)
(0.281509 -0.0197214 0)
(0.270356 -0.0438711 0)
(0.258028 -0.0663681 0)
(0.0116814 0.488225 0)
(0.0472261 0.536374 0)
(0.0871311 0.469682 0)
(0.120705 0.442271 0)
(0.150303 0.433099 0)
(0.178021 0.41859 0)
(0.203658 0.395662 0)
(0.226181 0.368037 0)
(0.245019 0.33841 0)
(0.26015 0.307802 0)
(0.271791 0.276621 0)
(0.280232 0.245219 0)
(0.285782 0.213945 0)
(0.288748 0.183089 0)
(0.289419 0.152854 0)
(0.288057 0.123377 0)
(0.284886 0.0947512 0)
(0.280099 0.0670511 0)
(0.273857 0.0403463 0)
(0.266315 0.0147261 0)
(0.257596 -0.00970371 0)
(0.24794 -0.0329094 0)
(0.237277 -0.0546818 0)
(0.0110339 0.46158 0)
(0.0426736 0.498437 0)
(0.0772685 0.435746 0)
(0.106356 0.413173 0)
(0.132226 0.406183 0)
(0.156715 0.393253 0)
(0.179531 0.372748 0)
(0.199732 0.348298 0)
(0.21686 0.322082 0)
(0.230892 0.294798 0)
(0.241964 0.266733 0)
(0.250263 0.238202 0)
(0.255997 0.209541 0)
(0.259392 0.181035 0)
(0.260672 0.152903 0)
(0.260054 0.125303 0)
(0.257738 0.0983523 0)
(0.253904 0.0721476 0)
(0.248716 0.046773 0)
(0.242344 0.0223209 0)
(0.234885 -0.0011271 0)
(0.226609 -0.0234814 0)
(0.217536 -0.0446559 0)
(0.0104885 0.437159 0)
(0.0386025 0.465217 0)
(0.0684133 0.406383 0)
(0.0936366 0.387863 0)
(0.116295 0.382477 0)
(0.137961 0.370773 0)
(0.158253 0.352306 0)
(0.176315 0.330525 0)
(0.191792 0.307164 0)
(0.204671 0.282681 0)
(0.215035 0.257288 0)
(0.222997 0.231271 0)
(0.2287 0.20494 0)
(0.232306 0.178568 0)
(0.233993 0.15237 0)
(0.233939 0.126509 0)
(0.23232 0.101116 0)
(0.229302 0.0762968 0)
(0.225046 0.0521407 0)
(0.219718 0.0287355 0)
(0.213454 0.0061462 0)
(0.206476 -0.0154974 0)
(0.198832 -0.0362078 0)
(0.0100541 0.414682 0)
(0.0350314 0.436264 0)
(0.0605025 0.38106 0)
(0.0823606 0.365848 0)
(0.102194 0.36158 0)
(0.121348 0.35084 0)
(0.139356 0.334117 0)
(0.155439 0.314597 0)
(0.169343 0.293636 0)
(0.181061 0.271522 0)
(0.190638 0.248422 0)
(0.198141 0.224595 0)
(0.203666 0.200328 0)
(0.20733 0.175869 0)
(0.209273 0.151422 0)
(0.209643 0.127148 0)
(0.208589 0.103179 0)
(0.206262 0.0796233 0)
(0.20281 0.0565699 0)
(0.198389 0.0341004 0)
(0.193136 0.0122742 0)
(0.187262 -0.0088089 0)
(0.18083 -0.0291699 0)
(0.00971428 0.393884 0)
(0.0319159 0.41114 0)
(0.0534654 0.359346 0)
(0.0723576 0.346742 0)
(0.0896536 0.343182 0)
(0.106547 0.333212 0)
(0.122465 0.317992 0)
(0.136713 0.300395 0)
(0.149127 0.281456 0)
(0.159703 0.261346 0)
(0.168458 0.240208 0)
(0.175429 0.218284 0)
(0.180677 0.195828 0)
(0.184286 0.173068 0)
(0.186361 0.150191 0)
(0.18702 0.12735 0)
(0.186387 0.104673 0)
(0.184588 0.0822674 0)
(0.18175 0.0602193 0)
(0.17801 0.0386028 0)
(0.173495 0.0174692 0)
(0.168383 -0.00309572 0)
(0.16272 -0.0231397 0)
(0.00943152 0.374553 0)
(0.0291667 0.389401 0)
(0.0472196 0.340868 0)
(0.063465 0.330244 0)
(0.078443 0.327045 0)
(0.093276 0.317691 0)
(0.107263 0.303771 0)
(0.119801 0.287807 0)
(0.130806 0.270568 0)
(0.140268 0.252149 0)
(0.148183 0.232687 0)
(0.154568 0.212405 0)
(0.159453 0.191534 0)
(0.162892 0.170277 0)
(0.164961 0.148804 0)
(0.165745 0.127262 0)
(0.165336 0.105771 0)
(0.163832 0.0844353 0)
(0.161331 0.0633368 0)
(0.157947 0.04254 0)
(0.153786 0.0220833 0)
(0.149017 0.00203774 0)
(0.143654 -0.0176406 0)
(0.00915899 0.356558 0)
(0.0266855 0.370637 0)
(0.0416577 0.325293 0)
(0.0555116 0.316111 0)
(0.0683425 0.312987 0)
(0.0812778 0.304123 0)
(0.0934551 0.291322 0)
(0.104385 0.27674 0)
(0.114045 0.260922 0)
(0.122409 0.243928 0)
(0.12946 0.225896 0)
(0.135192 0.207035 0)
(0.139611 0.187554 0)
(0.142742 0.167635 0)
(0.144632 0.147435 0)
(0.145333 0.12709 0)
(0.144907 0.106717 0)
(0.143421 0.0864125 0)
(0.140954 0.0662493 0)
(0.1376 0.0462775 0)
(0.133459 0.0265217 0)
(0.128692 0.00705334 0)
(0.123301 -0.0121878 0)
(0.00884752 0.339808 0)
(0.0243729 0.354434 0)
(0.0366407 0.312319 0)
(0.0483093 0.304136 0)
(0.0591263 0.300851 0)
(0.0702883 0.292373 0)
(0.080739 0.280531 0)
(0.0901357 0.267109 0)
(0.0984905 0.252477 0)
(0.105751 0.236682 0)
(0.111892 0.219877 0)
(0.116885 0.202257 0)
(0.120715 0.184008 0)
(0.123386 0.165299 0)
(0.124915 0.146274 0)
(0.12533 0.12706 0)
(0.124668 0.107762 0)
(0.12298 0.088468 0)
(0.120337 0.0692331 0)
(0.116829 0.0500861 0)
(0.112562 0.0310391 0)
(0.107696 0.01216 0)
(0.10225 -0.00665335 0)
(0.00846463 0.32441 0)
(0.022178 0.340595 0)
(0.0320852 0.301767 0)
(0.0417183 0.294201 0)
(0.0506198 0.290577 0)
(0.0601067 0.28241 0)
(0.0688898 0.271382 0)
(0.076815 0.258924 0)
(0.0838888 0.245276 0)
(0.0900313 0.2305 0)
(0.0952099 0.214757 0)
(0.0993795 0.198228 0)
(0.102513 0.181083 0)
(0.104599 0.163478 0)
(0.105636 0.145545 0)
(0.105633 0.127397 0)
(0.104622 0.109125 0)
(0.102651 0.0907987 0)
(0.0997913 0.0724517 0)
(0.0961339 0.0540865 0)
(0.0917952 0.0357042 0)
(0.0869392 0.0173412 0)
(0.0816273 -0.00117483 0)
(0.00790784 0.309938 0)
(0.0198308 0.328371 0)
(0.0276788 0.293228 0)
(0.0353947 0.286005 0)
(0.0424371 0.281907 0)
(0.0502895 0.273969 0)
(0.0574097 0.263617 0)
(0.063889 0.251956 0)
(0.0696698 0.239132 0)
(0.0746587 0.225239 0)
(0.0788226 0.210435 0)
(0.0821076 0.194881 0)
(0.0844862 0.178733 0)
(0.0859402 0.162138 0)
(0.0864555 0.145215 0)
(0.0860443 0.128056 0)
(0.0847428 0.110731 0)
(0.0825977 0.0932913 0)
(0.0796753 0.0757473 0)
(0.0760593 0.0580762 0)
(0.0718635 0.0402601 0)
(0.0672415 0.0222692 0)
(0.0622738 0.00387737 0)
(0.00742109 0.29865 0)
(0.0179541 0.319411 0)
(0.0241114 0.287362 0)
(0.0300552 0.280161 0)
(0.0354818 0.275619 0)
(0.041954 0.267885 0)
(0.0476464 0.258042 0)
(0.05291 0.246988 0)
(0.057585 0.234794 0)
(0.0615852 0.221598 0)