/*--------------------------------*- C++ -*----------------------------------*\
| =========                 |                                                 |
| \\      /  F ield         | OpenFOAM: The Open Source CFD Toolbox           |
|  \\    /   O peration     | Version:  2.3.0                                 |
|   \\  /    A nd           | Web:      www.OpenFOAM.org                      |
|    \\/     M anipulation  |                                                 |
\*---------------------------------------------------------------------------*/
FoamFile
{
    version     2.0;
    format      ascii;
    class       surfaceScalarField;
    location    "24";
    object      phi;
}
// * * * * * * * * * * * * * * * * * * * * * * * * * * * * * * * * * * * * * //

dimensions      [0 3 -1 0 0 0 0];

internalField   nonuniform List<scalar> 
3650
(
0.00020318
-0.000168177
0.000399648
-0.000161454
0.000548977
-0.000114296
0.000655219
-7.11981e-05
0.000729692
-3.94269e-05
0.000782561
-1.78277e-05
0.000821462
-3.8665e-06
0.000851208
5.28254e-06
0.000876016
1.02174e-05
0.000895233
1.58061e-05
0.00090728
2.29752e-05
0.00090409
3.82082e-05
0.000879546
5.95556e-05
0.000829785
8.47702e-05
0.000757425
0.000107366
0.000669848
0.000122583
0.000574684
0.000130177
0.000472614
0.000137094
0.000378119
0.000129521
0.000294758
0.000118387
0.000206274
0.000123511
0.000127532
0.000113768
6.00813e-05
0.000102478
8.10013e-06
8.7006e-05
4.3116e-05
0.000148321
-0.000316504
0.000266514
-0.00027965
0.000333514
-0.000181292
0.000362253
-9.99205e-05
0.000372186
-4.93373e-05
0.000375851
-2.14691e-05
0.000382836
-1.08286e-05
0.000402379
-1.42355e-05
0.000433886
-2.12616e-05
0.000467256
-1.7534e-05
0.000497661
-7.40018e-06
0.00051537
2.05301e-05
0.000517328
5.7635e-05
0.000497956
0.000104185
0.000462352
0.000143014
0.000417306
0.000167679
0.000362948
0.000184596
0.000307864
0.000192247
0.00024537
0.00019208
0.000183836
0.000179981
0.000148036
0.000159367
0.000130657
0.000131199
0.000115463
0.000117723
8.76886e-05
0.000114832
0.000130848
5.53809e-05
-0.000371907
8.05812e-05
-0.000304885
6.57263e-05
-0.000166466
5.34993e-05
-8.7704e-05
4.24654e-05
-3.82994e-05
4.09805e-05
-1.99737e-05
5.66177e-05
-2.6454e-05
9.21591e-05
-4.97663e-05
0.000134447
-6.35384e-05
0.000171041
-5.41156e-05
0.000201633
-3.79774e-05
0.000219438
2.7428e-06
0.000214969
6.21292e-05
0.000188741
0.00013045
0.000161315
0.000170488
0.000129582
0.000199476
9.78237e-05
0.000216431
7.11074e-05
0.000219046
4.72489e-05
0.000216011
2.54317e-05
0.000201858
1.57263e-05
0.000169122
1.02348e-05
0.000136734
2.74509e-06
0.000125258
-6.04507e-07
0.00011823
0.000130292
-1.19178e-06
-0.000370739
-1.36456e-05
-0.000292477
-2.00632e-05
-0.000160081
-3.22357e-06
-0.000104554
2.41011e-05
-6.56199e-05
5.26229e-05
-4.84842e-05
8.15052e-05
-5.53264e-05
0.000109472
-7.77243e-05
0.000113189
-6.72463e-05
6.50594e-05
-5.97554e-06
-1.36019e-05
4.06942e-05
-9.87981e-05
8.79539e-05
-0.000180728
0.000144096
-0.000246062
0.000195848
-0.000296026
0.000220534
-0.000329346
0.000232897
-0.000339459
0.000226648
-0.000334206
0.000213889
-0.000309986
0.000191869
-0.000274575
0.000166512
-0.000237554
0.000132151
-0.000206516
0.000105743
-0.00015979
7.85814e-05
-9.04495e-05
4.89363e-05
3.98898e-05
-2.75076e-05
-0.000343254
-4.78765e-05
-0.000272148
-4.17169e-05
-0.000166269
-2.65538e-05
-0.000119731
-2.98364e-06
-8.91934e-05
1.00181e-05
-6.14826e-05
-1.70651e-05
-2.82398e-05
-9.88772e-05
4.08907e-06
-0.000206318
4.01977e-05
-0.000323615
0.000111335
-0.000435818
0.000152922
-0.000520375
0.000172547
-0.000572098
0.000195876
-0.000581946
0.000205776
-0.000568837
0.000207514
-0.000539252
0.000203401
-0.000499409
0.000186882
-0.00045684
0.000171387
-0.000406822
0.000141908
-0.00034907
0.000108809
-0.000289562
7.26871e-05
-0.000228177
4.43998e-05
-0.000160833
1.12763e-05
-9.11627e-05
-2.07036e-05
-5.1247e-05
-4.63747e-05
-0.0002969
-8.95838e-05
-0.000228971
-0.000117102
-0.000138778
-0.000146187
-9.06639e-05
-0.0001867
-4.86903e-05
-0.000247138
-1.04628e-06
-0.000329806
5.44318e-05
-0.000431848
0.000106139
-0.000523948
0.000132313
-0.00057026
0.000157677
-0.000596126
0.000178833
-0.000609562
0.000186035
-0.000605785
0.000192159
-0.000586399
0.000186452
-0.000554504
0.000175679
-0.000509742
0.000158694
-0.000451769
0.000128957
-0.000382513
0.000102173
-0.000300371
5.98046e-05
-0.000221213
2.96829e-05
-0.000156603
8.10667e-06
-0.000105903
-6.27284e-06
-6.92893e-05
-2.53161e-05
-4.21372e-05
-4.78399e-05
-9.33752e-05
-7.417e-05
-0.000222748
-0.000135984
-0.000167181
-0.00018793
-8.685e-05
-0.000240036
-3.85694e-05
-0.000305077
1.6347e-05
-0.00037774
7.16208e-05
-0.000439295
0.000116
-0.000483884
0.000150752
-0.000524626
0.000173088
-0.000552503
0.000185596
-0.000563544
0.000189924
-0.000560499
0.000183043
-0.000536619
0.000168332
-0.000492717
0.000142598
-0.00042639
0.000109394
-0.000339184
7.1525e-05
-0.000244181
3.39874e-05
-0.000150579
8.59965e-06
-7.65571e-05
-1.41943e-05
-2.94994e-05
-1.73542e-05
-9.67233e-06
-1.17018e-05
-2.98331e-06
-1.29446e-05
-6.04004e-06
-2.22457e-05
-6.86253e-06
-4.70081e-05
-0.000100237
-6.1968e-05
-0.000160792
-0.000121447
-0.000107715
-0.000173015
-3.52857e-05
-0.000223855
1.22747e-05
-0.000275191
6.76956e-05
-0.000328638
0.000125091
-0.000378538
0.000165935
-0.000419615
0.000191874
-0.000447907
0.000201431
-0.000462823
0.000200568
-0.000459267
0.000186424
-0.000432722
0.000156549
-0.000380576
0.000116229
-0.000313368
7.54288e-05
-0.000234572
3.06299e-05
-0.000155891
-7.13028e-06
-9.16189e-05
-3.02631e-05
-4.26644e-05
-4.03364e-05
-2.05502e-05
-3.62919e-05
-1.60798e-05
-2.1807e-05
-1.72804e-05
-1.04832e-05
-1.7522e-05
-1.26853e-05
-1.43184e-05
-2.54347e-05
-3.3659e-06
-5.7951e-05
-0.000103605
-6.02911e-05
-0.000100506
-0.00010096
-6.70473e-05
-0.000132534
-3.70157e-06
-0.000171177
5.09366e-05
-0.000199531
9.60783e-05
-0.000224395
0.000149998
-0.00024818
0.000189775
-0.000264759
0.000208518
-0.000274561
0.0002113
-0.000276801
0.000202873
-0.000263831
0.000173512
-0.00023782
0.000130586
-0.000210803
8.92493e-05
-0.00018629
5.09477e-05
-0.000166848
1.12115e-05
-0.000160179
-1.37804e-05
-0.000166268
-2.41582e-05
-0.000182811
-2.37777e-05
-0.000197902
-2.11834e-05
-0.000196806
-2.28821e-05
-0.000171288
-3.59793e-05
-0.000128235
-5.57199e-05
-7.46048e-05
-7.90513e-05
-2.59041e-05
-0.000106646
-0.000129513
-5.25462e-05
-4.79558e-05
-7.86345e-05
-4.09512e-05
-7.95172e-05
-2.80035e-06
-7.79551e-05
4.9404e-05
-7.51186e-05
9.32811e-05
-6.59854e-05
0.000140918
-5.95644e-05
0.000183422
-5.76629e-05
0.000206695
-6.24561e-05
0.000216174
-6.69942e-05
0.000207486
-7.61956e-05
0.000182776
-9.22706e-05
0.00014671
-0.000116611
0.000113628
-0.00014544
7.98077e-05
-0.000175417
4.12131e-05
-0.000198989
9.81096e-06
-0.000219142
-3.98666e-06
-0.000242964
6.68636e-08
-0.000254796
-9.32582e-06
-0.000243709
-3.39443e-05
-0.000209251
-7.04174e-05
-0.000157823
-0.000107134
-0.000100886
-0.00013598
-4.95579e-05
-0.000157975
-0.000179077
-2.44611e-05
-2.34828e-05
-3.28998e-05
-3.24997e-05
-1.36154e-05
-2.20651e-05
2.93537e-05
6.46401e-06
7.78719e-05
4.4802e-05
0.000131447
8.73962e-05
0.000182984
0.000131956
0.000220831
0.000168934
0.0002387
0.0001984
0.000235016
0.000211264
0.000206509
0.000211367
0.000158327
0.00019496
0.00010374
0.000168267
5.12487e-05
0.000132339
-5.88769e-06
9.83798e-05
-5.76371e-05
6.15839e-05
-0.000101289
3.96891e-05
-0.000126426
2.52296e-05
-0.000137087
1.35812e-06
-0.000146915
-2.40981e-05
-0.000152969
-6.43514e-05
-0.000136739
-0.000123358
-0.000104325
-0.000168393
-5.65574e-05
-0.000205746
-0.000235645
1.67853e-05
-4.02527e-05
3.98456e-05
-5.55472e-05
6.98002e-05
-5.20034e-05
0.000108217
-3.19304e-05
0.000155164
-2.11278e-06
0.000209083
3.35205e-05
0.000272561
6.85344e-05
0.000339571
0.000101997
0.000403662
0.000134397
0.000455723
0.0001593
0.00049246
0.000174727
0.000510221
0.000177287
0.00050911
0.000169452
0.000489891
0.000151613
0.000457951
0.000130359
0.000420094
9.94678e-05
0.000379716
8.00895e-05
0.000346959
5.80032e-05
0.00031166
3.66702e-05
0.000264708
2.28603e-05
0.000212953
-1.25945e-05
0.000151209
-6.16162e-05
8.06209e-05
-9.78093e-05
2.77958e-05
-0.00015293
-0.000207862
7.93392e-05
-0.000119579
0.000152927
-0.000129125
0.000216199
-0.000115262
0.00026452
-8.02313e-05
0.000300721
-3.82846e-05
0.000330361
3.91861e-06
0.000357285
4.1658e-05
0.0003863
7.30397e-05
0.000419817
0.000100947
0.000457174
0.000122017
0.000492638
0.00013934
0.000518254
0.000151744
0.000534104
0.000153668
0.000537617
0.000148155
0.000531736
0.000136285
0.000515551
0.000115686
0.000498347
9.73196e-05
0.000479435
7.69349e-05
0.000458992
5.71285e-05
0.000436317
4.55466e-05
0.000395427
2.82997e-05
0.000318205
1.56051e-05
0.000220613
-2.20203e-07
0.00011528
-4.7601e-05
-9.25911e-05
0.000109556
-0.000229132
0.000207275
-0.000226842
0.000285266
-0.000193246
0.000343428
-0.000138375
0.000385169
-7.99974e-05
0.000415027
-2.5902e-05
0.000436205
2.05245e-05
0.000445758
6.35365e-05
0.000449457
9.7303e-05
0.000450126
0.000121408
0.000452047
0.00013748
0.000457841
0.000146013
0.00046446
0.00014711
0.000468277
0.000144394
0.000468563
0.000136046
0.000462007
0.000122283
0.000451941
0.00010742
0.000436815
9.209e-05
0.000412455
8.15135e-05
0.000379486
7.85386e-05
0.000326481
8.13267e-05
0.000250478
9.16315e-05
0.000170298
7.99807e-05
9.12466e-05
3.14599e-05
-1.34373e-06
9.7159e-05
-0.000326309
0.000181173
-0.000310871
0.000242742
-0.000254821
0.000285507
-0.000181132
0.000316598
-0.000111066
0.000340945
-5.02159e-05
0.000360985
5.24942e-07
0.00038039
4.41761e-05
0.000392538
8.5204e-05
0.000396584
0.000117413
0.000394718
0.000139397
0.000388697
0.000152087
0.000379293
0.000156565
0.000367571
0.000156165
0.000353812
0.000149853
0.000337501
0.000138638
0.000321427
0.000123533
0.000305298
0.000108255
0.000285039
0.000101808
0.000257518
0.000106097
0.000213858
0.000125031
0.000155557
0.000149983
9.7083e-05
0.000138497
4.54966e-05
8.30685e-05
4.41632e-05
6.42012e-05
-0.000390547
0.000117255
-0.000363958
0.000156011
-0.0002936
0.000185792
-0.000210918
0.000202555
-0.000127818
0.000210859
-5.84964e-05
0.00021661
-5.19265e-06
0.000228411
3.24127e-05
0.00024981
6.38449e-05
0.000268111
9.91546e-05
0.000276917
0.000130638
0.000276751
0.000152298
0.000269793
0.00016357
0.000260295
0.000165709
0.00024727
0.000162923
0.000230816
0.000155137
0.000213915
0.000140477
0.000198779
0.000123432
0.000182125
0.000118503
0.00015837
0.000129898
0.000119189
0.000164271
7.49119e-05
0.000194328
4.40582e-05
0.000169402
2.43712e-05
0.000102782
6.85496e-05
3.6902e-05
-0.000427496
6.71505e-05
-0.000394253
9.33158e-05
-0.000319801
0.000112309
-0.000229932
0.000117891
-0.000133411
0.000114462
-5.50596e-05
0.000103912
5.3814e-06
8.63289e-05
5.00311e-05
8.33948e-05
6.6815e-05
9.62586e-05
8.63288e-05
0.000112793
0.000114144
0.00012673
0.000138405
0.00013537
0.000154972
0.000139312
0.00016181
0.000139595
0.000162684
0.000136272
0.000158503
0.000128953
0.000147837
0.000117254
0.000135171
0.000100027
0.000135773
6.25035e-05
0.000167476
1.65428e-05
0.000210305
-1.24882e-05
0.000223435
-9.38865e-06
0.000166351
-5.8731e-06
9.92932e-05
6.26934e-05
1.94225e-05
-0.000446968
3.76482e-05
-0.000412533
4.8788e-05
-0.000330991
4.05241e-05
-0.000221709
2.60617e-05
-0.000118975
1.38761e-05
-4.2878e-05
-3.16539e-06
2.24386e-05
-3.07607e-05
7.76632e-05
-5.63045e-05
9.23971e-05
-6.11852e-05
9.12445e-05
-5.13896e-05
0.000104385
-3.69121e-05
0.000123966
-2.15085e-05
0.000139609
-7.18415e-06
0.000147526
4.62833e-06
0.000150912
1.30715e-05
0.0001501
1.48727e-05
0.000146076
1.50667e-06
0.000148577
-4.37397e-05
0.000181071
-0.00010484
0.000228649
-0.00014311
0.000248662
-0.000129864
0.000210263
-9.0441e-05
0.000126967
-4.92378e-05
5.81146e-05
1.34733e-05
-1.84881e-06
-0.00044517
-1.21751e-05
-0.000402264
-3.85259e-05
-0.000304697
-7.67053e-05
-0.000183578
-0.000104672
-9.10353e-05
-0.000120502
-2.7054e-05
-0.000133624
3.55739e-05
-0.00014546
8.9536e-05
-0.000161531
0.00010851
-0.000167663
9.74103e-05
-0.000160425
9.71783e-05
-0.000147713
0.000111287
-0.000135841
0.000127773
-0.000125669
0.000137391
-0.000115317
0.000140597
-0.000109024
0.000143846
-0.000123897
0.000160991
-0.000180927
0.000205662
-0.000247434
0.000247655
-0.00028097
0.000262283
-0.000266192
0.000233976
-0.00021647
0.000160598
-0.000155566
6.60953e-05
-7.78868e-05
-1.95424e-05
-6.43978e-05
-2.47344e-05
-0.000420486
-5.72651e-05
-0.000369792
-9.93175e-05
-0.000262705
-0.00014032
-0.00014262
-0.000167981
-6.33984e-05
-0.000185316
-9.7261e-06
-0.000206386
5.66568e-05
-0.000217256
0.000100439
-0.000216216
0.000107511
-0.000210633
9.18586e-05
-0.000202045
8.86184e-05
-0.000193644
0.000102915
-0.000188249
0.00012241
-0.000189343
0.00013852
-0.000204691
0.000155983
-0.000248614
0.000187813
-0.000315964
0.000228403
-0.000381095
0.000270881
-0.000403208
0.000269873
-0.000380096
0.000239269
-0.000306747
0.000160694
-0.00021601
6.99023e-05
-0.000130155
-1.97344e-05
-5.50078e-05
-9.46753e-05
-0.000119396
-3.41198e-05
-0.000386416
-7.044e-05
-0.000333528
-0.000108901
-0.000224298
-0.000149187
-0.000102367
-0.000188526
-2.40724e-05
-0.000223317
2.50659e-05
-0.0002488
8.21582e-05
-0.000253255
0.000104928
-0.000243597
9.78902e-05
-0.000234314
8.26029e-05
-0.000232866
8.71961e-05
-0.000242241
0.000112318
-0.000262189
0.00014239
-0.000302981
0.000179352
-0.000368411
0.000221464
-0.000442301
0.000261774
-0.000496231
0.000282427
-0.000493943
0.000268701
-0.000451065
0.000227095
-0.000360132
0.000148408
-0.000253667
5.42724e-05
-0.000157761
-2.59766e-05
-8.97926e-05
-8.76869e-05
-4.33471e-05
-0.000141114
-0.00016274
-2.99031e-05
-0.000356559
-6.14575e-05
-0.000302024
-9.61587e-05
-0.000189642
-0.000136269
-6.22768e-05
-0.000180851
2.05144e-05
-0.000221344
6.55773e-05
-0.000239437
0.000100285
-0.000238641
0.000104172
-0.000232623
9.19064e-05
-0.000238621
8.86292e-05
-0.000267227
0.000115829
-0.000323284
0.000168408
-0.000403774
0.000222924
-0.000492649
0.000268289
-0.000566402
0.000295302
-0.00058809
0.000283562
-0.00056335
0.000257791
-0.000487645
0.000193088
-0.000378747
0.000118261
-0.000261079
3.07813e-05
-0.00016916
-3.76216e-05
-0.000114736
-8.03851e-05
-7.88958e-05
-0.000123519
-4.45912e-05
-0.000175418
-0.000207335
-3.03857e-05
-0.000326216
-6.1204e-05
-0.00027125
-9.13834e-05
-0.000159501
-0.000121506
-3.21617e-05
-0.00015136
5.0387e-05
-0.000184441
9.8693e-05
-0.00020779
0.000123679
-0.000221022
0.000117448
-0.000239662
0.000110582
-0.000290949
0.000139949
-0.000389051
0.000213973
-0.000499633
0.000279047
-0.000595941
0.000319309
-0.000647638
0.000320082
-0.0006472
0.000294974
-0.000599775
0.000236243
-0.000497185
0.000155287
-0.000380023
7.59821e-05
-0.000268995
7.27007e-06
-0.000188105
-5.00859e-05
-0.000132392
-9.33212e-05
-8.64354e-05
-0.000126335
-5.0068e-05
-0.000159886
-2.83762e-05
-0.000197116
-0.000235721
-2.85605e-05
-0.000297692
-5.77848e-05
-0.000242063
-8.26174e-05
-0.000134696
-0.00010795
-6.82405e-06
-0.000132121
7.45902e-05
-0.000156812
0.000123433
-0.000184596
0.000151522
-0.000218787
0.000151689
-0.000284947
0.000176787
-0.000401319
0.000256375
-0.000520382
0.000333109
-0.000603847
0.000362608
-0.000645639
0.000361217
-0.000652098
0.000326661
-0.000609295
0.000252284
-0.000523871
0.000150905
-0.000419949
5.14219e-05
-0.000335469
-8.46069e-06
-0.000264889
-6.32869e-05
-0.000201239
-0.000113725
-0.000144632
-0.000149924
-9.05981e-05
-0.000180371
-5.08681e-05
-0.000199624
-2.61449e-05
-0.000221851
-0.000261881
-2.59233e-05
-0.000271801
-5.32942e-05
-0.00021472
-7.49148e-05
-0.000113092
-9.52274e-05
1.35053e-05
-0.000120942
0.00010035
-0.00014964
0.000152194
-0.000188159
0.000190111
-0.000250418
0.000214012
-0.000353372
0.000279806
-0.000461349
0.000364438
-0.000528158
0.00040003
-0.000572571
0.000407151
-0.000596185
0.000384965
-0.000583236
0.000313834
-0.00053253
0.000201676
-0.000462062
8.04994e-05
-0.000411716
1.11578e-06
-0.000352559
-6.7592e-05
-0.000277488
-0.000138347
-0.000212203
-0.000179009
-0.000155597
-0.000206536
-0.000106181
-0.0002298
-6.41165e-05
-0.000241705
-3.05322e-05
-0.000255454
-0.000292431
-2.82612e-05
-0.000243565
-5.9558e-05
-0.000183444
-8.52781e-05
-8.73797e-05
-0.000107027
3.528e-05
-0.000134504
0.000127884
-0.000168153
0.000185918
-0.000212371
0.000234411
-0.000281502
0.00028322
-0.000364282
0.000362675
-0.000416538
0.000416809
-0.000449338
0.000432966
-0.000469478
0.000427432
-0.000463763
0.000379382
-0.000437504
0.000287682
-0.000398643
0.000162888
-0.00036249
4.43872e-05
-0.000313781
-4.75707e-05
-0.000252489
-0.000128873
-0.000200603
-0.000190235
-0.000158705
-0.000220917
-0.000118958
-0.000246298
-8.14452e-05
-0.000267333
-4.64896e-05
-0.000276684
-1.7733e-05
-0.000284236
-0.000310184
-3.25056e-05
-0.000211079
-6.6184e-05
-0.000149778
-9.04986e-05
-6.30624e-05
-0.000109736
5.45516e-05
-0.000135227
0.000153443
-0.000165881
0.00021666
-0.000203629
0.00027225
-0.000246046
0.000325727
-0.000277548
0.000394284
-0.000286837
0.000426228
-0.000286304
0.000432573
-0.00027465
0.000415917
-0.000255341
0.000360196
-0.000234592
0.000267029
-0.000216289
0.000144646
-0.000198182
2.6311e-05
-0.000167733
-7.80069e-05
-0.000139079
-0.000157524
-0.000120973
-0.00020835
-0.000102897
-0.000239007
-8.27696e-05
-0.000266444
-6.00999e-05
-0.000290025
-3.5035e-05
-0.000301774
-9.2928e-06
-0.000310004
-0.000319497
-3.05675e-05
-0.000180524
-6.33472e-05
-0.000117001
-8.51632e-05
-4.12341e-05
-9.7392e-05
6.68232e-05
-0.000116044
0.000172173
-0.000134382
0.000235096
-0.000151198
0.000289167
-0.000161217
0.000335848
-0.000156615
0.000389798
-0.00014114
0.000410884
-0.000121755
0.000413327
-9.90419e-05
0.000393338
-7.9882e-05
0.000341155
-6.32383e-05
0.000250477
-5.27665e-05
0.000134239
-4.68645e-05
2.04495e-05
-4.71241e-05
-7.77267e-05
-5.42127e-05
-0.000150431
-6.25568e-05
-0.00020001
-6.21851e-05
-0.00023939
-5.48208e-05
-0.000273825
-4.1767e-05
-0.000303099
-2.40217e-05
-0.000319542
-4.5584e-06
-0.00032949
-0.000324074
-2.56692e-05
-0.000154859
-5.60718e-05
-8.65919e-05
-7.73585e-05
-1.99276e-05
-8.13401e-05
7.0852e-05
-8.74683e-05
0.000178386
-9.48341e-05
0.000242567
-0.000101695
0.000296139
-0.000102088
0.000336351
-8.60124e-05
0.000373839
-6.3823e-05
0.000388821
-4.01041e-05
0.000389742
-1.63377e-05
0.000369702
8.61541e-06
0.000316318
2.81845e-05
0.000231004
3.597e-05
0.000126523
3.39999e-05
2.24671e-05
1.48324e-05
-5.85327e-05
-1.59128e-05
-0.000119675
-3.97745e-05
-0.000176147
-4.82961e-05
-0.000230875
-4.58818e-05
-0.000276253
-3.72567e-05
-0.000311742
-2.46586e-05
-0.00033216
-1.22038e-05
-0.000341965
-0.000336295
-2.16928e-05
-0.000133165
-4.65579e-05
-6.17125e-05
-6.47951e-05
-1.6647e-06
-6.26388e-05
6.87427e-05
-5.61191e-05
0.00017195
-5.65299e-05
0.000243085
-5.49621e-05
0.000294687
-5.36543e-05
0.000335159
-4.01701e-05
0.000360474
-2.27421e-05
0.000371516
-2.85338e-06
0.000369982
1.94363e-05
0.00034754
4.09974e-05
0.000294874
5.55139e-05
0.000216587
5.36545e-05
0.000128458
3.4278e-05
4.18934e-05
-4.52017e-07
-2.37725e-05
-3.6798e-05
-8.33117e-05
-5.88961e-05
-0.000154043
-6.69848e-05
-0.00022279
-6.25274e-05
-0.000280722
-5.03228e-05
-0.000323963
-3.46483e-05
-0.000347854
-1.89027e-05
-0.000357729
-0.000355216
-1.77034e-05
-0.000115456
-3.44081e-05
-4.49874e-05
-5.02183e-05
1.4175e-05
-4.76818e-05
6.62501e-05
-2.72084e-05
0.000151552
-1.88503e-05
0.00023483
-9.0851e-06
0.000285038
3.28032e-06
0.000322913
2.25362e-05
0.000341338
4.35344e-05
0.00035064
6.14328e-05
0.000352209
7.65223e-05
0.000332576
8.96092e-05
0.000281904
9.38899e-05
0.000212404
8.22705e-05
0.000140153
5.3741e-05
7.0473e-05
1.48229e-05
1.51806e-05
-2.57352e-05
-4.27355e-05
-5.57137e-05
-0.000124058
-6.78759e-05
-0.000210632
-6.44916e-05
-0.000284119
-5.13595e-05
-0.000337113
-3.35078e-05
-0.000365726
-1.57951e-05
-0.000375462
-0.000371029
-1.77246e-05
-9.77234e-05
-2.53053e-05
-3.73831e-05
-3.1931e-05
2.08329e-05
-2.4928e-05
5.92887e-05
1.01637e-05
0.000116522
4.99507e-05
0.000195133
7.37062e-05
0.000261393
8.82535e-05
0.000308487
0.000101297
0.000328416
0.000120135
0.000331923
0.000142704
0.000329762
0.000162627
0.000312773
0.000171748
0.000272893
0.000165155
0.00021909
0.000149066
0.000156312
0.000125656
9.39332e-05
8.86131e-05
5.22667e-05
4.88607e-05
-2.96667e-06
1.14874e-05
-8.66864e-05
-1.91387e-05
-0.000180021
-3.33941e-05
-0.000269881
-3.30822e-05
-0.000337444
-2.27106e-05
-0.000376119
-1.05665e-05
-0.000387627
-0.000381612
-1.75231e-05
-8.01904e-05
-1.64521e-05
-3.84303e-05
-3.50751e-06
7.92202e-06
1.57959e-05
4.00244e-05
5.06516e-05
8.17153e-05
0.000110845
0.00013501
0.000177621
0.000194711
0.000233819
0.000252402
0.000267849
0.000294509
0.000287657
0.000312241
0.000304432
0.000313112
0.000314553
0.000302771
0.000311388
0.000276166
0.000295502
0.000235066
0.000274304
0.000177576
0.000244602
0.000123684
0.000214822
8.20843e-05
0.000190018
2.18532e-05
0.000150741
-4.7413e-05
9.88532e-05
-0.000128152
5.49824e-05
-0.000226031
2.68741e-05
-0.000309355
1.30162e-05
-0.000362281
5.64195e-06
-0.000380274
-0.000375989
-1.21257e-05
-6.80523e-05
-3.25116e-06
-4.72825e-05
2.34096e-05
-1.87075e-05
5.49215e-05
8.54795e-06
9.12043e-05
4.54751e-05
0.000140655
8.56133e-05
0.000206281
0.000129155
0.000284086
0.000174686
0.000362875
0.000215827
0.000427906
0.000247326
0.000476568
0.000264567
0.000510526
0.000268925
0.000528441
0.000258353
0.000528169
0.000235423
0.000508968
0.000196841
0.000470641
0.000162058
0.000433464
0.000119292
0.000390037
6.52947e-05
0.000328349
1.42771e-05
0.000256437
-5.62489e-05
0.000182357
-0.00015197
0.000118061
-0.000245081
6.97762e-05
-0.000314017
3.28841e-05
-0.000343404
-0.000343126
1.02301e-05
-7.82684e-05
3.56337e-05
-7.26671e-05
6.84075e-05
-5.14546e-05
0.000100163
-2.31754e-05
0.000134783
1.08932e-05
0.000172853
4.75908e-05
0.000217435
8.46287e-05
0.000272829
0.000119359
0.00033859
0.000150145
0.000407126
0.000178878
0.000469001
0.000202786
0.000521287
0.00021673
0.000559284
0.000220444
0.000575449
0.000219335
0.000571406
0.000200948
0.000549982
0.000183534
0.000510621
0.00015869
0.000453747
0.000122192
0.000382899
8.51383e-05
0.000303723
2.29278e-05
0.000225236
-7.34942e-05
0.000153027
-0.000172892
9.34131e-05
-0.000254425
4.46831e-05
-0.000294697
-0.000298467
5.11899e-05
-0.000129446
0.000100212
-0.000121675
0.000141309
-9.25301e-05
0.00017032
-5.21573e-05
0.000191556
-1.03057e-05
0.000212232
2.69587e-05
0.000236194
6.07171e-05
0.000264981
9.06311e-05
0.000297948
0.000117243
0.000337083
0.000139812
0.0003828
0.000157143
0.000433211
0.000166396
0.000483222
0.000170509
0.000520511
0.000182119
0.000532502
0.000189024
0.000525096
0.000191003
0.0004946
0.000189241
0.000442779
0.000174056
0.000373881
0.00015407
0.000294375
0.000102452
0.000220785
9.63709e-08
0.0001542
-0.000106321
9.64338e-05
-0.000196681
4.68736e-05
-0.00024516
-0.000251616
5.83965e-05
-0.000187839
0.000104828
-0.000168101
0.000139985
-0.000127675
0.000166977
-7.91264e-05
0.000187687
-3.09841e-05
0.000204491
1.01955e-05
0.000222685
4.25689e-05
0.000244308
6.906e-05
0.000268507
9.31003e-05
0.000293239
0.000115141
0.000318978
0.000131467
0.000345538
0.0001399
0.000373345
0.000142765
0.000406412
0.000149117
0.000430165
0.000165339
0.000429659
0.00019158
0.000403071
0.000215902
0.000355011
0.000222186
0.000297674
0.000211469
0.00023909
0.00016108
0.000188
5.12026e-05
0.000137616
-5.59421e-05
8.99474e-05
-0.000149031
4.48424e-05
-0.000200075
-0.000206794
2.96873e-05
-0.000217534
4.52884e-05
-0.000183708
5.0039e-05
-0.000132424
5.66771e-05
-8.57527e-05
7.30101e-05
-4.72952e-05
0.000100867
-1.76316e-05
0.000135434
8.03919e-06
0.000170331
3.42048e-05
0.000203078
6.04001e-05
0.00023148
8.67907e-05
0.000255475
0.000107527
0.000276417
0.000119015
0.00029414
0.000125099
0.000308122
0.000135194
0.000315101
0.000158425
0.00030266
0.0002041
0.000272998
0.000245656
0.000237633
0.000257643
0.000203194
0.000245993
0.000178223
0.000186112
0.000150026
7.9428e-05
0.000119001
-2.49135e-05
8.31812e-05
-0.000113223
4.26275e-05
-0.000159535
-0.000164181
1.6085e-06
-0.000219155
-1.31382e-05
-0.000168971
-2.93408e-05
-0.000116223
-3.81249e-05
-7.69605e-05
-3.32484e-05
-5.21562e-05
-9.50677e-06
-4.13525e-05
2.90354e-05
-3.0478e-05
7.39356e-05
-1.06657e-05
0.000114923
1.94492e-05
0.000148316
5.34409e-05
0.0001741
8.1792e-05
0.000194419
9.87473e-05
0.000209609
0.000109963
0.000216143
0.000128716
0.000206021
0.000168615
0.000181918
0.000228291
0.000161026
0.000266651
0.000146846
0.000271928
0.000139028
0.000253906
0.000140039
0.00018517
0.00013254
8.6967e-05
0.00011795
-1.031e-05
8.93253e-05
-8.46012e-05
4.69827e-05
-0.000117199
-0.000117207
-1.48743e-05
-0.000204294
-3.23305e-05
-0.000151524
-4.22246e-05
-0.000106327
-4.19393e-05
-7.72355e-05
-3.36636e-05
-6.04164e-05
-1.78997e-05
-5.7099e-05
3.79758e-06
-5.21561e-05
3.17665e-05
-3.86117e-05
6.38522e-05
-1.26073e-05
9.11507e-05
2.61801e-05
0.000108911
6.40769e-05
0.000117726
8.99825e-05
0.000118356
0.000109385
0.000108386
0.000138746
8.72517e-05
0.000189825
7.18107e-05
0.000243831
7.2787e-05
0.000265783
8.29724e-05
0.000261848
0.000101725
0.000235248
0.000121993
0.000164972
0.000132498
7.65068e-05
0.000129903
-7.69468e-06
0.000102874
-5.75668e-05
5.55628e-05
-6.98843e-05
-6.16448e-05
-1.45578e-05
-0.000189746
-2.03716e-05
-0.000145716
-1.48522e-05
-0.000111844
1.8454e-06
-9.39237e-05
1.68827e-05
-7.54403e-05
2.36208e-05
-6.38223e-05
2.5549e-05
-5.4068e-05
2.80711e-05
-4.11146e-05
3.43652e-05
-1.88764e-05
4.27145e-05
1.78648e-05
4.63189e-05
6.05165e-05
4.23127e-05
9.40395e-05
2.95425e-05
0.000122212
1.00843e-05
0.000158271
-4.50113e-06
0.000204494
1.30835e-06
0.000238121
2.2884e-05
0.00024431
5.10464e-05
0.000233783
8.68509e-05
0.000199528
0.000123037
0.000128851
0.000148988
5.05984e-05
0.000149366
-8.05009e-06
0.000118729
-2.69152e-05
6.66798e-05
-1.78208e-05
5.04842e-06
-1.89328e-05
-0.000170821
-2.45172e-05
-0.000140136
-1.49687e-05
-0.000121391
2.3227e-06
-0.00011121
1.98164e-05
-9.29238e-05
2.84921e-05
-7.24849e-05
2.4392e-05
-4.99519e-05
9.63098e-06
-2.63344e-05
-1.00014e-05
7.80541e-07
-2.65274e-05
3.44237e-05
-3.9218e-05
7.32508e-05
-5.18301e-05
0.000106704
-6.70516e-05
0.000137494
-7.97731e-05
0.000171065
-7.7699e-05
0.000202508
-5.79322e-05
0.000218451
-2.73608e-05
0.000213832
1.70001e-05
0.000189509
7.69009e-05
0.000139701
0.000130092
7.57141e-05
0.000153559
2.7169e-05
0.000140635
4.89934e-06
0.000104035
9.70602e-06
5.35104e-05
3.27313e-05
5.8594e-05
-3.48558e-05
-0.00013597
-5.49074e-05
-0.000120087
-6.38393e-05
-0.000112459
-7.15569e-05
-0.000103489
-7.88111e-05
-8.5663e-05
-8.6348e-05
-6.49374e-05
-9.78114e-05
-3.84732e-05
-0.000116228
-7.89762e-06
-0.000139597
2.41762e-05
-0.000160273
5.5134e-05
-0.000174379
8.74022e-05
-0.000184301
0.00011668
-0.000189772
0.000143027
-0.000185273
0.00016664
-0.000163658
0.000180975
-0.000122806
0.000177685
-6.65037e-05
0.000157611
7.3318e-07
0.000122343
6.01862e-05
8.03046e-05
8.83892e-05
4.75537e-05
8.23549e-05
3.32373e-05
5.43974e-05
3.28863e-05
2.35963e-05
4.05367e-05
4.0722e-06
5.22959e-05
6.2716e-05
-4.39194e-05
-9.20494e-05
-7.93319e-05
-8.46714e-05
-0.000109075
-8.27119e-05
-0.000136173
-7.63872e-05
-0.000162077
-5.97514e-05
-0.000187487
-3.95151e-05
-0.000210492
-1.54518e-05
-0.000230565
1.21984e-05
-0.000246607
4.02472e-05
-0.000256811
6.53738e-05
-0.000257938
8.8574e-05
-0.000250117
0.00010891
-0.000233087
0.000126057
-0.000202627
0.000136246
-0.000158413
0.000136829
-0.000104345
0.000123684
-4.90411e-05
0.000102367
-7.44798e-06
8.08012e-05
7.83016e-06
6.50691e-05
-4.07983e-06
5.95004e-05
-3.15947e-05
6.07883e-05
-5.63265e-05
5.76567e-05
-6.09409e-05
4.5192e-05
-3.85616e-05
2.9962e-05
2.42023e-05
-4.33092e-05
-4.87312e-05
-8.14713e-05
-4.64989e-05
-0.00011418
-4.9993e-05
-0.000142771
-4.77852e-05
-0.000167955
-3.45531e-05
-0.000191347
-1.61058e-05
-0.000212071
5.29429e-06
-0.00022768
2.78347e-05
-0.000236644
4.92443e-05
-0.000238343
6.71121e-05
-0.0002302
8.04757e-05
-0.000210845
8.96024e-05
-0.000179198
9.44621e-05
-0.000136375
9.34777e-05
-8.86635e-05
8.91714e-05
-4.73952e-05
8.24658e-05
-1.9938e-05
7.49552e-05
-9.9779e-06
7.08814e-05
-1.63736e-05
7.1502e-05
-3.64561e-05
7.96212e-05
-6.35503e-05
8.79272e-05
-7.93786e-05
7.35342e-05
-7.12302e-05
3.70882e-05
-4.25942e-05
1.36427e-06
-1.83566e-05
-2.98286e-05
-1.88849e-05
-5.69309e-05
-1.93781e-05
-8.13359e-05
-2.55705e-05
-0.000101134
-2.79702e-05
-0.000114453
-2.12141e-05
-0.000123507
-7.02833e-06
-0.000130743
1.25581e-05
-0.00013636
3.34831e-05
-0.000141271
5.41926e-05
-0.000141978
6.78601e-05
-0.000133193
7.17337e-05
-0.00011329
6.97431e-05
-8.48872e-05
6.61038e-05
-5.45218e-05
6.31554e-05
-2.70181e-05
6.17091e-05
-5.86774e-06
6.13548e-05
6.60577e-06
6.25193e-05
1.10187e-05
6.65051e-05
9.06961e-06
7.3488e-05
-3.03115e-06
9.17656e-05
-1.92699e-05
0.000104221
-3.07848e-05
8.51023e-05
-3.35149e-05
3.98596e-05
-2.36705e-05
-8.45075e-06
-4.20051e-05
-9.53997e-06
-9.32104e-06
-1.55565e-05
-1.33377e-05
-2.27456e-05
-1.83592e-05
-2.94556e-05
-2.12391e-05
-3.20507e-05
-1.85964e-05
-2.84205e-05
-1.06335e-05
-1.92141e-05
3.38058e-06
-7.19044e-06
2.1493e-05
5.04507e-06
4.19958e-05
1.23415e-05
6.06062e-05
1.38665e-05
7.02519e-05
1.12521e-05
7.23995e-05
9.60233e-06
6.77933e-05
1.11548e-05
6.16404e-05
1.68144e-05
5.60856e-05
2.4419e-05
5.37855e-05
3.28344e-05
5.41389e-05
4.18943e-05
5.74802e-05
5.0288e-05
6.51301e-05
5.42819e-05
8.78192e-05
5.32553e-05
0.000105308
4.33681e-05
9.50444e-05
2.30102e-05
6.02587e-05
5.1048e-06
9.48082e-06
-3.68846e-05
1.12532e-05
-2.0549e-05
2.45182e-05
-2.65787e-05
3.51341e-05
-2.89523e-05
4.09843e-05
-2.70672e-05
4.39426e-05
-2.15318e-05
4.70865e-05
-1.37528e-05
5.35189e-05
-3.02424e-06
6.55059e-05
9.5375e-06
8.34294e-05
2.41083e-05
0.000103774
4.03028e-05
0.000118885
5.51835e-05
0.000123772
6.75572e-05
0.00011855
7.30563e-05
0.00010653
7.37001e-05
9.27558e-05
6.98962e-05
8.159e-05
6.49867e-05
7.53945e-05
6.03688e-05
7.47877e-05
5.8121e-05
7.85765e-05
6.13767e-05
8.73331e-05
7.91089e-05
9.20583e-05
0.000100641
8.50056e-05
0.000102155
6.07435e-05
8.45694e-05
2.72107e-05
4.30468e-05
-9.6569e-06
2.30864e-05
-4.36129e-05
4.61943e-05
-4.96661e-05
6.59013e-05
-4.86391e-05
7.92155e-05
-4.03603e-05
8.63549e-05