/*--------------------------------*- C++ -*----------------------------------*\
| =========                 |                                                 |
| \\      /  F ield         | OpenFOAM: The Open Source CFD Toolbox           |
|  \\    /   O peration     | Version:  2.3.0                                 |
|   \\  /    A nd           | Web:      www.OpenFOAM.org                      |
|    \\/     M anipulation  |                                                 |
\*---------------------------------------------------------------------------*/
FoamFile
{
    version     2.0;
    format      ascii;
    class       surfaceScalarField;
    location    "24";
    object      phi.water;
}
// * * * * * * * * * * * * * * * * * * * * * * * * * * * * * * * * * * * * * //

dimensions      [0 3 -1 0 0 0 0];

internalField   nonuniform List<scalar> 
3650
(
0.000195266
-0.00018826
0.000384986
-0.000181549
0.000528758
-0.000135863
0.000632438
-9.44779e-05
0.00070755
-6.39292e-05
0.000763499
-4.34049e-05
0.000807046
-3.0529e-05
0.000841754
-2.25114e-05
0.000871334
-1.87263e-05
0.00089546
-1.45317e-05
0.00091379
-9.31224e-06
0.000918311
3.87491e-06
0.000904333
2.31394e-05
0.000868432
4.48891e-05
0.000809766
6.4097e-05
0.000731354
7.91406e-05
0.000637355
8.89259e-05
0.000529527
9.92309e-05
0.000425844
9.61074e-05
0.00033272
8.62071e-05
0.000233826
9.07093e-05
0.000145057
7.89411e-05
6.98974e-05
6.47158e-05
1.10983e-05
4.92612e-05
9.43223e-06
0.000142082
-0.00033084
0.00025386
-0.000299929
0.000314385
-0.000211178
0.000338732
-0.000133046
0.000347141
-8.07887e-05
0.000350581
-5.02168e-05
0.000357394
-3.77673e-05
0.000376841
-4.02669e-05
0.000408503
-4.67039e-05
0.00044214
-4.30667e-05
0.000473982
-3.38689e-05
0.000496586
-8.40487e-06
0.000510107
2.16321e-05
0.000509833
6.00917e-05
0.000495698
9.44626e-05
0.000463522
0.000120095
0.000412331
0.000138362
0.000351154
0.00014979
0.000278828
0.000156072
0.000208126
0.000148283
0.000163636
0.000129552
0.000138228
0.000101568
0.000118088
8.60945e-05
9.03404e-05
8.12599e-05
9.99247e-05
4.75134e-05
-0.000383908
6.10964e-05
-0.000332812
4.09506e-05
-0.000211217
3.4151e-05
-0.000135431
2.82068e-05
-8.43557e-05
2.91385e-05
-6.14285e-05
4.5898e-05
-6.34021e-05
8.06338e-05
-8.13893e-05
0.000120393
-9.1173e-05
0.000153532
-8.19836e-05
0.000179938
-6.88708e-05
0.000193994
-3.4068e-05
0.000195106
2.14796e-05
0.00018747
8.54662e-05
0.000179117
0.000124882
0.000160411
0.000154116
0.000134055
0.000172918
0.000103009
0.000180208
7.06425e-05
0.000184291
3.94521e-05
0.000174642
2.18078e-05
0.000144231
1.07903e-05
0.000110625
4.38998e-07
9.57639e-05
-6.47072e-07
8.58284e-05
9.86074e-05
-7.89959e-06
-0.000383218
-2.81633e-05
-0.000323143
-3.47321e-05
-0.000210112
-1.71017e-05
-0.000156336
1.10512e-05
-0.000117116
4.02378e-05
-9.63433e-05
6.78237e-05
-9.74998e-05
9.29393e-05
-0.000111944
9.60201e-05
-9.64246e-05
4.79038e-05
-3.66936e-05
-3.26517e-05
6.5954e-06
-0.000111678
4.89022e-05
-0.00017806
0.00010389
-0.000230023
0.000155283
-0.000272194
0.00018088
-0.000303027
0.000193364
-0.000316173
0.000191203
-0.000316367
0.000182973
-0.000298634
0.000165342
-0.000268685
0.000141635
-0.000235341
0.000107386
-0.000205683
7.80569e-05
-0.000158473
4.77789e-05
-8.92878e-05
1.75992e-05
8.73866e-06
-3.41277e-05
-0.000356726
-6.0078e-05
-0.000299656
-5.55747e-05
-0.000208635
-4.34815e-05
-0.000164736
-2.25995e-05
-0.000132225
-1.00438e-05
-0.000100568
-3.8218e-05
-6.31236e-05
-0.00012702
-2.75738e-05
-0.000247119
9.29094e-06
-0.000364447
7.90309e-05
-0.000454496
0.000117808
-0.000515025
0.000135005
-0.00055304
0.000157795
-0.000558644
0.000168981
-0.000546563
0.000173269
-0.000520451
0.000172201
-0.000484866
0.000159379
-0.000445836
0.000146051
-0.000398035
0.000117093
-0.000341707
8.35006e-05
-0.000282538
4.66984e-05
-0.000220733
1.66538e-05
-0.000154576
-1.58988e-05
-8.79364e-05
-4.64689e-05
-7.69177e-05
-5.21762e-05
-0.000311429
-0.000103815
-0.000254149
-0.000137629
-0.000173315
-0.000171203
-0.000127446
-0.000216543
-8.28501e-05
-0.000286477
-3.25685e-05
-0.00037659
2.37111e-05
-0.000469461
7.41499e-05
-0.000540886
9.6726e-05
-0.000573182
0.000119799
-0.000591751
0.000140722
-0.000598365
0.000148986
-0.000591419
0.000158
-0.000571891
0.000155221
-0.000541081
0.000147352
-0.00049797
0.000132443
-0.000440768
0.000103503
-0.000371462
7.61766e-05
-0.000288813
3.30414e-05
-0.000209356
2.53606e-06
-0.000144871
-2.04462e-05
-9.61087e-05
-3.35868e-05
-6.24717e-05
-4.93028e-05
-3.84122e-05
-7.00353e-05
-0.000116352
-7.90161e-05
-0.00023839
-0.00014799
-0.0001926
-0.000205409
-0.000117975
-0.000263465
-7.09472e-05
-0.000333371
-1.58003e-05
-0.000405291
3.85915e-05
-0.000462002
8.02917e-05
-0.000501141
0.000112842
-0.000533215
0.000134257
-0.000553972
0.000147248
-0.000560265
0.000153322
-0.000553268
0.000149802
-0.000526989
0.000138784
-0.000481936
0.000115763
-0.000415152
8.40028e-05
-0.000327955
4.6319e-05
-0.000232843
8.67382e-06
-0.000139064
-1.74307e-05
-6.59475e-05
-4.12998e-05
-1.99412e-05
-4.64114e-05
-1.82712e-06
-4.19338e-05
2.43296e-06
-4.16979e-05
-2.71361e-06
-4.75527e-05
-5.22178e-06
-6.94888e-05
-0.000126362
-6.30432e-05
-0.00017819
-0.000125843
-0.000133989
-0.000182413
-6.60535e-05
-0.000239787
-1.93854e-05
-0.000296785
3.43642e-05
-0.000352877
8.94552e-05
-0.00040087
0.000127881
-0.000436646
0.000151496
-0.000457874
0.000161453
-0.000467516
0.000162907
-0.000458245
0.00015227
-0.000426595
0.000126318
-0.000372525
8.93053e-05
-0.000304881
5.03773e-05
-0.000226939
6.2317e-06
-0.000150116
-3.1379e-05
-8.79257e-05
-5.44741e-05
-4.07104e-05
-6.47487e-05
-1.95623e-05
-6.29543e-05
-1.39031e-05
-5.21891e-05
-1.37808e-05
-4.16329e-05
-1.40407e-05
-4.31514e-05
-1.21684e-05
-5.33607e-05
-2.82535e-06
-8.37723e-05
-0.000135908
-6.17359e-05
-0.000119814
-0.000104093
-9.42124e-05
-0.000137892
-3.55895e-05
-0.000181531
1.84316e-05
-0.000215978
6.17732e-05
-0.000245595
0.000113119
-0.000269946
0.000150483
-0.000283449
0.00016729
-0.000289136
0.000171182
-0.000285446
0.00016549
-0.000266321
0.000139769
-0.000236287
0.000101126
-0.000207316
6.32143e-05
-0.000182496
2.65293e-05
-0.000164116
-1.29197e-05
-0.000159326
-3.78855e-05
-0.000168242
-4.86241e-05
-0.000187548
-5.03573e-05
-0.000202586
-5.08577e-05
-0.000198859
-5.53772e-05
-0.000170862
-6.89619e-05
-0.000127407
-8.78843e-05
-7.43714e-05
-0.000110013
-2.61765e-05
-0.000138172
-0.000167199
-5.20878e-05
-6.9682e-05
-7.8803e-05
-6.75642e-05
-8.10902e-05
-3.44344e-05
-8.18643e-05
1.63688e-05
-8.43034e-05
5.9572e-05
-8.32065e-05
0.000105291
-8.27252e-05
0.000145154
-8.27642e-05
0.000166549
-8.53914e-05
0.000176056
-8.31817e-05
0.000168805
-8.35251e-05
0.00014618
-9.36116e-05
0.000113747
-0.000115329
8.49301e-05
-0.000143765
5.39857e-05
-0.000174408
1.62176e-05
-0.000198617
-1.49981e-05
-0.000218378
-3.22914e-05
-0.000240421
-3.42568e-05
-0.000249825
-4.54723e-05
-0.00023725
-6.82186e-05
-0.000202772
-0.000101789
-0.000152401
-0.000136572
-9.69554e-05
-0.000164518
-4.74054e-05
-0.000187891
-0.000212265
-2.22866e-05
-4.79649e-05
-2.96515e-05
-5.79229e-05
-1.06755e-05
-5.05339e-05
2.93136e-05
-2.39204e-05
7.30696e-05
1.32471e-05
0.000120709
5.41479e-05
0.000165685
9.6372e-05
0.000198531
0.000131291
0.000214227
0.00015944
0.000211942
0.000172865
0.000188912
0.000173898
0.000148693
0.000159284
0.000101557
0.000135272
5.45172e-05
0.000101557
1.02024e-06
6.8978e-05
-5.00175e-05
3.26861e-05
-9.24113e-05
7.18912e-06
-0.000113103
-1.03132e-05
-0.000119497
-3.42832e-05
-0.000125657
-5.72376e-05
-0.0001307
-9.24656e-05
-0.00011777
-0.000145821
-9.04371e-05
-0.000188681
-4.79855e-05
-0.000226748
-0.000257793
1.88865e-05
-6.69127e-05
4.34281e-05
-8.07234e-05
7.31654e-05
-7.71789e-05
0.000109315
-5.81122e-05
0.000152811
-2.95284e-05
0.000202206
4.88476e-06
0.000260595
3.81069e-05
0.000322285
6.96225e-05
0.000381603
9.9649e-05
0.000430746
0.000122933
0.000468068
0.000137658
0.000489049
0.000140338
0.000493753
0.00013314
0.000484106
0.000116536
0.000464976
9.68131e-05
0.000442069
6.69028e-05
0.000413957
4.76739e-05
0.000387381
2.62288e-05
0.000355076
5.4861e-06
0.000309762
-7.36506e-06
0.00025806
-4.00943e-05
0.0001874
-8.39732e-05
0.000103641
-0.000116423
3.84092e-05
-0.000167743
-0.000223851
8.08487e-05
-0.000147086
0.000154044
-0.000154891
0.000216574
-0.00014017
0.000264731
-0.000105142
0.00029996
-6.33398e-05
0.000327841
-2.14106e-05
0.000351276
1.58381e-05
0.000375916
4.62903e-05
0.000406397
7.25638e-05
0.000440842
9.12512e-05
0.000474456
0.000106421
0.00050167
0.000117576
0.000521147
0.000118702
0.000528929
0.000113075
0.000528634
0.000101757
0.000518739
8.17582e-05
0.000507428
6.3581e-05
0.000492987
4.32039e-05
0.000476578
2.30889e-05
0.000457159
1.14961e-05
0.000420118
-5.1797e-06
0.000347936
-1.61546e-05
0.000247155
-2.57353e-05
0.000130474
-6.28791e-05
-0.000108307
0.000108173
-0.000255108
0.00020374
-0.000252211
0.000279516
-0.000218197
0.000337577
-0.000163677
0.000380042
-0.000105817
0.000410751
-5.17464e-05
0.00043296
-5.4733e-06
0.00044313
3.78744e-05
0.000446118
7.15501e-05
0.000445195
9.50665e-05
0.000445335
0.000110035
0.000449514
0.000116998
0.000455732
0.000116132
0.00046086
0.000111971
0.000464046
0.000102734
0.000461213
8.86648e-05
0.000454837
7.3671e-05
0.000442804
5.81408e-05
0.00042172
4.69533e-05
0.000392741
4.2976e-05
0.000345743
4.40523e-05
0.000274551
5.46214e-05
0.000188465
4.96739e-05
9.94439e-05
1.31833e-05
-1.95e-05
9.3097e-05
-0.000351115
0.000173743
-0.000336258
0.000232689
-0.000281644
0.000275179
-0.000210037
0.000307585
-0.000141254
0.000333642
-8.02604e-05
0.000355742
-2.86166e-05
0.000377545
1.6294e-05
0.000391441
5.83099e-05
0.000396571
9.12224e-05
0.000395787
0.000113547
0.000390305
0.000126154
0.000380956
0.000129873
0.000369639
0.000128168
0.00035592
0.00012046
0.000339335
0.000108148
0.000323226
9.23418e-05
0.00030791
7.62932e-05
0.000289939
6.83737e-05
0.000266483
7.00147e-05
0.000228663
8.4226e-05
0.00017215
0.000109866
0.000107615
0.000106718
4.99619e-05
6.38845e-05
2.52223e-05
5.89457e-05
-0.000414435
0.000108108
-0.000391486
0.000143215
-0.000325746
0.000172614
-0.000247291
0.000191677
-0.000168685
0.000203333
-0.000100162
0.000212099
-4.48505e-05
0.000226039
-1.61176e-06
0.000249854
3.44172e-05
0.000270936
7.17023e-05
0.000281883
0.000104315
0.000282848
0.000126954
0.000276392
0.000138781
0.000267311
0.000140651
0.000254353
0.000137014
0.000237408
0.000128197
0.000219674
0.000112724
0.000204041
9.48573e-05
0.000188222
8.78366e-05
0.000167605
9.40064e-05
0.000132667
0.000122196
8.79824e-05
0.000153961
5.15264e-05
0.000139571
2.72483e-05
8.34538e-05
4.93759e-05
3.24435e-05
-0.000450195
5.80525e-05
-0.000422923
8.11807e-05
-0.000354583
0.000100059
-0.000272599
0.000108165
-0.00018515
0.00010912
-0.000109175
0.000103106
-4.63682e-05
8.82714e-05
2.6661e-06
8.66815e-05
3.26919e-05
0.000100979
5.75704e-05
0.00011904
8.74227e-05
0.000134156
0.000113221
0.000143517
0.000130774
0.000147738
0.00013821
0.000147752
0.000139131
0.000143926
0.000134653
0.000135813
0.000123533
0.000123219
0.000109533
0.000107189
0.000105852
7.39572e-05
0.000129593
3.19412e-05
0.000168895
-3.13585e-07
0.000186657
-4.1099e-06
0.000140683
-4.52752e-06
7.96771e-05
4.22898e-05
1.61392e-05
-0.000469111
3.07595e-05
-0.000440179
3.87346e-05
-0.000365319
3.09107e-05
-0.000267299
2.11142e-05
-0.00017276
1.49542e-05
-9.79832e-05
3.30816e-06
-3.29824e-05
-2.08969e-05
2.36155e-05
-4.76278e-05
5.23183e-05
-5.31711e-05
6.15811e-05
-4.31988e-05
7.82051e-05
-2.8389e-05
9.95733e-05
-1.30537e-05
0.000116446
6.91309e-07
0.000125275
1.1807e-05
0.000128847
1.94398e-05
0.00012797
2.06417e-05
0.000122965
7.85361e-06
0.00012146
-3.26894e-05
0.000146726
-8.76261e-05
0.000189028
-0.000125787
0.00021054
-0.000120274
0.000180409
-8.74819e-05
0.000104824
-4.88787e-05
3.6188e-05
-1.05978e-05
-5.30028e-06
-0.000466769
-2.09562e-05
-0.000429053
-5.10122e-05
-0.000339047
-8.57504e-05
-0.000229006
-0.000105952
-0.000141085
-0.000114718
-7.81318e-05
-0.00012238
-1.70704e-05
-0.000131273
3.77216e-05
-0.000148538
6.524e-05
-0.000157454
6.73071e-05
-0.000151367
7.20817e-05
-0.000138998
8.8033e-05
-0.000127436
0.000105564
-0.000117969
0.000115795
-0.000108506
0.000118956
-0.000102673
0.00012092
-0.000115827
0.000134114
-0.00016767
0.00017255
-0.000227495
0.000210093
-0.00026039
0.000225009
-0.00025194
0.000202981
-0.00020905
0.000136914
-0.000152457
4.51715e-05
-7.67688e-05
-4.2565e-05
-8.9252e-05
-2.80317e-05
-0.000442168
-6.3101e-05
-0.000397243
-0.000106139
-0.000298873
-0.000145546
-0.00018793
-0.000168983
-0.000111779
-0.000180529
-5.9403e-05
-0.0001953
6.60352e-06
-0.000203862
4.95164e-05
-0.000203904
6.44205e-05
-0.000201122
6.17029e-05
-0.00019408
6.41474e-05
-0.000186266
8.033e-05
-0.000181064
0.000100401
-0.000182443
0.000116429
-0.000197201
0.000132742
-0.000238445
0.000160465
-0.000300575
0.000195631
-0.00036088
0.000234167
-0.000382925
0.000234166
-0.000364707
0.000208171
-0.000297976
0.000135872
-0.000209875
4.81678e-05
-0.000126464
-4.05555e-05
-5.29e-05
-0.000116424
-0.000140639
-3.39416e-05
-0.000408756
-7.04046e-05
-0.000362295
-0.000110045
-0.000262777
-0.000152346
-0.00014902
-0.00019201
-7.31926e-05
-0.000223714
-2.44671e-05
-0.00024516
3.14931e-05
-0.000247383
5.47153e-05
-0.000237736
5.66652e-05
-0.000229255
5.25181e-05
-0.000227675
6.22352e-05
-0.000237103
8.89926e-05
-0.000256516
0.000119507
-0.000295179
0.000154154
-0.000358623
0.000192248
-0.000428216
0.000229023
-0.000478737
0.000246988
-0.000475472
0.000234562
-0.000436141
0.000196765
-0.000350519
0.000123234
-0.000247216
3.27598e-05
-0.000153216
-4.64751e-05
-8.72595e-05
-0.000107771
-4.21592e-05
-0.000161391
-0.000182047
-2.95489e-05
-0.000379071
-6.0664e-05
-0.000330688
-9.51601e-05
-0.000229298
-0.000136416
-0.000111227
-0.000182471
-3.04395e-05
-0.000222333
1.47342e-05
-0.000239075
4.90213e-05
-0.000237388
5.6691e-05
-0.000231553
5.37984e-05
-0.000238207
5.89767e-05
-0.000266283
9.01922e-05
-0.000320503
0.000143467
-0.000401046
0.000195229
-0.000486417
0.000237687
-0.000553263
0.000261473
-0.000572042
0.00024926
-0.000547009
0.000224691
-0.000474683
0.000164106
-0.00036925
9.353e-05
-0.000254965
8.97873e-06
-0.000165219
-5.82104e-05
-0.000112272
-0.000100815
-7.75613e-05
-0.000144173
-4.36805e-05
-0.000196009
-0.00022711
-3.10923e-05
-0.000349053
-6.2351e-05
-0.00029962
-9.1987e-05
-0.000199741
-0.00012155
-8.34819e-05
-0.000151491
-2.77344e-06
-0.000184675
4.61333e-05
-0.000207904
7.31549e-05
-0.000222762
7.46167e-05
-0.000243406
7.63479e-05
-0.000295901
0.000111392
-0.000396961
0.000187046
-0.000505675
0.000249924
-0.000592748
0.00028617
-0.000637849
0.000285339
-0.000633181
0.000260903
-0.000585654
0.000204867
-0.000485224
0.00012716
-0.00037186
5.15083e-05
-0.000264295
-1.54331e-05
-0.000185656
-7.24416e-05
-0.000131181
-0.000116073
-8.58595e-05
-0.000149821
-4.94695e-05
-0.000184054
-2.7819e-05
-0.000220136
-0.000256548
-2.93904e-05
-0.00032076
-5.98375e-05
-0.000270072
-8.52893e-05
-0.000174203
-0.000110437
-5.88884e-05
-0.000134238
2.03545e-05
-0.00015863
6.96798e-05
-0.000187423
0.000103437
-0.000225232
0.000113747
-0.000297021
0.000146047
-0.000419149
0.0002283
-0.000534557
0.00030183
-0.000607398
0.000326731
-0.000642817
0.000323617
-0.000645313
0.000288624
-0.000598679
0.000217029
-0.00051383
0.000119408
-0.000413401
2.25047e-05
-0.000331362
-3.6109e-05
-0.000262269
-8.99255e-05
-0.000199549
-0.000139869
-0.000143643
-0.000176509
-9.03979e-05
-0.000207544
-5.07532e-05
-0.000227294
-2.61393e-05
-0.000247449
-0.00028249
-2.74536e-05
-0.000294738
-5.68107e-05
-0.000242188
-8.01241e-05
-0.000150805
-0.000100922
-3.70885e-05
-0.000126452
4.64499e-05
-0.000155525
9.91896e-05
-0.000196247
0.000145965
-0.000264714
0.000179935
-0.000375259
0.000250171
-0.000483839
0.00033295
-0.000542551
0.000363092
-0.000580302
0.000366746
-0.000599477
0.000341263
-0.000578403
0.000269325
-0.000521754
0.000157884
-0.000451221
3.90675e-05
-0.000401098
-3.98571e-05
-0.000341999
-0.000104822
-0.000268135
-0.000169797
-0.000204476
-0.000208428
-0.000149561
-0.000235272
-0.000102362
-0.000258203
-6.17644e-05
-0.000270398
-2.94254e-05
-0.000282607
-0.000311724
-3.04451e-05
-0.000266423
-6.45606e-05
-0.000210745
-9.32092e-05
-0.000123165
-0.000116904
-1.23492e-05
-0.000144781
7.52329e-05
-0.000179836
0.000135214
-0.000228237
0.000193862
-0.000303525
0.000250566
-0.000390141
0.000331661
-0.000441783
0.000381124
-0.000473519
0.000393341
-0.000490924
0.000384129
-0.000475918
0.000333409
-0.000435846
0.000240675
-0.00038435
0.000116972
-0.00033914
1.61967e-07
-0.000285145
-9.08977e-05
-0.000226927
-0.00016943
-0.000181347
-0.000221704
-0.000143928
-0.000249853
-0.000108201
-0.000274227
-7.45455e-05
-0.000294378
-4.22464e-05
-0.000304196
-1.5303e-05
-0.000311314
-0.000328077
-3.44315e-05
-0.000234227
-7.10088e-05
-0.000177414
-9.91419e-05
-9.68314e-05
-0.000122312
1.01666e-05
-0.000149934
0.000102541
-0.000182442
0.000167961
-0.000223777
0.000232895
-0.000271146
0.000292598
-0.000306944
0.000361579
-0.000317956
0.0003894
-0.000318804
0.000392656
-0.000304397
0.000374004
-0.00027579
0.000317596
-0.000239191
0.000224641
-0.000203332
0.000103934
-0.000171188
-1.13986e-05
-0.000136334
-0.000114888
-0.000113333
-0.000190953
-0.000102651
-0.000235982
-8.91338e-05
-0.000265555
-7.27893e-05
-0.000292461
-5.37268e-05
-0.000314682
-3.07126e-05
-0.000327039
-5.9692e-06
-0.000334698
-0.000336561
-3.19105e-05
-0.000204588
-6.72225e-05
-0.000145455
-9.32689e-05
-7.29908e-05
-0.000111118
2.54123e-05
-0.000133503
0.000123479
-0.000153651
0.000187143
-0.000172347
0.000248915
-0.000186269
0.000301412
-0.000186525
0.000355894
-0.000174805
0.000374428
-0.000156701
0.000374721
-0.000132125
0.000354212
-0.000105398
0.000301453
-7.55253e-05
0.000211627
-4.94098e-05
9.64988e-05
-3.11715e-05
-1.43524e-05
-2.93942e-05
-0.00011081
-4.21386e-05
-0.000177855
-5.42746e-05
-0.000225268
-5.56685e-05
-0.000264446
-4.9598e-05
-0.000298306
-3.83323e-05
-0.000325969
-2.08531e-05
-0.000342431
-1.31467e-06
-0.000350861
-0.000340815
-2.67657e-05
-0.000179668
-5.91401e-05
-0.000116445
-8.42583e-05
-5.05134e-05
-9.44345e-05
3.29191e-05
-0.000105741
0.00013282
-0.000116546
0.000195428
-0.000124962
0.000254475
-0.000127155
0.000300053
-0.000113807
0.000338717
-9.42539e-05
0.000352556
-7.15146e-05
0.000352059
-4.5753e-05
0.000331126
-1.52504e-05
0.00027746
1.33688e-05
0.000192221
3.1051e-05
8.91263e-05
3.45293e-05
-1.22269e-05
1.6175e-05
-8.80579e-05
-1.44965e-05
-0.000145759
-3.85113e-05
-0.000201937
-4.67735e-05
-0.000256151
-4.39137e-05
-0.000300178
-3.5725e-05
-0.000333994
-2.32062e-05
-0.000353613
-1.15985e-05
-0.000361269
-0.000352813
-2.25237e-05
-0.000158046
-4.86906e-05
-9.3503e-05
-7.00084e-05
-3.19757e-05
-7.47327e-05
3.50666e-05
-7.48272e-05
0.000130283
-7.94301e-05
0.000197695
-7.95534e-05
0.000251636
-7.91866e-05
0.000296211
-6.72117e-05
0.000323843
-5.09847e-05
0.000334755
-3.08656e-05
0.000332138
-5.70898e-06
0.000308312
2.11171e-05
0.000254885
4.17097e-05
0.000177101
4.52635e-05
9.1118e-05
2.84598e-05
9.19645e-06
-5.09232e-06
-5.20843e-05
-3.91339e-05
-0.000114391
-5.83443e-05
-0.000184118
-6.51963e-05
-0.000249692
-6.08245e-05
-0.000304765
-4.87262e-05
-0.000346019
-3.35271e-05
-0.000368701
-1.8476e-05
-0.000376373
-0.000371516
-1.81832e-05
-0.000140235
-3.52865e-05
-7.88321e-05
-5.2483e-05
-1.65996e-05
-5.53004e-05
3.50243e-05
-4.2689e-05
0.000113973
-4.11491e-05
0.000192613
-3.50704e-05
0.000242195
-2.36677e-05
0.000281982
-5.11662e-06
0.000302379
1.49088e-05
0.000312579
3.35869e-05
0.000313996
5.1711e-05
0.000292804
6.97606e-05
0.000241262
7.94158e-05
0.000172728
7.20101e-05
0.0001037
4.63629e-05
3.87623e-05
9.66056e-06
-1.82554e-05
-2.60021e-05
-8.45185e-05
-5.13673e-05
-0.000164391
-6.18839e-05
-0.00024233
-5.88305e-05
-0.000308844
-4.69181e-05
-0.000358202
-3.05373e-05
-0.000385314
-1.43028e-05
-0.000393445
-0.000386662
-1.79501e-05
-0.000122712
-2.52327e-05
-7.28009e-05
-3.17837e-05
-1.28769e-05
-2.70986e-05
2.79616e-05
1.6976e-06
8.29954e-05
3.2553e-05
0.000156625
4.833e-05
0.000220273
5.79339e-05
0.000267696
6.99369e-05
0.000288227
8.93109e-05
0.000292413
0.000113185
0.000290223
0.000136676
0.000272314
0.000150634
0.000232206
0.000148904
0.000179688
0.000137355
0.000120047
0.000116791
6.02487e-05
8.30507e-05
1.16967e-05
5.15542e-05
-4.79116e-05
2.35698e-05
-0.000128936
-4.23069e-06
-0.000215756
-2.09439e-05
-0.000295582
-2.43005e-05
-0.000357033
-1.72621e-05
-0.000393997
-8.03428e-06
-0.000405038
-0.000396967
-1.72816e-05
-0.00010625
-1.55345e-05
-7.43005e-05
-1.6513e-06
-2.89946e-05
1.65121e-05
7.27168e-06
4.71719e-05
4.95087e-05
0.000100098
0.000100445
0.000158046
0.000157158
0.000207328
0.000212508
0.000236595
0.000254038
0.000253096
0.000272505
0.000268566
0.000273993
0.000280187
0.000264251
0.00028162
0.000237219
0.000273591
0.000196061
0.000260067
0.000140202
0.000235626
8.68512e-05
0.000213884
4.22867e-05
0.000200323
-1.6454e-05
0.000173516
-8.30061e-05
0.000127375
-0.000160165
7.69456e-05
-0.000251206
4.09425e-05
-0.000328758
2.16833e-05
-0.000379225
9.53977e-06
-0.000397227
-0.000391849
-1.09218e-05
-9.59933e-05
-1.69807e-06
-8.18533e-05
2.46424e-05
-5.55721e-05
5.50359e-05
-2.57834e-05
8.93248e-05
1.2249e-05
0.000134652
5.24475e-05
0.000194038
9.49896e-05
0.000264569
0.00013831
0.000336757
0.000177487
0.00039741
0.000208002
0.000443385
0.000225105
0.000476033
0.000230026
0.000495425
0.000219799
0.000499836
0.000197265
0.000488467
0.000159736
0.0004611
0.000124658
0.000433856
8.26844e-05
0.00040064
3.09864e-05
0.00035064
-1.75639e-05
0.000280904
-8.52109e-05
0.00019942
-0.000177464
0.000127823
-0.000266588
7.57986e-05
-0.000331911
3.61951e-05
-0.000360466
-0.000359904
1.23547e-05
-0.000108594
3.81435e-05
-0.000105457
6.983e-05
-8.62305e-05
0.000100106
-5.78497e-05
0.000132991
-2.32859e-05
0.000168682
1.37112e-05
0.000210076
5.08534e-05
0.000261193
8.53096e-05
0.000321632
0.000115049
0.000385063
0.000142104
0.000443936
0.000164628
0.000495691
0.000177643
0.000534568
0.00018156
0.000553378
0.000180721
0.000554569
0.000162385
0.000540678
0.000144612
0.000510005
0.000120038
0.000462419
8.48769e-05
0.000395768
5.02351e-05
0.00031158
-8.6556e-06
0.000226619
-0.000102118
0.000152601
-0.00019836
9.37159e-05
-0.000275441
4.5312e-05
-0.000313159
-0.000316554
5.22852e-05
-0.000159842
0.000100405
-0.000152239
0.000140226
-0.000124057
0.000168572
-8.52746e-05
0.000188969
-4.44253e-05
0.0002084
-7.32302e-06
0.000230873
2.67486e-05
0.000258091
5.65442e-05
0.000289024
8.29599e-05
0.00032574
0.00010506
0.000368495
0.000121641
0.000416214
0.000129723
0.00046496
0.000132929
0.000504728
0.000143531
0.000520926
0.000149188
0.000518194
0.000150293
0.000495312
0.00014696
0.000451372
0.000132573
0.000383992
0.000115049
0.000298078
6.7279e-05
0.000218562
-3.19431e-05
0.000151227
-0.000135625
9.53715e-05
-0.000221105
4.70033e-05
-0.000265083
-0.000270895
5.58334e-05
-0.000215254
0.000100303
-0.000196112
0.000134325
-0.000156873
0.000161977
-0.000110769
0.000184121
-6.47879e-05
0.000201723
-2.46795e-05
0.000219447
7.78182e-06
0.000240259
3.45039e-05
0.000263933
5.85134e-05
0.00028799
8.04904e-05
0.000312743
9.67028e-05
0.000338233
0.000104858
0.000364482
0.000107286
0.000396908
0.000112483
0.000423716
0.000126667
0.000428234
0.00015025
0.000408171
0.000171067
0.000365191
0.00017756
0.000305819
0.000169338
0.000241269
0.00012253
0.000186017
1.52876e-05
0.000135921
-8.90922e-05
9.02469e-05
-0.000176555
4.57299e-05
-0.000221101
-0.000227064
2.66348e-05
-0.000242567
3.93062e-05
-0.000211952
4.10953e-05
-0.000163056
4.69904e-05
-0.000118697
6.44104e-05
-8.20223e-05
9.45687e-05
-5.30274e-05
0.000131174
-2.70306e-05
0.000166821
-3.87565e-07
0.000199565
2.5707e-05
0.000227988
5.19413e-05
0.000251831
7.26222e-05
0.000272386
8.41603e-05
0.000289638
9.01796e-05
0.000303742
9.94537e-05
0.000312843
0.000120462
0.000305626
0.000161889
0.000281559
0.000198927
0.000247784
0.000211382
0.000211252
0.000201926
0.000182462
0.000145313
0.000152028
4.04898e-05
0.000121706
-6.1235e-05
8.66194e-05
-0.000142927
4.51408e-05
-0.00018146
-0.000185116
-1.87373e-06
-0.000243102
-1.83945e-05
-0.000200665
-3.38242e-05
-0.000151067
-4.10231e-05
-0.00011273
-3.5541e-05
-8.82495e-05
-1.24296e-05
-7.6241e-05
2.53322e-05
-6.44382e-05
6.98505e-05
-4.43188e-05
0.00011088
-1.45705e-05
0.000144645
1.8705e-05
0.000170676
4.67508e-05
0.00019086
6.38088e-05
0.000205931
7.49145e-05
0.000213433
9.25646e-05
0.000207059
0.0001295
0.000189812
0.00018392
0.000173215
0.000219526
0.000158871
0.000225487
0.000148916
0.000209591
0.000146816
0.000143242
0.000138502
4.63425e-05
0.000124284
-4.79412e-05
9.52652e-05
-0.000115313
5.08444e-05
-0.000140435
-0.000138488
-1.65547e-05
-0.00022775
-3.29583e-05
-0.000186388
-4.18989e-05
-0.000144426
-4.16776e-05
-0.00011546
-3.30626e-05
-9.80111e-05
-1.74829e-05
-9.20514e-05
2.89818e-06
-8.49566e-05
2.89638e-05
-7.06184e-05
6.00172e-05
-4.51038e-05
8.73533e-05
-7.71646e-06
0.000105693
2.88787e-05
0.000114998
5.45559e-05
0.000116497
7.36402e-05
0.000109201
0.000101331
9.40591e-05
0.000148503
8.48955e-05
0.000198013
8.74413e-05
0.00021924
9.58397e-05
0.000216541
0.000112135
0.000191586
0.000129939
0.0001229
0.000140114
3.58735e-05
0.000136894
-4.44093e-05
0.000109003
-8.82776e-05
5.95314e-05
-9.54503e-05
-8.45647e-05
-1.55198e-05
-0.0002132
-2.16459e-05
-0.000180643
-1.52144e-05
-0.000150002
2.0991e-06
-0.000132404
1.69432e-05
-0.000113594
2.31647e-05
-9.9955e-05
2.44334e-05
-8.78162e-05
2.61878e-05
-7.3286e-05
3.17118e-05
-5.08364e-05
4.01007e-05
-1.57489e-05
4.47552e-05
2.51017e-05
4.2295e-05
5.79082e-05
3.17929e-05
8.53871e-05
1.66338e-05
0.000119164
7.93634e-06
0.000161738
1.72042e-05
0.000192795
3.83288e-05
0.000199068
6.3887e-05
0.00018995
9.67593e-05
0.000156986
0.000130162
8.77839e-05
0.000153972
1.20424e-05
0.000152376
-4.18979e-05
0.000121481
-5.75568e-05
6.88002e-05
-4.69934e-05
-2.48184e-05
-2.06698e-05
-0.00019488
-2.77384e-05
-0.00017339
-1.94417e-05
-0.000157266
-3.73616e-06
-0.000147008
1.30053e-05
-0.000129105
2.22079e-05
-0.000108133
1.97029e-05
-8.48436e-05
6.2009e-06
-6.05122e-05
-1.29312e-05
-3.35313e-05
-2.86509e-05
-8.26312e-07
-3.90551e-05
3.69929e-05
-4.82118e-05
6.95996e-05
-5.92552e-05
9.94271e-05
-6.73083e-05
0.000130959
-6.17605e-05
0.000160248
-4.14239e-05
0.000174789
-1.29276e-05
0.000170946
2.74549e-05
0.000147644
8.26061e-05
9.94496e-05
0.000131708
3.83699e-05
0.000152056
-6.48835e-06
0.000136521
-2.57935e-05
9.97512e-05
-2.17575e-05
5.13066e-05
-3.2574e-06
1.81826e-05
-3.72803e-05
-0.000161212
-5.96972e-05
-0.000151834
-7.06435e-05
-0.000145683
-8.12009e-05
-0.000136624
-9.11864e-05
-0.000119627
-0.000100732
-9.91344e-05
-0.000112102
-7.30832e-05
-0.000127487
-4.29096e-05
-0.000145625
-1.12821e-05
-0.000160822
1.90245e-05
-0.000170518
5.07498e-05
-0.0001766
7.94562e-05
-0.000178349
0.000104792
-0.000170862
0.000126926
-0.000148303
0.000139957
-0.000108936
0.000136361
-5.56739e-05
0.000117696
6.8997e-06
8.46029e-05
6.12905e-05
4.57971e-05
8.41036e-05
1.58712e-05
7.35394e-05
2.93476e-06
4.42092e-05
9.6415e-07
1.49716e-05
4.31472e-06
-1.35866e-07
9.82717e-06
1.62913e-05
-4.56987e-05
-0.000119113
-8.29206e-05
-0.000116243
-0.000113831
-0.00011483
-0.00014199
-0.000108507
-0.00016782
-9.30187e-05
-0.000192745
-7.32923e-05
-0.000215042
-4.97523e-05
-0.000233693
-2.27166e-05
-0.00024692
4.79944e-06
-0.000253736
2.92362e-05
-0.000251677
5.19884e-05
-0.000241307
7.18902e-05
-0.000222538
8.83082e-05
-0.000191088
9.78203e-05
-0.000147046
9.84345e-05
-9.51624e-05
8.66337e-05
-4.36679e-05
6.76659e-05
-6.62563e-06
4.91136e-05
3.85475e-06
3.57653e-05
-1.15431e-05
3.03506e-05
-3.92174e-05
2.83718e-05
-6.15704e-05
2.01969e-05
-6.37197e-05
4.09351e-06
-4.05502e-05
-1.32386e-05
-2.1027e-05
-4.34422e-05
-7.83794e-05
-8.11079e-05
-7.93272e-05
-0.000112971
-8.25957e-05
-0.000141425
-7.99696e-05
-0.000166397
-6.75663e-05
-0.000189792
-4.97209e-05
-0.000210616
-2.89184e-05
-0.000225883
-7.01614e-06
-0.00023361
1.37441e-05
-0.000233469
3.1253e-05
-0.000223438
4.4713e-05
-0.000202457
5.38576e-05
-0.000169859
5.86701e-05
-0.000127751
5.8118e-05
-8.2269e-05
5.51012e-05
-4.36428e-05
5.03029e-05
-1.86519e-05
4.48257e-05
-1.09605e-05
4.23559e-05
-1.89135e-05
4.34944e-05
-3.94342e-05
4.90668e-05
-6.5249e-05
4.99517e-05
-7.82727e-05
3.15861e-05
-6.87579e-05
-3.26999e-06
-4.11807e-05
-3.69969e-05
-5.601e-05
-2.85911e-05
-5.16185e-05
-5.3801e-05
-5.42368e-05
-7.62909e-05
-5.94672e-05
-9.48855e-05
-6.07331e-05
-0.000107338
-5.40073e-05
-0.000115905
-4.01995e-05
-0.000122878
-2.1209e-05
-0.000128547
-1.02726e-06
-0.000133586
1.91837e-05
-0.000134124
3.24592e-05
-0.000125301
3.70955e-05
-0.000105994
3.62577e-05
-7.89495e-05
3.37765e-05
-5.03853e-05
3.20748e-05
-2.46195e-05
3.16806e-05
-4.87291e-06
3.22123e-05
6.63946e-06
3.41211e-05
1.03277e-05
3.83058e-05
8.02464e-06
4.54732e-05
-3.50285e-06
5.86677e-05
-1.70837e-05
6.26047e-05
-2.59327e-05
4.21485e-05
-2.88237e-05
6.55998e-07
-2.08978e-05
-4.28227e-05
-7.18263e-05
-8.24832e-06
-4.49889e-05
-1.18343e-05
-4.98017e-05
-1.67089e-05
-5.36889e-05
-2.22416e-05
-5.49527e-05
-2.43967e-05
-5.14046e-05
-2.0994e-05
-4.28832e-05
-1.23036e-05
-2.92003e-05
-9.63246e-07
-1.17454e-05
1.07435e-05
7.84177e-06
1.7852e-05
2.56359e-05
1.92983e-05
3.58855e-05
1.6274e-05
3.93801e-05
1.38543e-05
3.65232e-05
1.43829e-05
3.21778e-05
1.90596e-05
2.76836e-05
2.58568e-05
2.56006e-05
3.36972e-05
2.5926e-05
4.23147e-05
2.93219e-05
5.03179e-05
3.69366e-05
5.43415e-05
5.37786e-05
5.43062e-05
6.37306e-05
4.60666e-05
5.2426e-05
2.70581e-05
1.93186e-05
8.22113e-06
-2.6228e-05
-6.34991e-05
1.28428e-05
-5.80784e-05
2.72357e-05
-6.31873e-05
3.90093e-05
-6.44694e-05
4.59862e-05
-6.14013e-05
4.96241e-05
-5.47657e-05
5.25829e-05
-4.58663e-05
5.81623e-05
-3.48006e-05
6.90004e-05
-2.23542e-05
8.58598e-05
-8.46938e-06
0.000105665
6.66398e-06
0.00012103
2.10949e-05
0.000126637
3.37211e-05
0.000122127
4.04174e-05
0.000110483
4.27624e-05
9.6513e-05
4.06639e-05
8.46581e-05
3.66839e-05
7.77226e-05
3.23755e-05
7.65405e-05
3.01498e-05
7.98199e-05
3.31616e-05
8.81328e-05
4.61401e-05
9.25113e-05
6.07284e-05
8.59541e-05
5.98548e-05
6.36314e-05
4.19718e-05
3.06076e-05
4.06404e-06
-3.6235e-05
2.4438e-05