/*--------------------------------*- C++ -*----------------------------------*\
| =========                 |                                                 |
| \\      /  F ield         | OpenFOAM: The Open Source CFD Toolbox           |
|  \\    /   O peration     | Version:  2.3.0                                 |
|   \\  /    A nd           | Web:      www.OpenFOAM.org                      |
|    \\/     M anipulation  |                                                 |
\*---------------------------------------------------------------------------*/
FoamFile
{
    version     2.0;
    format      ascii;
    class       volVectorField;
    location    "24";
    object      U.water;
}
// * * * * * * * * * * * * * * * * * * * * * * * * * * * * * * * * * * * * * //

dimensions      [0 1 -1 0 0 0 0];

internalField   nonuniform List<vector> 
1875
(
(0.0791099 -0.276018 0)
(0.207538 -0.287228 0)
(0.333102 -0.25053 0)
(0.432207 -0.214767 0)
(0.506433 -0.184117 0)
(0.555813 -0.162754 0)
(0.595167 -0.149381 0)
(0.621279 -0.138407 0)
(0.644338 -0.133392 0)
(0.662987 -0.123837 0)
(0.677064 -0.117794 0)
(0.689542 -0.107423 0)
(0.685524 -0.0956015 0)
(0.670034 -0.0855475 0)
(0.636338 -0.0750084 0)
(0.583734 -0.0601739 0)
(0.518051 -0.0495874 0)
(0.442877 -0.031743 0)
(0.357367 -0.0243389 0)
(0.284807 -0.0155022 0)
(0.213308 0.0231229 0)
(0.132457 0.0104382 0)
(0.0818812 -0.0145131 0)
(0.0202393 -0.0519344 0)
(-0.00289209 -0.201217 0)
(0.0593945 -0.482772 0)
(0.135581 -0.452232 0)
(0.210179 -0.330121 0)
(0.248889 -0.207759 0)
(0.263198 -0.11536 0)
(0.267519 -0.0503484 0)
(0.269167 -0.00728113 0)
(0.275395 0.0176343 0)
(0.290672 0.029824 0)
(0.315985 0.0396007 0)
(0.337153 0.0563071 0)
(0.365167 0.0896936 0)
(0.379349 0.126983 0)
(0.386298 0.177269 0)
(0.383106 0.22486 0)
(0.364805 0.256382 0)
(0.333195 0.27587 0)
(0.287283 0.289087 0)
(0.242316 0.27017 0)
(0.18211 0.231274 0)
(0.138335 0.210167 0)
(0.103372 0.189184 0)
(0.0961328 0.169052 0)
(0.0746154 0.159678 0)
(0.0613068 0.203821 0)
(0.0114025 -0.614651 0)
(0.0455938 -0.540315 0)
(0.0358489 -0.342743 0)
(0.0297325 -0.192295 0)
(0.0250305 -0.110486 0)
(0.0203363 -0.0794303 0)
(0.0250268 -0.0855711 0)
(0.0458983 -0.118392 0)
(0.0751894 -0.147816 0)
(0.10296 -0.143282 0)
(0.123173 -0.133772 0)
(0.136952 -0.101199 0)
(0.145791 -0.0302292 0)
(0.14606 0.0513821 0)
(0.14219 0.118747 0)
(0.131335 0.174625 0)
(0.11326 0.219536 0)
(0.089738 0.249481 0)
(0.0700682 0.29627 0)
(0.0420779 0.309087 0)
(0.0194067 0.264669 0)
(0.00880846 0.18983 0)
(0.00880197 0.160265 0)
(-0.0112497 0.154134 0)
(0.0140144 0.182096 0)
(-0.00307572 -0.644487 0)
(-0.0152234 -0.541439 0)
(-0.0248919 -0.337878 0)
(-0.0238563 -0.241504 0)
(-0.0024126 -0.163192 0)
(0.0196893 -0.127288 0)
(0.0415256 -0.137178 0)
(0.0625841 -0.17374 0)
(0.0722408 -0.18736 0)
(0.0611972 -0.169712 0)
(0.012087 -0.132052 0)
(-0.0632898 -0.0349805 0)
(-0.110496 0.0881883 0)
(-0.151302 0.226272 0)
(-0.184984 0.297164 0)
(-0.221864 0.338611 0)
(-0.234399 0.352403 0)
(-0.240921 0.34476 0)
(-0.225117 0.314034 0)
(-0.21108 0.272118 0)
(-0.194113 0.214152 0)
(-0.170262 0.175501 0)
(-0.139341 0.15152 0)
(-0.0917251 0.124851 0)
(-0.042393 0.129609 0)
(-0.0245455 -0.62009 0)
(-0.0375289 -0.527889 0)
(-0.0463944 -0.363521 0)
(-0.0382113 -0.28338 0)
(-0.0257993 -0.231119 0)
(-0.00958013 -0.197547 0)
(-0.00594031 -0.188577 0)
(-0.049947 -0.192175 0)
(-0.140412 -0.114421 0)
(-0.23728 0.0717364 0)
(-0.308257 0.165754 0)
(-0.37432 0.213731 0)
(-0.405521 0.270119 0)
(-0.418795 0.296367 0)
(-0.417391 0.308519 0)
(-0.401107 0.309007 0)
(-0.377067 0.290452 0)
(-0.350326 0.271237 0)
(-0.315927 0.234565 0)
(-0.279404 0.188213 0)
(-0.235236 0.129404 0)
(-0.191066 0.0733299 0)
(-0.140278 0.00155956 0)
(-0.08375 -0.0661244 0)
(-0.0475061 -0.0984772 0)
(-0.0280064 -0.558715 0)
(-0.0589636 -0.466036 0)
(-0.0943086 -0.331216 0)
(-0.113918 -0.265459 0)
(-0.142163 -0.208783 0)
(-0.182152 -0.135081 0)
(-0.246517 -0.0196823 0)
(-0.320147 0.10045 0)
(-0.391726 0.142457 0)
(-0.420692 0.186947 0)
(-0.43499 0.228059 0)
(-0.452263 0.243791 0)
(-0.447246 0.266213 0)
(-0.436963 0.274923 0)
(-0.419973 0.275799 0)
(-0.390994 0.26845 0)
(-0.353575 0.238155 0)
(-0.308826 0.205349 0)
(-0.248989 0.139594 0)
(-0.187341 0.0705396 0)
(-0.126489 0.00860785 0)
(-0.087806 -0.0290973 0)
(-0.0546542 -0.0675833 0)
(-0.0372492 -0.10844 0)
(-0.016754 -0.178312 0)
(-0.0478499 -0.444953 0)
(-0.0799338 -0.36132 0)
(-0.138491 -0.230919 0)
(-0.172012 -0.146325 0)
(-0.22164 -0.0565198 0)
(-0.279104 0.036078 0)
(-0.332565 0.10707 0)
(-0.359995 0.16249 0)
(-0.391719 0.201907 0)
(-0.411406 0.232082 0)
(-0.418294 0.249801 0)
(-0.422243 0.257686 0)
(-0.407772 0.265808 0)
(-0.382482 0.248181 0)
(-0.340137 0.222351 0)
(-0.278804 0.179946 0)
(-0.209189 0.114712 0)
(-0.142298 0.0570149 0)
(-0.070113 -0.0195601 0)
(-0.0265406 -0.0575821 0)
(-0.00391415 -0.0655528 0)
(0.00231842 -0.0712618 0)
(0.00145643 -0.0870603 0)
(-0.00502228 -0.117492 0)
(-0.00321571 -0.205216 0)
(-0.0289349 -0.348257 0)
(-0.0693822 -0.27446 0)
(-0.115947 -0.155318 0)
(-0.158818 -0.0823747 0)
(-0.200476 0.0104002 0)
(-0.244838 0.099474 0)
(-0.286216 0.1687 0)
(-0.318576 0.21744 0)
(-0.337806 0.24269 0)
(-0.349037 0.252132 0)
(-0.351194 0.255797 0)
(-0.339171 0.236246 0)
(-0.303885 0.189869 0)
(-0.254537 0.131681 0)
(-0.199033 0.0543962 0)
(-0.135491 -0.0242611 0)
(-0.086464 -0.0827485 0)
(-0.0441315 -0.111358 0)
(-0.0198296 -0.113812 0)
(-0.0115931 -0.0982894 0)
(-0.00752835 -0.0762485 0)
(-0.0114431 -0.0677547 0)
(-0.0092829 -0.0675479 0)
(-0.00690799 -0.106033 0)
(0.00121584 -0.208221 0)
(-0.0385208 -0.244852 0)
(-0.0610495 -0.178521 0)
(-0.0884843 -0.0719082 0)
(-0.119693 0.0101849 0)
(-0.150834 0.0964319 0)
(-0.172169 0.189498 0)
(-0.198856 0.248655 0)
(-0.208779 0.280637 0)
(-0.215064 0.290156 0)
(-0.219885 0.286818 0)
(-0.21444 0.249071 0)
(-0.190447 0.181874 0)
(-0.164417 0.10533 0)
(-0.145044 0.0350362 0)
(-0.123481 -0.0350859 0)
(-0.117678 -0.0826263 0)
(-0.118654 -0.102117 0)
(-0.134738 -0.108452 0)
(-0.150435 -0.0982342 0)
(-0.15738 -0.0741714 0)
(-0.13803 -0.0579157 0)
(-0.112135 -0.0687513 0)
(-0.0756006 -0.102281 0)
(-0.0372209 -0.169067 0)
(-0.00510027 -0.242304 0)
(-0.0312104 -0.150025 0)
(-0.0508372 -0.130754 0)
(-0.0638478 -0.0432511 0)
(-0.055264 0.0563477 0)
(-0.0624661 0.118704 0)
(-0.0627022 0.196646 0)
(-0.0641761 0.258077 0)
(-0.062303 0.276606 0)
(-0.0638421 0.275354 0)
(-0.0669875 0.255987 0)
(-0.0671609 0.201224 0)
(-0.0612848 0.137639 0)
(-0.0755104 0.0923366 0)
(-0.0953338 0.047343 0)
(-0.11641 -0.00767393 0)
(-0.141258 -0.0431819 0)
(-0.152967 -0.0560397 0)
(-0.176235 -0.052312 0)
(-0.187797 -0.0615572 0)
(-0.187122 -0.0982403 0)
(-0.166559 -0.159536 0)
(-0.133336 -0.216283 0)
(-0.0918411 -0.260249 0)
(-0.0545121 -0.288608 0)
(-0.0156675 -0.311549 0)
(-0.0134311 -0.0905573 0)
(-0.0213938 -0.101813 0)
(-0.0189585 -0.0756118 0)
(0.00556393 -0.00526039 0)
(0.0394246 0.0734045 0)
(0.0736764 0.14927 0)
(0.107232 0.223669 0)
(0.1385 0.280086 0)
(0.155608 0.316706 0)
(0.161858 0.312838 0)
(0.154285 0.29523 0)
(0.129837 0.251501 0)
(0.091775 0.187836 0)
(0.0546891 0.115169 0)
(0.0227987 0.0457907 0)
(-0.0190482 -0.0234517 0)
(-0.0565126 -0.0764741 0)
(-0.0809851 -0.0895831 0)
(-0.0895892 -0.12255 0)
(-0.0972349 -0.168723 0)
(-0.0910948 -0.22502 0)
(-0.0945646 -0.282932 0)
(-0.076795 -0.327242 0)
(-0.0560059 -0.370592 0)
(-0.0119415 -0.419669 0)
(0.0063377 -0.0712599 0)
(0.0226471 -0.0941227 0)
(0.0449433 -0.0938847 0)
(0.0678382 -0.0719776 0)
(0.0975545 -0.0250967 0)
(0.132412 0.0360011 0)
(0.172279 0.104293 0)
(0.217828 0.166134 0)
(0.264517 0.222606 0)
(0.30382 0.267971 0)
(0.339611 0.285524 0)
(0.359461 0.276077 0)
(0.371599 0.259068 0)
(0.367052 0.225259 0)
(0.358282 0.188724 0)
(0.338893 0.131027 0)
(0.323692 0.0999566 0)
(0.303096 0.0599905 0)
(0.284704 0.020708 0)
(0.239237 -0.00321585 0)
(0.220996 -0.059536 0)
(0.179116 -0.174384 0)
(0.110706 -0.275465 0)
(0.0449011 -0.369309 0)
(0.0132307 -0.436022 0)
(0.0468013 -0.138481 0)
(0.0833978 -0.160432 0)
(0.140746 -0.150045 0)
(0.18371 -0.110291 0)
(0.214503 -0.063864 0)
(0.237578 -0.0149223 0)
(0.253543 0.0321739 0)
(0.270621 0.0748603 0)
(0.293088 0.118798 0)
(0.31431 0.153018 0)
(0.344914 0.186836 0)
(0.36536 0.210957 0)
(0.387322 0.212272 0)
(0.395013 0.194878 0)
(0.397105 0.168292 0)
(0.396077 0.125845 0)
(0.384251 0.0896396 0)
(0.376755 0.0505362 0)
(0.363811 0.00976832 0)
(0.349103 -0.0113764 0)
(0.332343 -0.0532417 0)
(0.300763 -0.0830558 0)
(0.230029 -0.0897805 0)
(0.149718 -0.157047 0)
(0.0607979 -0.266618 0)
(0.0656506 -0.337577 0)
(0.11092 -0.343439 0)
(0.179146 -0.307974 0)
(0.234339 -0.235707 0)
(0.272071 -0.147874 0)
(0.297472 -0.0615004 0)
(0.318719 0.0147751 0)
(0.330749 0.0741207 0)
(0.334364 0.119662 0)
(0.334736 0.150071 0)
(0.333609 0.168878 0)
(0.335114 0.179673 0)
(0.338276 0.178008 0)
(0.344281 0.172762 0)
(0.348113 0.160141 0)
(0.348621 0.135952 0)
(0.343534 0.112081 0)
(0.337637 0.0856369 0)
(0.325326 0.062783 0)
(0.306518 0.0497571 0)
(0.282367 0.0374258 0)
(0.238174 0.0340957 0)
(0.181943 0.0133172 0)
(0.111425 -0.0374387 0)
(0.0426189 -0.0807541 0)
(0.0543679 -0.540614 0)
(0.0945362 -0.524577 0)
(0.14957 -0.44988 0)
(0.192032 -0.340836 0)
(0.220259 -0.231548 0)
(0.241901 -0.131089 0)
(0.258725 -0.0416028 0)
(0.276766 0.0386949 0)
(0.290696 0.105956 0)
(0.297331 0.154574 0)
(0.298246 0.1854 0)
(0.296159 0.201475 0)
(0.289637 0.202861 0)
(0.282524 0.195942 0)
(0.272723 0.178899 0)
(0.260719 0.156151 0)
(0.248264 0.130371 0)
(0.235886 0.104998 0)
(0.224571 0.0897673 0)
(0.208137 0.0872818 0)
(0.189855 0.100253 0)
(0.157464 0.137409 0)
(0.107948 0.13828 0)
(0.0583181 0.0688996 0)
(0.0169416 0.00137625 0)
(0.0242432 -0.649013 0)
(0.0602335 -0.615367 0)
(0.0921558 -0.50845 0)
(0.119029 -0.375754 0)
(0.137606 -0.254149 0)
(0.148434 -0.150823 0)
(0.156751 -0.0649324 0)
(0.162222 0.00725485 0)
(0.178168 0.0754866 0)
(0.197907 0.137134 0)
(0.211391 0.18381 0)
(0.213901 0.212742 0)
(0.211386 0.224853 0)
(0.204725 0.225228 0)
(0.196614 0.216802 0)
(0.184963 0.199381 0)
(0.171014 0.173012 0)
(0.158009 0.145028 0)
(0.145941 0.133351 0)
(0.131881 0.141125 0)
(0.120488 0.175307 0)
(0.0812282 0.220579 0)
(0.0572723 0.207332 0)
(0.0237485 0.133577 0)
(0.0133549 0.0745571 0)
(0.0124784 -0.731386 0)
(0.0319857 -0.687119 0)
(0.0507392 -0.572449 0)
(0.0682282 -0.442717 0)
(0.0794867 -0.301949 0)
(0.0830572 -0.17573 0)
(0.0808063 -0.0784615 0)
(0.0717477 -0.00937822 0)
(0.0636222 0.041917 0)
(0.0684733 0.10117 0)
(0.0837936 0.159113 0)
(0.097102 0.202973 0)
(0.107398 0.230196 0)
(0.110036 0.237398 0)
(0.110733 0.234152 0)
(0.111189 0.222571 0)
(0.105661 0.19843 0)
(0.0971555 0.168109 0)
(0.0856058 0.157241 0)
(0.067114 0.168816 0)
(0.047257 0.229816 0)
(0.00557417 0.292273 0)
(-0.00400541 0.257398 0)
(-0.00229148 0.146358 0)
(-0.00706763 0.0897525 0)
(0.00532049 -0.774961 0)
(0.0170129 -0.728763 0)
(0.0264359 -0.615488 0)
(0.0275806 -0.470812 0)
(0.0186892 -0.318229 0)
(0.013587 -0.189998 0)
(0.00908163 -0.0757187 0)
(-0.00403542 0.0190757 0)
(-0.027474 0.0682751 0)
(-0.0415225 0.0917777 0)
(-0.0379896 0.13363 0)
(-0.0265683 0.174923 0)
(-0.0145539 0.205387 0)
(-0.00380255 0.222308 0)
(0.00553234 0.228106 0)
(0.0125477 0.223987 0)
(0.0168725 0.209794 0)
(0.0114044 0.191581 0)
(-0.0030055 0.190153 0)
(-0.0467309 0.262738 0)
(-0.0834315 0.331004 0)
(-0.099361 0.32991 0)
(-0.0733136 0.220168 0)
(-0.0590413 0.127515 0)
(-0.02325 0.0607369 0)
(-0.0020913 -0.786745 0)
(-0.00557679 -0.734767 0)
(-0.0284107 -0.599375 0)
(-0.0528919 -0.419873 0)
(-0.074957 -0.259684 0)
(-0.0835439 -0.137692 0)
(-0.0881691 -0.0333344 0)
(-0.0929758 0.06179 0)
(-0.104718 0.11272 0)
(-0.116364 0.120901 0)
(-0.118038 0.134233 0)
(-0.108862 0.163509 0)
(-0.0991011 0.187368 0)
(-0.0913427 0.197949 0)
(-0.0844505 0.202057 0)
(-0.0785945 0.201285 0)
(-0.077448 0.197476 0)
(-0.0988361 0.21278 0)
(-0.152792 0.302816 0)
(-0.189795 0.368866 0)
(-0.19669 0.375522 0)
(-0.175468 0.281584 0)
(-0.139095 0.138908 0)
(-0.0797771 0.0031106 0)
(-0.0470413 -0.0936271 0)
(-0.0128474 -0.760491 0)
(-0.0323688 -0.687521 0)
(-0.0647635 -0.523366 0)
(-0.0972212 -0.336764 0)
(-0.121487 -0.204878 0)
(-0.132574 -0.118646 0)
(-0.140193 -0.0215806 0)
(-0.150399 0.0667965 0)
(-0.153798 0.106151 0)
(-0.152621 0.105883 0)
(-0.148322 0.109194 0)
(-0.142854 0.133168 0)
(-0.136701 0.167287 0)
(-0.135404 0.190554 0)
(-0.137569 0.197066 0)
(-0.16028 0.202563 0)
(-0.197573 0.251516 0)
(-0.255337 0.365487 0)
(-0.282496 0.399788 0)
(-0.294108 0.382228 0)
(-0.248361 0.303312 0)
(-0.191166 0.177888 0)
(-0.132962 0.00745835 0)
(-0.0513716 -0.151931 0)
(-0.0327547 -0.207283 0)
(-0.017079 -0.698569 0)
(-0.0365189 -0.622205 0)
(-0.0685001 -0.457994 0)
(-0.0976773 -0.275691 0)
(-0.132058 -0.154942 0)
(-0.157111 -0.0687993 0)
(-0.180092 0.0452447 0)
(-0.186874 0.101226 0)
(-0.183162 0.109487 0)
(-0.173552 0.0993273 0)
(-0.171344 0.10276 0)
(-0.172757 0.132528 0)
(-0.181098 0.1665 0)
(-0.205685 0.194454 0)
(-0.240403 0.24216 0)
(-0.292776 0.33581 0)
(-0.350512 0.404957 0)
(-0.365509 0.417614 0)
(-0.352628 0.378771 0)
(-0.293808 0.314376 0)
(-0.225744 0.157479 0)
(-0.15187 -0.0140557 0)
(-0.0825644 -0.142442 0)
(-0.044131 -0.230963 0)
(-0.0231322 -0.257915 0)
(-0.014124 -0.66048 0)
(-0.0313566 -0.582437 0)
(-0.0591684 -0.414972 0)
(-0.0841206 -0.217014 0)
(-0.119783 -0.0833913 0)
(-0.155295 -0.00747179 0)
(-0.179124 0.0618444 0)
(-0.179731 0.0832951 0)
(-0.174966 0.0818346 0)
(-0.17245 0.0790154 0)
(-0.185727 0.109132 0)
(-0.219066 0.165936 0)
(-0.266763 0.23287 0)
(-0.328467 0.330263 0)
(-0.401634 0.409841 0)
(-0.427685 0.431773 0)
(-0.433315 0.418534 0)
(-0.382638 0.365914 0)
(-0.321637 0.286017 0)
(-0.233555 0.102543 0)
(-0.152197 -0.0489125 0)
(-0.101771 -0.142543 0)
(-0.0690809 -0.220289 0)
(-0.0460232 -0.309049 0)
(-0.0202134 -0.35103 0)
(-0.016036 -0.606467 0)
(-0.0326771 -0.524785 0)
(-0.0604674 -0.355044 0)
(-0.079653 -0.160058 0)
(-0.100996 -0.0238406 0)
(-0.126559 0.0543511 0)
(-0.150477 0.0985271 0)
(-0.161439 0.103808 0)
(-0.170732 0.0967276 0)
(-0.195255 0.117998 0)
(-0.253086 0.195766 0)
(-0.337518 0.327113 0)
(-0.424123 0.432299 0)
(-0.470343 0.463446 0)
(-0.484827 0.462357 0)
(-0.464664 0.405286 0)
(-0.404343 0.342356 0)
(-0.324332 0.195214 0)
(-0.228144 0.0366306 0)
(-0.164676 -0.0639257 0)
(-0.118673 -0.138607 0)
(-0.0828457 -0.190487 0)
(-0.048689 -0.264464 0)
(-0.0314207 -0.352172 0)
(-0.00416682 -0.4125 0)
(-0.0149442 -0.555588 0)
(-0.0310186 -0.472199 0)
(-0.0578791 -0.309168 0)
(-0.073012 -0.116982 0)
(-0.0919324 0.0149735 0)
(-0.109683 0.0995457 0)
(-0.12842 0.145581 0)
(-0.149505 0.1474 0)
(-0.18607 0.161519 0)
(-0.257906 0.259383 0)
(-0.371759 0.43274 0)
(-0.438796 0.50291 0)
(-0.472585 0.519654 0)
(-0.491095 0.494455 0)
(-0.476885 0.417048 0)
(-0.427782 0.287407 0)
(-0.334125 0.0911853 0)
(-0.271314 -0.0111847 0)
(-0.222521 -0.0848664 0)
(-0.171879 -0.175787 0)
(-0.128877 -0.250538 0)
(-0.0875236 -0.311953 0)
(-0.0470065 -0.351346 0)
(-0.0355889 -0.383363 0)
(0.000520996 -0.447651 0)
(-0.0142971 -0.517641 0)
(-0.0291197 -0.432119 0)
(-0.0553556 -0.275894 0)
(-0.0671465 -0.083643 0)
(-0.0848649 0.0497587 0)
(-0.104376 0.129657 0)
(-0.128149 0.195787 0)
(-0.161923 0.226981 0)
(-0.229334 0.321825 0)
(-0.336451 0.496491 0)
(-0.392837 0.569624 0)
(-0.423383 0.586313 0)
(-0.448097 0.558654 0)
(-0.454012 0.460221 0)
(-0.426451 0.285807 0)
(-0.355147 0.0815163 0)
(-0.313405 -0.0396421 0)
(-0.281883 -0.132632 0)
(-0.223571 -0.246391 0)
(-0.172582 -0.320934 0)
(-0.132107 -0.363734 0)
(-0.0934297 -0.40075 0)
(-0.0588469 -0.42279 0)
(-0.0397677 -0.453703 0)
(-0.00140858 -0.50738 0)
(-0.0157126 -0.467206 0)
(-0.032725 -0.377908 0)
(-0.0633796 -0.230091 0)
(-0.0784271 -0.0433902 0)
(-0.0974924 0.101985 0)
(-0.119774 0.197178 0)
(-0.146464 0.286754 0)
(-0.19017 0.366658 0)
(-0.26601 0.502812 0)
(-0.320271 0.605791 0)
(-0.342811 0.632671 0)
(-0.367334 0.622268 0)
(-0.375014 0.554765 0)
(-0.352918 0.407608 0)
(-0.310259 0.206137 0)
(-0.265935 0.0200738 0)
(-0.235774 -0.114003 0)
(-0.186107 -0.24273 0)
(-0.145567 -0.34213 0)
(-0.121289 -0.390828 0)
(-0.0937975 -0.432571 0)
(-0.0686597 -0.46767 0)
(-0.0408687 -0.484206 0)
(-0.0300508 -0.494959 0)
(0.011587 -0.537694 0)
(-0.0173106 -0.416424 0)
(-0.0368846 -0.320498 0)
(-0.0679317 -0.176898 0)
(-0.0821586 0.00510961 0)
(-0.102093 0.151311 0)
(-0.12244 0.255975 0)
(-0.148448 0.36064 0)
(-0.18254 0.469579 0)
(-0.225421 0.603517 0)
(-0.236793 0.662454 0)
(-0.239447 0.673732 0)
(-0.239342 0.650341 0)
(-0.22644 0.549712 0)
(-0.199499 0.3926 0)
(-0.166699 0.187214 0)
(-0.138775 -0.0152441 0)
(-0.10951 -0.18018 0)
(-0.0865255 -0.310216 0)
(-0.0800202 -0.386272 0)
(-0.0722694 -0.434338 0)
(-0.0612439 -0.476908 0)
(-0.0479313 -0.511775 0)
(-0.0291032 -0.529505 0)
(-0.0254623 -0.54276 0)
(0.021273 -0.555502 0)
(-0.0158814 -0.362733 0)
(-0.0337293 -0.269242 0)
(-0.0645434 -0.144486 0)
(-0.0756607 0.0294216 0)
(-0.0919345 0.190856 0)
(-0.108163 0.304383 0)
(-0.121078 0.41655 0)
(-0.135112 0.5073 0)
(-0.144423 0.603732 0)
(-0.137587 0.637573 0)
(-0.125762 0.639889 0)
(-0.112416 0.608537 0)
(-0.0917982 0.527468 0)
(-0.072751 0.379937 0)
(-0.0448399 0.183057 0)
(-0.0278976 -0.0174224 0)
(-0.014373 -0.185592 0)
(-0.025114 -0.308465 0)
(-0.0374401 -0.385683 0)
(-0.0436201 -0.441278 0)
(-0.0407188 -0.492106 0)
(-0.0334696 -0.533021 0)
(-0.0200403 -0.557274 0)
(-0.0190411 -0.571052 0)
(0.0212841 -0.560329 0)
(-0.0137327 -0.31891 0)
(-0.0283205 -0.215262 0)
(-0.0572657 -0.0990036 0)
(-0.0678869 0.0546114 0)
(-0.0746695 0.220099 0)
(-0.0837076 0.320029 0)
(-0.0906404 0.414193 0)
(-0.0977002 0.497406 0)
(-0.0936432 0.583431 0)
(-0.0786228 0.615078 0)
(-0.064744 0.619066 0)
(-0.0453737 0.588006 0)
(-0.0256864 0.497681 0)
(-0.000606677 0.347734 0)
(0.0195542 0.160216 0)
(0.0313962 -0.0219407 0)
(0.0233467 -0.166391 0)
(0.00268222 -0.265289 0)
(-0.0229948 -0.348775 0)
(-0.0354449 -0.431206 0)
(-0.0350694 -0.495672 0)
(-0.0298411 -0.546204 0)
(-0.0224338 -0.577049 0)
(-0.0149051 -0.590286 0)
(-0.000128106 -0.572838 0)
(-0.013408 -0.278876 0)
(-0.0227225 -0.171536 0)
(-0.0468882 -0.0681928 0)
(-0.0559304 0.0551609 0)
(-0.0539383 0.222106 0)
(-0.062341 0.328334 0)
(-0.0561935 0.432582 0)
(-0.0620957 0.504838 0)
(-0.0567715 0.548723 0)
(-0.0467854 0.56204 0)
(-0.033146 0.554489 0)
(-0.0157306 0.514031 0)
(0.00498115 0.424563 0)
(0.02547 0.291266 0)
(0.038063 0.136918 0)
(0.0339426 -0.0172972 0)
(0.00907245 -0.12441 0)
(-0.0191826 -0.218967 0)
(-0.038569 -0.323788 0)
(-0.0474859 -0.421428 0)
(-0.0490629 -0.502043 0)
(-0.0418 -0.56461 0)
(-0.0308685 -0.599419 0)
(-0.0185413 -0.611985 0)
(-0.00973494 -0.60318 0)
(-0.0125497 -0.24823 0)
(-0.0166305 -0.139318 0)
(-0.0337265 -0.0378651 0)
(-0.044134 0.062318 0)
(-0.0331005 0.214289 0)
(-0.0319098 0.334246 0)
(-0.0304185 0.406525 0)
(-0.0233245 0.479134 0)
(-0.0138331 0.526202 0)
(0.00374999 0.550186 0)
(0.0177176 0.549965 0)
(0.0306651 0.509416 0)
(0.0452877 0.41769 0)
(0.0581777 0.28779 0)
(0.0630504 0.153944 0)
(0.0472135 0.0396377 0)
(0.0209035 -0.0645063 0)
(-0.00778585 -0.176987 0)
(-0.030446 -0.301337 0)
(-0.0437693 -0.41818 0)
(-0.0464557 -0.51987 0)
(-0.0404264 -0.593683 0)
(-0.0289828 -0.633866 0)
(-0.017662 -0.646845 0)
(-0.00259913 -0.635863 0)
(-0.0135674 -0.219577 0)
(-0.0149179 -0.123849 0)
(-0.0220594 -0.0167753 0)
(-0.0232613 0.056493 0)
(-0.0132764 0.168075 0)
(0.0169364 0.311057 0)
(0.033058 0.404793 0)
(0.0385689 0.465766 0)
(0.043785 0.482549 0)
(0.0598578 0.488429 0)
(0.073293 0.489102 0)
(0.0915151 0.455068 0)
(0.111655 0.373689 0)
(0.115296 0.276596 0)
(0.109832 0.18223 0)
(0.097055 0.0822667 0)
(0.0749904 -0.00267278 0)
(0.0484385 -0.114244 0)
(0.0280711 -0.258949 0)
(0.00728263 -0.403998 0)
(-0.00989012 -0.524906 0)
(-0.0177277 -0.613305 0)
(-0.0164057 -0.661371 0)
(-0.0107321 -0.673861 0)
(-0.000569977 -0.661112 0)
(-0.0130613 -0.189274 0)
(-0.0140414 -0.119797 0)
(-0.00820026 -0.0261273 0)
(0.00624898 0.035935 0)
(0.0214319 0.108613 0)
(0.0534973 0.212437 0)
(0.0975242 0.329869 0)
(0.13927 0.426717 0)
(0.169181 0.481035 0)
(0.183513 0.489285 0)
(0.195198 0.480555 0)
(0.204783 0.453733 0)
(0.211121 0.395412 0)
(0.209161 0.309631 0)
(0.200483 0.200387 0)
(0.188361 0.10082 0)
(0.166875 0.0328417 0)
(0.154053 -0.0624757 0)
(0.14546 -0.189272 0)
(0.117195 -0.331697 0)
(0.0766536 -0.475506 0)
(0.043447 -0.588055 0)
(0.0227249 -0.65808 0)
(0.00908164 -0.679674 0)
(0.00515162 -0.667374 0)
(-0.00736811 -0.16321 0)
(-0.00784173 -0.125978 0)
(0.00611707 -0.0690916 0)
(0.0303157 -0.0108149 0)
(0.053577 0.0567877 0)
(0.0828056 0.123636 0)
(0.121397 0.199332 0)
(0.171353 0.28825 0)
(0.224995 0.371112 0)
(0.2774 0.422413 0)
(0.316304 0.435472 0)
(0.345991 0.430762 0)
(0.365456 0.402972 0)
(0.374359 0.356869 0)
(0.373154 0.283631 0)
(0.361798 0.206668 0)
(0.333983 0.122343 0)
(0.313598 0.0197044 0)
(0.289438 -0.069323 0)
(0.242207 -0.182316 0)
(0.179681 -0.340738 0)
(0.121031 -0.48891 0)
(0.0742584 -0.591363 0)
(0.038019 -0.632859 0)
(0.0196168 -0.626962 0)
(0.004242 -0.156085 0)
(0.0170689 -0.144622 0)
(0.0405006 -0.113203 0)
(0.0636921 -0.0721527 0)
(0.0870035 -0.0131474 0)
(0.112378 0.0530969 0)
(0.140609 0.117984 0)
(0.175664 0.174859 0)
(0.216004 0.225736 0)
(0.265267 0.2792 0)
(0.311057 0.325673 0)
(0.354306 0.352581 0)
(0.388439 0.351148 0)
(0.410039 0.321718 0)
(0.418618 0.270666 0)
(0.41411 0.230831 0)
(0.397604 0.174951 0)
(0.369563 0.101125 0)
(0.329025 0.0258809 0)
(0.267514 -0.0816225 0)
(0.198709 -0.232524 0)
(0.139559 -0.383734 0)
(0.091023 -0.502285 0)
(0.048136 -0.558813 0)
(0.0232449 -0.560884 0)
(0.0297495 -0.200032 0)
(0.0549669 -0.200309 0)
(0.0911638 -0.169118 0)
(0.118421 -0.116962 0)
(0.13515 -0.0621375 0)
(0.148374 -0.0053712 0)
(0.163504 0.052557 0)
(0.182606 0.108872 0)
(0.204334 0.156609 0)
(0.229558 0.194351 0)
(0.259625 0.223846 0)
(0.293334 0.238739 0)
(0.326866 0.249662 0)
(0.369366 0.277511 0)
(0.388796 0.269137 0)
(0.391679 0.249483 0)
(0.384735 0.226979 0)
(0.361503 0.184775 0)
(0.321922 0.144854 0)
(0.256625 0.0564908 0)
(0.188369 -0.102672 0)
(0.136277 -0.271878 0)
(0.0914819 -0.4103 0)
(0.0490291 -0.48038 0)
(0.0257376 -0.488808 0)
(0.0309632 -0.336868 0)
(0.0553588 -0.314342 0)
(0.0888424 -0.254485 0)
(0.112302 -0.178221 0)
(0.130442 -0.0961542 0)
(0.146346 -0.0246319 0)
(0.157902 0.0289272 0)
(0.171449 0.0724613 0)
(0.188893 0.113146 0)
(0.206713 0.148516 0)
(0.225351 0.173791 0)
(0.24372 0.186075 0)
(0.262529 0.188123 0)
(0.282435 0.195776 0)
(0.310177 0.221355 0)
(0.32631 0.245522 0)
(0.317642 0.25702 0)
(0.297615 0.252874 0)
(0.255158 0.235832 0)
(0.20442 0.165443 0)
(0.155561 -0.00601318 0)
(0.119798 -0.182286 0)
(0.0855372 -0.328485 0)
(0.0471193 -0.404719 0)
(0.0263685 -0.415953 0)
(0.011394 -0.394924 0)
(0.027737 -0.353921 0)
(0.0280953 -0.282208 0)
(0.0308143 -0.204054 0)
(0.0396873 -0.131042 0)
(0.0585691 -0.0656078 0)
(0.0857181 -0.0087483 0)
(0.111909 0.0355856 0)
(0.13758 0.075274 0)
(0.161228 0.113762 0)
(0.180982 0.142976 0)
(0.197013 0.157622 0)
(0.210598 0.162759 0)
(0.22116 0.17182 0)
(0.231955 0.194283 0)
(0.237427 0.247704 0)
(0.225687 0.304523 0)
(0.199167 0.329552 0)
(0.173188 0.317865 0)
(0.146221 0.233486 0)
(0.12369 0.0522594 0)
(0.103238 -0.121942 0)
(0.0810649 -0.266028 0)
(0.0460792 -0.337125 0)
(0.027928 -0.345506 0)
(0.00257649 -0.409817 0)
(-0.00663429 -0.346391 0)
(-0.0221673 -0.255265 0)
(-0.0295538 -0.185097 0)
(-0.0308492 -0.134093 0)
(-0.0208939 -0.102465 0)
(0.00278331 -0.0743933 0)
(0.0353676 -0.034075 0)
(0.068304 0.0134342 0)
(0.0972614 0.0609997 0)
(0.11984 0.0996278 0)
(0.136548 0.122399 0)
(0.149125 0.136306 0)
(0.157128 0.157037 0)
(0.159547 0.203454 0)
(0.153073 0.288322 0)
(0.136885 0.354678 0)
(0.123791 0.371318 0)
(0.115163 0.352238 0)
(0.109455 0.247787 0)
(0.106958 0.0799809 0)
(0.100802 -0.0844624 0)
(0.0875258 -0.211697 0)
(0.0524598 -0.267891 0)
(0.0319181 -0.270574 0)
(-0.0129712 -0.392156 0)
(-0.016535 -0.315687 0)
(-0.0296468 -0.240657 0)
(-0.03337 -0.182122 0)
(-0.0298287 -0.152383 0)
(-0.0194357 -0.144478 0)
(-0.0060387 -0.13371 0)
(0.0107081 -0.1077 0)
(0.0319207 -0.0588905 0)
(0.0563046 0.00508237 0)
(0.074258 0.0588048 0)
(0.0845111 0.0914774 0)
(0.0876713 0.113727 0)
(0.0847998 0.151658 0)
(0.0772823 0.229086 0)
(0.0667507 0.325397 0)
(0.0647509 0.377107 0)
(0.0671083 0.37997 0)
(0.076515 0.345392 0)
(0.0916222 0.228434 0)
(0.101008 0.0741039 0)
(0.108971 -0.0746639 0)
(0.0978772 -0.170846 0)
(0.0620635 -0.197801 0)
(0.0361792 -0.188167 0)
(-0.0133833 -0.365024 0)
(-0.0123526 -0.304999 0)
(-0.018793 -0.242964 0)
(-0.00425346 -0.205262 0)
(0.00764533 -0.176109 0)
(0.016694 -0.163688 0)
(0.0181889 -0.150609 0)
(0.0183244 -0.128666 0)
(0.0203738 -0.0914312 0)
(0.0258257 -0.0304945 0)
(0.0331967 0.0394761 0)
(0.0345748 0.0933008 0)
(0.0287093 0.135203 0)
(0.0177644 0.189778 0)
(0.00694753 0.268918 0)
(0.00767261 0.336825 0)
(0.0201264 0.354612 0)
(0.0379448 0.342361 0)
(0.0599494 0.295581 0)
(0.083825 0.184171 0)
(0.108786 0.047578 0)
(0.121955 -0.0709364 0)
(0.105997 -0.121801 0)
(0.0725323 -0.119163 0)
(0.0385179 -0.0910695 0)
(-0.0153015 -0.348716 0)
(-0.0184471 -0.300065 0)
(-0.020858 -0.259867 0)
(-0.0089204 -0.239857 0)
(0.00332641 -0.208469 0)
(0.0147512 -0.176849 0)
(0.0176712 -0.149964 0)
(0.0116203 -0.123485 0)
(-0.00270769 -0.0855636 0)
(-0.0177433 -0.0274446 0)
(-0.026074 0.0373411 0)
(-0.031928 0.0926252 0)
(-0.0401924 0.143802 0)
(-0.0487935 0.204549 0)
(-0.050313 0.270979 0)
(-0.0401286 0.309205 0)
(-0.021355 0.314693 0)
(0.00306274 0.298547 0)
(0.0387679 0.234574 0)
(0.0825867 0.114249 0)
(0.113849 -0.00415053 0)
(0.111298 -0.0671417 0)
(0.0914993 -0.0714089 0)
(0.0557285 -0.039485 0)
(0.0252231 0.00648996 0)
(-0.0248793 -0.29853 0)
(-0.0350831 -0.277013 0)
(-0.0513979 -0.263638 0)
(-0.0560141 -0.250054 0)
(-0.0653731 -0.221449 0)
(-0.0724725 -0.183934 0)
(-0.0802623 -0.134971 0)
(-0.0897227 -0.0822049 0)
(-0.1025 -0.030288 0)
(-0.116175 0.0241639 0)
(-0.124367 0.0850782 0)
(-0.130554 0.140311 0)
(-0.133882 0.189186 0)
(-0.132365 0.232997 0)
(-0.122645 0.263164 0)
(-0.0980021 0.273961 0)
(-0.0636436 0.256838 0)
(-0.0186618 0.195673 0)
(0.0299287 0.100569 0)
(0.0601786 0.0170162 0)
(0.0622931 -0.0184235 0)
(0.0454671 -0.0206603 0)
(0.0197288 -0.00197125 0)
(0.00291704 0.0282119 0)
(-0.00347245 0.0517284 0)
(-0.0271727 -0.231881 0)
(-0.0454365 -0.223795 0)
(-0.0760004 -0.216678 0)
(-0.0968753 -0.200921 0)
(-0.116575 -0.173476 0)
(-0.135649 -0.141214 0)
(-0.153573 -0.100811 0)
(-0.169046 -0.0514527 0)
(-0.182394 -0.000396159 0)
(-0.189351 0.0473839 0)
(-0.191147 0.0924317 0)
(-0.185882 0.132223 0)
(-0.174869 0.167807 0)
(-0.156974 0.197905 0)
(-0.128481 0.20978 0)
(-0.0917215 0.185283 0)
(-0.050326 0.138506 0)
(-0.0142694 0.0871886 0)
(0.00371674 0.0487377 0)
(0.00089107 0.0314758 0)
(-0.0194257 0.0263528 0)
(-0.0412397 0.0239523 0)
(-0.0513089 0.0177916 0)
(-0.0398944 0.00748539 0)
(-0.0240328 0.00663974 0)
(-0.0243336 -0.162366 0)
(-0.0447918 -0.161245 0)
(-0.0744706 -0.162418 0)
(-0.0955873 -0.15474 0)
(-0.115947 -0.129274 0)
(-0.133715 -0.0960829 0)
(-0.151151 -0.0594495 0)
(-0.16547 -0.0204187 0)
(-0.173689 0.0194971 0)
(-0.176822 0.0558813 0)
(-0.173192 0.0877731 0)
(-0.161451 0.113742 0)
(-0.142291 0.130029 0)
(-0.112207 0.128944 0)
(-0.0777191 0.118304 0)
(-0.0455675 0.102314 0)
(-0.0206895 0.0836977 0)
(-0.00808404 0.0717566 0)
(-0.00801768 0.0669748 0)
(-0.0210651 0.0681974 0)
(-0.0406917 0.0676086 0)
(-0.0574935 0.0434692 0)
(-0.059029 -0.00361547 0)
(-0.0406762 -0.0507183 0)
(-0.0231952 -0.0747031 0)
(-0.0169014 -0.0996471 0)
(-0.0289111 -0.103735 0)
(-0.0501407 -0.113453 0)
(-0.0648718 -0.112487 0)
(-0.0763374 -0.0957374 0)
(-0.0837797 -0.0677672 0)
(-0.0893478 -0.0336141 0)
(-0.0936957 -2.04608e-05 0)
(-0.0995388 0.0288142 0)
(-0.102836 0.0473776 0)
(-0.0999562 0.0578858 0)
(-0.0880392 0.0620457 0)
(-0.0694664 0.0637673 0)
(-0.0482367 0.0648192 0)
(-0.027358 0.0651753 0)
(-0.00982103 0.064861 0)
(0.00222564 0.065681 0)
(0.00775986 0.0699922 0)
(0.00844529 0.0782259 0)
(0.00267537 0.0945685 0)
(-0.00871139 0.0975595 0)
(-0.0179644 0.0585887 0)
(-0.0212998 -0.0106867 0)
(-0.0198842 -0.0777979 0)
(-0.0096936 -0.117328 0)
(-0.00773464 -0.0740914 0)
(-0.00640828 -0.0792516 0)
(-0.0104777 -0.0870548 0)
(-0.0145895 -0.0921482 0)
(-0.0179895 -0.0865689 0)
(-0.0177229 -0.069029 0)
(-0.0129759 -0.0403946 0)
(-0.00511693 -0.00479267 0)
(0.00383189 0.0316597 0)
(0.0113208 0.0584605 0)
(0.0144907 0.0643225 0)
(0.0135224 0.0565445 0)
(0.0108014 0.0453868 0)
(0.00987141 0.0379143 0)
(0.0123391 0.0366543 0)
(0.016571 0.0400267 0)
(0.0222608 0.0467483 0)
(0.0286526 0.0572746 0)
(0.0352939 0.0735052 0)
(0.0398435 0.101366 0)
(0.0413766 0.111375 0)
(0.0392134 0.0824446 0)
(0.0288282 0.0132186 0)
(0.0113267 -0.0651132 0)
(0.0044084 -0.122686 0)
(0.00545288 -0.0774219 0)
(0.0148519 -0.0872112 0)
(0.0255214 -0.0925418 0)
(0.0325472 -0.0922854 0)
(0.0364921 -0.0865303 0)
(0.0385373 -0.0755383 0)
(0.0410265 -0.0582258 0)
(0.0467058 -0.0352711 0)
(0.0571339 -0.00661971 0)
(0.071506 0.0255125 0)
(0.0858105 0.053656 0)
(0.0951663 0.0743321 0)
(0.0942061 0.0768516 0)
(0.089069 0.070729 0)
(0.0773429 0.0579386 0)
(0.0671077 0.047165 0)
(0.0598982 0.0404962 0)
(0.0571834 0.0410563 0)
(0.0579457 0.050573 0)
(0.0626115 0.0791396 0)
(0.068962 0.101896 0)
(0.0692245 0.0936869 0)
(0.0595862 0.0533003 0)
(0.0330163 -0.0196928 0)
(0.0191609 -0.085537 0)
(0.0132798 -0.114419 0)
(0.0260651 -0.12217 0)
(0.0433006 -0.121458 0)
(0.0561446 -0.111815 0)
(0.0636124 -0.0962867 0)
(0.0673785 -0.0788301 0)
(0.0691175 -0.0601634 0)
(0.0714306 -0.0418517 0)
(0.0764103 -0.0234709 0)
(0.0856939 -0.00422471 0)
(0.0989683 0.0168377 0)
(0.114335 0.03869 0)
(0.127682 0.058007 0)
(0.136987 0.071941 0)
(0.135674 0.0773502 0)
(0.130588 0.0752733 0)
(0.118968 0.0692394 0)
(0.105674 0.0612454 0)
(0.0941032 0.0610361 0)
(0.0885554 0.0757021 0)
(0.086692 0.101795 0)
(0.08167 0.10679 0)
(0.0707448 0.088066 0)
(0.0421307 0.034571 0)
(0.0252468 -0.0318746 0)
(0.0151479 -0.153437 0)
(0.0290466 -0.158698 0)
(0.0471359 -0.151797 0)
(0.0603294 -0.13344 0)
(0.0687776 -0.109445 0)