/*--------------------------------*- C++ -*----------------------------------*\
| =========                 |                                                 |
| \\      /  F ield         | OpenFOAM: The Open Source CFD Toolbox           |
|  \\    /   O peration     | Version:  2.3.0                                 |
|   \\  /    A nd           | Web:      www.OpenFOAM.org                      |
|    \\/     M anipulation  |                                                 |
\*---------------------------------------------------------------------------*/
FoamFile
{
    version     2.0;
    format      ascii;
    class       surfaceScalarField;
    location    "8";
    object      phi.air;
}
// * * * * * * * * * * * * * * * * * * * * * * * * * * * * * * * * * * * * * //

dimensions      [0 3 -1 0 0 0 0];

internalField   nonuniform List<scalar> 
3650
(
0.000175389
3.42798e-05
0.00023932
0.000105876
0.000157772
0.000212619
4.46592e-05
0.000251457
-2.85193e-05
0.000285271
-8.37101e-05
0.000309846
-0.000181582
0.000310112
-0.000272605
0.000284924
-0.00038007
0.000276101
-0.000497956
0.000270133
-0.000611185
0.000249473
-0.00072744
0.000246809
-0.00083245
0.000226833
-0.000932204
0.000218997
-0.00100808
0.000194551
-0.00106103
0.000180387
-0.00108868
0.000159408
-0.00110587
0.000147472
-0.0011046
0.000134322
-0.00107987
0.000118871
-0.00101744
9.97094e-05
-0.000900241
7.4896e-05
-0.000698157
4.23769e-05
-0.000390585
-1.21054e-05
-6.09631e-05
0.000151126
-6.36771e-05
0.000115917
9.40711e-05
-8.0212e-06
0.000269966
-0.000101253
0.000338252
-0.000106937
0.000367395
-0.000103032
0.000403489
-0.000102812
0.000390167
-0.00012952
0.000364748
-0.0001826
0.000348384
-0.000240893
0.000320696
-0.000326593
0.000299109
-0.000415375
0.000286661
-0.000510899
0.000261934
-0.000595005
0.000231822
-0.000654058
0.000183627
-0.000688552
0.000143814
-0.000693651
0.000114086
-0.000690364
0.000105996
-0.000682665
9.0392e-05
-0.000661873
6.19703e-05
-0.000625417
3.45945e-05
-0.00055888
-7.39773e-06
-0.000437391
-6.22191e-05
-0.000275817
-0.000143691
-0.000232887
2.91032e-05
-8.75936e-05
-2.73303e-05
0.000117287
-5.97033e-05
0.000270843
-7.44837e-05
0.000335231
-5.64995e-05
0.000353057
-2.09773e-05
0.000391707
-2.60186e-06
0.000390038
4.06778e-06
0.000368436
-1.74455e-05
0.000362563
-5.50775e-05
0.000341855
-9.65975e-05
0.00032439
-0.000150793
0.000313159
-0.000207908
0.000273369
-0.000247936
0.000220044
-0.000255715
0.000150854
-0.000228695
0.000101706
-0.000202945
8.15636e-05
-0.000191989
8.25968e-05
-0.00018755
5.87043e-05
-0.000181877
2.12108e-05
-0.000163902
-2.65534e-05
-0.000153289
-6.5323e-05
-0.000148999
-0.000123466
-0.00011589
-0.000200401
-0.000329081
-2.1767e-05
-6.1151e-05
-2.67261e-05
0.000136353
-1.65426e-05
0.000263886
-6.73997e-06
0.000325141
2.08136e-05
0.000328207
7.59391e-05
0.000345941
0.000130403
0.000347685
0.00018269
0.00033176
0.000235061
0.000322395
0.000265873
0.000319119
0.000273043
0.000318485
0.000266625
0.000307277
0.000232126
0.000274083
0.000174464
0.000221717
0.000100932
0.000165683
4.38775e-05
0.000120489
1.18095e-05
9.23714e-05
1.21405e-06
6.89746e-05
-4.31813e-06
3.75818e-05
-7.14124e-06
-9.77057e-08
-7.16211e-06
-4.05838e-05
-1.69393e-05
-7.26536e-05
-4.1305e-05
-0.000124352
-4.33511e-05
-0.000183388
-0.000321599
-1.48723e-05
-4.90439e-05
3.16469e-05
0.000122249
5.68997e-05
0.000258203
6.89069e-05
0.000318634
8.26089e-05
0.000314626
0.000136452
0.000297567
0.000198436
0.000296255
0.000259933
0.000286089
0.000334016
0.000267723
0.000413446
0.000258548
0.000482747
0.000265188
0.000524367
0.000267836
0.000529851
0.000258309
0.000496279
0.000228664
0.00042869
0.000195521
0.000354064
0.000157362
0.000297799
0.00012056
0.000267206
8.26785e-05
0.000245754
4.94978e-05
0.000209708
2.23651e-05
0.000154814
-1.13395e-06
8.689e-05
-1.86001e-05
3.29305e-05
-4.95708e-05
2.01962e-05
-0.00010441
-0.000269821
2.84743e-06
-5.27954e-05
8.44373e-05
7.16278e-05
0.000118175
0.000245795
0.000121537
0.000320316
0.000120712
0.000312992
0.00014471
0.000273707
0.000196006
0.000251394
0.000249029
0.000245917
0.00029916
0.000231167
0.000359625
0.000215171
0.000431846
0.000216977
0.000490667
0.000220944
0.000528019
0.000224935
0.000543947
0.00021387
0.000534499
0.000197258
0.000504869
0.000173671
0.000463799
0.000146856
0.000413214
0.000121193
0.000352333
9.63024e-05
0.000275944
8.36877e-05
0.0001859
8.24876e-05
0.000102647
7.36093e-05
5.69554e-05
4.33531e-05
3.05967e-05
-2.53052e-05
-0.000216784
2.76842e-05
-7.87425e-05
8.89302e-05
2.05079e-05
0.000123054
0.000225312
0.000120896
0.000325462
0.000116767
0.000319331
0.000127338
0.000264146
0.000166329
0.00021828
0.000208767
0.000212691
0.000244852
0.000203402
0.000274669
0.000196089
0.000307583
0.000194961
0.000353584
0.000190088
0.000399616
0.000195252
0.000432508
0.000193136
0.000447578
0.000188769
0.000446988
0.000177783
0.000430805
0.000163632
0.000388426
0.000154866
0.0003272
0.00014982
0.000258501
0.000144211
0.000175477
0.000162593
8.5359e-05
0.00017766
4.13057e-05
0.000139587
3.94795e-05
2.81816e-05
-0.000171861
3.69812e-05
-0.000108928
6.87002e-05
-9.56665e-06
9.05754e-05
0.000204311
8.74754e-05
0.000330021
8.33549e-05
0.000329168
9.71892e-05
0.000257244
0.00012105
0.000203318
0.000140447
0.00019693
0.000159656
0.000187392
0.000172776
0.000187171
0.0001852
0.000185197
0.000204988
0.000180964
0.000238734
0.000176643
0.000283137
0.000170795
0.000325193
0.000169361
0.000355756
0.000166555
0.000367134
0.000165771
0.000356423
0.000173908
0.00031935
0.000187007
0.000242096
0.000213991
0.000128278
0.000274067
3.7407e-05
0.000300229
4.02276e-05
0.000200543
3.13039e-05
6.48817e-05
-0.00014209
2.35402e-05
-0.000124258
5.03515e-05
-3.0936e-05
7.92418e-05
0.000179452
8.03001e-05
0.000334523
7.49546e-05
0.000340921
7.34934e-05
0.00026343
7.76251e-05
0.000203907
8.48694e-05
0.000190272
9.18081e-05
0.000180988
9.62484e-05
0.000182949
0.000102862
0.000178944
0.000124061
0.000167921
0.000163474
0.000152349
0.000214351
0.000143712
0.000263782
0.000147679
0.000292812
0.00016344
0.000295128
0.000182977
0.00027183
0.000210275
0.000213909
0.000247913
9.49413e-05
0.000326668
-4.18974e-05
0.000413765
-5.82292e-05
0.000358407
-9.0484e-06
0.000188201
-1.01697e-06
6.55336e-05
-0.000145072
7.79963e-06
-0.000132042
3.89023e-05
-4.92337e-05
0.000112366
0.000136535
0.000134172
0.000328193
0.000119365
0.000359689
8.46649e-05
0.00029527
6.96017e-05
0.000215442
7.33378e-05
0.000186157
7.55232e-05
0.000179932
8.45431e-05
0.000177618
0.000111431
0.000156487
0.000157462
0.000124037
0.000209028
0.000104649
0.000252948
0.000107188
0.000281186
0.000131323
0.000288076
0.000169848
0.000266878
0.000214058
0.000221939
0.000258192
0.000113661
0.000343392
-3.1742e-05
0.000459397
-9.58988e-05
0.000496673
-6.2677e-05
0.000354832
-4.28222e-05
0.000178014
-3.18779e-05
5.10198e-05
-0.000169729
1.4526e-05
-0.000158148
5.04215e-05
-7.976e-05
0.000146629
6.19342e-05
0.000214408
0.000284511
0.000203471
0.00037388
0.000141489
0.000349852
8.56634e-05
0.000261612
7.54295e-05
0.000195118
8.10706e-05
0.000176552
0.00011091
0.000150212
0.000178981
9.63846e-05
0.000264145
4.94696e-05
0.000336284
3.96042e-05
0.000375673
5.75913e-05
0.000362108
0.000105563
0.000298794
0.000194832
0.000216002
0.000267001
0.000100457
0.000346156
-5.83482e-05
0.000474295
-0.000153305
0.000562114
-0.000136182
0.000505864
-7.30401e-05
0.000310865
-5.58554e-05
0.000164215
-3.12237e-05
1.78397e-05
-0.000198448
3.83523e-05
-0.00019475
7.13764e-05
-0.000119891
0.000121152
1.01933e-05
0.000214734
0.000202531
0.000234813
0.000360591
0.000190104
0.000387652
0.000112028
0.000333604
8.17107e-05
0.000226353
9.58087e-05
0.00017764
0.000149574
0.000118659
0.00022739
4.41619e-05
0.000298767
6.02886e-06
0.00035187
-7.71394e-07
0.000349884
2.69908e-05
0.000267503
0.000117091
0.000131057
0.000238359
-7.25232e-06
0.000323836
-0.000158099
0.00044357
-0.000251449
0.000542444
-0.000245256
0.000565576
-0.000168661
0.000448218
-0.000107893
0.000247706
-8.46983e-05
0.000128122
-4.09691e-05
-3.41909e-05
-0.00023686
2.76051e-05
-0.000211324
5.32519e-05
-0.000149985
8.10284e-05
-1.75632e-05
0.00016276
0.000118775
0.000204916
0.000317965
0.000179036
0.000404856
0.000120289
0.000392143
6.31595e-05
0.000291813
5.54039e-05
0.000202566
8.09382e-05
0.000126869
0.00012971
4.24424e-05
0.000158449
4.96588e-06
0.000153289
-7.72281e-06
9.55041e-05
1.67263e-05
-1.09155e-05
0.000134868
-0.000104384
0.000271282
-0.000179537
0.000349602
-0.000240913
0.000472202
-0.00024225
0.000531303
-0.000209849
0.000530775
-0.000134839
0.000360106
-0.000106864
0.000188706
-8.20729e-05
7.18783e-05
-3.84566e-05
-8.46436e-05
-0.000270261
6.96216e-06
-0.000219918
3.783e-05
-0.000178122
8.08105e-05
-6.41354e-05
0.000122687
6.61265e-05
0.000169506
0.000263308
0.000160326
0.000407121
0.000119843
0.000428135
6.18995e-05
0.000361314
3.7732e-05
0.00025236
1.65948e-05
0.000183186
-1.49544e-05
9.42029e-05
-4.70896e-05
2.92792e-05
-9.3695e-05
1.12426e-05
-0.000125118
2.79204e-05
-0.000122915
0.000125853
-0.00014008
0.000274243
-0.000162814
0.000364527
-0.000156073
0.000467173
-0.000125115
0.000502785
-9.13258e-05
0.000473086
-7.92526e-05
0.000308246
-7.74848e-05
0.000158234
-5.82372e-05
3.51478e-05
-2.36291e-05
-0.000116703
-0.000281584
1.44171e-05
-0.000234981
4.92849e-05
-0.000201559
9.32551e-05
-0.000105519
0.000111111
4.11551e-05
0.000132202
0.000226956
0.000130381
0.000399363
9.86831e-05
0.000457443
5.74216e-05
0.000413452
3.23647e-05
0.000299763
-7.49563e-06
0.00024227
-9.51707e-05
0.000176878
-0.000163673
8.03908e-05
-0.00019902
4.0195e-05
-0.000207045
4.63554e-05
-0.000179484
0.000118243
-0.000127978
0.000232059
-9.08888e-05
0.000341154
-3.83335e-05
0.000428358
4.81001e-06
0.00046168
3.74739e-05
0.000423783
1.04367e-06
0.000310457
-2.43273e-05
0.000170553
-1.13337e-05
4.50385e-05
1.77898e-05
-0.000118574
-0.000258949
2.91507e-05
-0.00025941
5.41476e-05
-0.000216325
7.8811e-05
-0.00011924
0.000106533
1.55798e-05
0.000119424
0.000201927
0.000115626
0.000392963
8.55159e-05
0.00048409
4.43168e-05
0.00046135
1.55698e-05
0.00034455
-1.10302e-05
0.000274731
-0.000104507
0.0002529
-0.000181584
0.000139758
-0.000211752
6.38923e-05
-0.000220319
6.52032e-05
-0.000202716
0.000126265
-0.000147773
0.000200125
-8.66264e-05
0.000290766
-3.64033e-05
0.000380902
-1.28681e-05
0.000439462
-5.04355e-08
0.00041099
-2.15175e-05
0.000330632
-2.80402e-05
0.000206194
1.06171e-06
6.71224e-05
3.6565e-05
-0.000125949
-0.000228819
5.25161e-05
-0.000304263
7.40147e-05
-0.000236815
8.34644e-05
-0.000121529
0.00010941
-8.75882e-06
0.000133787
0.00016927
0.000131279
0.000382314
0.000107308
0.000502077
6.45123e-05
0.000500144
1.34597e-05
0.000406024
-3.71294e-06
0.000297665
-7.22273e-05
0.000303514
-0.000152429
0.000199754
-0.000181286
8.42047e-05
-0.000196777
8.03983e-05
-0.000203142
0.000141565
-0.000183929
0.000199276
-0.000147802
0.000262267
-0.000134192
0.00035859
-0.000126697
0.000422327
-0.00012834
0.000422337
-0.000117527
0.000357379
-8.85612e-05
0.000225101
-3.76013e-05
5.79726e-05
7.26064e-06
-0.000151274
-0.000228413
6.74615e-05
-0.000367435
7.87714e-05
-0.000262419
7.96072e-05
-0.000129909
8.9996e-05
-2.10824e-05
0.000118891
0.000133157
0.000131932
0.000354197
0.000121233
0.0005026
8.82633e-05
0.00052383
2.8726e-05
0.000467272
-6.56927e-06
0.000337552
-4.49273e-05
0.000334397
-0.000111371
0.000254224
-0.000160813
0.000125732
-0.000196131
0.000113466
-0.000214906
0.000157871
-0.000223915
0.000204997
-0.000237699
0.000265499
-0.000251623
0.000369709
-0.000241142
0.000415535
-0.000223377
0.000417777
-0.000185326
0.000343897
-0.000141837
0.000199675
-0.000102604
2.63224e-05
-6.7934e-05
-0.000186115
-0.000285603
3.81093e-05
-0.000412042
3.59673e-05
-0.000274579
3.44026e-05
-0.000143969
3.38781e-05
-2.59252e-05
7.4484e-05
9.02077e-05
0.000112617
0.00030378
0.000116313
0.000486926
9.23747e-05
0.00053445
4.1574e-05
0.000507541
-1.91515e-05
0.000401282
-5.03941e-05
0.000374269
-0.000107074
0.000315299
-0.000167665
0.000184609
-0.000213845
0.000158113
-0.000233987
0.000170223
-0.00024356
0.000208847
-0.000247832
0.000265849
-0.000232655
0.00036048
-0.000204517
0.00039198
-0.000171405
0.000387854
-0.000138785
0.000305161
-0.000124277
0.00016746
-0.000113891
-6.71265e-06
-9.45971e-05
-0.000227344
-0.000370189
1.12246e-05
-0.000423013
-6.69492e-06
-0.000266469
-1.17572e-05
-0.000154731
-1.98503e-05
-2.81257e-05
2.23201e-05
5.56944e-05
9.68706e-05
0.000227724
0.000126622
0.000446602
0.000119419
0.000529254
7.74568e-05
0.000530443
7.98932e-06
0.000472114
-2.82051e-05
0.000428236
-0.000108378
0.000396311
-0.000220537
0.000283656
-0.000285077
0.000204976
-0.000286486
0.00017153
-0.00026305
0.000188226
-0.000225411
0.000245624
-0.000168111
0.000321653
-0.000108431
0.000342888
-5.46562e-05
0.000331636
-2.78868e-05
0.000258692
-3.90618e-05
0.000145882
-5.06796e-05
-3.1308e-05
-5.49937e-05
-0.00024658
-0.000430709
-7.54058e-06
-0.000416544
-2.35338e-05
-0.00025292
-3.05792e-05
-0.000155187
-4.43401e-05
-2.52992e-05
-2.81133e-05
4.57623e-05
6.38134e-05
0.000153104
0.000160043
0.000354975
0.000191285
0.000492919
0.000181936
0.000522261
0.000138977
0.000503791
0.000101777
0.000468438
4.15346e-05
0.000452755
-9.12139e-05
0.000392665
-0.000220222
0.000301176
-0.000292701
0.000215852
-0.000280725
0.000172878
-0.000199891
0.000191836
-8.20172e-05
0.000238184
1.12941e-05
0.000274468
7.43094e-05
0.000274587
8.63402e-05
0.000229021
5.64923e-05
0.000143511
1.60712e-05
-2.99136e-05
-1.97556e-05
-0.000235002
-0.000448725
-1.6304e-05
-0.000400176
-2.61488e-05
-0.000243782
-3.92527e-05
-0.000146085
-5.3038e-05
-1.76045e-05
-4.47801e-05
3.90826e-05
2.17575e-05
0.000109194
0.000153957
0.000248644
0.000259531
0.00040205
0.000296518
0.000479072
0.000292034
0.000490621
0.000273268
0.000476658
0.000261529
0.000460104
0.000199226
0.000434687
5.83547e-05
0.000394926
-0.000101314
0.000323199
-0.000180792
0.000238459
-0.000149708
0.000180182
-5.49252e-05
0.000172842
4.71078e-05
0.000202023
0.00011781
0.000221999
0.000136246
0.000207673
0.000114069
0.000151623
6.54194e-05
-4.58871e-06
1.80301e-05
-0.000200906
-0.000426693
-1.05631e-05
-0.000389488
-1.6328e-05
-0.000238799
-2.41343e-05
-0.000140162
-1.96287e-05
-2.57178e-05
-1.71537e-05
2.7918e-05
1.35509e-05
8.66831e-05
0.000101755
0.0001842
0.00022378
0.000300851
0.000308797
0.000403212
0.000341195
0.000449195
0.000345531
0.000460305
0.000347371
0.000454962
0.000337733
0.000442689
0.000296684
0.000425583
0.000197522
0.000394332
5.37609e-05
0.000337669
-2.90784e-05
0.000249186
-1.23912e-05
0.000177682
4.59261e-05
0.000170344
9.57588e-05
0.000194056
0.000110924
0.000199551
9.61623e-05
0.000164923
6.78472e-05
2.37918e-05
4.40597e-05
-0.000166745
-0.000377067
-2.96875e-06
-0.000387483
-9.58208e-07
-0.000240639
-1.19317e-07
-0.0001446
1.84594e-05
-4.76723e-05
2.61111e-05
1.21265e-05
3.38738e-05
7.1149e-05
7.42434e-05
0.000145802
0.000148593
0.000237366
0.000235911
0.000325069
0.000302151
0.000383849
0.000330005
0.000425622
0.000332663
0.000447085
0.000327175
0.000447478
0.000310408
0.000439685
0.000273581
0.000423646
0.000204451
0.000391928
0.0001097
0.000323803
6.12144e-05
0.000226745
5.84688e-05
0.000193354
6.73066e-05
0.000204296
6.05552e-05
0.000214595
4.09494e-05
0.000186924
4.06703e-05
4.0493e-05
3.86379e-05
-0.000142654
-0.00033794
-1.20835e-06
-0.000383727
1.17359e-06
-0.000243918
4.61418e-06
-0.000151235
1.80948e-05
-6.3977e-05
2.86776e-05
-4.78695e-06
2.1098e-05
6.60913e-05
2.73512e-05
0.000127362
5.71269e-05
0.00020125
0.000109679
0.000272016
0.000174946
0.000319911
0.000227497
0.000367822
0.000251776
0.000411183
0.000253986
0.000434736
0.000245941
0.000442949
0.000231221
0.000438768
0.000198948
0.000422647
0.000150794
0.000373921
0.000102909
0.000286357
7.0388e-05
0.00024055
4.37864e-05
0.000240851
5.46597e-06
0.000255512
-3.11885e-06
0.000206931
1.70037e-05
4.46711e-05
2.48101e-05
-0.000130822
-0.000312907
-8.4852e-06
-0.000370298
-1.42296e-05
-0.000235638
-2.08315e-05
-0.000145019
-2.52978e-05
-6.2313e-05
-2.90602e-05
-4.75101e-06
-3.94569e-05
6.52349e-05
-4.21135e-05
0.000116109
-1.94954e-05
0.000169726
2.38341e-05
0.000224258
7.24495e-05
0.000268121
0.000111357
0.000319216
0.000131693
0.00037331
0.000132936
0.000416895
0.000124331
0.000442765
0.000112681
0.000449459
9.89049e-05
0.000441608
8.76531e-05
0.000400189
6.34136e-05
0.000328564
2.79544e-05
0.000287702
-2.40216e-05
0.000296048
-6.48593e-05
0.000302648
-1.75538e-05
0.000190191
2.75638e-07
4.36663e-05
1.8408e-05
-0.000134431
-0.000295892
-1.41602e-05
-0.000353452
-2.99229e-05
-0.000217771
-4.70373e-05
-0.000125741
-6.44867e-05
-4.7079e-05
-7.29367e-05
2.57466e-06
-7.23309e-05
6.53287e-05
-6.39001e-05
0.000105539
-4.28018e-05
0.000144451
-2.00243e-05
0.000196508
-5.78921e-06
0.00024562
-6.14949e-09
0.000299588
-4.56216e-07
0.000357106
-4.2133e-06
0.000407252
-6.02532e-06
0.000437994
-3.11703e-06
0.000446848
6.39057e-06
0.000438086
1.95683e-05
0.000401272
1.14862e-05
0.000349602
-2.82543e-05
0.000336221
-8.92838e-05
0.000357229
-9.87219e-05
0.000324658
-3.99143e-05
0.000150903
-2.56766e-05
4.01042e-05
1.78348e-06
-0.000160209
-0.000296291
-1.88826e-05
-0.000333834
-3.82201e-05
-0.000197888
-5.75804e-05
-0.000104928
-7.22324e-05
-3.09678e-05
-7.6834e-05
9.42508e-06
-7.679e-05
6.80805e-05
-7.59488e-05
0.000105178
-7.60895e-05
0.000142834
-8.20646e-05
0.000198975
-8.74393e-05
0.00024476
-8.51265e-05
0.000290696
-7.63137e-05
0.000342969
-6.15197e-05
0.000389807
-4.29306e-05
0.00041949
-2.38095e-05
0.000431267
-5.35997e-06
0.000426643
6.73199e-06
0.000399795
-9.51131e-06
0.000375447
-5.26925e-05
0.000384897
-8.85709e-05
0.000393748
-7.73977e-05
0.000315662
-5.74923e-05
0.000131925
-4.07286e-05
2.35229e-05
-2.08511e-05
-0.000185087
-0.000315038
-2.1907e-05
-0.000310295
-3.9951e-05
-0.000178792
-5.65322e-05
-8.77817e-05
-6.79318e-05
-1.87549e-05
-7.27334e-05
1.56451e-05
-7.64649e-05
7.30849e-05
-8.25115e-05
0.000112612
-8.90683e-05
0.000150524
-9.66566e-05
0.000206103
-9.56048e-05
0.000245433
-7.90348e-05
0.000278703
-5.61984e-05
0.000326522
-3.25198e-05
0.000372614
-1.2865e-05
0.000405925
-1.04642e-06
0.00042505
7.63367e-06
0.000425854
2.33322e-06
0.000413949
-3.46673e-05
0.000417143
-7.58576e-05
0.000425217
-8.25799e-05
0.000400089
-3.81986e-05
0.00027225
-3.70758e-05
0.000126713
-2.23195e-05
5.64311e-07
-1.78938e-05
-0.00019652
-0.000332289
-1.75885e-05
-0.000290265
-3.20434e-05
-0.000161872
-4.3769e-05
-7.52547e-05
-5.12959e-05
-1.14354e-05
-5.60422e-05
1.95968e-05
-6.04042e-05
7.64376e-05
-6.57849e-05
0.000117528
-6.30445e-05
0.000149783
-5.21338e-05
0.000196508
-3.18198e-05
0.000228149
-8.58765e-06
0.000264272
7.09938e-06
0.000320353
1.50098e-05
0.000372173
1.4978e-05
0.000410976
8.94443e-06
0.000433871
-2.12126e-06
0.000441386
-2.49832e-05
0.000445901
-5.68611e-05
0.000454313
-8.13607e-05
0.000443408
-6.87371e-05
0.000382514
-1.99852e-05
0.000221188
-1.93225e-05
0.000118478
-5.71134e-06
-2.37988e-05
-8.15202e-06
-0.000203811
-0.000338962
-1.10987e-05
-0.000275899
-2.37111e-05
-0.000146513
-3.05901e-05
-6.63594e-05
-3.27237e-05
-8.78042e-06
-3.2031e-05
1.90857e-05
-2.7977e-05
7.22064e-05
-2.02989e-05
0.00010826
-4.20336e-06
0.00013258
2.24429e-05
0.000171296
3.79671e-05
0.000209789
2.54346e-05
0.000265505
4.23483e-06
0.000330314
-1.17632e-05
0.000382214
-2.70564e-05
0.000422591
-3.95818e-05
0.000448875
-5.24439e-05
0.000461748
-6.73597e-05
0.000467032
-7.70389e-05
0.000464936
-7.74025e-05
0.000435874
-3.89732e-05
0.00033428
-1.67044e-05
0.000188028
-1.09905e-05
9.77689e-05
-1.58507e-06
-4.54682e-05
-2.16102e-06
-0.000210173
-0.000338299
-9.97274e-06
-0.000261164
-2.2849e-05
-0.000130406
-2.82388e-05
-5.70583e-05
-2.99975e-05
-5.71178e-06
-2.86609e-05
1.84308e-05
-2.25194e-05
6.671e-05
-1.17304e-05
9.65096e-05
-5.81501e-07
0.000118523
2.89598e-06
0.000159145
-1.61491e-05
0.000211622
-5.42969e-05
0.000279971
-9.01226e-05
0.000344836
-0.000113513
0.000392489
-0.000121005
0.000426155
-0.000115855
0.000446045
-0.000104889
0.000455767
-9.30293e-05
0.000458031
-8.50251e-05
0.000451819
-6.37124e-05
0.000402138
-1.30043e-05
0.000272837
2.62638e-06
0.00015941
9.91405e-06
7.68903e-05
1.1011e-05
-5.82226e-05
9.68069e-06
-0.000210466
-0.000322548
-1.30932e-05
-0.000243837
-2.77528e-05
-0.000112018
-3.54054e-05
-4.53779e-05
-4.2054e-05
2.87437e-06
-4.71408e-05
2.54085e-05
-5.11647e-05
7.21405e-05
-5.58873e-05
0.000101078
-6.9094e-05
0.000126106
-9.86567e-05
0.000170874
-0.000137881
0.000228376
-0.000168787
0.000293077
-0.000183103
0.000347756
-0.000181795
0.000384367
-0.000167732
0.000411195
-0.000146539
0.000427086
-0.000123162
0.00043422
-0.00010036
0.000434621
-7.47179e-05
0.000419101
-3.16046e-05
0.000346198
2.95176e-06
0.000227765
1.78586e-05
0.000137276
2.38861e-05
6.55222e-05
2.47798e-05
-6.22109e-05
2.21115e-05
-0.000201587
-0.000296364
-1.50208e-05
-0.000225599
-3.20449e-05
-9.14395e-05
-4.46647e-05
-2.93628e-05
-6.06926e-05
2.04244e-05
-7.85786e-05
4.43183e-05
-9.72968e-05
9.10337e-05
-0.00011946
0.000119705
-0.000148786
0.000146611
-0.000177542
0.000189242
-0.000198898
0.000242006
-0.000210977
0.000298412
-0.000211111
0.000345722
-0.000198429
0.00037217
-0.000173146
0.000388678
-0.00014081
0.00039929
-0.000104307
0.000401903
-6.99656e-05
0.000399323
-3.69711e-05
0.000376931
2.03445e-06
0.000299961
1.94315e-05
0.000205082
2.40127e-05
0.000131126
2.84085e-05
6.38036e-05
3.49365e-05
-5.93641e-05
2.6517e-05
-0.00018592
-0.000267739
-1.85471e-05
-0.000204111
-4.14157e-05
-6.53287e-05
-5.9262e-05
-8.31364e-06
-8.13474e-05
4.342e-05
-0.000106193
6.91563e-05
-0.00013253
0.0001169
-0.000160313
0.000144434
-0.000186536
0.000168435
-0.00020445
0.000203172
-0.000211823
0.000246661
-0.00021058
0.000297063
-0.000199387
0.000336715
-0.000176226
0.000352559
-0.000141544
0.000358741
-0.000103296
0.000365247
-6.48264e-05
0.000367858
-3.4477e-05
0.0003686
-6.72605e-06
0.000346325
1.42704e-05
0.000277739
1.64117e-05
0.000203575
1.15656e-05
0.000141164
2.81428e-05
6.18366e-05
3.97369e-05
-5.31944e-05
2.64604e-05
-0.000165474
-0.00024149
-2.02273e-05
-0.000180035
-4.93242e-05
-3.22396e-05
-7.08217e-05
1.68718e-05
-9.54225e-05
6.92784e-05
-0.000121338
9.5039e-05
-0.000147106
0.000142275
-0.000173653
0.000170003
-0.000194159
0.000188534
-0.000205135
0.000214079
-0.000205138
0.000246637
-0.000191513
0.000284618
-0.000166396
0.000315626
-0.000138848
0.000328988
-0.000110633
0.000333887
-8.40466e-05
0.000340936
-6.17204e-05
0.000346821
-4.3338e-05
0.000349801
-2.02504e-05
0.00032516
-7.66482e-06
0.000270272
-1.42197e-05
0.000216734
-2.14647e-05
0.000160088
1.79509e-05
4.48477e-05
3.10536e-05
-5.19367e-05
1.6874e-05
-0.00015015
-0.000225094
-2.04183e-05
-0.000156717
-5.04709e-05
1.33416e-06
-6.98863e-05
3.97939e-05
-9.39202e-05
9.47535e-05
-0.000118709
0.000119687
-0.00014111
0.000164799
-0.000164561
0.000193525
-0.000182092
0.000208122
-0.000191749
0.000225062
-0.000189987
0.000246982
-0.000174835
0.000272472
-0.000152768
0.000295904
-0.000133483
0.000311105
-0.000117047
0.000317601
-0.000101542
0.000324054
-8.67052e-05
0.000329834
-6.67178e-05
0.000330028
-4.54315e-05
0.000307468
-4.09124e-05
0.00027204
-5.41067e-05
0.000234309
-5.39508e-05
0.000172162
-2.24421e-05
3.05986e-05
-3.74535e-06
-5.46479e-05
-3.61263e-07
-0.000151048
-0.000224645
-1.82734e-05
-0.00013529
-5.2043e-05
3.91781e-05
-6.7838e-05
5.97855e-05
-8.72072e-05
0.000116502
-0.000108973
0.000142219
-0.000123003
0.000179219
-0.000141103
0.000212119
-0.000156584
0.000226613
-0.000166719
0.00023821
-0.000169043
0.000251434
-0.000163498
0.000268588
-0.000150983
0.00028394
-0.000136118
0.000295267
-0.000120888
0.000300499
-0.00010388
0.000304448
-8.40381e-05
0.000308292
-6.08068e-05
0.000308315
-4.92425e-05
0.000299064
-5.3415e-05
0.000279805
-6.34001e-05
0.000250649
-5.11264e-05
0.000168151
-5.42842e-05
3.88033e-05
-4.54639e-05
-5.76874e-05
-3.04366e-05
-0.000161409
-0.0002528
-1.52529e-05
-0.000117183
-5.36591e-05
8.05517e-05
-6.9997e-05
8.06316e-05
-8.15292e-05
0.000132504
-9.77874e-05
0.000161676
-0.000102137
0.000186194
-0.000111346
0.000221996
-0.000123252
0.000240388
-0.000133366
0.000251657
-0.000140004
0.000260666
-0.000139643
0.000269741
-0.000132112
0.000276626
-0.000117738
0.000279823
-9.95345e-05
0.000281397
-8.0548e-05
0.000284701
-6.21698e-05
0.000290477
-4.75202e-05
0.000296183
-4.43886e-05
0.000298291
-5.31008e-05
0.000288053
-5.23685e-05
0.000251864
-2.30849e-05
0.000142297
-3.60061e-05
5.09988e-05
-5.04831e-05
-6.20245e-05
-4.59227e-05
-0.000177559
-0.000300954
-9.81138e-06
-0.000105502
-5.05018e-05
0.000117973
-6.41431e-05
9.82733e-05
-5.19923e-05
0.000127255
-6.91021e-05
0.000185154
-7.80185e-05
0.000198497
-7.92503e-05
0.000224484
-8.13564e-05
0.000242887
-8.23955e-05
0.000254676
-8.3507e-05
0.000264882
-8.37696e-05
0.000271965
-8.10705e-05
0.000274462
-7.30265e-05
0.00027216
-6.18428e-05
0.000271024
-4.82097e-05
0.00027269
-3.33272e-05
0.0002781
-2.0794e-05
0.000287333
-1.4576e-05
0.000294818
-2.01129e-05
0.000291119
-6.4585e-06
0.000236797
1.25479e-05
0.000117948
8.15374e-06
4.62702e-05
-1.82172e-05
-6.22319e-05
-2.77668e-05
-0.000186583
-0.000333518
-4.25878e-06
-9.94839e-05
-4.16714e-05
0.000148355
-5.42152e-05
0.000111021
-2.89399e-05
0.00010853
-3.94572e-05
0.000201805
-5.99718e-05
0.000222239
-6.16826e-05
0.000229137
-5.28023e-05
0.000234562
-3.47436e-05
0.000239552
-1.58002e-05
0.000250196
-1.77178e-06
0.000262105
3.97849e-06
0.000270739
2.92522e-06
0.000274604
1.48967e-06
0.000273724
5.63592e-06
0.000271095
1.80658e-05
0.000271859
3.20645e-05
0.000281302
3.89735e-05
0.000293128
3.68437e-05
0.000290734
5.09306e-05
0.00021532
4.48342e-05
0.000110785
4.45189e-05
3.07797e-05
2.2364e-05
-5.5334e-05
-6.13442e-06
-0.000170477
-0.000336737
-3.98511e-06
-9.57796e-05
-2.28888e-05
0.000159664
-3.27376e-05
0.000118913
-2.14004e-05
0.000100909
-1.96283e-05
0.000202082
-4.08572e-05
0.000244218
-4.65689e-05
0.000234532
-2.82673e-05
0.000218614
2.64844e-06
0.000213394
3.78929e-05
0.000221973
6.55927e-05
0.000241916
7.62872e-05
0.00026546
7.33574e-05
0.000280344
6.69858e-05
0.000282273
6.43852e-05
0.000277751
6.62672e-05
0.000276668
7.13655e-05
0.000285123
7.31053e-05
0.000295751
7.43078e-05
0.000288008
8.35385e-05
0.000197839
7.59366e-05
0.000112365
6.83447e-05
2.36596e-05
5.21498e-05
-4.68092e-05
2.13444e-05
-0.00014485
-0.000313233
-7.0067e-06
-9.05096e-05
-6.9447e-06
0.000156461
-1.3161e-05
0.000123906
-1.84177e-05
0.000106139
-2.05787e-05
0.000203123
-2.77046e-05
0.000249726
-2.04731e-05
0.000226614
1.07303e-05
0.000189896
4.45538e-05
0.000185752
7.24761e-05
0.000200857
8.54068e-05
0.000233333
8.4896e-05
0.000268048
7.88145e-05
0.000288612
7.19498e-05
0.000291827
6.7346e-05
0.000287048
6.2692e-05
0.000286124
6.27431e-05
0.000290779
6.55149e-05
0.000295256
7.38702e-05
0.000278267
8.23246e-05
0.000186577
7.62053e-05
0.000113874
6.15549e-05
3.40061e-05
4.49855e-05
-3.17489e-05
2.94344e-05
-0.000121954
-0.000281043
-7.70103e-06
-8.32796e-05
-4.45341e-06
0.000153825
-1.21158e-05
0.000130763
-2.80935e-05
0.000119554
-3.09045e-05
0.000203609
-1.67082e-05
0.000235616
2.16603e-05
0.000194649
5.97734e-05
0.000159552
7.6853e-05
0.000170978
7.56828e-05
0.000201177
6.43894e-05
0.000241141
5.31371e-05
0.000274765
4.55436e-05
0.000294513
4.00093e-05
0.000300089
3.48992e-05
0.000296559
2.941e-05
0.000293438
2.84002e-05
0.000292382
3.40708e-05
0.000289155
5.92791e-05
0.000253149
7.32452e-05
0.000175626
6.78379e-05
0.000116438
5.02632e-05
5.59978e-05
2.60815e-05
-3.25977e-06
1.95746e-05
-0.00010243
-0.000257623
-7.58632e-06
-7.55685e-05
-8.81999e-06
0.000156542
-2.32376e-05
0.000143524
-4.43826e-05
0.000137852
-4.52079e-05
0.000203769
-1.75176e-05
0.00021551
2.58043e-05
0.000164021
4.47487e-05
0.000148682
3.95252e-05
0.000176513
6.89965e-06
0.000223323
-2.67767e-05
0.000262109
-4.48093e-05
0.000284944
-4.68908e-05
0.000294943
-3.87954e-05
0.000293962
-2.96964e-05
0.000288956
-2.16625e-05
0.000285206
-1.18754e-05
0.000281553
1.03319e-05
0.000269316
3.8929e-05
0.000230425
4.65456e-05
0.000178082
4.38123e-05
0.000124191
2.3643e-05
8.51747e-05
1.7075e-06
2.61405e-05
1.12921e-05
-9.5726e-05
-0.000240393
-6.68299e-06
-6.78918e-05
-1.5021e-05
0.000166093
-3.31803e-05
0.000160706
-4.85009e-05
0.000152511
-4.99112e-05
0.000206789
-3.79483e-05
0.000212734
-2.29931e-05
0.000161481
-2.25988e-05
0.000152757
-4.21832e-05
0.000186597
-7.47953e-05
0.000246211
-9.58277e-05
0.000277718
-0.000103044
0.000291157
-0.000103597
0.00029508
-9.71999e-05
0.000286662
-8.59482e-05
0.0002773
-6.98245e-05
0.000270484
-4.41755e-05
0.000258658
-1.39419e-05
0.000246223
4.75514e-06
0.000223206
9.46493e-06
0.000185949
2.75362e-06
0.000135721
-2.63593e-05
0.000112608
-3.09869e-05
3.98167e-05
6.75123e-06
-0.000115985
-0.000233749
-5.55195e-06
-6.12346e-05
-1.81486e-05
0.000178706
-3.87171e-05
0.000179067
-4.41355e-05
0.000159028
-3.78797e-05
0.000201855
-5.47116e-05
0.000232746
-7.74476e-05
0.0001871
-8.77368e-05
0.000163896
-8.31786e-05
0.000182485
-8.04087e-05
0.000246456
-8.16129e-05
0.000281485
-8.6867e-05
0.000298661
-9.46959e-05
0.000303762
-9.96767e-05
0.000291505
-0.000102335
0.000279198
-9.72267e-05
0.00026666
-8.22013e-05
0.000246428
-6.58245e-05
0.000236086
-5.6365e-05
0.000220324
-5.64355e-05
0.000183529
-6.86751e-05
0.00014031
-7.74435e-05
0.000114747
-6.23449e-05
2.83364e-05
-2.63908e-05
-0.000147926
-0.000255527
-2.51012e-06
-5.84202e-05
-8.06381e-06
0.000183909
-2.07955e-05
0.000187635
-2.33609e-05
0.000161053
-1.12079e-05
0.000191684
-3.42658e-05
0.000251059
-8.39012e-05
0.000229524
-0.000111579
0.000190936
-0.000100026
0.000178303
-5.86262e-05
0.000216007
-2.23558e-05
0.000257441
-9.08269e-06
0.000296298
-1.97219e-05
0.000321036
-4.39375e-05
0.00031343
-6.54429e-05
0.000295972
-7.48814e-05
0.000274532
-7.28262e-05
0.00024605
-7.26879e-05
0.000234141
-8.0129e-05
0.000220621
-8.48427e-05
0.000175316
-8.33479e-05
0.000130143
-6.8877e-05
9.33923e-05
-5.2452e-05
8.44809e-06
-4.67666e-05
-0.000164326
-0.000297409
1.22833e-07
-5.75748e-05
4.52059e-07
0.000184212
5.73659e-06
0.000184375
2.24156e-06
0.000163754
-1.3759e-06
0.000192669
-4.90106e-06
0.000249332
-4.07706e-05
0.000251177
-7.78233e-05
0.000216198
-7.81742e-05
0.000182676
-3.23846e-05
0.000186272
3.7012e-05