/*--------------------------------*- C++ -*----------------------------------*\
| =========                 |                                                 |
| \\      /  F ield         | OpenFOAM: The Open Source CFD Toolbox           |
|  \\    /   O peration     | Version:  2.3.0                                 |
|   \\  /    A nd           | Web:      www.OpenFOAM.org                      |
|    \\/     M anipulation  |                                                 |
\*---------------------------------------------------------------------------*/
FoamFile
{
    version     2.0;
    format      ascii;
    class       surfaceScalarField;
    location    "0.204";
    object      phi;
}
// * * * * * * * * * * * * * * * * * * * * * * * * * * * * * * * * * * * * * //

dimensions      [0 3 -1 0 0 0 0];

internalField   nonuniform List<scalar> 
1024
(
2.44358e-12
5.64177e-14
2.54305e-12
-9.94672e-14
2.57759e-12
-3.45377e-14
2.61636e-12
-3.87704e-14
4.03855e-14
2.57597e-12
2.57499e-12
-1.85763e-14
2.55783e-12
-8.23062e-14
2.56168e-12
-3.83884e-14
2.58227e-12
-5.9354e-14
6.79424e-14
2.55471e-12
2.59532e-12
-1.13897e-13
2.53627e-12
-2.32551e-14
2.5236e-12
-2.57223e-14
2.53768e-12
-7.34275e-14
9.21427e-14
2.51348e-12
2.52429e-12
-1.38186e-13
2.46626e-12
3.47764e-14
2.46033e-12
-1.97938e-14
2.46277e-12
-7.58661e-14
1.005e-13
2.45441e-12
2.36181e-12
2.39659e-12
2.3768e-12
2.30093e-12
2.40143e-12
2.37072e-12
2.05256e-13
2.32484e-12
4.5879e-14
2.32348e-12
1.3614e-15
2.33173e-12
-8.25922e-15
2.33673e-12
-4.99159e-15
2.33889e-12
-2.15889e-15
2.33965e-12
-7.69657e-16
2.33991e-12
-2.55154e-16
2.33999e-12
-7.99322e-17
2.34e-12
-9.77638e-18
2.34e-12
-3.73152e-18
2.34e-12
8.04284e-18
2.34e-12
-4.51275e-18
2.33999e-12
6.65953e-18
2.34e-12
-6.53279e-18
2.33999e-12
6.50577e-18
2.34e-12
-7.2147e-18
2.33999e-12
7.7025e-18
2.34e-12
-7.83606e-18
2.33999e-12
7.29939e-18
2.34e-12
-7.50337e-18
2.33999e-12
8.32497e-18
2.34e-12
-8.65334e-18
2.33999e-12
7.96942e-18
2.34e-12
-8.13489e-18
2.33999e-12
7.45871e-18
2.34e-12
-7.7615e-18
2.33999e-12
8.77615e-18
2.34e-12
-9.2218e-18
2.33999e-12
9.3168e-18
2.34e-12
-9.85642e-18
2.33999e-12
9.8263e-18
2.34e-12
-1.00761e-17
2.33999e-12
9.60546e-18
2.34e-12
-9.44351e-18
2.34e-12
7.31471e-18
2.34001e-12
-1.04244e-17
2.33999e-12
1.0979e-17
2.34001e-12
-1.08597e-17
2.33999e-12
1.12049e-17
2.34e-12
-1.02818e-17
2.33999e-12
1.03685e-17
2.34001e-12
-1.22445e-17
2.34e-12
5.69097e-18
-5.54144e-17
2.36498e-12
3.94986e-13
2.3255e-12
8.53618e-14
2.32744e-12
-5.81942e-16
2.33356e-12
-1.43782e-14
2.33743e-12
-8.85871e-15
2.33908e-12
-3.81117e-15
2.33969e-12
-1.38196e-15
2.33992e-12
-4.80908e-16
2.33998e-12
-1.43985e-16
2.34001e-12
-3.66276e-17
2.34e-12
5.4909e-18
2.34001e-12
-1.59579e-18
2.34e-12
7.68795e-18
2.34001e-12
-4.47342e-18
2.34e-12
5.95265e-18
2.34001e-12
-5.6738e-18
2.33999e-12
5.66716e-18
2.34001e-12
-4.78794e-18
2.33999e-12
5.27298e-18
2.34001e-12
-6.73718e-18
2.33999e-12
7.04411e-18
2.34001e-12
-5.64779e-18
2.33999e-12
6.64811e-18
2.34001e-12
-7.56525e-18
2.33999e-12
7.47841e-18
2.34001e-12
-9.74942e-18
2.33999e-12
8.55819e-18
2.34001e-12
-7.7113e-18
2.33999e-12
7.66259e-18
2.34001e-12
-6.61551e-18
2.33999e-12
8.02275e-18
2.34001e-12
-7.02435e-18
2.33999e-12
8.22214e-18
2.34001e-12
-8.33335e-18
2.33999e-12
9.0348e-18
2.34001e-12
-1.29219e-17
2.33999e-12
7.67327e-18
2.34001e-12
-6.51524e-18
2.33999e-12
7.24481e-18
2.34001e-12
-7.08676e-18
2.33999e-12
9.6688e-18
2.34001e-12
-8.48745e-18
2.33998e-12
9.9811e-18
2.34e-12
-7.59943e-18
4.30181e-17
2.34442e-12
5.64044e-13
2.32843e-12
1.01354e-13
2.33406e-12
-6.21426e-15
2.33773e-12
-1.80544e-14
2.33926e-12
-1.03815e-14
2.33973e-12
-4.28129e-15
2.3399e-12
-1.55029e-15
2.33996e-12
-5.44963e-16
2.33999e-12
-1.78556e-16
2.34e-12
-3.80501e-17
2.34e-12
-3.09966e-18
2.34e-12
6.65669e-18
2.34001e-12
-8.7841e-19
2.34e-12
4.62596e-18
2.34001e-12
-3.35605e-18
2.34e-12
3.99689e-18
2.34001e-12
-4.74873e-18
2.33999e-12
6.45135e-18
2.34001e-12
-5.8679e-18
2.34e-12
3.82886e-18
2.34001e-12
-3.80626e-18
2.33999e-12
6.44521e-18
2.34001e-12
-5.2827e-18
2.33999e-12
3.99949e-18
2.34001e-12
-4.30084e-18
2.33999e-12
1.77184e-18
2.34001e-12
-3.82787e-18
2.33999e-12
5.29392e-18
2.34001e-12
-5.78771e-18
2.33999e-12
7.44935e-18
2.34001e-12
-5.78363e-18
2.33999e-12
7.50713e-18
2.34001e-12
-6.15455e-18
2.33999e-12
5.77469e-18
2.34001e-12
-4.48285e-18
2.33999e-12
-2.75314e-19
2.34001e-12
-7.96206e-18
2.33999e-12
9.91048e-18
2.34001e-12
-8.87757e-18
2.33999e-12
8.61402e-18
2.34001e-12
-5.81499e-18
2.33999e-12
8.02193e-18
2.34001e-12
-7.62696e-18
2.34e-12
5.19077e-18
-4.20476e-17
2.3206e-12
6.97855e-13
2.33593e-12
8.60188e-14
2.34379e-12
-1.40719e-14
2.3431e-12
-1.73596e-14
2.34148e-12
-8.76387e-15
2.34053e-12
-3.33452e-15
2.34015e-12
-1.17031e-15
2.34004e-12
-4.35466e-16
2.34e-12
-1.36418e-16
2.34001e-12
-4.28363e-17
2.33999e-12
1.0904e-17
2.34001e-12
-7.65067e-18
2.33999e-12
1.23981e-17
2.34001e-12
-9.6359e-18
2.33999e-12
1.10775e-17
2.34001e-12
-1.11168e-17
2.33999e-12
9.88434e-18
2.34001e-12
-8.01643e-18
2.33999e-12
9.50629e-18
2.34001e-12
-1.26491e-17
2.33999e-12
1.29756e-17
2.34001e-12
-1.01958e-17
2.33999e-12
1.23174e-17
2.34001e-12
-1.45788e-17
2.33999e-12
1.46779e-17
2.34001e-12
-1.78062e-17
2.33999e-12
1.58528e-17
2.34001e-12
-1.38007e-17
2.33999e-12
1.29359e-17
2.34001e-12
-1.13016e-17
2.33999e-12
1.35022e-17
2.34001e-12
-1.22354e-17
2.33999e-12
1.42731e-17
2.34001e-12
-1.534e-17
2.33999e-12
1.7772e-17
2.34001e-12
-2.2635e-17
2.33999e-12
1.24013e-17
2.34001e-12
-9.19138e-18
2.33999e-12
1.07706e-17
2.34001e-12
-1.18366e-17
2.33999e-12
1.54325e-17
2.34001e-12
-1.38143e-17
2.33999e-12
1.56771e-17
2.34e-12
-9.69908e-18
5.47081e-17
2.30977e-12
7.89511e-13
2.35593e-12
3.98617e-14
2.35592e-12
-1.40635e-14
2.34796e-12
-9.39562e-15
2.34314e-12
-3.9423e-15
2.3411e-12
-1.30145e-15
2.34036e-12
-4.28273e-16
2.3401e-12
-1.74255e-16
2.34002e-12
-5.4958e-17
2.34e-12
-2.2369e-17
2.34e-12
1.12622e-17
2.34e-12
-7.2192e-18
2.34e-12
8.72539e-18
2.34e-12
-7.10611e-18
2.34e-12
7.62488e-18
2.34e-12
-6.93469e-18
2.34e-12
3.71881e-18
2.34e-12
-1.21021e-18
2.34e-12
3.4055e-18
2.34e-12
-7.31737e-18
2.34e-12
7.58165e-18
2.34e-12
-4.42977e-18
2.34e-12
6.53487e-18
2.34e-12
-1.00297e-17
2.34e-12
1.13409e-17
2.34e-12
-1.35998e-17
2.34e-12
1.12018e-17
2.34e-12
-7.32707e-18
2.34e-12
5.10698e-18
2.34e-12
-3.44837e-18
2.34001e-12
4.81125e-18
2.34e-12
-3.95644e-18
2.34001e-12
6.17604e-18
2.34e-12
-9.10208e-18
2.34e-12
1.45352e-17
2.34e-12
-1.62303e-17
2.34001e-12
3.08996e-18
2.33999e-12
3.87508e-18
2.34e-12
-1.88922e-18
2.33999e-12
-1.54396e-18
2.34e-12
4.80923e-18
2.33999e-12
-3.41696e-18
2.34001e-12
3.75167e-18
2.34e-12
-3.56365e-18
-2.75708e-17
2.57901e-12
-7.89497e-13
2.65875e-12
-3.98841e-14
2.63061e-12
1.40833e-14
2.61184e-12
9.37406e-15
2.60393e-12
3.96305e-15
2.60135e-12
1.27975e-15
2.60047e-12
4.49979e-16
2.60015e-12
1.52362e-16
2.60001e-12
7.69421e-17
2.59999e-12
1.48241e-19
2.59999e-12
1.12032e-17
2.6e-12
-1.53398e-17
2.59999e-12
1.4212e-17
2.6e-12
-1.60856e-17
2.6e-12
1.57289e-17
2.60001e-12
-1.63529e-17
2.59999e-12
1.97667e-17
2.60001e-12
-2.25126e-17
2.59999e-12
2.05973e-17
2.6e-12
-1.66174e-17
2.59999e-12
1.67885e-17
2.60001e-12
-2.02783e-17
2.6e-12
1.79287e-17
2.6e-12
-1.46388e-17
2.6e-12
1.31675e-17
2.6e-12
-1.10468e-17
2.59999e-12
1.41698e-17
2.60001e-12
-1.74795e-17
2.59999e-12
2.00296e-17
2.60001e-12
-2.24187e-17
2.59999e-12
2.06318e-17
2.60001e-12
-2.17665e-17
2.6e-12
1.96287e-17
2.6e-12
-1.61975e-17
2.60001e-12
1.04341e-17
2.6e-12
-8.78838e-18
2.59998e-12
2.24285e-17
2.60002e-12
-2.96999e-17
2.59999e-12
2.79039e-17
2.60001e-12
-2.40712e-17
2.59999e-12
2.13346e-17
2.60001e-12
-2.23769e-17
2.59999e-12
2.29449e-17
2.6e-12
-1.67742e-17
5.82599e-17
2.36181e-12
1.38186e-13
2.39659e-12
-3.4776e-14
2.3768e-12
1.97942e-14
2.30093e-12
7.58668e-14
-1.00498e-13
2.40143e-12
2.52429e-12
1.13897e-13
2.46626e-12
2.3255e-14
2.46033e-12
2.57226e-14
2.46277e-12
7.34278e-14
-9.21412e-14
2.45441e-12
2.59532e-12
1.85763e-14
2.53627e-12
8.23062e-14
2.5236e-12
3.83885e-14
2.53768e-12
5.93544e-14
-6.79411e-14
2.51348e-12
2.57499e-12
-5.64179e-14
2.55783e-12
9.9467e-14
2.56168e-12
3.45375e-14
2.58227e-12
3.87707e-14
-4.03848e-14
2.55471e-12
2.44358e-12
2.54305e-12
2.57759e-12
2.61636e-12
2.57597e-12
2.30978e-12
-6.97851e-13
2.35592e-12
-8.60275e-14
2.35593e-12
1.40794e-14
2.34795e-12
1.73506e-14
2.34314e-12
8.77208e-15
2.3411e-12
3.32543e-15
2.34037e-12
1.17922e-15
2.34009e-12
4.26522e-16
2.34003e-12
1.45327e-16
2.33999e-12
3.38009e-17
2.34001e-12
-1.75216e-18
2.33999e-12
-1.52016e-18
2.34001e-12
-2.90273e-18
2.33999e-12
3.27631e-20
2.34001e-12
-1.49707e-18
2.33999e-12
1.67171e-18
2.34001e-12
-3.33184e-19
2.33999e-12
-1.65383e-18
2.34001e-12
3.56739e-19
2.33999e-12
2.90247e-18
2.34001e-12
-2.85075e-18
2.33999e-12
-1.27441e-19
2.34001e-12
-2.37976e-18
2.33999e-12
4.45381e-18
2.34001e-12
-4.79629e-18
2.33999e-12
7.89728e-18
2.34001e-12
-5.23788e-18
2.33999e-12
3.81336e-18
2.34001e-12
-2.68517e-18
2.33999e-12
3.26858e-19
2.34001e-12
-2.95078e-18
2.33999e-12
1.57076e-18
2.34001e-12
-3.67263e-18
2.33999e-12
5.19375e-18
2.34001e-12
-7.94485e-18
2.33999e-12
1.28089e-17
2.34001e-12
-2.13478e-18
2.33998e-12
-1.2855e-18
2.34001e-12
-1.48862e-19
2.33999e-12
1.51115e-18
2.34001e-12
-4.51865e-18
2.33999e-12
2.98008e-18
2.34001e-12
-4.5838e-18
2.34e-12
-1.06154e-18
-4.59077e-17
2.3206e-12
-5.64042e-13
2.33593e-12
-1.01357e-13
2.3438e-12
6.2163e-15
2.34309e-12
1.80514e-14
2.34148e-12
1.03836e-14
2.34053e-12
4.2787e-15
2.34016e-12
1.55263e-15
2.34004e-12
5.4253e-16
2.34001e-12
1.80952e-16
2.34e-12
3.56008e-17
2.34e-12
5.58487e-18
2.34e-12
-9.12504e-18
2.34e-12
3.55223e-18
2.34e-12
-7.24277e-18
2.34e-12
5.93018e-18
2.34001e-12
-6.49966e-18
2.34e-12
7.30995e-18
2.34e-12
-9.06323e-18
2.34e-12
8.61682e-18
2.34001e-12
-6.40971e-18
2.34e-12
6.62217e-18
2.34001e-12
-9.32549e-18
2.34e-12
7.81569e-18
2.34001e-12
-6.85214e-18
2.33999e-12
6.91575e-18
2.34001e-12
-4.34339e-18
2.33999e-12
7.05557e-18
2.34001e-12
-7.84783e-18
2.34e-12
8.46904e-18
2.34001e-12
-1.06598e-17
2.33999e-12
8.52405e-18
2.34001e-12
-1.03864e-17
2.33999e-12
9.07917e-18
2.34001e-12
-8.48197e-18
2.33999e-12
7.05072e-18
2.34001e-12
-2.32237e-18
2.33999e-12
1.0875e-17
2.34001e-12
-1.28723e-17
2.33999e-12
1.18501e-17
2.34001e-12
-1.11452e-17
2.33999e-12
8.58754e-18
2.34001e-12
-1.06864e-17
2.33999e-12
9.9613e-18
2.34e-12
-7.90699e-18
4.43099e-17
2.34442e-12
-3.94987e-13
2.32843e-12
-8.53619e-14
2.33406e-12
5.81974e-16
2.33773e-12
1.43774e-14
2.33926e-12
8.85877e-15
2.33973e-12
3.81077e-15
2.3399e-12
1.38214e-15
2.33996e-12
4.80465e-16
2.34e-12
1.44409e-16
2.34e-12
3.62154e-17
2.34001e-12
-5.05401e-18
2.34e-12
1.16086e-18
2.34001e-12
-7.14328e-18
2.34e-12
4.07293e-18
2.34001e-12
-5.53735e-18
2.33999e-12
5.2514e-18
2.34001e-12
-5.24052e-18
2.33999e-12
4.34887e-18
2.34001e-12
-4.71995e-18
2.33999e-12
6.34961e-18
2.34001e-12
-6.51074e-18
2.33999e-12
5.1078e-18
2.34001e-12
-6.3959e-18
2.33999e-12
6.92086e-18
2.34001e-12
-7.07212e-18
2.33999e-12
9.4521e-18
2.34001e-12
-7.63518e-18
2.33999e-12
7.4145e-18
2.34001e-12
-7.32451e-18
2.33999e-12
5.88018e-18
2.34001e-12
-7.71072e-18
2.33999e-12
6.56102e-18
2.34001e-12
-7.67988e-18
2.33999e-12
7.85933e-18
2.34001e-12
-8.61788e-18
2.33999e-12
1.24219e-17
2.34001e-12
-6.99211e-18
2.33999e-12
5.87009e-18
2.34001e-12
-6.61099e-18
2.33999e-12
6.86032e-18
2.34001e-12
-9.16107e-18
2.33999e-12
7.75421e-18
2.34001e-12
-9.31299e-18
2.34e-12
6.41069e-18
-4.52504e-17
2.36498e-12
-2.05256e-13
2.3255e-12
-4.58791e-14
2.32744e-12
-1.36101e-15
2.33356e-12
8.25871e-15
2.33743e-12
4.99163e-15
2.33908e-12
2.15892e-15
2.33969e-12
7.69579e-16
2.33992e-12
2.54999e-16
2.33998e-12
7.98347e-17
2.34001e-12
9.64821e-18
2.34e-12
3.67956e-18
2.34001e-12
-8.04808e-18
2.34e-12
4.76822e-18
2.34001e-12
-6.56895e-18
2.34e-12
6.53021e-18
2.34001e-12
-6.55073e-18
2.33999e-12
7.15389e-18
2.34001e-12
-7.68863e-18
2.33999e-12
8.00729e-18
2.34001e-12
-7.2e-18
2.33999e-12
7.67924e-18
2.34001e-12
-8.48033e-18
2.33999e-12
8.217e-18
2.34001e-12
-8.40414e-18
2.33999e-12
8.02882e-18
2.34001e-12
-7.0561e-18
2.33999e-12
8.60133e-18
2.34001e-12
-8.40651e-18
2.33999e-12
9.0718e-18
2.34001e-12
-9.84555e-18
2.33999e-12
9.54068e-18
2.34001e-12
-9.83261e-18
2.33999e-12
1.01733e-17
2.34001e-12
-9.62748e-18
2.33999e-12
9.28808e-18
2.34001e-12
-7.42559e-18
2.33999e-12
1.0582e-17
2.34001e-12
-1.10957e-17
2.33999e-12
1.11416e-17
2.34001e-12
-1.06413e-17
2.33999e-12
1.00335e-17
2.34001e-12
-1.0539e-17
2.33999e-12
1.20359e-17
2.34e-12
-5.22908e-18
5.55847e-17
2.37072e-12
2.32484e-12
2.32348e-12
2.33173e-12
2.33673e-12
2.33889e-12
2.33966e-12
2.33991e-12
2.33999e-12
2.34e-12
2.34e-12
2.34e-12
2.34e-12
2.33999e-12
2.34e-12
2.33999e-12
2.34e-12
2.33999e-12
2.34e-12
2.33999e-12
2.34e-12
2.33999e-12
2.34e-12
2.33999e-12
2.34e-12
2.33999e-12
2.34e-12
2.33999e-12
2.34e-12
2.33999e-12
2.34e-12
2.33999e-12
2.34e-12
2.33999e-12
2.34e-12
2.34e-12
2.34001e-12
2.33999e-12
2.34001e-12
2.34e-12
2.34001e-12
2.33999e-12
2.34001e-12
2.34e-12
)
;

boundaryField
{
    AirInlet
    {
        type            calculated;
        value           uniform -1e-12;
    }
    WaterInlet
    {
        type            calculated;
        value           nonuniform List<scalar> 10(-2.5e-12 -2.5e-12 -2.5e-12 -2.5e-12 -2.5e-12 -2.5e-12 -2.5e-12 -2.5e-12 -2.5e-12 -2.5e-12);
    }
    ChannelWall
    {
        type            calculated;
        value           uniform 0;
    }
    Outlet
    {
        type            calculated;
        value           nonuniform List<scalar> 
11
(
2.34006e-12
2.3399e-12
2.34008e-12
2.33991e-12
2.34008e-12
2.59992e-12
2.3401e-12
2.33991e-12
2.34009e-12
2.3399e-12
2.34006e-12
)
;
    }
    FrontAndBack
    {
        type            empty;
        value           nonuniform 0();
    }
}


// ************************************************************************* //
