/*--------------------------------*- C++ -*----------------------------------*\
| =========                 |                                                 |
| \\      /  F ield         | OpenFOAM: The Open Source CFD Toolbox           |
|  \\    /   O peration     | Version:  2.3.0                                 |
|   \\  /    A nd           | Web:      www.OpenFOAM.org                      |
|    \\/     M anipulation  |                                                 |
\*---------------------------------------------------------------------------*/
FoamFile
{
    version     2.0;
    format      ascii;
    class       volScalarField;
    location    "1.46";
    object      alpha.air;
}
// * * * * * * * * * * * * * * * * * * * * * * * * * * * * * * * * * * * * * //

dimensions      [0 0 0 0 0 0 0];

internalField   nonuniform List<scalar> 
6000
(
0.55713
0.556763
0.556748
0.556663
0.556654
0.556441
0.556447
0.556447
0.556495
0.556496
0.574746
0.566658
0.566657
0.566644
0.566644
0.566634
0.56664
0.56664
0.566653
0.566653
0.566666
0.566669
0.586025
0.598046
0.542135
0.518748
0.518751
0.518757
0.518843
0.518846
0.617687
0.59807
0.598439
0.602105
0.580731
0.557333
0.556392
0.556509
0.556084
0.569763
0.574848
0.57256
0.566658
0.567351
0.566631
0.566634
0.566627
0.568429
0.573051
0.576451
0.578454
0.607166
0.67943
0.682475
0.63323
0.573184
0.544752
0.544852
0.544831
0.540457
0.703365
0.684714
0.687296
0.689241
0.655196
0.588492
0.558673
0.575743
0.556509
0.555989
0.556757
0.556541
0.61601
0.63083
0.607785
0.596119
0.596771
0.615837
0.62921
0.634943
0.643672
0.67549
0.683958
0.682869
0.684411
0.668889
0.586879
0.510495
0.47001
0.466437
0.715925
0.715747
0.715573
0.715414
0.715186
0.660833
0.617368
0.646186
0.556806
0.556757
0.555653
0.587071
0.665408
0.667078
0.665408
0.66407
0.658621
0.663835
0.663839
0.659605
0.666855
0.683076
0.682869
0.684206
0.682869
0.684412
0.648058
0.516728
0.449456
0.446177
0.715734
0.715577
0.715397
0.715239
0.715056
0.690317
0.662129
0.673343
0.596131
0.55489
0.556854
0.645787
0.667066
0.665408
0.666687
0.665408
0.665156
0.647203
0.628472
0.617635
0.62973
0.659994
0.683138
0.682869
0.684109
0.682869
0.670182
0.541196
0.45076
0.446648
0.715549
0.715396
0.715222
0.715055
0.70999
0.68268
0.673511
0.675489
0.618508
0.556854
0.563192
0.666522
0.665408
0.666728
0.665408
0.661743
0.628235
0.586028
0.554985
0.545786
0.561173
0.603158
0.652929
0.678254
0.682869
0.683511
0.670199
0.566218
0.44929
0.446236
0.715369
0.706526
0.706489
0.705662
0.690848
0.664373
0.672126
0.673343
0.634443
0.554731
0.598117
0.665408
0.666593
0.665408
0.651167
0.608597
0.556501
0.517974
0.499512
0.498475
0.510394
0.54638
0.594335
0.635968
0.661853
0.675416
0.660819
0.573487
0.450419
0.444712
0.709394
0.671461
0.668205
0.665912
0.65175
0.637048
0.670005
0.675787
0.650731
0.557289
0.634352
0.666184
0.665408
0.642015
0.584025
0.53602
0.503299
0.486653
0.482701
0.486423
0.497357
0.519506
0.546704
0.579586
0.613312
0.643459
0.639052
0.574477
0.465524
0.448011
0.676182
0.617158
0.602479
0.599923
0.596853
0.605174
0.668397
0.673175
0.666366
0.569035
0.647673
0.665408
0.649836
0.567618
0.509475
0.499595
0.489768
0.481919
0.478741
0.483389
0.496551
0.513498
0.525768
0.545063
0.573898
0.60851
0.619957
0.582091
0.51906
0.471266
0.621247
0.560909
0.534265
0.530891
0.539058
0.575514
0.66722
0.675907
0.673004
0.62675
0.643934
0.655324
0.612545
0.503816
0.475203
0.48091
0.485827
0.481601
0.477144
0.480824
0.492992
0.505869
0.513942
0.528923
0.555862
0.590636
0.629051
0.6422
0.615957
0.521556
0.565088
0.511844
0.488969
0.487604
0.496371
0.551526
0.665951
0.673005
0.673755
0.6466
0.628003
0.622205
0.578421
0.495596
0.467503
0.468453
0.47433
0.476393
0.473564
0.474749
0.481019
0.48703
0.493138
0.508017
0.531511
0.582824
0.663753
0.6908
0.689195
0.602361
0.519013
0.477937
0.467607
0.470268
0.476957
0.528393
0.662376
0.675662
0.672834
0.642286
0.595461
0.583596
0.565833
0.504363
0.467229
0.464305
0.465257
0.46783
0.466984
0.466668
0.467648
0.468844
0.471541
0.480183
0.490995
0.558481
0.682154
0.690927
0.6908
0.633899
0.483196
0.459168
0.457374
0.462744
0.469419
0.503641
0.652338
0.672834
0.673725
0.61942
0.54552
0.554367
0.561647
0.524327
0.471104
0.464391
0.464157
0.464382
0.464213
0.46438
0.464093
0.464385
0.464087
0.464405
0.46713
0.516041
0.646318
0.682338
0.66553
0.593515
0.458128
0.449032
0.451493
0.457785
0.465012
0.488408
0.624554
0.674851
0.672661
0.586635
0.491895
0.527179
0.549697
0.539553
0.486423
0.463823
0.464377
0.463816
0.464374
0.463419
0.464374
0.462671
0.464383
0.463632
0.464404
0.47864
0.555529
0.60223
0.57077
0.504079
0.445033
0.443977
0.448487
0.454144
0.460597
0.479512
0.586004
0.672661
0.673645
0.574232
0.472722
0.494948
0.520495
0.531392
0.502855
0.4644
0.463529
0.464371
0.462807
0.464371
0.462563
0.46446
0.466866
0.468438
0.464122
0.46446
0.473033
0.492494
0.474715
0.468415
0.443682
0.443714
0.449476
0.453563
0.457034
0.473118
0.561839
0.673628
0.672488
0.578183
0.472561
0.481041
0.486319
0.496765
0.495575
0.467794
0.464373
0.462686
0.464368
0.462649
0.498154
0.628812
0.69583
0.675467
0.584703
0.502942
0.480736
0.482672
0.485484
0.468478
0.443829
0.445274
0.455265
0.455712
0.456305
0.471437
0.563378
0.672488
0.672831
0.582873
0.4685
0.476994
0.471903
0.471015
0.474872
0.466634
0.463399
0.464367
0.462736
0.530121
0.71828
0.814111
0.837169
0.836042
0.807269
0.733697
0.668814
0.648331
0.668673
0.631374
0.495895
0.466565
0.466051
0.458771
0.455756
0.470602
0.563022
0.66634
0.670228
0.567787
0.464425
0.469512
0.46713
0.46434
0.46437
0.46424
0.464365
0.462731
0.501638
0.651195
0.77381
0.836012
0.838671
0.837234
0.838727
0.837293
0.836515
0.831254
0.836311
0.814746
0.677537
0.532331
0.46334
0.455427
0.4554
0.466548
0.548148
0.630467
0.639179
0.523563
0.463582
0.464361
0.464125
0.464358
0.463948
0.464361
0.46327
0.478314
0.564299
0.629512
0.744149
0.826631
0.837234
0.838451
0.837295
0.838627
0.837357
0.838593
0.837418
0.837478
0.773806
0.668653
0.483441
0.455481
0.455466
0.464086
0.515712
0.558655
0.56375
0.476847
0.464363
0.463384
0.464352
0.463267
0.464355
0.463252
0.471177
0.525537
0.541908
0.598917
0.724965
0.815364
0.837781
0.837234
0.838307
0.837295
0.838578
0.837357
0.838529
0.836035
0.752812
0.722564
0.613001
0.502454
0.491087
0.505102
0.494154
0.490199
0.488618
0.464377
0.462313
0.464349
0.462365
0.464349
0.462802
0.498654
0.519077
0.523069
0.526593
0.594011
0.719867
0.806689
0.837171
0.837638
0.837234
0.838286
0.837295
0.838449
0.837357
0.831561
0.68679
0.67919
0.652756
0.620646
0.630906
0.659519
0.569231
0.485777
0.464416
0.463639
0.464369
0.462013
0.464347
0.462056
0.503438
0.571316
0.529686
0.523007
0.52462
0.599065
0.717619
0.798209
0.833386
0.837171
0.83764
0.837234
0.838141
0.837295
0.838083
0.823647
0.608103
0.598549
0.605359
0.6299
0.709735
0.780662
0.748499
0.602742
0.476608
0.46445
0.497938
0.496918
0.462103
0.472907
0.578079
0.580205
0.543244
0.529153
0.539194
0.615928
0.715323
0.785421
0.820106
0.834855
0.837171
0.8376
0.837234
0.837827
0.837295
0.811928
0.549192
0.535042
0.540284
0.590178
0.711588
0.786665
0.782969
0.774481
0.629607
0.548884
0.609926
0.618912
0.562236
0.563278
0.580205
0.580831
0.56338
0.557765
0.574446
0.643069
0.717134
0.76817
0.799016
0.822623
0.835524
0.837171
0.837401
0.837234
0.83734
0.793387
0.512419
0.499955
0.504691
0.546513
0.700126
0.78297
0.78749
0.78297
0.772286
0.663319
0.660688
0.643211
0.585431
0.571925
0.580822
0.580206
0.572036
0.577412
0.609097
0.664892
0.716157
0.75028
0.776595
0.801862
0.819305
0.82777
0.831434
0.831824
0.824715
0.762181
0.485058
0.479099
0.488211
0.525981
0.690875
0.786046
0.78297
0.786663
0.78297
0.72796
0.672962
0.633559
0.575606
0.564337
0.580206
0.574937
0.565894
0.583005
0.625518
0.679561
0.715735
0.737093
0.75633
0.775876
0.790321
0.801204
0.805813
0.806058
0.800634
0.717445
0.462927
0.46415
0.474735
0.515287
0.687623
0.78297
0.78645
0.78297
0.785133
0.766504
0.688611
0.620376
0.563554
0.559314
0.575126
0.560437
0.554451
0.571457
0.626027
0.683456
0.714415
0.72739
0.737263
0.747747
0.756934
0.763233
0.764751
0.764086
0.767001
0.661904
0.453076
0.453492
0.461402
0.492442
0.65855
0.783711
0.78297
0.784225
0.78297
0.783546
0.715217
0.615099
0.548852
0.5536
0.560933
0.537975
0.533575
0.549071
0.612254
0.678472
0.709442
0.714531
0.715355
0.717796
0.720147
0.719069
0.71383
0.709665
0.715314
0.606096
0.453044
0.453051
0.453093
0.466607
0.569052
0.739379
0.778938
0.779946
0.780755
0.78297
0.737163
0.61246
0.517661
0.519709
0.52086
0.507924
0.503822
0.522154
0.589145
0.66279
0.693468
0.694124
0.690808
0.686753
0.678689
0.66746
0.654549
0.642385
0.637332
0.554045
0.453166
0.453176
0.453118
0.454038
0.485139
0.640359
0.715354
0.720762
0.733504
0.765463
0.734969
0.604986
0.480638
0.481143
0.479479
0.476994
0.477228
0.496921
0.561698
0.635539
0.662951
0.664015
0.659484
0.646351
0.62811
0.607856
0.586687
0.566792
0.553578
0.508404
0.529772
0.537238
0.489935
0.47517
0.501579
0.591885
0.643992
0.648141
0.664861
0.707789
0.702089
0.591121
0.468192
0.460124
0.459596
0.460097
0.460967
0.480365
0.540863
0.602738
0.620999
0.622077
0.614167
0.594908
0.568966
0.542688
0.523203
0.510959
0.505015
0.487969
0.811701
0.803904
0.731635
0.681568
0.67667
0.680971
0.689967
0.677962
0.65904
0.6566
0.656631
0.581564
0.496809
0.468813
0.460137
0.459187
0.460092
0.470218
0.521491
0.564663
0.574112
0.571862
0.558223
0.536137
0.510899
0.496318
0.494987
0.494894
0.501058
0.483706
0.905736
0.908237
0.897871
0.880212
0.865971
0.83972
0.81727
0.794213
0.747823
0.710237
0.703076
0.669324
0.66943
0.675374
0.513978
0.460187
0.459193
0.46469
0.501609
0.523933
0.52776
0.52141
0.50458
0.488768
0.480882
0.481921
0.495645
0.499523
0.501384
0.485297
0.913462
0.915518
0.916345
0.913951
0.910203
0.905743
0.899067
0.890989
0.872199
0.847844
0.8412
0.851466
0.873839
0.87959
0.76867
0.533122
0.46018
0.467191
0.487859
0.495451
0.497263
0.486714
0.475075
0.471091
0.472872
0.485442
0.500783
0.501196
0.50093
0.48815
0.918361
0.916945
0.916377
0.914244
0.912378
0.91348
0.913795
0.913675
0.914059
0.913675
0.91489
0.913675
0.915403
0.913636
0.872919
0.6872
0.495736
0.474645
0.488677
0.491386
0.479435
0.468233
0.465208
0.46716
0.476909
0.500559
0.501225
0.500784
0.50149
0.489294
0.925447
0.918617
0.915373
0.91408
0.91267
0.913597
0.913675
0.913941
0.913675
0.915191
0.913675
0.916421
0.913675
0.914172
0.878187
0.728171
0.532943
0.480755
0.488594
0.479789
0.465485
0.463238
0.463244
0.473357
0.496639
0.501113
0.50057
0.501247
0.500784
0.491923
0.933731
0.920144
0.912771
0.91385
0.91314
0.91356
0.913732
0.913675
0.914208
0.913675
0.916148
0.913675
0.916066
0.905997
0.84396
0.713966
0.545146
0.489466
0.480495
0.463936
0.463232
0.463015
0.470793
0.496262
0.500915
0.500249
0.501246
0.50057
0.501345
0.496218
0.939888
0.921303
0.909007
0.913428
0.913282
0.913551
0.913675
0.913726
0.913675
0.915453
0.913675
0.916688
0.913675
0.879433
0.767033
0.64611
0.543942
0.485623
0.464009
0.463231
0.462913
0.464709
0.496572
0.500784
0.50012
0.50111
0.500249
0.501124
0.500569
0.485381
0.940953
0.921849
0.904789
0.913088
0.91323
0.913367
0.912305
0.91275
0.914127
0.913675
0.916344
0.913675
0.916171
0.845153
0.680246
0.573947
0.51162
0.468469
0.463234
0.462857
0.463259
0.492429
0.500655
0.49987
0.500903
0.500125
0.500992
0.500249
0.494658
0.463365
0.94086
0.922035
0.900571
0.912799
0.913169
0.913171
0.908166
0.908793
0.913675
0.91555
0.913675
0.916563
0.913675
0.823906
0.609981
0.525385
0.482321
0.463249
0.46284
0.463254
0.485356
0.500505
0.499742
0.500679
0.49987
0.500715
0.500123
0.489212
0.464099
0.449417
0.940769
0.922241
0.898136
0.91266
0.913144
0.913175
0.902969
0.901484
0.914124
0.913675
0.916021
0.913675
0.91558
0.821013
0.580505
0.497833
0.468277
0.462888
0.463257
0.481067
0.500245
0.499595
0.500585
0.499742
0.500349
0.499865
0.481596
0.460363
0.449399
0.445205
0.940769
0.921522
0.898059
0.913435
0.913215
0.913505
0.900359
0.892672
0.913675
0.915264
0.913675
0.9159
0.913636
0.843068
0.597095
0.488284
0.465765
0.463278
0.483214
0.499945
0.499363
0.500271
0.499595
0.500017
0.499729
0.474551
0.457416
0.449465
0.44643
0.446448
0.940765
0.919514
0.899004
0.914675
0.913453
0.91422
0.902892
0.884992
0.913904
0.913675
0.915537
0.913636
0.914876
0.879454
0.700814
0.504157
0.471401
0.487767
0.499759
0.499356
0.499878
0.499363
0.499684
0.492516
0.469189
0.455515
0.449849
0.448055
0.448059
0.449597
0.939239
0.917147
0.908788
0.915191
0.914227
0.914675
0.909524
0.881358
0.913675
0.914635
0.913636
0.914919
0.913605
0.902521
0.805678
0.584914
0.492366
0.499494
0.499356
0.499501
0.499354
0.49943
0.479566
0.463992
0.454344
0.450208
0.449817
0.450382
0.45137
0.451298
0.933206
0.914993
0.914957
0.914837
0.914869
0.914722
0.91358
0.881354
0.913072
0.913689
0.914734
0.913605
0.913988
0.906396
0.83491
0.657491
0.520647
0.498323
0.487963
0.485044
0.477828
0.469422
0.459492
0.453704
0.451291
0.451315
0.45331
0.454619
0.453587
0.451127
0.921821
0.910946
0.914837
0.91547
0.914723
0.914866
0.914232
0.881851
0.911549
0.914484
0.913689
0.914246
0.913565
0.893779
0.823148
0.671455
0.527385
0.48035
0.472765
0.467101
0.461856
0.457049
0.453479
0.453061
0.453096
0.457693
0.459212
0.457112
0.45294
0.448864
0.905252
0.903134
0.915042
0.914723
0.915003
0.91458
0.914417
0.891547
0.91104
0.913751
0.914555
0.913689
0.907424
0.852848
0.747866
0.620278
0.501717
0.475955
0.467597
0.461802
0.45818
0.456213
0.456034
0.457335
0.463763
0.465075
0.461436
0.455069
0.449833
0.445627
0.883766
0.891667
0.914723
0.915467
0.91458
0.914792
0.914432
0.905973
0.912628
0.914339
0.913751
0.913937
0.885244
0.78716
0.653858
0.5406
0.483767
0.471952
0.467436
0.465611
0.465394
0.466232
0.467987
0.471249
0.471124
0.465173
0.456326
0.450192
0.446069
0.442699
0.857968
0.878131
0.915283
0.91458
0.91496
0.914432
0.914421
0.913373
0.913694
0.913807
0.914343
0.910084
0.844305
0.708645
0.577442
0.493247
0.476075
0.473191
0.473059
0.473005
0.472951
0.472893
0.472835
0.472762
0.464183
0.455333
0.449364
0.445796
0.443129
0.440552
0.828442
0.864199
0.91458
0.915303
0.914432
0.914637
0.914277
0.913959
0.913827
0.914388
0.913807
0.890209
0.774385
0.617707
0.508654
0.477614
0.471907
0.470701
0.47053
0.470259
0.469151
0.466668
0.462649
0.457084
0.451327
0.447285
0.44478
0.443057
0.441235
0.4391
0.795778
0.851832
0.915497
0.914432
0.914771
0.914277
0.914296
0.913971
0.913819
0.913814
0.913726
0.845494
0.660787
0.524895
0.482611
0.471579
0.465478
0.461222
0.457917
0.455293
0.452974
0.450678
0.448328
0.446077
0.444387
0.443334
0.442593
0.441664
0.440086
0.438062
0.758361
0.845371
0.914432
0.914966
0.914277
0.914384
0.914115
0.914061
0.913896
0.914307
0.9087
0.764168
0.547226
0.488334
0.474829
0.465946
0.459078
0.45374
0.449576
0.446682
0.44472
0.443436
0.442623
0.442244
0.442208
0.442269
0.442029
0.441085
0.439272
0.437087
0.713798
0.84801
0.91541
0.914277
0.914405
0.914115
0.914142
0.913945
0.913937
0.913766
0.894772
0.644032
0.499713
0.473264
0.464243
0.458055
0.452735
0.448394
0.445431
0.443674
0.442948
0.442905
0.442953
0.443314
0.443494
0.443287
0.442468
0.440768
0.438337
0.435799
0.666076
0.85982
0.914277
0.914576
0.914115
0.914235
0.913945
0.913923
0.913589
0.908688
0.846708
0.542665
0.4692
0.456103
0.452175
0.45088
0.44847
0.4459
0.445927
0.447652
0.449898
0.451485
0.451639
0.450586
0.448506
0.446012
0.443228
0.440099
0.436837
0.433985
0.630396
0.870535
0.914943
0.914115
0.914209
0.913945
0.913929
0.90902
0.885244
0.85096
0.735157
0.471186
0.45286
0.452709
0.44843
0.448361
0.448329
0.448828
0.458141
0.466085
0.471919
0.471848
0.467742
0.459783
0.452896
0.447553
0.442818
0.438368
0.43449
0.431684
0.61456
0.872423
0.914115
0.914292
0.913945
0.914002
0.913766
0.884112
0.803698
0.752421
0.661995
0.570498
0.522418
0.52994
0.480179
0.458171
0.449596
0.462727
0.478334
0.478571
0.478325
0.468678
0.456283
0.449285
0.445799
0.443361
0.439849
0.435333
0.431441
0.428813
0.604924
0.870969
0.914362
0.913945
0.913919
0.91253
0.900597
0.828587
0.735725
0.727151
0.727186
0.788222
0.827884
0.84597
0.814392
0.556644
0.459128
0.476782
0.478607
0.466813
0.453776
0.445367
0.440468
0.439465
0.439432
0.439115
0.436118
0.431691
0.427569
0.424509
0.596271
0.86572
0.913945
0.90974
0.898561
0.88397
0.842831
0.773851
0.742987
0.773178
0.848727
0.89928
0.910507
0.910209
0.90168
0.839535
0.599616
0.472892
0.472716
0.452537
0.442162
0.439559
0.439525
0.439516
0.441429
0.438713
0.433037
0.42713
0.421884
0.418078
0.571751
0.846831
0.909528
0.876927
0.836044
0.809157
0.765514
0.765271
0.8065
0.873662
0.908782
0.912697
0.912092
0.905599
0.893538
0.883471
0.800287
0.50043
0.459315
0.443444
0.440693
0.440881
0.454155
0.459195
0.451242
0.438347
0.427992
0.419949
0.413785
0.409943
0.529322
0.797108
0.881116
0.815603
0.763414
0.760612
0.760659
0.807653
0.884932
0.91371
0.913761
0.912718
0.90661
0.895778
0.883413
0.874053
0.833564
0.562452
0.455074
0.44343
0.446295
0.477203
0.477553
0.465144
0.444187
0.428702
0.417898
0.409895
0.404954
0.402457
0.492044
0.712645
0.816136
0.791325
0.786565
0.793584
0.835343
0.890988
0.915414
0.915458
0.91216
0.906445
0.897641
0.887285
0.875911
0.864439
0.834838
0.626006
0.453621
0.447165
0.477414
0.477712
0.459635
0.440019
0.425706
0.414873
0.406417
0.401207
0.400322
0.400282
0.499662
0.639374
0.756439
0.832611
0.870723
0.888037
0.910916
0.918875
0.917653
0.911593
0.903674
0.896495
0.888577
0.879724
0.869702
0.856671
0.835841
0.746274
0.545757
0.455256
0.47828
0.463267
0.437779
0.422794
0.412729
0.404817
0.401162
0.401282
0.404535
0.406174
0.689551
0.70186
0.79263
0.897775
0.924472
0.927744
0.926918
0.920109
0.911926
0.901905
0.892782
0.885841
0.879574
0.871852
0.863409
0.849503
0.825617
0.792303
0.725306
0.617962
0.515133
0.447456
0.424366
0.413325
0.406435
0.402517
0.40249
0.418005
0.445469
0.426973
0.904973
0.876395
0.896083
0.931229
0.934513
0.931412
0.923723
0.913774
0.901465
0.890548
0.881716
0.874343
0.869051
0.862479
0.854552
0.840506
0.816298
0.782911
0.746558
0.692091
0.575723
0.453398
0.416255
0.40876
0.406417
0.408752
0.431871
0.492953
0.491904
0.445641
0.958537
0.948381
0.941998
0.939871
0.934549
0.926778
0.915198
0.902885
0.890003
0.879002
0.86918
0.860599
0.855176
0.84842
0.840469
0.827728
0.805278
0.769314
0.729806
0.680474
0.53245
0.436434
0.410231
0.409962
0.414259
0.434232
0.514425
0.57058
0.526859
0.44594
0.961057
0.953904
0.94566
0.938227
0.929897
0.918287
0.905011
0.891798
0.878485
0.865711
0.853596
0.843349
0.835401
0.826507
0.816564
0.804698
0.781814
0.745337
0.701949
0.613261
0.462015
0.412766
0.410244
0.415654
0.431203
0.476792
0.546632
0.570542
0.605258
0.533125
0.957355
0.949516
0.94121
0.932152
0.921722
0.909149
0.89523
0.880662
0.865473
0.850054
0.834881
0.820139
0.806766
0.793731
0.778868
0.763041
0.737328
0.701708
0.641753
0.499215
0.425247
0.412569
0.41424
0.425251
0.449776
0.500968
0.533388
0.555569
0.663142
0.739821
0.949201
0.94122
0.933249
0.924106
0.913123
0.90012
0.885134
0.868669
0.850466
0.831281
0.811862
0.790784
0.768791
0.745271
0.721754
0.700062
0.674662
0.640101
0.538885
0.442578
0.415955
0.415632
0.421626
0.434762
0.460692
0.499338
0.515516
0.564842
0.739839
0.890264
0.939082
0.932409
0.924887
0.915915
0.90436
0.890376
0.874046
0.855137
0.833592
0.809434
0.78302
0.754032
0.720141
0.682943
0.650074
0.626226
0.610524
0.556259
0.459221
0.422643
0.417532
0.420861
0.428284
0.441617
0.465934
0.489505
0.514709
0.633474
0.848447
0.959787
0.92876
0.923746
0.916559
0.907063
0.894515
0.879231
0.861274
0.83975
0.8144
0.784122
0.748825
0.70921
0.663533
0.617725
0.581771
0.566538
0.548913
0.475884
0.43273
0.421976
0.421814
0.425545
0.43303
0.446527
0.468955
0.48733
0.557017
0.760082
0.93957
0.981564
0.918106
0.914311
0.907082
0.896597
0.8828
0.866118
0.846244
0.821891
0.791923
0.754467
0.709484
0.658918
0.6074
0.563669
0.538142
0.531241
0.489888
0.442636
0.426105
0.423422
0.425267
0.429365
0.437039
0.451217
0.470695
0.504258
0.661064
0.891538
0.97773
0.985345
0.906297
0.903107
0.895426
0.883842
0.868639
0.850032
0.827821
0.799808
0.763644
0.718216
0.664436
0.608548
0.559637
0.525846
0.511946
0.496221
0.455361
0.432981
0.426077
0.426099
0.428013
0.43239
0.44121
0.456752
0.474989
0.567042
0.810895
0.964897
0.984215
0.984695
0.892624
0.889483
0.881022
0.86785
0.850788
0.829598
0.802834
0.768781
0.72547
0.672875
0.615087
0.561165
0.523312
0.501551
0.490265
0.466982
0.442417
0.430831
0.427181
0.427958
0.430329
0.435717
0.446446
0.462862
0.503055
0.70175
0.935048
0.980994
0.98209
0.979512
0.876491
0.872856
0.862908
0.847506
0.827209
0.800985
0.766808
0.723329
0.671823
0.615768
0.561662
0.519658
0.49681
0.484835
0.473147
0.453095
0.43807
0.430728
0.428582
0.429568
0.43277
0.439961
0.453374
0.472865
0.595887
0.869516
0.97356
0.978273
0.972327
0.966357
0.856971
0.852196
0.839615
0.820511
0.794244
0.758889
0.712854
0.658071
0.60033
0.549155
0.512785
0.492157
0.480926
0.472553
0.461708
0.447507
0.436982
0.431261
0.429869
0.431351
0.43596
0.44577
0.4619
0.522229
0.76742
0.955898
0.973941
0.965459
0.952225
0.9519
0.832314
0.825499
0.808362
0.782653
0.746587
0.697726
0.636621
0.571825
0.5223
0.497738
0.48824
0.483835
0.478146
0.468632
0.456884
0.445666
0.437172
0.432105
0.431347
0.433625
0.440344
0.454231
0.482883
0.659764
0.918079
0.969824
0.96576
0.944971
0.931557
0.945648
0.79947
0.788994
0.764504
0.728459
0.679358
0.617043
0.550009
0.499769
0.478621
0.476526
0.479298
0.483132
0.481924
0.472948
0.457401
0.44601
0.437903
0.433079
0.433259
0.436834
0.446541
0.464066
0.56411
0.849328
0.969548
0.96956
0.951687
0.929056
0.922872
0.944641
0.753448
0.737392
0.702903
0.655143
0.596255
0.53719
0.495869
0.477148
0.469444
0.467349
0.469341
0.477199
0.481896
0.480428
0.463343
0.448569
0.439201
0.434295
0.435488
0.441621
0.457039
0.507277
0.755688
0.957386
0.978461
0.966817
0.941175
0.923381
0.922291
0.94362
0.689427
0.666729
0.623905
0.57141
0.521584
0.491888
0.481636
0.474953
0.467777
0.464587
0.464612
0.466835
0.477911
0.480521
0.472367
0.453874
0.441258
0.435846
0.43847
0.44868
0.472913
0.650659
0.929377
0.982589
0.979207
0.962713
0.937475
0.92248
0.922358
0.941287
0.611245
0.584533
0.544318
0.507626
0.486414
0.479806
0.478628
0.476052
0.468867
0.46461
0.464396
0.464608
0.466459
0.479295
0.486067
0.462314
0.44395
0.438019
0.443286
0.463052
0.579218
0.879481
0.981794
0.986181
0.978981
0.960448
0.936814
0.923149
0.923858
0.938437
0.5408
0.523176
0.50019
0.487612
0.481597
0.477742
0.477005
0.477017
0.472574
0.464527
0.464604
0.46415
0.464609
0.470715
0.486332
0.472725
0.447833
0.442264
0.456256
0.534212
0.82632
0.978574
0.987719
0.986619
0.978191
0.959978
0.937419
0.924245
0.924068
0.935232
0.508353
0.509655
0.497395
0.489252
0.483492
0.478924
0.476795
0.476766
0.476545
0.468729
0.464268
0.464602
0.464024
0.464617
0.482131
0.482534
0.458985
0.453174
0.502728
0.785025
0.97143
0.987719
0.987866
0.986456
0.977345
0.960401
0.939427
0.924616
0.921702
0.929833
0.508046
0.521107
0.502715
0.493336
0.486598
0.481237
0.477018
0.47577
0.476558
0.474226
0.464683
0.464165
0.464602
0.464048
0.465367
0.478665
0.479843
0.507578
0.744018
0.958941
0.987719
0.987854
0.987719
0.98595
0.97688
0.961709
0.942851
0.924274
0.915548
0.920838
0.518059
0.521811
0.507719
0.495788
0.487591
0.481957
0.477609
0.474451
0.473955
0.474231
0.47071
0.464608
0.46413
0.464601
0.464102
0.464621
0.482601
0.66017
0.923556
0.986795
0.987812
0.987719
0.987812
0.985316
0.976871
0.964069
0.947479
0.924209
0.907187
0.907203
0.521856
0.521918
0.51159
0.496695
0.486243
0.480099
0.476085
0.472858
0.470687
0.470418
0.469904
0.46578
0.464603
0.464033
0.4646
0.463863
0.528486
0.801735
0.966808
0.987742
0.987719
0.987793
0.987719
0.985037
0.977383
0.9673
0.953558
0.928003
0.898212
0.888457
0.521856
0.521807
0.514249
0.495547
0.48284
0.476505
0.472984
0.47046
0.468521
0.467414
0.466972
0.465378
0.464401
0.464601
0.46376
0.464675
0.614429
0.878849
0.972385
0.98674
0.987741
0.987719
0.987768
0.985114
0.978692
0.971175
0.960759
0.935378
0.889458
0.867252
0.509427
0.521845
0.508965
0.490366
0.478795
0.473155
0.470297
0.468614
0.46744
0.466696
0.466103
0.464974
0.464607
0.46403
0.464603
0.467025
0.672295
0.890548
0.964749
0.984103
0.987593
0.987758
0.987719
0.985409
0.980576
0.975549
0.968224
0.944317
0.882498
0.84808
0.490283
0.499952
0.491642
0.482784
0.475376
0.47127
0.469436
0.468787
0.468571
0.468879
0.46955
0.470494
0.470202
0.465085
0.464191
0.494941
0.639653
0.841634
0.954693
0.981036
0.986784
0.987719
0.98773
0.985868
0.982651
0.979939
0.975012
0.953505
0.87997
0.833574
0.483164
0.480364
0.475997
0.47533
0.473156
0.471587
0.472955
0.475111
0.47584
0.476615
0.479186
0.487665
0.502293
0.501426
0.495028
0.508951
0.56222
0.799129
0.952103
0.978416
0.984981
0.987341
0.987518
0.986173
0.984502
0.98356
0.980514
0.961759
0.886258
0.822109
0.478961
0.486983
0.472967
0.47293
0.472967
0.481445
0.499459
0.504831
0.501643
0.49779
0.500781
0.512987
0.527701
0.527624
0.513441
0.491659
0.530617
0.785112
0.949592
0.97571
0.982146
0.986154
0.986947
0.986216
0.985704
0.985691
0.984322
0.968084
0.894314
0.808903
0.478766
0.525321
0.478272
0.475279
0.490389
0.518596
0.52047
0.520592
0.52047
0.51856
0.5201
0.520115
0.518054
0.502665
0.488524
0.484106
0.525122
0.786469
0.943503
0.971936
0.978705
0.984177
0.986241
0.986169
0.986141
0.986132
0.98605
0.972386
0.892085
0.791313
0.502809
0.525642
0.505073
0.508176
0.520193
0.52047
0.520592
0.52047
0.51081
0.500223
0.494796
0.496477
0.497472
0.491802
0.484449
0.484095
0.55026
0.81388
0.938704
0.966426
0.975634
0.981739
0.985434
0.986117
0.986132
0.986113
0.986136
0.97493
0.881829
0.771188
0.525477
0.525508
0.525092
0.525056
0.521383
0.514831
0.512533
0.508235
0.49867
0.488572
0.479386
0.477549
0.480814
0.485629
0.485945
0.490919
0.637714
0.859182
0.937643
0.961456
0.973447
0.97957
0.984439
0.986081
0.986113
0.986132
0.986086
0.977069
0.880305
0.751325
0.521031
0.525468
0.525392
0.512498
0.503751
0.500718
0.501657
0.503976
0.502877
0.498099
0.48544
0.474654
0.474661
0.47956
0.485932
0.547465
0.754401
0.893038
0.939655
0.959719
0.972164
0.978442
0.983406
0.985937
0.986114
0.986086
0.986086
0.979372
0.884955
0.73273
0.483844
0.525389
0.511907
0.494313
0.486967
0.484584
0.485188
0.489509
0.497979
0.497971
0.497849
0.481341
0.474724
0.480331
0.521859
0.681883
0.83663
0.909525
0.943992
0.961022
0.971732
0.978196
0.982631
0.985598
0.986086
0.986086
0.986057
0.981885
0.890179
0.710312
0.458865
0.477326
0.4827
0.476576
0.470916
0.466874
0.464878
0.464662
0.466832
0.474104
0.492879
0.493886
0.496077
0.563501
0.685057
0.808363
0.877477
0.920358
0.948338
0.963825
0.972201
0.978347
0.98235
0.985193
0.986078
0.986057
0.986089
0.984389
0.893245
0.68226
0.454073
0.456345
0.461536
0.461323
0.458622
0.456082
0.454556
0.454576
0.454608
0.454667
0.456408
0.493684
0.620991
0.728627
0.796009
0.848685
0.89037
0.924282
0.951026
0.96689
0.97384
0.979032
0.982485
0.984997
0.985984
0.986076
0.98603
0.986031
0.894394
0.656529
0.453937
0.454058
0.454232
0.454424
0.454236
0.454314
0.454389
0.454505
0.454558
0.454605
0.457584
0.541272
0.69987
0.76824
0.80907
0.842741
0.875328
0.916691
0.951321
0.96904
0.976212
0.980454
0.983131
0.98509
0.985684
0.98603
0.986046
0.986001
0.895157
0.634547
0.453859
0.453963
0.45406
0.454157
0.454196
0.45423
0.454316
0.454407
0.454558
0.460812
0.499007
0.629231
0.714346
0.734817
0.728891
0.708999
0.706863
0.799933
0.926076
0.969836
0.978746
0.981959
0.984208
0.98533
0.985347
0.986023
0.986001
0.986015
0.89341
0.617007
0.453816
0.453872
0.453958
0.454068
0.454195
0.455774
0.45691
0.465094
0.500601
0.545652
0.598213
0.634907
0.654872
0.648628
0.603193
0.542151
0.521064
0.59293
0.814222
0.96418
0.981188
0.983012
0.985008
0.98531
0.985205
0.98599
0.985998
0.985974
0.884966
0.60393
0.4587
0.454298
0.455066
0.459968
0.475615
0.518191
0.54513
0.556493
0.557484
0.559937
0.565217
0.569995
0.548646
0.518396
0.496556
0.49425
0.503166
0.533004
0.721845
0.948148
0.982242
0.983966
0.985206
0.985303
0.985189
0.985522
0.985568
0.984797
0.866865
0.59357
0.464101
0.461118
0.470686
0.514013
0.55239
0.554863
0.554999
0.555134
0.545216
0.530364
0.509383
0.494
0.481643
0.473951
0.471643
0.475745
0.484965
0.523252
0.717815
0.932631
0.981905
0.9846
0.984992
0.985283
0.985075
0.984063
0.983455
0.980004
0.839441
0.585273
0.470227
0.486905
0.534598
0.55237
0.552392
0.551178
0.538793
0.523279
0.503925
0.485986
0.473728
0.4686
0.468527
0.469044
0.469018
0.469017
0.475871
0.541541
0.746118
0.922034
0.978981
0.984574
0.984385
0.985036
0.984234
0.980729
0.977979
0.96953
0.80614
0.577753
0.502446
0.545872
0.548142
0.548309
0.533718
0.516835
0.500337
0.48592
0.474865
0.468635
0.46855
0.469182
0.473406
0.480906
0.484868
0.480895
0.493028
0.597408
0.759976
0.897771
0.968582
0.984036
0.983555
0.98343
0.981194
0.974057
0.968027
0.952764
0.773505
0.569099
0.527632
0.545813
0.535222
0.515895
0.498893
0.486607
0.477614
0.471072
0.468176
0.468245
0.470243
0.477338
0.488889
0.506333
0.519568
0.521567
0.523268
0.56324
0.685605
0.830162
0.940839
0.980598
0.982357
0.979761
0.974017
0.962324
0.953904
0.930863
0.745316
0.558274
0.50465
0.532794
0.503741
0.48931
0.480207
0.47416
0.470131
0.468349
0.468921
0.472097
0.478741
0.491164
0.507004
0.51921
0.519511
0.516744
0.501863
0.498508
0.555794
0.696392
0.87674
0.968106
0.979239
0.974385
0.961711
0.944893
0.936761
0.906494
0.718939
0.543958
0.477118
0.496341
0.482417
0.476283
0.471698
0.468824
0.46756
0.468143
0.470525
0.475281
0.481786
0.489504
0.49633
0.4992
0.493638
0.480263
0.470655
0.470244
0.49055
0.579372
0.77498
0.934282
0.970547
0.967601
0.945571
0.923087
0.917116
0.880532
0.690073
0.526659
0.460935
0.471914
0.470433
0.467842
0.46562
0.464364
0.46422
0.465149
0.467067
0.469547
0.471776
0.472596
0.471423
0.468447
0.463289
0.458996
0.459971
0.467637
0.481351
0.524677
0.675986
0.868144
0.950821
0.957518
0.928096
0.898183
0.89308
0.848832
0.656487
0.507908
0.452403
0.45904
0.461029
0.460172
0.459042
0.458238
0.457836
0.45772
0.457676
0.457271
0.456306
0.454825
0.453223
0.451967
0.451677
0.454184
0.460466
0.469203
0.478274
0.496654
0.594008
0.778266
0.911967
0.939642
0.908629
0.868213
0.859078
0.804129
0.617811
0.490192
0.44653
0.450774
0.45276
0.452517
0.451695
0.450773
0.449825
0.448803
0.447607
0.44622
0.444876