/*--------------------------------*- C++ -*----------------------------------*\
| =========                 |                                                 |
| \\      /  F ield         | OpenFOAM: The Open Source CFD Toolbox           |
|  \\    /   O peration     | Version:  2.3.0                                 |
|   \\  /    A nd           | Web:      www.OpenFOAM.org                      |
|    \\/     M anipulation  |                                                 |
\*---------------------------------------------------------------------------*/
FoamFile
{
    version     2.0;
    format      ascii;
    class       volScalarField;
    location    "0.224";
    object      alpha.water;
}
// * * * * * * * * * * * * * * * * * * * * * * * * * * * * * * * * * * * * * //

dimensions      [0 0 0 0 0 0 0];

internalField   nonuniform List<scalar> 
545
(
1
1
1
1
1
1
1
1
1
1
1
1
1
1
1
1
1
1
1
1
1
1
1
1
1
1
1
1
1
1
1
1
1
1
1
1
1
1
1
1
1
1
1
1
1
1
1
1
1
1
1
1
1
1
1
1
1
1
1
1
1
1
1
1
1
1
1
1
1
1
1
1
1
1
1
1
1
1
1
1
1
1
1
1
1
1
1
1
1
1
1
1
1
1
1
1
1
1
1
1
1
1
1
1
1
1
1
1
1
1
1
1
1
1
1
1
1
1
1
1
0.999999
0.999999
0.999999
0.999999
0.999999
0.999999
0.999999
0.999999
0.999999
0.999999
0.999999
0.999999
0.999999
0.999999
0.999999
0.999999
0.999999
0.999999
0.999999
0.999999
0.999999
0.999999
0.999999
0.999999
0.999999
0.999999
0.999999
0.999999
0.999999
0.999999
0.999999
0.999999
0.999999
0.999999
0.999999
0.999999
0.999999
0.999999
0.999999
0.999999
1
1
0.999986
0.999965
0.999958
0.999951
0.999945
0.999939
0.999937
0.999936
0.999936
0.999937
0.999938
0.999938
0.999939
0.999939
0.999939
0.999939
0.999938
0.999938
0.999938
0.999938
0.999938
0.999938
0.999938
0.999938
0.999938
0.999938
0.999938
0.999938
0.999938
0.999938
0.999938
0.999938
0.999938
0.999938
0.999938
0.999938
0.999938
0.999938
0.999938
0.999938
0.999938
0.999938
0.999938
1
1
0.998346
0.996676
0.996796
0.99693
0.996511
0.995587
0.995156
0.995038
0.995061
0.995166
0.995289
0.995391
0.995451
0.995472
0.995463
0.995441
0.995416
0.995397
0.995385
0.995382
0.995383
0.995388
0.995391
0.995395
0.995396
0.995395
0.995393
0.995391
0.995388
0.995385
0.995384
0.995384
0.995385
0.995386
0.995386
0.995386
0.995384
0.995381
0.995378
0.995376
0.995375
0.995375
0.995375
0.277921
0.376471
0.391283
0.425326
0.730494
0.997071
0.708553
0.496601
0.488391
0.487535
0.487947
0.614929
0.947799
0.709566
0.574415
0.569545
0.569538
0.56955
0.755026
0.973027
0.553731
0.525175
0.521938
0.553979
0.497265
0.516652
0.855007
0.995502
0.87761
0.442217
0.429474
0.503361
0.478224
0.482779
0.48282
0.739523
0.994605
0.995582
0.983607
0.516873
0.297453
0.281122
0.277127
0.278979
0.364984
1
1
1
1
1
1
1
1
1
1
1
1
1
1
1
1
1
1
1
1
1
1
1
1
1
1
1
0.998347
0.996676
0.996797
0.996929
0.996512
0.995585
0.995157
0.995036
0.99506
0.995164
0.995287
0.995387
0.995446
0.995465
0.995456
0.995431
0.995406
0.995385
0.995372
0.995366
0.995366
0.995368
0.995373
0.995376
0.995379
0.995379
0.995377
0.995372
0.995369
0.995366
0.995365
0.995363
0.995364
0.995364
0.995364
0.995362
0.995357
0.995349
0.995344
0.995336
0.995334
0.995332
0.99533
1
1
0.999986
0.999965
0.999958
0.999951
0.999944
0.999939
0.999936
0.999935
0.999936
0.999937
0.999937
0.999938
0.999939
0.999939
0.999939
0.999938
0.999938
0.999938
0.999938
0.999938
0.999938
0.999938
0.999938
0.999938
0.999938
0.999938
0.999938
0.999938
0.999938
0.999938
0.999938
0.999938
0.999938
0.999938
0.999938
0.999938
0.999938
0.999938
0.999938
0.999938
0.999938
0.999938
0.999938
1
1
1
1
1
0.999999
0.999999
0.999999
0.999999
0.999999
0.999999
0.999999
0.999999
0.999999
0.999999
0.999999
0.999999
0.999999
0.999999
0.999999
0.999999
0.999999
0.999999
0.999999
0.999999
0.999999
0.999999
0.999999
0.999999
0.999999
0.999999
0.999999
0.999999
0.999999
0.999999
0.999999
0.999999
0.999999
0.999999
0.999999
0.999999
0.999999
0.999999
0.999999
0.999999
1
1
1
1
1
1
1
1
1
1
1
1
1
1
1
1
1
1
1
1
1
1
1
1
1
1
1
1
1
1
1
1
1
1
1
1
1
1
1
1
1
1
1
1
1
1
1
1
1
1
1
1
1
1
1
1
1
1
1
1
1
1
1
1
1
1
1
1
1
1
1
1
1
1
1
1
1
1
1
1
1
1
1
1
1
1
1
1
1
1
)
;

boundaryField
{
    AirInlet
    {
        type            fixedValue;
        value           uniform 0;
    }
    WaterInlet
    {
        type            fixedValue;
        value           uniform 1;
    }
    ChannelWall
    {
        type            zeroGradient;
    }
    Outlet
    {
        type            inletOutlet;
        inletValue      uniform 0;
        value           nonuniform List<scalar> 
11
(
1
1
0.999999
0.999938
0.995375
0.364984
0.99533
0.999938
0.999999
1
1
)
;
    }
    FrontAndBack
    {
        type            empty;
    }
}


// ************************************************************************* //
