/*--------------------------------*- C++ -*----------------------------------*\
| =========                 |                                                 |
| \\      /  F ield         | OpenFOAM: The Open Source CFD Toolbox           |
|  \\    /   O peration     | Version:  2.3.0                                 |
|   \\  /    A nd           | Web:      www.OpenFOAM.org                      |
|    \\/     M anipulation  |                                                 |
\*---------------------------------------------------------------------------*/
FoamFile
{
    version     2.0;
    format      ascii;
    class       volScalarField;
    location    "0.224";
    object      p;
}
// * * * * * * * * * * * * * * * * * * * * * * * * * * * * * * * * * * * * * //

dimensions      [1 -1 -2 0 0 0 0];

internalField   nonuniform List<scalar> 
545
(
-8.36845e+07
-1.54603e+07
-2.11158e+06
-2.7509e+06
-8.99966e+06
6.01407e+07
-3.17846e+06
-2.48686e+06
-2.64463e+06
-7.327e+06
1.04606e+08
3.71759e+06
-422894
-478452
-7.6875e+06
6.06676e+07
-3.36813e+06
-1.9975e+06
-193540
-6.87718e+06
-9.62867e+07
-2.49466e+06
-518991
4.3614e+06
1.21598e+07
-7.41095e+06
-1.97119e+06
-855640
-147385
-39140
-20530.5
-30744.8
-36913.1
-40594.5
-40151.4
-38914.1
-36439.1
-34637.1
-31987.1
-30278.1
-27755.8
-26260.9
-23719
-22284.9
-19800.8
-18468.9
-16097
-14966.9
-12623.4
-11728.1
-9590.93
-8837.56
-6850.89
-6244.5
-4376.02
-4079.77
-2461.37
-2390.54
-1320.12
-1718.08
-1006.1
-1859.4
-1399.73
-2443.82
-1944.78
-2836.4
-2148.11
-3090.82
-2319.83
-3122.49
-6.53699e+06
-1.25294e+06
-812119
-269978
-145721
-77815.9
-55726.8
-46772.6
-43469.7
-41111.5
-38770.1
-36558.8
-34325.2
-32145.9
-29965.2
-27933.6
-25953.3
-23937.3
-21962.3
-20027.8
-18126.1
-16339.1
-14618.3
-12886.3
-11375.2
-9876.17
-8466.31
-7156.42
-5848.93
-4696.46
-3676.21
-2792.92
-1969.56
-1671.83
-1289.83
-1349.58
-1445.6
-1782.38
-2050.4
-2378.01
-2430.26
-2518.31
-2521.06
-2181.77
-741.913
-7.65836e+06
-644491
-517624
-133375
-111788
-73044.4
-56932.3
-47577.6
-44402.3
-41282.1
-39100.6
-36396
-34562.6
-31911.9
-30173
-27671.8
-26204.8
-23674.7
-22213.5
-19738.2
-18373.4
-16046.6
-14903.3
-12569.6
-11663.6
-9583.38
-8764.24
-6857.06
-6139.16
-4365.93
-3979.76
-2476.11
-2229.04
-1370.08
-1584.6
-1034.28
-1777.94
-1473.92
-2406.47
-2081.29
-2735.69
-2159.19
-2746.57
-1796.13
-2078.18
-8.10091e+06
567224
79646.3
108898
-34517.7
-50169.9
-50011.9
-45750.1
-44341.8
-41478.1
-39282.7
-36425.2
-34681.9
-31885
-30183.2
-27631.6
-26263
-23650.7
-22253.4
-19699.4
-18358.2
-16052.8
-14934.5
-12531.5
-11684.1
-9602.1
-8786.71
-6884.15
-6116.92
-4374.29
-3970.21
-2521.57
-2112.3
-1478.97
-1521.16
-1105.76
-1768.45
-1541.79
-2397.06
-2182.7
-2629.6
-2165.3
-2656.66
-1277.32
-169.891
-1.95383e+06
3.34209e+06
1.102e+06
319500
8143.67
-35973.1
-47992.3
-45796.3
-45428
-41562.1
-39776.1
-36088.9
-35212.9
-31441.3
-30591
-27130.2
-26827
-23126.1
-22806.1
-19129.5
-18847.7
-15522.3
-15585.9
-11850
-12331.5
-9032.93
-9416.22
-6300.48
-6728.65
-3706.16
-4632.36
-1995.29
-2490.84
-1098.58
-2027.77
-575.519
-2399.19
-938.08
-3057.05
-1660.45
-3126.74
-1524.87
-3273.82
-771.999
-2110.78
-1.43851e+07
4.81535e+06
1.87926e+06
454140
24045.1
-35982.8
-46531.3
-44138.1
-41797.1
-37803.3
-35634.1
-34511.7
-34326.4
-30485.4
-26941.4
-25013.1
-21974.7
-21002.2
-20582.2
-19931.7
-15185.4
-13165.5
-10319.6
-10884
-6808.07
-6634.63
-7823.51
-7266.46
-5233.51
-793.944
1678.94
295.338
502.607
2675.91
2453.8
-142.259
-1370.91
-2004.56
-1990.14
275.094
2444.12
2524.91
4383.2
3315.45
2692.39
-9.62824e+07
-2.49081e+06
-515825
4.36405e+06
1.21618e+07
6.06719e+07
-3.36428e+06
-1.99429e+06
-190846
-6.87504e+06
1.04611e+08
3.72145e+06
-419605
-475701
-7.68534e+06
6.0145e+07
-3.17461e+06
-2.48349e+06
-2.64184e+06
-7.32484e+06
-8.36802e+07
-1.54564e+07
-2.10816e+06
-2.74808e+06
-8.99749e+06
-1.95227e+06
3.34128e+06
1.10326e+06
318539
9416.6
-37164.5
-46731.1
-46917.5
-44233.9
-42751.2
-38590.7
-37336.6
-33894
-32742.3
-29348.9
-28412.8
-25556.7
-24418.2
-21478.9
-20559.2
-17559.9
-16845.9
-14281.5
-13195.5
-11023.5
-10375
-8001.12
-7787.45
-5288.81
-5048.65
-3309.58
-3381.59
-1158.76
-2499.74
-703.292
-2060.77
-926.486
-2484.24
-1556.9
-3068.71
-1825.84
-2899.5
-2024.14
-2647.2
-1254.12
-8.09932e+06
567140
80652.3
108577
-33671
-50721.5
-49241.1
-46302.8
-43656.4
-42139
-38648.5
-37134
-33982.1
-32624.6
-29532.3
-28358.9
-25578.7
-24371.7
-21545.1
-20510.2
-17682.7
-16802.9
-14235.1
-13296.8
-10988.6
-10360
-8035.35
-7719.1
-5350.7
-5127.46
-3268.9
-3327.79
-1425.19
-2311.61
-862.13
-1988.48
-1028.21
-2427.37
-1607.98
-2976.86
-1956.99
-2990.37
-2058.15
-2417.69
295.27
-7.65691e+06
-643872
-516863
-133135
-111312
-73047.3
-56584.5
-47650.5
-44159.1
-41481.8
-38947.7
-36643.5
-34396.2
-32181
-30029.1
-27921.6
-26028.4
-23906.3
-22033.8
-20020.1
-18214.7
-16303.6
-14730.6
-12833.5
-11502.2
-9843.01
-8582.89
-7147.5
-5946.77
-4622.74
-3824.2
-2780.72
-2109.49
-1713.91
-1506.58
-1407.25
-1659.93
-1816.58
-2218.42
-2352.99
-2591.51
-2487.37
-2656.76
-2334
-2130.24
-6.53547e+06
-1.25198e+06
-811355
-269522
-145327
-77602.2
-55515.4
-46681
-43369.9
-41154.7
-38783.3
-36662.9
-34356.1
-32266.6
-30002.4
-28030.1
-25954.7
-24011.2
-21964.3
-20128
-18144.5
-16434.4
-14631.8
-12989.3
-11402.3
-9982.05
-8489.18
-7270.78
-5864.64
-4798.49
-3716.33
-2942.59
-2059.54
-1872.03
-1429.14
-1576.47
-1565.36
-1961.55
-2088.03
-2477.95
-2462.59
-2660.76
-2623.83
-2426.2
-834.974
-7.40938e+06
-1.97003e+06
-854849
-146849
-38751.8
-20247.7
-30574.2
-36776.3
-40520.3
-40152.3
-38971.8
-36511.5
-34727.6
-32078.9
-30365.9
-27818.9
-26311.1
-23757.5
-22335.9
-19854.2
-18531.1
-16155.8
-15031.5
-12691.1
-11807.2
-9665.39
-8920.31
-6925.31
-6318.33
-4448.27
-4174.51
-2580.63
-2542.66
-1496.97
-1925.7
-1209.71
-2056.44
-1552.65
-2549.55
-2016.16
-2903.67
-2244.21
-3212.33
-2527.71
-3290.07
)
;

boundaryField
{
    AirInlet
    {
        type            calculated;
        value           uniform -1.43815e+07;
    }
    WaterInlet
    {
        type            calculated;
        value           nonuniform List<scalar> 10(-8.36845e+07 6.01407e+07 1.04606e+08 6.06676e+07 -9.62867e+07 -9.62824e+07 6.06719e+07 1.04611e+08 6.0145e+07 -8.36802e+07);
    }
    ChannelWall
    {
        type            calculated;
        value           nonuniform List<scalar> 
110
(
-9.62867e+07
-2.49466e+06
-518991
4.3614e+06
1.21598e+07
-9.62824e+07
-2.49081e+06
-515825
4.36405e+06
1.21618e+07
-8.36802e+07
-1.54564e+07
-2.10816e+06
-2.74808e+06
-8.99749e+06
-7.40938e+06
-1.97003e+06
-854849
-146849
-38751.9
-20247.7
-30574.2
-36776.3
-40520.3
-40152.3
-38971.8
-36511.6
-34727.6
-32079
-30366
-27818.9
-26311.1
-23757.6
-22336
-19854.3
-18531.2
-16155.8
-15031.6
-12691.1
-11807.2
-9665.44
-8920.35
-6925.35
-6318.38
-4448.32
-4174.55
-2580.67
-2542.7
-1497.01
-1925.74
-1209.76
-2056.49
-1552.69
-2549.6
-2016.21
-2903.72
-2244.26
-3212.38
-2527.75
-3290.11
-8.36845e+07
-1.54603e+07
-2.11158e+06
-2.7509e+06
-8.99966e+06
-7.41095e+06
-1.97119e+06
-855640
-147385
-39140
-20530.4
-30744.8
-36913
-40594.5
-40151.4
-38914.1
-36439
-34637.1
-31987.1
-30278
-27755.7
-26260.9
-23718.9
-22284.9
-19800.7
-18468.9
-16097
-14966.8
-12623.3
-11728.1
-9590.89
-8837.51
-6850.85
-6244.46
-4375.98
-4079.72
-2461.32
-2390.49
-1320.08
-1718.03
-1006.06
-1859.36
-1399.69
-2443.77
-1944.73
-2836.35
-2148.07
-3090.78
-2319.79
-3122.45
)
;
    }
    Outlet
    {
        type            calculated;
        value           nonuniform List<scalar> 
11
(
-0.044145
-0.132435
-0.220725
-0.308996
-0.395469
-0.179336
-0.580972
-0.671943
-0.760274
-0.848565
-0.936855
)
;
    }
    FrontAndBack
    {
        type            empty;
    }
}


// ************************************************************************* //
