/*--------------------------------*- C++ -*----------------------------------*\
| =========                 |                                                 |
| \\      /  F ield         | OpenFOAM: The Open Source CFD Toolbox           |
|  \\    /   O peration     | Version:  2.3.0                                 |
|   \\  /    A nd           | Web:      www.OpenFOAM.org                      |
|    \\/     M anipulation  |                                                 |
\*---------------------------------------------------------------------------*/
FoamFile
{
    version     2.0;
    format      ascii;
    class       volScalarField;
    location    "4.00055";
    object      alpha.airMean;
}
// * * * * * * * * * * * * * * * * * * * * * * * * * * * * * * * * * * * * * //

dimensions      [0 0 0 0 0 0 0];

internalField   nonuniform List<scalar> 
18816
(
0.421104
0.436875
0.419684
0.413086
0.409783
0.411369
0.414773
0.419923
0.422653
0.429025
0.430323
0.425176
0.418733
0.41099
0.400237
0.390379
0.381245
0.368045
0.354933
0.343744
0.339433
0.338514
0.346745
0.353682
0.368927
0.392436
0.424797
0.4182
0.370639
0.355136
0.323408
0.305722
0.302865
0.307337
0.316756
0.32511
0.329047
0.340661
0.355347
0.355471
0.337477
0.318838
0.295079
0.271913
0.250912
0.232205
0.218519
0.210253
0.208164
0.213202
0.227331
0.240543
0.268648
0.308911
0.356217
0.362111
0.361393
0.321805
0.289838
0.274617
0.270525
0.271381
0.273795
0.277432
0.279688
0.294741
0.309546
0.316279
0.31114
0.287345
0.250009
0.222224
0.205298
0.197168
0.190468
0.186475
0.184476
0.184151
0.187946
0.195233
0.221577
0.273207
0.3344
0.349411
0.356573
0.324145
0.27569
0.262468
0.262499
0.263135
0.264971
0.266223
0.267017
0.274621
0.278879
0.275552
0.275003
0.246873
0.209963
0.177862
0.15884
0.14846
0.141575
0.139251
0.140417
0.143545
0.151398
0.155582
0.182145
0.243165
0.319763
0.342154
0.351844
0.345457
0.274917
0.256311
0.25809
0.259989
0.263079
0.264088
0.263617
0.267401
0.263967
0.250286
0.239872
0.197409
0.153886
0.110058
0.0765476
0.0506956
0.0361737
0.0345172
0.0468668
0.0684231
0.0988986
0.124073
0.152388
0.220251
0.306618
0.336584
0.346402
0.349465
0.28614
0.260292
0.260038
0.263562
0.266189
0.262197
0.260027
0.258818
0.249786
0.22659
0.20189
0.14509
0.0929021
0.0505547
0.02725
0.0166727
0.0067253
0.00630431
0.0110233
0.0259285
0.058353
0.105696
0.143609
0.207272
0.296384
0.332029
0.34161
0.349914
0.291731
0.271893
0.267952
0.272951
0.274895
0.267236
0.26472
0.25811
0.237656
0.206181
0.168976
0.11119
0.0738208
0.0589523
0.04959
0.037608
0.0127931
0.00532074
0.00602802
0.0118402
0.0330145
0.083994
0.143788
0.20203
0.288936
0.328567
0.337656
0.337413
0.292724
0.278318
0.274256
0.279
0.279757
0.274569
0.271896
0.261231
0.229158
0.192078
0.148844
0.103081
0.0879216
0.0788189
0.0723436
0.0617084
0.0307859
0.00949936
0.00558231
0.00763355
0.0175617
0.0560556
0.132842
0.199058
0.283839
0.325586
0.334228
0.330693
0.294777
0.2799
0.276901
0.28065
0.28165
0.27994
0.275823
0.261096
0.226525
0.188488
0.147067
0.113766
0.104428
0.0917824
0.0839808
0.071654
0.048643
0.0171953
0.0057515
0.00655277
0.0109901
0.0339843
0.109972
0.198957
0.280215
0.322906
0.330412
0.329357
0.297584
0.280011
0.27891
0.282454
0.283403
0.280977
0.275372
0.256135
0.222355
0.188315
0.15913
0.133631
0.122095
0.104811
0.0897065
0.0798911
0.0609916
0.0275613
0.00608657
0.00591625
0.00859633
0.0205324
0.0807017
0.191849
0.277727
0.320119
0.325933
0.329005
0.298601
0.27875
0.278789
0.281772
0.282812
0.278748
0.271096
0.238912
0.219465
0.190138
0.1671
0.144559
0.130793
0.112466
0.0950943
0.0869665
0.0762905
0.0404578
0.00548671
0.0050549
0.00755497
0.0138229
0.0505285
0.156702
0.275137
0.317026
0.321314
0.32803
0.296726
0.277089
0.277552
0.280769
0.28161
0.277008
0.264577
0.22941
0.217125
0.190292
0.165995
0.144588
0.131374
0.11411
0.0982152
0.0903111
0.0814984
0.0483193
0.00464062
0.00386286
0.00649538
0.0112057
0.0310305
0.124697
0.271966
0.314058
0.316941
0.324022
0.293648
0.275502
0.274927
0.27918
0.279822
0.274617
0.256484
0.218382
0.206291
0.190712
0.15998
0.141604
0.129551
0.115613
0.102413
0.0922705
0.081309
0.0466114
0.00374184
0.00261573
0.0048306
0.0101916
0.0225758
0.086925
0.267854
0.312158
0.313548
0.317193
0.289376
0.273939
0.272956
0.2776
0.277548
0.270959
0.240583
0.187456
0.175139
0.186875
0.146665
0.134436
0.12422
0.113802
0.103931
0.084106
0.0664213
0.0284479
0.00237051
0.00154122
0.00316371
0.00858819
0.0228652
0.07125
0.26343
0.310418
0.311229
0.312694
0.284787
0.271409
0.272515
0.276016
0.275025
0.264126
0.209948
0.148425
0.147123
0.15695
0.125393
0.12582
0.114551
0.100977
0.0856512
0.0492988
0.0311513
0.00902233
0.000557516
0.000734344
0.00183026
0.00531303
0.0227584
0.06405
0.259447
0.308738
0.308998
0.309378
0.279673
0.266273
0.272186
0.274102
0.271819
0.252106
0.169144
0.119294
0.120246
0.124546
0.0995976
0.110797
0.0821168
0.0494911
0.0267715
0.00937297
0.00410826
0.000732231
6.59898e-05
0.00025688
0.00089839
0.00289817
0.0215801
0.0596102
0.256033
0.30743
0.305824
0.305752
0.273866
0.263565
0.270401
0.272096
0.267624
0.232393
0.132509
0.0949305
0.0943201
0.0908481
0.0626518
0.0775363
0.0355102
0.00887066
0.00191754
0.000367839
0.000109692
1.62759e-05
3.55026e-06
5.99214e-05
0.000383955
0.0015079
0.0179188
0.0547046
0.253295
0.306336
0.30261
0.301614
0.268639
0.264687
0.268501
0.269329
0.261292
0.207762
0.105457
0.0721053
0.0698624
0.0656378
0.0363712
0.0278649
0.005144
0.000498797
5.37186e-05
1.59142e-05
6.35916e-06
1.34549e-06
1.56911e-07
6.14767e-06
0.000223968
0.000752609
0.013213
0.0463221
0.250917
0.305392
0.299773
0.2967
0.265006
0.264965
0.266447
0.266121
0.253252
0.181462
0.0744175
0.0434299
0.0451171
0.0467907
0.0195891
0.00317337
0.000153632
4.38365e-05
2.53095e-05
8.33847e-06
2.49697e-06
5.137e-07
9.37793e-08
1.7457e-06
0.000177947
0.000545181
0.00936688
0.0354092
0.248478
0.304606
0.297344
0.290662
0.263031
0.264391
0.264142
0.262105
0.240994
0.14004
0.0411871
0.0264642
0.0312983
0.0337918
0.00940349
0.000293409
3.85488e-05
4.29589e-05
1.86468e-05
4.13762e-06
8.60227e-07
1.83224e-07
6.06434e-08
2.1954e-06
0.000181468
0.00053167
0.00637888
0.0301939
0.244777
0.303667
0.294891
0.285664
0.262294
0.263576
0.26177
0.257233
0.218136
0.0897688
0.0245802
0.0135492
0.0181233
0.0219743
0.000684278
4.125e-05
3.92891e-05
3.87642e-05
1.2008e-05
1.91097e-06
3.03955e-07
7.47573e-08
6.16429e-08
6.51684e-06
0.000271683
0.000597079
0.00305509
0.0280947
0.239137
0.302684
0.292355
0.282911
0.262033
0.262549
0.259495
0.251925
0.196636
0.0661218
0.0181827
0.00895828
0.0144901
0.0150481
0.000175139
4.02749e-05
2.95073e-05
2.28757e-05
7.25696e-06
1.38477e-06
1.29648e-07
3.33035e-08
1.84351e-07
2.23412e-05
0.000545798
0.000866035
0.00291912
0.0273122
0.232297
0.301564
0.289749
0.280625
0.261883
0.26129
0.256987
0.244769
0.171302
0.0435687
0.00991566
0.00490455
0.0100202
0.00988427
0.000869694
1.38996e-05
1.51188e-05
6.26134e-06
1.44729e-06
1.50057e-07
3.5967e-08
1.83379e-08
7.00967e-07
6.4668e-05
0.000982028
0.00133055
0.00366011
0.0267541
0.224299
0.300414
0.287153
0.279359
0.261625
0.25992
0.254628
0.236238
0.145238
0.0289593
0.00422515
0.00178118
0.00657737
0.00718191
0.000878089
3.49455e-06
6.49677e-06
1.13274e-06
1.20394e-08
1.6211e-09
3.25757e-10
3.17578e-08
1.87495e-06
0.000156076
0.00161131
0.00217825
0.00404594
0.0265714
0.216178
0.299239
0.284472
0.278206
0.261246
0.258543
0.252057
0.225226
0.117956
0.018443
0.000648011
0.000527517
0.00317504
0.00439836
0.000445587
9.68547e-07
1.71886e-06
1.85506e-07
1.18128e-08
1.03538e-09
2.26178e-10
6.76448e-08
3.54091e-06
0.000256541
0.00180731
0.00290985
0.00396944
0.0259437
0.208274
0.297877
0.282074
0.277507
0.260379
0.256881
0.249449
0.212298
0.0931351
0.0126142
0.000103746
2.48609e-05
0.000428348
0.00104312
7.17289e-05
1.00193e-07
8.59095e-08
3.27268e-08
6.49276e-10
5.03764e-12
1.94346e-10
8.46412e-08
4.58141e-06
0.000269175
0.00144419
0.0028733
0.00388224
0.0249114
0.200838
0.29557
0.279904
0.276736
0.259622
0.25544
0.246465
0.19774
0.0726869
0.00839343
7.96468e-05
1.03694e-07
3.95033e-06
2.73495e-05
1.13774e-06
2.2799e-09
8.63509e-08
2.19374e-08
6.94572e-10
3.02905e-12
2.57526e-10
5.02503e-08
3.33159e-06
0.0001493
0.000955949
0.0023768
0.00406582
0.0235508
0.194971
0.293217
0.275459
0.275603
0.258329
0.253523
0.241651
0.179297
0.0543007
0.00270234
4.25909e-06
1.31205e-09
1.34321e-10
2.85029e-08
4.08153e-11
1.43336e-10
1.57541e-09
7.73567e-10
1.55937e-10
3.62285e-13
2.03136e-11
2.25435e-09
9.81354e-08
2.55682e-05
0.000407846
0.00153996
0.0039948
0.0220231
0.188723
0.29001
0.433089
0.408711
0.402349
0.396917
0.395414
0.398235
0.40263
0.4063
0.404829
0.405195
0.40346
0.39296
0.375844
0.35385
0.329956
0.308325
0.290113
0.271916
0.257005
0.245908
0.241864
0.242692
0.252251
0.261403
0.28372
0.325173
0.383312
0.431818
0.392556
0.353686
0.332429
0.318265
0.313426
0.310142
0.304196
0.296585
0.284565
0.273304
0.26856
0.250603
0.222488
0.188393
0.160536
0.138165
0.12264
0.108907
0.0992019
0.0934195
0.0910448
0.093529
0.10206
0.112834
0.139123
0.186251
0.255596
0.35936
0.377633
0.353608
0.320311
0.303616
0.289118
0.272745
0.248346
0.227664
0.215764
0.226053
0.24116
0.218022
0.19525
0.175832
0.145235
0.12533
0.115289
0.105539
0.0955182
0.0892824
0.0843007
0.0828677
0.0859704
0.0911697
0.110981
0.159408
0.237917
0.330974
0.364415
0.33903
0.300606
0.277988
0.266766
0.247168
0.221715
0.20483
0.200269
0.21071
0.222344
0.210916
0.18681
0.169726
0.145041
0.125622
0.114238
0.102669
0.0915733
0.0859965
0.081982
0.0825052
0.0855162
0.0840171
0.0993614
0.147762
0.232
0.320789
0.353753
0.315677
0.279539
0.269389
0.255576
0.230565
0.206598
0.196755
0.195805
0.206985
0.220431
0.213528
0.18173
0.151967
0.127505
0.0947932
0.0653891
0.0418686
0.0281989
0.0264215
0.0358827
0.0557892
0.0801924
0.0937335
0.0946008
0.137963
0.225294
0.314022
0.345891
0.308335
0.256485
0.253544
0.237768
0.215664
0.201439
0.19881
0.200473
0.207791
0.216435
0.205107
0.164933
0.12261
0.0860344
0.0512432
0.030883
0.0217006
0.0121319
0.00948927
0.0115138
0.0234851
0.0515207
0.0896785
0.107936
0.135256
0.219093
0.308735
0.339609
0.308919
0.248104
0.236691
0.223028
0.20719
0.194658
0.193092
0.200433
0.204654
0.209793
0.192064
0.146074
0.0993354
0.073557
0.0636919
0.0552881
0.0462731
0.0207937
0.0102843
0.00913917
0.0133944
0.0303535
0.0709799
0.111999
0.134136
0.216187
0.304017
0.334219
0.295601
0.246645
0.233572
0.221343
0.208559
0.196535
0.195126
0.201707
0.20197
0.2027
0.182065
0.135194
0.0970297
0.0890044
0.0830216
0.076215
0.0700315
0.0386985
0.0150923
0.00916949
0.0105363
0.0183139
0.0476597
0.103333
0.131713
0.214238
0.300033
0.329452
0.287261
0.248041
0.233476
0.222582
0.211947
0.202605
0.203155
0.205436
0.20318
0.197031
0.17765
0.140765
0.111079
0.104727
0.0926851
0.0845613
0.0757417
0.0529643
0.0219842
0.00923464
0.00865188
0.0129067
0.0292248
0.084094
0.137016
0.213141
0.296095
0.324034
0.284907
0.249617
0.233171
0.22306
0.212793
0.203551
0.205725
0.208882
0.206791
0.190003
0.172705
0.151269
0.128526
0.116715
0.0966771
0.0813085
0.0778872
0.0611548
0.0296205
0.00850456
0.00680379
0.0099323
0.0180972
0.0622446
0.142759
0.213308
0.292184
0.317593
0.284475
0.250846
0.231812
0.222097
0.210174
0.202075
0.207212
0.217538
0.186101
0.178888
0.164852
0.149921
0.134385
0.122618
0.105276
0.0845862
0.0784375
0.0718692
0.0393839
0.0061603
0.00521063
0.00775296
0.0118027
0.0391853
0.117552
0.212745
0.287955
0.310973
0.284684
0.250087
0.23045
0.221381
0.207614
0.201632
0.212143
0.218225
0.175668
0.171903
0.158419
0.141491
0.123866
0.115788
0.0958325
0.0802071
0.07535
0.067395
0.0444131
0.00453784
0.00366352
0.00602753
0.00942919
0.0243523
0.0930372
0.210824
0.28417
0.306453
0.282354
0.248654
0.230216
0.219979
0.205566
0.201854
0.215937
0.216643
0.168547
0.157538
0.158287
0.133212
0.12078
0.113474
0.101631
0.0895798
0.0785937
0.0683551
0.0412083
0.00350592
0.00244526
0.00437264
0.00901719
0.0188846
0.0609173
0.207784
0.281727
0.305126
0.276841
0.247512
0.23085
0.218549
0.204172
0.202948
0.219919
0.206376
0.13875
0.128565
0.149572
0.117927
0.113564
0.106816
0.0976843
0.0913032
0.0676593
0.053739
0.0239636
0.00204441
0.00153141
0.00277433
0.00790805
0.0201309
0.0497912
0.20437
0.280211
0.304817
0.27354
0.245596
0.231055
0.217452
0.203603
0.205088
0.219415
0.182151
0.111781
0.110117
0.125803
0.0981292
0.106372
0.0932276
0.0818068
0.069948
0.0360913
0.0229863
0.00695981
0.000445952
0.000933565
0.00166769
0.00491169
0.0204917
0.0461944
0.201044
0.279288
0.303715
0.271707
0.242643
0.227893
0.216146
0.203445
0.206716
0.21359
0.146479
0.0898035
0.0882097
0.101019
0.0733045
0.096495
0.0620169
0.0356549
0.0194568
0.00586958
0.00274894
0.00050004
5.46025e-05
0.000572837
0.00111392
0.00294652
0.0194118
0.0440712
0.197474
0.278699
0.300225
0.269818
0.238711
0.226653
0.213855
0.203442
0.207042
0.200072
0.113319
0.0653154
0.0663061
0.0688886
0.0455556
0.0564844
0.0249731
0.00478853
0.000890515
0.000192216
6.22904e-05
9.17717e-06
6.79351e-06
0.000347867
0.000862613
0.00215409
0.0157473
0.0414739
0.19299
0.277795
0.295951
0.267049
0.234923
0.226157
0.210543
0.2019
0.204765
0.181109
0.0886743
0.0511523
0.0499452
0.0513879
0.0252798
0.0163998
0.00283665
0.000261454
4.54746e-05
1.60956e-05
5.59562e-06
9.54543e-07
1.97299e-06
0.000177612
0.000809964
0.00174989
0.0124254
0.0354814
0.188015
0.276721
0.291827
0.262437
0.231748
0.223211
0.206936
0.198977
0.200064
0.159772
0.0628188
0.0313181
0.0320428
0.0383126
0.0115109
0.00187356
0.000100921
5.35483e-05
3.07936e-05
7.53473e-06
1.84057e-06
3.40762e-07
3.47265e-07
5.93112e-05
0.000777961
0.00163054
0.0103
0.0251137
0.182777
0.275778
0.288554
0.256358
0.229095
0.219384
0.202424
0.19416
0.191505
0.122424
0.0328218
0.011845
0.0148633
0.0231906
0.00329616
0.000109034
5.24652e-05
5.65753e-05
2.35419e-05
3.22931e-06
4.7304e-07
1.03555e-07
7.46153e-08
1.27229e-05
0.000639586
0.00157359
0.00854132
0.0215138
0.176878
0.274591
0.28574
0.251418
0.226657
0.215198
0.197323
0.188813
0.17381
0.0772657
0.0156406
0.00159722
0.00337196
0.00732505
0.000140384
4.96629e-05
5.17172e-05
5.00893e-05
1.50472e-05
1.37131e-06
1.5707e-07
4.72149e-08
3.36504e-07
1.47193e-05
0.000535894
0.00155969
0.0056247
0.0202644
0.170671
0.273328
0.283088
0.248105
0.224317
0.210946
0.192753
0.184571
0.156989
0.058601
0.0131298
0.00481237
0.00755545
0.00880528
0.00016847
4.03686e-05
2.82565e-05
1.89639e-05
4.84577e-06
7.68512e-07
6.62302e-08
1.09732e-07
2.64967e-06
4.9171e-05
0.000761564
0.00188094
0.00524274
0.0196702
0.165033
0.271822
0.280385
0.245427
0.221912
0.206628
0.188801
0.180056
0.136657
0.0398723
0.00793257
0.00357978
0.00655833
0.00654643
0.000877515
9.68163e-06
1.13275e-05
3.98246e-06
4.5347e-07
3.68762e-08
8.80522e-09
6.42386e-07
1.51794e-05
0.000161006
0.00144152
0.00254706
0.00595342
0.0195048
0.159711
0.270222
0.277757
0.243582
0.21962
0.202807
0.186178
0.175844
0.116942
0.0279272
0.00435796
0.00165301
0.00518068
0.00539527
0.000862916
4.01053e-06
4.96579e-06
1.09933e-06
2.38009e-08
2.10953e-09
7.28139e-10
2.39255e-06
5.461e-05
0.00049293
0.00251587
0.00354255
0.00649546
0.0197739
0.154851
0.26836
0.274955
0.241911
0.217321
0.199603
0.184419
0.170005
0.0956785
0.0193924
0.00113819
0.00054565
0.00280081
0.00370234
0.000403639
1.4563e-06
6.65849e-06
1.64643e-06
2.92937e-08
1.29193e-09
9.34381e-10
4.99281e-06
0.000132656
0.00114104
0.00348422
0.0046272
0.00649176
0.0200004
0.15043
0.266059
0.272489
0.240514
0.21477
0.19676
0.183293
0.162614
0.0763197
0.0143186
0.00051953
2.71142e-05
0.000365868
0.000821524
5.74659e-05
1.40076e-07
1.27557e-05
3.37396e-06
1.94445e-08
2.96306e-11
1.26304e-09
5.79144e-06
0.000181929
0.00155993
0.0035211
0.00505973
0.00658361
0.0197137
0.145492
0.261648
0.270586
0.239657
0.21266
0.194817
0.182543
0.154088
0.0604628
0.0101641
0.000365457
9.60783e-07
2.98262e-06
1.83909e-05
7.33139e-07
2.70282e-08
1.86436e-05
4.9753e-06
3.26166e-08
2.82945e-11
1.43979e-09
2.39734e-06
0.000107938
0.00151978
0.00342115
0.00518428
0.00714321
0.0192766
0.142113
0.258187
0.265188
0.236728
0.209412
0.19272
0.181264
0.141114
0.0452052
0.00441812
1.14635e-05
2.0582e-08
4.93217e-10
1.21355e-08
3.15698e-11
3.94377e-09
1.07874e-06
2.49969e-07
2.42857e-09
6.14115e-12
1.59065e-10
2.47222e-08
4.46752e-06
0.000524397
0.00261739
0.00508734
0.0074948
0.0184573
0.138069
0.253406
0.428261
0.403275
0.377728
0.364825
0.356393
0.353029
0.352443
0.35298
0.351082
0.348612
0.349208
0.3367
0.31355
0.289768
0.266077
0.245528
0.229325
0.214217
0.202535
0.194523
0.192022
0.193339
0.2013
0.21054
0.232281
0.27316
0.331559
0.403691
0.368001
0.284953
0.246831
0.227118
0.214208
0.205045
0.198954
0.194902
0.191107
0.186262
0.185394
0.172029
0.145928
0.120494
0.0989329
0.0816692
0.0714466
0.062152
0.0556724
0.0526478
0.051591
0.051529
0.0545606
0.060813
0.0764245
0.111222
0.170986
0.290796
0.323983
0.24366
0.197287
0.16851
0.150494
0.137738
0.124305
0.116466
0.112081
0.11743
0.12585
0.125142
0.114069
0.103631
0.0824958
0.069346
0.0648725
0.0581987
0.0516807
0.0506274
0.0519399
0.0543451
0.057319
0.0627842
0.0717235
0.0923837
0.140698
0.242874
0.289713
0.211438
0.15609
0.131994
0.117182
0.109069
0.103114
0.098805
0.0958286
0.100111
0.108038
0.108959
0.104678
0.105191
0.0886997
0.0781088
0.0741932
0.062349
0.0525707
0.0516201
0.0527334
0.0572215
0.0635266
0.0675964
0.0759463
0.091607
0.136224
0.225754
0.268683
0.220222
0.144214
0.114864
0.106159
0.101445
0.0971589
0.0949901
0.0930389
0.0990766
0.11345
0.121207
0.114859
0.106158
0.0947241
0.0726915
0.0500217
0.0319804
0.0217541
0.0197445
0.025476
0.0385465
0.0566358
0.0725716
0.0851884
0.0935986
0.134368
0.214927
0.255861
0.232051
0.152787
0.123593
0.116626
0.110284
0.102152
0.0977579
0.102032
0.108917
0.124278
0.131681
0.115845
0.0935445
0.070697
0.048058
0.0342732
0.0267602
0.018758
0.0150593
0.0151429
0.0213384
0.039468
0.0676563
0.0923422
0.0969033
0.134932
0.207785
0.248814
0.238344
0.166061
0.144889
0.135425
0.122588
0.110373
0.106479
0.11399
0.118939
0.127347
0.130189
0.110138
0.0831085
0.0697968
0.0659352
0.0602794
0.0533701
0.0309034
0.0190996
0.0165178
0.0177984
0.0277729
0.0543899
0.0846184
0.0953795
0.135159
0.201656
0.244068
0.229638
0.177913
0.164921
0.151367
0.133289
0.119233
0.120007
0.127251
0.128389
0.125833
0.128112
0.11325
0.0912403
0.0863449
0.0816431
0.0765252
0.0737367
0.0447077
0.0231586
0.0172384
0.0162662
0.0214308
0.0396072
0.0743515
0.0936369
0.135213
0.19651
0.239813
0.225366
0.185653
0.175091
0.158979
0.141206
0.128041
0.13284
0.134356
0.136003
0.128369
0.13312
0.125327
0.10575
0.095316
0.085501
0.0838571
0.0761093
0.0501688
0.026372
0.0165883
0.0138936
0.0186117
0.0287841
0.0628893
0.0992274
0.134451
0.191581
0.235378
0.224563
0.189697
0.178156
0.159659
0.14269
0.127773
0.133916
0.139879
0.150665
0.139677
0.13522
0.131855
0.114089
0.0925094
0.0780158
0.0720982
0.0682291
0.0488274
0.0285005
0.0134014
0.0105729
0.0160907
0.0221468
0.0498773
0.0998401
0.134279
0.187537
0.230267
0.224128
0.192062
0.178006
0.15831
0.139413
0.125023
0.136884
0.154781
0.12797
0.126205
0.122088
0.109658
0.100701
0.0795809
0.0616958
0.0500089
0.0433556
0.0482953
0.031677
0.0081527
0.00751253
0.0125187
0.0166036
0.0349307
0.0832714
0.133029
0.183943
0.225034
0.224566
0.192802
0.177952
0.157733
0.135026
0.123841
0.145115
0.161651
0.117938
0.117745
0.112679
0.0906308
0.0742173
0.0618832
0.0403063
0.034502
0.033471
0.0316811
0.0330417
0.00473435
0.00499538
0.00935897
0.013239
0.0250814
0.068891
0.130708
0.181031
0.22195
0.223107
0.193559
0.178571
0.157696
0.132493
0.125377
0.154158
0.16611
0.111761
0.102348
0.111964
0.0782774
0.0741103
0.0584833
0.0468836
0.0439199
0.0355945
0.0355935
0.0303196
0.00325212
0.00404529
0.00735112
0.0126397
0.0221259
0.0493196
0.127645
0.179206
0.221027
0.218788
0.194619
0.179806
0.157754
0.131341
0.128933
0.163383
0.16367
0.0836805
0.0743111
0.0944855
0.0576347
0.066534
0.0478027
0.0408541
0.044554
0.0300282
0.0271928
0.0160178
0.00176836
0.00355775
0.00579274
0.0122757
0.0235158
0.0442011
0.124141
0.178426
0.22051
0.21699
0.194154
0.181175
0.155673
0.130745
0.135221
0.170907
0.148488
0.0669304
0.0611961
0.0776193
0.0427762
0.0635141
0.0381662
0.0388638
0.0379565
0.017716
0.0119213
0.0040445
0.000489048
0.00331646
0.00506855
0.010055
0.0243881
0.0423492
0.120883
0.178557
0.219145
0.216815
0.192439
0.17946
0.152519
0.131351
0.141713
0.1704
0.11943
0.0511233
0.0432628
0.0636701
0.0265754
0.0638261
0.0232896
0.0156059
0.0106282
0.00285844
0.00149164
0.000251708
0.000176545
0.00285946
0.00499695
0.00811506
0.0232672
0.0409784
0.117343
0.178603
0.216138
0.216076
0.189842
0.177321
0.148902
0.133217
0.147058
0.163311
0.0901485
0.0286241
0.0293207
0.0360149
0.0153877
0.0184392
0.00952038
0.00158705
0.000406315
0.000101848
4.01126e-05
4.84775e-06
8.01282e-05
0.0021881
0.00504412
0.00718414
0.0198372
0.0385106
0.113316
0.177954
0.212266
0.214296
0.186822
0.172915
0.145056
0.134653
0.148909
0.150682
0.0683187
0.0242064
0.0231637
0.0272817
0.00930765
0.00460611
0.00086054
0.000115541
4.62975e-05
1.66133e-05
5.23139e-06
6.50456e-07
3.24581e-05
0.00134513
0.00516975
0.00673529
0.0170711
0.0326967
0.109388
0.176792
0.208153
0.210326
0.183406
0.167174
0.141543
0.13456
0.146893
0.134671
0.0487426
0.0145099
0.0109826
0.0226559
0.00361287
0.000686322
7.0971e-05
6.17811e-05
3.633e-05
6.80982e-06
1.47548e-06
2.09123e-07
8.25974e-06
0.000675186
0.00495915
0.00654802
0.015442
0.0253543
0.104899
0.175564
0.204752
0.204799
0.179468
0.161636
0.136624
0.13123
0.140936
0.102832
0.0241526
0.00175517
0.00163404
0.00821357
0.000645033
6.28325e-05
6.00229e-05
6.52506e-05
2.67308e-05
2.64654e-06
3.52321e-07
7.32452e-08
2.72642e-06
0.00027191
0.00376953
0.00623405
0.0140178
0.0233192
0.100267
0.174223
0.201505
0.199465
0.175121
0.155764
0.131254
0.128202
0.128849
0.0619807
0.0102154
0.00039634
0.000520701
0.000645753
6.97473e-05
5.14969e-05
5.85776e-05
5.77814e-05
1.84776e-05
1.2533e-06
1.39945e-07
2.27156e-07
7.49981e-06
0.000216342
0.00299558
0.00604656
0.0114368
0.0221989
0.0962403
0.172914
0.198458
0.194817
0.170801
0.149741
0.127065
0.126145
0.117108
0.0446753
0.00835764
0.0022764
0.00348889
0.00396353
0.000198809
3.62309e-05
2.28201e-05
1.28887e-05
2.56719e-06
1.74725e-07
3.75513e-08
1.64611e-06
3.99643e-05
0.000443529
0.00278352
0.00612007
0.0105929
0.0212465
0.093539
0.171419
0.195312
0.190433
0.166407
0.144037
0.12433
0.124804
0.103198
0.0300088
0.00536488
0.00212961
0.00357838
0.00359791
0.000789961
8.59505e-06
8.90374e-06
3.1578e-06
1.81752e-07
2.25363e-08
7.55075e-09
9.24869e-06
0.000187201
0.00104879
0.00394763
0.00658843
0.0108115
0.0205067
0.0917402
0.169779
0.192432
0.186995
0.16234
0.139247
0.12318
0.123732
0.0899088
0.0216884
0.00354057
0.00132471
0.00354941
0.00377205
0.000716217
8.05689e-06
2.10384e-05
3.87028e-06
1.72253e-07
7.0035e-09
5.94515e-09
2.98559e-05
0.000568602
0.00202299
0.00545446
0.00729621
0.0110909
0.020297
0.0906039
0.167786
0.189517
0.184008
0.158656
0.135856
0.123177
0.121754
0.0759329
0.016536
0.00122867
0.000555567
0.00223521
0.00286177
0.000310287
8.71367e-06
0.000128937
2.63073e-05
5.34619e-07
3.11122e-09
1.06737e-08
5.46757e-05
0.00125631
0.00401294
0.00702989
0.00832221
0.0107289
0.0205148
0.0897833
0.165621
0.18634
0.181371
0.155123
0.133463
0.123826
0.118251
0.0621647
0.0137662
0.000693928
2.8656e-05
0.000242021
0.000518158
3.5345e-05
2.08723e-06
0.000316001
8.61989e-05
1.45954e-06
2.64245e-10
1.38179e-08
5.79386e-05
0.00156691
0.00518387
0.00716298
0.00885934
0.0106372
0.0207096
0.0880938
0.162366
0.183564
0.179998
0.152965
0.132731
0.125551
0.11465
0.0504416
0.0108127
0.000416728
2.5543e-06
2.28546e-06
8.49081e-06
3.22285e-07
1.15423e-06
0.000433204
0.000150469
2.40763e-06
2.98373e-10
9.22871e-09
1.97446e-05
0.000945955
0.00543999
0.0073429
0.00934562
0.01143
0.0210527
0.0871542
0.157491
0.178202
0.176388
0.149496
0.131815
0.126446
0.10618
0.0359739
0.00481564
1.44724e-05
3.45207e-08
5.20705e-09
1.91589e-09
1.09446e-10
7.3763e-08
2.68024e-05
7.43403e-06
7.67636e-08
1.22571e-10
1.07175e-10
1.66678e-07
8.30047e-05
0.00289195
0.00609984
0.00944273
0.0119722
0.0205781
0.084779
0.150537
0.427812
0.384448
0.355534
0.33999
0.328626
0.322521
0.318721
0.316801
0.314043
0.310574
0.312515
0.299992
0.273707
0.249882
0.22725
0.20796
0.193795
0.181452
0.172409
0.166537
0.165272
0.166792
0.173379
0.182007
0.201508
0.238567
0.293937
0.389407
0.336533
0.214613
0.184454
0.167518
0.154745
0.146581
0.140498
0.136702
0.134173
0.13065
0.131677
0.121357
0.10117
0.0815794
0.0657906
0.0538563
0.0490355
0.0462483
0.0431259
0.0418234
0.0424621
0.0431833
0.0448695
0.0486523
0.0572819
0.0753878
0.116497
0.255945
0.274392
0.160146
0.125184
0.105512
0.0943525
0.0891604
0.0825343
0.0794864
0.0774832
0.0798571
0.0840579
0.0823854
0.0781746
0.0753534
0.0599666
0.0514329
0.0506011
0.0485117
0.0454133
0.0465605
0.0491968
0.0516777
0.0547132
0.0592812
0.0629808
0.0697296
0.089892
0.201858
0.234517
0.132639
0.0983143
0.0817814
0.0764436
0.074703
0.0720148
0.0693981
0.0654884
0.0629881
0.0654668
0.0659213
0.0683564
0.0772433
0.0653181
0.058163
0.0570793
0.0442554
0.0348484
0.0358006
0.0374173
0.0407298
0.0470485
0.0534534
0.0704955
0.0734868
0.0888279
0.1783
0.210527
0.13617
0.0838006
0.0720242
0.0660967
0.0650901
0.0646416
0.064627
0.0629501
0.060721
0.0682661
0.0745178
0.0789194
0.0794593
0.0724106
0.056071
0.040091
0.02773
0.020321
0.0185168
0.0218268
0.026869
0.0374895
0.0519584
0.074652
0.0784171
0.0879579
0.165429
0.196002
0.147006
0.085086
0.0702983
0.0643191
0.0651522
0.0658949
0.0693912
0.0746741
0.0726457
0.078269
0.0843475
0.082156
0.0724655
0.0577984
0.0460236
0.0394807
0.0337852
0.0253411
0.0222837
0.0204976
0.021281
0.0290343
0.0465937
0.0715508
0.0827297
0.0892385
0.156163
0.186848
0.152272
0.0940493
0.0780934
0.0716681
0.0705343
0.0714438
0.0767612
0.0822284
0.0812895
0.0838935
0.0864186
0.0809055
0.0695999
0.064661
0.0657658
0.0656134
0.0600726
0.0381302
0.0279603
0.0239201
0.022524
0.0265467
0.0394171
0.0613183
0.0818524
0.0903267
0.149481
0.181229
0.148423
0.106668
0.0956665
0.0867564
0.0787989
0.0767706
0.0838194
0.0867251
0.0856992
0.0842764
0.0895209
0.0909549
0.082376
0.0781294
0.0782829
0.0790275
0.0789424
0.0467415
0.0296641
0.0246304
0.0219605
0.025233
0.0343861
0.0537882
0.080487
0.0911761
0.144482
0.176155
0.149594
0.116713
0.109065
0.0966247
0.0868506
0.0825975
0.0899897
0.0883075
0.0901689
0.0868199
0.0981814
0.105324
0.0935956
0.0761242
0.0811346
0.0936234
0.0795323
0.0449305
0.0280009
0.0229038
0.0204089
0.0243405
0.0308204
0.0482913
0.080273
0.0912512
0.139933
0.170988
0.15102
0.122922
0.115118
0.0981595
0.0907827
0.0823201
0.0876674
0.091988
0.110745
0.102667
0.103546
0.0932547
0.0882928
0.0621958
0.0693257
0.0845371
0.0519854
0.0296033
0.0242739
0.0180021
0.0182346
0.0237347
0.027401
0.0426668
0.073031
0.0910683
0.13628
0.164777
0.151227
0.126952
0.11691
0.0982257
0.0902151
0.0788289
0.0877842
0.107089
0.0947738
0.0683453
0.089497
0.0523469
0.0574431
0.0215622
0.0284349
0.0355933
0.0131007
0.0165226
0.0214695
0.0113201
0.0149959
0.0225847
0.024308
0.0349218
0.0637698
0.0902871
0.133399
0.16039
0.152058
0.129428
0.118055
0.0984252
0.0871888
0.0758771
0.0944861
0.11736
0.0711998
0.0560966
0.076345
0.0292982
0.0299388
0.00901884
0.00743804
0.0100249
0.00680889
0.00772003
0.0207131
0.00607748
0.0110817
0.0193593
0.0217672
0.0292964
0.0554495
0.0885973
0.13103
0.158027
0.151302
0.1321
0.118721
0.0989034
0.0841246
0.0772103
0.104101
0.12029
0.0510192
0.0429089
0.0617934
0.0133062
0.0176811
0.00706148
0.00627447
0.00908263
0.00652619
0.00767327
0.0181321
0.00369078
0.00952174
0.0160303
0.0204212
0.027385
0.0466306
0.0861559
0.129275
0.15602
0.148435
0.133221
0.11963
0.0993038
0.0821771
0.0809204
0.11473
0.120259
0.0281604
0.022079
0.0409622
0.00596285
0.0150937
0.00569707
0.0068306
0.0105925
0.00566583
0.00615783
0.00836613
0.00205066
0.00861123
0.0132502
0.0192988
0.0274344
0.04373
0.0833994
0.128472
0.153817
0.148243
0.133441
0.120946
0.0981832
0.0805355
0.0875159
0.126434
0.108941
0.0162872
0.0119695
0.0255958
0.0046427
0.0198623
0.00466479
0.00736813
0.00973408
0.00393452
0.00312739
0.00164953
0.00104972
0.00802636
0.0121625
0.0177876
0.0273281
0.042138
0.0806521
0.128339
0.151261
0.148314
0.132357
0.120198
0.0953122
0.0796993
0.094631
0.128393
0.086511
0.0125182
0.00758363
0.0273714
0.00293963
0.0237997
0.00296794
0.00389928
0.00401042
0.00084295
0.00061643
9.33404e-05
0.000602168
0.00691746
0.0117483
0.0156425
0.0257392
0.0405862
0.077806
0.127983
0.148085
0.14784
0.130493
0.1176
0.0915053
0.0814656
0.10126
0.125503
0.0634822
0.00492477
0.0046114
0.0122703
0.00148913
0.00364054
0.00164975
0.000462944
0.000294097
7.15593e-05
3.71065e-05
4.07078e-06
0.000337333
0.00544712
0.011441
0.0139508
0.0235652
0.0371513
0.0749984
0.126945
0.144733
0.146674
0.127771
0.111721
0.0872516
0.0846102
0.10576
0.117745
0.0450278
0.00358544
0.00260616
0.00601316
0.000959552
0.000420918
0.000174241
7.8596e-05
4.91599e-05
1.46239e-05
5.29911e-06
6.7791e-07
0.000160233
0.00376957
0.0114101
0.0129489
0.021483
0.0305355
0.0721909
0.125549
0.141399
0.143729
0.124111
0.106002
0.0844764
0.0879425
0.105625
0.107706
0.0321323
0.00270153
0.00101535
0.00842798
0.000393101
0.000146197
6.204e-05
6.59812e-05
3.94701e-05
5.33941e-06
1.55445e-06
1.73624e-07
6.94655e-05
0.00240963
0.0109492
0.0125669
0.0202353
0.0257768
0.0690802
0.124265
0.138733
0.139248
0.119699
0.101179
0.081865
0.0892597
0.10206
0.0829637
0.0158247
0.000441164
0.000345619
0.00171605
0.00012158
5.72419e-05
6.68738e-05
7.07035e-05
2.87803e-05
2.22506e-06
3.33398e-07
1.64474e-07
5.08046e-05
0.00152447
0.00948658
0.0122372
0.0190131
0.0242464
0.0660307
0.123025
0.13624
0.134647
0.115048
0.0964911
0.0804255
0.0900988
0.0939894
0.0474125
0.00630034
0.000478054
0.000531818
0.000272972
7.79149e-05
5.17131e-05
6.4905e-05
6.78828e-05
2.30804e-05
1.30406e-06
1.81394e-07
2.15685e-06
0.000106245
0.00146518
0.00839134
0.0121188
0.0166596
0.0233378
0.0630619
0.121707
0.134015
0.130429
0.110845
0.0925178
0.0804344
0.0908493
0.086464
0.0332278
0.0054798
0.00143134
0.00249789
0.00255529
0.000250986
3.05357e-05
1.74243e-05
1.17199e-05
2.47906e-06
1.45025e-07
3.92638e-08
1.36698e-05
0.00035702
0.00252551
0.00812815