/*--------------------------------*- C++ -*----------------------------------*\
| =========                 |                                                 |
| \\      /  F ield         | OpenFOAM: The Open Source CFD Toolbox           |
|  \\    /   O peration     | Version:  2.3.0                                 |
|   \\  /    A nd           | Web:      www.OpenFOAM.org                      |
|    \\/     M anipulation  |                                                 |
\*---------------------------------------------------------------------------*/
FoamFile
{
    version     2.0;
    format      ascii;
    class       volScalarField;
    location    "4.00055";
    object      epsilonm;
}
// * * * * * * * * * * * * * * * * * * * * * * * * * * * * * * * * * * * * * //

dimensions      [0 2 -3 0 0 0 0];

internalField   nonuniform List<scalar> 
18816
(
1.19165
5.65685
9.44119
12.1443
16.844
19.8163
24.5275
28.1165
32.8609
36.2019
39.8571
42.6622
44.8658
45.2874
44.4993
42.068
37.629
31.4698
24.1411
16.0421
9.10872
4.17113
3.34826
6.07199
12.4861
16.4052
15.5452
3.34552
12.0562
44.3458
37.7557
37.4069
36.3876
37.438
39.6356
41.1866
41.9008
41.6699
42.0784
42.316
40.0221
37.3576
34.0224
30.3043
26.1803
21.6856
17.243
13.2632
10.0522
7.94345
7.62648
7.53152
10.1142
14.0653
22.7932
7.90628
9.7418
30.1979
25.8442
25.2019
24.6391
25.4511
26.9175
27.6241
27.7893
28.0939
27.6574
30.873
28.3571
25.0372
22.5102
20.0404
17.6926
15.3318
12.6536
9.52114
6.45706
3.77695
2.70665
2.57463
4.41573
8.84338
17.5308
8.8384
9.75316
27.2476
23.9394
24.3935
24.3822
25.0706
26.6631
27.4461
26.0119
26.1362
23.2053
16.6101
19.2239
17.7907
16.5075
15.0486
13.6526
12.0494
9.81756
6.92808
4.39401
2.19832
1.26147
1.37463
2.91773
6.90149
16.9438
9.37187
6.86324
74.2724
22.0452
22.219
21.7791
24.0121
24.4839
24.4719
25.7256
24.9806
19.8337
12.0716
13.6809
11.9056
8.99491
5.66852
3.2428
1.72698
1.11296
0.819841
0.803096
0.764304
0.477898
0.137395
1.30075
4.97
15.08
9.52098
11.8028
84.1275
57.9455
21.0585
21.509
23.3949
24.029
25.8239
24.0339
24.0456
18.3512
10.0287
8.48577
5.00945
1.65833
0.38547
0.20976
0.262836
0.361628
0.383876
0.377186
0.524241
0.756517
0.588683
0.653237
4.46159
14.517
9.66363
12.4597
83.5827
66.4853
52.8798
44.7792
38.682
32.6514
23.0123
23.1758
21.1553
17.4996
4.84733
4.42625
1.43618
0.15444
0.0101646
0.00994204
0.104479
0.347779
0.367234
0.331706
0.398845
0.690203
1.17542
0.405334
3.42293
13.4526
9.50961
16.7421
82.3895
65.5591
57.9333
47.2908
39.0216
33.0265
28.1159
25.6774
20.5762
14.5398
3.58195
2.48511
0.528552
0.0228816
0.0291792
0.0141081
0.102245
0.271292
0.449806
0.339257
0.350256
0.479513
0.995513
1.04144
2.79975
12.7343
9.39638
17.5385
81.3702
64.1741
56.2188
44.9029
36.4824
30.4523
27.1924
25.0455
19.0103
14.5785
2.87936
1.64264
0.217368
0.0115176
0.0284331
0.15059
0.0495424
0.172954
0.415731
0.33945
0.344968
0.393579
0.6842
1.50541
1.94258
12.1072
9.42495
20.9032
80.6347
63.7621
54.9731
43.7006
35.2413
29.3913
26.0338
25.1752
15.1519
12.4754
1.74539
0.849106
0.288724
0.087617
0.132451
0.26406
0.188756
0.0210998
0.353246
0.349736
0.341075
0.361408
0.47256
1.1553
1.57029
11.5322
9.06651
22.1769
79.6647
63.7575
54.023
42.9832
34.7193
29.5047
26.6948
25.2262
11.5143
10.7653
1.66691
0.930885
0.419675
0.192276
0.116148
0.139566
0.184634
0.172409
0.318591
0.364213
0.335145
0.351462
0.374696
0.583371
0.45597
11.1571
9.06332
22.6643
79.1262
63.7629
53.4664
42.4493
34.4861
29.4354
27.9365
24.3318
10.1703
7.5341
3.72044
1.0217
0.65825
0.238368
0.320719
0.235378
0.157081
0.273974
0.358598
0.371185
0.325272
0.339581
0.345318
0.391735
0.517757
10.2229
8.674
24.8502
78.9846
63.3788
53.08
42.0914
34.4395
29.8067
29.1349
24.3578
8.49946
5.90693
3.15062
1.00351
0.584846
0.248027
0.228896
0.173631
0.203953
0.410835
0.406659
0.350521
0.321838
0.334443
0.341152
0.351071
0.501579
9.59391
8.6618
24.9829
78.2069
62.6329
52.8471
41.7752
34.4411
30.1539
30.6119
24.8094
7.21683
4.88948
2.92188
0.916558
0.925594
0.163226
0.337162
0.322876
0.31099
0.377954
0.306722
0.313642
0.313549
0.322114
0.332878
0.334304
0.486316
8.82801
8.40088
26.7812
76.995
61.6324
52.5339
41.5191
34.4425
30.4919
31.6821
24.6866
6.68797
3.90154
2.40076
0.821223
0.773259
0.0951706
0.109528
0.244507
0.258662
0.187559
0.207837
0.290718
0.302586
0.31188
0.328116
0.329062
0.450135
7.93478
8.22468
26.8373
76.8352
61.0422
52.4302
41.3787
34.4605
31.0818
33.2421
24.3601
5.47736
2.94099
2.13601
0.654469
0.895891
0.0806799
0.181111
0.136027
0.132163
0.0974948
0.17321
0.269605
0.281841
0.293782
0.316502
0.324044
0.431833
6.91042
8.28755
28.435
77.4216
60.9591
52.1772
41.2113
34.4317
31.6136
34.0439
22.8479
4.57815
2.4558
1.88911
0.562898
0.542714
0.218008
0.112386
0.102472
0.114942
0.0919169
0.165475
0.239567
0.257978
0.276664
0.30751
0.322785
0.420251
5.49687
7.90556
28.4246
77.556
61.5336
52.2164
41.2661
34.6659
32.6146
35.0282
20.4697
3.97956
2.17716
1.9459
0.350825
0.144535
0.12895
0.0941653
0.0906174
0.113321
0.119193
0.155624
0.212465
0.233155
0.255181
0.293345
0.318146
0.411802
4.02938
7.70288
30.1287
77.3892
62.4102
52.4692
41.346
35.212
34.2302
34.7946
16.6033
2.48092
1.28152
1.27459
0.110701
0.0603798
0.0900396
0.0850287
0.0922655
0.146157
0.178809
0.185517
0.193369
0.216351
0.239197
0.282465
0.309765
0.399948
3.77468
7.74021
30.0295
78.5801
63.4515
53.1139
41.9547
36.9788
38.1569
36.1533
14.6934
1.94371
1.27183
1.25683
0.0784578
0.0423352
0.0728259
0.0720364
0.101979
0.147998
0.225738
0.24354
0.184148
0.195565
0.219871
0.263007
0.290742
0.361949
4.2425
7.43754
31.9657
80.904
64.6715
54.8925
44.7674
42.5462
45.5745
34.6019
7.68759
0.8545
0.82005
0.908752
0.044418
0.0323361
0.0341972
0.0368908
0.046375
0.0581683
0.119893
0.167222
0.133019
0.152319
0.192982
0.241111
0.259972
0.314601
5.48125
7.46938
32.0376
83.8501
66.6711
57.8546
48.9467
48.0884
47.8792
24.5648
1.36207
1.38949
1.53053
0.617677
0.0328529
0.0213473
0.0183323
0.019945
0.0222925
0.013767
0.017181
0.0656267
0.0917063
0.130938
0.178198
0.222947
0.216635
0.261589
6.76002
7.13782
33.9313
85.4895
68.4696
60.5986
52.4485
51.5747
48.3409
21.9447
0.401547
0.581127
0.458214
0.0604222
0.0388916
0.0318972
0.029273
0.0302215
0.0326312
0.0430627
0.0559071
0.0775534
0.0894171
0.119024
0.164324
0.208099
0.137281
0.203291
7.44785
7.00626
34.1108
88.6502
71.7249
63.8422
55.9334
54.8697
48.5841
20.4364
0.444686
0.243886
0.706291
0.121505
0.0128422
0.0101408
0.00803811
0.00948525
0.0114199
0.021492
0.0315829
0.057052
0.0781853
0.111382
0.156025
0.196331
0.0385381
0.164466
7.84113
7.02741
36.1173
91.086
74.0347
65.8387
58.5844
57.3432
46.7854
20.2273
0.22214
0.0294189
0.565698
0.168706
0.0225407
0.0208443
0.0196549
0.021554
0.0240386
0.0318803
0.0401365
0.0575559
0.0760776
0.104331
0.146696
0.186197
0.0435541
0.14024
8.04077
6.78344
36.2197
94.2517
77.3401
68.1808
60.8988
58.4114
41.8831
18.0175
0.382341
0.026197
0.0330197
0.0365516
0.0143261
0.0141782
0.0150706
0.0177068
0.0214941
0.0288329
0.0367945
0.0520785
0.0709748
0.0978594
0.134471
0.171853
0.0621828
0.127135
8.11761
6.68568
37.9725
94.8408
78.5075
68.9216
61.7455
58.0368
35.6007
20.5221
0.0647207
0.0272243
0.0146743
0.0125197
0.0164106
0.0161945
0.0171694
0.0189048
0.0230482
0.0288399
0.0361644
0.0487034
0.0638529
0.0844988
0.112809
0.145814
0.0845273
0.111697
8.05565
6.69583
38.7328
97.3078
80.7737
70.653
62.6031
57.1721
26.6195
10.1119
0.0406695
0.023539
0.0136475
0.0110912
0.0129598
0.0127112
0.0131156
0.0140552
0.0171472
0.0210435
0.0259029
0.0340789
0.0437777
0.0563588
0.0698742
0.0891863
0.10382
0.0830502
7.58503
6.50932
0.492675
0.770519
2.10661
2.91449
4.22974
5.06769
6.32875
7.28071
8.48562
9.30012
10.1705
10.7598
11.1056
11.0489
10.6586
9.82882
8.5239
6.8631
5.01017
3.09199
1.55263
0.670708
0.53622
1.01215
2.54518
3.85088
3.73008
2.37867
1.26608
10.405
9.29555
9.31842
9.22091
9.54558
10.0937
10.3901
10.5096
10.4509
10.5778
10.7134
10.2515
9.63386
8.83456
7.91163
6.83735
5.63437
4.42484
3.34293
2.47054
1.96019
1.87157
1.90586
2.58216
3.64247
5.69607
2.06235
0.277307
1.89564
1.61005
1.54794
1.4534
1.43186
1.41018
1.35635
1.31848
1.34788
2.27316
8.40779
7.65771
6.81013
6.16995
5.51607
4.87069
4.18824
3.42384
2.57252
1.77346
1.13151
0.891301
0.846447
1.27702
2.44087
4.7657
1.96008
0.25194
0.334077
0.271462
0.249325
0.210791
0.18608
0.158657
0.139213
0.128778
0.144144
0.331847
1.54742
5.43321
5.05031
4.7462
4.38575
3.99898
3.51812
2.80338
1.92542
1.20234
0.632046
0.418081
0.438265
0.812098
1.89915
4.55563
2.5397
0.713515
12.3448
0.12135
0.0781957
0.0642376
0.0476008
0.0359739
0.032765
0.0320383
0.0343421
0.100638
0.764843
3.9765
3.50832
2.75681
1.83311
1.10758
0.594057
0.365787
0.279935
0.269044
0.263684
0.196176
0.100555
0.394032
1.38045
4.07564
2.62317
1.1833
20.7515
9.64824
0.0788412
0.0523666
0.0427517
0.0341625
0.0234052
0.0226992
0.0211928
0.0457208
0.434311
2.55876
1.5485
0.56273
0.167765
0.0940116
0.106066
0.139275
0.146457
0.147187
0.193952
0.261269
0.240149
0.245684
1.25077
3.93662
2.87445
1.68108
21.7619
16.4644
9.41876
8.02509
6.91867
5.23458
0.0305445
0.0298899
0.0239639
0.0262449
0.188771
1.37219
0.464588
0.0658045
0.00763299
0.00742835
0.0470814
0.124839
0.139306
0.133801
0.154088
0.246403
0.367436
0.191294
1.00029
3.67537
2.95697
2.62992
21.6054
17.2632
14.7491
12.0804
9.93845
8.20091
5.10475
4.64226
3.42392
0.0233389
0.0765214
0.773198
0.177768
0.0115864
0.0104304
0.00704764
0.034107
0.0926047
0.150738
0.132679
0.138076
0.175502
0.32098
0.379402
0.837256
3.48443
2.91752
2.9932
21.3174
17.0464
14.8335
11.8975
9.62608
8.01534
6.98227
6.43857
4.83261
0.0352218
0.0306668
0.520546
0.0780761
0.00794578
0.0120457
0.0454177
0.0233315
0.0505303
0.133976
0.130757
0.134021
0.148519
0.229138
0.478123
0.617917
3.31002
3.01924
3.85031
21.1184
16.9179
14.5207
11.5667
9.27431
7.71343
6.88936
6.69045
4.18018
0.0305909
0.0102712
0.271423
0.092439
0.0338045
0.0389204
0.0727986
0.0742842
0.0157434
0.120661
0.133467
0.131331
0.137502
0.167724
0.345562
0.54178
3.14086
2.86053
3.9822
20.9223
16.8433
14.2451
11.345
9.10326
7.72743
7.05704
6.86156
3.07346
0.0398807
0.0136939
0.263914
0.130569
0.070275
0.0408149
0.0449486
0.0638083
0.0576315
0.11384
0.136808
0.127926
0.132704
0.140701
0.186662
0.212164
3.05277
2.80616
4.53758
20.7592
16.7605
14.0953
11.1885
9.02789
7.71236
7.39435
6.6135
2.84177
1.51189
0.828741
0.310431
0.195937
0.0846658
0.0932626
0.0718682
0.0589294
0.0826256
0.130991
0.138089
0.124158
0.12783
0.13234
0.144682
0.20361
2.82816
2.76348
4.75717
20.6181
16.6073
13.9908
11.0884
9.01157
7.79408
7.70847
6.58687
2.44083
1.64147
0.899551
0.310283
0.187279
0.0875292
0.0792635
0.0637656
0.0739036
0.126872
0.145765
0.129866
0.121356
0.124739
0.130162
0.13451
0.19456
2.6541
2.74297
4.82515
20.426
16.4132
13.9208
11.0045
9.012
7.88811
8.11016
6.69524
2.08641
1.41365
0.850808
0.285
0.268971
0.0650606
0.0989667
0.0969058
0.100282
0.116203
0.110208
0.114134
0.11547
0.118412
0.126109
0.129501
0.187366
2.44854
2.69361
5.16054
20.2509
16.2223
13.8237
10.9325
9.01168
7.97655
8.42432
6.72195
1.91376
1.12577
0.704238
0.254829
0.235292
0.0446672
0.0460341
0.0780413
0.0837548
0.0669241
0.0767526
0.102092
0.107933
0.112962
0.123042
0.127181
0.175179
2.21126
2.69374
5.16524
20.1874
16.1301
13.7739
10.8908
9.01458
8.12944
8.86895
6.66741
1.58658
0.853298
0.622803
0.208586
0.264313
0.0425134
0.0568291
0.0476071
0.0521703
0.0434075
0.0648542
0.0911436
0.0978677
0.104553
0.117418
0.124457
0.167768
1.95661
2.63827
5.45943
20.1962
16.12
13.6945
10.8366
9.00542
8.2939
9.15269
6.3503
1.30606
0.703686
0.529421
0.178706
0.163416
0.0759784
0.0414546
0.0407277
0.049909
0.043402
0.0625415
0.0800732
0.0883718
0.0974993
0.113102
0.122494
0.160677
1.59831
2.65129
5.47092
20.2063
16.2095
13.6936
10.8363
9.05963
8.58833
9.46954
5.71017
1.13512
0.626706
0.542027
0.114464
0.0533394
0.046316
0.0395047
0.0398662
0.0519251
0.0577929
0.0641956
0.0718594
0.0794821
0.0893545
0.106887
0.118486
0.154165
1.21715
2.63463
5.7543
20.2863
16.3441
13.7491
10.8558
9.20819
8.95394
9.3677
4.64031
0.733157
0.388239
0.38303
0.0463642
0.0246768
0.0402986
0.0366634
0.0401582
0.0625083
0.0818937
0.0793122
0.0667634
0.0727931
0.0833451
0.101907
0.112542
0.14618
1.14039
2.68673
5.76071
20.5938
16.5122
13.8883
10.9384
9.55146
9.77208
9.57917
3.97486
0.543276
0.357692
0.351282
0.0390147
0.0231252
0.0363636
0.0328474
0.0421412
0.059021
0.0869377
0.0877753
0.0599563
0.0625545
0.0755412
0.0941523
0.102583
0.132366
1.23447
2.74838
6.07582
21.0189
16.7573
14.2413
11.4987
10.8157
11.6921
9.17457
2.23029
0.277974
0.255116
0.260936
0.032476
0.0254488
0.0250364
0.0257279
0.0269674
0.0240025
0.0295477
0.0412659
0.0400715
0.0499128
0.0680389
0.0873553
0.0884327
0.120877
1.53582
2.65557
6.07079
21.6913
17.2875
14.9341
12.5471
12.2337
11.8059
1.66234
0.202186
0.404051
0.433054
0.19562
0.0144934
0.00942289
0.00760574
0.00788176
0.00806321
0.00674025
0.00863847
0.0232227
0.0318834
0.045943
0.0646004
0.0817234
0.0662472
0.107062
1.84936
2.60129
6.44418
22.1904
17.7952
15.5802
13.441
13.1603
11.8444
0.264635
0.0412
0.205407
0.155997
0.0272837
0.0116994
0.00965528
0.00893294
0.00948019
0.0102127
0.0134571
0.0172307
0.0250626
0.0308677
0.0423047
0.0600666
0.0768483
0.0338028
0.0865493
2.03767
2.61271
6.42717
23.0485
18.6498
16.3751
14.323
14.0602
12.0208
0.0891524
0.00409875
0.0198572
0.20583
0.0367634
0.00533251
0.00428448
0.0037372
0.00438541
0.00520657
0.0086338
0.0120821
0.0203754
0.0280979
0.0404471
0.0576302
0.0728848
0.0194988
0.0736233
2.14959
2.50085
6.83187
23.5857
19.2136
16.8858
15.0584
14.8444
11.7875
0.0602889
0.00391913
0.018047
0.176924
0.0571743
0.00802047
0.00675869
0.00654077
0.00732545
0.00837213
0.0111512
0.0141516
0.0203281
0.0272744
0.0376497
0.0534107
0.0681861
0.0182846
0.0643604
2.20682
2.51751
6.82071
24.3632
19.9953
17.5392
15.7576
15.3005
10.8425
0.0504733
0.00218666
0.0102487
0.016516
0.0140068
0.00553279
0.00510162
0.00539562
0.00623044
0.00767259
0.0101285
0.0129529
0.0181515
0.0247761
0.0342438
0.0471635
0.0604282
0.0175361
0.0577589
2.22182
2.41319
7.26711
24.5723
20.2438
17.7815
16.0416
15.2397
9.48373
0.086136
0.00441417
0.008907
0.00548002
0.00459493
0.00552633
0.00533289
0.00560387
0.00612257
0.00755148
0.0093571
0.0116822
0.0155305
0.0201834
0.0264313
0.0350731
0.0448555
0.0190885
0.0473878
2.21319
2.37802
7.39756
25.1865
20.774
18.2515
16.2731
14.7238
1.61363
0.00664595
0.00790638
0.00532092
0.00358268
0.00296634
0.00316921
0.00304911
0.00311973
0.0032961
0.00391709
0.00463032
0.00546654
0.00673924
0.00808057
0.00953634
0.0105148
0.0116322
0.0262339
0.0233902
2.09249
2.35207
0.164732
0.119911
0.429455
0.644371
0.989138
1.22379
1.56092
1.82531
2.1535
2.37049
2.58898
2.71121
2.76479
2.69023
2.51654
2.20371
1.78618
1.32344
0.879055
0.489097
0.241485
0.130733
0.113262
0.174485
0.43874
0.852649
0.852215
0.235598
0.459641
2.28469
2.17541
2.24105
2.29819
2.43372
2.62917
2.74924
2.83894
2.89034
3.00649
3.11047
3.01105
2.84384
2.61583
2.33041
1.98918
1.61325
1.2427
0.931642
0.687295
0.566425
0.543079
0.562757
0.75026
1.06903
1.6043
0.344453
0.291144
0.559477
0.500279
0.487031
0.472134
0.472353
0.467666
0.451701
0.445779
0.490607
0.905665
2.64405
2.4354
2.17711
1.97862
1.76947
1.56048
1.33393
1.0872
0.821227
0.589165
0.419862
0.357716
0.335392
0.443885
0.785357
1.48517
0.450055
0.215181
0.140024
0.117516
0.11851
0.103749
0.0943513
0.0817347
0.0746185
0.0744029
0.0921604
0.183118
0.66123
1.77049
1.65818
1.56846
1.45966
1.33621
1.1722
0.908767
0.612281
0.387621
0.236511
0.185001
0.18574
0.282588
0.60427
1.4085
0.642557
0.17675
1.72453
0.077371
0.0628732
0.0568759
0.0484412
0.0392269
0.0361737
0.0362677
0.0434796
0.0822801
0.339409
1.30455
1.17392
0.954021
0.669721
0.416543
0.218374
0.139518
0.116775
0.114125
0.119343
0.109841
0.083589
0.163313
0.445912
1.25979
0.632688
0.357047
5.34742
1.33444
0.0617503
0.0497591
0.0398948
0.0313991
0.0272357
0.0268619
0.0290476
0.0472549
0.193444
0.856837
0.53219
0.207174
0.0742929
0.0444875
0.0486227
0.0636069
0.069566
0.0726113
0.0898305
0.118431
0.127461
0.128959
0.409559
1.21573
0.764996
0.679002
6.2529
4.266
1.49804
1.31135
1.16548
0.751089
0.0320551
0.0298951
0.0281524
0.0299189
0.092276
0.469594
0.163819
0.0284428
0.00547092
0.0056593
0.0230439
0.0528209
0.06375
0.0659809
0.0740615
0.107282
0.149664
0.118445
0.347046
1.14355
0.770769
0.876489
6.30812
5.05908
4.05338
3.35984
2.80471
2.22791
0.920325
0.811289
0.512379
0.0254391
0.0412309
0.266684
0.0663847
0.00654665
0.00508208
0.0044168
0.0147825
0.0366609
0.0619919
0.0631469
0.0667874
0.079206
0.129
0.17328
0.302113
1.08465
0.762845
1.11121
6.22598
5.07751
4.37889
3.53633
2.88594
2.40969
2.00735
1.82927
1.34061
0.026784
0.021205
0.185143
0.032272
0.00604146
0.00643744
0.0170999
0.0164319
0.0200859
0.0556306
0.0615211
0.0638782
0.0691282
0.0952523
0.186831
0.244843
1.03024
0.738551
1.2014
6.14922
5.03215
4.30641
3.45812
2.79504
2.33356
2.08467
2.01317
1.28446
0.0328641
0.0102791
0.103614
0.0345603
0.0182542
0.0143905
0.0224889
0.0427641
0.0120631
0.0542007
0.0620021
0.061764
0.0642724
0.0747764
0.126311
0.232657
0.976455
0.752025
1.3601
6.08933
4.97609
4.21858
3.37983
2.72988
2.32644
2.13981
2.11157
0.940209
0.0418478
0.0145959
0.0935414
0.0485644
0.0368376
0.0189843
0.0190438
0.0334126
0.0259695
0.0537152
0.0625443
0.0595123
0.0616416
0.0660669
0.0794353
0.113248
0.957686
0.7137
1.38907
6.02539
4.92452
4.16906
3.32686
2.70068
2.32096
2.23192
2.03165
0.965011
0.3534
0.215011
0.115244
0.0698987
0.0424247
0.034053
0.0278822
0.0330297
0.033755
0.0610848
0.0626249
0.0573649
0.0588204
0.0628925
0.0679809
0.0959345
0.902322
0.694569
1.50682
5.96194
4.86772
4.13479
3.29366
2.69353
2.33893
2.31674
2.00409
0.81954
0.525688
0.29914
0.117613
0.0761368
0.0437056
0.0391308
0.0341687
0.0397344
0.0541796
0.0655017
0.058233
0.0548373
0.0564667
0.0613599
0.0647619
0.0912553
0.849478
0.690214
1.55489
5.91386
4.81705
4.11011
3.26846
2.6935
2.36655
2.43319
2.02553
0.736618
0.473433
0.299111
0.109797
0.0940425
0.0364909
0.036338
0.0365509
0.0469541
0.0493553
0.0511888
0.0499047
0.0504011
0.052424
0.0586395
0.0621624
0.0872574
0.788017
0.688854
1.55905
5.88253
4.782
4.07697
3.24581
2.69294
2.39245
2.53225
2.04507
0.636896
0.378197
0.244433
0.0991529
0.0891782
0.0295798
0.0279625
0.0368277
0.0428874
0.0382902
0.0386568
0.0427078
0.0452941
0.0489046
0.0563426
0.0606281
0.0821773
0.715655
0.681346
1.6528
5.8456
4.76781
4.05576
3.23259
2.69322
2.43631
2.66888
2.03406
0.552811
0.290415
0.217163
0.084756
0.0920264
0.0293165
0.0255894
0.0246139
0.0337243
0.0292415
0.0331372
0.0365996
0.0397366
0.0441738
0.0529897
0.0585613
0.0780523
0.642383
0.67075
1.63424
5.81942
4.76297
4.03073
3.21368
2.69047
2.49029
2.77142
1.96365
0.450042
0.239009
0.177782
0.073329
0.0576769
0.0376336
0.0245229
0.0270268
0.0347243
0.0312409
0.0323093
0.0319834
0.035302
0.0408408
0.0505799
0.0566079
0.07356
0.536379
0.686349
1.72838
5.8234
4.76777
4.02622
3.21031
2.70517
2.58537
2.87166
1.77566
0.379019
0.214807
0.182006
0.0508238
0.0282767
0.0260075
0.0266739
0.0282392
0.0379454
0.0405206
0.0348158
0.0290157
0.0315438
0.0372673
0.0474286
0.0535073
0.0691177
0.425249
0.711038
1.71268
5.86581
4.78192
4.0404
3.21891
2.74908
2.66364
2.81485
1.44149
0.258482
0.142131
0.136364
0.0289255
0.0146535
0.0290996
0.0250748
0.0276798
0.0453205
0.0613445
0.0417999
0.0270712
0.0284365
0.0347873
0.0450205
0.0495285
0.0640802
0.398951
0.742637
1.80361
5.93854
4.80652
4.07272
3.21833
2.80569
2.82613
2.81575
1.20852
0.185834
0.126651
0.117939
0.0274773
0.017451
0.0275514
0.0236465
0.0304182
0.0434767
0.0695168
0.0399746
0.0216977
0.0234412
0.031801
0.0417797
0.043803
0.0581589
0.415155
0.765817
1.79762
6.01512
4.86074
4.14072
3.33321
3.11201
3.35513
2.6567
0.718392
0.12074
0.109448
0.104953
0.0275442
0.0229127
0.0212509
0.0212169
0.0195792
0.0148473
0.0141891
0.0141069
0.0149687
0.0203768
0.0300863
0.0397099
0.0364168
0.0548355
0.488146
0.73119
1.89112
6.18741
5.01719
4.31256
3.62458
3.52124
3.27749
0.612162
0.0923292
0.131571
0.137607
0.0686003
0.00694397
0.00473704
0.00379867
0.00385866
0.00384291
0.00393085
0.00506164
0.0100377
0.0135532
0.0200758
0.0293543
0.0376831
0.0250869
0.0496521
0.574162
0.749454
1.9136
6.34642
5.17339
4.49153
3.89929
3.80696
3.20581
0.127118
0.0257291
0.0792098
0.0574323
0.0118955
0.00395508
0.00327984
0.00310887
0.00349502
0.00387665
0.00520669
0.00659752
0.00995471
0.0131914
0.0187897
0.0275598
0.0358385
0.0155667
0.041539
0.639189
0.712365
1.99462
6.58737
5.42191
4.72023
4.16777
4.10043
3.2872
0.049617
0.00560071
0.00949957
0.0669642
0.0123781
0.00256655
0.00205113
0.00194515
0.00232178
0.00280732
0.00423498
0.00570077
0.00896607
0.0125393
0.0182953
0.0265531
0.0339517
0.0126631
0.0366413
0.682106
0.722041
2.0358
6.71712
5.57288
4.88097
4.40907
4.38503
3.28226
0.0350095
0.00271438
0.0110137
0.0628822
0.0222467
0.00342956
0.00257385
0.00258326
0.00298215
0.00356091
0.00476327
0.00612475
0.00874779
0.011952
0.0166402
0.0239254
0.0309178
0.0124299
0.0322052
0.70337
0.685552
2.11493
6.93539
5.78586
5.10116
4.65296
4.5818
3.11829
0.031311
0.00207347
0.00460294
0.00804309
0.0063135
0.00243755
0.00210431
0.00222784
0.00255326
0.00327226
0.00426887
0.00547726
0.00755677
0.010286
0.0142373
0.0197606
0.0253567
0.0113755
0.027474
0.707735
0.677863
2.12688
7.01286
5.85866
5.19561
4.75403
4.55055
2.77356
0.0235396
0.00215469
0.00320915
0.00228157
0.00191742
0.00209106
0.00197589
0.00205356
0.00222393
0.00281175
0.00344844
0.0042693
0.00554288
0.00707274
0.0090682
0.0118571
0.0145083
0.0108785
0.0192027
0.706159
0.67573
2.22271
7.18521
6.01259
5.34346
4.81374
4.30668
0.601165
0.00781395
0.00209673
0.00132752
0.00106646
0.000943818
0.000903723
0.000867078
0.000884558
0.000936687
0.00108067
0.00121738
0.00135591
0.00152898
0.00170844
0.00190129
0.00201894
0.00206402
0.00742764
0.00519531
0.668645
0.662164
0.0741474
0.0398992
0.111633
0.164549
0.252809
0.31812
0.40963
0.484059
0.572808
0.629152
0.674885
0.691804
0.689723
0.641929
0.571369
0.465627
0.354868
0.253294
0.173666
0.111956
0.076115
0.0592285
0.0553774
0.0639962
0.100456
0.185823
0.190571
0.0896431
0.192163
0.533195
0.554981
0.601329
0.650917
0.710985
0.786189
0.83146
0.870719
0.902863
0.963282
1.00687
0.979245
0.923209
0.846664
0.744885
0.626266
0.503888
0.390812
0.304634
0.242232
0.215142
0.208565
0.211389
0.257714
0.35278
0.505824
0.157362
0.147567
0.211122
0.194565
0.192701
0.190948
0.192599
0.191039
0.186842
0.191409
0.232383
0.44186
0.94521
0.883482
0.79113
0.719726
0.64252
0.567866
0.487172
0.403387
0.315878
0.245475
0.199756
0.181762
0.165788
0.188388
0.287972
0.525828
0.151661
0.0939181
0.0723588
0.0621701
0.0606995
0.0526735
0.0482816
0.043222
0.0412389
0.0454021
0.0624902
0.121912
0.344741
0.667838
0.626687
0.594552
0.558208
0.515896
0.452017
0.340521
0.231366
0.15833
0.119231
0.107657
0.105698
0.128966
0.223034
0.500298
0.243066
0.060264
0.269337
0.0442733
0.0389649
0.0343808
0.0300127
0.0252849
0.0239695
0.0257432
0.0331889
0.0616378
0.190237
0.490388
0.449249
0.377643
0.279142
0.171383
0.0911731
0.0667225
0.0613874
0.061891
0.0686314
0.0739482
0.0717022
0.0946079
0.171143
0.444813
0.258668
0.128459
1.42443
0.207699
0.0368983
0.031466
0.0261835
0.021438
0.0199093
0.020119
0.0227858
0.0372374
0.111622
0.32383
0.204358
0.0836616
0.0348863
0.0234523
0.025687
0.0345132
0.0399994
0.0429488
0.0503908
0.0659409
0.0805875
0.0872474
0.162622
0.42866
0.269918
0.25692
2.01508
1.1476
0.258509
0.229097
0.206551
0.117095
0.022045
0.0217164
0.0217078
0.0248263
0.0562238
0.180328
0.0627733
0.0130994
0.00437098
0.00468698
0.0131321
0.026946
0.0352332
0.0383604
0.0421743
0.055535
0.0784686
0.0841254
0.149543
0.408213
0.274143
0.282286
2.10006
1.67681
1.20034
1.01162
0.86101
0.636017
0.176492
0.152364
0.0910518
0.0206034
0.0268528
0.104284
0.0279971
0.00427868
0.0033636
0.00336864
0.00883412
0.0183793
0.0325177
0.0355261
0.0379022
0.0427009
0.063983
0.0970812
0.138066
0.388967
0.266346
0.408331
2.07287
1.73472
1.46946
1.19559
0.987225
0.822129
0.634644
0.56663
0.408378
0.0210784
0.0159761
0.0767276
0.0156714
0.00512282
0.00435968
0.00893353
0.0148006
0.0121064
0.0310737
0.0343079
0.035692
0.0379985
0.0488039
0.0900322
0.125225
0.371365
0.268837
0.421171
2.03755
1.7132
1.46031
1.18172
0.966388
0.809782
0.719068
0.686686
0.457497
0.0348808
0.00796789
0.050037
0.015931
0.01283
0.00783465
0.0100735
0.0361682
0.0100901
0.0326276
0.0342213
0.0340007
0.0352029
0.040511
0.0594721
0.126624
0.355265
0.244624
0.487583
2.00905
1.67848
1.43016
1.15441
0.941959
0.805668
0.744938
0.749057
0.361525
0.0365609
0.0128818
0.0493692
0.0243667
0.0288443
0.0126902
0.0123144
0.0290257
0.0170011
0.0343831
0.0341706
0.0322755
0.0334376
0.0369051
0.0430584
0.0690841
0.355633
0.234789
0.493647
1.98107
1.65013
1.40886
1.1332
0.928519
0.803281
0.772062
0.716906
0.502983
0.125147
0.0938428
0.0598509
0.0370203
0.0319235
0.0194758
0.0172456
0.0289501
0.0220163
0.0380897
0.0339931
0.0305672
0.0313002
0.0351066
0.0384376
0.0552049
0.342532
0.233378
0.53275
1.95812
1.62933
1.39473
1.12045
0.924887
0.807458
0.795641
0.699268
0.341536
0.209965
0.126995
0.0619494
0.0445667
0.0328493
0.0300428
0.0282681
0.0339767
0.0390117
0.0393841
0.0310389
0.0281906
0.0293309
0.0337177
0.0368263
0.0523442
0.32454
0.233673
0.547629
1.94709
1.61645
1.38468
1.1124
0.924977
0.816075
0.831674
0.701423
0.389675
0.197168
0.157
0.0596878
0.0479655
0.0299474
0.0210454
0.021881
0.0379596
0.0359408
0.033067
0.0258177
0.024736
0.0264319
0.0316239
0.034821
0.0491405
0.304299
0.230976
0.550587
1.93885
1.61084
1.37248
1.10495
0.924684
0.824978
0.867048
0.710707
0.265765
0.159729
0.108883
0.0553741
0.0484802
0.0270392
0.0258327
0.0304178
0.0385743
0.0363105
0.027163
0.0210682
0.0212738
0.0240139
0.0298738
0.0335719
0.0463703
0.279201
0.230611
0.574853
1.92229
1.60765
1.36393
1.10093
0.924677
0.838982
0.913054
0.707537
0.287126
0.127141
0.111202
0.0503599
0.0459532
0.027929
0.0197131
0.0206028
0.0346727
0.028053
0.0231077
0.0176079
0.0181227
0.0212437
0.0277583
0.0318193
0.0433332
0.25457
0.225802
0.574533
1.91301
1.6031
1.35619
1.09393
0.923899
0.859388
0.954193
0.692213
0.232562
0.107558
0.0891778
0.0458671
0.0304297
0.0322282
0.0224857
0.0266281
0.0364473
0.0306106
0.0223166
0.0154327
0.0160218
0.0196528
0.0264024
0.0301306
0.0403601
0.218101
0.231552
0.598485
1.91766
1.59617
1.3535
1.0924
0.928939
0.894969
0.991255
0.631511
0.162468
0.098014
0.0829163
0.0362002
0.0237057
0.022941
0.0282886
0.0303942
0.0380492
0.0396807
0.0236821
0.0140011
0.0142494
0.0180649
0.0247544
0.0278246
0.037303
0.181248
0.233621
0.596562
1.93399
1.59427
1.35797
1.09663
0.944062
0.905929
0.955512
0.512536
0.133545
0.072231
0.0698851
0.0275908
0.0127151
0.0311089
0.0244283
0.0269734
0.0488367
0.063368
0.0278478
0.0129896
0.0126848
0.0171352
0.0236355
0.0251946
0.034315
0.170338
0.244713
0.62469
1.94883
1.59692
1.36621
1.08552
0.94234
0.925294
0.931251
0.43017
0.0964265
0.0650209
0.0598823
0.0265896
0.0164501
0.0291869
0.0231996
0.0317124
0.050949
0.0856652
0.0247947
0.00951505
0.0108323
0.016368
0.0223486
0.0216644
0.0314646
0.170999
0.258446
0.624113
1.96309
1.61042
1.37585
1.10623
1.0156
1.07173
0.865982
0.265336
0.067973
0.0614746
0.058967
0.0244612
0.0214548
0.0188868
0.0186006
0.0159957
0.0117439
0.0107572
0.00706907
0.0071945
0.0102614
0.016198
0.0217524
0.0176298
0.030139
0.187476
0.243939
0.655519
2.01264
1.66007
1.4167
1.18794
1.14178
1.03644
0.273182
0.0465823
0.0483823
0.0494712
0.026414
0.0036005
0.00266541
0.00217824
0.00225606
0.00226853
0.00249143
0.00319904
0.00516165
0.00693411
0.0105834
0.0159777
0.0207663
0.0123049
0.0274059
0.213413
0.231043
0.659096
2.06384
1.7098
1.47308
1.28351
1.23688
0.967692
0.0782646
0.0177117
0.0338473
0.0227996
0.00523792
0.00162775
0.00132973
0.00130226
0.00157204
0.00184237
0.00253591
0.00321624
0.00485822
0.00682377
0.0100118
0.0150448
0.0197775
0.00953588
0.0235601
0.239269
0.235555
0.686245
2.1349
1.7869
1.54737
1.37566
1.34517
0.997116
0.0361424
0.00533476
0.00547966
0.0246779
0.00520371
0.00140386
0.00107053
0.00108968
0.00133822
0.00168622
0.00239679
0.0031571
0.00471342
0.00663938
0.00973016
0.0142174
0.0182447
0.00860789
0.0209632
0.257327
0.200039
0.689207
2.1708
1.83037
1.60627
1.46745
1.46371
1.02311
0.0300027
0.00257731
0.00707816
0.0267796
0.0105601
0.00172137
0.00113697
0.0011815
0.00140545
0.00178873
0.00239059
0.00310545
0.00435192
0.00600941
0.00838252
0.0120846
0.015657
0.00828734
0.0178716
0.265965
0.195565
0.715968
2.24183
1.89714
1.68998
1.56716
1.56281
1.00732
0.0210567
0.00143794
0.0022927
0.00406723
0.00334248
0.00121134
0.000989314
0.00105208
0.00119855
0.00161517
0.0020758
0.00265485
0.0035559
0.00473956
0.00646988
0.00889773
0.0111382
0.00698051
0.0137656
0.267543
0.167868
0.720087
2.27366
1.92503
1.73122
1.60873
1.54664
0.909805
0.0146578
0.00114999
0.00125468
0.0010682
0.000926041
0.000886692
0.000827199
0.000854055
0.000922914
0.00118765
0.00142939
0.0017264
0.00213955
0.00260707
0.00320193
0.00406731
0.00460808
0.00567781
0.00753469
0.267747
0.160344
0.741172
2.32945
1.98306
1.78307
1.62003
1.43492
0.276819
0.00928035
0.000761218
0.000488306
0.000436194
0.000413241
0.000373874
0.000364121
0.000373299
0.000399281
0.000450048
0.000487231
0.000517339
0.000545814
0.000600492
0.000667545
0.000717673
0.000668355
0.00205488
0.00202292
0.25503
0.136934
0.0541994
0.0267826
0.0543835
0.0712794
0.0992901
0.11976
0.147593
0.169284
0.193273
0.206945
0.214133
0.21377
0.207421
0.187618
0.165455
0.135788
0.110231
0.087552
0.070969
0.0572406
0.0490542
0.044648
0.0427262
0.0431332
0.0474352
0.0607058
0.0592003
0.0464726
0.083044
0.146999
0.161825
0.186409
0.211771
0.236924
0.266122
0.283122
0.300142
0.316599
0.343884
0.357973
0.34856
0.327141
0.29949
0.263139
0.224398
0.188359
0.157471
0.135345
0.120309
0.114124
0.111401
0.106677
0.113357
0.135007
0.177952
0.0778119
0.0712665
0.0899693
0.0834358
0.0838562
0.0839143
0.0846979
0.0842336
0.0839864
0.0920107
0.122822
0.228084
0.377379
0.357186
0.321085
0.29441
0.2648
0.238616
0.210331
0.181654
0.151298
0.129279
0.117315
0.112361
0.100223
0.0994352
0.123756
0.206357
0.0811874
0.0557866
0.0393659
0.0338729
0.0321212
0.0280332
0.0261101
0.0244445
0.0246705
0.0299281
0.0439868
0.082311
0.188478
0.28457
0.266735
0.253784