/*--------------------------------*- C++ -*----------------------------------*\
| =========                 |                                                 |
| \\      /  F ield         | OpenFOAM: The Open Source CFD Toolbox           |
|  \\    /   O peration     | Version:  2.3.0                                 |
|   \\  /    A nd           | Web:      www.OpenFOAM.org                      |
|    \\/     M anipulation  |                                                 |
\*---------------------------------------------------------------------------*/
FoamFile
{
    version     2.0;
    format      ascii;
    class       volVectorField;
    location    "4.00055";
    object      U.air;
}
// * * * * * * * * * * * * * * * * * * * * * * * * * * * * * * * * * * * * * //

dimensions      [0 1 -1 0 0 0 0];

internalField   nonuniform List<vector> 
18816
(
(-0.00686361 0.0143387 -0.00282586)
(-0.0160237 0.0192251 -0.000265071)
(-0.0284687 0.0173274 -0.00204058)
(-0.0344893 0.017276 -0.00213603)
(-0.0442818 0.0178449 -0.00239986)
(-0.0499739 0.0174586 -0.00238456)
(-0.0582548 0.0180059 -0.00253844)
(-0.0640195 0.0184294 -0.0026103)
(-0.0710683 0.0196682 -0.00271512)
(-0.0764665 0.0211685 -0.00277765)
(-0.0825724 0.0231573 -0.00288042)
(-0.0876014 0.0247625 -0.00293763)
(-0.092651 0.0246352 -0.00290632)
(-0.0959785 0.0255214 -0.0030178)
(-0.0980831 0.0265165 -0.00312686)
(-0.098404 0.0278956 -0.00333738)
(-0.0956472 0.0288884 -0.00355965)
(-0.0890884 0.0300061 -0.00378787)
(-0.0784527 0.0301037 -0.00396658)
(-0.0624326 0.0286562 -0.004052)
(-0.0426418 0.0274297 -0.00385775)
(-0.0164847 0.0267723 -0.00355957)
(0.00665653 0.0260314 -0.00331747)
(0.0302236 0.0250508 -0.00349337)
(0.0526251 0.0240579 -0.003115)
(0.0538382 0.0271255 -0.00248131)
(0.041184 0.0292401 -0.00249453)
(0.018436 0.0227846 -0.00455853)
(-0.00924774 0.0791601 -0.0029201)
(-0.0218582 0.0918768 -0.00398307)
(-0.0282383 0.0812361 -0.00385813)
(-0.0338657 0.0783218 -0.0036626)
(-0.0412224 0.0737105 -0.00354472)
(-0.0469113 0.0721008 -0.00344115)
(-0.0544207 0.0708022 -0.00329585)
(-0.0602325 0.0693787 -0.00309233)
(-0.0667239 0.0671291 -0.00288973)
(-0.0715059 0.0642084 -0.00265529)
(-0.0764248 0.0608808 -0.00214558)
(-0.0794417 0.0583722 -0.000572971)
(-0.083361 0.0568633 -0.000553111)
(-0.0855772 0.0552741 -0.000458365)
(-0.0867761 0.0546893 -0.000382657)
(-0.0869198 0.0546698 -0.000318769)
(-0.084856 0.0553868 -0.000268213)
(-0.0795393 0.0556775 -0.000215785)
(-0.070572 0.0554116 -0.000174378)
(-0.0568374 0.0559209 -0.000191777)
(-0.0404486 0.055497 -0.000185339)
(-0.0193932 0.0542384 -0.000163423)
(-0.000324025 0.053738 -0.000123719)
(0.0200752 0.0483934 -8.24294e-05)
(0.0362435 0.0472068 -4.63472e-05)
(0.0383874 0.051363 0.00010355)
(0.0292652 0.066504 -2.74206e-05)
(0.0129502 0.103031 -0.00382161)
(-0.00252363 0.109432 -0.00173463)
(-0.00451834 0.104503 -0.00760319)
(-0.0167746 0.0968058 -0.00585865)
(-0.0208166 0.0944642 -0.00597212)
(-0.0274365 0.0909938 -0.00589782)
(-0.0325949 0.0888514 -0.00588842)
(-0.0386671 0.0858094 -0.00597018)
(-0.0422595 0.0819227 -0.00580355)
(-0.0455631 0.0780679 -0.00549265)
(-0.0490599 0.0741754 -0.00505482)
(-0.0577916 0.0664182 -0.00757505)
(-0.0693754 0.0535694 -0.0017211)
(-0.0732519 0.0506114 0.000427912)
(-0.0753969 0.0481992 0.000274674)
(-0.0776622 0.0465786 0.00028505)
(-0.078423 0.0451038 0.000323691)
(-0.0777832 0.0426636 0.000395049)
(-0.0749027 0.0398141 0.000417838)
(-0.0684029 0.036866 0.000375068)
(-0.0567957 0.0340933 0.000262996)
(-0.0415297 0.0305678 6.01342e-05)
(-0.0224496 0.0277972 -0.000190748)
(-0.00476894 0.0273063 -0.000327191)
(0.0137458 0.0234938 -0.000377942)
(0.0256101 0.028802 -0.000147319)
(0.0313248 0.0438918 0.000322399)
(0.0189155 0.0628985 0.000531019)
(0.00826594 0.115309 -0.00226986)
(0.00100514 0.133558 -0.000171937)
(0.00135313 0.13276 0.0066723)
(-0.0108313 0.104784 -0.0025714)
(-0.0108192 0.101666 -0.000439133)
(-0.0158727 0.0970093 -0.000548377)
(-0.0192666 0.0943211 -0.000479015)
(-0.0234709 0.0907086 -0.000596906)
(-0.0255113 0.0869266 -0.000694748)
(-0.0272432 0.0825589 -0.000624196)
(-0.0286016 0.0785604 -0.000391227)
(-0.0343288 0.0708835 -0.000584833)
(-0.0484737 0.0579076 -0.00541495)
(-0.0607912 0.0473679 -0.00034195)
(-0.0649941 0.0449845 0.000462098)
(-0.0680287 0.0436064 0.000504882)
(-0.0696271 0.0409516 0.00083257)
(-0.070281 0.0379122 0.0012261)
(-0.0690895 0.033909 0.00162635)
(-0.0642939 0.0280106 0.00162135)
(-0.0528499 0.0223913 0.00138778)
(-0.0393275 0.0182066 0.00097945)
(-0.0223612 0.0153846 0.000486952)
(-0.00667635 0.0159884 0.000111867)
(0.00939058 0.0163569 0.000103032)
(0.0174337 0.025605 0.000175346)
(0.0223924 0.0441644 0.000462803)
(0.0115699 0.0679784 0.000593116)
(0.00472591 0.123712 -0.00112515)
(0.00264619 0.140077 0.000116131)
(-0.00298102 0.134729 0.00464812)
(-0.00564663 0.117347 0.00707432)
(-0.00720364 0.106205 -0.0012756)
(-0.011341 0.100689 -0.00106113)
(-0.0137204 0.0965643 -0.000919787)
(-0.0174863 0.0913562 -0.000876034)
(-0.0183963 0.0859195 -6.01698e-07)
(-0.0195253 0.0815175 -4.85382e-05)
(-0.0203312 0.0767944 4.19435e-05)
(-0.0233068 0.0678087 0.000159501)
(-0.0354913 0.0542146 -0.00238138)
(-0.050812 0.0460123 -0.000281142)
(-0.0534481 0.0425911 0.000342557)
(-0.0532331 0.0375079 0.000773198)
(-0.0507946 0.0279491 0.00137312)
(-0.049479 0.0180914 0.00151148)
(-0.049602 0.00669979 0.0013663)
(-0.0493339 -0.00300396 0.00114043)
(-0.044526 -0.00937524 0.000930032)
(-0.0366367 -0.0106761 0.000920839)
(-0.0254242 -0.0108163 0.000774726)
(-0.0118169 -0.00528342 0.000561559)
(0.00142409 -0.00246021 0.000104596)
(0.00898634 0.0164553 7.22865e-05)
(0.013371 0.0393173 0.000195302)
(0.00735712 0.0664106 0.000326887)
(0.00393957 0.124958 -0.00074958)
(0.00216011 0.141427 2.78636e-05)
(-0.00451736 0.133043 0.00188935)
(-0.0102565 0.122159 0.00425493)
(-0.00482848 0.112975 0.00700183)
(-0.00807166 0.105257 0.00613925)
(-0.00938984 0.0998213 0.00571903)
(-0.0121922 0.0935026 0.00476806)
(-0.0130364 0.0864519 -0.000572886)
(-0.0143852 0.0821551 -0.000442604)
(-0.0145071 0.076935 -0.000296945)
(-0.0156612 0.0655853 0.000402289)
(-0.0229723 0.0520848 -0.00144388)
(-0.0346893 0.0437954 -3.96127e-05)
(-0.0313506 0.0342986 0.000303321)
(-0.0233793 0.0201824 0.000476768)
(-0.0169871 0.00619596 0.000503152)
(-0.0189167 -0.000931979 0.000755547)
(-0.0288913 -0.00720144 0.000997742)
(-0.0389549 -0.0163573 0.000898764)
(-0.0403952 -0.0242849 0.000624736)
(-0.0365339 -0.0281355 0.000343349)
(-0.0290851 -0.0296961 0.00018625)
(-0.0186281 -0.0256138 0.000244978)
(-0.00684537 -0.0113879 0.000137754)
(0.00123824 0.0111554 0.000313899)
(0.00746639 0.0383137 0.000131134)
(0.00385011 0.0668096 0.000304678)
(0.00266693 0.124519 -0.000355476)
(0.00152628 0.14103 -0.000245093)
(-0.00495993 0.130888 0.000780363)
(-0.0104299 0.117682 0.00168894)
(-0.0108896 0.115081 0.00397948)
(-0.0158665 0.105335 0.00361423)
(-0.0170851 0.0966798 0.00337874)
(-0.0189131 0.0887602 0.00322133)
(-0.0103318 0.0866618 0.00495294)
(-0.0104653 0.0824778 0.00425794)
(-0.0109644 0.0754986 0.00352354)
(-0.0109837 0.0628734 -4.51601e-05)
(-0.013266 0.0466028 -0.000622886)
(-0.0185636 0.0356895 -0.000108349)
(-0.0118727 0.0217023 -3.67671e-05)
(-0.00431098 0.00683927 5.66779e-05)
(0.000201641 0.000453451 9.34103e-05)
(-0.000490296 0.00077835 0.000181364)
(-0.0070168 -0.00322186 0.000613641)
(-0.0214866 -0.0181216 0.000862409)
(-0.0293145 -0.0317528 0.000576841)
(-0.030603 -0.0362664 0.000544541)
(-0.0283077 -0.038633 0.000200953)
(-0.0222314 -0.0382829 0.000238285)
(-0.0142071 -0.0273255 0.000293716)
(-0.00627092 -0.00397717 0.00028284)
(0.00368792 0.032351 -9.45723e-05)
(0.00195209 0.0645079 0.00018118)
(0.00215784 0.123471 -0.000209399)
(0.000836332 0.140002 -0.000407276)
(-0.00426639 0.129406 0.00042489)
(-0.00859418 0.114731 0.000750627)
(-0.0105486 0.108793 0.00154393)
(-0.01358 0.0983955 0.00141308)
(-0.0139494 0.088523 0.00128447)
(-0.0152371 0.081491 0.00128357)
(-0.013984 0.0820075 0.00282265)
(-0.0147949 0.0793814 0.00264952)
(-0.0148101 0.0736841 0.00241716)
(-0.00856983 0.0601387 0.00060486)
(-0.00668649 0.0429104 -8.72363e-05)
(-0.00705481 0.0290747 -3.27294e-05)
(-0.00203685 0.0145353 0.000117093)
(0.00058041 0.00227971 9.03881e-05)
(0.00229915 -0.00133688 -1.79992e-05)
(0.00117266 0.000504558 2.14695e-05)
(0.00142938 -0.00556153 0.00015186)
(-0.00491457 -0.0138565 0.000533502)
(-0.0182382 -0.0342208 0.000387895)
(-0.0229243 -0.0430376 0.000486391)
(-0.0243359 -0.0440974 0.000214217)
(-0.0212169 -0.045043 0.000170308)
(-0.0162931 -0.0388536 0.000231421)
(-0.0105796 -0.0146888 0.000262694)
(0.000556532 0.0282815 -0.000231952)
(0.00106683 0.0628303 0.000120115)
(0.0013709 0.123462 -0.000123744)
(0.000163066 0.139156 -0.000417842)
(-0.00340094 0.128432 0.000226552)
(-0.00632785 0.112833 0.000349119)
(-0.0074224 0.105103 0.000477513)
(-0.00888365 0.0940976 0.000385786)
(-0.00824009 0.0842391 0.000321883)
(-0.00903089 0.0768711 0.000370028)
(-0.00854437 0.0742052 0.000919991)
(-0.00977804 0.0727137 0.0009194)
(-0.00954774 0.0657496 0.0011137)
(-0.00386839 0.0555538 0.000748621)
(-0.00312169 0.0372576 0.000122015)
(-0.00109024 0.02375 0.000189716)
(0.000738391 0.00807545 0.000171674)
(-0.000399057 0.000307804 7.99293e-06)
(0.00183206 0.00175236 -0.000138444)
(-0.00774549 0.00125747 5.90462e-05)
(0.00256312 0.00188579 -0.00115407)
(0.00451462 -0.00758551 2.56779e-05)
(-0.0075358 -0.0253458 9.19204e-05)
(-0.0160217 -0.0439106 0.000370912)
(-0.0203503 -0.0469536 0.000233592)
(-0.019714 -0.0481362 7.07015e-05)
(-0.0169626 -0.0457862 0.000187325)
(-0.0132387 -0.028316 0.000317874)
(-0.00187145 0.0211694 -0.000213929)
(-0.00114452 0.0607274 7.96314e-06)
(0.00106651 0.12312 4.22424e-05)
(-0.0002081 0.139041 -0.000360555)
(-0.0026424 0.127685 0.000162391)
(-0.00443573 0.11218 0.000149273)
(-0.0047628 0.103734 0.00017957)
(-0.00554556 0.0927707 0.000107214)
(-0.00470697 0.0827886 7.28607e-05)
(-0.00556956 0.0756528 8.94769e-05)
(-0.00518582 0.0720057 0.000207973)
(-0.0104399 0.0722523 0.000506657)
(-0.0104771 0.0557508 0.00045357)
(-0.00251176 0.0505245 0.000404089)
(-0.00151424 0.0316383 -3.16254e-05)
(0.00275701 0.0148776 -1.14e-05)
(0.00255585 0.0092583 -0.000184314)
(0.00413733 0.000725298 -0.000307313)
(0.00341983 0.00613888 -0.000254106)
(0.0105566 0.00491456 -0.000441543)
(0.0076333 0.00365613 0.000737861)
(0.000852607 0.000282376 -0.00032864)
(-0.00212079 -0.0188954 0.00022261)
(-0.0116384 -0.0438976 0.000387374)
(-0.016695 -0.0488181 0.000966156)
(-0.0173478 -0.049417 6.88902e-05)
(-0.0163105 -0.0489213 0.000120866)
(-0.0151457 -0.0370588 0.000537433)
(-0.00417511 0.0160447 0.000319856)
(-0.00167707 0.0586078 3.94066e-06)
(0.000383785 0.122982 7.61113e-05)
(-0.000476193 0.139156 -0.000279096)
(-0.00202313 0.126875 9.30177e-05)
(-0.00301394 0.111917 4.94985e-05)
(-0.00266748 0.102769 6.12705e-05)
(-0.00307602 0.0918979 3.2249e-05)
(-0.00161617 0.082184 9.02899e-06)
(-0.00324332 0.0759064 0.000105065)
(-0.00209564 0.0735816 0.000219032)
(-0.0148264 0.0715314 0.000965243)
(-0.0126995 0.0493434 -0.00083521)
(0.00259308 0.0483086 0.00213926)
(0.000729502 0.0333258 0.000940368)
(0.00449315 0.0151456 -7.42655e-05)
(0.00467728 0.010275 -0.000177632)
(0.00394951 0.00545095 -4.24779e-05)
(0.00235819 0.00478405 -0.000133234)
(0.00603634 0.00332109 -0.000185073)
(0.00734488 -0.00202377 9.39016e-05)
(0.00611937 0.00472696 0.000123171)
(0.00127887 -0.0138195 0.000296456)
(-0.0069786 -0.0444215 0.000461707)
(-0.0128184 -0.0500264 0.000897005)
(-0.0142898 -0.0503883 2.73921e-05)
(-0.0143915 -0.0500022 4.31389e-05)
(-0.0143628 -0.0439636 0.000282305)
(-0.00550625 -0.00761992 0.000488409)
(0.00103893 0.0569406 -6.57303e-06)
(-0.000152494 0.124024 -7.69019e-05)
(-0.000586909 0.139647 -0.000222873)
(-0.00163682 0.126321 -4.20826e-06)
(-0.00213473 0.111853 7.80524e-07)
(-0.00140961 0.102192 6.59245e-06)
(-0.00152888 0.0912289 -1.21783e-05)
(-9.19584e-05 0.0818972 -1.12602e-05)
(-0.00150609 0.0757665 3.95512e-05)
(-0.000939847 0.0756848 0.000252321)
(-0.0119186 0.070713 0.000486173)
(-0.00907846 0.0466817 4.3566e-05)
(-0.00254035 0.0454185 0.00122537)
(0.000163362 0.0341981 0.000578497)
(0.00231923 0.01567 -3.88694e-05)
(0.0030134 0.0141592 -0.000226174)
(0.00379749 0.00611886 -7.21218e-05)
(0.0034294 0.00918307 -0.000181274)
(0.00593701 0.00667907 -0.000161769)
(0.00608645 0.000134842 -2.99375e-05)
(0.00812259 0.00514309 -3.26033e-05)
(0.00752283 -0.0114582 0.000688531)
(-0.00286584 -0.0446848 0.000572718)
(-0.008504 -0.049997 0.000588253)
(-0.0106988 -0.0510762 6.10967e-05)
(-0.0107986 -0.0497549 1.9545e-05)
(-0.0106228 -0.0465707 2.70731e-05)
(-0.00432056 -0.021586 -8.86276e-05)
(0.00395551 0.053701 -9.07469e-06)
(-0.000666476 0.126438 -0.000355822)
(-0.000657519 0.140113 -0.000180487)
(-0.00134049 0.126131 -1.0358e-05)
(-0.00156767 0.111492 -1.62116e-07)
(-0.000609197 0.101698 -1.99191e-05)
(-0.000580342 0.0907727 -2.72045e-05)
(0.000928043 0.0818473 -1.4169e-05)
(-0.000552753 0.0763646 5.25097e-05)
(-0.000327976 0.0776479 0.000211537)
(-0.0101727 0.0718376 0.000519637)
(-0.0109856 0.0413311 0.000135737)
(-0.0050948 0.0365088 0.000241726)
(-0.000488545 0.0287131 0.000108298)
(0.00228818 0.0148765 -7.81177e-05)
(0.00283835 0.0120183 -1.02172e-05)
(0.00281922 0.00641541 -4.34557e-05)
(0.00470728 0.005141 1.55223e-06)
(0.00555147 0.00281532 -5.13779e-08)
(0.00665483 -0.00168096 4.55901e-05)
(0.0120396 -0.000578749 0.000235994)
(0.0111379 -0.0173438 0.00111363)
(-9.45273e-05 -0.0460599 0.000612474)
(-0.00502629 -0.0501918 0.000254698)
(-0.00744666 -0.051728 5.89364e-05)
(-0.00753068 -0.0505441 -3.46749e-05)
(-0.00740335 -0.0479339 -2.72001e-05)
(-0.00296246 -0.0266902 -2.59229e-05)
(0.00339167 0.0518727 -1.95135e-05)
(-0.000639072 0.128606 -0.000282986)
(-0.000735075 0.141053 -0.000156153)
(-0.00120751 0.125561 6.14268e-05)
(-0.001267 0.110864 1.56492e-05)
(-0.000223455 0.101402 -3.44632e-05)
(-0.000114434 0.0903721 -3.25405e-05)
(0.00109436 0.0818626 -1.4129e-05)
(-0.000154625 0.0768499 3.32298e-05)
(-7.78053e-05 0.0800222 0.00021973)
(-0.00941878 0.0735578 0.000535717)
(-0.0105157 0.0375941 4.81263e-05)
(-0.00551877 0.0324716 -0.000162266)
(-0.00101354 0.0271803 -5.54151e-05)
(0.00152635 0.0135478 -8.70551e-05)
(0.00163049 0.0159048 3.31843e-05)
(0.000732127 0.00489466 -2.93276e-05)
(0.00424432 0.0079731 1.05356e-05)
(0.00632676 0.00634461 2.9746e-05)
(0.00920352 -0.00534119 0.000119466)
(0.0157816 -0.0043324 0.000297876)
(0.0131313 -0.0246705 0.00113386)
(0.00145072 -0.0470317 0.000450586)
(-0.00127957 -0.0497649 0.000208761)
(-0.00419279 -0.0509504 3.56386e-05)
(-0.00413367 -0.0511724 2.61355e-06)
(-0.00456396 -0.04846 -2.81817e-05)
(-0.00162041 -0.0308232 -4.05434e-05)
(0.00291844 0.0497016 -7.75128e-06)
(-0.000309814 0.129763 -0.000231866)
(-0.000725273 0.141731 -0.000140738)
(-0.00112171 0.124718 3.84898e-05)
(-0.00118674 0.110012 2.38424e-05)
(-0.000188551 0.101021 -3.52713e-05)
(-0.000137127 0.090057 -3.10848e-05)
(0.000940298 0.0818736 -1.33093e-05)
(-8.42945e-05 0.0773267 4.33249e-05)
(-0.000758953 0.0816065 0.00028817)
(-0.010432 0.073973 0.000656795)
(-0.0130084 0.0358032 0.000156548)
(-0.00678422 0.02839 -0.000156065)
(-0.00282129 0.0237009 -1.25517e-05)
(-0.000843634 0.0125181 -4.367e-05)
(-0.000107612 0.0135422 -3.81447e-06)
(-0.000492608 0.00334278 3.00626e-05)
(0.00413467 0.000196539 0.000224868)
(0.00985883 -0.00207912 0.000346146)
(0.0133093 -0.0111215 0.000182118)
(0.0163192 -0.0114342 0.000139613)
(0.0117524 -0.029565 0.000799714)
(0.00298387 -0.0462142 0.00020708)
(0.00152414 -0.0488973 0.000119266)
(-0.00121789 -0.0501856 1.61503e-05)
(-0.00115768 -0.0515636 1.20391e-05)
(-0.00168714 -0.0488553 -1.29366e-05)
(0.000230713 -0.032392 3.47823e-06)
(0.00272498 0.0477679 4.51509e-05)
(7.34705e-05 0.13059 -0.000211129)
(-0.000667069 0.142963 -0.000149502)
(-0.00115095 0.124393 -5.80306e-05)
(-0.00134178 0.10946 -7.04736e-06)
(-0.000430465 0.100958 -3.64956e-05)
(-0.000487389 0.0899076 -2.71463e-05)
(0.000402903 0.0819268 -1.11436e-05)
(-0.000488062 0.0782533 4.74713e-05)
(-0.00209346 0.0839959 0.00034168)
(-0.0119689 0.0742402 0.000695007)
(-0.0123806 0.0318548 0.000159661)
(-0.00662608 0.0239515 -0.000185823)
(-0.00331276 0.0218766 0.000114822)
(-0.00131029 0.0106714 -5.89819e-05)
(9.85053e-05 0.0146625 0.000183075)
(0.00245704 -0.00123638 3.76854e-05)
(0.00833234 -0.007497 0.000318697)
(0.0104033 -0.0104568 0.000354843)
(0.0139251 -0.015262 5.00892e-05)
(0.0134306 -0.0127253 0.000397054)
(0.0101238 -0.0304258 0.00044254)
(0.00407615 -0.0444285 2.87077e-05)
(0.00394948 -0.0467986 4.788e-05)
(0.00135794 -0.0484295 -3.1479e-05)
(0.00140984 -0.0505289 8.7805e-06)
(0.000844132 -0.0485219 4.81497e-05)
(0.00212003 -0.0336359 3.00058e-05)
(0.00301852 0.0462491 0.000166383)
(0.000204877 0.131902 -0.000213553)
(-0.000604147 0.143996 -0.000149851)
(-0.00123493 0.124881 -4.14002e-05)
(-0.00170827 0.109261 -3.08921e-05)
(-0.000968454 0.100709 -1.64901e-05)
(-0.00118483 0.08973 -2.78503e-05)
(-0.000220634 0.0819172 -1.09579e-05)
(-0.00144088 0.0789432 0.000143856)
(-0.00429631 0.0850208 0.00047309)
(-0.0143949 0.0721783 0.000794145)
(-0.0123855 0.0291098 2.40028e-07)
(-0.0092689 0.0208168 -9.27403e-05)
(-0.00467807 0.0203864 -0.000227714)
(-0.00472698 0.00859109 -1.68248e-05)
(0.00284587 0.0100761 -0.000267165)
(0.00619877 -0.00782551 0.000391817)
(0.00736456 -0.0125163 -0.000292073)
(0.0130203 -0.0143622 -0.000189274)
(0.0142121 -0.0180658 0.00033807)
(0.0124297 -0.0145723 -0.000103026)
(0.0128035 -0.0287265 0.00029926)
(0.00558406 -0.04155 -6.54118e-05)
(0.00599086 -0.0441045 1.89532e-05)
(0.00327723 -0.0465681 -6.17216e-05)
(0.00325748 -0.0495927 3.13922e-06)
(0.00282393 -0.0484709 0.000146325)
(0.00387843 -0.0345745 4.22199e-05)
(0.00363966 0.0436453 0.000357299)
(-0.000124358 0.132622 -0.000207985)
(-0.000642924 0.145415 -0.000168321)
(-0.00143579 0.125303 4.29443e-05)
(-0.00214282 0.109843 -6.0375e-05)
(-0.00177932 0.100987 -2.04294e-05)
(-0.00232234 0.0899473 -1.80984e-05)
(-0.00175788 0.0823349 3.25441e-05)
(-0.0042571 0.0803012 0.000201202)
(-0.00940154 0.0863682 0.000511301)
(-0.0170965 0.0691644 0.000611864)
(-0.0135249 0.026668 0.000217421)
(-0.00953216 0.0193851 -8.82323e-05)
(-0.00712527 0.0206886 7.06574e-05)
(-0.00549197 0.00592775 0.000251336)
(0.00359826 0.00488145 0.000346653)
(0.00778812 -0.0106168 0.000123399)
(0.0099672 -0.0141609 0.000113244)
(0.00993508 -0.0163588 -3.57735e-05)
(0.013051 -0.0184713 -3.13518e-06)
(0.0155401 -0.0173469 0.000364206)
(0.0129405 -0.0266407 0.000224985)
(0.00587673 -0.0385153 -0.000168061)
(0.00724442 -0.0410613 7.60131e-06)
(0.0044598 -0.0441027 -7.46034e-05)
(0.00442189 -0.0480829 1.25678e-05)
(0.00386471 -0.048153 0.00035351)
(0.0046347 -0.0352626 5.39778e-05)
(0.00389582 0.0402537 0.000429155)
(-0.000587312 0.13223 -0.000188069)
(-0.000539478 0.14685 -0.00020423)
(-0.00171206 0.125612 4.27267e-05)
(-0.00289235 0.110712 -4.31891e-05)
(-0.00297027 0.101403 1.16139e-05)
(-0.00382653 0.0900348 4.06845e-05)
(-0.00454848 0.0829576 0.000112406)
(-0.00866174 0.0825018 8.29039e-05)
(-0.0126525 0.0863924 0.000245072)
(-0.016275 0.0625499 0.000508316)
(-0.0115692 0.0188026 0.000301745)
(-0.00672116 0.0137813 -0.000112738)
(-0.00573293 0.0160015 0.000213079)
(-0.00138181 -0.00603645 0.000193963)
(0.00174778 -0.00876966 0.000263258)
(0.00565925 -0.0169072 -0.000300898)
(0.00888133 -0.0163161 0.000295113)
(0.00649869 -0.0185153 0.000413936)
(0.0121146 -0.0257707 -0.000418969)
(0.0203587 -0.0247114 0.00058191)
(0.0172627 -0.0281341 0.00101454)
(0.00570801 -0.0358794 -9.57754e-05)
(0.00785489 -0.0390344 8.04905e-05)
(0.00489079 -0.0422474 -4.58661e-05)
(0.00452529 -0.0470339 1.89457e-05)
(0.0041036 -0.0476132 0.000549339)
(0.00386177 -0.0357674 4.94957e-05)
(0.00296597 0.0390557 0.000347841)
(-0.00169861 0.130257 -0.000154786)
(-0.00046001 0.148627 -0.000231549)
(-0.002034 0.126685 -4.69161e-05)
(-0.00373395 0.112072 -2.8454e-05)
(-0.00445128 0.10229 3.15137e-06)
(-0.00648836 0.0910969 -5.81067e-05)
(-0.00803229 0.0858817 -9.40546e-05)
(-0.0142606 0.088698 -9.25837e-05)
(-0.0193933 0.0894604 0.000232316)
(-0.0225903 0.0608618 0.000307096)
(-0.0103859 0.0192445 -0.000340441)
(-0.00632498 0.0160891 -0.00036404)
(-5.09039e-05 0.0183612 -0.000577511)
(-0.000153607 -0.00851731 -0.000238947)
(0.000353386 -0.00931384 -0.000549212)
(0.00104108 -0.0156362 -0.000265236)
(0.000823688 -0.0161496 -0.000714799)
(0.00735714 -0.0214532 -0.000696089)
(0.0105365 -0.0282761 -0.00048212)
(0.0249838 -0.0328584 -0.000596141)
(0.0227978 -0.0362921 0.00157451)
(0.00877566 -0.034342 7.02138e-06)
(0.00868958 -0.0367624 9.38729e-05)
(0.00569844 -0.0400494 -1.65331e-05)
(0.0042248 -0.0450408 2.22e-05)
(0.00322468 -0.046082 0.000393741)
(0.0018546 -0.0346328 -8.98531e-06)
(0.00111116 0.0405243 7.66646e-05)
(-0.0019205 0.127171 -9.55185e-05)
(-0.000464347 0.150685 -0.000353732)
(-0.0026455 0.128858 -6.48651e-05)
(-0.00511281 0.113832 5.00512e-06)
(-0.00658307 0.104788 -3.16922e-05)
(-0.00938059 0.0955257 -3.89406e-05)
(-0.0140139 0.0942153 -3.75466e-05)
(-0.0222137 0.0993388 -0.00011029)
(-0.0262681 0.093116 -0.0019013)
(-0.0246004 0.0484086 -0.000511946)
(-0.0172845 0.0155035 -0.000499966)
(-0.0132398 0.0167976 -0.000512876)
(-0.0114057 0.0203717 -0.000613811)
(-0.00910129 0.000767462 -0.00121034)
(-0.00747016 3.03382e-05 -0.00137524)
(-0.00486113 -0.00471865 -0.00162536)
(-0.00433407 -0.00599428 -0.00188938)
(0.0042284 -0.0102615 -0.00229353)
(0.00598506 -0.0146114 -0.00206438)
(0.0256982 -0.0192367 -0.00243083)
(0.0247653 -0.027043 7.73997e-05)
(0.0125291 -0.0268972 -0.000163581)
(0.00891131 -0.0308461 -4.22005e-05)
(0.0058873 -0.0365366 -3.97442e-05)
(0.00360811 -0.0425085 8.2774e-07)
(0.00207955 -0.0436342 -6.52316e-05)
(2.61672e-05 -0.0319007 -5.19943e-05)
(-0.000511536 0.044326 -0.000235063)
(-0.000646469 0.126255 -5.13239e-05)
(-0.000287739 0.153527 -0.000327371)
(-0.00258907 0.132087 2.67637e-05)
(-0.00519302 0.116516 2.99454e-05)
(-0.00685631 0.108544 -1.37791e-05)
(-0.0100198 0.101312 1.37933e-05)
(-0.0145564 0.102052 2.46009e-05)
(-0.0192109 0.10503 0.000290074)
(-0.017663 0.0930248 -0.00436996)
(-0.00738695 0.0467306 -0.00174062)
(-0.00660209 0.0324481 0.000704337)
(-0.0123564 0.0323346 0.000893079)
(-0.0111279 0.0242506 0.00121563)
(-0.0068158 0.00898317 0.000734174)
(-0.00474501 0.00865316 0.00061929)
(-0.00261138 0.0091506 0.000472787)
(-0.00160669 0.0100088 0.000422885)
(0.00183802 0.0104111 0.00026542)
(0.00390868 0.00597189 0.000285379)
(0.00598584 0.00346827 0.000266869)
(0.00553175 -0.0165275 0.00016977)
(0.0044315 -0.021919 -4.36841e-05)
(0.00464449 -0.0281957 -2.82855e-06)
(0.00346015 -0.0346792 -1.31558e-05)
(0.00223362 -0.0403326 9.86108e-06)
(0.00104484 -0.0408442 -0.000130181)
(-0.00090714 -0.0285755 -3.74209e-05)
(-0.000889352 0.0487486 -0.000383792)
(0.000799249 0.127167 1.15698e-05)
(-0.000267377 0.155482 -0.000361523)
(-0.00288437 0.134011 3.75135e-05)
(-0.00574902 0.11876 1.14678e-05)
(-0.00776496 0.112022 -1.09969e-05)
(-0.0115909 0.106049 2.47788e-05)
(-0.01588 0.106992 1.14503e-06)
(-0.0189397 0.107143 0.000261047)
(-0.0144145 0.0867584 0.000463482)
(-0.00831253 0.0346537 -0.000173529)
(-0.00820027 0.0158152 -0.000195357)
(-0.00835648 0.0138627 -0.000271285)
(-0.00612574 0.000143877 -0.000241754)
(-0.00355435 -0.00833565 -7.12672e-05)
(-0.00288558 -0.00870777 -4.71244e-05)
(-0.00156205 -0.00877138 -7.09187e-05)
(-0.000850134 -0.00921714 -3.27716e-05)
(0.00185615 -0.00971126 -5.63967e-05)
(0.00359952 -0.0123201 -4.24947e-05)
(0.00650961 -0.0146764 -0.000141994)
(0.00720663 -0.0190277 -2.96278e-05)
(0.00490961 -0.0215966 -5.22219e-05)
(0.00419901 -0.0263743 -1.18002e-05)
(0.00301482 -0.0328131 -2.83838e-05)
(0.00205176 -0.0385025 -1.45644e-05)
(0.000741512 -0.0355771 0.000186402)
(-0.000598441 -0.0259042 -3.94951e-05)
(-0.000395254 0.0517721 -0.000320833)
(0.00174343 0.128961 2.514e-05)
(-6.597e-05 0.158152 -0.000340863)
(-0.00269685 0.137117 -1.1081e-05)
(-0.00536919 0.122335 -5.90311e-06)
(-0.00711501 0.116093 6.09042e-06)
(-0.0103519 0.110872 3.94753e-05)
(-0.0137387 0.111545 0.000116472)
(-0.018128 0.108607 0.000562861)
(-0.0131527 0.07943 0.00176757)
(-0.00427089 0.0248634 0.000383238)
(6.76574e-05 0.0147157 -0.000203078)
(-0.00158986 0.0227666 0.00032694)
(-0.00518319 0.0114459 1.71207e-06)
(-0.00363137 -0.000280495 3.94438e-05)
(-0.00227582 -0.00176985 0.000120694)
(-0.00136777 -0.00270568 7.80751e-05)
(-0.00088501 -0.00366494 8.69792e-05)
(0.000411735 -0.0044029 3.81236e-05)
(0.00141126 -0.00765826 5.77556e-05)
(0.00254584 -0.0102939 1.38649e-05)
(0.0029479 -0.0159444 1.96919e-05)
(0.00246279 -0.019919 -1.87276e-05)
(0.00224528 -0.0253223 -1.43106e-05)
(0.00172411 -0.031701 -1.84707e-05)
(0.00143852 -0.0370502 -1.22256e-05)
(0.000510538 -0.0291843 0.000173727)
(-0.00032199 -0.023637 -5.69753e-05)
(1.54134e-05 0.0532941 -0.000186266)
(0.00155288 0.131526 -4.72395e-06)
(-5.60115e-05 0.159444 -0.00032534)
(-0.00259378 0.139206 -3.19566e-05)
(-0.00493598 0.124753 -4.21681e-05)
(-0.00639737 0.118728 2.22573e-05)
(-0.00944247 0.11418 0.000120583)
(-0.0135553 0.114563 0.000327963)
(-0.0195678 0.107027 0.000818697)
(-0.0147573 0.0687372 0.00166835)
(-0.00461015 0.00427407 3.29478e-05)
(-0.00314671 0.00094342 0.000546515)
(-0.00116429 0.0197666 0.00046425)
(0.00026303 0.0118342 0.000106941)
(-6.32634e-06 -0.00467077 -2.4618e-05)
(-0.000552191 -0.00609043 -4.10575e-05)
(-0.000360436 -0.00788517 -4.38327e-05)
(-0.000138192 -0.00852295 -3.43289e-05)
(0.000652176 -0.00912355 -4.58867e-05)
(0.00121903 -0.0109775 -2.50428e-05)
(0.00189735 -0.0127415 -5.10498e-05)
(0.00206666 -0.0162632 -1.74009e-05)
(0.00175724 -0.0196313 -1.15673e-05)
(0.00155566 -0.0242962 -3.76138e-06)
(0.00111727 -0.0305789 -2.11938e-05)
(0.00112415 -0.0359394 -2.73363e-05)
(0.000561553 -0.026757 -0.000149774)
(4.77826e-05 -0.0187848 0.000125907)
(0.000275706 0.0536585 -9.87894e-05)
(0.00127157 0.133254 -3.73458e-05)
(-6.30482e-06 0.161511 -0.000278122)
(-0.00223308 0.142357 7.08002e-06)
(-0.00405453 0.128104 -3.78174e-05)
(-0.00517367 0.121508 6.28056e-05)
(-0.00790533 0.116872 0.000234805)
(-0.0123653 0.115468 0.000531014)
(-0.0194812 0.101654 0.00112756)
(-0.014546 0.0525911 0.00162762)
(-0.00474933 -0.0030428 7.30373e-05)
(-0.00388902 -0.00491727 0.000170458)
(-0.00207518 0.0044714 0.000183627)
(0.00208505 0.00547978 0.000294798)
(0.00137 -0.00296286 0.000110552)
(2.644e-05 -0.0045164 3.53858e-05)
(-0.000227346 -0.00655905 3.86643e-05)
(-0.000198074 -0.00735615 2.25141e-05)
(0.000177687 -0.00838298 1.40541e-05)
(0.000511482 -0.010283 7.41646e-06)
(0.000809866 -0.0121072 -7.37939e-07)
(0.000970967 -0.015344 2.49505e-06)
(0.000786716 -0.0189183 -1.45164e-05)
(0.000753714 -0.0235077 -2.82456e-05)
(0.000611516 -0.0292191 -4.62878e-05)
(0.000821394 -0.0345237 -5.49734e-05)
(0.000549265 -0.0246006 -7.9324e-05)
(0.000370878 0.00363062 0.00180435)
(0.000492714 0.0536396 -2.12736e-05)
(0.000720436 0.135651 -6.64429e-05)
(-2.46478e-05 0.161867 -0.000233816)
(-0.00209029 0.142845 4.72157e-05)
(-0.00379672 0.129093 4.96491e-06)
(-0.00489999 0.122284 7.9523e-05)
(-0.0073839 0.117655 0.000227555)
(-0.010929 0.11516 0.000252292)
(-0.0139141 0.0966454 -0.00141133)
(-0.0106757 0.042587 0.00161839)
(-0.00343743 -0.00615118 6.11768e-05)
(-0.00235609 -0.00787422 3.95025e-05)
(-0.00105839 -0.00421248 7.29279e-05)
(0.00073141 -0.002942 0.000122312)
(0.000638464 -0.00522691 4.13183e-05)
(3.83261e-05 -0.00639919 1.52441e-06)
(-0.000124732 -0.00733158 -1.06658e-05)
(-3.72247e-05 -0.00784836 -2.19142e-05)
(0.000155891 -0.008968 -1.60597e-05)
(0.000234617 -0.0104624 -1.57157e-05)
(0.000368408 -0.012209 -1.95097e-05)
(0.000420445 -0.0149845 -1.76501e-05)
(0.00046984 -0.0180518 -1.70656e-05)
(0.000474092 -0.0219088 -1.53926e-05)
(0.000380739 -0.0268729 -3.7348e-05)
(0.000368323 -0.0320267 -2.84334e-05)
(0.000440351 -0.0236658 -0.000181108)
(0.000471185 0.00451147 0.00224363)
(0.000577617 0.0533454 2.8259e-05)
(0.000523365 0.136305 -3.73337e-05)
(-0.000140904 0.164326 -0.000303221)
(-0.00191826 0.145583 -3.16838e-05)
(-0.00332601 0.131953 -4.67846e-07)
(-0.00438626 0.124142 6.39601e-05)
(-0.00598162 0.118487 0.000123407)
(-0.00738231 0.114697 0.000164588)
(-0.00533725 0.0969989 -0.00570619)
(-0.00568594 0.0248387 0.000302703)
(-0.00233039 -0.0123596 0.000495547)
(-0.00126239 -0.00925652 -0.000130972)
(-0.000317904 -0.00591187 3.13476e-05)
(0.000153302 -0.00455254 1.66189e-06)
(0.000130149 -0.00592244 -4.16609e-05)
(2.80785e-06 -0.00645905 -7.19114e-05)
(-7.22295e-05 -0.00664585 -8.15345e-05)
(-5.38142e-05 -0.00700578 -9.57692e-05)
(-1.05737e-05 -0.00807065 -0.000107298)
(3.0015e-05 -0.0093519 -0.000120343)
(6.07431e-05 -0.010857 -0.000131977)
(7.03205e-05 -0.0132342 -0.000147176)
(8.72416e-05 -0.0158775 -0.000165513)
(0.000130669 -0.0191214 -0.000178641)
(0.000151148 -0.0226308 -0.000192387)
(7.08253e-05 -0.0270029 -0.000187757)
(0.000229005 -0.0280562 -0.000179751)
(0.000430343 0.0058218 0.00194803)
(0.000521132 0.0517544 5.20709e-05)
(0.000266687 0.137532 -4.84393e-05)
(-0.0135707 0.0186597 -0.00415223)
(-0.0240061 0.018616 -0.00680143)
(-0.0357148 0.018828 -0.00527712)
(-0.0421116 0.0191643 -0.00488373)
(-0.0528011 0.0201492 -0.00472932)
(-0.0590288 0.019301 -0.00451306)
(-0.0682522 0.0189547 -0.00444333)
(-0.0745961 0.018146 -0.00431312)
(-0.0823746 0.0183429 -0.00419711)
(-0.0882065 0.0193878 -0.00414023)
(-0.0947968 0.0209864 -0.00416209)
(-0.100128 0.022156 -0.00426318)
(-0.105438 0.0224112 -0.00430119)
(-0.108819 0.0234919 -0.00451945)
(-0.110779 0.0246438 -0.00480628)
(-0.110828 0.0261233 -0.00530027)
(-0.107511 0.0270199 -0.00590785)
(-0.0999185 0.0278449 -0.00656884)
(-0.0878162 0.0274445 -0.00717683)
(-0.0698611 0.0251985 -0.00776553)
(-0.0484713 0.0220695 -0.00834187)
(-0.0199836 0.0198964 -0.00888448)
(0.00622611 0.0192235 -0.00853923)
(0.0329691 0.0193061 -0.00786191)
(0.0578503 0.019955 -0.00586432)
(0.0606012 0.0252288 -0.00395787)
(0.0471416 0.0281112 -0.0033918)
(0.0260303 0.0245258 -0.00275869)
(-0.0235204 0.119947 -0.00335151)
(-0.0258277 0.0938642 -0.00286153)
(-0.0335467 0.0861402 -0.00319814)