/*--------------------------------*- C++ -*----------------------------------*\
| =========                 |                                                 |
| \\      /  F ield         | OpenFOAM: The Open Source CFD Toolbox           |
|  \\    /   O peration     | Version:  2.3.0                                 |
|   \\  /    A nd           | Web:      www.OpenFOAM.org                      |
|    \\/     M anipulation  |                                                 |
\*---------------------------------------------------------------------------*/
FoamFile
{
    version     2.0;
    format      ascii;
    class       volVectorField;
    location    "0.07";
    object      U;
}
// * * * * * * * * * * * * * * * * * * * * * * * * * * * * * * * * * * * * * //

dimensions      [0 1 -1 0 0 0 0];

internalField   nonuniform List<vector> 
545
(
(0.454845 0.0865281 4.22643e-29)
(0.403743 0.00697474 3.80566e-30)
(0.362522 0.00341272 -1.89622e-31)
(0.332631 0.00328001 0)
(0.301802 0.00858308 -8.48907e-31)
(0.460133 0.026578 8.52694e-29)
(0.416527 0.0219996 1.06398e-29)
(0.362244 0.021309 1.06103e-30)
(0.330142 0.0187712 0)
(0.297774 0.0211462 -1.22732e-30)
(0.466346 0.0432532 1.32121e-30)
(0.414649 0.0382825 5.73534e-31)
(0.358314 0.034122 4.35687e-31)
(0.324282 0.0288692 0)
(0.292119 0.0316973 -3.98713e-31)
(0.463841 0.0608263 -1.65548e-28)
(0.399414 0.0527395 -3.40316e-30)
(0.349588 0.0465021 -2.86738e-31)
(0.316059 0.0387905 0)
(0.282227 0.0401693 -2.40523e-29)
(0.469321 0.00375548 -3.25211e-28)
(0.371433 0.0752776 1.27765e-30)
(0.339921 0.0632527 2.14669e-30)
(0.301762 0.0561959 7.86722e-30)
(0.264051 0.0765931 -4.00403e-29)
(0.271315 0.00700298 0)
(0.257852 0.00167228 0)
(0.257644 3.95658e-07 0)
(0.258749 -0.000450669 0)
(0.25927 -0.00027381 0)
(0.259958 -0.000122392 0)
(0.259768 -5.09144e-05 0)
(0.260146 -1.51368e-05 0)
(0.259838 -7.36178e-06 0)
(0.260159 1.26279e-06 0)
(0.259845 -2.17542e-06 0)
(0.260153 2.15098e-06 0)
(0.25985 -1.93646e-06 0)
(0.260147 1.80602e-06 0)
(0.259856 -1.79149e-06 0)
(0.260141 1.56709e-06 0)
(0.259862 -1.5563e-06 0)
(0.260134 1.29853e-06 0)
(0.259869 -1.32692e-06 0)
(0.260127 1.11037e-06 0)
(0.259876 -1.06359e-06 0)
(0.26012 8.72071e-07 0)
(0.259884 -8.44773e-07 0)
(0.260113 6.31438e-07 0)
(0.259891 -5.857e-07 0)
(0.260105 4.39048e-07 0)
(0.259899 -4.95276e-07 0)
(0.260097 2.73995e-07 0)
(0.259908 -2.03179e-07 0)
(0.260089 7.05669e-08 0)
(0.259916 -6.98223e-09 0)
(0.26008 -6.89217e-08 0)
(0.259924 1.91736e-07 0)
(0.260071 -2.50138e-07 0)
(0.259933 3.41609e-07 0)
(0.260062 -4.15105e-07 0)
(0.259942 4.24189e-07 0)
(0.260053 -5.16155e-07 0)
(0.259951 5.84329e-07 0)
(0.260044 -8.188e-07 0)
(0.25996 9.83154e-07 0)
(0.260035 -1.4181e-06 0)
(0.25997 2.23998e-06 0)
(0.260025 -3.44968e-06 0)
(0.25998 8.86513e-06 0)
(0.269742 0.014822 0)
(0.257383 0.00341657 0)
(0.258552 6.47834e-05 0)
(0.258757 -0.000550415 0)
(0.259749 -0.0003374 0)
(0.259662 -0.000154947 0)
(0.260107 -5.61655e-05 0)
(0.259819 -2.39945e-05 0)
(0.260157 -3.18228e-06 0)
(0.259842 -3.78071e-06 0)
(0.260156 2.82304e-06 0)
(0.259848 -2.42058e-06 0)
(0.26015 2.64568e-06 0)
(0.259853 -2.40536e-06 0)
(0.260144 2.33518e-06 0)
(0.259859 -2.21649e-06 0)
(0.260138 2.16388e-06 0)
(0.259866 -2.10314e-06 0)
(0.260131 1.96315e-06 0)
(0.259873 -1.88002e-06 0)
(0.260124 1.82043e-06 0)
(0.25988 -1.69236e-06 0)
(0.260116 1.61165e-06 0)
(0.259887 -1.54893e-06 0)
(0.260109 1.47266e-06 0)
(0.259895 -1.35135e-06 0)
(0.260101 1.12158e-06 0)
(0.259903 -1.13796e-06 0)
(0.260093 1.10195e-06 0)
(0.259911 -9.85509e-07 0)
(0.260084 9.14743e-07 0)
(0.25992 -7.5942e-07 0)
(0.260076 7.83364e-07 0)
(0.259929 -6.42269e-07 0)
(0.260067 6.25765e-07 0)
(0.259937 -5.30501e-07 0)
(0.260058 4.44705e-07 0)
(0.259947 -3.68179e-07 0)
(0.260049 2.5799e-07 0)
(0.259956 -2.08548e-07 0)
(0.260039 -3.915e-08 0)
(0.259965 4.38954e-07 0)
(0.26003 -8.9359e-07 0)
(0.259975 2.80282e-06 0)
(0.260022 -4.26079e-06 0)
(0.266179 0.0236821 0)
(0.25715 0.00484672 0)
(0.259063 -0.000151949 0)
(0.259729 -0.000821853 0)
(0.259713 -0.000492469 0)
(0.260115 -0.000209931 0)
(0.259814 -8.71357e-05 0)
(0.260156 -2.75974e-05 0)
(0.259838 -1.22733e-05 0)
(0.260158 1.48343e-06 0)
(0.259845 -3.03301e-06 0)
(0.260153 3.26246e-06 0)
(0.25985 -2.79489e-06 0)
(0.260147 2.90576e-06 0)
(0.259856 -2.80261e-06 0)
(0.260141 2.78189e-06 0)
(0.259862 -2.6167e-06 0)
(0.260134 2.48684e-06 0)
(0.259869 -2.47062e-06 0)
(0.260127 2.36322e-06 0)
(0.259876 -2.20283e-06 0)
(0.26012 2.18477e-06 0)
(0.259883 -2.07989e-06 0)
(0.260113 1.94494e-06 0)
(0.259891 -1.83732e-06 0)
(0.260105 1.80337e-06 0)
(0.259899 -1.95778e-06 0)
(0.260097 1.6798e-06 0)
(0.259907 -1.52355e-06 0)
(0.260088 1.48196e-06 0)
(0.259916 -1.44549e-06 0)
(0.26008 1.44007e-06 0)
(0.259924 -1.25408e-06 0)
(0.260071 1.27613e-06 0)
(0.259933 -1.15108e-06 0)
(0.260062 1.14164e-06 0)
(0.259942 -1.13325e-06 0)
(0.260053 1.08537e-06 0)
(0.259951 -9.99824e-07 0)
(0.260044 7.78536e-07 0)
(0.25996 -6.64513e-07 0)
(0.260035 4.24585e-07 0)
(0.259969 3.99473e-07 0)
(0.260025 -5.6082e-07 0)
(0.259978 3.4697e-06 0)
(0.262452 0.0304663 0)
(0.256686 0.00491758 0)
(0.260754 -0.000527966 0)
(0.260217 -0.000923216 0)
(0.260428 -0.000487677 0)
(0.259922 -0.000208043 0)
(0.260196 -7.68835e-05 0)
(0.259844 -3.36785e-05 0)
(0.260162 -5.5011e-06 0)
(0.259842 -5.10416e-06 0)
(0.260155 3.45294e-06 0)
(0.259847 -3.1714e-06 0)
(0.26015 3.4631e-06 0)
(0.259853 -3.25039e-06 0)
(0.260144 3.14881e-06 0)
(0.259859 -3.03323e-06 0)
(0.260138 3.07749e-06 0)
(0.259866 -3.07905e-06 0)
(0.260131 2.92065e-06 0)
(0.259873 -2.89156e-06 0)
(0.260124 2.90209e-06 0)
(0.25988 -2.75712e-06 0)
(0.260117 2.73592e-06 0)
(0.259887 -2.70238e-06 0)
(0.260109 2.69735e-06 0)
(0.259895 -2.50573e-06 0)
(0.260101 2.12282e-06 0)
(0.259903 -2.32568e-06 0)
(0.260093 2.39255e-06 0)
(0.259912 -2.25903e-06 0)
(0.260084 2.10273e-06 0)
(0.25992 -1.96662e-06 0)
(0.260076 2.04114e-06 0)
(0.259929 -1.89888e-06 0)
(0.260067 1.91111e-06 0)
(0.259938 -1.80618e-06 0)
(0.260058 1.69227e-06 0)
(0.259947 -1.60236e-06 0)
(0.260049 1.58572e-06 0)
(0.259956 -1.60655e-06 0)
(0.26004 1.39489e-06 0)
(0.259965 -1.09845e-06 0)
(0.26003 1.03767e-06 0)
(0.259975 3.51384e-07 0)
(0.260023 -5.3969e-09 0)
(0.259525 0.0500722 0)
(0.259448 0.00488635 0)
(0.262303 -0.000605707 0)
(0.261424 -0.000782804 0)
(0.260392 -0.000363121 0)
(0.260369 -0.00012322 0)
(0.259905 -5.46267e-05 0)
(0.260182 -1.72709e-05 0)
(0.259843 -1.04845e-05 0)
(0.260158 2.99101e-06 0)
(0.259844 -3.96022e-06 0)
(0.260152 4.09716e-06 0)
(0.25985 -3.79054e-06 0)
(0.260147 3.82802e-06 0)
(0.259856 -3.90754e-06 0)
(0.260141 3.90568e-06 0)
(0.259863 -3.73003e-06 0)
(0.260134 3.59255e-06 0)
(0.259869 -3.61849e-06 0)
(0.260127 3.49101e-06 0)
(0.259876 -3.33017e-06 0)
(0.26012 3.33681e-06 0)
(0.259883 -3.23247e-06 0)
(0.260113 3.17633e-06 0)
(0.259891 -3.02087e-06 0)
(0.260105 3.13403e-06 0)
(0.259899 -3.40871e-06 0)
(0.260097 3.03774e-06 0)
(0.259907 -2.78737e-06 0)
(0.260088 2.78805e-06 0)
(0.259916 -2.86199e-06 0)
(0.26008 2.84208e-06 0)
(0.259924 -2.64656e-06 0)
(0.260071 2.66007e-06 0)
(0.259933 -2.56441e-06 0)
(0.260063 2.59562e-06 0)
(0.259942 -2.67872e-06 0)
(0.260054 2.6817e-06 0)
(0.259951 -2.55522e-06 0)
(0.260044 2.38494e-06 0)
(0.25996 -2.35539e-06 0)
(0.260035 2.27933e-06 0)
(0.25997 -1.86463e-06 0)
(0.260026 1.99573e-06 0)
(0.259978 -1.07951e-06 0)
(0.269481 4.30114e-06 0)
(0.259932 -4.29328e-06 0)
(0.264566 4.31445e-06 0)
(0.261679 -4.41011e-06 0)
(0.260848 4.37983e-06 0)
(0.260066 -4.4092e-06 0)
(0.260256 4.41189e-06 0)
(0.259861 -4.4351e-06 0)
(0.260163 4.41426e-06 0)
(0.259841 -4.41424e-06 0)
(0.260155 4.41169e-06 0)
(0.259847 -4.37419e-06 0)
(0.26015 4.36496e-06 0)
(0.259853 -4.32646e-06 0)
(0.260144 4.32947e-06 0)
(0.259859 -4.24296e-06 0)
(0.260138 4.25208e-06 0)
(0.259866 -4.17153e-06 0)
(0.260131 4.16319e-06 0)
(0.259873 -4.09116e-06 0)
(0.260124 4.05128e-06 0)
(0.25988 -4.00192e-06 0)
(0.260117 3.94732e-06 0)
(0.259887 -3.91199e-06 0)
(0.260109 3.8336e-06 0)
(0.259896 -3.79881e-06 0)
(0.260101 3.72375e-06 0)
(0.259903 -3.69755e-06 0)
(0.260093 3.61803e-06 0)
(0.259912 -3.5947e-06 0)
(0.260084 3.5181e-06 0)
(0.25992 -3.48772e-06 0)
(0.260076 3.43331e-06 0)
(0.259929 -3.39245e-06 0)
(0.260067 3.353e-06 0)
(0.259938 -3.31452e-06 0)
(0.260058 3.27752e-06 0)
(0.259947 -3.23029e-06 0)
(0.260049 3.23079e-06 0)
(0.259956 -3.17626e-06 0)
(0.26004 3.18106e-06 0)
(0.259965 -3.1514e-06 0)
(0.260031 3.12737e-06 0)
(0.259976 -3.13875e-06 0)
(0.260024 3.0399e-06 0)
(0.469321 -0.0037474 0)
(0.371433 -0.0752858 2.47042e-31)
(0.339921 -0.0632445 -2.00172e-30)
(0.301762 -0.056204 -7.8672e-30)
(0.264051 -0.0765849 0)
(0.463841 -0.0608344 0)
(0.399414 -0.0527315 0)
(0.349588 -0.0465101 0)
(0.316059 -0.0387824 -2.44796e-30)
(0.282227 -0.0401775 0)
(0.466346 -0.0432451 0)
(0.414649 -0.0382906 0)
(0.358314 -0.0341138 0)
(0.324282 -0.0288773 -1.37658e-30)
(0.292119 -0.0316891 0)
(0.460133 -0.026586 0)
(0.416527 -0.0219916 0)
(0.362244 -0.021317 0)
(0.330142 -0.0187631 5.90891e-31)
(0.297774 -0.0211544 0)
(0.454845 -0.0865201 0)
(0.403742 -0.00698284 0)
(0.362522 -0.00340461 0)
(0.332631 -0.0032882 9.11262e-32)
(0.301802 -0.00857482 0)
(0.259525 -0.0500805 0)
(0.259448 -0.00487787 0)
(0.262303 0.000597184 0)
(0.261424 0.000791366 0)
(0.260392 0.000354475 0)
(0.260369 0.000131925 0)
(0.259905 4.59438e-05 0)
(0.260182 2.59813e-05 0)
(0.259843 1.80989e-06 0)
(0.260158 5.69286e-06 0)
(0.259844 -4.6881e-06 0)
(0.260152 4.51163e-06 0)
(0.25985 -4.8032e-06 0)
(0.260147 4.68778e-06 0)
(0.259856 -4.56873e-06 0)
(0.260141 4.46676e-06 0)
(0.259863 -4.61244e-06 0)
(0.260134 4.62392e-06 0)
(0.259869 -4.55147e-06 0)
(0.260127 4.56736e-06 0)
(0.259876 -4.64225e-06 0)
(0.26012 4.5522e-06 0)
(0.259883 -4.5274e-06 0)
(0.260113 4.49908e-06 0)
(0.259891 -4.53032e-06 0)
(0.260105 4.323e-06 0)
(0.259899 -3.93009e-06 0)
(0.260097 4.22713e-06 0)
(0.259907 -4.34405e-06 0)
(0.260088 4.26212e-06 0)
(0.259916 -4.08948e-06 0)
(0.26008 4.00813e-06 0)
(0.259924 -4.12104e-06 0)
(0.260071 4.03796e-06 0)
(0.259933 -4.02833e-06 0)
(0.260063 3.92097e-06 0)
(0.259942 -3.77813e-06 0)
(0.260054 3.70576e-06 0)
(0.259951 -3.77742e-06 0)
(0.260044 3.88913e-06 0)
(0.25996 -3.91132e-06 0)
(0.260035 3.90213e-06 0)
(0.25997 -4.31919e-06 0)
(0.260026 4.19538e-06 0)
(0.259978 -5.1642e-06 0)
(0.262452 -0.0304581 0)
(0.256685 -0.00492592 0)
(0.260754 0.000536399 0)
(0.260217 0.000914709 0)
(0.260428 0.000496216 0)
(0.259922 0.000199478 0)
(0.260196 8.54804e-05 0)
(0.259844 2.51015e-05 0)
(0.260162 1.41022e-05 0)
(0.259842 -3.4643e-06 0)
(0.260155 5.10293e-06 0)
(0.259847 -5.35612e-06 0)
(0.26015 4.999e-06 0)
(0.259853 -5.17197e-06 0)
(0.260144 5.1993e-06 0)
(0.259859 -5.27373e-06 0)
(0.260138 5.12427e-06 0)
(0.259866 -5.07565e-06 0)
(0.260131 5.12705e-06 0)
(0.259873 -5.07485e-06 0)
(0.260124 4.96771e-06 0)
(0.25988 -5.01147e-06 0)
(0.260117 4.93879e-06 0)
(0.259887 -4.86427e-06 0)
(0.260109 4.77526e-06 0)
(0.259895 -4.84988e-06 0)
(0.260101 5.14152e-06 0)
(0.259903 -4.81801e-06 0)
(0.260093 4.67326e-06 0)
(0.259912 -4.68672e-06 0)
(0.260084 4.75301e-06 0)
(0.25992 -4.79678e-06 0)
(0.260076 4.63365e-06 0)
(0.259929 -4.68075e-06 0)
(0.260067 4.59965e-06 0)
(0.259938 -4.63459e-06 0)
(0.260058 4.65658e-06 0)
(0.259947 -4.69483e-06 0)
(0.260049 4.66358e-06 0)
(0.259956 -4.59972e-06 0)
(0.26004 4.73479e-06 0)
(0.259965 -5.04383e-06 0)
(0.26003 5.05126e-06 0)
(0.259975 -6.34739e-06 0)
(0.260023 6.00651e-06 0)
(0.266179 -0.0236904 0)
(0.25715 -0.00483831 0)
(0.259063 0.000143463 0)
(0.259729 0.00083039 0)
(0.259713 0.000483849 0)
(0.260115 0.000218555 0)
(0.259814 7.84889e-05 0)
(0.260156 3.62591e-05 0)
(0.259838 3.62786e-06 0)
(0.260158 7.15651e-06 0)
(0.259845 -5.56419e-06 0)
(0.260153 5.30654e-06 0)
(0.25985 -5.73801e-06 0)
(0.260147 5.58101e-06 0)
(0.259856 -5.61316e-06 0)
(0.260141 5.56764e-06 0)
(0.259862 -5.66698e-06 0)
(0.260134 5.70191e-06 0)
(0.259869 -5.64037e-06 0)
(0.260127 5.66014e-06 0)
(0.259876 -5.72221e-06 0)
(0.26012 5.64931e-06 0)
(0.259883 -5.6502e-06 0)
(0.260113 5.67774e-06 0)
(0.259891 -5.68287e-06 0)
(0.260105 5.61253e-06 0)
(0.259899 -5.35428e-06 0)
(0.260097 5.53116e-06 0)
(0.259907 -5.58059e-06 0)
(0.260088 5.52299e-06 0)
(0.259916 -5.47364e-06 0)
(0.26008 5.36784e-06 0)
(0.259924 -5.46886e-06 0)
(0.260071 5.37957e-06 0)
(0.259933 -5.40189e-06 0)
(0.260062 5.33643e-06 0)
(0.259942 -5.29261e-06 0)
(0.260053 5.27247e-06 0)
(0.259951 -5.28786e-06 0)
(0.260044 5.46613e-06 0)
(0.25996 -5.55239e-06 0)
(0.260035 5.72874e-06 0)
(0.259969 -6.5361e-06 0)
(0.260025 6.71749e-06 0)
(0.259978 -9.59462e-06 0)
(0.269742 -0.0148136 0)
(0.257383 -0.00342498 0)
(0.258552 -5.63065e-05 0)
(0.258756 0.000541898 0)
(0.259749 0.000345947 0)
(0.259662 0.000146322 0)
(0.260107 6.47843e-05 0)
(0.259819 1.53889e-05 0)
(0.260157 1.18202e-05 0)
(0.259842 -4.81525e-06 0)
(0.260156 5.76855e-06 0)
(0.259848 -6.13008e-06 0)
(0.26015 5.84724e-06 0)
(0.259853 -6.04837e-06 0)
(0.260144 6.04718e-06 0)
(0.259859 -6.11709e-06 0)
(0.260138 6.07476e-06 0)
(0.259866 -6.07627e-06 0)
(0.260131 6.11717e-06 0)
(0.259873 -6.11955e-06 0)
(0.260124 6.07595e-06 0)
(0.25988 -6.11222e-06 0)
(0.260116 6.08616e-06 0)
(0.259887 -6.04811e-06 0)
(0.260109 6.02698e-06 0)
(0.259895 -6.04034e-06 0)
(0.260101 6.16281e-06 0)
(0.259903 -6.04592e-06 0)
(0.260093 5.98353e-06 0)
(0.259911 -5.98836e-06 0)
(0.260084 5.97553e-06 0)
(0.25992 -6.02583e-06 0)
(0.260076 5.93003e-06 0)
(0.259929 -5.96533e-06 0)
(0.260067 5.91633e-06 0)
(0.259937 -5.9305e-06 0)
(0.260058 5.93871e-06 0)
(0.259946 -5.95988e-06 0)
(0.260049 6.01586e-06 0)
(0.259956 -6.02142e-06 0)
(0.260039 6.21387e-06 0)
(0.259965 -6.61606e-06 0)
(0.26003 6.98441e-06 0)
(0.259975 -8.89062e-06 0)
(0.260021 1.03199e-05 0)
(0.271315 -0.00701129 0)
(0.257852 -0.00166391 0)
(0.257644 -8.83905e-06 0)
(0.258749 0.000459215 0)
(0.25927 0.000265216 0)
(0.259958 0.000130974 0)
(0.259768 4.23003e-05 0)
(0.260146 2.37928e-05 0)
(0.259838 -1.24488e-06 0)
(0.260159 7.37004e-06 0)
(0.259845 -6.38314e-06 0)
(0.260153 6.38647e-06 0)
(0.25985 -6.58736e-06 0)
(0.260147 6.64011e-06 0)
(0.259856 -6.62255e-06 0)
(0.260141 6.73187e-06 0)
(0.259862 -6.7304e-06 0)
(0.260134 6.84828e-06 0)
(0.259869 -6.77069e-06 0)
(0.260127 6.87995e-06 0)
(0.259876 -6.85394e-06 0)
(0.26012 6.92682e-06 0)
(0.259884 -6.8665e-06 0)
(0.260113 6.97438e-06 0)
(0.259891 -6.9023e-06 0)
(0.260105 6.96397e-06 0)
(0.259899 -6.8003e-06 0)
(0.260097 6.91907e-06 0)
(0.259908 -6.8699e-06 0)
(0.260089 6.93668e-06 0)
(0.259916 -6.87688e-06 0)
(0.26008 6.88072e-06 0)
(0.259924 -6.87635e-06 0)
(0.260071 6.89982e-06 0)
(0.259933 -6.86569e-06 0)
(0.260062 6.87763e-06 0)
(0.259942 -6.83385e-06 0)
(0.260053 6.85488e-06 0)
(0.259951 -6.86853e-06 0)
(0.260044 7.03989e-06 0)
(0.25996 -7.21319e-06 0)
(0.260035 7.52651e-06 0)
(0.25997 -8.42217e-06 0)
(0.260025 9.545e-06 0)
(0.25998 -1.49663e-05 0)
)
;

boundaryField
{
    AirInlet
    {
        type            fixedValue;
        value           uniform (0.1 0 0);
    }
    WaterInlet
    {
        type            fixedValue;
        value           uniform (0.5 0 0);
    }
    ChannelWall
    {
        type            fixedValue;
        value           uniform (0 0 0);
    }
    Outlet
    {
        type            pressureInletOutletVelocity;
        value           nonuniform List<vector> 
11
(
(0.25998 8.86513e-06 0)
(0.260022 -4.26079e-06 0)
(0.259978 3.4697e-06 0)
(0.260023 -5.3969e-09 0)
(0.259978 -1.07951e-06 0)
(0.260024 3.0399e-06 0)
(0.259978 -5.1642e-06 0)
(0.260023 6.00651e-06 0)
(0.259978 -9.59462e-06 0)
(0.260021 1.03199e-05 0)
(0.25998 -1.49663e-05 0)
)
;
    }
    FrontAndBack
    {
        type            empty;
    }
}


// ************************************************************************* //
