/*--------------------------------*- C++ -*----------------------------------*\
| =========                 |                                                 |
| \\      /  F ield         | OpenFOAM: The Open Source CFD Toolbox           |
|  \\    /   O peration     | Version:  2.3.0                                 |
|   \\  /    A nd           | Web:      www.OpenFOAM.org                      |
|    \\/     M anipulation  |                                                 |
\*---------------------------------------------------------------------------*/
FoamFile
{
    version     2.0;
    format      ascii;
    class       volScalarField;
    location    "1.77";
    object      alpha.particlesMean;
}
// * * * * * * * * * * * * * * * * * * * * * * * * * * * * * * * * * * * * * //

dimensions      [0 0 0 0 0 0 0];

internalField   nonuniform List<scalar> 
6000
(
0.419016
0.427258
0.425538
0.422755
0.420337
0.412292
0.414015
0.412007
0.414958
0.414226
0.415205
0.419189
0.414246
0.414071
0.421159
0.424356
0.425617
0.422654
0.422046
0.425846
0.427959
0.424901
0.42308
0.427512
0.429332
0.428698
0.427719
0.421501
0.420297
0.417487
0.393142
0.394172
0.394089
0.388613
0.381491
0.379705
0.380261
0.379063
0.378883
0.383828
0.384165
0.382526
0.382783
0.380454
0.384817
0.394482
0.394854
0.389927
0.389329
0.389148
0.392566
0.394221
0.394141
0.395596
0.390538
0.390884
0.389535
0.388837
0.38957
0.398434
0.398239
0.400875
0.39856
0.387772
0.385469
0.387484
0.386281
0.380136
0.381386
0.390018
0.389756
0.383512
0.381972
0.380585
0.38727
0.396109
0.397101
0.391783
0.387553
0.390642
0.393938
0.395274
0.395005
0.389632
0.386355
0.394552
0.399172
0.396516
0.393158
0.401471
0.400227
0.399178
0.391951
0.38325
0.386894
0.388348
0.384491
0.379944
0.381366
0.390404
0.39216
0.380226
0.377569
0.377635
0.383274
0.389519
0.391283
0.386163
0.384458
0.38785
0.389235
0.389816
0.384493
0.375493
0.379321
0.388706
0.401405
0.398113
0.388122
0.399507
0.396477
0.396073
0.384287
0.382296
0.38718
0.386728
0.380102
0.377553
0.380197
0.389142
0.389798
0.374663
0.366857
0.362596
0.369515
0.381444
0.388318
0.382103
0.383703
0.386439
0.386668
0.384965
0.377827
0.372393
0.374884
0.383673
0.400868
0.399197
0.382581
0.392564
0.392401
0.391637
0.382201
0.383378
0.386464
0.383436
0.375273
0.374097
0.3772
0.38307
0.383791
0.367837
0.354985
0.353883
0.361076
0.377597
0.387657
0.382063
0.381704
0.383445
0.382259
0.37871
0.376843
0.371479
0.372483
0.380085
0.400987
0.397756
0.37696
0.386102
0.388447
0.386707
0.383289
0.38143
0.383433
0.380257
0.370846
0.370139
0.370513
0.377449
0.376338
0.3622
0.352567
0.35617
0.364239
0.378995
0.384462
0.375554
0.378637
0.379957
0.379817
0.378071
0.376542
0.372094
0.372678
0.380732
0.398367
0.396206
0.371382
0.380852
0.384317
0.387685
0.382299
0.377628
0.379236
0.377921
0.368857
0.364819
0.365258
0.371966
0.369807
0.358884
0.357231
0.360582
0.370242
0.382126
0.373961
0.369631
0.377095
0.38375
0.38361
0.38051
0.37545
0.373976
0.377461
0.382234
0.393772
0.389029
0.365964
0.377344
0.387151
0.389967
0.380653
0.373413
0.376801
0.376676
0.370428
0.36337
0.359961
0.363883
0.362997
0.359257
0.362282
0.366312
0.378223
0.383034
0.370394
0.369026
0.374135
0.387166
0.39084
0.385992
0.376777
0.378086
0.380497
0.385513
0.388921
0.381003
0.363039
0.376641
0.39083
0.389929
0.377735
0.370432
0.375202
0.37713
0.374143
0.363116
0.356503
0.355232
0.359177
0.36206
0.36772
0.371878
0.381915
0.380452
0.368909
0.368626
0.375829
0.388266
0.396635
0.390598
0.382907
0.382695
0.385317
0.386444
0.383747
0.375491
0.363384
0.376851
0.392194
0.387066
0.373665
0.369278
0.372885
0.376516
0.3742
0.364951
0.353807
0.348056
0.357711
0.368674
0.37006
0.374943
0.382374
0.376902
0.369855
0.370927
0.380664
0.392026
0.400118
0.394028
0.389771
0.390071
0.390146
0.386948
0.378977
0.374163
0.366933
0.378913
0.392194
0.382932
0.367613
0.367497
0.36979
0.372177
0.371944
0.367518
0.352703
0.33976
0.355207
0.370737
0.370509
0.373267
0.379019
0.375972
0.371985
0.375174
0.383055
0.394357
0.402019
0.397237
0.397032
0.397204
0.395625
0.386552
0.37815
0.374559
0.373699
0.386085
0.39116
0.377861
0.362953
0.363953
0.364663
0.367612
0.370235
0.372169
0.352733
0.338175
0.347001
0.367256
0.368337
0.369695
0.375105
0.376339
0.376495
0.378926
0.381421
0.394835
0.403329
0.403273
0.404469
0.404891
0.399091
0.389308
0.380036
0.378301
0.38264
0.397556
0.389503
0.37332
0.360825
0.359082
0.36018
0.363263
0.368805
0.372555
0.358272
0.344591
0.345724
0.360341
0.366364
0.367181
0.37273
0.378525
0.382007
0.379774
0.379949
0.395854
0.406834
0.40987
0.41076
0.408611
0.401257
0.391581
0.385242
0.387174
0.396448
0.414227
0.388719
0.370544
0.359442
0.354817
0.355389
0.358485
0.363787
0.371217
0.364395
0.355374
0.349463
0.356427
0.364487
0.363578
0.371496
0.379501
0.385085
0.379125
0.3792
0.396857
0.411188
0.414997
0.412287
0.405644
0.397053
0.391239
0.389309
0.398457
0.410353
0.431629
0.388546
0.36706
0.359812
0.352576
0.351918
0.351953
0.356104
0.364859
0.366516
0.361655
0.356162
0.351637
0.361962
0.361077
0.370355
0.380524
0.384227
0.377006
0.377555
0.396747
0.410259
0.410789
0.401836
0.387679
0.381614
0.382528
0.388751
0.402681
0.417616
0.441282
0.386496
0.362242
0.362072
0.355645
0.350435
0.348357
0.346206
0.356544
0.361037
0.361633
0.357291
0.350882
0.355403
0.361088
0.371448
0.381234
0.382582
0.376545
0.377046
0.395648
0.40836
0.40637
0.386317
0.370205
0.366367
0.375625
0.385942
0.403122
0.417561
0.441245
0.377646
0.358901
0.365295
0.361375
0.352382
0.34931
0.344472
0.349948
0.357208
0.353072
0.351297
0.346816
0.349457
0.361896
0.373556
0.382783
0.383239
0.380094
0.382855
0.397114
0.409888
0.403541
0.379518
0.36485
0.364175
0.375776
0.389185
0.404488
0.416271
0.44296
0.364697
0.357996
0.367949
0.368377
0.355326
0.352077
0.34818
0.346326
0.352583
0.349083
0.34267
0.341073
0.344213
0.361011
0.375194
0.383481
0.387096
0.388705
0.39105
0.39969
0.40993
0.401363
0.37709
0.363132
0.363336
0.375356
0.393619
0.406211
0.417169
0.44869
0.357921
0.358398
0.371228
0.37256
0.355329
0.351552
0.349557
0.346227
0.346792
0.347259
0.340934
0.336334
0.343427
0.359333
0.374231
0.381025
0.389953
0.397792
0.398644
0.400185
0.406408
0.397615
0.375286
0.360836
0.363762
0.37268
0.393852
0.405472
0.415939
0.450287
0.356795
0.35911
0.373309
0.376238
0.357185
0.350885
0.35049
0.349355
0.345099
0.347233
0.342964
0.336325
0.342369
0.358255
0.371512
0.377174
0.388351
0.40385
0.40056
0.4028
0.401389
0.391673
0.372112
0.358828
0.362608
0.369812
0.392102
0.402768
0.416076
0.447007
0.358706
0.362407
0.376225
0.380227
0.362231
0.353051
0.354296
0.352799
0.346915
0.34695
0.346805
0.338912
0.342107
0.355269
0.370371
0.373381
0.383376
0.402692
0.403276
0.403342
0.399898
0.387792
0.371147
0.356225
0.359817
0.36727
0.390988
0.403782
0.419085
0.447629
0.363273
0.368378
0.382098
0.387125
0.370632
0.358866
0.35855
0.35508
0.346427
0.34709
0.348474
0.344222
0.342874
0.353276
0.367202
0.367579
0.374447
0.40132
0.405075
0.404039
0.398324
0.388032
0.371931
0.357332
0.356549
0.366726
0.391773
0.408852
0.424917
0.450274
0.368865
0.373255
0.38741
0.397305
0.381957
0.366266
0.362819
0.355969
0.346249
0.346414
0.348575
0.348946
0.347048
0.354168
0.361456
0.358784
0.369945
0.398935
0.405248
0.402617
0.397716
0.385492
0.372964
0.358679
0.356681
0.367672
0.392667
0.415519
0.432064
0.452297
0.374095
0.375853
0.39271
0.408964
0.39485
0.373087
0.364862
0.356711
0.34609
0.346203
0.348441
0.352095
0.352627
0.356451
0.357151
0.352607
0.368869
0.395573
0.403272
0.400956
0.39334
0.381457
0.367779
0.358652
0.357362
0.371254
0.395114
0.420436
0.437414
0.452778
0.378831
0.378541
0.398671
0.419256
0.407376
0.378828
0.365665
0.355608
0.34676
0.345236
0.349264
0.353657
0.357451
0.359006
0.354163
0.352627
0.367242
0.390675
0.398057
0.392308
0.38439
0.370134
0.358385
0.350953
0.356599
0.374954
0.398717
0.421136
0.437364
0.453349
0.384191
0.384271
0.406
0.427483
0.417083
0.384036
0.365658
0.354906
0.345966
0.345498
0.350206
0.355992
0.359374
0.360753
0.354115
0.355382
0.36346
0.383222
0.383978
0.377024
0.369649
0.358782
0.347761
0.34518
0.351586
0.374202
0.397193
0.415804
0.427432
0.448744
0.390501
0.393555
0.414149
0.432556
0.423182
0.387971
0.366006
0.353014
0.346013
0.34501
0.351079
0.356919
0.360152
0.360019
0.356464
0.356029
0.359036
0.373929
0.374149
0.367744
0.362197
0.352475
0.345896
0.345394
0.348944
0.372429
0.393897
0.408566
0.416281
0.431599
0.398397
0.402611
0.420765
0.435611
0.426822
0.390358
0.364981
0.351125
0.343559
0.344393
0.350334
0.356621
0.358995
0.357645
0.358313
0.356406
0.3557
0.367785
0.371332
0.364661
0.358186
0.352543
0.348575
0.349552
0.350344
0.375105
0.393285
0.406384
0.413542
0.422774
0.408557
0.408047
0.424113
0.437268
0.429
0.391749
0.363114
0.346869
0.340858
0.342882
0.348805
0.355535
0.356875
0.355967
0.358576
0.358386
0.356973
0.368995
0.373487
0.364896
0.359439
0.355798
0.355206
0.351997
0.354413
0.38041
0.395481
0.407155
0.412505
0.417163
0.421145
0.411553
0.426527
0.436705
0.428668
0.39332
0.359304
0.342776
0.337581
0.341615
0.346603
0.352518
0.354283
0.353765
0.357439
0.360548
0.361897
0.376128
0.377498
0.367294
0.362247
0.361986
0.359854
0.355413
0.360417
0.386969
0.398376
0.408219
0.411237
0.413106
0.433723
0.417112
0.429798
0.434127
0.426646
0.393804
0.356303
0.338893
0.336052
0.339769
0.345445
0.349737
0.350156
0.351278
0.356824
0.363671
0.368828
0.385675
0.384949
0.371067
0.366493
0.366773
0.364317
0.358854
0.36751
0.392571
0.400765
0.408661
0.408433
0.410234
0.443478
0.424337
0.433541
0.431083
0.423851
0.395632
0.354364
0.336974
0.334407
0.33868
0.344417
0.348275
0.348303
0.350715
0.357895
0.36713
0.3772
0.3962
0.391551
0.375362
0.370465
0.371013
0.367292
0.362093
0.373139
0.395391
0.401836
0.407484
0.404558
0.408203
0.447612
0.431526
0.437302
0.429776
0.420434
0.396385
0.353627
0.335455
0.334727
0.337778
0.344216
0.348764
0.349713
0.353511
0.360066
0.371722
0.385096
0.403284
0.395695
0.378318
0.374629
0.374436
0.36976
0.36323
0.37649
0.396761
0.401313
0.404935
0.398916
0.40666
0.448667
0.435059
0.438628
0.429184
0.415951
0.397534
0.353239
0.335193
0.335485
0.33866
0.344467
0.349891
0.354943
0.358905
0.364786
0.375916
0.392342
0.407998
0.398601
0.381747
0.378724
0.377889
0.36998
0.362884
0.380486
0.399749
0.403729
0.40394
0.395321
0.404307
0.448376
0.433367
0.435875
0.4281
0.413571
0.398016
0.357132
0.33588
0.336672
0.340027
0.344507
0.351645
0.360186
0.366021
0.370472
0.380935
0.396603
0.411005
0.400971
0.384687
0.382832
0.378967
0.368818
0.364254
0.387515
0.406057
0.405942
0.402784
0.392653
0.401531
0.445531
0.428562
0.431703
0.426869
0.411949
0.400615
0.361143
0.339777
0.337892
0.341281
0.344629
0.353217
0.364766
0.370498
0.377084
0.385204
0.399069
0.411258
0.402925
0.386744
0.38508
0.378294
0.367464
0.368857
0.396459
0.410837
0.406082
0.400422
0.389537
0.398997
0.44106
0.425839
0.426673
0.421739
0.411217
0.403556
0.367523
0.344557
0.339822
0.342171
0.344161
0.35614
0.366879
0.372913
0.381105
0.390375
0.399681
0.410067
0.403747
0.387564
0.384237
0.376341
0.369516
0.376044
0.405173
0.412168
0.404506
0.39756
0.386346
0.397094
0.436664
0.427474
0.422469
0.415602
0.409761
0.406658
0.374678
0.350309
0.341864
0.342603
0.344586
0.35795
0.368997
0.372932
0.383081
0.393362
0.401339
0.407669
0.403629
0.38751
0.380913
0.37507
0.374448
0.384946
0.410409
0.410813
0.401576
0.393308
0.385017
0.395475
0.436982
0.432051
0.421864
0.409075
0.407805
0.407517
0.382515
0.356109
0.34466
0.343423
0.345949
0.360844
0.370091
0.374901
0.382688
0.395222
0.402969
0.405611
0.402439
0.385689
0.376769
0.375942
0.381398
0.392734
0.411198
0.407298
0.396533
0.389826
0.384482
0.394662
0.439081
0.434089
0.419712
0.405003
0.405075
0.407223
0.389742
0.363305
0.347795
0.344245
0.348855
0.363655
0.372426
0.377208
0.385552
0.395973
0.405341
0.403761
0.399632
0.382904
0.374409
0.379049
0.388723
0.398123
0.409827
0.40282
0.393233
0.388434
0.384154
0.396486
0.441801
0.431095
0.415351
0.403354
0.402009
0.405346
0.395496
0.37027
0.351439
0.346163
0.351616
0.368205
0.375577
0.381936
0.389491
0.399624
0.40666
0.401833
0.393589
0.381836
0.373729
0.382154
0.39466
0.40095
0.40932
0.400634
0.391989
0.387995
0.383044
0.399803
0.444022
0.425698
0.409863
0.400931
0.39842
0.40323
0.397597
0.375924
0.355647
0.348181
0.355532
0.37265
0.381273
0.38695
0.395383
0.402284
0.406094
0.39483
0.389689
0.382499
0.37424
0.384358
0.397603
0.403858
0.410423
0.400844
0.393985
0.39061
0.385556
0.403299
0.444386
0.418569
0.403788
0.397054
0.395346
0.402036
0.400083
0.378009
0.35858
0.349159
0.358775
0.37684
0.384859
0.391809
0.398472
0.40097
0.399044
0.391621
0.389111
0.384812
0.376818
0.386587
0.398406
0.407312
0.411826
0.403818
0.398472
0.395097
0.389856
0.405611
0.438387
0.409599
0.397949
0.393427
0.395152
0.400919
0.400884
0.378253
0.359724
0.348648
0.360865
0.379444
0.386653
0.392695
0.399332
0.397545
0.39782
0.392
0.390778
0.388726
0.383557
0.388424
0.398463
0.410708
0.413142
0.406561
0.403582
0.400754
0.394775
0.407896
0.430849
0.400987
0.3929
0.393015
0.395789
0.39915
0.399263
0.377178
0.360886
0.34934
0.361128
0.381155
0.385762
0.393806
0.399119
0.397947
0.397306
0.393971
0.393255
0.394392
0.390173
0.389813
0.398055
0.41282
0.414433
0.410972
0.409823
0.407119
0.400214
0.412869
0.424373
0.395653
0.391406
0.394469
0.396574
0.397882
0.396589
0.376493
0.363231
0.35285
0.362587
0.381221
0.386406
0.393771
0.401318
0.398815
0.398413
0.395344
0.396225
0.396232
0.393887
0.390873
0.398261
0.416132
0.418247
0.417631
0.416428
0.414108
0.40901
0.418513
0.417216
0.394664
0.392901
0.395871
0.398699
0.398046
0.396384
0.378086
0.367615
0.35912
0.365186
0.382881
0.389158
0.397913
0.402068
0.402734
0.400313
0.39788
0.396047
0.396373
0.395597
0.392953
0.400967
0.42223
0.425256
0.425561
0.425119
0.423187
0.417345
0.424147
0.414389
0.39575
0.395276
0.397148
0.401039
0.401022
0.398628
0.38199
0.372709
0.364622
0.367258
0.383869
0.395984
0.402766
0.407505
0.408166
0.404922
0.399419
0.397037
0.397815
0.3986
0.395557
0.406773
0.431164
0.433776
0.435111
0.435602
0.430567
0.423953
0.430548
0.416885
0.400749
0.398786
0.398818
0.40338
0.40508
0.402929
0.386298
0.37635
0.368857
0.367424
0.383424
0.398286
0.406231
0.410499
0.41335
0.408715
0.403188
0.399694
0.402295
0.401625
0.399996
0.4147
0.440049
0.442421
0.444418
0.441694
0.43691
0.429828
0.435942
0.422304
0.409662
0.406511
0.405854
0.406717
0.409738
0.409212
0.390427
0.378068
0.370265
0.369273
0.379886
0.391721
0.402898
0.411343
0.414829
0.413618
0.407951
0.405677
0.407647
0.406798
0.403954
0.421793
0.44691
0.44911
0.448373
0.446399
0.444221
0.436281
0.439
0.429974
0.413319
0.414535
0.414562
0.41295
0.414759
0.414973
0.394444
0.376253
0.368057
0.370225
0.37602
0.383885
0.399151
0.406417
0.413589
0.414452
0.413192
0.414724
0.414718
0.412301
0.408929
0.425057
0.449542
0.451447
0.451509
0.450663
0.449711
0.44127
0.440541
0.437259
0.41376
0.414898
0.419251
0.419024
0.419797
0.418453
0.394994
0.368046
0.361591
0.366935
0.370747
0.381631
0.39304
0.404883
0.412236
0.416142
0.419555
0.424473
0.421461
0.417991
0.413346
0.424128
0.450573
0.454736
0.454097
0.453772
0.453281
0.443431
0.440781
0.439831
0.412864
0.410401
0.414621
0.420069
0.423138
0.419679
0.389693
0.355385
0.352026
0.358602
0.367674
0.377989
0.388447
0.397957
0.409142
0.419921
0.429127
0.428775
0.428057
0.421913
0.417039
0.421852
0.448168
0.456848
0.456307
0.45589
0.454592
0.442318
0.440136
0.439844
0.40621
0.402327
0.406937
0.414601
0.421749
0.416832
0.376866
0.345945
0.344338
0.353042
0.361152
0.371045
0.377853
0.387422
0.400665
0.421298
0.434424
0.433937
0.432116
0.426206
0.418123
0.421115
0.441275
0.456743
0.458146
0.457805
0.454542
0.438701
0.438764
0.435357
0.395205
0.394282
0.399786
0.408869
0.416323
0.407535
0.363985
0.343037
0.343897
0.345978
0.34839
0.352125
0.358394
0.371379
0.392488
0.415279
0.43152
0.437637
0.436403
0.428885
0.419243
0.420838
0.435164
0.453049
0.459835
0.458866
0.452802
0.435831
0.438421
0.424672
0.388153
0.388459
0.395473
0.402851
0.411354
0.396312
0.358466
0.344919
0.344886
0.339987
0.334036
0.33403
0.336635
0.349341
0.376189
0.404356
0.420247
0.436774
0.438466
0.42725
0.414081
0.419019
0.43071
0.447151
0.459892
0.458897
0.450336
0.433228
0.438975
0.420613
0.384529
0.384109
0.391801
0.398673
0.406481
0.389898
0.35908
0.346973
0.341075
0.332801
0.327755
0.32653
0.332243
0.342381
0.360551
0.383582
0.401891
0.419804
0.429239
0.415766
0.407523
0.412401
0.426087
0.440056
0.458038
0.458472
0.447547
0.431666
0.437716
0.421067
0.382223
0.382766
0.389706
0.397103
0.405227
0.386636
0.362015
0.347089
0.333584
0.327402
0.324584
0.326739
0.33058
0.34094
0.353066
0.36622
0.380965
0.397985
0.419567
0.411522
0.401904
0.405162
0.418231
0.43258
0.453178
0.455058
0.442858
0.429641
0.43607
0.423623
0.384429
0.383372
0.38975
0.396736
0.402675
0.385264
0.363943
0.34612
0.327653
0.323931
0.325389
0.326232
0.329912
0.337887
0.347615
0.355313
0.370952
0.387228
0.412324
0.410915
0.398658
0.399623
0.412323
0.424695
0.444579
0.449263
0.435065
0.427697
0.435331
0.424574
0.388967
0.389322
0.390927
0.395416
0.399074
0.385283
0.363384
0.345103
0.324632
0.323033
0.323579
0.325637
0.32767
0.335542
0.342818
0.349753
0.36488
0.382635
0.405714
0.409641
0.398091
0.396865
0.408696
0.419062
0.43737
0.441637
0.426606
0.421907
0.43683
0.423307
0.394662
0.397273
0.3945
0.394054
0.396013
0.385014
0.363421
0.344194
0.325255
0.320748
0.322674
0.323449
0.326174
0.332497
0.340222
0.346149
0.358334
0.375408
0.402403
0.407289
0.39862
0.396924
0.408034
0.417944
0.434255
0.431124
0.414969
0.405869
0.434661
0.418013
0.397389
0.401181
0.397449
0.391595
0.392228
0.384113
0.363587
0.345642
0.327835
0.321831
0.321581
0.322543
0.324042
0.330788
0.337768
0.344499
0.35254
0.365042
0.391937
0.40561
0.400539
0.401227
0.411777
0.42148
0.434116
0.42544
0.415139
0.406526
0.425133
0.404729
0.394254
0.396688
0.394863
0.387962
0.390027
0.385276
0.365246
0.349365
0.334236
0.325635
0.325978
0.324007
0.324461
0.328976
0.336697
0.343301
0.35049
0.360874
0.378826
0.398071
0.406205
0.407716
0.419126
0.428622
0.438733
0.428053
0.420822
0.410638
0.421543
0.389806
0.384589
0.387577
0.390309
0.38757
0.39134
0.389032
0.3684
0.355383
0.343819
0.331972
0.329336
0.330019
0.327987
0.329963
0.335608
0.343149
0.349377
0.359847
0.372935
0.395351
0.409235
0.414414
0.425316
0.436635
0.442369
0.426834
0.422085
0.413753
0.421804
0.381365
0.37429
0.38118
0.388639
0.388581
0.392889
0.392058
0.371733
0.360271
0.351688
0.338771
0.333766
0.332374
0.334525
0.334355
0.33733
0.343081
0.349193
0.360398
0.379602
0.399719
0.413843
0.415584
0.423303
0.437539
0.43596
0.417655
0.414676
0.405537
0.419003
0.378483
0.369431
0.377743
0.387219
0.39021
0.394813
0.393959
0.373675
0.36441
0.355503
0.346017
0.339351
0.335891
0.337031
0.339695
0.341341
0.346232
0.35168
0.368443
0.392746
0.408525
0.416605
0.415952
0.417042
0.432426
0.426151
0.410929
0.405601
0.394478
0.409622
0.379331
0.367742
0.374203
0.384925
0.390792
0.397999
0.395107
0.374731
0.365779
0.358433
0.350482
0.345169
0.339831
0.339748
0.341592
0.345667
0.349665
0.356088
0.375791
0.405821
0.41623
0.419965
0.416554
0.416278
0.431739
0.423679
0.407756
0.401938
0.392564
0.406507
0.38528
0.369204
0.37088
0.379848
0.390131
0.400497
0.396303
0.374772
0.366711
0.359509
0.354685
0.34857
0.344551
0.342277
0.344021
0.348049
0.352572
0.359496
0.381622
0.413659
0.424413
0.422877
0.420645
0.419105
0.435608
0.425364
0.409661
0.404012
0.396746
0.414904
0.397609
0.375223
0.373102
0.376743
0.385905
0.400385
0.396126
0.374671
0.36529
0.360709
0.35651
0.351797
0.346697
0.344486
0.345176
0.349528
0.354146
0.363498
0.386251
0.416429
0.429013
0.428037
0.425687
0.424201
0.442298
0.430332
0.415717
0.412025
0.407116
0.41858
0.407183
0.387727
0.382556
0.381281
0.38386
0.396239
0.393554
0.373657
0.364033
0.360531
0.357589
0.353456
0.348161
0.343719
0.346002
0.349419
0.356272
0.3667
0.389865
0.417062
0.431023
0.433262
0.432068
0.430564
0.44994
0.436297
0.422431
0.416613
0.409355
0.418631
0.411302
0.400159
0.39558
0.391054
0.389375
0.394613
0.388112
0.371712
0.363418
0.361146
0.356643
0.352146
0.346251
0.342345
0.345376
0.349639
0.357233
0.36926
0.390925
0.417873
0.430765
0.435903
0.435414
0.435549
0.453773
0.438548
0.42471
0.416884
0.407247
0.419104
0.413278
0.40743
0.407245
0.404144
0.399524
0.397023
0.385879
0.370422
0.362725
0.358718
0.354004
0.348941
0.343497
0.339237
0.344441
0.349291
0.356775
0.370355
0.391677
0.415798
0.42916
0.434673
0.43645
0.438897
0.455228
0.439289
0.425144
0.415008
0.404027
0.41969
0.414113
0.412898
0.415137
0.415094
0.410974
0.403215
0.389238
0.372578
0.36223
0.353334
0.348009
0.345338
0.339032
0.337073
0.342611
0.3497
0.356581
0.370755
0.392334
0.414233
0.428437
0.4335
0.433893
0.438846
0.454187
0.441152
0.426719
0.414412
0.39882
0.419697
0.413428
0.416158
0.420441
0.42117
0.419399
0.411563
0.393996
0.375889
0.361611
0.345645
0.341712
0.338274
0.335093
0.335788
0.343566
0.350277
0.358841
0.373326
0.394686
0.41392
0.428576
0.43017
0.430121
0.435135
0.449736
0.441961
0.429939
0.417506
0.399677
0.422581
0.413608
0.4179
0.424157
0.424745
0.424736
0.417301
0.397073
0.377307
0.353914
0.339125
0.335426
0.333828
0.331496
0.336264
0.343884
0.351241
0.359643
0.374972
0.394732
0.413742
0.425766
0.424301
0.424001
0.43111
0.444487
0.440467
0.434603
0.429077
0.41317
0.424169
0.414066
0.418926
0.427061
0.428067
0.427906
0.418113
0.394403
0.36824
0.343712
0.332255
0.330776
0.328974
0.330509
0.335427
0.344635
0.351846
0.360937
0.374246
0.392227
0.411306
0.420268
0.416622
0.419971
0.431231
0.445438
0.443446
0.443724
0.443974
0.426857
0.425236
0.413848
0.414972
0.426201
0.427245
0.429612
0.417271
0.386355
0.35805
0.337653
0.327819
0.326565
0.327671
0.329422
0.336025
0.344683
0.354236
0.362757
0.375806
0.391647
0.409566
0.413895
0.407931
0.414797
0.431951
0.449554
0.451853
0.45551
0.453279
0.434983
0.429036
0.413044
0.409363
0.422647
0.426285
0.427792
0.41558
0.381264
0.351929
0.331813
0.324488
0.325638
0.327424
0.332167
0.338405
0.348051
0.357845
0.366939
0.379487
0.396269
0.408935
0.407564
0.397618
0.406188
0.428914
0.450514
0.458237
0.45964
0.451922
0.437314
0.433856
0.405611
0.404551
0.421581
0.426412
0.426442
0.408704
0.376944
0.348087
0.328887
0.325314
0.326716
0.331818
0.337036
0.344157
0.352364
0.362298
0.371448
0.38667
0.402118
0.408822
0.404313
0.393076
0.396425
0.420504
0.446292
0.455729
0.453822
0.445947
0.433703
0.437284
0.398201
0.403573
0.422613
0.42822
0.425597
0.403428
0.369715
0.344801
0.333512
0.329775
0.332138
0.337265
0.343566
0.349328
0.357096
0.364182
0.377079
0.393916
0.408809
0.41035
0.40114
0.390421
0.390636
0.41242
0.44252
0.451406
0.44885
0.441221
0.431198
0.439654
0.401115
0.404598
0.422376
0.430206
0.426317
0.400063
0.365035
0.345532
0.338069
0.337812
0.339255
0.34383
0.347689
0.353726
0.360237
0.366517
0.380832
0.399429
0.411241
0.408719
0.396628
0.389186
0.390247
0.406901
0.441686
0.453026
0.4483
0.439855
0.43429
0.441007
0.41309
0.406476
0.4209
0.43104
0.428922
0.398516
0.367392
0.347772
0.34336
0.343129
0.346874
0.350142
0.353418
0.357659
0.363929
0.369612
0.384542
0.40183
0.409727
0.403734
0.395508
0.391098
0.394356
0.403509
0.435747
0.453846
0.450085
0.44248
0.438455
0.441925
0.421148
0.411508
0.421835
0.431368
0.430329
0.401256
0.374061
0.35475
0.348819
0.348823
0.351445
0.355535
0.358905
0.364673
0.369537
0.3754
0.389183
0.402612
0.405145
0.402842
0.397808
0.394177
0.395819
0.400766
0.425414
0.449003
0.450125
0.444166
0.438167
0.446843
0.420837
0.416849
0.42668
0.433482
0.429862
0.403086
0.378741
0.363913
0.35615
0.3535
0.356001
0.359294
0.365335
0.37122
0.376945
0.381929
0.394489
0.402513
0.404272
0.404302
0.397946
0.392887
0.396297
0.39912
0.413945
0.441645
0.442904
0.442934
0.442933
0.447809
0.415982
0.416802
0.429947
0.439081
0.428176
0.403556
0.379617
0.369563
0.361959
0.357655
0.358766
0.36365
0.370325
0.377392
0.382129
0.388434
0.397942
0.405396
0.40484
0.402412
0.39459
0.390623
0.393336
0.395486
0.401355
0.431036
0.436009
0.436718
0.439541
0.444545
0.411104
0.416137
0.431611
0.443312
0.428595
0.401096
0.38102
0.371942
0.365472
0.35888
0.360877
0.366693
0.374666
0.380444
0.386352
0.392064
0.401904
0.406698
0.402309
0.397214
0.390266
0.385242
0.387415
0.389589
0.393073
0.413876
0.428006
0.426495
0.428663
0.437007
0.408946
0.415977
0.433555
0.444916
0.429317
0.398172
0.381887
0.374165
0.365406
0.35996
0.36218
0.369957
0.377061
0.383069
0.387693
0.3947
0.405342
0.403649
0.395991
0.390604
0.383483
0.378085
0.379894
0.384223
0.388104
0.40167
0.418381
0.416474
0.416807
0.427901
0.409223
0.417278
0.43594
0.44637
0.42698
0.395684
0.381951
0.373816
0.365847
0.362047
0.365917
0.372798
0.38027
0.385677
0.392204
0.401043
0.409773
0.402256
0.392974
0.386735
0.377649
0.372952
0.375886
0.379984
0.384402
0.393335
0.40318
0.403367
0.400484
0.414775
0.413607
0.420092
0.438213
0.447906
0.421919
0.393585
0.380245
0.373907
0.366316
0.365378
0.368869
0.375289
0.380915
0.389541
0.399249
0.409394
0.411297
0.401449
0.3925
0.381385
0.371273
0.366986
0.368638
0.374341
0.380196
0.389693
0.391366
0.386963
0.381716
0.400687
0.421441
0.423332
0.4407
0.447453
0.417831
0.39071
0.379511
0.37382
0.368674
0.367659
0.372119
0.377939
0.385548
0.394704
0.404472
0.406796
0.402111
0.393325
0.382902
0.372189
0.366534
0.362617
0.363994
0.369511
0.378074
0.388283
0.386522
0.377538
0.374548
0.393143
0.427018
0.433438
0.444313
0.441534
0.413942
0.390033
0.379466
0.374315
0.371031
0.371766
0.375845
0.3833
0.390142
0.397114
0.400033
0.400286
0.394221
0.384659
0.375844
0.369758
0.366518
0.364064
0.363036
0.368801
0.377945
0.386595
0.383181
0.373776
0.371321
0.39211
0.427948
0.439523
0.447847
0.434891
0.408441
0.390871
0.381478
0.375693
0.374151
0.374699
0.379579
0.386793
0.393172
0.394762
0.396918
0.396227
0.389596
0.382245
0.376908
0.372615
0.369582
0.36689
0.365181
0.369292
0.377242
0.38479
0.381229
0.373077
0.370376
0.393465
0.428102
0.441411
0.451216
0.430717
0.405011
0.39289
0.384059
0.378723
0.376529
0.378002
0.381137
0.388686
0.391801
0.393875
0.395544
0.394866
0.387833
0.382878
0.379952
0.376122
0.37312
0.369892
0.367056
0.370285
0.377238
0.383809
0.38094
0.374657
0.370675
0.398244
0.431152
0.442865
0.450178
0.425048
0.402554
0.394197
0.386861
0.381817
0.380255
0.380171
0.382433
0.38694
0.389496
0.393372
0.396897
0.392916
0.387615
0.384751
0.382831
0.37918
0.376637
0.372375
0.368989
0.370406
0.378031
0.383685
0.381232
0.377059
0.374187
0.410678
0.43727
0.44462
0.445293
0.417945
0.401386
0.395354
0.388603
0.385202
0.382333
0.38253
0.382546
0.383436
0.385537
0.392533
0.395051
0.390924
0.387064
0.386977
0.385924
0.382838
0.380202
0.375665
0.371224
0.371036
0.379693
0.385106
0.383827
0.383279
0.385066
0.426304
0.44021
0.441493
0.439722
0.414041
0.402196
0.396063
0.390292
0.386523
0.384346
0.383735
0.382355
0.377485
0.379348
0.386883
0.388977
0.385278
0.3866
0.388928
0.389455
0.386941
0.383948
0.378906
0.374532
0.373501
0.383458
0.390031
0.391382
0.39421
0.399725
0.44444
0.440257
0.437527
0.434801
0.413612
0.403215
0.396908
0.391809
0.3886
0.385449
0.385058
0.379409
0.373194
0.372627
0.378291
0.378035
0.378329
0.385082
0.39049
0.392794
0.390651
0.386787
0.381077
0.377416
0.377789
0.389511
0.399115
0.402763
0.406272
0.417107
0.461312
0.440171
0.432273
0.430656
0.41588
0.406156
0.39827
0.394234
0.390469
0.387946
0.38581
0.378403
0.371679
0.372194
0.371795
0.369564
0.372576
0.385486
0.394713
0.397778
0.396022
0.392067
0.386398
0.383276
0.385015
0.398284
0.411096
0.415145
0.420064
0.432012
0.463198
0.438028
0.425257
0.430443
0.420033
0.410267
0.399156
0.395095
0.393243
0.390151
0.386577
0.38152
0.377372
0.3761
0.372959
0.366076
0.369044
0.383841
0.399595
0.407198
0.406689
0.402784
0.395241
0.391758
0.395573
0.40992
0.423695
0.427661
0.42605
0.431875
0.458988
0.435357
0.424634
0.432612
0.423177
0.413211
0.401079
0.395961
0.393654
0.393278
0.392842
0.390934
0.384783
0.382837
0.375569
0.367079
0.362912
0.374834
0.39426
0.409468
0.416345
0.413641
0.406473
0.403605
0.409263
0.422992
0.434999
0.431247
0.423305
0.427897
0.452187
0.433335
0.425807
0.433724
0.426469
0.416653
0.406256
0.399134
0.395612
0.39651
0.399738
0.398465
0.391949
0.386142
0.377574
0.366431
0.361159
0.36739
0.388301
0.405723
0.418242
0.421618
0.416579
0.415679
0.423113
0.435371
0.438685
0.430193
0.418445
0.421908
0.439107
0.428691
0.425163
0.435067
0.432196
0.422347
0.412633
0.404661
0.399989
0.399606
0.400849
0.401758
0.39512
0.388207
0.378622
0.369248
0.362933
0.36245
0.377138
0.39981
0.41682
0.425199
0.425135
0.427309
0.434632
0.441571
0.438929
0.42744
0.411504
0.407841
0.4209
0.423378
0.42334
0.434804
0.436785
0.428828
0.418697
0.41221
0.406805
0.401955
0.401308
0.399759
0.395416
0.388642
0.381623
0.371987
0.365177
0.360267
0.36665
0.391944
0.413515
0.42613
0.430933
0.43711
0.441806
0.442721
0.437155
0.422058
0.398096
0.387308
0.398092
0.419031
0.419556
0.432468
0.437756
0.433124
0.424301
0.419936
0.412757
0.40589
0.400973
0.397714
0.392857
0.388753
0.382891
0.375448
0.367599
0.362607
0.363849
0.384177
0.409393
0.425952
0.432857
0.442548
0.444467
0.440119
0.429308
0.408113
0.375105
0.359935
0.377696
0.414257
0.414693
0.428928
0.436524
0.434869
0.427173
0.423421
0.417744
0.410054
0.401717
0.395402
0.390863
0.38735
0.383435
0.377572
0.372537
0.366433
0.366666
0.379692
0.405796
0.424254
0.432743
0.441973
0.443021
0.434898
0.418378
0.390685
0.350944
0.34865
0.373812
0.410098
0.410166
0.425576
0.434895
0.435377
0.426863
0.423956
0.419773
0.413593
0.403469
0.396231
0.390554
0.388033
0.383483
0.38056
0.375954
0.370587
0.369875
0.378106
0.40157
0.42103
0.429999
0.435907
0.438941
0.430201
0.40951
0.375895
0.345313
0.348237
0.371171
0.408904
0.407267
0.42483
0.434658
0.437402
0.428333
0.425604
0.423731
0.415896
0.407731
0.399589
0.393551
0.388301
0.383196
0.380731
0.377873
0.372379
0.371695
0.376991
0.39526
0.416717
0.425584
0.428323
0.431506
0.427029
0.407302
0.37166
0.347642
0.350199
0.37007
0.40932
0.406709
0.426882
0.437014
0.441677
0.433087
0.43017
0.42789
0.419584
0.410533
0.403237
0.395242
0.38757
0.381569
0.380722
0.376606
0.372531
0.371413
0.374386
0.386543
0.412762
0.422839
0.42425
0.424628
0.422071
0.40821
0.374888
0.352528
0.353926
0.371256
0.412911
0.409439
0.429904
0.440609
0.4467