/*--------------------------------*- C++ -*----------------------------------*\
| =========                 |                                                 |
| \\      /  F ield         | OpenFOAM: The Open Source CFD Toolbox           |
|  \\    /   O peration     | Version:  2.3.0                                 |
|   \\  /    A nd           | Web:      www.OpenFOAM.org                      |
|    \\/     M anipulation  |                                                 |
\*---------------------------------------------------------------------------*/
FoamFile
{
    version     2.0;
    format      ascii;
    class       volScalarField;
    location    "1.77";
    object      nut.particles;
}
// * * * * * * * * * * * * * * * * * * * * * * * * * * * * * * * * * * * * * //

dimensions      [0 2 -1 0 0 0 0];

internalField   nonuniform List<scalar> 
6000
(
1.1865e-05
1.09238e-05
8.84692e-06
9.822e-06
1.27951e-05
1.1084e-05
1.19668e-05
1.65941e-05
1.53193e-05
1.52533e-05
1.40603e-05
9.55697e-06
7.03238e-06
5.59699e-06
4.92523e-06
4.21261e-06
5.53914e-06
1.03046e-05
1.14603e-05
6.10444e-06
8.2704e-06
1.08319e-05
1.03306e-05
9.15944e-06
6.83463e-06
6.94291e-06
9.20937e-06
1.21329e-05
1.1306e-05
1.44349e-05
1.04672e-06
1.22374e-06
1.34115e-06
1.44555e-06
1.70137e-06
1.80578e-06
1.50984e-06
1.36591e-06
1.5547e-06
1.89027e-06
1.37377e-06
1.26832e-06
1.26702e-06
1.29777e-06
1.43123e-06
1.70726e-06
2.61283e-06
4.11084e-06
2.09281e-06
4.00185e-07
5.81699e-07
2.79784e-06
2.46426e-06
1.64445e-06
1.6363e-06
1.9779e-06
1.843e-06
1.89681e-06
3.17119e-06
4.21715e-06
1.04897e-06
2.0201e-07
2.49203e-07
2.80308e-07
2.12302e-07
1.11844e-06
2.88417e-07
1.23264e-07
7.82526e-07
8.53884e-07
5.62764e-07
9.1823e-07
1.67571e-06
1.74221e-06
2.9263e-06
5.00732e-06
0.000151767
1.55934e-05
2.87472e-06
8.8206e-07
1.57322e-06
8.4861e-06
4.93281e-05
3.52763e-05
6.13926e-06
6.83713e-07
4.24587e-07
7.15282e-07
2.7315e-06
7.5264e-06
7.76382e-07
3.75788e-07
3.87977e-07
3.52056e-07
2.42582e-07
2.05131e-07
2.19892e-07
2.18045e-07
2.14488e-07
3.26347e-07
3.89817e-07
3.92797e-07
1.0319e-06
2.9239e-06
0.000143126
0.000467617
0.000461219
5.68357e-05
3.02929e-06
8.39104e-07
7.5595e-07
9.64183e-07
4.74083e-05
5.50227e-05
4.58637e-05
1.50912e-06
5.55897e-07
3.75265e-07
9.55638e-07
7.51521e-06
2.23137e-06
1.17069e-06
4.34673e-07
4.16421e-07
3.51368e-07
2.8822e-07
2.73605e-07
2.6673e-07
2.05882e-07
1.96816e-07
3.13854e-07
2.7129e-07
7.08653e-07
4.0319e-05
0.000462958
0.000456216
0.000570161
1.93318e-05
2.8312e-06
8.34469e-07
6.71537e-07
4.20368e-07
6.52136e-06
4.79298e-05
6.43473e-05
4.19e-05
4.35952e-07
3.27546e-07
7.38667e-07
8.07915e-06
0.000876139
4.98612e-06
7.26688e-07
4.24963e-07
4.50323e-07
4.10577e-07
3.4272e-07
3.09384e-07
2.4971e-07
2.17669e-07
3.78205e-07
2.96142e-07
4.55678e-07
8.66022e-05
0.000455031
0.000535552
0.00046249
5.2233e-06
1.31493e-06
3.49112e-07
6.6749e-07
5.46924e-07
9.17351e-07
6.66383e-05
4.9977e-05
5.40655e-05
3.73569e-05
5.58611e-07
8.38825e-07
9.10827e-06
0.00216674
0.000595708
3.24592e-06
4.27015e-07
4.5836e-07
5.32143e-07
5.04541e-07
3.99554e-07
3.04993e-07
2.77684e-07
4.23532e-07
5.87749e-07
1.27723e-06
0.000294339
0.000497018
0.000458024
0.00057578
1.34155e-06
1.63611e-07
5.15831e-07
7.55212e-07
4.67935e-07
4.43951e-07
4.05252e-05
7.2378e-05
4.53623e-05
4.24463e-05
9.68718e-07
1.31304e-06
9.6945e-06
0.0025199
0.00251073
0.000387654
2.42046e-06
5.67252e-07
5.38567e-07
6.04975e-07
5.2803e-07
4.2726e-07
3.93827e-07
6.13969e-07
1.92141e-06
4.67537e-06
0.000456052
0.000454348
0.000559669
8.4802e-06
8.82952e-07
4.29991e-07
5.94356e-07
4.74818e-07
4.19948e-07
7.0099e-07
7.13547e-06
4.54374e-05
6.67418e-05
3.89454e-05
1.66788e-06
1.3914e-06
6.521e-06
0.00253352
0.0025198
0.00251146
0.00124479
4.95307e-05
1.70487e-06
5.79805e-07
6.52514e-07
7.10058e-07
9.53528e-07
2.38337e-06
7.66531e-06
0.000224451
0.000444258
0.000492959
0.000169153
2.03668e-06
5.00753e-07
3.37369e-07
2.31293e-07
3.44779e-07
7.48708e-07
4.33503e-06
8.50973e-06
5.29216e-06
3.88355e-05
5.38137e-05
2.11633e-06
1.22871e-06
3.53799e-06
0.0025252
0.0025218
0.00250584
0.00250241
0.0024801
0.000832713
1.55831e-06
5.36297e-07
1.43463e-06
2.917e-06
0.000145101
0.000565507
0.000556716
0.000239764
6.76009e-06
1.75793e-06
7.14405e-07
6.58761e-07
2.92742e-07
1.50994e-07
6.44841e-07
2.08725e-06
0.000167851
6.88332e-06
1.47164e-06
2.17277e-06
3.67761e-05
2.40702e-05
1.46966e-06
2.26418e-06
1.55641e-05
2.1198e-05
6.62185e-05
0.000925211
0.00247376
0.00151646
0.000960526
0.00053554
0.000528454
0.000736322
0.000753117
0.000742559
0.0007496
4.85357e-06
4.82445e-07
1.96448e-07
3.3392e-07
4.19015e-07
1.71332e-07
1.33965e-07
1.27295e-06
5.03531e-05
0.000194687
6.41658e-06
5.98259e-07
3.99132e-07
4.83005e-05
3.94219e-05
2.77874e-06
1.98525e-06
1.83824e-06
2.91034e-06
4.15726e-06
8.03497e-06
1.40141e-05
1.59284e-05
2.11799e-05
3.48336e-05
0.000125204
3.72234e-05
0.000750101
0.000755458
0.000738532
4.61632e-07
4.33632e-07
3.01054e-07
3.18467e-07
3.16709e-07
1.8701e-07
2.79758e-07
2.49853e-06
0.000190018
0.000200924
4.41152e-06
2.38558e-07
5.12808e-07
6.76153e-06
9.17479e-06
3.16244e-06
1.79671e-06
4.03913e-07
1.37748e-07
1.50823e-07
9.36834e-08
1.08218e-06
1.58379e-06
3.12249e-06
5.86831e-06
6.39606e-06
4.1291e-06
6.08401e-06
1.53522e-05
0.000227685
1.38866e-06
8.96264e-07
5.37293e-07
3.94585e-07
3.99338e-07
2.77776e-07
8.13193e-07
4.69056e-06
0.000198505
0.000142976
1.2454e-06
3.67395e-07
1.28082e-06
5.38124e-06
2.5882e-06
1.35749e-06
1.21444e-06
2.88128e-07
2.56218e-07
3.82227e-07
3.96145e-07
2.81678e-07
2.36028e-07
2.10754e-07
1.77496e-07
1.23309e-07
1.93476e-07
1.92725e-07
2.07876e-06
1.11733e-05
0.000158501
2.4111e-06
1.96298e-06
1.14333e-06
4.99773e-07
3.84216e-07
2.11406e-06
0.000140452
0.000198375
1.04721e-05
4.10655e-07
7.2387e-07
2.69492e-06
2.36756e-06
1.74414e-07
3.32216e-07
6.45688e-07
2.76967e-07
5.70231e-07
9.98322e-07
8.94308e-07
4.30773e-07
3.04975e-07
2.67445e-07
1.93566e-07
1.87823e-07
2.42929e-07
2.30261e-07
5.6177e-07
8.38398e-06
0.000675584
0.000652134
0.000400279
3.51556e-06
1.74393e-06
5.34566e-07
4.50774e-06
0.000148251
2.94458e-05
5.66247e-06
8.02667e-07
2.06963e-06
2.36898e-06
4.31831e-07
1.26387e-07
1.5971e-07
3.34086e-07
5.74609e-07
1.28568e-06
2.4595e-06
2.12926e-06
7.11598e-07
3.2097e-07
3.17466e-07
2.74456e-07
2.40347e-07
4.46124e-07
5.1054e-07
9.49329e-07
3.72846e-05
0.000660494
0.000713598
0.000653594
0.000449726
0.000112513
0.000338375
0.000654027
7.88187e-05
4.21422e-06
4.27407e-06
4.65195e-06
2.71059e-06
8.83161e-07
2.00724e-07
1.64668e-07
1.70362e-07
2.30581e-07
1.54105e-06
2.05735e-05
0.000119968
3.7673e-06
1.33391e-06
3.53164e-07
3.34912e-07
3.95694e-07
5.23285e-07
1.12521e-06
1.9013e-06
3.94959e-06
0.000657962
0.000870074
0.000661854
0.000766209
0.000658412
0.000699663
0.000655804
0.000708528
6.94195e-06
1.0505e-06
3.00917e-06
6.00825e-06
1.57794e-06
6.11059e-07
3.02362e-07
2.12178e-07
1.84283e-07
1.99514e-07
0.000261625
0.00185526
0.00133628
0.000346553
2.5672e-06
4.4745e-07
4.62881e-07
9.95284e-07
3.4235e-06
1.63358e-05
0.000660832
0.00066253
0.000865937
0.000668063
0.000935517
0.000666449
0.000853318
0.000665318
0.000775785
0.000656419
3.42247e-06
6.0357e-07
1.51574e-06
3.99121e-06
9.13714e-07
5.9507e-07
4.60328e-07
3.64259e-07
2.72894e-07
2.44743e-07
0.0028535
0.00285235
0.00175415
0.00121158
1.12118e-05
8.00257e-07
1.2062e-06
8.51492e-06
0.000367606
0.000386552
0.000391049
2.73582e-05
2.4698e-05
3.92996e-05
2.45091e-05
0.000943718
0.000670096
0.000946206
0.00066737
0.000809108
2.93235e-06
4.92373e-07
5.54968e-07
1.27915e-05
1.36231e-05
6.19739e-07
6.92376e-07
6.9564e-07
5.24078e-07
4.80668e-07
0.00259092
0.00149935
0.00116709
0.000905882
0.000429897
1.15485e-05
2.35322e-05
2.21332e-05
2.06588e-05
1.37227e-05
6.26712e-06
2.61562e-06
1.88322e-06
1.91379e-06
1.36731e-06
4.26018e-06
0.000934956
0.000678464
0.000954386
0.000666573
3.69391e-06
4.20155e-07
5.11347e-07
0.000260318
0.00101158
0.000647627
7.59152e-05
1.21522e-06
1.00239e-06
1.11228e-06
5.51116e-05
3.25942e-05
8.83284e-05
0.000222687
7.70524e-05
3.46501e-05
1.8911e-05
5.25853e-06
2.03205e-06
9.81084e-07
2.55703e-07
1.29412e-07
1.04809e-07
1.45327e-07
1.87443e-07
1.87243e-07
4.27932e-06
0.000966214
0.000682893
3.06369e-05
7.49861e-06
2.0857e-07
6.71799e-07
0.000712121
0.00220964
0.00240104
0.00222394
0.000738142
1.95787e-05
2.23672e-06
5.55789e-06
4.75864e-06
7.47964e-06
8.9634e-06
8.34617e-06
4.54353e-06
9.38547e-07
1.07061e-07
5.16287e-08
2.25592e-07
3.43851e-07
1.87581e-07
1.25498e-07
1.62751e-07
1.71657e-07
1.46728e-07
3.34944e-07
5.25865e-06
1.00617e-05
5.56939e-06
9.14834e-06
1.04959e-05
5.32382e-05
0.00142139
0.00244004
0.00239991
0.0024369
0.00239309
0.000925219
7.24382e-05
8.94643e-07
2.60291e-07
5.68587e-07
6.44992e-07
4.43033e-07
3.41542e-08
3.31578e-08
4.41182e-08
1.30121e-07
4.42816e-07
5.99669e-07
3.02765e-07
1.81856e-07
2.07742e-07
2.20557e-07
1.70009e-07
4.15784e-07
8.91335e-07
5.56845e-07
1.25973e-06
2.68956e-06
1.20543e-05
0.000195273
0.00169584
0.00239917
0.002654
0.00240285
0.00244932
0.00220724
0.000528757
4.77383e-07
1.83266e-08
2.04123e-08
1.91348e-08
2.18265e-08
2.7227e-08
3.74343e-08
5.48668e-08
1.32561e-07
5.77617e-07
1.06229e-06
5.38308e-07
3.08437e-07
3.34132e-07
2.82405e-07
1.63929e-07
1.15273e-06
6.63475e-07
1.74853e-07
2.84224e-07
6.31066e-07
2.27225e-06
1.61513e-05
0.00052792
0.0026565
0.00240994
0.00266433
0.00240263
0.00241538
0.000963336
4.6022e-07
2.23149e-08
2.27885e-08
2.24961e-08
2.60568e-08
3.2885e-08
5.05991e-08
8.44838e-08
1.72707e-07
5.53137e-07
1.19478e-06
7.4891e-07
4.77155e-07
4.82594e-07
2.50805e-07
1.68514e-06
1.34246e-06
2.89228e-07
2.63788e-07
3.20183e-07
3.72439e-07
3.18542e-07
1.67068e-06
1.04959e-05
2.99446e-05
0.00271248
0.00240996
0.00266112
0.00239815
0.001093
4.37946e-07
2.49773e-08
2.6445e-08
2.76435e-08
3.37581e-08
4.55568e-08
6.47002e-08
1.10095e-07
2.3909e-07
6.74111e-07
1.35663e-06
8.71909e-07
5.67009e-07
3.70751e-07
1.84865e-06
2.88011e-06
5.57154e-07
6.43182e-08
1.71952e-07
3.86464e-07
4.8463e-07
3.47354e-07
3.64554e-07
1.22278e-06
3.82707e-06
1.11039e-05
0.00149514
0.00239946
0.00246584
0.00136692
4.40809e-07
3.11106e-08
3.36538e-08
3.51973e-08
4.35356e-08
5.8412e-08
8.42542e-08
1.45673e-07
3.10919e-07
8.20468e-07
1.56157e-06
9.44201e-07
3.73217e-07
1.26804e-06
4.64853e-06
1.50168e-06
9.88198e-08
9.89008e-08
7.66538e-08
2.66932e-07
3.81318e-07
3.62864e-07
3.21661e-07
4.32309e-07
3.02551e-07
2.13723e-06
1.13592e-05
0.00252651
0.00239847
0.00231157
4.28447e-07
4.13987e-08
4.39855e-08
4.4338e-08
5.22039e-08
7.35015e-08
1.19683e-07
2.13978e-07
4.45577e-07
1.11498e-06
1.9601e-06
1.31305e-06
1.06303e-06
4.13522e-06
3.44381e-06
2.58331e-07
1.05381e-07
1.01367e-07
8.40609e-08
8.70661e-08
1.90703e-07
2.09565e-07
1.55855e-07
1.3663e-07
3.79281e-08
4.07405e-08
3.30688e-06
3.28273e-05
0.00241794
0.00241895
4.02023e-07
5.11465e-08
5.19678e-08
5.59381e-08
7.07388e-08
1.02593e-07
1.66006e-07
3.04578e-07
6.50717e-07
1.61999e-06
2.32713e-06
1.78887e-06
3.51383e-06
4.72095e-06
1.72125e-06
1.82684e-07
1.15008e-07
1.17405e-07
1.11831e-07
8.90128e-08
8.35846e-08
1.09322e-07
4.3857e-08
3.37824e-08
3.48827e-08
5.12505e-08
6.15151e-07
8.84493e-06
0.0023828
0.00240576
4.04639e-07
6.64652e-08
7.01864e-08
7.78168e-08
1.02108e-07
1.51304e-07
2.50329e-07
4.6078e-07
1.00517e-06
2.41138e-06
3.69591e-06
3.45088e-06
3.93643e-06
3.47118e-06
1.12842e-06
2.30485e-07
1.39455e-07
1.31585e-07
1.23695e-07
9.54071e-08
7.54615e-08
6.07465e-08
3.64672e-08
3.15655e-08
6.04657e-08
5.37483e-08
9.86727e-08
2.69635e-06
1.63761e-05
1.16515e-05
4.06576e-07
9.74682e-08
1.03011e-07
1.15912e-07
1.53856e-07
2.32094e-07
3.85749e-07
7.43714e-07
1.87741e-06
3.87623e-06
3.60356e-06
3.48693e-06
3.79263e-06
2.71829e-06
1.04632e-06
3.46513e-07
2.1418e-07
1.49926e-07
1.08457e-07
1.26765e-07
1.06929e-07
8.23015e-08
5.84897e-08
7.2816e-08
8.86477e-08
8.47452e-08
4.66996e-07
3.64626e-06
3.62613e-06
1.00691e-06
4.08523e-07
1.46759e-07
1.54563e-07
1.7972e-07
2.41971e-07
3.65609e-07
6.08174e-07
1.38415e-06
3.08721e-06
3.79027e-06
3.49781e-06
3.35186e-06
2.99161e-06
2.05026e-06
1.16079e-06
5.40371e-07
3.67785e-07
2.1607e-07
1.02724e-07
1.3304e-07
1.59184e-07
1.11567e-07
9.39358e-08
9.00265e-08
1.04592e-07
2.85605e-07
1.5973e-06
4.35673e-06
1.16834e-06
1.50762e-07
4.32475e-07
2.24855e-07
2.40758e-07
2.88581e-07
3.92561e-07
5.90942e-07
1.1525e-06
2.57079e-06
3.9165e-06
3.59873e-06
3.10918e-06
2.07835e-06
1.7656e-06
1.51049e-06
1.19093e-06
7.88285e-07
5.59472e-07
3.38785e-07
1.31078e-07
1.2168e-07
1.66504e-07
1.25513e-07
9.27988e-08
1.05855e-07
1.60397e-07
7.48171e-07
2.93551e-06
3.72928e-06
3.98504e-07
1.03387e-07
4.7316e-07
3.45976e-07
3.77834e-07
4.63681e-07
6.36968e-07
1.10545e-06
2.33447e-06
4.44112e-06
3.69966e-06
2.39788e-06
1.91293e-06
1.49368e-06
1.16461e-06
9.89665e-07
1.01272e-06
1.04553e-06
8.43405e-07
4.64246e-07
1.78607e-07
1.13636e-07
1.99724e-07
1.39996e-07
1.09056e-07
1.27989e-07
3.39876e-07
1.2952e-06
3.42406e-06
2.49689e-06
5.64167e-08
1.16091e-07
5.31801e-07
5.05296e-07
5.71711e-07
7.34405e-07
1.16128e-06
2.17745e-06
5.88999e-06
5.31601e-06
2.90333e-06
1.98203e-06
1.53108e-06
1.09902e-06
7.26585e-07
5.2759e-07
6.98513e-07
1.17282e-06
1.55678e-06
1.26174e-06
3.07469e-07
1.27478e-07
1.93087e-07
1.79653e-07
1.28533e-07
1.541e-07
4.8599e-07
1.71845e-06
3.56925e-06
1.47796e-06
2.4646e-08
1.32208e-07
5.8168e-07
6.98436e-07
8.70917e-07
1.27929e-06
2.01825e-06
7.8149e-06
1.48638e-05
1.51155e-05
1.22375e-05
6.72178e-06
1.75425e-06
9.14311e-07
5.28272e-07
2.58029e-07
3.97423e-07
1.13917e-06
2.4284e-06
3.28749e-06
6.63101e-07
1.54088e-07
2.09241e-07
1.63833e-07
1.24725e-07
1.53623e-07
6.37634e-07
2.08521e-06
3.28637e-06
7.70259e-07
4.05715e-08
1.44523e-07
6.88008e-07
1.06235e-06
1.42332e-06
2.12274e-06
1.01988e-05
2.18845e-05
3.89589e-05
6.43613e-05
8.07041e-05
6.77764e-05
3.6608e-05
8.62673e-06
5.64751e-07
2.60716e-07
2.06067e-07
1.0979e-06
3.49894e-06
4.19738e-06
1.0403e-06
1.94373e-07
1.85007e-07
1.77622e-07
1.02776e-07
1.83957e-07
6.84012e-07
2.33456e-06
2.78051e-06
3.89731e-07
5.22462e-08
1.51562e-07
1.07035e-06
1.49375e-06
4.23888e-06
1.15673e-05
2.2701e-05
4.5375e-05
9.37458e-05
0.00017448
0.00024793
0.000248495
0.00018533
8.82357e-05
1.92444e-05
5.80848e-07
1.23463e-07
1.38194e-06
2.93276e-06
1.98547e-06
8.61323e-07
2.26933e-07
1.95904e-07
1.56374e-07
1.02793e-07
1.08275e-07
8.31186e-07
2.43096e-06
1.91282e-06
2.80654e-07
6.49954e-08
1.61675e-07
9.83132e-06
3.07504e-06
8.84113e-06
1.92617e-05
3.94039e-05
8.17075e-05
0.000163819
0.000298601
0.000453415
0.0005267
0.000469989
0.00033126
0.000132529
2.14224e-05
1.88347e-06
1.58551e-06
1.22878e-06
6.6044e-07
4.8035e-07
1.72215e-07
1.63787e-07
1.76105e-07
1.00417e-07
2.24575e-07
8.32026e-07
1.76057e-06
1.21943e-06
2.37293e-07
8.4132e-08
1.96535e-07
1.95952e-05
3.13536e-06
1.20337e-05
2.75694e-05
5.59212e-05
0.000107793
0.000198231
0.000351386
0.000554966
0.000707743
0.000708116
0.000651545
0.000428395
0.000122375
1.10582e-05
1.78533e-06
1.04783e-06
5.41297e-07
3.29415e-07
1.36944e-07
1.67962e-07
1.68399e-07
1.12595e-07
3.14232e-07
4.98449e-07
1.14292e-06
9.02531e-07
1.90664e-07
1.12407e-07
2.57788e-07
3.60813e-05
3.05001e-06
1.47185e-05
3.21133e-05
5.69088e-05
9.38625e-05
0.000153699
0.00026243
0.000423511
0.000578391
0.000688505
0.000688665
0.000669869
0.00030085
2.64439e-05
2.53288e-06
1.72829e-06
5.68324e-07
2.0873e-07
1.37564e-07
1.42177e-07
1.38521e-07
1.158e-07
1.8779e-07
2.99232e-07
7.90137e-07
4.47157e-07
2.09569e-07
1.67045e-07
3.49384e-07
8.35127e-05
5.78139e-06
1.75117e-05
3.17096e-05
4.9569e-05
6.67745e-05
8.67748e-05
0.000122597
0.00019309
0.000285723
0.000375923
0.0005298
0.000646923
0.0004916
0.000142288
1.1161e-05
2.65314e-06
6.4284e-07
1.72887e-07
1.03253e-07
1.10381e-07
1.16693e-07
1.12529e-07
1.48879e-07
2.87736e-07
6.84505e-07
2.22159e-07
2.75182e-07
4.18618e-07
5.01495e-07
0.000215049
2.85469e-05
2.94603e-05
3.8987e-05
5.2423e-05
6.56716e-05
7.86898e-05
9.8423e-05
0.000129113
0.000171444
0.000218638
0.000333381
0.000645492
0.000721219
0.000716115
0.000337337
2.62995e-06
6.07078e-07
2.07589e-07
1.42562e-07
1.56834e-07
2.06132e-07
2.3214e-07
2.86624e-07
4.64198e-07
7.1409e-08
1.89466e-07
2.35848e-07
1.6142e-06
9.84226e-07
0.000495782
0.000129407
7.75042e-05
8.02155e-05
9.27148e-05
0.000112959
0.000140363
0.000175739
0.00021357
0.000248728
0.000292156
0.000402045
0.000722199
0.000720123
0.00076498
0.000723373
3.86327e-06
4.77682e-07
3.87765e-07
3.4832e-07
3.40327e-07
3.54459e-07
7.26711e-07
1.88574e-06
2.16577e-06
1.94313e-06
1.64144e-06
2.78435e-06
2.22805e-05
7.98661e-05
0.000926898
0.000368598
0.0002106
0.000195049
0.000213849
0.0002534
0.000305142
0.000350953
0.000375232
0.000376874
0.000380803
0.000449726
0.000718708
0.000795933
0.000731387
0.000804652
3.70234e-06
4.07276e-07
4.54366e-07
4.81907e-07
4.32257e-07
6.77618e-07
2.79004e-06
6.47613e-06
7.29343e-06
7.59238e-06
8.80641e-06
0.00012325
0.00078442
0.000786739
0.00146651
0.000726861
0.000442281
0.000386417
0.000399817
0.000436508
0.000465161
0.000468639
0.000454297
0.000419776
0.000379317
0.000369632
0.00075799
0.00072274
0.000811559
0.000148537
2.95149e-06
2.75874e-07
2.61047e-07
2.97108e-07
3.33906e-07
1.9343e-06
9.52634e-06
0.000135035
0.000595488
0.000711334
0.000787824
0.000788204
0.000786591
0.0007891
0.00214651
0.0011746
0.000734522
0.000598062
0.000559611
0.00053984
0.000502803
0.000456217
0.00040123
0.000351309
0.000296409
0.000260685
0.000161916
0.000793741
9.59747e-05
8.48104e-06
3.7993e-06
7.10071e-07
2.02359e-07
2.0918e-07
7.95181e-07
8.73059e-06
0.000101615
0.000791358
0.000794891
0.000796148
0.00079839
0.000800928
0.000591634
0.000247812
0.00312557
0.00178638
0.00110469
0.000816803
0.00066359
0.000542955
0.000433901
0.000328338
0.000242898
0.000187023
0.000140601
0.000146882
1.71324e-05
0.000716408
5.25061e-06
2.53996e-06
5.43758e-06
2.93673e-06
1.40017e-06
9.42722e-07
1.72034e-06
5.60197e-06
8.88052e-06
2.02556e-05
2.4404e-05
1.70787e-05
1.16973e-05
8.02785e-06
5.72342e-06
4.01145e-06
0.00469644
0.00280471
0.0017404
0.00119665
0.000848566
0.000576707
0.000363451
0.00020607
0.000109395
5.83477e-05
3.58374e-05
3.5786e-05
1.41313e-05
4.78913e-06
1.16266e-06
1.01406e-06
3.25227e-06
6.1883e-06
3.81074e-06
2.0081e-06
1.10694e-06
9.44636e-07
3.71906e-07
1.53783e-06
2.64143e-06
1.99282e-06
6.8768e-07
1.02471e-07
4.26779e-08
6.09126e-07
0.0072858
0.00470995
0.00312801
0.00221203
0.00154529
0.000986206
0.000548452
0.000262522
0.000105242
3.19347e-05
1.18545e-05
9.86312e-06
9.26495e-06
2.61953e-06
9.03232e-07
4.15486e-07
8.16406e-07
2.92987e-06
2.75566e-06
1.63142e-06
7.77621e-07
3.31684e-07
6.71962e-08
3.19575e-08
5.0443e-07
1.20356e-06
7.85816e-07
3.81267e-07
1.86287e-07
6.46364e-07
0.0113438
0.00819111
0.0061383
0.00486744
0.00381969
0.00279295
0.00179153
0.000953262
0.000397646
0.000143506
4.94882e-05
2.01216e-05
1.00244e-05
2.8036e-06
1.21175e-06
3.3543e-07
1.79462e-07
3.62705e-07
9.88685e-07
1.03964e-06
6.23359e-07
1.3042e-07
7.66152e-08
5.62683e-08
1.65781e-07
1.59286e-06
2.44775e-06
1.06587e-06
4.33191e-07
1.25603e-06
0.0167584
0.0134652
0.0113843
0.0102097
0.00919022
0.00799354
0.00657096
0.00477134
0.0028688
0.00136447
0.000505791
0.00013994
2.55766e-05
3.19556e-06
1.70629e-06
4.81479e-07
1.39672e-07
7.66178e-08
7.22527e-08
2.74587e-07
1.77398e-07
9.04551e-08
6.23578e-08
8.48863e-08
1.17844e-07
9.79028e-07
3.50207e-06
2.9201e-06
8.65311e-07
2.72393e-06
0.0215425
0.0184417
0.0168405
0.0163633
0.0161277
0.0158505
0.01524
0.0138424
0.0109605
0.00690568
0.00317971
0.00096443
0.000151053
3.48775e-06
2.01716e-06
5.8186e-07
1.43241e-07
8.56477e-08
8.18685e-08
3.11073e-08
7.17138e-08
9.80082e-08
6.15946e-08
8.76853e-08
1.10356e-07
7.3031e-07
3.2653e-06
0.000121071
8.91351e-06
4.30146e-06
0.0226479
0.0194551
0.0181155
0.0178822
0.0177231
0.0176044
0.0174401
0.0159586
0.0144758
0.0128309
0.00909758
0.00409324
0.000989512
3.06285e-05
2.25813e-06
5.76651e-07
1.19925e-07
5.30031e-08
1.13357e-07
4.89644e-08
6.82694e-08
1.02419e-07
8.84458e-08
1.11685e-07
1.26535e-07
8.48581e-07
4.1146e-06
0.00030372
8.63984e-05
0.000149805
0.0194611
0.0157511
0.0140122
0.0126957
0.0108122
0.0091456
0.00725368
0.00386042
0.00286311
0.00375121
0.00647038
0.00619437
0.00343775
0.000436822
2.24316e-06
7.0382e-07
1.04697e-07
3.24632e-08
8.94925e-08
9.17224e-08
8.49839e-08
9.28096e-08
1.02485e-07
1.75701e-07
1.9135e-07
5.2003e-07
4.02601e-06
0.000308065
0.000137707
0.000369984
0.0130055
0.00905765
0.00677593
0.0041916
0.00169915
0.00067949
0.000189975
5.32301e-06
2.75456e-06
2.90296e-06
0.000348095
0.00202184
0.00321786
0.00189383
3.00851e-06
7.33446e-07
1.3612e-07
2.98072e-08
4.01101e-08
1.12786e-07
1.02338e-07
8.02912e-08
2.48669e-07
2.61652e-07
2.74374e-07
4.64832e-07
2.22216e-06
0.000301492
0.000251417
0.000486912
0.00709232
0.00390547
0.00169913
0.000250865
2.26335e-06
1.77579e-06
2.29352e-06
2.76937e-06
3.51238e-06
3.97631e-06
8.16858e-05
0.000519428
0.00192454
0.00295373
0.000401934
6.1643e-07
1.78537e-07
3.78401e-08
4.0783e-08
8.59325e-08
1.16184e-07
9.41645e-08
4.93655e-07
3.78635e-07
4.07013e-07
6.04942e-07
1.66668e-06
0.000300822
0.000732198
0.000995992
0.00305881
0.000945001
1.39468e-05
1.34622e-06
2.81256e-06
4.59918e-06
2.81256e-05
0.000155721
0.000776956
0.00385749
0.00530662
0.00514801
0.00624688
0.00689042
0.00268147
1.44198e-06
1.20995e-07
6.25405e-08
6.32829e-08
6.77549e-08
9.86676e-08
2.14018e-07
8.61449e-07
6.61386e-07
5.0437e-07
5.00047e-07
8.59088e-05
0.00102295
0.00137757
0.00140871
0.000646354
1.40059e-05
1.57992e-05
8.2741e-05
0.00088255
0.00619507
0.0195272
0.0349358
0.0526442
0.0620114
0.0561876
0.0416792
0.0301615
0.0219165
0.010713
0.00035741
1.25256e-06
7.90888e-08
8.12313e-08
6.30619e-08
7.96046e-08
3.39613e-07
1.79518e-06
1.38491e-06
6.94965e-07
8.11261e-06
0.000689738
0.00151153
0.00131657
0.00141593
0.00035584
0.000404626
0.00366012
0.0180934
0.0473009
0.0677657
0.0662614
0.0679372
0.0656302
0.0662222
0.0644179
0.0637418
0.0585682
0.0484397
0.0326073
0.0064978
3.90981e-06
2.04344e-07
1.09141e-07
7.74671e-08
8.02482e-08
5.12853e-07
3.34514e-06
2.6714e-06
2.63389e-06
0.00018942
0.00103853
0.00152099
0.00111015
0.001426
0.00358107
0.0227414
0.0605323
0.0686342
0.07092
0.0683438
0.0700095
0.0670803
0.0684456
0.065784
0.066951
0.0645061
0.0641156
0.0629965
0.0588464
0.0341262
0.000816514
1.36901e-06
2.04851e-07
1.40974e-07
1.21263e-07
7.56593e-07
4.72815e-06
9.10942e-06
9.16833e-05
0.000470877
0.0014513
0.0017748
0.0011238
0.00142864
0.0479229
0.072357
0.0709863
0.0728094
0.069693
0.0711063
0.0673223
0.0685396
0.0635332
0.0653881
0.0636472
0.0651893
0.0632069
0.0638359
0.0619642
0.0608927
0.0178048
6.68048e-06
5.85983e-07
3.04452e-07
2.1862e-07
1.1427e-06
5.47564e-06
1.71575e-05
0.000300439
0.000985277
0.0020554
0.00230211
0.0013492
0.00047954
0.0736192
0.0725272
0.0743918
0.0710543
0.0718632
0.054135
0.0124624
0.00156751
0.000137971
0.00247331
0.0138836
0.0313962
0.0588042
0.0613201
0.0625609
0.0607431
0.0584126
0.00175339
1.92219e-06
8.68075e-07
4.55282e-07
1.66827e-06
4.44409e-06
1.13104e-05
0.000635856
0.00165864
0.00231492
0.0023108
0.0015083
0.000629272
0.0739765
0.0749617
0.0717363
0.065916
0.00244309
7.03331e-06
4.49592e-06
2.89409e-06
2.1678e-06
2.46995e-06
5.2803e-06
0.000224638
0.000849377
0.0193029
0.0594389
0.0614089
0.0591388
0.0274268
6.42153e-06
2.27935e-06
9.43559e-07
1.68171e-06
2.78494e-06
3.56699e-05
0.00127457
0.00225838
0.0023117
0.00238104
0.00221952
0.00064459
0.0749723
0.0721404
0.0277684
4.94449e-05
6.99804e-06
4.82618e-06
3.6299e-06
3.27794e-06
3.15917e-06
2.7153e-06
2.64232e-06
2.71604e-06
3.20671e-06
5.5399e-06
0.0184534
0.0589732
0.0603482
0.056152
0.00152486
4.07764e-06
2.29817e-06
1.69326e-06
3.73169e-06
0.000277099
0.00231055
0.00231017
0.0023705
0.00231277
0.00151759
0.00151738
0.0721043
0.0124801
1.82292e-05
8.55988e-06
5.03873e-06
3.30021e-06
2.26033e-06
1.90633e-06
1.4763e-06
1.21943e-06
6.50059e-07
2.23694e-07
5.90216e-07
2.21848e-06
0.00105125
0.0576086
0.0580897
0.0589219
0.0123671
5.49645e-06
3.90212e-06
3.76392e-06
6.35943e-06
1.54035e-05
0.000837727
0.00162341
0.0018194
0.00230565
1.53404e-05
0.0015133
0.00660953
0.000470058
1.07952e-05
4.6647e-06
2.63344e-06
1.8645e-06
1.31398e-06
8.99748e-07
6.94758e-07
4.82966e-07
4.81562e-07
4.72071e-07
4.09282e-07
1.39731e-06
4.6891e-05
0.0185692
0.0605793
0.0570924
0.0446028
2.18414e-05
3.557e-06
3.82138e-06
2.68407e-06
2.19469e-06
9.24135e-06
1.52454e-05
1.30415e-05
1.28254e-05
2.23843e-06
1.6251e-05
0.00160612
0.00096347
1.40632e-05
3.44795e-06
1.64497e-06
1.71497e-06
1.4402e-06
1.17838e-06
1.08095e-06
1.41992e-06
1.39953e-06
1.00777e-06
7.91923e-07
1.6267e-06
2.56025e-06
0.00636996
0.0562073
0.0602703
0.0549586
0.00302901
3.33482e-06
1.70343e-06
9.87734e-07
5.09416e-07
3.83263e-07
1.97278e-06
1.82988e-06
1.53365e-06
3.92149e-07
4.43598e-06
0.00156989
0.00153294
1.58654e-05
3.44693e-06
1.69627e-06
2.17245e-06
2.72289e-06
2.80552e-06
2.70223e-06
2.69771e-06
3.23176e-06
5.85046e-06
2.46348e-06
1.83328e-06
2.30998e-06
0.001377
0.0462952
0.0561915
0.0591302
0.0295697
6.36241e-06
1.31893e-06
7.45883e-07
4.76129e-07
3.80957e-07
3.21361e-07
3.00329e-07
3.98422e-07
5.50294e-07
2.83564e-06
0.0015385
0.00149482
1.29786e-05
2.81658e-06
1.97067e-06
2.67687e-06
3.44684e-06
3.94526e-06
4.35394e-06
5.578e-06
0.000165439
0.000173988
0.000171306
2.49034e-05
1.00596e-05
0.000411718
0.0198413
0.0595442
0.0555381
0.0548222
0.00585149
2.39465e-06
8.5627e-07
5.07454e-07
3.66399e-07
2.79348e-07
3.47732e-07
5.30364e-07
8.33433e-07
5.26736e-06
0.00150665
0.00151762
8.73882e-06
2.72364e-06
3.17291e-06
4.52517e-06
5.80964e-06
7.27815e-06
1.02151e-05
2.64986e-05
0.000186301
0.000182835
2.76861e-05
1.86847e-05
1.92727e-05
2.0009e-05
0.00494829
0.0537772
0.0585017
0.0545395
0.0367698
0.00101343
1.52631e-06
7.46334e-07
5.60191e-07
5.10793e-07
6.30997e-07
1.04725e-06
2.57273e-06
0.000507586
0.00153604
0.00152691
1.32716e-05
1.11724e-05
1.44812e-05
1.63252e-05
1.5524e-05
1.53666e-05
1.48128e-05
1.66544e-05
2.39496e-05
1.79705e-05
5.85351e-06
3.56546e-06
4.47774e-06
1.00222e-05
3.25316e-05
0.0124489
0.0536264
0.0568458
0.0531648
0.0128408
4.94994e-05
1.40375e-06
1.16436e-06
1.01811e-06
1.32913e-06
2.95464e-05
0.000791366
0.000568838
2.62262e-05
1.19834e-05
1.01961e-05
1.00909e-05
9.6057e-06
8.33529e-06
6.93503e-06
5.33196e-06
3.99824e-06
3.5472e-06
3.95207e-06
3.52531e-06
3.83474e-06
4.06272e-06
6.05243e-06
4.92073e-06
8.07479e-06
3.78848e-05
0.0231206
0.0536341
0.0539222
0.0296338
0.00132382
2.2162e-06
2.48963e-06
2.40683e-06
0.000364261
0.00194035
0.00164837
0.00053037
2.96032e-06
2.86216e-06
2.84775e-06
2.73243e-06
2.72375e-06
2.89954e-06
3.28154e-06
3.86299e-06
4.47016e-06
3.98585e-06
4.77814e-06
7.65221e-06
3.83299e-06
4.76286e-07
4.61184e-07
3.75579e-06
3.37071e-06
1.01513e-05
0.000450694
0.0541258
0.0530423
0.0435764
0.00262434
3.46862e-06
4.86643e-06
0.000758284
0.00272611
0.00276284
0.00140616
0.000526328
3.89228e-06
3.02179e-06
2.57249e-06
2.31103e-06
1.76554e-06
1.51298e-06
1.67559e-06
9.02536e-07
1.31135e-07
2.03793e-09
4.98203e-09
5.72717e-08
1.31622e-08
1.47264e-08
1.03397e-08
6.2877e-08
2.77499e-06
3.55137e-06
1.97939e-05
0.0270627
0.0532011
0.0502758
0.00316366
1.1673e-05
0.000273489
0.00272652
0.00276341
0.002714
9.34933e-05
0.000523572
1.14693e-06
6.94298e-08
4.05839e-09
6.31729e-09
1.09432e-08
8.92386e-09
5.11159e-09
4.673e-09
4.47943e-09
4.63877e-09
5.13284e-09
6.78435e-09
8.14601e-09
1.08322e-08
1.11508e-08
6.86601e-09
2.97822e-06
2.88246e-06
1.60927e-05
0.015785
0.0519695
0.0494245
0.00269357
1.21465e-05
8.74386e-06
0.000982699
0.000200082
1.41467e-05
8.48892e-06
0.000658051
8.74445e-07
5.20353e-08
4.85476e-09
5.4926e-09
1.04964e-08
1.12496e-08
7.50707e-09
6.05837e-09
6.07315e-09
4.9978e-09
6.19378e-09
7.60916e-09
9.11281e-09
9.60139e-09
1.2916e-08
6.13718e-09
2.86691e-06
2.84943e-06
1.48404e-05
0.0123656
0.051835
0.0333962
0.000110268
6.45485e-06
1.22479e-06
5.87861e-06
4.32588e-06
2.87382e-06
1.99828e-06
1.87938e-05
8.51247e-07
4.41889e-08
2.55837e-09
2.94038e-09
6.38747e-09
1.15767e-08
7.29058e-09
6.38174e-09
7.01695e-09
6.46549e-09
8.01647e-09
8.62688e-09
8.91731e-09
8.39634e-09
1.48785e-08
9.15974e-09
2.23377e-06
2.99258e-06
1.64346e-05
0.0132887
0.050285
0.0142215
1.38408e-05
1.67307e-06
9.43045e-07
8.48112e-07
4.22709e-07
2.02435e-07
2.47701e-07
5.10537e-06
7.91243e-07
3.1425e-08
2.15018e-09
3.10011e-09
4.20397e-09
9.0609e-09
7.1656e-09
7.01314e-09
7.13191e-09
9.01978e-09
1.01839e-08
1.14078e-08
8.8203e-09
9.1901e-09
1.66536e-08
1.09984e-08
1.43216e-06
3.13997e-06
2.30396e-05
0.0175368
0.0488145
0.000733789
6.53318e-06
4.83409e-07
9.20596e-07
8.61296e-07
6.09839e-07
3.3458e-07
3.0145e-07
2.78983e-06
7.64288e-07
3.16576e-08
3.13334e-09
5.69716e-09
2.9817e-09
6.53766e-09
6.89926e-09
8.11448e-09
7.37477e-09
1.04025e-08
1.52463e-08
1.39622e-08
8.02189e-09
9.85507e-09
1.81259e-08
1.13956e-08
7.19553e-07
3.04234e-06
3.51576e-05
0.0189052
0.018941
1.23296e-05
1.47811e-06
7.129e-07
6.91984e-07
5.76351e-07
4.75502e-07
4.50273e-07
5.01228e-07
2.41749e-06
7.88604e-07
3.55339e-08
8.29065e-09
1.24914e-08
5.60827e-09
4.10729e-09
5.95447e-09
8.81603e-09
8.67684e-09
1.18367e-08
2.19207e-08
1.5608e-08
8.63584e-09
9.50974e-09
1.77985e-08
1.2317e-08
3.59214e-07
2.46425e-06
4.93684e-05
0.0155615
0.00124259
4.64831e-06
7.35576e-07
9.80218e-07
8.03212e-07
5.89511e-07
4.76211e-07
6.31775e-07
8.10449e-07
1.9475e-06
8.32054e-07
5.66208e-08
2.77259e-08
3.0128e-08
1.87148e-08
7.27829e-09
7.78485e-09
9.46192e-09
8.69563e-09
1.37199e-08
2.93552e-08
1.65963e-08
1.09561e-08
9.68329e-09
1.70076e-08
1.33105e-08
2.96102e-07
1.00003e-06
2.91971e-05
0.00138535
9.81451e-06
7.68649e-07
1.14715e-06
9.62193e-07
8.70609e-07
8.14601e-07
7.06696e-07
7.97474e-07
9.46238e-07
7.51959e-06
1.05692e-06
3.20095e-07
2.23231e-07
1.80136e-07
1.12517e-07
2.83957e-08
1.29231e-08
1.07357e-08
8.7101e-09
1.65098e-08
3.23407e-08
2.06371e-08
1.38204e-08
1.10309e-08
1.55466e-08
3.86918e-08
3.89313e-07
1.6362e-06
4.47957e-06
1.02351e-05
1.89014e-06
1.0779e-06
1.21507e-06
1.13397e-06
9.51887e-07
1.08728e-06
1.27538e-06
2.19024e-06
0.000294053
0.0228573
1.35582e-06
7.58002e-07
5.95977e-07
4.8997e-07
3.14569e-07
1.01926e-07
2.9393e-08