/*--------------------------------*- C++ -*----------------------------------*\
| =========                 |                                                 |
| \\      /  F ield         | OpenFOAM: The Open Source CFD Toolbox           |
|  \\    /   O peration     | Version:  2.3.0                                 |
|   \\  /    A nd           | Web:      www.OpenFOAM.org                      |
|    \\/     M anipulation  |                                                 |
\*---------------------------------------------------------------------------*/
FoamFile
{
    version     2.0;
    format      ascii;
    class       volVectorField;
    location    "1.77";
    object      U;
}
// * * * * * * * * * * * * * * * * * * * * * * * * * * * * * * * * * * * * * //

dimensions      [0 1 -1 0 0 0 0];

internalField   nonuniform List<vector> 
6000
(
(0.0244086 -0.0628591 0)
(0.0677582 -0.124112 0)
(0.0637569 -0.0265637 0)
(0.00560963 -0.0469574 0)
(-0.0202642 -0.169766 0)
(-0.0173002 -0.158871 0)
(-0.0485138 -0.113196 0)
(-0.0960291 -0.150264 0)
(-0.114781 -0.158144 0)
(-0.0988515 -0.139619 0)
(-0.131076 -0.0852823 0)
(-0.19407 -0.0446006 0)
(-0.230803 -0.0296006 0)
(-0.210305 -0.0102024 0)
(-0.170601 -0.0106097 0)
(-0.111243 -0.00507708 0)
(-0.0107011 -0.0198064 0)
(0.087975 0.0256874 0)
(0.0493067 0.111384 0)
(-0.195694 0.260801 0)
(-0.461305 0.122808 0)
(-0.413885 0.0430483 0)
(-0.248442 -0.00602847 0)
(-0.0491516 -0.0346595 0)
(0.0487568 -0.0755393 0)
(0.0301992 -0.0372949 0)
(-0.0145981 -0.0501458 0)
(-0.0489884 -0.0622156 0)
(-0.0659564 -0.0766229 0)
(-0.0276895 -0.0502422 0)
(0.0322777 0.544873 0)
(0.0413542 0.629782 0)
(0.0528649 0.616856 0)
(0.088954 0.626422 0)
(0.0701907 0.677054 0)
(0.00179693 0.701939 0)
(-0.0372948 0.711654 0)
(-0.046691 0.66584 0)
(-0.0678218 0.687645 0)
(-0.117611 0.632475 0)
(-0.198032 0.722023 0)
(-0.260692 0.762507 0)
(-0.30201 0.643337 0)
(-0.256737 0.568036 0)
(-0.162636 0.524444 0)
(-0.0379432 0.507759 0)
(0.0925209 0.440871 0)
(0.140394 0.499898 0)
(0.0492814 0.765471 0)
(-0.146275 1.12219 0)
(-0.420519 0.776783 0)
(-0.449889 0.404221 0)
(-0.339132 0.313063 0)
(-0.158927 0.361396 0)
(-0.04047 0.617409 0)
(0.0492247 0.660862 0)
(0.0820475 0.694915 0)
(0.0551473 0.719517 0)
(-0.000480369 0.659335 0)
(-0.021609 0.522045 0)
(0.0235192 0.338689 0)
(0.0830596 0.459751 0)
(0.0975596 0.512787 0)
(0.0887283 0.540283 0)
(0.0606227 0.571357 0)
(0.0230099 0.577142 0)
(-0.00785425 0.577148 0)
(-0.0277742 0.550804 0)
(-0.06074 0.553571 0)
(-0.107867 0.591113 0)
(-0.188982 0.64279 0)
(-0.23044 0.668713 0)
(-0.23326 0.465656 0)
(-0.163489 0.332103 0)
(-0.0567524 0.258616 0)
(0.0345252 0.25071 0)
(0.124846 0.219048 0)
(0.176938 0.357646 0)
(0.113049 0.974161 0)
(-0.0832022 1.1451 0)
(-0.2039 0.977817 0)
(-0.294216 0.222405 0)
(-0.290427 0.00409825 0)
(-0.13816 0.0419507 0)
(-0.0160914 0.263273 0)
(0.103204 0.405396 0)
(0.161122 0.497692 0)
(0.154552 0.603767 0)
(0.0863544 0.554728 0)
(0.0340756 0.402156 0)
(0.0220118 0.28389 0)
(0.108193 0.453745 0)
(0.120726 0.523157 0)
(0.0879116 0.563801 0)
(0.068777 0.592747 0)
(0.0457593 0.611277 0)
(0.0159783 0.599638 0)
(-0.0103288 0.591515 0)
(-0.042895 0.59014 0)
(-0.0760915 0.632428 0)
(-0.115526 0.675428 0)
(-0.129634 0.697965 0)
(-0.0914371 0.433461 0)
(-9.81936e-05 0.240586 0)
(0.0674183 0.195472 0)
(0.111331 0.1928 0)
(0.150144 0.189591 0)
(0.150271 0.267972 0)
(0.115281 1.19637 0)
(-0.00841942 1.19525 0)
(0.0319945 0.987788 0)
(-0.0630938 0.542704 0)
(-0.167015 -0.0651247 0)
(-0.115229 -0.0192814 0)
(-0.00725488 0.180323 0)
(0.0858958 0.354932 0)
(0.165465 0.496809 0)
(0.195749 0.698976 0)
(0.132582 0.676995 0)
(0.0616118 0.468168 0)
(0.0543916 0.234832 0)
(0.0433695 0.378705 0)
(0.115623 0.560976 0)
(0.090718 0.595576 0)
(0.0657749 0.618276 0)
(0.0497027 0.630806 0)
(0.0218442 0.636466 0)
(-0.00129914 0.622954 0)
(-0.0318304 0.621576 0)
(-0.0547884 0.652225 0)
(-0.0475207 0.689586 0)
(-0.0276091 0.683311 0)
(0.0337493 0.366997 0)
(0.0952488 0.163753 0)
(0.128986 0.164277 0)
(0.151198 0.175052 0)
(0.176771 0.176545 0)
(0.0972894 0.316007 0)
(-0.000503015 1.25143 0)
(0.0320787 1.11578 0)
(0.117504 0.968467 0)
(0.112551 0.71326 0)
(0.0170479 -0.068677 0)
(-0.0409783 -0.108928 0)
(0.0227757 0.0703968 0)
(0.0830976 0.272544 0)
(0.123341 0.391094 0)
(0.192544 0.690027 0)
(0.176474 0.785618 0)
(0.0826341 0.563621 0)
(0.0120435 0.200504 0)
(0.00293933 0.327879 0)
(0.018469 0.53206 0)
(0.0780424 0.639166 0)
(0.0741872 0.645404 0)
(0.0498619 0.654284 0)
(0.0134254 0.657757 0)
(-0.0177112 0.659783 0)
(-0.045166 0.650237 0)
(-0.0650407 0.653432 0)
(-0.0265412 0.667436 0)
(0.0463598 0.639105 0)
(0.142809 0.305981 0)
(0.172892 0.141754 0)
(0.179743 0.15268 0)
(0.188002 0.161403 0)
(0.197771 0.161097 0)
(0.0517148 0.545822 0)
(-0.0767804 1.13883 0)
(0.0376656 1.03851 0)
(0.112559 0.864301 0)
(0.195956 0.748615 0)
(0.120316 0.121491 0)
(0.0777869 -0.130661 0)
(0.0908748 0.0193659 0)
(0.107291 0.262695 0)
(0.0959453 0.34077 0)
(0.154381 0.624551 0)
(0.199573 0.867753 0)
(0.0980529 0.689256 0)
(-0.0184478 0.244411 0)
(-0.0569792 0.332082 0)
(-0.0763125 0.46524 0)
(-0.0289056 0.603174 0)
(0.034833 0.664139 0)
(0.053029 0.705331 0)
(0.0170254 0.709401 0)
(-0.035425 0.70011 0)
(-0.0699122 0.676498 0)
(-0.0874848 0.637772 0)
(-0.0378515 0.622189 0)
(0.10425 0.51798 0)
(0.22417 0.246975 0)
(0.240839 0.143918 0)
(0.23642 0.159664 0)
(0.237057 0.169749 0)
(0.182227 0.180594 0)
(-0.00916645 0.879752 0)
(-0.0966468 1.06579 0)
(-0.0133027 0.94061 0)
(0.0603981 0.850609 0)
(0.186113 0.695592 0)
(0.231452 0.215316 0)
(0.216394 -0.13004 0)
(0.159922 0.0224845 0)
(0.119429 0.276297 0)
(0.0948008 0.341682 0)
(0.136403 0.527761 0)
(0.221459 0.895861 0)
(0.116498 0.835092 0)
(-0.0303479 0.304051 0)
(-0.0875958 0.376806 0)
(-0.12224 0.445517 0)
(-0.113886 0.516695 0)
(-0.0685054 0.595124 0)
(-0.0181879 0.694487 0)
(-0.00863176 0.784402 0)
(-0.0470192 0.787829 0)
(-0.0817393 0.72273 0)
(-0.0718012 0.648272 0)
(0.0113385 0.518464 0)
(0.152694 0.330334 0)
(0.242648 0.169791 0)
(0.266197 0.13808 0)
(0.271203 0.161426 0)
(0.277582 0.18034 0)
(0.195253 0.345027 0)
(-0.0478103 1.04555 0)
(-0.0518639 1.01925 0)
(-0.00805959 0.946725 0)
(0.0442174 0.800868 0)
(0.217112 0.538622 0)
(0.388484 0.132864 0)
(0.347885 -0.0375313 0)
(0.188458 0.119263 0)
(0.0949769 0.305632 0)
(0.0871009 0.336524 0)
(0.121147 0.432699 0)
(0.23344 0.890099 0)
(0.123079 1.03826 0)
(-0.0348824 0.370148 0)
(-0.0944853 0.432377 0)
(-0.130593 0.469714 0)
(-0.143038 0.498096 0)
(-0.130491 0.535584 0)
(-0.10301 0.619458 0)
(-0.0877175 0.77747 0)
(-0.0798459 0.820612 0)
(-0.0726886 0.72175 0)
(-0.0302224 0.573214 0)
(0.0553577 0.376043 0)
(0.138527 0.217212 0)
(0.190048 0.131788 0)
(0.225863 0.120612 0)
(0.244168 0.152083 0)
(0.210152 0.193786 0)
(0.0481853 0.615387 0)
(-0.0714973 1.05316 0)
(-0.00197824 1.01373 0)
(0.0189415 0.91931 0)
(0.0907843 0.678962 0)
(0.321322 0.270938 0)
(0.437568 0.0306632 0)
(0.363445 0.0987298 0)
(0.161157 0.285105 0)
(0.0350723 0.33982 0)
(0.0372338 0.307331 0)
(0.083854 0.353295 0)
(0.190836 0.869972 0)
(0.107772 1.26994 0)
(-0.0509427 0.426584 0)
(-0.102888 0.47182 0)
(-0.129037 0.498095 0)
(-0.141712 0.514067 0)
(-0.139883 0.539427 0)
(-0.144446 0.600489 0)
(-0.141858 0.719517 0)
(-0.105914 0.759295 0)
(-0.0582724 0.660333 0)
(-0.0149551 0.492444 0)
(0.0252568 0.308507 0)
(0.0574784 0.18244 0)
(0.0931665 0.101538 0)
(0.139727 0.0873478 0)
(0.160498 0.150942 0)
(0.0395084 0.343988 0)
(-0.121408 0.767438 0)
(-0.0653587 0.952291 0)
(0.0189511 0.94621 0)
(0.0442674 0.877582 0)
(0.201941 0.465119 0)
(0.358881 0.0942035 0)
(0.402468 0.0229319 0)
(0.31861 0.244197 0)
(0.172426 0.608263 0)
(0.00655341 0.403675 0)
(0.00156968 0.255128 0)
(0.0477046 0.290189 0)
(0.111202 0.831297 0)
(0.0730371 1.4438 0)
(-0.079171 0.527689 0)
(-0.0909806 0.4861 0)
(-0.0967355 0.500281 0)
(-0.0950066 0.519992 0)
(-0.101065 0.547161 0)
(-0.125619 0.632138 0)
(-0.130946 0.705003 0)
(-0.0963021 0.694647 0)
(-0.0392682 0.610288 0)
(-0.0217124 0.492601 0)
(-0.03672 0.319408 0)
(-0.0361229 0.170287 0)
(-0.011189 0.0582652 0)
(0.0110433 0.0463773 0)
(-0.00306422 0.244604 0)
(-0.108908 0.557413 0)
(-0.104802 0.706686 0)
(-0.00783465 0.841455 0)
(0.0466558 0.909324 0)
(0.120479 0.788027 0)
(0.287715 0.283203 0)
(0.34833 0.0579054 0)
(0.338841 0.067931 0)
(0.204323 0.361183 0)
(0.13329 0.702729 0)
(0.0590656 0.527603 0)
(0.0286132 0.216959 0)
(0.026538 0.267348 0)
(0.0231419 0.8 0)
(0.0136363 1.52367 0)
(-0.00494963 0.636196 0)
(-0.0308406 0.47081 0)
(-0.0256094 0.45692 0)
(-0.00375808 0.452765 0)
(-0.0236389 0.509915 0)
(-0.0484734 0.613537 0)
(-0.0654835 0.671222 0)
(-0.0426767 0.638268 0)
(0.00873286 0.571866 0)
(-0.00531801 0.509725 0)
(-0.0863109 0.325564 0)
(-0.135738 0.162874 0)
(-0.136275 0.0359499 0)
(-0.162965 0.0706849 0)
(-0.18343 0.292553 0)
(-0.133442 0.534261 0)
(-0.019407 0.633887 0)
(0.0630783 0.781343 0)
(0.105785 0.861252 0)
(0.218561 0.642962 0)
(0.322826 0.191801 0)
(0.327282 0.0800158 0)
(0.24981 0.13101 0)
(0.118461 0.475705 0)
(0.0863455 0.725673 0)
(0.109788 0.543099 0)
(0.0760281 0.227102 0)
(-0.00405759 0.290364 0)
(-0.0860622 0.807819 0)
(-0.0759677 1.47247 0)
(0.0190359 0.625433 0)
(0.0267009 0.579611 0)
(0.0832007 0.524125 0)
(0.134647 0.568289 0)
(0.111116 0.643487 0)
(0.0417652 0.773214 0)
(0.00664529 0.759723 0)
(-0.00830922 0.592721 0)
(-0.0111981 0.509979 0)
(-0.043335 0.55041 0)
(-0.107195 0.391498 0)
(-0.191146 0.157867 0)
(-0.252217 0.0413946 0)
(-0.275348 0.0898165 0)
(-0.240059 0.223118 0)
(-0.118885 0.381404 0)
(0.0311036 0.552654 0)
(0.133476 0.766348 0)
(0.196785 0.834003 0)
(0.303439 0.513965 0)
(0.319655 0.184164 0)
(0.286017 0.150294 0)
(0.122724 0.235139 0)
(0.0549233 0.574333 0)
(0.0901055 0.704043 0)
(0.156637 0.513377 0)
(0.101864 0.287412 0)
(-0.0374925 0.437945 0)
(-0.194495 0.894603 0)
(-0.138505 1.31498 0)
(0.00573299 0.61752 0)
(0.0352708 0.456937 0)
(0.125261 0.378505 0)
(0.192173 0.467847 0)
(0.198524 0.703767 0)
(0.116958 0.823557 0)
(0.0411919 0.810008 0)
(-0.0449334 0.765236 0)
(-0.128076 0.708249 0)
(-0.160682 0.688155 0)
(-0.187052 0.639972 0)
(-0.202293 0.303729 0)
(-0.208595 0.0527002 0)
(-0.21575 0.0738284 0)
(-0.17617 0.129931 0)
(-0.0974666 0.210399 0)
(0.0280358 0.384374 0)
(0.155061 0.729743 0)
(0.284 0.731882 0)
(0.345151 0.455153 0)
(0.300859 0.248687 0)
(0.202862 0.268527 0)
(0.00449751 0.376239 0)
(-0.0210575 0.584493 0)
(0.0718587 0.608889 0)
(0.14491 0.471046 0)
(0.0617724 0.404531 0)
(-0.101678 0.729331 0)
(-0.217891 0.969625 0)
(-0.118003 1.09956 0)
(0.0338784 0.617942 0)
(0.0655616 0.36285 0)
(0.104203 0.303523 0)
(0.136211 0.388497 0)
(0.181243 0.706588 0)
(0.11024 0.895608 0)
(-0.0177931 0.869669 0)
(-0.127963 0.773751 0)
(-0.186565 0.675304 0)
(-0.170075 0.599632 0)
(-0.0924945 0.565185 0)
(-0.0482916 0.366746 0)
(-0.0111599 0.0722149 0)
(-0.0738675 0.0752073 0)
(-0.0763536 0.109595 0)
(-0.0598637 0.13539 0)
(-0.00834038 0.240846 0)
(0.132436 0.54492 0)
(0.269232 0.572776 0)
(0.314048 0.439018 0)
(0.271664 0.353006 0)
(0.0776434 0.430542 0)
(-0.106243 0.491068 0)
(-0.108949 0.511292 0)
(-0.0174844 0.489237 0)
(0.0209708 0.448339 0)
(-0.0607818 0.600172 0)
(-0.175595 0.834991 0)
(-0.160122 0.886443 0)
(-0.0724209 0.925463 0)
(0.0681854 0.527626 0)
(0.0839146 0.340394 0)
(0.0650999 0.314254 0)
(0.0435228 0.364033 0)
(0.0794498 0.666472 0)
(0.0660462 1.03087 0)
(-0.0792607 1.00341 0)
(-0.195186 0.875084 0)
(-0.203566 0.693399 0)
(-0.0666014 0.473822 0)
(0.11849 0.410607 0)
(0.223745 0.307706 0)
(0.206855 0.118845 0)
(0.0906428 0.135653 0)
(0.0173684 0.146494 0)
(-0.014866 0.147758 0)
(0.00398837 0.209878 0)
(0.097906 0.392138 0)
(0.190599 0.469847 0)
(0.235544 0.440441 0)
(0.180613 0.44951 0)
(-0.0244058 0.709654 0)
(-0.171906 0.556812 0)
(-0.193627 0.443735 0)
(-0.16865 0.428456 0)
(-0.163979 0.506383 0)
(-0.206584 0.708987 0)
(-0.204284 0.813411 0)
(-0.120817 0.810466 0)
(-0.0488662 0.827084 0)
(0.0747421 0.434611 0)
(0.0693996 0.356185 0)
(0.0268352 0.362445 0)
(-0.0229684 0.394962 0)
(-0.0423507 0.615143 0)
(-0.0191754 1.13538 0)
(-0.116911 1.19047 0)
(-0.154248 0.958847 0)
(-0.0162418 0.540615 0)
(0.165037 0.24583 0)
(0.300893 0.219397 0)
(0.381249 0.251492 0)
(0.321277 0.213527 0)
(0.20479 0.238446 0)
(0.0917253 0.227643 0)
(0.0205185 0.172618 0)
(0.0158578 0.18978 0)
(0.0708666 0.329134 0)
(0.127285 0.434964 0)
(0.164399 0.435957 0)
(0.0764763 0.594965 0)
(-0.120989 0.957836 0)
(-0.218865 0.613328 0)
(-0.285991 0.458211 0)
(-0.32683 0.454907 0)
(-0.342605 0.551916 0)
(-0.320153 0.687347 0)
(-0.219561 0.746459 0)
(-0.107725 0.759092 0)
(-0.0366923 0.77915 0)
(0.0404453 0.378127 0)
(0.0251323 0.386441 0)
(-0.0221013 0.418649 0)
(-0.0835941 0.455977 0)
(-0.138819 0.610251 0)
(-0.134503 1.09409 0)
(-0.0888633 1.27793 0)
(0.0222192 0.804618 0)
(0.189008 0.31985 0)
(0.304823 0.144164 0)
(0.352463 0.156359 0)
(0.374622 0.25481 0)
(0.326691 0.321165 0)
(0.240329 0.35071 0)
(0.129595 0.343805 0)
(0.0232668 0.230469 0)
(0.0033525 0.174105 0)
(0.0455704 0.268761 0)
(0.0784706 0.401648 0)
(0.0930058 0.440028 0)
(-0.0251338 0.799603 0)
(-0.209871 1.09536 0)
(-0.283462 0.709565 0)
(-0.34446 0.51571 0)
(-0.39096 0.483415 0)
(-0.391089 0.545314 0)
(-0.340382 0.59253 0)
(-0.227399 0.614824 0)
(-0.107901 0.654827 0)
(-0.0341265 0.725546 0)
(0.00584031 0.358136 0)
(-0.0219801 0.423733 0)
(-0.0703207 0.47544 0)
(-0.127862 0.521187 0)
(-0.177604 0.627505 0)
(-0.164733 0.943975 0)
(0.0566384 1.13821 0)
(0.231343 0.62904 0)
(0.278986 0.193075 0)
(0.308339 0.0786721 0)
(0.323646 0.0911094 0)
(0.313384 0.183679 0)
(0.278473 0.27878 0)
(0.237302 0.28026 0)
(0.162829 0.36213 0)
(0.0296194 0.218842 0)
(-0.0416628 0.14922 0)
(0.0146944 0.217624 0)
(0.0479686 0.388615 0)
(0.0254887 0.487102 0)
(-0.122699 0.999725 0)
(-0.27861 1.20406 0)
(-0.305875 0.750909 0)
(-0.332723 0.539468 0)
(-0.349049 0.487472 0)
(-0.334635 0.491698 0)
(-0.289379 0.490318 0)
(-0.213093 0.49538 0)
(-0.118403 0.539513 0)
(-0.0429599 0.635533 0)
(-0.0275006 0.368633 0)
(-0.0660022 0.474713 0)
(-0.110384 0.523003 0)
(-0.130372 0.570576 0)
(-0.134575 0.646215 0)
(-0.0739899 0.801092 0)
(0.173743 0.866193 0)
(0.326298 0.507315 0)
(0.264842 0.139389 0)
(0.243194 -0.000635783 0)
(0.309289 0.0907052 0)
(0.368511 0.318814 0)
(0.352643 0.48708 0)
(0.281008 0.522978 0)
(0.20943 0.66288 0)
(0.0983422 0.493049 0)
(0.0464527 0.0611031 0)
(0.00589466 0.176485 0)
(0.0582345 0.394553 0)
(-0.0263822 0.598107 0)
(-0.269466 1.17657 0)
(-0.345001 1.25795 0)
(-0.301202 0.763354 0)
(-0.29587 0.537739 0)
(-0.295495 0.485462 0)
(-0.282469 0.459961 0)
(-0.252501 0.431743 0)
(-0.203979 0.415897 0)
(-0.130221 0.449617 0)
(-0.0525481 0.544089 0)
(-0.10663 0.45874 0)
(-0.106353 0.546289 0)
(-0.131435 0.556979 0)
(-0.100322 0.590359 0)
(-0.049669 0.631298 0)
(0.0476424 0.609738 0)
(0.129761 0.501801 0)
(0.13575 0.554453 0)
(0.0906854 0.335502 0)
(0.105018 0.0597743 0)
(0.201266 0.0717001 0)
(0.333467 0.319966 0)
(0.400729 0.508584 0)
(0.396365 0.545354 0)
(0.416819 0.641898 0)
(0.430709 0.677518 0)
(0.302086 0.331035 0)
(0.186624 0.0720161 0)
(0.130566 0.362762 0)
(-0.0499742 0.801015 0)
(-0.403532 1.30898 0)
(-0.381851 1.17394 0)
(-0.272917 0.72546 0)
(-0.251201 0.538378 0)
(-0.250913 0.482071 0)
(-0.237995 0.443488 0)
(-0.213326 0.402219 0)
(-0.181594 0.372188 0)
(-0.131278 0.378988 0)
(-0.056158 0.451931 0)
(-0.0352772 0.465311 0)
(-0.0689809 0.522403 0)
(-0.10855 0.442692 0)
(-0.10971 0.427907 0)
(-0.111753 0.45989 0)
(-0.144034 0.611601 0)
(-0.218065 0.852119 0)
(-0.232708 0.768154 0)
(-0.126138 0.315044 0)
(0.010383 -0.0897659 0)
(0.108463 -0.1333 0)
(0.240851 0.0973417 0)
(0.389758 0.398717 0)
(0.47697 0.467199 0)
(0.590842 0.531807 0)
(0.731428 0.53731 0)
(0.756505 0.459972 0)
(0.535478 0.324141 0)
(0.222242 0.483908 0)
(-0.0356116 1.27138 0)
(-0.290541 1.43587 0)
(-0.302719 1.03748 0)
(-0.239863 0.671721 0)
(-0.211695 0.542033 0)
(-0.213336 0.477441 0)
(-0.198855 0.425375 0)
(-0.171212 0.378196 0)
(-0.139968 0.340768 0)
(-0.102334 0.330709 0)
(-0.0458314 0.368481 0)
(-0.0285382 0.77778 0)
(-0.101131 0.838748 0)
(-0.193822 0.782203 0)
(-0.317588 0.770716 0)
(-0.432518 0.811971 0)
(-0.49357 0.864286 0)
(-0.435118 0.807348 0)
(-0.263956 0.549609 0)
(-0.0753074 0.115767 0)
(0.0467101 -0.212776 0)
(0.101763 -0.234915 0)
(0.179922 -0.0498437 0)
(0.325365 0.256123 0)
(0.485701 0.357583 0)
(0.655519 0.373516 0)
(0.801519 0.359169 0)
(0.875482 0.451536 0)
(0.758113 0.705994 0)
(0.384875 1.06063 0)
(0.181037 1.46372 0)
(0.118024 1.71656 0)
(0.0104409 1.05862 0)
(-0.162928 0.679728 0)
(-0.164504 0.54711 0)
(-0.169024 0.474424 0)
(-0.158511 0.40246 0)
(-0.132344 0.346836 0)
(-0.0998283 0.310903 0)
(-0.0685279 0.293284 0)
(-0.0283104 0.312564 0)
(-0.0312148 0.689734 0)
(-0.0977297 0.739032 0)
(-0.18702 0.759819 0)
(-0.304466 0.769816 0)
(-0.383433 0.75141 0)
(-0.377578 0.696 0)
(-0.265833 0.5602 0)
(-0.0943092 0.321044 0)
(0.0561602 -0.0226233 0)
(0.13032 -0.268707 0)
(0.144938 -0.281195 0)
(0.175432 -0.134393 0)
(0.282747 0.0941718 0)
(0.448638 0.168886 0)
(0.611867 0.178978 0)
(0.71032 0.211963 0)
(0.748403 0.431265 0)
(0.667795 0.974392 0)
(0.403934 1.15294 0)
(0.380196 1.41669 0)
(0.477063 1.58707 0)
(0.426825 1.43045 0)
(0.138124 0.7774 0)
(-0.0567834 0.601226 0)
(-0.0892618 0.492427 0)
(-0.114712 0.39457 0)
(-0.102604 0.318155 0)
(-0.0751296 0.281237 0)
(-0.0473771 0.263283 0)
(-0.0170956 0.274904 0)
(-0.0178108 0.700844 0)
(-0.0612937 0.768017 0)
(-0.110237 0.803578 0)
(-0.163123 0.786869 0)
(-0.17978 0.721345 0)
(-0.141847 0.599685 0)
(-0.047191 0.410708 0)
(0.0729106 0.17488 0)
(0.169528 -0.109527 0)
(0.205098 -0.290205 0)
(0.203199 -0.292255 0)
(0.211498 -0.178259 0)
(0.284991 -0.0339555 0)
(0.417415 0.0163005 0)
(0.534501 0.041464 0)
(0.601375 0.146253 0)
(0.567609 0.50195 0)
(0.484527 1.12266 0)
(0.390472 1.22998 0)
(0.409409 1.32666 0)
(0.559723 1.48674 0)
(0.65227 1.45358 0)
(0.542684 1.22628 0)
(0.265817 0.711867 0)
(0.0802976 0.529577 0)
(-0.0472002 0.397658 0)
(-0.108147 0.294113 0)
(-0.0746452 0.253389 0)
(-0.0446406 0.235184 0)
(-0.0141092 0.245119 0)
(0.00568805 0.706493 0)
(-0.00892117 0.781712 0)
(-0.0157113 0.825828 0)
(-0.0211154 0.795174 0)
(-0.00363633 0.697532 0)
(0.0452335 0.537777 0)
(0.11671 0.323032 0)
(0.199582 0.0770417 0)
(0.257457 -0.15928 0)
(0.26795 -0.288788 0)
(0.253317 -0.288603 0)
(0.25377 -0.199168 0)
(0.304868 -0.115956 0)
(0.39261 -0.0851794 0)
(0.462886 -0.0488993 0)
(0.487232 0.127655 0)
(0.430679 0.674468 0)
(0.346248 1.15449 0)
(0.369181 1.19766 0)
(0.4116 1.27271 0)
(0.503537 1.32149 0)
(0.634015 1.38582 0)
(0.676159 1.28081 0)
(0.567757 1.09225 0)
(0.3119 0.788905 0)
(0.081649 0.583191 0)
(-0.138247 0.272956 0)
(-0.101973 0.214039 0)
(-0.0529903 0.201646 0)
(-0.0149863 0.213477 0)
(0.0139191 0.703434 0)
(0.0258471 0.779409 0)
(0.0475967 0.821277 0)
(0.0725863 0.77841 0)
(0.109462 0.663073 0)
(0.16207 0.485469 0)
(0.225368 0.273572 0)
(0.290304 0.00618673 0)
(0.323509 -0.185675 0)
(0.320089 -0.277688 0)
(0.297194 -0.276269 0)
(0.287691 -0.216511 0)
(0.316947 -0.167934 0)
(0.361227 -0.156181 0)
(0.397147 -0.104412 0)
(0.390542 0.17288 0)
(0.355868 0.84215 0)
(0.315747 1.0994 0)
(0.379167 1.17161 0)
(0.4193 1.18604 0)
(0.473304 1.25277 0)
(0.54034 1.26173 0)
(0.607721 1.25043 0)
(0.584557 1.14545 0)
(0.456032 1.064 0)
(0.253845 0.962973 0)
(-0.0783317 0.448257 0)
(-0.10635 0.159848 0)
(-0.0457516 0.160739 0)
(-0.0116064 0.184047 0)
(0.0143408 0.682887 0)
(0.0416732 0.757402 0)
(0.0872626 0.792964 0)
(0.132353 0.743937 0)
(0.181722 0.6183 0)
(0.234022 0.429682 0)
(0.299371 0.203384 0)
(0.350348 -0.0408627 0)
(0.36094 -0.191259 0)
(0.345799 -0.253594 0)
(0.314539 -0.246634 0)
(0.296881 -0.209666 0)
(0.306825 -0.189708 0)
(0.328448 -0.189878 0)
(0.327916 -0.120908 0)
(0.339998 0.243582 0)
(0.350262 0.873904 0)
(0.365868 1.04554 0)
(0.419015 1.11127 0)
(0.4572 1.17785 0)
(0.468629 1.18593 0)
(0.498126 1.24591 0)
(0.522992 1.21113 0)
(0.516884 1.17528 0)
(0.466825 1.12486 0)
(0.38949 1.09969 0)
(0.231472 0.725009 0)
(-0.0238695 0.179432 0)
(0.0050273 0.137021 0)
(0.00663998 0.178331 0)
(0.0192054 0.647946 0)
(0.0549909 0.719296 0)
(0.11021 0.742367 0)
(0.166926 0.689673 0)
(0.221736 0.559512 0)
(0.28648 0.387095 0)
(0.351378 0.139998 0)
(0.383195 -0.0678325 0)
(0.377287 -0.181192 0)
(0.352557 -0.223495 0)
(0.317261 -0.219726 0)
(0.297482 -0.202947 0)
(0.292645 -0.198272 0)
(0.281271 -0.20352 0)
(0.268252 -0.123844 0)
(0.300541 0.246156 0)
(0.387397 0.812619 0)
(0.451256 0.980069 0)
(0.491437 1.09387 0)
(0.502571 1.14907 0)
(0.491858 1.21388 0)
(0.480046 1.20991 0)
(0.485417 1.23736 0)
(0.465199 1.1897 0)
(0.442716 1.16292 0)
(0.423812 1.13918 0)
(0.389416 0.905434 0)
(0.221142 0.331066 0)
(0.0991385 0.146844 0)
(0.0439551 0.217891 0)
(0.0193041 0.605749 0)
(0.061385 0.666244 0)
(0.124038 0.680805 0)
(0.184082 0.628189 0)
(0.250173 0.520886 0)
(0.324084 0.308848 0)
(0.382875 0.0867622 0)
(0.397077 -0.077019 0)
(0.380409 -0.159444 0)
(0.348218 -0.1864 0)
(0.311027 -0.184998 0)
(0.282486 -0.180948 0)
(0.262375 -0.184873 0)
(0.237862 -0.18958 0)
(0.213271 -0.115772 0)
(0.25049 0.180646 0)
(0.406731 0.668684 0)
(0.540456 0.935106 0)
(0.573481 1.07787 0)
(0.562787 1.19046 0)
(0.521991 1.20855 0)
(0.487596 1.25558 0)
(0.459191 1.23203 0)
(0.438547 1.22287 0)
(0.412339 1.18699 0)
(0.425836 1.13698 0)
(0.500269 0.894914 0)
(0.50846 0.46472 0)
(0.328528 0.234052 0)
(0.124052 0.323853 0)
(0.0236186 0.588337 0)
(0.069572 0.613687 0)
(0.128915 0.623927 0)
(0.195863 0.583231 0)
(0.275515 0.435646 0)
(0.350765 0.237689 0)
(0.391278 0.0543632 0)
(0.389904 -0.0693217 0)
(0.364865 -0.128025 0)
(0.328167 -0.147333 0)
(0.292622 -0.151679 0)
(0.261586 -0.155005 0)
(0.231933 -0.162179 0)
(0.196099 -0.161646 0)
(0.163109 -0.102757 0)
(0.183003 0.0858733 0)
(0.336616 0.438693 0)
(0.558171 0.831034 0)
(0.651955 1.08697 0)
(0.607646 1.21489 0)
(0.556869 1.2914 0)
(0.485687 1.26423 0)
(0.443241 1.28391 0)
(0.405921 1.23761 0)
(0.375068 1.21585 0)
(0.410461 1.07904 0)
(0.533397 0.760979 0)
(0.60016 0.464985 0)
(0.534442 0.437926 0)
(0.293086 0.77734 0)
(0.0263935 0.521323 0)
(0.0775779 0.573177 0)
(0.136475 0.568544 0)
(0.211302 0.495909 0)
(0.292771 0.35095 0)
(0.353444 0.180002 0)
(0.376981 0.036992 0)
(0.366362 -0.0523939 0)
(0.337617 -0.0941271 0)
(0.303753 -0.109635 0)
(0.269474 -0.118424 0)
(0.237063 -0.12448 0)
(0.203182 -0.130533 0)
(0.165981 -0.123581 0)
(0.130541 -0.0817779 0)
(0.130717 0.0267353 0)
(0.223915 0.231011 0)
(0.440821 0.589403 0)
(0.655552 1.05397 0)
(0.636577 1.31222 0)
(0.545553 1.3392 0)
(0.475354 1.36187 0)
(0.409127 1.30772 0)
(0.366027 1.29633 0)
(0.333352 1.24487 0)
(0.383715 0.990017 0)
(0.480986 0.623019 0)
(0.5045 0.408527 0)
(0.48144 0.593611 0)
(0.285675 1.31105 0)
(0.0215242 0.46536 0)
(0.0759162 0.507563 0)
(0.143175 0.491205 0)
(0.220002 0.411842 0)
(0.291346 0.280196 0)
(0.335801 0.141257 0)
(0.345811 0.0341437 0)
(0.330176 -0.0295172 0)
(0.30362 -0.0597971 0)
(0.272982 -0.0771459 0)
(0.24285 -0.0881723 0)
(0.213715 -0.0940084 0)
(0.182721 -0.0955948 0)
(0.148749 -0.0870691 0)
(0.11751 -0.0571828 0)
(0.106716 0.00558697 0)
(0.146959 0.113649 0)
(0.278588 0.339483 0)
(0.518892 0.874237 0)
(0.590666 1.3858 0)
(0.503627 1.45609 0)
(0.425846 1.39859 0)
(0.366114 1.38561 0)
(0.315966 1.32357 0)
(0.28946 1.26032 0)
(0.344352 0.898024 0)
(0.39124 0.543193 0)
(0.364243 0.385934 0)
(0.321883 0.7565 0)
(0.127037 1.5786 0)
(0.0192719 0.419213 0)
(0.0737996 0.445347 0)
(0.141562 0.418686 0)
(0.213301 0.337902 0)
(0.271266 0.22524 0)
(0.300574 0.117971 0)
(0.301824 0.0401033 0)
(0.28651 -0.00544821 0)
(0.264023 -0.0326814 0)
(0.240406 -0.0502032 0)
(0.216984 -0.0605867 0)
(0.192702 -0.0661278 0)
(0.167153 -0.0657781 0)
(0.140758 -0.0564433 0)
(0.116589 -0.0337301 0)
(0.103342 0.00439171 0)
(0.114179 0.0641192 0)
(0.170037 0.190775 0)
(0.323977 0.638292 0)
(0.471499 1.44279 0)
(0.405993 1.49685 0)
(0.355581 1.48455 0)
(0.300371 1.40887 0)
(0.258979 1.38131 0)
(0.240088 1.26917 0)
(0.280034 0.82358 0)
(0.300673 0.522444 0)
(0.243679 0.419232 0)
(0.177141 0.996571 0)
(0.000730386 1.64761 0)
(0.0179586 0.376318 0)
(0.0702893 0.38574 0)
(0.133238 0.351058 0)
(0.194153 0.276371 0)
(0.236711 0.186663 0)
(0.253441 0.107697 0)
(0.250568 0.0512127 0)
(0.237744 0.0143175 0)
(0.22145 -0.011573 0)
(0.204756 -0.0291764 0)
(0.188272 -0.0400653 0)
(0.171737 -0.0448765 0)
(0.154438 -0.043071 0)
(0.136602 -0.0340893 0)
(0.120569 -0.0154773 0)
(0.11004 0.0111599 0)
(0.106167 0.0529246 0)
(0.11252 0.133451 0)
(0.165483 0.479334 0)
(0.299473 1.42137 0)
(0.29078 1.57653 0)
(0.252716 1.50554 0)
(0.211807 1.47206 0)
(0.182876 1.39823 0)
(0.173851 1.27817 0)
(0.197285 0.776956 0)
(0.193204 0.505145 0)
(0.130008 0.505853 0)
(0.0389655 1.16843 0)
(-0.0494757 1.66705 0)
(0.0168622 0.336712 0)
(0.0652425 0.331825 0)
(0.118625 0.292954 0)
(0.165394 0.229799 0)
(0.193664 0.163511 0)
(0.202393 0.106736 0)
(0.19791 0.0621566 0)
(0.187569 0.0284337 0)
(0.176146 0.00294971 0)
(0.165551 -0.0154884 0)
(0.156443 -0.0273666 0)
(0.14849 -0.0322368 0)
(0.140569 -0.0294973 0)
(0.131979 -0.0206235 0)
(0.123963 -0.00448375 0)
(0.117959 0.0197542 0)
(0.10721 0.0647322 0)
(0.0780216 0.13598 0)
(0.053275 0.423572 0)
(0.110875 1.33853 0)
(0.141108 1.58754 0)
(0.128026 1.56986 0)
(0.0992453 1.48018 0)
(0.09457 1.42338 0)
(0.0964296 1.28769 0)
(0.0998464 0.757803 0)
(0.0755808 0.492225 0)
(0.0147791 0.654619 0)
(-0.078727 1.24437 0)
(-0.0659419 1.61413 0)
(0.0155884 0.299778 0)
(0.0579623 0.285565 0)
(0.0993813 0.247277 0)
(0.132649 0.198985 0)
(0.151333 0.15158 0)
(0.156502 0.108317 0)
(0.152605 0.0703714 0)
(0.144708 0.0380793 0)
(0.136655 0.0119157 0)
(0.130209 -0.00792552 0)
(0.125958 -0.0216204 0)
(0.124105 -0.0277893 0)
(0.12396 -0.0257832 0)
(0.123736 -0.0155196 0)
(0.124319 -0.000841454 0)
(0.123885 0.0261041 0)
(0.10667 0.0845064 0)
(0.0469099 0.182384 0)
(-0.0350283 0.459271 0)
(-0.0637299 1.26305 0)
(-0.040086 1.62061 0)
(-0.0174021 1.55373 0)
(-0.013533 1.50122 0)
(-0.0018319 1.40309 0)
(0.0134574 1.28782 0)
(-0.00166214 0.764964 0)
(-0.0582637 0.501352 0)
(-0.133143 0.814569 0)
(-0.171207 1.2273 0)
(-0.0997979 1.5002 0)
(0.0135873 0.266445 0)
(0.0491386 0.249669 0)
(0.0794916 0.215394 0)
(0.103499 0.178914 0)
(0.117587 0.143139 0)
(0.122401 0.108732 0)
(0.120223 0.0759205 0)
(0.114317 0.0450442 0)
(0.107881 0.0180136 0)
(0.102807 -0.003364 0)
(0.0998615 -0.0190338 0)
(0.099811 -0.0277658 0)
(0.10359 -0.0278463 0)
(0.110195 -0.0187687 0)
(0.119473 -0.00534709 0)
(0.124799 0.0287179 0)
(0.0992135 0.119103 0)
(0.0157199 0.281664 0)
(-0.107179 0.555753 0)
(-0.218616 1.26643 0)
(-0.220615 1.58216 0)
(-0.158323 1.55731 0)
(-0.138444 1.45633 0)
(-0.102819 1.38688 0)
(-0.0669494 1.2797 0)
(-0.103879 0.800383 0)
(-0.188702 0.581374 0)
(-0.305452 0.891971 0)
(-0.263802 1.15732 0)
(-0.144947 1.35158 0)
(0.0111079 0.237822 0)
(0.0404908 0.223226 0)
(0.0631229 0.19169 0)
(0.0822456 0.162626 0)
(0.0946753 0.134849 0)
(0.100157 0.107567 0)
(0.0994397 0.0798665 0)
(0.0943481 0.0512146 0)
(0.0876169 0.0239024 0)
(0.0814251 0.00119308 0)
(0.076693 -0.016397 0)
(0.0745984 -0.0284232 0)
(0.0778115 -0.0323845 0)
(0.0870701 -0.0269004 0)
(0.101401 -0.0151722 0)
(0.107372 0.0315934 0)
(0.0811663 0.184928 0)
(-0.00841889 0.425683 0)
(-0.166857 0.729384 0)
(-0.351241 1.37124 0)
(-0.363693 1.5616 0)
(-0.292005 1.49478 0)
(-0.264504 1.4443 0)
(-0.221281 1.3456 0)
(-0.189912 1.25779 0)
(-0.200705 0.869194 0)
(-0.323369 0.739256 0)
(-0.443201 0.920528 0)
(-0.343234 1.01564 0)
(-0.182085 1.08589 0)
(0.00828855 0.213379 0)
(0.0337265 0.202168 0)
(0.0514551 0.171857 0)
(0.0678756 0.147911 0)
(0.0794908 0.126186 0)
(0.0856336 0.105033 0)
(0.0861638 0.0827294 0)
(0.0814394 0.0574949 0)
(0.0732618 0.0311658 0)
(0.0639537 0.00797997 0)
(0.0551207 -0.01123 0)
(0.0493203 -0.0273798 0)
(0.0487976 -0.0368779 0)
(0.0554154 -0.0361146 0)
(0.0670879 -0.0238009 0)
(0.0682888 0.0375589 0)
(0.048333 0.241622 0)
(-0.0193296 0.557892 0)
(-0.220165 0.96933 0)
(-0.442481 1.45371 0)
(-0.454557 1.51757 0)
(-0.427551 1.49042 0)
(-0.396381 1.40654 0)
(-0.380258 1.32093 0)
(-0.328442 1.20317 0)
(-0.308283 0.951528 0)
(-0.435756 0.885311 0)
(-0.518852 0.931441 0)
(-0.390019 0.856023 0)
(-0.192618 0.797487 0)
(0.00548078 0.193066 0)
(0.0285013 0.184711 0)
(0.042368 0.155095 0)
(0.0561169 0.134614 0)
(0.0665462 0.117268 0)
(0.0730903 0.101073 0)
(0.0750825 0.0840718 0)
(0.0713061 0.0638694 0)
(0.0613532 0.0408412 0)
(0.0475255 0.0184188 0)
(0.0339079 -0.00241028 0)
(0.024051 -0.0228249 0)
(0.0204456 -0.0398969 0)
(0.0244169 -0.0455416 0)
(0.0325339 -0.031539 0)
(0.0392217 0.0418079 0)
(0.020545 0.265098 0)
(-0.0439905 0.68455 0)
(-0.288984 1.27921 0)
(-0.493985 1.51216 0)
(-0.554582 1.55669 0)
(-0.554447 1.47791 0)
(-0.56485 1.40471 0)
(-0.532459 1.26451 0)
(-0.470423 1.13737 0)
(-0.439771 0.989761 0)
(-0.512 0.9625 0)
(-0.524469 0.90788 0)
(-0.357363 0.645499 0)
(-0.161669 0.48621 0)
(0.00299412 0.177175 0)
(0.0232003 0.170305 0)
(0.0335021 0.142372 0)
(0.0433376 0.124139 0)
(0.050813 0.109625 0)
(0.0555424 0.0970605 0)
(0.0568756 0.0847149 0)
(0.0532291 0.0708611 0)
(0.0431341 0.0543416 0)
(0.0278483 0.0355279 0)
(0.0121884 0.012703 0)
(-0.000589058 -0.0148622 0)
(-0.00520176 -0.0408256 0)
(-0.00149541 -0.0538104 0)
(0.00694224 -0.0363973 0)
(0.013078 0.050449 0)
(0.00413011 0.276385 0)
(-0.108634 0.862919 0)
(-0.387076 1.5376 0)
(-0.567791 1.63898 0)
(-0.659136 1.59436 0)
(-0.728996 1.5214 0)
(-0.73949 1.36868 0)
(-0.713122 1.20757 0)
(-0.613502 1.06659 0)
(-0.556717 0.985981 0)
(-0.551199 0.980949 0)
(-0.436402 0.883741 0)
(-0.222608 0.436038 0)
(-0.100802 0.276182 0)
(0.00154418 0.165838 0)
(0.0176076 0.158361 0)
(0.025252 0.134761 0)
(0.0306895 0.118295 0)
(0.0339811 0.106297 0)
(0.0345968 0.0969822 0)
(0.0322327 0.0888898 0)
(0.0271317 0.0798411 0)
(0.0191272 0.0678473 0)
(0.00886341 0.0515478 0)
(-0.00281135 0.0297769 0)
(-0.0159061 -0.00183852 0)
(-0.0237748 -0.0380358 0)
(-0.0241788 -0.0582834 0)
(-0.0226031 -0.0411119 0)
(-0.0243208 0.0596202 0)
(-0.0569303 0.308972 0)
(-0.231116 1.13373 0)
(-0.519457 1.73064 0)
(-0.650921 1.74039 0)
(-0.805735 1.71433 0)
(-0.902263 1.57215 0)