/*--------------------------------*- C++ -*----------------------------------*\
| =========                 |                                                 |
| \\      /  F ield         | OpenFOAM: The Open Source CFD Toolbox           |
|  \\    /   O peration     | Version:  2.3.0                                 |
|   \\  /    A nd           | Web:      www.OpenFOAM.org                      |
|    \\/     M anipulation  |                                                 |
\*---------------------------------------------------------------------------*/
FoamFile
{
    version     2.0;
    format      ascii;
    class       volVectorField;
    location    "1.77";
    object      U.particles;
}
// * * * * * * * * * * * * * * * * * * * * * * * * * * * * * * * * * * * * * //

dimensions      [0 1 -1 0 0 0 0];

internalField   nonuniform List<vector> 
6000
(
(0.0145404 -0.358431 0)
(0.0401189 -0.461998 0)
(0.0373982 -0.518924 0)
(-0.00209699 -0.572821 0)
(-0.0235965 -0.589335 0)
(-0.0159949 -0.575056 0)
(-0.0186649 -0.56318 0)
(-0.0561821 -0.576744 0)
(-0.0822884 -0.545502 0)
(-0.084276 -0.518031 0)
(-0.126439 -0.459729 0)
(-0.148597 -0.396653 0)
(-0.146945 -0.338756 0)
(-0.118327 -0.29938 0)
(-0.0936276 -0.280629 0)
(-0.0650269 -0.261391 0)
(-0.0418155 -0.236145 0)
(-0.0646721 -0.205324 0)
(-0.175357 -0.198794 0)
(-0.242134 -0.197456 0)
(-0.256492 -0.183155 0)
(-0.180452 -0.203295 0)
(-0.0894877 -0.235636 0)
(0.00730807 -0.265482 0)
(0.0603483 -0.39217 0)
(0.0712651 -0.447914 0)
(0.0570472 -0.433738 0)
(0.0352249 -0.383507 0)
(0.0191991 -0.394437 0)
(0.00979334 -0.343579 0)
(0.00296299 -0.0207292 0)
(-0.00487274 -0.022168 0)
(0.0114963 -0.110046 0)
(0.0263767 -0.138082 0)
(0.0159827 -0.0539745 0)
(-0.019214 0.0100951 0)
(-0.0422373 -0.0533901 0)
(-0.036352 -0.130051 0)
(-0.0332178 -0.0364784 0)
(-0.0615727 -0.0494936 0)
(-0.105673 -0.0378736 0)
(-0.107658 0.0397469 0)
(-0.120042 0.0612274 0)
(-0.0976518 0.0662761 0)
(-0.075088 0.0848698 0)
(-0.0453759 0.107087 0)
(-0.0187982 0.111754 0)
(-0.0883782 0.1077 0)
(-0.212465 0.0507672 0)
(-0.253688 -0.00858235 0)
(-0.258566 0.011247 0)
(-0.190997 -0.0654831 0)
(-0.108698 -0.0648058 0)
(-0.00207874 -0.0212291 0)
(0.0387729 0.10531 0)
(0.0606986 0.0781001 0)
(0.0784743 0.0675949 0)
(0.0977493 0.0743319 0)
(0.077355 0.0977206 0)
(0.0155711 0.0770574 0)
(-0.0230295 -0.0588991 0)
(-0.0230006 -0.0770085 0)
(-0.00247568 -0.0907419 0)
(0.0130124 -0.0927203 0)
(0.00606082 -0.0698598 0)
(-0.0159331 -0.0620199 0)
(-0.0343474 -0.0923352 0)
(-0.0277001 -0.124628 0)
(-0.0284759 -0.121059 0)
(-0.0379225 -0.0706361 0)
(-0.0777464 -0.0463923 0)
(-0.0666787 -0.0141955 0)
(-0.0653259 -0.0100255 0)
(-0.0446791 0.0114143 0)
(-0.00866601 0.0124032 0)
(0.0147401 0.0376994 0)
(0.0402123 0.0451045 0)
(-0.0268093 0.0978594 0)
(-0.202924 0.0749364 0)
(-0.262617 -0.0254209 0)
(-0.210019 -0.210318 0)
(-0.107851 -0.303724 0)
(-0.0891939 -0.277706 0)
(-0.00100835 -0.206353 0)
(0.0483153 -0.0384304 0)
(0.0854409 -0.0123298 0)
(0.114788 -0.0303961 0)
(0.14461 -0.00665343 0)
(0.131724 0.0493092 0)
(0.0631093 0.0646837 0)
(-0.025466 -0.00899375 0)
(-0.0346843 -0.0318874 0)
(-0.0301512 -0.0405322 0)
(-0.0252392 -0.0451307 0)
(-0.00729367 -0.0404029 0)
(-0.00994473 -0.0451078 0)
(-0.0218559 -0.0681224 0)
(-0.0163327 -0.0878749 0)
(-0.0132182 -0.0909505 0)
(-0.0176264 -0.0544723 0)
(-0.0281845 -0.0233307 0)
(-0.000598158 -0.0158853 0)
(0.0257604 -0.016723 0)
(0.0575651 0.00720005 0)
(0.0758481 0.0070929 0)
(0.081526 0.00517981 0)
(0.0762488 0.00471126 0)
(0.0123215 0.023552 0)
(-0.175332 0.0661287 0)
(-0.224239 -0.0666855 0)
(-0.112704 -0.24492 0)
(0.101415 -0.355076 0)
(0.0371162 -0.343679 0)
(0.0467544 -0.271423 0)
(0.0804576 -0.0663322 0)
(0.102125 0.0389336 0)
(0.113294 0.0405462 0)
(0.130628 0.0529353 0)
(0.135241 0.0890837 0)
(0.0793607 0.104901 0)
(0.0326002 0.0419061 0)
(-0.0678814 0.0283565 0)
(-0.0697699 0.0234716 0)
(-0.0621718 0.0135492 0)
(-0.045548 0.00165787 0)
(-0.0298436 -0.0122189 0)
(-0.0306828 -0.0292123 0)
(-0.0171521 -0.050392 0)
(-0.012097 -0.0626308 0)
(-0.00950218 -0.0315656 0)
(0.0228836 -0.00211399 0)
(0.0629779 -0.00488566 0)
(0.0885714 -0.024457 0)
(0.106117 -0.017881 0)
(0.11435 -0.00873099 0)
(0.108886 -0.0110589 0)
(0.0928782 -0.0206451 0)
(0.0033938 -0.0347844 0)
(-0.162315 -0.00632593 0)
(-0.153604 -0.142541 0)
(-0.020089 -0.286284 0)
(0.185219 -0.385135 0)
(0.187882 -0.397816 0)
(0.132403 -0.353531 0)
(0.124913 -0.171551 0)
(0.119546 0.0195456 0)
(0.0967338 0.0514868 0)
(0.109498 0.0705651 0)
(0.136025 0.131098 0)
(0.0837566 0.167447 0)
(0.0217824 0.0271141 0)
(-0.0125698 0.0875473 0)
(-0.0998005 0.0885741 0)
(-0.0879321 0.0788901 0)
(-0.0705595 0.0562799 0)
(-0.0628932 0.0265073 0)
(-0.0606407 0.00311633 0)
(-0.046076 -0.0127103 0)
(-0.0296701 -0.0207038 0)
(-0.0211766 -0.0139074 0)
(0.0408307 0.0145026 0)
(0.103351 0.00843837 0)
(0.141069 -0.0207234 0)
(0.147522 -0.0241858 0)
(0.144235 -0.0193223 0)
(0.129267 -0.0235126 0)
(0.0941714 -0.0368393 0)
(-0.0296023 -0.0805541 0)
(-0.0995303 -0.121432 0)
(-0.0673657 -0.21282 0)
(0.0583887 -0.291209 0)
(0.263452 -0.301891 0)
(0.295093 -0.35845 0)
(0.231228 -0.349403 0)
(0.187356 -0.231242 0)
(0.144226 0.00481375 0)
(0.0890398 0.0594065 0)
(0.0900918 0.089469 0)
(0.131391 0.161373 0)
(0.082782 0.231551 0)
(0.00551248 0.0403484 0)
(-0.00964113 0.109444 0)
(-0.063445 0.141116 0)
(-0.100969 0.146019 0)
(-0.0895494 0.13362 0)
(-0.0833813 0.0974214 0)
(-0.0847858 0.0595368 0)
(-0.0727199 0.0331113 0)
(-0.0469098 0.0156179 0)
(-0.0276393 -0.00573191 0)
(0.0306118 0.0115963 0)
(0.112716 0.0136065 0)
(0.171288 -0.0149192 0)
(0.183416 -0.0258967 0)
(0.182398 -0.0214589 0)
(0.170571 -0.0228048 0)
(0.105349 -0.0283869 0)
(-0.0553067 -0.0637177 0)
(-0.0636218 -0.129289 0)
(-0.0173674 -0.181962 0)
(0.125913 -0.171898 0)
(0.314734 -0.202404 0)
(0.34191 -0.318793 0)
(0.288653 -0.330788 0)
(0.221339 -0.237535 0)
(0.144926 0.00264774 0)
(0.0856808 0.0614684 0)
(0.0769792 0.0906854 0)
(0.123391 0.167652 0)
(0.0786721 0.283498 0)
(-0.00775426 0.0523625 0)
(-0.0256806 0.119729 0)
(-0.0489065 0.153856 0)
(-0.0708741 0.162348 0)
(-0.0818557 0.181381 0)
(-0.0883419 0.185198 0)
(-0.0949296 0.153418 0)
(-0.0801887 0.105204 0)
(-0.0524898 0.064057 0)
(-0.0145902 0.0442557 0)
(0.0359297 0.0196834 0)
(0.105542 -0.0224144 0)
(0.163553 -0.060297 0)
(0.192798 -0.0508526 0)
(0.205128 -0.034106 0)
(0.213965 -0.0165611 0)
(0.181493 0.0140945 0)
(0.0310491 0.0224002 0)
(0.0305116 -0.0393797 0)
(0.112441 -0.0418917 0)
(0.223059 -0.0647117 0)
(0.338253 -0.187802 0)
(0.364739 -0.26513 0)
(0.313436 -0.269621 0)
(0.199567 -0.182899 0)
(0.11429 0.0214867 0)
(0.071139 0.0559584 0)
(0.0519661 0.0733103 0)
(0.101534 0.165044 0)
(0.0552672 0.326376 0)
(-0.0137048 0.0593614 0)
(-0.0367715 0.126422 0)
(-0.051498 0.156147 0)
(-0.0601945 0.1658 0)
(-0.0620113 0.180735 0)
(-0.0677115 0.210592 0)
(-0.0847685 0.230429 0)
(-0.0791306 0.193895 0)
(-0.0590086 0.131729 0)
(-0.0244393 0.0717819 0)
(0.0236232 -0.00135851 0)
(0.0715508 -0.0621691 0)
(0.112291 -0.0930302 0)
(0.153583 -0.0806649 0)
(0.182804 -0.0530154 0)
(0.184688 -0.0338117 0)
(0.154186 0.00692184 0)
(0.139216 0.0557955 0)
(0.177457 0.0342345 0)
(0.235109 0.0139764 0)
(0.28004 -0.0598419 0)
(0.344212 -0.179327 0)
(0.339387 -0.21279 0)
(0.228014 -0.19633 0)
(0.114752 -0.118553 0)
(0.0606549 0.051119 0)
(0.0254774 0.0453777 0)
(0.0141749 0.0568506 0)
(0.0535494 0.186175 0)
(0.0231058 0.35477 0)
(-0.0239847 0.0685472 0)
(-0.0393668 0.12966 0)
(-0.0514701 0.155017 0)
(-0.0586929 0.167409 0)
(-0.0570683 0.179201 0)
(-0.0608706 0.207381 0)
(-0.069747 0.241646 0)
(-0.0703794 0.231004 0)
(-0.05824 0.16518 0)
(-0.0392224 0.0700371 0)
(-0.0115277 -0.0210735 0)
(0.0157146 -0.0797349 0)
(0.0445572 -0.111598 0)
(0.0822018 -0.110989 0)
(0.117376 -0.0984505 0)
(0.104858 -0.10798 0)
(0.12786 -0.0766583 0)
(0.194753 -0.00357318 0)
(0.24815 0.00956262 0)
(0.275733 -0.00467566 0)
(0.298115 -0.0781066 0)
(0.305603 -0.165192 0)
(0.279979 -0.167787 0)
(0.136277 -0.0908131 0)
(0.0241657 0.0109829 0)
(-0.00431138 0.0611982 0)
(-0.0107147 0.0258197 0)
(-0.0110369 0.0475782 0)
(3.78765e-05 0.201077 0)
(-0.00334252 0.35939 0)
(-0.0498375 0.0480359 0)
(-0.0284059 0.0728601 0)
(-0.0270039 0.0942325 0)
(-0.0311048 0.134077 0)
(-0.0402282 0.165611 0)
(-0.050798 0.203189 0)
(-0.0483721 0.237675 0)
(-0.0423148 0.227863 0)
(-0.0279264 0.167979 0)
(-0.0206609 0.0788822 0)
(-0.0234128 -0.0264942 0)
(-0.0185588 -0.102803 0)
(-0.00554615 -0.146721 0)
(0.00643924 -0.169886 0)
(0.0417097 -0.151273 0)
(0.0777585 -0.115937 0)
(0.140978 -0.11535 0)
(0.220767 -0.0435941 0)
(0.270489 0.00142163 0)
(0.287278 -0.0048772 0)
(0.290377 -0.0754665 0)
(0.270338 -0.124623 0)
(0.218753 -0.103295 0)
(0.0346496 0.0105789 0)
(-0.0420091 0.0610521 0)
(-0.0257629 0.0531189 0)
(-0.0121614 0.0113374 0)
(-0.0296369 0.0392387 0)
(-0.0469059 0.181963 0)
(-0.0263914 0.333636 0)
(0.0221035 -0.190116 0)
(0.0340937 -0.188155 0)
(0.0468675 -0.165796 0)
(0.047714 -0.118138 0)
(0.0123544 -0.00230901 0)
(0.00388643 0.0506529 0)
(0.00831256 0.119618 0)
(0.0164612 0.149269 0)
(0.0375169 0.107978 0)
(0.0306227 0.023277 0)
(-0.00860075 -0.0689568 0)
(-0.0333456 -0.139895 0)
(-0.0382351 -0.180272 0)
(-0.0352647 -0.193744 0)
(0.00257107 -0.128501 0)
(0.070955 -0.0846973 0)
(0.144834 -0.0960609 0)
(0.225522 -0.0400952 0)
(0.27626 0.0151937 0)
(0.286581 0.010797 0)
(0.274888 -0.0555424 0)
(0.23724 -0.0822924 0)
(0.128522 -0.0372906 0)
(-0.0467414 0.072957 0)
(-0.073021 0.0890756 0)
(-0.0230103 0.0531889 0)
(-0.0141191 -0.000514584 0)
(-0.0615304 0.00929567 0)
(-0.0884966 0.105245 0)
(-0.0554669 0.233888 0)
(0.0337923 -0.161845 0)
(0.0443153 -0.156561 0)
(0.0539966 -0.146343 0)
(0.0518984 -0.141036 0)
(0.0356739 -0.143509 0)
(0.0291007 -0.153661 0)
(0.0485325 -0.139832 0)
(0.0476068 -0.12997 0)
(0.0608034 -0.16161 0)
(0.0687726 -0.206077 0)
(0.0727078 -0.209129 0)
(0.00745317 -0.206881 0)
(-0.0570677 -0.203063 0)
(-0.0614539 -0.174847 0)
(-0.0194756 -0.110275 0)
(0.0553355 -0.0627288 0)
(0.130152 -0.0545432 0)
(0.220261 0.0194528 0)
(0.270047 0.0699416 0)
(0.270117 0.0524617 0)
(0.238396 -0.0204624 0)
(0.186342 -0.0252268 0)
(0.00639682 0.0546539 0)
(-0.105503 0.111072 0)
(-0.0785574 0.104748 0)
(-0.0302133 0.0534762 0)
(-0.0583846 -0.0267498 0)
(-0.10478 -0.0377435 0)
(-0.107582 0.0117626 0)
(-0.0653257 0.0887057 0)
(0.0422189 -0.0973559 0)
(0.0485512 -0.0951854 0)
(0.0459501 -0.0811491 0)
(0.0277395 -0.0831467 0)
(-0.00437421 -0.100312 0)
(-0.0132865 -0.130113 0)
(0.00158306 -0.173108 0)
(0.0142983 -0.189744 0)
(0.0383498 -0.206066 0)
(0.0847004 -0.218516 0)
(0.169141 -0.216704 0)
(0.171285 -0.229121 0)
(0.0573699 -0.200525 0)
(-0.0196317 -0.142426 0)
(-0.0201429 -0.115843 0)
(0.0202319 -0.0854665 0)
(0.105275 -0.046987 0)
(0.195183 0.101826 0)
(0.244648 0.150262 0)
(0.237146 0.110235 0)
(0.195469 0.035171 0)
(0.106268 0.0472428 0)
(-0.0878333 0.136417 0)
(-0.135063 0.144049 0)
(-0.0963275 0.110743 0)
(-0.0688431 0.0315398 0)
(-0.122585 -0.0461798 0)
(-0.140699 -0.0611194 0)
(-0.104352 -0.0463907 0)
(-0.0545629 -0.0218214 0)
(0.0508369 -0.0369573 0)
(0.0564417 -0.0221451 0)
(0.041106 0.000548685 0)
(0.00851526 -0.0106794 0)
(-0.0315691 -0.0400741 0)
(-0.0560685 -0.0698908 0)
(-0.0420055 -0.11848 0)
(-0.00893194 -0.154983 0)
(0.0506557 -0.174672 0)
(0.112877 -0.178918 0)
(0.206342 -0.179878 0)
(0.244659 -0.163351 0)
(0.171584 -0.126861 0)
(0.0651864 -0.110891 0)
(0.0399246 -0.117536 0)
(0.0404625 -0.118064 0)
(0.0800567 -0.0868985 0)
(0.169668 0.093594 0)
(0.19618 0.175268 0)
(0.188915 0.148899 0)
(0.148405 0.0900078 0)
(0.00734145 0.10926 0)
(-0.117611 0.170683 0)
(-0.144777 0.167524 0)
(-0.132797 0.115361 0)
(-0.140329 0.0158911 0)
(-0.177264 -0.0375216 0)
(-0.151986 -0.0593933 0)
(-0.0929728 -0.0704065 0)
(-0.0432232 -0.0728011 0)
(0.0579207 0.0176417 0)
(0.0592695 0.0572957 0)
(0.0322708 0.0900319 0)
(-0.0124109 0.0818144 0)
(-0.0632316 0.0381013 0)
(-0.0911453 0.0127311 0)
(-0.067141 -0.0381489 0)
(0.00119312 -0.103168 0)
(0.0777088 -0.154479 0)
(0.155618 -0.179459 0)
(0.261501 -0.170783 0)
(0.302916 -0.113202 0)
(0.264863 -0.072769 0)
(0.162131 -0.0756396 0)
(0.0955146 -0.101826 0)
(0.0659884 -0.119773 0)
(0.0807653 -0.0844671 0)
(0.12572 0.0589692 0)
(0.134493 0.16159 0)
(0.126045 0.168126 0)
(0.059763 0.132659 0)
(-0.0626635 0.142875 0)
(-0.106314 0.181733 0)
(-0.170333 0.185889 0)
(-0.201458 0.125667 0)
(-0.204963 0.0423078 0)
(-0.194238 -0.014095 0)
(-0.158485 -0.0385049 0)
(-0.0871987 -0.0630445 0)
(-0.036902 -0.0715451 0)
(0.0591594 0.0504498 0)
(0.0461991 0.10976 0)
(0.0214333 0.147776 0)
(-0.0136051 0.162382 0)
(-0.0708457 0.133624 0)
(-0.109558 0.109899 0)
(-0.0753127 0.0482228 0)
(0.0447032 -0.0322746 0)
(0.137229 -0.135018 0)
(0.214501 -0.207476 0)
(0.292142 -0.196678 0)
(0.343918 -0.108032 0)
(0.306869 -0.0601113 0)
(0.23451 -0.0542705 0)
(0.149926 -0.0909416 0)
(0.091736 -0.137983 0)
(0.0809715 -0.112624 0)
(0.0947491 0.0267639 0)
(0.0877346 0.150828 0)
(0.0711516 0.175268 0)
(-0.0182339 0.160129 0)
(-0.0925559 0.158643 0)
(-0.111102 0.193631 0)
(-0.19765 0.218329 0)
(-0.245248 0.180571 0)
(-0.233912 0.104415 0)
(-0.205694 0.0391123 0)
(-0.152838 -0.00343701 0)
(-0.0891236 -0.0326891 0)
(-0.0362358 -0.0435632 0)
(0.0281922 0.0632887 0)
(0.0138402 0.130049 0)
(-0.00109406 0.176848 0)
(-0.0263398 0.211747 0)
(-0.0757345 0.221578 0)
(-0.126645 0.194816 0)
(-0.06919 0.103773 0)
(0.0748777 -0.00253605 0)
(0.167955 -0.153721 0)
(0.243253 -0.226925 0)
(0.28162 -0.222243 0)
(0.304736 -0.157723 0)
(0.294588 -0.0849489 0)
(0.251693 -0.0598501 0)
(0.188106 -0.0961286 0)
(0.121488 -0.170398 0)
(0.0927633 -0.16079 0)
(0.0907433 -0.0348668 0)
(0.0629924 0.127352 0)
(0.0317031 0.187832 0)
(-0.0737855 0.191085 0)
(-0.129794 0.198216 0)
(-0.143175 0.246049 0)
(-0.201112 0.269018 0)
(-0.23596 0.225565 0)
(-0.218033 0.177108 0)
(-0.199963 0.112032 0)
(-0.155281 0.0444621 0)
(-0.0925682 0.00510579 0)
(-0.0378613 -0.00513342 0)
(0.00120591 0.061411 0)
(-0.0172731 0.141157 0)
(-0.0338486 0.198244 0)
(-0.0529397 0.238325 0)
(-0.0793823 0.259479 0)
(-0.103069 0.248988 0)
(0.0179939 0.186812 0)
(0.146425 -0.0481642 0)
(0.185111 -0.252437 0)
(0.192433 -0.340118 0)
(0.202725 -0.347309 0)
(0.211447 -0.330434 0)
(0.219893 -0.266602 0)
(0.23133 -0.217643 0)
(0.227599 -0.233904 0)
(0.17916 -0.265518 0)
(0.123925 -0.226731 0)
(0.102394 -0.098026 0)
(0.0666254 0.0970449 0)
(0.00795689 0.212428 0)
(-0.109781 0.253902 0)
(-0.164008 0.243249 0)
(-0.153551 0.259592 0)
(-0.188082 0.281801 0)
(-0.204477 0.240977 0)
(-0.197074 0.203056 0)
(-0.186202 0.154618 0)
(-0.153172 0.0934035 0)
(-0.0965179 0.0466776 0)
(-0.0407868 0.0338175 0)
(-0.0291476 0.0734067 0)
(-0.0509142 0.164465 0)
(-0.0676777 0.223008 0)
(-0.0693305 0.258484 0)
(-0.0608375 0.271684 0)
(-0.0326843 0.256022 0)
(0.0965468 0.133095 0)
(0.177205 -0.265159 0)
(0.162128 -0.448528 0)
(0.14163 -0.518728 0)
(0.14036 -0.529983 0)
(0.152697 -0.513409 0)
(0.171503 -0.476083 0)
(0.199751 -0.452445 0)
(0.264271 -0.443849 0)
(0.291798 -0.400023 0)
(0.219249 -0.320637 0)
(0.137291 -0.163051 0)
(0.0933681 0.0558477 0)
(0.000615052 0.227727 0)
(-0.163545 0.324946 0)
(-0.183574 0.298057 0)
(-0.166271 0.27974 0)
(-0.180285 0.275445 0)
(-0.177989 0.242049 0)
(-0.17186 0.20459 0)
(-0.163819 0.159869 0)
(-0.142731 0.107873 0)
(-0.096413 0.0692368 0)
(-0.0425556 0.0580341 0)
(-0.107476 0.109054 0)
(-0.0880385 0.155939 0)
(-0.0933882 0.213215 0)
(-0.0625078 0.241147 0)
(-0.0170017 0.224784 0)
(0.0688875 0.0272782 0)
(0.126732 -0.370287 0)
(0.131786 -0.515521 0)
(0.132218 -0.568166 0)
(0.126022 -0.588275 0)
(0.128606 -0.578493 0)
(0.145488 -0.535582 0)
(0.175448 -0.489723 0)
(0.217171 -0.475855 0)
(0.288455 -0.461853 0)
(0.363941 -0.434677 0)
(0.334267 -0.382164 0)
(0.235837 -0.283795 0)
(0.155099 -0.0403825 0)
(0.049063 0.211122 0)
(-0.156081 0.346912 0)
(-0.168686 0.334004 0)
(-0.15722 0.301009 0)
(-0.15518 0.27451 0)
(-0.14697 0.240935 0)
(-0.139263 0.200224 0)
(-0.129912 0.152368 0)
(-0.114925 0.103057 0)
(-0.0867043 0.0648515 0)
(-0.0402669 0.0563164 0)
(-0.0237776 -0.287347 0)
(-0.00359415 -0.34873 0)
(-0.0077508 -0.250052 0)
(0.0160171 -0.237183 0)
(0.0529126 -0.31032 0)
(0.0931039 -0.475644 0)
(0.115025 -0.536982 0)
(0.135206 -0.572037 0)
(0.152065 -0.590221 0)
(0.157673 -0.590112 0)
(0.146496 -0.562461 0)
(0.152547 -0.514091 0)
(0.183582 -0.474004 0)
(0.240797 -0.454478 0)
(0.314055 -0.442067 0)
(0.37409 -0.412178 0)
(0.389515 -0.388257 0)
(0.328992 -0.347707 0)
(0.20917 -0.19358 0)
(0.185471 0.0643749 0)
(0.00602492 0.267912 0)
(-0.100993 0.318131 0)
(-0.129342 0.317506 0)
(-0.115099 0.278843 0)
(-0.108056 0.235602 0)
(-0.101817 0.18784 0)
(-0.0931992 0.138846 0)
(-0.0806598 0.0909956 0)
(-0.0610989 0.0521863 0)
(-0.0298121 0.0357789 0)
(0.0169523 -0.498607 0)
(0.0308144 -0.502503 0)
(0.0536679 -0.503136 0)
(0.073569 -0.509338 0)
(0.0934452 -0.522588 0)
(0.117896 -0.538911 0)
(0.153838 -0.550292 0)
(0.182055 -0.555999 0)
(0.181506 -0.563155 0)
(0.172579 -0.564738 0)
(0.155668 -0.53738 0)
(0.154944 -0.488111 0)
(0.183633 -0.448005 0)
(0.246118 -0.42702 0)
(0.319847 -0.40577 0)
(0.365572 -0.370876 0)
(0.362991 -0.352312 0)
(0.308938 -0.330118 0)
(0.223799 -0.243757 0)
(0.252486 -0.0663878 0)
(0.236608 0.111255 0)
(0.127548 0.19527 0)
(-0.0637273 0.326314 0)
(-0.0602706 0.284204 0)
(-0.0553497 0.222943 0)
(-0.0575961 0.163486 0)
(-0.0577138 0.110898 0)
(-0.0505602 0.0701878 0)
(-0.0376123 0.0389868 0)
(-0.0163581 0.0209141 0)
(0.0135875 -0.463737 0)
(0.0346083 -0.470049 0)
(0.067453 -0.465269 0)
(0.0944924 -0.469725 0)
(0.117765 -0.484953 0)
(0.143111 -0.503274 0)
(0.169727 -0.52635 0)
(0.199602 -0.537415 0)
(0.212551 -0.538445 0)
(0.207947 -0.535087 0)
(0.182054 -0.512139 0)
(0.168471 -0.462591 0)
(0.195149 -0.419812 0)
(0.256528 -0.402369 0)
(0.314853 -0.38119 0)
(0.332476 -0.351365 0)
(0.309717 -0.334872 0)
(0.239709 -0.292654 0)
(0.167981 -0.20461 0)
(0.230837 -0.0917518 0)
(0.307306 0.0246182 0)
(0.308235 0.078444 0)
(0.177542 0.157996 0)
(0.0329839 0.290437 0)
(0.0252618 0.213578 0)
(-0.00211668 0.129582 0)
(-0.024926 0.0749051 0)
(-0.0297308 0.0411968 0)
(-0.0225516 0.0215914 0)
(-0.00811411 0.010588 0)
(0.0141054 -0.438012 0)
(0.0361084 -0.432409 0)
(0.0744139 -0.427274 0)
(0.102508 -0.436845 0)
(0.131822 -0.451458 0)
(0.16108 -0.474128 0)
(0.19003 -0.494946 0)
(0.215126 -0.507988 0)
(0.228285 -0.508887 0)
(0.227635 -0.503966 0)
(0.207197 -0.478375 0)
(0.18936 -0.435247 0)
(0.208043 -0.398859 0)
(0.259757 -0.380693 0)
(0.292491 -0.358865 0)
(0.285979 -0.343553 0)
(0.226411 -0.31376 0)
(0.176488 -0.256658 0)
(0.151088 -0.206804 0)
(0.168189 -0.118435 0)
(0.283817 -0.0122724 0)
(0.343758 0.0257017 0)
(0.361336 0.016703 0)
(0.294552 0.047171 0)
(0.178671 0.119343 0)
(0.0692358 0.0672687 0)
(-0.00711107 0.0328274 0)
(-0.021781 0.0123901 0)
(-0.0168134 0.00162888 0)
(-0.00453772 -0.000173459 0)
(0.0218046 -0.404593 0)
(0.0399972 -0.400302 0)
(0.0781676 -0.39632 0)
(0.109025 -0.40225 0)
(0.141226 -0.419375 0)
(0.176785 -0.439699 0)
(0.210677 -0.457185 0)
(0.234246 -0.467393 0)
(0.24376 -0.468787 0)
(0.241827 -0.464415 0)
(0.221174 -0.443847 0)
(0.20477 -0.404347 0)
(0.220137 -0.379355 0)
(0.251482 -0.364797 0)
(0.254401 -0.357033 0)
(0.217639 -0.342757 0)
(0.160535 -0.28972 0)
(0.149077 -0.240208 0)
(0.165891 -0.210347 0)
(0.162159 -0.163518 0)
(0.215554 -0.0826279 0)
(0.311303 -0.011295 0)
(0.368829 -0.0234271 0)
(0.381911 -0.0770202 0)
(0.332437 -0.113428 0)
(0.241859 -0.0830408 0)
(-0.0231123 -0.0104368 0)
(-0.0279894 -0.0109798 0)
(-0.0148247 -0.0148236 0)
(-0.00202871 -0.00964753 0)
(0.017793 -0.371314 0)
(0.0410594 -0.365797 0)
(0.0799663 -0.361294 0)
(0.115465 -0.368051 0)
(0.149996 -0.382653 0)
(0.188467 -0.401827 0)
(0.222814 -0.423283 0)
(0.248572 -0.433077 0)
(0.260641 -0.43193 0)
(0.258813 -0.427592 0)
(0.237283 -0.412642 0)
(0.217481 -0.385974 0)
(0.222451 -0.367591 0)
(0.225382 -0.364155 0)
(0.204274 -0.36417 0)
(0.143328 -0.337525 0)
(0.126817 -0.277087 0)
(0.153432 -0.22896 0)
(0.182043 -0.208874 0)
(0.187558 -0.190778 0)
(0.197205 -0.146992 0)
(0.253689 -0.0756246 0)
(0.323517 -0.0690462 0)
(0.334285 -0.106388 0)
(0.308792 -0.127744 0)
(0.289232 -0.119025 0)
(0.0211899 -0.038222 0)
(-0.0334456 -0.0203163 0)
(-0.00518475 -0.0238512 0)
(0.0010841 -0.0116532 0)
(0.012889 -0.335522 0)
(0.0379081 -0.330476 0)
(0.0845993 -0.323149 0)
(0.124027 -0.328308 0)
(0.161075 -0.342025 0)
(0.197868 -0.362175 0)
(0.233184 -0.381532 0)
(0.257914 -0.391307 0)
(0.267015 -0.390854 0)
(0.262644 -0.38616 0)
(0.236249 -0.372867 0)
(0.212706 -0.356521 0)
(0.204613 -0.351374 0)
(0.19211 -0.358066 0)
(0.142753 -0.357188 0)
(0.106525 -0.318589 0)
(0.121582 -0.258234 0)
(0.155834 -0.221687 0)
(0.190154 -0.201011 0)
(0.213752 -0.193301 0)
(0.216043 -0.169458 0)
(0.235646 -0.115493 0)
(0.279331 -0.096048 0)
(0.292595 -0.113673 0)
(0.288938 -0.118317 0)
(0.289829 -0.111431 0)
(0.279345 -0.0962898 0)
(0.0180386 -0.0204042 0)
(0.0211162 -0.0217081 0)
(0.010003 -0.0121743 0)
(0.0171099 -0.295975 0)
(0.0439881 -0.288818 0)
(0.0856791 -0.284714 0)
(0.124692 -0.291901 0)
(0.163946 -0.30841 0)
(0.206725 -0.322983 0)
(0.243444 -0.336958 0)
(0.263957 -0.347344 0)
(0.268559 -0.348699 0)
(0.257654 -0.348055 0)
(0.227144 -0.344892 0)
(0.205012 -0.339881 0)
(0.187631 -0.340717 0)
(0.152163 -0.348036 0)
(0.104926 -0.339552 0)
(0.0866864 -0.299504 0)
(0.113784 -0.245193 0)
(0.158323 -0.208528 0)
(0.196044 -0.186093 0)
(0.233301 -0.166884 0)
(0.230129 -0.160917 0)
(0.240624 -0.131401 0)
(0.264969 -0.104813 0)
(0.271826 -0.108803 0)
(0.283215 -0.109133 0)
(0.288885 -0.094252 0)
(0.296669 -0.0825262 0)
(0.17026 -0.0533489 0)
(0.0621076 -0.0304757 0)
(0.0236326 -0.0133555 0)
(0.0170037 -0.25566 0)
(0.0457068 -0.249297 0)
(0.087246 -0.24696 0)
(0.128443 -0.252318 0)
(0.170022 -0.265948 0)
(0.211432 -0.281006 0)
(0.24808 -0.294775 0)
(0.266007 -0.305409 0)
(0.265921 -0.309172 0)
(0.246421 -0.312967 0)
(0.213927 -0.315169 0)
(0.18553 -0.315971 0)
(0.158808 -0.319654 0)
(0.123677 -0.323316 0)
(0.0829439 -0.310554 0)
(0.0733697 -0.272363 0)
(0.105741 -0.226679 0)
(0.154606 -0.191145 0)
(0.20005 -0.151034 0)
(0.233733 -0.135534 0)
(0.251342 -0.136027 0)
(0.250424 -0.126885 0)
(0.26214 -0.103769 0)
(0.27242 -0.10444 0)
(0.27825 -0.0944725 0)
(0.283868 -0.0740626 0)
(0.285707 -0.0659824 0)
(0.271219 -0.0794904 0)
(0.14374 -0.0953493 0)
(0.0319505 -0.0868274 0)
(0.0150685 -0.211107 0)
(0.0450912 -0.205748 0)
(0.0879537 -0.203347 0)
(0.130704 -0.209525 0)
(0.175162 -0.220888 0)
(0.217001 -0.235433 0)
(0.248785 -0.249056 0)
(0.259459 -0.262475 0)
(0.249944 -0.272398 0)
(0.221676 -0.284017 0)
(0.19249 -0.290498 0)
(0.165592 -0.294079 0)
(0.137099 -0.297107 0)
(0.102689 -0.295529 0)
(0.0705105 -0.279064 0)
(0.0633769 -0.244883 0)
(0.0936833 -0.20629 0)
(0.139722 -0.165912 0)
(0.192298 -0.128154 0)
(0.218353 -0.0981343 0)
(0.255571 -0.106479 0)
(0.262572 -0.106939 0)
(0.266943 -0.095319 0)
(0.274908 -0.0881067 0)
(0.275812 -0.0644207 0)
(0.272781 -0.0535732 0)
(0.258701 -0.045934 0)
(0.209867 -0.0795676 0)
(0.0787013 -0.177373 0)
(0.00695346 -0.163426 0)
(0.0145867 -0.160821 0)
(0.0468905 -0.155699 0)
(0.0889795 -0.155925 0)
(0.132868 -0.163595 0)
(0.176949 -0.177033 0)
(0.215867 -0.192843 0)
(0.240163 -0.209502 0)
(0.241726 -0.227315 0)
(0.223062 -0.245238 0)
(0.196642 -0.258778 0)
(0.170111 -0.266916 0)
(0.144571 -0.271317 0)
(0.118313 -0.272552 0)
(0.090472 -0.267088 0)
(0.0656799 -0.24906 0)
(0.0580041 -0.218077 0)
(0.0789799 -0.182817 0)
(0.120574 -0.146338 0)
(0.166147 -0.106563 0)
(0.185574 -0.0498862 0)
(0.23652 -0.0509116 0)
(0.264087 -0.0625067 0)
(0.269388 -0.0580566 0)
(0.274552 -0.051322 0)
(0.270515 -0.0303691 0)
(0.255712 -0.0288055 0)
(0.211447 -0.0206747 0)
(0.114663 -0.0937792 0)
(0.00524514 -0.167883 0)
(-0.0237129 -0.123654 0)
(0.0130308 -0.110442 0)
(0.0474805 -0.106703 0)
(0.0888546 -0.109648 0)
(0.132714 -0.119978 0)
(0.174763 -0.135639 0)
(0.206843 -0.155114 0)
(0.219758 -0.177835 0)
(0.211384 -0.202022 0)
(0.190912 -0.222827 0)
(0.168034 -0.237215 0)
(0.145807 -0.246167 0)
(0.124473 -0.250868 0)
(0.103484 -0.250749 0)
(0.0830986 -0.24324 0)
(0.0655402 -0.225216 0)
(0.0579345 -0.196671 0)
(0.0686156 -0.16223 0)
(0.096943 -0.126244 0)
(0.127177 -0.0829533 0)
(0.143046 -0.00509542 0)
(0.204285 -0.00581273 0)
(0.253566 -0.0121116 0)
(0.267458 -0.0189516 0)
(0.267885 -0.0159816 0)
(0.255902 0.00358944 0)
(0.226581 -0.00327454 0)
(0.147719 1.96385e-05 0)
(0.0277873 -0.108016 0)
(-0.0432946 -0.151936 0)
(-0.0440833 -0.0876525 0)
(0.0119797 -0.0627837 0)
(0.0468733 -0.0617725 0)
(0.0870338 -0.0685344 0)
(0.128614 -0.0828777 0)
(0.16448 -0.103247 0)
(0.185508 -0.129015 0)
(0.187067 -0.157827 0)
(0.174403 -0.18439 0)
(0.156672 -0.204617 0)
(0.138496 -0.21875 0)
(0.121263 -0.22813 0)
(0.105423 -0.233101 0)
(0.0908319 -0.232645 0)
(0.0776132 -0.22495 0)
(0.0667757 -0.208112 0)
(0.0611174 -0.18218 0)
(0.0636778 -0.14804 0)
(0.0733884 -0.108736 0)
(0.0830024 -0.0605443 0)
(0.0943917 0.0189146 0)
(0.16885 0.0380899 0)
(0.234993 0.0192967 0)
(0.256765 0.0209838 0)
(0.255456 0.0271202 0)
(0.233401 0.0375304 0)
(0.179394 0.0212364 0)
(0.0808819 0.0180511 0)
(-0.039653 -0.114744 0)
(-0.0771292 -0.133868 0)
(-0.0520368 -0.0780628 0)
(0.0110854 -0.0243986 0)
(0.0448494 -0.0280954 0)
(0.0822407 -0.0397888 0)
(0.117815 -0.0589986 0)
(0.143452 -0.0852344 0)
(0.152973 -0.115841 0)
(0.148408 -0.145495 0)
(0.136495 -0.169653 0)
(0.122481 -0.187908 0)
(0.108917 -0.201606 0)
(0.0969247 -0.211691 0)
(0.0867977 -0.21786 0)
(0.0784071 -0.218419 0)
(0.0715882 -0.212059 0)
(0.0666403 -0.197139 0)
(0.0640859 -0.173626 0)
(0.0610519 -0.139177 0)
(0.0522436 -0.0948156 0)
(0.0393283 -0.0433298 0)
(0.0549263 0.0404097 0)
(0.126558 0.0700272 0)
(0.205309 0.0674427 0)
(0.233828 0.0679888 0)
(0.228427 0.0712834 0)
(0.201394 0.06232 0)
(0.13286 0.0484252 0)
(0.0167715 0.029159 0)
(-0.0883052 -0.110953 0)
(-0.100705 -0.11941 0)
(-0.0562329 -0.0865268 0)
(0.00996823 -0.00189334 0)
(0.0411246 -0.0111896 0)
(0.0725993 -0.0280124 0)
(0.0992437 -0.0520642 0)
(0.114646 -0.0808321 0)
(0.117752 -0.109936 0)
(0.112128 -0.135226 0)
(0.101985 -0.155467 0)
(0.0909403 -0.171688 0)
(0.0812184 -0.185244 0)
(0.073693 -0.196583 0)
(0.0684808 -0.204773 0)
(0.0652092 -0.207272 0)
(0.0634879 -0.203707 0)
(0.0632359 -0.191462 0)
(0.0639184 -0.168673 0)
(0.0567622 -0.131755 0)
(0.0315869 -0.0823391 0)
(0.00192057 -0.0274493 0)
(0.01494 0.0633926 0)
(0.0847282 0.112967 0)
(0.173301 0.12025 0)
(0.193289 0.120459 0)
(0.200499 0.104601 0)
(0.171468 0.0868098 0)
(0.0791791 0.0786377 0)
(-0.0426276 0.0370691 0)
(-0.124513 -0.0972894 0)
(-0.11534 -0.119777 0)
(-0.0658672 -0.102241 0)
(0.00852131 0.00247273 0)
(0.0352856 -0.0122066 0)
(0.0593672 -0.0327686 0)
(0.0777402 -0.0570576 0)
(0.0873962 -0.0822212 0)
(0.0887109 -0.105484 0)
(0.0835611 -0.125621 0)
(0.0750445 -0.142897 0)
(0.066391 -0.158166 0)
(0.0594996 -0.171936 0)
(0.0549249 -0.184028 0)
(0.0525729 -0.193548 0)
(0.0522146 -0.198843 0)
(0.0530834 -0.197485 0)
(0.0561963 -0.188541 0)
(0.0586214 -0.166233 0)
(0.0460162 -0.125742 0)
(0.00858509 -0.074608 0)
(-0.0283735 -0.0166151 0)
(-0.0207035 0.077891 0)
(0.0396662 0.149752 0)
(0.132161 0.156465 0)
(0.172127 0.149455 0)
(0.167761 0.13184 0)
(0.141499 0.107339 0)
(0.0253021 0.114391 0)
(-0.0950192 0.0523818 0)
(-0.156448 -0.0784246 0)
(-0.119304 -0.120789 0)
(-0.0802061 -0.115914 0)
(0.00668258 -0.00490277 0)
(0.0289302 -0.0234561 0)
(0.04671 -0.0444798 0)
(0.0602209 -0.0649265 0)
(0.0677101 -0.0840532 0)
(0.0689348 -0.101309 0)
(0.064815 -0.117215 0)
(0.0576515 -0.13275 0)
(0.050248 -0.147907 0)
(0.0443291 -0.161854 0)
(0.040341 -0.173964 0)
(0.0381046 -0.183859 0)
(0.0381971 -0.190617 0)
(0.0404103 -0.192346 0)
(0.044869 -0.186441 0)
(0.0438498 -0.165348 0)
(0.0224261 -0.123187 0)
(-0.0154614 -0.0705461 0)
(-0.0449652 -0.00953866 0)
(-0.046684 0.0815867 0)
(0.00583881 0.171283 0)
(0.111507 0.175256 0)
(0.129894 0.165196 0)
(0.147365 0.148943 0)
(0.120811 0.147723 0)
(-0.0293212 0.149425 0)
(-0.128686 0.0845712 0)
(-0.176192 -0.0558579 0)
(-0.118486 -0.113574 0)
(-0.0888338 -0.12294 0)
(0.00488115 -0.0152864 0)
(0.0236472 -0.0358873 0)
(0.0374726 -0.055797 0)
(0.0486062 -0.0719332 0)
(0.0553918 -0.0856672 0)
(0.0572723 -0.0979458 0)
(0.0543255 -0.110333 0)
(0.0477438 -0.124356 0)
(0.0400069 -0.13938 0)
(0.0331146 -0.153303 0)
(0.0273227 -0.165323 0)
(0.0228323 -0.175054 0)
(0.0209183 -0.18229 0)
(0.0222628 -0.186358 0)
(0.0265884 -0.182646 0)
(0.0186759 -0.158776 0)
(-0.00900153 -0.106922 0)
(-0.0357204 -0.048433 0)
(-0.0523386 0.0110651 0)
(-0.0618871 0.0987263 0)
(-0.0203216 0.183483 0)
(0.0747966 0.184707 0)
(0.115617 0.192345 0)
(0.118688 0.190722 0)
(0.0638917 0.186238 0)
(-0.0464475 0.170054 0)
(-0.146933 0.114321 0)
(-0.183327 -0.0328773 0)
(-0.111844 -0.104284 0)
(-0.0915422 -0.12523 0)
(0.00287993 -0.0241901 0)
(0.0198264 -0.0461132 0)
(0.030983 -0.0651584 0)
(0.0407586 -0.0781352 0)
(0.0473911 -0.0880279 0)
(0.0502189 -0.0965318 0)
(0.0486733 -0.105633 0)
(0.0425446 -0.117435 0)
(0.0335343 -0.131515 0)
(0.0239449 -0.145031 0)
(0.0142475 -0.157234 0)
(0.00636402 -0.167554 0)
(0.00119532 -0.175325 0)
(-0.000244498 -0.180149 0)
(0.00266542 -0.176442 0)
(-0.00642839 -0.140326 0)
(-0.0338918 -0.0672304 0)
(-0.0471023 0.00135618 0)
(-0.0648488 0.0572098 0)
(-0.0830929 0.126383 0)
(-0.0428315 0.199582 0)
(0.0467891 0.213523 0)
(0.0907379 0.239552 0)
(0.0639608 0.227064 0)
(0.0262766 0.208356 0)
(-0.0326697 0.187119 0)
(-0.147849 0.141164 0)
(-0.171227 -0.00560131 0)
(-0.100598 -0.0853444 0)
(-0.0839269 -0.118522 0)
(0.000638362 -0.029249 0)
(0.016321 -0.0531245 0)
(0.0249583 -0.0724841 0)
(0.0332662 -0.0838661 0)
(0.0394275 -0.0916742 0)
(0.0429808 -0.0978386 0)
(0.0431013 -0.104159 0)
(0.0381428 -0.112615 0)
(0.0276115 -0.12383 0)
(0.0137937 -0.136095 0)
(0.000331765 -0.14827 0)
(-0.0111786 -0.160571 0)
(-0.0188356 -0.170771 0)
(-0.0212019 -0.176912 0)
(-0.0179895 -0.1722 0)
(-0.0117606 -0.119729 0)
(-0.0420004 -0.0165909 0)
(-0.06212 0.0607556 0)
(-0.0834139 0.108882 0)
(-0.0907907 0.163991 0)
(-0.0567196 0.228716 0)
(0.0176733 0.254995 0)