/*--------------------------------*- C++ -*----------------------------------*\
| =========                 |                                                 |
| \\      /  F ield         | OpenFOAM: The Open Source CFD Toolbox           |
|  \\    /   O peration     | Version:  2.3.0                                 |
|   \\  /    A nd           | Web:      www.OpenFOAM.org                      |
|    \\/     M anipulation  |                                                 |
\*---------------------------------------------------------------------------*/
FoamFile
{
    version     2.0;
    format      ascii;
    class       volScalarField;
    location    "0.500023";
    object      alpha.air;
}
// * * * * * * * * * * * * * * * * * * * * * * * * * * * * * * * * * * * * * //

dimensions      [0 0 0 0 0 0 0];

internalField   nonuniform List<scalar> 
10000
(
0.00307279
0.0033227
0.00581573
0.00703375
0.0111452
0.125562
0.239042
0.411258
0.297752
0.200707
0.109129
0.0790182
0.0402769
0.0291658
0.0203782
0.0133295
0.00903148
0.00631046
0.00477967
0.00564318
7.66071e-10
6.19405e-10
4.4028e-08
9.13893e-08
0.000217049
0.273397
0.250043
0.251125
0.117674
0.112107
0.0275608
0.0158235
0.000984743
9.49293e-05
2.96096e-05
9.17203e-07
2.01932e-07
4.96835e-08
2.24251e-08
7.02627e-08
2.97916e-23
1.68209e-21
1.12327e-18
9.4567e-11
2.96609e-06
0.00382614
0.0028096
0.00293015
0.00133819
0.00103209
0.00013874
7.17195e-05
2.61977e-06
1.11283e-07
7.20471e-08
2.64619e-09
1.33329e-15
3.34928e-18
7.78184e-21
1.53223e-22
2.49591e-24
2.30045e-22
5.9229e-20
9.63237e-13
5.32463e-10
6.88873e-08
3.46188e-08
5.10192e-08
5.60651e-08
3.2007e-09
3.33711e-11
4.85496e-11
5.40986e-11
4.12771e-11
1.27267e-11
7.13245e-13
7.1748e-16
1.42398e-18
1.23623e-21
1.88625e-23
0
0
0
0
0
0
0
0
0
0
0
0
0
0
0
0
0
0
0
0
0
0
0
0
0
0
0
0
0
0
0
0
0
0
0
0
0
0
0
0
0
0
0
0
0
0
0
0
0
0
0
0
0
0
0
0
0
0
0
0
0
0
0
0
0
0
0
0
0
0
0
0
0
0
0
0
0
0
0
0
0
0
0
0
0
0
0
0
0
0
0
0
0
0
0
0
0
0
0
0
0
0
0
0
0
0
0
0
0
0
0
0
0
0
0
0
0
0
0
0
0
0
0
0
0
0
0
0
0
0
0
0
0
0
0
0
0
0
0
0
0
0
0
0
0
0
0
0
0
0
0
0
0
0
0
0
0
0
0
0
0
0
0
0
0
0
0
0
0
0
0
0
0
0
0
0
0
0
0
0
0
0
0
0
0
0
0
0
0
0
0
0
0
0
0
0
0
0
0
0
0
0
0
0
0
0
0
0
0
0
0
0
0
0
0
0
0
0
0
0
0
0
0
0
0
0
0
0
0
0
0
0
0
0
0
0
0
0
0
0
0
0
0
0
0
0
0
0
0
0
0
0
0
0
0
0
0
0
0
0
0
0
0
0
0
0
0
0
0
0
0
0
0
0
0
0
0
0
0
0
0
0
0
0
0
0
0
0
0
0
0
0
0
0
0
0
0
0
0
0
0
0
0
0
0
0
0
0
0
0
0
0
0
0
0
0
0
0
0
0
0.00316746
0.00348441
0.00595408
0.00721682
0.0115346
0.125339
0.241681
0.417465
0.299892
0.203986
0.114077
0.0831329
0.0424472
0.0309859
0.0217692
0.0140948
0.00927399
0.00643436
0.00482318
0.00564274
1.09489e-09
9.47857e-10
5.9216e-08
1.14982e-07
0.000275924
0.277593
0.255677
0.262631
0.125675
0.123521
0.0314306
0.0182459
0.00115317
0.000116093
4.17357e-05
1.18561e-06
2.5806e-07
6.17264e-08
2.49109e-08
8.75425e-08
3.30555e-23
1.35248e-21
8.99956e-19
2.97233e-11
1.95294e-06
0.00387753
0.00287187
0.00318866
0.00153035
0.00120679
0.000169428
8.91981e-05
3.34735e-06
1.49163e-07
1.09894e-07
4.18379e-09
1.43502e-15
3.20703e-18
8.45507e-21
1.58051e-22
2.16956e-24
2.02636e-22
4.97562e-20
7.86324e-13
6.10306e-10
7.84149e-08
3.85653e-08
5.56719e-08
7.55999e-08
3.69321e-09
3.61393e-11
5.49485e-11
6.33128e-11
4.6018e-11
1.49176e-11
9.05046e-13
6.53514e-16
1.13302e-18
1.37396e-21
1.93523e-23
0
0
0
0
0
0
0
0
0
0
0
0
0
0
0
0
0
0
0
0
0
0
0
0
0
0
0
0
0
0
0
0
0
0
0
0
0
0
0
0
0
0
0
0
0
0
0
0
0
0
0
0
0
0
0
0
0
0
0
0
0
0
0
0
0
0
0
0
0
0
0
0
0
0
0
0
0
0
0
0
0
0
0
0
0
0
0
0
0
0
0
0
0
0
0
0
0
0
0
0
0
0
0
0
0
0
0
0
0
0
0
0
0
0
0
0
0
0
0
0
0
0
0
0
0
0
0
0
0
0
0
0
0
0
0
0
0
0
0
0
0
0
0
0
0
0
0
0
0
0
0
0
0
0
0
0
0
0
0
0
0
0
0
0
0
0
0
0
0
0
0
0
0
0
0
0
0
0
0
0
0
0
0
0
0
0
0
0
0
0
0
0
0
0
0
0
0
0
0
0
0
0
0
0
0
0
0
0
0
0
0
0
0
0
0
0
0
0
0
0
0
0
0
0
0
0
0
0
0
0
0
0
0
0
0
0
0
0
0
0
0
0
0
0
0
0
0
0
0
0
0
0
0
0
0
0
0
0
0
0
0
0
0
0
0
0
0
0
0
0
0
0
0
0
0
0
0
0
0
0
0
0
0
0
0
0
0
0
0
0
0
0
0
0
0
0
0
0
0
0
0
0
0
0
0
0
0
0
0
0
0
0
0
0
0
0
0
0
0
0
0.00320352
0.00356542
0.0060155
0.00729646
0.0117925
0.125211
0.243292
0.420183
0.30097
0.20516
0.116848
0.0855448
0.0438083
0.0321113
0.0226447
0.0145733
0.009405
0.00650614
0.00485929
0.00564905
1.91849e-09
1.57378e-09
5.35875e-08
1.06273e-07
0.000309026
0.280094
0.258895
0.26932
0.130487
0.130523
0.0339125
0.019828
0.00126809
0.000130999
5.11839e-05
1.36452e-06
2.43467e-07
5.44911e-08
1.90329e-08
7.28476e-08
3.82416e-23
1.1006e-21
5.59844e-19
4.4781e-12
1.31817e-06
0.00388194
0.00287771
0.00333381
0.00165371
0.00131601
0.000190709
0.000101693
3.88787e-06
1.79122e-07
1.42524e-07
6.69758e-09
1.48248e-15
3.04475e-18
8.92678e-21
1.70526e-22
1.73151e-24
1.66073e-22
3.68129e-20
5.17815e-13
6.56992e-10
8.09638e-08
3.95399e-08
6.05695e-08
9.02646e-08
4.12186e-09
3.85079e-11
5.96532e-11
7.494e-11
5.55385e-11
1.79032e-11
1.14161e-12
5.88082e-16
1.05551e-18
1.45328e-21
2.15604e-23
0
0
0
0
0
0
0
0
0
0
0
0
0
0
0
0
0
0
0
0
0
0
0
0
0
0
0
0
0
0
0
0
0
0
0
0
0
0
0
0
0
0
0
0
0
0
0
0
0
0
0
0
0
0
0
0
0
0
0
0
0
0
0
0
0
0
0
0
0
0
0
0
0
0
0
0
0
0
0
0
0
0
0
0
0
0
0
0
0
0
0
0
0
0
0
0
0
0
0
0
0
0
0
0
0
0
0
0
0
0
0
0
0
0
0
0
0
0
0
0
0
0
0
0
0
0
0
0
0
0
0
0
0
0
0
0
0
0
0
0
0
0
0
0
0
0
0
0
0
0
0
0
0
0
0
0
0
0
0
0
0
0
0
0
0
0
0
0
0
0
0
0
0
0
0
0
0
0
0
0
0
0
0
0
0
0
0
0
0
0
0
0
0
0
0
0
0
0
0
0
0
0
0
0
0
0
0
0
0
0
0
0
0
0
0
0
0
0
0
0
0
0
0
0
0
0
0
0
0
0
0
0
0
0
0
0
0
0
0
0
0
0
0
0
0
0
0
0
0
0
0
0
0
0
0
0
0
0
0
0
0
0
0
0
0
0
0
0
0
0
0
0
0
0
0
0
0
0
0
0
0
0
0
0
0
0
0
0
0
0
0
0
0
0
0
0
0
0
0
0
0
0
0
0
0
0
0
0
0
0
0
0
0
0
0
0
0
0
0
0
0.00318957
0.00358606
0.00598575
0.00726678
0.0118562
0.123909
0.244364
0.42291
0.301473
0.204958
0.118491
0.0870372
0.0445906
0.0326814
0.0230664
0.0147271
0.00936062
0.00647789
0.00479845
0.00550885
4.4935e-09
2.94324e-09
7.15986e-08
1.28254e-07
0.000339829
0.282854
0.262412
0.276681
0.135818
0.138306
0.0367525
0.0216505
0.00140148
0.000148749
6.33561e-05
1.81462e-06
2.62162e-07
5.89202e-08
2.03696e-08
6.45886e-08
4.5993e-23
1.00254e-21
3.00044e-19
4.33653e-13
1.01248e-06
0.00381328
0.00285351
0.00349494
0.00178955
0.00143286
0.000215637
0.000116627
4.5608e-06
2.18933e-07
1.88377e-07
1.07209e-08
1.51115e-15
2.66447e-18
8.69156e-21
1.75079e-22
1.3934e-24
1.33776e-22
2.34905e-20
2.5989e-13
6.89841e-10
8.24834e-08
4.06959e-08
7.08565e-08
1.09014e-07
4.53108e-09
4.02913e-11
6.52355e-11
9.00317e-11
6.78633e-11
2.1523e-11
1.43075e-12
4.94265e-16
9.48955e-19
1.38185e-21
2.29342e-23
0
0
0
0
0
0
0
0
0
0
0
0
0
0
0
0
0
0
0
0
0
0
0
0
0
0
0
0
0
0
0
0
0
0
0
0
0
0
0
0
0
0
0
0
0
0
0
0
0
0
0
0
0
0
0
0
0
0
0
0
0
0
0
0
0
0
0
0
0
0
0
0
0
0
0
0
0
0
0
0
0
0
0
0
0
0
0
0
0
0
0
0
0
0
0
0
0
0
0
0
0
0
0
0
0
0
0
0
0
0
0
0
0
0
0
0
0
0
0
0
0
0
0
0
0
0
0
0
0
0
0
0
0
0
0
0
0
0
0
0
0
0
0
0
0
0
0
0
0
0
0
0
0
0
0
0
0
0
0
0
0
0
0
0
0
0
0
0
0
0
0
0
0
0
0
0
0
0
0
0
0
0
0
0
0
0
0
0
0
0
0
0
0
0
0
0
0
0
0
0
0
0
0
0
0
0
0
0
0
0
0
0
0
0
0
0
0
0
0
0
0
0
0
0
0
0
0
0
0
0
0
0
0
0
0
0
0
0
0
0
0
0
0
0
0
0
0
0
0
0
0
0
0
0
0
0
0
0
0
0
0
0
0
0
0
0
0
0
0
0
0
0
0
0
0
0
0
0
0
0
0
0
0
0
0
0
0
0
0
0
0
0
0
0
0
0
0
0
0
0
0
0
0
0
0
0
0
0
0
0
0
0
0
0
0
0
0
0
0
0
0.00319073
0.00363454
0.00599962
0.00727274
0.0119427
0.123199
0.246011
0.426058
0.302643
0.204945
0.120265
0.0886792
0.0454599
0.0333048
0.0235413
0.0149066
0.00933875
0.00647059
0.00477565
0.00543969
1.01084e-08
1.00522e-08
9.43457e-08
1.49037e-07
0.00036465
0.285464
0.265738
0.28377
0.141069
0.146052
0.039685
0.0235457
0.00154148
0.000167801
7.72933e-05
2.5562e-06
2.83205e-07
6.43113e-08
2.0576e-08
5.99095e-08
5.69414e-23
1.01899e-21
1.58741e-19
5.3032e-14
8.78108e-07
0.00376719
0.00283745
0.0036679
0.00192872
0.00154275
0.000241615
0.000132592
5.31727e-06
2.6606e-07
2.45519e-07
2.37121e-08
1.60136e-15
1.97297e-18
7.59059e-21
1.62077e-22
1.11127e-24
1.02201e-22
1.30372e-20
9.52627e-14
7.00267e-10
8.28684e-08
4.14233e-08
7.85242e-08
1.29764e-07
4.88841e-09
4.12736e-11
7.15775e-11
1.10237e-10
8.42056e-11
2.591e-11
1.78078e-12
3.14114e-16
7.31153e-19
1.14645e-21
2.25889e-23
0
0
0
0
0
0
0
0
0
0
0
0
0
0
0
0
0
0
0
0
0
0
0
0
0
0
0
0
0
0
0
0
0
0
0
0
0
0
0
0
0
0
0
0
0
0
0
0
0
0
0
0
0
0
0
0
0
0
0
0
0
0
0
0
0
0
0
0
0
0
0
0
0
0
0
0
0
0
0
0
0
0
0
0
0
0
0
0
0
0
0
0
0
0
0
0
0
0
0
0
0
0
0
0
0
0
0
0
0
0
0
0
0
0
0
0
0
0
0
0
0
0
0
0
0
0
0
0
0
0
0
0
0
0
0
0
0
0
0
0
0
0
0
0
0
0
0
0
0
0
0
0
0
0
0
0
0
0
0
0
0
0
0
0
0
0
0
0
0
0
0
0
0
0
0
0
0
0
0
0
0
0
0
0
0
0
0
0
0
0
0
0
0
0
0
0
0
0
0
0
0
0
0
0
0
0
0
0
0
0
0
0
0
0
0
0
0
0
0
0
0
0
0
0
0
0
0
0
0
0
0
0
0
0
0
0
0
0
0
0
0
0
0
0
0
0
0
0
0
0
0
0
0
0
0
0
0
0
0
0
0
0
0
0
0
0
0
0
0
0
0
0
0
0
0
0
0
0
0
0
0
0
0
0
0
0
0
0
0
0
0
0
0
0
0
0
0
0
0
0
0
0
0
0
0
0
0
0
0
0
0
0
0
0
0
0
0
0
0
0
0.00318529
0.00367505
0.0060337
0.0072925
0.0120366
0.122371
0.247449
0.429083
0.303459
0.204584
0.121863
0.0902848
0.046351
0.0339708
0.0240718
0.0151308
0.00932938
0.00645734
0.00474271
0.00536484
1.48182e-08
2.04523e-08
1.25144e-07
1.72371e-07
0.000385389
0.288041
0.268986
0.290752
0.146318
0.153748
0.042728
0.0255331
0.00168925
0.000188516
9.33564e-05
3.77327e-06
3.07235e-07
7.15344e-08
2.19798e-08
5.72281e-08
7.05714e-23
1.0936e-21
9.12157e-20
8.79963e-15
9.03568e-07
0.00371386
0.00281515
0.00385486
0.00207628
0.00164911
0.000269349
0.000150009
6.18478e-06
3.23231e-07
3.17556e-07
3.81216e-08
1.91459e-15
1.03201e-18
5.87925e-21
1.31302e-22
7.99043e-25
7.01887e-23
6.5115e-21
2.479e-14
6.84476e-10
8.06529e-08
4.18369e-08
8.79297e-08
1.53064e-07
5.17502e-09
4.1374e-11
7.85038e-11
1.35457e-10
1.06514e-10
3.12293e-11
2.20733e-12
1.06996e-16
3.90177e-19
9.10332e-22
2.00302e-23
0
0
0
0
0
0
0
0
0
0
0
0
0
0
0
0
0
0
0
0
0
0
0
0
0
0
0
0
0
0
0
0
0
0
0
0
0
0
0
0
0
0
0
0
0
0
0
0
0
0
0
0
0
0
0
0
0
0
0
0
0
0
0
0
0
0
0
0
0
0
0
0
0
0
0
0
0
0
0
0
0
0
0
0
0
0
0
0
0
0
0
0
0
0
0
0
0
0
0
0
0
0
0
0
0
0
0
0
0
0
0
0
0
0
0
0
0
0
0
0
0
0
0
0
0
0
0
0
0
0
0
0
0
0
0
0
0
0
0
0
0
0
0
0
0
0
0
0
0
0
0
0
0
0
0
0
0
0
0
0
0
0
0
0
0
0
0
0
0
0
0
0
0
0
0
0
0
0
0
0
0
0
0
0
0
0
0
0
0
0
0
0
0
0
0
0
0
0
0
0
0
0
0
0
0
0
0
0
0
0
0
0
0
0
0
0
0
0
0
0
0
0
0
0
0
0
0
0
0
0
0
0
0
0
0
0
0
0
0
0
0
0
0
0
0
0
0
0
0
0
0
0
0
0
0
0
0
0
0
0
0
0
0
0
0
0
0
0
0
0
0
0
0
0
0
0
0
0
0
0
0
0
0
0
0
0
0
0
0
0
0
0
0
0
0
0
0
0
0
0
0
0
0
0
0
0
0
0
0
0
0
0
0
0
0
0
0
0
0
0
0.00318353
0.00372382
0.00609638
0.00732458
0.012142
0.121608
0.24917
0.432179
0.304736
0.204234
0.123308
0.0918684
0.0472536
0.0346505
0.0246257
0.0153809
0.00932849
0.00644716
0.00471492
0.00529792
1.93159e-08
3.23436e-08
1.59077e-07
1.96058e-07
0.000404713
0.290543
0.272121
0.297559
0.151563
0.161385
0.0458847
0.0276073
0.00184409
0.0002107
0.000111419
5.64095e-06
3.30587e-07
7.97771e-08
2.40954e-08
5.59168e-08
8.90553e-23
1.27101e-21
5.8848e-20
1.18249e-15
9.50092e-07
0.00365865
0.00278999
0.00404689
0.00223096
0.00174633
0.000298206
0.000168588
7.16461e-06
3.91869e-07
4.06787e-07
6.19561e-08
2.59401e-15
2.34771e-19
4.00235e-21
9.19071e-23
5.98079e-25
5.44727e-23
3.4757e-21
4.46001e-15
6.53433e-10
7.85172e-08
4.19822e-08
9.83725e-08
1.78676e-07
5.37611e-09
4.06219e-11
8.60341e-11
1.66481e-10
1.36096e-10
3.76854e-11
2.71435e-12
2.18721e-18
9.21312e-20
5.72956e-22
1.56779e-23
0
0
0
0
0
0
0
0
0
0
0
0
0
0
0
0
0
0
0
0
0
0
0
0
0
0
0
0
0
0
0
0
0
0
0
0
0
0
0
0
0
0
0
0
0
0
0
0
0
0
0
0
0
0
0
0
0
0
0
0
0
0
0
0
0
0
0
0
0
0
0
0
0
0
0
0
0
0
0
0
0
0
0
0
0
0
0
0
0
0
0
0
0
0
0
0
0
0
0
0
0
0
0
0
0
0
0
0
0
0
0
0
0
0
0
0
0
0
0
0
0
0
0
0
0
0
0
0
0
0
0
0
0
0
0
0
0
0
0
0
0
0
0
0
0
0
0
0
0
0
0
0
0
0
0
0
0
0
0
0
0
0
0
0
0
0
0
0
0
0
0
0
0
0
0
0
0
0
0
0
0
0
0
0
0
0
0
0
0
0
0
0
0
0
0
0
0
0
0
0
0
0
0
0
0
0
0
0
0
0
0
0
0
0
0
0
0
0
0
0
0
0
0
0
0
0
0
0
0
0
0
0
0
0
0
0
0
0
0
0
0
0
0
0
0
0
0
0
0
0
0
0
0
0
0
0
0
0
0
0
0
0
0
0
0
0
0
0
0
0
0
0
0
0
0
0
0
0
0
0
0
0
0
0
0
0
0
0
0
0
0
0
0
0
0
0
0
0
0
0
0
0
0
0
0
0
0
0
0
0
0
0
0
0
0
0
0
0
0
0
0.00318065
0.00377409
0.00616975
0.00735899
0.0122548
0.120817
0.25089
0.435205
0.306408
0.203803
0.124565
0.0934134
0.048157
0.035327
0.0251822
0.0156503
0.00933682
0.00643624
0.00468731
0.00523371
2.36408e-08
4.63377e-08
1.93509e-07
2.19555e-07
0.000426113
0.292994
0.27515
0.304178
0.156788
0.168861
0.0491174
0.0297484
0.00200478
0.000234283
0.000131381
8.34093e-06
3.5245e-07
8.84337e-08
2.68089e-08
5.5419e-08
1.12778e-22
1.60201e-21
4.50871e-20
1.10506e-16
1.00428e-06
0.00360124
0.00276296
0.00423936
0.00239628
0.00183341
0.00032801
0.000188204
8.26367e-06
4.73863e-07
5.16113e-07
9.67284e-08
3.67682e-15
7.81407e-20
2.51438e-21
5.72534e-23
7.19171e-25
8.78973e-23
7.53182e-21
5.34218e-16
6.06609e-10
7.52296e-08
4.17623e-08
1.09871e-07
2.06502e-07
5.48098e-09
3.91097e-11
9.45159e-11
2.04534e-10
1.73207e-10
4.55296e-11
3.30719e-12
2.84609e-18
3.27276e-20
3.80546e-22
1.09813e-23
0
0
0
0
0
0
0
0
0
0
0
0
0
0
0
0
0
0
0
0
0
0
0
0
0
0
0
0
0
0
0
0
0
0
0
0
0
0
0
0
0
0
0
0
0
0
0
0
0
0
0
0
0
0
0
0
0
0
0
0
0
0
0
0
0
0
0
0
0
0
0
0
0
0
0
0
0
0
0
0
0
0
0
0
0
0
0
0
0
0
0
0
0
0
0
0
0
0
0
0
0
0
0
0
0
0
0
0
0
0
0
0
0
0
0
0
0
0
0
0
0
0
0
0
0
0
0
0
0
0
0
0
0
0
0
0
0
0
0
0
0
0
0
0
0
0
0
0
0
0
0
0
0
0
0
0
0
0
0
0
0
0
0
0
0
0
0
0
0
0
0
0
0
0
0
0
0
0
0
0
0
0
0
0
0
0
0
0
0
0
0
0
0
0
0
0
0
0
0
0
0
0
0
0
0
0
0
0
0
0
0
0
0
0
0
0
0
0
0
0
0
0
0
0
0
0
0
0
0
0
0
0
0
0
0
0
0
0
0
0
0
0
0
0
0
0
0
0
0
0
0
0
0
0
0
0
0
0
0
0
0
0
0
0
0
0
0
0
0
0
0
0
0
0
0
0
0
0
0
0
0
0
0
0
0
0
0
0
0
0
0
0
0
0
0
0
0
0
0
0
0
0
0
0
0
0
0
0
0
0
0
0
0
0
0
0
0
0
0
0
0.00317801
0.0038276
0.00625556
0.00740001
0.0123786
0.120028
0.252788
0.438261
0.308793
0.203352
0.125629
0.0949179
0.049064
0.036
0.0257325
0.0159401
0.00935232
0.0064259
0.00466092
0.00517296
2.76297e-08
6.11946e-08
2.28108e-07
2.43039e-07
0.000453166
0.295377
0.278059
0.310582
0.162006
0.176178
0.0524123
0.0319492
0.00217028
0.000259117
0.000153049
1.20089e-05
3.71763e-07
9.68361e-08
2.99532e-08
5.47853e-08
1.41498e-22
2.04293e-21
3.65361e-20
7.44723e-18
1.05662e-06
0.00353271
0.00273297
0.00442319
0.00257364
0.00190722
0.000358257
0.000208607
9.48652e-06
5.71026e-07
6.48561e-07
1.45406e-07
5.19584e-15
6.67109e-20
1.62573e-21
3.31347e-23
4.76989e-25
8.21675e-23
1.1823e-20
4.00271e-17
5.52393e-10
7.12569e-08
4.12277e-08
1.21863e-07
2.36445e-07
5.47605e-09
3.76638e-11
1.0444e-10
2.51096e-10
2.19358e-10
5.50811e-11
3.98773e-12
4.28376e-18
3.22576e-20
4.40944e-22
7.36386e-24
0
0
0
0
0
0
0
0
0
0
0
0
0
0
0
0
0
0
0
0
0
0
0
0
0
0
0
0
0
0
0
0
0
0
0
0
0
0
0
0
0
0
0
0
0
0
0
0
0
0
0
0
0
0
0
0
0
0
0
0
0
0
0
0
0
0
0
0
0
0
0
0
0
0
0
0
0
0
0
0
0
0
0
0
0
0
0
0
0
0
0
0
0
0
0
0
0
0
0
0
0
0
0
0
0
0
0
0
0
0
0
0
0
0
0
0
0
0
0
0
0
0
0
0
0
0
0
0
0
0
0
0
0
0
0
0
0
0
0
0
0
0
0
0
0
0
0
0
0
0
0
0
0
0
0
0
0
0
0
0
0
0
0
0
0
0
0
0
0
0
0
0
0
0
0
0
0
0
0
0
0
0
0
0
0
0
0
0
0
0
0
0
0
0
0
0
0
0
0
0
0
0
0
0
0
0
0
0
0
0
0
0
0
0
0
0
0
0
0
0
0
0
0
0
0
0
0
0
0
0
0
0
0
0
0
0
0
0
0
0
0
0
0
0
0
0
0
0
0
0
0
0
0
0
0
0
0
0
0
0
0
0
0
0
0
0
0
0
0
0
0
0
0
0
0
0
0
0
0
0
0
0
0
0
0
0
0
0
0
0
0
0
0
0
0
0
0
0
0
0
0
0
0
0
0
0
0
0
0
0
0
0
0
0
0
0
0
0
0
0
0.00317546
0.00388453
0.00635453
0.00744876
0.0125152
0.119192
0.25475
0.44122
0.310895
0.202911
0.126505
0.0963716
0.0499762
0.0366731
0.0262727
0.0162511
0.00937492
0.00641634
0.00463521
0.00511624
3.11334e-08
7.51135e-08
2.58789e-07
2.64078e-07
0.000488627
0.297708
0.280847
0.316758
0.167206
0.183269
0.0557322
0.0341968
0.00233914
0.00028499
0.000176178
1.66907e-05
3.87615e-07
1.04338e-07
3.33214e-08
5.57005e-08
1.77378e-22
2.636e-21
3.11417e-20
3.82341e-19
1.09428e-06
0.00344918
0.00270329
0.00459757
0.0027689
0.00196793
0.000388539
0.00022958
1.08379e-05
6.85193e-07
8.07324e-07
2.10317e-07
7.31932e-15
9.06429e-20
1.36452e-21
1.94678e-23
1.17747e-25
1.17708e-23
1.1476e-21
1.67534e-18
4.96901e-10
6.63557e-08
4.04207e-08
1.33291e-07
2.6845e-07
5.34671e-09
3.60267e-11
1.16688e-10
3.07768e-10
2.76167e-10
6.67603e-11
4.75315e-12
6.36037e-18
5.093e-20
7.78899e-22
5.66361e-24
0
0
0
0
0
0
0
0
0
0
0
0
0
0
0
0
0
0
0
0
0
0
0
0
0
0
0
0
0
0
0
0
0
0
0
0
0
0
0
0
0
0
0
0
0
0
0
0
0
0
0
0
0
0
0
0
0
0
0
0
0
0
0
0
0
0
0
0
0
0
0
0
0
0
0
0
0
0
0
0
0
0
0
0
0
0
0
0
0
0
0
0
0
0
0
0
0
0
0
0
0
0
0
0
0
0
0
0
0
0
0
0
0
0
0
0
0
0
0
0
0
0
0
0
0
0
0
0
0
0
0
0
0
0
0
0
0
0
0
0
0
0
0
0
0
0
0
0
0
0
0
0
0
0
0
0
0
0
0
0
0
0
0
0
0
0
0
0
0
0
0
0
0
0
0
0
0
0
0
0
0
0
0
0
0
0
0
0
0
0
0
0
0
0
0
0
0
0
0
0
0
0
0
0
0
0
0
0
0
0
0
0
0
0
0
0
0
0
0
0
0
0
0
0
0
0
0
0
0
0
0
0
0
0
0
0
0
0
0
0
0
0
0
0
0
0
0
0
0
0
0
0
0
0
0
0
0
0
0
0
0
0
0
0
0
0
0
0
0
0
0
0
0
0
0
0
0
0
0
0
0
0
0
0
0
0
0
0
0
0
0
0
0
0
0
0
0
0
0
0
0
0
0
0
0
0
0
0
0
0
0
0
0
0
0
0
0
0
0
0
0.00317374
0.00394638
0.00647038
0.00750493
0.0126654
0.118321
0.256854
0.444147
0.312049
0.20257
0.127228
0.0977602
0.0508943
0.0373511
0.0268031
0.0165818
0.00940543
0.00640837
0.004612
0.00506493
3.401e-08
8.60105e-08
2.84245e-07
2.81386e-07
0.000533162
0.29997
0.283503
0.322682
0.172389
0.190122
0.0590551
0.0364838
0.00250977
0.000311656
0.00020049
2.22982e-05
3.99775e-07
1.10294e-07
3.65321e-08
5.67398e-08
2.24805e-22
3.54446e-21
3.37803e-20
3.65097e-20
1.14116e-06
0.00333692
0.00267419
0.00475977
0.00298703
0.00201216
0.000418209
0.000250868
1.23218e-05
8.1802e-07
9.95543e-07
2.92342e-07
1.02826e-14
1.29863e-19
1.68891e-21
1.40431e-23
5.73376e-26
4.33493e-24
2.01706e-22
2.77614e-20
4.38481e-10
6.03496e-08
3.93427e-08
1.42878e-07
3.02329e-07
5.0828e-09
3.40274e-11
1.36253e-10
3.76346e-10
3.45244e-10
8.11418e-11
5.59546e-12
9.33538e-18
8.3491e-20
1.46772e-21
6.48155e-24
0
0
0
0
0
0
0
0
0
0
0
0
0
0
0
0
0
0
0
0
0
0
0
0
0
0
0
0
0
0
0
0
0
0
0
0
0
0
0
0
0
0
0
0
0
0
0
0
0
0
0
0
0
0
0
0
0
0
0
0
0
0
0
0
0
0
0
0
0
0
0
0
0
0
0
0
0
0
0
0
0
0
0
0
0
0
0
0
0
0
0
0
0
0
0
0
0
0
0
0
0
0
0
0
0
0
0
0
0
0
0
0
0
0
0
0
0
0
0
0
0
0
0
0
0
0
0
0
0
0
0
0
0
0
0
0
0
0
0
0
0
0
0
0
0
0
0
0
0
0
0
0
0
0
0
0
0
0
0
0
0
0
0
0
0
0
0
0
0
0
0
0
0
0
0
0
0
0
0
0
0
0
0
0
0
0
0
0
0
0
0
0
0
0
0
0
0
0
0
0
0
0
0
0
0
0
0
0
0
0
0
0
0
0
0
0
0
0
0
0
0
0
0
0
0
0
0
0
0
0
0
0
0
0
0
0
0
0
0
0
0
0
0
0
0
0
0
0
0
0
0
0
0
0
0
0
0
0
0
0
0
0
0
0
0
0
0
0
0
0
0
0
0
0
0
0
0
0
0
0
0
0
0
0
0
0
0
0
0
0
0
0
0
0
0
0
0
0
0
0
0
0
0
0
0
0
0
0
0
0
0
0
0
0
0
0
0
0
0
0
0.00317325
0.00401349
0.00660326
0.0075679
0.0128304
0.11736
0.259058
0.446949
0.312297
0.202411
0.127845
0.0990666
0.0518187
0.0380399
0.0273275
0.0169277
0.00944411
0.0064031
0.00459595
0.0050201
3.61028e-08
9.3087e-08
3.0543e-07
2.93501e-07
0.000588597
0.302165
0.286023
0.328343
0.177539
0.196707
0.0623508
0.0387916
0.00268036
0.000338869
0.000225662
2.8574e-05
4.08558e-07
1.1403e-07
3.85144e-08
5.76352e-08
2.85632e-22
4.76937e-21
4.85489e-20
2.7664e-20
1.21019e-06
0.003192
0.0026494
0.00491495
0.00323712
0.00203914
0.0004467
0.000272215
1.3942e-05
9.7094e-07
1.21591e-06
3.91382e-07
1.44205e-14
1.84662e-19
2.62292e-21
1.49646e-23
2.96615e-26
2.13854e-24
9.13937e-23
4.79181e-22
3.74366e-10
5.31203e-08
3.80217e-08
1.49671e-07
3.37558e-07
4.87037e-09
3.18974e-11
1.59089e-10
4.58727e-10
4.28039e-10
9.90194e-11
6.50328e-12
1.35821e-17
1.33451e-19
2.65318e-21
1.05809e-23
0
0
0
0
0
0
0
0
0
0
0
0
0
0
0
0
0
0
0
0
0
0
0
0
0
0
0
0
0
0
0
0
0
0
0
0
0
0
0
0
0
0
0
0
0
0
0
0
0
0
0
0
0
0
0
0
0
0
0
0
0
0
0
0
0
0
0
0
0
0
0
0
0
0
0
0
0
0
0
0
0
0
0
0
0
0
0
0
0
0
0
0
0
0
0
0
0
0
0
0
0
0
0
0
0
0
0
0
0
0
0
0
0
0
0
0
0
0
0
0
0
0
0
0
0
0
0
0
0
0
0
0
0
0
0
0
0
0
0
0
0
0
0
0
0
0
0
0
0
0
0
0
0
0
0
0
0
0
0
0
0
0
0
0
0
0
0
0
0
0
0
0
0
0
0
0
0
0
0
0
0
0
0
0
0
0
0
0
0
0
0
0
0
0
0
0
0
0
0
0
0
0
0
0
0
0
0
0
0
0
0
0
0
0
0
0
0
0
0
0
0
0
0
0
0
0
0
0
0
0
0
0
0
0
0
0
0
0
0
0
0
0
0
0
0
0
0
0
0
0
0
0
0
0
0
0
0
0
0
0
0
0
0
0
0
0
0
0
0
0
0
0
0
0
0
0
0
0
0
0
0
0
0
0
0
0
0
0
0
0
0
0
0
0
0
0
0
0
0
0
0
0
0
0
0
0
0
0
0
0
0
0
0
0
0
0
0
0
0
0
0.00317412
0.00408465
0.00674934
0.00763702
0.013011
0.11632
0.261391
0.449678
0.308226
0.202406
0.128396
0.100273
0.0527492
0.0387452
0.0278487
0.0172822
0.00949112
0.00640133
0.00459144
0.00498272
3.74073e-08
9.69527e-08
3.23591e-07
2.99875e-07
0.000655439
0.304263
0.288397
0.333715
0.182622
0.203022
0.0655972
0.0410924
0.00284913
0.000366367
0.000251321
3.51688e-05
4.1459e-07
1.14869e-07
3.69855e-08
5.80102e-08
3.62707e-22
6.40641e-21
1.04716e-19
2.84315e-20
1.30965e-06
0.00300864
0.00262822
0.00506358
0.00352557
0.00205034
0.000473311
0.000293264
1.57029e-05
1.14538e-06
1.47024e-06
5.07373e-07
2.02142e-14
2.60839e-19
4.26138e-21
2.08745e-23
1.42304e-26
9.76219e-25
4.04056e-23
3.06497e-22
3.0532e-10
4.48124e-08
3.65075e-08
1.53681e-07
3.73288e-07
4.75474e-09
2.95963e-11
1.85673e-10
5.56773e-10
5.25638e-10
1.21156e-10
7.46725e-12
1.96572e-17
2.07942e-19
4.55231e-21
1.84675e-23
0
0
0
0
0
0
0
0
0
0
0
0
0
0
0
0
0
0
0
0
0
0
0
0
0
0
0
0
0
0
0
0
0
0
0
0
0
0
0
0
0
0
0
0
0
0
0
0
0
0
0
0
0
0
0
0
0
0
0
0
0
0
0
0
0
0
0
0
0
0
0
0
0
0
0
0
0
0
0
0
0
0
0
0
0
0
0
0
0
0
0
0
0
0
0
0
0
0
0
0
0
0
0
0
0
0
0
0
0
0
0
0
0
0
0
0
0
0
0
0
0
0
0
0
0
0
0
0
0
0
0
0
0
0
0
0
0
0
0
0
0
0
0
0
0
0
0
0
0
0
0
0
0
0
0
0
0
0
0
0
0
0
0
0
0
0
0
0
0
0
0
0
0
0
0
0
0
0
0
0
0
0
0
0
0
0
0
0
0
0
0
0
0
0
0
0
0
0
0
0
0
0
0
0
0
0
0
0
0
0
0
0
0
0
0
0
0
0
0
0
0
0
0
0
0
0
0
0
0
0
0
0
0
0
0
0
0
0
0
0
0
0
0
0
0
0
0
0
0
0
0
0
0
0
0
0
0
0
0
0
0
0
0
0
0
0
0
0
0
0
0
0
0
0
0
0
0
0
0
0
0
0
0
0
0
0
0
0
0
0
0
0
0
0
0
0
0
0
0
0
0
0
0
0
0
0
0
0
0
0
0
0
0
0
0
0
0
0
0
0
0.00317639
0.00415828
0.00690611
0.00771125
0.013207
0.115126
0.263812
0.452243
0.293481
0.202547
0.128909
0.101366
0.053684
0.0394684
0.0283684
0.0176358
0.00954654
0.00640427
0.00460504
0.00495321
3.74148e-08
9.85921e-08
3.40396e-07
3.0148e-07
0.000731249
0.306254
0.290621
0.33879
0.187487
0.209063
0.0687673
0.0433477
0.00301457
0.000393735
0.000277078
4.17868e-05
4.18845e-07
1.13122e-07
3.46895e-08
5.74834e-08
4.60264e-22
8.61224e-21
3.35106e-19
3.94269e-20
1.44246e-06
0.00279847
0.00261014
0.00520979
0.00385927
0.00203922
0.000497388
0.000313578
1.76089e-05
1.34331e-06
1.75966e-06
6.41822e-07
2.83675e-14
3.67902e-19
6.78889e-21
3.07373e-23
6.19717e-27
4.01378e-25
1.60789e-23
2.13298e-22
2.33123e-10
3.60516e-08
3.49184e-08
1.55434e-07
4.08438e-07
4.51386e-09
2.7215e-11
2.16526e-10
6.72039e-10
6.38573e-10
1.46134e-10
8.4899e-12
2.84153e-17
3.18251e-19
7.43681e-21
2.93935e-23
0
0
0
0
0
0
0
0
0
0
0
0
0
0
0
0
0
0
0
0
0
0
0
0
0
0
0
0
0
0
0
0
0
0
0
0
0
0
0
0
0
0
0
0
0
0
0
0
0
0
0
0
0
0
0
0
0
0
0
0
0
0
0
0
0
0
0
0
0
0
0
0
0
0
0
0
0
0
0
0
0
0
0
0
0
0
0
0
0
0
0
0
0
0
0
0
0
0
0
0
0
0
0
0
0
0
0
0
0
0
0
0
0
0
0
0
0
0
0
0
0
0
0
0
0
0
0
0
0
0
0
0
0
0
0
0
0
0
0
0
0
0
0
0
0
0
0
0
0
0
0
0
0
0
0
0
0
0
0
0
0
0
0
0
0
0
0
0
0
0
0
0
0
0
0
0
0
0
0
0
0
0
0
0
0
0
0
0
0
0
0
0
0
0
0
0
0
0
0
0
0
0
0
0
0
0
0
0
0
0
0
0
0
0
0
0
0
0
0
0
0
0
0
0
0
0
0
0
0
0
0
0
0
0
0
0
0
0
0
0
0
0
0
0
0
0
0
0
0
0
0
0
0
0
0
0
0
0
0
0
0
0
0
0
0
0
0
0
0
0
0
0
0
0
0
0
0
0
0
0
0
0
0
0
0
0
0
0
0
0
0
0
0
0
0
0
0
0
0
0
0
0
0
0
0
0
0
0
0
0
0
0
0
0
0
0
0
0
0
0
0.00318001
0.00423343
0.00707207
0.00778944
0.0134205
0.113752
0.266301
0.454744
0.275845
0.202618
0.129393
0.102337
0.0546204
0.0402025
0.0288896
0.0179857
0.00961118
0.00641104
0.00463008
0.00493052
3.67323e-08
9.87064e-08
3.56977e-07
2.99033e-07
0.000810883
0.308107
0.292684
0.343542
0.191841
0.214909
0.0718386
0.0455219
0.00317547
0.000420538
0.000302494
4.82302e-05
4.22443e-07
1.09007e-07
3.13457e-08
5.59019e-08
5.83686e-22
1.16152e-20
1.34119e-18
8.12068e-20
1.60081e-06
0.00257843
0.00259179
0.00535434
0.0042265
0.00200994
0.000518282
0.000332723
1.96581e-05
1.56522e-06
2.08372e-06
7.97006e-07
3.99253e-14
5.2014e-19
1.05933e-20
4.36658e-23
2.39836e-27
1.45846e-25
5.62733e-24
1.34475e-22
1.56089e-10
2.76644e-08
3.31595e-08
1.55462e-07
4.40902e-07
4.14443e-09
2.49785e-11
2.52085e-10
8.04758e-10
7.66607e-10
1.73734e-10
9.58381e-12
4.11884e-17
4.82032e-19
1.15874e-20
4.10693e-23
0
0
0
0
0
0
0
0
0
0
0
0
0
0
0
0
0
0
0
0
0
0
0
0
0
0
0
0
0
0
0
0
0
0
0
0
0
0
0
0
0
0
0
0
0
0
0
0
0
0
0
0
0
0
0
0
0
0
0
0
0
0
0
0
0
0
0
0
0
0
0
0
0
0
0
0
0
0
0
0
0
0
0
0
0
0
0
0
0
0
0
0
0
0
0
0
0
0
0
0
0
0
0
0
0
0
0
0
0
0
0
0
0
0
0
0
0
0
0
0
0
0
0
0
0
0
0
0
0
0
0
0
0
0
0
0
0
0
0
0
0
0
0
0
0
0
0
0
0
0
0
0
0
0
0
0
0
0
0
0
0
0
0
0
0
0
0
0
0
0
0
0
0
0
0
0
0
0
0
0
0
0
0
0
0
0
0
0
0
0
0
0
0
0
0
0
0
0
0
0
0
0
0
0
0
0
0
0
0
0
0
0
0
0
0
0
0
0
0
0
0
0
0
0
0
0
0
0
0
0
0
0
0
0
0
0
0
0
0
0
0
0
0
0
0
0
0
0
0
0
0
0
0
0
0
0
0
0
0
0
0
0
0
0
0
0
0
0
0
0
0
0
0
0
0
0
0
0
0
0
0
0
0
0
0
0
0
0
0
0
0
0
0
0
0
0
0
0
0
0
0
0
0
0
0
0
0
0
0
0
0
0
0
0
0
0
0
0
0
0
0.00318495
0.00430995
0.00724709
0.00787056
0.0136502
0.112134
0.268788
0.457182
0.262206
0.202442
0.129837
0.103161
0.0555545
0.0409419
0.0294151
0.0183324
0.00968644
0.00642164
0.00466227
0.00491355
3.52442e-08
9.79743e-08
3.73593e-07
2.93809e-07
0.00089098
0.30981
0.294581
0.347957
0.195486
0.220504
0.0747875
0.0475874
0.00332951
0.000446462
0.000327073
5.43549e-05
4.26549e-07
1.03111e-07
2.8032e-08
5.31663e-08
7.39472e-22
1.57542e-20
5.69261e-18
2.35273e-19
1.76479e-06
0.00236763
0.00257009
0.00549925
0.00461928
0.00196058
0.000535494
0.000350346
2.18428e-05
1.80993e-06
2.43975e-06
9.73025e-07
5.64676e-14
1.73656e-18
1.86781e-20
6.20654e-23
8.04389e-28
4.57753e-26
1.68923e-24
6.45652e-23
9.86948e-11
2.0339e-08
3.10736e-08
1.49546e-07
4.67325e-07
3.65638e-09
2.31445e-11
2.92587e-10
9.54557e-10
9.0852e-10
2.03592e-10
1.0758e-11
6.00921e-17
7.27356e-19
1.72145e-20
5.28991e-23
0
0
0
0
0
0
0
0
0
0
0
0
0
0
0
0
0
0
0
0
0
0
0
0
0
0
0
0
0
0
0
0
0
0
0
0
0
0
0
0
0
0
0
0
0
0
0
0
0
0
0
0
0
0
0
0
0
0
0
0
0
0
0
0
0
0
0
0
0
0
0
0
0
0
0
0
0
0
0
0
0
0
0
0
0
0
0
0
0
0
0
0
0
0
0
0
0
0
0
0
0
0
0
0
0
0
0
0
0
0
0
0
0
0
0
0
0
0
0
0
0
0
0
0
0
0
0
0
0
0
0
0
0
0
0
0
0
0
0
0
0
0
0
0
0
0
0
0
0
0
0
0
0
0
0
0
0
0
0
0
0
0
0
0
0
0
0
0
0
0
0
0
0
0
0
0
0
0
0
0
0
0
0
0
0
0
0
0
0
0
0
0
0
0
0
0
0
0
0
0
0
0
0
0
0
0
0
0
0
0
0
0
0
0
0
0
0
0
0
0
0
0
0
0
0
0
0
0
0
0
0
0
0
0
0
0
0
0
0
0
0
0
0
0
0
0
0
0
0
0
0
0
0
0
0
0
0
0
0
0
0
0
0
0
0
0
0
0
0
0
0
0
0
0
0
0
0
0
0
0
0
0
0
0
0
0
0
0
0
0
0
0
0
0
0
0
0
0
0
0
0
0
0
0
0
0
0
0
0
0
0
0
0
0
0
0
0
0
0
0
0.00319097
0.00438801
0.00743078
0.00795372
0.0138938
0.110279
0.271227
0.459724
0.280975
0.201966
0.130262
0.103794
0.056479
0.0416882
0.0299461
0.0186775
0.00977449
0.00643557
0.00469922
0.00490101
3.28908e-08
9.66018e-08
3.89583e-07
2.86275e-07
0.000975307
0.311352
0.296304
0.352007
0.198677
0.225806
0.0775894
0.0495237
0.00347385
0.000471077
0.000350301
6.00328e-05
4.326e-07
9.61354e-08
2.52717e-08
4.93739e-08
9.3538e-22
2.15568e-20
2.30386e-17
8.53691e-19
1.9466e-06
0.00217717
0.00253756
0.0056421
0.00503836
0.00188896
0.000548359
0.000366182
2.41568e-05
2.07671e-06
2.82369e-06
1.16758e-06
8.04284e-14
1.8295e-17
5.55068e-20
9.80122e-23
2.25672e-28
1.2053e-26
4.23253e-25
2.33135e-23
6.6979e-11
1.43558e-08
2.84642e-08
1.43487e-07
4.85413e-07
3.07867e-09
2.1942e-11
3.37982e-10
1.12003e-09
1.06202e-09
2.35231e-10
1.20178e-11
8.85539e-17
1.10001e-18
2.43706e-20
6.49677e-23
0
0
0
0
0
0
0
0
0
0
0
0
0
0
0
0
0
0
0
0
0
0
0
0
0
0
0
0
0
0
0
0
0
0
0
0
0
0
0
0
0
0
0
0
0
0
0
0
0
0
0
0
0
0
0
0
0
0
0
0
0
0
0
0
0
0
0
0
0
0
0
0
0
0
0
0
0
0
0
0
0
0
0
0
0
0
0
0
0
0
0
0
0
0
0
0
0
0
0
0
0
0
0
0
0
0
0
0
0
0
0
0
0
0
0
0
0
0
0
0
0
0
0
0
0
0
0
0
0
0
0
0
0
0
0
0
0
0
0
0
0
0
0
0
0
0
0
0
0
0
0
0
0
0
0
0
0
0
0
0
0
0
0
0
0
0
0
0
0
0
0
0
0
0
0
0
0
0
0
0
0
0
0
0
0
0
0
0
0
0
0
0
0
0
0
0
0
0
0
0
0
0
0
0
0
0
0
0
0
0
0
0
0
0
0
0
0
0
0
0
0
0
0
0
0
0
0
0
0
0
0
0
0
0
0
0
0
0
0
0
0
0
0
0
0
0
0
0
0
0
0
0
0
0
0
0
0
0
0
0
0
0
0
0
0
0
0
0
0
0
0
0
0
0
0
0
0
0
0
0
0
0
0
0
0
0
0
0
0
0
0
0
0
0
0
0
0
0
0
0
0
0
0
0
0
0
0
0
0
0
0
0
0
0
0
0
0
0
0
0
0.00319749
0.00446788
0.00762227
0.00803846
0.0141524
0.108103
0.273555
0.461767
0.407297
0.201906
0.130769
0.104204
0.0573873
0.0424414
0.0304819
0.0190226
0.0098778
0.00645294
0.00474099
0.00489093
2.98036e-08
9.46589e-08
4.06025e-07
2.77102e-07
0.00107638
0.312746
0.297848
0.355678
0.202264
0.230754
0.0802148
0.0513128
0.00360737
0.000493987
0.000371685
6.515e-05
4.42362e-07
8.87446e-08
2.33567e-08
4.4811e-08
1.1802e-21
2.98812e-20
8.30349e-17
4.44651e-18
2.15017e-06
0.00201298
0.00248988
0.00578209
0.00547893
0.00179601
0.000556375
0.000379936
2.65886e-05
2.3628e-06
3.22825e-06
1.37724e-06
1.15679e-13
6.06624e-17
1.61518e-19
1.66721e-22
5.05288e-29
2.57209e-27
8.59198e-26
7.3248e-24
4.22872e-11
9.61862e-09
2.50903e-08
1.36134e-07
4.9377e-07
2.45933e-09
2.14975e-11
3.87809e-10
1.2983e-09
1.22364e-09
2.6804e-10
1.32725e-11
1.32185e-16
1.67217e-18
3.28812e-20
7.04837e-23
0
0
0
0
0
0
0
0
0
0
0
0
0
0
0
0
0
0
0
0
0
0
0
0
0
0
0
0
0
0
0
0
0
0
0
0
0
0
0
0
0
0
0
0
0
0
0
0
0
0
0
0
0
0
0
0
0
0
0
0
0
0
0
0
0
0
0
0
0
0
0
0
0
0
0
0
0
0
0
0
0
0
0
0
0
0
0
0
0
0
0
0
0
0
0
0
0
0
0
0
0
0
0
0
0
0
0
0
0
0
0
0
0
0
0
0
0
0
0
0
0
0
0
0
0
0
0
0
0
0
0
0
0
0
0
0
0
0
0
0
0
0
0
0
0
0
0
0
0
0
0
0
0
0
0
0
0
0
0
0
0
0
0
0
0
0
0
0
0
0
0
0
0
0
0
0
0
0
0
0
0
0
0
0
0
0
0
0
0
0
0
0
0
0
0
0
0
0
0
0
0
0
0
0
0
0
0
0
0
0
0
0
0
0
0
0
0
0
0
0
0
0
0
0
0
0
0
0
0
0
0
0
0
0
0
0
0
0
0
0
0
0
0
0
0
0
0
0
0
0
0
0
0
0
0
0
0
0
0
0
0
0
0
0
0
0
0
0
0
0
0
0
0
0
0
0
0
0
0
0
0
0
0
0
0
0
0
0
0
0
0
0
0
0
0
0
0
0
0
0
0
0
0
0
0
0
0
0
0
0
0
0
0
0
0
0
0
0
0
0
0.00320464
0.00455042
0.00782203
0.00812523
0.0144274
0.105618
0.275915
0.462369
0.642373
0.205131
0.131657
0.104403
0.0582806
0.0431963
0.0310215
0.0193698
0.00999806
0.00647466
0.00478915
0.00488778
2.61261e-08
9.25688e-08
4.21622e-07
2.66161e-07
0.00121405
0.313994
0.299206
0.358934
0.207351
0.235279
0.0826317
0.0529373
0.00372911
0.00051494
0.000390885
6.96291e-05
4.58654e-07
8.14727e-08
2.24967e-08
3.98605e-08
1.48254e-21
4.22081e-20
2.54557e-16
4.46238e-17
2.3759e-06
0.00186613
0.00242912
0.00591599
0.00595563
0.00168206
0.000559605
0.000391292
2.91122e-05
2.66226e-06
3.64227e-06
1.59649e-06
1.68523e-13
1.45548e-16
4.08868e-19
2.36147e-22
8.58291e-30
4.30961e-28
1.3788e-26
2.10198e-24
2.18749e-11
5.71768e-09
2.08619e-08
1.27392e-07
4.8729e-07
1.84592e-09
2.17365e-11
4.4108e-10
1.48459e-09
1.38858e-09
3.01131e-10
1.4394e-11
2.0009e-16
2.53682e-18
4.23788e-20
6.36822e-23
0
0
0
0
0
0
0
0
0
0
0
0
0
0
0
0
0
0
0
0
0
0
0
0
0
0
0
0
0
0
0
0
0
0
0
0
0
0
0
0
0
0
0
0
0
0
0
0
0
0
0
0
0
0
0
0
0
0
0
0
0
0
0
0
0
0
0
0
0
0
0
0
0
0
0
0
0
0
0
0
0
0
0
0
0
0
0
0
0
0
0
0
0
0
0
0
0
0
0
0
0
0
0
0
0
0
0
0
0
0
0
0
0
0
0
0
0
0
0
0
0
0
0
0
0
0
0
0
0
0
0
0
0
0
0
0
0
0
0
0
0
0
0
0
0
0
0
0
0
0
0
0
0
0
0
0
0
0
0
0
0
0
0
0
0
0
0
0
0
0
0
0
0
0
0
0
0
0
0
0
0
0
0
0
0
0
0
0
0
0
0
0
0
0
0
0
0
0
0
0
0
0
0
0
0
0
0
0
0
0
0
0
0
0
0
0
0
0
0
0
0
0
0
0
0
0
0
0
0
0
0
0
0
0
0
0
0
0
0
0
0
0
0
0
0
0
0
0
0
0
0
0
0
0
0
0
0
0
0
0
0
0
0
0
0
0
0
0
0
0
0
0
0
0
0
0
0
0
0
0
0
0
0
0
0
0
0
0
0
0
0
0
0
0
0
0
0
0
0
0
0
0
0
0
0
0
0
0
0
0
0
0
0
0
0
0
0
0
0
0
0.00321193
0.00463538
0.00802901
0.008212
0.0147182
0.102751
0.278251
0.459852
0.744317