/*--------------------------------*- C++ -*----------------------------------*\
| =========                 |                                                 |
| \\      /  F ield         | OpenFOAM: The Open Source CFD Toolbox           |
|  \\    /   O peration     | Version:  2.3.0                                 |
|   \\  /    A nd           | Web:      www.OpenFOAM.org                      |
|    \\/     M anipulation  |                                                 |
\*---------------------------------------------------------------------------*/
FoamFile
{
    version     2.0;
    format      ascii;
    class       volScalarField;
    location    "0.500023";
    object      km;
}
// * * * * * * * * * * * * * * * * * * * * * * * * * * * * * * * * * * * * * //

dimensions      [0 2 -2 0 0 0 0];

internalField   nonuniform List<scalar> 
10000
(
0.171419
0.14666
0.0879775
0.0592426
0.0224583
0.012114
0.00264005
0.000214283
0.00138666
0.00436437
0.00516908
0.00617453
0.00709589
0.00966792
0.0145476
0.0222439
0.0320607
0.0389486
0.0463714
0.0606121
0.115411
0.0665349
0.0719796
0.0197298
0.0034018
0.000564605
0.000174904
0.000155946
0.000462328
0.000483921
0.000578582
0.000763332
0.00106836
0.00182307
0.00353594
0.005122
0.009707
0.0125566
0.0192985
0.0474103
0.195419
0.0516439
0.228707
0.0256798
0.00277117
0.00335871
0.00077174
0.00111532
0.00191624
0.00209343
0.00219698
0.00247194
0.00293317
0.00338364
0.00352744
0.00457106
0.0163437
0.0133345
0.0210062
0.0970153
0.351624
0.0373134
0.0689578
0.00874513
0.00296598
0.000810392
0.00159072
0.0030299
0.00383533
0.00438338
0.00476777
0.00512406
0.00537629
0.00538269
0.00494582
0.00473765
0.048193
0.0442489
0.0305222
0.165141
0.786668
0.0613931
0.0503846
0.0175651
0.00404493
0.00279501
0.004763
0.00611296
0.0068478
0.0073377
0.00766932
0.00781856
0.00761011
0.00681336
0.00562364
0.00531575
0.0232275
0.219908
0.0404645
0.309992
1.14858
0.153372
0.0537332
0.0184607
0.00496609
0.00500309
0.00721601
0.00870916
0.0097261
0.0103185
0.0105273
0.0104688
0.00987714
0.00856925
0.00684866
0.0067324
0.0901972
0.0913595
0.0455047
0.590446
0.115816
0.203043
0.046819
0.0193124
0.00641918
0.00750585
0.0104945
0.0122621
0.0134802
0.0140675
0.0141749
0.0140329
0.0132489
0.0116123
0.00932343
0.00754543
0.0904938
0.0220011
0.0900058
1.71066
0.0969393
0.203969
0.0239459
0.048042
0.0083066
0.0108451
0.0152796
0.017541
0.0192079
0.0199468
0.0199826
0.0198925
0.0189763
0.016965
0.0132814
0.00701878
0.0787902
0.0195647
0.472183
1.28805
0.379701
0.136135
0.0185147
0.156553
0.0104389
0.0166118
0.0232051
0.0249163
0.0274199
0.028303
0.0278786
0.0283448
0.0274883
0.0254795
0.0187422
0.00245179
0.083837
0.0487973
0.679561
0.697245
2.02013
0.0488893
0.0236426
0.0367036
0.00782237
0.00949175
0.0130498
0.0122987
0.0150756
0.0154843
0.0137205
0.0157271
0.0157111
0.0149114
0.0134497
0.00830952
0.0482149
0.164062
0.518341
2.20113
2.42252
0.038285
0.0300999
0.0386903
0.0116724
0.0106628
0.0114028
0.0112909
0.0124524
0.0127369
0.0122228
0.0132876
0.0136436
0.013492
0.0132553
0.0182594
0.11447
0.465799
0.935664
0.896718
2.59604
0.0989628
0.0301336
0.056023
0.011395
0.0105312
0.0128698
0.0119478
0.0147785
0.0151504
0.013113
0.0162387
0.0172376
0.0174052
0.0175961
0.0404707
0.340106
0.878369
1.59929
1.31367
2.5869
0.220401
0.0253345
0.14539
0.0197747
0.0108565
0.0132266
0.0117049
0.0140541
0.0142928
0.012634
0.0150277
0.0158626
0.0164806
0.0211846
0.121255
0.687517
1.26685
2.69139
1.5619
2.31968
0.0230308
0.0225663
0.376739
0.0328165
0.0112495
0.01345
0.0118835
0.0138035
0.0140479
0.0128346
0.014891
0.0159591
0.0187331
0.0378667
0.316974
1.09624
1.57853
3.25801
1.62799
2.24247
0.0202762
0.0186569
0.529194
0.0337861
0.0111948
0.013458
0.0121007
0.01478
0.0152016
0.0127455
0.0146441
0.0158236
0.0225214
0.109616
0.533969
1.82557
2.11792
1.71402
1.71965
1.7063
0.0121008
0.00806291
0.0484625
0.0232731
0.0126997
0.0138786
0.00894174
0.0147794
0.0150366
0.0145327
0.0161083
0.0180207
0.0388685
0.237854
0.332239
0.989422
3.29943
1.96194
1.92377
0.983153
0.00494876
0.0073242
0.0187691
0.0202396
0.012296
0.0136396
0.0136092
0.0150215
0.015175
0.0141713
0.0162184
0.0213994
0.0856082
0.347035
0.76203
1.42661
2.61817
3.59944
3.78254
0.481617
0.00208257
0.00436384
0.005339
0.0193187
0.0112776
0.0131752
0.0126939
0.0135209
0.0135368
0.012822
0.0141196
0.0236018
0.142215
0.431409
0.81305
1.58444
1.45301
2.00961
1.6176
0.222893
0.000489396
0.000730899
0.000793804
0.0211376
0.00997169
0.0105802
0.0120381
0.0109479
0.0109341
0.0113851
0.0118013
0.0303007
0.177403
0.451351
0.813687
1.85212
1.94552
0.759037
0.334929
0.0116283
4.60917e-05
7.72728e-05
0.000157863
0.0130645
0.00833155
0.00873701
0.0106266
0.00984445
0.0098056
0.0103027
0.0121641
0.0331424
0.178378
0.425654
0.664657
1.0488
0.364518
0.059381
0.0177576
0.17401
0.148153
0.0888563
0.0607582
0.022956
0.0119978
0.00247196
0.00017882
0.00130317
0.00432425
0.00513859
0.00617369
0.00710517
0.00968873
0.0145968
0.0224649
0.032733
0.0396213
0.0471616
0.0615014
0.114384
0.0644391
0.0632184
0.0201911
0.00359955
0.000497605
0.000158935
0.000135507
0.000437171
0.000413698
0.000498876
0.000675424
0.000975968
0.00173008
0.00345856
0.00512421
0.00988059
0.0126191
0.0193552
0.0468767
0.19176
0.049636
0.1513
0.0311143
0.00293264
0.00337823
0.000728235
0.00105227
0.00186369
0.00203671
0.00213029
0.00240218
0.00286404
0.00331456
0.00345037
0.00452941
0.0152198
0.0125176
0.0211929
0.0961571
0.337717
0.0356756
0.0648711
0.0170617
0.00299832
0.00068824
0.00149195
0.00295399
0.00376232
0.0043074
0.00469019
0.00504696
0.00530102
0.00531099
0.00487375
0.00464538
0.0292899
0.0251997
0.030715
0.163807
0.724065
0.059665
0.0503595
0.0192157
0.00400295
0.0026524
0.00468473
0.00604278
0.00677616
0.00726618
0.00759961
0.00775095
0.00754527
0.00674951
0.00554811
0.00527469
0.0196552
0.0948785
0.0396422
0.304738
1.02238
0.146375
0.0541655
0.0187469
0.00486878
0.00486406
0.00712596
0.00862953
0.00964899
0.010243
0.0104526
0.0103941
0.00980007
0.00848385
0.00674495
0.00662095
0.0558404
0.0709873
0.0442031
0.55028
0.108717
0.197179
0.0485935
0.0193023
0.00630662
0.00736698
0.0103871
0.012166
0.0133899
0.013979
0.0140862
0.0139425
0.0131533
0.011504
0.00920869
0.00773735
0.062102
0.0287155
0.0776759
1.25967
0.0951007
0.197548
0.02679
0.0343019
0.00832037
0.0106797
0.0151286
0.0174204
0.0190933
0.0198352
0.0198731
0.0197775
0.0188521
0.0168201
0.0131632
0.00764972
0.0582104
0.0249949
0.290827
0.914869
0.315522
0.128162
0.02059
0.0852894
0.00986249
0.0149253
0.0215509
0.023628
0.0261081
0.0270213
0.0266828
0.0270476
0.0261251
0.0239293
0.0175133
0.00543169
0.0592103
0.0503685
0.492806
0.659908
1.35332
0.0399625
0.025019
0.03632
0.00834777
0.00953385
0.0129636
0.0124395
0.0150695
0.0154924
0.0138949
0.0157518
0.0157381
0.0149192
0.0133362
0.00861448
0.0473334
0.165012
0.516958
1.70324
1.68549
0.0257484
0.0303911
0.0388071
0.0121622
0.010497
0.0114172
0.011336
0.0125345
0.012828
0.0123075
0.0133923
0.0137566
0.0135983
0.0133068
0.0183862
0.114606
0.465958
0.933735
0.896038
1.79182
0.0377089
0.0303994
0.05546
0.0117788
0.0103945
0.0128954
0.0120135
0.0147954
0.0151669
0.0132101
0.0162547
0.017253
0.0174225
0.0176153
0.0404901
0.339827
0.878194
1.58776
1.31353
1.76915
0.0635714
0.0253248
0.14141
0.0174553
0.0107245
0.0131492
0.0117782
0.0140623
0.0143111
0.0127323
0.0150653
0.0159089
0.0165281
0.0211782
0.120652
0.686511
1.26442
2.62051
1.56142
1.55197
0.0162196
0.0206581
0.363983
0.0300362
0.0111874
0.0133683
0.0119585
0.0137997
0.0140551
0.0129331
0.0149163
0.0159948
0.0187453
0.038749
0.318239
1.09093
1.57261
2.72785
1.62701
1.46512
0.0140895
0.0163178
0.498808
0.0310511
0.0112343
0.0133937
0.0121857
0.0147939
0.0152158
0.0128611
0.0146724
0.0158323
0.0224975
0.110441
0.535492
1.69374
2.09526
1.70945
1.7185
1.10646
0.00792807
0.00826152
0.0477714
0.0227592
0.0127402
0.0139032
0.0117515
0.0147965
0.0150489
0.0145436
0.0161197
0.0180274
0.0392831
0.239729
0.447861
0.995957
2.92725
1.9381
1.9027
0.620537
0.00327574
0.00753829
0.0198665
0.0199537
0.0123416
0.0136634
0.0136266
0.0150369
0.0151899
0.0141829
0.016231
0.0213916
0.0863724
0.348568
0.762672
1.42272
2.2773
3.0635
3.2251
0.294189
0.00138332
0.00464316
0.00704451
0.0191179
0.0113384
0.0130298
0.0127101
0.0134896
0.0135122
0.0128376
0.014112
0.0237967
0.143261
0.433108
0.815428
1.57035
1.2435
1.68185
1.40072
0.143431
0.000345241
0.000809112
0.00103686
0.021247
0.01006
0.010552
0.0120558
0.0109963
0.0109846
0.0114044
0.0118981
0.030879
0.178749
0.453236
0.816179
1.74854
1.7258
0.671903
0.329047
0.00765938
4.41861e-05
7.82672e-05
0.000156462
0.0132998
0.00809868
0.0087959
0.0106528
0.00987659
0.00983631
0.0103543
0.0121913
0.0332221
0.179665
0.427435
0.667037
0.985245
0.306597
0.0532187
0.0264624
0.173659
0.145632
0.0888858
0.0613893
0.0231279
0.0117904
0.00237429
0.000166581
0.00126536
0.00421682
0.0050155
0.00606689
0.00698266
0.00952479
0.0143751
0.0223458
0.0329454
0.0395721
0.0470055
0.0617156
0.112197
0.0607676
0.0539715
0.0198241
0.00368693
0.000469699
0.00015233
0.000126882
0.0004261
0.000377477
0.000447605
0.000604957
0.000869388
0.00156512
0.00327598
0.00505595
0.0101245
0.0127987
0.0193858
0.0460898
0.185014
0.0463876
0.105447
0.0303558
0.00301112
0.00333242
0.000674966
0.000953137
0.00173883
0.0019142
0.00199708
0.002264
0.00272695
0.00318072
0.003306
0.00443246
0.0142858
0.0123946
0.0215099
0.0943533
0.313783
0.0329207
0.0587932
0.0210173
0.00301125
0.000581551
0.0013459
0.00280847
0.00362779
0.0041681
0.00454728
0.00490428
0.0051613
0.00517745
0.0047378
0.0045194
0.0211004
0.0156538
0.031107
0.161159
0.622514
0.0549713
0.0503213
0.0205598
0.00391445
0.00241785
0.00453767
0.00591149
0.00664159
0.00713143
0.00746784
0.00762302
0.00742289
0.00663037
0.00540998
0.00518907
0.0171231
0.0417983
0.0387275
0.295271
0.821669
0.134753
0.0547779
0.0191204
0.00469615
0.00462152
0.00695769
0.00847658
0.00949843
0.0100948
0.0103062
0.0102482
0.00965115
0.00832308
0.00655705
0.00646722
0.0366668
0.0511625
0.0424856
0.496507
0.0981729
0.185669
0.0505767
0.0195011
0.00608917
0.00710959
0.0101757
0.011972
0.0132055
0.0137978
0.0139049
0.0137585
0.0129612
0.011292
0.00898818
0.0079501
0.0449382
0.031324
0.0658529
0.941653
0.0925475
0.185078
0.0300094
0.0281199
0.00826889
0.0103849
0.0148386
0.0171744
0.0188561
0.0196022
0.0196431
0.0195389
0.0185991
0.016536
0.0129272
0.0083221
0.0447901
0.0291776
0.179967
0.679933
0.26063
0.113171
0.0235609
0.0516725
0.00973383
0.0138389
0.0202839
0.0226046
0.0250408
0.0259714
0.0257048
0.0259835
0.025013
0.0226973
0.0166431
0.00711523
0.045501
0.0528002
0.383265
0.611342
0.92852
0.0308228
0.0267484
0.0358445
0.00934862
0.0096809
0.0129626
0.0125863
0.0151061
0.0155372
0.0140565
0.0158074
0.015796
0.0149695
0.0133296
0.00923602
0.0459904
0.166643
0.515625
1.36235
1.19655
0.0187486
0.0308946
0.0390131
0.012983
0.010471
0.0114618
0.0113964
0.0126141
0.0129129
0.0123903
0.0134861
0.0138559
0.013696
0.0133854
0.0186081
0.114836
0.466272
0.930078
0.895717
1.26131
0.0197093
0.0308091
0.0544447
0.0124758
0.0103861
0.0129431
0.0120818
0.0148266
0.0151972
0.0132961
0.016284
0.0172815
0.0174543
0.0176489
0.0405138
0.339279
0.877913
1.56613
1.31331
1.23151
0.0179832
0.0253267
0.134127
0.0164663
0.0107004
0.0131191
0.0118502
0.0140858
0.0143415
0.012818
0.0151092
0.0159584
0.0165767
0.0211485
0.12014
0.684568
1.26
2.50298
1.56075
1.05256
0.0113437
0.0182335
0.339752
0.0273687
0.0111971
0.013334
0.01203
0.0138115
0.0140742
0.0130183
0.014951
0.0160357
0.0187637
0.0394177
0.319068
1.08162
1.56266
2.33474
1.62651
0.971023
0.00972678
0.0140392
0.44353
0.0279799
0.0113064
0.0133689
0.0122619
0.0148195
0.015242
0.0129731
0.0147074
0.0158475
0.022436
0.1105
0.536502
1.58403
2.05574
1.70212
1.71633
0.728134
0.00510472
0.00860007
0.0468343
0.022607
0.0128117
0.0139443
0.0129846
0.0148236
0.0150715
0.0145624
0.0161408
0.0180368
0.0393738
0.241142
0.527999
1.04704
2.61942
1.90082
1.87067
0.402393
0.00213838
0.00790878
0.021622
0.0199427
0.0124215
0.0137072
0.0136536
0.0150654
0.0152174
0.0142032
0.0162539
0.0213663
0.0866697
0.349595
0.763746
1.416
2.00698
2.63727
2.78127
0.20244
0.000944382
0.0051392
0.00984133
0.0191082
0.0114448
0.0129609
0.0127388
0.0134893
0.0135165
0.0128649
0.0141271
0.0239117
0.143848
0.434362
0.817303
1.54566
1.15876
1.42464
1.22062
0.110851
0.000244679
0.00096517
0.0017576
0.0214327
0.0102158
0.0105775
0.0120867
0.0110556
0.0110456
0.011438
0.0119923
0.0313293
0.179753
0.454646
0.817706
1.65942
1.54463
0.592556
0.311268
0.00470384
4.00544e-05
8.05252e-05
0.000154376
0.0137026
0.00808878
0.0088996
0.0106986
0.00993289
0.00989016
0.0104173
0.0122389
0.0333515
0.180639
0.428777
0.668691
0.931593
0.259735
0.0430604
0.0266038
0.172991
0.14302
0.0890463
0.0618558
0.0232642
0.0116213
0.00224846
0.00014271
0.00121581
0.00413878
0.0049125
0.00597924
0.00686797
0.00934016
0.0140909
0.0221211
0.033092
0.0395525
0.0470308
0.0619142
0.109066
0.0562778
0.0460694
0.0191412
0.00373984
0.000419096
0.000141701
0.000114302
0.00041452
0.000328392
0.000390526
0.000538018
0.000778445
0.0013906
0.00300451
0.00491023
0.0103846
0.0130829
0.0194596
0.0451129
0.176007
0.042722
0.0766664
0.0271351
0.00306568
0.00327411
0.000639036
0.000870147
0.00158446
0.00175988
0.00182984
0.00208422
0.00253913
0.00299135
0.00310317
0.00427297
0.0135095
0.0126993
0.0219831
0.0917077
0.28462
0.0302698
0.0528947
0.0224955
0.00300874
0.000483732
0.00119856
0.00261452
0.00344301
0.00397409
0.0043467
0.00470284
0.00496299
0.00498621
0.0045389
0.00435266
0.0174478
0.0139564
0.0317312
0.157301
0.506552
0.0487888
0.050304
0.0211195
0.00377457
0.0021287
0.00433031
0.00572507
0.00645054
0.00694034
0.00728061
0.0074411
0.00724904
0.00646199
0.00521612
0.00505854
0.0158549
0.0242794
0.0380771
0.282593
0.60608
0.119734
0.0553976
0.019444
0.00445761
0.00429722
0.00672319
0.00826024
0.0092834
0.0098824
0.0100964
0.0100393
0.0094397
0.0080988
0.00630168
0.0062896
0.0260631
0.0363493
0.0412186
0.440145
0.0872586
0.168957
0.052371
0.0198378
0.00577861
0.0067614
0.00987719
0.0116923
0.0129372
0.0135335
0.0136405
0.0134909
0.0126842
0.0109921
0.00868191
0.00805089
0.0347332
0.0320201
0.0588669
0.71455
0.0897227
0.167183
0.0330313
0.0253671
0.00816222
0.0100109
0.0144444
0.016825
0.0185146
0.0192643
0.019308
0.0191939
0.0182376
0.0161413
0.0126051
0.0089165
0.0362393
0.0320186
0.129419
0.526304
0.222446
0.0930617
0.0264542
0.0377361
0.00998995
0.0131845
0.0193329
0.0218033
0.0241823
0.0251196
0.0249112
0.0251178
0.024113
0.0217284
0.0160614
0.00847742
0.0374582
0.0555317
0.319097
0.562885
0.655334
0.0223308
0.0284171
0.0355541
0.0104375
0.00987868
0.0130214
0.0127221
0.0151707
0.0156048
0.0141934
0.0158808
0.0158716
0.0150463
0.0133951
0.00993544
0.044757
0.168817
0.513829
1.13197
0.86676
0.0143479
0.0315367
0.039278
0.0138922
0.0105298
0.0115199
0.0114589
0.012683
0.0129842
0.0124618
0.0135621
0.0139353
0.0137771
0.0134708
0.0188715
0.115096
0.466752
0.925071
0.896363
0.906423
0.0144133
0.0312939
0.0531344
0.0133029
0.0104528
0.0130048
0.0121433
0.0148669
0.0152364
0.013365
0.0163219
0.0173184
0.0174951
0.017687
0.0405203
0.338473
0.877657
1.53777
1.31315
0.871886
0.0113125
0.0253326
0.12474
0.0163317
0.0107457
0.0131247
0.0119128
0.0141188
0.0143785
0.0128857
0.0151545
0.0160065
0.0166216
0.0210715
0.119651
0.681804
1.25427
2.36193
1.56033
0.724099
0.00796415
0.0164577
0.306149
0.0253787
0.0112516
0.013336
0.0120907
0.0138334
0.0141006
0.0130848
0.0149901
0.0160774
0.0187808
0.0395866
0.319542
1.06944
1.55008
2.06082
1.6274
0.653346
0.00654893
0.0125954
0.371892
0.0256989
0.0113922
0.0133737
0.0123229
0.0148525
0.0152757
0.0130657
0.0147442
0.0158651
0.0223234
0.109805
0.537193
1.49332
2.00468
1.69331
1.71333
0.488742
0.00322906
0.00906411
0.0460143
0.0226964
0.0128939
0.0139945
0.0134762
0.0148557
0.0151001
0.0145838
0.0161675
0.0180435
0.039113
0.241871
0.581094
1.10164
2.36837
1.85716
1.83436
0.270467
0.00133697
0.00840772
0.0236833
0.0200929
0.0125131
0.0137633
0.0136826
0.0151023
0.015253
0.0142263
0.0162828
0.021312
0.0865091
0.35012
0.76503
1.40739
1.79962
2.29742
2.427
0.157579
0.000610336
0.00579316
0.0129805
0.0192128
0.0115664
0.0129498
0.0127719
0.0135109
0.0135408
0.0128962
0.0141547
0.0238931
0.143982
0.435176
0.818806
1.51439
1.12733
1.22636
1.07691
0.0907519
0.000158676
0.00120906
0.00313741
0.0216378
0.0103947
0.0106325
0.0121222
0.0111146
0.0111056
0.0114765
0.0120735
0.0316476
0.180421
0.455584
0.818536
1.58369
1.3974
0.523624
0.287925
0.00104485
3.78813e-05
8.53968e-05
0.000169552
0.0141537
0.00821026
0.00901904
0.0107511
0.00999752
0.00995223
0.0104797
0.0122937
0.0334908
0.181296
0.429678
0.669736
0.887257
0.223637
0.0333242
0.0239021
0.172446
0.140807
0.0894812
0.0622887
0.0234011
0.0114278
0.00212294
0.000131142
0.0011763
0.00406363
0.00481962
0.00590857
0.00677499
0.00917568
0.0138141
0.0218922
0.0332587
0.0395802
0.0471652
0.0621083
0.105083
0.0517183
0.0401051
0.0185801
0.00375905
0.000393021
0.000135561
0.000107213
0.00040924
0.000292631
0.000343172
0.000476319
0.000689462
0.00122426
0.00266972
0.00469202
0.0106438
0.013401
0.0196014
0.0439104
0.165823
0.0394974
0.0578615
0.023679
0.00310364
0.00320587
0.000596226
0.000788047
0.00142271
0.00159283
0.00164788
0.00188186
0.00231644
0.00275657
0.00285001
0.00404692
0.0128914
0.0130962
0.0226824
0.0883226
0.255621
0.0289998
0.0481923
0.0225138
0.00297838
0.000395615
0.00105423
0.00239087
0.00321828
0.00373353
0.00409562
0.00444871
0.00471081
0.00474013
0.00427765
0.00413218
0.0156022
0.0137656
0.0326139
0.152368
0.392372
0.0424014
0.0503275
0.0210457
0.00358574
0.00181266
0.00407235
0.00548831
0.00620776
0.00669771
0.00704249
0.00720955
0.00702776
0.00624805
0.00497048
0.00487929
0.0151272
0.0185685
0.0378004
0.26746
0.418306
0.101876
0.0559253
0.0196485
0.00415367
0.00390665
0.00643163
0.00798877
0.00901164
0.00961319
0.0098305
0.00977501
0.00917363
0.00782049
0.00598975
0.00610278
0.0207972
0.0280362
0.0404729
0.385851
0.0772918
0.147764
0.0538849
0.0202287
0.00537187
0.00634007
0.00950614
0.0113383
0.0125952
0.0131955
0.0133024
0.0131494
0.0123329
0.0106181
0.00830381
0.00800846
0.0286178
0.0316024
0.0553288
0.551235
0.0871302
0.144735
0.0356904
0.0243925
0.00798746
0.00957627
0.0139713
0.0163912
0.0180868
0.0188388
0.0188845
0.01876
0.0177866
0.015659
0.0122141
0.00939563
0.0308195
0.0339112
0.11013
0.41811
0.193262
0.070457
0.0289048
0.0329004
0.010363
0.0128098
0.018622
0.0211758
0.0234922
0.0244288
0.0242659
0.024413
0.0233833
0.0209649
0.0156855
0.0097095
0.0326208
0.05825
0.281533
0.517953
0.480286
0.0154941
0.029941
0.0356563
0.0112532
0.0100414
0.0131056
0.0128156
0.0152408
0.0156746
0.0142817
0.0159526
0.0159451
0.0151257
0.013489
0.0105699
0.0438234
0.171397
0.511545
0.978176
0.640246
0.0115917
0.0322592
0.0395559
0.0145837
0.0106045
0.011567
0.0115038
0.0127278
0.0130295
0.0125077
0.013609
0.0139837
0.013828
0.0135343
0.0190845
0.115314
0.467415
0.91919
0.898357
0.663638
0.0111393
0.0318275
0.0516736
0.0139681
0.0105275
0.0130679
0.0121841
0.0149087
0.0152772
0.0134067
0.0163615
0.017357
0.0175372
0.0177146
0.040478
0.337425
0.877603
1.50601
1.31324
0.625159
0.00789469
0.0254191
0.113821
0.0165452
0.0108053
0.0131513
0.0119532
0.0141532
0.0144148
0.0129261
0.0151946
0.0160467
0.0166556
0.0209184
0.11912
0.678363
1.248
2.2172
1.56067
0.504667
0.00541463
0.0156571
0.266338
0.0243753
0.0113089
0.0133597
0.0121294
0.013858
0.0141272
0.0131241
0.0150268
0.0161133
0.0187876
0.039069
0.319781
1.05533
1.53592
1.87903
1.63023
0.447073
0.00424372
0.0120037
0.293552
0.0245175
0.0114591
0.0133956
0.01236
0.0148865
0.0153106
0.0131204
0.0147764
0.0158787
0.0221462
0.108359
0.537777
1.41865
1.94688
1.68394
1.7097
0.334479
0.00199508
0.00966674
0.0454535
0.0228521
0.0129559
0.0140442
0.0136462
0.0148866
0.0151285
0.0145997
0.0161944
0.0180407
0.0384645
0.241855
0.613331
1.14849
2.16651
1.81186
1.79806
0.186598
0.000791952
0.00902817
0.0257956
0.0202618
0.012582
0.0138197
0.0137039
0.0151401
0.0152897
0.0142437
0.0163111
0.0212162
0.0858973
0.350147
0.766379
1.39773
1.64527
2.02584
2.14319
0.120901
0.000374824
0.00655236
0.0160102
0.0193324
0.0116576
0.0129738
0.012797
0.0135425
0.0135735
0.0129198
0.0141821
0.0236811
0.143671
0.435551
0.820087
1.48029
1.11539
1.07398
0.962783
0.0443143
8.47641e-05
0.00154108
0.00497553
0.0217886
0.0105295
0.0106831
0.0121487
0.0111563
0.0111478
0.0115053
0.0121258
0.0318191
0.180755
0.456053
0.818876
1.52016
1.27819
0.463365
0.262476
0.000188506
4.2518e-05
9.53305e-05
0.000245483
0.0144864
0.00834741
0.00910957
0.0107906
0.0100464
0.00999957
0.0105235
0.0123352
0.0335901
0.181631
0.430134
0.670243
0.851273
0.195723
0.0253599
0.0192175
0.171947
0.139005
0.090037
0.0626496
0.0235224
0.0112222
0.00199498
0.000111204
0.00113282
0.00399057
0.00473157
0.00584826
0.00669635
0.00903013
0.0135508
0.0216604
0.0334189
0.0396392
0.0473517
0.0622444
0.100069
0.0477836
0.0362626
0.0182286
0.00374964
0.000347431
0.00012657
9.77824e-05
0.000407225
0.000255018
0.000298762
0.000422054
0.000610998
0.0010728
0.00229859
0.00440714
0.0109023
0.0137155
0.0198143
0.0424917
0.155505
0.037321
0.0463476
0.0210859
0.00313019
0.00313193
0.000560937
0.000714114
0.0012644
0.00142388
0.00146295
0.00167008
0.00207209
0.00248698
0.00255605
0.00375132
0.0124569
0.0134934
0.0237339
0.0843092
0.226118
0.0290187
0.0446287
0.0217525
0.00292486
0.000324627
0.000917422
0.00215146
0.00296291
0.00345491
0.00380174
0.00414836
0.00440962
0.00444242
0.00395564
0.00384622
0.014589
0.0139599
0.0336595
0.146547
0.294766
0.0368397
0.0503226
0.0205746
0.00335474
0.00149012
0.00377385
0.00520589
0.00591719
0.00640696
0.00675654
0.00693115
0.00676143
0.00599066
0.00467556
0.00463961
0.01473
0.0168559
0.037802
0.250418
0.274999
0.0819532
0.0563055
0.0197267
0.00378606
0.00346348
0.00608995
0.0076684
0.00868884
0.00929267
0.00951388
0.00946079
0.00885886
0.00749514
0.00562853
0.00587428
0.0183242
0.0233155
0.040149
0.335518
0.0698838
0.122899
0.0550967
0.0206224
0.00486552
0.00585612
0.00907278
0.0109183
0.0121868
0.012791
0.0128978
0.0127415
0.0119158
0.0101806
0.00786313
0.00784024
0.0249682
0.0305305
0.0535044
0.431026
0.0843048
0.119048
0.037983
0.024464
0.00771193
0.00907878
0.0134294
0.0158814
0.0175806
0.0183333
0.0183796
0.0182451
0.0172552
0.0150995
0.0117556
0.00971869
0.0274935
0.0351409
0.102957
0.338442
0.169204
0.0490468
0.0308913
0.0313623
0.010673
0.0125879
0.0180728
0.0206666
0.0229215
0.0238529
0.0237245
0.0238233
0.0227742
0.0203427
0.0154328
0.0107962
0.0298127
0.0608277
0.259735
0.475925
0.367989
0.0120271
0.031306
0.0359997
0.0102265
1.20804e-05
0.0131714
1.20804e-05
0.015288
0.0157199
1.20804e-05
0.0159975
0.0159906
0.015177
0.0135581
0.0109919
0.0432652
0.17424
0.508982
0.876462
0.481713
0.010215
0.0330196
0.0397905
0.0101564
1.20804e-05
1.20804e-05
1.20804e-05
1.20804e-05
1.20804e-05
1.20804e-05
1.20804e-05
1.20804e-05
1.20804e-05
1.20804e-05
0.0281456
0.115418
0.468281
0.912957
0.901986
0.494102
0.00913337
0.032404
0.0501613
0.0101912
1.20804e-05
0.0131154
1.20804e-05
0.0149423
0.0153104
1.20804e-05
0.0163942
0.0173888
0.0175702
0.0177125
0.0403427
0.336146
0.877961
1.47362
1.31385
0.451087
0.00527686
0.0256397
0.101431
0.0126219
1.20804e-05
0.0131802
1.20804e-05
0.0141788
0.0144406
1.20804e-05
0.0152205
0.0160703
0.0166692
0.0206561
0.118509
0.674405
1.24192
2.08261
1.56224
0.355687
0.00344307
0.0155347
0.224384
0.0169194
1.20804e-05
0.013387
1.20804e-05
0.0138758
0.0141452
1.20804e-05
0.0150519
0.0161347
0.018775
0.0377549
0.319883
1.04008
1.52061
1.76258
1.63534
0.310315
0.00255709
0.0120852
0.218314
0.0202556
1.20804e-05
0.0134187
1.20804e-05
0.0149128
0.0153387
1.20804e-05
0.0147953
0.0158803
0.0218905
0.106162
0.538496
1.35753
1.88688
1.67472
1.70558
0.229449
0.00133422
0.0104173
0.0451419
0.0274498
1.20804e-05
0.0140803
1.20804e-05
0.0149082
0.0151483
1.20804e-05
0.0162139
0.0180206
0.0373908
0.241125
0.628829
1.18569
2.00657
1.76812
1.76455
0.118745
0.000714327
0.00975858
0.0277719
0.0334135
1.20804e-05
0.0138603
1.20804e-05
0.0151694
0.015318
1.20804e-05
0.0163302
0.0210649
0.0848394
0.349672
0.767728
1.38788
1.53372
1.80837
1.91493
0.0493935
0.000518064
0.00735604
0.018673
0.0403506
1.20804e-05
0.0130058
1.20804e-05
0.013569
0.0136
1.20804e-05
0.0141935
0.0232188
0.142921
0.435485
0.821286
1.44629
1.10948
0.95753
0.872849
0.00545414
0.000197327
0.00193589
0.00697951
0.0438661
1.20804e-05
1.20804e-05
1.20804e-05
1.20804e-05
1.20804e-05
1.20804e-05
1.20804e-05
1.20804e-05
1.20804e-05
1.20804e-05
1.33245
1.46774
1.18207
0.41061
0.237114
0.00015681
5.45626e-05
0.000111489
0.000573749
0.0252029
1.69738e-05
1.69738e-05
1.69738e-05
1.69738e-05
1.69738e-05
1.69738e-05
1.69738e-05
1.69738e-05
1.69738e-05
1.69738e-05
0.979827
0.822768
0.174081
0.0194762
0.0147647
0.171557
0.137616
0.0905943
0.0629179
0.0236203
0.0109993
0.00185834
0.000101414
0.00109061
0.00391829
0.00464625
0.00579532
0.00662733
0.00889925
0.0133019
0.0214213
0.0335522
0.039705
0.0475507
0.0623094
0.0934103
0.0450298
0.0342543
0.0181347
0.00370252
0.000323959
0.000120943
9.22893e-05
0.000408432
0.000226127
0.000261818
0.000373676
0.000540625
0.000939247
0.00192001
0.00406139
0.0111629
0.0140051
0.0201065
0.0409183
0.146153
0.036642
0.0399104
0.0192342
0.0031497
0.00305325
0.000524734
0.000646608
0.00111605
0.00126022
0.00128327
0.00145919
0.00181837
0.00219418
0.00223146
0.00338478
0.0122163
0.0138548
0.0252178
0.0798131
0.19613
0.0302549
0.0423702
0.0206028
0.00284925
0.000269649
0.000791388
0.00190736
0.00268603
0.00314686
0.00347326
0.00380905
0.00406501
0.00409711
0.00357706
0.00348325
0.01403
0.014211
0.0347981
0.140095
0.224119
0.033083
0.0501331
0.0199333
0.00309203
0.00117863
0.00344519
0.00488266
0.00558251
0.00607094
0.00642505
0.00660776
0.00645148
0.00569093
0.00433313
0.00433671
0.0145558
0.016261
0.0380506
0.231857
0.174891
0.0615663
0.056493
0.0197026
0.00336192
0.00298097
0.00570403
0.00730418
0.00831952
0.00892529
0.00915103
0.00910114
0.00850017
0.00712817
0.00522325
0.00558574
0.0171895
0.0208681
0.040086
0.290074
0.0662835
0.0956661
0.0560063
0.0209777
0.00426167
0.00531737
0.00858515
0.0104393
0.0117185
0.0123262
0.0124326
0.0122735
0.0114397
0.0096883
0.00736695
0.00759443
0.0228092
0.0290995
0.0524839
0.340346
0.0810357
0.0913439
0.0399472
0.0248921
0.00724737
0.00851167
0.0128222
0.0152989
0.0169992
0.0177507
0.0177965
0.0176527
0.0166474
0.0144674
0.0112258
0.0098367
0.0255418
0.0359318
0.100365
0.278149
0.145844
0.0326436
0.0324828
0.031052
0.0107892
0.0123538
0.0175453
0.0201535
0.0223524
0.0232767
0.0231739
0.0232337
0.0221698
0.0197354
0.0151656
0.0116009
0.0283099
0.0632204
0.247298
0.436802
0.292812
0.0116599
0.0325061
0.0364395
0.0208898
1.20804e-05
1.20804e-05
1.20804e-05
1.20804e-05
1.20804e-05
1.20804e-05
1.20804e-05
1.20804e-05
1.20804e-05
1.20804e-05
0.0265909
0.0430373
0.177219
0.506436
0.809043
0.368257
0.0103675
0.0337827
0.0399652
0.0200328
1.20804e-05
1.20804e-05
1.20804e-05
1.20804e-05
1.20804e-05
1.20804e-05
1.20804e-05
1.20804e-05
1.20804e-05
1.20804e-05
0.0310578
0.115402
0.469378
0.906899
0.907321
0.372819
0.00774157
0.03301
0.0487075
0.0186308
1.20804e-05
1.20804e-05
1.20804e-05
1.20804e-05
1.20804e-05
1.20804e-05
1.20804e-05
1.20804e-05
1.20804e-05
1.20804e-05
0.0510523
0.334648
0.878971
1.44267
1.31525
0.324162
0.00371256
0.0259994
0.0889252
0.0191987
1.20804e-05
1.20804e-05
1.20804e-05
1.20804e-05
1.20804e-05
1.20804e-05
1.20804e-05
1.20804e-05
1.20804e-05
1.20804e-05
0.116164
0.670092
1.23672
1.96537
1.56551
0.25204
0.00220868
0.0158586
0.183812
0.0213287
1.20804e-05
1.20804e-05
1.20804e-05
1.20804e-05
1.20804e-05
1.20804e-05
1.20804e-05
1.20804e-05
1.20804e-05
1.20804e-05
0.288089
1.02433
1.50468
1.69026
1.64303
0.214986
0.00163917
0.0126052
0.155442
0.0246762
1.20804e-05
1.20804e-05
1.20804e-05
1.20804e-05
1.20804e-05
1.20804e-05
1.20804e-05
1.20804e-05
1.20804e-05
1.20804e-05
0.564139
1.30784
1.82826
1.66636
1.70109
0.147191
0.0012709
0.011299
0.0450317
0.0312902
1.20804e-05
1.20804e-05
1.20804e-05
1.20804e-05
1.20804e-05
1.20804e-05
1.20804e-05
1.20804e-05
1.20804e-05
1.20804e-05
0.901011
1.21447
1.88169
1.72854
1.73563
0.0490022
0.0011501
0.0105703
0.0294706
0.0366656
1.20804e-05
1.20804e-05
1.20804e-05
1.20804e-05
1.20804e-05
1.20804e-05
1.20804e-05
1.20804e-05
1.20804e-05
1.20804e-05
1.18442
1.37861
1.45576
1.63379
1.73049
0.00647478
0.00107445
0.00813958
0.0208064
0.0421898
1.20804e-05
1.20804e-05
1.20804e-05
1.20804e-05
1.20804e-05
1.20804e-05
1.20804e-05
1.20804e-05
1.20804e-05
1.20804e-05
1.2443
1.41442
1.10498
0.869078
0.802803
0.000477942
0.000307609
0.00233659
0.00860514
0.0439952
1.20804e-05
1.20804e-05
1.20804e-05
1.20804e-05
1.20804e-05
1.20804e-05
1.20804e-05
1.20804e-05
1.20804e-05
1.20804e-05
1.32447
1.42407
1.10494
0.364557
0.213281
0.00027887
5.9334e-05
0.000130001
0.000696588
0.0265123
1.69738e-05
1.69738e-05
1.69738e-05
1.69738e-05
1.69738e-05
1.69738e-05
1.69738e-05
1.69738e-05
1.69738e-05
1.69738e-05
0.975763
0.799622
0.157614
0.0153911
0.0111852
0.171419
0.136626
0.0910746
0.0630817
0.0236953
0.0107589
0.00172191
8.46157e-05
0.00104514
0.00384646
0.00456294
0.00574895
0.00656621
0.00878091
0.0130708
0.0211771
0.033652
0.0397691
0.0477509
0.0623271
0.0894368
0.0436518
0.0337783
0.0181247
0.00362194
0.000283199
0.000113457
8.52921e-05
0.000414679
0.000198095
0.000228688
0.000331581
0.00047972
0.000824939
0.0015647
0.00366189
0.0114254
0.0142603
0.0204889
0.0392717
0.139171
0.0374438
0.0363472
0.0180917
0.00316251
0.00297359
0.000491806
0.000586356
0.000981208
0.00110679
0.0011147
0.00125733
0.00156643
0.00189058
0.00188869
0.00294853
0.0121527
0.0141672
0.0270867
0.0750164
0.171902
0.0322069
0.0410669
0.0195066
0.00275121
0.000233145
0.000678105
0.00166737
0.00239675
0.00281806
0.00311869
0.00343856
0.00368365
0.00370941
0.0031494
0.00303504
0.0137318
0.0144331
0.0360641
0.133339
0.178407
0.0314044
0.049698
0.0192662
0.00280867
0.000895385
0.00309658
0.00452385
0.00520746
0.00569244
0.00605008
0.00624075
0.00609868
0.00534932
0.00394481
0.00396931
0.0145198
0.0159916
0.0385374
0.212051
0.115694
0.043781
0.0565131
0.0195899
0.00289706
0.00247311
0.00527933
0.00690031