/*--------------------------------*- C++ -*----------------------------------*\
| =========                 |                                                 |
| \\      /  F ield         | OpenFOAM: The Open Source CFD Toolbox           |
|  \\    /   O peration     | Version:  2.3.0                                 |
|   \\  /    A nd           | Web:      www.OpenFOAM.org                      |
|    \\/     M anipulation  |                                                 |
\*---------------------------------------------------------------------------*/
FoamFile
{
    version     2.0;
    format      ascii;
    class       surfaceScalarField;
    location    "0.500023";
    object      phi;
}
// * * * * * * * * * * * * * * * * * * * * * * * * * * * * * * * * * * * * * //

dimensions      [0 3 -1 0 0 0 0];

internalField   nonuniform List<scalar> 
23061
(
-1.50639e-08
-2.67731e-07
-2.25999e-06
2.63544e-08
-2.7374e-07
-1.88353e-06
3.09776e-08
-1.30608e-07
-1.29855e-06
2.799e-08
-1.02078e-07
-1.19087e-06
2.7369e-08
-6.30589e-08
-6.77825e-07
1.83819e-08
-2.63406e-08
-9.77804e-07
5.41993e-09
-1.99558e-08
-7.72061e-07
-1.44388e-09
-2.26228e-08
-6.51773e-07
-4.69418e-09
-2.90752e-08
-6.39657e-07
-4.36271e-09
-2.96052e-08
-5.11017e-07
-4.03971e-09
-3.07496e-08
-4.84602e-07
-4.94233e-09
-3.15659e-08
-4.94049e-07
-6.41612e-09
-3.38096e-08
-4.95894e-07
-8.90272e-09
-3.7661e-08
-4.95685e-07
-1.36311e-08
-4.3456e-08
-5.23505e-07
-1.84891e-08
-5.75716e-08
-6.01004e-07
-1.78741e-08
-7.95534e-08
-8.50225e-07
-9.79082e-09
-1.23677e-07
-1.21955e-06
1.44064e-08
-1.70329e-07
-1.45536e-06
-1.23324e-07
-1.3875e-06
-8.61016e-10
-3.01711e-07
-3.06953e-07
3.79909e-09
-3.08766e-07
-2.78146e-07
6.38264e-09
-1.04365e-07
-8.49826e-08
1.89676e-09
-5.92568e-08
-1.02369e-07
1.0913e-09
-6.30519e-08
-3.36827e-07
8.66517e-10
-2.17624e-08
-2.10257e-06
6.13861e-10
-2.12035e-08
-1.30439e-06
-2.08136e-10
-2.72107e-08
-9.57244e-07
2.9301e-10
-3.5081e-08
-8.03553e-07
2.22115e-10
-3.82414e-08
-5.61543e-07
-5.03677e-11
-3.8921e-08
-5.05987e-07
1.94672e-10
-4.00155e-08
-4.75227e-07
7.94612e-10
-4.21931e-08
-4.30378e-07
9.00159e-10
-4.53577e-08
-3.6648e-07
-1.42242e-10
-4.92211e-08
-3.18484e-07
-2.01945e-10
-6.16609e-08
-2.66204e-07
3.37449e-10
-7.03133e-08
-8.41981e-08
-1.55841e-10
-1.34501e-07
-1.23638e-07
1.1685e-11
-1.93484e-07
-1.46994e-07
-1.32817e-07
-1.03442e-07
-2.36874e-09
-3.0733e-07
-7.06046e-08
-7.14719e-10
-3.1496e-07
-8.22284e-08
1.309e-09
-1.03356e-07
8.00376e-08
-1.63335e-10
-1.70972e-08
1.40564e-07
-2.6467e-10
-6.79172e-08
-2.39673e-07
-5.21292e-10
-3.64494e-08
-4.86872e-07
-2.37789e-10
-3.37143e-08
-5.57005e-07
5.79817e-10
-3.97589e-08
-4.6943e-07
7.94149e-10
-4.46997e-08
-3.47305e-07
5.50827e-10
-4.71111e-08
-3.27426e-07
4.24422e-10
-4.75516e-08
-3.27563e-07
4.12748e-10
-4.81962e-08
-3.20344e-07
4.21169e-10
-4.9296e-08
-3.06089e-07
1.92027e-10
-5.04922e-08
-2.92577e-07
-3.69101e-10
-5.2605e-08
-2.90405e-07
-4.09159e-10
-6.32029e-08
-2.63246e-07
-3.15597e-10
-5.14519e-08
-2.73403e-08
-1.15294e-09
-1.35683e-07
-6.75669e-08
1.83379e-10
-2.04829e-07
-9.03742e-08
-1.64473e-07
-5.04744e-08
-3.04994e-09
-3.00813e-07
-5.46342e-08
-5.80172e-10
-3.17272e-07
-1.53164e-07
2.05106e-09
-1.35836e-07
-6.06852e-08
4.00578e-10
-3.30169e-08
7.58606e-08
-7.55664e-10
-6.68382e-08
-1.8951e-07
-6.89697e-10
-4.60463e-08
-3.91654e-07
1.05257e-09
-4.40945e-08
-4.04384e-07
1.48865e-09
-4.71522e-08
-3.11368e-07
1.01335e-09
-4.83229e-08
-2.71326e-07
4.62771e-10
-4.82312e-08
-2.57191e-07
2.22852e-10
-4.80616e-08
-2.55863e-07
9.09467e-11
-4.82165e-08
-2.54184e-07
-1.67658e-10
-4.86926e-08
-2.54913e-07
-6.82741e-10
-4.94421e-08
-2.61422e-07
-1.11531e-09
-5.15371e-08
-2.69192e-07
-5.05079e-10
-6.20543e-08
-2.36839e-07
9.56492e-12
-5.12039e-08
1.36086e-08
-9.50134e-10
-1.13827e-07
-3.37161e-08
1.48083e-10
-2.01531e-07
-1.40673e-07
-1.82797e-07
-1.04919e-08
-1.34122e-09
-2.92086e-07
-6.21199e-08
1.39956e-09
-3.16344e-07
-1.41605e-07
2.63321e-09
-1.4584e-07
-2.38175e-07
2.44385e-09
-6.66434e-08
-7.06154e-08
1.31745e-09
-6.28943e-08
-1.85055e-07
6.33572e-10
-4.98133e-08
-2.70151e-07
1.37164e-09
-4.71526e-08
-2.50863e-07
1.10509e-09
-4.65239e-08
-2.27306e-07
5.68497e-10
-4.58227e-08
-2.23583e-07
2.09248e-10
-4.52735e-08
-2.273e-07
-2.79793e-11
-4.50388e-08
-2.29995e-07
-3.01409e-10
-4.50955e-08
-2.32494e-07
-6.81775e-10
-4.54759e-08
-2.3814e-07
-1.27088e-09
-4.62798e-08
-2.51125e-07
-1.96014e-09
-4.87387e-08
-2.65542e-07
-1.30275e-09
-5.92995e-08
-2.11711e-07
-5.09889e-10
-5.51888e-08
-4.53393e-09
-4.23351e-10
-7.07707e-08
-7.45679e-09
8.85393e-10
-1.91412e-07
-2.11204e-07
-1.82158e-07
-3.32595e-08
-5.386e-10
-2.89874e-07
-2.06912e-08
1.03247e-09
-3.16222e-07
-4.27687e-08
1.30269e-09
-1.56707e-07
-3.96708e-07
3.59737e-09
-8.66982e-08
-1.02603e-07
2.94971e-09
-5.54505e-08
-2.15978e-07
1.60255e-09
-4.60788e-08
-2.32238e-07
1.2753e-09
-4.28302e-08
-2.08354e-07
7.62973e-10
-4.11252e-08
-2.05396e-07
4.32059e-10
-4.00112e-08
-2.07342e-07
1.54301e-10
-3.94604e-08
-2.09368e-07
-1.54061e-10
-3.92871e-08
-2.12299e-07
-5.32272e-10
-3.93716e-08
-2.15315e-07
-1.06251e-09
-3.98448e-08
-2.23716e-07
-1.7966e-09
-4.09324e-08
-2.39768e-07
-2.19896e-09
-4.37939e-08
-2.49163e-07
-9.32555e-10
-5.30581e-08
-1.67567e-07
-4.19476e-10
-4.66451e-08
3.19519e-09
9.57882e-11
-3.27107e-08
1.04942e-07
1.82272e-09
-1.70635e-07
-2.37833e-07
-1.66877e-07
-4.45991e-08
-1.62955e-09
-2.85519e-07
-1.35401e-07
-1.22762e-09
-3.17312e-07
5.60311e-10
4.76574e-10
-1.86115e-07
-4.96581e-07
3.54917e-09
-9.11347e-08
-7.21711e-08
3.20287e-09
-4.49792e-08
-2.3735e-07
2.42174e-09
-3.69987e-08
-2.08485e-07
1.63502e-09
-3.38938e-08
-1.90297e-07
9.81452e-10
-3.23977e-08
-1.83767e-07
5.12689e-10
-3.15076e-08
-1.77005e-07
1.34563e-10
-3.10837e-08
-1.77803e-07
-2.16984e-10
-3.1025e-08
-1.81713e-07
-6.57459e-10
-3.10858e-08
-1.84171e-07
-1.29262e-09
-3.1586e-08
-1.91947e-07
-2.18014e-09
-3.27497e-08
-2.05747e-07
-2.55566e-09
-3.53638e-08
-2.05519e-07
-1.1518e-09
-4.12577e-08
-1.13226e-07
-3.81272e-11
-4.18879e-08
2.35172e-08
-6.78647e-10
-1.96387e-08
1.68115e-07
-6.96852e-10
-1.31444e-07
-1.25208e-07
-1.51735e-07
2.8066e-08
-2.82641e-09
-2.57157e-07
-3.00165e-07
-3.35259e-09
-3.19413e-07
-3.05321e-08
5.75745e-10
-2.10328e-07
-2.66271e-07
3.17147e-09
-8.2756e-08
-1.08006e-08
3.23239e-09
-2.68252e-08
-1.72541e-07
2.97813e-09
-2.15106e-08
-1.47325e-07
1.8836e-09
-1.97493e-08
-1.28316e-07
1.079e-09
-1.88028e-08
-1.13968e-07
5.42e-10
-1.83296e-08
-1.05585e-07
1.39231e-10
-1.80565e-08
-1.04951e-07
-2.40924e-10
-1.79492e-08
-1.0812e-07
-7.41206e-10
-1.80556e-08
-1.09106e-07
-1.48413e-09
-1.83715e-08
-1.15382e-07
-2.52899e-09
-1.91729e-08
-1.27882e-07
-2.68536e-09
-2.05745e-08
-1.16013e-07
-1.18779e-09
-2.01949e-08
-3.15953e-08
1.28789e-10
-4.13603e-08
4.78312e-08
-2.68274e-10
-3.96739e-08
9.1142e-08
-1.32831e-09
-1.07588e-07
5.10474e-08
-1.57643e-07
6.36412e-08
-2.39258e-09
-2.16773e-07
-1.39657e-07
-1.30042e-09
-3.23173e-07
-5.4768e-08
1.62909e-09
-2.14976e-07
-3.79561e-08
1.59362e-09
-8.77979e-08
1.29285e-08
1.21115e-09
-1.35113e-08
1.76369e-08
1.52325e-09
-9.20142e-09
5.71116e-09
1.20157e-09
-8.50925e-09
1.27072e-08
7.14738e-10
-7.36866e-09
2.03013e-08
3.51907e-10
-7.59705e-09
2.2185e-08
8.10113e-11
-7.46311e-09
2.21927e-08
-1.55211e-10
-6.92359e-09
2.14195e-08
-4.82892e-10
-7.41977e-09
2.03705e-08
-8.93719e-10
-7.53884e-09
1.8022e-08
-1.17279e-09
-7.96256e-09
1.24603e-08
-8.95489e-10
-8.81736e-09
2.62237e-08
-8.36452e-10
-8.77899e-09
7.42802e-08
1.16339e-10
-5.47721e-08
3.20393e-08
1.07987e-09
-8.23047e-08
-2.83193e-08
2.13269e-09
-1.24565e-07
7.1382e-08
-1.62612e-07
-3.7695e-08
-9.42307e-10
-2.01664e-07
5.796e-08
9.05945e-10
-3.25727e-07
-7.2267e-08
1.86632e-09
-2.14487e-07
-3.44709e-08
1.00463e-09
-1.02263e-07
-1.66112e-08
3.12685e-10
-1.53999e-08
2.23926e-08
9.43062e-11
-6.25391e-09
1.90475e-08
2.97795e-11
-5.04456e-09
1.85682e-08
2.63704e-11
-4.13124e-09
1.70261e-08
7.90709e-12
-4.19996e-09
1.70582e-08
-4.7754e-12
-4.08876e-09
1.67937e-08
1.44495e-11
-3.69545e-09
1.63502e-08
1.06522e-11
-4.00941e-09
1.69132e-08
-2.02167e-11
-4.03552e-09
1.73382e-08
-8.43735e-11
-4.34014e-09
1.82751e-08
-4.99871e-10
-5.46615e-09
1.85459e-08
-1.65088e-09
-1.10033e-08
1.98407e-08
-4.42548e-10
-7.00387e-08
-1.62862e-08
7.89324e-10
-1.12562e-07
-6.54604e-08
6.55541e-11
-1.44481e-07
1.06188e-08
-1.60801e-07
7.35822e-09
3.58117e-12
-2.08217e-07
5.89451e-08
1.24986e-09
-3.22683e-07
-6.896e-08
1.91096e-09
-2.13106e-07
-5.70525e-08
1.04259e-09
-1.0423e-07
-2.45043e-08
2.38172e-10
-1.86529e-08
-4.55099e-09
4.28815e-11
-5.9355e-09
8.90807e-10
2.29327e-11
-4.4797e-09
2.48618e-09
-4.47331e-12
-3.46453e-09
1.78993e-09
9.51125e-13
-3.44789e-09
2.7167e-09
1.22394e-11
-3.34338e-09
2.67104e-09
-7.41758e-12
-3.03355e-09
1.71992e-09
-6.31989e-12
-3.23945e-09
2.70236e-09
-1.39029e-11
-3.20898e-09
2.8817e-09
-6.40258e-11
-3.51032e-09
2.93254e-09
-4.39428e-10
-4.86231e-09
1.90021e-09
-1.80839e-09
-1.25941e-08
-3.16516e-09
-8.28174e-10
-7.47023e-08
-3.89098e-08
2.39201e-10
-1.21431e-07
-1.46498e-08
-3.34608e-10
-1.49637e-07
4.76214e-09
-1.62067e-07
-1.04166e-09
6.82437e-10
-2.14314e-07
5.85032e-08
1.58265e-11
-3.15319e-07
-1.5003e-08
5.70621e-10
-2.12017e-07
-5.24208e-08
1.00456e-09
-1.03364e-07
-1.40473e-08
3.58305e-11
-1.65887e-08
-1.31762e-09
-2.54477e-12
-5.73456e-09
4.94357e-10
1.19751e-11
-4.55822e-09
-1.24917e-09
6.83093e-14
-3.14509e-09
7.81249e-10
8.66087e-13
-3.46752e-09
-8.87713e-10
3.75287e-12
-3.36442e-09
-8.65288e-10
-3.40695e-12
-2.72982e-09
7.39233e-10
-3.74521e-12
-3.25613e-09
-8.41067e-10
-2.12709e-11
-3.21851e-09
-8.66207e-10
-2.31213e-11
-3.48123e-09
-7.51142e-10
-3.72999e-10
-5.21857e-09
-2.7357e-09
-1.48021e-09
-1.25083e-08
-7.10612e-09
-1.33227e-10
-7.613e-08
-2.39571e-08
8.91224e-10
-1.23727e-07
-6.51644e-09
7.2581e-10
-1.51389e-07
-4.97841e-08
-1.61578e-07
-3.0906e-08
2.93115e-10
-2.1276e-07
5.16829e-08
-8.15553e-10
-3.2104e-07
3.09626e-09
3.31093e-10
-2.12938e-07
-2.04876e-08
1.14587e-09
-1.01513e-07
-1.83447e-08
-7.67491e-11
-1.42455e-08
-3.82742e-11
5.06899e-12
-5.49892e-09
1.11595e-09
-4.66528e-12
-4.29503e-09
3.94459e-10
1.26685e-11
-3.02142e-09
3.71246e-10
4.12729e-13
-3.31627e-09
2.07626e-10
-1.41993e-11
-3.21793e-09
1.99441e-10
1.38422e-11
-2.6057e-09
4.08227e-10
3.1093e-13
-3.14939e-09
9.14708e-11
-2.88983e-11
-3.12453e-09
1.85697e-11
7.53634e-11
-3.43081e-09
4.56002e-10
-3.68333e-10
-5.0406e-09
-1.05422e-09
-1.15702e-09
-9.4392e-09
6.11462e-09
-1.00089e-09
-7.6386e-08
-3.02494e-08
-5.39179e-10
-1.24643e-07
-1.98162e-08
4.64847e-10
-1.5206e-07
-1.1579e-08
-1.62707e-07
-2.53775e-08
-3.82339e-10
-2.09901e-07
5.02767e-08
-1.00337e-09
-3.31324e-07
-2.75252e-08
-5.95692e-10
-2.16927e-07
-3.32828e-08
3.30724e-10
-1e-07
-2.04497e-08
-9.58245e-11
-1.29815e-08
3.47799e-09
-1.40408e-11
-5.44561e-09
1.226e-09
-1.02604e-11
-4.16424e-09
4.36151e-10
-3.29254e-11
-2.88125e-09
2.97096e-10
-5.61754e-12
-3.32349e-09
2.49093e-10
2.21542e-11
-3.21402e-09
2.75081e-10
1.37584e-12
-2.47501e-09
2.72091e-10
-2.23317e-11
-3.08902e-09
1.22951e-10
3.49364e-11
-3.20651e-09
9.29015e-11
1.90747e-10
-3.7849e-09
-3.71486e-10
-1.67866e-10
-4.11678e-09
1.59694e-09
-5.35372e-10
-6.69061e-09
7.40458e-09
-1.72475e-09
-7.50508e-08
-1.96948e-08
-1.95781e-09
-1.24958e-07
-4.61441e-08
1.33282e-09
-1.54119e-07
2.1065e-08
-1.63877e-07
-4.34734e-08
-1.3125e-10
-1.98274e-07
9.93677e-10
-1.12337e-10
-3.32024e-07
-4.15929e-08
-8.93718e-10
-2.21357e-07
-5.64618e-08
-2.5337e-10
-1.0103e-07
-7.72649e-10
2.71619e-10
-1.06367e-08
8.59674e-09
-3.87768e-11
-5.38589e-09
-2.14697e-10
8.7069e-14
-4.16606e-09
4.19014e-10
-6.3619e-12
-2.81677e-09
2.82036e-10
-7.51381e-13
-3.39559e-09
-1.33398e-11
4.29327e-12
-3.2909e-09
-3.98634e-11
-3.82281e-12
-2.46687e-09
1.01023e-10
1.66927e-11
-3.0955e-09
2.10226e-10
1.03212e-10
-3.36133e-09
-3.28715e-11
1.11217e-10
-4.02626e-09
-1.02044e-09
-3.14238e-10
-2.65396e-09
3.20818e-09
-5.04495e-10
-5.31954e-09
3.57794e-09
-1.22042e-09
-7.32062e-08
2.53934e-08
-1.71497e-09
-1.24252e-07
-2.22767e-08
-5.32992e-10
-1.57042e-07
-3.41366e-08
-1.65325e-07
-3.85069e-08
-4.57239e-10
-1.68047e-07
1.85948e-08
2.58521e-10
-3.32507e-07
-3.46751e-08
-1.58913e-09
-2.23293e-07
-4.58686e-08
-1.03426e-09
-1.0543e-07
-1.35138e-08
3.41289e-10
-8.75783e-09
8.64393e-09
-5.40486e-11
-5.30608e-09
-9.15627e-10
4.2852e-12
-4.45408e-09
-4.02409e-10
2.36931e-11
-2.87623e-09
4.60773e-11
4.79594e-12
-3.49189e-09
-3.28973e-10
-1.55355e-11
-3.40959e-09
-3.99674e-10
-7.75409e-12
-2.59268e-09
-1.81466e-10
3.934e-11
-3.25856e-09
-1.79405e-10
1.23219e-10
-3.72104e-09
-7.98969e-10
7.3926e-11
-3.48265e-09
1.28435e-09
-1.9318e-10
-1.62907e-09
2.32532e-09
-5.99133e-10
-4.7818e-09
1.68618e-10
-1.37354e-09
-7.11034e-08
5.72559e-09
-9.3379e-10
-1.21904e-07
2.3854e-08
-2.30272e-09
-1.55361e-07
-6.45229e-08
-1.61403e-07
-6.68305e-08
2.29384e-10
-1.3127e-07
3.60533e-08
-2.10522e-10
-3.33302e-07
-1.52765e-08
-1.51986e-09
-2.24156e-07
-2.63072e-08
-1.15199e-09
-1.12769e-07
-4.54693e-08
1.26787e-10
-7.88049e-09
5.88522e-09
-8.33459e-12
-5.84639e-09
-1.54282e-09
-1.12362e-12
-4.80488e-09
-1.46289e-09
1.65518e-11
-3.08818e-09
-4.52179e-10
-2.09084e-13
-3.70297e-09
-9.22389e-10
-1.71768e-11
-3.63226e-09
-9.4699e-10
5.61546e-12
-2.88725e-09
-6.39071e-10
2.85299e-11
-3.58455e-09
-1.14344e-09
8.03873e-11
-4.3519e-09
-2.0971e-09
5.00009e-11
-2.53267e-09
2.93916e-09
8.845e-11
-1.18931e-09
1.46968e-09
-4.2148e-10
-4.34811e-09
-6.90333e-10
-1.29516e-09
-6.88289e-08
-7.26889e-09
5.73239e-10
-1.20051e-07
4.31431e-08
7.47733e-10
-1.42224e-07
6.16643e-09
-1.37566e-07
2.51889e-08
1.52099e-09
-9.53735e-08
1.82969e-08
-4.70249e-10
-3.34374e-07
-1.25559e-08
-1.12655e-09
-2.24846e-07
-2.01419e-08
-4.10736e-10
-1.18087e-07
-3.93859e-08
2.97637e-10
-7.66836e-09
3.54422e-09
4.75046e-11
-6.90512e-09
-3.13864e-09
1.02305e-11
-4.75096e-09
7.81548e-10
2.29094e-11
-3.28744e-09
-4.28326e-10
7.40387e-13
-3.63938e-09
7.42994e-10
-2.29314e-11
-3.59397e-09
6.58097e-10
1.81935e-11
-3.26477e-09
-7.90965e-10
4.12469e-11
-3.60242e-09
6.01353e-10
5.11847e-11
-4.30434e-09
8.59409e-10
4.8493e-11
-1.70418e-09
2.82414e-09
1.72227e-10
-8.86519e-10
1.45107e-09
4.91451e-10
-3.57344e-09
4.16229e-09
9.31886e-10
-6.74003e-08
-4.22606e-09
1.92163e-09
-1.11434e-07
7.62014e-09
1.2122e-09
-1.07281e-07
1.84099e-07
-8.50358e-08
3.38772e-07
7.49045e-10
-5.39763e-08
2.02485e-08
-2.38545e-10
-3.352e-07
-1.3278e-08
-5.52026e-10
-2.25263e-07
-1.7688e-08
-3.54773e-10
-1.18952e-07
-2.69178e-08
-1.10883e-10
-9.09411e-09
-1.52013e-09
-2.48518e-11
-7.13569e-09
-1.45073e-09
-9.32691e-12
-5.02599e-09
1.05294e-09
-5.07221e-13
-3.4429e-09
-3.47164e-10
1.53762e-11
-3.70377e-09
1.09522e-09
1.70554e-11
-3.63e-09
1.08433e-09
-1.33863e-11
-3.28681e-09
-3.21469e-10
1.76151e-11
-3.48373e-09
1.54864e-09
4.70228e-11
-4.16166e-09
1.99233e-09
6.27996e-11
-1.25179e-09
1.65094e-09
4.44454e-10
-7.19726e-10
1.41663e-09
1.77354e-09
-2.80525e-09
6.47487e-09
3.78709e-09
-6.11181e-08
7.62829e-08
2.77039e-09
-8.41018e-08
1.56398e-07
-3.16749e-09
-5.91583e-08
3.35922e-07
-3.25662e-08
4.0889e-07
6.97195e-10
6.67388e-09
1.2341e-11
-4.60591e-09
1.2627e-10
-5.06095e-09
-9.55673e-10
-1.11003e-08
-1.11263e-09
-3.0599e-09
-8.19343e-11
2.49512e-09
-3.37739e-11
-7.36821e-10
-3.29113e-11
-3.11023e-10
-2.1176e-11
-4.7233e-10
2.38551e-12
-3.36953e-10
1.2458e-11
2.18965e-10
-1.35344e-11
-9.71541e-11
-3.62688e-11
-4.16358e-10
4.70804e-11
3.17776e-10
6.99434e-10
1.29753e-09
2.64339e-09
6.51725e-09
4.85018e-09
1.27104e-07
3.54315e-09
2.11301e-07
1.91742e-10
1.62532e-07
1.86758e-07
-1.56544e-08
-2.65325e-07
-2.03062e-06
2.82696e-08
-2.70187e-07
-1.65636e-06
3.21588e-08
-1.32243e-07
-1.16929e-06
2.92759e-08
-1.03981e-07
-1.0831e-06
2.83712e-08
-6.14759e-08
-6.14544e-07
1.85649e-08
-2.64131e-08
-9.40684e-07
5.23629e-09
-1.92736e-08
-7.38557e-07
-1.53957e-09
-2.18763e-08
-6.2222e-07
-4.91027e-09
-2.8283e-08
-6.07102e-07
-4.5135e-09
-2.84451e-08
-4.82068e-07
-4.09466e-09
-2.94967e-08
-4.54623e-07
-4.97567e-09
-3.02706e-08
-4.61997e-07
-6.46959e-09
-3.25186e-08
-4.60981e-07
-9.05631e-09
-3.64925e-08
-4.55706e-07
-1.40614e-08
-4.24084e-08
-4.75191e-07
-1.93491e-08
-5.63925e-08
-5.38424e-07
-1.90379e-08
-7.93463e-08
-7.70289e-07
-1.06085e-08
-1.22656e-07
-1.10443e-06
1.53117e-08
-1.69569e-07
-1.31081e-06
-1.24297e-07
-1.28252e-06
-9.66407e-10
-3.01179e-07
-2.68275e-07
4.10594e-09
-3.07722e-07
-2.45683e-07
7.00737e-09
-1.14912e-07
-1.05216e-07
2.70732e-09
-7.27269e-08
-1.29324e-07
1.3935e-09
-6.14266e-08
-3.35563e-07
8.99521e-10
-2.12178e-08
-2.10726e-06
6.14994e-10
-2.03378e-08
-1.30304e-06
-2.30078e-10
-2.6159e-08
-9.52115e-07
3.25069e-10
-3.41079e-08
-7.98282e-07
2.34819e-10
-3.69887e-08
-5.52908e-07
-1.55229e-10
-3.75568e-08
-4.97537e-07
1.63349e-11
-3.86166e-08
-4.67053e-07
6.34193e-10
-4.08164e-08
-4.22698e-07
8.19835e-10
-4.41388e-08
-3.59019e-07
-1.74329e-10
-4.81162e-08
-3.11782e-07
-3.98762e-10
-6.03859e-08
-2.61986e-07
1.33823e-10
-7.2753e-08
-9.1324e-08
-1.41008e-10
-1.34865e-07
-1.11154e-07
2.39521e-10
-1.93019e-07
-1.23925e-07
-1.34038e-07
-9.42636e-08
-2.40256e-09
-3.07934e-07
-6.21693e-08
-6.73272e-10
-3.14925e-07
-7.67553e-08
1.52947e-09
-1.11911e-07
7.48338e-08
9.5481e-11
-3.76252e-08
1.06896e-07
-2.25796e-10
-6.68588e-08
-2.3392e-07
-5.52557e-10
-3.47937e-08
-4.72969e-07
-2.49482e-10
-3.23508e-08
-5.45296e-07
6.01102e-10
-3.86354e-08
-4.57804e-07
7.92423e-10
-4.38756e-08
-3.37728e-07
5.45884e-10
-4.63718e-08
-3.17797e-07
4.31826e-10
-4.68539e-08
-3.18151e-07
4.33071e-10
-4.75535e-08
-3.11409e-07
4.49872e-10
-4.87122e-08
-2.9821e-07
2.22271e-10
-4.9919e-08
-2.86569e-07
-3.69841e-10
-5.18584e-08
-2.86071e-07
-4.67303e-10
-6.21676e-08
-2.61367e-07
-3.04396e-10
-5.90043e-08
-4.12519e-08
-1.07258e-09
-1.38084e-07
-6.35794e-08
2.21197e-10
-2.04273e-07
-8.0414e-08
-1.64929e-07
-2.18925e-08
-3.14933e-09
-3.02336e-07
-5.85015e-08
-7.0156e-10
-3.17325e-07
-1.53211e-07
2.12003e-09
-1.35777e-07
-3.96412e-08
5.60234e-10
-4.49796e-08
8.47748e-08
-8.9295e-10
-6.61379e-08
-1.88778e-07
-7.97636e-10
-4.44963e-08
-3.82047e-07
1.04416e-09
-4.31589e-08
-3.95418e-07
1.50213e-09
-4.66206e-08
-3.03841e-07
1.01848e-09
-4.79387e-08
-2.66779e-07
4.63866e-10
-4.78804e-08
-2.55128e-07
2.25499e-10
-4.7725e-08
-2.54754e-07
9.8438e-11
-4.78879e-08
-2.53722e-07
-1.50335e-10
-4.83549e-08
-2.55022e-07
-6.53254e-10
-4.90507e-08
-2.61788e-07
-1.08744e-09
-5.09536e-08
-2.69663e-07
-5.78351e-10
-6.12213e-08
-2.38294e-07
-3.8364e-11
-5.80457e-08
1.211e-08
-8.21014e-10
-1.24113e-07
-4.6905e-08
2.42282e-10
-2.00635e-07
-1.45374e-07
-1.82882e-07
5.81786e-09
-1.48748e-09
-2.94376e-07
-7.02195e-08
1.20549e-09
-3.1663e-07
-1.44993e-07
2.72617e-09
-1.44702e-07
-2.30771e-07
2.45352e-09
-6.95988e-08
-4.57236e-08
1.21225e-09
-6.23892e-08
-1.87562e-07
5.8582e-10
-4.9112e-08
-2.64909e-07
1.36426e-09
-4.67943e-08
-2.48006e-07
1.09921e-09
-4.6275e-08
-2.27386e-07
5.65866e-10
-4.56054e-08
-2.25383e-07
2.08755e-10
-4.50712e-08
-2.29753e-07
-2.45369e-11
-4.48406e-08
-2.32646e-07
-2.92412e-10
-4.48948e-08
-2.35219e-07
-6.65143e-10
-4.52569e-08
-2.40865e-07
-1.24177e-09
-4.60036e-08
-2.53596e-07
-1.90189e-09
-4.82953e-08
-2.6754e-07
-1.28476e-09
-5.87744e-08
-2.14775e-07
-5.58476e-10
-6.12614e-08
-2.04454e-09
-2.82977e-10
-8.93875e-08
-4.24576e-08
9.31739e-10
-1.91106e-07
-2.21948e-07
-1.82566e-07
-3.40057e-08
-4.93488e-10
-2.931e-07
-2.46751e-08
1.08253e-09
-3.16579e-07
-4.43954e-08
1.40942e-09
-1.54837e-07
-3.869e-07
3.57002e-09
-8.75487e-08
-8.6814e-08
2.84638e-09
-5.49786e-08
-2.22665e-07
1.53557e-09
-4.56967e-08
-2.34343e-07
1.25561e-09
-4.26277e-08
-2.1224e-07
7.54271e-10
-4.09726e-08
-2.10197e-07
4.28704e-10
-3.98756e-08
-2.12746e-07
1.53853e-10
-3.93318e-08
-2.14833e-07
-1.51747e-10
-3.91594e-08
-2.17675e-07
-5.25982e-10
-3.92409e-08
-2.20595e-07
-1.0497e-09
-3.97e-08
-2.28749e-07
-1.77157e-09
-4.07484e-08
-2.44301e-07
-2.1602e-09
-4.35074e-08
-2.53562e-07
-1.07458e-09
-5.29065e-08
-1.74521e-07
-6.96306e-10
-5.52005e-08
-3.24389e-09
8.98915e-11
-5.29482e-08
6.77162e-08
1.89093e-09
-1.74025e-07
-2.56715e-07
-1.70103e-07
-5.66585e-08
-1.68694e-09
-2.90257e-07
-1.40697e-07
-1.20217e-09
-3.17641e-07
1.13715e-09
6.87104e-10
-1.83227e-07
-4.7008e-07
3.64711e-09
-9.28647e-08
-6.98152e-08
3.14598e-09
-4.50251e-08
-2.46803e-07
2.38034e-09
-3.68505e-08
-2.16566e-07
1.61726e-09
-3.37926e-08
-1.98369e-07
9.72844e-10
-3.23163e-08
-1.91778e-07
5.0885e-10
-3.14351e-08
-1.84981e-07
1.33714e-10
-3.10134e-08
-1.85746e-07
-2.15531e-10
-3.09541e-08
-1.89569e-07
-6.52675e-10
-3.10137e-08
-1.91961e-07
-1.28258e-09
-3.15082e-08
-1.99509e-07
-2.15897e-09
-3.26571e-08
-2.12961e-07
-2.52478e-09
-3.52598e-08
-2.13401e-07
-1.29497e-09
-4.1937e-08
-1.25425e-07
-2.40614e-10
-5.02831e-08
1.75454e-08
-6.40913e-10
-3.79531e-08
1.5352e-07
-7.05911e-10
-1.41504e-07
-1.57665e-07
-1.57966e-07
1.58744e-08
-2.83615e-09
-2.63462e-07
-3.25858e-07
-3.46751e-09
-3.19845e-07
-2.76961e-08
6.51509e-10
-2.07638e-07
-2.45978e-07
3.29961e-09
-8.8655e-08
-1.76585e-08
3.26377e-09
-3.00342e-08
-1.87496e-07
2.97336e-09
-2.22153e-08
-1.6167e-07
1.87802e-09
-2.0121e-08
-1.40892e-07
1.07658e-09
-1.90879e-08
-1.26395e-07
5.40994e-10
-1.85691e-08
-1.17916e-07
1.38876e-10
-1.82767e-08
-1.17285e-07
-2.40493e-10
-1.81651e-08
-1.2053e-07
-7.40009e-10
-1.82749e-08
-1.21345e-07
-1.4828e-09
-1.86117e-08
-1.27536e-07
-2.53466e-09
-1.94719e-08
-1.40016e-07
-2.74722e-09
-2.11888e-08
-1.29872e-07
-1.28968e-09
-2.49105e-08
-5.00794e-08
1.92725e-10
-4.90968e-08
4.51624e-08
-1.46658e-10
-4.98008e-08
1.03329e-07
-1.30398e-09
-1.18419e-07
2.912e-08
-1.61171e-07
6.59398e-08
-2.5628e-09
-2.25999e-07
-1.74636e-07
-1.39773e-09
-3.24292e-07
-5.14861e-08
1.64027e-09
-2.13621e-07
-3.50109e-08
1.87277e-09
-9.23913e-08
1.64323e-08
1.52976e-09
-1.76027e-08
5.54842e-09
1.7133e-09
-9.92781e-09
-6.75983e-09
1.29171e-09
-8.89651e-09
1.90429e-09
7.60951e-10
-7.58941e-09
9.33362e-09
3.7401e-10
-7.81051e-09
1.18134e-08
8.66816e-11
-7.65369e-09
1.1857e-08
-1.6015e-10
-7.06737e-09
1.05685e-08
-5.06524e-10
-7.60965e-09
1.00516e-08
-9.61878e-10
-7.75294e-09
7.61862e-09
-1.35199e-09
-8.24896e-09
1.62749e-09
-1.39206e-09
-9.44473e-09
1.45196e-08
-1.21834e-09
-1.39038e-08
6.30997e-08
1.95463e-10
-5.84054e-08
3.99341e-08
1.16273e-09
-8.43929e-08
5.30553e-09
2.2155e-09
-1.28733e-07
8.06436e-08
-1.64052e-07
-3.56431e-08
-1.04288e-09
-2.11734e-07
4.47111e-08
8.47636e-10
-3.28258e-07
-7.01918e-08
1.81476e-09
-2.1384e-07
-3.52198e-08
9.91959e-10
-1.02121e-07
-6.05878e-09
3.55434e-10
-1.57379e-08
2.11643e-08
9.6357e-11
-6.21176e-09
1.55905e-08
3.16132e-11
-4.93541e-09
1.46719e-08
2.7246e-11
-3.9472e-09
1.33883e-08
8.48358e-12
-4.05358e-09
1.33201e-08
-4.6486e-12
-3.93975e-09
1.30929e-08
1.38646e-11
-3.50529e-09
1.27696e-08
9.31762e-12
-3.8613e-09
1.31694e-08
-2.17107e-11
-3.89088e-09
1.35072e-08
-8.43258e-11
-4.20718e-09
1.4296e-08
-5.69073e-10
-5.37382e-09
1.49597e-08
-1.6911e-09
-1.15302e-08
1.85892e-08
-3.91247e-10
-7.01781e-08
-5.81336e-09
8.20359e-10
-1.12739e-07
-3.8326e-08
7.41502e-11
-1.44788e-07
2.74194e-08
-1.62064e-07
5.53959e-09
2.24948e-10
-2.17007e-07
6.39639e-08
1.4432e-09
-3.28876e-07
-6.95603e-08
1.87166e-09
-2.12784e-07
-5.85364e-08
9.79214e-10
-1.03932e-07
-2.18003e-08
2.11534e-10
-1.71225e-08
-2.39865e-09
3.45633e-11
-5.78251e-09
6.38527e-10
2.13365e-11
-4.2419e-09
1.8059e-09
-5.91027e-12
-3.27581e-09
1.14578e-09
8.93443e-13
-3.24966e-09
1.90597e-09
1.29265e-11
-3.14943e-09
1.86868e-09
-8.50862e-12
-2.85455e-09
1.09061e-09
-7.01177e-12
-3.05008e-09
1.88964e-09
-1.25464e-11
-3.02098e-09
2.01733e-09
-5.56119e-11
-3.30988e-09
2.0783e-09
-4.00297e-10
-4.60986e-09
1.48093e-09
-1.71266e-09
-1.17867e-08
-1.59639e-09
-7.30567e-10
-7.46106e-08
-3.54594e-08
2.63707e-10
-1.21478e-07
-6.90514e-09
-3.34735e-10
-1.49773e-07
1.0346e-08
-1.62075e-07
-1.63865e-09
8.32078e-10
-2.23452e-07
6.45058e-08
2.25117e-10
-3.27915e-07
-1.5357e-08
5.61517e-10
-2.11751e-07
-5.37904e-08
9.41438e-10
-1.03116e-07
-1.5244e-08
3.01249e-11
-1.60581e-08
-1.4707e-09
-3.19037e-12
-5.5775e-09
3.22663e-10
1.09252e-11
-4.36633e-09
-1.13886e-09
-1.65003e-13
-2.9699e-09
4.86434e-10
8.10832e-13
-3.3095e-09
-8.28847e-10
3.49903e-12
-3.21011e-09
-8.07293e-10
-3.214e-12
-2.56725e-09
4.58649e-10
-3.55174e-12
-3.10575e-09
-7.85058e-10
-2.03051e-11
-3.06959e-09
-8.00844e-10
-2.03411e-11
-3.32119e-09
-7.39794e-10
-3.46211e-10
-4.92249e-09
-2.0972e-09
-1.41065e-09
-1.19617e-08
-5.8666e-09
-7.7104e-11
-7.60778e-08
-2.38235e-08
8.9059e-10
-1.23779e-07
-5.1829e-09
7.30301e-10
-1.51606e-07
-4.77907e-08
-1.61594e-07
-3.2279e-08
4.84041e-10
-2.22558e-07
5.06871e-08
-7.06988e-10
-3.30707e-07
7.07887e-09
2.47994e-10
-2.12828e-07
-2.03656e-08
1.03258e-09
-1.01398e-07
-2.08471e-08
-1.17645e-10
-1.44659e-08
-4.80312e-10
7.90228e-12
-5.33375e-09
7.46649e-10
-4.09503e-12
-4.17583e-09
2.15959e-10
1.34605e-11
-2.85088e-09
2.34665e-10
4.41099e-13
-3.19829e-09
1.09432e-10
-1.45784e-11
-3.10144e-09
1.05787e-10
1.44479e-11
-2.44857e-09
2.60518e-10
4.1091e-13
-3.03414e-09
3.38938e-11
-2.80089e-11
-3.00876e-09
-1.38425e-11
7.4634e-11
-3.27293e-09
3.05102e-10
-3.36268e-10
-4.82002e-09
-7.45792e-10
-1.09401e-09
-9.08994e-09
4.00056e-09
-9.57902e-10
-7.63663e-08
-3.00969e-08
-5.06327e-10
-1.24703e-07
-1.93437e-08
4.39408e-10
-1.52753e-07
-1.13778e-08
-1.6274e-07
-2.54989e-08
-1.2282e-10
-2.19301e-07
4.64158e-08
-8.25893e-10
-3.34511e-07
-2.30182e-08
-5.89784e-10
-2.16922e-07
-2.94251e-08
2.55673e-10
-1.00021e-07
-2.2672e-08
-1.51558e-10
-1.29372e-08
2.35651e-09
-1.04481e-11
-5.13772e-09
8.88865e-10
-9.10904e-12
-4.04142e-09
3.00398e-10
-3.23428e-11
-2.71395e-09
1.83402e-10
-5.44722e-12
-3.17075e-09
1.94665e-10
2.21249e-11
-3.06546e-09
2.11531e-10
1.3548e-12
-2.32265e-09
1.66937e-10
-2.21271e-11
-2.97404e-09
8.63385e-11
3.34315e-11
-3.05665e-09
8.52342e-11
1.85929e-10
-3.57161e-09
-2.25306e-10
-1.28227e-10
-3.97915e-09
1.07022e-09
-4.66811e-10
-6.3697e-09
5.02292e-09
-1.71066e-09
-7.53086e-08
-1.95087e-08
-1.9464e-09
-1.25039e-07
-4.55726e-08
1.2911e-09
-1.5468e-07
1.97545e-08
-1.63925e-07
-4.47334e-08
1.4944e-10
-2.08582e-07
-1.05163e-08
9.11675e-11
-3.3554e-07
-4.05056e-08
-9.09272e-10
-2.21196e-07
-5.11875e-08
-2.21757e-10
-1.00906e-07
-5.74855e-10
2.86196e-10
-1.04573e-08
5.60894e-09
-3.76492e-11
-4.9575e-09
-7.10704e-11
1.83013e-13
-3.98387e-09
3.23633e-10
-6.36566e-12
-2.62021e-09
1.94844e-10
-7.56899e-13
-3.20573e-09
1.60307e-11
4.16291e-12
-3.10699e-09
-3.25777e-12
-3.9362e-12
-2.29115e-09
7.76287e-11
1.61827e-11
-2.95001e-09
1.66074e-10
9.96881e-11
-3.17374e-09
7.13705e-13
1.03434e-10
-3.85319e-09
-7.42607e-10
-3.157e-10
-2.53989e-09
2.18806e-09
-4.74464e-10
-5.02672e-09
2.39373e-09
-1.19849e-09
-7.36637e-08
2.44727e-08
-1.74847e-09
-1.24825e-07
-2.19409e-08
-5.25866e-10
-1.5715e-07
-3.2889e-08
-1.65439e-07
-3.71921e-08
-1.27229e-10
-1.82289e-07
-8.89084e-09
5.09486e-10
-3.36303e-07
-3.45483e-08
-1.45561e-09
-2.23005e-07
-4.20941e-08
-9.1222e-10
-1.04901e-07
-1.00625e-08
3.5886e-10
-8.54928e-09
5.46481e-09
-5.21501e-11
-4.88135e-09
-5.80766e-10
3.73791e-12
-4.2049e-09
-2.37262e-10
2.28039e-11
-2.64543e-09
5.22391e-11
4.49229e-12
-3.29709e-09
-2.19307e-10
-1.51638e-11
-3.21949e-09
-2.67515e-10
-7.28528e-12
-2.38587e-09
-9.46306e-11
3.83359e-11
-3.07696e-09
-9.80795e-11
1.1749e-10
-3.51287e-09
-5.38987e-10
7.04865e-11
-3.36798e-09
8.4615e-10
-1.84652e-10
-1.54684e-09
1.5874e-09
-5.81392e-10
-4.51016e-09
4.87986e-11
-1.32297e-09
-7.13158e-08
4.1192e-09
-9.21166e-10
-1.22995e-07
2.16222e-08
-2.29322e-09
-1.56521e-07
-6.37805e-08
-1.6291e-07
-6.63471e-08
4.38519e-10
-1.4968e-07
3.30185e-09
1.2601e-11
-3.37234e-07
-1.39201e-08
-1.39739e-09
-2.23861e-07
-2.40415e-08
-1.1002e-09
-1.11647e-07
-3.90205e-08
1.05183e-10
-7.67753e-09
3.80808e-09
-6.77493e-12
-5.37504e-09
-9.37177e-10
-1.81184e-12
-4.62199e-09
-1.05077e-09
1.63733e-11
-2.84085e-09
-2.74949e-10
-1.59818e-13
-3.54587e-09
-6.57072e-10
-1.66166e-11
-3.47763e-09
-6.72397e-10
5.8669e-12
-2.65642e-09
-3.91002e-10
2.71026e-11
-3.43359e-09
-8.08044e-10
7.36559e-11
-4.18577e-09
-1.47076e-09
4.81411e-11
-2.42721e-09
2.02391e-09
9.72885e-11
-1.12628e-09
9.99978e-10
-4.00982e-10
-4.12542e-09
-5.7681e-10
-1.31619e-09
-6.89102e-08
-8.75933e-09
5.3634e-10
-1.2137e-07
3.96655e-08
7.68776e-10
-1.46869e-07
-3.71714e-09
-1.44475e-07
8.64899e-09
1.70945e-09
-1.17378e-07
-1.28013e-08
-3.71802e-10
-3.38212e-07
-9.49632e-09
-1.0765e-09
-2.24603e-07
-1.86945e-08
-3.86697e-10
-1.1774e-07
-3.39831e-08
2.72886e-10
-7.24744e-09
2.45455e-09
4.3664e-11
-6.35097e-09
-1.93349e-09
7.96824e-12
-4.60137e-09
7.9662e-10
2.22014e-11
-3.02427e-09
-2.59137e-10
9.95726e-13
-3.48979e-09
7.08119e-10
-2.18532e-11
-3.44591e-09
6.49229e-10
1.73564e-11
-3.00397e-09
-4.82624e-10
3.83539e-11
-3.45789e-09
6.0466e-10
4.69492e-11
-4.15262e-09
8.17661e-10
4.50571e-11
-1.60808e-09
2.00691e-09
1.71749e-10
-8.31037e-10
1.02913e-09
4.84653e-10
-3.36443e-09
3.0884e-09
7.89988e-10
-6.79553e-08
-5.48629e-09
1.60689e-09
-1.14132e-07
-4.34336e-10
1.00282e-09
-1.16959e-07
1.54793e-07
-9.80512e-08
2.93314e-07
9.01148e-10
-8.51694e-08
-1.15396e-08
-2.21411e-10
-3.39057e-07
-1.13109e-08
-5.5712e-10
-2.2512e-07
-1.68356e-08
-3.34805e-10
-1.20454e-07
-2.4426e-08
-1.00549e-10
-8.36019e-09
-6.41634e-10
-2.52033e-11
-6.82412e-09
-1.05292e-09
-9.53525e-12
-4.70768e-09
1.14358e-09
-2.42491e-12
-3.16672e-09
-2.11829e-10
1.47975e-11
-3.453e-09
1.04121e-09
1.84328e-11
-3.38692e-09
1.02171e-09
-1.52496e-11
-3.0644e-09
-2.27355e-10
1.55129e-11
-3.25479e-09
1.31478e-09
4.48664e-11
-3.88522e-09
1.69557e-09
5.50778e-11
-1.15872e-09
1.19137e-09
3.69047e-10
-6.626e-10
9.34221e-10
1.56541e-09
-2.59225e-09
4.50633e-09
3.49656e-09
-6.20293e-08
6.84257e-08
2.53602e-09
-9.02679e-08
1.33494e-07
-3.54297e-09
-7.65972e-08
3.01639e-07
-4.98452e-08
3.6449e-07
7.80024e-10
-9.22562e-09
2.83036e-11
-3.62005e-09
8.59752e-11
-5.06929e-09
-8.91752e-10
-9.81866e-09
-1.03764e-09
-1.81752e-09
-7.9955e-11
1.4027e-09
-3.02993e-11
-4.06301e-10
-3.06398e-11
-2.00568e-10
-1.97234e-11
-2.67558e-10
2.24659e-12
-1.8935e-10
1.15147e-11
1.09274e-10
-1.25758e-11
-3.40522e-11
-3.54298e-11
-2.24047e-10
3.73302e-11
1.92417e-10
5.6626e-10
7.6254e-10
2.33719e-09