/*--------------------------------*- C++ -*----------------------------------*\
| =========                 |                                                 |
| \\      /  F ield         | OpenFOAM: The Open Source CFD Toolbox           |
|  \\    /   O peration     | Version:  2.3.0                                 |
|   \\  /    A nd           | Web:      www.OpenFOAM.org                      |
|    \\/     M anipulation  |                                                 |
\*---------------------------------------------------------------------------*/
FoamFile
{
    version     2.0;
    format      ascii;
    class       surfaceScalarField;
    location    "0.500023";
    object      phi.air;
}
// * * * * * * * * * * * * * * * * * * * * * * * * * * * * * * * * * * * * * //

dimensions      [0 3 -1 0 0 0 0];

internalField   nonuniform List<scalar> 
23061
(
-1.5504e-08
-2.68188e-07
-2.6601e-06
2.69682e-08
-2.74362e-07
-2.23608e-06
3.13311e-08
-1.30237e-07
-1.4716e-06
2.81703e-08
-1.01739e-07
-1.32802e-06
2.74675e-08
-6.28591e-08
-7.29681e-07
1.82174e-08
-2.58636e-08
-9.88231e-07
5.49033e-09
-1.98903e-08
-7.7771e-07
-1.51548e-09
-2.2522e-08
-6.57439e-07
-4.69155e-09
-2.90791e-08
-6.456e-07
-4.39544e-09
-2.9549e-08
-5.19855e-07
-4.04877e-09
-3.06634e-08
-4.97349e-07
-4.94906e-09
-3.14579e-08
-5.10188e-07
-6.43092e-09
-3.36864e-08
-5.16355e-07
-8.931e-09
-3.75423e-08
-5.2156e-07
-1.36758e-08
-4.33475e-08
-5.58881e-07
-1.85996e-08
-5.72053e-08
-6.52687e-07
-1.80575e-08
-7.92428e-08
-9.39236e-07
-9.91616e-09
-1.23447e-07
-1.37142e-06
1.47954e-08
-1.70184e-07
-1.65641e-06
-1.22866e-07
-1.55594e-06
-1.00894e-09
-3.01024e-07
-3.18183e-07
3.56592e-09
-3.08038e-07
-2.88802e-07
6.46349e-09
-1.0366e-07
-8.61587e-08
1.86489e-09
-5.84575e-08
-1.04369e-07
1.03485e-09
-6.28409e-08
-3.38712e-07
8.63579e-10
-2.11467e-08
-2.11076e-06
6.15483e-10
-2.07415e-08
-1.30809e-06
-2.1544e-10
-2.66779e-08
-9.60686e-07
2.91244e-10
-3.46989e-08
-8.09749e-07
2.36049e-10
-3.7756e-08
-5.66213e-07
-4.53979e-11
-3.86921e-08
-5.1112e-07
1.90239e-10
-3.98444e-08
-4.80678e-07
7.92077e-10
-4.21112e-08
-4.36191e-07
9.00407e-10
-4.53015e-08
-3.72483e-07
-1.16478e-10
-4.9145e-08
-3.23273e-07
-1.62982e-10
-6.12945e-08
-2.73373e-07
4.22907e-10
-6.97999e-08
-8.86976e-08
-9.23619e-11
-1.33952e-07
-1.32285e-07
4.87287e-11
-1.93008e-07
-1.56517e-07
-1.32304e-07
-1.09988e-07
-2.3992e-09
-3.07233e-07
-7.13873e-08
-7.26866e-10
-3.14874e-07
-8.19932e-08
1.27714e-09
-1.0324e-07
8.13741e-08
-1.63115e-10
-1.69624e-08
1.48272e-07
-2.82097e-10
-6.78881e-08
-2.41079e-07
-5.32611e-10
-3.63859e-08
-4.9579e-07
-2.33924e-10
-3.36551e-08
-5.64825e-07
5.77781e-10
-3.97075e-08
-4.78302e-07
7.95671e-10
-4.46818e-08
-3.53877e-07
5.51602e-10
-4.70989e-08
-3.33494e-07
4.25702e-10
-4.75485e-08
-3.33277e-07
4.14972e-10
-4.81938e-08
-3.25762e-07
4.22587e-10
-4.92926e-08
-3.10792e-07
1.92886e-10
-5.04925e-08
-2.93855e-07
-3.60451e-10
-5.26042e-08
-2.91268e-07
-4.33824e-10
-6.32015e-08
-2.63528e-07
-2.94306e-10
-5.13983e-08
-2.40003e-08
-1.18368e-09
-1.35687e-07
-6.77449e-08
2.05505e-10
-2.04836e-07
-9.18749e-08
-1.6443e-07
-5.46357e-08
-3.06469e-09
-3.00851e-07
-5.39725e-08
-5.56036e-10
-3.1727e-07
-1.52893e-07
1.98961e-09
-1.35883e-07
-6.56805e-08
3.95179e-10
-3.29845e-08
7.25877e-08
-7.59272e-10
-6.68344e-08
-1.89442e-07
-7.17996e-10
-4.59969e-08
-3.94186e-07
1.05914e-09
-4.40601e-08
-4.06866e-07
1.49425e-09
-4.71252e-08
-3.13924e-07
1.01735e-09
-4.83105e-08
-2.72601e-07
4.64611e-10
-4.82221e-08
-2.57809e-07
2.23086e-10
-4.80568e-08
-2.5604e-07
9.10993e-11
-4.82119e-08
-2.54232e-07
-1.67187e-10
-4.86887e-08
-2.54855e-07
-6.82378e-10
-4.94402e-08
-2.61328e-07
-1.11449e-09
-5.15358e-08
-2.69064e-07
-4.89032e-10
-6.20501e-08
-2.36511e-07
1.69085e-12
-5.11913e-08
1.38191e-08
-9.26962e-10
-1.14105e-07
-2.85679e-08
1.67045e-10
-2.01573e-07
-1.39425e-07
-1.82753e-07
-1.29155e-08
-1.26261e-09
-2.92002e-07
-6.0554e-08
1.34443e-09
-3.16336e-07
-1.41882e-07
2.65264e-09
-1.45807e-07
-2.38601e-07
2.38445e-09
-6.66362e-08
-7.59862e-08
1.34506e-09
-6.28932e-08
-1.84443e-07
6.32223e-10
-4.98119e-08
-2.70917e-07
1.3694e-09
-4.71537e-08
-2.51282e-07
1.10655e-09
-4.65228e-08
-2.27278e-07
5.68497e-10
-4.58224e-08
-2.23259e-07
2.09592e-10
-4.52729e-08
-2.2688e-07
-2.78537e-11
-4.5038e-08
-2.29546e-07
-3.01435e-10
-4.50945e-08
-2.32033e-07
-6.81653e-10
-4.54746e-08
-2.37671e-07
-1.27021e-09
-4.62782e-08
-2.50681e-07
-1.9588e-09
-4.87374e-08
-2.65158e-07
-1.26324e-09
-5.93018e-08
-2.11103e-07
-5.71335e-10
-5.52699e-08
-4.81943e-09
-3.67551e-10
-7.08314e-08
-2.69209e-09
8.67479e-10
-1.91421e-07
-2.08715e-07
-1.82323e-07
-3.30726e-08
-5.19537e-10
-2.89746e-07
-1.92276e-08
1.05698e-09
-3.16207e-07
-4.29952e-08
1.30585e-09
-1.56582e-07
-3.97205e-07
3.55998e-09
-8.66848e-08
-1.05814e-07
2.9718e-09
-5.54529e-08
-2.14639e-07
1.59938e-09
-4.60806e-08
-2.31781e-07
1.27556e-09
-4.28287e-08
-2.07664e-07
7.63017e-10
-4.1123e-08
-2.0458e-07
4.32389e-10
-4.00085e-08
-2.06452e-07
1.54454e-10
-3.94576e-08
-2.08482e-07
-1.54128e-10
-3.92841e-08
-2.1143e-07
-5.32329e-10
-3.93686e-08
-2.14456e-07
-1.06227e-09
-3.98419e-08
-2.22879e-07
-1.79635e-09
-4.09297e-08
-2.38979e-07
-2.18521e-09
-4.37918e-08
-2.48349e-07
-9.56484e-10
-5.30568e-08
-1.66252e-07
-4.25057e-10
-4.66429e-08
4.47195e-09
1.21358e-10
-3.27015e-08
1.1083e-07
1.65816e-09
-1.70749e-07
-2.34006e-07
-1.67233e-07
-4.14427e-08
-1.68444e-09
-2.85806e-07
-1.36999e-07
-1.13426e-09
-3.17281e-07
5.87942e-10
4.27073e-10
-1.86038e-07
-5.01891e-07
3.5822e-09
-9.11829e-08
-7.23984e-08
3.20505e-09
-4.49889e-08
-2.35383e-07
2.42054e-09
-3.70106e-08
-2.06953e-07
1.63557e-09
-3.39035e-08
-1.88897e-07
9.81644e-10
-3.24075e-08
-1.82447e-07
5.12817e-10
-3.15172e-08
-1.75731e-07
1.34694e-10
-3.10933e-08
-1.76552e-07
-2.17152e-10
-3.10345e-08
-1.80477e-07
-6.57537e-10
-3.10954e-08
-1.82938e-07
-1.29238e-09
-3.15958e-08
-1.90726e-07
-2.18083e-09
-3.27597e-08
-2.04533e-07
-2.54953e-09
-3.53774e-08
-2.04098e-07
-1.16703e-09
-4.12828e-08
-1.10928e-07
-2.37989e-11
-4.19206e-08
2.44952e-08
-6.90082e-10
-1.96341e-08
1.69783e-07
-7.78792e-10
-1.3176e-07
-1.16768e-07
-1.51619e-07
3.05971e-08
-2.80642e-09
-2.5735e-07
-2.95176e-07
-3.31796e-09
-3.1937e-07
-3.03132e-08
5.11598e-10
-2.10352e-07
-2.7106e-07
3.25524e-09
-8.26868e-08
-8.51954e-09
3.2105e-09
-2.68542e-08
-1.69025e-07
2.97905e-09
-2.15322e-08
-1.44415e-07
1.88395e-09
-1.97663e-08
-1.26021e-07
1.07913e-09
-1.88181e-08
-1.11858e-07
5.42177e-10
-1.83429e-08
-1.03573e-07
1.39264e-10
-1.80698e-08
-1.02972e-07
-2.40989e-10
-1.7964e-08
-1.06136e-07
-7.41453e-10
-1.80696e-08
-1.07135e-07
-1.48397e-09
-1.83863e-08
-1.13375e-07
-2.53111e-09
-1.91904e-08
-1.25762e-07
-2.67597e-09
-2.05856e-08
-1.13351e-07
-1.20504e-09
-2.01576e-08
-2.81887e-08
1.59555e-10
-4.13034e-08
4.81857e-08
-3.4128e-10
-3.9542e-08
8.7605e-08
-1.15235e-09
-1.07418e-07
5.55605e-08
-1.57662e-07
6.25425e-08
-2.18397e-09
-2.17408e-07
-1.30281e-07
-1.39344e-09
-3.23173e-07
-5.49663e-08
1.64923e-09
-2.14936e-07
-3.88565e-08
1.58148e-09
-8.77428e-08
1.19147e-08
1.20864e-09
-1.34769e-08
1.94394e-08
1.52517e-09
-9.1833e-09
7.33787e-09
1.20269e-09
-8.49687e-09
1.42917e-08
7.15406e-10
-7.35427e-09
2.19886e-08
3.52387e-10
-7.58556e-09
2.37622e-08
8.07708e-11
-7.45165e-09
2.37389e-08
-1.55018e-10
-6.90962e-09
2.30153e-08
-4.83534e-10
-7.40836e-09
2.19023e-08
-8.9565e-10
-7.52748e-09
1.95721e-08
-1.17538e-09
-7.95043e-09
1.39849e-08
-8.9207e-10
-8.80624e-09
2.82962e-08
-8.3532e-10
-8.76047e-09
7.6137e-08
1.2947e-10
-5.47304e-08
2.93669e-08
1.1147e-09
-8.21904e-08
-3.3311e-08
2.02983e-09
-1.24372e-07
6.86005e-08
-1.62629e-07
-3.80342e-08
-8.07682e-10
-2.01959e-07
6.06742e-08
8.16689e-10
-3.25728e-07
-7.24921e-08
1.92125e-09
-2.14492e-07
-3.42283e-08
9.57288e-10
-1.02287e-07
-1.93391e-08
3.24896e-10
-1.53959e-08
2.15081e-08
9.40834e-11
-6.25973e-09
1.94702e-08
3.11345e-11
-5.04457e-09
1.90899e-08
2.557e-11
-4.13508e-09
1.74944e-08
7.98176e-12
-4.2004e-09
1.75491e-08
-4.19474e-12
-4.08935e-09
1.72775e-08
1.37386e-11
-3.69914e-09
1.68062e-08
1.075e-11
-4.00992e-09
1.7403e-08
-2.06096e-11
-4.03576e-09
1.78422e-08
-8.54304e-11
-4.34002e-09
1.8806e-08
-5.06674e-10
-5.46626e-09
1.90102e-08
-1.65182e-09
-1.09873e-08
1.88216e-08
-4.26377e-10
-7.00126e-08
-1.83817e-08
8.28008e-10
-1.12499e-07
-6.94901e-08
3.94257e-11
-1.44402e-07
8.18722e-09
-1.60809e-07
7.42381e-09
3.78966e-11
-2.08166e-07
5.81313e-08
1.23063e-09
-3.2269e-07
-6.8106e-08
1.92708e-09
-2.13108e-07
-5.66199e-08
1.04049e-09
-1.04209e-07
-2.5047e-08
2.32684e-10
-1.86692e-08
-5.29998e-09
4.5604e-11
-5.93706e-09
9.04003e-10
2.11426e-11
-4.48243e-09
2.52326e-09
-3.57549e-12
-3.46581e-09
1.88346e-09
9.58684e-13
-3.45e-09
2.79676e-09
1.11963e-11
-3.34537e-09
2.75179e-09
-6.47955e-12
-3.03464e-09
1.81114e-09
-6.75706e-12
-3.24158e-09
2.78614e-09
-1.41311e-11
-3.21126e-09
2.97229e-09
-6.39391e-11
-3.51325e-09
3.01535e-09
-4.40073e-10
-4.86257e-09
1.8836e-09
-1.81463e-09
-1.2591e-08
-3.71313e-09
-8.15865e-10
-7.46762e-08
-3.93765e-08
2.35289e-10
-1.21397e-07
-1.5823e-08
-2.91057e-10
-1.49561e-07
3.81973e-09
-1.62093e-07
-1.91169e-09
7.47044e-10
-2.14268e-07
5.76156e-08
2.47335e-11
-3.14672e-07
-1.20272e-08
5.59805e-10
-2.1202e-07
-5.24073e-08
1.00325e-09
-1.0334e-07
-1.39593e-08
3.83879e-11
-1.65843e-08
-1.01706e-09
-2.91777e-12
-5.73545e-09
5.19333e-10
1.15827e-11
-4.56133e-09
-1.25757e-09
1.81854e-13
-3.14545e-09
8.24741e-10
8.83257e-13
-3.47071e-09
-8.90368e-10
3.46047e-12
-3.36749e-09
-8.67872e-10
-3.11872e-12
-2.73021e-09
7.79536e-10
-3.81582e-12
-3.25877e-09
-8.43774e-10
-2.1964e-11
-3.22163e-09
-8.70168e-10
-2.03548e-11
-3.4829e-09
-7.49006e-10
-3.80883e-10
-5.2211e-09
-2.85623e-09
-1.47914e-09
-1.25126e-08
-7.16362e-09
-1.06983e-10
-7.6099e-08
-2.44529e-08
9.16068e-10
-1.237e-07
-7.29196e-09
7.22743e-10
-1.51388e-07
-5.08962e-08
-1.61555e-07
-3.07209e-08
2.5074e-10
-2.1272e-07
5.18841e-08
-8.18045e-10
-3.20654e-07
2.11313e-09
3.22949e-10
-2.12912e-07
-2.04061e-08
1.1537e-09
-1.01515e-07
-1.80743e-08
-7.50291e-11
-1.42449e-08
1.07655e-10
3.51692e-12
-5.49675e-09
1.16622e-09
-3.39739e-12
-4.29199e-09
4.43722e-10
1.13758e-11
-3.02122e-09
3.90758e-10
4.42797e-13
-3.31188e-09
2.28991e-10
-1.30452e-11
-3.21365e-09
2.19201e-10
1.27268e-11
-2.6055e-09
4.28883e-10
3.45415e-13
-3.14699e-09
1.05394e-10
-2.79998e-11
-3.12077e-09
2.68517e-11
7.80604e-11
-3.42844e-09
4.78575e-10
-3.77448e-10
-5.03183e-09
-1.05938e-09
-1.14902e-09
-9.45292e-09
6.40994e-09
-9.97982e-10
-7.64164e-08
-3.09882e-08
-6.01706e-10
-1.24612e-07
-2.05984e-08
5.40255e-10
-1.51761e-07
-1.00538e-08
-1.62688e-07
-2.52862e-08
-4.38507e-10
-2.09897e-07
5.10168e-08
-9.87398e-10
-3.31394e-07
-3.11269e-08
-6.0506e-10
-2.16897e-07
-3.37881e-08
3.4787e-10
-9.99996e-08
-2.04362e-08
-1.03769e-10
-1.29911e-08
3.55961e-09
-1.55468e-11
-5.44298e-09
1.21266e-09
-1.04431e-11
-4.16245e-09
4.5626e-10
-3.19171e-11
-2.87944e-09
3.12364e-10
-5.68678e-12
-3.32398e-09
2.4097e-10
2.12244e-11
-3.21455e-09
2.68779e-10
1.48845e-12
-2.47324e-09
2.87638e-10
-2.15353e-11
-3.08756e-09
1.28423e-10
3.61914e-11
-3.20642e-09
8.78426e-11
1.9056e-10
-3.78568e-09
-3.9975e-10
-1.57449e-10
-4.11464e-09
1.68509e-09
-5.64689e-10
-6.69627e-09
7.68889e-09
-1.70956e-09
-7.50655e-08
-1.93127e-08
-1.989e-09
-1.2502e-07
-4.65307e-08
1.33178e-09
-1.53847e-07
2.19858e-08
-1.63843e-07
-4.35606e-08
-1.186e-10
-1.98516e-07
1.93975e-09
-1.231e-10
-3.31976e-07
-4.20143e-08
-8.89788e-10
-2.21336e-07
-5.72922e-08
-2.52587e-10
-1.01009e-07
-7.563e-10
2.79541e-10
-1.06503e-08
9.00669e-09
-3.99747e-11
-5.38788e-09
-2.69542e-10
-3.6071e-13
-4.1658e-09
4.01264e-10
-5.59294e-12
-2.82e-09
2.74367e-10
-7.19424e-13
-3.3966e-09
-2.4201e-11
3.9734e-12
-3.29199e-09
-5.03638e-11
-3.58146e-12
-2.46698e-09
9.55799e-11
1.73051e-11
-3.09513e-09
2.03654e-10
1.0292e-10
-3.36171e-09
-3.95198e-11
1.0854e-10
-4.01994e-09
-1.04183e-09
-3.33965e-10
-2.65981e-09
3.26681e-09
-5.42202e-10
-5.32237e-09
3.53774e-09
-1.24563e-09
-7.31495e-08
2.60646e-08
-1.59675e-09
-1.24411e-07
-2.11328e-08
-6.19387e-10
-1.57122e-07
-3.65671e-08
-1.65369e-07
-3.90041e-08
-4.27249e-10
-1.68236e-07
2.1695e-08
2.30919e-10
-3.32523e-07
-3.47717e-08
-1.53946e-09
-2.23295e-07
-4.66225e-08
-1.07098e-09
-1.05465e-07
-1.40587e-08
3.64246e-10
-8.76084e-09
9.19111e-09
-5.4324e-11
-5.30809e-09
-9.90185e-10
3.90768e-12
-4.45819e-09
-4.43583e-10
2.33759e-11
-2.88137e-09
3.72952e-11
4.81434e-12
-3.49337e-09
-3.43492e-10
-1.51283e-11
-3.41111e-09
-4.17384e-10
-7.57954e-12
-2.59496e-09
-2.00502e-10
3.95272e-11
-3.26177e-09
-1.95059e-10
1.22029e-10
-3.72109e-09
-8.31967e-10
7.39887e-11
-3.48205e-09
1.36665e-09
-1.92908e-10
-1.63348e-09
2.43976e-09
-5.56038e-10
-4.7879e-09
1.02556e-10
-1.47257e-09
-7.11058e-08
4.89605e-09
-9.08379e-10
-1.21897e-07
2.52662e-08
-2.32888e-09
-1.55642e-07
-6.48834e-08
-1.61847e-07
-6.70079e-08
2.20683e-10
-1.31303e-07
4.06369e-08
-2.07946e-10
-3.33362e-07
-1.48678e-08
-1.51047e-09
-2.24176e-07
-2.67485e-08
-1.1702e-09
-1.12693e-07
-4.66704e-08
1.33804e-10
-7.87722e-09
6.26909e-09
-9.88394e-12
-5.84602e-09
-1.64524e-09
-3.61e-13
-4.80568e-09
-1.48452e-09
1.53677e-11
-3.08791e-09
-4.74419e-10
-2.74356e-13
-3.70446e-09
-9.36007e-10
-1.62968e-11
-3.63367e-09
-9.63477e-10
4.79678e-12
-2.88712e-09
-6.73574e-10
2.9826e-11
-3.58504e-09
-1.16855e-09
7.86147e-11
-4.35097e-09
-2.15963e-09
5.16973e-11
-2.53725e-09
3.05531e-09
1.14989e-10
-1.19037e-09
1.59783e-09
-3.97144e-10
-4.35071e-09
-6.32859e-10
-1.29623e-09
-6.88685e-08
-8.2214e-09
4.96241e-10
-1.20049e-07
4.29244e-08
7.66003e-10
-1.42697e-07
7.42007e-09
-1.38334e-07
2.66893e-08
1.51028e-09
-9.54398e-08
2.2356e-08
-4.65221e-10
-3.35767e-07
-1.26399e-08
-1.13179e-09
-2.25268e-07
-2.03379e-08
-4.25004e-10
-1.18113e-07
-4.03898e-08
3.01495e-10
-7.67014e-09
3.61238e-09
4.47281e-11
-6.90945e-09
-3.33769e-09
1.18542e-11
-4.7447e-09
8.18481e-10
2.16285e-11
-3.28685e-09
-4.51251e-10
7.28488e-13
-3.63445e-09
7.70586e-10
-2.15354e-11
-3.58942e-09
6.81554e-10
1.68722e-11
-3.26522e-09
-8.33755e-10
4.22519e-11
-3.59612e-09
6.23809e-10
5.01925e-11
-4.29976e-09
8.89427e-10
4.8981e-11
-1.70715e-09
2.92044e-09
1.73912e-10
-8.86552e-10
1.48428e-09
4.72001e-10
-3.57416e-09
4.28057e-09
9.65903e-10
-6.74579e-08
-3.8363e-09
1.89416e-09
-1.11834e-07
6.33278e-09
1.27093e-09
-1.07823e-07
1.86335e-07
-8.55665e-08
3.41991e-07
8.00028e-10
-5.386e-08
2.51174e-08
-2.5704e-10
-3.60056e-07
-1.34811e-08
-5.52456e-10
-2.35616e-07
-1.7934e-08
-3.36441e-10
-1.20528e-07
-2.67029e-08
-1.16459e-10
-9.09986e-09
-1.71976e-09
-2.15515e-11
-7.13264e-09
-1.40543e-09
-1.10001e-11
-5.02432e-09
9.67464e-10
-4.09017e-14
-3.44232e-09
-3.65724e-10
1.58261e-11
-3.70211e-09
1.05806e-09
1.51114e-11
-3.62769e-09
1.05318e-09
-1.15969e-11
-3.28274e-09
-3.12012e-10
1.75898e-11
-3.48102e-09
1.54042e-09
4.60244e-11
-4.16361e-09
1.97471e-09
6.34527e-11
-1.25164e-09
1.70597e-09
4.38914e-10
-7.18706e-10
1.43371e-09
1.755e-09
-2.80608e-09
6.74932e-09
3.81748e-09
-6.11275e-08
7.73883e-08
2.79542e-09
-8.42699e-08
1.57974e-07
-3.1935e-09
-5.91926e-08
3.4193e-07
-3.26661e-08
4.15977e-07
7.2222e-10
7.75707e-09
1.59645e-11
-4.41053e-09
1.31665e-10
-4.77636e-09
-9.81464e-10
-1.06826e-08
-1.11692e-09
-3.25955e-09
-7.82006e-11
2.7366e-09
-3.59588e-11
-8.20561e-10
-3.15509e-11
-3.1801e-10
-2.15142e-11
-5.16059e-10
1.97509e-12
-3.68394e-10
1.29434e-11
2.45049e-10
-1.36198e-11
-1.10542e-10
-3.57518e-11
-4.6192e-10
4.67209e-11
3.39519e-10
6.88317e-10
1.37328e-09
2.66266e-09
6.76509e-09
4.8192e-09
1.28028e-07
3.47194e-09
2.12005e-07
2.19243e-10
1.62238e-07
1.8698e-07
-1.62644e-08
-2.65507e-07
-2.34683e-06
2.96384e-08
-2.70452e-07
-1.92054e-06
3.29545e-08
-1.3173e-07
-1.30198e-06
2.9756e-08
-1.03502e-07
-1.18515e-06
2.86271e-08
-6.12561e-08
-6.43979e-07
1.83854e-08
-2.58521e-08
-9.44742e-07
5.31148e-09
-1.91967e-08
-7.41424e-07
-1.62677e-09
-2.17506e-08
-6.26805e-07
-4.90966e-09
-2.83284e-08
-6.10879e-07
-4.54522e-09
-2.84013e-08
-4.85948e-07
-4.11048e-09
-2.94335e-08
-4.59719e-07
-4.9975e-09
-3.01804e-08
-4.68867e-07
-6.5077e-09
-3.24003e-08
-4.69752e-07
-9.12439e-09
-3.63587e-08
-4.66338e-07
-1.41923e-08
-4.22573e-08
-4.90571e-07
-1.963e-08
-5.58894e-08
-5.63315e-07
-1.94956e-08
-7.88847e-08
-8.29702e-07
-1.09101e-08
-1.22306e-07
-1.21818e-06
1.60481e-08
-1.69352e-07
-1.46654e-06
-1.23638e-07
-1.41843e-06
-1.14188e-09
-3.00264e-07
-2.75486e-07
3.87611e-09
-3.06754e-07
-2.53553e-07
7.12543e-09
-1.14005e-07
-1.10186e-07
2.62925e-09
-7.17145e-08
-1.37606e-07
1.31817e-09
-6.10997e-08
-3.37427e-07
8.94309e-10
-2.05242e-08
-2.11484e-06
6.1767e-10
-1.97724e-08
-1.30635e-06
-2.39994e-10
-2.554e-08
-9.54958e-07
3.21787e-10
-3.36796e-08
-8.03503e-07
2.47395e-10
-3.64556e-08
-5.56353e-07
-1.53505e-10
-3.72944e-08
-5.01191e-07
1.60499e-11
-3.8429e-08
-4.70826e-07
6.36442e-10
-4.07308e-08
-4.26582e-07
8.24287e-10
-4.40673e-08
-3.62536e-07
-1.48685e-10
-4.80139e-08
-3.13923e-07
-3.70696e-10
-5.99286e-08
-2.67377e-07
2.08663e-10
-7.20932e-08
-9.71663e-08
-7.18272e-11
-1.34131e-07
-1.17814e-07
2.66411e-10
-1.92373e-07
-1.29433e-07
-1.33315e-07
-9.85675e-08
-2.43785e-09
-3.07849e-07
-6.21085e-08
-6.78307e-10
-3.14799e-07
-7.5815e-08
1.51239e-09
-1.11753e-07
7.57591e-08
8.23828e-11
-3.74753e-08
1.07757e-07
-2.45573e-10
-6.68195e-08
-2.34818e-07
-5.73583e-10
-3.47071e-08
-4.77781e-07
-2.4136e-10
-3.22791e-08
-5.50362e-07
5.99669e-10
-3.85847e-08
-4.63779e-07
7.98221e-10
-4.38499e-08
-3.41512e-07
5.47829e-10
-4.63546e-08
-3.21211e-07
4.34319e-10
-4.68467e-08
-3.21292e-07
4.37059e-10
-4.75463e-08
-3.14289e-07
4.52813e-10
-4.87036e-08
-3.00573e-07
2.23879e-10
-4.99162e-08
-2.87055e-07
-3.63627e-10
-5.18555e-08
-2.8637e-07
-4.87143e-10
-6.21655e-08
-2.61437e-07
-2.85807e-10
-5.89703e-08
-4.08059e-08
-1.1042e-09
-1.38106e-07
-6.34432e-08
2.42929e-10
-2.04264e-07
-8.03961e-08
-1.64819e-07
-2.30736e-08
-3.14899e-09
-3.0235e-07
-5.85895e-08
-6.9799e-10
-3.17322e-07
-1.52802e-07
2.08226e-09
-1.35752e-07
-4.1149e-08
5.31798e-10
-4.49231e-08
8.43085e-08
-8.77556e-10
-6.61356e-08
-1.88818e-07
-8.31062e-10
-4.4452e-08
-3.83469e-07
1.05107e-09
-4.31336e-08
-3.9668e-07
1.50813e-09
-4.65875e-08
-3.05666e-07
1.02397e-09
-4.79188e-08
-2.67672e-07
4.66037e-10
-4.78652e-08
-2.55729e-07
2.25719e-10
-4.77168e-08
-2.54887e-07
9.86259e-11
-4.78804e-08
-2.5379e-07
-1.49843e-10
-4.83489e-08
-2.55032e-07
-6.52792e-10
-4.90483e-08
-2.61781e-07
-1.08608e-09
-5.09528e-08
-2.69632e-07
-5.62153e-10
-6.12168e-08
-2.38255e-07
-5.1212e-11
-5.80341e-08
1.2205e-08
-7.92133e-10
-1.24214e-07
-4.44945e-08
2.57135e-10
-2.00698e-07
-1.44769e-07
-1.82806e-07
5.05262e-09
-1.42018e-09
-2.94105e-07
-7.05126e-08
1.14443e-09
-3.16628e-07
-1.45674e-07
2.74073e-09
-1.44664e-07
-2.30169e-07
2.40128e-09
-6.95458e-08
-4.58451e-08
1.24157e-09
-6.23904e-08
-1.87391e-07
5.83905e-10
-4.91098e-08
-2.6513e-07
1.36189e-09
-4.67929e-08
-2.4816e-07
1.10168e-09
-4.62713e-08
-2.27398e-07
5.65867e-10
-4.56037e-08
-2.253e-07
2.09157e-10
-4.50692e-08
-2.29611e-07
-2.4349e-11
-4.48382e-08
-2.32495e-07
-2.92342e-10
-4.48923e-08
-2.35062e-07
-6.64956e-10
-4.52543e-08
-2.40704e-07
-1.24112e-09
-4.60011e-08
-2.53449e-07
-1.8987e-09
-4.82931e-08
-2.67432e-07
-1.26538e-09
-5.87753e-08
-2.14709e-07
-6.01363e-10
-6.12867e-08
-1.69363e-09
-2.50517e-10
-8.94415e-08
-4.22489e-08
9.21821e-10
-1.91116e-07
-2.21129e-07
-1.82716e-07
-3.37745e-08
-4.73176e-10
-2.92768e-07
-2.30779e-08
1.12268e-09
-3.16559e-07
-4.49143e-08
1.41016e-09
-1.54679e-07
-3.86327e-07
3.54038e-09
-8.75246e-08
-8.75506e-08
2.86591e-09
-5.49808e-08
-2.22374e-07
1.53273e-09
-4.56975e-08
-2.34218e-07
1.25601e-09
-4.26247e-08
-2.12017e-07
7.54478e-10
-4.09688e-08
-2.09899e-07
4.29059e-10
-3.9871e-08
-2.12409e-07
1.54024e-10
-3.93269e-08
-2.14491e-07
-1.51752e-10
-3.91543e-08
-2.17337e-07
-5.25976e-10
-3.92358e-08
-2.20262e-07
-1.04945e-09
-3.96951e-08
-2.28432e-07
-1.77112e-09
-4.07439e-08
-2.44022e-07
-2.1506e-09
-4.35035e-08
-2.53325e-07
-1.09896e-09
-5.2908e-08
-1.74412e-07
-6.91185e-10
-5.51916e-08
-2.81653e-09
1.20241e-10
-5.29587e-08
6.78573e-08
1.69667e-09
-1.74164e-07
-2.56391e-07
-1.70261e-07
-5.05561e-08
-1.73193e-09
-2.90509e-07
-1.42269e-07
-1.0848e-09
-3.17593e-07
1.21179e-09
6.39879e-10
-1.83162e-07
-4.71953e-07
3.69153e-09
-9.28899e-08
-6.96246e-08
3.14501e-09
-4.50287e-08
-2.46395e-07
2.37957e-09
-3.68578e-08
-2.16109e-07
1.61783e-09
-3.37966e-08
-1.97857e-07
9.73074e-10
-3.23198e-08
-1.91258e-07
5.09024e-10
-3.14381e-08
-1.8446e-07
1.33874e-10
-3.10162e-08
-1.85225e-07
-2.15651e-10
-3.0957e-08
-1.89053e-07
-6.52715e-10
-3.10164e-08
-1.9145e-07
-1.28241e-09
-3.15112e-08
-1.99019e-07
-2.1593e-09
-3.26604e-08
-2.1251e-07
-2.5198e-09
-3.5265e-08
-2.12962e-07
-1.30997e-09
-4.19313e-08
-1.25265e-07
-2.07787e-10
-5.03143e-08
1.77823e-08
-6.44024e-10
-3.79312e-08
1.52514e-07
-7.98393e-10
-1.41624e-07
-1.53706e-07
-1.57922e-07
2.01036e-08
-2.83314e-09
-2.63687e-07
-3.24407e-07
-3.41243e-09
-3.19779e-07
-2.72473e-08
5.76103e-10
-2.07713e-07
-2.47611e-07
3.39527e-09
-8.85979e-08
-1.66445e-08
3.24372e-09
-3.00443e-08
-1.87217e-07
2.97415e-09
-2.22136e-08
-1.60674e-07
1.87846e-09
-2.01225e-08
-1.39875e-07
1.0767e-09
-1.90899e-08
-1.25374e-07
5.41182e-10
-1.85707e-08
-1.16883e-07
1.3897e-10
-1.82783e-08
-1.16246e-07
-2.40573e-10
-1.81675e-08
-1.19489e-07
-7.40205e-10
-1.82766e-08
-1.20312e-07
-1.4828e-09
-1.86132e-08
-1.26515e-07
-2.53731e-09
-1.94736e-08
-1.39015e-07
-2.73082e-09
-2.11884e-08
-1.28855e-07
-1.32084e-09
-2.49125e-08
-5.05438e-08
2.39735e-10
-4.90594e-08
4.52818e-08
-2.33621e-10
-4.96462e-08
1.02951e-07
-1.10505e-09
-1.18189e-07
3.35256e-08
-1.61394e-07
6.13165e-08
-2.30619e-09
-2.26108e-07
-1.64066e-07
-1.50219e-09
-3.24263e-07
-5.13217e-08
1.6685e-09
-2.13552e-07
-3.56473e-08
1.86231e-09
-9.2327e-08
1.61086e-08
1.5319e-09
-1.75705e-08
5.48243e-09
1.71005e-09
-9.91582e-09
-6.38587e-09
1.29295e-09
-8.88347e-09
2.52344e-09
7.61062e-10
-7.57373e-09
1.02652e-08
3.74271e-10
-7.79675e-09
1.27919e-08
8.66108e-11
-7.6398e-09
1.28472e-08
-1.60104e-10
-7.05141e-09
1.15535e-08
-5.06816e-10
-7.59588e-09
1.10128e-08
-9.62871e-10
-7.73953e-09
8.55647e-09
-1.35292e-09
-8.23565e-09
2.28194e-09
-1.38904e-09
-9.43338e-09
1.5395e-08
-1.20874e-09
-1.38757e-08
6.31104e-08
1.90528e-10
-5.836e-08
3.87011e-08
1.21942e-09
-8.41818e-08
5.64106e-09
2.11167e-09
-1.28528e-07
7.78466e-08
-1.64076e-07
-3.29652e-08
-8.10855e-10
-2.11549e-07
5.14706e-08
7.28736e-10
-3.28235e-07
-7.03137e-08
1.85782e-09
-2.13846e-07
-3.52339e-08
9.47965e-10
-1.0212e-07
-7.11962e-09
3.67379e-10
-1.57339e-08
2.09541e-08
9.58098e-11
-6.21361e-09
1.57191e-08
3.29588e-11
-4.93379e-09
1.48494e-08
2.64418e-11
-3.94975e-09
1.35323e-08
8.54825e-12
-4.05304e-09
1.34802e-08
-4.01048e-12
-3.9394e-09
1.32477e-08
1.31381e-11
-3.508e-09
1.29053e-08
9.4166e-12
-3.86089e-09
1.33326e-08
-2.19972e-11
-3.89017e-09
1.36877e-08
-8.49494e-11
-4.20587e-09
1.44939e-08
-5.75248e-10
-5.37193e-09
1.51396e-08
-1.69001e-09
-1.15137e-08
1.84935e-08
-3.74495e-10
-7.01293e-08
-6.32524e-09
8.62248e-10
-1.12625e-07
-4.01146e-08
4.45856e-11
-1.44655e-07
2.49612e-08
-1.62077e-07
5.58364e-09
2.77569e-10
-2.16937e-07
6.46485e-08
1.42097e-09
-3.29068e-07
-6.94241e-08
1.89011e-09
-2.12788e-07
-5.82708e-08
9.7682e-10
-1.03911e-07
-2.19957e-08
2.08287e-10
-1.71329e-08
-2.44908e-09
3.7026e-11
-5.7836e-09
6.63641e-10
1.92926e-11
-4.24414e-09
1.74537e-09
-4.72118e-12
-3.27641e-09
1.20497e-09
8.9677e-13
-3.25125e-09
1.87609e-09
1.16817e-11
-3.15091e-09
1.84006e-09
-7.34022e-12
-2.85497e-09
1.1482e-09
-7.49443e-12
-3.05164e-09
1.86579e-09
-1.27141e-11
-3.02268e-09
1.9998e-09
-5.49734e-11
-3.31224e-09
2.05422e-09
-4.02291e-10
-4.60911e-09
1.39218e-09
-1.71336e-09
-1.17811e-08
-1.70382e-09
-7.17613e-10
-7.45689e-08
-3.5651e-08
2.62427e-10
-1.21422e-07
-7.72583e-09
-2.78721e-10
-1.4967e-07
9.61956e-09
-1.62104e-07
-4.62507e-09
8.41497e-10
-2.23442e-07
6.41417e-08
2.51166e-10
-3.27818e-07
-1.43193e-08
5.57181e-10
-2.11754e-07
-5.3969e-08
9.42463e-10
-1.03093e-07
-1.5257e-08
3.18094e-11
-1.60524e-08
-1.29816e-09
-3.55937e-12
-5.57833e-09
3.37948e-10
1.0643e-11
-4.36862e-09
-1.1223e-09
-4.24277e-14
-2.9698e-09
5.15991e-10
8.2622e-13
-3.31191e-09
-8.1117e-10
3.25912e-12
-3.21241e-09
-7.90157e-10
-2.97257e-12
-2.5672e-09
4.88008e-10
-3.60576e-12
-3.10759e-09
-7.69144e-10
-2.09459e-11
-3.0719e-09
-7.84831e-10
-1.75039e-11
-3.32186e-09
-7.18803e-10
-3.53165e-10
-4.92319e-09
-2.20333e-09
-1.40983e-09
-1.1967e-08
-5.4782e-09
-5.53247e-11
-7.60342e-08
-2.4322e-08
9.11077e-10
-1.23741e-07
-5.90505e-09
7.25291e-10
-1.51547e-07
-5.01316e-08
-1.61565e-07
-3.21104e-08
4.32564e-10
-2.22551e-07
5.02179e-08
-6.82184e-10
-3.30534e-07
7.61364e-09
2.40129e-10
-2.12797e-07
-2.03315e-08
1.0374e-09
-1.01387e-07
-2.08177e-08
-1.16607e-10
-1.44649e-08
-3.8248e-10
5.83594e-12
-5.33117e-09
7.69298e-10
-2.56522e-12
-4.17232e-09
3.04666e-10
1.19395e-11
-2.85042e-09
2.45669e-10
4.72694e-13
-3.19357e-09
1.77083e-10
-1.32225e-11
-3.09684e-09
1.72057e-10
1.31485e-11
-2.44808e-09
2.72972e-10
4.47262e-13
-3.03137e-09
9.55403e-11
-2.7017e-11
-3.00452e-09
4.61648e-11
7.68636e-11
-3.26935e-09
3.20936e-10
-3.44634e-10
-4.81306e-09
-6.4622e-10
-1.08598e-09
-9.10735e-09
4.55604e-09
-9.53999e-10
-7.63888e-08
-3.08068e-08
-5.73779e-10
-1.24662e-07
-2.01048e-08
5.30076e-10
-1.5264e-07
-4.42349e-09
-1.62711e-07
-2.54321e-08
-1.69261e-10
-2.19214e-07
4.62262e-08
-7.9896e-10
-3.34612e-07
-2.41956e-08
-5.95042e-10
-2.16887e-07
-2.94597e-08
2.66922e-10
-9.99588e-08
-2.32944e-08
-1.61839e-10
-1.29448e-08
2.39445e-09
-1.20258e-11
-5.1345e-09
8.15434e-10
-9.30989e-12
-4.03924e-09
3.1756e-10
-3.12738e-11
-2.71209e-09
1.96568e-10
-5.54567e-12
-3.17095e-09
1.31149e-10
2.11037e-11
-3.06566e-09
1.49127e-10
1.48566e-12
-2.32056e-09
1.80015e-10
-2.11691e-11
-2.97219e-09
9.35624e-11
3.46134e-11
-3.05578e-09
3.13007e-11
1.85269e-10
-3.57115e-09
-2.96717e-10
-1.18537e-10
-3.98136e-09
1.26749e-09
-5.04955e-10
-6.37747e-09
5.44211e-09
-1.68151e-09
-7.53115e-08
-1.64439e-08
-1.97502e-09
-1.25051e-07
-4.60737e-08
1.26107e-09
-1.5462e-07
2.22297e-08
-1.63881e-07
-4.48659e-08
1.48176e-10
-2.08548e-07
-1.09035e-08
9.447e-11
-3.35478e-07
-4.11213e-08
-9.01305e-10
-2.21169e-07
-5.12305e-08
-2.1207e-10
-1.00835e-07
-5.08821e-10
2.92652e-10
-1.04701e-08
5.73963e-09
-3.86226e-11
-4.95834e-09
-1.26423e-10
-6.3979e-13
-3.98331e-09
2.4639e-10
-5.3943e-12
-2.62394e-09
1.44237e-10
-7.08279e-13
-3.20661e-09
-3.79357e-11
3.79915e-12
-3.10791e-09
-5.59062e-11
-3.65912e-12
-2.29104e-09
3.46916e-11
1.68238e-11
-2.94924e-09
1.05363e-10
9.90217e-11
-3.17298e-09
-5.28948e-11
1.01083e-10
-3.84783e-09
-6.84322e-10
-3.33922e-10
-2.54737e-09
2.34481e-09
-5.20454e-10
-5.04912e-09
2.3028e-09
-1.23625e-09
-7.36565e-08
2.60009e-08
-1.61953e-09
-1.24836e-07
-1.68333e-08
-6.29756e-10
-1.5723e-07
-4.03416e-08
-1.65483e-07
-3.75617e-08
-1.33466e-10
-1.82328e-07
-9.68547e-09
4.82595e-10
-3.36339e-07
-3.50052e-08
-1.41949e-09
-2.23006e-07
-4.23554e-08
-9.29177e-10
-1.04911e-07
-9.36682e-09
3.78195e-10
-8.55224e-09
5.74805e-09
-5.21304e-11
-4.88297e-09
-6.11057e-10
3.35665e-12
-4.20869e-09
-3.14681e-10
2.24028e-11
-2.6511e-09
1.13847e-11
4.55396e-12
-3.29835e-09
-2.26949e-10
-1.46894e-11
-3.22077e-09
-2.76911e-10
-7.096e-12
-2.38791e-09
-1.41914e-10
3.82911e-11
-3.07962e-09
-1.54072e-10
1.16358e-10
-3.51173e-09
-5.58037e-10
7.10587e-11
-3.36948e-09
9.87296e-10
-1.828e-10
-1.55129e-09
1.70367e-09
-5.37868e-10
-4.53538e-09
-1.63898e-10
-1.42906e-09
-7.1364e-08
-9.86661e-10
-8.92186e-10
-1.23005e-07
2.66563e-08
-2.31212e-09
-1.56573e-07
-6.02514e-08
-1.63048e-07
-6.21875e-08
3.77058e-10
-1.4968e-07
2.50101e-09
2.13325e-11
-3.37292e-07
-1.33455e-08
-1.39383e-09
-2.23876e-07
-2.42326e-08
-1.11229e-09
-1.11575e-07
-3.94958e-08
1.10273e-10
-7.67436e-09
3.95975e-09
-8.29528e-12
-5.37512e-09
-9.73305e-10
-5.75103e-13
-4.62241e-09
-9.93288e-10
1.49365e-11
-2.84071e-09
-2.87122e-10
-2.25667e-13
-3.54684e-09
-6.06143e-10
-1.56761e-11
-3.4785e-09
-6.24115e-10
4.89573e-12
-2.65625e-09
-4.08937e-10
2.82148e-11
-3.43344e-09
-7.66216e-10
7.22719e-11
-4.18458e-09
-1.44075e-09
4.98787e-11
-2.43319e-09
2.14254e-09
1.18454e-10
-1.1269e-09
1.11179e-09
-3.72414e-10
-4.12626e-09
-4.182e-10
-1.32299e-09
-6.89171e-08
-1.11182e-08
4.45628e-10
-1.21596e-07
3.72069e-08
8.1525e-10
-1.47183e-07
-2.09044e-10
-1.45019e-07
1.2325e-08
1.62361e-09
-1.17327e-07
-1.43633e-08
-3.45744e-10
-3.39649e-07
-8.95841e-09
-1.07744e-09
-2.2502e-07
-1.87515e-08
-3.94157e-10
-1.17767e-07
-3.42062e-08
2.75493e-10
-7.24975e-09
2.36732e-09
4.12976e-11
-6.3554e-09
-1.99895e-09
9.65562e-12
-4.59504e-09
8.7359e-10
2.08635e-11
-3.0236e-09
-2.69888e-10
1.01698e-12
-3.48476e-09
7.74796e-10
-2.04196e-11
-3.44111e-09
7.12572e-10
1.59607e-11
-3.00448e-09
-5.04457e-10
3.91255e-11
-3.45137e-09
6.63954e-10
4.62099e-11
-4.14894e-09
8.9473e-10
4.55827e-11
-1.61151e-09
2.08405e-09
1.72923e-10
-8.30437e-10
1.05254e-09
4.59491e-10
-3.3643e-09
3.36618e-09
8.15669e-10
-6.79949e-08
-3.26177e-09
1.56927e-09
-1.14486e-07
-4.48658e-09
1.05934e-09
-1.17529e-07
1.51371e-07
-9.8629e-08
2.89461e-07
8.63159e-10
-8.53219e-08
-1.24639e-08
-2.12909e-10
-3.64488e-07
-1.12508e-08
-5.64402e-10
-2.35454e-07
-1.69757e-08
-3.24026e-10
-1.22094e-07
-2.43452e-08
-1.05442e-10
-8.3666e-09
-7.87086e-10
-2.15996e-11
-6.82061e-09
-9.75283e-10
-1.14868e-11
-4.70675e-09
1.01084e-09
-1.50082e-12
-3.16617e-09
-2.20902e-10
1.5314e-11
-3.45183e-09
9.37772e-10
1.61181e-11
-3.38437e-09
9.22283e-10
-1.30782e-11
-3.06006e-09
-1.73464e-10
1.52588e-11
-3.252e-09
1.22456e-09
4.39477e-11
-3.88923e-09
1.60289e-09
5.56616e-11
-1.15869e-09
1.22724e-09
3.63603e-10
-6.61003e-10
9.38364e-10
1.53954e-09
-2.59285e-09
4.66844e-09
3.52994e-09
-6.21295e-08
7.16092e-08
2.55861e-09
-9.06969e-08
1.33254e-07
-3.54974e-09
-7.68784e-08
3.01033e-07
-4.99839e-08
3.61791e-07
7.67099e-10
-1.11915e-08
3.17322e-11
-3.44468e-09
9.47254e-11
-4.76526e-09
-9.19817e-10
-9.3815e-09
-1.03813e-09
-1.87315e-09
-7.72496e-11
1.40816e-09
-3.23025e-11
-4.91965e-10
-2.9348e-11
-2.02076e-10
-2.01059e-11
-3.35483e-10
1.90908e-12
-2.49779e-10
1.18945e-11
7.44178e-11
-1.28147e-11
-7.46165e-11
-3.47658e-11
-2.92316e-10
3.68021e-11
1.4201e-10
5.53269e-10
7.61862e-10