/*--------------------------------*- C++ -*----------------------------------*\
| =========                 |                                                 |
| \\      /  F ield         | OpenFOAM: The Open Source CFD Toolbox           |
|  \\    /   O peration     | Version:  2.3.0                                 |
|   \\  /    A nd           | Web:      www.OpenFOAM.org                      |
|    \\/     M anipulation  |                                                 |
\*---------------------------------------------------------------------------*/
FoamFile
{
    version     2.0;
    format      ascii;
    class       volVectorField;
    location    "0.500023";
    object      U;
}
// * * * * * * * * * * * * * * * * * * * * * * * * * * * * * * * * * * * * * //

dimensions      [0 1 -1 0 0 0 0];

internalField   nonuniform List<vector> 
10000
(
(-0.267382 -1.34444 -0.755803)
(0.0958127 -1.35371 -0.639273)
(0.194119 -0.7408 -0.433783)
(0.152274 -0.593285 -0.395037)
(0.157625 -0.383154 -0.226696)
(0.145925 -0.228192 -0.311989)
(0.0526274 -0.147599 -0.248119)
(0.00639843 -0.146884 -0.209958)
(-0.0228065 -0.168351 -0.207043)
(-0.0289601 -0.165431 -0.16609)
(-0.0200562 -0.169906 -0.158246)
(-0.0247384 -0.171147 -0.161687)
(-0.030054 -0.178954 -0.162976)
(-0.0411464 -0.19525 -0.164024)
(-0.0577167 -0.229929 -0.174583)
(-0.0936484 -0.31232 -0.202099)
(-0.111901 -0.453221 -0.283407)
(-0.0863736 -0.658572 -0.407419)
(-0.0217564 -0.88555 -0.488671)
(0.1833 -0.726193 -0.456087)
(0.0131593 -1.63553 -0.104121)
(-0.0235312 -1.69277 -0.0936105)
(0.0636694 -0.714831 -0.0189604)
(0.0097403 -0.544366 -0.0205165)
(0.0108551 -0.3192 -0.104206)
(0.000100653 -0.054805 -0.647749)
(0.00942795 -0.0741639 -0.403045)
(-0.0026748 -0.105157 -0.297048)
(0.000195214 -0.156025 -0.249664)
(0.00302294 -0.163407 -0.175925)
(-0.000365472 -0.171254 -0.158717)
(-0.000188995 -0.178712 -0.149131)
(0.00230272 -0.195629 -0.135142)
(0.00655044 -0.222291 -0.11531)
(0.00347585 -0.252731 -0.10021)
(-0.00505679 -0.328094 -0.0833369)
(0.00259248 -0.432903 -0.0231574)
(0.00135721 -0.718392 -0.041371)
(-0.00282825 -1.01001 -0.0517019)
(0.00290702 -0.647743 -0.0342854)
(-0.00385359 -1.71315 -0.023688)
(-0.0228453 -1.73439 -0.0266792)
(0.0150557 -0.441129 0.0256156)
(-0.000916399 -0.110534 0.0549342)
(-0.000603131 -0.379185 -0.0754791)
(-0.00236315 -0.172695 -0.154608)
(-0.00361637 -0.150617 -0.175565)
(0.00105794 -0.18461 -0.148351)
(0.00533478 -0.226471 -0.109898)
(0.00349604 -0.251972 -0.103675)
(0.00262376 -0.257483 -0.103612)
(0.00210115 -0.263321 -0.101207)
(0.00249152 -0.272261 -0.0964763)
(0.00217693 -0.280891 -0.0918089)
(-4.33412e-05 -0.293308 -0.0907486)
(-0.00392076 -0.355556 -0.0817028)
(-0.00101437 -0.34498 -0.0033037)
(-0.00213372 -0.771663 -0.0215161)
(-0.0111718 -1.13673 -0.0307528)
(0.0137693 -0.824579 -0.0228521)
(-0.00833021 -1.70019 -0.0155766)
(-0.0256072 -1.76396 -0.0472484)
(0.0199317 -0.705903 -0.0258717)
(0.00182214 -0.0776368 0.0186113)
(0.00256647 -0.375393 -0.0585045)
(-0.0105846 -0.231613 -0.123747)
(0.00287505 -0.223231 -0.127345)
(0.00885559 -0.2565 -0.0980601)
(0.00763581 -0.269971 -0.0848821)
(0.00362085 -0.271415 -0.0798422)
(0.00153102 -0.270918 -0.0791795)
(0.000945297 -0.272277 -0.0784985)
(6.33679e-05 -0.275574 -0.0785876)
(-0.00192373 -0.280199 -0.080542)
(-0.00566218 -0.291204 -0.0829091)
(-0.00672406 -0.346681 -0.0725782)
(0.00139793 -0.225964 0.00443762)
(-0.00142447 -0.735697 -0.005435)
(-0.00866649 -1.13889 -0.0421626)
(0.0106077 -1.00312 -0.00714265)
(-0.00955492 -1.64371 -0.0170071)
(-0.00392919 -1.76115 -0.0426141)
(0.0188714 -0.804305 -0.0757172)
(0.0106604 -0.289341 -0.030932)
(0.0155265 -0.36721 -0.0562867)
(-0.000385815 -0.279778 -0.0846706)
(0.0074101 -0.266663 -0.0780692)
(0.00779042 -0.267478 -0.0700728)
(0.00450258 -0.266958 -0.0685018)
(0.00180874 -0.264484 -0.0694937)
(0.00051965 -0.263099 -0.0702808)
(-0.000830471 -0.263459 -0.0710368)
(-0.00252105 -0.265452 -0.0727771)
(-0.00505423 -0.269158 -0.0768386)
(-0.00905659 -0.281423 -0.0813839)
(-0.0127016 -0.342764 -0.0643474)
(-0.00108181 -0.342852 -0.00245462)
(-0.00561032 -0.530019 0.00737907)
(0.00182846 -1.10039 -0.0619718)
(0.00771443 -1.02748 -0.010059)
(-0.0181262 -1.60145 -0.00536729)
(0.0122982 -1.75372 -0.0127677)
(-0.000679778 -0.816194 -0.125067)
(0.0151468 -0.451387 -0.0365301)
(0.0242227 -0.33161 -0.0646795)
(0.00892274 -0.273712 -0.0710143)
(0.00883282 -0.257314 -0.0632604)
(0.00533789 -0.249471 -0.0621551)
(0.00313692 -0.242215 -0.0626279)
(0.00166752 -0.23858 -0.0632515)
(4.83412e-05 -0.237353 -0.0641822)
(-0.00176213 -0.237618 -0.0651335)
(-0.00415362 -0.239842 -0.0677727)
(-0.00764828 -0.245055 -0.0728187)
(-0.0123091 -0.260106 -0.0756773)
(-0.0118914 -0.316159 -0.0495142)
(0.00118749 -0.271181 0.00285259)
(-0.00591337 -0.255883 0.0433182)
(0.00739419 -1.02572 -0.0670052)
(0.010052 -0.997718 -0.013438)
(-0.0221575 -1.61784 -0.0398871)
(0.00273965 -1.75996 5.03161e-07)
(-0.015454 -0.924649 -0.160496)
(0.0199732 -0.512079 -0.0227702)
(0.020011 -0.284539 -0.0703405)
(0.0156021 -0.2383 -0.0620925)
(0.0112846 -0.218566 -0.0566478)
(0.00688825 -0.207451 -0.054716)
(0.00401773 -0.202317 -0.0526737)
(0.0016796 -0.199833 -0.052944)
(-0.000183008 -0.199132 -0.0541748)
(-0.00223104 -0.199807 -0.0549424)
(-0.0050752 -0.202839 -0.0573734)
(-0.0092824 -0.209709 -0.0616635)
(-0.0149511 -0.226453 -0.061292)
(-0.0133386 -0.273326 -0.0310735)
(0.000309962 -0.246601 0.00883641)
(-0.000486882 -0.107268 0.0558651)
(-0.00726052 -0.870532 -0.0290037)
(-0.00182517 -0.856847 0.00963636)
(-0.00974429 -1.55851 -0.0851008)
(-0.0212984 -1.76573 -0.0100608)
(-0.0153543 -1.1435 -0.0879974)
(0.0209741 -0.501452 -0.000928904)
(0.015643 -0.215335 -0.0479785)
(0.0199037 -0.17293 -0.0414283)
(0.0131956 -0.158148 -0.0363952)
(0.00773536 -0.15265 -0.0321538)
(0.00425453 -0.147899 -0.0296745)
(0.00177009 -0.145673 -0.0295121)
(-0.000222918 -0.145721 -0.0304758)
(-0.00245531 -0.14572 -0.0308114)
(-0.00578428 -0.148246 -0.0327213)
(-0.0107021 -0.154303 -0.0364684)
(-0.0174325 -0.166643 -0.0320629)
(-0.012241 -0.185401 -0.00334951)
(-0.00126444 -0.219211 0.0152922)
(0.00322708 -0.111388 0.0225904)
(-0.00756834 -0.592134 0.0193251)
(-0.00441646 -0.826719 0.0213869)
(-0.00107591 -1.2995 -0.037933)
(-0.021651 -1.78339 -0.0176252)
(0.00571838 -1.1941 -0.012294)
(0.0127603 -0.417272 0.00270079)
(0.00473511 -0.0829123 0.00908281)
(0.00867171 -0.0661638 0.00484801)
(0.00826604 -0.0613506 0.00644417)
(0.00508944 -0.056347 0.0087246)
(0.00285419 -0.0558233 0.00909504)
(0.00105927 -0.055017 0.00905801)
(-0.000164376 -0.0537984 0.00893211)
(-0.00155509 -0.054961 0.0084893)
(-0.00381502 -0.0559428 0.00781616)
(-0.00613651 -0.0587981 0.00628419)
(-0.00692543 -0.0619719 0.0110584)
(-0.00297136 -0.0385652 0.0263387)
(-0.00635607 -0.239893 0.00694915)
(0.00778398 -0.32878 -0.0192234)
(0.00498586 -0.601271 0.01961)
(0.0171804 -0.927336 -0.014367)
(-0.00217259 -1.10973 0.0170692)
(-0.00551511 -1.80744 -0.022525)
(0.01411 -1.19385 -0.0102544)
(0.00752028 -0.55759 -0.0085608)
(0.00286374 -0.0666443 0.00623479)
(0.00081661 -0.0357355 0.00662702)
(0.000227754 -0.0329573 0.00660477)
(0.000125513 -0.0252532 0.0060867)
(0.0001541 -0.0283597 0.00610941)
(-6.50971e-05 -0.0276778 0.0060212)
(2.16383e-05 -0.0228617 0.00587018)
(0.000127136 -0.0272539 0.00606397)
(-7.08914e-06 -0.027596 0.00620652)
(-0.000224108 -0.0294363 0.00652475)
(-0.000732203 -0.0357724 0.00648392)
(-0.00494335 -0.0587494 0.00523467)
(-0.0134569 -0.368444 -0.00830862)
(0.00867002 -0.585317 -0.0267404)
(0.000571299 -0.782829 9.96442e-05)
(-0.000284194 -0.87879 0.00257726)
(-0.00122488 -1.12967 0.0161569)
(0.00144402 -1.81127 -0.020287)
(0.0120362 -1.18941 -0.017119)
(0.00933477 -0.579283 -0.00830586)
(0.00219578 -0.10445 -0.00243576)
(0.00035901 -0.0338508 0.000300273)
(0.000163009 -0.02309 0.000943955)
(6.20437e-05 -0.0207123 0.000692022)
(-9.68058e-05 -0.0183111 0.00105499)
(0.000107509 -0.0177603 0.00103971)
(1.11594e-05 -0.0182601 0.000668506)
(-7.80286e-05 -0.0173011 0.0010503)
(4.51817e-07 -0.0172437 0.00111476)
(-0.000159083 -0.0187811 0.0011249)
(-0.000551854 -0.0249678 0.000692288)
(-0.00434776 -0.0633105 -0.0016809)
(-0.0158434 -0.409755 -0.0128507)
(0.00678228 -0.665557 -0.00606507)
(-0.00432228 -0.822806 0.000382182)
(0.00109419 -0.90744 0.00121161)
(0.00238258 -1.18428 0.0167369)
(0.00472559 -1.77607 -0.00306702)
(-0.00438708 -1.17848 -0.0157621)
(0.0105741 -0.578644 -0.00403507)
(0.000570472 -0.103095 -0.000217053)
(-0.000132484 -0.0321302 0.00018991)
(9.7259e-05 -0.0267395 -0.000414301)
(2.90415e-05 -0.0178085 0.000304784)
(-2.64012e-05 -0.0200422 -0.000291784)
(3.63208e-05 -0.0194299 -0.000284378)
(5.24435e-07 -0.0154693 0.0002872)
(-3.36079e-05 -0.0187368 -0.000275907)
(-9.1827e-06 -0.0184579 -0.000286397)
(-0.00023877 -0.0202806 -0.00024034)
(3.14049e-05 -0.0290856 -0.000971636)
(-0.00430472 -0.076648 -0.00269585)
(-0.0121005 -0.420313 -0.00742945)
(0.0106737 -0.683748 -0.00226352)
(-0.000880084 -0.839601 -0.0158857)
(0.00898242 -0.893762 -0.009289)
(0.00190672 -1.19708 0.0166324)
(0.00123084 -1.72642 -0.00065435)
(-0.0101145 -1.1774 -0.00626915)
(0.0137095 -0.569615 -0.00505356)
(-0.000849128 -0.0811214 0.000130051)
(3.6519e-05 -0.0316051 0.000424397)
(-6.73597e-06 -0.023967 0.000120865)
(-2.37036e-05 -0.0171492 0.000145577)
(0.000143142 -0.018547 4.17722e-05)
(-0.000138027 -0.0180118 3.83614e-05)
(-7.15107e-07 -0.0148746 0.000158543)
(0.000135891 -0.0174947 -2.23122e-06)
(-0.000131912 -0.0173645 -3.20826e-05)
(-0.00017279 -0.0184406 0.000172175)
(0.00106073 -0.0289789 -0.000453886)
(-0.00533162 -0.0623042 0.00207036)
(-0.0074116 -0.425383 -0.00936451)
(-0.00342353 -0.690998 -0.00622314)
(-0.00342083 -0.843375 -0.00748047)
(0.00938721 -0.901428 -0.00781587)
(-0.00477797 -1.16688 0.0167274)
(0.000724616 -1.83999 -0.0111798)
(-0.0117366 -1.18844 -0.0112784)
(0.00483057 -0.558562 -0.00581313)
(-0.000915835 -0.0770753 0.0012897)
(-0.000228824 -0.0294648 0.000458175)
(4.93608e-05 -0.0237123 0.000160462)
(-0.000165298 -0.0164241 0.000113747)
(-0.000183731 -0.0182361 0.000127427)
(0.000120581 -0.0176804 0.00013708)
(0.000110597 -0.014082 0.000104537)
(-9.411e-05 -0.0174676 4.28746e-05)
(-0.000141973 -0.0173015 6.94642e-05)
(0.000552207 -0.019663 -0.000109581)
(0.00156457 -0.0269019 0.000501368)
(-0.00321215 -0.0425914 0.00258016)
(-0.00326289 -0.42381 -0.00803828)
(-0.0154318 -0.693673 -0.014379)
(-0.00641044 -0.84551 0.00687043)
(0.0211397 -0.906474 -0.0131727)
(-0.00338742 -1.16542 0.00334759)
(0.0020357 -1.84262 -0.0130024)
(-0.00343468 -1.22173 -0.018928)
(-0.00646887 -0.552609 -0.000308742)
(0.00359813 -0.067179 0.00338758)
(-0.000460204 -0.0310094 -8.77589e-05)
(9.65225e-06 -0.022538 0.000187629)
(-1.50831e-05 -0.0155787 0.000116901)
(-4.54694e-05 -0.0187076 2.57745e-05)
(3.55464e-05 -0.0180476 1.53022e-05)
(6.9767e-06 -0.013401 6.57486e-05)
(-4.55157e-05 -0.0168421 0.000113303)
(0.000242204 -0.0183427 2.17354e-05)
(0.000901374 -0.0224366 -0.000414499)
(0.000297964 -0.0187593 0.00111333)
(-0.00368725 -0.0317852 0.00133199)
(-0.00191836 -0.410051 0.00715989)
(-0.0123408 -0.695232 -0.00976247)
(-0.00532638 -0.866233 -0.00733146)
(-0.00156754 -0.914134 -0.0121296)
(-0.00717614 -1.03773 0.013736)
(0.00243626 -1.84587 -0.0106193)
(4.48456e-05 -1.23768 -0.0151893)
(-0.0167481 -0.569718 -0.00507358)
(0.00457009 -0.0510802 0.00344126)
(-0.000506838 -0.0288726 -0.000365926)
(-0.000100395 -0.0237582 -0.000127637)
(0.000139582 -0.0157174 4.42612e-05)
(0.000117979 -0.0190414 -0.000126464)
(-6.43938e-05 -0.0185385 -0.000153144)
(-0.000101984 -0.0140189 -4.94938e-05)
(1.9272e-05 -0.0175556 -3.80053e-05)
(0.00042283 -0.0190344 -0.00030391)
(0.000924115 -0.0221965 0.000431886)
(-0.000121598 -0.010749 0.000831577)
(-0.00219525 -0.0272913 0.000226116)
(-0.00362499 -0.402781 0.00455966)
(-0.0127086 -0.685452 0.00531858)
(0.00284741 -0.880015 -0.0227621)
(-0.0290785 -0.923282 -0.0236918)
(0.00272125 -0.829296 0.0211741)
(-0.000269977 -1.84883 -0.00512642)
(-0.00202601 -1.24344 -0.00869863)
(-0.0146816 -0.60266 -0.0157811)
(0.00163296 -0.0462266 0.00236355)
(-0.000109345 -0.0301183 -0.000639318)
(-1.02748e-05 -0.0258072 -0.000573654)
(9.0219e-06 -0.0162679 -0.00016423)
(0.000157481 -0.0197854 -0.000374187)
(-0.000158949 -0.0193733 -0.000383606)
(-1.72597e-05 -0.014826 -0.000255197)
(6.68124e-05 -0.0187123 -0.000456237)
(0.000272587 -0.0223373 -0.000817568)
(0.00058979 -0.0164474 0.00106288)
(-1.94676e-05 -0.00738425 0.000527809)
(0.000969381 -0.0258544 -0.000298059)
(-0.00565309 -0.387586 -0.00135159)
(-0.00828715 -0.668287 0.0157315)
(0.0139482 -0.846016 0.0021631)
(-0.00601767 -0.870297 0.00956773)
(0.0169865 -0.629205 0.0152631)
(-0.000332724 -1.85419 -0.00484342)
(-0.0047755 -1.24729 -0.00657506)
(-0.00767841 -0.649739 -0.0134468)
(0.00302331 -0.0412734 0.00138255)
(0.000347341 -0.0348334 -0.00129199)
(0.000134319 -0.0275972 0.000208352)
(6.21617e-06 -0.0180539 -0.000172887)
(0.000226982 -0.0213884 0.000204402)
(-0.000219258 -0.0210144 0.000172938)
(-1.26286e-05 -0.0172516 -0.000316741)
(0.000193805 -0.0211349 0.00015603)
(0.000282075 -0.0260112 0.000237382)
(0.000269577 -0.0117251 0.00102408)
(0.000292227 -0.00584942 0.000527185)
(0.00170654 -0.0225055 0.00137711)
(0.00334332 -0.377389 -0.00242797)
(0.00761416 -0.666019 0.00571919)
(0.013463 -0.733395 0.066678)
(-3.06555e-05 -0.657368 0.118676)
(0.00807128 -0.431125 0.0169827)
(0.000849688 -1.86082 -0.00464831)
(-0.00370917 -1.251 -0.00566421)
(-0.00257114 -0.662155 -0.00852564)
(-0.00124569 -0.0439557 -0.000688172)
(-7.90314e-05 -0.0419559 -0.000518712)
(-0.000142296 -0.0250928 0.000326624)
(1.08599e-05 -0.0184652 -0.000139378)
(-9.18811e-06 -0.0189741 0.000384316)
(0.000187057 -0.0188519 0.000384183)
(-2.95552e-05 -0.0190356 -0.000146771)
(-8.90178e-05 -0.0188015 0.000567827)
(0.000284053 -0.0217196 0.000707155)
(0.00022131 -0.00723818 0.000602298)
(0.000489473 -0.00401254 0.000544707)
(0.00456158 -0.0171891 0.00241458)
(0.0148212 -0.371677 0.0239442)
(0.0273829 -0.572996 0.053982)
(0.00374517 -0.459594 0.115133)
(-0.0387331 -0.287989 0.140946)
(0.00699165 -0.166796 0.00951392)
(3.87748e-05 -1.86354 -0.00168014)
(0.000140199 -1.25165 -0.00153824)
(0.00128378 -0.658727 -0.00363192)
(-0.0118681 -0.0571713 -0.00127619)
(-0.000567857 -0.0372756 0.00117853)
(-0.000280365 -0.0307285 -0.000286119)
(-0.000131075 -0.0197854 -0.000117161)
(-0.000211523 -0.0221576 -0.00016336)
(-2.88778e-05 -0.0214583 -0.000105599)
(4.84622e-05 -0.0174276 0.000141441)
(9.73937e-05 -0.0198809 -1.59191e-05)
(-0.000249716 -0.0245137 -0.00014462)
(-0.000144512 -0.00666116 0.000175965)
(0.000661668 -0.0039806 0.000559106)
(0.00692278 -0.0139768 0.00254522)
(0.0228907 -0.306376 0.0438523)
(0.0308547 -0.358776 0.0746315)
(0.00763928 -0.195531 0.0584624)
(-0.00500279 -0.072908 0.0641282)
(-0.287501 -1.33074 -0.665719)
(0.105389 -1.33083 -0.55043)
(0.203611 -0.735913 -0.383652)
(0.157403 -0.590618 -0.35374)
(0.166093 -0.379582 -0.200907)
(0.14845 -0.22684 -0.295615)
(0.0508324 -0.144078 -0.230987)
(0.00627635 -0.144116 -0.194298)
(-0.0239474 -0.166687 -0.190113)
(-0.0301499 -0.163086 -0.152785)
(-0.0205171 -0.167587 -0.145014)
(-0.0249056 -0.168893 -0.147884)
(-0.0302865 -0.176677 -0.148444)
(-0.0415494 -0.19273 -0.14803)
(-0.059053 -0.226541 -0.155746)
(-0.0972723 -0.308246 -0.177965)
(-0.117926 -0.450912 -0.252382)
(-0.0929641 -0.653831 -0.360236)
(-0.0233059 -0.884348 -0.427211)
(0.196192 -0.731022 -0.413678)
(0.0110434 -1.62698 -0.0907722)
(-0.0231732 -1.68059 -0.0825445)
(0.0661196 -0.740101 -0.0275157)
(0.0149229 -0.569868 -0.0364163)
(0.0138158 -0.306278 -0.103885)
(-0.000117341 -0.0496133 -0.649724)
(0.00963937 -0.0687545 -0.402144)
(-0.00285721 -0.0986319 -0.294051)
(0.000131283 -0.149727 -0.246606)
(0.00334071 -0.153217 -0.171221)
(-0.000456599 -0.160341 -0.154254)
(-0.00124576 -0.167319 -0.14507)
(0.00141152 -0.184272 -0.131535)
(0.00568946 -0.212511 -0.112071)
(0.00341615 -0.245081 -0.0974977)
(-0.00538129 -0.319779 -0.0816632)
(0.000642143 -0.434162 -0.0271143)
(0.00100391 -0.714704 -0.0367136)
(-0.00217668 -1.00663 -0.0426355)
(0.00444472 -0.656114 -0.0308581)
(-0.00391756 -1.71464 -0.0209675)
(-0.023266 -1.73355 -0.0248481)
(0.0159722 -0.532154 0.0244714)
(0.00082471 -0.233037 0.0387549)
(0.000378466 -0.372486 -0.0730197)
(-0.0026862 -0.166401 -0.148181)
(-0.00374063 -0.142967 -0.169615)
(0.00112606 -0.176392 -0.142937)
(0.00541159 -0.220253 -0.105954)
(0.00342979 -0.246411 -0.0998612)
(0.00263743 -0.25221 -0.0999452)
(0.0021743 -0.258542 -0.0978039)
(0.00264361 -0.268103 -0.0935636)
(0.00233604 -0.277059 -0.0896382)
(0.000132978 -0.288588 -0.0891543)
(-0.00414592 -0.349421 -0.081048)
(-0.00137018 -0.370469 -0.0105744)
(-0.00170247 -0.778149 -0.0203811)
(-0.0107259 -1.13385 -0.0267412)
(0.0138306 -0.829456 -0.0123646)
(-0.0079366 -1.70554 -0.0172741)
(-0.0268822 -1.76355 -0.0473885)
(0.0196097 -0.710364 -0.0169321)
(0.00337855 -0.18291 0.0247743)
(0.00241511 -0.370352 -0.0584209)
(-0.0116856 -0.219418 -0.119046)
(0.00269466 -0.21552 -0.123513)
(0.00893064 -0.252381 -0.0952417)
(0.00769427 -0.267164 -0.0832817)
(0.00363099 -0.26887 -0.0791759)
(0.00153475 -0.268505 -0.0788657)
(0.000969872 -0.269962 -0.0784147)
(0.000122596 -0.273268 -0.0786979)
(-0.00179017 -0.277657 -0.0807281)
(-0.00546954 -0.287619 -0.0831374)
(-0.00660018 -0.341309 -0.0733113)
(0.000436882 -0.284701 0.00411673)
(-0.00108099 -0.756224 -0.010677)
(-0.00748812 -1.13525 -0.0440044)
(0.0104002 -1.00341 -0.00131207)
(-0.00916663 -1.65457 -0.0193352)
(-0.00602944 -1.76211 -0.0441632)
(0.0189166 -0.798838 -0.0726871)
(0.0115772 -0.31717 -0.0179453)
(0.0148561 -0.364492 -0.057423)
(-0.000873459 -0.274747 -0.0827778)
(0.00735548 -0.26406 -0.0771331)
(0.00775929 -0.265724 -0.0701721)
(0.00448034 -0.265484 -0.0691835)
(0.00179714 -0.263123 -0.0704073)
(0.000525421 -0.26177 -0.0712585)
(-0.00079801 -0.262123 -0.072037)
(-0.00245321 -0.26401 -0.0737803)
(-0.00493792 -0.26736 -0.0777657)
(-0.00885159 -0.278539 -0.0821789)
(-0.0122251 -0.338882 -0.0657671)
(-0.00172137 -0.360283 -0.000610343)
(-0.00520685 -0.62313 -0.00737913)
(0.00262466 -1.09417 -0.0665578)
(0.00757077 -1.028 -0.0103255)
(-0.0178169 -1.61622 -0.00677837)
(0.012363 -1.75605 -0.0134311)
(-5.545e-05 -0.809077 -0.121372)
(0.0155951 -0.456275 -0.0297936)
(0.023619 -0.328737 -0.0674804)
(0.00833434 -0.270949 -0.0719126)
(0.00868298 -0.255928 -0.0647098)
(0.00526951 -0.24845 -0.0638821)
(0.00310922 -0.241283 -0.0645403)
(0.00165734 -0.2377 -0.0651702)
(5.3106e-05 -0.236485 -0.0660655)
(-0.00174079 -0.236729 -0.0669874)
(-0.00410486 -0.238855 -0.0695584)
(-0.00755611 -0.243786 -0.074469)
(-0.0121208 -0.25806 -0.0773811)
(-0.0117151 -0.314208 -0.0527044)
(-0.000615692 -0.32079 0.000338001)
(-0.00701833 -0.369772 0.0272404)
(0.00854502 -1.02839 -0.0760575)
(0.00917796 -1.00175 -0.0109736)
(-0.0228664 -1.63917 -0.0473424)
(0.00273093 -1.76158 0.000274546)
(-0.015038 -0.910999 -0.150124)
(0.0216205 -0.516645 -0.0218822)
(0.0196447 -0.282146 -0.074437)
(0.0152843 -0.236823 -0.0652163)
(0.0111508 -0.217708 -0.0595577)
(0.006824 -0.206782 -0.0575248)
(0.00398608 -0.201746 -0.0554292)
(0.00166846 -0.199288 -0.0556705)
(-0.000181446 -0.198584 -0.0568689)
(-0.00221603 -0.199246 -0.0576218)
(-0.00503694 -0.20222 -0.0600029)
(-0.00921123 -0.208936 -0.0642364)
(-0.0147805 -0.225318 -0.0642696)
(-0.0131851 -0.273684 -0.0367028)
(-0.00144697 -0.292238 0.00667419)
(-0.000656659 -0.218544 0.0493661)
(-0.00651082 -0.905721 -0.0396142)
(-0.00295607 -0.888614 0.00989659)
(-0.00975313 -1.58923 -0.0956623)
(-0.021549 -1.76771 -0.00914725)
(-0.0161125 -1.12475 -0.0793094)
(0.0221905 -0.5158 -0.00350054)
(0.0160297 -0.218201 -0.0552978)
(0.0198889 -0.172753 -0.0468675)
(0.0131541 -0.157856 -0.0407235)
(0.00771596 -0.152387 -0.0362683)
(0.00424669 -0.147636 -0.0336584)
(0.00176662 -0.145409 -0.0334595)
(-0.0002228 -0.145454 -0.0344482)
(-0.00245115 -0.145452 -0.034732)
(-0.00577482 -0.147973 -0.036664)
(-0.0107005 -0.154021 -0.0405297)
(-0.0175038 -0.166582 -0.0371057)
(-0.0127471 -0.192216 -0.0130358)
(-0.00211745 -0.266803 0.014543)
(0.00505446 -0.202995 0.0298738)
(-0.00802869 -0.668751 0.0167583)
(-0.00315369 -0.864068 0.0162532)
(-0.00163598 -1.33904 -0.0379057)
(-0.022439 -1.78624 -0.0165806)
(0.00513663 -1.18377 -0.011578)
(0.0136012 -0.468593 0.00432183)
(0.00700443 -0.115695 0.00350868)
(0.0100239 -0.074084 0.000173646)
(0.00895244 -0.0657712 0.0028715)
(0.00541857 -0.0597825 0.00537708)
(0.00303698 -0.0587578 0.00607172)
(0.00112234 -0.0577376 0.00608608)
(-0.000160825 -0.05647 0.0057803)
(-0.00161781 -0.0576747 0.00551663)
(-0.00401469 -0.0588919 0.00475517)
(-0.00668882 -0.0624006 0.00282528)
(-0.00834913 -0.0688674 0.00704229)
(-0.00707543 -0.0846071 0.0211885)
(-0.00635605 -0.278244 0.0101527)
(0.00839791 -0.350289 -0.00340437)
(0.00549104 -0.645003 0.0214923)
(0.0174342 -0.929323 -0.00910231)
(-0.00149311 -1.17291 0.0215615)
(-0.00634369 -1.81703 -0.0223013)
(0.013906 -1.18881 -0.0107808)
(0.00698021 -0.557443 -0.00423299)
(0.00333073 -0.0793924 0.00676359)
(0.0008209 -0.0360499 0.0055209)
(0.000241103 -0.032892 0.00534013)
(0.000132461 -0.0243096 0.00485705)
(0.000156854 -0.0278257 0.00487561)
(-6.1629e-05 -0.0271017 0.00479409)
(2.05011e-05 -0.0218183 0.0046454)
(0.000121573 -0.0266775 0.00483071)
(-1.62672e-05 -0.0270582 0.0049635)
(-0.000229907 -0.0290628 0.00524795)
(-0.000720018 -0.0359072 0.00539181)
(-0.00571562 -0.0694604 0.00604373)
(-0.0131385 -0.370579 -0.00392401)
(0.00887836 -0.587012 -0.017395)
(0.00067852 -0.785489 0.00414734)
(-0.000350488 -0.892718 0.00214696)
(-0.000321663 -1.17823 0.0195375)
(0.00336684 -1.82961 -0.0211436)
(0.012105 -1.18733 -0.0177703)
(0.00881048 -0.577668 -0.00729619)
(0.00201835 -0.0954558 -0.00106507)
(0.000279282 -0.0330102 0.00026207)
(0.000146411 -0.0219281 0.000624725)
(5.66734e-05 -0.0196013 0.000499494)
(-0.000102541 -0.0172163 0.000696129)
(0.00011254 -0.0166793 0.000683893)
(1.04246e-05 -0.0171863 0.00047774)
(-8.56255e-05 -0.016231 0.00069539)
(-4.66573e-07 -0.0161732 0.000747836)
(-0.000142372 -0.0176719 0.000761467)
(-0.000466908 -0.0237872 0.000462006)
(-0.00402542 -0.0584642 -0.000789611)
(-0.0150382 -0.409159 -0.0116702)
(0.00703228 -0.665828 -0.0037678)
(-0.00432358 -0.823609 0.00202741)
(0.00117663 -0.907521 -0.00177127)
(0.0022071 -1.23343 0.0186588)
(0.00671375 -1.82682 -0.0034097)
(-0.00389627 -1.17696 -0.0163437)
(0.0100049 -0.577067 -0.00445564)
(0.000493705 -0.0950087 -0.000317546)
(-0.000133712 -0.0312672 0.000139607)
(9.07417e-05 -0.0252574 -0.000364906)
(2.54997e-05 -0.0168184 0.000217712)
(-2.53035e-05 -0.0189318 -0.000259094)
(3.45876e-05 -0.0183534 -0.000252572)
(3.16453e-07 -0.01455 0.000206489)
(-3.20478e-05 -0.0176995 -0.000246137)
(-8.32325e-06 -0.0174361 -0.000252492)
(-0.000228183 -0.0191601 -0.000221466)
(5.57376e-05 -0.0274577 -0.0008336)
(-0.00401941 -0.0725531 -0.0017115)
(-0.0116196 -0.41993 -0.00736876)
(0.0107782 -0.684 -0.00187442)
(-0.000919586 -0.840146 -0.0147265)
(0.00903382 -0.89381 -0.00967351)
(0.00222756 -1.24942 0.0154012)
(0.00274346 -1.81581 0.00137261)
(-0.0102401 -1.17598 -0.00631315)
(0.0128945 -0.568511 -0.00589904)
(-0.00133923 -0.0833256 5.0929e-06)
(5.16717e-05 -0.030722 0.000307068)
(5.9558e-07 -0.023313 0.000168533)
(-2.04472e-05 -0.016191 0.000101757)
(0.000145124 -0.0178966 0.000106132)
(-0.000139646 -0.0173689 0.000102982)
(-1.66858e-07 -0.0139854 0.000112296)
(0.00013897 -0.0168555 7.133e-05)
(-0.000133844 -0.0167257 5.13022e-05)
(-0.000158213 -0.0177751 0.000128973)
(0.00103532 -0.0273137 -0.000202216)
(-0.00493974 -0.0603669 0.00202199)
(-0.00710627 -0.425164 -0.00932088)
(-0.00321358 -0.691328 -0.0060517)
(-0.00339799 -0.845439 -0.000294124)
(0.00921972 -0.901555 -0.00783676)
(-0.00395951 -1.22348 0.0145917)
(0.00254508 -1.85724 -0.00915503)
(-0.0113659 -1.18864 -0.0098544)
(0.0045845 -0.558258 -0.00645936)
(-0.00158589 -0.0773303 0.000984128)
(-0.000197849 -0.028505 0.000261285)
(5.69507e-05 -0.0230437 0.000127632)
(-0.000160053 -0.0154879 8.49149e-05)
(-0.000181469 -0.017577 1.97272e-05)
(0.00012017 -0.0170305 2.76278e-05)
(0.000109716 -0.0132261 7.70566e-05)
(-9.37934e-05 -0.0168282 3.78416e-05)
(-0.00013847 -0.016653 -1.75249e-05)
(0.000532218 -0.0185688 -0.000148172)
(0.00152737 -0.0261453 0.000594562)
(-0.00271309 -0.0406546 0.0022133)
(-0.00309112 -0.423848 -0.00431786)
(-0.0153392 -0.693971 -0.014141)
(-0.0064576 -0.851078 0.0059384)
(0.0207716 -0.9067 -0.0135527)
(-0.00350196 -1.21326 -0.00175515)
(0.00493684 -1.86121 -0.0130483)
(-0.00387127 -1.22145 -0.0167193)
(-0.00622349 -0.553154 -0.000221305)
(0.00371208 -0.0664302 0.00231939)
(-0.000436611 -0.0285568 -9.0501e-05)
(3.4847e-06 -0.0218412 5.70876e-05)
(-1.2361e-05 -0.0146567 5.01085e-05)
(-4.55921e-05 -0.0176682 -4.12515e-05)
(3.49369e-05 -0.017045 -4.80199e-05)
(5.59293e-06 -0.0125633 -7.5072e-06)
(-4.47794e-05 -0.0162037 1.13786e-05)
(0.0002371 -0.0173243 -4.94863e-05)
(0.000862691 -0.0211634 -0.000226778)
(0.000254189 -0.0180185 0.00098512)
(-0.00363591 -0.0301406 0.00096608)
(-0.00167064 -0.412867 0.0084314)
(-0.0124224 -0.6959 -0.00431345)
(-0.00541792 -0.866716 -0.01342)
(-0.00156419 -0.914414 -0.0117522)
(-0.00722278 -1.10432 0.00113057)
(0.00550651 -1.86607 -0.0106786)
(-0.000233322 -1.23615 -0.0137713)
(-0.0152695 -0.567923 -0.00410194)
(0.00468641 -0.0498321 0.00236525)
(-0.000481652 -0.0265656 -0.000237308)
(-9.93369e-05 -0.0224283 -0.000157968)
(0.000132338 -0.0144531 -2.3056e-05)
(0.000114055 -0.0179701 -9.02365e-05)
(-6.37216e-05 -0.0174962 -0.000109921)
(-9.80214e-05 -0.0129021 -7.83233e-05)
(2.12597e-05 -0.0165752 -8.67458e-05)
(0.000407466 -0.0179654 -0.000222035)
(0.00087649 -0.0215709 0.000444933)
(-0.000111025 -0.0102235 0.000675277)
(-0.0021225 -0.0256815 -9.06283e-05)
(-0.00344959 -0.405005 -0.000618545)
(-0.0124175 -0.691143 0.00938213)
(0.00274651 -0.88098 -0.017239)
(-0.0289513 -0.924379 -0.0176691)
(0.00188096 -0.920985 0.00534352)
(0.0020157 -1.87114 -0.00399573)
(-0.00172971 -1.24181 -0.00789869)
(-0.0137187 -0.598171 -0.0133414)
(0.00134535 -0.04515 0.00159387)
(-9.21368e-05 -0.0277005 -0.000406393)
(-1.0345e-05 -0.0243659 -0.000350978)
(7.84908e-06 -0.0149646 -0.00013505)
(0.000153041 -0.0186898 -0.000210189)
(-0.000153128 -0.018301 -0.000217717)
(-1.58592e-05 -0.0136405 -0.000170928)
(6.6277e-05 -0.017671 -0.000273843)
(0.000254847 -0.021093 -0.000531176)
(0.000538366 -0.0158121 0.000857171)
(1.08051e-05 -0.00699031 0.000422028)
(0.0010116 -0.0244609 -0.000136306)
(-0.00541551 -0.38771 -0.00274935)
(-0.00877602 -0.674626 0.0112853)
(0.0139783 -0.857877 0.00274058)
(-0.0057474 -0.88591 0.00804418)
(0.016398 -0.742203 -0.000445482)
(0.00113819 -1.87545 -0.00301279)
(-0.00482451 -1.24563 -0.00607426)
(-0.00710457 -0.641908 -0.0114802)
(0.00273937 -0.0400983 0.000869955)
(0.000335194 -0.0320202 -0.000828145)
(0.000110648 -0.0270049 0.00030834)
(5.7707e-06 -0.016609 -0.000114374)
(0.000218607 -0.020735 0.000279523)
(-0.000207797 -0.0203653 0.000254581)
(-1.1833e-05 -0.0158709 -0.000212059)
(0.000183256 -0.0204967 0.000235337)
(0.000257458 -0.0254141 0.000328128)
(0.00025082 -0.0111857 0.000805452)
(0.000272991 -0.00553679 0.000406331)
(0.00173091 -0.0214121 0.00126898)
(0.00316711 -0.378229 -0.000208963)
(0.00625277 -0.674388 -3.80803e-05)
(0.0113936 -0.772997 0.0508326)
(-5.08233e-06 -0.718303 0.0962712)
(0.00745911 -0.562294 -8.77087e-06)
(0.00169339 -1.88216 -0.00374957)
(-0.00386375 -1.24997 -0.00538932)
(-0.00248631 -0.666224 -0.00806675)
(-0.00112624 -0.040459 -0.000431617)
(-7.2583e-05 -0.0386092 -0.000336135)
(-0.000147603 -0.024024 0.000244962)
(9.25166e-06 -0.0169862 -9.29278e-05)
(-2.17759e-05 -0.017968 0.000257941)
(0.000193832 -0.0178573 0.000254898)
(-2.6806e-05 -0.0175244 -4.43715e-05)
(-0.00010582 -0.0178398 0.000379714)
(0.000273303 -0.0206338 0.000511116)
(0.000208495 -0.00670367 0.000464571)
(0.00041413 -0.00370521 0.000381944)
(0.00382189 -0.0159495 0.00177592)
(0.013138 -0.377023 0.0236415)
(0.0259973 -0.594504 0.0455807)
(0.00243306 -0.527542 0.0975894)
(-0.0412251 -0.371844 0.117179)
(0.00701511 -0.382431 -0.00449131)
(0.000382118 -1.88496 -0.00128509)
(4.37076e-05 -1.25094 -0.00155284)
(0.000979408 -0.67089 -0.00301419)
(-0.0109484 -0.0525175 -0.000796046)
(-0.000592756 -0.0371528 0.000583204)
(-0.000250557 -0.0282729 -0.000245726)
(-0.000119175 -0.0182005 -8.12879e-05)
(-0.00019884 -0.0203879 -0.000168322)
(-2.56195e-05 -0.0197622 -0.000133504)
(4.47061e-05 -0.0164715 1.72787e-05)
(8.83225e-05 -0.0183092 -5.6952e-05)
(-0.000232969 -0.0225368 -0.000152232)
(-0.000149522 -0.00615735 3.99204e-05)
(0.000555504 -0.00365016 0.000311871)
(0.00551702 -0.0128452 0.0017018)
(0.0210397 -0.310936 0.0355505)
(0.0354321 -0.405544 0.0562847)
(0.0131461 -0.321298 0.0396731)
(-0.00641776 -0.181121 0.0497456)
(-0.307012 -1.31724 -0.592284)
(0.115164 -1.30531 -0.477247)
(0.213044 -0.72967 -0.340679)
(0.16308 -0.58721 -0.317371)
(0.175706 -0.375743 -0.179986)
(0.150202 -0.225411 -0.284718)
(0.0491697 -0.141419 -0.223881)
(0.00597635 -0.142276 -0.189075)
(-0.0246682 -0.165547 -0.183652)
(-0.0314778 -0.160545 -0.14445)
(-0.0210283 -0.164978 -0.135723)
(-0.025459 -0.166191 -0.137671)
(-0.0304406 -0.173832 -0.13693)
(-0.0418542 -0.189378 -0.134561)
(-0.0607495 -0.221873 -0.139302)
(-0.102138 -0.302763 -0.156649)
(-0.125152 -0.448471 -0.225456)
(-0.0996475 -0.649556 -0.32342)
(-0.0247693 -0.884515 -0.382936)
(0.208863 -0.737649 -0.379749)
(0.00858321 -1.61785 -0.0768152)
(-0.0232298 -1.66372 -0.0708358)
(0.0697571 -0.773745 -0.0348256)
(0.021071 -0.599644 -0.0439092)
(0.0159414 -0.296682 -0.10332)
(-0.000127421 -0.0476274 -0.650976)
(0.00956251 -0.0664143 -0.402092)
(-0.00289609 -0.0955438 -0.293488)
(0.000118135 -0.146661 -0.245914)
(0.00349251 -0.147856 -0.169743)
(-0.000456468 -0.154458 -0.152575)
(-0.000895779 -0.160257 -0.143073)
(0.000768982 -0.175126 -0.129435)
(0.00459631 -0.201456 -0.109715)
(0.00326873 -0.234239 -0.0952183)
(-0.00582709 -0.308223 -0.0802105)
(-0.00188454 -0.437674 -0.0291232)
(0.000818572 -0.711438 -0.0322795)
(-0.00112883 -1.0044 -0.0346373)
(0.00649484 -0.672849 -0.0276909)