/*--------------------------------*- C++ -*----------------------------------*\
| =========                 |                                                 |
| \\      /  F ield         | OpenFOAM: The Open Source CFD Toolbox           |
|  \\    /   O peration     | Version:  2.3.0                                 |
|   \\  /    A nd           | Web:      www.OpenFOAM.org                      |
|    \\/     M anipulation  |                                                 |
\*---------------------------------------------------------------------------*/
FoamFile
{
    version     2.0;
    format      ascii;
    class       volScalarField;
    location    "1.80215";
    object      km;
}
// * * * * * * * * * * * * * * * * * * * * * * * * * * * * * * * * * * * * * //

dimensions      [0 2 -2 0 0 0 0];

internalField   nonuniform List<scalar> 
1000
(
0.00055539
0.000966914
0.00162306
0.00233311
1.01115e-15
1e-15
1e-15
1e-15
1e-15
1e-15
1e-15
1e-15
1e-15
1e-15
1e-15
1.17597e-15
0.00234423
0.00119649
0.000773607
0.000506274
0.000340494
0.000554939
0.000731043
0.0010832
0.00146138
1.99324e-07
1e-15
1e-15
1e-15
1e-15
1e-15
1e-15
1e-15
1e-15
0.000417516
0.000977932
0.000841613
0.000547224
0.00042344
0.000248155
0.000363813
0.000540558
0.000715845
0.00110272
0.00137241
0.00167194
0.00186729
0.00168175
0.00113002
0.000904049
0.000305135
1e-15
3.51303e-15
0.00152571
0.00108999
0.000932794
0.000715724
0.000656886
0.000527281
0.000324314
0.000402437
0.000580531
0.000694682
0.000796741
0.000917023
0.00125793
0.0017448
0.00201123
0.00193659
0.00133616
0.000725224
1e-15
2.39745e-10
0.00156304
0.00101034
0.000847912
0.000825614
0.000781177
0.000664419
0.000406597
0.000422639
0.000670696
0.000987663
0.000864027
0.000819566
0.000946823
0.00164681
0.00226374
0.00262394
0.00164709
0.00159957
0.000422816
0.00108278
0.00134529
0.000979067
0.000967635
0.0010793
0.000813205
0.000737526
0.000438505
0.00040095
0.000701872
0.00115494
0.000990366
0.00088814
0.00107168
0.00187338
0.00259462
0.00281112
0.00203451
0.002184
0.00136517
0.0015566
0.00127685
0.00104325
0.00115951
0.00128272
0.000817029
0.000751521
0.000430006
0.000347649
0.000654901
0.0011109
0.000930779
0.00106769
0.00144682
0.00222317
0.00282299
0.00231919
0.00197834
0.00234196
0.00228439
0.00213015
0.00145459
0.00104556
0.000917549
0.00113568
0.000705914
0.000692941
0.000377929
0.000277751
0.00048688
0.000832424
0.00124182
0.00135367
0.00174728
0.0023644
0.00277436
0.00169518
0.00165931
0.00226684
0.00296133
0.00258682
0.00188413
0.0012057
0.000988132
0.00105533
0.000556159
0.000561693
0.000294527
0.000183581
0.000322099
0.000314357
0.00133821
0.00178486
0.00203897
0.0023371
0.00245583
0.000965448
0.00105741
0.00206203
0.00325622
0.00270188
0.00210531
0.00140099
0.0011301
0.000661518
0.000370228
0.000378707
0.00018885
7.68672e-05
0.000140914
9.34858e-05
0.000521125
0.00184065
0.00221259
0.00180097
0.00146266
0.000156786
0.00067349
0.00220193
0.00356639
0.00274124
0.00252147
0.00188217
0.00165462
0.000111463
0.000107819
0.00015
7.62103e-05
0.000329138
0.000477272
0.000647494
0.00105898
0.00059734
8.22404e-05
5.42786e-06
1.69822e-06
3.77053e-06
1.30695e-05
2.14811e-06
3.83806e-06
2.81849e-06
1.22652e-05
0.000148676
0.000686855
0.000897468
0.000536527
0.000446616
0.000333595
0.000161605
0.000311039
0.000401966
0.000599239
0.000888487
0.000733996
0.000345335
3.78166e-05
2.45644e-05
0.000152342
1.26923e-05
2.93984e-05
0.000244965
0.000498287
0.000501308
0.000554927
0.000445831
0.00036624
0.000280469
0.000142806
0.000151665
0.000262388
0.000522078
0.000671954
0.000834788
0.00117134
0.00118691
0.000792718
0.00032055
0.00073187
0.000127062
0.000302531
0.00093407
0.000969548
0.000621785
0.000512503
0.000447134
0.000385049
0.000323331
0.000158484
0.000152414
0.000225763
0.00039852
0.000483506
0.00057202
0.000917118
0.00132669
0.00126197
0.000740321
0.00105258
0.00052349
0.000727871
0.000899201
0.000908438
0.000525638
0.00044028
0.000437621
0.00035999
0.000325776
0.000167419
0.000142404
0.000211441
0.000449675
0.000423051
0.000437168
0.00061621
0.00124444
0.00132176
0.00107106
0.00119453
0.00117469
0.000777705
0.000978738
0.000740871
0.000523757
0.000499063
0.000508111
0.000286153
0.000246247
0.000150689
0.000111677
0.000189085
0.000528189
0.00057895
0.000526688
0.000682883
0.00127957
0.001408
0.0013907
0.00138972
0.00152487
0.00087894
0.000997522
0.000714989
0.000596423
0.000624347
0.000611443
0.000254498
0.000213516
0.000118967
8.84677e-05
0.000149653
0.000532744
0.000800295
0.000660299
0.00092254
0.00140316
0.00159104
0.00152025
0.00145923
0.00168752
0.00115836
0.00103993
0.000790379
0.000630988
0.00064576
0.000701391
0.000194623
0.000164289
9.42219e-05
6.87562e-05
0.000113627
0.000461108
0.00107982
0.000945017
0.00120869
0.00154733
0.00168885
0.0014019
0.00139203
0.00179783
0.00159025
0.00115674
0.000990158
0.000755922
0.000715314
0.000812245
0.000167577
0.000131275
6.36164e-05
4.74893e-05
7.81496e-05
0.000173925
0.00116093
0.0012448
0.00144536
0.00157354
0.00162846
0.000821462
0.000985706
0.00181398
0.00176748
0.00129194
0.00113827
0.000880885
0.000844366
0.00080916
0.00011888
9.6921e-05
4.76759e-05
3.91521e-05
4.59544e-05
5.40293e-05
0.000659965
0.0012548
0.00147634
0.0013594
0.00119339
0.000136934
0.00062862
0.00172736
0.00199423
0.00158242
0.00146978
0.00121603
0.00116347
0.000201485
4.82058e-05
5.23749e-05
3.91003e-05
0.000265173
0.000413515
0.000500295
0.000762273
0.000665418
0.000270323
4.94259e-05
2.16166e-05
1.79815e-05
2.77148e-05
1.3346e-05
3.54104e-05
2.65992e-05
8.75088e-05
0.000470501
0.000643287
0.000687278
0.000465642
0.000372704
0.000278394
9.35905e-05
0.000231253
0.000339064
0.000494287
0.000743735
0.000628966
0.000187079
3.50023e-05
2.45963e-05
0.000104334
1.80169e-05
3.76153e-05
6.47307e-05
0.000256373
0.000483406
0.000492502
0.000342994
0.000246619
0.000155647
9.14576e-05
8.39448e-05
0.000166276
0.000483322
0.0005783
0.000708391
0.000970654
0.000784973
0.000188452
6.85586e-05
0.000665751
5.63835e-05
5.6331e-05
0.000318851
0.000639868
0.000565934
0.000400186
0.000291369
0.000180066
0.000144661
9.42383e-05
8.14602e-05
0.000105017
0.000283199
0.000409607
0.000500442
0.000824491
0.0010986
0.000701418
0.000230266
0.000972247
0.000408076
0.000131014
0.00058427
0.000719654
0.000406123
0.000282394
0.000236364
0.000133516
0.000119407
9.42021e-05
7.52856e-05
8.80761e-05
0.000260217
0.000270968
0.00031003
0.000520457
0.00108482
0.000967316
0.00057859
0.00105913
0.00107199
0.000312569
0.000699765
0.000620702
0.000369612
0.000330151
0.000311294
0.00010817
7.78003e-05
7.59328e-05
5.82453e-05
7.43472e-05
0.000364
0.000450258
0.000412922
0.000575009
0.00111168
0.00106015
0.000990792
0.00119611
0.0013777
0.000483166
0.000746734
0.00058586
0.000441977
0.000450455
0.000432899
0.000106273
6.27394e-05
6.17195e-05
5.22321e-05
6.64991e-05
0.000425372
0.000757493
0.000543301
0.000770098
0.00117563
0.00123318
0.00129989
0.00131107
0.00151644
0.000710557
0.000759121
0.000628311
0.000494336
0.000547351
0.000591655
0.000109952
5.03032e-05
5.41116e-05
4.60421e-05
6.03126e-05
0.000427586
0.00102704
0.000831129
0.00103971
0.00130682
0.00138468
0.00128049
0.001286
0.00161979
0.00110745
0.000802486
0.000729028
0.000612925
0.000630394
0.000751616
0.000111061
4.49517e-05
4.49384e-05
4.0449e-05
4.38992e-05
0.000170027
0.00109176
0.00109707
0.00126308
0.00135578
0.00138066
0.000795863
0.000952655
0.00162687
0.00129101
0.000892407
0.000826006
0.000718066
0.000754566
0.000817538
8.71732e-05
3.96108e-05
4.16903e-05
3.84916e-05
3.83304e-05
5.41352e-05
0.000681581
0.0011029
0.00127584
0.00122012
0.00110895
0.000145222
0.000598473
0.00153963
0.00152384
0.00119512
0.00110593
0.00101411
0.00103488
0.000292334
4.23836e-05
3.73539e-05
3.85211e-05
0.000330032
0.000478647
0.000649033
0.00105899
0.000596814
8.28669e-05
5.52563e-06
1.73901e-06
3.59551e-06
1.29957e-05
2.08682e-06
4.19339e-06
3.03303e-06
1.22267e-05
0.000151887
0.00068653
0.000899339
0.000538099
0.000446523
0.000333928
0.000162203
0.000314234
0.000404064
0.000600307
0.000889281
0.00073338
0.000346965
3.79363e-05
2.5118e-05
0.000149678
1.3616e-05
2.85135e-05
0.00023995
0.000529617
0.000581962
0.000557463
0.000450369
0.000368443
0.000281249
0.000143153
0.000152204
0.000264785
0.00052479
0.000673087
0.000835157
0.00117169
0.00119336
0.000774889
0.000328375
0.000734782
0.000127715
0.000290995
0.00095933
0.00101864
0.00064245
0.000511663
0.000451231
0.000387026
0.000324103
0.000158588
0.000152981
0.000226577
0.000399296
0.000483182
0.000571449
0.000915318
0.00132685
0.00125834
0.000740048
0.00105415
0.000526913
0.000719651
0.000921152
0.000938865
0.000530174
0.000441442
0.000437668
0.000360643
0.000326529
0.00016764
0.000142747
0.000211838
0.000449437
0.000422263
0.000436369
0.000615231
0.00124339
0.00131558
0.00106968
0.00119347
0.00117635
0.000779743
0.000989812
0.000747271
0.000524383
0.000499686
0.000508066
0.000286627
0.000246899
0.000150868
0.000111997
0.000189415
0.000526585
0.000577908
0.000526067
0.000682303
0.00127883
0.00139994
0.00138415
0.00138433
0.00152062
0.000877847
0.00100197
0.000716864
0.000596226
0.000623726
0.000611326
0.000254722
0.000213916
0.000119128
8.85974e-05
0.000149749
0.000530858
0.00080116
0.000660999
0.000923387
0.00140165
0.00158122
0.00150999
0.00145114
0.00168026
0.00115088
0.00104143
0.000791726
0.000630755
0.000645656
0.000701293
0.000194647
0.000164238
9.43053e-05
6.87985e-05
0.000113618
0.000459436
0.0010816
0.00094991
0.00121154
0.00154398
0.00167802
0.00139156
0.00138309
0.00178648
0.00158141
0.00115377
0.000988868
0.000755366
0.000715911
0.000812718
0.000167534
0.000130803
6.36105e-05
4.75109e-05
7.82369e-05
0.000173155
0.00115877
0.00124777
0.00144731
0.00156836
0.00161629
0.000813192
0.000978123
0.00180356
0.00175743
0.00128928
0.00113705
0.00088105
0.000846715
0.000809323
0.000118911
9.5906e-05
4.76916e-05
3.91545e-05
4.59632e-05
5.4063e-05
0.000656607
0.00125388
0.00147635
0.00134876
0.00117956
0.000134623
0.000626627
0.00172133
0.00198901
0.00158061
0.00147083
0.00121985
0.00116744
0.000201614
4.82256e-05
5.16051e-05
3.9099e-05
0.000556874
0.000966363
0.00163075
0.00233049
1.01296e-15
1e-15
1e-15
1e-15
1e-15
1e-15
1e-15
1e-15
1e-15
1e-15
1e-15
1.04399e-15
0.00235019
0.00120095
0.00077276
0.000507032
0.00034115
0.000558399
0.00073474
0.00108477
0.00146396
1.94124e-07
1e-15
1e-15
1e-15
1e-15
1e-15
1e-15
1e-15
4.76478e-15
0.00100949
0.000988557
0.00084918
0.000549811
0.000424696
0.00024865
0.000363847
0.000543082
0.000720345
0.00110332
0.00137117
0.00167241
0.00186388
0.00167321
0.0011264
0.000911448
0.00030179
1e-15
4.34673e-15
0.00165027
0.0011745
0.000928178
0.000719176
0.00065636
0.000527588
0.000324249
0.000402227
0.000580893
0.000694487
0.000796072
0.000915776
0.00125557
0.00174049
0.00199085
0.00192226
0.00134335
0.000735487
1e-15
4.52251e-10
0.00162389
0.00102081
0.000848103
0.000824548
0.000780668
0.000663858
0.000406537
0.000422465
0.000670445
0.000985348
0.000862582
0.000818875
0.000946484
0.00164822
0.00223794
0.00261247
0.001648
0.00160769
0.000419048
0.00108986
0.00136056
0.000979681
0.000967666
0.00107888
0.000812845
0.000737213
0.00043844
0.000400817
0.000701498
0.00115223
0.000989348
0.000887728
0.00107204
0.00187353
0.00256215
0.00279515
0.00202657
0.00218172
0.001359
0.00156186
0.00128114
0.00104309
0.00115915
0.00128263
0.000816736
0.00075123
0.00042996
0.000347673
0.000654248
0.00110801
0.000933407
0.00106901
0.0014479
0.00221838
0.00278615
0.00229825
0.00196494
0.00233428
0.00227549
0.00213234
0.00145671
0.00104523
0.00091786
0.0011358
0.000705606
0.000692578
0.000377963
0.000277683
0.000486676
0.000829117
0.00124582
0.00136228
0.00175039
0.00235169
0.00273885
0.00167614
0.00164365
0.00225361
0.00295169
0.00258198
0.00187892
0.00120387
0.000988772
0.00105591
0.00055588
0.000561554
0.000294484
0.000183669
0.000322213
0.000313915
0.00133316
0.00179147
0.00204267
0.00232138
0.0024252
0.000949029
0.00104476
0.00205103
0.00324537
0.00269764
0.00209883
0.00139957
0.00113335
0.000661233
0.000370295
0.000378633
0.000188935
7.68197e-05
0.000140865
9.53099e-05
0.000509039
0.00183527
0.00221132
0.00177371
0.00143409
0.000153754
0.000672176
0.00219876
0.00356127
0.00273769
0.00252131
0.00188742
0.00166077
0.000111443
0.000108573
0.000149978
7.61307e-05
)
;

boundaryField
{
    aeration
    {
        type            fixedValue;
        value           nonuniform List<scalar> 
100
(
3.75e-05
3.75e-05
3.75e-05
3.75e-05
3.75e-05
3.75e-05
3.75e-05
3.75e-05
3.75e-05
3.75e-05
3.75e-05
3.75e-05
3.75e-05
3.75e-05
3.75e-05
3.75e-05
3.75e-05
3.75e-05
3.75e-05
3.75e-05
3.75e-05
3.75e-05
3.75e-05
3.75e-05
3.75e-05
3.75e-05
3.75e-05
3.75e-05
3.75e-05
3.75e-05
3.75e-05
3.75e-05
3.75e-05
3.75e-05
3.75e-05
3.75e-05
3.75e-05
3.75e-05
3.75e-05
3.75e-05
3.75e-05
3.75e-05
3.75e-05
3.75e-05
3.75e-05
3.75e-05
3.75e-05
3.75e-05
3.75e-05
3.75e-05
3.75e-05
3.75e-05
3.75e-05
3.75e-05
3.75e-05
3.75e-05
3.75e-05
3.75e-05
3.75e-05
3.75e-05
3.75e-05
3.75e-05
3.75e-05
3.75e-05
3.75e-05
3.75e-05
3.75e-05
3.75e-05
3.75e-05
3.75e-05
3.75e-05
3.75e-05
3.75e-05
3.75e-05
3.75e-05
3.75e-05
3.75e-05
3.75e-05
3.75e-05
3.75e-05
3.75e-05
3.75e-05
3.75e-05
3.75e-05
3.75e-05
3.75e-05
3.75e-05
3.75e-05
3.75e-05
3.75e-05
3.75e-05
3.75e-05
3.75e-05
3.75e-05
3.75e-05
3.75e-05
3.75e-05
3.75e-05
3.75e-05
3.75e-05
)
;
    }
    xsides
    {
        type            kqRWallFunction;
        value           nonuniform List<scalar> 
100
(
0.00055539
0.000340494
0.000363813
0.000402437
0.000422639
0.00040095
0.000347649
0.000277751
0.000183581
7.68672e-05
0.000329138
0.000161605
0.000151665
0.000152414
0.000142404
0.000111677
8.84677e-05
6.87562e-05
4.74893e-05
3.91521e-05
0.000265173
9.35905e-05
8.39448e-05
8.14602e-05
7.52856e-05
5.82453e-05
5.22321e-05
4.60421e-05
4.0449e-05
3.84916e-05
0.000330032
0.000162203
0.000152204
0.000152981
0.000142747
0.000111997
8.85974e-05
6.87985e-05
4.75109e-05
3.91545e-05
0.000556874
0.00034115
0.000363847
0.000402227
0.000422465
0.000400817
0.000347673
0.000277683
0.000183669
7.68197e-05
0.000506274
0.000248155
0.000324314
0.000406597
0.000438505
0.000430006
0.000377929
0.000294527
0.00018885
7.62103e-05
0.000333595
0.000142806
0.000158484
0.000167419
0.000150689
0.000118967
9.42219e-05
6.36164e-05
4.76759e-05
3.91003e-05
0.000278394
9.14576e-05
9.42383e-05
9.42021e-05
7.59328e-05
6.17195e-05
5.41116e-05
4.49384e-05
4.16903e-05
3.85211e-05
0.000333928
0.000143153
0.000158588
0.00016764
0.000150868
0.000119128
9.43053e-05
6.36105e-05
4.76916e-05
3.9099e-05
0.000507032
0.00024865
0.000324249
0.000406537
0.00043844
0.00042996
0.000377963
0.000294484
0.000188935
7.61307e-05
)
;
    }
    zsides
    {
        type            kqRWallFunction;
        value           nonuniform List<scalar> 
400
(
0.00055539
0.000340494
0.000363813
0.000402437
0.000422639
0.00040095
0.000347649
0.000277751
0.000183581
7.68672e-05
0.000966914
0.000554939
0.000540558
0.000580531
0.000670696
0.000701872
0.000654901
0.00048688
0.000322099
0.000140914
0.00162306
0.000731043
0.000715845
0.000694682
0.000987663
0.00115494
0.0011109
0.000832424
0.000314357
9.34858e-05
0.00233311
0.0010832
0.00110272
0.000796741
0.000864027
0.000990366
0.000930779
0.00124182
0.00133821
0.000521125
1.01115e-15
0.00146138
0.00137241
0.000917023
0.000819566
0.00088814
0.00106769
0.00135367
0.00178486
0.00184065
1e-15
1.99324e-07
0.00167194
0.00125793
0.000946823
0.00107168
0.00144682
0.00174728
0.00203897
0.00221259
1e-15
1e-15
0.00186729
0.0017448
0.00164681
0.00187338
0.00222317
0.0023644
0.0023371
0.00180097
1e-15
1e-15
0.00168175
0.00201123
0.00226374
0.00259462
0.00282299
0.00277436
0.00245583
0.00146266
1e-15
1e-15
0.00113002
0.00193659
0.00262394
0.00281112
0.00231919
0.00169518
0.000965448
0.000156786
1e-15
1e-15
0.000904049
0.00133616
0.00164709
0.00203451
0.00197834
0.00165931
0.00105741
0.00067349
1e-15
1e-15
0.000305135
0.000725224
0.00159957
0.002184
0.00234196
0.00226684
0.00206203
0.00220193
1e-15
1e-15
1e-15
1e-15
0.000422816
0.00136517
0.00228439
0.00296133
0.00325622
0.00356639
1e-15
1e-15
3.51303e-15
2.39745e-10
0.00108278
0.0015566
0.00213015
0.00258682
0.00270188
0.00274124
1e-15
1e-15
0.00152571
0.00156304
0.00134529
0.00127685
0.00145459
0.00188413
0.00210531
0.00252147
1e-15
0.000417516
0.00108999
0.00101034
0.000979067
0.00104325
0.00104556
0.0012057
0.00140099
0.00188217
1.17597e-15
0.000977932
0.000932794
0.000847912
0.000967635
0.00115951
0.000917549
0.000988132
0.0011301
0.00165462
0.00234423
0.000841613
0.000715724
0.000825614
0.0010793
0.00128272
0.00113568
0.00105533
0.000661518
0.000111463
0.00119649
0.000547224
0.000656886
0.000781177
0.000813205
0.000817029
0.000705914
0.000556159
0.000370228
0.000107819
0.000773607
0.00042344
0.000527281
0.000664419
0.000737526
0.000751521
0.000692941
0.000561693
0.000378707
0.00015
0.000506274
0.000248155
0.000324314
0.000406597
0.000438505
0.000430006
0.000377929
0.000294527
0.00018885
7.62103e-05
0.000556874
0.00034115
0.000363847
0.000402227
0.000422465
0.000400817
0.000347673
0.000277683
0.000183669
7.68197e-05
0.000966363
0.000558399
0.000543082
0.000580893
0.000670445
0.000701498
0.000654248
0.000486676
0.000322213
0.000140865
0.00163075
0.00073474
0.000720345
0.000694487
0.000985348
0.00115223
0.00110801
0.000829117
0.000313915
9.53099e-05
0.00233049
0.00108477
0.00110332
0.000796072
0.000862582
0.000989348
0.000933407
0.00124582
0.00133316
0.000509039
1.01296e-15
0.00146396
0.00137117
0.000915776
0.000818875
0.000887728
0.00106901
0.00136228
0.00179147
0.00183527
1e-15
1.94124e-07
0.00167241
0.00125557
0.000946484
0.00107204
0.0014479
0.00175039
0.00204267
0.00221132
1e-15
1e-15
0.00186388
0.00174049
0.00164822
0.00187353
0.00221838
0.00235169
0.00232138
0.00177371
1e-15
1e-15
0.00167321
0.00199085
0.00223794
0.00256215
0.00278615
0.00273885
0.0024252
0.00143409
1e-15
1e-15
0.0011264
0.00192226
0.00261247
0.00279515
0.00229825
0.00167614
0.000949029
0.000153754
1e-15
1e-15
0.000911448
0.00134335
0.001648
0.00202657
0.00196494
0.00164365
0.00104476
0.000672176
1e-15
1e-15
0.00030179
0.000735487
0.00160769
0.00218172
0.00233428
0.00225361
0.00205103
0.00219876
1e-15
1e-15
1e-15
1e-15
0.000419048
0.001359
0.00227549
0.00295169
0.00324537
0.00356127
1e-15
1e-15
4.34673e-15
4.52251e-10
0.00108986
0.00156186
0.00213234
0.00258198
0.00269764
0.00273769
1e-15
4.76478e-15
0.00165027
0.00162389
0.00136056
0.00128114
0.00145671
0.00187892
0.00209883
0.00252131
1e-15
0.00100949
0.0011745
0.00102081
0.000979681
0.00104309
0.00104523
0.00120387
0.00139957
0.00188742
1.04399e-15
0.000988557
0.000928178
0.000848103
0.000967666
0.00115915
0.00091786
0.000988772
0.00113335
0.00166077
0.00235019
0.00084918
0.000719176
0.000824548
0.00107888
0.00128263
0.0011358
0.00105591
0.000661233
0.000111443
0.00120095
0.000549811
0.00065636
0.000780668
0.000812845
0.000816736
0.000705606
0.00055588
0.000370295
0.000108573
0.00077276
0.000424696
0.000527588
0.000663858
0.000737213
0.00075123
0.000692578
0.000561554
0.000378633
0.000149978
0.000507032
0.00024865
0.000324249
0.000406537
0.00043844
0.00042996
0.000377963
0.000294484
0.000188935
7.61307e-05
)
;
    }
    outlet
    {
        type            inletOutlet;
        inletValue      uniform 3.75e-05;
        value           nonuniform List<scalar> 
100
(
3.75e-05
3.75e-05
3.75e-05
3.75e-05
3.75e-05
3.75e-05
3.75e-05
3.75e-05
3.75e-05
3.75e-05
3.75e-05
3.75e-05
3.75e-05
3.75e-05
3.75e-05
0.000521125
0.000659965
0.000681581
0.000656607
0.000509039
0.00184065
0.0012548
0.0011029
0.00125388
0.00183527
0.00221259
0.00147634
0.00127584
0.00147635
0.00221132
0.00180097
0.0013594
0.00122012
0.00134876
0.00177371
0.00146266
0.00119339
0.00110895
0.00117956
0.00143409
3.75e-05
3.75e-05
3.75e-05
3.75e-05
3.75e-05
0.00067349
0.00062862
0.000598473
0.000626627
0.000672176
0.00220193
0.00172736
0.00153963
0.00172133
0.00219876
0.00356639
0.00199423
0.00152384
0.00198901
0.00356127
0.00274124
0.00158242
0.00119512
0.00158061
0.00273769
0.00252147
0.00146978
0.00110593
0.00147083
0.00252131
0.00188217
0.00121603
0.00101411
0.00121985
0.00188742
0.00165462
0.00116347
0.00103488
0.00116744
0.00166077
3.75e-05
3.75e-05
3.75e-05
3.75e-05
3.75e-05
3.75e-05
3.75e-05
3.75e-05
3.75e-05
3.75e-05
3.75e-05
3.75e-05
3.75e-05
3.75e-05
3.75e-05
3.75e-05
3.75e-05
3.75e-05
3.75e-05
3.75e-05
)
;
    }
}


// ************************************************************************* //
