/*--------------------------------*- C++ -*----------------------------------*\
| =========                 |                                                 |
| \\      /  F ield         | OpenFOAM: The Open Source CFD Toolbox           |
|  \\    /   O peration     | Version:  2.3.0                                 |
|   \\  /    A nd           | Web:      www.OpenFOAM.org                      |
|    \\/     M anipulation  |                                                 |
\*---------------------------------------------------------------------------*/
FoamFile
{
    version     2.0;
    format      ascii;
    class       volScalarField;
    location    "1.80215";
    object      nut.water;
}
// * * * * * * * * * * * * * * * * * * * * * * * * * * * * * * * * * * * * * //

dimensions      [0 2 -1 0 0 0 0];

internalField   nonuniform List<scalar> 
1000
(
2.93373e-06
2.71917e-06
3.66752e-06
5.45451e-06
1.32225e-30
1.66126e-30
2.14335e-30
3.64564e-30
6.01477e-30
6.10472e-30
4.88795e-30
3.57238e-30
2.31826e-30
1.74721e-30
1.22316e-30
1.36923e-30
4.95337e-06
2.71031e-06
2.68725e-06
2.79177e-06
3.09858e-06
3.13993e-06
3.47933e-06
4.44116e-06
5.36349e-06
1.04643e-13
3.29024e-30
3.38388e-30
4.16041e-30
6.54301e-30
3.54166e-30
3.34119e-30
3.56653e-30
6.1818e-30
7.46583e-07
3.2536e-06
3.96068e-06
3.31367e-06
3.27837e-06
3.25357e-06
2.79388e-06
2.91422e-06
4.54679e-06
4.76568e-06
5.32399e-06
6.2358e-06
6.67888e-06
5.66762e-06
3.65367e-06
7.35634e-06
7.48907e-07
3.11188e-30
2.51924e-29
4.7242e-06
4.10084e-06
4.17389e-06
3.80537e-06
3.46945e-06
3.10053e-06
2.99109e-06
2.72802e-06
2.63048e-06
3.77788e-06
4.2401e-06
4.43444e-06
5.70474e-06
7.4185e-06
6.33354e-06
5.12167e-06
7.34542e-06
2.62725e-06
3.00633e-30
1.16979e-19
5.0692e-06
4.3489e-06
4.02597e-06
3.84962e-06
3.311e-06
3.07466e-06
2.91135e-06
2.6346e-06
2.59147e-06
4.03608e-06
4.26077e-06
4.38169e-06
4.96959e-06
6.84142e-06
6.41848e-06
6.22358e-06
7.60794e-06
6.11559e-06
7.10851e-07
2.63249e-06
4.95462e-06
4.67962e-06
4.45354e-06
4.06915e-06
3.05543e-06
2.83388e-06
2.76293e-06
2.33301e-06
2.56037e-06
4.01666e-06
4.84231e-06
4.491e-06
4.92154e-06
6.55066e-06
6.97241e-06
7.04875e-06
7.83149e-06
7.402e-06
3.49685e-06
4.04259e-06
5.01789e-06
4.95185e-06
5.08964e-06
4.03941e-06
2.89141e-06
2.66121e-06
2.41932e-06
2.06954e-06
2.25596e-06
3.85986e-06
8.47194e-06
5.23213e-06
6.07883e-06
7.43035e-06
7.84142e-06
8.10328e-06
8.1125e-06
7.90099e-06
5.20662e-06
4.82329e-06
4.72619e-06
5.27898e-06
6.12977e-06
4.36551e-06
2.28135e-06
2.19751e-06
2.14284e-06
1.74808e-06
1.65562e-06
3.02006e-06
9.28207e-06
6.75169e-06
7.36538e-06
8.15582e-06
8.19871e-06
1.00252e-05
9.04709e-06
8.49918e-06
6.72704e-06
6.03752e-06
5.65528e-06
5.67446e-06
6.00724e-06
5.24921e-06
1.83336e-06
1.73097e-06
1.79748e-06
1.38991e-06
1.20697e-06
1.36972e-06
8.96139e-06
7.75367e-06
8.17068e-06
8.12519e-06
8.27721e-06
6.35078e-06
6.91193e-06
8.62759e-06
7.45732e-06
6.89654e-06
6.24419e-06
6.00006e-06
6.85584e-06
6.45081e-06
1.36746e-06
1.21779e-06
1.44036e-06
1.30103e-06
6.97596e-07
5.76204e-07
6.78166e-06
7.14096e-06
7.80734e-06
8.00998e-06
7.43094e-06
1.48107e-06
4.72787e-06
7.98218e-06
8.41697e-06
8.07244e-06
7.51129e-06
7.31747e-06
7.16144e-06
5.32259e-07
5.14251e-07
8.47207e-07
1.27129e-06
2.33409e-06
2.67488e-06
2.70212e-06
4.02193e-06
1.87493e-06
7.68248e-08
5.00362e-10
5.11875e-11
2.51329e-10
3.13224e-09
8.54817e-11
2.61396e-10
1.33111e-10
2.43784e-09
2.03628e-07
2.48957e-06
3.37806e-06
2.57213e-06
2.65908e-06
2.45426e-06
1.36693e-06
2.68808e-06
3.14707e-06
3.66324e-06
4.99725e-06
2.97627e-06
8.19335e-07
2.86098e-08
1.48969e-08
4.38048e-07
5.3288e-09
2.15082e-08
5.20419e-07
1.55657e-06
2.43963e-06
3.34617e-06
3.44663e-06
3.02424e-06
2.42716e-06
1.3195e-06
1.13379e-06
2.06986e-06
4.78428e-06
4.74829e-06
5.25365e-06
6.51175e-06
5.48099e-06
2.95459e-06
1.1483e-06
7.54362e-06
3.4005e-07
6.40504e-07
2.91411e-06
4.64123e-06
4.04583e-06
3.73443e-06
3.25554e-06
2.55542e-06
2.16575e-06
1.20104e-06
1.1521e-06
1.5934e-06
2.92685e-06
3.85746e-06
4.39252e-06
6.1507e-06
7.43629e-06
5.64721e-06
3.04448e-06
8.69596e-06
2.93785e-06
1.94792e-06
3.09491e-06
4.89445e-06
3.62069e-06
3.03556e-06
2.75365e-06
2.12843e-06
2.03743e-06
1.27692e-06
1.15478e-06
1.45873e-06
2.49718e-06
2.80635e-06
3.26827e-06
4.60187e-06
7.63816e-06
5.95972e-06
4.18044e-06
8.09804e-06
7.08293e-06
2.46287e-06
3.95143e-06
4.65676e-06
3.53948e-06
3.15024e-06
2.69413e-06
1.64692e-06
1.4407e-06
1.19365e-06
9.72787e-07
1.20277e-06
2.80969e-06
3.88363e-06
3.92901e-06
4.88245e-06
7.34574e-06
6.14521e-06
5.69654e-06
7.87142e-06
8.2139e-06
3.17969e-06
4.30531e-06
4.50357e-06
4.0377e-06
3.69592e-06
3.10792e-06
1.43657e-06
1.22596e-06
1.03393e-06
9.32457e-07
9.53412e-07
3.23429e-06
8.48905e-06
4.73004e-06
5.92347e-06
7.24705e-06
6.88116e-06
7.68816e-06
8.80024e-06
8.924e-06
4.55021e-06
4.29656e-06
4.44033e-06
4.48248e-06
5.10776e-06
4.28004e-06
1.21983e-06
9.72501e-07
1.04298e-06
1.00019e-06
8.82791e-07
3.47478e-06
9.87918e-06
6.83266e-06
7.46749e-06
7.93563e-06
7.72166e-06
9.82063e-06
9.83784e-06
1.00566e-05
6.09133e-06
4.48488e-06
4.76829e-06
5.10848e-06
5.71929e-06
5.7765e-06
1.26735e-06
9.4605e-07
8.90335e-07
8.19396e-07
8.57199e-07
1.75803e-06
9.34504e-06
7.78021e-06
8.51944e-06
8.18938e-06
8.03254e-06
6.42606e-06
7.98834e-06
1.04378e-05
6.63553e-06
5.15325e-06
5.28035e-06
5.51487e-06
6.62008e-06
7.19987e-06
1.25078e-06
1.05125e-06
9.35169e-07
8.2125e-07
8.18508e-07
8.5598e-07
5.93936e-06
7.39227e-06
7.97189e-06
8.32628e-06
7.98531e-06
1.60643e-06
5.21509e-06
9.40491e-06
7.53496e-06
6.9926e-06
6.66791e-06
6.90215e-06
7.38982e-06
1.67184e-06
8.5679e-07
9.83842e-07
8.23794e-07
2.29158e-06
2.9134e-06
2.92734e-06
3.89604e-06
3.07357e-06
5.28997e-07
3.26691e-08
6.17861e-09
5.00294e-09
1.39965e-08
3.21593e-09
1.02173e-08
9.29825e-09
8.84986e-08
1.86917e-06
3.33258e-06
3.66926e-06
2.99299e-06
2.64419e-06
2.41807e-06
9.42012e-07
2.63309e-06
3.27899e-06
3.59917e-06
4.95333e-06
3.01886e-06
4.11732e-07
1.81044e-08
1.13725e-08
2.552e-07
6.82904e-09
1.68708e-08
6.13495e-08
7.57442e-07
2.62571e-06
3.90137e-06
3.42145e-06
2.55786e-06
1.68599e-06
8.69572e-07
8.68593e-07
1.9296e-06
5.04661e-06
5.05896e-06
5.53347e-06
6.50598e-06
4.32887e-06
4.57616e-07
9.2741e-08
7.3792e-06
6.97152e-08
5.23512e-08
1.10432e-06
3.63658e-06
4.60237e-06
3.74172e-06
2.69555e-06
1.66662e-06
1.41007e-06
9.26231e-07
9.50054e-07
1.27236e-06
2.3853e-06
3.88439e-06
4.6967e-06
6.49421e-06
7.32667e-06
3.77511e-06
8.33127e-07
9.37899e-06
2.46838e-06
2.53227e-07
2.92179e-06
4.87885e-06
3.73004e-06
2.50762e-06
1.92049e-06
1.21884e-06
1.2224e-06
1.12691e-06
1.15053e-06
1.08232e-06
1.84059e-06
2.20744e-06
2.80995e-06
4.60057e-06
7.78089e-06
5.72349e-06
3.07072e-06
8.61286e-06
7.82925e-06
1.11883e-06
3.72158e-06
4.95076e-06
3.17175e-06
2.61357e-06
2.18439e-06
1.01886e-06
9.04061e-07
1.15457e-06
9.63553e-07
8.79906e-07
2.66826e-06
3.71561e-06
3.70279e-06
4.9856e-06
7.82236e-06
6.13131e-06
5.35968e-06
8.14292e-06
9.0971e-06
2.17533e-06
4.20797e-06
4.70541e-06
3.68678e-06
3.31066e-06
2.97732e-06
1.0367e-06
7.83079e-07
1.06103e-06
1.07534e-06
8.82142e-07
3.47606e-06
8.66441e-06
4.76756e-06
6.1963e-06
7.62898e-06
6.9022e-06
8.07745e-06
9.3762e-06
9.75322e-06
3.69441e-06
4.27118e-06
4.71599e-06
4.27687e-06
4.86301e-06
4.49994e-06
1.23332e-06
7.44002e-07
1.22927e-06
1.11238e-06
9.7122e-07
4.14238e-06
1.01368e-05
7.15062e-06
7.75692e-06
8.19592e-06
7.97915e-06
9.56713e-06
1.00709e-05
1.0742e-05
5.88565e-06
4.41268e-06
4.78985e-06
5.12276e-06
5.7506e-06
6.22781e-06
1.35777e-06
8.19501e-07
9.8164e-07
9.02709e-07
8.83143e-07
2.0073e-06
9.53246e-06
8.10937e-06
8.89663e-06
8.59887e-06
8.29607e-06
6.71928e-06
8.36074e-06
1.09196e-05
6.65537e-06
4.81645e-06
5.12977e-06
5.57056e-06
6.70678e-06
7.37013e-06
1.2099e-06
8.58327e-07
1.01809e-06
8.67056e-07
8.60427e-07
9.358e-07
6.12887e-06
7.84254e-06
8.42064e-06
8.62263e-06
8.23257e-06
1.71468e-06
5.3138e-06
1.00455e-05
7.63738e-06
6.68729e-06
6.46632e-06
7.04828e-06
7.77255e-06
2.50976e-06
8.92394e-07
8.65856e-07
8.61111e-07
2.34175e-06
2.69303e-06
2.70114e-06
4.02384e-06
1.87618e-06
7.8085e-08
5.15724e-10
5.41035e-11
2.29711e-10
3.0943e-09
8.03705e-11
3.10509e-10
1.54806e-10
2.4131e-09
2.16677e-07
2.47825e-06
3.38509e-06
2.57889e-06
2.65976e-06
2.45711e-06
1.3764e-06
2.71785e-06
3.16111e-06
3.66747e-06
4.99856e-06
2.97387e-06
8.24272e-07
2.85561e-08
1.56549e-08
4.16905e-07
5.98905e-09
1.98992e-08
5.01366e-07
1.68172e-06
2.92966e-06
3.40432e-06
3.47832e-06
3.04509e-06
2.43503e-06
1.32514e-06
1.14075e-06
2.08822e-06
4.80962e-06
4.75887e-06
5.25885e-06
6.51929e-06
5.51936e-06
2.87095e-06
1.19291e-06
7.54775e-06
3.40931e-07
6.04104e-07
2.99118e-06
4.83379e-06
4.14049e-06
3.70677e-06
3.29446e-06
2.57564e-06
2.17266e-06
1.20269e-06
1.16114e-06
1.60097e-06
2.93365e-06
3.85482e-06
4.38948e-06
6.13928e-06
7.43786e-06
5.6528e-06
3.05452e-06
8.66469e-06
2.95877e-06
1.91316e-06
3.15709e-06
5.02331e-06
3.66894e-06
3.04225e-06
2.75518e-06
2.13508e-06
2.04395e-06
1.28018e-06
1.15965e-06
1.46288e-06
2.49758e-06
2.80032e-06
3.26202e-06
4.59169e-06
7.6207e-06
5.96015e-06
4.18657e-06
8.0697e-06
7.06665e-06
2.46932e-06
3.99433e-06
4.68186e-06
3.54414e-06
3.15583e-06
2.69483e-06
1.65126e-06
1.44612e-06
1.19614e-06
9.77854e-07
1.20643e-06
2.79954e-06
3.87608e-06
3.92363e-06
4.87462e-06
7.33455e-06
6.15137e-06
5.67931e-06
7.83734e-06
8.1679e-06
3.17342e-06
4.31924e-06
4.51439e-06
4.03517e-06
3.6912e-06
3.10767e-06
1.43843e-06
1.2294e-06
1.03654e-06
9.34807e-07
9.55121e-07
3.2228e-06
8.49044e-06
4.73576e-06
5.92836e-06
7.2423e-06
6.88907e-06
7.64831e-06
8.74995e-06
8.88137e-06
4.50287e-06
4.29519e-06
4.44784e-06
4.48158e-06
5.10702e-06
4.2795e-06
1.22093e-06
9.72571e-07
1.04461e-06
1.00113e-06
8.83165e-07
3.46435e-06
9.89074e-06
6.86751e-06
7.48976e-06
7.94037e-06
7.72329e-06
9.77193e-06
9.76854e-06
9.97172e-06
6.05391e-06
4.46857e-06
4.76674e-06
5.11055e-06
5.72751e-06
5.78074e-06
1.26703e-06
9.42347e-07
8.89696e-07
8.19916e-07
8.5799e-07
1.75005e-06
9.32976e-06
7.78413e-06
8.52832e-06
8.18352e-06
8.01056e-06
6.36549e-06
7.91002e-06
1.03559e-05
6.5933e-06
5.13836e-06
5.28118e-06
5.52168e-06
6.64519e-06
7.20161e-06
1.25085e-06
1.04042e-06
9.36103e-07
8.21605e-07
8.18874e-07
8.56376e-07
5.88343e-06
7.39827e-06
7.97242e-06
8.29405e-06
7.9055e-06
1.57374e-06
5.18917e-06
9.35111e-06
7.51205e-06
6.98521e-06
6.67829e-06
6.92736e-06
7.42027e-06
1.67296e-06
8.57207e-07
9.60798e-07
8.23989e-07
2.94645e-06
2.72094e-06
3.68288e-06
5.45294e-06
1.33203e-30
1.66886e-30
2.14805e-30
3.6919e-30
5.83172e-30
6.0041e-30
5.28376e-30
3.2114e-30
2.77584e-30
1.59093e-30
1.29275e-30
1.05301e-30
4.97177e-06
2.72362e-06
2.68749e-06
2.79837e-06
3.10818e-06
3.16936e-06
3.49688e-06
4.44861e-06
5.37119e-06
9.89118e-14
3.26889e-30
3.35988e-30
4.10888e-30
5.69442e-30
4.03775e-30
3.19705e-30
3.63232e-30
1.0279e-28
3.2552e-06
3.29202e-06
4.00425e-06
3.33375e-06
3.28787e-06
3.26224e-06
2.79318e-06
2.93298e-06
4.586e-06
4.77573e-06
5.32131e-06
6.2524e-06
6.70719e-06
5.63847e-06
3.684e-06
7.40243e-06
7.03657e-07
2.87506e-30
3.42383e-29
5.17583e-06
4.59389e-06
4.11868e-06
3.839e-06
3.4643e-06
3.09954e-06
2.98916e-06
2.72598e-06
2.63208e-06
3.77668e-06
4.238e-06
4.42901e-06
5.69123e-06
7.42547e-06
6.3281e-06
5.11495e-06
7.32731e-06
2.66049e-06
2.91954e-30
3.96094e-19
5.29988e-06
4.39676e-06
4.02563e-06
3.83926e-06
3.30634e-06
3.06986e-06
2.91045e-06
2.6332e-06
2.58992e-06
4.02149e-06
4.25192e-06
4.37557e-06
4.96251e-06
6.83432e-06
6.39635e-06
6.22296e-06
7.59952e-06
6.12468e-06
6.95275e-07
2.6347e-06
5.05002e-06
4.67959e-06
4.45382e-06
4.0669e-06
3.05319e-06
2.83211e-06
2.76229e-06
2.33194e-06
2.55873e-06
4.00356e-06
4.83397e-06
4.48694e-06
4.91689e-06
6.54371e-06
6.94132e-06
7.01888e-06
7.79553e-06
7.36752e-06
3.47965e-06
4.05747e-06
5.04881e-06
4.94993e-06
5.08933e-06
4.04021e-06
2.88971e-06
2.65962e-06
2.41904e-06
2.0697e-06
2.25316e-06
3.84554e-06
8.48632e-06
5.2399e-06
6.08423e-06
7.42918e-06
7.81685e-06
8.0442e-06
8.05141e-06
7.88676e-06
5.1622e-06
4.83203e-06
4.74498e-06
5.28091e-06
6.13391e-06
4.36819e-06
2.27968e-06
2.19598e-06
2.14306e-06
1.74728e-06
1.65491e-06
3.00249e-06
9.31899e-06
6.80879e-06
7.38665e-06
8.15107e-06
8.16582e-06
9.95562e-06
8.93821e-06
8.41531e-06
6.69789e-06
6.02674e-06
5.65066e-06
5.67215e-06
6.01597e-06
5.25439e-06
1.83178e-06
1.73056e-06
1.79712e-06
1.39027e-06
1.20726e-06
1.36361e-06
8.93604e-06
7.78374e-06
8.18978e-06
8.10534e-06
8.22344e-06
6.2362e-06
6.7857e-06
8.54136e-06
7.42397e-06
6.88812e-06
6.23586e-06
5.9984e-06
6.89038e-06
6.44933e-06
1.36574e-06
1.21746e-06
1.44086e-06
1.30383e-06
6.97873e-07
5.98938e-07
6.62313e-06
7.12213e-06
7.79998e-06
7.93632e-06
7.30049e-06
1.44444e-06
4.69797e-06
7.93752e-06
8.39873e-06
8.06976e-06
7.52403e-06
7.3488e-06
7.20536e-06
5.3195e-07
5.22098e-07
8.4712e-07
1.27313e-06
)
;

boundaryField
{
    aeration
    {
        type            calculated;
        value           uniform 8.4375e-07;
    }
    xsides
    {
        type            nutkWallFunction;
        Cmu             0.09;
        kappa           0.41;
        E               9.8;
        value           nonuniform List<scalar> 
100
(
8.36198e-07
6.16624e-07
6.44291e-07
6.87312e-07
7.0885e-07
6.85708e-07
6.25636e-07
5.38309e-07
3.97841e-07
1.72775e-07
6.02382e-07
3.59258e-07
3.41019e-07
3.42435e-07
3.23288e-07
2.59171e-07
2.03678e-07
1.49544e-07
7.99024e-08
4.76949e-08
5.20382e-07
2.1653e-07
1.91919e-07
1.85309e-07
1.68359e-07
1.16963e-07
9.67828e-08
7.456e-08
5.29483e-08
4.49809e-08
6.03463e-07
3.60343e-07
3.42031e-07
3.43498e-07
3.23956e-07
2.59887e-07
2.0401e-07
1.49669e-07
7.99815e-08
4.77048e-08
8.37532e-07
6.17405e-07
6.44329e-07
6.87085e-07
7.08667e-07
6.85563e-07
6.25664e-07
5.38218e-07
3.9799e-07
1.72643e-07
7.92233e-07
4.97218e-07
5.97688e-07
6.91802e-07
7.2536e-07
7.1656e-07
6.60356e-07
5.60313e-07
4.06662e-07
1.70948e-07
6.08031e-07
3.23991e-07
3.53703e-07
3.69844e-07
3.39191e-07
2.75216e-07
2.18147e-07
1.33999e-07
8.05844e-08
4.74832e-08
5.38201e-07
2.11229e-07
2.18187e-07
2.18098e-07
1.70173e-07
1.28081e-07
1.03228e-07
7.04201e-08
5.78866e-08
4.5103e-08
6.08431e-07
3.24665e-07
3.53893e-07
3.70238e-07
3.39529e-07
2.75563e-07
2.18353e-07
1.33981e-07
8.06418e-08
4.74776e-08
7.92952e-07
4.97921e-07
5.97608e-07
6.91738e-07
7.25293e-07
7.16512e-07
6.60395e-07
5.60257e-07
4.06804e-07
1.70726e-07
)
;
    }
    zsides
    {
        type            nutkWallFunction;
        Cmu             0.09;
        kappa           0.41;
        E               9.8;
        value           nonuniform List<scalar> 
400
(
0
0
0
0
0
0
0
0
0
0
0
0
0
0
0
0
0
0
0
0
8.06508e-08
0
0
0
2.06531e-09
2.48634e-08
1.90408e-08
0
0
0
1.48978e-07
1.54594e-08
1.80518e-08
0
0
2.77533e-09
0
3.66071e-08
4.84092e-08
0
0
6.21229e-08
5.19565e-08
0
0
0
1.33241e-08
4.97141e-08
9.74648e-08
1.03163e-07
0
0
8.56286e-08
3.80196e-08
0
1.38914e-08
6.05044e-08
9.29873e-08
1.21759e-07
1.38305e-07
0
0
1.0581e-07
9.30289e-08
8.24827e-08
1.05599e-07
1.3857e-07
1.51634e-07
1.49325e-07
9.91702e-08
0
0
8.68969e-08
1.19751e-07
1.42872e-07
1.71054e-07
1.89319e-07
1.85504e-07
1.59507e-07
6.28993e-08
0
0
2.22351e-08
1.12596e-07
1.73453e-07
1.88391e-07
1.47763e-07
8.83041e-08
0
0
0
0
0
4.81634e-08
8.32325e-08
1.21951e-07
1.16617e-07
8.44924e-08
1.19689e-08
0
0
0
0
0
7.81353e-08
1.35747e-07
1.49748e-07
1.43013e-07
1.23695e-07
1.36489e-07
0
0
0
0
0
5.12495e-08
1.44353e-07
1.99548e-07
2.21219e-07
2.42982e-07
0
0
0
0
1.54438e-08
7.28625e-08
1.3015e-07
1.69696e-07
1.79065e-07
1.82524e-07
0
0
6.93452e-08
7.34611e-08
4.8673e-08
4.03675e-08
6.13502e-08
1.06637e-07
1.27626e-07
1.64065e-07
0
0
1.63765e-08
5.32114e-09
7.763e-10
9.9688e-09
1.03214e-08
3.15034e-08
5.52238e-08
1.06506e-07
0
6.61855e-10
0
0
0
2.55608e-08
0
2.33661e-09
2.18114e-08
8.38542e-08
1.49945e-07
0
0
0
1.46544e-08
4.10322e-08
2.23993e-08
1.17028e-08
0
0
3.08037e-08
0
0
0
0
0
0
0
0
0
0
0
0
0
0
0
0
0
0
0
0
0
0
0
0
0
0
0
0
0
0
0
0
0
0
0
0
0
0
0
0
0
0
0
0
0
0
0
0
0
8.14747e-08
0
0
0
1.73481e-09
2.45099e-08
1.86552e-08
0
0
0
1.4875e-07
1.56715e-08
1.81319e-08
0
0
2.63082e-09
0
3.71071e-08
4.78027e-08
0
0
6.24162e-08
5.18045e-08
0
0
0
1.35044e-08
5.07369e-08
9.81393e-08
1.02626e-07
0
0
8.56667e-08
3.77275e-08
0
1.39396e-08
6.06271e-08
9.33071e-08
1.22108e-07
1.38193e-07
0
0
1.05472e-07
9.25774e-08
8.26323e-08
1.05615e-07
1.38136e-07
1.50528e-07
1.47955e-07
9.64023e-08
0
0
8.59976e-08
1.17812e-07
1.40573e-07
1.68381e-07
1.86432e-07
1.82693e-07
1.56908e-07
5.96231e-08
0
0
2.17567e-08
1.11204e-07
1.72518e-07
1.87139e-07
1.45929e-07
8.63063e-08
0
0
0
0
0
4.90245e-08
8.33292e-08
1.21202e-07
1.15332e-07
8.28305e-08
1.02255e-08
0
0
0
0
0
7.90129e-08
1.35541e-07
1.4908e-07
1.41846e-07
1.22666e-07
1.36202e-07
0
0
0
0
0
5.05167e-08
1.43567e-07
1.98814e-07
2.2044e-07
2.42635e-07
0
0
0
0
1.63936e-08
7.34338e-08
1.30346e-07
1.69292e-07
1.78718e-07
1.8224e-07
0
0
8.28564e-08
8.00509e-08
5.04913e-08
4.08946e-08
6.15928e-08
1.06126e-07
1.27031e-07
1.6405e-07
0
5.24579e-09
2.75226e-08
6.79163e-09
8.65009e-10
9.94657e-09
1.0276e-08
3.12709e-08
5.50586e-08
1.07022e-07
0
2.18169e-09
0
0
0
2.55134e-08
0
2.42802e-09
2.22407e-08
8.45046e-08
1.50462e-07
0
0
0
1.45974e-08
4.1021e-08
2.24149e-08
1.17825e-08
0
0
3.13728e-08
0
0
0
0
0
0
0
0
0
0
0
0
0
0
0
0
0
0
0
0
0
0
0
0
0
0
0
0
0
)
;
    }
    outlet
    {
        type            calculated;
        value           nonuniform List<scalar> 
100
(
8.4375e-07
8.4375e-07
8.4375e-07
8.4375e-07
8.4375e-07
8.4375e-07
8.4375e-07
8.4375e-07
8.4375e-07
8.4375e-07
8.4375e-07
8.4375e-07
8.4375e-07
8.4375e-07
8.4375e-07
6.78166e-06
5.93936e-06
6.12887e-06
5.88343e-06
6.62313e-06
7.14096e-06
7.39227e-06
7.84254e-06
7.39827e-06
7.12213e-06
7.80734e-06
7.97189e-06
8.42064e-06
7.97242e-06
7.79998e-06
8.00998e-06
8.32628e-06
8.62263e-06
8.29405e-06
7.93632e-06
7.43094e-06
7.98531e-06
8.23257e-06
7.9055e-06
7.30049e-06
8.4375e-07
8.4375e-07
8.4375e-07
8.4375e-07
8.4375e-07
4.72787e-06
5.21509e-06
5.3138e-06
5.18917e-06
4.69797e-06
7.98218e-06
9.40491e-06
1.00455e-05
9.35111e-06
7.93752e-06
8.41697e-06
7.53496e-06
7.63738e-06
7.51205e-06
8.39873e-06
8.07244e-06
6.9926e-06
6.68729e-06
6.98521e-06
8.06976e-06
7.51129e-06
6.66791e-06
6.46632e-06
6.67829e-06
7.52403e-06
7.31747e-06
6.90215e-06
7.04828e-06
6.92736e-06
7.3488e-06
7.16144e-06
7.38982e-06
7.77255e-06
7.42027e-06
7.20536e-06
8.4375e-07
8.4375e-07
8.4375e-07
8.4375e-07
8.4375e-07
8.4375e-07
8.4375e-07
8.4375e-07
8.4375e-07
8.4375e-07
8.4375e-07
8.4375e-07
8.4375e-07
8.4375e-07
8.4375e-07
8.4375e-07
8.4375e-07
8.4375e-07
8.4375e-07
8.4375e-07
)
;
    }
}


// ************************************************************************* //
