/*--------------------------------*- C++ -*----------------------------------*\
| =========                 |                                                 |
| \\      /  F ield         | OpenFOAM: The Open Source CFD Toolbox           |
|  \\    /   O peration     | Version:  2.3.0                                 |
|   \\  /    A nd           | Web:      www.OpenFOAM.org                      |
|    \\/     M anipulation  |                                                 |
\*---------------------------------------------------------------------------*/
FoamFile
{
    version     2.0;
    format      ascii;
    class       volVectorField;
    location    "1.80215";
    object      U.waterMean;
}
// * * * * * * * * * * * * * * * * * * * * * * * * * * * * * * * * * * * * * //

dimensions      [0 1 -1 0 0 0 0];

internalField   nonuniform List<vector> 
1000
(
(0.0110261 -0.0354491 0.00172461)
(0.0183241 -0.0233074 0.00181081)
(0.0115897 -0.0197404 0.00202253)
(0.00984935 -0.0184276 0.00150686)
(0.0134353 -0.0226773 0.00143457)
(0.011931 -0.0222831 0.00207089)
(0.0083973 -0.0181279 0.00248165)
(0.00392679 -0.0139344 0.00272382)
(-0.00565827 -0.0164998 0.00221524)
(-0.00108872 -0.0309073 0.00191645)
(0.00333372 -0.0228525 0.00258067)
(-0.00186385 -0.00776976 0.00220228)
(-0.00882715 -0.01242 0.00248661)
(-0.012567 -0.0206432 0.00182523)
(-0.0154724 -0.0260916 0.00194831)
(-0.0155978 -0.0238192 0.00132011)
(-0.0134054 -0.017051 0.00149163)
(-0.0157595 -0.0188783 0.00197069)
(-0.019754 -0.0233487 0.00153008)
(-0.0107774 -0.0343237 0.00131072)
(0.00445995 -0.0306197 0.000292444)
(0.0159966 -0.00700979 0.000636829)
(0.0125555 -0.00552531 0.000545831)
(0.0175006 -0.0090491 0.000711836)
(0.0197773 -0.015136 -0.000437458)
(0.0177926 -0.0164622 -0.000598861)
(0.0121077 -0.018519 -0.000170964)
(0.00727053 -0.0161679 -0.000255458)
(0.00145139 -0.01821 -0.000707928)
(0.00184747 -0.0276725 -0.000746179)
(-0.000715632 -0.0206289 -0.000231307)
(-0.00744677 -0.0115633 0.000647809)
(-0.0101031 -0.0142366 0.000355664)
(-0.0186001 -0.0158624 0.000270644)
(-0.0245333 -0.016091 -0.00100663)
(-0.0249483 -0.0145306 -0.000482725)
(-0.0219109 -0.00875599 0.00059318)
(-0.0156703 -0.00675237 0.00043431)
(-0.0168736 -0.00935805 0.000486492)
(-0.00472145 -0.0273021 0.000183454)
(-0.000659699 -0.0387733 -0.000561542)
(0.00647376 -0.0107145 -0.000865656)
(0.00866491 -0.0143708 -0.00103197)
(0.0178713 -0.0201142 -0.00043744)
(0.0204788 -0.0173933 -0.000669533)
(0.0168244 -0.00889369 -0.000737534)
(0.010119 -0.00808442 -0.00112196)
(0.00605507 -0.00590151 -0.00118761)
(0.00237704 -0.0110864 -0.0011878)
(0.00408366 -0.0259105 -0.00113434)
(0.00491101 -0.01207 -0.000948824)
(-0.00156753 -0.0123897 -0.000433763)
(-0.00994647 -0.00945465 -0.000340298)
(-0.0189169 -0.00946953 -0.00110956)
(-0.0258869 -0.0108122 -0.00105493)
(-0.0280169 -0.0167402 -0.00037098)
(-0.0234826 -0.0188205 -0.000965835)
(-0.0109837 -0.0140329 -0.00150717)
(-0.00736201 -0.0146558 -0.000868517)
(0.000235007 -0.0352646 -0.00039641)
(-0.00490999 -0.0308082 -0.000251579)
(-0.00255927 -0.00917276 -0.000797899)
(0.00977269 -0.0158333 -0.000958198)
(0.0164749 -0.0175108 -0.000450789)
(0.0177516 -0.0118824 -0.000185003)
(0.0119662 0.00133312 -0.000738342)
(0.00628566 0.000793742 -0.00100452)
(0.0043009 0.00300075 -0.00113519)
(0.00576538 -0.00678224 -0.000837076)
(0.00653185 -0.0218283 -0.000571048)
(0.00778749 -0.00705006 -0.000912307)
(-0.0018231 -4.45935e-05 -0.00125007)
(-0.00888966 0.0021181 -0.00106133)
(-0.0144656 0.00332283 -0.00147473)
(-0.0239905 -0.00286249 -0.00102593)
(-0.0269266 -0.0120892 -0.00056974)
(-0.0232871 -0.0172317 -0.000573209)
(-0.0146071 -0.0160392 -0.0010137)
(-0.000523226 -0.0124545 -0.000920344)
(0.00348349 -0.028623 -0.000285767)
(-0.00217109 -0.0258756 -4.18306e-05)
(0.00281255 -0.0133032 -0.000911184)
(0.0122707 -0.0185134 0.000105389)
(0.011445 -0.0159151 2.5058e-05)
(0.00960737 -0.00528 -0.000249059)
(0.00365909 0.0103834 -0.000686515)
(0.00296053 0.00739873 -0.0006789)
(0.00258492 0.00695688 -0.000524882)
(0.00912662 -0.00403931 -0.000525557)
(0.00789632 -0.0174197 -4.39216e-05)
(0.00365098 -0.000465666 -0.000353249)
(-0.00187254 0.01507 -0.00106475)
(-0.00414098 0.0108084 -0.00101608)
(-0.00555982 0.0164077 -0.00137488)
(-0.0128771 0.00453033 -0.000371579)
(-0.0180512 -0.00884377 -0.000117684)
(-0.0195862 -0.0178829 0.000274893)
(-0.0156626 -0.0231721 3.55172e-05)
(-0.00578353 -0.0202587 -0.000790975)
(0.000671694 -0.0272241 8.28724e-05)
(-0.00128922 -0.0230283 -6.64567e-06)
(0.00303621 -0.0194205 -0.000155287)
(0.00540716 -0.0204611 0.000378338)
(0.00313588 -0.0102049 3.31931e-05)
(-0.00204232 0.00525443 -0.000249722)
(-0.00329142 0.0153207 -0.000542362)
(4.05848e-05 0.0101558 -0.000443919)
(0.000499659 0.00727424 -0.000313787)
(0.00881343 -0.00320778 -0.000613493)
(0.00826857 -0.0110109 -3.05888e-05)
(0.0017372 0.00764318 -0.000175554)
(-0.00107463 0.0256429 -0.000700681)
(0.000924612 0.0181053 -0.000663042)
(0.00270133 0.0278838 -0.0010058)
(-0.000869219 0.0156558 -0.000132329)
(-0.00536124 0.00157537 3.39107e-05)
(-0.0131602 -0.0168215 0.00058967)
(-0.00895343 -0.0275558 0.000436512)
(-0.00528289 -0.0260086 6.13607e-05)
(-0.000372518 -0.0273821 2.41451e-05)
(-0.000401625 -0.021677 8.2184e-05)
(-0.000444803 -0.0203189 9.22952e-05)
(-0.00248039 -0.0182919 7.64908e-05)
(-0.00561346 -0.00628721 -0.000201968)
(-0.0059913 0.00650872 -0.000171354)
(-0.00488221 0.0135963 -0.00033161)
(-0.000885092 0.00925429 -0.0003068)
(0.00198425 0.00531285 -0.000300647)
(0.00697116 -0.00595081 -0.000317245)
(0.00589826 -0.00668455 -9.00378e-05)
(0.000195329 0.0134612 -0.000143449)
(-0.000110196 0.0295532 -0.000425037)
(0.00303661 0.0183033 -0.000247209)
(0.00703975 0.0305112 -0.000518796)
(0.00700088 0.0191547 5.60106e-05)
(0.00579101 0.00424321 -0.000102251)
(-0.00134311 -0.0143882 -7.77e-06)
(-0.00108495 -0.0282902 0.00023817)
(-0.00223681 -0.0284965 0.000113629)
(-0.000469438 -0.0283716 0.000100178)
(-0.00054131 -0.0203419 6.2252e-05)
(-0.00226828 -0.0191104 7.18204e-05)
(-0.00520331 -0.0159058 -0.000204831)
(-0.00710664 -0.00383165 -0.000298864)
(-0.00506443 0.00620106 -0.000233793)
(-0.00350045 0.0117262 -0.000305122)
(-0.000924287 0.00700204 -0.000220714)
(0.00447538 0.00350264 -0.000448519)
(0.00590681 -0.0058533 -0.000163273)
(0.00378547 -0.00158312 -0.000127885)
(-0.00102045 0.0174817 -8.65586e-05)
(0.000321072 0.0296729 -0.000296417)
(0.00274764 0.0161942 -0.000148621)
(0.00672012 0.0288875 -0.000348901)
(0.00809524 0.0192924 -4.48834e-05)
(0.00688911 0.00664239 -0.000151111)
(0.00517464 -0.0117803 -0.000222937)
(0.00285552 -0.0262018 7.14617e-06)
(0.00021842 -0.0282922 0.000139727)
(-4.07346e-05 -0.0283839 0.000103961)
(-0.000448744 -0.0191259 7.08993e-05)
(-0.00203701 -0.0171772 5.68709e-05)
(-0.00438353 -0.0110836 -0.000127765)
(-0.00553514 -0.00121057 -0.000340948)
(-0.00305822 0.00625544 -0.000217346)
(-0.00162188 0.0109421 -0.000289666)
(-0.000332328 0.00572741 -0.000190747)
(0.00363905 0.00329603 -0.000382327)
(0.00307445 -0.0038463 -0.000224285)
(0.00111941 0.00445311 -0.000216668)
(-0.0020211 0.0210803 -0.000185436)
(0.000288014 0.0294554 -0.000254975)
(0.0017914 0.0154675 -0.000149935)
(0.00457419 0.0279353 -0.000239948)
(0.00650668 0.020156 -0.000123293)
(0.00458417 0.0088601 -0.000123487)
(0.00678431 -0.00580669 -0.000306354)
(0.00338564 -0.0227114 -4.43871e-05)
(0.000921231 -0.0273258 0.000100079)
(0.000116505 -0.0280333 0.000102621)
(-0.00013891 -0.0185626 6.75556e-05)
(-0.000372161 -0.0162825 -3.6851e-06)
(-0.000725797 -0.00941162 3.38593e-06)
(-0.00108487 -0.000861725 -0.000108223)
(-0.00059662 0.00527782 -9.9667e-05)
(-0.000277924 0.00906515 -8.82694e-05)
(-0.000369818 0.00412257 -9.37585e-05)
(0.000907897 0.00323921 -0.000157281)
(0.000240439 -0.0032317 8.79643e-06)
(0.000298759 0.0078243 -8.78203e-05)
(-0.00132088 0.0207019 -6.23404e-05)
(-1.37891e-05 0.0266315 -0.000103138)
(0.000756814 0.0133119 -3.05044e-06)
(0.00226783 0.0248958 -0.00013309)
(0.00264845 0.0189766 -5.01894e-05)
(0.00132421 0.0100537 -8.53178e-05)
(0.00107974 -0.0059662 -1.14028e-05)
(0.000638593 -0.0206918 -1.05105e-05)
(0.000308199 -0.02646 1.75459e-05)
(4.89351e-05 -0.0277847 0.000103161)
(0.0124981 -0.0300133 0.0023531)
(0.0187795 -0.0182534 0.00230124)
(0.0110423 -0.0147026 0.00225545)
(0.00911205 -0.0153703 0.00180994)
(0.0112202 -0.0103367 0.00279748)
(0.00997097 -0.00769517 0.0045395)
(0.00686691 -0.0043944 0.00308597)
(0.00331446 -0.00124359 0.00312198)
(-0.0063194 -0.00264551 0.0031956)
(-0.00159698 -0.0152637 0.00396027)
(0.00519674 -0.0100955 0.00247018)
(-7.20984e-05 0.000293571 0.00330236)
(-0.0079643 -0.00394311 0.00236789)
(-0.010316 -0.00923092 0.00530736)
(-0.0122781 -0.011021 0.00426831)
(-0.0121326 -0.00991703 0.00363908)
(-0.0126638 -0.014538 0.00183158)
(-0.0151901 -0.0142033 0.00214557)
(-0.0200695 -0.0190753 0.00203601)
(-0.0122333 -0.0299625 0.00184476)
(0.0069857 -0.00852487 -0.000287932)
(0.0160214 0.0148779 0.00042248)
(0.0120754 0.0152298 0.000608311)
(0.0164377 0.010394 0.00153966)
(0.0163024 0.0101181 0.00249606)
(0.0120878 0.0147146 0.00215579)
(0.00641946 0.0186452 0.0030971)
(0.0040894 0.0247744 0.00342272)
(-0.00204904 0.0188907 0.00346512)
(-0.00122819 0.00657346 0.00299958)
(-0.000708505 0.0230937 0.00283827)
(-0.00497418 0.0186859 0.00352856)
(-0.0069984 0.0222055 0.00354177)
(-0.0110988 0.00880364 0.00246938)
(-0.0158039 0.0154925 0.00185581)
(-0.0194758 0.0098102 0.00194113)
(-0.020144 0.0101679 0.00144094)
(-0.0151018 0.0130738 0.000481196)
(-0.0166906 0.0105087 0.000390507)
(-0.00674191 -0.00987228 -0.00057608)
(2.32096e-05 -0.0309266 -0.00122089)
(0.00774869 0.00728161 -0.000990468)
(0.00837664 0.00526966 -0.0010799)
(0.0169015 0.00140095 -0.000903229)
(0.0192477 0.0059701 -0.000940384)
(0.0154309 0.0143521 -0.000554027)
(0.0091085 0.0156844 -0.000700695)
(0.00551697 0.0197266 -0.000764158)
(0.001547 0.0134749 -0.000868328)
(0.00324135 -0.0018866 -0.000684228)
(0.00421156 0.0110129 -7.46846e-05)
(-0.00210744 0.0164045 0.00153251)
(-0.00637976 0.0178215 0.000720465)
(-0.0148099 0.0151125 0.000866377)
(-0.0238283 0.0108967 -7.0061e-05)
(-0.0256689 0.00653258 -0.000215859)
(-0.021795 0.000256204 -0.0012622)
(-0.0105314 0.00270703 -0.00151834)
(-0.00867647 0.00112274 -0.0010131)
(-0.000270703 -0.0314359 -0.000948431)
(-0.0040437 -0.029028 -0.000609009)
(-0.00158914 0.00223264 -0.00112297)
(0.0092093 -0.00639964 -0.00184037)
(0.0158516 -0.00386878 -0.00140653)
(0.0170733 0.00671459 -0.000973731)
(0.0120953 0.0218965 -0.00133211)
(0.00649016 0.0211361 -0.00138138)
(0.00448072 0.0248232 -0.0016501)
(0.00405578 0.0137267 -0.00146205)
(0.00589463 -0.00494391 -0.00146047)
(0.00873424 0.0144226 -0.00122827)
(-0.000277734 0.0360205 -0.000908475)
(-0.00602404 0.029223 -0.00166748)
(-0.0149567 0.0364914 -0.000983562)
(-0.0243638 0.0151674 -0.0011032)
(-0.0270392 0.00483036 -0.00138603)
(-0.0236843 -0.0105445 -0.0014152)
(-0.0140024 -0.0119023 -0.00168771)
(-0.00130261 -0.00444393 -0.00129503)
(0.00277303 -0.0304569 -0.000618835)
(-0.00281017 -0.0274844 -0.000687444)
(0.00184015 -0.00748971 -0.00125285)
(0.0125182 -0.0171194 -0.000395075)
(0.0130038 -0.00979093 -0.000561988)
(0.0105332 0.0093468 -0.000783579)
(0.00470578 0.0268371 -0.00124529)
(0.00255043 0.0237813 -0.00113629)
(0.00231668 0.0247558 -0.00123021)
(0.00855729 0.0113587 -0.00108449)
(0.00746811 -0.00910249 -0.000770254)
(0.00515451 0.0154756 -0.000838504)
(-4.30155e-05 0.0439115 -0.00174635)
(-0.00262093 0.0335899 -0.00201916)
(-0.00810334 0.0420102 -0.0019202)
(-0.0150969 0.0168205 -0.000793008)
(-0.0208821 0.00131597 -0.000851694)
(-0.0207583 -0.0169812 -0.000126864)
(-0.0150572 -0.0262648 -0.000380863)
(-0.00500284 -0.0201871 -0.00114637)
(0.000844376 -0.0324352 -0.000366054)
(-0.00150799 -0.0272159 -0.000134642)
(0.00209571 -0.0217141 -0.000419477)
(0.00615045 -0.0204404 0.000304032)
(0.00376058 -0.00269456 -0.000119951)
(-0.00124016 0.0165704 -0.000420916)
(-0.00297224 0.0282495 -0.0007628)
(-0.000346293 0.0230848 -0.000654584)
(0.000243473 0.0213372 -0.000714018)
(0.00933916 0.00738751 -0.000942517)
(0.00760926 -0.00301507 -0.000135625)
(0.00123234 0.0210442 -0.000391629)
(-0.000164496 0.04655 -0.00142352)
(0.00150703 0.034786 -0.00136849)
(0.000789149 0.045538 -0.00157605)
(-0.00243936 0.0251529 -0.000357699)
(-0.00607442 0.0104906 -0.000284059)
(-0.0135653 -0.0129986 0.000506736)
(-0.00820499 -0.0312053 0.00013811)
(-0.00451669 -0.0318208 -0.00017101)
(-0.000231829 -0.0334172 -0.000113961)
(-0.000602161 -0.0254393 -4.13218e-05)
(-0.000938651 -0.0234981 -2.17678e-05)
(-0.00243228 -0.0159607 0.000135256)
(-0.00681711 0.00153489 -0.000192774)
(-0.00663544 0.0164265 -0.000220493)
(-0.00515856 0.024164 -0.000402799)
(-0.00103348 0.0197342 -0.00043196)
(0.00166383 0.015986 -0.000420158)
(0.00731286 -0.000388818 -0.000592721)
(0.00556875 0.00120386 -0.000131014)
(-0.00110498 0.0255963 -0.000210671)
(3.69395e-05 0.0453583 -0.000888216)
(0.00299704 0.0318286 -0.000652569)
(0.00640244 0.0441464 -0.000888431)
(0.00701536 0.0282083 -7.14631e-05)
(0.00661202 0.0120357 -0.000107579)
(-0.000518829 -0.00763396 0.000120817)
(-0.000285281 -0.0301441 7.92591e-05)
(-0.00144774 -0.034358 -7.20958e-05)
(-0.000299382 -0.0343076 -6.18519e-05)
(-0.000646628 -0.0240931 -3.1375e-05)
(-0.00248898 -0.0223137 -3.74365e-05)
(-0.00560899 -0.0149936 -0.000284821)
(-0.00853408 0.00246489 -0.000331703)
(-0.00595652 0.0140831 -0.000228508)
(-0.0040057 0.0200259 -0.00026929)
(-0.000923466 0.0149858 -0.000291054)
(0.00493968 0.0107384 -0.000447521)
(0.00580459 -0.00249099 -0.000160594)
(0.00259062 0.00676277 -0.000147921)
(-0.00254758 0.0284438 -0.000113127)
(0.000193488 0.0418068 -0.00046264)
(0.00255568 0.0274144 -0.000354361)
(0.00655133 0.0391925 -0.000473037)
(0.0087657 0.0274632 -7.34259e-05)
(0.00851665 0.0134886 -0.00010379)
(0.00661035 -0.00557456 -0.000236109)
(0.00320943 -0.0287345 -0.000160948)
(0.000605106 -0.0340939 -4.53381e-05)
(9.17049e-05 -0.0341649 -5.60978e-05)
(-0.000474863 -0.0227836 -2.06459e-05)
(-0.00199548 -0.0204795 -2.84067e-05)
(-0.00465279 -0.0117881 -0.000207274)
(-0.00671544 0.00269002 -0.000363436)
(-0.00397172 0.0119649 -0.000161192)
(-0.00202061 0.0168592 -0.000183916)
(-0.000207316 0.0112539 -0.000148121)
(0.00440881 0.00751684 -0.000341494)
(0.00301241 -0.00134868 -0.000258222)
(-1.78662e-05 0.0119296 -0.000187212)
(-0.00328163 0.0303499 -0.000158725)
(0.00025041 0.0390731 -0.000237476)
(0.00164365 0.0250449 -0.000222821)
(0.00450875 0.0361609 -0.000193229)
(0.00724849 0.0270057 -6.19424e-05)
(0.00627919 0.0147579 -3.02691e-05)
(0.00875789 -0.00079626 -0.000385499)
(0.00347823 -0.0260838 -0.000172162)
(0.000984854 -0.0331102 -3.82614e-05)
(0.00012841 -0.0337587 -4.33943e-05)
(-0.000141197 -0.0221786 -2.18064e-05)
(-0.0003419 -0.0197377 -3.51672e-06)
(-0.000709977 -0.0112325 -1.73143e-06)
(-0.00158976 0.000970296 -7.2304e-05)
(-0.00118615 0.00946292 1.70368e-05)
(-0.000461852 0.01331 7.31679e-05)
(-0.000204485 0.0079704 5.55508e-05)
(0.0012805 0.00575305 -6.73326e-05)
(0.000168377 -0.00233749 -4.68087e-06)
(-0.000742631 0.0150237 -7.53542e-05)
(-0.00195895 0.028365 5.83124e-05)
(-6.81895e-05 0.0340779 3.15364e-05)
(0.000713876 0.0214927 3.07085e-05)
(0.00221863 0.031426 2.27007e-05)
(0.00318364 0.0248167 0.000121905)
(0.00272171 0.0157374 5.0242e-05)
(0.00166638 -0.00375645 -9.32459e-05)
(0.000597245 -0.024953 -3.462e-05)
(0.000291482 -0.0323057 -6.66647e-06)
(6.60699e-05 -0.0333839 -3.62386e-05)
(0.0146145 -0.0206443 -1.83896e-06)
(0.020499 -0.0111866 -1.29057e-06)
(0.0149386 -0.0121513 -4.95566e-06)
(0.012851 -0.0496222 0.00020366)
(0.0152614 -0.0821918 -5.47432e-05)
(0.0140499 -0.0440949 0.000220039)
(0.0117342 -0.0604397 -1.58952e-05)
(0.00902976 -0.0539694 0.00020174)
(-0.00300266 -0.0633659 -0.000208362)
(0.0123513 -0.0755195 9.62402e-05)
(0.0126715 -0.0570623 -9.43141e-05)
(0.00190272 -0.0435716 7.93327e-05)
(-0.0119817 -0.0473185 -0.000158685)
(-0.0176516 -0.0341372 -0.000151169)
(-0.0191832 -0.0451618 -0.000201435)
(-0.0231549 -0.0599846 -0.000337778)
(-0.0152675 -0.0480923 7.88665e-05)
(-0.0185919 -0.011652 -6.79037e-06)
(-0.0217524 -0.012472 -1.57192e-06)
(-0.0141835 -0.0217917 -8.23651e-07)
(0.0104731 0.0136678 1.16353e-06)
(0.0169835 0.0368565 7.00068e-07)
(0.0128735 0.0292259 -5.69918e-06)
(0.0180498 0.032277 -5.84642e-05)
(0.0214724 0.0395565 2.83838e-05)
(0.019095 0.0456353 -9.85221e-05)
(0.0142623 0.0460647 3.97469e-05)
(0.00923923 0.0480058 -0.000264322)
(0.00158305 0.0463458 0.000116347)
(0.0036086 0.0379625 -3.28089e-05)
(-0.00114427 0.0367387 7.79186e-05)
(-0.00761591 0.0507926 -2.49602e-05)
(-0.00616397 0.0358293 6.05168e-05)
(-0.00947096 0.0568734 9.31614e-05)
(-0.02176 0.043298 9.47785e-05)
(-0.0263941 0.0356246 0.000154509)
(-0.0213557 0.0313723 -4.03389e-05)
(-0.0158874 0.0266801 5.24035e-07)
(-0.0173926 0.0308209 -2.1209e-06)
(-0.00914975 0.00505543 -1.16076e-06)
(0.000561614 -0.0249552 2.98865e-07)
(0.00894014 0.0224429 -4.01516e-07)
(0.00875075 0.0196666 4.25824e-06)
(0.0176856 0.0185475 -7.9566e-05)
(0.0216607 0.0263996 1.34876e-05)
(0.0181115 0.0497853 -8.50941e-05)
(0.0115608 0.0495486 1.49774e-05)
(0.00740079 0.0584038 -0.000150701)
(0.00175476 0.0466525 7.28209e-05)
(0.00406908 0.0277366 -2.45496e-05)
(0.00861736 0.0486485 3.65064e-05)
(-8.46788e-05 0.0666413 4.39363e-05)
(-0.00824137 0.0607887 6.94769e-05)
(-0.0212804 0.06317 4.56551e-05)
(-0.0300093 0.0448982 3.82528e-05)
(-0.0265847 0.034393 9.9007e-05)
(-0.0223024 0.0169235 -3.15956e-05)
(-0.0107706 0.0150923 -9.65275e-07)
(-0.00982866 0.0147182 4.17275e-07)
(-0.000742854 -0.0285209 5.44523e-07)
(-0.00343603 -0.0256075 1.45085e-07)
(-0.000972178 0.0112243 2.16545e-06)
(0.00891588 0.00357297 -3.66907e-06)
(0.0152755 0.00986812 1.40717e-05)
(0.0176406 0.0208352 2.0254e-05)
(0.0140233 0.0450975 -3.41833e-07)
(0.00757784 0.0422279 1.14617e-05)
(0.00514001 0.0477524 -3.55815e-05)
(0.00275168 0.0341797 1.65968e-05)
(0.00550927 0.0178649 1.18911e-06)
(0.0128675 0.0389559 7.168e-06)
(0.00259628 0.0798716 -1.82399e-05)
(-0.0068387 0.0608008 1.66883e-05)
(-0.0205753 0.0775177 -8.79207e-06)
(-0.0280865 0.0366856 -3.80446e-06)
(-0.0264641 0.02575 7.59624e-06)
(-0.0223895 0.000815854 -7.03954e-06)
(-0.0131648 -0.00669335 -3.57519e-06)
(-0.0018619 0.00276012 2.69423e-08)
(0.00237506 -0.0293666 2.21759e-06)
(-0.0028555 -0.0270944 1.45705e-06)
(0.00155236 -0.00251224 -1.48588e-07)
(0.0125667 -0.0151008 -1.44551e-07)
(0.0134277 -0.00298013 -7.18805e-06)
(0.0109787 0.0183508 -5.27388e-06)
(0.00618859 0.039236 8.92284e-06)
(0.00298883 0.0350705 6.05817e-06)
(0.00253538 0.0372635 -7.59142e-06)
(0.00672081 0.0240477 -1.44942e-07)
(0.0066311 0.000577416 -1.04789e-06)
(0.00842371 0.0291054 1.5442e-06)
(0.0023792 0.0749345 -6.16225e-06)
(-0.00311328 0.0526135 -4.92459e-06)
(-0.0127326 0.0718119 -1.99384e-05)
(-0.0176786 0.0277026 -8.08758e-06)
(-0.0220683 0.0123342 -5.6202e-06)
(-0.0212855 -0.0138857 -3.70531e-07)
(-0.0145383 -0.0263921 1.13146e-07)
(-0.00450617 -0.0172936 -2.89284e-07)
(0.000982634 -0.0337955 -1.01618e-06)
(-0.00163795 -0.0283701 6.79522e-08)
(0.0017309 -0.0219359 -6.62027e-08)
(0.00740363 -0.0194109 -4.29773e-07)
(0.00528889 0.000230682 1.5639e-06)
(-2.98802e-05 0.0217716 -3.39908e-06)
(-0.00224436 0.0352119 8.65276e-07)
(-0.000261116 0.0298931 8.80698e-07)
(9.75966e-05 0.02936 -4.58883e-06)
(0.00896957 0.0158117 -7.60944e-07)
(0.00674101 0.00115948 -1.04284e-08)
(0.00262256 0.0289548 -4.71437e-07)
(0.00121456 0.0669539 7.23926e-06)
(0.0011831 0.0448125 -2.58647e-06)
(-0.00225621 0.0643836 -6.47888e-07)
(-0.00417435 0.0306094 -1.86219e-07)
(-0.00898017 0.0148921 1.04763e-06)
(-0.0142819 -0.0107573 -1.60399e-06)
(-0.0081943 -0.0320068 1.28366e-07)
(-0.00409264 -0.0336805 4.34936e-07)
(-6.04109e-05 -0.0355106 -2.51848e-07)
(-0.000617238 -0.0265976 1.4497e-07)
(-0.00101883 -0.0243914 2.55941e-07)
(-0.0020323 -0.0145935 -6.85848e-07)
(-0.00671704 0.00471268 -1.46531e-06)
(-0.00636104 0.0205559 -2.46374e-06)
(-0.00495287 0.0292921 3.02392e-08)
(-0.0010588 0.0249745 6.32833e-07)
(0.00133609 0.0226825 -1.57485e-06)
(0.00713028 0.00413304 1.62536e-06)
(0.00519417 0.00546132 6.53927e-07)
(-0.00124633 0.0322153 -4.81686e-07)
(0.000450284 0.0578321 4.6277e-06)
(0.00268627 0.0383319 4.81059e-08)
(0.00499237 0.0551452 1.75124e-06)
(0.0063406 0.0330231 -1.12572e-07)
(0.00586954 0.0153515 3.62373e-07)
(-0.00081282 -0.00440965 1.13262e-06)
(-0.0002395 -0.030244 -3.17846e-07)
(-0.00123428 -0.0361388 -1.53502e-07)
(-0.000279375 -0.0361697 -2.04505e-07)
(-0.000666916 -0.0251514 -4.64522e-08)
(-0.00251546 -0.0231142 -1.15624e-07)
(-0.00559955 -0.0143321 -4.79859e-07)
(-0.00863453 0.00489543 -2.17481e-06)
(-0.00601797 0.0172376 -1.18254e-06)
(-0.0040195 0.0240173 -1.41112e-07)
(-0.000952909 0.0192416 1.02147e-06)
(0.00462019 0.0159471 8.31716e-07)
(0.00559417 0.000100626 1.3553e-06)
(0.00211593 0.0106426 2.37356e-07)
(-0.00310267 0.0342223 -4.2208e-07)
(0.000178649 0.0493431 8.91718e-07)
(0.00229642 0.0325421 1.00167e-06)
(0.00605113 0.045581 3.8644e-07)
(0.00857336 0.0314676 1.47255e-08)
(0.00863298 0.016202 -3.95558e-07)
(0.00670365 -0.00299915 -1.23213e-06)
(0.00316185 -0.0291113 -1.97059e-07)
(0.000716642 -0.0356589 -4.39941e-08)
(0.000114219 -0.0358806 -2.07718e-07)
(-0.000464033 -0.0237981 -9.40489e-08)
(-0.0019427 -0.0212499 2.63189e-07)
(-0.00461399 -0.0118814 4.30382e-08)
(-0.00690256 0.00418829 -5.702e-07)
(-0.00415007 0.0142557 -7.73718e-07)
(-0.00209682 0.019752 -3.69302e-07)
(-0.000213688 0.0142615 2.81907e-07)
(0.00439024 0.0105629 1.82628e-06)
(0.00266332 0.000193771 7.00997e-07)
(-0.000610395 0.0154845 -1.39601e-07)
(-0.00378554 0.0351062 -5.51328e-07)
(0.000184223 0.0445816 -3.56814e-07)
(0.00148749 0.0295282 1.78409e-06)
(0.00428829 0.0407018 3.46936e-07)
(0.00724655 0.0304193 1.23635e-07)
(0.00658105 0.0170267 -4.99735e-07)
(0.00930968 0.00150623 -3.5966e-07)
(0.00346699 -0.026687 -9.93668e-08)
(0.00101295 -0.0345057 1.02655e-07)
(0.000127569 -0.0353821 6.55317e-08)
(-0.000143167 -0.0231705 1.29526e-07)
(-0.000336258 -0.0205074 -9.08042e-08)
(-0.000718255 -0.0116169 1.25092e-07)
(-0.0017677 0.00169416 3.29769e-07)
(-0.00137004 0.0110687 -1.94968e-07)
(-0.000520495 0.015277 -2.65645e-07)
(-0.000126988 0.00995913 -4.46036e-07)
(0.00139516 0.00710036 7.92129e-07)
(0.000211663 -0.00166208 6.73416e-07)
(-0.0011781 0.0181439 -4.01557e-07)
(-0.00215989 0.0321114 -3.011e-07)
(-9.45311e-05 0.0378844 -2.1698e-07)
(0.000665875 0.025562 4.52364e-07)
(0.00206409 0.0346742 2.05009e-07)
(0.00326847 0.0277489 1.52025e-07)
(0.00311979 0.0178318 -1.92986e-07)
(0.00192181 -0.00252388 1.9243e-10)
(0.000595764 -0.0258162 3.06117e-08)
(0.000287729 -0.0336486 -2.90809e-08)
(6.52351e-05 -0.0349548 -1.20385e-07)
(0.0124989 -0.0300239 -0.0023546)
(0.0187857 -0.0182756 -0.00230091)
(0.0110517 -0.0147295 -0.00226658)
(0.00910334 -0.0152205 -0.0018222)
(0.0114971 -0.0103568 -0.00275584)
(0.0101325 -0.0073442 -0.00461321)
(0.0069015 -0.00415854 -0.00312846)
(0.00331135 -0.0021892 -0.00315781)
(-0.00636215 -0.00315078 -0.0032566)
(-0.00156787 -0.0151575 -0.00396831)
(0.00508936 -0.00984874 -0.00240307)
(-3.58782e-05 0.000643955 -0.00310965)
(-0.00807269 -0.0036759 -0.00206731)
(-0.0102466 -0.00983798 -0.00501672)
(-0.0122648 -0.0118265 -0.00420413)
(-0.0121442 -0.0112893 -0.00352803)
(-0.0125004 -0.0142951 -0.00179869)
(-0.0151859 -0.0142277 -0.00215975)
(-0.0200689 -0.0190687 -0.00203735)
(-0.0122359 -0.0299567 -0.00184399)
(0.00698924 -0.0085221 0.000291037)
(0.0160238 0.0148703 -0.000420526)
(0.0120528 0.0152269 -0.00061984)
(0.0163369 0.0119451 -0.00161741)
(0.0162796 0.00972866 -0.00245636)
(0.0121002 0.0162494 -0.00231874)
(0.00646568 0.0183874 -0.00311888)
(0.00454414 0.0274645 -0.00316634)
(-0.00208876 0.0172483 -0.0034544)
(-0.00126014 0.00712297 -0.00304495)
(-0.000726577 0.0221866 -0.00284987)
(-0.00493116 0.019316 -0.00365965)
(-0.00698546 0.0211444 -0.00352861)
(-0.0110552 0.00830804 -0.00243755)
(-0.0159425 0.0146876 -0.00174602)
(-0.0196747 0.00830565 -0.00175064)
(-0.02013 0.0106861 -0.00148508)
(-0.0150914 0.013178 -0.000480269)
(-0.016687 0.0104906 -0.000392752)
(-0.00673979 -0.00988219 0.000579074)
(2.49709e-05 -0.0309175 0.00122233)
(0.00774806 0.00727677 0.000988469)
(0.00838237 0.00528622 0.00108418)
(0.0169344 0.00140916 0.000743986)
(0.0193233 0.00579654 0.000956164)
(0.0153828 0.0142267 0.000476494)
(0.00914965 0.0155499 0.000706526)
(0.00554831 0.0202682 0.000696425)
(0.00164901 0.0132587 0.000948371)
(0.00322917 -0.00199255 0.000661784)
(0.00422861 0.0108624 0.000101966)
(-0.00215426 0.0169175 -0.00170582)
(-0.00638197 0.0176953 -0.000673156)
(-0.0148872 0.015286 -0.00083255)
(-0.0238771 0.0110007 9.26693e-05)
(-0.0257273 0.00664957 0.000296106)
(-0.0217901 0.000255011 0.00120675)
(-0.0105358 0.00274177 0.00151656)
(-0.00867373 0.00111756 0.00101389)
(-0.000271302 -0.0314451 0.000949457)
(-0.00404033 -0.0290212 0.000609687)
(-0.00159045 0.00223394 0.00112512)
(0.00920882 -0.00642369 0.00183503)
(0.0158566 -0.00387399 0.00144619)
(0.0171016 0.00675741 0.00100559)
(0.0121138 0.0217703 0.00134381)
(0.0064924 0.0210652 0.00139587)
(0.00448896 0.0249598 0.001639)
(0.00406738 0.0137296 0.00147043)
(0.0059039 -0.00493354 0.00146969)
(0.00871988 0.0143832 0.00122911)
(-0.00033632 0.0361099 0.000832239)
(-0.00599485 0.0292473 0.00166117)
(-0.01494 0.0367244 0.00095258)
(-0.0243501 0.0152206 0.00109016)
(-0.0270252 0.00487935 0.00136377)
(-0.0236764 -0.0105358 0.00142229)
(-0.0139975 -0.0119009 0.00168438)
(-0.00130045 -0.00443452 0.00129761)
(0.00277307 -0.0304761 0.000620667)
(-0.00280793 -0.0274873 0.000685364)
(0.00184136 -0.00748611 0.00125463)
(0.0125156 -0.0171162 0.000396152)
(0.0129886 -0.00978967 0.000558978)
(0.0105172 0.00940427 0.000779224)
(0.00469899 0.0268238 0.00125985)
(0.00254337 0.0237491 0.00114401)
(0.00232144 0.0248108 0.00122687)
(0.00855503 0.0113907 0.00108058)
(0.00746823 -0.00909702 0.000769985)
(0.00514632 0.0154875 0.000836839)
(-7.68848e-05 0.0438755 0.00171737)
(-0.00260657 0.033593 0.00201238)
(-0.00809647 0.042019 0.00189462)
(-0.0150811 0.0168358 0.000783452)
(-0.0208798 0.00130201 0.000842957)
(-0.0207619 -0.0169777 0.000126681)
(-0.0150547 -0.0262637 0.000381778)
(-0.004997 -0.0201827 0.00114743)
(0.000844558 -0.03244 0.000366391)
(-0.00150706 -0.0272158 0.000135702)
(0.0020955 -0.0217147 0.000419546)
(0.00615032 -0.0204377 -0.000305293)
(0.0037603 -0.00268133 0.000116336)
(-0.00124275 0.0166082 0.00041836)
(-0.00297782 0.028245 0.000764187)
(-0.000350321 0.0230585 0.000654491)
(0.00024189 0.021357 0.000706819)
(0.00934135 0.00740234 0.000940451)
(0.0076065 -0.00300472 0.000135178)
(0.00122491 0.0210677 0.000387753)
(-0.000178885 0.0465443 0.00142477)
(0.0015131 0.0347845 0.001364)
(0.000778405 0.0455253 0.00157463)
(-0.00243554 0.0251651 0.000358465)
(-0.00607505 0.0104941 0.000285632)
(-0.0135604 -0.0130049 -0.000509629)
(-0.00820531 -0.0312043 -0.000138626)
(-0.0045174 -0.0318203 0.000170679)
(-0.000232355 -0.033419 0.000113413)
(-0.000602359 -0.025439 4.0972e-05)
(-0.000938912 -0.0234983 2.19993e-05)
(-0.00243244 -0.0159575 -0.000135103)
(-0.00682067 0.00155424 0.000192134)
(-0.00663729 0.0164469 0.000217138)
(-0.00516045 0.0241645 0.000402465)
(-0.00103626 0.0197158 0.000432018)
(0.0016635 0.01599 0.000416444)
(0.00731298 -0.000383033 0.000596344)
(0.00556653 0.0012192 0.000131772)
(-0.00111128 0.0256202 0.000209078)
(3.18836e-05 0.0453653 0.000892029)
(0.00299987 0.0318266 0.000650489)
(0.0063983 0.044144 0.000889769)
(0.00701522 0.0282122 7.16302e-05)
(0.00661222 0.0120383 0.000108334)
(-0.000517669 -0.00762213 -0.000119382)
(-0.000284966 -0.0301438 -7.92049e-05)
(-0.00144723 -0.0343574 7.19742e-05)
(-0.000299594 -0.034307 6.16768e-05)
(-0.000646237 -0.0240932 3.14195e-05)
(-0.00248917 -0.0223138 3.72153e-05)
(-0.00560956 -0.0149918 0.000284812)
(-0.00853582 0.00247304 0.000328701)
(-0.00595766 0.0140922 0.00022672)
(-0.00400752 0.0200264 0.000268469)
(-0.000926253 0.014976 0.000292868)
(0.0049419 0.0107412 0.000448887)
(0.00580519 -0.00248584 0.000164731)
(0.00258838 0.00677777 0.000149253)
(-0.0025528 0.0284633 0.000113346)
(0.000191668 0.0418098 0.00046384)
(0.00255642 0.0274131 0.000354709)
(0.00655022 0.0391913 0.000472975)
(0.00876574 0.0274657 7.36645e-05)
(0.0085181 0.0134924 0.000103402)
(0.00661052 -0.00557375 0.000233989)
(0.00320946 -0.0287349 0.000160692)
(0.000605172 -0.0340942 4.52328e-05)
(9.16296e-05 -0.0341654 5.58515e-05)
(-0.000474905 -0.0227835 2.03796e-05)
(-0.00199548 -0.0204794 2.86192e-05)
(-0.00465252 -0.0117884 0.000207607)
(-0.00671655 0.00269459 0.000363522)
(-0.00397189 0.0119687 0.000160452)
(-0.00202179 0.0168585 0.000183356)
(-0.000208852 0.0112486 0.000149809)
(0.004409 0.00751902 0.00034573)
(0.00301026 -0.00134519 0.000260758)
(-2.10247e-05 0.0119444 0.000188156)
(-0.0032853 0.0303624 0.000159233)
(0.000250624 0.0390725 0.000237448)
(0.00164282 0.0250493 0.000224922)
(0.00450731 0.0361651 0.000193488)
(0.00724872 0.0270081 6.22013e-05)
(0.00628163 0.0147625 2.95818e-05)
(0.00876127 -0.000788372 0.000385957)
(0.00347824 -0.0260841 0.000172275)
(0.000984964 -0.0331106 3.83871e-05)
(0.000128383 -0.033759 4.34688e-05)
(-0.000141204 -0.0221786 2.18636e-05)
(-0.000341916 -0.0197376 3.40872e-06)
(-0.000709884 -0.0112327 1.86626e-06)
(-0.00158936 0.000971531 7.34939e-05)
(-0.00118623 0.00946429 -1.62528e-05)
(-0.000462485 0.0133093 -7.32162e-05)
(-0.000204844 0.00796816 -5.401e-05)
(0.00127908 0.00575563 6.98799e-05)
(0.000168557 -0.00233695 5.5741e-06)
(-0.000744095 0.0150334 7.5117e-05)
(-0.00195953 0.0283701 -5.83224e-05)
(-6.79129e-05 0.0340749 -3.13504e-05)
(0.000713783 0.0214994 -2.94412e-05)
(0.00221836 0.0314321 -2.24586e-05)
(0.00318343 0.0248195 -0.000122059)
(0.00272317 0.0157422 -5.08672e-05)
(0.00166591 -0.00375507 9.28039e-05)
(0.000597207 -0.0249539 3.45398e-05)
(0.000291512 -0.0323066 6.7302e-06)
(6.61082e-05 -0.0333843 3.60233e-05)
(0.0110255 -0.0354624 -0.00172464)
(0.0183304 -0.0233299 -0.00180952)
(0.011601 -0.0197411 -0.00202834)
(0.00980465 -0.0183212 -0.00147731)
(0.0134472 -0.0227869 -0.00143636)