/*--------------------------------*- C++ -*----------------------------------*\
| =========                 |                                                 |
| \\      /  F ield         | OpenFOAM: The Open Source CFD Toolbox           |
|  \\    /   O peration     | Version:  2.3.0                                 |
|   \\  /    A nd           | Web:      www.OpenFOAM.org                      |
|    \\/     M anipulation  |                                                 |
\*---------------------------------------------------------------------------*/
FoamFile
{
    version     2.0;
    format      ascii;
    class       volScalarField;
    location    "1.42";
    object      alpha.particlesMean;
}
// * * * * * * * * * * * * * * * * * * * * * * * * * * * * * * * * * * * * * //

dimensions      [0 0 0 0 0 0 0];

internalField   nonuniform List<scalar> 
6000
(
0.414905
0.425744
0.425552
0.422929
0.420539
0.410403
0.411678
0.40909
0.411738
0.411213
0.410705
0.412723
0.407481
0.406427
0.415028
0.418779
0.419712
0.415832
0.415346
0.420285
0.422568
0.420545
0.421176
0.4249
0.425795
0.425199
0.424052
0.415117
0.414964
0.416479
0.394635
0.394806
0.395187
0.389127
0.380426
0.37849
0.379596
0.378981
0.376444
0.381354
0.383068
0.37937
0.377499
0.375297
0.381079
0.392091
0.389913
0.383148
0.383213
0.383094
0.386674
0.3904
0.392674
0.395766
0.389976
0.386853
0.386671
0.38768
0.386431
0.396266
0.401072
0.402433
0.400036
0.387712
0.385673
0.386476
0.384579
0.378593
0.377666
0.386537
0.387256
0.379763
0.377079
0.376009
0.382411
0.391761
0.391357
0.386352
0.384348
0.386644
0.388531
0.389158
0.390186
0.385815
0.384778
0.390289
0.393453
0.390714
0.385445
0.398791
0.403948
0.400735
0.393082
0.383825
0.388126
0.38713
0.381202
0.377386
0.376674
0.386519
0.389041
0.379587
0.374964
0.374178
0.37833
0.385302
0.388437
0.383973
0.382432
0.385206
0.384488
0.382391
0.376619
0.367878
0.375429
0.384545
0.392516
0.38749
0.37789
0.396349
0.40054
0.397981
0.383416
0.382742
0.388398
0.384521
0.375362
0.372839
0.37495
0.384408
0.386317
0.376147
0.367424
0.362183
0.367794
0.377469
0.3867
0.380477
0.381258
0.381623
0.379576
0.374452
0.365369
0.362261
0.369491
0.379517
0.388486
0.384208
0.369962
0.38755
0.396261
0.392966
0.380666
0.382169
0.386285
0.38034
0.369402
0.3684
0.371057
0.37715
0.379364
0.367243
0.35402
0.355265
0.36459
0.380069
0.386116
0.378673
0.375995
0.37506
0.370372
0.363672
0.359793
0.357808
0.364768
0.376111
0.388041
0.379348
0.36218
0.379324
0.391515
0.386466
0.381262
0.378429
0.380839
0.375997
0.364492
0.363586
0.363282
0.369856
0.370979
0.357296
0.350453
0.357384
0.369025
0.385963
0.386869
0.369089
0.36829
0.367039
0.364166
0.360238
0.356664
0.355417
0.363757
0.376438
0.385929
0.376243
0.354614
0.373181
0.385793
0.386687
0.378721
0.37246
0.374473
0.372275
0.36238
0.357536
0.357255
0.363623
0.362427
0.350714
0.353051
0.360945
0.373682
0.388574
0.376185
0.365953
0.366988
0.367214
0.364414
0.359696
0.356027
0.359342
0.369036
0.377557
0.381713
0.368804
0.348
0.369301
0.388702
0.388758
0.375488
0.366194
0.370751
0.37036
0.364361
0.355374
0.351253
0.354718
0.354397
0.349115
0.355798
0.362685
0.378196
0.385432
0.369098
0.36436
0.367243
0.370266
0.368091
0.363629
0.363535
0.36894
0.37465
0.380273
0.377265
0.362381
0.345753
0.36928
0.393725
0.388983
0.371079
0.361535
0.368301
0.371172
0.36889
0.354755
0.346734
0.346533
0.350289
0.352031
0.358824
0.363266
0.377973
0.379161
0.365058
0.363684
0.36926
0.373938
0.373022
0.372582
0.376194
0.3792
0.382155
0.381519
0.372924
0.359677
0.348696
0.370868
0.3975
0.38685
0.365946
0.358964
0.364523
0.370773
0.369449
0.357436
0.344185
0.341182
0.350861
0.35915
0.360335
0.362999
0.37547
0.371948
0.365186
0.366981
0.375796
0.377684
0.380146
0.382326
0.386138
0.389469
0.389049
0.383449
0.369933
0.360777
0.355381
0.37432
0.399264
0.382723
0.358248
0.355349
0.359303
0.364806
0.367366
0.361243
0.344271
0.335778
0.351388
0.36277
0.360958
0.361041
0.368708
0.367591
0.36629
0.372942
0.378877
0.380183
0.385804
0.38967
0.394779
0.398392
0.396565
0.386061
0.371398
0.363652
0.365258
0.382511
0.398813
0.376393
0.351842
0.349274
0.350558
0.356901
0.364713
0.366066
0.343843
0.333248
0.346388
0.363982
0.359997
0.358602
0.362647
0.365262
0.370026
0.377411
0.377141
0.381911
0.390685
0.39686
0.402205
0.405951
0.402437
0.391032
0.376474
0.371781
0.377126
0.394863
0.398211
0.371052
0.349146
0.34247
0.342839
0.348766
0.361
0.365392
0.346304
0.332826
0.341713
0.358178
0.360366
0.357383
0.359978
0.366527
0.374779
0.378177
0.37482
0.383901
0.396293
0.404501
0.407512
0.409022
0.405771
0.394961
0.384914
0.385717
0.394037
0.413392
0.399877
0.369822
0.348825
0.337891
0.336483
0.34181
0.353615
0.361916
0.348044
0.335733
0.336955
0.349921
0.358636
0.356362
0.360912
0.368632
0.378819
0.376378
0.374213
0.385215
0.402779
0.410808
0.40984
0.407473
0.402452
0.395268
0.392333
0.401511
0.410453
0.433652
0.40305
0.369353
0.352627
0.337016
0.333015
0.33479
0.345886
0.356149
0.347246
0.336065
0.334903
0.337735
0.354186
0.353957
0.361235
0.371545
0.379467
0.374926
0.3736
0.387103
0.406682
0.412202
0.403456
0.392174
0.387271
0.388348
0.395327
0.409724
0.420291
0.446461
0.404721
0.368207
0.359861
0.343758
0.332527
0.331788
0.336411
0.350497
0.345328
0.335192
0.331546
0.331449
0.344243
0.350808
0.360769
0.373399
0.380149
0.375525
0.377501
0.392125
0.409962
0.411135
0.389329
0.375307
0.37252
0.38402
0.396716
0.414518
0.423365
0.450425
0.398589
0.36947
0.369222
0.355177
0.336892
0.333251
0.333852
0.341244
0.345381
0.334728
0.328926
0.327715
0.335863
0.347416
0.359094
0.373701
0.382468
0.381636
0.386196
0.400593
0.415007
0.41054
0.383772
0.371284
0.37205
0.387521
0.403892
0.41828
0.423552
0.452791
0.38716
0.373076
0.376791
0.367951
0.34402
0.338258
0.337584
0.335703
0.341872
0.33717
0.327988
0.326464
0.329169
0.342642
0.356946
0.372277
0.387001
0.3913
0.39629
0.409124
0.420446
0.411227
0.38383
0.370414
0.373922
0.390211
0.411795
0.421304
0.424395
0.456606
0.382315
0.375984
0.382468
0.37761
0.350805
0.343332
0.342887
0.338642
0.33622
0.337358
0.330368
0.32518
0.327402
0.33878
0.354072
0.368639
0.388858
0.401334
0.40504
0.415803
0.423745
0.411644
0.385052
0.370431
0.377497
0.390365
0.414637
0.421201
0.422492
0.45929
0.381958
0.376947
0.386511
0.385436
0.358198
0.348315
0.34744
0.343131
0.332712
0.334517
0.331981
0.325209
0.325167
0.336998
0.351406
0.364202
0.38551
0.40876
0.412864
0.421746
0.424314
0.411442
0.387672
0.372454
0.379616
0.390222
0.415121
0.418656
0.422471
0.458766
0.381129
0.378471
0.389531
0.390716
0.36628
0.353371
0.351986
0.344766
0.330883
0.328616
0.33262
0.325535
0.323653
0.332476
0.351192
0.360197
0.380363
0.413911
0.419399
0.424598
0.423941
0.412362
0.392059
0.374847
0.379922
0.390175
0.416251
0.420076
0.426855
0.462344
0.379831
0.3806
0.392876
0.39588
0.374146
0.358762
0.354559
0.343927
0.326523
0.324546
0.329031
0.327623
0.321909
0.329037
0.348006
0.356345
0.376547
0.415979
0.423245
0.425154
0.423167
0.413841
0.396777
0.378645
0.379344
0.392144
0.419334
0.426923
0.435918
0.467772
0.379472
0.3807
0.394255
0.403246
0.38311
0.363591
0.355317
0.341207
0.322882
0.320197
0.324802
0.328256
0.323132
0.327797
0.341829
0.35322
0.375732
0.414651
0.423653
0.424197
0.422149
0.412363
0.399451
0.383482
0.381437
0.396028
0.422322
0.437285
0.447838
0.471943
0.379209
0.378265
0.395284
0.412082
0.393522
0.36687
0.353416
0.338616
0.320396
0.317349
0.320778
0.326903
0.325582
0.328137
0.339861
0.350241
0.375972
0.410644
0.422021
0.42214
0.417745
0.407156
0.394375
0.384592
0.384412
0.40165
0.427022
0.446544
0.457276
0.473533
0.379097
0.375899
0.396891
0.419046
0.404113
0.369742
0.35058
0.334747
0.319628
0.314424
0.318865
0.324873
0.328036
0.330146
0.339997
0.350968
0.373571
0.404285
0.415467
0.412185
0.406691
0.393919
0.381824
0.375308
0.382834
0.40614
0.431681
0.449
0.459397
0.474525
0.380056
0.37716
0.400013
0.423778
0.411961
0.372396
0.347751
0.331695
0.317693
0.314018
0.317955
0.324939
0.328209
0.333216
0.341064
0.35333
0.367311
0.393487
0.397448
0.392946
0.389077
0.379161
0.368693
0.366475
0.375174
0.402942
0.428732
0.442035
0.448154
0.468928
0.383649
0.384342
0.405717
0.425752
0.415818
0.373956
0.345693
0.327404
0.316603
0.312953
0.31788
0.324211
0.327659
0.333692
0.343204
0.351503
0.359
0.37957
0.383198
0.380879
0.379067
0.371258
0.36514
0.365687
0.369276
0.398264
0.422063
0.431643
0.433787
0.448686
0.390111
0.392808
0.411997
0.42744
0.417625
0.374272
0.341844
0.322599
0.311699
0.311489
0.316046
0.322484
0.325394
0.330944
0.34269
0.347703
0.350769
0.368223
0.376764
0.374892
0.372943
0.369523
0.367491
0.368439
0.368764
0.39827
0.417837
0.426061
0.428435
0.438683
0.399707
0.397394
0.414944
0.428551
0.418766
0.374209
0.337365
0.314951
0.306261
0.308286
0.313915
0.320012
0.322423
0.327393
0.339267
0.344648
0.346742
0.365058
0.375498
0.372058
0.371094
0.370937
0.372534
0.369011
0.370366
0.401291
0.416155
0.422779
0.424857
0.432571
0.412736
0.400207
0.417141
0.427522
0.417308
0.375053
0.331818
0.309274
0.301702
0.306127
0.311519
0.317784
0.320704
0.325758
0.336031
0.342055
0.34631
0.368007
0.375808
0.370619
0.370009
0.373647
0.374361
0.36889
0.374035
0.404879
0.415343
0.420452
0.421514
0.427509
0.426696
0.406457
0.421104
0.424738
0.414896
0.375578
0.328672
0.305733
0.301262
0.304774
0.311285
0.317512
0.320745
0.326728
0.335432
0.343175
0.349368
0.373297
0.379382
0.369741
0.369265
0.373943
0.373972
0.368473
0.378187
0.408026
0.415024
0.418673
0.417447
0.423473
0.438741
0.415878
0.426519
0.422377
0.413011
0.379206
0.328228
0.305611
0.301257
0.305328
0.311974
0.318767
0.323674
0.329967
0.337873
0.346436
0.356244
0.381257
0.381514
0.368708
0.368105
0.372712
0.372025
0.367409
0.381875
0.408652
0.414411
0.416062
0.412816
0.420451
0.445419
0.426492
0.43335
0.424142
0.413009
0.384014
0.330836
0.306686
0.303761
0.306079
0.313503
0.321831
0.328603
0.336129
0.342389
0.35207
0.363892
0.38671
0.381601
0.366673
0.367646
0.371594
0.37005
0.365454
0.383112
0.408383
0.412619
0.412753
0.406317
0.417993
0.449784
0.434561
0.439357
0.428421
0.412656
0.390214
0.334909
0.310617
0.307469
0.309228
0.316054
0.325728
0.336818
0.343699
0.349608
0.357941
0.371016
0.38998
0.381739
0.366475
0.368451
0.371371
0.366711
0.361954
0.386034
0.410744
0.415083
0.412029
0.402426
0.414356
0.453739
0.437622
0.440517
0.430958
0.413162
0.394234
0.342407
0.314337
0.312837
0.314053
0.318914
0.33048
0.344989
0.352518
0.35596
0.363819
0.374957
0.392018
0.382647
0.367088
0.370268
0.369847
0.362748
0.362043
0.393339
0.418007
0.417757
0.411547
0.399452
0.41005
0.455613
0.43587
0.4385
0.431362
0.412544
0.39864
0.348972
0.321184
0.317247
0.319564
0.322457
0.33494
0.352859
0.358468
0.361632
0.366972
0.376551
0.391334
0.384027
0.367997
0.371136
0.367602
0.360634
0.366782
0.404042
0.423723
0.418091
0.409387
0.395878
0.406095
0.454932
0.435852
0.434453
0.42597
0.411554
0.402056
0.357352
0.328323
0.322024
0.324052
0.32533
0.341567
0.357356
0.362902
0.364037
0.369489
0.375864
0.389476
0.384795
0.368782
0.369889
0.366047
0.363633
0.375681
0.414558
0.425329
0.416505
0.406433
0.391904
0.402632
0.453107
0.439762
0.43002
0.41899
0.410354
0.406272
0.36672
0.336756
0.326675
0.327551
0.329425
0.346692
0.361203
0.364265
0.366146
0.36963
0.376215
0.38586
0.384631
0.369491
0.367721
0.366369
0.370389
0.38657
0.421262
0.423876
0.413525
0.401672
0.389674
0.398609
0.455485
0.445732
0.429691
0.412609
0.4096
0.408599
0.377434
0.34531
0.332507
0.33164
0.334488
0.353226
0.363749
0.366896
0.366952
0.371035
0.376553
0.382086
0.382898
0.36965
0.365359
0.369092
0.379515
0.396891
0.422621
0.419838
0.407504
0.397274
0.387103
0.395538
0.458521
0.448843
0.42855
0.409818
0.408482
0.410196
0.38793
0.355837
0.338805
0.335638
0.341632
0.359687
0.368837
0.369634
0.370891
0.372662
0.37889
0.378397
0.380379
0.369667
0.364448
0.373914
0.38907
0.403668
0.420777
0.413463
0.401518
0.393477
0.384541
0.396239
0.461976
0.446383
0.424972
0.410161
0.407343
0.411036
0.398076
0.366634
0.345866
0.340736
0.347747
0.367836
0.37453
0.375771
0.375455
0.377939
0.380046
0.376708
0.378117
0.370821
0.364669
0.378196
0.395953
0.406002
0.417753
0.407211
0.396772
0.390551
0.381539
0.398791
0.465226
0.44097
0.420279
0.409796
0.407121
0.414127
0.406261
0.377694
0.353498
0.345078
0.354459
0.37443
0.382138
0.381769
0.381749
0.381698
0.382557
0.376257
0.377552
0.372659
0.365628
0.3805
0.398635
0.406983
0.414629
0.403258
0.395462
0.390232
0.382364
0.401533
0.466273
0.433418
0.415421
0.409212
0.409124
0.41725
0.413518
0.38462
0.360687
0.348573
0.360114
0.380772
0.386661
0.38727
0.38487
0.384737
0.383151
0.377689
0.377923
0.375574
0.368056
0.3821
0.397592
0.407817
0.412507
0.402635
0.396078
0.390996
0.384621
0.403607
0.459393
0.423983
0.412165
0.409505
0.411368
0.418035
0.417668
0.387734
0.366313
0.351381
0.365209
0.385491
0.389432
0.388343
0.38705
0.385028
0.384922
0.379025
0.379822
0.379591
0.374971
0.383117
0.395996
0.410191
0.412418
0.403426
0.398127
0.393713
0.387682
0.40615
0.450829
0.416022
0.410492
0.411034
0.413678
0.417632
0.417492
0.388826
0.370612
0.356473
0.368385
0.389432
0.388739
0.389374
0.386956
0.386124
0.384484
0.381281
0.38226
0.38586
0.383405
0.385063
0.395794
0.413848
0.414076
0.407084
0.402839
0.398834
0.392187
0.409765
0.444142
0.413033
0.411607
0.414031
0.415976
0.417533
0.416249
0.390385
0.37558
0.362982
0.372304
0.390661
0.389078
0.387073
0.387429
0.385142
0.385093
0.382669
0.386001
0.389187
0.390017
0.38829
0.398089
0.418865
0.41771
0.412777
0.408964
0.40458
0.397704
0.413895
0.436808
0.413858
0.414877
0.416669
0.419575
0.419025
0.417075
0.393918
0.381941
0.371506
0.376138
0.392833
0.389936
0.38723
0.384566
0.385721
0.38608
0.386039
0.386919
0.391084
0.393656
0.392673
0.403104
0.425669
0.422896
0.419302
0.41526
0.409605
0.402973
0.417925
0.43349
0.416027
0.417975
0.418738
0.423589
0.423563
0.420896
0.399996
0.389346
0.379101
0.379891
0.394156
0.394034
0.386569
0.3857
0.387414
0.389444
0.38731
0.388041
0.392939
0.397382
0.39626
0.409786
0.432967
0.427569
0.425131
0.42101
0.413221
0.406489
0.420244
0.435196
0.421658
0.422465
0.42197
0.427539
0.429914
0.427477
0.406935
0.395482
0.385717
0.381705
0.393797
0.391833
0.384208
0.383903
0.390016
0.390629
0.390013
0.39012
0.397257
0.399829
0.400045
0.416609
0.438448
0.431992
0.429882
0.423468
0.41725
0.408555
0.420693
0.438829
0.432571
0.433386
0.431984
0.433267
0.437098
0.436884
0.413941
0.399421
0.388665
0.385109
0.388476
0.37957
0.374593
0.381709
0.388562
0.393026
0.392638
0.395502
0.402203
0.404653
0.403055
0.421685
0.441476
0.43576
0.430682
0.426581
0.423025
0.412648
0.420421
0.444896
0.438292
0.444675
0.444577
0.442676
0.445143
0.445866
0.421237
0.398868
0.387098
0.385584
0.379759
0.366343
0.367635
0.37355
0.384273
0.390495
0.395581
0.403975
0.409285
0.40987
0.406878
0.420575
0.44115
0.436575
0.43313
0.430152
0.42707
0.416788
0.420694
0.450737
0.440722
0.446927
0.452263
0.452976
0.453948
0.45374
0.425687
0.39143
0.380164
0.37924
0.3658
0.360512
0.362002
0.371119
0.381191
0.389909
0.400077
0.412577
0.415042
0.414913
0.409096
0.415415
0.439706
0.439039
0.43544
0.432785
0.429928
0.419262
0.421224
0.450695
0.44209
0.443187
0.449691
0.457262
0.461694
0.459518
0.423407
0.379277
0.369849
0.365964
0.355489
0.355173
0.360784
0.369069
0.381492
0.393511
0.409296
0.414571
0.419862
0.417137
0.411152
0.410498
0.434189
0.440032
0.43723
0.434585
0.43161
0.419977
0.42112
0.448469
0.436381
0.436126
0.443299
0.453186
0.463391
0.459796
0.410554
0.369646
0.360848
0.356962
0.346308
0.35079
0.357257
0.369166
0.382813
0.400714
0.414719
0.419128
0.422485
0.419687
0.410627
0.407671
0.42345
0.438595
0.438683
0.436765
0.432932
0.419721
0.419689
0.442113
0.425319
0.429495
0.437629
0.448423
0.459355
0.44932
0.393991
0.363529
0.357441
0.350046
0.343533
0.344851
0.354027
0.366374
0.385458
0.404298
0.414258
0.423244
0.425914
0.419986
0.40922
0.403829
0.413412
0.432515
0.44007
0.438876
0.4339
0.418747
0.418528
0.428796
0.418865
0.42521
0.433746
0.442181
0.453436
0.433618
0.383045
0.360516
0.355011
0.347267
0.343682
0.346573
0.35112
0.363744
0.383686
0.402301
0.409007
0.421955
0.42582
0.414404
0.399014
0.397913
0.405628
0.424278
0.440357
0.440643
0.433877
0.417039
0.41925
0.424519
0.415522
0.421283
0.428712
0.435726
0.444529
0.421469
0.378989
0.360122
0.352601
0.346761
0.347408
0.348849
0.353726
0.363217
0.380778
0.395208
0.397656
0.404648
0.412099
0.397662
0.387677
0.387591
0.399126
0.416675
0.439753
0.441298
0.43156
0.416703
0.419903
0.427231
0.413074
0.419235
0.424546
0.431069
0.438807
0.413234
0.380603
0.363175
0.350384
0.349577
0.3507
0.353886
0.355933
0.365248
0.376933
0.386866
0.385293
0.388707
0.400437
0.391033
0.378751
0.378314
0.390677
0.408372
0.434487
0.439934
0.428152
0.416356
0.420302
0.432972
0.414957
0.418948
0.423337
0.428998
0.434413
0.411941
0.386901
0.368971
0.352607
0.352659
0.355691
0.356258
0.358583
0.364831
0.373213
0.377942
0.383022
0.385988
0.400526
0.389489
0.373827
0.372375
0.384964
0.399305
0.425628
0.436025
0.423427
0.416404
0.422217
0.438508
0.419486
0.425112
0.425542
0.42947
0.433911
0.418332
0.395075
0.377692
0.35615
0.355391
0.356019
0.357717
0.3584
0.365043
0.370203
0.374049
0.382537
0.387337
0.401273
0.393081
0.372141
0.370222
0.381386
0.392906
0.417898
0.428726
0.4152
0.412406
0.426929
0.443975
0.426421
0.434074
0.432377
0.432949
0.437604
0.427548
0.404768
0.383596
0.360879
0.355202
0.357042
0.357017
0.358904
0.364275
0.370187
0.373003
0.381812
0.388109
0.401408
0.39384
0.374119
0.370488
0.380673
0.390954
0.412863
0.414601
0.400157
0.394584
0.422783
0.448035
0.431824
0.440518
0.440532
0.437404
0.442329
0.435675
0.411925
0.38999
0.367506
0.35925
0.357967
0.358123
0.358618
0.364855
0.370249
0.374389
0.379839
0.38787
0.397985
0.389882
0.376517
0.374641
0.383276
0.393455
0.409897
0.402716
0.395448
0.390364
0.411205
0.448072
0.43434
0.442837
0.446695
0.442401
0.447451
0.442569
0.417781
0.397921
0.378543
0.366803
0.366004
0.36261
0.361754
0.36535
0.371619
0.375224
0.379409
0.38662
0.390777
0.384395
0.381624
0.379503
0.38989
0.400402
0.41385
0.403438
0.399505
0.392546
0.408063
0.44535
0.434687
0.443934
0.450353
0.447801
0.452755
0.449647
0.423715
0.407122
0.392248
0.376797
0.372973
0.372851
0.369066
0.368962
0.371736
0.375945
0.378266
0.384384
0.382761
0.384167
0.387561
0.387082
0.396237
0.410559
0.421307
0.407107
0.403635
0.395687
0.408111
0.442982
0.43431
0.443789
0.452783
0.452054
0.456948
0.45542
0.42958
0.414867
0.403719
0.387388
0.380712
0.378231
0.379136
0.375547
0.374565
0.376285
0.377774
0.382197
0.385567
0.388432
0.395191
0.394323
0.401893
0.420721
0.425279
0.409175
0.406632
0.396794
0.407656
0.444004
0.43369
0.442604
0.453222
0.456102
0.461292
0.459523
0.43361
0.421508
0.410184
0.398273
0.389468
0.384112
0.382974
0.382697
0.380099
0.3806
0.380663
0.389341
0.395837
0.396725
0.399847
0.401034
0.405962
0.427991
0.425286
0.411034
0.40748
0.397949
0.407359
0.448491
0.43367
0.439894
0.452183
0.458645
0.466944
0.462565
0.436417
0.424733
0.415427
0.405204
0.397842
0.389355
0.386424
0.385265
0.385715
0.385089
0.386212
0.397381
0.408067
0.404592
0.404139
0.403965
0.408706
0.431358
0.427071
0.411707
0.407233
0.397421
0.407286
0.458476
0.437109
0.437562
0.447761
0.459668
0.471795
0.465702
0.43804
0.427427
0.418099
0.411282
0.402267
0.394665
0.389162
0.388122
0.38872
0.388952
0.39131
0.405583
0.416615
0.412542
0.406917
0.406372
0.409392
0.435381
0.427954
0.411861
0.405325
0.396958
0.406268
0.475666
0.446392
0.442388
0.445976
0.456432
0.473564
0.467235
0.439537
0.427047
0.420462
0.413868
0.405517
0.396348
0.391346
0.389259
0.390717
0.391782
0.397536
0.41157
0.420925
0.416811
0.409924
0.40701
0.410017
0.439073
0.427773
0.410652
0.403913
0.395324
0.405013
0.489136
0.464025
0.456456
0.453834
0.456049
0.470394
0.465852
0.439806
0.426614
0.420721
0.414791
0.40638
0.397687
0.390494
0.39062
0.391146
0.39542
0.402344
0.414722
0.420705
0.418582
0.411023
0.408963
0.411678
0.440898
0.42653
0.410029
0.402984
0.393727
0.405464
0.49573
0.481704
0.475028
0.468312
0.465146
0.470409
0.460769
0.438625
0.426377
0.421362
0.41302
0.404425
0.395102
0.388133
0.38915
0.391265
0.397
0.404823
0.413107
0.418238
0.416285
0.412578
0.410625
0.415012
0.442174
0.426015
0.410319
0.401966
0.391471
0.407789
0.499642
0.492553
0.491405
0.486395
0.479396
0.47464
0.458681
0.436958
0.424734
0.416977
0.408274
0.399146
0.389844
0.381977
0.38552
0.388768
0.395285
0.403867
0.408865
0.412621
0.414698
0.413448
0.413952
0.419556
0.443744
0.426758
0.411191
0.400542
0.389255
0.411333
0.500992
0.499366
0.501317
0.49994
0.493127
0.481297
0.461226
0.437575
0.421644
0.407534
0.397936
0.391821
0.381329
0.37607
0.379774
0.386082
0.391855
0.40092
0.404091
0.4089
0.414144
0.414994
0.416124
0.424152
0.444854
0.431016
0.415583
0.402891
0.389747
0.415091
0.498952
0.501998
0.506364
0.505636
0.501326
0.488953
0.464141
0.438451
0.417485
0.394409
0.386562
0.379601
0.373055
0.370897
0.377486
0.383629
0.391003
0.400136
0.403929
0.408462
0.414905
0.413823
0.41844
0.428682
0.448019
0.439163
0.427806
0.416539
0.400693
0.42325
0.497312
0.502089
0.508625
0.507347
0.504846
0.492723
0.464369
0.436501
0.404046
0.382495
0.375101
0.370714
0.365293
0.36818
0.374974
0.381888
0.388584
0.39902
0.403722
0.408416
0.413173
0.412415
0.419305
0.433046
0.452302
0.448287
0.443522
0.438876
0.420999
0.428895
0.495475
0.500695
0.509224
0.508128
0.50522
0.490015
0.457296
0.421466
0.387809
0.370631
0.366269
0.361749
0.361194
0.364272
0.373375
0.379848
0.38665
0.395599
0.402146
0.406234
0.409613
0.407428
0.417785
0.43579
0.456734
0.456769
0.458952
0.45978
0.438508
0.432358
0.492237
0.492552
0.504667
0.503467
0.503652
0.485323
0.443718
0.405488
0.377163
0.3622
0.358206
0.357307
0.356937
0.362254
0.370792
0.379717
0.385494
0.393462
0.398283
0.403027
0.4008
0.396785
0.41028
0.43533
0.459953
0.465003
0.470837
0.468247
0.446731
0.437287
0.487932
0.482122
0.49669
0.498705
0.497856
0.479731
0.434045
0.394651
0.366826
0.355015
0.354
0.353834
0.357118
0.362432
0.372178
0.380888
0.386758
0.391504
0.394698
0.395882
0.390021
0.383102
0.398522
0.42959
0.458702
0.46998
0.472667
0.46376
0.447768
0.442904
0.475411
0.472782
0.49198
0.49551
0.492869
0.467943
0.42548
0.386778
0.360045
0.35285
0.352055
0.355944
0.359781
0.366907
0.374826
0.383155
0.386663
0.391062
0.3932
0.38993
0.385098
0.378546
0.386489
0.418921
0.453119
0.466357
0.465014
0.456087
0.442922
0.447265
0.463124
0.468432
0.490095
0.494681
0.488883
0.458516
0.413737
0.379918
0.36292
0.355335
0.355688
0.359522
0.365029
0.370702
0.377913
0.381153
0.386119
0.390979
0.394436
0.38985
0.384775
0.377661
0.380841
0.410465
0.449842
0.462398
0.460258
0.451359
0.440125
0.449675
0.463901
0.466889
0.486894
0.494357
0.487092
0.451708
0.405337
0.378185
0.365812
0.362572
0.361737
0.364923
0.367707
0.373633
0.378018
0.378305
0.382903
0.390142
0.392807
0.391196
0.38396
0.378825
0.382863
0.405748
0.450826
0.46655
0.461814
0.451095
0.443349
0.449116
0.476161
0.466718
0.482427
0.492752
0.487671
0.447067
0.405541
0.378056
0.369439
0.36631
0.368433
0.37016
0.372513
0.37521
0.377951
0.375337
0.380443
0.386685
0.391155
0.39066
0.385724
0.38338
0.389999
0.403526
0.445522
0.469531
0.4651
0.453365
0.445978
0.449989
0.483722
0.470612
0.481139
0.490533
0.486592
0.447571
0.410774
0.383483
0.37294
0.370256
0.371177
0.374389
0.376637
0.379722
0.378637
0.375681
0.379118
0.384182
0.389042
0.392868
0.390314
0.388637
0.393102
0.401253
0.433661
0.464035
0.464902
0.455828
0.446577
0.456982
0.480894
0.474829
0.484705
0.49041
0.482956
0.446593
0.413205
0.391354
0.378478
0.372524
0.37364
0.376083
0.380664
0.382395
0.381364
0.377099
0.379743
0.38363
0.390946
0.396447
0.391801
0.38828
0.395088
0.400918
0.421279
0.456868
0.458546
0.457397
0.454668
0.459106
0.472181
0.472176
0.485997
0.494314
0.477453
0.44353
0.41047
0.394617
0.382034
0.374219
0.373629
0.377501
0.381764
0.384205
0.381939
0.379348
0.380568
0.388055
0.393784
0.395678
0.389399
0.387753
0.394822
0.401433
0.411551
0.449565
0.455469
0.454291
0.453177
0.456019
0.463133
0.468288
0.484635
0.496066
0.474339
0.436713
0.408499
0.39413
0.38335
0.372751
0.372754
0.376708
0.381896
0.382692
0.382158
0.380029
0.383688
0.390801
0.392614
0.39152
0.387234
0.386082
0.394235
0.400397
0.406539
0.433683
0.451379
0.446938
0.443059
0.447743
0.457326
0.464262
0.482775
0.494164
0.471728
0.429929
0.406678
0.394355
0.380808
0.371178
0.370599
0.376271
0.380167
0.381586
0.380297
0.381155
0.38495
0.387746
0.387796
0.387323
0.384384
0.38457
0.391097
0.398246
0.40352
0.420095
0.440907
0.437732
0.432226
0.438229
0.45453
0.461742
0.481202
0.491975
0.46546
0.424035
0.404406
0.391802
0.378882
0.3706
0.371645
0.376115
0.381062
0.382357
0.38326
0.384056
0.387213
0.387722
0.38883
0.38833
0.384389
0.381317
0.386272
0.393053
0.39925
0.410818
0.423612
0.423549
0.414634
0.423919
0.456243
0.462072
0.480275
0.490265
0.455896
0.418861
0.400661
0.390512
0.37781
0.372424
0.372768
0.377134
0.380295
0.384084
0.386189
0.390037
0.392314
0.39267
0.393703
0.387677
0.379156
0.374968
0.377592
0.385315
0.393593
0.406431
0.409894
0.405133
0.394093
0.406538
0.461935
0.463967
0.480505
0.486724
0.448342
0.41337
0.397915
0.388547
0.378959
0.373711
0.375153
0.378014
0.381888
0.385058
0.38954
0.391089
0.391458
0.390286
0.387145
0.380335
0.37564
0.371089
0.372993
0.380232
0.391683
0.405646
0.405252
0.395159
0.386099
0.395518
0.465426
0.474454
0.483876
0.477756
0.441801
0.410715
0.396137
0.387299
0.379673
0.376237
0.376212
0.380096
0.382582
0.386057
0.388807
0.390989
0.387736
0.384238
0.382708
0.380487
0.378464
0.375837
0.374561
0.381912
0.393993
0.406092
0.403268
0.391639
0.382118
0.389883
0.463809
0.479611
0.487814
0.469453
0.434509
0.410878
0.397197
0.387182
0.381409
0.377264
0.377346
0.380365
0.383876
0.385409
0.388729
0.388496
0.383517
0.382386
0.385038
0.385315
0.384332
0.382064
0.380447
0.385997
0.396351
0.40643
0.402753
0.392042
0.380549
0.387541
0.459849
0.478665
0.489224
0.46184
0.428061
0.411348
0.398252
0.388738
0.382265
0.378786
0.37656
0.380415
0.383216
0.386543
0.387546
0.385955
0.38208
0.385492
0.39034
0.391024
0.390113
0.387589
0.384849
0.389198
0.398249
0.406915
0.403755
0.395168
0.381897
0.391107
0.456799
0.475728
0.483983
0.451437
0.422173
0.410252
0.398849
0.389394
0.383517
0.37866
0.376234
0.378366
0.383431
0.387416
0.388765
0.38372
0.384927
0.391649
0.396554
0.396521
0.395994
0.39281
0.38979
0.392019
0.401929
0.409385
0.406508
0.400479
0.388167
0.40542
0.454534
0.470373
0.471898
0.438203
0.417048
0.408212
0.39722
0.389812
0.382822
0.379115
0.375121
0.376707
0.381595
0.388019
0.387326
0.38448
0.389424
0.398893
0.403778
0.403341
0.402867
0.399521
0.395559
0.396266
0.407778
0.415051
0.41324
0.411388
0.403919
0.424105
0.44866
0.457029
0.456498
0.426822
0.413211
0.404992
0.395786
0.388887
0.383413
0.378823
0.37474
0.372718
0.377755
0.383156
0.382698
0.382789
0.394656
0.406402
0.412253
0.412109
0.411139
0.407046
0.403132
0.402965
0.41649
0.425511
0.426801
0.428798
0.424443
0.446164
0.440118
0.443614
0.441687
0.419344
0.40928
0.402154
0.395135
0.389822
0.3835
0.379949
0.373708
0.370306
0.369187
0.371878
0.372364
0.379843
0.397587
0.413675
0.421508
0.422285
0.420411
0.415672
0.412164
0.412845
0.428156
0.441033
0.445393
0.447934
0.448378
0.467115
0.432195
0.429369
0.428619
0.414755
0.407299
0.400653
0.396429
0.391203
0.386121
0.382595
0.37612
0.368876
0.365888
0.362322
0.363309
0.374053
0.397535
0.41927
0.431123
0.434176
0.431599
0.425706
0.422901
0.425785
0.443522
0.460149
0.465235
0.469336
0.468871
0.469596
0.422296
0.413536
0.421815
0.413025
0.40631
0.398856
0.397201
0.39491
0.390441
0.38753
0.380888
0.372187
0.366372
0.362118
0.358901
0.368555
0.39337
0.42012
0.439384
0.447093
0.444865
0.437705
0.435395
0.442078
0.461512
0.479638
0.484721
0.480692
0.470007
0.46442
0.414591
0.405857
0.418818
0.412162
0.405026
0.397764
0.398065
0.398118
0.396554
0.392846
0.386936
0.37553
0.369363
0.362812
0.359669
0.362772
0.385342
0.415315
0.440424
0.456545
0.458023
0.451367
0.449992
0.459941
0.479621
0.49628
0.492048
0.480333
0.46546
0.455985
0.408663
0.401467
0.415292
0.412207
0.405375
0.399317
0.399112
0.399173
0.398392
0.397147
0.391194
0.379655
0.371404
0.36619
0.360708
0.3619
0.374732
0.407481
0.436931
0.459062
0.468579
0.465403
0.466335
0.478032
0.496296
0.502426
0.492247
0.476476
0.457711
0.43964
0.402411
0.397947
0.412693
0.41364
0.407251
0.401162
0.399924
0.398885
0.397052
0.395128
0.392698
0.381817
0.374857
0.369106
0.365001
0.362739
0.368907
0.395162
0.430312
0.457615
0.473743
0.477704
0.482787
0.494259
0.505085
0.503202
0.489672
0.469006
0.439609
0.416846
0.397462
0.395749
0.410238
0.41455
0.408988
0.402216
0.400422
0.398917
0.39461
0.393142
0.389045
0.382072
0.376515
0.373571
0.368822
0.366126
0.367884
0.383987
0.421045
0.453228
0.474811
0.485986
0.496952
0.505141
0.507558
0.500973
0.483023
0.452421
0.413373
0.388239
0.393193
0.392595
0.406721
0.413935
0.40997
0.40268
0.401768
0.398016
0.394175
0.390006
0.385411
0.379261
0.376987
0.375244
0.373598
0.368777
0.369601
0.378764
0.40985
0.447085
0.473997
0.488644
0.505106
0.509866
0.505013
0.491216
0.46536
0.423175
0.37863
0.362404
0.388597
0.38908
0.402959
0.412286
0.410357
0.40192
0.400713
0.398519
0.394051
0.388099
0.381962
0.377173
0.374614
0.375432
0.374373
0.371382
0.370347
0.377933
0.401103
0.440737
0.470882
0.488109
0.504757
0.508528
0.498564
0.477128
0.443172
0.392187
0.363876
0.35687
0.384668
0.385746
0.401175
0.411437
0.41086
0.400239
0.398826
0.398626
0.394964
0.386679
0.381264
0.375505
0.373417
0.372801
0.372659
0.37041
0.371151
0.37822
0.396487
0.433821
0.465816
0.483813
0.496503
0.502772
0.491929
0.464955
0.423802
0.384042
0.362448
0.352649
0.382983
0.383568
0.402246
0.412704
0.414785
0.403385
0.401421
0.402806
0.396241
0.387776
0.381251
0.376194
0.371772
0.368585
0.366914
0.368487
0.370544
0.378704
0.394025
0.425149
0.459596
0.477394
0.485976
0.492379
0.486728
0.46093
0.417475
0.385878
0.363754
0.350419
0.384533
0.383911
0.405861
0.417305
0.422309
0.411626
0.408808
0.407437
0.398995
0.388548
0.382351
0.375313
0.367622
0.361542
0.362124
0.364308
0.369669
0.378243
0.390824
0.414001
0.454126
0.473261
0.480122
0.483082
0.479641
0.461234
0.420742
0.391201
0.367106
0.351426
0.391234
0.388012
0.410661
0.422906
0.430066
0.420515
0.414312