/*--------------------------------*- C++ -*----------------------------------*\
| =========                 |                                                 |
| \\      /  F ield         | OpenFOAM: The Open Source CFD Toolbox           |
|  \\    /   O peration     | Version:  2.3.0                                 |
|   \\  /    A nd           | Web:      www.OpenFOAM.org                      |
|    \\/     M anipulation  |                                                 |
\*---------------------------------------------------------------------------*/
FoamFile
{
    version     2.0;
    format      ascii;
    class       volScalarField;
    location    "0.58";
    object      nut.particles;
}
// * * * * * * * * * * * * * * * * * * * * * * * * * * * * * * * * * * * * * //

dimensions      [0 2 -1 0 0 0 0];

internalField   nonuniform List<scalar> 
6000
(
2.25957e-05
1.80967e-05
1.6348e-05
1.26872e-05
1.00779e-05
9.58061e-06
9.2378e-06
1.17324e-05
2.4979e-05
3.08907e-05
2.48107e-05
1.65485e-05
1.39059e-05
1.38167e-05
1.37417e-05
1.38238e-05
1.74313e-05
2.50338e-05
2.77104e-05
2.23063e-05
1.29264e-05
1.00169e-05
9.69566e-06
1.12178e-05
1.28361e-05
1.47599e-05
1.66353e-05
1.72243e-05
1.80797e-05
2.37756e-05
1.3642e-06
2.17102e-06
2.20013e-06
2.3908e-06
2.28405e-06
2.18663e-06
1.90139e-06
2.17544e-06
1.47133e-06
1.91857e-06
3.03374e-06
2.86917e-06
2.12949e-06
1.95321e-06
1.77159e-06
2.20149e-06
2.5128e-06
2.20071e-06
1.14019e-06
1.15343e-06
1.70706e-06
1.82995e-06
1.94048e-06
2.17894e-06
2.28013e-06
2.03894e-06
1.75655e-06
1.66946e-06
1.44796e-06
1.0068e-06
1.24894e-06
1.19125e-06
1.04453e-06
2.18783e-06
5.38113e-06
6.11884e-06
5.84887e-06
3.05254e-06
2.61192e-07
9.5376e-08
4.42704e-07
2.93271e-06
4.87413e-06
5.32406e-06
5.23994e-06
4.69138e-06
2.55173e-06
7.22456e-07
9.51788e-08
5.94792e-07
2.43235e-06
5.61513e-06
6.56174e-06
4.50662e-06
3.117e-06
1.83251e-06
9.60186e-07
7.88219e-07
5.13295e-07
9.14384e-07
5.01296e-07
1.27631e-07
1.03036e-07
9.49005e-08
3.61811e-07
3.53176e-06
3.79155e-06
4.18406e-07
1.62296e-07
7.54215e-08
6.71576e-08
2.45236e-07
1.43972e-06
2.58829e-06
1.85295e-06
7.35594e-07
7.11392e-08
6.24276e-08
8.43203e-08
1.49205e-07
3.16361e-07
1.00611e-06
9.90204e-07
9.39105e-08
7.46423e-08
1.45302e-07
1.31993e-07
1.19941e-07
1.32562e-07
5.53141e-07
4.3723e-07
1.4653e-07
1.9193e-07
1.23784e-07
1.5578e-07
1.37597e-06
2.02195e-06
4.11769e-07
1.79853e-07
1.80516e-07
3.23916e-07
4.09926e-07
7.19468e-07
5.31929e-07
3.51181e-07
4.35145e-07
2.04656e-07
1.46821e-07
1.3043e-07
1.34891e-07
3.38409e-07
6.23661e-07
4.92586e-07
1.97483e-07
1.80007e-07
2.21521e-07
2.36551e-07
2.87757e-07
1.36265e-07
5.39656e-07
3.21763e-07
1.5765e-07
2.72799e-07
3.55625e-07
4.0537e-07
6.56137e-07
6.67762e-07
2.67605e-07
2.64236e-07
3.61475e-07
3.2832e-07
3.8171e-07
3.69229e-07
1.40877e-07
1.63688e-07
3.26433e-07
2.09219e-07
2.17353e-07
1.86953e-07
2.1002e-07
2.53231e-07
4.43139e-07
4.18204e-07
2.73248e-07
2.95178e-07
3.50241e-07
5.35314e-07
3.73949e-07
2.26652e-07
4.03129e-07
2.38308e-07
1.89443e-07
3.76787e-07
5.51989e-07
1.21425e-06
1.17498e-06
5.13234e-07
3.34914e-07
3.56816e-07
3.11136e-07
2.13072e-07
2.67438e-07
2.67984e-07
2.16375e-07
2.15379e-07
2.2444e-07
1.68468e-07
1.2975e-07
1.6996e-07
1.95561e-07
2.92027e-07
3.83905e-07
3.48224e-07
3.36355e-07
4.19225e-07
8.44575e-07
8.40806e-07
6.67063e-07
3.76609e-07
3.30123e-07
2.11917e-07
2.6096e-07
5.81669e-07
7.6439e-07
1.52079e-06
2.68856e-06
1.04901e-06
4.42664e-07
3.21126e-07
2.52175e-07
2.61272e-07
2.37663e-07
2.714e-07
3.01074e-07
2.6223e-07
2.2144e-07
2.12604e-07
1.78432e-07
1.49281e-07
1.69393e-07
2.64611e-07
3.56557e-07
3.98492e-07
6.56922e-07
1.30914e-06
1.2993e-06
9.64012e-07
9.57666e-07
5.64399e-07
4.10001e-07
2.8349e-07
3.79753e-07
8.18241e-07
1.15767e-06
1.59614e-06
4.34037e-06
2.64945e-06
6.56596e-07
3.49927e-07
2.35974e-07
2.83501e-07
4.05958e-07
4.23511e-07
4.87009e-07
3.79369e-07
1.98095e-07
2.01108e-07
1.86089e-07
1.58166e-07
1.83631e-07
3.30537e-07
4.63568e-07
1.50795e-06
3.03616e-06
1.34793e-06
2.77865e-06
3.22056e-05
2.40952e-06
6.95769e-07
6.50004e-07
5.3185e-07
5.47011e-07
1.01736e-06
1.59617e-06
2.17553e-06
3.87869e-06
6.34885e-06
1.73577e-06
4.85488e-07
2.61621e-07
3.08302e-07
7.39728e-07
1.01529e-06
7.60874e-07
4.86837e-07
2.20378e-07
1.99959e-07
2.27072e-07
2.28003e-07
3.40447e-07
4.95106e-07
2.0366e-06
5.98349e-06
2.73492e-05
0.000271005
0.000474355
0.000472488
0.000270631
1.20436e-05
9.65593e-07
1.06583e-06
8.27491e-07
1.24909e-06
1.89579e-05
8.32776e-05
0.000131038
1.99139e-05
4.01934e-06
8.83921e-07
4.9634e-07
4.38462e-07
1.72406e-06
1.97627e-06
8.73829e-07
4.8906e-07
2.83613e-07
2.77812e-07
3.0655e-07
3.72609e-07
5.18991e-07
1.67747e-06
8.4091e-06
0.000756419
0.00201513
0.00229529
0.00199687
0.00155774
0.00107842
0.00049523
7.49624e-05
1.90612e-06
1.33663e-06
0.000148363
0.000519842
0.000748283
0.000700844
0.00051968
1.00579e-05
1.86132e-06
7.54482e-07
9.04589e-07
4.5514e-06
0.00018125
9.05707e-06
8.71029e-07
6.33605e-07
3.70097e-07
3.9789e-07
5.21746e-07
1.12408e-06
8.63885e-06
0.00249416
0.00744616
0.00807979
0.00697793
0.00519794
0.00361599
0.00242748
0.00150284
0.000740139
2.70855e-06
0.000220628
0.00138483
0.00232566
0.00257128
0.00213007
0.00125982
9.82846e-05
3.50307e-06
1.12418e-06
2.04671e-06
6.26064e-05
0.000517608
0.000196601
2.50343e-06
1.09967e-06
5.83732e-07
6.60752e-07
6.85561e-07
7.39663e-06
0.00366827
0.0151573
0.0154041
0.0153371
0.0134996
0.0103476
0.00693928
0.00424393
0.00261784
0.00175327
7.16501e-05
0.00180989
0.00519838
0.00685991
0.00672742
0.00464368
0.00217253
0.00091304
5.73442e-06
1.80366e-06
4.6341e-06
7.32371e-05
0.000523779
0.000321832
2.98872e-06
1.42864e-06
1.34322e-06
1.04078e-06
5.44153e-06
0.00451833
0.0151897
0.0155838
0.0153597
0.0156145
0.0153986
0.0147901
0.0110374
0.00654394
0.00351599
0.00235827
0.00136555
0.00678278
0.0125057
0.0144411
0.012254
0.00603119
0.00240437
0.00153723
2.68692e-05
4.25259e-06
7.32662e-06
1.18692e-05
0.000466326
0.00019063
2.7987e-06
2.1571e-06
2.12597e-06
3.26643e-06
0.00678077
0.0150592
0.0154797
0.0136481
0.0074789
0.0152832
0.0156112
0.0154002
0.0139195
0.00935669
0.00449958
0.00252718
0.00706959
0.0144841
0.0154106
0.0152616
0.0107455
0.00389819
0.00183368
0.00123626
0.000839664
1.645e-05
5.40156e-06
4.61956e-06
2.50658e-05
7.4115e-05
2.9794e-06
2.94598e-06
4.6933e-05
0.0105292
0.0149831
0.0153111
0.00609604
0.00102839
1.99874e-05
0.00513306
0.0152247
0.0154504
0.0142529
0.011703
0.00613579
0.00268549
0.0145391
0.0154246
0.0152853
0.0105346
0.00143367
0.00107078
0.000955587
0.000925256
0.000779055
2.90834e-05
2.76281e-06
5.38259e-07
8.7771e-06
7.93481e-05
3.27388e-06
0.000166805
0.00864357
0.0149257
0.0151617
0.00605275
3.18046e-05
1.79502e-05
7.4902e-06
1.79099e-05
0.00271346
0.0110307
0.0123402
0.0121026
0.00846387
0.00301192
0.0152001
0.0152785
0.0129535
2.89504e-05
1.13039e-05
1.68106e-05
2.19535e-05
2.40849e-05
2.17311e-05
7.95388e-06
1.81857e-06
3.87008e-07
2.63359e-06
2.74603e-05
0.000590164
0.00493829
0.0148212
0.0150491
0.00766291
3.07934e-05
8.54382e-06
2.9806e-06
1.8103e-06
3.52963e-06
2.4878e-05
0.00175015
0.00617483
0.00984887
0.0101155
0.00441072
0.0131173
0.0100343
3.18944e-05
5.08919e-06
1.1229e-06
1.93272e-06
3.00089e-06
3.52916e-06
3.2854e-06
1.60453e-06
1.18606e-06
5.24351e-07
1.29051e-06
1.28147e-05
0.00277742
0.008254
0.0148695
0.0101857
1.85308e-05
4.99889e-06
9.28219e-07
1.23073e-07
1.98225e-07
2.66322e-07
5.86858e-06
0.000124596
0.00164845
0.00625649
0.0101396
0.0101312
0.00704182
0.000868932
8.16769e-06
6.06058e-08
8.53532e-08
9.81391e-08
9.85615e-08
3.04472e-07
3.33742e-07
3.6843e-07
4.67815e-07
2.89384e-07
8.05722e-07
8.00553e-06
0.00359709
0.00407995
0.00621808
2.18818e-05
3.47778e-06
3.76045e-07
4.61063e-08
8.01721e-08
2.08841e-07
1.9746e-07
8.9268e-07
8.47626e-06
3.26594e-05
0.00153175
0.00976776
0.0100243
0.00050426
1.54787e-05
2.37223e-07
8.20404e-08
8.09512e-08
9.82387e-08
8.4544e-08
4.8548e-08
4.79083e-08
7.52882e-08
1.12188e-07
1.05249e-07
3.4393e-07
3.5925e-06
0.000407691
1.06672e-05
8.62525e-05
1.06836e-05
1.49983e-06
2.96169e-07
7.3038e-08
7.05229e-08
2.02972e-07
2.25921e-07
7.94588e-07
3.08745e-07
4.38148e-06
8.20229e-06
1.74863e-05
3.15459e-05
1.86738e-05
6.1391e-07
1.09615e-07
8.45424e-08
7.81264e-08
8.2576e-08
9.70977e-08
7.50495e-08
4.38057e-08
3.37553e-08
4.41475e-08
8.51597e-08
3.51702e-07
2.04268e-06
1.07434e-05
4.70695e-07
4.18763e-06
5.41647e-06
1.95715e-06
3.18416e-07
1.0557e-07
6.94063e-08
1.31636e-07
2.75742e-07
3.99064e-07
8.76318e-08
4.61346e-08
4.83177e-08
3.25678e-06
1.17647e-05
6.39738e-06
3.59969e-07
1.81119e-07
8.98462e-08
8.3799e-08
7.42199e-08
1.00742e-07
7.4067e-08
4.91472e-08
3.22803e-08
4.78716e-08
9.17528e-08
3.78595e-07
1.7251e-06
5.11323e-06
6.14814e-07
7.53213e-07
1.53473e-05
2.50038e-06
4.09432e-07
1.90547e-07
1.06717e-07
8.80524e-08
2.77297e-07
1.40234e-07
8.28267e-08
6.84706e-08
1.26385e-07
2.37142e-07
4.96368e-06
5.46235e-06
4.1877e-07
2.99251e-07
1.04029e-07
8.38319e-08
7.62128e-08
9.54628e-08
9.6806e-08
6.72865e-08
5.9677e-08
6.09955e-08
1.00003e-07
2.77636e-07
1.06643e-06
3.30268e-06
1.45176e-06
9.47169e-07
1.358e-05
2.60051e-06
5.34884e-07
3.03855e-07
1.81389e-07
1.17172e-07
1.72699e-07
1.09059e-07
1.03413e-07
9.2126e-08
2.15488e-07
2.95985e-07
5.88567e-06
5.34085e-06
5.22532e-07
5.0098e-07
1.52951e-07
7.58042e-08
5.88477e-08
8.97797e-08
1.06879e-07
9.39845e-08
8.31052e-08
9.23497e-08
9.69719e-08
1.32831e-07
4.8515e-07
2.06213e-06
1.35157e-05
2.06256e-05
4.51138e-05
2.4537e-06
3.85697e-07
2.44808e-07
2.5502e-07
2.2759e-07
1.62771e-07
1.18292e-07
1.05185e-07
8.65866e-08
2.32332e-07
4.28176e-07
6.43973e-06
5.68102e-06
6.73042e-07
7.94661e-07
2.69727e-07
7.71533e-08
9.31026e-08
9.1074e-08
1.11753e-07
1.13583e-07
1.17746e-07
1.09351e-07
1.2676e-07
1.26014e-07
7.12098e-08
1.32142e-06
5.68339e-06
0.000239288
0.000291341
2.37805e-06
1.53445e-07
1.17759e-07
2.41e-07
2.83251e-07
2.20751e-07
1.18715e-07
9.44498e-08
1.00618e-07
3.69939e-07
6.82676e-07
6.65403e-06
5.74211e-06
9.16023e-07
1.1913e-06
4.97147e-07
1.29416e-07
9.38701e-08
1.01825e-07
9.84211e-08
1.35724e-07
1.19455e-07
9.12578e-08
1.07136e-07
1.17236e-07
1.07996e-07
2.86561e-07
5.785e-06
0.000533711
0.000517512
2.82766e-06
5.67529e-08
1.1533e-07
2.21843e-07
3.90257e-07
2.85973e-07
1.23815e-07
9.37869e-08
1.55971e-07
4.9901e-07
8.22642e-07
6.59483e-06
5.50666e-06
1.08536e-06
1.55365e-06
8.07352e-07
1.99507e-07
7.77157e-08
1.14938e-07
1.12144e-07
1.04624e-07
9.42262e-08
5.85143e-08
9.86794e-08
1.22557e-07
1.27884e-07
7.28175e-08
2.75777e-06
0.000447765
1.47344e-05
2.92745e-06
1.02747e-07
1.08313e-07
2.4732e-07
7.18155e-07
2.61896e-07
1.30704e-07
8.26815e-08
1.89811e-07
5.74922e-07
1.07236e-06
6.27444e-06
5.31845e-06
1.47786e-06
1.84699e-06
1.18142e-06
3.75178e-07
9.19938e-08
1.14744e-07
1.32363e-07
1.06573e-07
8.73509e-08
5.90591e-08
9.54971e-08
1.57949e-07
1.1597e-07
9.16829e-08
1.26444e-06
1.05818e-05
3.81969e-06
1.65385e-06
2.00855e-07
9.36187e-08
2.95541e-07
9.56857e-07
1.56429e-07
1.31873e-07
1.09864e-07
2.50923e-07
8.12726e-07
1.32441e-06
5.6284e-06
0.000426538
2.25761e-06
2.17261e-06
1.53407e-06
6.7775e-07
1.57612e-07
1.01589e-07
1.62918e-07
1.21617e-07
1.02872e-07
8.87667e-08
1.13187e-07
1.56096e-07
1.35516e-07
1.07623e-07
1.24889e-06
7.17847e-06
2.22573e-06
1.12855e-06
3.52255e-07
9.56006e-08
3.72334e-07
8.17426e-07
1.24236e-07
1.21567e-07
1.80971e-07
4.06711e-07
1.13267e-06
1.57966e-06
4.75773e-06
0.00328254
0.00050931
6.61688e-05
3.63333e-06
1.22956e-06
3.94861e-07
1.10157e-07
1.64002e-07
1.35153e-07
1.17976e-07
1.19087e-07
1.41098e-07
1.75814e-07
1.31288e-07
1.48503e-07
2.04212e-06
5.85528e-06
1.20978e-06
9.55614e-07
4.64248e-07
1.32846e-07
4.93914e-07
6.20514e-07
1.48011e-07
1.36811e-07
2.66441e-07
6.66637e-07
1.62748e-06
1.76035e-06
1.54867e-05
0.00847499
0.00327416
0.000934667
0.000215496
2.01746e-05
1.17564e-06
1.73169e-07
1.6564e-07
1.40992e-07
1.42411e-07
1.37378e-07
1.60885e-07
1.88053e-07
1.35357e-07
2.34316e-07
2.47302e-06
3.80102e-06
8.44839e-07
8.33483e-07
6.92921e-07
1.55964e-07
7.62477e-07
4.97047e-07
1.94913e-07
2.02667e-07
4.53628e-07
1.27118e-06
2.10815e-06
2.83215e-05
0.000212712
0.0127339
0.00764516
0.00326162
0.00105596
0.000257726
1.94216e-06
3.84162e-07
1.7512e-07
1.51837e-07
1.48487e-07
1.50604e-07
1.676e-07
1.85943e-07
1.50958e-07
4.13223e-07
2.96926e-06
2.06307e-06
5.09003e-07
6.64779e-07
1.0282e-06
1.55028e-07
9.33352e-07
3.99361e-07
2.41555e-07
3.19318e-07
9.93409e-07
2.14055e-06
0.000157846
0.00041366
0.00106216
0.0149445
0.0118001
0.00668049
0.00271512
0.000844882
5.73947e-05
6.71567e-07
3.05083e-07
2.33639e-07
2.1111e-07
2.07847e-07
2.14652e-07
1.96406e-07
2.23678e-07
1.01694e-06
2.41748e-06
6.5868e-07
2.5751e-07
3.19897e-07
6.76271e-07
8.05709e-07
1.08275e-06
4.67954e-07
3.36994e-07
6.06029e-07
2.02504e-06
0.000346649
0.00111971
0.00208876
0.00356025
0.0154493
0.0147369
0.0107857
0.00535691
0.00187963
0.00022644
8.99777e-07
7.21739e-07
5.11085e-07
4.68888e-07
4.75724e-07
4.48141e-07
3.17271e-07
4.35844e-07
1.78195e-06
1.64513e-06
2.78434e-07
1.61419e-07
1.67783e-07
3.94092e-07
1.56059e-06
2.00264e-06
6.21523e-07
4.58963e-07
1.45259e-06
0.000323824
0.00210403
0.00420246
0.00664782
0.00872122
0.0154593
0.0154486
0.0145153
0.00920259
0.00340177
0.000347515
1.20197e-06
1.48895e-06
1.1838e-06
1.13751e-06
1.18695e-06
1.07838e-06
6.75201e-07
9.71405e-07
2.56072e-06
1.20331e-06
2.13652e-07
1.9475e-07
1.94506e-07
3.00751e-07
2.49074e-06
4.03641e-06
1.11672e-06
5.38308e-07
0.000232815
0.00300232
0.00643636
0.00958736
0.0121885
0.0123371
0.0154863
0.0154469
0.0154395
0.0133555
0.0058072
0.000610013
1.50146e-06
2.44527e-06
2.9606e-06
5.28493e-05
0.000123864
8.26631e-06
1.23815e-06
2.02598e-06
3.15202e-06
8.23614e-07
2.26503e-07
2.3795e-07
2.96972e-07
2.36582e-07
3.01486e-06
2.80594e-05
1.59974e-06
0.000172111
0.00340827
0.00800667
0.011344
0.0123421
0.0123634
0.0123726
0.0154551
0.0134474
0.0153895
0.01535
0.0087799
0.00162212
0.000144975
0.000319186
0.00146073
0.0030395
0.00307651
0.000843934
0.000168078
3.19174e-06
3.0856e-06
5.80726e-07
2.37622e-07
2.46897e-07
2.85127e-07
2.63943e-07
5.44736e-06
8.56804e-05
0.000109576
0.00218083
0.00741738
0.0104726
0.0123085
0.0123396
0.0123429
0.0123559
0.0117533
5.82722e-05
0.0131967
0.015271
0.0107818
0.00430526
0.00188645
0.00357046
0.00721528
0.00876763
0.00377604
0.000278739
0.000308672
8.30848e-05
2.47753e-06
4.52107e-07
2.40064e-07
2.29739e-07
2.44322e-07
5.58774e-07
5.85432e-06
0.000333697
0.00109039
0.00424932
0.00696906
0.00907481
0.01056
0.00958857
0.00802119
0.00949514
1.81033e-05
7.32284e-06
0.00249218
0.0100633
0.00946194
0.00829442
0.00796717
0.0115989
0.0130753
0.0110401
0.00143448
0.000266823
0.000302874
0.000300811
1.46191e-06
4.45481e-07
2.89484e-07
2.61314e-07
2.35014e-07
1.23362e-06
6.84793e-06
0.000805348
0.00262535
0.00390424
0.00437035
0.00641873
0.0036586
0.000814025
1.7666e-05
3.14159e-05
5.10753e-06
2.72962e-06
2.27658e-05
0.00244349
0.00524992
0.0107214
0.013052
0.0133692
0.0130914
0.0114865
0.000212455
0.000268623
0.000315082
0.000510413
4.77969e-05
5.66371e-07
5.05238e-07
4.33159e-07
2.99072e-07
4.45098e-06
8.59484e-06
0.00193477
0.00435791
0.00325905
0.00236313
0.00327163
4.66604e-05
1.16114e-05
1.82567e-06
5.65013e-06
4.06822e-06
4.10832e-07
5.79322e-06
7.69378e-05
0.0025294
0.0121416
0.0133918
0.0131145
0.0131561
0.00353882
0.000203659
0.000317378
0.00059042
0.00082105
0.000637389
1.61249e-05
1.50046e-06
1.39156e-06
1.96763e-06
1.17785e-05
5.09699e-05
0.00435658
0.00465559
0.0043596
0.00218039
2.40095e-05
5.92446e-06
2.01406e-07
1.44136e-07
1.27067e-06
6.28308e-06
6.06209e-07
1.0398e-06
8.87084e-06
0.00258705
0.0125672
0.013121
0.0131921
0.000291583
2.43236e-05
0.000647435
0.000632765
0.00120668
0.00128146
0.00113426
0.000638423
0.00017051
6.63267e-05
0.000459443
0.00112193
0.0002714
0.00167547
0.00429431
0.000216312
1.38141e-05
2.13664e-06
5.38173e-08
9.15303e-08
1.73836e-07
1.10848e-06
7.07804e-06
6.10912e-07
5.88338e-07
1.42746e-06
1.27349e-05
0.00661413
0.0130242
0.00227663
7.62865e-06
5.65007e-06
4.31677e-05
0.00117171
0.0015561
0.00154862
0.00127482
0.00119821
0.00119101
0.00120112
0.00126
0.00126831
2.90885e-05
1.23625e-05
1.64015e-05
7.57633e-06
2.7561e-07
9.71711e-08
1.08433e-07
1.15349e-07
1.8314e-07
1.12507e-06
5.12023e-06
4.51178e-07
2.90394e-07
3.38566e-07
2.43362e-06
1.33514e-05
3.05173e-05
1.43874e-05
1.20782e-06
6.14971e-07
5.28827e-06
2.51273e-05
4.59123e-05
0.000648545
0.0013755
0.00137302
0.00137546
0.00121018
4.38697e-05
2.78123e-05
3.42434e-06
5.99352e-07
1.94098e-06
1.31977e-07
1.40403e-07
1.13664e-07
1.23616e-07
1.32248e-07
2.02431e-07
1.53406e-06
3.38574e-06
2.89105e-07
2.01599e-07
3.19064e-07
4.86738e-07
1.44347e-06
7.70601e-06
1.23593e-06
8.47155e-07
2.63638e-07
4.75217e-07
2.72612e-06
7.61356e-06
1.6127e-05
2.3792e-05
2.66595e-05
2.50651e-05
1.82834e-05
7.37905e-06
2.86086e-06
2.69841e-07
8.844e-08
8.79262e-08
2.15921e-07
1.962e-07
1.4094e-07
1.56222e-07
1.91371e-07
3.82181e-07
3.10471e-06
2.58197e-06
3.60683e-07
1.89904e-07
2.66013e-07
4.07667e-07
5.02276e-07
2.05262e-07
9.42031e-07
1.00843e-06
2.63382e-07
3.02568e-08
1.94969e-07
1.01698e-06
1.93784e-06
2.88072e-06
3.25947e-06
2.96808e-06
1.90578e-06
7.91181e-07
3.33572e-07
1.13674e-07
9.64511e-08
1.19172e-07
3.28124e-07
3.15293e-07
2.20763e-07
2.78472e-07
4.68678e-07
1.1234e-06
0.000240594
2.2123e-06
4.95e-07
3.04213e-07
2.68954e-07
4.04812e-07
5.30412e-07
2.62007e-07
1.03235e-06
1.15838e-06
3.29424e-07
4.67202e-08
7.49691e-08
1.14566e-07
1.62984e-07
2.46094e-07
3.05121e-07
2.44016e-07
1.8004e-07
2.25127e-07
2.39434e-07
1.11672e-07
9.70236e-08
1.63378e-07
4.59399e-07
4.99861e-07
3.78942e-07
5.81107e-07
1.33095e-06
9.25568e-05
0.0166714
2.57914e-06
6.26943e-07
4.16761e-07
3.4123e-07
4.14542e-07
5.42232e-07
3.14639e-07
1.20576e-06
1.15014e-06
3.00212e-07
7.14362e-08
6.59646e-08
8.11684e-08
8.15295e-08
8.91501e-08
8.97484e-08
9.73803e-08
1.20402e-07
2.07089e-07
2.24218e-07
1.45283e-07
7.8301e-08
2.32172e-07
6.63078e-07
7.12354e-07
6.37356e-07
1.39902e-06
0.000185706
0.0135223
0.0273094
6.54554e-06
8.19303e-07
5.72997e-07
4.06953e-07
4.4635e-07
5.66276e-07
4.21881e-07
1.43881e-06
1.10095e-06
2.58779e-07
6.50394e-08
5.74488e-08
5.62435e-08
6.10508e-08
5.84478e-08
6.52035e-08
7.03738e-08
1.00639e-07
1.883e-07
2.60693e-07
1.29257e-07
8.21369e-08
3.94408e-07
1.0036e-06
9.78118e-07
1.14626e-06
5.31424e-05
0.00999935
0.0275093
0.0273654
0.00183491
3.1611e-06
1.24606e-06
6.45995e-07
5.49946e-07
7.41211e-07
5.95689e-07
1.70576e-06
9.1757e-07
1.95719e-07
4.35845e-08
3.94057e-08
4.27557e-08
4.06031e-08
4.22436e-08
4.36958e-08
5.22781e-08
7.57799e-08
1.80889e-07
1.93421e-07
1.09462e-07
9.16273e-08
7.18806e-07
1.70774e-06
1.40165e-06
1.77264e-06
0.00269622
0.0243954
0.0271984
0.00917855
0.00463739
0.00212444
5.81229e-05
1.62239e-06
1.07921e-06
9.63362e-07
7.42509e-07
2.26336e-06
6.91877e-07
1.23292e-07
2.25734e-08
2.80464e-08
2.74382e-08
2.81263e-08
2.79641e-08
3.12596e-08
3.65486e-08
6.12087e-08
1.39844e-07
1.68428e-07
8.09812e-08
8.63169e-08
8.06428e-07
3.00272e-06
2.25798e-06
0.000135174
0.00879993
0.0273685
0.0284843
0.00474252
0.00152739
0.00294234
0.00260975
0.000220653
2.05333e-06
1.19916e-06
9.59783e-07
3.35971e-06
6.18432e-07
5.21203e-08
2.05272e-08
2.00203e-08
2.06585e-08
1.98236e-08
1.89014e-08
2.01726e-08
2.98542e-08
4.58449e-08
1.14911e-07
1.3814e-07
5.56391e-08
7.57439e-08
6.18414e-07
4.0999e-06
3.05538e-06
0.00127668
0.01655
0.0287996
0.0271544
0.000758669
0.000149824
0.00281633
0.00291109
0.00247889
0.000410761
1.95206e-06
1.10141e-06
5.40689e-06
7.73949e-07
3.53071e-08
1.74032e-08
1.70038e-08
1.17941e-08
1.04665e-08
1.17997e-08
1.8161e-08
2.48959e-08
4.21492e-08
8.88041e-08
1.3695e-07
3.46451e-08
5.10981e-08
5.84738e-07
5.38293e-06
7.00119e-05
0.00266603
0.0207953
0.0275527
0.028598
6.45782e-05
9.34689e-05
8.28174e-06
0.00073711
0.00248112
0.00248488
0.000357371
1.03629e-06
6.82333e-06
8.81148e-07
2.37988e-08
1.70574e-08
1.55076e-08
9.45445e-09
1.15224e-08
1.24939e-08
1.7186e-08
2.59966e-08
3.61341e-08
7.21493e-08
1.06688e-07
2.79598e-08
2.93638e-08
5.35631e-07
4.42503e-06
0.000194413
0.00340674
0.0225415
0.0289705
0.0225419
3.78548e-05
1.43503e-05
3.82846e-06
8.08235e-06
3.02473e-05
0.00246638
0.00148547
7.79166e-05
2.95852e-06
6.08059e-07
3.01516e-08
2.03049e-08
1.92857e-08
1.18952e-08
1.19665e-08
1.4863e-08
2.11761e-08
2.77192e-08
4.64899e-08
6.44275e-08
9.05574e-08
3.68405e-08
4.07551e-08
5.6619e-07
4.04011e-06
0.000425061
0.00354167
0.022906
0.0273173
0.00636524
1.4064e-05
6.60759e-06
1.5907e-06
3.5591e-06
3.91747e-06
1.26218e-05
0.00146813
4.33995e-05
1.17143e-06
2.03873e-07
2.9794e-08
2.60843e-08
2.144e-08
1.6139e-08
1.69556e-08
2.29193e-08
2.7067e-08
4.31702e-08
6.79619e-08
9.833e-08
1.13324e-07
6.14883e-08
5.0749e-08
3.26992e-07
3.23193e-06
0.000737476
0.00299367
0.0193612
0.0283721
0.00271303
1.48103e-05
4.42073e-06
1.33082e-06
9.55987e-07
1.67025e-06
3.62232e-06
0.000193142
5.76581e-06
4.06608e-07
7.7658e-08
5.62101e-08
3.87521e-08
3.71907e-08
2.61193e-08
3.18599e-08
3.43186e-08
4.74343e-08
8.70187e-08
1.20294e-07
1.57424e-07
1.95145e-07
1.30666e-07
5.77547e-08
1.03266e-07
1.97043e-06
1.62726e-05
0.0017546
0.0140815
0.025411
0.00215248
1.44084e-05
4.38623e-06
1.31872e-06
1.59008e-06
1.12998e-06
1.61257e-07
8.50135e-06
1.48284e-06
2.90471e-07
1.16963e-07
6.88621e-08
6.10693e-08
5.91464e-08
5.04754e-08
6.63943e-08
7.92123e-08
1.04471e-07
1.46563e-07
1.58809e-07
1.89429e-07
2.55327e-07
2.21591e-07
1.07056e-07
2.0027e-07
1.27017e-06
4.88592e-06
0.00142281
0.00946954
0.0140863
0.00240121
1.44522e-05
0.000220766
1.60232e-06
1.22016e-06
1.57908e-06
9.3719e-07
3.22999e-06
1.2287e-06
3.74175e-07
1.83213e-07
1.3105e-07
1.14728e-07
1.17468e-07
1.14293e-07
1.30477e-07
1.429e-07
1.59272e-07
1.46394e-07
1.31973e-07
1.22926e-07
2.10511e-07
2.42246e-07
2.07092e-07
4.02876e-07
6.58008e-07
1.50987e-06
2.10881e-05
0.00666097
0.0124258
0.0035724
1.426e-05
0.0057562
2.8445e-05
1.7304e-06
1.28534e-06
1.23278e-06
2.43585e-06
1.1667e-06
4.41956e-07
2.76709e-07
1.96704e-07
1.90423e-07
1.57961e-07
1.57229e-07
1.43574e-07
1.37918e-07
1.17515e-07
9.18838e-08
6.024e-08
6.03257e-08
8.9083e-08
1.88928e-07
2.34442e-07
5.12928e-07
4.89159e-07
4.14173e-07
5.20546e-06
0.00205233
0.00438958
4.71575e-05
0.000366875
0.0143096
0.00435305
4.20339e-06
1.88833e-06
1.60303e-06
2.94329e-06
9.75377e-07
2.61085e-07
2.68427e-07
1.83542e-07
1.61925e-07
1.24395e-07
9.77881e-08
8.23999e-08
5.99913e-08
5.02767e-08
3.25789e-08
2.84013e-08
3.77553e-08
5.36814e-08
1.00168e-07
2.04467e-07
4.32791e-07
3.13293e-07
2.7067e-07
1.02976e-06
1.07947e-05
1.9013e-05
6.28555e-06
8.17442e-05
0.0145167
0.0119278
0.00188037
3.48267e-06
1.98573e-06
3.2831e-06
8.75121e-07
9.92741e-08
1.8417e-07
1.06899e-07
8.00761e-08
5.12688e-08
3.97856e-08
2.57326e-08
2.40182e-08
1.91754e-08
1.92067e-08
2.6147e-08
3.87877e-08
5.00985e-08
7.32395e-08
1.38303e-07
2.92631e-07
1.72873e-07
2.64255e-07
6.39631e-07
7.54343e-07
3.91722e-06
1.19084e-06
1.35602e-05
0.0121603
0.0134346
0.00592775
0.000168686
2.26964e-06
2.30753e-06
1.02389e-06
1.08545e-07
5.67324e-08
5.87801e-08
3.20366e-08
2.43085e-08
1.94508e-08
1.79866e-08
1.7994e-08
2.00795e-08
2.33396e-08
3.0351e-08
3.80869e-08
5.51833e-08
6.10675e-08
8.84265e-08
1.97613e-07
1.14678e-07
2.71869e-07
7.03729e-07
2.29691e-07
5.65038e-07
7.02552e-07
8.16437e-06
0.00575912
0.0135248
0.00838467
0.000735042
2.79672e-06
1.97495e-06
1.17276e-06
1.13263e-07
3.53357e-08
3.15937e-08
2.47648e-08
2.22883e-08
2.43157e-08
2.36182e-08
2.60614e-08
2.67763e-08
2.93778e-08
3.17357e-08
4.01239e-08
5.1988e-08
6.23883e-08
5.93475e-08
2.04068e-07
1.12231e-07
4.07137e-07
6.89151e-07
2.48923e-07
5.75315e-07
6.98062e-07
7.08069e-06
0.00575024
0.013426
0.00936952
0.00123033
2.94891e-06
1.50525e-06
1.49392e-06
1.52303e-07
4.5973e-08
3.48736e-08
3.26683e-08
3.73127e-08
3.38841e-08
3.39791e-08
3.1628e-08
3.29455e-08
3.30398e-08
3.47883e-08
3.7906e-08
5.23987e-08
5.70262e-08
5.24707e-08
1.8832e-07
1.1549e-07
6.69853e-07
5.89541e-07
2.67337e-07
6.04381e-07
6.43163e-07
6.29543e-06
0.00578047
0.0135392
0.0105279
0.00189136
3.13548e-06
1.96558e-06
1.35e-06
1.4138e-07
6.31908e-08
4.08383e-08
4.34953e-08
4.36605e-08
3.98386e-08
3.79246e-08
3.69186e-08
3.62675e-08
3.70433e-08
3.66942e-08
3.82894e-08
4.79855e-08
5.84113e-08
4.60029e-08
1.60933e-07
1.23654e-07
9.91005e-07
4.88037e-07
3.73938e-07
6.09121e-07
6.35115e-07
5.59013e-06
0.00578287
0.0124149
0.0115287
0.00290633
3.22121e-06
6.0478e-06
1.17887e-06
1.01806e-07
7.57034e-08
4.83775e-08
4.50868e-08
4.78911e-08
4.16586e-08
4.27771e-08
3.95258e-08
4.1524e-08
4.0918e-08
4.22877e-08
3.79168e-08
4.72275e-08
5.65544e-08
5.02975e-08
1.14695e-07
1.72947e-07
1.47096e-06
3.88436e-07
5.44219e-07
6.42912e-07
6.30412e-07
5.35281e-06
0.00759642
0.0102737
0.0113517
0.00400381
5.34802e-05
0.000207004
1.35271e-06
7.69908e-08
8.47306e-08
4.97283e-08
4.95554e-08
4.94179e-08
4.76164e-08
4.64624e-08
4.75111e-08
4.75264e-08
4.70695e-08
4.25561e-08
4.40859e-08
4.58021e-08
5.95477e-08
5.55182e-08
9.14886e-08
1.92662e-07
2.35198e-06
3.88789e-07
6.85077e-07
6.5751e-07
6.88755e-07
5.65691e-06
0.0120019
0.0141065
0.01366
0.00598146
0.000406052
0.000411011
1.44055e-06
5.96599e-08
8.40763e-08
5.62934e-08
5.2129e-08
5.64383e-08
5.18592e-08
5.29298e-08
4.94153e-08
4.79196e-08
3.79297e-08
3.54135e-08
4.32396e-08
5.00277e-08
5.59264e-08
6.71611e-08
7.74983e-08
2.26154e-07
3.80103e-06
6.41875e-07
8.84341e-07
8.2885e-07
8.64211e-07
6.52973e-06
0.016043
0.0195276
0.0192559
0.010008
0.00146455
4.28403e-05
1.38612e-06
5.42092e-08
8.79159e-08
6.69398e-08
5.82302e-08
5.07108e-08
5.06369e-08
4.31353e-08
3.92786e-08
3.21625e-08
3.08883e-08
2.86681e-08
3.7162e-08
5.34652e-08
6.06968e-08
6.95484e-08
6.8868e-08
3.80063e-07
4.98793e-06
9.67707e-07
1.12983e-06
1.33799e-06
2.01078e-06
0.000205731
0.00594489
0.0193642
0.0201181
0.0143339
0.0020183
1.05582e-05
1.43711e-06
1.06124e-07
6.155e-08
6.76331e-08
4.06811e-08
3.19067e-08
2.85252e-08
2.29943e-08
1.93795e-08
2.29929e-08
9.23319e-08
1.26748e-07
2.82598e-08
5.76136e-08
6.37354e-08
8.55393e-08
7.98137e-08
4.99281e-07
5.57648e-06
1.21283e-06
1.53551e-06
2.2616e-06
5.23298e-05
0.00302668
2.26016e-05
0.0188496
0.0192671
0.0122086
0.000563665
4.11036e-06
6.44125e-07
2.14855e-07
2.47283e-08
4.40099e-08
1.83015e-08
2.15508e-08
1.80485e-08
2.96524e-08
6.57755e-08
1.97059e-07
3.67271e-07
3.45014e-07
8.94553e-08
4.65635e-08
6.9643e-08
8.57156e-08
9.37509e-08
5.54599e-07
5.38839e-06
1.441e-06
2.09823e-06
4.91248e-06
0.00221454
0.00543353
8.25184e-06
0.000460291
0.0130827
0.00994645
1.45405e-05
1.09144e-06
4.0646e-07
3.04796e-07
3.86023e-08
2.39167e-08
2.48146e-08
7.79178e-08
1.12078e-07
2.16963e-07
2.94437e-07
4.20613e-07
4.4503e-07
3.64089e-07
1.42705e-07
5.37137e-08
5.56848e-08
5.891e-08
1.15417e-07
5.82397e-07
4.12307e-06
1.75853e-06
2.83117e-06
0.000730816
0.00529449
0.00545151
5.43936e-06
6.44276e-06
0.00143903
0.000650097
5.44712e-06
1.50675e-07
2.49284e-07
3.04839e-07
1.1864e-07
2.53566e-08
1.45323e-07
2.32136e-07
2.92793e-07
3.3859e-07
3.65672e-07
3.35288e-07
2.65258e-07
2.2639e-07
2.12714e-07
1.1115e-07
4.76258e-08
3.43856e-08
1.5429e-07
5.04291e-07
3.2001e-06
2.00013e-06
4.22052e-05
0.00246904
0.00544123
0.00544517
4.89341e-06
1.50049e-06
8.96379e-06
6.72586e-06
5.63664e-07
1.33168e-07
1.48161e-07
2.16322e-07
2.28189e-07
1.00709e-07
2.54028e-07
2.50291e-07
2.58637e-07
2.10126e-07
1.69207e-07
1.30526e-07
9.61484e-08
1.48496e-07
2.08452e-07
2.30694e-07
9.36827e-08
5.38233e-08
1.82156e-07
4.04379e-07
2.63246e-06
6.26754e-06
0.000389188
0.0040198
0.00544428
0.00320318
4.47224e-06
9.91674e-07
3.0952e-06
3.40616e-06
9.07964e-07
1.73041e-07
1.12672e-07
1.18912e-07
1.8413e-07
2.25428e-07
2.08154e-07
1.1304e-07
9.98441e-08
5.76996e-08
4.26645e-08
2.34561e-08
3.06807e-08
6.64092e-08
1.31448e-07
2.31738e-07
2.342e-07
1.19033e-07
1.90375e-07
2.66071e-07
2.21818e-06
0.000233166
0.00138699
0.00497124
0.00547442
0.00307847
4.02248e-06
7.39974e-07
2.63095e-06
3.75074e-06
1.44866e-06
2.71189e-07
1.07209e-07
8.08818e-08
6.49717e-08
1.80972e-07
9.35372e-08
3.08556e-08
2.02146e-08
2.07298e-08
1.82949e-08
2.24076e-08
2.75953e-08
3.87788e-08
5.70291e-08
1.18716e-07
2.20157e-07
1.56341e-07
1.20162e-07
1.37597e-07
2.15063e-06
0.000765394
0.00275454
0.0053852
0.00547423
0.00348558
3.55662e-06
5.78041e-07
2.12385e-06
3.67276e-06
2.09796e-06
4.75587e-07
1.32929e-07
6.12186e-08
5.11822e-08
5.43509e-08
3.49534e-08
2.36383e-08
2.21646e-08
2.65863e-08
2.99089e-08
3.19867e-08
3.30254e-08
3.22496e-08
3.47232e-08
4.20849e-08
8.01363e-08
9.03353e-08
9.23794e-08
9.71999e-08
9.30977e-07
1.67767e-05
0.00346843
0.00395022
0.00505076
0.00111768
3.07454e-06
5.33351e-07
1.71403e-06
3.147e-06
2.4745e-06
8.07146e-07
2.1317e-07
5.10352e-08
5.73851e-08
4.46564e-08
2.62761e-08
3.20476e-08
3.36248e-08
3.54967e-08
3.59547e-08
3.52535e-08
3.29688e-08
3.29521e-08
3.25141e-08
3.13579e-08
2.64795e-08
8.38847e-08
8.53288e-08
8.80872e-08
2.18009e-07
4.39957e-06
5.25133e-05
1.03895e-05
8.29065e-06
1.09508e-05
2.56428e-06
5.61575e-07
1.50753e-06
2.56669e-06
2.42167e-06
1.18314e-06
3.7392e-07
6.64779e-08
6.84509e-08
5.38074e-08
3.46486e-08
3.33069e-08
4.21991e-08
3.67862e-08
3.94035e-08
3.72957e-08
3.82473e-08
3.71869e-08
3.87762e-08
3.45e-08
3.61628e-08
9.37216e-08
7.92302e-08
1.05582e-07
3.26048e-07
1.11403e-06
1.73838e-06
2.01581e-06
2.6815e-06
7.45696e-06
2.44543e-06
6.16882e-07
1.36332e-06
2.20712e-06
2.4762e-06
1.60202e-06
6.02105e-07
1.10581e-07
6.21255e-08
7.50004e-08
4.08949e-08
4.1125e-08
4.57324e-08
4.26143e-08
4.26371e-08
4.28988e-08
4.25676e-08
4.44382e-08
4.50683e-08
4.04087e-08
5.05512e-08
1.01837e-07
6.57318e-08
1.50497e-07
5.61745e-07
1.57179e-06
1.79117e-06
1.52795e-06
1.22778e-06
5.77809e-06
2.57649e-06
6.96226e-07
1.28958e-06
1.99032e-06
2.47074e-06
2.0798e-06
8.81677e-07
1.61624e-07
5.49191e-08
7.65203e-08
4.87595e-08
5.02986e-08
5.29804e-08
4.87962e-08
4.89733e-08
4.70699e-08
4.86616e-08
4.88092e-08
5.31839e-08
4.59933e-08
6.55816e-08
9.41082e-08
5.74701e-08
2.55324e-07
9.63981e-07
1.94633e-06
1.88109e-06
1.40261e-06
1.13122e-06
4.55248e-06
2.47382e-06
7.98835e-07
1.35397e-06
2.04628e-06
2.64687e-06
2.57859e-06
1.31388e-06