/*--------------------------------*- C++ -*----------------------------------*\
| =========                 |                                                 |
| \\      /  F ield         | OpenFOAM: The Open Source CFD Toolbox           |
|  \\    /   O peration     | Version:  2.3.0                                 |
|   \\  /    A nd           | Web:      www.OpenFOAM.org                      |
|    \\/     M anipulation  |                                                 |
\*---------------------------------------------------------------------------*/
FoamFile
{
    version     2.0;
    format      ascii;
    class       volScalarField;
    location    "0.59";
    object      k.air;
}
// * * * * * * * * * * * * * * * * * * * * * * * * * * * * * * * * * * * * * //

dimensions      [0 2 -2 0 0 0 0];

internalField   nonuniform List<scalar> 
6000
(
0.809523
0.911394
0.94861
0.966265
0.964506
0.962552
0.973716
1.00048
1.0137
1.00576
0.99784
0.986832
0.974264
0.968096
0.974226
0.994148
1.02153
1.03508
1.03835
1.05557
1.02901
0.982019
0.959608
0.955313
0.955683
0.952231
0.938383
0.917957
0.895556
0.812652
0.622263
0.903492
1.00228
1.03486
1.02841
1.03844
1.07379
1.14613
1.21811
1.19879
1.15866
1.11691
1.08728
1.07272
1.07838
1.11941
1.20678
1.27671
1.28199
1.26708
1.18175
1.07124
1.02608
1.0253
1.03196
1.02656
0.996
0.942413
0.86569
0.632862
0.53829
0.855176
0.967212
1.0151
1.04408
1.09382
1.14112
1.1917
1.22887
1.22522
1.19739
1.17098
1.16064
1.15881
1.15387
1.1682
1.20895
1.24489
1.24692
1.22739
1.17293
1.09543
1.04385
1.02243
1.01684
1.00861
0.977379
0.910191
0.792062
0.494152
0.463205
0.792491
0.918241
0.988531
1.03829
1.08999
1.15056
1.20538
1.22415
1.23065
1.22897
1.22439
1.21731
1.21322
1.21058
1.21358
1.21202
1.21551
1.20544
1.1852
1.1463
1.10206
1.04736
1.00973
0.991811
0.972339
0.92601
0.835425
0.687067
0.385136
0.38815
0.715819
0.855927
0.947664
1.01262
1.07716
1.16236
1.21105
1.22947
1.24166
1.2543
1.26984
1.27623
1.27351
1.26501
1.24157
1.21606
1.1953
1.17424
1.1502
1.11805
1.07882
1.02879
0.981399
0.950984
0.91596
0.85611
0.757615
0.610887
0.316784
0.349418
0.660195
0.798087
0.897931
0.980031
1.07083
1.18446
1.23075
1.24956
1.2745
1.30624
1.33249
1.33439
1.32598
1.3168
1.28674
1.23786
1.19711
1.16308
1.13055
1.09497
1.05216
1.00046
0.949012
0.90427
0.854887
0.785863
0.689142
0.554088
0.285813
0.327814
0.614731
0.747608
0.851445
0.949788
1.06457
1.19885
1.27088
1.30478
1.34492
1.38915
1.41753
1.40919
1.39126
1.37831
1.33925
1.27336
1.21619
1.17111
1.12979
1.08671
1.0382
0.982464
0.924314
0.867618
0.803508
0.721885
0.620948
0.494385
0.25709
0.30894
0.570352
0.700055
0.814729
0.934209
1.0714
1.22522
1.33636
1.40432
1.46108
1.50921
1.53123
1.51019
1.4793
1.4522
1.40315
1.32504
1.25468
1.19629
1.14374
1.09242
1.03746
0.977683
0.914661
0.844406
0.767072
0.676769
0.565861
0.427212
0.217779
0.278246
0.516784
0.656299
0.792001
0.935938
1.09696
1.27847
1.42775
1.54057
1.62053
1.6669
1.67863
1.62959
1.57769
1.53598
1.4727
1.38671
1.30564
1.2356
1.17284
1.11211
1.05266
0.990528
0.916751
0.838777
0.755631
0.659307
0.536937
0.372919
0.179768
0.238329
0.45201
0.623257
0.7863
0.954538
1.1431
1.35252
1.54706
1.70353
1.80842
1.85548
1.85023
1.76174
1.68547
1.62824
1.54361
1.45118
1.36499
1.28783
1.21769
1.15337
1.09265
1.01682
0.936262
0.852802
0.765679
0.664503
0.536686
0.361727
0.163742
0.200523
0.406637
0.611298
0.798394
0.991679
1.20428
1.44293
1.69543
1.87841
2.00829
2.07699
2.04494
1.92269
1.81791
1.73678
1.6268
1.52682
1.44119
1.35988
1.28659
1.22314
1.14646
1.06484
0.979819
0.891428
0.796388
0.687588
0.555044
0.377761
0.16623
0.182704
0.401915
0.623676
0.829895
1.04299
1.27708
1.54246
1.83551
2.04916
2.1966
2.32579
2.2789
2.1303
1.98859
1.87223
1.73745
1.62822
1.54323
1.46112
1.38949
1.30906
1.2243
1.14222
1.05326
0.955854
0.849533
0.73143
0.594781
0.419804
0.182766
0.183527
0.421138
0.660317
0.879925
1.10738
1.35831
1.64209
1.96003
2.21633
2.35819
2.58555
2.57479
2.40293
2.21345
2.05334
1.88977
1.76977
1.6878
1.60913
1.51602
1.4176
1.33849
1.25592
1.15758
1.046
0.924405
0.793451
0.648735
0.47187
0.212139
0.196417
0.469259
0.718229
0.946439
1.18472
1.44892
1.74747
2.08177
2.37198
2.50949
2.84165
2.96819
2.76177
2.50147
2.29472
2.10478
1.98906
1.90764
1.7895
1.65881
1.56798
1.49264
1.40766
1.29551
1.16364
1.02148
0.872837
0.714197
0.526111
0.239346
0.227572
0.532147
0.790867
1.02759
1.27428
1.54717
1.85504
2.20109
2.53501
2.72999
3.12623
3.50812
3.22379
2.84165
2.58602
2.3957
2.28902
2.15526
1.97412
1.83998
1.74969
1.67999
1.60028
1.46827
1.30772
1.1389
0.96747
0.789166
0.58175
0.264482
0.26265
0.604479
0.875938
1.12239
1.37499
1.64964
1.95821
2.31228
2.70598
3.04884
3.48846
4.16576
3.75557
3.2191
2.92466
2.74021
2.58372
2.37461
2.18216
2.04153
1.95229
1.89653
1.83343
1.67407
1.47274
1.27076
1.07286
0.871091
0.6384
0.287848
0.297909
0.683388
0.972832
1.23166
1.48723
1.75219
2.04814
2.39785
2.82102
3.27955
3.77146
4.4353
4.22769
3.59971
3.28324
3.05327
2.81752
2.58885
2.39518
2.25401
2.16492
2.10565
2.04929
1.88754
1.64663
1.4083
1.18299
0.956698
0.695988
0.309607
0.331872
0.764985
1.0829
1.36458
1.61297
1.8453
2.12029
2.45961
2.87393
3.33865
3.82186
4.29806
4.47288
3.90243
3.56193
3.26951
3.0055
2.78223
2.59973
2.46149
2.34558
2.26747
2.17197
2.04882
1.80655
1.54408
1.29314
1.04321
0.754776
0.331697
0.362956
0.843665
1.20314
1.48737
1.72756
1.93295
2.18053
2.50086
2.90166
3.35464
3.76726
4.14343
4.43938
4.0593
3.70169
3.39389
3.14365
2.94632
2.78812
2.63163
2.49541
2.35195
2.2174
2.11067
1.92308
1.67116
1.40268
1.1293
0.814227
0.356416
0.387346
0.907785
1.28704
1.58882
1.78204
1.97122
2.21784
2.53178
2.90653
3.31236
3.68164
3.97044
4.22954
4.08745
3.74421
3.45548
3.23698
3.07941
2.93931
2.81131
2.59543
2.3986
2.25178
2.11892
1.99056
1.7714
1.51242
1.21302
0.871117
0.379404
0.399165
0.947028
1.32696
1.60905
1.76596
1.95261
2.1917
2.48748
2.8344
3.20019
3.52703
3.77023
3.99832
4.07758
3.7684
3.49089
3.29865
3.17064
3.07753
2.92996
2.66257
2.44408
2.27662
2.13169
1.99645
1.84362
1.60218
1.28783
0.925073
0.396088
0.413153
0.941937
1.33986
1.60908
1.76417
1.93635
2.15067
2.41241
2.71208
3.0281
3.32069
3.57032
3.80081
4.05386
3.80716
3.5252
3.35009
3.23646
3.1787
2.9999
2.72275
2.4893
2.30192
2.14457
1.99696
1.8492
1.66521
1.35129
0.938018
0.403757
0.437851
0.988017
1.37122
1.64116
1.7789
1.92273
2.10469
2.32548
2.57856
2.84975
3.11831
3.37371
3.62412
3.94077
3.87221
3.59513
3.41557
3.31464
3.27887
3.07888
2.78446
2.53768
2.33136
2.15836
1.99981
1.84222
1.6642
1.38209
0.985003
0.434208
0.466843
1.03566
1.40989
1.7036
1.81814
1.92049
2.06277
2.24375
2.45644
2.69234
2.93818
3.19039
3.45207
3.76683
3.91318
3.67557
3.48952
3.39466
3.37626
3.16421
2.84701
2.58722
2.3638
2.17351
2.00463
1.84258
1.67118
1.41946
1.05613
0.477555
0.4769
1.05899
1.43464
1.75277
1.87682
1.93272
2.03612
2.17939
2.35783
2.56326
2.78773
3.0296
3.29337
3.59888
3.8781
3.73645
3.5495
3.46032
3.45315
3.23522
2.89776
2.62906
2.3938
2.19119
2.01578
1.85521
1.70124
1.47087
1.11293
0.505281
0.482664
1.07386
1.44767
1.77522
1.94881
1.97192
2.03125
2.13758
2.2841
2.46244
2.66602
2.89537
3.15544
3.45561
3.78081
3.77557
3.5963
3.50797
3.50145
3.27589
2.93102
2.65808
2.41741
2.21129
2.03758
1.88579
1.74827
1.51868
1.15842
0.528468
0.487197
1.08364
1.45367
1.77904
2.01518
2.03379
2.04839
2.11822
2.23447
2.38668
2.56933
2.78339
3.03419
3.32496
3.64928
3.77638
3.62596
3.54232
3.53125
3.28115
2.94785
2.68059
2.43998
2.23597
2.06973
1.93062
1.80198
1.5609
1.19803
0.54892
0.491043
1.0883
1.4522
1.76947
2.04801
2.10869
2.08711
2.1209
2.20558
2.33226
2.49375
2.69069
2.92696
3.20372
3.51467
3.72283
3.63014
3.57691
3.55424
3.26959
2.9536
2.70216
2.46601
2.26489
2.10935
1.98472
1.85257
1.59466
1.23124
0.566697
0.497067
1.08784
1.44206
1.74831
2.04327
2.18533
2.14027
2.13863
2.19359
2.29613
2.43744
2.6164
2.83546
3.09466
3.39067
3.62572
3.61432
3.62576
3.56089
3.24806
2.95585
2.72324
2.48803
2.29624
2.15465
2.04302
1.89037
1.61858
1.25648
0.581062
0.495415
1.07952
1.42194
1.71478
2.0046
2.22597
2.19479
2.16455
2.19475
2.27507
2.39811
2.56009
2.76112
3.00179
3.28081
3.52353
3.5894
3.68785
3.54789
3.22337
2.96073
2.74198
2.51142
2.33085
2.20517
2.0998
1.91022
1.63167
1.27192
0.590423
0.482631
1.05811
1.38934
1.66743
1.94041
2.19681
2.23514
2.18939
2.20146
2.26521
2.37265
2.51864
2.70241
2.9232
3.18215
3.42905
3.57131
3.73165
3.52379
3.2067
2.97347
2.75804
2.53937
2.36793
2.25661
2.1365
1.91091
1.63221
1.2748
0.5924
0.466667
1.02865
1.34742
1.61031
1.86178
2.11359
2.24324
2.20409
2.20839
2.26283
2.35818
2.4899
2.65657
2.85439
3.08898
3.34412
3.57851
3.73097
3.49774
3.20776
2.99468
2.77111
2.56823
2.40531
2.30198
2.13986
1.89662
1.62089
1.26542
0.587892
0.452441
0.997547
1.30342
1.55168
1.78328
2.01094
2.19151
2.19723
2.21118
2.26456
2.35166
2.47085
2.62069
2.79609
3.01244
3.29025
3.6148
3.69425
3.48223
3.23263
3.02181
2.78716
2.59421
2.44373
2.32629
2.12089
1.8735
1.59989
1.24637
0.577291
0.440468
0.96909
1.26265
1.49701
1.71068
1.91321
2.08922
2.16365
2.20848
2.26972
2.35121
2.45664
2.58904
2.74412
2.95521
3.27252
3.65427
3.65365
3.47462
3.28958
3.06803
2.81825
2.62747
2.48241
2.31935
2.09097
1.84624
1.57499
1.2245
0.565585
0.430945
0.945234
1.22802
1.45064
1.65057
1.83714
2.00032
2.1064
2.18732
2.26433
2.3491
2.44703
2.55982
2.69887
2.9111
3.25535
3.60831
3.58477
3.46687
3.36608
3.14603
2.8719
2.67172
2.50069
2.29166
2.05942
1.81895
1.55117
1.20495
0.55623
0.423901
0.926782
1.20065
1.41367
1.60313
1.77927
1.93425
2.04695
2.1406
2.2284
2.3209
2.42766
2.53942
2.67102
2.87573
3.20511
3.46568
3.47919
3.44499
3.44085
3.23839
2.93818
2.71429
2.49631
2.26172
2.03162
1.79532
1.53218
1.19085
0.550749
0.419759
0.914625
1.18132
1.38644
1.56738
1.73444
1.88337
1.99979
2.09541
2.18313
2.27664
2.39153
2.51907
2.6559
2.84494
3.12995
3.30908
3.3615
3.39798
3.46963
3.31825
2.99929
2.7426
2.48646
2.24345
2.01312
1.77965
1.52115
1.18414
0.547786
0.419173
0.910773
1.17117
1.37023
1.54521
1.70576
1.85155
1.9728
2.07148
2.1595
2.2524
2.36434
2.49583
2.64184
2.81647
3.0486
3.17487
3.25426
3.3366
3.45632
3.36055
3.03586
2.75534
2.48448
2.23706
2.00518
1.77359
1.51901
1.18623
0.549584
0.421072
0.918356
1.17205
1.36669
1.53988
1.69962
1.84687
1.97364
2.07746
2.16905
2.26072
2.36325
2.48398
2.62757
2.78901
2.96843
3.07441
3.17261
3.28636
3.43853
3.36456
3.04455
2.75866
2.48757
2.2387
2.00562
1.77594
1.52709
1.2014
0.557884
0.426227
0.923237
1.18397
1.37533
1.55191
1.71835
1.87334
2.00925
2.12215
2.21799
2.30559
2.39457
2.49616
2.62232
2.76607
2.91227
3.01137
3.12035
3.25678
3.42172
3.34097
3.03583
2.75755
2.4921
2.24411
2.00895
1.78102
1.54023
1.22194
0.588087
0.412323
0.933414
1.20243
1.39464
1.58204
1.76447
1.93716
2.09124
2.21937
2.31953
2.39762
2.46622
2.53365
2.63053
2.75277
2.88449
2.97644
3.08373
3.23128
3.38867
3.28974
3.02134
2.75769
2.49919
2.24944
2.00843
1.77806
1.51479
1.22663
0.593517
0.405998
0.917491
1.20262
1.41529
1.62233
1.83111
2.03567
2.2234
2.37969
2.4868
2.53906
2.5611
2.58828
2.65295
2.75175
2.87152
2.96299
3.05337
3.17968
3.29926
3.23248
3.02669
2.77653
2.51607
2.25757
2.0058
1.75599
1.50483
1.19883
0.584767
0.398187
0.888559
1.21256
1.42
1.65644
1.90386
2.16023
2.40924
2.62226
2.74848
2.74257
2.68001
2.66064
2.69341
2.76754
2.87235
2.96836
3.0453
3.12723
3.21104
3.22498
3.08906
2.83721
2.55374
2.26849
2.02536
1.75762
1.46378
1.11467
0.522794
0.40978
0.894264
1.1983
1.43682
1.67465
1.96589
2.29738
2.64466
2.96986
3.13083
2.99667
2.83891
2.76142
2.75542
2.80421
2.89055
2.98878
3.06881
3.13936
3.23013
3.33299
3.25902
2.96639
2.6071
2.3109
2.02393
1.70335
1.35198
0.954038
0.412717
0.435688
0.910585
1.18686
1.43702
1.6848
2.00423
2.41732
2.90324
3.38037
3.60021
3.3058
3.0401
2.88802
2.83429
2.84981
2.9149
3.00668
3.10407
3.21153
3.35964
3.61578
3.57468
3.1462
2.65493
2.27577
1.92786
1.57895
1.22464
0.830097
0.336321
0.430077
0.909774
1.18522
1.4374
1.70743
2.01885
2.45073
3.02839
3.64973
3.83702
3.59427
3.26104
3.03316
2.91915
2.88988
2.92457
3.00497
3.12343
3.2865
3.49966
3.7885
3.73458
3.17398
2.57845
2.14457
1.79614
1.48078
1.1658
0.819515
0.337934
0.407063
0.885715
1.17502
1.43959
1.71488
2.03667
2.44471
2.99377
3.61998
3.76575
3.5835
3.36644
3.15493
3.00196
2.92489
2.92471
2.99277
3.12125
3.29458
3.47077
3.58045
3.51088
3.00288
2.45577
2.05505
1.73356
1.45804
1.17231
0.847117
0.37407
0.367491
0.834516
1.15268
1.43184
1.71419
2.03653
2.42379
2.912
3.48038
3.58987
3.42562
3.27666
3.14925
3.03216
2.95305
2.93924
2.98749
3.08697
3.18723
3.24055
3.25555
3.20723
2.84364
2.38534
2.03113
1.73735
1.47913
1.19758
0.870665
0.384972
0.346742
0.807295
1.13779
1.42309
1.70743
2.02613
2.39891
2.86427
3.40203
3.4522
3.28674
3.1505
3.03933
2.95192
2.90192
2.89045
2.91397
2.95759
3.00299
3.03186
3.03447
3.00546
2.7718
2.3679
2.04697
1.77007
1.50783
1.21202
0.880852
0.379389
0.371508
0.838763
1.1543
1.43331
1.71354
2.02486
2.38928
2.8494
3.36135
3.36154
3.17425
3.03236
2.92204
2.84102
2.79252
2.77871
2.7927
2.82289
2.85334
2.87809
2.89234
2.90077
2.76672
2.38609
2.07993
1.80398
1.51659
1.20786
0.871296
0.373562
0.407642
0.883667
1.19892
1.47635
1.75282
2.05627
2.41239
2.86247
3.34174
3.28436
3.07318
2.91673
2.80038
2.71729
2.66769
2.64932
2.65712
2.68108
2.71199
2.74727
2.79017
2.84546
2.81651
2.43917
2.12119
1.82352
1.51334
1.19514
0.852773
0.364414
0.410319
0.90677
1.22507
1.51623
1.80746
2.11284
2.46095
2.89638
3.31964
3.20152
2.9743
2.80548
2.68026
2.59282
2.53938
2.51727
2.52088
2.54384
2.58012
2.63298
2.70902
2.82565
2.9156
2.53836
2.17879
1.8441
1.51346
1.18496
0.835404
0.351512
0.3974
0.89904
1.22917
1.53047
1.84207
2.16818
2.52228
2.95556
3.30792
3.1034
2.87315
2.69732
2.56635
2.4748
2.41877
2.39372
2.39537
2.41912
2.46258
2.5315
2.64149
2.81553
3.04389
2.67692
2.25447
1.87792
1.52742
1.18724
0.82737
0.341017
0.374357
0.872696
1.22308
1.53383
1.8599
2.21316
2.59794
3.04388
3.29375
3.00424
2.77196
2.59307
2.45899
2.36585
2.30827
2.28204
2.28278
2.30812
2.35751
2.4393
2.5737
2.78974
3.10263
2.80449
2.33122
1.92185
1.5553
1.20699
0.843201
0.34089
0.369177
0.856074
1.21985
1.54444
1.87895
2.26296
2.69172
3.16721
3.2273
2.9006
2.6708
2.4917
2.35843
2.26557
2.20822
2.18154
2.18221
2.20837
2.26146
2.34975
2.49433
2.72279
3.05561
2.88194
2.39453
1.96721
1.59005
1.23626
0.868928
0.347136
0.40467
0.906699
1.25289
1.56766
1.91864
2.32405
2.8077
3.26201
3.09452
2.7947
2.56823
2.39318
2.26298
2.17263
2.1162
2.08993
2.09037
2.11683
2.17069
2.26014
2.40215
2.61929
2.92624
2.90445
2.44651
2.01097
1.62651
1.26439
0.881474
0.35365
0.44152
0.973353
1.31042
1.63081
1.97238
2.3859
2.90269
3.20965
2.95459
2.68235
2.46438
2.29595
2.1713
2.08424
2.02982
2.004
2.00437
2.03023
2.08347
2.17007
2.30414
2.50255
2.77702
2.88932
2.49559
2.05648
1.66675
1.29926
0.908656
0.371336
0.441537
1.01989
1.36795
1.69139
2.03235
2.43278
2.93049
3.05266
2.81102
2.56225
2.35745
2.19938
2.0815
1.99889
1.94683
1.92197
1.92201
1.94665
1.99775
2.08013
2.20345
2.38208
2.62062
2.82089
2.54557
2.11077
1.71111
1.33847
0.945917
0.392715
0.455563
1.03941
1.40129
1.73069
2.06533
2.44981
2.8661
2.89236
2.66654
2.43845
2.24983
2.10312
1.99325
1.91557
1.86639
1.84254
1.84217
1.86484
1.91289
1.98958
2.10241
2.26165
2.4697
2.68021
2.60619
2.1836
1.75592
1.37142
0.978394
0.408875
0.483344
1.05094
1.40556
1.73657
2.06605
2.43117
2.78982
2.75573
2.52866
2.31788
2.14424
2.00886
1.90685
1.83446
1.78811
1.7654
1.76428
1.7849
1.82931
1.90024
2.00283
2.14466
2.32315
2.51181
2.58448
2.21482
1.7822
1.39001
0.992178
0.417995
0.475193
1.05236
1.39836
1.71288
2.03283
2.38567
2.713
2.63385
2.40558
2.20573
2.04416
1.91831
1.82359
1.75592
1.71248
1.69065
1.6892
1.7081
1.74921
1.81437
1.90748
2.03227
2.18357
2.34167
2.45213
2.19561
1.7872
1.39393
0.983308
0.421162
0.450117
1.02906
1.37737
1.67937
1.98805
2.32891
2.64324
2.53601
2.29926
2.10562
1.95201
1.83359
1.74461
1.68116
1.64021
1.61957
1.61811
1.63604
1.67423
1.7344
1.81878
1.9295
2.05952
2.19878
2.30746
2.14611
1.76623
1.39573
1.00294
0.458495
0.423283
0.984595
1.33366
1.63826
1.93862
2.26789
2.58188
2.45624
2.21094
2.01808
1.86916
1.75561
1.67111
1.61096
1.57238
1.55302
1.55201
1.56917
1.60522
1.66146
1.73975
1.84169
1.96493
2.10694
2.23265
2.10432
1.77035
1.43042
1.05624
0.480568
0.396995
0.93565
1.27754
1.58387
1.88131
2.20189
2.51818
2.39172
2.136
1.94159
1.79473
1.68445
1.60311
1.54583
1.50924
1.49127
1.49075
1.50773
1.54251
1.5967
1.67252
1.77366
1.90378
2.07363
2.23334
2.09087
1.76021
1.44045
1.07295
0.486222
0.37549
0.890082
1.22116
1.52338
1.81995
2.13694
2.45785
2.33027
2.06969
1.87327
1.72758
1.61934
1.54061
1.4856
1.45092
1.43422
1.43451
1.45166
1.48639
1.54079
1.61862
1.72613
1.8752
2.08218
2.26942
2.07234
1.73564
1.42186
1.06663
0.478505
0.358073
0.84857
1.16809
1.46417
1.76003
2.07731
2.40236
2.2777
2.00983
1.81179
1.66655
1.56004
1.48321
1.4302
1.39714
1.38184
1.3831
1.40104
1.43678
1.49358
1.57686
1.69657
1.87014
2.11823
2.31433
2.04287
1.70631
1.39611
1.04854
0.466848
0.34155
0.809952
1.11854
1.40823
1.70365
2.02882
2.35906
2.22657
1.95434
1.75514
1.61055
1.50539
1.43028
1.37899
1.34761
1.33379
1.33643
1.35574
1.39353
1.45428
1.54542
1.67952
1.87727
2.16427
2.33871
2.00774
1.67182
1.36371
1.0232
0.45185
0.325273
0.774438
1.07318
1.35699
1.65289
1.98735
2.31759
2.17928
1.90189
1.70188
1.55794
1.45436
1.38098
1.33161
1.30199
1.28993
1.29428
1.31554
1.35613
1.42194
1.52218
1.67187
1.89405
2.22059
2.34459
1.97022
1.63442
1.32778
0.995055
0.438931
0.310677
0.742684
1.03325
1.31163
1.60795
1.94829
2.27189
2.11979
1.8469
1.6493
1.50755
1.40615
1.33498
1.28768
1.26009
1.24996
1.2563
1.27989
1.32391
1.39517
1.50482
1.66923
1.91326
2.27053
2.33702
1.93295
1.59576
1.29157
0.969445
0.433861
0.297288
0.713265
0.997703
1.27221
1.56799
1.90907
2.2138
2.04928
1.78762
1.59608
1.45828
1.3602
1.29169
1.24672
1.22125
1.21312
1.2215
1.24776
1.29563
1.37265
1.49092
1.66852
1.93138
2.31219
2.3227
1.89852
1.55951
1.25833
0.945916
0.438248
0.284351
0.685733
0.967428
1.24032
1.53599
1.87484
2.15144
1.96642
1.72277
1.54087
1.40946
1.31568
1.25036
1.20782
1.18451
1.17828
1.18885
1.21783
1.26997
1.35257
1.47838
1.66593
1.94033
2.32592
2.29015
1.86464
1.52829
1.23313
0.928203
0.428381
0.272592
0.660636
0.944082
1.21851
1.51674
1.84683
2.08089
1.88176
1.6548
1.48456
1.36081
1.27212
1.21021
1.17023
1.1489
1.1445
1.15701
1.18887
1.24523
1.33343
1.46518
1.65923
1.93807
2.3201
2.24926
1.83025
1.50133
1.2141
0.907774
0.402039
0.258416
0.643555
0.929483
1.20597
1.51155
1.83192
1.99165
1.79255
1.58606
1.42871
1.31316
1.22966
1.17133
1.13379
1.11444
1.11159
1.12586
1.16038
1.22089
1.31364
1.44972
1.64587
1.92333
2.28857
2.19612
1.79238
1.47295
1.18777
0.874647
0.374528
0.248627
0.643384
0.923845
1.1938
1.49389
1.81249
1.89089
1.70664
1.52096
1.37598
1.26787
1.18939
1.13447
1.09926
1.08164
1.08033
1.09636
1.13343
1.19698
1.29292
1.43018
1.62368
1.89238
2.23961
2.14185
1.75513
1.43894
1.14848
0.833305
0.351134
0.269533
0.65216
0.921783
1.17919
1.45766
1.75537
1.7866
1.62688
1.46265
1.32865
1.22694
1.15263
1.1007
1.06763
1.05179
1.05229
1.07047
1.10928
1.17408
1.27078
1.40689
1.59437
1.85091
2.17157
2.08739
1.7169
1.39628
1.10182
0.791855
0.334158
0.288572
0.670563
0.918185
1.1622
1.42026
1.67447
1.69572
1.56098
1.41382
1.28892
1.19193
1.12098
1.07144
1.04049
1.02641
1.0288
1.04844
1.08806
1.15243
1.24783
1.38055
1.56045
1.80126
2.09759
2.0336
1.67544
1.34904
1.05575
0.754845
0.316661
0.293114
0.680252
0.918766
1.1501
1.39977
1.62306
1.64628
1.52078
1.38009
1.25882
1.16481
1.09591
1.04804
1.01846
1.00571
1.00918
1.02962
1.06928
1.13245
1.22478
1.35256
1.52346
1.7467
2.01238
1.9708
1.62784
1.29939
1.01104
0.722221
0.302555
0.292263
0.672404
0.910896
1.13785
1.38096
1.60307
1.64116
1.51094
1.36339
1.24021
1.14629
1.07769
1.03009
1.0011
0.988911
0.99291
1.01354
1.0528
1.11414
1.20265
1.32401
1.48487
1.68826
1.92254
1.89517
1.56964
1.24589
0.964687
0.687864
0.288241
0.288086
0.656164
0.889474
1.109
1.3439
1.57449
1.65792
1.52169
1.36256
1.23275
1.13587
1.0655
1.01713
0.987863
0.975625
0.979489
0.999778
1.03809
1.09747
1.18211
1.2969
1.44728
1.63209
1.83128
1.80011
1.49502
1.18955
0.918158
0.649909
0.271399
0.280828
0.635386
0.861318
1.07122
1.29536
1.52717
1.66821
1.54481
1.37023
1.23367
1.13186
1.05861
1.00847
0.978144
0.965155
0.968317
0.987819
1.02504
1.08253
1.16382
1.27289
1.41423
1.58316
1.74753
1.69419
1.41245
1.13956
0.88449
0.619193
0.257124
0.269573
0.613098
0.832036
1.03259
1.24452
1.47104
1.65475
1.56861
1.38499
1.24015
1.13271
1.05563
1.00318
0.971098
0.956953
0.959113
0.977678
1.01379
1.06966
1.14833
1.25356
1.38883
1.54935
1.68879
1.60136
1.34484
1.09654
0.869237
0.630359
0.271339
0.257553
0.592746
0.805624
0.997263
1.19761
1.41627
1.62211
1.59898
1.40563
1.2522
1.1372
1.05577
1.0005
0.966418
0.950895
0.951893
0.969408
1.00445
1.05908
1.13612
1.23954
1.37255
1.53231
1.65167
1.51639
1.27713
1.05415
0.847055
0.62695
0.276019
0.251449
0.57737
0.783385
0.966781
1.15686
1.36578
1.57932
1.62517
1.42942
1.26647
1.14453
1.05815
1.00026
0.964179
0.947102
0.946813
0.963123
0.997094
1.05084
1.12735
1.23104
1.36523
1.52851
1.60707
1.43162
1.20592
0.999972
0.809794
0.605567
0.268274
0.250054
0.566339
0.764462
0.940339
1.12167
1.32121
1.53682
1.63819
1.45264
1.28042
1.1527
1.06258
1.00201
0.964422
0.945946
0.944227
0.959198
0.99192
1.04488
1.12149
1.22728
1.36626
1.53046
1.54544
1.34645
1.13456
0.944207
0.767491
0.576675
0.256017
0.249386
0.557666
0.747776
0.916074
1.0893
1.28064
1.49279
1.637
1.47771
1.29483
1.16184
1.06849
1.00614
0.967005
0.947517
0.94476
0.958385
0.989459
1.04099
1.11713
1.22483
1.36908
1.53151
1.4671
1.25918
1.06321
0.888318
0.723686
0.543439
0.243457
0.248467
0.551132
0.734032
0.894519
1.05893
1.24035
1.44478
1.61866
1.49472
1.30597
1.17064
1.07589
1.01293
0.973177
0.952692
0.948902
0.96115
0.990492
1.0394
1.11269
1.21843
1.36276
1.50134
1.37062
1.17148
0.993761
0.834255
0.681491
0.511096
0.228781
0.248533
0.548115
0.725224
0.878386
1.03331
1.20198
1.39247
1.57632
1.49427
1.30937
1.17755
1.08415
1.02233
0.983303
0.962985
0.958625
0.969342
0.996103
1.04093
1.10715
1.2031
1.33561
1.42359
1.26821
1.08879
0.929964
0.785173
0.643875
0.483156
0.215839
0.250329
0.550005
0.723416
0.87004
1.01529
1.17017
1.34382
1.52226
1.47659
1.30365
1.18022
1.09166
1.03292
0.995921
0.977124
0.97361
0.983983
1.00832
1.04714
1.1024
1.18001
1.29092
1.32704
1.17432
1.01683
0.875593
0.744189
0.613552
0.462129
0.207056
0.255821
0.558692
0.72957
0.870359
1.00597
1.14713
1.30316
1.46799
1.4471
1.28832
1.17661
1.09489
1.04063
1.0067
0.990464
0.9892
1.00144
1.02521
1.05819
1.09985
1.15259
1.23495
1.23663
1.09735
0.959014
0.832539
0.712937
0.592397
0.450021
0.203757
0.267037
0.577146
0.745035
0.878444
1.00393
1.13151
1.27074
1.4212
1.41049
1.26425
1.1642
1.09045
1.03964
1.0082
0.994596
0.996814
1.01281
1.03876
1.06724
1.09686
1.12222
1.17336
1.16033
1.03806
0.914744
0.799972
0.690974
0.580767
0.448339
0.20523
0.282699
0.606782
0.770245
0.893787
1.00625
1.11856
1.24002
1.37403
1.36566
1.23444
1.14264
1.0753
1.02832
0.999629
0.987977
0.99018
1.00497
1.03039
1.05997
1.08845
1.09361
1.11811
1.10558
0.995936
0.88101
0.77507
0.676023
0.577355
0.456383
0.214522
0.312337
0.650512
0.804785
0.914051
1.01037
1.10372
1.20284
1.31468
1.30917
1.20352
1.1184
1.05357
1.00866
0.982259
0.967731
0.961991
0.968189
0.987958
1.0209
1.05973
1.06831
1.06652
1.05616
0.962918
0.853317
0.754117
0.664262
0.578016
0.477495
0.246153
0.371513
0.715333
0.842753
0.932479
1.01111
1.08602
1.16286
1.25238
1.25772
1.18603
1.1042
1.0366
0.989164
0.95615
0.930723
0.91488
0.911643
0.924259
0.955722
1.00234
1.03181
1.02063
1.00189
0.93032
0.828802
0.73447
0.651794
0.577915
0.500854
0.282519
0.441482
0.766016
0.867272
0.93812
1.00361
1.06551
1.13056
1.20689
1.235
1.19441
1.10793
1.02692
0.968356
0.924709
0.889972
0.865733
0.854992
0.860589
0.885153
0.929442
0.975464
0.979116
0.951299
0.894937
0.804786
0.715146
0.636379
0.571514
0.507998
0.297489
0.47824
0.804756
0.869896
0.931291
0.989918
1.05053
1.11363
1.17758
1.21435
1.19176
1.10821
1.01482
0.949074
0.897438
0.853049
0.820888
0.803386
0.801266
0.815593
0.848571
0.893461
0.918717
0.90038
0.853254
0.780922
0.694751
0.615449
0.550134
0.514923
0.285692
0.461165
0.831503
0.879345
0.92062
0.975567
1.03831
1.10168
1.14587
1.1636
1.14487
1.07942
0.992068
0.929258
0.872941
0.819581
0.780141
0.755731
0.745296
0.748907
0.767663
0.79884
0.827802
0.829566
0.799211
0.744202
0.672294
0.591242
0.529727
0.482177
0.255619
0.409514
0.780375
0.883543
0.915694
0.959918
1.01652
1.07132
1.09573
1.09528
1.07372
1.02737
0.959674
0.903779
0.844309
0.785093
0.739874
0.709073
0.691229
0.685486
0.691352
0.706668
0.724721
0.734143
0.723366
0.687763
0.627752
0.543294
0.461473
0.397486
0.226085
0.366069
0.680401
0.813311
0.893886
0.947508
0.992143
1.02654
1.0393
1.0296
1.00663
0.972026
0.92062
0.868533
0.806045
0.744904
0.696711
0.661769
0.638618
0.625787
0.621626
0.623809
0.628357
0.630013
0.622537
0.597592
0.544075
0.457009
0.365384
0.30996
0.187797
0.330552
0.589768
0.706284
0.818057
0.915056
0.975335
0.993467
0.992441
0.972345
0.945172
0.915662
0.872951
0.820073
0.756973
0.697899
0.650221
0.61395
0.587717
0.569942
0.558698
0.551433
0.545038
0.536073
0.520237
0.490802
0.438287
0.357952
0.266717
0.209388
0.14545
0.285498
0.496117
0.599274
0.706365
0.828891
0.930571
0.973158
0.966097
0.930251
0.890674
0.858761
0.816177
0.761147
0.701325
0.647215
0.60241
0.566819
0.539289
0.518365
0.502277
0.488714
0.474853
0.457697
0.433867
0.398459
0.345269
0.270494
0.181082
0.127547
0.107878
0.236656
0.3945
0.486969
0.583182
0.701182
0.818748
0.905905
0.938125
0.904861
0.844955
0.801641
0.756289
0.701038
0.646047
0.597155
0.555928
0.522012
0.49437
0.471706
0.452503
0.434847
0.416351
0.394321
0.365801
0.327317
0.27484
0.20491
0.122026
0.0830415
0.0798082
0.188325
0.29048
0.369495
0.459178
0.569954
0.684244
0.780489
0.856431
0.863481
0.808629
0.746891
0.699258
0.645356
0.594928
0.550636
0.512853
0.480934
0.453868
0.430511
0.409584
0.389544
0.368472
0.344099
0.31394
0.27536
0.225706
0.162368
0.0892954
0.0582943
0.061749
0.145756
0.193151
0.258318
0.350939
0.459085
0.566276
0.662505
0.737478
0.773334
0.756287
0.690868
0.643898
0.594318
0.548776
0.508782
0.474221
0.444366
0.418286
0.395004
0.373482
0.352494
0.330505
0.305669
0.275957
0.239411
0.1944
0.139847
0.0774312
0.0452197
0.0501019
0.111261
0.123131
0.169122
0.266944
0.374595
0.47372
0.562989
0.636182
0.674305
0.675862
0.62913
0.588486
0.54671
0.507105
0.47155
0.44018
0.412486
0.387723
0.365128
0.343937
0.323213
0.301704
0.277863
0.250016
0.216696
0.176997
0.130763
0.0782036
0.0428356
0.0406423
0.0848012
0.0792487
0.11359
0.210919
0.314719
0.40558
0.483628
0.550576
0.590338
0.597505
0.567981
0.535667
0.502439
0.469269
0.438386
0.410416
0.385149
0.362084
0.340746
0.320671
0.301203
0.281286
0.259542
0.234484
0.204914
0.170369
0.130737
0.0847004
0.0454708
0.0356496
0.0660401
0.0548606
0.0887746
0.181147
0.274583
0.355837
0.424019
0.482095
0.52669
0.536909
0.51573
0.488915
0.46196
0.434925
0.408904
0.384658
0.36224
0.341358
0.321825
0.303538
0.286073
0.268515
0.249575
0.22783
0.202104
0.171529
0.136243
0.0981068
0.0564302
0.0357774
0.0524247
0.0459139
0.0857754
0.168565
0.248445
0.318708
0.377589
0.428745
0.47259
0.488485
0.472383
0.448536
0.426064
0.404218
0.382953
0.362736
0.34371
0.325631
0.308491
0.292504
0.277472
0.262636
0.246836
0.228275
0.205472
0.178714
0.148855
0.115499
0.0770916
0.039472
0.0430407
0.0461144
0.0912737
0.166247
0.233353
0.292675
0.341995
0.385796
0.42506
0.443447
0.434448
0.414742
0.395709
0.37788
0.360827
0.344714
0.329658
0.315121
0.300867
0.28734
0.274738
0.26248
0.249136
0.233611
0.214825
0.192675
0.166957
0.136745
0.0990432
0.0496103
0.0406906
0.0535405
0.107653
0.170637
0.228349
0.277683
0.318626
0.354306
0.385887
0.4029
0.400424
0.387273
0.371828
0.356687
0.342824
0.330673
0.320114
0.309739
0.29856
0.286933
0.276035
0.265941
0.255605
0.243212
0.227785
0.210251
0.189595
0.162866
0.124629
0.0610476
0.0431861
0.0783053
0.134368
0.184358
0.231641
0.273552
0.306925
0.334085
0.356602
0.369847
0.371195
0.364316
0.353511
0.340126
0.328642
0.319801
0.313244
0.307712
0.299765
0.289051
0.27973
0.27208
0.264347
0.254181
0.241917
0.229989
0.216399
0.195613
0.158425
0.0769039
0.0538309
0.119636
0.171257
0.210443
0.244652
0.278408
0.30522
0.322626
0.335885
0.344391
0.346857
0.34493
0.339007
0.330372
0.322547
0.316382
0.312254
0.309092
0.301787
0.291975
0.283599
0.278289
0.273655
0.266458
0.258033
0.251963
0.246185
0.23496
0.206418
0.110831
0.0808405
0.178254
0.222464
0.248578
0.271445
0.294045
0.310122
0.317514
0.32181
0.325148
0.326684
0.326588
0.324846
0.32321
0.319773
0.316094
0.313356
0.311066
0.302102
0.293295
0.28625
0.283329
0.282485
0.280217
0.27606
0.274425
0.274119
0.272666
0.260399
0.150746
0.124645
0.248531
0.278777
0.293957
0.306553
0.317979
0.321233
0.317088
0.313199
0.311512
0.3107
0.310591
0.311899
0.316311
0.318375
0.317459
0.316457
0.31329
0.302845
0.29415
0.288682
0.287358
0.289622
0.292998
0.293333
0.294302
0.296531
0.300091
0.30634
0.222521
0.199182
0.302809
0.323986
0.333917
0.338743
0.340249
0.33173
0.318786
0.309592
0.303961
0.301125
0.300776
0.303246
0.308968
0.315495
0.319367
0.319483
0.314666
0.305284
0.297402
0.292831
0.291845
0.295301
0.301585
0.305496
0.307285
0.3149
0.332253
0.382419
0.275083
0.279391
0.382418
0.361006
0.357551
0.356947
0.352378
0.337392
0.321231
0.309635
0.301948
0.297831
0.296907
0.299069
0.303555
0.310786
0.318321
0.31887
0.313835
0.307879
0.302603
0.298771
0.297315
0.299737
0.305354
0.310378
0.316725
0.333142
0.377375
0.397785
0.270151
0.279943
0.420552
0.412967
0.37097
0.358897
0.350734
0.335736
0.321268
0.309916
0.301371
0.297045
0.29556
0.296516
0.299223
0.305219
0.313151
0.313798
0.30981
0.307734
0.306422
0.303487
0.300914
0.30063
0.304787
0.309007
0.319713
0.338982
0.367484
0.368563
0.247872
0.261875
0.396472
0.406005
0.370235
0.344668
0.335493
0.324085
0.314693
0.306416
0.299383
0.293212
0.290317
0.290721
0.292978
0.297274
0.303189
0.303463
0.301273
0.302045
0.301442
0.299574
0.298643
0.299002
0.298626
0.303009
0.306968
0.316156
0.336404
0.341425
0.228841
0.240162
0.362602
0.366917
0.333852
0.311209
0.30153
0.300715
0.296644
0.29158
0.286676
0.282843