/*--------------------------------*- C++ -*----------------------------------*\
| =========                 |                                                 |
| \\      /  F ield         | OpenFOAM: The Open Source CFD Toolbox           |
|  \\    /   O peration     | Version:  2.3.0                                 |
|   \\  /    A nd           | Web:      www.OpenFOAM.org                      |
|    \\/     M anipulation  |                                                 |
\*---------------------------------------------------------------------------*/
FoamFile
{
    version     2.0;
    format      ascii;
    class       volVectorField;
    location    "0.59";
    object      U.airMean;
}
// * * * * * * * * * * * * * * * * * * * * * * * * * * * * * * * * * * * * * //

dimensions      [0 1 -1 0 0 0 0];

internalField   nonuniform List<vector> 
6000
(
(2.88435e-05 0.26149 0)
(0.0260766 0.243509 0)
(0.040924 0.250889 0)
(0.0392383 0.241641 0)
(0.0329715 0.234474 0)
(0.0272925 0.221038 0)
(0.0305939 0.210599 0)
(0.0288551 0.217681 0)
(0.0148524 0.222078 0)
(-0.00145478 0.222303 0)
(-0.00842949 0.224726 0)
(-0.0118698 0.207753 0)
(-0.0135053 0.19662 0)
(-0.0146416 0.197742 0)
(-0.00311375 0.199407 0)
(0.00984379 0.19539 0)
(0.00508911 0.195478 0)
(-0.00890768 0.203498 0)
(-0.0240699 0.223076 0)
(-0.0339909 0.219067 0)
(-0.0391328 0.214354 0)
(-0.039808 0.216502 0)
(-0.0330418 0.211374 0)
(-0.0285434 0.210997 0)
(-0.0370678 0.225116 0)
(-0.0525189 0.235756 0)
(-0.0616347 0.239139 0)
(-0.0537401 0.245914 0)
(-0.0290711 0.243075 0)
(-0.00114506 0.260392 0)
(0.0292017 0.916193 0)
(0.0662172 0.9284 0)
(0.090221 0.956857 0)
(0.0923936 0.987354 0)
(0.0888087 0.993419 0)
(0.0835426 1.00509 0)
(0.0665977 1.00055 0)
(0.0278409 1.01462 0)
(-0.0109716 1.01801 0)
(-0.0285912 0.992827 0)
(-0.0191948 0.97886 0)
(-0.00984355 0.991426 0)
(-0.0122671 0.999389 0)
(-0.0148135 0.994672 0)
(-0.00332162 0.972174 0)
(0.00377155 0.994725 0)
(-0.00544281 1.01948 0)
(-0.0203949 1.00997 0)
(-0.0158159 0.987763 0)
(-0.00767821 0.986152 0)
(-0.0116557 0.992905 0)
(-0.0333481 0.992973 0)
(-0.0567393 0.990654 0)
(-0.0802705 1.01039 0)
(-0.0997291 1.01449 0)
(-0.112812 0.999184 0)
(-0.112879 0.978329 0)
(-0.100226 0.935531 0)
(-0.0710434 0.920598 0)
(-0.0316412 0.910118 0)
(0.0170531 0.753129 0)
(0.0559444 0.759238 0)
(0.0707258 0.799393 0)
(0.0831193 0.836835 0)
(0.0918246 0.840295 0)
(0.0889968 0.861485 0)
(0.068709 0.874109 0)
(0.0263515 0.900476 0)
(-0.00612923 0.880393 0)
(-0.0150308 0.825824 0)
(-0.00556401 0.809157 0)
(0.00429779 0.815568 0)
(0.00674004 0.828512 0)
(-0.00279444 0.836923 0)
(-0.00342523 0.804655 0)
(-0.0132618 0.841122 0)
(-0.0336495 0.866341 0)
(-0.0403042 0.836986 0)
(-0.0283144 0.815627 0)
(-0.0150798 0.813075 0)
(-0.0140448 0.832432 0)
(-0.0345646 0.857829 0)
(-0.0688696 0.855406 0)
(-0.0974924 0.878109 0)
(-0.117234 0.874104 0)
(-0.118287 0.847973 0)
(-0.0968237 0.815944 0)
(-0.073421 0.777804 0)
(-0.0598406 0.757322 0)
(-0.0185574 0.745151 0)
(0.0142747 0.72769 0)
(0.0406613 0.766212 0)
(0.0506777 0.799367 0)
(0.0830417 0.829833 0)
(0.0967735 0.849058 0)
(0.0945844 0.875702 0)
(0.0674908 0.917216 0)
(0.0317117 0.939584 0)
(0.00817894 0.913634 0)
(-0.00263842 0.847885 0)
(-0.00230904 0.81842 0)
(0.00236854 0.830961 0)
(-0.00216768 0.853233 0)
(-0.00726911 0.850726 0)
(-0.0108616 0.814796 0)
(-0.0233874 0.868316 0)
(-0.0344216 0.886271 0)
(-0.0340636 0.846861 0)
(-0.0296344 0.822727 0)
(-0.0214576 0.826057 0)
(-0.0278444 0.868014 0)
(-0.0496474 0.902854 0)
(-0.0805808 0.895899 0)
(-0.110262 0.909158 0)
(-0.123068 0.887265 0)
(-0.11284 0.838016 0)
(-0.0871996 0.804551 0)
(-0.0530057 0.772755 0)
(-0.0424793 0.7644 0)
(-0.0160081 0.718597 0)
(0.00509513 0.694654 0)
(0.0303799 0.741101 0)
(0.0525795 0.760654 0)
(0.0916803 0.801194 0)
(0.107958 0.843478 0)
(0.0987678 0.900048 0)
(0.0661588 0.955794 0)
(0.0306287 0.967759 0)
(0.00634542 0.926933 0)
(-0.0095147 0.84926 0)
(-0.016427 0.812641 0)
(-0.0220887 0.826467 0)
(-0.0261445 0.852691 0)
(-0.0213614 0.85219 0)
(-0.0176828 0.81707 0)
(-0.0162844 0.874988 0)
(-0.0108141 0.882242 0)
(-0.013682 0.844074 0)
(-0.0150992 0.811128 0)
(-0.0166022 0.82101 0)
(-0.0274087 0.877533 0)
(-0.0457909 0.920637 0)
(-0.0719263 0.925799 0)
(-0.102037 0.934695 0)
(-0.117069 0.889436 0)
(-0.113701 0.826558 0)
(-0.0942546 0.775954 0)
(-0.0638102 0.73969 0)
(-0.0375622 0.739582 0)
(-0.00853954 0.684861 0)
(0.0068805 0.671314 0)
(0.0387558 0.704111 0)
(0.0705544 0.720589 0)
(0.101948 0.764781 0)
(0.106224 0.831674 0)
(0.091916 0.911741 0)
(0.0620963 0.983761 0)
(0.0299728 0.993196 0)
(0.000739333 0.951779 0)
(-0.0216606 0.867735 0)
(-0.0380518 0.827938 0)
(-0.0543034 0.836245 0)
(-0.0552894 0.856092 0)
(-0.0356975 0.838947 0)
(-0.0172846 0.812439 0)
(7.13334e-05 0.862182 0)
(0.0200656 0.88603 0)
(0.0156947 0.853706 0)
(0.00628769 0.818554 0)
(-0.00581216 0.834343 0)
(-0.0200108 0.896382 0)
(-0.0386296 0.93973 0)
(-0.0624787 0.95568 0)
(-0.0897918 0.950561 0)
(-0.107434 0.891043 0)
(-0.115473 0.809784 0)
(-0.109036 0.744297 0)
(-0.0857358 0.701308 0)
(-0.052608 0.698265 0)
(-0.0119574 0.653276 0)
(0.0169209 0.631569 0)
(0.0656053 0.652853 0)
(0.10034 0.680296 0)
(0.117289 0.743968 0)
(0.107483 0.828982 0)
(0.0853137 0.927115 0)
(0.0598499 1.00143 0)
(0.027664 1.01599 0)
(-0.00817973 0.975802 0)
(-0.036913 0.88189 0)
(-0.0566471 0.843016 0)
(-0.0768514 0.843421 0)
(-0.06835 0.836302 0)
(-0.0379282 0.811782 0)
(-0.0143874 0.797002 0)
(0.00658051 0.835424 0)
(0.0318484 0.872396 0)
(0.0349066 0.859361 0)
(0.0226724 0.823653 0)
(0.00740636 0.846754 0)
(-0.00901614 0.91185 0)
(-0.0341419 0.958127 0)
(-0.0580848 0.975632 0)
(-0.0819452 0.962988 0)
(-0.0999764 0.897018 0)
(-0.119426 0.807013 0)
(-0.12777 0.721269 0)
(-0.11454 0.664692 0)
(-0.0796803 0.638072 0)
(-0.0207352 0.60443 0)
(0.0300606 0.573461 0)
(0.0890479 0.595029 0)
(0.125203 0.645868 0)
(0.128995 0.737629 0)
(0.109281 0.835616 0)
(0.0865255 0.940577 0)
(0.0652698 1.01796 0)
(0.0360681 1.04397 0)
(-0.00104449 1.00687 0)
(-0.0392739 0.902085 0)
(-0.0688622 0.857748 0)
(-0.0813665 0.848888 0)
(-0.06494 0.809227 0)
(-0.0345599 0.788427 0)
(-0.0138414 0.784737 0)
(0.00436452 0.816167 0)
(0.0245926 0.856146 0)
(0.0374026 0.85884 0)
(0.0298569 0.832187 0)
(0.0135167 0.856435 0)
(-0.00865359 0.932377 0)
(-0.0381821 0.978877 0)
(-0.0598783 0.992916 0)
(-0.0799178 0.97086 0)
(-0.0978565 0.905602 0)
(-0.123696 0.809187 0)
(-0.14272 0.71281 0)
(-0.134801 0.626324 0)
(-0.0969298 0.577307 0)
(-0.029686 0.538176 0)
(0.0341951 0.502498 0)
(0.0968056 0.54118 0)
(0.128931 0.609834 0)
(0.127763 0.742181 0)
(0.105367 0.844816 0)
(0.0797348 0.957302 0)
(0.0691359 1.03568 0)
(0.0475484 1.0681 0)
(0.0188784 1.03751 0)
(-0.0329201 0.93766 0)
(-0.0730824 0.868745 0)
(-0.0710668 0.841678 0)
(-0.053332 0.779726 0)
(-0.0308864 0.767854 0)
(-0.0151065 0.769099 0)
(-0.00171455 0.800069 0)
(0.0126942 0.837552 0)
(0.0261086 0.852124 0)
(0.0291109 0.832613 0)
(0.0107741 0.869779 0)
(-0.021152 0.955096 0)
(-0.0456044 0.996168 0)
(-0.0611951 1.00895 0)
(-0.0808301 0.982385 0)
(-0.0968935 0.918986 0)
(-0.122522 0.815802 0)
(-0.14446 0.70891 0)
(-0.134171 0.584139 0)
(-0.0985245 0.518328 0)
(-0.028002 0.465531 0)
(0.0318841 0.436898 0)
(0.0931638 0.495883 0)
(0.117722 0.588492 0)
(0.116114 0.746541 0)
(0.0954621 0.853212 0)
(0.0844379 0.965035 0)
(0.0782957 1.04259 0)
(0.0639619 1.08508 0)
(0.0420845 1.07033 0)
(-0.0178101 0.987932 0)
(-0.061224 0.877284 0)
(-0.0520716 0.822175 0)
(-0.0366637 0.763636 0)
(-0.0266442 0.754543 0)
(-0.0188671 0.760494 0)
(-0.0129147 0.789589 0)
(-0.00475836 0.824409 0)
(0.010793 0.83827 0)
(0.018601 0.829853 0)
(-0.00156943 0.894569 0)
(-0.0358854 0.976021 0)
(-0.0564557 1.0109 0)
(-0.0704781 1.02417 0)
(-0.0890033 1.00061 0)
(-0.10095 0.929219 0)
(-0.116107 0.826259 0)
(-0.132276 0.707478 0)
(-0.121144 0.547168 0)
(-0.0948039 0.470427 0)
(-0.023879 0.402215 0)
(0.0265504 0.377836 0)
(0.0843213 0.454803 0)
(0.10448 0.571262 0)
(0.105673 0.747679 0)
(0.0925463 0.862905 0)
(0.084736 0.970913 0)
(0.0860092 1.05971 0)
(0.0813762 1.09718 0)
(0.0664279 1.1027 0)
(0.0137408 1.04003 0)
(-0.0345361 0.890973 0)
(-0.0335502 0.799838 0)
(-0.0226489 0.75805 0)
(-0.0228564 0.749194 0)
(-0.0236573 0.757545 0)
(-0.0250138 0.785874 0)
(-0.02146 0.813866 0)
(-0.00571454 0.822498 0)
(-0.000283911 0.829675 0)
(-0.0218066 0.922143 0)
(-0.0539331 0.995408 0)
(-0.075363 1.02815 0)
(-0.0909447 1.04645 0)
(-0.104751 1.01518 0)
(-0.109438 0.936281 0)
(-0.113713 0.829603 0)
(-0.121576 0.697832 0)
(-0.111802 0.520867 0)
(-0.0913996 0.423384 0)
(-0.0200744 0.342595 0)
(0.0215392 0.325189 0)
(0.072986 0.418705 0)
(0.0919094 0.55556 0)
(0.101991 0.743546 0)
(0.0930768 0.865133 0)
(0.0903573 0.970292 0)
(0.0914925 1.05953 0)
(0.0926997 1.10464 0)
(0.0848101 1.12445 0)
(0.0526011 1.08962 0)
(-0.00263031 0.920414 0)
(-0.0219416 0.787741 0)
(-0.0156173 0.759789 0)
(-0.019588 0.751229 0)
(-0.0270005 0.762203 0)
(-0.0336781 0.787137 0)
(-0.0304108 0.806904 0)
(-0.0157223 0.809862 0)
(-0.0132679 0.840197 0)
(-0.0397981 0.952346 0)
(-0.065702 1.01734 0)
(-0.0875197 1.04989 0)
(-0.111442 1.06254 0)
(-0.128605 1.0227 0)
(-0.128517 0.931625 0)
(-0.125123 0.827246 0)
(-0.126629 0.68711 0)
(-0.108785 0.496154 0)
(-0.0861466 0.378007 0)
(-0.0145182 0.284202 0)
(0.0157261 0.279556 0)
(0.063001 0.390592 0)
(0.0840568 0.528333 0)
(0.106201 0.736683 0)
(0.0981375 0.865403 0)
(0.0964088 0.967162 0)
(0.0965296 1.06054 0)
(0.0941 1.10724 0)
(0.0940039 1.13317 0)
(0.0833276 1.12302 0)
(0.0327503 0.976867 0)
(-0.014485 0.789777 0)
(-0.0174606 0.76275 0)
(-0.0185821 0.758844 0)
(-0.0278186 0.771722 0)
(-0.0355466 0.792725 0)
(-0.0311573 0.800646 0)
(-0.0157496 0.799601 0)
(-0.0204078 0.866039 0)
(-0.0509086 0.979578 0)
(-0.0706868 1.03984 0)
(-0.0959711 1.07355 0)
(-0.128473 1.0869 0)
(-0.15176 1.02968 0)
(-0.156218 0.930213 0)
(-0.152894 0.818986 0)
(-0.14807 0.670099 0)
(-0.110615 0.460717 0)
(-0.0742986 0.332821 0)
(-0.00646057 0.236944 0)
(0.00993532 0.242495 0)
(0.0558264 0.365152 0)
(0.0810407 0.496549 0)
(0.110201 0.725032 0)
(0.107433 0.865201 0)
(0.103771 0.964349 0)
(0.100308 1.05938 0)
(0.0948104 1.11217 0)
(0.0946935 1.13049 0)
(0.100625 1.13501 0)
(0.0645176 1.03551 0)
(-0.00362875 0.822403 0)
(-0.0237658 0.762927 0)
(-0.0214374 0.76435 0)
(-0.0269527 0.782672 0)
(-0.0316058 0.7985 0)
(-0.0228923 0.790804 0)
(-0.00931255 0.799701 0)
(-0.0270778 0.898999 0)
(-0.0561862 1.00679 0)
(-0.0755209 1.06186 0)
(-0.105337 1.10085 0)
(-0.141498 1.11507 0)
(-0.174914 1.04248 0)
(-0.187009 0.929025 0)
(-0.189189 0.813313 0)
(-0.169599 0.641242 0)
(-0.105913 0.406987 0)
(-0.05114 0.285842 0)
(-0.000581681 0.206559 0)
(0.00568745 0.215146 0)
(0.044175 0.334716 0)
(0.0754253 0.461174 0)
(0.113294 0.706059 0)
(0.123716 0.861722 0)
(0.110708 0.964051 0)
(0.105062 1.05807 0)
(0.0981759 1.11547 0)
(0.0960409 1.12682 0)
(0.10553 1.12988 0)
(0.0954682 1.07965 0)
(0.0203945 0.878849 0)
(-0.0253253 0.766646 0)
(-0.023165 0.766266 0)
(-0.0244264 0.79201 0)
(-0.0246845 0.799113 0)
(-0.0108765 0.780224 0)
(-0.00480197 0.812822 0)
(-0.0338315 0.936958 0)
(-0.0607229 1.02705 0)
(-0.0823396 1.0837 0)
(-0.113429 1.12803 0)
(-0.15255 1.14165 0)
(-0.191506 1.05874 0)
(-0.217235 0.9372 0)
(-0.217967 0.798752 0)
(-0.170294 0.586844 0)
(-0.0836806 0.340208 0)
(-0.0253507 0.242058 0)
(0.00513591 0.197186 0)
(0.00193363 0.201234 0)
(0.0265081 0.306862 0)
(0.0607944 0.423968 0)
(0.111266 0.665833 0)
(0.137399 0.864212 0)
(0.118406 0.971461 0)
(0.107665 1.05615 0)
(0.103471 1.11678 0)
(0.0975001 1.12688 0)
(0.10179 1.11838 0)
(0.10779 1.09603 0)
(0.0500888 0.962244 0)
(-0.0135267 0.78052 0)
(-0.0204827 0.768465 0)
(-0.0181975 0.797864 0)
(-0.0166097 0.796202 0)
(-0.00411252 0.773082 0)
(-0.0109134 0.838533 0)
(-0.039539 0.966 0)
(-0.0639342 1.04533 0)
(-0.0858625 1.10471 0)
(-0.117268 1.15366 0)
(-0.152445 1.16704 0)
(-0.190012 1.08226 0)
(-0.224959 0.950847 0)
(-0.211972 0.7589 0)
(-0.137267 0.508984 0)
(-0.0512054 0.277268 0)
(-0.00957267 0.213241 0)
(0.00574402 0.205216 0)
(-0.00612044 0.196668 0)
(0.00828395 0.286646 0)
(0.0403083 0.37924 0)
(0.0995638 0.607038 0)
(0.140829 0.862402 0)
(0.120902 0.979945 0)
(0.110261 1.05565 0)
(0.104836 1.11675 0)
(0.0978159 1.13057 0)
(0.0926855 1.1119 0)
(0.0968013 1.09449 0)
(0.0703919 1.02154 0)
(0.0153467 0.819404 0)
(-0.0143752 0.770146 0)
(-0.00946372 0.801503 0)
(-0.00913458 0.795992 0)
(-0.00484908 0.77566 0)
(-0.0154177 0.862948 0)
(-0.0379022 0.990147 0)
(-0.059762 1.06063 0)
(-0.0823713 1.12425 0)
(-0.110953 1.17604 0)
(-0.140638 1.18395 0)
(-0.172133 1.10439 0)
(-0.19773 0.965513 0)
(-0.164938 0.694111 0)
(-0.0913801 0.432943 0)
(-0.0253729 0.235527 0)
(-0.00556871 0.204681 0)
(-0.00354762 0.213059 0)
(-0.0147077 0.206054 0)
(-0.00279422 0.272889 0)
(0.0221333 0.335378 0)
(0.0814061 0.53959 0)
(0.129613 0.856059 0)
(0.119591 0.986459 0)
(0.108759 1.05442 0)
(0.104768 1.11695 0)
(0.0949973 1.13529 0)
(0.0865131 1.11363 0)
(0.083167 1.09262 0)
(0.0799248 1.0401 0)
(0.0403516 0.873794 0)
(-0.0004114 0.779121 0)
(-0.000879228 0.804105 0)
(-0.00484597 0.803233 0)
(-0.00869228 0.782722 0)
(-0.0162124 0.88128 0)
(-0.0276868 1.00703 0)
(-0.0503706 1.07722 0)
(-0.0705915 1.14098 0)
(-0.0944454 1.19169 0)
(-0.115889 1.19756 0)
(-0.140108 1.12431 0)
(-0.139496 0.942265 0)
(-0.110167 0.644758 0)
(-0.0519874 0.366823 0)
(-0.00958648 0.216831 0)
(-0.0074576 0.212992 0)
(-0.00806876 0.211614 0)
(-0.0160063 0.218199 0)
(-0.00707804 0.26256 0)
(0.00836648 0.299011 0)
(0.0603948 0.476154 0)
(0.108258 0.833076 0)
(0.113221 0.988495 0)
(0.103546 1.05317 0)
(0.100645 1.11765 0)
(0.0924357 1.13949 0)
(0.0835691 1.12075 0)
(0.078826 1.09241 0)
(0.0780528 1.04853 0)
(0.0519124 0.926037 0)
(0.0149952 0.796675 0)
(0.00553479 0.812169 0)
(-0.00236282 0.812659 0)
(-0.00893208 0.796439 0)
(-0.0148212 0.88364 0)
(-0.0154025 1.02569 0)
(-0.0362215 1.09135 0)
(-0.0542175 1.15505 0)
(-0.0666798 1.20012 0)
(-0.0816734 1.20217 0)
(-0.0935014 1.13225 0)
(-0.0781663 0.906414 0)
(-0.0616647 0.61773 0)
(-0.0244315 0.315034 0)
(-0.00119388 0.20881 0)
(-0.00907298 0.223414 0)
(-0.00676965 0.206636 0)
(-0.0129353 0.232074 0)
(-0.0106724 0.262032 0)
(-0.00232979 0.270762 0)
(0.0407668 0.422001 0)
(0.087363 0.803165 0)
(0.106087 0.986654 0)
(0.0935194 1.05027 0)
(0.0944845 1.11594 0)
(0.0892743 1.14011 0)
(0.0868418 1.12394 0)
(0.080123 1.09544 0)
(0.0754779 1.05711 0)
(0.0557877 0.955625 0)
(0.0248495 0.823968 0)
(0.0115142 0.820773 0)
(0.00136561 0.825406 0)
(-0.0101648 0.809879 0)
(-0.0150336 0.882009 0)
(-0.00723699 1.03571 0)
(-0.0217204 1.10652 0)
(-0.0329034 1.15979 0)
(-0.0359827 1.19886 0)
(-0.0422359 1.20194 0)
(-0.0423667 1.13213 0)
(-0.0298467 0.86929 0)
(-0.0215251 0.607016 0)
(-0.00625789 0.284651 0)
(0.00145427 0.205435 0)
(-0.0105092 0.231112 0)
(0.00232611 0.193928 0)
(-0.0105113 0.241392 0)
(-0.00968665 0.266898 0)
(-0.00751121 0.249544 0)
(0.0251897 0.381484 0)
(0.071349 0.756609 0)
(0.0974694 0.983891 0)
(0.0845742 1.04789 0)
(0.0854146 1.11115 0)
(0.0869195 1.13489 0)
(0.0900058 1.12433 0)
(0.0844161 1.09921 0)
(0.078745 1.06916 0)
(0.0616218 0.983397 0)
(0.032743 0.848362 0)
(0.0168226 0.833094 0)
(0.00492098 0.837301 0)
(-0.0101032 0.829812 0)
(-0.0171819 0.877323 0)
(-0.00792673 1.04056 0)
(-0.00958248 1.11384 0)
(-0.0145515 1.15912 0)
(-0.0083446 1.19206 0)
(-0.0107222 1.19431 0)
(0.00207274 1.12125 0)
(-0.00483768 0.848421 0)
(-0.0019348 0.601646 0)
(0.00354726 0.272813 0)
(0.000664476 0.205513 0)
(-0.00880337 0.229584 0)
(0.0127601 0.18963 0)
(-0.00760897 0.249245 0)
(-0.00609584 0.271549 0)
(-0.0120311 0.241215 0)
(0.0128671 0.347278 0)
(0.0559368 0.705447 0)
(0.0861124 0.985645 0)
(0.0737363 1.04401 0)
(0.0795998 1.10472 0)
(0.0806158 1.12832 0)
(0.0887674 1.12131 0)
(0.0854194 1.10279 0)
(0.0834726 1.07624 0)
(0.0710902 1.00637 0)
(0.0413561 0.878118 0)
(0.0212695 0.84534 0)
(0.00793095 0.851513 0)
(-0.00826795 0.846537 0)
(-0.0191739 0.881686 0)
(-0.0134012 1.03276 0)
(-0.00342695 1.11579 0)
(-0.00173222 1.15072 0)
(0.00779659 1.18187 0)
(0.0105012 1.18283 0)
(0.0239636 1.1138 0)
(-0.00234306 0.84789 0)
(-0.00405949 0.589388 0)
(-0.000504093 0.273328 0)
(-0.00275693 0.203188 0)
(-0.000645634 0.22373 0)
(0.0153641 0.191938 0)
(-0.00451539 0.250972 0)
(-0.00444368 0.282027 0)
(-0.0188524 0.242192 0)
(-0.0054286 0.323021 0)
(0.0353197 0.656832 0)
(0.0731148 0.979753 0)
(0.0642853 1.04449 0)
(0.0731206 1.09327 0)
(0.0809945 1.12157 0)
(0.0872424 1.11714 0)
(0.0858105 1.10413 0)
(0.0860846 1.07913 0)
(0.0796724 1.02507 0)
(0.0511458 0.907917 0)
(0.0257347 0.860971 0)
(0.0105323 0.864544 0)
(-0.00765653 0.865542 0)
(-0.0220012 0.890192 0)
(-0.0198925 1.02322 0)
(-0.000991247 1.10922 0)
(0.00408338 1.14252 0)
(0.0139475 1.16938 0)
(0.0152923 1.17335 0)
(0.0257789 1.10783 0)
(-0.00869457 0.867908 0)
(-0.0105306 0.574684 0)
(-0.0113306 0.272397 0)
(-0.00841441 0.193997 0)
(0.00340454 0.209469 0)
(0.0149624 0.200547 0)
(-0.00522654 0.25384 0)
(-0.00486078 0.29336 0)
(-0.0295388 0.255948 0)
(-0.0262924 0.303694 0)
(0.0117592 0.605275 0)
(0.0586638 0.968045 0)
(0.0593758 1.03722 0)
(0.0656401 1.0806 0)
(0.0780343 1.11097 0)
(0.0862653 1.11399 0)
(0.0878671 1.10217 0)
(0.0886459 1.07886 0)
(0.0861673 1.03579 0)
(0.0608142 0.941479 0)
(0.0310672 0.878423 0)
(0.0136974 0.879491 0)
(-0.00562593 0.882954 0)
(-0.0240108 0.90531 0)
(-0.0249819 1.0067 0)
(-0.00422284 1.10173 0)
(0.00502226 1.13158 0)
(0.0106381 1.16478 0)
(0.00769605 1.16669 0)
(0.0130369 1.10984 0)
(-0.0113902 0.88446 0)
(-0.00873165 0.562985 0)
(-0.0100818 0.278208 0)
(-0.00441893 0.185878 0)
(0.00238299 0.203908 0)
(0.00919972 0.210863 0)
(-0.00573968 0.255721 0)
(-0.00536092 0.309553 0)
(-0.0363571 0.277228 0)
(-0.0470574 0.297462 0)
(-0.0186537 0.548569 0)
(0.0407096 0.946172 0)
(0.0564149 1.03279 0)
(0.0611041 1.06627 0)
(0.075121 1.09958 0)
(0.0853569 1.10744 0)
(0.089799 1.10153 0)
(0.0912543 1.0784 0)
(0.0903135 1.04371 0)
(0.0714754 0.971051 0)
(0.0396804 0.903326 0)
(0.0186587 0.893074 0)
(-0.000833605 0.904945 0)
(-0.0219204 0.920204 0)
(-0.0292177 0.998795 0)
(-0.0145296 1.0864 0)
(-0.00405799 1.12671 0)
(0.000930139 1.16024 0)
(-0.00777618 1.1727 0)
(3.39725e-05 1.10074 0)
(-0.00802108 0.893137 0)
(0.00293653 0.553433 0)
(0.0043551 0.281028 0)
(0.00777888 0.187623 0)
(0.00201911 0.202447 0)
(0.00606661 0.216331 0)
(-0.00926094 0.256931 0)
(-0.00627464 0.32202 0)
(-0.0419391 0.303843 0)
(-0.0651356 0.307703 0)
(-0.0504563 0.495532 0)
(0.0147807 0.907874 0)
(0.0547234 1.02129 0)
(0.0609776 1.05673 0)
(0.0726398 1.08439 0)
(0.0833745 1.09991 0)
(0.0892325 1.09695 0)
(0.0917222 1.07951 0)
(0.0908668 1.04739 0)
(0.0793853 0.995629 0)
(0.0513349 0.930562 0)
(0.0252527 0.911386 0)
(0.00617862 0.923402 0)
(-0.0167802 0.94319 0)
(-0.032631 0.996027 0)
(-0.0297055 1.08031 0)
(-0.0224002 1.11767 0)
(-0.0196112 1.16351 0)
(-0.0270911 1.17462 0)
(-0.00870561 1.09069 0)
(-0.00150587 0.891743 0)
(0.0192145 0.538862 0)
(0.025574 0.284077 0)
(0.024298 0.198662 0)
(0.00535537 0.213413 0)
(0.00591139 0.221602 0)
(-0.0161317 0.262573 0)
(-0.0122576 0.333566 0)
(-0.0467584 0.332255 0)
(-0.0781403 0.327037 0)
(-0.078543 0.458355 0)
(-0.0140494 0.847222 0)
(0.047644 1.00056 0)
(0.060664 1.04468 0)
(0.0676677 1.07504 0)
(0.0788071 1.08945 0)
(0.0865541 1.09399 0)
(0.0896568 1.07871 0)
(0.0883444 1.05359 0)
(0.0804752 1.01022 0)
(0.0598573 0.962522 0)
(0.0335247 0.931474 0)
(0.0114752 0.946168 0)
(-0.0127385 0.965981 0)
(-0.0369895 1.01053 0)
(-0.045594 1.07512 0)
(-0.0475247 1.12089 0)
(-0.048318 1.16354 0)
(-0.0474721 1.17633 0)
(-0.00646098 1.0623 0)
(0.0106121 0.888862 0)
(0.0349104 0.516315 0)
(0.0449381 0.284592 0)
(0.0363851 0.217371 0)
(0.00974676 0.227113 0)
(0.0067689 0.226341 0)
(-0.0215287 0.274697 0)
(-0.0166609 0.338858 0)
(-0.0510807 0.362869 0)
(-0.0827597 0.351965 0)
(-0.0941117 0.436116 0)
(-0.0367896 0.776066 0)
(0.0354598 0.967403 0)
(0.0577213 1.03764 0)
(0.0628917 1.06426 0)
(0.0723231 1.08176 0)
(0.0814414 1.08737 0)
(0.0857592 1.08134 0)
(0.0838598 1.0578 0)
(0.0768211 1.02462 0)
(0.0612333 0.983705 0)
(0.038499 0.958823 0)
(0.0139099 0.967323 0)
(-0.0131058 0.996945 0)
(-0.0416091 1.02963 0)
(-0.0598608 1.08448 0)
(-0.0724954 1.12647 0)
(-0.0758436 1.17053 0)
(-0.0550011 1.15062 0)
(-0.00537817 1.025 0)
(0.0211689 0.88376 0)
(0.0469111 0.491057 0)
(0.0603832 0.289118 0)
(0.0464318 0.238886 0)
(0.0128457 0.246125 0)
(0.0100258 0.232179 0)
(-0.018443 0.287668 0)
(-0.0149832 0.347576 0)
(-0.0508138 0.384851 0)
(-0.0790931 0.379228 0)
(-0.0954254 0.424178 0)
(-0.0480622 0.704785 0)
(0.0247192 0.930034 0)
(0.0534945 1.02234 0)
(0.0597693 1.0577 0)
(0.0649721 1.06911 0)
(0.0738801 1.08258 0)
(0.079991 1.08075 0)
(0.0784891 1.06654 0)
(0.070585 1.03486 0)
(0.0566005 1.0041 0)
(0.0366025 0.981983 0)
(0.0125484 0.995435 0)
(-0.0159898 1.02547 0)
(-0.0453468 1.05931 0)
(-0.0675859 1.09799 0)
(-0.084816 1.14359 0)
(-0.0813094 1.16251 0)
(-0.0446673 1.11476 0)
(-0.0112002 0.992538 0)
(0.0204259 0.869619 0)
(0.0543174 0.459242 0)
(0.0705927 0.294005 0)
(0.0545363 0.265673 0)
(0.0184851 0.264233 0)
(0.0138869 0.241697 0)
(-0.0125481 0.292222 0)
(-0.00792043 0.362439 0)
(-0.0480988 0.406462 0)
(-0.0713198 0.405177 0)
(-0.0871073 0.417703 0)
(-0.0469341 0.639221 0)
(0.022104 0.890706 0)
(0.0536019 1.01013 0)
(0.059828 1.04933 0)
(0.0611012 1.06502 0)
(0.0669796 1.07256 0)
(0.0721189 1.07999 0)
(0.0738964 1.07072 0)
(0.0667733 1.05 0)
(0.053693 1.02064 0)
(0.0351238 1.00714 0)
(0.0112935 1.01901 0)
(-0.0172467 1.05677 0)
(-0.0450785 1.08145 0)
(-0.0663598 1.11682 0)
(-0.0800864 1.14831 0)
(-0.0677645 1.15143 0)
(-0.0352171 1.07455 0)
(-0.0176485 0.988847 0)
(0.0122596 0.836605 0)
(0.0597523 0.424628 0)
(0.074926 0.301443 0)
(0.059489 0.29158 0)
(0.023072 0.286667 0)
(0.0146278 0.256784 0)
(-0.0080886 0.288725 0)
(1.12138e-05 0.384989 0)
(-0.042595 0.422734 0)
(-0.0622885 0.427605 0)
(-0.074494 0.41539 0)
(-0.0361859 0.578905 0)
(0.0303795 0.853625 0)
(0.0609528 0.991363 0)
(0.0642794 1.04995 0)
(0.061526 1.05856 0)
(0.0635467 1.0722 0)
(0.0646818 1.07686 0)
(0.0656283 1.07806 0)
(0.0590274 1.05867 0)
(0.0474799 1.03863 0)
(0.0301399 1.02682 0)
(0.00628287 1.04706 0)
(-0.0196525 1.08123 0)
(-0.0435138 1.10671 0)
(-0.061273 1.12919 0)
(-0.068089 1.15345 0)
(-0.0494845 1.13058 0)
(-0.0330731 1.05654 0)
(-0.0249591 0.985788 0)
(0.00954385 0.786857 0)
(0.0623417 0.392383 0)
(0.0739996 0.310001 0)
(0.0585129 0.315701 0)
(0.0244301 0.309239 0)
(0.0138525 0.270921 0)
(-0.00781214 0.279455 0)
(0.00157023 0.407912 0)
(-0.037237 0.436344 0)
(-0.051333 0.444145 0)
(-0.058056 0.413381 0)
(-0.0217527 0.519988 0)
(0.0416618 0.816664 0)
(0.0687566 0.985062 0)
(0.0662787 1.0454 0)
(0.0624914 1.06108 0)
(0.0617514 1.06798 0)
(0.0609075 1.07918 0)
(0.0597451 1.08018 0)
(0.0552014 1.07257 0)
(0.0431677 1.05183 0)
(0.0263797 1.05037 0)
(0.0020997 1.06962 0)
(-0.0214755 1.10525 0)
(-0.0403734 1.12276 0)
(-0.0543703 1.14312 0)
(-0.0557312 1.14518 0)
(-0.0371947 1.11692 0)
(-0.0290305 1.04052 0)
(-0.027824 0.987735 0)
(0.0165264 0.726739 0)
(0.0644684 0.368738 0)
(0.0712039 0.322173 0)
(0.0540075 0.340081 0)
(0.0216735 0.334762 0)
(0.0133071 0.285278 0)
(-0.0107182 0.277933 0)
(-0.00818012 0.429485 0)
(-0.0324597 0.44693 0)
(-0.037253 0.453214 0)
(-0.0406217 0.411292 0)
(-0.0118958 0.464949 0)
(0.0449006 0.783128 0)
(0.0678208 0.977097 0)
(0.0643838 1.04848 0)
(0.0598058 1.06101 0)
(0.0581575 1.07239 0)
(0.0559913 1.07913 0)
(0.0532496 1.0869 0)
(0.0501009 1.07895 0)
(0.0387562 1.06751 0)
(0.0225319 1.06952 0)
(-0.00118227 1.09419 0)
(-0.021963 1.11969 0)
(-0.0366161 1.13881 0)
(-0.0482848 1.14852 0)
(-0.0492336 1.14133 0)
(-0.0315905 1.09679 0)
(-0.0221741 1.03913 0)
(-0.0204449 0.979675 0)
(0.0283213 0.665288 0)
(0.0673884 0.356857 0)
(0.066892 0.338643 0)
(0.0472715 0.362952 0)
(0.0165107 0.355646 0)
(0.0117849 0.296015 0)
(-0.0152985 0.290817 0)
(-0.0200326 0.437873 0)
(-0.0286308 0.445251 0)
(-0.0255776 0.456401 0)
(-0.0229253 0.414926 0)
(-0.00734708 0.422817 0)
(0.0402045 0.753319 0)
(0.0642685 0.977381 0)
(0.0606186 1.04639 0)
(0.0546557 1.06666 0)
(0.0510057 1.074 0)
(0.0476076 1.08503 0)
(0.0443345 1.09113 0)
(0.0418179 1.08871 0)
(0.0313503 1.07991 0)
(0.016283 1.091 0)
(-0.00402893 1.11365 0)
(-0.021938 1.13438 0)
(-0.034266 1.14905 0)
(-0.0463748 1.15976 0)
(-0.0468848 1.13587 0)
(-0.028918 1.08389 0)
(-0.0112538 1.03165 0)
(-0.00416181 0.973624 0)
(0.0417141 0.609189 0)
(0.0699532 0.355839 0)
(0.0610515 0.35862 0)
(0.0409325 0.381997 0)
(0.0110765 0.378141 0)
(0.00996424 0.303023 0)
(-0.0151088 0.313673 0)
(-0.0234645 0.445203 0)
(-0.0276569 0.443675 0)
(-0.0172476 0.449605 0)
(-0.00897639 0.420848 0)
(0.00172767 0.396365 0)
(0.0311232 0.721117 0)
(0.0615306 0.971849 0)
(0.0580387 1.05049 0)
(0.0495292 1.07254 0)
(0.0418459 1.0812 0)
(0.0366147 1.08859 0)
(0.0327219 1.09808 0)
(0.029798 1.09482 0)
(0.0215699 1.09414 0)
(0.00795877 1.10727 0)
(-0.00735332 1.13202 0)
(-0.0219115 1.14502 0)
(-0.0327952 1.16107 0)
(-0.0470838 1.17085 0)
(-0.0445884 1.1301 0)
(-0.0260926 1.06008 0)
(-0.00280182 1.02189 0)
(0.0103656 0.958948 0)
(0.053754 0.565206 0)
(0.0706985 0.36478 0)
(0.0555095 0.381467 0)
(0.035566 0.398546 0)
(0.00810807 0.395707 0)
(0.00933386 0.30644 0)
(-0.0122167 0.331908 0)
(-0.019611 0.453034 0)
(-0.0242967 0.440562 0)
(-0.00697966 0.437783 0)
(0.00663324 0.423821 0)
(0.0149956 0.384548 0)
(0.0257815 0.693572 0)
(0.0529222 0.967756 0)
(0.0542759 1.05235 0)
(0.0435326 1.08403 0)
(0.0322228 1.0886 0)
(0.0246419 1.09678 0)
(0.0194194 1.10265 0)
(0.0153439 1.103 0)
(0.00912921 1.10381 0)
(-0.00186053 1.12229 0)
(-0.011963 1.14371 0)
(-0.0218393 1.15556 0)
(-0.0297132 1.17025 0)
(-0.0400761 1.18438 0)
(-0.0316376 1.11546 0)
(-0.0157624 1.04784 0)
(-0.00126475 1.00907 0)
(0.0223518 0.93703 0)
(0.0634334 0.531687 0)
(0.0700946 0.382181 0)
(0.0502257 0.403108 0)
(0.0321941 0.411197 0)
(0.00861311 0.412992 0)
(0.0106321 0.310568 0)
(-0.0114833 0.341195 0)
(-0.0131039 0.45739 0)
(-0.00955263 0.42505 0)
(0.00784004 0.424963 0)
(0.021492 0.422035 0)
(0.0295369 0.385849 0)
(0.0237078 0.683977 0)
(0.0439282 0.953013 0)
(0.0488574 1.05678 0)
(0.0370999 1.09509 0)
(0.0234316 1.09923 0)
(0.014154 1.10484 0)
(0.00686279 1.10955 0)
(0.00140333 1.10968 0)
(-0.00388171 1.11316 0)
(-0.0119622 1.13261 0)
(-0.0173251 1.15273 0)
(-0.0223889 1.16233 0)
(-0.0248513 1.17703 0)
(-0.0256057 1.18937 0)
(-0.0150164 1.10556 0)
(-0.00560723 1.03912 0)
(0.000802265 0.997546 0)
(0.0350426 0.905101 0)
(0.0721923 0.508801 0)
(0.0679773 0.404135 0)
(0.0444942 0.421757 0)
(0.0298541 0.421989 0)
(0.0127901 0.420805 0)
(0.014666 0.31744 0)
(-0.0160834 0.347306 0)
(-0.00839685 0.453938 0)
(0.00219374 0.410209 0)
(0.0190749 0.413047 0)
(0.0300803 0.418416 0)
(0.0372706 0.394033 0)
(0.0230221 0.682687 0)
(0.0392942 0.942817 0)
(0.043337 1.0601 0)
(0.0291207 1.10546 0)
(0.0153678 1.10935 0)
(0.00511265 1.11398 0)
(-0.0033436 1.11642 0)
(-0.0101177 1.11683 0)
(-0.0153891 1.12072 0)
(-0.0207474 1.14009 0)
(-0.0224697 1.1573 0)
(-0.0227286 1.16609 0)
(-0.0199283 1.17683 0)
(-0.0104303 1.18476 0)
(-0.000976556 1.09819 0)
(0.000508542 1.03616 0)
(0.00443871 0.982563 0)
(0.046406 0.866442 0)
(0.0759936 0.496513 0)
(0.0621526 0.430901 0)
(0.0381734 0.437501 0)
(0.0265513 0.42652 0)
(0.0145999 0.42447 0)
(0.0193523 0.328258 0)
(-0.0217513 0.358596 0)
(-0.0117215 0.436936 0)
(0.0116521 0.390172 0)
(0.0272121 0.402999 0)
(0.0316383 0.41536 0)
(0.0327048 0.407693 0)
(0.0175407 0.681399 0)
(0.0352758 0.930053 0)
(0.0365875 1.06511 0)
(0.0207394 1.11633 0)
(0.00711501 1.11842 0)
(-0.00235646 1.12313 0)
(-0.0112892 1.12361 0)
(-0.0182356 1.12371 0)
(-0.024007 1.12707 0)
(-0.0274419 1.14442 0)
(-0.0263418 1.1586 0)
(-0.0235928 1.16615 0)
(-0.0165954 1.17196 0)
(-0.00190802 1.17295 0)
(0.00574322 1.09882 0)
(0.000548728 1.03376 0)
(0.00709434 0.966271 0)
(0.0529319 0.824981 0)
(0.0748323 0.495715 0)
(0.055492 0.457993 0)
(0.0317023 0.449381 0)
(0.0197275 0.43046 0)
(0.00875431 0.418083 0)
(0.0203062 0.339485 0)
(-0.019761 0.378001 0)
(-0.00829887 0.414679 0)
(0.0148807 0.365565 0)
(0.0275989 0.396759 0)
(0.0262766 0.417406 0)
(0.0188151 0.424524 0)
(0.00927778 0.671352 0)
(0.0303439 0.920641 0)
(0.0303111 1.07232 0)
(0.0123589 1.12274 0)
(0.00041335 1.1283 0)
(-0.00833693 1.13055 0)
(-0.0159973 1.13146 0)
(-0.0228108 1.12965 0)
(-0.0286943 1.13358 0)
(-0.0313103 1.14596 0)
(-0.0291101 1.15896 0)
(-0.024741 1.16376 0)
(-0.0163895 1.16483 0)
(-0.000380573 1.15954 0)
(0.00466709 1.10422 0)
(-0.00269405 1.03535 0)
(0.00649893 0.943432 0)
(0.0516271 0.785692 0)
(0.0678648 0.501721 0)
(0.0470441 0.481488 0)
(0.0224925 0.463152 0)
(0.0108498 0.431444 0)
(-0.00250368 0.411864 0)
(0.0167176 0.342531 0)
(-0.00841146 0.388156 0)
(0.00819765 0.40031 0)
(0.0124877 0.350457 0)
(0.0195171 0.396028 0)
(0.0135556 0.424327 0)
(0.00237212 0.442537 0)
(0.00164756 0.650317 0)
(0.0267933 0.911504 0)
(0.024822 1.07854 0)
(0.00764089 1.13264 0)
(-0.00400349 1.13436 0)
(-0.011205 1.13867 0)
(-0.0176588 1.13657 0)
(-0.0238007 1.13701 0)
(-0.0295335 1.13844 0)
(-0.0321602 1.14838 0)
(-0.0301863 1.15709 0)
(-0.0258549 1.1624 0)
(-0.0179323 1.15682 0)
(-0.00522565 1.14795 0)
(-0.00218545 1.10829 0)
(-0.0106936 1.03591 0)
(-0.00106239 0.922108 0)
(0.0416854 0.749429 0)
(0.0555148 0.510678 0)
(0.0348833 0.504465 0)
(0.00961554 0.476133 0)
(-0.00351146 0.432735 0)
(-0.0179165 0.401347 0)
(0.0123529 0.333835 0)
(0.00311182 0.382122 0)
(0.0266561 0.398797 0)
(0.0146481 0.352547 0)
(0.00421888 0.397681 0)
(-0.00304639 0.435483 0)
(-0.0122982 0.454861 0)
(-0.00107829 0.6196 0)
(0.0261931 0.905119 0)
(0.0234426 1.08618 0)
(0.00629749 1.13697 0)
(-0.00435382 1.1437 0)
(-0.0112437 1.14281 0)
(-0.0163755 1.14388 0)
(-0.0221881 1.14151 0)
(-0.0274124 1.14499 0)
(-0.0303202 1.14912 0)
(-0.0294441 1.1574 0)
(-0.0253935 1.15859 0)
(-0.0198985 1.15335 0)
(-0.01297 1.13952 0)
(-0.0149619 1.11487 0)
(-0.0241828 1.03778 0)
(-0.016419 0.901535 0)
(0.0238663 0.714224 0)
(0.0371408 0.520059 0)
(0.0165747 0.525031 0)
(-0.00744684 0.489524 0)
(-0.0230049 0.431387 0)
(-0.0364292 0.392435 0)
(0.00515935 0.316649 0)
(0.00582713 0.361018 0)
(0.0317417 0.399198 0)