/*--------------------------------*- C++ -*----------------------------------*\
| =========                 |                                                 |
| \\      /  F ield         | OpenFOAM: The Open Source CFD Toolbox           |
|  \\    /   O peration     | Version:  2.3.0                                 |
|   \\  /    A nd           | Web:      www.OpenFOAM.org                      |
|    \\/     M anipulation  |                                                 |
\*---------------------------------------------------------------------------*/
FoamFile
{
    version     2.0;
    format      ascii;
    class       volScalarField;
    location    "1.09898";
    object      alpha.air;
}
// * * * * * * * * * * * * * * * * * * * * * * * * * * * * * * * * * * * * * //

dimensions      [0 0 0 0 0 0 0];

internalField   nonuniform List<scalar> 
1000
(
0.228566
0.24632
0.164843
0.163228
0.172202
0.18651
0.181847
0.181602
0.17755
0.126732
0.163015
0.225456
0.210771
0.190301
0.136907
0.133864
0.15416
0.165391
0.244316
0.223784
0.0254237
0.101716
0.116727
0.100216
0.101569
0.112162
0.112982
0.115474
0.110497
0.0710811
0.0902989
0.126424
0.125257
0.0947599
0.0702323
0.0693525
0.0986659
0.120603
0.100562
0.0250976
0.0116156
0.145716
0.137312
0.109673
0.114544
0.170136
0.157443
0.161857
0.127431
0.0785771
0.123161
0.194808
0.170849
0.173472
0.115644
0.0801114
0.106788
0.145693
0.147575
0.00875057
0.0104575
0.0746389
0.00862635
0.0118799
0.0675457
0.201558
0.169632
0.173701
0.126783
0.0385536
0.133169
0.207827
0.166982
0.207284
0.153093
0.0799836
0.00455323
0.00878711
0.0603372
0.00670242
0.000131702
0.000911021
1.10644e-05
0.000823172
0.0322827
0.111446
0.0572662
0.0603226
0.0178001
0.00800823
0.13298
0.190143
0.107366
0.214064
0.131599
0.0253969
0.00037251
8.25941e-06
0.000365297
5.57052e-05
7.98577e-09
6.67838e-08
5.27627e-09
5.1147e-06
0.000934244
0.00757867
0.00149496
0.00152036
6.35831e-05
0.0035247
0.0657888
0.132775
0.0263199
0.171001
0.0749339
0.00546002
2.44932e-05
6.17805e-09
1.04074e-08
2.97604e-09
4.74173e-10
4.61663e-10
6.24505e-10
1.0883e-09
5.79014e-07
1.74487e-05
7.98649e-07
7.08818e-07
8.15448e-09
6.15493e-05
0.0052713
0.0257457
0.000638454
0.0438898
0.00857929
0.000137584
6.92079e-08
9.77543e-10
4.4913e-10
4.40835e-10
3.78761e-11
3.59948e-11
4.70429e-11
6.521e-11
5.98123e-10
2.80217e-09
2.72691e-09
2.90532e-09
4.11958e-10
2.37801e-08
2.41115e-05
0.000395122
1.31878e-06
0.00103416
6.89733e-05
1.24025e-07
7.16763e-10
6.63114e-11
3.63165e-11
3.58285e-11
2.15448e-12
2.09011e-12
2.57321e-12
3.4622e-12
9.47688e-12
9.4047e-11
6.70994e-11
8.64372e-11
3.77124e-11
2.63434e-10
3.44465e-09
1.78887e-07
1.96325e-09
7.54166e-07
1.56916e-08
4.18589e-10
1.21927e-11
3.18541e-12
2.22752e-12
2.12796e-12
9.92634e-14
9.97193e-14
1.17588e-13
1.69664e-13
3.97792e-13
2.10396e-12
2.24468e-12
3.51807e-12
3.57696e-12
1.1088e-11
1.38727e-10
1.33677e-09
1.57322e-10
1.92906e-09
2.49105e-10
6.12446e-12
3.42687e-13
1.59591e-13
1.13615e-13
1.02299e-13
0.388899
0.376638
0.246435
0.326576
0.357795
0.351209
0.369862
0.367063
0.354829
0.304469
0.369993
0.39748
0.406401
0.311664
0.313836
0.313171
0.305776
0.240838
0.376383
0.383697
0.193454
0.200245
0.198814
0.159091
0.174139
0.17557
0.189736
0.199008
0.202749
0.161541
0.241776
0.17092
0.225863
0.127155
0.158016
0.141383
0.15625
0.210733
0.198023
0.182258
0.0505454
0.284139
0.310303
0.280556
0.249465
0.207129
0.214872
0.216123
0.233721
0.212818
0.182678
0.168703
0.170354
0.147389
0.176654
0.20596
0.248598
0.302646
0.287447
0.0416435
0.0589785
0.295302
0.102341
0.126968
0.24871
0.261365
0.258969
0.25228
0.237322
0.158417
0.217402
0.187518
0.198669
0.199367
0.249331
0.218649
0.0598698
0.0665848
0.267693
0.0437997
0.00277311
0.0297147
0.000700431
0.013178
0.165826
0.262507
0.221772
0.222283
0.126572
0.0427983
0.24279
0.214748
0.218494
0.239792
0.256712
0.158163
0.00935457
0.000231127
0.00873339
0.00103006
1.77747e-06
3.86174e-05
1.36312e-07
0.000338098
0.0246572
0.113228
0.0479737
0.0499782
0.00530854
0.025238
0.201487
0.216773
0.156411
0.249558
0.214651
0.0481489
0.000863697
4.14272e-07
3.20001e-06
1.78715e-07
7.93389e-10
1.28617e-09
1.70673e-09
3.48175e-07
0.00022154
0.00365535
0.000566957
0.000607988
6.45825e-06
0.00206207
0.0612905
0.139223
0.0248261
0.175011
0.0770549
0.00393734
9.3573e-06
2.36452e-09
1.02871e-09
6.77701e-10
9.37703e-11
1.2901e-10
1.50483e-10
6.64076e-10
4.10698e-08
2.54088e-06
1.15462e-07
1.3896e-07
3.28798e-09
7.91031e-06
0.00206806
0.0155615
0.000355787
0.0234277
0.00352961
2.31128e-05
4.02004e-09
2.65806e-10
1.17243e-10
8.23309e-11
8.05768e-12
1.16018e-11
1.34835e-11
2.06589e-11
1.85183e-10
2.0406e-09
1.33753e-09
1.90084e-09
3.59015e-10
2.46897e-09
3.06308e-06
0.000108301
3.19937e-07
0.000196408
7.92592e-06
5.6908e-09
1.39263e-10
1.45555e-11
1.00572e-11
6.76728e-12
5.64097e-13
8.61801e-13
1.03561e-12
1.53741e-12
4.03893e-12
5.3996e-11
2.83251e-11
4.55309e-11
2.99914e-11
1.67458e-10
1.42569e-09
2.02929e-08
2.282e-09
3.97179e-08
1.14053e-09
9.1218e-11
2.63038e-12
9.41744e-13
7.24974e-13
4.37914e-13
0.470772
0.473186
0.376913
0.421569
0.402842
0.455637
0.386797
0.392811
0.388725
0.395571
0.393508
0.446699
0.391072
0.459649
0.452266
0.426587
0.415263
0.372544
0.473289
0.469757
0.30237
0.363685
0.391734
0.289364
0.22555
0.268201
0.22923
0.214812
0.20446
0.209676
0.230837
0.201555
0.215317
0.336841
0.265648
0.218835
0.288861
0.394526
0.359265
0.285895
0.0671646
0.37
0.4057
0.338081
0.250956
0.25613
0.23117
0.21489
0.204152
0.220684
0.219101
0.18259
0.198033
0.259682
0.240342
0.239812
0.341719
0.404399
0.367689
0.0577767
0.0881096
0.371896
0.279048
0.290835
0.272587
0.262915
0.233101
0.215828
0.209744
0.231679
0.225756
0.186217
0.197253
0.249063
0.250697
0.250934
0.197713
0.178358
0.36104
0.0713676
0.0106423
0.125188
0.00543606
0.0411042
0.235995
0.265169
0.239741
0.228468
0.206003
0.0826457
0.241738
0.185667
0.198014
0.248494
0.261089
0.244415
0.0348683
0.00160323
0.0502473
0.00409484
2.82779e-05
0.000611915
2.3961e-06
0.00184318
0.0689751
0.188167
0.129107
0.133956
0.0468319
0.0381427
0.220843
0.191892
0.187685
0.249179
0.243964
0.0986816
0.00357986
4.28396e-06
8.42194e-05
4.19344e-06
1.1083e-09
1.10502e-08
2.16213e-09
5.40841e-06
0.00175612
0.0189739
0.00680503
0.00793781
0.000409251
0.00475738
0.0986847
0.169491
0.067872
0.215426
0.122805
0.0100015
4.31399e-05
4.99869e-09
1.5135e-09
8.22069e-10
1.27044e-10
1.91681e-10
2.6419e-10
2.04901e-09
1.53139e-06
6.57675e-05
1.03717e-05
1.45775e-05
6.50233e-08
4.11769e-05
0.00702825
0.0432991
0.00290198
0.0558086
0.0108067
0.000110598
2.56018e-08
6.09859e-10
1.71528e-10
1.11404e-10
1.17168e-11
1.89494e-11
2.21597e-11
4.73854e-11
7.96891e-10
4.41184e-09
2.29492e-09
2.59742e-09
1.64466e-09
1.4901e-08
3.18997e-05
0.000965517
7.6838e-06
0.00124083
6.38979e-05
6.02178e-08
8.27431e-10
2.8659e-11
1.59636e-11
9.67486e-12
8.71814e-13
1.55764e-12
1.88339e-12
2.83665e-12
1.43579e-11
1.38603e-10
1.38696e-10
1.99961e-10
8.0204e-11
4.08032e-10
5.29163e-09
7.22046e-07
3.48442e-09
8.90669e-07
1.07951e-08
5.11527e-10
6.41291e-12
1.64414e-12
1.25713e-12
6.61776e-13
0.388208
0.376279
0.247943
0.3378
0.355338
0.358865
0.368983
0.369273
0.352212
0.306316
0.369335
0.400726
0.405131
0.306015
0.310533
0.295537
0.310932
0.241549
0.376341
0.383875
0.193421
0.199919
0.198492
0.169101
0.170995
0.186808
0.188613
0.213019
0.192496
0.166295
0.23419
0.173088
0.217522
0.123676
0.153137
0.12414
0.162016
0.211439
0.197975
0.182509
0.050557
0.284001
0.310217
0.271483
0.248051
0.208277
0.214235
0.220731
0.231295
0.212961
0.181066
0.170351
0.169881
0.146094
0.177122
0.208819
0.245282
0.302434
0.287388
0.0416458
0.0589667
0.295297
0.102318
0.126654
0.248561
0.260925
0.258921
0.251355
0.237175
0.158249
0.217464
0.189895
0.199058
0.199448
0.249963
0.219286
0.05968
0.0665311
0.26769
0.0437732
0.00277208
0.0297053
0.000700507
0.0132296
0.165925
0.262449
0.221772
0.222153
0.12654
0.04279
0.24279
0.216484
0.218745
0.239889
0.256735
0.157945
0.00934684
0.000230747
0.00873376
0.00102937
1.77701e-06
3.8601e-05
1.36732e-07
0.000339024
0.0246911
0.113296
0.04797
0.0501301
0.00530877
0.0251625
0.201836
0.218467
0.156403
0.249558
0.214624
0.0481269
0.000862951
4.13778e-07
3.19999e-06
1.78728e-07
7.93346e-10
1.28631e-09
1.70955e-09
3.49917e-07
0.00022231
0.00366481
0.000566935
0.000611836
6.45752e-06
0.00205753
0.0612586
0.139318
0.0247804
0.174983
0.0770396
0.003937
9.35877e-06
2.3664e-09
1.02888e-09
6.77668e-10
9.3777e-11
1.2903e-10
1.50544e-10
6.67955e-10
4.13782e-08
2.55699e-06
1.15512e-07
1.40242e-07
3.28051e-09
7.86935e-06
0.00205314
0.0153981
0.000353532
0.0234203
0.00352899
2.31164e-05
4.02415e-09
2.66076e-10
1.1726e-10
8.23326e-11
8.06003e-12
1.16044e-11
1.34873e-11
2.0681e-11
1.86558e-10
2.06099e-09
1.33891e-09
1.92012e-09
3.5782e-10
2.42508e-09
3.00453e-06
0.000105687
3.13752e-07
0.00019633
7.92515e-06
5.69378e-09
1.39384e-10
1.45595e-11
1.00572e-11
6.7671e-12
5.64329e-13
8.62351e-13
1.0361e-12
1.53832e-12
4.0491e-12
5.45208e-11
2.83692e-11
4.5952e-11
2.99539e-11
1.64335e-10
1.37987e-09
1.94728e-08
2.22759e-09
3.97061e-08
1.14061e-09
9.12979e-11
2.63188e-12
9.4185e-13
7.25117e-13
4.38002e-13
0.227901
0.245968
0.164903
0.162359
0.171595
0.185323
0.18154
0.180662
0.17804
0.126584
0.162944
0.227653
0.210816
0.190654
0.137375
0.13449
0.154069
0.165507
0.244279
0.223902
0.0254417
0.101537
0.11682
0.0975928
0.100124
0.111727
0.112922
0.115173
0.11065
0.0708904
0.0902953
0.127505
0.12594
0.0948846
0.0703343
0.0692411
0.0978984
0.120622
0.100527
0.0251124
0.0116219
0.145509
0.137396
0.105383
0.112809
0.169792
0.157627
0.161976
0.127294
0.0783032
0.123116
0.197081
0.171291
0.173234
0.115728
0.0802758
0.105236
0.14564
0.14751
0.00875147
0.0104547
0.0746622
0.00861953
0.0117595
0.068042
0.200969
0.169869
0.173723
0.126446
0.0383869
0.133124
0.210514
0.167355
0.206947
0.153222
0.0806539
0.00451238
0.00878651
0.0603481
0.00670053
0.000131613
0.00091162
1.10484e-05
0.000827221
0.0323043
0.111466
0.0572582
0.0604347
0.0178015
0.00799395
0.1333
0.191249
0.107224
0.213961
0.131469
0.0252992
0.000370954
8.26023e-06
0.000365571
5.56765e-05
7.9814e-09
6.68093e-08
5.27949e-09
5.13882e-06
0.000936245
0.00759656
0.00149396
0.00153016
6.37157e-05
0.00351575
0.0658034
0.133018
0.026289
0.170896
0.0748759
0.00545384
2.44526e-05
6.17435e-09
1.04153e-08
2.97585e-09
4.7389e-10
4.61549e-10
6.24392e-10
1.09238e-09
5.8345e-07
1.75585e-05
7.97985e-07
7.18508e-07
8.08069e-09
6.10776e-05
0.00523973
0.0255949
0.000635225
0.043856
0.00857257
0.000137513
6.9198e-08
9.77644e-10
4.49103e-10
4.4075e-10
3.78543e-11
3.59857e-11
4.70279e-11
6.52376e-11
6.00357e-10
2.83298e-09
2.72497e-09
2.94265e-09
4.08449e-10
2.33307e-08
2.37031e-05
0.000388023
1.29682e-06
0.00103309
6.89113e-05
1.23952e-07
7.1673e-10
6.63108e-11
3.63135e-11
3.58182e-11
2.15281e-12
2.08954e-12
2.57247e-12
3.4613e-12
9.49477e-12
9.49154e-11
6.70529e-11
8.71246e-11
3.75949e-11
2.5787e-10
3.33159e-09
1.71955e-07
1.92746e-09
7.53104e-07
1.56747e-08
4.18361e-10
1.21918e-11
3.1837e-12
2.22659e-12
2.12652e-12
9.91296e-14
9.96966e-14
1.17452e-13
1.6944e-13
3.97528e-13
2.1149e-12
2.24386e-12
3.52207e-12
3.57462e-12
1.08935e-11
1.34732e-10
2.04364e-09
1.55854e-10
1.9278e-09
2.48961e-10
6.12418e-12
3.42454e-13
1.59469e-13
1.13604e-13
1.02284e-13
)
;

boundaryField
{
    aeration
    {
        type            fixedValue;
        value           uniform 0.5;
    }
    xsides
    {
        type            zeroGradient;
    }
    zsides
    {
        type            zeroGradient;
    }
    outlet
    {
        type            inletOutlet;
        phi             phi.air;
        inletValue      uniform 0;
        value           nonuniform List<scalar> 
100
(
0
0
0
0
0
0
0
0
0
0
0
0
0
0
0
0
0
0
0
0
3.97792e-13
4.03893e-12
1.43579e-11
4.0491e-12
3.97528e-13
2.10396e-12
5.3996e-11
1.38603e-10
5.45208e-11
2.1149e-12
2.24468e-12
2.83251e-11
1.38696e-10
2.83692e-11
2.24386e-12
3.51807e-12
4.55309e-11
1.99961e-10
4.5952e-11
3.52207e-12
3.57696e-12
2.99914e-11
8.0204e-11
2.99539e-11
3.57462e-12
1.1088e-11
1.67458e-10
4.08032e-10
1.64335e-10
1.08935e-11
1.38727e-10
1.42569e-09
5.29163e-09
1.37987e-09
1.34732e-10
1.33677e-09
2.02929e-08
7.22046e-07
1.94728e-08
2.04364e-09
1.57322e-10
2.282e-09
3.48442e-09
2.22759e-09
1.55854e-10
1.92906e-09
3.97179e-08
8.90669e-07
3.97061e-08
1.9278e-09
2.49105e-10
1.14053e-09
1.07951e-08
1.14061e-09
2.48961e-10
6.12446e-12
9.1218e-11
5.11527e-10
9.12979e-11
6.12418e-12
0
0
0
0
0
0
0
0
0
0
0
0
0
0
0
0
0
0
0
0
)
;
    }
}


// ************************************************************************* //
