/*--------------------------------*- C++ -*----------------------------------*\
| =========                 |                                                 |
| \\      /  F ield         | OpenFOAM: The Open Source CFD Toolbox           |
|  \\    /   O peration     | Version:  2.3.0                                 |
|   \\  /    A nd           | Web:      www.OpenFOAM.org                      |
|    \\/     M anipulation  |                                                 |
\*---------------------------------------------------------------------------*/
FoamFile
{
    version     2.0;
    format      ascii;
    class       volScalarField;
    location    "1.09898";
    object      epsilon.water;
}
// * * * * * * * * * * * * * * * * * * * * * * * * * * * * * * * * * * * * * //

dimensions      [0 2 -3 0 0 0 0];

internalField   nonuniform List<scalar> 
1000
(
0.0303966
0.0387452
0.0310295
0.0166137
0.0143362
0.0166713
0.0189797
0.0165536
0.0175181
0.013418
0.0193721
0.0376124
0.0280646
0.0138229
0.0137337
0.0134738
0.0159832
0.0311944
0.0394696
0.0299236
0.00358081
0.0228764
0.0354924
0.0402881
0.0297749
0.0334666
0.0388233
0.0414687
0.0414833
0.0267714
0.0345283
0.0151161
0.0315892
0.0141937
0.0268025
0.0263382
0.0391915
0.035231
0.0230855
0.00348632
0.00122103
0.0264833
0.0343593
0.0395975
0.0427415
0.0585171
0.0637711
0.0656662
0.0597607
0.0356824
0.0515626
0.0223434
0.0487362
0.0208909
0.0459722
0.0341066
0.0330852
0.0296714
0.0255019
0.00106604
0.000669377
0.0030252
0.00151904
0.002294
0.0069587
0.0182114
0.0232626
0.024712
0.0225434
0.00945264
0.0263422
0.0101247
0.0335267
0.0152897
0.0284269
0.0111331
0.00252305
0.00170984
0.00256037
0.00056065
0.000142328
0.000240445
0.000342022
0.000719107
0.00181762
0.003008
0.00211989
0.00244079
0.00167174
0.00234347
0.010197
0.00666211
0.00833099
0.0102353
0.0108178
0.00336351
0.00131683
0.000613373
0.000319499
0.00017484
7.55422e-05
0.000131761
0.000195281
0.000284874
0.000335461
0.000448182
0.000142423
0.000151273
0.000160314
0.000938172
0.00342665
0.00540985
0.000796971
0.0111002
0.00485264
0.00136299
0.000710136
0.000423116
0.000271383
0.000115763
4.77435e-05
0.000103119
0.000125929
0.000154433
0.000171965
0.00017449
0.000100815
8.07967e-05
6.64026e-05
0.000324526
0.000968877
0.0017471
0.000298648
0.00322248
0.00130281
0.00061333
0.000400515
0.000276056
0.000215597
7.92319e-05
3.35013e-05
7.75822e-05
7.93086e-05
8.3831e-05
9.45125e-05
0.00010498
9.5953e-05
0.000100758
0.000106422
0.000187405
0.000456022
0.000660824
0.000299614
0.000799482
0.000493594
0.000295165
0.000203047
0.000165425
0.000151633
5.64677e-05
2.66839e-05
5.92014e-05
5.1041e-05
4.53883e-05
5.1414e-05
6.86003e-05
8.12895e-05
9.84123e-05
0.000118554
0.000165082
0.000293217
0.000386633
0.000275954
0.000370905
0.000262967
0.000148918
9.9509e-05
9.63663e-05
0.000108752
4.50305e-05
3.34867e-05
5.61527e-05
4.07266e-05
2.5059e-05
2.58231e-05
4.92588e-05
7.10311e-05
9.37899e-05
0.000120074
0.000160638
0.00023355
0.000301048
0.000246918
0.000265349
0.000170522
7.71672e-05
3.85466e-05
6.34577e-05
9.35947e-05
5.39072e-05
0.0317399
0.0278628
0.0193294
0.0209633
0.0107868
0.00946408
0.0110876
0.0108564
0.0114697
0.0102625
0.0135436
0.0160265
0.0148198
0.00674464
0.00823118
0.00896445
0.0188932
0.0193321
0.027953
0.0309081
0.00999405
0.0522015
0.0483783
0.0540273
0.00796757
0.00458991
0.00530076
0.00570305
0.00609069
0.00543691
0.00757491
0.0057001
0.00688921
0.00313644
0.00429057
0.00890731
0.0520808
0.0464267
0.0516455
0.00893386
0.00109112
0.0243558
0.0172311
0.0121715
0.00449818
0.0152561
0.0132781
0.0166782
0.0118714
0.00557253
0.021519
0.00351271
0.0374912
0.00289961
0.00895904
0.00537682
0.00901509
0.0145444
0.0229142
0.000934851
0.00124118
0.00595905
0.00217057
0.00252521
0.00414411
0.00397925
0.00364538
0.00375644
0.00350284
0.00275812
0.00421332
0.00338092
0.0123425
0.00366532
0.00369898
0.0035924
0.00127325
0.00144835
0.0054239
0.000952011
1.86363e-05
0.000589769
5.30138e-05
0.00031033
0.00332674
0.00423408
0.00382572
0.00373521
0.00241117
0.000907948
0.00386149
0.00269763
0.00324041
0.00282693
0.00426923
0.00318293
0.000272771
6.91521e-05
0.000140135
9.85188e-07
2.32283e-05
2.99109e-05
3.56443e-05
6.50266e-05
0.000537445
0.00231243
0.00102609
0.00106318
0.000149369
0.000567005
0.00380748
0.00363648
0.0030986
0.00397201
0.004032
0.00106263
0.000122798
5.61348e-05
4.0113e-05
3.0487e-05
1.82105e-05
2.55249e-05
2.83378e-05
3.30888e-05
5.05442e-05
0.000145219
6.66818e-05
6.41483e-05
3.4287e-05
0.000115715
0.0012688
0.00277515
0.000570487
0.00334822
0.00155031
0.000184197
5.91309e-05
4.13505e-05
3.53699e-05
2.3423e-05
1.55355e-05
2.21242e-05
2.31701e-05
2.53614e-05
2.86359e-05
3.3373e-05
3.1423e-05
3.27071e-05
3.34757e-05
4.54012e-05
0.000148109
0.000382994
8.16994e-05
0.000525771
0.000174734
5.47676e-05
3.81475e-05
3.1713e-05
2.93383e-05
1.98923e-05
1.43545e-05
1.98533e-05
1.95616e-05
2.03794e-05
2.30406e-05
2.6271e-05
2.84691e-05
3.09926e-05
3.36499e-05
3.90896e-05
5.40345e-05
7.70209e-05
4.93621e-05
8.13974e-05
5.2538e-05
3.61483e-05
2.82539e-05
2.5555e-05
2.56878e-05
1.86898e-05
2.49888e-05
2.71059e-05
2.28763e-05
1.87489e-05
1.9276e-05
2.35523e-05
2.693e-05
3.00712e-05
3.32866e-05
3.75261e-05
4.38571e-05
4.99302e-05
4.47353e-05
4.66847e-05
3.78663e-05
2.81993e-05
2.29245e-05
2.93893e-05
3.61959e-05
3.57379e-05
0.0437957
0.0651246
0.0239744
0.0183439
0.0260505
0.0334955
0.0125254
0.0137812
0.0121064
0.0196875
0.0100834
0.0307858
0.0206819
0.0457922
0.0295339
0.0234892
0.0172829
0.023832
0.0653431
0.0424824
0.0176685
0.0493236
0.0342315
0.0286384
0.00681583
0.0113475
0.00534564
0.00494924
0.00486405
0.00524992
0.00519482
0.00705338
0.00429168
0.0201401
0.0124992
0.0109394
0.0290158
0.0327891
0.0483033
0.0164627
0.00193134
0.0203983
0.0227559
0.0138089
0.0038418
0.00466302
0.0042141
0.00405409
0.00360149
0.0037032
0.00426651
0.00387174
0.00650252
0.00420863
0.00424186
0.00454507
0.0137198
0.0214892
0.0194174
0.00162098
0.00235115
0.0103193
0.00827304
0.00600084
0.00428338
0.00505869
0.00401564
0.00407383
0.00349684
0.00364635
0.00484813
0.00501566
0.00444312
0.00604694
0.00421473
0.00430746
0.00439046
0.00556458
0.00942502
0.00187252
0.000237023
0.00326755
6.46717e-05
0.00093803
0.00444895
0.00386488
0.00385794
0.00358047
0.00371473
0.00174181
0.00353141
0.00414745
0.00280245
0.00584959
0.00395749
0.00460451
0.000823961
4.37303e-05
0.00111877
6.89259e-05
1.46579e-05
2.34208e-05
2.20716e-05
9.28531e-05
0.00148787
0.00356563
0.00265812
0.00274553
0.00103836
0.000834578
0.00403854
0.00257575
0.00343545
0.00284236
0.00438178
0.0022041
0.000152791
2.9031e-05
2.1928e-05
1.90964e-05
1.44616e-05
1.72714e-05
1.84168e-05
2.19152e-05
7.68137e-05
0.000424645
0.000173622
0.000188011
4.01783e-05
0.00014461
0.0020282
0.00314558
0.00145569
0.00377633
0.00245297
0.000267466
3.87447e-05
2.21489e-05
1.96987e-05
1.67689e-05
1.31277e-05
1.61962e-05
1.68612e-05
1.80861e-05
2.0134e-05
2.98344e-05
2.37266e-05
2.44494e-05
2.15241e-05
3.13047e-05
0.000219466
0.000930367
0.000128016
0.00117195
0.000285218
3.93078e-05
2.25529e-05
1.94426e-05
1.83146e-05
1.53313e-05
1.27382e-05
1.5583e-05
1.5756e-05
1.6527e-05
1.77536e-05
1.89065e-05
1.94943e-05
2.02211e-05
2.09075e-05
2.27254e-05
3.49965e-05
8.50322e-05
2.89739e-05
9.76327e-05
3.7459e-05
2.25417e-05
1.94536e-05
1.80077e-05
1.77625e-05
1.53104e-05
2.4062e-05
2.39692e-05
2.06647e-05
1.71513e-05
1.65649e-05
1.79338e-05
1.89493e-05
1.98281e-05
2.06534e-05
2.16651e-05
2.32282e-05
2.63209e-05
2.29958e-05
2.60547e-05
2.21462e-05
1.96143e-05
1.89727e-05
2.54751e-05
3.10867e-05
3.39644e-05
0.0316721
0.0278689
0.0193286
0.0199968
0.010604
0.0103373
0.0109935
0.0112206
0.0111851
0.0102054
0.0133727
0.0163264
0.0146592
0.00668354
0.00801766
0.00764784
0.0186668
0.0193319
0.0279624
0.030926
0.00997556
0.052367
0.0485485
0.0514263
0.00716994
0.00506728
0.00524895
0.00605607
0.00576507
0.00546335
0.00735287
0.00579416
0.00664757
0.00300887
0.00415981
0.00800608
0.0514771
0.0465354
0.0518113
0.00895231
0.00109241
0.0244182
0.0172576
0.013725
0.0045067
0.0152743
0.0133418
0.0166594
0.0119626
0.0055699
0.0216485
0.00354098
0.0371928
0.00288452
0.00906638
0.0052752
0.0095481
0.01464
0.0229943
0.000933514
0.00124616
0.00595913
0.00216932
0.00251919
0.00413885
0.00395921
0.00364052
0.00372766
0.00350166
0.00275544
0.00419929
0.00341895
0.0122243
0.00366829
0.00367225
0.0035977
0.00126934
0.00144729
0.0054257
0.000954365
1.4208e-05
0.000589486
5.30117e-05
0.000311067
0.00332819
0.00423292
0.00382598
0.00373195
0.00241076
0.00090766
0.00386328
0.00271625
0.00323964
0.00282257
0.00426934
0.00317954
0.000272512
6.90911e-05
0.000140069
9.01271e-07
2.33678e-05
2.99001e-05
3.5632e-05
6.50432e-05
0.000538148
0.00231364
0.00102606
0.00106615
0.000149323
0.000565381
0.00381378
0.00366146
0.00309812
0.00397256
0.00403183
0.00106228
0.000122685
5.60886e-05
4.00927e-05
3.04915e-05
1.82698e-05
2.55284e-05
2.83328e-05
3.30806e-05
5.05457e-05
0.000145318
6.66599e-05
6.42209e-05
3.42683e-05
0.000115574
0.00126791
0.00277589
0.000569433
0.00334793
0.00155002
0.000184042
5.90698e-05
4.13251e-05
3.53558e-05
2.34717e-05
1.56179e-05
2.21487e-05
2.31838e-05
2.53682e-05
2.86372e-05
3.33737e-05
3.14232e-05
3.27066e-05
3.34711e-05
4.53711e-05
0.000147801
0.000381029
8.15686e-05
0.000525455
0.000174578
5.47164e-05
3.81319e-05
3.17087e-05
2.93398e-05
1.99553e-05
1.44536e-05
1.98968e-05
1.9593e-05
2.04056e-05
2.30583e-05
2.6282e-05
2.84775e-05
3.09967e-05
3.36488e-05
3.90772e-05
5.39801e-05
7.68415e-05
4.9322e-05
8.13179e-05
5.24917e-05
3.61366e-05
2.82591e-05
2.5565e-05
2.56985e-05
1.87683e-05
2.51087e-05
2.71639e-05
2.29326e-05
1.87948e-05
1.93087e-05
2.35719e-05
2.6941e-05
3.00743e-05
3.32821e-05
3.75121e-05
4.38294e-05
4.98844e-05
4.47041e-05
4.66464e-05
3.78458e-05
2.81997e-05
2.29441e-05
2.94132e-05
3.62192e-05
3.58413e-05
0.0303246
0.0387744
0.0310869
0.0164534
0.0143505
0.0165078
0.0192223
0.0166889
0.0175938
0.0135056
0.0194621
0.0385968
0.0284341
0.0143852
0.0137949
0.0136701
0.0158215
0.0312042
0.0395054
0.0299492
0.00358471
0.0229182
0.0356112
0.0385197
0.0292099
0.0328671
0.0392918
0.0412434
0.0415494
0.027033
0.0350907
0.0150967
0.0325894
0.0140724
0.0268841
0.026272
0.0386419
0.0351959
0.0230853
0.00348633
0.00121909
0.0265026
0.0343931
0.0380377
0.0420345
0.0583304
0.0638694
0.0656067
0.0597566
0.0355991
0.0515209
0.0217127
0.0489635
0.0208361
0.0460558
0.034165
0.0326381
0.02964
0.0254557
0.00107234
0.000672589
0.0030252
0.00151806
0.00229051
0.00697596
0.0181858
0.0232739
0.0247136
0.0224587
0.00942752
0.026316
0.0101838
0.0332135
0.0144409
0.0284426
0.0111836
0.00252224
0.00170884
0.00255956
0.000558302
0.000141378
0.000240633
0.000341873
0.000718175
0.00181789
0.00301184
0.00211875
0.00244437
0.00167122
0.00233902
0.0101945
0.00659675
0.00832842
0.0102284
0.0108025
0.00335232
0.00131421
0.000613113
0.000319449
0.000174874
7.56703e-05
0.000131754
0.000195281
0.000284906
0.000335497
0.000448198
0.000142345
0.000151376
0.000160241
0.000937999
0.0034203
0.00539023
0.000796329
0.0110759
0.00484542
0.0013628
0.00071036
0.000423105
0.000271361
0.000115846
4.78893e-05
0.000103145
0.00012594
0.000154451
0.000171962
0.000174436
0.000100794
8.07948e-05
6.64013e-05
0.000324287
0.000966369
0.00173757
0.000298231
0.00321593
0.00130144
0.000613081
0.000400429
0.000276008
0.000215581
7.93518e-05
3.36652e-05
7.76555e-05
7.9359e-05
8.38672e-05
9.45392e-05
0.000105003
9.59823e-05
0.000100787
0.00010645
0.000187399
0.000455741
0.000659742
0.000299531
0.000798974
0.00049343
0.000295127
0.000203033
0.000165421
0.000151649
5.6604e-05
2.68603e-05
5.92982e-05
5.1104e-05
4.54359e-05
5.14452e-05
6.86211e-05
8.13108e-05
9.84306e-05
0.000118567
0.000165082
0.000293172
0.000386541
0.000275929
0.000370824
0.000262922
0.000148902
9.95106e-05
9.63827e-05
0.000108781
4.51733e-05
3.36566e-05
5.62567e-05
4.08164e-05
2.51175e-05
2.58595e-05
4.92902e-05
7.106e-05
9.3814e-05
0.000120092
0.000160649
0.000233543
0.000301022
0.00024689
0.00026529
0.000170477
7.71559e-05
3.85774e-05
6.34965e-05
9.36304e-05
5.40291e-05
)
;

boundaryField
{
    aeration
    {
        type            fixedValue;
        value           uniform 0.00015;
    }
    xsides
    {
        type            epsilonWallFunction;
        value           nonuniform List<scalar> 
100
(
0.0482753
0.00234144
0.000909732
0.000525522
0.000193965
0.000137761
0.000109573
9.58856e-05
8.92484e-05
9.60997e-05
0.0120527
0.00214653
1.49795e-07
2.96124e-05
2.48193e-05
2.2867e-05
2.21426e-05
2.15275e-05
2.12423e-05
2.35151e-05
0.0177499
0.00530975
1.24071e-15
1.03471e-20
2.09563e-05
2.05411e-05
2.04833e-05
2.02664e-05
2.01871e-05
2.2492e-05
0.012006
0.00214318
1.50468e-07
2.94916e-05
2.49132e-05
2.28168e-05
2.20861e-05
2.14691e-05
2.1182e-05
2.34546e-05
0.0481803
0.00234756
0.000910922
0.000523454
0.000193465
0.000137506
0.000109335
9.56659e-05
8.9037e-05
9.58762e-05
0.0466891
0.00224729
0.000889522
0.000504123
0.000231396
0.00017863
0.000140655
0.000118554
0.00010752
0.00011692
0.0114033
0.00185576
8.41886e-08
2.88623e-05
2.73912e-05
2.47552e-05
2.36851e-05
2.27064e-05
2.23268e-05
2.59057e-05
0.0168794
0.00478526
7.2613e-15
4.1289e-19
2.34526e-05
2.14261e-05
2.12475e-05
2.08312e-05
2.07415e-05
2.44786e-05
0.0114066
0.00186469
8.83877e-08
2.89513e-05
2.74233e-05
2.46852e-05
2.36148e-05
2.2637e-05
2.22548e-05
2.58391e-05
0.0467994
0.00224828
0.000888296
0.000507014
0.000230615
0.000178326
0.00014034
0.000118268
0.000107238
0.000116639
)
;
        Cmu             0.09;
        kappa           0.41;
        E               9.8;
        value           nonuniform List<scalar> 
100
(
0.0482753
0.00234144
0.000909732
0.000525522
0.000193965
0.000137761
0.000109573
9.58856e-05
8.92484e-05
9.60997e-05
0.0120527
0.00214653
1.49795e-07
2.96124e-05
2.48193e-05
2.2867e-05
2.21426e-05
2.15275e-05
2.12423e-05
2.35151e-05
0.0177499
0.00530975
1.24071e-15
1.03471e-20
2.09563e-05
2.05411e-05
2.04833e-05
2.02664e-05
2.01871e-05
2.2492e-05
0.012006
0.00214318
1.50468e-07
2.94916e-05
2.49132e-05
2.28168e-05
2.20861e-05
2.14691e-05
2.1182e-05
2.34546e-05
0.0481803
0.00234756
0.000910922
0.000523454
0.000193465
0.000137506
0.000109335
9.56659e-05
8.9037e-05
9.58762e-05
0.0466891
0.00224729
0.000889522
0.000504123
0.000231396
0.00017863
0.000140655
0.000118554
0.00010752
0.00011692
0.0114033
0.00185576
8.41886e-08
2.88623e-05
2.73912e-05
2.47552e-05
2.36851e-05
2.27064e-05
2.23268e-05
2.59057e-05
0.0168794
0.00478526
7.2613e-15
4.1289e-19
2.34526e-05
2.14261e-05
2.12475e-05
2.08312e-05
2.07415e-05
2.44786e-05
0.0114066
0.00186469
8.83877e-08
2.89513e-05
2.74233e-05
2.46852e-05
2.36148e-05
2.2637e-05
2.22548e-05
2.58391e-05
0.0467994
0.00224828
0.000888296
0.000507014
0.000230615
0.000178326
0.00014034
0.000118268
0.000107238
0.000116639
)
;
    }
    zsides
    {
        type            epsilonWallFunction;
        value           nonuniform List<scalar> 
400
(
0.0482753
0.00234144
0.000909732
0.000525522
0.000193965
0.000137761
0.000109573
9.58856e-05
8.92484e-05
9.60997e-05
0.106387
0.0313446
0.025421
0.00121301
0.000329827
0.000261964
0.000226091
0.000194402
0.000172434
0.000175934
0.0767255
0.0473747
0.0313012
0.00132947
0.00049116
0.000337982
0.000253315
0.000198093
0.000163822
0.000155149
0.0445774
0.0569302
0.0382002
0.00179206
0.000829493
0.000439263
0.000291576
0.000208522
0.000162036
0.000138028
1.59208e-06
2.76163e-18
0.0469171
0.0049829
0.00111236
0.00045937
0.000320356
0.000227862
0.000175452
0.000144255
1.43601e-10
5.28064e-20
0.0794966
0.0131551
0.000856341
0.000360836
0.000322809
0.000246545
0.00020088
0.000176618
1.37133e-10
5.28064e-20
0.0912084
0.0169398
0.000877783
0.000194103
0.000247192
0.000241275
0.000220494
0.000206583
0.000113642
5.28064e-20
0.0979017
0.0183734
0.00108537
0.000191561
0.000229964
0.000251413
0.000245099
0.000237514
0.00189399
5.28064e-20
0.0838545
0.0165043
0.00121586
0.000265565
0.000214411
0.000261803
0.000272801
0.000272395
0.000820969
1.55492e-18
0.0417792
0.00768631
0.00290071
0.000965684
0.000488081
0.000355249
0.00033115
0.000323469
0.0116786
5.27989e-20
0.0794965
0.0264027
0.00821778
0.0020524
0.00100738
0.000657626
0.000479919
0.000409477
0.0572393
5.28064e-20
5.28064e-20
5.28064e-20
0.00454972
0.00292394
0.00138131
0.000874153
0.0005954
0.000491127
0.0320737
5.28064e-20
0.088229
0.0406197
0.00528493
0.0002833
0.000442521
0.000501363
0.000467061
0.000428328
0.00778355
5.28054e-20
5.28064e-20
5.28064e-20
0.00813273
0.00724461
0.00221071
0.000950107
0.000567246
0.000444241
9.05489e-07
7.14006e-20
0.0587595
0.0294625
0.010056
0.0032193
0.00124864
0.000691348
0.000437322
0.000328033
1.42871e-05
1.72475e-17
0.0395052
0.00876949
0.00287081
0.00138706
0.000816157
0.000465668
0.000297067
0.000214173
0.0461586
0.0538403
0.0302168
0.00278047
0.00161414
0.00093015
0.000574013
0.000349696
0.000229884
0.000160712
0.0770976
0.0461081
0.026684
0.00178167
0.000822199
0.000606534
0.000425914
0.000298265
0.00021722
0.000186271
0.107202
0.0320615
0.0246887
0.00109029
0.00046844
0.000423137
0.000354022
0.000278696
0.000228619
0.000222742
0.0466891
0.00224729
0.000889522
0.000504123
0.000231396
0.00017863
0.000140655
0.000118554
0.00010752
0.00011692
0.0481803
0.00234756
0.000910922
0.000523454
0.000193465
0.000137506
0.000109335
9.56659e-05
8.9037e-05
9.58762e-05
0.106544
0.0314715
0.0254443
0.00122121
0.000329511
0.000261716
0.000225841
0.000194206
0.000172251
0.000175781
0.0768624
0.0475786
0.0312561
0.00132708
0.000490854
0.000337733
0.000253077
0.000197907
0.000163642
0.000155002
0.0412695
0.0543116
0.0368837
0.00178401
0.000828918
0.000439033
0.000291353
0.000208328
0.000161854
0.000137867
9.47946e-07
2.98498e-18
0.0461545
0.00497884
0.00111397
0.000458938
0.000320093
0.00022766
0.000175257
0.000144072
1.10674e-10
5.28064e-20
0.0791734
0.0131247
0.000858181
0.000360208
0.00032245
0.000246337
0.000200671
0.000176426
7.82559e-11
5.28064e-20
0.091298
0.0169357
0.000876611
0.000193705
0.000246896
0.000241087
0.000220293
0.000206388
5.8422e-05
5.28064e-20
0.0976105
0.0183503
0.00108644
0.000191072
0.000229674
0.000251223
0.000244898
0.000237314
0.00201033
5.28064e-20
0.0839017
0.0164336
0.00121482
0.000265174
0.000214156
0.000261617
0.000272592
0.000272188
0.000780099
1.37165e-18
0.0416795
0.00766424
0.00290309
0.000964844
0.000487558
0.000355012
0.000330919
0.00032325
0.0116378
5.2799e-20
0.0795418
0.0263399
0.00821419
0.00204488
0.0010048
0.000657077
0.000479615
0.000409226
0.0588611
5.28064e-20
5.28064e-20
5.28064e-20
0.00447347
0.00289931
0.00137333
0.000873153
0.000595042
0.000490841
0.0323367
5.28064e-20
0.0885237
0.0400724
0.00527813
0.000281924
0.000441696
0.000500985
0.000466789
0.000428048
0.00900785
5.28054e-20
5.28064e-20
5.28064e-20
0.0081102
0.007216
0.00220573
0.000949481
0.000566892
0.000443904
9.44094e-07
6.88483e-20
0.0589591
0.0294606
0.0100693
0.00320922
0.00124669
0.000690849
0.000436997
0.000327722
7.44394e-06
1.86784e-17
0.0395683
0.0087915
0.00287017
0.00138474
0.000815528
0.000465341
0.000296792
0.000213917
0.045034
0.0531071
0.0298807
0.00277752
0.00161202
0.000929756
0.000573624
0.000349418
0.000229639
0.000160517
0.077124
0.0460188
0.0266025
0.00177957
0.000821512
0.000606212
0.000425575
0.000297994
0.000216978
0.000186079
0.107427
0.0320413
0.0245714
0.00108976
0.000468019
0.000422836
0.000353712
0.000278421
0.000228357
0.000222515
0.0467994
0.00224828
0.000888296
0.000507014
0.000230615
0.000178326
0.00014034
0.000118268
0.000107238
0.000116639
)
;
        Cmu             0.09;
        kappa           0.41;
        E               9.8;
        value           nonuniform List<scalar> 
400
(
0.0482753
0.00234144
0.000909732
0.000525522
0.000193965
0.000137761
0.000109573
9.58856e-05
8.92484e-05
9.60997e-05
0.106387
0.0313446
0.025421
0.00121301
0.000329827
0.000261964
0.000226091
0.000194402
0.000172434
0.000175934
0.0767255
0.0473747
0.0313012
0.00132947
0.00049116
0.000337982
0.000253315
0.000198093
0.000163822
0.000155149
0.0445774
0.0569302
0.0382002
0.00179206
0.000829493
0.000439263
0.000291576
0.000208522
0.000162036
0.000138028
1.59208e-06
2.76163e-18
0.0469171
0.0049829
0.00111236
0.00045937
0.000320356
0.000227862
0.000175452
0.000144255
1.43601e-10
5.28064e-20
0.0794966
0.0131551
0.000856341
0.000360836
0.000322809
0.000246545
0.00020088
0.000176618
1.37133e-10
5.28064e-20
0.0912084
0.0169398
0.000877783
0.000194103
0.000247192
0.000241275
0.000220494
0.000206583
0.000113642
5.28064e-20
0.0979017
0.0183734
0.00108537
0.000191561
0.000229964
0.000251413
0.000245099
0.000237514
0.00189399
5.28064e-20
0.0838545
0.0165043
0.00121586
0.000265565
0.000214411
0.000261803
0.000272801
0.000272395
0.000820969
1.55492e-18
0.0417792
0.00768631
0.00290071
0.000965684
0.000488081
0.000355249
0.00033115
0.000323469
0.0116786
5.27989e-20
0.0794965
0.0264027
0.00821778
0.0020524
0.00100738
0.000657626
0.000479919
0.000409477
0.0572393
5.28064e-20
5.28064e-20
5.28064e-20
0.00454972
0.00292394
0.00138131
0.000874153
0.0005954
0.000491127
0.0320737
5.28064e-20
0.088229
0.0406197
0.00528493
0.0002833
0.000442521
0.000501363
0.000467061
0.000428328
0.00778355
5.28054e-20
5.28064e-20
5.28064e-20
0.00813273
0.00724461
0.00221071
0.000950107
0.000567246
0.000444241
9.05489e-07
7.14006e-20
0.0587595
0.0294625
0.010056
0.0032193
0.00124864
0.000691348
0.000437322
0.000328033
1.42871e-05
1.72475e-17
0.0395052
0.00876949
0.00287081
0.00138706
0.000816157
0.000465668
0.000297067
0.000214173
0.0461586
0.0538403
0.0302168
0.00278047
0.00161414
0.00093015
0.000574013
0.000349696
0.000229884
0.000160712
0.0770976
0.0461081
0.026684
0.00178167
0.000822199
0.000606534
0.000425914
0.000298265
0.00021722
0.000186271
0.107202
0.0320615
0.0246887
0.00109029
0.00046844
0.000423137
0.000354022
0.000278696
0.000228619
0.000222742
0.0466891
0.00224729
0.000889522
0.000504123
0.000231396
0.00017863
0.000140655
0.000118554
0.00010752
0.00011692
0.0481803
0.00234756
0.000910922
0.000523454
0.000193465
0.000137506
0.000109335
9.56659e-05
8.9037e-05
9.58762e-05
0.106544
0.0314715
0.0254443
0.00122121
0.000329511
0.000261716
0.000225841
0.000194206
0.000172251
0.000175781
0.0768624
0.0475786
0.0312561
0.00132708
0.000490854
0.000337733
0.000253077
0.000197907
0.000163642
0.000155002
0.0412695
0.0543116
0.0368837
0.00178401
0.000828918
0.000439033
0.000291353
0.000208328
0.000161854
0.000137867
9.47946e-07
2.98498e-18
0.0461545
0.00497884
0.00111397
0.000458938
0.000320093
0.00022766
0.000175257
0.000144072
1.10674e-10
5.28064e-20
0.0791734
0.0131247
0.000858181
0.000360208
0.00032245
0.000246337
0.000200671
0.000176426
7.82559e-11
5.28064e-20
0.091298
0.0169357
0.000876611
0.000193705
0.000246896
0.000241087
0.000220293
0.000206388
5.8422e-05
5.28064e-20
0.0976105
0.0183503
0.00108644
0.000191072
0.000229674
0.000251223
0.000244898
0.000237314
0.00201033
5.28064e-20
0.0839017
0.0164336
0.00121482
0.000265174
0.000214156
0.000261617
0.000272592
0.000272188
0.000780099
1.37165e-18
0.0416795
0.00766424
0.00290309
0.000964844
0.000487558
0.000355012
0.000330919
0.00032325
0.0116378
5.2799e-20
0.0795418
0.0263399
0.00821419
0.00204488
0.0010048
0.000657077
0.000479615
0.000409226
0.0588611
5.28064e-20
5.28064e-20
5.28064e-20
0.00447347
0.00289931
0.00137333
0.000873153
0.000595042
0.000490841
0.0323367
5.28064e-20
0.0885237
0.0400724
0.00527813
0.000281924
0.000441696
0.000500985
0.000466789
0.000428048
0.00900785
5.28054e-20
5.28064e-20
5.28064e-20
0.0081102
0.007216
0.00220573
0.000949481
0.000566892
0.000443904
9.44094e-07
6.88483e-20
0.0589591
0.0294606
0.0100693
0.00320922
0.00124669
0.000690849
0.000436997
0.000327722
7.44394e-06
1.86784e-17
0.0395683
0.0087915
0.00287017
0.00138474
0.000815528
0.000465341
0.000296792
0.000213917
0.045034
0.0531071
0.0298807
0.00277752
0.00161202
0.000929756
0.000573624
0.000349418
0.000229639
0.000160517
0.077124
0.0460188
0.0266025
0.00177957
0.000821512
0.000606212
0.000425575
0.000297994
0.000216978
0.000186079
0.107427
0.0320413
0.0245714
0.00108976
0.000468019
0.000422836
0.000353712
0.000278421
0.000228357
0.000222515
0.0467994
0.00224828
0.000888296
0.000507014
0.000230615
0.000178326
0.00014034
0.000118268
0.000107238
0.000116639
)
;
    }
    outlet
    {
        type            inletOutlet;
        phi             phi.water;
        inletValue      uniform 0.00015;
        value           nonuniform List<scalar> 
100
(
0.00015
0.00015
0.00015
0.00015
0.00015
0.00015
0.00015
0.00015
0.00015
0.00015
0.00015
0.00015
0.00015
0.00015
0.00015
0.00015
0.00015
0.00015
0.00015
0.00015
2.58231e-05
1.9276e-05
1.65649e-05
1.93087e-05
2.58595e-05
4.92588e-05
2.35523e-05
1.79338e-05
2.35719e-05
4.92902e-05
7.10311e-05
2.693e-05
1.89493e-05
2.6941e-05
7.106e-05
9.37899e-05
3.00712e-05
1.98281e-05
3.00743e-05
9.3814e-05
0.000120074
3.32866e-05
2.06534e-05
3.32821e-05
0.000120092
0.000160638
3.75261e-05
2.16651e-05
3.75121e-05
0.000160649
0.00023355
4.38571e-05
2.32282e-05
4.38294e-05
0.000233543
0.000301048
4.99302e-05
2.63209e-05
4.98844e-05
0.000301022
0.000246918
4.47353e-05
2.29958e-05
4.47041e-05
0.00024689
0.000265349
4.66847e-05
2.60547e-05
4.66464e-05
0.00026529
0.000170522
3.78663e-05
2.21462e-05
3.78458e-05
0.000170477
7.71672e-05
2.81993e-05
1.96143e-05
2.81997e-05
7.71559e-05
0.00015
0.00015
0.00015
0.00015
0.00015
0.00015
0.00015
0.00015
0.00015
0.00015
0.00015
0.00015
0.00015
0.00015
0.00015
0.00015
0.00015
0.00015
0.00015
0.00015
)
;
    }
}


// ************************************************************************* //
