/*--------------------------------*- C++ -*----------------------------------*\
| =========                 |                                                 |
| \\      /  F ield         | OpenFOAM: The Open Source CFD Toolbox           |
|  \\    /   O peration     | Version:  2.3.0                                 |
|   \\  /    A nd           | Web:      www.OpenFOAM.org                      |
|    \\/     M anipulation  |                                                 |
\*---------------------------------------------------------------------------*/
FoamFile
{
    version     2.0;
    format      ascii;
    class       volVectorField;
    location    "1.09898";
    object      U.airMean;
}
// * * * * * * * * * * * * * * * * * * * * * * * * * * * * * * * * * * * * * //

dimensions      [0 1 -1 0 0 0 0];

internalField   nonuniform List<vector> 
1000
(
(0.0012153 -0.017541 0.000505133)
(0.00106657 -0.0172164 0.000964001)
(-0.000217087 -0.0180133 0.00119753)
(0.000121064 -0.0160778 0.00109994)
(0.00108408 -0.0150525 0.000990471)
(0.000528468 -0.0147592 0.00101352)
(0.000122829 -0.0136447 0.00102994)
(0.000185847 -0.0135904 0.00103551)
(-0.000147549 -0.013113 0.00102681)
(-5.89663e-05 -0.0137237 0.00109896)
(0.000520542 -0.012256 0.00106429)
(0.000388462 -0.0115727 0.000758784)
(0.000286253 -0.011888 0.000878916)
(-0.00030245 -0.0129991 0.000892858)
(-0.00106401 -0.0142118 0.000985291)
(-0.000873083 -0.0151099 0.00103299)
(-0.000492333 -0.0160297 0.00110972)
(3.45748e-05 -0.0180655 0.0011995)
(-0.00118329 -0.0172749 0.000966944)
(-0.00124504 -0.0176521 0.000510898)
(0.00181119 0.00177778 0.000839892)
(0.00244765 -0.000619784 0.000807439)
(0.0022477 -0.00404534 0.000704469)
(0.00278524 -0.00426064 0.000746633)
(0.00281734 -0.00420416 0.000661924)
(0.00214522 -0.00372191 0.000783098)
(0.00125851 -0.00427398 0.00078788)
(0.000634621 -0.00441739 0.000771154)
(9.87514e-05 -0.00488952 0.000682618)
(0.00105793 -0.00603507 0.000565059)
(0.00234254 -0.00434116 0.000787172)
(0.000709139 -0.00306054 0.000952987)
(-0.000830182 -0.00330555 0.000885324)
(-0.00225178 -0.00306947 0.000901945)
(-0.00356365 -0.00429767 0.000700255)
(-0.00358247 -0.00491887 0.000684711)
(-0.00349113 -0.00444757 0.000675335)
(-0.0025376 -0.00414391 0.000660301)
(-0.00258003 -0.000676599 0.000795052)
(-0.00185577 0.00166812 0.000818256)
(-0.000485763 -0.00479232 -0.000279134)
(0.00030034 -0.00386704 -0.000804982)
(0.00139402 -0.00668907 -0.00102811)
(0.00214058 -0.00819245 -0.000945638)
(0.00268096 -0.00840027 -0.000839874)
(0.00214454 -0.00793238 -0.000485045)
(0.00114726 -0.0094254 -0.000584595)
(0.000583592 -0.00952415 -0.000557202)
(0.000613279 -0.0106533 -0.000748968)
(0.00174997 -0.011316 -0.000779056)
(0.00300376 -0.00966648 -0.000377549)
(0.00115687 -0.00875492 -1.48078e-05)
(-0.000496321 -0.0086823 -0.000208186)
(-0.001909 -0.00790629 3.24832e-05)
(-0.00393178 -0.00894839 -0.000386384)
(-0.00439463 -0.00917376 -0.000601503)
(-0.00353913 -0.00818827 -0.00100551)
(-0.00195166 -0.00632821 -0.00112396)
(-0.000336004 -0.00378614 -0.000833718)
(0.000469365 -0.00473188 -0.000283033)
(-0.00144691 -0.000770658 -7.96979e-05)
(-0.00117844 0.000898425 -0.000405091)
(-0.000115889 -0.000588953 -0.00024225)
(-0.00101727 -0.00126026 -0.000311605)
(-0.00114777 -0.00164835 -0.000502721)
(-0.000634679 -0.000716297 -0.00107158)
(-7.16149e-05 -0.00216457 -0.00101039)
(4.60073e-05 -0.00231376 -0.00107541)
(0.00187821 -0.00359249 -0.000857314)
(0.00100894 -0.00525086 -0.000592541)
(0.000383191 -0.0038379 -0.00118914)
(0.000444131 -0.00166802 -0.00157922)
(0.000504859 -0.00346967 -0.00146466)
(0.00110069 -0.001072 -0.00146929)
(0.000248696 -0.00391965 -0.000894869)
(-5.43477e-05 -0.00311138 -0.000786841)
(0.000616609 -0.00229133 -0.000215071)
(-0.000423396 -0.000885005 -0.000175924)
(0.000870164 0.000564265 -0.000391888)
(0.0012902 -0.000974008 -7.3515e-05)
(-0.000697698 0.000362125 -2.31828e-05)
(-0.000776067 0.00149188 -0.000106847)
(-0.000629609 0.0008953 -6.40101e-05)
(-0.00159483 0.000787232 -9.94047e-05)
(-0.00206059 0.00104929 -0.000213455)
(-0.00125138 0.00217164 -0.000442985)
(-9.43288e-05 0.00115 -0.00034662)
(0.000162696 0.000979137 -0.000352441)
(0.00133258 0.000198706 -0.000246958)
(-0.000950513 -0.00137689 -0.000124469)
(-0.00241872 0.000194177 -0.000446634)
(-6.21603e-05 0.00179327 -0.000888578)
(0.000495986 -0.000599055 -0.000551228)
(0.00204336 0.0022256 -0.000979258)
(0.00313734 -0.000480392 -0.000353885)
(0.00247229 -0.000709694 -0.000260702)
(0.00175354 -0.000474331 -7.40285e-05)
(0.000561376 0.00011249 -4.11377e-05)
(0.000667916 0.000887132 -8.89747e-05)
(0.000631838 -9.71167e-05 -1.59022e-05)
(-0.000355589 0.000899816 -3.8274e-07)
(-0.000550532 0.00139707 -1.31734e-05)
(-0.000679783 0.00122558 -1.94278e-06)
(-0.00117309 0.00147679 -1.27289e-05)
(-0.00138918 0.00213183 -6.00693e-05)
(-0.000912653 0.00294707 -9.12465e-05)
(-0.000320502 0.0026719 -9.53029e-05)
(-0.000118005 0.00254921 -9.41241e-05)
(0.000204452 0.00211446 -6.4568e-05)
(-0.00109982 0.00124877 -1.94868e-05)
(-0.00193254 0.00303907 -0.000221457)
(0.00012125 0.00441832 -0.000362785)
(0.000390638 0.0026626 -0.000221322)
(0.00133344 0.0047102 -0.000407826)
(0.00299125 0.00228837 -0.000175332)
(0.00251502 0.0011162 -6.69785e-05)
(0.00166384 0.000546679 -2.37948e-06)
(0.000850431 0.000459866 2.02337e-06)
(0.0005753 0.000728082 -5.75114e-06)
(0.000338351 0.000309057 2.47965e-06)
(-0.000193459 0.00125339 -1.68399e-07)
(-0.000390769 0.00146285 -2.67639e-06)
(-0.00056197 0.00150569 -1.50574e-06)
(-0.00081156 0.00175804 -2.59088e-06)
(-0.00090142 0.00221603 -1.01865e-05)
(-0.0006704 0.00270569 -1.33266e-05)
(-0.000373067 0.0026639 -1.07551e-05)
(-0.000239839 0.00266932 -1.53163e-05)
(-0.00019719 0.00250295 -6.49717e-06)
(-0.000714808 0.00230839 -1.18363e-06)
(-0.00105583 0.00344917 -4.42159e-05)
(0.000155177 0.00433664 -5.58985e-05)
(0.000410767 0.00324338 -3.98015e-05)
(0.000928548 0.00439899 -6.71505e-05)
(0.00201163 0.00287517 -4.92054e-05)
(0.00180997 0.00174758 -1.31041e-05)
(0.00130069 0.0010986 -1.3216e-06)
(0.000790972 0.000846377 -9.74421e-07)
(0.000469397 0.000817046 -2.10602e-06)
(0.000199253 0.00065466 -9.59231e-07)
(-0.000107 0.00151633 -9.81429e-07)
(-0.000257721 0.00161643 -2.06718e-06)
(-0.000393434 0.00173084 -1.03601e-06)
(-0.000520365 0.00194585 -6.45837e-07)
(-0.000559018 0.00224734 -4.67055e-07)
(-0.000452448 0.00255332 -1.39275e-06)
(-0.000311771 0.00263926 3.79387e-07)
(-0.000235718 0.00270912 -2.92195e-07)
(-0.000224438 0.00270736 6.79409e-07)
(-0.000401259 0.00275553 9.71281e-07)
(-0.000484534 0.00333496 -6.64752e-06)
(0.00011865 0.00380139 -2.23231e-06)
(0.000348235 0.00317204 -5.48943e-06)
(0.000646417 0.00363745 -1.32746e-06)
(0.00119527 0.00278374 -8.23557e-06)
(0.00113281 0.00198464 -2.00083e-06)
(0.000876464 0.00145907 -2.47273e-07)
(0.000586139 0.00116673 -7.52337e-07)
(0.000343886 0.00102416 -1.9232e-06)
(0.000129485 0.000938639 -2.6521e-07)
(-6.15749e-05 0.00167385 1.20889e-07)
(-0.000151226 0.00174623 -7.57507e-07)
(-0.000229292 0.00187152 -1.15638e-06)
(-0.000292667 0.00206017 -6.70606e-07)
(-0.00031028 0.00229049 -1.52304e-07)
(-0.000264513 0.00250993 -2.41652e-07)
(-0.000202533 0.00264131 2.40162e-07)
(-0.000165002 0.00274031 2.41658e-07)
(-0.000158354 0.00280903 5.3044e-07)
(-0.000203879 0.00290037 1.02384e-06)
(-0.000208926 0.00316886 -3.15393e-07)
(7.57478e-05 0.00337247 -1.99296e-06)
(0.000224351 0.00305548 1.32119e-07)
(0.000378291 0.00311919 -2.27484e-06)
(0.000639977 0.00261359 -1.19727e-06)
(0.000624365 0.00207043 1.13736e-07)
(0.00050616 0.00165458 1.31466e-07)
(0.000353402 0.00136287 -5.80523e-07)
(0.000204732 0.00118648 -3.69591e-07)
(7.09293e-05 0.00111373 1.18598e-07)
(-1.77667e-05 0.0017593 1.83219e-06)
(-5.0685e-05 0.00182355 -4.39446e-07)
(-7.90264e-05 0.00194624 -1.81443e-07)
(-9.84871e-05 0.00211901 -2.3975e-07)
(-0.000103341 0.00231887 -1.07755e-08)
(-9.0924e-05 0.00251112 -3.38675e-08)
(-7.29777e-05 0.00265309 3.98575e-08)
(-6.04343e-05 0.00276542 7.11125e-08)
(-5.58831e-05 0.00285783 2.57272e-07)
(-5.92372e-05 0.00295896 4.30893e-07)
(-5.15217e-05 0.00309665 1.47637e-07)
(3.10162e-05 0.00319384 -5.34016e-07)
(8.35142e-05 0.00298772 2.22267e-07)
(0.000132941 0.002911 -8.47692e-07)
(0.000205339 0.00253008 -2.75284e-07)
(0.000202734 0.00211404 1.3477e-07)
(0.000168947 0.00174316 -5.07671e-09)
(0.000119474 0.00146111 -2.59766e-08)
(7.0867e-05 0.00127678 -2.98409e-08)
(2.43535e-05 0.00120964 2.59706e-06)
(0.00175238 -0.0189256 0.000486871)
(0.00181659 -0.0165508 0.00141226)
(9.01822e-06 -0.0166306 0.00168666)
(0.000123686 -0.0158081 0.00108215)
(0.0015375 -0.0146305 0.00126202)
(0.000790487 -0.0140997 0.00185133)
(0.000231841 -0.0136316 0.00132255)
(0.000411817 -0.0133705 0.00152141)
(2.87823e-05 -0.0132728 0.00150092)
(0.000129461 -0.0135128 0.00161891)
(0.000396623 -0.0130844 0.00112804)
(0.00035769 -0.0128142 0.00188401)
(0.000416379 -0.0132211 0.0013784)
(-0.000245014 -0.0136583 0.00245406)
(-0.00116027 -0.014055 0.00181727)
(-0.00130954 -0.0141677 0.00171484)
(-0.000688206 -0.0158256 0.00121617)
(-0.000265012 -0.0166697 0.00168073)
(-0.00198898 -0.016607 0.00139671)
(-0.00179023 -0.0189965 0.000495718)
(0.00181996 0.0112501 4.63802e-06)
(0.00179805 0.0170614 0.000650758)
(0.0015197 0.0146696 0.000736378)
(0.00174382 0.0123285 0.00155729)
(0.00129515 0.0112734 0.00164473)
(0.0008282 0.0107087 0.00149023)
(0.000332583 0.0110366 0.00191514)
(0.000122384 0.0107303 0.00185077)
(-0.000279906 0.0104338 0.00191119)
(3.19501e-05 0.0108505 0.0016125)
(0.0013144 0.0124427 0.00168177)
(0.00050941 0.00834014 0.00190756)
(-0.000527902 0.0109087 0.00189534)
(-0.00104 0.00815074 0.00139972)
(-0.00143081 0.0112362 0.00121236)
(-0.00112977 0.0106383 0.00153174)
(-0.00204274 0.0118354 0.00157429)
(-0.00166628 0.0144536 0.000689831)
(-0.00190108 0.0169039 0.00064958)
(-0.0018507 0.0109488 -2.87392e-05)
(-0.00049143 -0.000737099 -0.000412867)
(0.000165659 0.00933152 -0.00106257)
(0.000986949 0.00557442 -0.00114943)
(0.00123316 0.00460077 -0.00130965)
(0.0016402 0.00615126 -0.00124591)
(0.00120994 0.00864289 -0.000748872)
(0.000617221 0.00684785 -0.000884358)
(0.000322896 0.00696942 -0.000837638)
(0.000237999 0.00548402 -0.0010635)
(0.00113022 0.00348491 -0.000948208)
(0.00245388 0.00544816 -1.4042e-05)
(0.000728803 0.00462417 0.000375742)
(-0.0004822 0.00532508 5.91168e-05)
(-0.00151117 0.00611847 0.000151659)
(-0.0027177 0.00565658 -0.000134106)
(-0.00246696 0.0064367 -0.000612545)
(-0.00192797 0.00351241 -0.00130597)
(-0.0013094 0.00527443 -0.00127135)
(-0.000189184 0.00906887 -0.00110422)
(0.000487978 -0.00094853 -0.000414344)
(-0.00137374 0.000304518 -0.000139271)
(-0.00109161 0.00558915 -0.000677137)
(-6.36932e-05 0.00191242 -0.000498129)
(-0.000983588 0.00229658 -0.000601146)
(-0.00134915 0.0047809 -0.000808406)
(-0.000701122 0.00927053 -0.00163565)
(1.2735e-05 0.00693935 -0.00155369)
(0.000186073 0.00721526 -0.00164001)
(0.00131519 0.00428965 -0.00135065)
(0.000689554 0.000526403 -0.000994766)
(0.000311246 0.00678004 -0.00156107)
(0.000229531 0.0151039 -0.00192489)
(0.000357276 0.00896868 -0.00199463)
(0.0007841 0.0165929 -0.00177404)
(0.000458984 0.00530811 -0.00119137)
(0.000232625 0.00452764 -0.00109519)
(0.00055361 0.000611787 -0.0005498)
(-0.000428654 0.001101 -0.000441313)
(0.000836348 0.00478862 -0.000662213)
(0.00126469 -0.000115131 -0.00014066)
(-0.000778639 0.000861457 -6.33772e-05)
(-0.000875743 0.00263147 -0.0001574)
(-0.000723502 0.00171637 -0.00010924)
(-0.00173529 0.00187505 -0.000158604)
(-0.00221638 0.00379798 -0.000326036)
(-0.00133284 0.00678396 -0.00077351)
(-0.000237955 0.00514644 -0.000638253)
(8.75313e-05 0.00524497 -0.000675962)
(0.00130775 0.00296641 -0.000460652)
(-0.000671598 0.000155459 -0.000254924)
(-0.00256132 0.00574329 -0.00075661)
(-0.000104666 0.0103643 -0.00149617)
(0.000510028 0.00596344 -0.00115822)
(0.00189635 0.0114632 -0.00164528)
(0.00342773 0.004781 -0.000557032)
(0.00261631 0.00227001 -0.000455149)
(0.00196592 0.000434021 -0.000117654)
(0.000696209 0.000770641 -6.71372e-05)
(0.000762486 0.00179182 -0.000133244)
(0.000713843 0.000323844 -5.76827e-05)
(-0.000387637 0.00133541 -6.38782e-06)
(-0.00061307 0.00211936 -2.82946e-05)
(-0.000766465 0.00189309 -8.20257e-06)
(-0.00132962 0.00223289 -2.63335e-05)
(-0.0015719 0.00320762 -9.42571e-05)
(-0.00104381 0.00460322 -0.000156326)
(-0.000381401 0.00399188 -0.000144431)
(-0.000142598 0.00395521 -0.00014223)
(0.000220403 0.00308483 -0.00010599)
(-0.0011188 0.00214107 -3.43526e-05)
(-0.00220442 0.00566109 -0.000321466)
(0.00010938 0.00831858 -0.000609394)
(0.000454453 0.00530543 -0.000345998)
(0.00138701 0.00871232 -0.000699971)
(0.00322829 0.00486031 -0.00024593)
(0.00279658 0.00227912 -0.000116125)
(0.00192555 0.00123058 -1.94422e-05)
(0.000988877 0.00105455 -2.21612e-06)
(0.000652775 0.00135287 -1.69803e-05)
(0.000371382 0.000691928 -1.9483e-06)
(-0.000208652 0.00163864 -7.10512e-07)
(-0.000431281 0.00204099 -2.87219e-06)
(-0.000626752 0.00207317 -2.2699e-06)
(-0.000912595 0.00238895 -4.05056e-06)
(-0.00102034 0.00297394 -1.72937e-05)
(-0.000762629 0.00355305 -1.9998e-05)
(-0.00042836 0.00349877 -1.86905e-05)
(-0.000279598 0.00351817 -2.41444e-05)
(-0.000240301 0.00327874 -1.47349e-05)
(-0.000817394 0.00308112 -1.92587e-06)
(-0.00123929 0.00478938 -7.60224e-05)
(0.000151914 0.00618891 -0.000100614)
(0.000460706 0.00440634 -6.60445e-05)
(0.00101594 0.00627888 -0.000113331)
(0.0022493 0.00421827 -8.06076e-05)
(0.00205664 0.0025284 -2.45489e-05)
(0.00148684 0.00170634 -3.28345e-06)
(0.000901501 0.00136437 -2.12378e-06)
(0.000529655 0.0013305 -2.74109e-06)
(0.000218799 0.00101172 -2.61021e-06)
(-0.000114508 0.00190305 -1.50554e-06)
(-0.000282501 0.00217132 -2.17009e-06)
(-0.000435216 0.00230909 -9.03715e-07)
(-0.000580334 0.00255563 -8.67676e-07)
(-0.000628782 0.00292777 -1.50962e-06)
(-0.000512072 0.00329545 -2.90066e-06)
(-0.00035628 0.00337987 -3.49584e-07)
(-0.000273925 0.00346559 -9.58435e-07)
(-0.000267034 0.00344398 1.43108e-06)
(-0.000475187 0.00353381 -3.14444e-07)
(-0.000579972 0.00425446 -1.04673e-05)
(0.000118764 0.00484696 -7.14208e-07)
(0.000387502 0.0040879 -1.23049e-05)
(0.000725149 0.0046587 -4.29059e-07)
(0.00135712 0.0036698 -1.46025e-05)
(0.00129098 0.00270592 -6.1349e-06)
(0.000993861 0.00206512 -2.26018e-06)
(0.00066133 0.00171567 -1.63919e-06)
(0.00038501 0.00154561 -2.48899e-06)
(0.000141282 0.00131952 -1.44241e-06)
(-6.5029e-05 0.00206697 -9.25854e-07)
(-0.000164507 0.00230864 -1.86669e-07)
(-0.000252675 0.0024569 -9.98409e-07)
(-0.000325155 0.00267065 -1.24515e-06)
(-0.000348005 0.0029334 -1.09589e-06)
(-0.000300441 0.0031949 -7.29062e-07)
(-0.000232734 0.0033373 2.28539e-07)
(-0.000193269 0.00345474 4.88e-07)
(-0.000187903 0.00353714 8.5803e-07)
(-0.000242968 0.00366252 7.95733e-07)
(-0.000252531 0.00400646 -1.33633e-06)
(7.78865e-05 0.00428244 -1.71185e-06)
(0.000251887 0.00388327 -1.28823e-06)
(0.00043427 0.0039963 -1.64022e-06)
(0.000732241 0.00340625 -4.27163e-06)
(0.000709527 0.0027556 -2.29227e-06)
(0.000571242 0.00226439 -1.43873e-06)
(0.000396393 0.00193335 -7.63178e-07)
(0.000227797 0.00172753 2.71726e-08)
(7.68068e-05 0.00150963 -8.91053e-07)
(-1.90091e-05 0.00215662 -9.07946e-07)
(-5.52265e-05 0.00238848 -1.46432e-06)
(-8.66181e-05 0.00253305 -7.06957e-07)
(-0.000109054 0.00272839 -5.826e-07)
(-0.000116101 0.00295739 -3.89771e-07)
(-0.000103815 0.00317763 -7.61736e-08)
(-8.46837e-05 0.00334375 2.5447e-07)
(-7.13719e-05 0.00347708 3.58434e-07)
(-6.69845e-05 0.00358852 5.17933e-07)
(-7.18758e-05 0.00371108 6.30762e-07)
(-6.39925e-05 0.00388569 3.37994e-07)
(3.29199e-05 0.00402085 -2.74144e-07)
(9.52607e-05 0.00376959 1.29451e-07)
(0.000154384 0.00370755 -9.89389e-07)
(0.000236976 0.00326557 -1.23171e-06)
(0.000231311 0.00277967 -1.08029e-06)
(0.000190401 0.00235884 -8.53198e-07)
(0.000133171 0.00204095 -5.97284e-07)
(7.79034e-05 0.00182822 -8.28424e-07)
(2.59407e-05 0.00161465 -1.82746e-06)
(0.00254945 -0.0191297 -1.46668e-06)
(0.00474969 -0.0136994 7.87592e-08)
(0.00949063 -0.0152195 1.12397e-05)
(0.017475 -0.0280368 0.000261214)
(0.0194202 0.00484337 -7.81675e-05)
(0.0143151 0.0245227 0.000151233)
(0.0104227 0.00813897 -2.02784e-05)
(0.00836497 0.0132541 0.000122351)
(0.00531561 0.00448438 -7.22717e-05)
(0.0111612 0.00440354 4.0097e-05)
(0.00217865 0.0131202 -0.000111492)
(-0.00369318 0.0195761 -2.15897e-05)
(-0.00728271 0.0159028 -0.000172221)
(-0.0136167 0.0259687 -0.000137085)
(-0.0174364 0.0167527 -3.58743e-05)
(-0.0266761 0.0157965 -0.000235754)
(-0.0181905 -0.0277287 5.33076e-05)
(-0.00985422 -0.0152986 4.61685e-06)
(-0.00494462 -0.0138097 2.79956e-07)
(-0.00260268 -0.0191847 6.67679e-07)
(0.00254407 0.0127362 8.61843e-07)
(0.00276932 0.0278908 -6.83903e-07)
(0.00308116 0.0233885 -1.5036e-06)
(0.00482772 0.0335445 -2.09356e-05)
(0.00847701 0.036813 1.03994e-05)
(0.00755663 0.0304058 -2.70962e-05)
(0.00528826 0.0293787 5.91096e-06)
(0.00316726 0.028076 -6.20561e-05)
(0.0012708 0.0308884 2.98143e-05)
(0.00349627 0.0333449 -1.06962e-05)
(0.00237486 0.0276155 3.84336e-05)
(-0.00124486 0.033395 3.04484e-05)
(-0.00185578 0.0251789 3.91855e-05)
(-0.00471339 0.0413345 6.92479e-05)
(-0.00977302 0.0333011 1.62586e-05)
(-0.0111763 0.0345183 5.64069e-05)
(-0.00532118 0.0325938 -1.62148e-05)
(-0.00340473 0.0231465 -3.02644e-07)
(-0.00289571 0.0278022 -8.93407e-08)
(-0.00255922 0.0123688 7.6561e-07)
(-0.000462002 0.000296311 1.38925e-06)
(0.000478101 0.0180622 -6.29293e-07)
(0.00117661 0.0133768 -1.53582e-06)
(0.00199806 0.0144562 -5.83849e-05)
(0.00433581 0.0201704 8.38933e-06)
(0.00396833 0.0370192 -4.0043e-05)
(0.00226893 0.0321591 4.76118e-06)
(0.00121526 0.0332797 -3.62414e-05)
(0.000273642 0.0286543 2.05907e-05)
(0.00200422 0.0239101 -9.1837e-06)
(0.00877952 0.0367258 1.77708e-05)
(0.00335164 0.038946 7.01544e-05)
(-0.00153787 0.0375443 2.36352e-05)
(-0.00970505 0.0403116 1.21856e-05)
(-0.011019 0.0322061 9.2616e-06)
(-0.00433371 0.028679 4.74265e-05)
(-0.00257689 0.0128206 -1.96886e-05)
(-0.00135392 0.0126035 -4.68571e-06)
(-0.000457863 0.0175622 -1.07399e-06)
(0.000468465 3.79792e-05 -2.83425e-08)
(-0.00126218 0.00116383 -1.68624e-06)
(-0.00103506 0.00925661 6.22537e-07)
(-0.000136724 0.00512223 -4.88469e-06)
(-0.000941845 0.00650309 -9.58721e-06)
(-0.000962216 0.0100442 -5.88943e-07)
(0.000668661 0.0224734 -2.30137e-06)
(0.000527173 0.0181911 1.55674e-06)
(0.000388568 0.0191268 9.25729e-07)
(0.00062593 0.014166 1.81734e-06)
(0.000563413 0.00924105 3.84032e-07)
(0.00364567 0.0209355 9.22155e-07)
(0.00143104 0.0397627 -4.69478e-06)
(-0.00024211 0.0266898 -1.03618e-06)
(-0.0027252 0.0450268 -3.80925e-06)
(-0.00253594 0.0163282 -4.68457e-06)
(-0.000248033 0.0143164 -1.22719e-06)
(0.000764748 0.00460143 -1.03544e-05)
(-0.000235803 0.0032261 -9.63532e-06)
(0.000801952 0.00836714 -5.45148e-06)
(0.00117585 0.000702852 -2.11543e-06)
(-0.000781066 0.0011038 1.83757e-06)
(-0.000884699 0.0035425 -4.59669e-07)
(-0.000722554 0.0020567 -1.0504e-06)
(-0.00169422 0.00261223 -2.03001e-06)
(-0.00204914 0.00556736 -1.36981e-06)
(-0.00112608 0.00991221 2.20892e-06)
(-0.000268569 0.00818775 3.63831e-06)
(2.61022e-05 0.00846095 4.77342e-06)
(0.000928611 0.00607029 4.58304e-06)
(-0.000671135 0.00201176 5.24216e-06)
(-0.00187345 0.00949209 4.11145e-06)
(0.000334274 0.0217427 1.84863e-06)
(0.000428932 0.0115266 1.15624e-06)
(0.000575632 0.0248871 -2.07856e-06)
(0.00304627 0.00805906 -3.16353e-06)
(0.00238834 0.00523322 -4.58416e-06)
(0.0019089 0.00131884 -3.56425e-06)
(0.000655703 0.00106276 -3.74494e-06)
(0.000776503 0.00238487 -2.67012e-06)
(0.000728033 0.000507832 -1.07892e-06)
(-0.000397567 0.00152299 -5.0014e-07)
(-0.000628868 0.00236632 -4.00754e-07)
(-0.000787356 0.00211699 -5.34926e-07)
(-0.00135405 0.00250449 6.65536e-07)
(-0.00155604 0.00379123 3.35301e-06)
(-0.00102593 0.00566327 6.11083e-06)
(-0.000411659 0.00497507 7.7587e-06)
(-0.000173263 0.0050539 8.58963e-06)
(0.000210683 0.00382307 8.52729e-06)
(-0.00102988 0.00255026 8.47282e-06)
(-0.00199209 0.00682478 8.30599e-06)
(0.00012933 0.0107801 7.17316e-06)
(0.000480321 0.00692205 5.07179e-06)
(0.00126993 0.0114708 2.71653e-06)
(0.00308759 0.0060608 4.88589e-07)
(0.00273592 0.00299905 -5.50816e-07)
(0.00195284 0.00148629 -1.94649e-06)
(0.00101947 0.00125462 -2.57191e-06)
(0.000669554 0.00158924 -2.63302e-06)
(0.000380001 0.000861053 -2.49582e-06)
(-0.000212985 0.00179806 1.24757e-07)
(-0.000442052 0.00225163 5.25079e-07)
(-0.000642749 0.0022789 3.92116e-07)
(-0.000935981 0.00263049 1.56162e-06)
(-0.00104449 0.00325313 3.90867e-06)
(-0.000781316 0.00391964 6.22384e-06)
(-0.000441851 0.00383695 7.82804e-06)
(-0.000287346 0.003873 8.30883e-06)
(-0.000239834 0.00359463 8.23438e-06)
(-0.000810618 0.00335901 8.02531e-06)
(-0.00117099 0.00528368 7.87664e-06)
(0.000157184 0.0070885 7.10079e-06)
(0.000478608 0.00499627 4.77836e-06)
(0.001008 0.00718692 2.80889e-06)
(0.00219588 0.00474784 9.03114e-07)
(0.00208246 0.0028269 -1.12161e-08)
(0.00152164 0.00192717 -1.21336e-06)
(0.000923314 0.00155514 -1.88874e-06)
(0.000542326 0.00152883 -1.93471e-06)
(0.000223371 0.00115599 -1.82574e-06)
(-0.000117034 0.00204833 2.51631e-08)
(-0.000289662 0.0023635 -8.08765e-07)
(-0.000446243 0.00250818 5.95527e-07)
(-0.00059504 0.00277343 1.87332e-06)
(-0.000644886 0.00317274 3.38637e-06)
(-0.000525463 0.00356652 4.78395e-06)
(-0.000365274 0.00365981 5.45259e-06)
(-0.00028071 0.00374943 5.58616e-06)
(-0.000272617 0.0036996 5.42638e-06)
(-0.000484962 0.00378518 5.1327e-06)
(-0.000584722 0.00455759 4.92955e-06)
(0.000123188 0.00525671 4.05386e-06)
(0.00039845 0.00439652 2.89879e-06)
(0.000736763 0.00506661 1.3112e-06)
(0.00137701 0.00397284 3.31317e-07)
(0.00132041 0.00294166 -6.49271e-07)
(0.00101718 0.00226641 -1.25406e-06)
(0.000676792 0.00190112 -1.7178e-06)
(0.000393961 0.00172317 -1.93023e-06)
(0.000144269 0.00145178 -1.82641e-06)
(-6.63539e-05 0.00221574 -9.87299e-07)
(-0.000168844 0.00250428 1.0015e-06)
(-0.000259705 0.00265934 9.91335e-08)
(-0.000334122 0.00287847 5.20637e-07)
(-0.000357595 0.00315529 1.27322e-06)
(-0.000308926 0.00343237 2.04e-06)
(-0.00023897 0.0035786 2.36705e-06)
(-0.000198533 0.00369908 2.38525e-06)
(-0.000192418 0.00376355 2.28883e-06)
(-0.0002485 0.00389883 2.22485e-06)
(-0.000257933 0.0042725 2.18235e-06)
(8.10576e-05 0.00456519 1.873e-06)
(0.000259821 0.0041555 1.21673e-06)
(0.000447225 0.0042705 2.94897e-07)
(0.000750768 0.00365926 -3.0994e-07)
(0.000727219 0.0029725 -7.31536e-07)
(0.000585238 0.00246162 -8.40005e-07)
(0.000406075 0.00212251 -9.09291e-07)
(0.000233223 0.00190852 -4.43233e-07)
(7.83597e-05 0.00164505 -3.2756e-07)
(-1.97332e-05 0.00230769 6.32409e-07)
(-5.69948e-05 0.00258635 -6.12033e-07)
(-8.92198e-05 0.00273796 2.73152e-07)
(-0.000112527 0.00293828 6.31128e-07)
(-0.000119768 0.00317234 1.05115e-06)
(-0.000107142 0.00339703 1.35837e-06)
(-8.73953e-05 0.00356609 1.51322e-06)
(-7.35989e-05 0.00370205 1.55288e-06)
(-6.8884e-05 0.00381537 1.54986e-06)
(-7.37783e-05 0.00393979 1.58175e-06)
(-6.56189e-05 0.00412751 1.50415e-06)
(3.43256e-05 0.00427746 1.3138e-06)
(9.8669e-05 0.00401094 7.82394e-07)
(0.00015971 0.003958 3.21752e-07)
(0.000244153 0.00349304 -1.5856e-07)
(0.000237912 0.00298728 -3.33077e-07)
(0.000195793 0.0025575 -5.05621e-07)
(0.000136771 0.00223225 -4.80517e-07)
(7.99546e-05 0.00201144 -5.91139e-07)
(2.65884e-05 0.00175228 -1.01905e-06)
(0.00175205 -0.0189259 -0.000489785)
(0.00181763 -0.0165518 -0.00141307)
(1.50741e-05 -0.0166384 -0.00167954)
(0.000211736 -0.0159972 -0.00099342)
(0.00172882 -0.0146339 -0.00129385)
(0.000870691 -0.0139517 -0.0017536)
(0.000266297 -0.0136197 -0.00133611)
(0.000439643 -0.0133596 -0.00144553)
(3.46117e-07 -0.0133149 -0.00155119)
(0.000149253 -0.01351 -0.00159386)
(0.000343151 -0.0130787 -0.00120918)
(0.000331717 -0.0128178 -0.00189653)
(0.000385854 -0.0131554 -0.00145236)
(-0.000178313 -0.0136949 -0.00253208)
(-0.00106072 -0.0140768 -0.0018574)
(-0.00118648 -0.0144663 -0.00186612)
(-0.000578557 -0.0157953 -0.00119553)
(-0.000264225 -0.0166814 -0.00168015)
(-0.00199094 -0.0166078 -0.00139707)
(-0.00179032 -0.0189953 -0.000495126)
(0.00181982 0.0112415 -2.36426e-06)
(0.00179822 0.0170535 -0.000651534)
(0.00150035 0.0147146 -0.000743687)
(0.00170817 0.0141266 -0.00158665)
(0.00129391 0.0109071 -0.00161674)
(0.000829979 0.0115594 -0.00154612)
(0.000331545 0.0109251 -0.00191175)
(0.000173557 0.0114701 -0.00184281)
(-0.00027613 0.0100417 -0.00189263)
(3.53188e-05 0.0111044 -0.00162225)
(0.00132863 0.0120006 -0.0016734)
(0.000506707 0.00836009 -0.00195659)
(-0.000532629 0.0105406 -0.00190787)
(-0.00108082 0.00788946 -0.00142824)
(-0.00143038 0.0110529 -0.00119606)
(-0.00119696 0.00953026 -0.00145256)
(-0.0020475 0.0123722 -0.00158635)
(-0.00165576 0.0145756 -0.000689018)
(-0.00190073 0.0169058 -0.000649369)
(-0.00185063 0.010954 3.0087e-05)
(-0.000491653 -0.000738456 0.000415795)
(0.000165057 0.00932736 0.00106234)
(0.000978494 0.00557918 0.00114824)
(0.00124426 0.00473304 0.00120455)
(0.00165207 0.00613803 0.00125557)
(0.00118937 0.00856564 0.000707168)
(0.000620538 0.00684587 0.000886811)
(0.000321389 0.0069053 0.000801665)
(0.000242945 0.00550031 0.00108069)
(0.00112622 0.00348304 0.000935445)
(0.00243848 0.00547576 3.25491e-05)
(0.000697798 0.00472699 -0.000421003)
(-0.000475054 0.00544774 -2.67321e-05)
(-0.00154766 0.00617315 -0.000128457)
(-0.00271793 0.00567466 0.000143452)
(-0.00248606 0.00645162 0.000665847)
(-0.00193192 0.00355214 0.0012791)
(-0.00130725 0.00529166 0.00126691)
(-0.000188028 0.0090705 0.00110295)
(0.000488577 -0.00094711 0.000413096)
(-0.00137334 0.000304466 0.000136574)
(-0.00109223 0.0055883 0.00067711)
(-6.45347e-05 0.00191241 0.000488551)
(-0.000980066 0.00228013 0.000588561)
(-0.00134241 0.00478688 0.000806807)
(-0.000695471 0.00925665 0.00163573)
(1.33561e-05 0.00694291 0.00155366)
(0.000185841 0.00721786 0.00165141)
(0.00131432 0.00428908 0.00134815)
(0.000689533 0.000520671 0.000994061)
(0.000299867 0.00677447 0.00155493)
(0.000222636 0.0151226 0.00191205)
(0.000362479 0.00896486 0.0019827)
(0.000787982 0.016599 0.00177137)
(0.000461273 0.00531054 0.00118306)
(0.000229791 0.00453897 0.00108329)
(0.00055228 0.000612077 0.000533699)
(-0.000428565 0.001103 0.000424486)
(0.000837627 0.00479099 0.000653225)
(0.00126505 -0.000115475 0.000135446)
(-0.000779001 0.000861651 6.63906e-05)
(-0.000876165 0.00263122 0.000156186)
(-0.000723762 0.00171736 0.0001061)
(-0.00173529 0.00187572 0.000152657)
(-0.00221538 0.0037999 0.000321491)
(-0.00133187 0.00678293 0.000775998)
(-0.000237603 0.00514826 0.000642043)
(8.76109e-05 0.00524688 0.000682827)
(0.00130827 0.00296803 0.000466189)
(-0.000672944 0.000154257 0.000261188)
(-0.00256566 0.00574193 0.000760067)
(-0.000107253 0.0103648 0.00149226)
(0.000512773 0.00596301 0.00116082)
(0.0018958 0.0114591 0.00164128)
(0.00342667 0.00478268 0.000551988)
(0.00261624 0.0022714 0.000447438)
(0.00196653 0.000435764 0.000111876)
(0.000696439 0.000772342 6.10087e-05)
(0.000762867 0.00179277 0.000129049)
(0.000714034 0.000323794 5.65557e-05)
(-0.00038761 0.00133505 5.20382e-06)
(-0.000613177 0.00211954 2.69902e-05)
(-0.000766328 0.00189332 6.10174e-06)
(-0.00132907 0.00223355 2.56464e-05)
(-0.00157108 0.00320887 9.79899e-05)
(-0.00104314 0.00460463 0.00016497)
(-0.000381074 0.00399273 0.000155853)
(-0.000142513 0.00395695 0.000155263)
(0.000220398 0.00308545 0.000119043)
(-0.00111933 0.00214106 4.73378e-05)
(-0.00220589 0.00565943 0.000333665)
(0.000108553 0.00831492 0.000616906)
(0.000454553 0.00530509 0.000354718)
(0.00138627 0.00871229 0.000703733)
(0.00322789 0.00486113 0.000247062)
(0.0027964 0.00227974 0.000115663)
(0.00192538 0.00123089 1.65278e-05)
(0.000988853 0.00105475 -1.82303e-06)
(0.0006529 0.00135295 1.25515e-05)
(0.000371309 0.000691473 -2.24308e-06)
(-0.000208599 0.00163873 1.02334e-06)
(-0.000431352 0.00204099 3.34276e-06)
(-0.000626655 0.00207336 2.09581e-06)
(-0.000912144 0.0023892 5.57623e-06)
(-0.00101972 0.00297409 2.28382e-05)
(-0.000762091 0.00355309 2.97262e-05)
(-0.000428061 0.00349853 3.13735e-05)
(-0.000279546 0.00351801 3.77363e-05)
(-0.000240357 0.00327835 2.82886e-05)
(-0.000817562 0.00308046 1.52125e-05)
(-0.00123982 0.0047877 8.90857e-05)
(0.000151402 0.00618542 0.000112395)
(0.000460288 0.00440565 7.46001e-05)
(0.00101539 0.00627874 0.000118344)
(0.00224904 0.00421846 8.25883e-05)
(0.00205649 0.00252847 2.49738e-05)
(0.00148669 0.00170646 1.58889e-06)
(0.000901475 0.00136447 -8.5997e-07)
(0.000529775 0.00133059 -2.76709e-07)
(0.000218791 0.00101154 -7.58368e-07)
(-0.000114646 0.00190299 9.2863e-07)
(-0.000282516 0.00217148 3.18667e-07)
(-0.000434892 0.00230914 1.41906e-06)
(-0.000579993 0.00255557 3.5012e-06)
(-0.00062842 0.00292752 6.74047e-06)
(-0.000511819 0.00329506 1.06058e-05)
(-0.000356205 0.00337921 9.36757e-06)
(-0.000273961 0.00346493 1.01991e-05)
(-0.000267118 0.00344322 7.57569e-06)
(-0.00047529 0.00353296 8.87176e-06)
(-0.000580203 0.00425335 1.87943e-05)
(0.00011848 0.00484548 7.76237e-06)
(0.000387164 0.00408728 1.75394e-05)
(0.000724837 0.00465854 2.94815e-06)
(0.00135694 0.00366981 1.54601e-05)
(0.00129086 0.0027059 5.24275e-06)
(0.000993794 0.00206521 2.62708e-07)
(0.000661309 0.00171582 -1.29162e-06)
(0.000385073 0.00154582 -9.94006e-07)
(0.000141269 0.00131951 -1.76479e-06)
(-6.47303e-05 0.00206723 -8.11596e-07)
(-0.000164423 0.00230885 1.67435e-06)
(-0.000252802 0.00245698 7.68304e-07)
(-0.000325041 0.00267059 1.66432e-06)
(-0.000347833 0.00293318 2.83316e-06)
(-0.000300321 0.00319457 3.85658e-06)
(-0.000232711 0.00333686 3.51854e-06)
(-0.000193299 0.00345431 3.32557e-06)
(-0.00018794 0.00353671 2.80789e-06)
(-0.000242999 0.0036621 2.82273e-06)
(-0.000252599 0.00400588 4.97725e-06)
(7.7764e-05 0.00428191 4.97733e-06)
(0.000251688 0.00388296 3.50695e-06)
(0.000434094 0.00399632 2.30013e-06)
(0.000732158 0.00340631 3.86672e-06)
(0.000709514 0.00275573 1.14217e-06)
(0.000571276 0.00226454 5.8095e-08)
(0.000396493 0.00193355 -7.38083e-07)
(0.000227949 0.00172772 -5.9636e-07)
(7.68388e-05 0.00150959 2.66814e-07)
(-1.92298e-05 0.0021569 1.87514e-06)
(-5.52888e-05 0.00238863 3.55598e-07)
(-8.64453e-05 0.0025332 1.17082e-06)