/*--------------------------------*- C++ -*----------------------------------*\
| =========                 |                                                 |
| \\      /  F ield         | OpenFOAM: The Open Source CFD Toolbox           |
|  \\    /   O peration     | Version:  2.3.0                                 |
|   \\  /    A nd           | Web:      www.OpenFOAM.org                      |
|    \\/     M anipulation  |                                                 |
\*---------------------------------------------------------------------------*/
FoamFile
{
    version     2.0;
    format      ascii;
    class       volScalarField;
    location    "0.05";
    object      p;
}
// * * * * * * * * * * * * * * * * * * * * * * * * * * * * * * * * * * * * * //

dimensions      [1 -1 -2 0 0 0 0];

internalField   nonuniform List<scalar> 
6000
(
101305
101306
101305
101304
101302
101300
101297
101295
101293
101291
101289
101287
101286
101286
101285
101285
101286
101286
101287
101289
101291
101293
101295
101297
101300
101302
101304
101305
101306
101306
101274
101275
101274
101272
101270
101267
101264
101261
101259
101256
101255
101253
101252
101251
101251
101251
101251
101252
101253
101255
101256
101259
101261
101264
101267
101270
101272
101274
101275
101274
101248
101250
101249
101247
101244
101240
101237
101234
101231
101228
101226
101225
101224
101223
101222
101222
101223
101224
101225
101227
101229
101231
101234
101237
101240
101244
101247
101249
101250
101249
101222
101223
101223
101222
101218
101214
101211
101207
101204
101202
101199
101198
101197
101196
101195
101195
101196
101197
101198
101199
101202
101204
101207
101211
101215
101218
101222
101224
101223
101222
101190
101191
101192
101191
101188
101185
101181
101177
101174
101172
101170
101168
101167
101166
101166
101166
101166
101167
101168
101170
101172
101174
101177
101181
101185
101188
101191
101192
101192
101190
101151
101152
101152
101151
101149
101147
101145
101142
101139
101137
101135
101133
101132
101131
101131
101131
101131
101132
101133
101135
101137
101139
101142
101145
101147
101149
101151
101152
101152
101151
101105
101104
101102
101101
101101
101101
101100
101099
101097
101095
101093
101092
101091
101090
101090
101090
101090
101091
101092
101093
101095
101097
101099
101100
101100
101101
101101
101102
101104
101105
101051
101050
101047
101045
101045
101046
101047
101047
101047
101046
101045
101044
101043
101042
101042
101042
101042
101043
101044
101045
101046
101047
101047
101047
101046
101044
101044
101046
101049
101052
100994
100991
100988
100986
100986
100987
100989
100990
100991
100991
100990
100990
100989
100989
100988
100988
100989
100989
100990
100990
100991
100991
100990
100989
100987
100986
100985
100987
100991
100994
100934
100931
100928
100926
100927
100928
100929
100931
100931
100932
100932
100932
100932
100932
100931
100931
100932
100932
100932
100932
100932
100932
100931
100929
100928
100927
100926
100927
100930
100933
100873
100871
100868
100868
100868
100869
100870
100871
100872
100873
100873
100873
100873
100873
100873
100873
100873
100873
100873
100873
100873
100872
100871
100871
100870
100869
100868
100867
100869
100872
100813
100811
100810
100811
100811
100811
100812
100813
100813
100814
100814
100815
100815
100815
100815
100815
100815
100815
100815
100814
100814
100814
100813
100812
100812
100812
100811
100810
100810
100812
100755
100754
100754
100754
100754
100754
100755
100755
100755
100756
100756
100756
100757
100757
100757
100757
100757
100757
100757
100756
100756
100756
100755
100755
100755
100755
100756
100755
100753
100754
100698
100699
100699
100698
100698
100698
100698
100698
100698
100699
100699
100699
100699
100699
100699
100699
100699
100699
100699
100699
100699
100699
100698
100699
100699
100700
100701
100701
100699
100699
100644
100644
100643
100642
100642
100642
100642
100642
100642
100642
100642
100643
100643
100643
100643
100643
100643
100643
100643
100642
100642
100642
100642
100642
100643
100644
100646
100647
100646
100645
100590
100589
100587
100587
100587
100587
100587
100587
100587
100587
100587
100587
100587
100587
100587
100587
100587
100587
100587
100587
100587
100587
100587
100587
100587
100588
100589
100592
100594
100592
100536
100534
100533
100533
100533
100533
100533
100533
100533
100532
100532
100532
100532
100532
100532
100532
100532
100532
100532
100532
100532
100532
100532
100533
100533
100533
100534
100536
100540
100540
100481
100480
100480
100481
100481
100481
100480
100480
100479
100479
100479
100479
100479
100479
100479
100479
100479
100479
100479
100479
100479
100479
100479
100479
100479
100479
100479
100480
100483
100487
100427
100428
100430
100432
100431
100429
100428
100427
100427
100427
100426
100426
100426
100426
100426
100426
100426
100426
100426
100426
100426
100426
100427
100427
100427
100427
100427
100426
100428
100431
100378
100379
100384
100384
100381
100379
100377
100376
100375
100375
100375
100375
100374
100374
100374
100374
100374
100374
100374
100374
100375
100375
100375
100376
100377
100377
100377
100375
100374
100375
100330
100335
100338
100334
100330
100328
100326
100325
100325
100324
100324
100324
100324
100324
100324
100324
100324
100324
100324
100324
100324
100324
100325
100326
100327
100329
100330
100329
100324
100325
100286
100290
100287
100282
100279
100277
100276
100275
100275
100275
100274
100274
100274
100274
100274
100274
100274
100274
100274
100274
100274
100275
100276
100277
100278
100281
100284
100285
100280
100278
100242
100242
100235
100230
100228
100227
100227
100227
100226
100226
100226
100226
100226
100226
100226
100225
100225
100226
100226
100226
100226
100226
100227
100228
100229
100231
100235
100241
100239
100232
100191
100186
100181
100179
100179
100179
100179
100179
100179
100178
100178
100178
100178
100178
100178
100178
100178
100178
100178
100178
100178
100179
100179
100179
100180
100181
100184
100190
100194
100191
100138
100133
100128
100130
100131
100132
100132
100132
100132
100132
100132
100132
100132
100132
100132
100132
100132
100132
100132
100132
100132
100132
100132
100132
100132
100133
100134
100137
100144
100147
100084
100081
100081
100084
100085
100086
100086
100087
100087
100087
100087
100087
100087
100087
100087
100087
100087
100087
100087
100087
100086
100086
100086
100086
100086
100085
100085
100084
100091
100096
100035
100033
100038
100041
100042
100042
100042
100043
100043
100043
100043
100043
100043
100043
100043
100043
100043
100043
100043
100042
100042
100042
100042
100041
100041
100040
100038
100035
100038
100043
99994.2
99994.7
99999
99999.4
99999.4
99999.6
99999.8
99999.9
100000
100000
100000
100000
100000
100000
100000
100000
100000
100000
99999.9
99999.6
99999.4
99999
99998.6
99998
99997.2
99996
99994
99990.6
99988.7
99991.4
99958
99960.3
99960.8
99959.1
99958.4
99958.2
99958.3
99958.4
99958.5
99958.6
99958.7
99958.8
99958.8
99958.8
99958.8
99958.7
99958.6
99958.5
99958.3
99958
99957.7
99957.3
99956.8
99956.2
99955.4
99954.4
99952.9
99950.2
99945.2
99947.4
99921.8
99923.2
99920.5
99918.6
99918
99917.8
99917.9
99918
99918.1
99918.3
99918.4
99918.4
99918.5
99918.5
99918.4
99918.4
99918.3
99918.1
99917.9
99917.6
99917.3
99916.9
99916.4
99915.9
99915.2
99914.4
99913.5
99912.5
99909.4
99908.6
99881.1
99881.4
99878.4
99878.1
99878.2
99878.4
99878.6
99878.8
99879
99879.1
99879.2
99879.3
99879.3
99879.3
99879.3
99879.2
99879.1
99878.9
99878.7
99878.5
99878.1
99877.8
99877.3
99876.8
99876.2
99875.5
99874.9
99874.8
99874.5
99873
99838.3
99837.5
99837
99838.6
99839.6
99840.2
99840.6
99840.8
99841
99841.1
99841.3
99841.3
99841.4
99841.4
99841.4
99841.3
99841.2
99841
99840.8
99840.5
99840.2
99839.9
99839.4
99839
99838.4
99837.8
99837.1
99836.7
99837.2
99837.5
99797.4
99795.8
99798.6
99801.3
99802.7
99803.4
99803.8
99804.1
99804.3
99804.4
99804.5
99804.6
99804.6
99804.6
99804.6
99804.5
99804.4
99804.3
99804
99803.8
99803.5
99803.2
99802.8
99802.4
99801.9
99801.4
99800.7
99799.7
99799.9
99801
99760.7
99759.3
99763.9
99766.6
99767.7
99768.2
99768.5
99768.6
99768.7
99768.8
99768.9
99769
99769
99769
99769
99768.9
99768.8
99768.7
99768.5
99768.3
99768
99767.7
99767.4
99767.1
99766.8
99766.4
99765.8
99764.7
99763.9
99764.8
99729.2
99728.6
99733.1
99734.6
99734.6
99734.5
99734.4
99734.3
99734.4
99734.4
99734.5
99734.5
99734.5
99734.6
99734.5
99734.5
99734.4
99734.2
99734.1
99733.9
99733.7
99733.4
99733.2
99733
99732.9
99732.7
99732.5
99731.8
99730.1
99730.5
99699.7
99701.6
99705.1
99704.3
99702.8
99701.9
99701.4
99701.2
99701.1
99701.1
99701.1
99701.2
99701.2
99701.2
99701.2
99701.1
99701.1
99700.9
99700.8
99700.6
99700.4
99700.3
99700.1
99700
99700.1
99700.3
99700.7
99700.7
99699
99698.4
99670.2
99675.8
99677.7
99673.6
99671.2
99670
99669.3
99668.9
99668.8
99668.8
99668.8
99668.9
99668.9
99669
99669
99668.9
99668.8
99668.7
99668.6
99668.4
99668.3
99668.1
99668.1
99668.1
99668.3
99668.7
99669.5
99670.6
99669.8
99668.1
99643.9
99648.2
99646.3
99641.6
99639.6
99638.5
99637.9
99637.6
99637.5
99637.6
99637.6
99637.7
99637.8
99637.8
99637.8
99637.8
99637.7
99637.6
99637.5
99637.3
99637.2
99637.1
99637
99637.1
99637.3
99637.8
99638.7
99640.7
99641.3
99639
99617.7
99616.9
99611.7
99609.1
99608
99607.5
99607.3
99607.2
99607.3
99607.4
99607.5
99607.6
99607.7
99607.7
99607.7
99607.7
99607.7
99607.6
99607.5
99607.3
99607.2
99607
99607
99607
99607.1
99607.6
99608.5
99610.5
99612.3
99610.8
99585.6
99581.9
99576.6
99577
99577.2
99577.4
99577.6
99577.8
99578
99578.2
99578.4
99578.6
99578.7
99578.8
99578.8
99578.8
99578.7
99578.7
99578.5
99578.4
99578.2
99578.1
99577.9
99577.8
99577.8
99578
99578.5
99579.8
99581.9
99582.7
99549.3
99546
99544.1
99546.4
99547.6
99548.5
99549.1
99549.6
99549.9
99550.2
99550.5
99550.7
99550.8
99550.9
99551
99551
99550.9
99550.9
99550.7
99550.6
99550.4
99550.2
99549.9
99549.7
99549.5
99549.3
99549.1
99548.8
99550.8
99553
99516.3
99512.7
99514.8
99517.9
99519.8
99521
99521.9
99522.5
99523
99523.4
99523.7
99523.9
99524.1
99524.2
99524.3
99524.3
99524.3
99524.2
99524
99523.9
99523.7
99523.4
99523.1
99522.7
99522.3
99521.8
99521.1
99519.9
99520.7
99522.9
99488.3
99485.3
99489.1
99492
99493.8
99495.1
99496
99496.7
99497.3
99497.7
99498
99498.3
99498.5
99498.6
99498.7
99498.7
99498.7
99498.6
99498.5
99498.3
99498.1
99497.8
99497.4
99497
99496.4
99495.7
99494.7
99493.2
99492.6
99494.4
99464.6
99463.6
99466.5
99468.3
99469.7
99470.8
99471.6
99472.2
99472.8
99473.2
99473.5
99473.8
99474
99474.2
99474.3
99474.3
99474.3
99474.2
99474.1
99473.9
99473.6
99473.3
99472.9
99472.5
99471.9
99471.1
99470.1
99468.6
99467.2
99468.6
99443.5
99443.9
99445.5
99446.4
99447.1
99447.8
99448.4
99449
99449.5
99449.9
99450.2
99450.5
99450.7
99450.8
99450.9
99451
99451
99450.9
99450.8
99450.6
99450.3
99450
99449.6
99449.2
99448.7
99448
99447.2
99446
99444.5
99445.3
99423.7
99424.4
99425.1
99425.3
99425.6
99426
99426.4
99426.9
99427.3
99427.7
99428
99428.3
99428.5
99428.6
99428.7
99428.8
99428.8
99428.7
99428.6
99428.4
99428.1
99427.9
99427.5
99427.1
99426.7
99426.2
99425.7
99425
99423.9
99424
99404.5
99404.9
99405.2
99405.1
99405.1
99405.3
99405.5
99405.9
99406.2
99406.6
99406.9
99407.2
99407.4
99407.5
99407.6
99407.7
99407.7
99407.6
99407.5
99407.3
99407.1
99406.8
99406.5
99406.2
99405.9
99405.6
99405.4
99405.1
99404.4
99404.2
99386.1
99386.4
99386.2
99385.8
99385.5
99385.5
99385.7
99385.9
99386.3
99386.6
99386.9
99387.1
99387.4
99387.5
99387.6
99387.7
99387.6
99387.6
99387.5
99387.3
99387.1
99386.9
99386.6
99386.4
99386.2
99386.1
99386.1
99386.1
99385.8
99385.6
99368.7
99369.5
99368.6
99367.4
99366.8
99366.7
99366.8
99367
99367.3
99367.7
99367.9
99368.2
99368.4
99368.6
99368.7
99368.7
99368.7
99368.7
99368.6
99368.4
99368.2
99368
99367.8
99367.6
99367.5
99367.5
99367.7
99368.1
99368.2
99368
99351.8
99352.9
99351.2
99349.5
99348.8
99348.7
99348.8
99349.1
99349.4
99349.8
99350.1
99350.4
99350.6
99350.7
99350.9
99350.9
99350.9
99350.8
99350.7
99350.6
99350.4
99350.2
99350
99349.8
99349.8
99349.9
99350.3
99351
99351.7
99351.5
99333.6
99334.9
99332.9
99331.7
99331.4
99331.5
99331.8
99332.2
99332.6
99332.9
99333.3
99333.6
99333.8
99334
99334.1
99334.1
99334.1
99334.1
99333.9
99333.8
99333.6
99333.3
99333.1
99333
99332.9
99333.1
99333.7
99335
99336.2
99335.8
99314.2
99315
99313.8
99314.1
99314.6
99315.1
99315.7
99316.2
99316.7
99317.2
99317.5
99317.9
99318.1
99318.3
99318.4
99318.4
99318.4
99318.4
99318.2
99318
99317.8
99317.6
99317.3
99317.1
99316.9
99317.1
99317.6
99319
99320.7
99319.8
99295.5
99295
99295.8
99297.5
99298.8
99299.8
99300.7
99301.4
99302
99302.5
99302.9
99303.2
99303.5
99303.7
99303.8
99303.8
99303.8
99303.7
99303.6
99303.4
99303.1
99302.8
99302.4
99302.1
99301.8
99301.6
99301.7
99302.4
99303.9
99302.5
99279.1
99277.4
99280.1
99282.6
99284.4
99285.8
99286.8
99287.7
99288.3
99288.9
99289.3
99289.6
99289.9
99290.1
99290.2
99290.3
99290.2
99290.1
99290
99289.7
99289.4
99289
99288.6
99288.1
99287.5
99286.9
99286.3
99285.8
99286
99285.3
99265.9
99264
99267.2
99269.8
99271.7
99273.1
99274.2
99275.1
99275.8
99276.4
99276.8
99277.2
99277.4
99277.6
99277.7
99277.7
99277.7
99277.6
99277.4
99277.2
99276.8
99276.4
99275.8
99275.2
99274.4
99273.3
99272
99270.4
99269.1
99269.1
99255.8
99254.5
99257.1
99259.1
99260.6
99261.9
99262.9
99263.7
99264.4
99264.9
99265.4
99265.7
99266
99266.2
99266.3
99266.3
99266.3
99266.1
99265.9
99265.7
99265.3
99264.8
99264.2
99263.4
99262.4
99261.1
99259.4
99257
99254.2
99255.2
99247.6
99247.1
99248.8
99250
99251
99252
99252.8
99253.5
99254.1
99254.6
99255
99255.4
99255.6
99255.8
99255.9
99255.9
99255.8
99255.7
99255.5
99255.2
99254.8
99254.4
99253.7
99252.9
99251.9
99250.5
99248.6
99246.1
99242.8
99244.4
99240.4
99240.5
99241.5
99242
99242.6
99243.2
99243.8
99244.4
99244.9
99245.4
99245.7
99246
99246.3
99246.4
99246.5
99246.5
99246.5
99246.3
99246.1
99245.9
99245.5
99245
99244.4
99243.7
99242.7
99241.5
99239.9
99237.9
99235.2
99236.6
99234.1
99234.3
99234.9
99235
99235.2
99235.5
99235.9
99236.3
99236.8
99237.1
99237.5
99237.7
99237.9
99238.1
99238.2
99238.2
99238.1
99238
99237.8
99237.5
99237.2
99236.8
99236.2
99235.6
99234.9
99234
99232.9
99231.7
99230
99230.8
99228.8
99228.9
99229.1
99228.8
99228.6
99228.7
99228.9
99229.2
99229.6
99229.9
99230.2
99230.4
99230.6
99230.8
99230.8
99230.9
99230.8
99230.7
99230.5
99230.3
99229.9
99229.6
99229.1
99228.7
99228.2
99227.7
99227.3
99227
99226
99226.4
99224.6
99224.5
99224.1
99223.3
99222.9
99222.8
99222.9
99223.1
99223.3
99223.6
99223.9
99224.1
99224.3
99224.4
99224.5
99224.5
99224.5
99224.4
99224.2
99224
99223.7
99223.4
99223
99222.7
99222.5
99222.4
99222.5
99223
99222.8
99223.2
99220.8
99221.1
99219.8
99218.5
99217.8
99217.6
99217.6
99217.8
99218
99218.3
99218.6
99218.8
99219
99219.1
99219.2
99219.2
99219.1
99219
99218.9
99218.7
99218.4
99218.1
99217.9
99217.7
99217.6
99217.8
99218.4
99219.6
99220.6
99220.9
99216.2
99217.4
99215.5
99214.1
99213.3
99213.1
99213.1
99213.3
99213.6
99213.9
99214.2
99214.4
99214.6
99214.7
99214.8
99214.8
99214.8
99214.7
99214.5
99214.3
99214
99213.8
99213.6
99213.4
99213.4
99213.8
99214.8
99216.6
99218.9
99218.4
99210.3
99212.2
99210.8
99209.7
99209.3
99209.2
99209.4
99209.7
99210.1
99210.4
99210.7
99211
99211.2
99211.3
99211.4
99211.4
99211.3
99211.2
99211.1
99210.9
99210.6
99210.3
99210.1
99209.9
99209.9
99210.2
99211.2
99213.1
99215.5
99213.7
99204.1
99206
99205.8
99205.6
99205.8
99206.1
99206.5
99207
99207.4
99207.8
99208.2
99208.5
99208.7
99208.8
99208.9
99208.9
99208.9
99208.7
99208.6
99208.3
99208.1
99207.7
99207.4
99207.1
99206.9
99207
99207.5
99208.7
99209.6
99207.1
99198.6
99200
99201.2
99202.1
99203
99203.8
99204.5
99205.2
99205.7
99206.2
99206.6
99206.9
99207.1
99207.3
99207.3
99207.4
99207.3
99207.2
99207
99206.7
99206.4
99206
99205.6
99205.1
99204.6
99204.2
99203.8
99203.6
99202.7
99200.5
99194.5
99195.3
99197.7
99199.7
99201.2
99202.4
99203.4
99204.3
99204.9
99205.4
99205.9
99206.2
99206.5
99206.6
99206.7
99206.7
99206.7
99206.5
99206.3
99206
99205.7
99205.2
99204.6
99203.9
99203.1
99202.1
99200.8
99199.1
99196.7
99195.6
99192.8
99192.7
99196
99198.7
99200.7
99202.2
99203.4
99204.4
99205.1
99205.7
99206.1
99206.5
99206.7
99206.9
99207
99207
99206.9
99206.8
99206.6
99206.3
99205.9
99205.3
99204.7
99203.8
99202.7
99201.2
99199.2
99196.4
99192.9
99193.1
99193.5
99192.6
99196.3
99199.3
99201.5
99203.2
99204.5
99205.5
99206.3
99206.9
99207.3
99207.7
99207.9
99208.1
99208.2
99208.2
99208.1
99208
99207.8
99207.5
99207
99206.5
99205.7
99204.8
99203.5
99201.7
99199.3
99196
99192.1
99193.3
99196.7
99195.3
99198.8
99201.7
99203.8
99205.5
99206.8
99207.7
99208.5
99209.1
99209.5
99209.8
99210.1
99210.2
99210.3
99210.3
99210.3
99210.1
99209.9
99209.6
99209.2
99208.6
99207.9
99206.9
99205.6
99203.8
99201.4
99198.3
99194.5
99196.3
99202.2
99200.7
99203.5
99205.8
99207.6
99209.1
99210.2
99211
99211.7
99212.2
99212.6
99212.9
99213.1
99213.3
99213.3
99213.3
99213.3
99213.1
99212.9
99212.6
99212.3
99211.7
99211.1
99210.2
99209
99207.5
99205.5
99203.1
99200.1
99201.8
99209.4
99208.2
99210.1
99211.6
99212.8
99213.9
99214.7
99215.3
99215.9
99216.3
99216.6
99216.9
99217.1
99217.2
99217.3
99217.3
99217.2
99217.1
99216.9
99216.6
99216.3
99215.9
99215.3
99214.7
99213.8
99212.7
99211.3
99209.8
99207.9
99209.1
99218
99217.1
99218.2
99218.7
99219.3
99219.8
99220.2
99220.6
99221
99221.3
99221.5
99221.8
99221.9
99222
99222.1
99222.1
99222
99221.9
99221.8
99221.6
99221.3
99221
99220.6
99220.2
99219.7
99219.1
99218.5
99217.9
99216.9
99217.7
99228
99227.1
99227.2
99226.8
99226.6
99226.6
99226.6
99226.8
99227
99227.2
99227.4
99227.5
99227.6
99227.7
99227.8
99227.8
99227.7
99227.7
99227.5
99227.4
99227.2
99227
99226.8
99226.6
99226.5
99226.5
99226.7
99227
99226.8
99227.6
99237.8
99238.3
99237.7
99235.9
99234.8
99234.1
99233.8
99233.8
99233.8
99233.9
99234
99234.1
99234.2
99234.3
99234.3
99234.3
99234.3
99234.2
99234.1
99234
99233.9
99233.8
99233.7
99233.8
99234.1
99234.7
99235.8
99237.5
99238
99237.4
99247.6
99250.1
99249.1
99245.5
99243.3
99242.2
99241.6
99241.4
99241.3
99241.4
99241.4
99241.5
99241.6
99241.7
99241.7
99241.7
99241.7
99241.6
99241.5
99241.4
99241.3
99241.3
99241.3
99241.6
99242.1
99243.2
99245.4
99249
99249.8
99247.1
99257
99261.4
99258.2
99254.1
99251.7
99250.5
99249.9
99249.6
99249.5
99249.5
99249.6
99249.7
99249.8
99249.8
99249.9
99249.9
99249.8
99249.8
99249.7
99249.6
99249.5
99249.5
99249.5
99249.8
99250.4
99251.6
99254
99258.2
99261.1
99256.3
99263.9
99265.9
99263
99260.7
99259.5
99258.8
99258.4
99258.3
99258.3
99258.4
99258.5
99258.6
99258.6
99258.7
99258.7
99258.7
99258.7
99258.6
99258.5
99258.4
99258.3
99258.3
99258.2
99258.4
99258.7
99259.4
99260.6
99262.8
99265.5
99263.6
99268.3
99267.6
99266.8
99267.1
99267.3
99267.3
99267.4
99267.5
99267.7
99267.8
99268
99268.1
99268.2
99268.3
99268.3
99268.3
99268.3
99268.2
99268.1
99268
99267.8
99267.6
99267.5
99267.3
99267.2
99267.2
99266.9
99266.4
99267.4
99268.5
99273
99271.8
99273.1
99274.7
99275.8
99276.5
99277
99277.4
99277.7
99277.9
99278.2
99278.3
99278.5
99278.6
99278.6
99278.6
99278.6
99278.5
99278.3
99278.2
99277.9
99277.7
99277.3
99276.9
99276.4
99275.7
99274.6
99272.9
99271.7
99273.2
99280.6
99279.8
99282
99284
99285.5
99286.5
99287.3
99287.9
99288.4
99288.8
99289.1
99289.3
99289.4
99289.5
99289.6
99289.6
99289.5
99289.4
99289.3
99289.1
99288.8
99288.4
99287.9
99287.3
99286.5
99285.4
99283.9
99281.9
99279.8
99280.8
99290.6
99290.2
99292.7
99294.7
99296.4
99297.6
99298.6
99299.4
99299.9
99300.4
99300.7
99301
99301.2
99301.3
99301.3
99301.3
99301.3
99301.2
99301
99300.7
99300.4
99299.9
99299.3
99298.6
99297.6
99296.3
99294.7
99292.7
99290.4
99290.8
99302.2
99302
99304.7
99306.7
99308.4
99309.8
99310.8
99311.6
99312.3
99312.8
99313.2
99313.4
99313.7
99313.8
99313.9
99313.9
99313.8
99313.7
99313.4
99313.2
99312.8
99312.3
99311.6
99310.8
99309.8
99308.4
99306.8
99304.8
99302.2
99302.4
99315.4
99315.2
99318
99320
99321.6
99322.9
99324
99324.8
99325.5
99326
99326.4
99326.7
99327
99327.1
99327.2
99327.2
99327.1
99327
99326.7
99326.4
99326
99325.5
99324.8
99324
99323
99321.7
99320
99318.1
99315.4
99315.6
99330.3
99330.1
99332.6
99334.3
99335.8
99337.1
99338.1
99338.9
99339.5
99340.1
99340.5
99340.8
99341
99341.2
99341.3
99341.3
99341.2
99341
99340.8
99340.5
99340.1
99339.6
99338.9
99338.1
99337.1
99335.9
99334.4
99332.7
99330.3
99330.4
99346.8
99346.6
99348.5
99349.9
99351.2
99352.2
99353.1
99353.9
99354.5
99355
99355.3
99355.7
99355.9
99356
99356.1
99356.1
99356
99355.9
99355.7
99355.4
99355
99354.5
99353.9
99353.2
99352.3
99351.2
99349.9
99348.5
99346.7
99346.9
99364.5
99364.3
99365.5
99366.4
99367.4
99368.3
99369
99369.6
99370.1
99370.6
99371
99371.2
99371.4
99371.6
99371.6
99371.6
99371.6
99371.4
99371.2
99371
99370.6
99370.2
99369.6
99369
99368.3
99367.5
99366.5
99365.6
99364.4
99364.5
99382.9
99383.1
99383.6
99383.9
99384.5
99385
99385.6
99386.1
99386.5
99386.9
99387.2
99387.5
99387.7
99387.8
99387.8
99387.8
99387.8
99387.7
99387.5
99387.3
99386.9
99386.6
99386.1
99385.6
99385.1
99384.5
99384
99383.6
99383.2
99383
99401.8
99402.3
99402.3
99402.1
99402.3
99402.6
99403
99403.3
99403.7
99404
99404.3
99404.5
99404.7
99404.8
99404.8
99404.8
99404.8
99404.7
99404.5
99404.3
99404
99403.7
99403.4
99403
99402.6
99402.3
99402.2
99402.4
99402.4
99401.9
99420.7
99421.3
99421.2
99420.7
99420.6
99420.7
99420.9
99421.2
99421.5
99421.7
99422
99422.2
99422.4
99422.5
99422.5
99422.5
99422.5
99422.4
99422.2
99422
99421.8
99421.5
99421.2
99421
99420.7
99420.6
99420.8
99421.3
99421.4
99420.8
99439.8
99440.5
99440.4
99439.8
99439.5
99439.5
99439.6
99439.8
99440.1
99440.4
99440.6
99440.8
99441
99441.1
99441.1
99441.1
99441.1
99441
99440.8
99440.6
99440.4
99440.1
99439.9
99439.6
99439.5
99439.6
99439.8
99440.4
99440.5
99439.8
99458.6
99459.4
99459.4
99459
99458.8
99458.8
99458.9
99459.2
99459.5
99459.7
99460
99460.2
99460.3
99460.4
99460.5
99460.5
99460.4
99460.3
99460.2
99460
99459.7
99459.5
99459.2
99459
99458.8
99458.8
99459
99459.5
99459.4
99458.6
99477.2
99478
99478.4
99478.3
99478.4
99478.6
99478.8
99479.1
99479.5
99479.7
99480
99480.2
99480.4
99480.5
99480.6
99480.6
99480.5
99480.4
99480.2
99480
99479.7
99479.5
99479.2
99478.9
99478.6
99478.4
99478.3
99478.4
99477.9
99477.2
99495.5
99496.3
99497.6
99498.1
99498.5
99499
99499.4
99499.8
99500.1
99500.5
99500.8
99501
99501.2
99501.4
99501.5
99501.5
99501.4
99501.2
99501
99500.8
99500.5
99500.2
99499.8
99499.4
99499
99498.6
99498.1
99497.7
99496.3
99495.5
99514.7
99515.3
99517.2
99518.1
99519
99519.7
99520.3
99520.8
99521.3
99521.7
99522
99522.4
99522.6
99522.8
99522.9
99522.9
99522.8
99522.6
99522.4
99522
99521.7
99521.3
99520.8
99520.3
99519.7
99519
99518.1
99517.2
99515.3
99514.6
99535
99535.5
99537.3
99538.4
99539.7
99540.7
99541.4
99542.1
99542.7
99543.2
99543.6
99543.9
99544.2
99544.3
99544.3
99544.3
99544.3
99544.2
99543.9
99543.6
99543.2
99542.7
99542.1
99541.5
99540.7
99539.7
99538.4
99537.3
99535.5
99535
99556
99556.5
99558.4
99559.4
99560.8
99562
99562.9
99563.7
99564.4
99564.9
99565.3
99565.6
99565.7
99565.7
99565.7
99565.7
99565.7
99565.7
99565.6
99565.3
99564.9
99564.4
99563.7
99562.9
99562
99560.8
99559.4
99558.3
99556.5
99556
99578
99578.4
99580.5
99581.4
99582.7
99583.9
99584.9
99585.6
99586.3
99586.7
99587
99587.1
99587.1
99587.1
99587.1
99587.1
99587.1
99587.2
99587.1
99587
99586.7
99586.3
99585.7
99584.9
99583.9
99582.7
99581.4
99580.4
99578.4
99578
99600.8
99601.1
99603.1
99604
99605.1
99606.1
99607
99607.6
99608.1
99608.5
99608.7
99608.9
99609.1
99609.3
99609.4
99609.4
99609.3
99609.1
99608.9
99608.7
99608.5
99608.1
99607.6
99607
99606.1
99605.1
99604
99603.2
99601.1
99600.9
99623.9
99624
99625.9
99626.7
99627.6
99628.5
99629.2
99629.8
99630.3
99630.7
99631.2
99631.7
99632.1
99632.5
99632.8
99632.8
99632.5
99632.1
99631.6
99631.2
99630.7
99630.3
99629.8
99629.2
99628.5
99627.6
99626.8
99626
99624.1
99624
99647.7
99647.7
99649.3
99650
99650.7
99651.4
99652.1
99652.7
99653.4
99654
99654.7
99655.3
99655.9
99656.5
99656.8
99656.8
99656.4
99655.9
99655.3
99654.6
99654
99653.4
99652.7
99652.1
99651.4
99650.7
99650
99649.4
99647.8
99647.8
99672.5
99672.6
99673.6
99674.2
99674.7
99675.2
99675.9
99676.6
99677.2
99677.9
99678.6
99679.2
99679.7
99680
99680.2
99680.2
99680
99679.7
99679.2
99678.6
99678
99677.3
99676.6
99675.9
99675.3
99674.7
99674.2
99673.7
99672.7
99672.6
99697.7
99698.1
99698.4
99699
99699.3
99699.8
99700.3
99700.8
99701.3
99701.7
99702.1
99702.3
99702.4
99702.4
99702.4
99702.4
99702.5
99702.5
99702.4
99702.1
99701.8
99701.4
99700.9
99700.3
99699.8
99699.3
99699
99698.5
99698.2
99697.7
99722.3
99722.8
99723.1
99723.5
99723.9
99724.2
99724.4
99724.6
99724.6
99724.6
99724.4
99724.2
99724
99723.8
99723.7
99723.7
99723.8
99724.1
99724.3
99724.5
99724.7
99724.8
99724.7
99724.6
99724.3
99724
99723.6
99723.1
99722.8
99722.3
99745.7
99746.1
99746.9
99747.4
99747.8
99747.9
99747.7
99747.3
99746.9
99746.5
99746
99745.5
99745.1
99744.8
99744.7
99744.7
99744.9
99745.2
99745.6
99746.1
99746.6
99747.1
99747.5
99747.9
99748
99748
99747.5
99746.9
99746.1
99745.7
99767.7
99768.3
99770.2
99770.9
99771.2
99770.9
99770.3
99769.6
99768.9
99768.2
99767.6
99767
99766.4
99766.1
99765.9
99765.9
99766.1
99766.5
99767.1
99767.7
99768.4
99769.1
99769.8
99770.5
99771.1
99771.3
99771
99770.2
99768.3
99767.7
99791.2
99792.9
99794.8
99795.4
99795.2
99794.5
99793.5
99792.6
99791.6
99790.7
99789.9
99789.1
99788.5
99788.1
99787.9
99787.9
99788.1
99788.5
99789.2
99789.9
99790.8
99791.8
99792.7
99793.8
99794.7
99795.4
99795.4
99794.7
99792.7
99791
99820.7
99822.8
99822.9
99822.5
99821.4
99820.1
99818.7
99817.4
99816.3
99815.3
99814.4
99813.6
99813
99812.6
99812.3
99812.4
99812.6
99813
99813.6
99814.4
99815.4
99816.4
99817.6
99818.9
99820.3
99821.6
99822.5
99822.6
99822.6
99820.4
99858.2
99858.8
99855.9
99852.7
99850.3
99848.3
99846.5
99845
99843.7
99842.7
99841.6
99840.9
99840.5
99840.1
99839.9
99839.9
99840.1
99840.5
99841.1
99841.8
99842.7
99843.9
99845.2
99846.7
99848.5
99850.5
99852.8
99855.9
99858.4
99858.2
99908.7
99902.5
99896.7
99890
99886.4
99883.9
99881.5
99879.4
99877.6
99876.2
99875.4
99875
99874.8
99874.8
99874.8
99874.8
99874.9
99875.1
99875.4
99876
99876.8
99878.1
99879.8
99881.5
99883.6
99886.9
99890.8
99897.5
99902.2
99909.3
99957.7
99948.6
99942.4
99935.9
99932.6
99929.1
99925.9
99923.4
99921
99918.9
99919
99918.9
99918.8
99919
99919.4
99919.4
99919.2
99919.3
99919.4
99919.8
99920.5
99921.7
99923.8
99925.7
99928.5
99933
99937.9
99944.3
99950
99958.3
99973.1
99972.4
99972.8
99971
99967.1
99966.1
99964.7
99963.5
99962.9
99962.3
99961.5
99960.9
99960.6
99960.3
99960.7
99960.9
99960.9
99960.6
99961.1
99961.7
99962.4
99963.2
99964.5
99965.4
99967
99968.8
99971.3
99973.1
99972.8
99973.9
99976.7
99976.8
99977.4
99977.9
99977.5
99977.2
99977.8
99977.8
99978.1
99978.3
99978.5
99978.5
99978.4
99978.3
99978.5
99978.7
99978.4
99978.3
99978.5
99978.6
99978.6
99978.4
99978.2
99978
99977.9
99977.6
99978
99977.7
99977.1
99977.2
99977.9
99978
99978.1
99978.3
99978.3
99978.3
99978.4
99978.5
99978.5
99978.5
99978.6
99978.7
99978.7
99978.7
99978.7
99978.7
99978.7
99978.7
99978.7
99978.7
99978.7
99978.6
99978.6
99978.6
99978.5
99978.5
99978.4
99978.3
99978.2
99978.2
99978.4
99978.4
99978.4
99978.5
99978.5
99978.5
99978.5
99978.4
99978.4
99978.4
99978.4
99978.4
99978.4
99978.5
99978.5
99978.4
99978.5
99978.5
99978.4
99978.4
99978.5
99978.5
99978.5
99978.6
99978.6
99978.6
99978.6
99978.6
99978.6
99978.6
99978.6
99978.6
99978.6
99978.6
99978.6
99978.6
99978.6
99978.5
99978.5
99978.5
99978.5
99978.5
99978.5
99978.5
99978.5
99978.5
99978.5
99978.5
99978.5
99978.5
99978.5
99978.6
99978.6
99978.7
99978.7
99978.7
99978.7
99978.8
99978.8
99978.7
99978.7
99978.7
99978.8
99978.8
99978.7
99978.7
99978.7
99978.6
99978.6
99978.6
99978.6
99978.6
99978.6
99978.7
99978.7
99978.7
99978.7
99978.7
99978.7
99978.7
99978.7
99978.7
99978.7
99978.8
99978.8
99978.8
99978.9
99978.9
99978.8
99978.8
99978.8
99978.9
99978.9
99978.9
99978.8
99978.8
99978.8
99978.7
99978.7
99978.7
99978.7
99978.7
99978.8
99978.8
99978.8
99978.8
99978.8
99978.8
99978.8
99978.8
99978.8
99978.8
99978.8
99978.9
99978.9
99978.9
99979
99979
99978.9
99978.9
99978.9
99979
99979
99979
99979
99978.9
99978.9
99978.9
99978.9
99978.9
99978.9
99978.9
99978.9
99978.9
99978.9
99978.9
99978.9
99978.9
99978.9
99978.9
99978.9
99979
99979
99979
99979
99979.1
99979.1
99979.1
99979
99979
99979
99979.1
99979.1
99979.1
99979.1
99979
99979
99979
99979
99979
99979
99979
99979
99979
99979
99979
99979
99979
99979.1
99979.1
99979.1
99979.1
99979.1
99979.1
99979.1
99979.2
99979.2
99979.2
99979.1
99979.1
99979.2
99979.2
99979.2
99979.2
99979.2
99979.2
99979.1
99979.1
99979.2
99979.1
99979.1
99979.1
99979.1
99979.1
99979.1
99979.2
99979.2
99979.2
99979.2
99979.2
99979.2
99979.2
99979.2
99979.2
99979.2
99979.3
99979.3
99979.3
99979.3
99979.3
99979.3
99979.3
99979.3
99979.3
99979.3
99979.3
99979.3
99979.3
99979.3
99979.3
99979.3
99979.3
99979.3
99979.3
99979.3
99979.3
99979.3
99979.3
99979.3
99979.3
99979.3
99979.4
99979.3
99979.3
99979.3
99979.4
99979.4
99979.4
99979.4
99979.4
99979.5
99979.5
99979.5
99979.5
99979.4
99979.4
99979.4
99979.4
99979.4
99979.4
99979.4
99979.4
99979.4
99979.4
99979.4
99979.4
99979.4
99979.5
99979.5
99979.5
99979.5
99979.5
99979.5
99979.5
99979.5
99979.5
99979.5
99979.5
99979.6
99979.6
99979.8
99979.7
99979.7
99979.6
99979.6
99979.6
99979.6
99979.6
99979.6
99979.6
99979.6
99979.6
99979.6
99979.6
99979.6
99979.6
99979.6
99979.6
99979.6
99979.6
99979.6
99979.6
99979.6
99979.6
99979.6
99979.6
99979.6
99979.7
99979.7
99979.7
99980
99979.9
99979.9
99979.8
99979.8
99979.7
99979.7
99979.8
99979.8
99979.7
99979.7
99979.7
99979.7
99979.7
99979.7
99979.7
99979.7
99979.8
99979.8
99979.8
99979.8
99979.8
99979.8
99979.8
99979.8
99979.8
99979.8
99979.8
99979.8
99979.9
99980.2
99980.2
99980.1
99980
99980
99979.9
99979.9
99979.9
99979.9
99979.9
99979.9
99979.9
99979.9
99979.9
99979.9
99979.9
99979.9
99979.9
99979.9
99979.9
99979.9
99979.9
99979.9
99979.9
99980
99980
99980
99980
99980
99980.1
99980.5
99980.4
99980.3
99980.2
99980.2
99980.2
99980.1
99980.1
99980.1
99980.1
99980.1
99980.1
99980.1
99980.1
99980.1
99980.1
99980.1
99980.1
99980.1
99980.1
99980.1
99980.1
99980.1
99980.2
99980.2
99980.2
99980.2
99980.2
99980.3
99980.3
99980.7
99980.7
99980.6