/*--------------------------------*- C++ -*----------------------------------*\
| =========                 |                                                 |
| \\      /  F ield         | OpenFOAM: The Open Source CFD Toolbox           |
|  \\    /   O peration     | Version:  2.3.0                                 |
|   \\  /    A nd           | Web:      www.OpenFOAM.org                      |
|    \\/     M anipulation  |                                                 |
\*---------------------------------------------------------------------------*/
FoamFile
{
    version     2.0;
    format      ascii;
    class       volVectorField;
    location    "0.05";
    object      U.airMean;
}
// * * * * * * * * * * * * * * * * * * * * * * * * * * * * * * * * * * * * * //

dimensions      [0 1 -1 0 0 0 0];

internalField   nonuniform List<vector> 
6000
(
(0.0161422 0.416987 0)
(0.0501421 0.415547 0)
(0.0742707 0.417866 0)
(0.0888228 0.421451 0)
(0.0945084 0.425391 0)
(0.0938138 0.428585 0)
(0.088637 0.430818 0)
(0.0805735 0.43218 0)
(0.0708197 0.432894 0)
(0.0602077 0.433237 0)
(0.0492336 0.43335 0)
(0.0381698 0.43337 0)
(0.0271473 0.433338 0)
(0.0162054 0.433293 0)
(0.00534487 0.433248 0)
(-0.0054699 0.433243 0)
(-0.0163218 0.433293 0)
(-0.0272597 0.433341 0)
(-0.0382815 0.433375 0)
(-0.0493472 0.433357 0)
(-0.0603256 0.433245 0)
(-0.0709438 0.432903 0)
(-0.0807045 0.432188 0)
(-0.0887728 0.430824 0)
(-0.0939463 0.428583 0)
(-0.0946213 0.425379 0)
(-0.0888971 0.421433 0)
(-0.0743003 0.417852 0)
(-0.050143 0.415543 0)
(-0.0161395 0.416993 0)
(0.0225828 0.875769 0)
(0.0483984 0.869083 0)
(0.0813972 0.873827 0)
(0.100308 0.882511 0)
(0.106628 0.89105 0)
(0.103914 0.898024 0)
(0.0960904 0.903017 0)
(0.0857919 0.906036 0)
(0.0744394 0.907661 0)
(0.0627347 0.908338 0)
(0.0510141 0.908531 0)
(0.0394173 0.90845 0)
(0.0279899 0.908298 0)
(0.0167078 0.908124 0)
(0.00551853 0.907997 0)
(-0.00564043 0.907987 0)
(-0.0168287 0.908123 0)
(-0.0281087 0.908303 0)
(-0.0395351 0.908461 0)
(-0.0511328 0.908545 0)
(-0.062857 0.908358 0)
(-0.0745687 0.907684 0)
(-0.0859315 0.906061 0)
(-0.09624 0.903035 0)
(-0.104065 0.898024 0)
(-0.106758 0.891025 0)
(-0.100385 0.882457 0)
(-0.0814112 0.873779 0)
(-0.0483713 0.869071 0)
(-0.022568 0.875785 0)
(0.0181902 0.848981 0)
(0.0381225 0.835227 0)
(0.0712379 0.850633 0)
(0.0934868 0.872614 0)
(0.102635 0.891596 0)
(0.101313 0.904284 0)
(0.0935798 0.911758 0)
(0.0828479 0.915613 0)
(0.0711679 0.917294 0)
(0.0594629 0.91778 0)
(0.048044 0.917685 0)
(0.0369653 0.917346 0)
(0.0261799 0.916968 0)
(0.0156085 0.91665 0)
(0.00515354 0.916452 0)
(-0.00526858 0.916443 0)
(-0.0157247 0.916644 0)
(-0.0262925 0.916968 0)
(-0.0370751 0.917353 0)
(-0.0481535 0.917701 0)
(-0.0595745 0.917805 0)
(-0.0712863 0.917328 0)
(-0.08298 0.915655 0)
(-0.0937314 0.911796 0)
(-0.101482 0.904296 0)
(-0.1028 0.891545 0)
(-0.0935979 0.872488 0)
(-0.0712593 0.850506 0)
(-0.0380665 0.835191 0)
(-0.0181381 0.849046 0)
(0.0186821 0.847223 0)
(0.0331473 0.833422 0)
(0.0540274 0.854898 0)
(0.0713191 0.883243 0)
(0.0814015 0.909089 0)
(0.0836659 0.926765 0)
(0.0796003 0.936658 0)
(0.071604 0.941133 0)
(0.06184 0.942538 0)
(0.0516535 0.942483 0)
(0.0416351 0.941847 0)
(0.0319488 0.941076 0)
(0.0225775 0.940385 0)
(0.0134397 0.939872 0)
(0.00443489 0.93959 0)
(-0.00453152 0.939586 0)
(-0.0135377 0.939867 0)
(-0.0226715 0.940387 0)
(-0.0320392 0.94109 0)
(-0.0417232 0.941871 0)
(-0.0517397 0.94252 0)
(-0.0619272 0.942596 0)
(-0.0717001 0.941211 0)
(-0.0797188 0.936751 0)
(-0.0838247 0.926842 0)
(-0.081605 0.909087 0)
(-0.0715265 0.883118 0)
(-0.0541612 0.854699 0)
(-0.0331395 0.83331 0)
(-0.0186115 0.847347 0)
(0.0209723 0.846456 0)
(0.0343164 0.843044 0)
(0.0452959 0.870922 0)
(0.0539428 0.904451 0)
(0.0595499 0.934483 0)
(0.0622126 0.955895 0)
(0.0614354 0.968484 0)
(0.0572898 0.974285 0)
(0.050771 0.975921 0)
(0.0430681 0.975541 0)
(0.0349965 0.974422 0)
(0.0269563 0.973207 0)
(0.0190802 0.972178 0)
(0.0113656 0.971449 0)
(0.00375506 0.971066 0)
(-0.00382268 0.971063 0)
(-0.0114353 0.97144 0)
(-0.0191515 0.972173 0)
(-0.0270244 0.973217 0)
(-0.0350557 0.974441 0)
(-0.0431152 0.975577 0)
(-0.050805 0.975984 0)
(-0.0573153 0.974384 0)
(-0.0614709 0.968624 0)
(-0.0623016 0.956061 0)
(-0.0597531 0.934611 0)
(-0.0542698 0.904429 0)
(-0.0456507 0.870706 0)
(-0.0345165 0.842799 0)
(-0.0209943 0.846582 0)
(0.0213596 0.841258 0)
(0.0352776 0.854685 0)
(0.0418589 0.889378 0)
(0.0445525 0.927069 0)
(0.0448418 0.958943 0)
(0.0449751 0.98176 0)
(0.0448907 0.996103 0)
(0.043352 1.00347 0)
(0.0398829 1.00598 0)
(0.0348585 1.00584 0)
(0.0289226 1.00461 0)
(0.0225783 1.00315 0)
(0.0161133 1.00189 0)
(0.00964493 1.00099 0)
(0.00319913 1.00052 0)
(-0.00323708 1.00051 0)
(-0.0096855 1.00097 0)
(-0.0161565 1.00187 0)
(-0.0226173 1.00314 0)
(-0.028946 1.0046 0)
(-0.0348578 1.00585 0)
(-0.0398497 1.00601 0)
(-0.0432832 1.00354 0)
(-0.0447978 0.99624 0)
(-0.0449074 0.981982 0)
(-0.0449134 0.959223 0)
(-0.0448729 0.927252 0)
(-0.0423977 0.889267 0)
(-0.0358048 0.854315 0)
(-0.0216114 0.841214 0)
(0.0201187 0.835103 0)
(0.0338727 0.867115 0)
(0.039098 0.909284 0)
(0.039074 0.950676 0)
(0.0361406 0.983075 0)
(0.0338301 1.00531 0)
(0.0328797 1.0198 0)
(0.0321046 1.02809 0)
(0.0304284 1.03167 0)
(0.0274716 1.03227 0)
(0.0234203 1.03139 0)
(0.0186546 1.03003 0)
(0.0134923 1.02874 0)
(0.00814208 1.02779 0)
(0.00271147 1.02728 0)
(-0.00274042 1.02728 0)
(-0.00817061 1.02777 0)
(-0.0135187 1.02871 0)
(-0.0186709 1.03 0)
(-0.0234169 1.03135 0)
(-0.0274347 1.03223 0)
(-0.030342 1.03164 0)
(-0.0319519 1.02809 0)
(-0.0326521 1.01988 0)
(-0.0335479 1.00552 0)
(-0.0359218 0.983464 0)
(-0.0391424 0.951131 0)
(-0.0395445 0.909428 0)
(-0.0345483 0.866747 0)
(-0.0205831 0.834698 0)
(0.0176305 0.831201 0)
(0.0302988 0.880054 0)
(0.0351706 0.929859 0)
(0.0343687 0.974724 0)
(0.0305231 1.00698 0)
(0.0273081 1.02798 0)
(0.0255028 1.04171 0)
(0.0244391 1.05011 0)
(0.0232859 1.05438 0)
(0.0214188 1.05577 0)
(0.018664 1.05549 0)
(0.0151507 1.05449 0)
(0.011116 1.05338 0)
(0.00676625 1.05251 0)
(0.00225915 1.05203 0)
(-0.00229446 1.05202 0)
(-0.00679891 1.05248 0)
(-0.0111412 1.05334 0)
(-0.0151644 1.05444 0)
(-0.018657 1.05542 0)
(-0.0213771 1.05568 0)
(-0.0231869 1.05427 0)
(-0.0242571 1.05001 0)
(-0.0252034 1.04165 0)
(-0.0268657 1.02805 0)
(-0.0299845 1.00733 0)
(-0.0340044 0.975423 0)
(-0.0352191 0.930352 0)
(-0.030706 0.879865 0)
(-0.0180637 0.8304 0)
(0.0143647 0.83111 0)
(0.0257942 0.893818 0)
(0.0304669 0.950547 0)
(0.0295083 0.997972 0)
(0.0261532 1.02986 0)
(0.0233378 1.04995 0)
(0.0212808 1.06295 0)
(0.0197841 1.07104 0)
(0.0184879 1.07554 0)
(0.0169454 1.07748 0)
(0.014862 1.07777 0)
(0.0121921 1.07722 0)
(0.00903183 1.0764 0)
(0.00553683 1.0757 0)
(0.00185138 1.07529 0)
(-0.00189285 1.07528 0)
(-0.00557713 1.07566 0)
(-0.00906861 1.07636 0)
(-0.0122203 1.07715 0)
(-0.0148773 1.07767 0)
(-0.0169345 1.07734 0)
(-0.0184328 1.07537 0)
(-0.0196499 1.07082 0)
(-0.0210165 1.06272 0)
(-0.0228646 1.04977 0)
(-0.0254111 1.02996 0)
(-0.0286957 0.99866 0)
(-0.0299967 0.951366 0)
(-0.0257061 0.893949 0)
(-0.0143942 0.830103 0)
(0.0112106 0.835292 0)
(0.0213025 0.90813 0)
(0.0255466 0.970554 0)
(0.0248095 1.01976 0)
(0.0225395 1.0514 0)
(0.020557 1.0713 0)
(0.0186485 1.08392 0)
(0.0169313 1.09169 0)
(0.0153981 1.09616 0)
(0.0138393 1.09834 0)
(0.012035 1.09902 0)
(0.00985891 1.09886 0)
(0.00732289 1.09835 0)
(0.00449968 1.09784 0)
(0.00150441 1.09753 0)
(-0.00155035 1.09751 0)
(-0.00454897 1.09781 0)
(-0.00737399 1.09829 0)
(-0.00991382 1.09879 0)
(-0.0120892 1.0989 0)
(-0.0138922 1.09818 0)
(-0.0154336 1.09592 0)
(-0.0169186 1.09139 0)
(-0.0185236 1.08351 0)
(-0.0202109 1.07085 0)
(-0.0218122 1.0511 0)
(-0.0237277 1.02017 0)
(-0.0245499 0.971515 0)
(-0.0207377 0.908479 0)
(-0.0109181 0.834506 0)
(0.00842648 0.842653 0)
(0.0171259 0.922799 0)
(0.0211399 0.989828 0)
(0.0211673 1.04002 0)
(0.0200586 1.07201 0)
(0.0185983 1.09229 0)
(0.0167962 1.10484 0)
(0.0149939 1.11238 0)
(0.0133081 1.1167 0)
(0.0116899 1.11893 0)
(0.00999573 1.11981 0)
(0.00811427 1.11993 0)
(0.00599736 1.11964 0)
(0.00368073 1.11933 0)
(0.00122768 1.11908 0)
(-0.00127454 1.11909 0)
(-0.00373399 1.11928 0)
(-0.00606371 1.11961 0)
(-0.0081952 1.11984 0)
(-0.0100985 1.11972 0)
(-0.0118193 1.11877 0)
(-0.0134635 1.11648 0)
(-0.0151516 1.11202 0)
(-0.0169013 1.10433 0)
(-0.0185187 1.09156 0)
(-0.0195749 1.07125 0)
(-0.0200734 1.0398 0)
(-0.0198764 0.990811 0)
(-0.0162037 0.92349 0)
(-0.00803206 0.842184 0)
(0.00623192 0.852594 0)
(0.0140956 0.937961 0)
(0.0183872 1.00804 0)
(0.0193255 1.05921 0)
(0.0187923 1.09243 0)
(0.0172834 1.11328 0)
(0.0153898 1.12584 0)
(0.0135213 1.13319 0)
(0.0117885 1.13735 0)
(0.0101489 1.13949 0)
(0.0085286 1.14045 0)
(0.00683085 1.1407 0)
(0.0050111 1.1406 0)
(0.00306077 1.14039 0)
(0.00101963 1.14024 0)
(-0.00105969 1.14022 0)
(-0.00311205 1.14037 0)
(-0.00508206 1.14055 0)
(-0.00693205 1.14066 0)
(-0.00867099 1.14037 0)
(-0.0103509 1.1394 0)
(-0.0120628 1.13715 0)
(-0.0138728 1.1329 0)
(-0.015784 1.12529 0)
(-0.0175927 1.1124 0)
(-0.0186979 1.09118 0)
(-0.0184483 1.05824 0)
(-0.0169662 1.00856 0)
(-0.0129367 0.939039 0)
(-0.00571239 0.852526 0)
(0.0050265 0.864021 0)
(0.0128431 0.952966 0)
(0.0175752 1.02539 0)
(0.018931 1.07853 0)
(0.0181321 1.11327 0)
(0.0162535 1.13449 0)
(0.0141896 1.14693 0)
(0.0122937 1.15409 0)
(0.0105812 1.15805 0)
(0.00899276 1.1601 0)
(0.0074485 1.16102 0)
(0.00589503 1.16136 0)
(0.00428481 1.16133 0)
(0.00260751 1.16123 0)
(0.000870104 1.1611 0)
(-0.00089321 1.16112 0)
(-0.00264319 1.16119 0)
(-0.00434687 1.16133 0)
(-0.00599671 1.16133 0)
(-0.00760907 1.16103 0)
(-0.00923541 1.16006 0)
(-0.0109458 1.158 0)
(-0.0128196 1.1539 0)
(-0.0149028 1.14654 0)
(-0.0170778 1.13359 0)
(-0.018699 1.11165 0)
(-0.0185625 1.07663 0)
(-0.0161209 1.0251 0)
(-0.0113347 0.954251 0)
(-0.00419508 0.864532 0)
(0.00508293 0.876002 0)
(0.013242 0.967708 0)
(0.0179784 1.04303 0)
(0.0188304 1.09882 0)
(0.0173109 1.13462 0)
(0.0151457 1.15582 0)
(0.0130882 1.16805 0)
(0.0112409 1.17493 0)
(0.00959445 1.17875 0)
(0.00807618 1.18067 0)
(0.00662244 1.18159 0)
(0.00518842 1.1819 0)
(0.00374951 1.18196 0)
(0.00227503 1.18187 0)
(0.000767074 1.18181 0)
(-0.000761061 1.18179 0)
(-0.00228165 1.18189 0)
(-0.00378203 1.18194 0)
(-0.00526689 1.18195 0)
(-0.00676467 1.18162 0)
(-0.00831114 1.18077 0)
(-0.00997634 1.17882 0)
(-0.0118579 1.17502 0)
(-0.0140457 1.16796 0)
(-0.016537 1.15531 0)
(-0.0188931 1.13298 0)
(-0.019604 1.09597 0)
(-0.0170958 1.04134 0)
(-0.0114846 0.968927 0)
(-0.00398663 0.877451 0)
(0.00617758 0.887664 0)
(0.0143666 0.982536 0)
(0.0183099 1.06192 0)
(0.017941 1.12 0)
(0.0158714 1.15599 0)
(0.0138742 1.17698 0)
(0.0120662 1.18897 0)
(0.0103808 1.19568 0)
(0.00881606 1.19931 0)
(0.00737071 1.20119 0)
(0.00599287 1.20204 0)
(0.00466473 1.20238 0)
(0.00335096 1.20241 0)
(0.00203243 1.2024 0)
(0.000695588 1.20231 0)
(-0.000654163 1.20235 0)
(-0.00200205 1.20237 0)
(-0.00334275 1.20246 0)
(-0.00469237 1.20242 0)
(-0.00607295 1.20217 0)
(-0.00752547 1.20135 0)
(-0.00910507 1.19961 0)
(-0.0109053 1.19605 0)
(-0.0130221 1.18945 0)
(-0.0155677 1.17724 0)
(-0.0185217 1.15526 0)
(-0.020619 1.11693 0)
(-0.0191895 1.05842 0)
(-0.0131503 0.982875 0)
(-0.00467066 0.889899 0)
(0.00716522 0.898951 0)
(0.014701 0.998464 0)
(0.0171542 1.0821 0)
(0.0158614 1.14101 0)
(0.0141763 1.17675 0)
(0.0127807 1.19769 0)
(0.0113044 1.20969 0)
(0.00975402 1.21629 0)
(0.0082561 1.21982 0)
(0.00684868 1.2216 0)
(0.00553337 1.22244 0)
(0.00427812 1.22271 0)
(0.00305931 1.22278 0)
(0.00185184 1.22273 0)
(0.000645033 1.22271 0)
(-0.000568358 1.22269 0)
(-0.00178168 1.22277 0)
(-0.00300191 1.2228 0)
(-0.00423759 1.22282 0)
(-0.00551021 1.22256 0)
(-0.0068555 1.22188 0)
(-0.00831558 1.22022 0)
(-0.00994155 1.21698 0)
(-0.0118005 1.21067 0)
(-0.0140188 1.19904 0)
(-0.0169434 1.17772 0)
(-0.0203871 1.13955 0)
(-0.0210184 1.07746 0)
(-0.0158873 0.996732 0)
(-0.00629153 0.901732 0)
(0.00684324 0.910469 0)
(0.0126742 1.01565 0)
(0.0141918 1.10211 0)
(0.013672 1.16069 0)
(0.0132902 1.19662 0)
(0.0124643 1.2181 0)
(0.0110419 1.2303 0)
(0.00944435 1.23693 0)
(0.00789851 1.24031 0)
(0.00648194 1.24202 0)
(0.00518487 1.24274 0)
(0.00398288 1.24301 0)
(0.00283182 1.24301 0)
(0.00171496 1.243 0)
(0.000609406 1.24293 0)
(-0.000496677 1.24297 0)
(-0.00160565 1.24298 0)
(-0.00272541 1.24308 0)
(-0.0038667 1.24307 0)
(-0.0050492 1.24291 0)
(-0.00630395 1.24224 0)
(-0.00765032 1.24076 0)
(-0.00910481 1.23762 0)
(-0.0106547 1.23156 0)
(-0.0123292 1.22014 0)
(-0.0145141 1.19956 0)
(-0.0179874 1.16253 0)
(-0.0206554 1.09883 0)
(-0.0178761 1.01163 0)
(-0.00864648 0.912272 0)
(0.00442911 0.923176 0)
(0.00929834 1.03374 0)
(0.0115573 1.12016 0)
(0.0130969 1.17861 0)
(0.0140026 1.21613 0)
(0.0130959 1.23868 0)
(0.0112782 1.25116 0)
(0.00939136 1.25766 0)
(0.00769806 1.26092 0)
(0.00621526 1.26242 0)
(0.00491884 1.26307 0)
(0.00374417 1.26321 0)
(0.00265222 1.26323 0)
(0.00160598 1.26314 0)
(0.000580534 1.26313 0)
(-0.000440446 1.2631 0)
(-0.00146442 1.26319 0)
(-0.00250249 1.26324 0)
(-0.00356943 1.26331 0)
(-0.00469058 1.26314 0)
(-0.00588859 1.2626 0)
(-0.00718725 1.26115 0)
(-0.00857314 1.25815 0)
(-0.0099854 1.25204 0)
(-0.0113041 1.24062 0)
(-0.0125016 1.22006 0)
(-0.0144591 1.18404 0)
(-0.0171511 1.12114 0)
(-0.016372 1.02871 0)
(-0.00941138 0.922273 0)
(0.00102463 0.937937 0)
(0.00695778 1.05014 0)
(0.0114293 1.13545 0)
(0.0154221 1.19597 0)
(0.0162366 1.23658 0)
(0.0142441 1.26011 0)
(0.0116414 1.27245 0)
(0.00937974 1.27866 0)
(0.00751678 1.2816 0)
(0.00598289 1.28291 0)
(0.00468168 1.28335 0)
(0.0035425 1.28346 0)
(0.00249818 1.28336 0)
(0.00151343 1.2833 0)
(0.000554716 1.28322 0)
(-0.000396452 1.28325 0)
(-0.00135122 1.28327 0)
(-0.00232436 1.28341 0)
(-0.00333739 1.28345 0)
(-0.00441992 1.2834 0)
(-0.00560791 1.28289 0)
(-0.00692978 1.28161 0)
(-0.00839489 1.27862 0)
(-0.00994537 1.27256 0)
(-0.0113314 1.26078 0)
(-0.0119475 1.23948 0)
(-0.0117843 1.2028 0)
(-0.0127348 1.14135 0)
(-0.0118096 1.04781 0)
(-0.00709966 0.933409 0)
(0.000535417 0.954468 0)
(0.00834824 1.06437 0)
(0.0162576 1.14951 0)
(0.0201363 1.2157 0)
(0.0187132 1.25919 0)
(0.0148574 1.28258 0)
(0.0115779 1.29422 0)
(0.00910377 1.29981 0)
(0.00720595 1.30237 0)
(0.00568876 1.30336 0)
(0.00443354 1.30367 0)
(0.00334125 1.30361 0)
(0.00235456 1.30351 0)
(0.0014261 1.30335 0)
(0.000527255 1.30332 0)
(-0.000360484 1.30329 0)
(-0.00125443 1.30339 0)
(-0.00217367 1.30348 0)
(-0.00314291 1.30363 0)
(-0.00420084 1.3036 0)
(-0.00539398 1.30327 0)
(-0.00677975 1.30209 0)
(-0.00841161 1.29934 0)
(-0.0103228 1.29335 0)
(-0.0122987 1.28144 0)
(-0.0133085 1.25881 0)
(-0.0119466 1.21984 0)
(-0.00983303 1.15834 0)
(-0.00763292 1.06601 0)
(-0.00242738 0.946936 0)
(0.00274842 0.967073 0)
(0.0150325 1.0759 0)
(0.0232883 1.16594 0)
(0.0238647 1.2397 0)
(0.0187145 1.28353 0)
(0.0138356 1.30549 0)
(0.0106673 1.31601 0)
(0.00839815 1.32093 0)
(0.00666608 1.32302 0)
(0.00528778 1.32379 0)
(0.00413046 1.32387 0)
(0.00312311 1.32377 0)
(0.00220457 1.32355 0)
(0.00133782 1.32342 0)
(0.000500164 1.32331 0)
(-0.000325641 1.32334 0)
(-0.0011628 1.32339 0)
(-0.00202983 1.32357 0)
(-0.00295161 1.32372 0)
(-0.00397139 1.32385 0)
(-0.00514992 1.32361 0)
(-0.00656382 1.32271 0)
(-0.00833863 1.32023 0)
(-0.010628 1.31474 0)
(-0.013505 1.3031 0)
(-0.0161459 1.27979 0)
(-0.0157769 1.23737 0)
(-0.0111051 1.17219 0)
(-0.00597542 1.08132 0)
(0.00110924 0.96327 0)
(0.00851079 0.978594 0)
(0.0218474 1.08698 0)
(0.0266124 1.1877 0)
(0.022994 1.26654 0)
(0.0159268 1.30807 0)
(0.0116537 1.32778 0)
(0.00916891 1.33737 0)
(0.0073746 1.34172 0)
(0.00596153 1.34351 0)
(0.00478776 1.34402 0)
(0.00378143 1.34403 0)
(0.00288018 1.34378 0)
(0.00204444 1.34358 0)
(0.00124628 1.34337 0)
(0.000474702 1.34332 0)
(-0.000288535 1.34328 0)
(-0.0010658 1.34341 0)
(-0.00187345 1.34355 0)
(-0.00273176 1.34382 0)
(-0.00368471 1.34398 0)
(-0.0047937 1.34397 0)
(-0.00615015 1.34328 0)
(-0.00789761 1.3413 0)
(-0.0102716 1.33643 0)
(-0.0136238 1.32583 0)
(-0.018184 1.30318 0)
(-0.0212454 1.25843 0)
(-0.0181598 1.18628 0)
(-0.00996437 1.09402 0)
(0.000336703 0.9793 0)
(0.014222 0.985085 0)
(0.0249284 1.10231 0)
(0.0254663 1.2164 0)
(0.0193464 1.29335 0)
(0.0125525 1.33108 0)
(0.00962237 1.34912 0)
(0.00772384 1.35805 0)
(0.00635822 1.36212 0)
(0.00524032 1.36369 0)
(0.00428179 1.36412 0)
(0.00342173 1.36401 0)
(0.00263431 1.36377 0)
(0.0018823 1.36349 0)
(0.00115722 1.36332 0)
(0.000454037 1.3632 0)
(-0.00024665 1.36323 0)
(-0.000959334 1.36331 0)
(-0.0016985 1.36354 0)
(-0.00247938 1.36379 0)
(-0.00333622 1.3641 0)
(-0.00432272 1.36418 0)
(-0.00551113 1.36378 0)
(-0.00702559 1.36216 0)
(-0.00905628 1.35805 0)
(-0.0119748 1.34856 0)
(-0.0170561 1.32803 0)
(-0.0241716 1.28452 0)
(-0.025402 1.20529 0)
(-0.0186562 1.10436 0)
(-0.00462804 0.991463 0)
(0.0127969 0.99256 0)
(0.0193793 1.12122 0)
(0.0189232 1.24172 0)
(0.012708 1.31616 0)
(0.00943831 1.352 0)
(0.0079862 1.36962 0)
(0.0066485 1.37826 0)
(0.00556481 1.38216 0)
(0.00465486 1.38367 0)
(0.00384538 1.38401 0)
(0.00310982 1.38391 0)
(0.00240977 1.3836 0)
(0.00173445 1.38339 0)
(0.00108054 1.38315 0)
(0.000438975 1.38309 0)
(-0.000201071 1.38306 0)
(-0.000848997 1.38321 0)
(-0.00151847 1.38339 0)
(-0.00221657 1.38372 0)
(-0.0029623 1.38404 0)
(-0.00379595 1.38427 0)
(-0.00476885 1.38398 0)
(-0.00595251 1.3827 0)
(-0.00747909 1.37901 0)
(-0.00968205 1.37047 0)
(-0.013572 1.35232 0)
(-0.0213453 1.31275 0)
(-0.0270429 1.23039 0)
(-0.0242752 1.11757 0)
(-0.0127705 1.00012 0)
(0.0089426 1.00345 0)
(0.0122285 1.14379 0)
(0.0123637 1.2635 0)
(0.00686863 1.33496 0)
(0.00727901 1.37118 0)
(0.00690288 1.38948 0)
(0.00599733 1.39814 0)
(0.00507376 1.40202 0)
(0.00425409 1.40347 0)
(0.00353401 1.40382 0)
(0.00286833 1.40367 0)
(0.00223133 1.40342 0)
(0.00161429 1.40315 0)
(0.0010195 1.40297 0)
(0.000431374 1.40285 0)
(-0.000156849 1.40288 0)
(-0.000747928 1.40298 0)
(-0.00135222 1.40322 0)
(-0.00197182 1.4035 0)
(-0.00261537 1.40389 0)
(-0.00330835 1.40411 0)
(-0.00408233 1.40396 0)
(-0.00498786 1.40276 0)
(-0.00611183 1.39936 0)
(-0.00769683 1.39132 0)
(-0.00995637 1.37446 0)
(-0.0153567 1.33861 0)
(-0.0228375 1.25974 0)
(-0.0231158 1.13469 0)
(-0.0139572 1.00599 0)
(0.00255754 1.01571 0)
(0.0087137 1.16187 0)
(0.00721427 1.28094 0)
(0.00626803 1.35195 0)
(0.00733026 1.38994 0)
(0.00679589 1.40909 0)
(0.005818 1.41796 0)
(0.0048529 1.42179 0)
(0.00403961 1.42321 0)
(0.00334013 1.42351 0)
(0.00270934 1.42339 0)
(0.00210599 1.42312 0)
(0.00153132 1.4229 0)
(0.000977832 1.42267 0)
(0.000430189 1.42261 0)
(-0.000117799 1.42259 0)
(-0.000666767 1.42273 0)
(-0.00121699 1.42292 0)
(-0.00177508 1.42323 0)
(-0.00234151 1.42357 0)
(-0.00292896 1.42384 0)
(-0.00356686 1.42366 0)
(-0.00428275 1.42255 0)
(-0.00512734 1.4192 0)
(-0.00614222 1.41139 0)
(-0.00705141 1.39456 0)
(-0.00865822 1.35921 0)
(-0.0156382 1.28338 0)
(-0.0162552 1.15542 0)
(-0.0114696 1.01608 0)
(-0.00327412 1.03108 0)
(0.00614771 1.17813 0)
(0.00693668 1.29573 0)
(0.00939129 1.36981 0)
(0.00908654 1.40971 0)
(0.00737556 1.42909 0)
(0.00591725 1.43791 0)
(0.00480716 1.44161 0)
(0.0039444 1.44291 0)
(0.00324972 1.44318 0)
(0.00261985 1.44305 0)
(0.00203236 1.44281 0)
(0.00148582 1.44255 0)
(0.000954786 1.44237 0)
(0.000433306 1.44227 0)
(-9.10777e-05 1.44229 0)
(-0.00061321 1.44238 0)
(-0.00112821 1.44259 0)
(-0.00164407 1.44284 0)
(-0.00216543 1.44319 0)
(-0.00269538 1.4434 0)
(-0.00325626 1.44325 0)
(-0.00388299 1.4421 0)
(-0.0045875 1.43878 0)
(-0.00528978 1.43086 0)
(-0.00561976 1.41338 0)
(-0.00491938 1.37728 0)
(-0.00949608 1.30462 0)
(-0.0114304 1.17647 0)
(-0.00678906 1.02699 0)
(-0.00114135 1.04683 0)
(0.0112246 1.19093 0)
(0.0132349 1.31244 0)
(0.0138791 1.39062 0)
(0.0106297 1.43099 0)
(0.00781189 1.44969 0)
(0.00603095 1.45803 0)
(0.00480226 1.46144 0)
(0.00392169 1.4626 0)
(0.00321846 1.46279 0)
(0.00259132 1.46269 0)
(0.00201408 1.46241 0)
(0.00147335 1.46219 0)
(0.000948116 1.46197 0)
(0.000434636 1.46191 0)
(-8.05792e-05 1.4619 0)
(-0.000593084 1.462 0)
(-0.00109334 1.46217 0)
(-0.00159053 1.46242 0)
(-0.00209285 1.46272 0)
(-0.00260778 1.46292 0)
(-0.00315558 1.46272 0)
(-0.00377308 1.4616 0)
(-0.00450602 1.45825 0)
(-0.00535336 1.45022 0)
(-0.00607704 1.43221 0)
(-0.00560257 1.39465 0)
(-0.00596849 1.32144 0)
(-0.00832902 1.19498 0)
(-0.0010146 1.03947 0)
(0.00807636 1.05855 0)
(0.0178085 1.2039 0)
(0.0186331 1.3345 0)
(0.0155507 1.41481 0)
(0.0106085 1.45328 0)
(0.00775477 1.47049 0)
(0.00604019 1.47819 0)
(0.00485147 1.48122 0)
(0.00397051 1.48219 0)
(0.0032496 1.48234 0)
(0.00261176 1.48222 0)
(0.00204084 1.48193 0)
(0.00149396 1.48172 0)
(0.000959742 1.48151 0)
(0.000439112 1.48144 0)
(-8.31845e-05 1.48146 0)
(-0.000602529 1.48152 0)
(-0.00111139 1.48168 0)
(-0.00161411 1.48189 0)
(-0.00212605 1.48218 0)
(-0.00266093 1.48234 0)
(-0.00324022 1.48215 0)
(-0.00391819 1.48104 0)
(-0.00479369 1.47781 0)
(-0.00595236 1.46991 0)
(-0.00733504 1.45189 0)
(-0.00807529 1.4132 0)
(-0.0070347 1.33812 0)
(-0.00808847 1.21208 0)
(0.000881099 1.05443 0)
(0.0142449 1.06615 0)
(0.0185615 1.22418 0)
(0.0183407 1.36092 0)
(0.0130902 1.43919 0)
(0.00925305 1.47491 0)
(0.00723371 1.49103 0)
(0.00588037 1.49817 0)
(0.00490424 1.50094 0)
(0.00407619 1.50176 0)
(0.00332841 1.50187 0)
(0.00267752 1.5017 0)
(0.00210021 1.5014 0)
(0.00154585 1.5012 0)
(0.00100359 1.50099 0)
(0.000459913 1.50093 0)
(-8.42551e-05 1.50094 0)
(-0.000628013 1.501 0)
(-0.00116431 1.50113 0)
(-0.0017033 1.50132 0)
(-0.0022524 1.50159 0)
(-0.00282963 1.50175 0)
(-0.00347847 1.50158 0)
(-0.00423882 1.50055 0)
(-0.00518223 1.49753 0)
(-0.00637191 1.48992 0)
(-0.0079962 1.47231 0)
(-0.0100735 1.43379 0)
(-0.0109135 1.35662 0)
(-0.0104256 1.22687 0)
(-0.00300731 1.06813 0)
(0.0106009 1.07497 0)
(0.0135401 1.24577 0)
(0.0140695 1.38494 0)
(0.0085624 1.46044 0)
(0.00734652 1.49521 0)
(0.00645927 1.51104 0)
(0.00561267 1.5179 0)
(0.00487351 1.52058 0)
(0.00412725 1.52138 0)
(0.00340235 1.52146 0)
(0.00276523 1.52125 0)
(0.00217856 1.52095 0)
(0.00161474 1.52075 0)
(0.00105682 1.52054 0)
(0.000481347 1.52049 0)
(-9.63538e-05 1.5205 0)
(-0.00066921 1.52055 0)
(-0.00124302 1.52066 0)
(-0.00182718 1.52085 0)
(-0.00242299 1.5211 0)
(-0.00304601 1.52127 0)
(-0.00374852 1.52115 0)
(-0.00454395 1.5202 0)
(-0.00541805 1.51732 0)
(-0.00640837 1.50995 0)
(-0.00772143 1.49288 0)
(-0.00992044 1.45545 0)
(-0.0124956 1.37793 0)
(-0.0123738 1.24389 0)
(-0.00607202 1.08042 0)
(0.00416528 1.08822 0)
(0.00946703 1.26747 0)
(0.00782309 1.40575 0)
(0.00511161 1.47889 0)
(0.00597479 1.51415 0)
(0.00597144 1.5305 0)
(0.00548735 1.53747 0)
(0.00485662 1.54024 0)
(0.0041661 1.54112 0)
(0.00348667 1.54119 0)
(0.00286332 1.54095 0)
(0.00226233 1.54067 0)
(0.00167768 1.54045 0)
(0.00109154 1.54027 0)
(0.000480479 1.54023 0)
(-0.000128503 1.54024 0)
(-0.000729927 1.54027 0)
(-0.00133723 1.54038 0)
(-0.00195922 1.54056 0)
(-0.00259178 1.5408 0)
(-0.00325051 1.54098 0)
(-0.00397023 1.54091 0)
(-0.00475685 1.54 0)
(-0.00558043 1.53716 0)
(-0.00643566 1.52986 0)
(-0.00739867 1.51302 0)
(-0.00871727 1.47633 0)
(-0.0111716 1.40019 0)
(-0.01166 1.26245 0)
(-0.00670192 1.09243 0)
(-0.00102447 1.10298 0)
(0.0053336 1.28476 0)
(0.00281464 1.42246 0)
(0.00425405 1.4957 0)
(0.00601235 1.53252 0)
(0.00620439 1.54977 0)
(0.00571703 1.55711 0)
(0.00502312 1.56003 0)
(0.0043046 1.561 0)
(0.00362274 1.56108 0)
(0.00297741 1.56084 0)
(0.00234576 1.56058 0)
(0.00172967 1.56035 0)
(0.00110417 1.56021 0)
(0.000461766 1.56017 0)
(-0.000169189 1.56017 0)
(-0.000796146 1.5602 0)
(-0.0014339 1.5603 0)
(-0.00208432 1.56048 0)
(-0.00274626 1.5607 0)
(-0.00343473 1.5609 0)
(-0.00416665 1.56085 0)
(-0.00496056 1.55996 0)
(-0.00581693 1.55711 0)
(-0.00672074 1.54979 0)
(-0.00757952 1.53285 0)
(-0.00814659 1.49587 0)
(-0.00938631 1.42042 0)
(-0.00968392 1.28221 0)
(-0.00505236 1.10514 0)
(-0.00383664 1.11986 0)
(0.00312166 1.30153 0)
(0.00187522 1.43696 0)
(0.0062166 1.51221 0)
(0.00769453 1.55127 0)
(0.00722026 1.5694 0)
(0.00631569 1.57704 0)
(0.00537787 1.58006 0)
(0.00453468 1.58105 0)
(0.00379153 1.58112 0)
(0.00309733 1.58088 0)
(0.00242024 1.58063 0)
(0.00176413 1.5804 0)
(0.0011038 1.5803 0)
(0.000437804 1.58026 0)
(-0.000208034 1.58025 0)
(-0.000857145 1.58028 0)
(-0.00151896 1.58038 0)
(-0.00219563 1.58056 0)
(-0.00288306 1.58077 0)
(-0.00359861 1.58098 0)
(-0.00435635 1.58094 0)
(-0.00518655 1.58008 0)
(-0.00614821 1.57724 0)
(-0.00724794 1.56992 0)
(-0.0083439 1.5528 0)
(-0.00884531 1.51506 0)
(-0.00882819 1.43875 0)
(-0.00873597 1.30097 0)
(-0.00261215 1.11904 0)
(-0.00264024 1.13773 0)
(0.00408678 1.31632 0)
(0.00634701 1.45064 0)
(0.0106785 1.53018 0)
(0.0104527 1.57145 0)
(0.00860935 1.58984 0)
(0.00701951 1.59744 0)
(0.00576148 1.60038 0)
(0.0047668 1.60127 0)
(0.00394224 1.6013 0)
(0.00319691 1.60105 0)
(0.00247797 1.60081 0)
(0.00177801 1.60056 0)
(0.0010915 1.60049 0)
(0.000415849 1.60044 0)
(-0.000241977 1.60043 0)
(-0.000905259 1.60047 0)
(-0.00158583 1.60057 0)
(-0.0022826 1.60075 0)
(-0.00299307 1.60095 0)
(-0.00372942 1.60117 0)
(-0.00451625 1.60114 0)
(-0.00540634 1.60034 0)
(-0.00649914 1.5976 0)
(-0.00788283 1.59041 0)
(-0.00950501 1.57328 0)
(-0.010599 1.53472 0)
(-0.00993228 1.45636 0)
(-0.00880214 1.31807 0)
(-0.00163262 1.13383 0)
(0.000660049 1.15364 0)
(0.0090225 1.33052 0)
(0.0142511 1.46631 0)
(0.0157568 1.55181 0)
(0.0126709 1.59355 0)
(0.00954698 1.61121 0)
(0.00744085 1.61831 0)
(0.005965 1.62095 0)
(0.00488467 1.62165 0)
(0.00401268 1.62159 0)
(0.00323719 1.62131 0)
(0.00250334 1.62107 0)
(0.00177554 1.6208 0)
(0.0010689 1.62075 0)
(0.000394892 1.62069 0)
(-0.000269941 1.62067 0)
(-0.000942412 1.62072 0)
(-0.00163243 1.62083 0)
(-0.00233631 1.621 0)
(-0.00305515 1.6212 0)
(-0.00380138 1.62144 0)
(-0.00460555 1.62144 0)
(-0.00554535 1.62073 0)
(-0.00674146 1.6182 0)
(-0.0083629 1.61131 0)
(-0.0105523 1.59452 0)
(-0.0126661 1.55557 0)
(-0.0124416 1.47433 0)
(-0.00998707 1.33402 0)
(-0.0024289 1.14833 0)
(0.00465475 1.16653 0)
(0.0174924 1.3434 0)
(0.0206088 1.48764 0)
(0.018743 1.57695 0)
(0.0128175 1.61675 0)
(0.00943839 1.63304 0)
(0.00730623 1.6394 0)
(0.00585492 1.64161 0)
(0.00480735 1.64209 0)
(0.00395825 1.64195 0)
(0.00319122 1.64162 0)
(0.0024687 1.64137 0)
(0.0017529 1.64112 0)
(0.00104647 1.64103 0)
(0.000373672 1.64097 0)
(-0.000293876 1.64096 0)
(-0.000969719 1.64101 0)
(-0.00165852 1.64113 0)
(-0.00235004 1.6413 0)
(-0.0030562 1.6415 0)
(-0.00378959 1.64174 0)
(-0.00458496 1.64179 0)
(-0.00553221 1.64121 0)
(-0.00675106 1.63892 0)
(-0.00844853 1.63249 0)
(-0.0109399 1.61639 0)
(-0.0141529 1.5779 0)
(-0.0153341 1.49379 0)
(-0.0124484 1.34929 0)
(-0.00393286 1.16195 0)
(0.0125616 1.17613 0)
(0.0225183 1.3581 0)
(0.023199 1.51476 0)
(0.017709 1.60403 0)
(0.0113837 1.63985 0)
(0.00845113 1.6547 0)
(0.00666211 1.66038 0)
(0.0054415 1.66221 0)
(0.00453379 1.66251 0)
(0.00377152 1.66229 0)
(0.00305861 1.66195 0)
(0.00237533 1.66167 0)
(0.0017006 1.66145 0)
(0.00101893 1.66134 0)
(0.00034908 1.66127 0)
(-0.000315577 1.66126 0)
(-0.000984023 1.66132 0)
(-0.00165433 1.66144 0)
(-0.00232063 1.6616 0)
(-0.00299391 1.66181 0)
(-0.00368989 1.66206 0)
(-0.00444421 1.66216 0)
(-0.00533671 1.66171 0)
(-0.00647457 1.65965 0)
(-0.00804117 1.65369 0)
(-0.0103672 1.63841 0)
(-0.0141864 1.60118 0)
(-0.017274 1.51578 0)
(-0.0155133 1.3643 0)
(-0.00604666 1.17432 0)
(0.0159079 1.18187 0)
(0.0209736 1.37779 0)
(0.0207932 1.54345 0)
(0.0133977 1.62896 0)
(0.0091501 1.66212 0)
(0.00701186 1.67583 0)
(0.00573346 1.68104 0)
(0.00484187 1.68263 0)
(0.00412837 1.68283 0)
(0.00348814 1.68258 0)
(0.00286258 1.68225 0)
(0.00223802 1.68196 0)
(0.00160843 1.68177 0)
(0.000964878 1.68166 0)
(0.000317758 1.68158 0)
(-0.00033025 1.68158 0)
(-0.000973687 1.68164 0)
(-0.0016123 1.68176 0)
(-0.0022459 1.68191 0)
(-0.00287749 1.68212 0)
(-0.00351719 1.68236 0)
(-0.00420114 1.6825 0)
(-0.00498793 1.68214 0)
(-0.00596662 1.68027 0)
(-0.00729416 1.67469 0)
(-0.00927329 1.66013 0)
(-0.0130479 1.62471 0)
(-0.0175704 1.54027 0)
(-0.0170222 1.38014 0)
(-0.00846282 1.18516 0)
(0.0124235 1.19049 0)
(0.0147358 1.40023 0)
(0.0146489 1.56779 0)
(0.00781705 1.65057 0)
(0.00653521 1.68314 0)
(0.00549525 1.69628 0)
(0.00477385 1.7013 0)
(0.00420622 1.70283 0)
(0.00368524 1.70303 0)
(0.00316852 1.70281 0)
(0.00263477 1.70251 0)
(0.00207223 1.70224 0)
(0.00148323 1.70207 0)
(0.000884581 1.70197 0)
(0.000277682 1.7019 0)
(-0.000336178 1.7019 0)
(-0.000943309 1.70196 0)
(-0.00154004 1.70207 0)
(-0.00213331 1.7022 0)
(-0.00271963 1.70239 0)
(-0.0032974 1.70262 0)
(-0.00389467 1.70277 0)
(-0.00455144 1.70246 0)
(-0.00534378 1.70071 0)
(-0.00640233 1.6954 0)
(-0.00800033 1.68142 0)
(-0.0109804 1.6475 0)
(-0.0158133 1.56478 0)
(-0.0159328 1.39826 0)
(-0.00965663 1.19511 0)
(0.00562442 1.20188 0)
(0.0108174 1.42237 0)
(0.00801099 1.58884 0)
(0.00408382 1.66949 0)
(0.00457682 1.70287 0)
(0.00436415 1.71615 0)
(0.00402913 1.72124 0)
(0.00367889 1.72285 0)
(0.00329322 1.72313 0)
(0.00286848 1.72297 0)
(0.00240582 1.72273 0)
(0.00189611 1.7225 0)
(0.00135003 1.72236 0)
(0.000795206 1.72227 0)
(0.000231725 1.72222 0)
(-0.000341356 1.72221 0)
(-0.000907847 1.72226 0)
(-0.00145826 1.72236 0)
(-0.00199919 1.72248 0)
(-0.0025377 1.72264 0)
(-0.00306081 1.72284 0)
(-0.00357545 1.72298 0)
(-0.00410813 1.72266 0)
(-0.004721 1.72096 0)
(-0.00550668 1.71578 0)
(-0.0066084 1.70217 0)
(-0.00823172 1.66894 0)
(-0.0123703 1.58743 0)
(-0.0132395 1.41834 0)
(-0.00862386 1.2053 0)
(-0.000637442 1.21545 0)
(0.00735851 1.44101 0)
(0.00367227 1.60672 0)
(0.00304119 1.68734 0)
(0.00387292 1.72192 0)
(0.00387687 1.73574 0)
(0.00363821 1.74103 0)
(0.00334619 1.74279 0)
(0.00300892 1.74318 0)
(0.00262602 1.74309 0)
(0.00219852 1.74292 0)
(0.001727 1.74275 0)
(0.00122313 1.74264 0)
(0.000706902 1.74256 0)
(0.000182407 1.74252 0)
(-0.000348268 1.74252 0)
(-0.000872806 1.74256 0)
(-0.00137875 1.74264 0)
(-0.00187002 1.74275 0)
(-0.00235642 1.74288 0)
(-0.00283456 1.74302 0)
(-0.00329039 1.74312 0)
(-0.00373359 1.74275 0)
(-0.00421534 1.74105 0)
(-0.00480132 1.73588 0)
(-0.00551914 1.72234 0)
(-0.00615468 1.68899 0)
(-0.00902322 1.60806 0)
(-0.0108613 1.43935 0)