/*--------------------------------*- C++ -*----------------------------------*\
| =========                 |                                                 |
| \\      /  F ield         | OpenFOAM: The Open Source CFD Toolbox           |
|  \\    /   O peration     | Version:  2.3.0                                 |
|   \\  /    A nd           | Web:      www.OpenFOAM.org                      |
|    \\/     M anipulation  |                                                 |
\*---------------------------------------------------------------------------*/
FoamFile
{
    version     2.0;
    format      ascii;
    class       volScalarField;
    location    "0.114";
    object      alpha.water;
}
// * * * * * * * * * * * * * * * * * * * * * * * * * * * * * * * * * * * * * //

dimensions      [0 0 0 0 0 0 0];

internalField   nonuniform List<scalar> 
545
(
1
1
1
1
1
1
1
1
1
1
1
1
1
1
1
1
1
1
1
1
1
1
1
1
1
1
1
1
1
1
1
1
1
1
1
1
1
1
1
1
1
1
1
1
1
1
1
1
1
1
1
1
1
1
1
1
1
1
1
1
1
1
1
1
1
1
1
1
1
1
1
1
1
1
1
1
1
1
1
1
1
1
1
1
1
1
1
1
1
1
1
1
1
1
1
1
1
1
1
1
1
1
1
1
1
1
1
1
1
1
1
1
1
1
1
1
1
1
1
0.999999
0.999999
0.999999
0.999999
0.999999
0.999999
0.999999
0.999999
0.999999
0.999999
0.999999
0.999999
0.999999
0.999999
0.999999
0.999999
0.999999
0.999999
0.999999
0.999999
0.999999
0.999999
0.999999
0.999999
0.999999
0.999999
0.999999
0.999999
0.999999
0.999999
0.999999
0.999999
0.999999
0.999999
0.999999
0.999999
0.999999
0.999999
0.999999
0.999999
0.999999
1
1
0.999987
0.999957
0.999938
0.999934
0.999936
0.999939
0.999941
0.999941
0.999941
0.99994
0.999939
0.999938
0.999938
0.999938
0.999938
0.999938
0.999938
0.999938
0.999938
0.999938
0.999938
0.999938
0.999938
0.999938
0.999938
0.999938
0.999938
0.999938
0.999938
0.999938
0.999938
0.999938
0.999938
0.999938
0.999938
0.999938
0.999938
0.999938
0.999938
0.999938
0.999938
0.999938
0.999938
1
1
0.999316
0.997075
0.994148
0.994226
0.994885
0.995383
0.995687
0.995785
0.995735
0.995613
0.995483
0.995385
0.995333
0.995322
0.995338
0.995364
0.995388
0.995406
0.995413
0.995414
0.995409
0.995403
0.995398
0.995394
0.995392
0.995391
0.995391
0.995392
0.995391
0.99539
0.995388
0.995386
0.995385
0.995384
0.995383
0.995384
0.995384
0.995383
0.995381
0.995379
0.995378
0.995377
0.995369
0.178104
0.468129
0.8625
0.47498
0.419738
0.419726
0.419767
0.72048
0.995808
0.896975
0.493941
0.477503
0.538641
0.51976
0.51977
0.712903
0.992775
0.78333
0.487556
0.490429
0.487289
0.508706
0.478858
0.515026
0.718274
0.799022
0.655067
0.655804
0.677475
0.951001
0.982257
0.655104
0.41189
0.432958
0.497058
0.476049
0.476066
0.691446
0.991973
0.987018
0.63738
0.477601
0.470024
0.470019
0.491549
1
1
1
1
1
1
1
1
1
1
1
1
1
1
1
1
1
1
1
1
1
1
1
1
1
1
1
0.999316
0.997073
0.994144
0.994229
0.99489
0.995393
0.995698
0.995796
0.995743
0.995619
0.995485
0.995385
0.995331
0.99532
0.995334
0.995359
0.995382
0.995399
0.995405
0.995405
0.995399
0.995393
0.995387
0.995383
0.99538
0.99538
0.99538
0.99538
0.995379
0.995376
0.995373
0.99537
0.995367
0.995367
0.995366
0.995367
0.995367
0.995366
0.995363
0.99536
0.995357
0.995356
0.995347
1
1
0.999987
0.999957
0.999938
0.999934
0.999936
0.999939
0.999941
0.999941
0.999941
0.99994
0.999939
0.999938
0.999938
0.999938
0.999938
0.999938
0.999938
0.999938
0.999938
0.999938
0.999938
0.999938
0.999938
0.999938
0.999938
0.999938
0.999938
0.999938
0.999938
0.999938
0.999938
0.999938
0.999938
0.999938
0.999938
0.999938
0.999938
0.999938
0.999938
0.999938
0.999938
0.999938
0.999938
1
1
1
1
0.999999
0.999999
0.999999
0.999999
0.999999
0.999999
0.999999
0.999999
0.999999
0.999999
0.999999
0.999999
0.999999
0.999999
0.999999
0.999999
0.999999
0.999999
0.999999
0.999999
0.999999
0.999999
0.999999
0.999999
0.999999
0.999999
0.999999
0.999999
0.999999
0.999999
0.999999
0.999999
0.999999
0.999999
0.999999
0.999999
0.999999
0.999999
0.999999
0.999999
0.999999
1
1
1
1
1
1
1
1
1
1
1
1
1
1
1
1
1
1
1
1
1
1
1
1
1
1
1
1
1
1
1
1
1
1
1
1
1
1
1
1
1
1
1
1
1
1
1
1
1
1
1
1
1
1
1
1
1
1
1
1
1
1
1
1
1
1
1
1
1
1
1
1
1
1
1
1
1
1
1
1
1
1
1
1
1
1
1
1
1
1
)
;

boundaryField
{
    AirInlet
    {
        type            fixedValue;
        value           uniform 0;
    }
    WaterInlet
    {
        type            fixedValue;
        value           uniform 1;
    }
    ChannelWall
    {
        type            zeroGradient;
    }
    Outlet
    {
        type            inletOutlet;
        inletValue      uniform 0;
        value           nonuniform List<scalar> 
11
(
1
1
0.999999
0.999938
0.995369
0.491549
0.995347
0.999938
0.999999
1
1
)
;
    }
    FrontAndBack
    {
        type            empty;
    }
}


// ************************************************************************* //
