/*--------------------------------*- C++ -*----------------------------------*\
| =========                 |                                                 |
| \\      /  F ield         | OpenFOAM: The Open Source CFD Toolbox           |
|  \\    /   O peration     | Version:  2.3.0                                 |
|   \\  /    A nd           | Web:      www.OpenFOAM.org                      |
|    \\/     M anipulation  |                                                 |
\*---------------------------------------------------------------------------*/
FoamFile
{
    version     2.0;
    format      ascii;
    class       volScalarField;
    location    "0.114";
    object      epsilon;
}
// * * * * * * * * * * * * * * * * * * * * * * * * * * * * * * * * * * * * * //

dimensions      [0 2 -3 0 0 0 0];

internalField   nonuniform List<scalar> 
545
(
1.21142e+08
1.15361e+08
1.06135e+08
9.81758e+07
9.27279e+07
1.23487e+08
1.15627e+08
1.05853e+08
9.76899e+07
9.1818e+07
1.27517e+08
1.15843e+08
1.05176e+08
9.66819e+07
9.01905e+07
1.33612e+08
1.15668e+08
1.0409e+08
9.52393e+07
8.77023e+07
1.42646e+08
1.14675e+08
1.0284e+08
9.36933e+07
8.41967e+07
8.99422e+07
8.84196e+07
8.79339e+07
8.77795e+07
8.77293e+07
8.77119e+07
8.77046e+07
8.77006e+07
8.76976e+07
8.7695e+07
8.76925e+07
8.76902e+07
8.76879e+07
8.76858e+07
8.76836e+07
8.76816e+07
8.76796e+07
8.76777e+07
8.76759e+07
8.76742e+07
8.76725e+07
8.76709e+07
8.76693e+07
8.76679e+07
8.76665e+07
8.76651e+07
8.76639e+07
8.76627e+07
8.76615e+07
8.76605e+07
8.76595e+07
8.76586e+07
8.76577e+07
8.76569e+07
8.76562e+07
8.76555e+07
8.76549e+07
8.76544e+07
8.7654e+07
8.76536e+07
8.76533e+07
8.7653e+07
8.76528e+07
8.76527e+07
8.76526e+07
8.92457e+07
8.82064e+07
8.78665e+07
8.77582e+07
8.77226e+07
8.77097e+07
8.77039e+07
8.77003e+07
8.76974e+07
8.76949e+07
8.76924e+07
8.76901e+07
8.76878e+07
8.76856e+07
8.76835e+07
8.76815e+07
8.76795e+07
8.76776e+07
8.76758e+07
8.76741e+07
8.76724e+07
8.76708e+07
8.76692e+07
8.76677e+07
8.76663e+07
8.7665e+07
8.76637e+07
8.76625e+07
8.76614e+07
8.76604e+07
8.76594e+07
8.76584e+07
8.76576e+07
8.76568e+07
8.76561e+07
8.76554e+07
8.76548e+07
8.76543e+07
8.76539e+07
8.76535e+07
8.76531e+07
8.76529e+07
8.76527e+07
8.76526e+07
8.76525e+07
8.82324e+07
8.78493e+07
8.77519e+07
8.77222e+07
8.77114e+07
8.77062e+07
8.77027e+07
8.76999e+07
8.76972e+07
8.76947e+07
8.76923e+07
8.769e+07
8.76878e+07
8.76856e+07
8.76835e+07
8.76814e+07
8.76795e+07
8.76776e+07
8.76757e+07
8.7674e+07
8.76723e+07
8.76707e+07
8.76691e+07
8.76677e+07
8.76663e+07
8.76649e+07
8.76637e+07
8.76625e+07
8.76613e+07
8.76603e+07
8.76593e+07
8.76584e+07
8.76575e+07
8.76567e+07
8.7656e+07
8.76553e+07
8.76548e+07
8.76542e+07
8.76538e+07
8.76534e+07
8.76531e+07
8.76528e+07
8.76526e+07
8.76525e+07
8.76524e+07
8.69143e+07
8.74325e+07
8.76234e+07
8.76825e+07
8.7699e+07
8.77023e+07
8.77015e+07
8.76994e+07
8.76971e+07
8.76947e+07
8.76923e+07
8.769e+07
8.76877e+07
8.76855e+07
8.76834e+07
8.76814e+07
8.76794e+07
8.76775e+07
8.76757e+07
8.76739e+07
8.76722e+07
8.76706e+07
8.76691e+07
8.76676e+07
8.76662e+07
8.76649e+07
8.76636e+07
8.76624e+07
8.76613e+07
8.76602e+07
8.76592e+07
8.76583e+07
8.76575e+07
8.76567e+07
8.76559e+07
8.76553e+07
8.76547e+07
8.76542e+07
8.76537e+07
8.76533e+07
8.7653e+07
8.76528e+07
8.76526e+07
8.76525e+07
8.76524e+07
8.53776e+07
8.70799e+07
8.75214e+07
8.76514e+07
8.76894e+07
8.76993e+07
8.77005e+07
8.76991e+07
8.7697e+07
8.76946e+07
8.76922e+07
8.76899e+07
8.76877e+07
8.76855e+07
8.76834e+07
8.76813e+07
8.76794e+07
8.76775e+07
8.76757e+07
8.76739e+07
8.76722e+07
8.76706e+07
8.76691e+07
8.76676e+07
8.76662e+07
8.76649e+07
8.76636e+07
8.76624e+07
8.76613e+07
8.76602e+07
8.76592e+07
8.76583e+07
8.76574e+07
8.76566e+07
8.76559e+07
8.76553e+07
8.76547e+07
8.76542e+07
8.76537e+07
8.76533e+07
8.7653e+07
8.76527e+07
8.76525e+07
8.76524e+07
8.76524e+07
8.55483e+07
8.69726e+07
8.74801e+07
8.76382e+07
8.76853e+07
8.7698e+07
8.77001e+07
8.7699e+07
8.76969e+07
8.76946e+07
8.76922e+07
8.76899e+07
8.76877e+07
8.76855e+07
8.76834e+07
8.76813e+07
8.76794e+07
8.76775e+07
8.76756e+07
8.76739e+07
8.76722e+07
8.76706e+07
8.76691e+07
8.76676e+07
8.76662e+07
8.76648e+07
8.76636e+07
8.76624e+07
8.76613e+07
8.76602e+07
8.76592e+07
8.76583e+07
8.76574e+07
8.76566e+07
8.76559e+07
8.76553e+07
8.76547e+07
8.76541e+07
8.76537e+07
8.76533e+07
8.7653e+07
8.76527e+07
8.76525e+07
8.76524e+07
8.76524e+07
1.42646e+08
1.14675e+08
1.0284e+08
9.36933e+07
8.41967e+07
1.33612e+08
1.15668e+08
1.0409e+08
9.52393e+07
8.77023e+07
1.27517e+08
1.15843e+08
1.05176e+08
9.66819e+07
9.01905e+07
1.23487e+08
1.15627e+08
1.05853e+08
9.76899e+07
9.1818e+07
1.21142e+08
1.15361e+08
1.06135e+08
9.81758e+07
9.27279e+07
8.53776e+07
8.70799e+07
8.75214e+07
8.76514e+07
8.76894e+07
8.76993e+07
8.77005e+07
8.76991e+07
8.7697e+07
8.76946e+07
8.76922e+07
8.76899e+07
8.76877e+07
8.76855e+07
8.76834e+07
8.76813e+07
8.76794e+07
8.76775e+07
8.76757e+07
8.76739e+07
8.76722e+07
8.76706e+07
8.76691e+07
8.76676e+07
8.76662e+07
8.76649e+07
8.76636e+07
8.76624e+07
8.76613e+07
8.76602e+07
8.76592e+07
8.76583e+07
8.76574e+07
8.76566e+07
8.76559e+07
8.76553e+07
8.76547e+07
8.76542e+07
8.76537e+07
8.76533e+07
8.7653e+07
8.76527e+07
8.76525e+07
8.76524e+07
8.76524e+07
8.69143e+07
8.74325e+07
8.76234e+07
8.76825e+07
8.7699e+07
8.77023e+07
8.77015e+07
8.76994e+07
8.76971e+07
8.76947e+07
8.76923e+07
8.769e+07
8.76877e+07
8.76855e+07
8.76834e+07
8.76814e+07
8.76794e+07
8.76775e+07
8.76757e+07
8.76739e+07
8.76722e+07
8.76706e+07
8.76691e+07
8.76676e+07
8.76662e+07
8.76649e+07
8.76636e+07
8.76624e+07
8.76613e+07
8.76602e+07
8.76592e+07
8.76583e+07
8.76575e+07
8.76567e+07
8.76559e+07
8.76553e+07
8.76547e+07
8.76542e+07
8.76537e+07
8.76533e+07
8.7653e+07
8.76528e+07
8.76526e+07
8.76525e+07
8.76524e+07
8.82324e+07
8.78493e+07
8.77519e+07
8.77222e+07
8.77114e+07
8.77062e+07
8.77027e+07
8.76999e+07
8.76972e+07
8.76947e+07
8.76923e+07
8.769e+07
8.76878e+07
8.76856e+07
8.76835e+07
8.76814e+07
8.76795e+07
8.76776e+07
8.76757e+07
8.7674e+07
8.76723e+07
8.76707e+07
8.76691e+07
8.76677e+07
8.76663e+07
8.76649e+07
8.76637e+07
8.76625e+07
8.76613e+07
8.76603e+07
8.76593e+07
8.76584e+07
8.76575e+07
8.76567e+07
8.7656e+07
8.76553e+07
8.76548e+07
8.76542e+07
8.76538e+07
8.76534e+07
8.76531e+07
8.76528e+07
8.76526e+07
8.76525e+07
8.76524e+07
8.92457e+07
8.82064e+07
8.78665e+07
8.77582e+07
8.77226e+07
8.77097e+07
8.77039e+07
8.77003e+07
8.76974e+07
8.76949e+07
8.76924e+07
8.76901e+07
8.76878e+07
8.76856e+07
8.76835e+07
8.76815e+07
8.76795e+07
8.76776e+07
8.76758e+07
8.76741e+07
8.76724e+07
8.76708e+07
8.76692e+07
8.76677e+07
8.76663e+07
8.7665e+07
8.76637e+07
8.76625e+07
8.76614e+07
8.76604e+07
8.76594e+07
8.76584e+07
8.76576e+07
8.76568e+07
8.76561e+07
8.76554e+07
8.76548e+07
8.76543e+07
8.76539e+07
8.76535e+07
8.76531e+07
8.76529e+07
8.76527e+07
8.76526e+07
8.76525e+07
8.99421e+07
8.84196e+07
8.79339e+07
8.77794e+07
8.77293e+07
8.77119e+07
8.77046e+07
8.77006e+07
8.76976e+07
8.7695e+07
8.76925e+07
8.76902e+07
8.76879e+07
8.76857e+07
8.76836e+07
8.76816e+07
8.76796e+07
8.76777e+07
8.76759e+07
8.76741e+07
8.76725e+07
8.76709e+07
8.76693e+07
8.76678e+07
8.76664e+07
8.76651e+07
8.76638e+07
8.76626e+07
8.76615e+07
8.76605e+07
8.76595e+07
8.76585e+07
8.76577e+07
8.76569e+07
8.76562e+07
8.76555e+07
8.76549e+07
8.76544e+07
8.76539e+07
8.76536e+07
8.76532e+07
8.7653e+07
8.76528e+07
8.76527e+07
8.76526e+07
)
;

boundaryField
{
    AirInlet
    {
        type            fixedValue;
        value           uniform 0.1;
    }
    WaterInlet
    {
        type            fixedValue;
        value           uniform 0.1;
    }
    ChannelWall
    {
        type            fixedValue;
        value           uniform 0.1;
    }
    Outlet
    {
        type            inletOutlet;
        inletValue      uniform 0.1;
        value           nonuniform List<scalar> 
11
(
8.76526e+07
8.76525e+07
8.76524e+07
8.76524e+07
8.76524e+07
8.76524e+07
8.76524e+07
8.76524e+07
8.76524e+07
8.76525e+07
8.76526e+07
)
;
    }
    FrontAndBack
    {
        type            empty;
    }
}


// ************************************************************************* //
