/*--------------------------------*- C++ -*----------------------------------*\
| =========                 |                                                 |
| \\      /  F ield         | OpenFOAM: The Open Source CFD Toolbox           |
|  \\    /   O peration     | Version:  2.3.0                                 |
|   \\  /    A nd           | Web:      www.OpenFOAM.org                      |
|    \\/     M anipulation  |                                                 |
\*---------------------------------------------------------------------------*/
FoamFile
{
    version     2.0;
    format      ascii;
    class       volScalarField;
    location    "84";
    object      rhom;
}
// * * * * * * * * * * * * * * * * * * * * * * * * * * * * * * * * * * * * * //

dimensions      [1 -3 0 0 0 0 0];

internalField   nonuniform List<scalar> 
1875
(
876.521
898.738
910.44
909.838
908.07
905.633
902.756
899.571
896.29
893.112
890.203
888.118
887.14
886.523
886.705
888.027
890.835
895.222
900.193
905.859
910.104
909.336
896.594
874.631
880.459
897.05
912.339
927
932.41
934.568
934.162
932.915
930.811
927.845
924.039
919.305
913.432
907.57
902.112
897.683
893.413
893.071
894.436
898.235
904.082
910.103
915.931
918.739
910.212
922.658
930.097
937.379
944.468
946.835
947.166
946.712
945.74
944.342
942.366
939.758
936.6
932.596
926.353
918.179
909.584
900.798
895.242
891.466
894.339
900.435
908.296
915.599
918.739
917.323
927.35
972.956
969.162
962.122
958.439
956.368
954.135
951.393
948.394
945.159
941.606
937.48
932.601
927.291
921.073
913.462
904.179
895.051
890.487
891.329
897.131
906.504
915.201
918.739
917.887
927.35
1000.76
986.479
968.392
963.87
961.121
957.527
952.949
947.894
943.656
939.673
935.364
930.271
924.709
918.309
910.557
901.334
893.11
890.463
891.79
898.373
907.847
916.055
919.337
918.79
927.35
1008.86
987.007
964.327
964.323
960.59
954.928
949.257
943.457
938.304
933.674
928.808
923.286
917.157
910.149
902.322
895.069
891.149
890.963
894.433
902.271
911.169
917.905
920.751
920.465
926.518
1008.86
978.884
956.686
961.198
954.045
945.753
939.101
932.912
927.183
921.771
916.152
910.259
904.171
898.288
893.825
892.1
891.893
894.329
900.43
908.386
915.544
920.451
922.901
922.639
923.699
1008.84
962.572
946.313
950.845
939.078
930.139
923.093
916.552
910.663
905.229
900.315
896.393
894.28
893.586
893.517
893.49
896.361
901.62
908.414
914.821
919.814
923.328
925.556
924.766
920.05
1001.78
944.405
933.558
934.99
920.89
912.806
906.113
900.875
897.216
895.339
894.389
894.281
894.28
894.445
896.38
899.455
904.703
910.451
915.846
920.154
923.453
926.153
928.207
926.388
916.374
990.754
928.16
920.509
919.485
906.473
900.235
895.527
893.179
892.915
893.249
893.814
894.974
896.818
899.623
903.73
908.6
913.675
918.011
921.462
924.101
926.318
928.486
930.255
926.507
913.547
980.46
915.388
910.363
909.45
899.629
895.735
893.511
892.914
892.837
893.71
896.076
899.309
903.319
908.07
912.889
917.317
920.895
923.553
925.507
927.039
928.508
930.157
931.48
926.326
911.734
972.693
906.696
904.115
904.751
897.169
894.507
893.133
892.881
893.64
896.729
901.333
906.498
911.833
916.81
920.967
924.168
926.449
928.019
929.074
929.836
930.584
931.546
932.197
925.87
906.878
967.594
901.324
899.993
902.168
896.111
894.067
893.154
893.255
896.429
901.916
908.105
914.195
919.612
923.929
927.097
929.256
930.618
931.46
931.953
932.166
932.204
932.197
932.278
923.261
889.53
964.78
897.508
895.577
900.422
895.442
893.787
893.141
894.798
900.552
907.557
914.52
920.6
925.279
928.606
930.722
931.82
932.197
932.214
932.197
932.225
932.197
932.298
932.197
914.608
883.819
962.991
894.773
892.945
899.136
894.864
893.513
893.052
897.215
904.556
912.243
919.302
924.684
928.055
930.152
931.332
931.95
932.205
932.196
932.268
932.196
932.298
932.196
927.434
904.772
883.819
962.398
893.293
892.944
898.252
894.329
893.27
893.053
899.262
907.129
914.487
920.42
924.673
927.877
929.855
931.022
931.717
932.103
932.253
932.196
931.867
930.536
927.671
920.25
906.042
887.051
963.03
893.611
892.944
898.16
894.356
893.136
893.053
898.791
906.543
913.847
919.728
923.976
927.048
929.007
930.268
931.005
931.25
930.844
929.402
927.008
924.008
920.589
919.161
919.153
912.239
962.142
896.469
893.386
897.77
894.81
893.271
893.054
897.143
904.394
911.771
917.846
922.297
925.474
927.601
929.058
929.753
929.401
926.956
923.935
921.415
920.027
919.161
919.019
937.621
950.455
958.956
903.397
895.011
897.201
895.625
893.789
893.089
895.02
900.547
907.779
914.421
919.538
923.197
925.695
927.426
928.176
927.488
923.95
920.913
920.163
920.164
920.492
919.16
944.653
976.517
953.679
913.654
898.785
897.505
896.369
894.767
893.38
893.696
896.46
902.077
909.04
915.275
919.996
923.29
925.536
926.608
926.178
924.133
921.312
920.18
920.718
923.396
919.013
938.177
983.787
947.176
924.685
906.422
899.144
897.133
895.764
894.189
893.707
894.147
896.881
902.12
908.638
914.866
919.748
923.162
925.176
925.404
924.621
922.662
921.05
921.598
925.142
919.16
927.09
983.787
939.451
933.569
917.942
904.386
898.895
896.787
895.202
893.951
893.952
894.765
895.001
898.802
906.222
913.498
919.163
922.998
924.801
924.8
924.32
923.009
922.988
925.602
919.327
917.81
982.806
930.725
939.5
930.566
914.607
903.787
898.868
896.438
894.624
893.972
893.16
892.719
893.16
896.564
904.031
912.071
918.653
923.03
924.723
925.471
925.212
924.745
926.033
920.162
912.101
977.234
921.963
943.082
940.841
927.401
913.18
903.855
898.904
895.838
894.263
893.08
893.16
892.777
893.16
896.262
903.138
911.44
918.804
923.448
925.472
926.778
926.527
926.701
920.653
909.638
971.014
913.513
943.947
943.938
937.329
924.837
912.604
903.955
898.387
895.192
893.159
892.718
893.159
892.999
893.755
896.928
903.59
912.189
919.923
924.567
927.169
927.876
927.528
920.55
909.612
967.237
904.843
943.335
944.21
942.592
934.647
922.931
911.656
902.944
897.279
893.218
893.159
892.849
893.159
893.263
894.457
898.28
905.482
914.534
922.062
926.651
928.409
928.142
920.404
909.634
965.75
898.741
941.204
943.938
943.954
940.091
931.331
919.923
908.946
900.618
893.837
892.876
893.159
893.055
893.274
893.883
895.919
900.853
909.087
918.256
925.21
928.402
928.389
920.289
909.624
965.459
898.741
936.35
944.218
943.937
942.351
936.248
926.269
914.665
904.436
895.134
893.158
893.001
893.158
893.248
893.897
895.282
898.522
905.052
914.245
922.994
928.408
928.379
919.715
909.63
965.626
902.114
927.064
940.59
943.719
943.55
938.924
930.085
918.697
907.534
896.552
893.053
893.158
893.127
893.224
893.944
895.355
897.745
902.713
911.008
920.632
928.402
928.168
915
909.626
965.957
910.995
916.668
922.029
940.096
943.551
940.465
931.869
920.34
908.629
896.911
893.158
893.123
893.158
893.262
894.075
895.558
897.856
901.791
908.997
918.68
928.413
927.672
898.697
909.099
965.963
924.174
911.077
910.714
931.962
942.87
940.342
931.45
919.704
907.831
896.539
893.145
893.157
893.161
893.373
894.312
895.879
898.135
901.905
908.343
917.534
928.084
927.054
897.412
908.569
965.964
940.248
910.935
911.077
924.984
940.814
939.525
930.064
917.847
905.763
895.833
893.2
893.185
893.24
893.584
894.639
896.277
898.535
902.231
908.586
917.715
927.672
926.152
898.472
909.482
965.97
957.136
911.066
910.723
924.514
938.449
937.814
927.366
914.577
902.852
895.124
893.354
893.291
893.402
893.875
895.026
896.719
899.018
902.786
909.256
918.408
927.249
924.26
897.347
912.629
964.338
971.055
910.964
911.066
925.799
936.874
935.094
923.134
910.229
899.998
894.704
893.581
893.49
893.632
894.219
895.459
897.188
899.57
903.572
910.382
919.561
926.754
921.106
898.471
917.47
961.324
978.308
911.055
911.015
928.656
935.699
930.919
917.545
905.714
897.926
894.65
893.852
893.769
893.916
894.613
895.918
897.674
900.2
904.59
911.867
920.837
926.089
917.138
897.228
922.962
957.944
979.569
910.985
912.158
931.228
933.875
925.023
911.547
902.041
896.743
894.734
894.186
894.053
894.238
895.04
896.383
898.178
900.927
905.808
913.482
921.855
925.291
913.658
898.47
927.218
955.963
979.312
911.044
914.827
931.236
930.371
917.99
906.464
899.713
896.266
894.984
894.527
894.316
894.588
895.489
896.855
898.712
901.761
907.13
914.92
922.337
924.607
912.267
897.132
926.775
956.355
978.997
911.03
917.311
930.605
924.523
911.398
903.098
898.611
896.302
895.228
894.777
894.707
894.936
895.964
897.333
899.29
902.679
908.425
915.995
922.304
924.226
912.972
898.47
921.136
957.882
979.019
911.033
917.363
928.407
917.366
906.591
901.258
898.117
896.341
895.436
895.106
895.039
895.319
896.441
897.817
899.913
903.633
909.593
916.765
922.207
923.915
914.019
897.079
904.904
959.661
979.154
910.327
916.66
924.492
911.02
903.793
900.306
897.86
896.431
895.686
895.481
895.322
895.743
896.91
898.3
900.558
904.55
910.565
917.283
921.988
923.333
914.158
898.469
897.823
960.427
979.136
905.847
914.806
919.735
906.929
902.491
899.797
897.773
896.598
896.023
895.789
895.631
896.199
897.371
898.77
901.179
905.352
911.279
917.505
921.576
922.499
913.778
897.065
898.469
960.619
978.59
896.402
911.548
915.117
905.009
902.01
899.525
897.807
896.821
896.353
896.077
895.959
896.665
897.807
899.207
901.73
905.987
911.755
917.429
920.97
921.611
913.067
898.468
897.868
960.733
977.592
895.895
905.786
911.141
904.277
901.78
899.407
897.9
897.061
896.637
896.353
896.289
897.11
898.194
899.582
902.174
906.444
912.032
917.282
920.328
920.51
912.039
897.112
898.468
960.904
976.434
896.401
896.892
908.1
903.675
901.559
899.375
898.04
897.299
896.883
896.62
896.613
897.505
898.505
899.869
902.516
906.736
912.11
917.153
919.747
919.188
910.739
898.467
897.884
961.326
975.174
895.879
896.401
905.962
902.947
901.28
899.344
898.19
897.52
897.101
896.883
896.925
897.825
898.726
900.061
902.766
906.973
912.134
916.865
919.143
918.058
909.436
897.161
898.467
961.967
974.019
896.401
896.171
904.445
902.233
900.959
899.288
898.333
897.69
897.271
897.159
897.184
898.064
898.882
900.171
902.91
907.229
912.118
916.403
918.564
917.053
908.209
898.467
897.932
962.793
973.048
896.034
896.4
903.323
901.635
900.66
899.215
898.428
897.815
897.484
897.33
897.36
898.241
898.987
900.269
903.038
907.203
911.994
916.183
918.086
915.99
906.931
897.219
898.466
963.866
972.234
896.4
896.242
902.499
901.183
900.555
899.221
898.421
898.012
897.656
897.368
897.493
898.327
899.031
900.445
903.17
907.022
911.733
916.011
917.676
915.03
905.59
898.466
897.979
965.175
971.56
896.168
896.4
901.982
900.919
900.478
899.246
898.491
898.067
897.639
897.531
897.6
898.347
899.11
900.564
903.156
906.901
911.471
915.683
917.326
914.181
904.057
897.303
898.466
966.69
970.98
896.399
896.3
901.531
900.687
900.329
899.239
898.585
898.025
897.741
897.585
897.704
898.468
899.255
900.483
903.073
906.725
911.219
915.336
916.971
913.345
902.206
898.465
898.03
968.399
970.414
896.274
896.399
901
900.436
900.374
899.225
898.484
898.073
897.752
897.582
897.731
898.626
899.373
900.505
903.01
906.404
910.894
914.928
916.426
912.437
900.22
897.4
898.465
970.229
969.873
896.398
896.335
900.28
900.234
900.375
899.254
898.512
898.081
897.705
897.644
897.779
898.566
899.33
900.584
902.935
906.422
910.543
914.316
915.529
911.45
898.828
898.465
898.064
972.03
969.533
896.338
896.398
898.694
900.056
900.375
899.236
898.579
898.031
897.794
897.707
897.899
898.613
899.354
900.611
902.829
906.479
910.224
913.443
914.281
910.459
898.486
897.515
898.464
973.594
969.054
896.398
896.361
896.398
899.806
900.376
899.218
898.461
898.099
897.805
897.784
898.001
898.707
899.422
900.594
902.926
906.403
909.887
912.3
912.856
909.536
898.46
898.464
898.12
974.853
968.344
896.381
896.397
896.314
899.594
900.376
899.182
898.482
898.139
897.805
897.959
898.149
898.659
899.412
900.602
902.993
906.306
909.419
910.985
911.511
908.707
898.464
897.629
898.464
975.826
967.68
896.397
896.385
896.397
899.428
900.289
899.095
898.527
898.086
897.872
897.992
898.277
898.703
899.414
900.698
902.913
906.142
908.774
909.804
910.489
907.986
898.448
898.463
898.176
976.615
966.904
896.404
896.397
896.322
899.185
900.231
899.104
898.407
898.142
897.824
897.961
898.254
898.757
899.451
900.783
902.903
905.785
908.031
909.184
909.926
907.429
898.463
897.753
898.463
977.326
965.898
896.665
896.392
896.396
898.912
900.17
899.139
898.447
898.131
897.823
897.999
898.235
898.667
899.435
900.731
902.853
905.271
907.321
909.098
909.717
907.081
898.451
898.463
898.24
978.045
964.866
897.174
896.5
896.333
898.484
900.043
899.138
898.542
898.057
897.855
897.985
898.211
898.674
899.395
900.675
902.652
904.694
906.744
909.058
909.614
906.926
898.462
897.901
898.462
978.821
963.578
897.939
896.72
896.396
897.589
899.866
899.165
898.456
898.109
897.789
897.896
898.141
898.669
899.352
900.598
902.349
904.159
906.338
909.014
909.522
906.89
898.461
898.462
898.302
979.677
961.965
899.06
896.833
896.353
896.415
899.531
899.161
898.504
898.148
897.788
897.802
898.098
898.506
899.243
900.417
902.004
903.744
906.028
908.939
909.395
906.912
898.566
898.074
898.462
980.544
960.25
900.3
897.078
896.395
896.364
898.977
899.001
898.608
898.095
897.863
897.728
898.013
898.412
899.107
900.167
901.594
903.247
905.66
908.725
909.123
906.902
898.91
898.461
898.36
981.043
958.299
901.396
897.308
896.368
896.395
898.17
898.543
898.386
897.952
897.804
897.657
897.669
898.238
898.83
899.756
900.997
902.512
904.879
908.019
908.399
906.709
899.507
898.273
898.461
981.042
956.237
902.109
897.15
896.394
896.382
897.266
897.885
897.917
897.741
897.526
897.443
897.442
897.776
898.294
899.074
900.168
901.61
903.696
906.834
907.327
906.355
900.569
898.461
898.435
981.031
955.591
902.763
897.392
896.722
896.716
897.538
898.217
898.372
898.239
898.033
897.917
897.976
898.243
898.72
899.48
900.551
902.012
904.091
907.362
908.055
907.46
903.802
899.252
899.667
980.649
955.578
905
900.254
899.939
899.752
900.442
901.244
901.668
901.633
901.552
901.491
901.63
901.858
902.371
903.17
904.339
906.049
908.004
911.308
911.95
911.95
911.116
905.633
905.802
980.648
953.219
904.942
904.872
904.345
903.143
903.487
904.264
904.917
904.919
904.92
904.921
905.012
905.175
905.576
906.251
907.236
908.554
910.198
911.949
911.949
911.949
911.949
911.919
909.55
973.275
885.25
862.364
864.961
861.182
858.136
858.069
858.923
859.886
860.207
860.002
859.549
859.02
858.374
857.699
857.053
856.459
855.921
855.37
855.295
854.912
853.342
852.729
854.096
851.543
878.047
628.96
656.078
662.926
660.214
658.824
659.744
661.252
662.605
663.397
663.25
662.531
661.244
659.392
657.01
654.132
650.79
647.03
642.873
638.721
635.064
631.175
628.319
628.066
623.685
600.726
520.513
525.56
528.577
529.187
529.44
529.726
530.006
530.225
530.356
530.351
530.239
530
529.637
529.16
528.581
527.917
527.19
526.429
525.689
525.048
524.5
524.078
523.671
521.645
518.061
514.555
514.636
514.841
514.933
514.938
514.934
514.93
514.929
514.928
514.927
514.924
514.917
514.907
514.894
514.878
514.86
514.842
514.823
514.806
514.793
514.787
514.784
514.748
514.618
514.555
514.542
514.542
514.543
514.545
514.546
514.547
514.549
514.55
514.551
514.551
514.552
514.552
514.552
514.552
514.552
514.551
514.551
514.55
514.548
514.546
514.544
514.544
514.543
514.541
514.541
514.543
514.544
514.547
514.553
514.563
514.575
514.588
514.6
514.608
514.611
514.613
514.615
514.619
514.622
514.622
514.621
514.616
514.606
514.59
514.57
514.555
514.547
514.543
514.542
514.541
514.546
514.553
514.57
514.613
514.65
514.673
514.691
514.701
514.705
514.707
514.707
514.708
514.709
514.71
514.71
514.71
514.709
514.706
514.695
514.666
514.61
514.567
514.55
514.544
514.542
514.558
514.582
514.634
514.684
514.704
514.711
514.713
514.714
514.714
514.714
514.714
514.714
514.714
514.714
514.714
514.714
514.714
514.714
514.714
514.71
514.687
514.627
514.577
514.554
514.546
)
;

boundaryField
{
    inlet
    {
        type            calculated;
        value           nonuniform List<scalar> 
25
(
770.947
770.947
770.947
770.947
770.947
770.947
770.947
770.947
770.947
770.947
770.947
770.947
770.947
770.947
770.947
770.947
770.947
770.947
770.947
770.947
770.947
770.947
770.947
770.947
770.947
)
;
    }
    outlet
    {
        type            calculated;
        value           nonuniform List<scalar> 
25
(
514.558
514.582
514.634
514.684
514.704
514.714
514.714
514.714
514.714
514.714
514.714
514.714
514.714
514.714
514.714
514.714
514.714
514.714
514.714
514.714
514.687
514.627
514.577
514.554
514.546
)
;
    }
    walls
    {
        type            calculated;
        value           nonuniform List<scalar> 
150
(
876.521
897.05
930.097
972.956
1000.76
1008.86
1008.86
1008.84
1001.78
990.754
980.46
972.693
967.594
964.78
962.991
962.398
963.03
962.142
958.956
953.679
947.176
939.451
930.725
921.963
913.513
904.843
898.741
898.741
902.114
910.995
924.174
940.248
957.136
971.055
978.308
979.569
979.312
978.997
979.019
979.154
979.136
978.59
977.592
976.434
975.174
974.019
973.048
972.234
971.56
970.98
970.414
969.873
969.533
969.054
968.344
967.68
966.904
965.898
964.866
963.578
961.965
960.25
958.299
956.237
955.591
955.578
953.219
885.25
628.96
520.513
514.555
514.542
514.543
514.546
514.558
880.459
922.658
927.35
927.35
927.35
926.518
923.699
920.05
916.374
913.547
911.734
906.878
889.53
883.819
883.819
887.051
912.239
950.455
976.517
983.787
983.787
982.806
977.234
971.014
967.237
965.75
965.459
965.626
965.957
965.963
965.964
965.97
964.338
961.324
957.944
955.963
956.355
957.882
959.661
960.427
960.619
960.733
960.904
961.326
961.967
962.793
963.866
965.175
966.69
968.399
970.229
972.03
973.594
974.853
975.826
976.615
977.326
978.045
978.821
979.677
980.544
981.043
981.042
981.031
980.649
980.648
973.275
878.047
600.726
518.061
514.555
514.541
514.541
514.542
514.546
)
;
    }
    defaultFaces
    {
        type            empty;
    }
}


// ************************************************************************* //
