/*--------------------------------*- C++ -*----------------------------------*\
| =========                 |                                                 |
| \\      /  F ield         | OpenFOAM: The Open Source CFD Toolbox           |
|  \\    /   O peration     | Version:  2.3.0                                 |
|   \\  /    A nd           | Web:      www.OpenFOAM.org                      |
|    \\/     M anipulation  |                                                 |
\*---------------------------------------------------------------------------*/
FoamFile
{
    version     2.0;
    format      ascii;
    class       volVectorField;
    location    "84";
    object      U.airMean;
}
// * * * * * * * * * * * * * * * * * * * * * * * * * * * * * * * * * * * * * //

dimensions      [0 1 -1 0 0 0 0];

internalField   nonuniform List<vector> 
1875
(
(0.0391911 0.0783884 0)
(0.0849959 0.0775486 0)
(0.151839 0.0842385 0)
(0.197439 0.094426 0)
(0.226647 0.107059 0)
(0.241809 0.119696 0)
(0.245461 0.130452 0)
(0.240374 0.140261 0)
(0.228711 0.147794 0)
(0.211848 0.153551 0)
(0.190013 0.15848 0)
(0.164756 0.161611 0)
(0.136821 0.163231 0)
(0.106516 0.162871 0)
(0.0727623 0.161415 0)
(0.0350749 0.160988 0)
(-0.00519956 0.159788 0)
(-0.0445479 0.157083 0)
(-0.0788237 0.152231 0)
(-0.104145 0.144223 0)
(-0.117272 0.133976 0)
(-0.116332 0.121819 0)
(-0.0987915 0.109947 0)
(-0.0679463 0.0990381 0)
(-0.0337255 0.094731 0)
(0.0414686 0.147581 0)
(0.0894485 0.167208 0)
(0.140392 0.20084 0)
(0.170711 0.232614 0)
(0.188242 0.262124 0)
(0.196974 0.290112 0)
(0.198758 0.314068 0)
(0.195042 0.335551 0)
(0.188352 0.355708 0)
(0.178824 0.372962 0)
(0.166114 0.386299 0)
(0.150297 0.396471 0)
(0.131105 0.404539 0)
(0.109462 0.410478 0)
(0.0849698 0.416078 0)
(0.0575866 0.418151 0)
(0.0286 0.41496 0)
(-0.00110978 0.405048 0)
(-0.0294995 0.389087 0)
(-0.0533879 0.367936 0)
(-0.0701269 0.342755 0)
(-0.0789536 0.316625 0)
(-0.0760556 0.287071 0)
(-0.0585413 0.251569 0)
(-0.0276716 0.225087 0)
(0.0265949 -0.00121109 0)
(0.0611568 0.0399234 0)
(0.0892887 0.0857263 0)
(0.107204 0.128091 0)
(0.118344 0.168153 0)
(0.12522 0.206029 0)
(0.129309 0.241873 0)
(0.130738 0.273824 0)
(0.130664 0.302016 0)
(0.128413 0.327686 0)
(0.123683 0.34851 0)
(0.116757 0.363163 0)
(0.106728 0.374383 0)
(0.0940941 0.381562 0)
(0.0797863 0.386433 0)
(0.0647393 0.386397 0)
(0.0472555 0.37958 0)
(0.0294262 0.365577 0)
(0.0118585 0.343963 0)
(-0.00295066 0.316508 0)
(-0.0147448 0.286822 0)
(-0.023951 0.258179 0)
(-0.0276628 0.226319 0)
(-0.0277743 0.181767 0)
(-0.0132533 0.135247 0)
(0.0171958 -0.032092 0)
(0.0432264 0.0244684 0)
(0.0538088 0.0764125 0)
(0.0617372 0.123736 0)
(0.0679908 0.168394 0)
(0.0719844 0.210923 0)
(0.0739889 0.250427 0)
(0.0739628 0.286112 0)
(0.0738449 0.317938 0)
(0.0735618 0.346804 0)
(0.0725744 0.371051 0)
(0.0703816 0.390518 0)
(0.0660144 0.405564 0)
(0.0600715 0.415534 0)
(0.0533706 0.422476 0)
(0.0459451 0.425585 0)
(0.0373091 0.421701 0)
(0.0281172 0.40856 0)
(0.0184 0.386804 0)
(0.00815105 0.356716 0)
(-0.000493975 0.321609 0)
(-0.00734611 0.28496 0)
(-0.0112077 0.244549 0)
(-0.0151237 0.193586 0)
(-0.00705987 0.130676 0)
(0.0106066 -0.0553555 0)
(0.0263377 0.00214875 0)
(0.0241672 0.0552994 0)
(0.0231186 0.102268 0)
(0.0229394 0.14547 0)
(0.0216388 0.188061 0)
(0.0196045 0.229153 0)
(0.017043 0.26551 0)
(0.0151706 0.297852 0)
(0.0145209 0.326867 0)
(0.0149975 0.351912 0)
(0.0151901 0.374596 0)
(0.0143226 0.392289 0)
(0.0131537 0.404947 0)
(0.0120418 0.412583 0)
(0.0116166 0.415571 0)
(0.0120199 0.410961 0)
(0.0124694 0.398855 0)
(0.0112517 0.377928 0)
(0.0082823 0.349935 0)
(0.00375219 0.316412 0)
(-0.0010817 0.281895 0)
(-0.00521551 0.241694 0)
(-0.00701845 0.189732 0)
(-0.00309608 0.124242 0)
(0.00848032 -0.0557214 0)
(0.0145578 0.00835302 0)
(0.00183643 0.0679347 0)
(-0.0049579 0.116874 0)
(-0.0122792 0.15713 0)
(-0.0215471 0.195187 0)
(-0.0293477 0.231929 0)
(-0.0359122 0.266466 0)
(-0.0405471 0.296004 0)
(-0.0429182 0.32204 0)
(-0.0435094 0.345365 0)
(-0.042403 0.367232 0)
(-0.0399869 0.384672 0)
(-0.0360888 0.395877 0)
(-0.0308986 0.403538 0)
(-0.0240894 0.406248 0)
(-0.0161109 0.403238 0)
(-0.00847223 0.393362 0)
(-0.00309746 0.377507 0)
(-0.000254398 0.355441 0)
(-0.000865273 0.328631 0)
(-0.00372476 0.298206 0)
(-0.00624795 0.257694 0)
(-0.00511413 0.200532 0)
(-0.00240846 0.127054 0)
(0.0050397 -0.0457254 0)
(0.00474047 0.0188242 0)
(-0.0161698 0.0826972 0)
(-0.0250813 0.1358 0)
(-0.0382648 0.175317 0)
(-0.0528815 0.209521 0)
(-0.0660462 0.2411 0)
(-0.0769903 0.269515 0)
(-0.0847881 0.293493 0)
(-0.0896936 0.314908 0)
(-0.0917092 0.334124 0)
(-0.0902363 0.350672 0)
(-0.0851686 0.363495 0)
(-0.0772813 0.372161 0)
(-0.0669713 0.378049 0)
(-0.0547766 0.380152 0)
(-0.0417144 0.377504 0)
(-0.0295187 0.371335 0)
(-0.0193383 0.360717 0)
(-0.0124489 0.345977 0)
(-0.00971621 0.325885 0)
(-0.0101514 0.300654 0)
(-0.0086483 0.258269 0)
(-0.00408171 0.198159 0)
(-0.00128245 0.123629 0)
(0.0033309 -0.0236217 0)
(-0.00204625 0.0441039 0)
(-0.0279791 0.111903 0)
(-0.0388345 0.169618 0)
(-0.0558866 0.209568 0)
(-0.0737912 0.238728 0)
(-0.0904546 0.263241 0)
(-0.103304 0.284833 0)
(-0.112763 0.302171 0)
(-0.117891 0.316006 0)
(-0.118905 0.327017 0)
(-0.116036 0.336583 0)
(-0.1086 0.344201 0)
(-0.0979815 0.349851 0)
(-0.0849651 0.353183 0)
(-0.0703667 0.354267 0)
(-0.0553096 0.353387 0)
(-0.0413406 0.350369 0)
(-0.029427 0.345562 0)
(-0.0213062 0.339475 0)
(-0.0178049 0.329256 0)
(-0.016136 0.306665 0)
(-0.0124807 0.261513 0)
(-0.00452859 0.196299 0)
(-0.00217707 0.120365 0)
(0.000288445 0.00330432 0)
(-0.00754609 0.0721179 0)
(-0.0349545 0.140473 0)
(-0.0458777 0.201501 0)
(-0.0625434 0.244502 0)
(-0.0799574 0.271109 0)
(-0.0964162 0.289552 0)
(-0.109196 0.301383 0)
(-0.11816 0.308439 0)
(-0.122735 0.313167 0)
(-0.122992 0.318628 0)
(-0.118579 0.320894 0)
(-0.110093 0.321405 0)
(-0.0990413 0.32226 0)
(-0.0862694 0.323386 0)
(-0.0724552 0.324529 0)
(-0.0583717 0.325729 0)
(-0.0454434 0.327382 0)
(-0.0352428 0.329009 0)
(-0.0282203 0.330028 0)
(-0.0240742 0.324646 0)
(-0.0201759 0.302829 0)
(-0.0136356 0.253833 0)
(-0.005346 0.187806 0)
(-0.00226743 0.112457 0)
(-0.00153006 0.0329403 0)
(-0.00954686 0.103751 0)
(-0.0358844 0.172165 0)
(-0.0465715 0.234597 0)
(-0.0598817 0.281657 0)
(-0.0744372 0.30708 0)
(-0.0876762 0.318799 0)
(-0.0984183 0.322926 0)
(-0.10639 0.323463 0)
(-0.11034 0.321651 0)
(-0.110706 0.315627 0)
(-0.107528 0.307808 0)
(-0.100914 0.302812 0)
(-0.0904848 0.300005 0)
(-0.0791049 0.300364 0)
(-0.066621 0.301533 0)
(-0.0553804 0.304603 0)
(-0.0456494 0.310071 0)
(-0.0383722 0.316724 0)
(-0.0332698 0.321975 0)
(-0.0289076 0.318977 0)
(-0.0236849 0.295061 0)
(-0.0147071 0.243701 0)
(-0.00675336 0.178893 0)
(-0.00217358 0.104419 0)
(-0.00200466 0.0589121 0)
(-0.00846434 0.130906 0)
(-0.0311991 0.199391 0)
(-0.0406784 0.26175 0)
(-0.0509299 0.310826 0)
(-0.0608897 0.336368 0)
(-0.0712045 0.344011 0)
(-0.079654 0.341181 0)
(-0.0861307 0.332439 0)
(-0.0900238 0.320745 0)
(-0.0902948 0.308389 0)
(-0.0880641 0.296476 0)
(-0.0841467 0.285021 0)
(-0.0770822 0.278427 0)
(-0.0685667 0.276165 0)
(-0.0586259 0.279208 0)
(-0.0503856 0.285832 0)
(-0.0441661 0.295798 0)
(-0.0400017 0.306408 0)
(-0.0365904 0.314385 0)
(-0.0325558 0.309763 0)
(-0.0254139 0.280691 0)
(-0.0152277 0.227219 0)
(-0.00708396 0.165119 0)
(-0.0014158 0.0940203 0)
(-0.00146813 0.0816443 0)
(-0.00549131 0.154314 0)
(-0.0243609 0.222874 0)
(-0.0316137 0.284259 0)
(-0.0392826 0.333262 0)
(-0.0460296 0.359645 0)
(-0.0534851 0.365493 0)
(-0.0602186 0.357859 0)
(-0.0648649 0.344293 0)
(-0.0675285 0.326366 0)
(-0.0679075 0.308024 0)
(-0.0671981 0.291622 0)
(-0.0655003 0.276714 0)
(-0.0622904 0.266248 0)
(-0.0586343 0.262864 0)
(-0.0538098 0.265727 0)
(-0.0492985 0.274811 0)
(-0.0446886 0.287461 0)
(-0.0423762 0.300545 0)
(-0.0394286 0.307425 0)
(-0.0349262 0.298328 0)
(-0.0260749 0.262108 0)
(-0.0156915 0.209044 0)
(-0.00673713 0.148914 0)
(-0.00154896 0.0836737 0)
(-0.000595818 0.0988121 0)
(-0.00260822 0.172361 0)
(-0.0179216 0.239542 0)
(-0.023651 0.298786 0)
(-0.0286031 0.347598 0)
(-0.033174 0.374626 0)
(-0.0377958 0.380632 0)
(-0.0428755 0.369997 0)
(-0.046802 0.351235 0)
(-0.0487488 0.328811 0)
(-0.0496498 0.307582 0)
(-0.049793 0.288756 0)
(-0.0493552 0.271683 0)
(-0.0497928 0.26108 0)
(-0.0506188 0.257119 0)
(-0.0500844 0.259067 0)
(-0.0484398 0.267344 0)
(-0.0459903 0.280817 0)
(-0.0443959 0.29494 0)
(-0.0419946 0.298817 0)
(-0.0364017 0.28273 0)
(-0.0266781 0.240717 0)
(-0.0171093 0.188654 0)
(-0.00790199 0.131138 0)
(-0.00339799 0.070972 0)
(-8.91526e-05 0.111802 0)
(-0.000393146 0.186271 0)
(-0.0118428 0.251898 0)
(-0.0160465 0.30851 0)
(-0.0189241 0.35525 0)
(-0.0210577 0.383377 0)
(-0.0235918 0.389541 0)
(-0.0263136 0.379671 0)
(-0.0292249 0.358758 0)
(-0.0319071 0.334226 0)
(-0.0341123 0.31 0)
(-0.0354748 0.288407 0)
(-0.0367052 0.271906 0)
(-0.0390624 0.263538 0)
(-0.0423356 0.258969 0)
(-0.044492 0.259401 0)
(-0.0462456 0.265608 0)
(-0.0466499 0.278129 0)
(-0.0461094 0.29148 0)
(-0.0438553 0.289771 0)
(-0.0379339 0.265385 0)
(-0.0294856 0.220713 0)
(-0.0214847 0.170444 0)
(-0.0118761 0.114154 0)
(-0.00662489 0.0529822 0)
(0.000374631 0.120239 0)
(0.00124721 0.194704 0)
(-0.00606382 0.259001 0)
(-0.00844277 0.313235 0)
(-0.0105946 0.356916 0)
(-0.0109819 0.385658 0)
(-0.0117095 0.392639 0)
(-0.0122621 0.38316 0)
(-0.0136405 0.364315 0)
(-0.0157148 0.338515 0)
(-0.0186704 0.313746 0)
(-0.0220746 0.291067 0)
(-0.0251176 0.273873 0)
(-0.0281284 0.266104 0)
(-0.0322534 0.26246 0)
(-0.0364553 0.263865 0)
(-0.0410606 0.269673 0)
(-0.0437 0.280048 0)
(-0.0444712 0.287692 0)
(-0.0421453 0.28013 0)
(-0.037388 0.251279 0)
(-0.0315782 0.205185 0)
(-0.0265637 0.155246 0)
(-0.0161868 0.0960814 0)
(-0.00864054 0.0297151 0)
(0.000759833 0.124117 0)
(0.00257951 0.198617 0)
(-0.00117041 0.263043 0)
(-0.00235826 0.316351 0)
(-0.00345516 0.357605 0)
(-0.00283783 0.383903 0)
(-0.00171043 0.392507 0)
(-0.00100067 0.384008 0)
(-0.000579767 0.365559 0)
(-0.00122913 0.342073 0)
(-0.00497256 0.319434 0)
(-0.00924555 0.296892 0)
(-0.0139562 0.279769 0)
(-0.0185775 0.272448 0)
(-0.02348 0.271042 0)
(-0.028599 0.272876 0)
(-0.0330529 0.276942 0)
(-0.0356005 0.2833 0)
(-0.0369131 0.285905 0)
(-0.0353485 0.272429 0)
(-0.0317763 0.240257 0)
(-0.0294867 0.196349 0)
(-0.0278707 0.145308 0)
(-0.0190112 0.080392 0)
(-0.00878533 0.00791376 0)
(0.000823362 0.125824 0)
(0.00350985 0.200412 0)
(0.00371511 0.264666 0)
(0.00405308 0.316438 0)
(0.00451932 0.355022 0)
(0.00578084 0.379651 0)
(0.00832885 0.388129 0)
(0.00994507 0.380425 0)
(0.0108151 0.363053 0)
(0.0100852 0.343772 0)
(0.00689705 0.323865 0)
(0.0023184 0.302963 0)
(-0.00281998 0.287314 0)
(-0.00867383 0.28005 0)
(-0.0137444 0.278108 0)
(-0.0183053 0.27942 0)
(-0.0221027 0.281559 0)
(-0.0244547 0.285508 0)
(-0.0251902 0.283596 0)
(-0.0238515 0.265895 0)
(-0.0224069 0.234848 0)
(-0.0219639 0.193519 0)
(-0.021668 0.139472 0)
(-0.0182313 0.0704284 0)
(-0.00778334 -0.00632758 0)
(0.00106612 0.123601 0)
(0.00480744 0.198155 0)
(0.00990901 0.262978 0)
(0.0125941 0.31416 0)
(0.0148221 0.351569 0)
(0.017463 0.374322 0)
(0.0209425 0.382443 0)
(0.0228797 0.377324 0)
(0.0228527 0.362989 0)
(0.0204569 0.345433 0)
(0.0173071 0.327083 0)
(0.0122186 0.308095 0)
(0.00713542 0.2937 0)
(0.00138229 0.287952 0)
(-0.00412877 0.286223 0)
(-0.00899741 0.286901 0)
(-0.0125838 0.287141 0)
(-0.0143984 0.28635 0)
(-0.0137647 0.280191 0)
(-0.0127538 0.262448 0)
(-0.0119379 0.23254 0)
(-0.0112728 0.191904 0)
(-0.0105989 0.137173 0)
(-0.013233 0.0674231 0)
(-0.00630869 -0.0115767 0)
(0.00148824 0.114875 0)
(0.00663465 0.188514 0)
(0.0162349 0.254668 0)
(0.0221359 0.307212 0)
(0.0270947 0.34363 0)
(0.0317637 0.365808 0)
(0.035679 0.37552 0)
(0.0376498 0.373578 0)
(0.036696 0.36248 0)
(0.0330276 0.34687 0)
(0.0281641 0.329802 0)
(0.0214164 0.313098 0)
(0.0143139 0.299886 0)
(0.00779447 0.295203 0)
(0.00239879 0.294155 0)
(-0.00243065 0.2926 0)
(-0.00520981 0.291177 0)
(-0.00589814 0.286696 0)
(-0.00515891 0.277719 0)
(-0.00395519 0.260564 0)
(-0.00271611 0.231779 0)
(-0.00208383 0.192451 0)
(-0.000981483 0.137612 0)
(-0.00698152 0.0684317 0)
(-0.00472495 -0.0127974 0)
(0.00151198 0.102355 0)
(0.00711264 0.175575 0)
(0.0200258 0.241151 0)
(0.0283895 0.293566 0)
(0.0358531 0.331545 0)
(0.0425185 0.35554 0)
(0.0474405 0.367734 0)
(0.0502731 0.369462 0)
(0.0500862 0.36297 0)
(0.0461257 0.350685 0)
(0.0394956 0.337421 0)
(0.030592 0.323459 0)
(0.0211129 0.310872 0)
(0.0130018 0.303998 0)
(0.00763709 0.300967 0)
(0.00350791 0.297329 0)
(0.0013643 0.292464 0)
(0.00125857 0.286065 0)
(0.00120577 0.277482 0)
(0.00251626 0.258835 0)
(0.00343124 0.231121 0)
(0.00368968 0.193264 0)
(0.00384922 0.140754 0)
(-0.00295761 0.0720925 0)
(-0.00292233 -0.0117405 0)
(0.00129283 0.0892962 0)
(0.00610421 0.16141 0)
(0.0203842 0.225158 0)
(0.0303312 0.276571 0)
(0.0389897 0.315124 0)
(0.046828 0.340835 0)
(0.053394 0.356758 0)
(0.0570669 0.363168 0)
(0.0581748 0.362278 0)
(0.0554804 0.356207 0)
(0.0495886 0.347397 0)
(0.0414144 0.336315 0)
(0.0320834 0.32338 0)
(0.0229981 0.313703 0)
(0.0162129 0.307217 0)
(0.0118444 0.301277 0)
(0.00945168 0.293831 0)
(0.00809799 0.287281 0)
(0.0077447 0.277068 0)
(0.0084276 0.258652 0)
(0.00819602 0.232093 0)
(0.00690815 0.196354 0)
(0.00561753 0.146395 0)
(-0.000926209 0.0776555 0)
(-0.00159752 -0.00805391 0)
(0.000856152 0.0768807 0)
(0.00429344 0.147714 0)
(0.0176302 0.208735 0)
(0.0287892 0.25882 0)
(0.0381315 0.296943 0)
(0.0466422 0.324094 0)
(0.053184 0.344512 0)
(0.0574372 0.355751 0)
(0.0594873 0.360843 0)
(0.0594713 0.359867 0)
(0.0571215 0.354409 0)
(0.0518332 0.346081 0)
(0.0445723 0.335047 0)
(0.0361193 0.325492 0)
(0.0281778 0.316415 0)
(0.0226155 0.307064 0)
(0.0185228 0.297983 0)
(0.0156576 0.290022 0)
(0.0145471 0.278296 0)
(0.014251 0.260497 0)
(0.0125958 0.236159 0)
(0.00976655 0.201487 0)
(0.00734956 0.152572 0)
(0.000673713 0.0846829 0)
(-0.000217322 -0.00180441 0)
(-5.96216e-06 0.0676978 0)
(0.00160978 0.137176 0)
(0.0127753 0.194639 0)
(0.0234936 0.242644 0)
(0.033604 0.280582 0)
(0.0426724 0.309701 0)
(0.0496724 0.333295 0)
(0.0549252 0.348632 0)
(0.0586332 0.35632 0)
(0.0609566 0.359069 0)
(0.061066 0.358974 0)
(0.058482 0.353516 0)
(0.0536701 0.343342 0)
(0.0470041 0.334704 0)
(0.039765 0.325482 0)
(0.0329791 0.315671 0)
(0.0270699 0.305719 0)
(0.0229973 0.295344 0)
(0.0208508 0.282209 0)
(0.019091 0.264603 0)
(0.0166068 0.242515 0)
(0.0125386 0.209385 0)
(0.00963266 0.160094 0)
(0.00235855 0.0940872 0)
(0.00110656 0.00721616 0)
(-0.000687991 0.0611847 0)
(-0.000311257 0.128837 0)
(0.00849762 0.183634 0)
(0.0175827 0.227968 0)
(0.0279343 0.263912 0)
(0.0380059 0.294188 0)
(0.0464249 0.31945 0)
(0.0534218 0.337135 0)
(0.0588222 0.348978 0)
(0.0619868 0.356232 0)
(0.0628978 0.360193 0)
(0.0611551 0.358372 0)
(0.0580085 0.351564 0)
(0.0528847 0.344026 0)
(0.0466071 0.335245 0)
(0.0397303 0.32582 0)
(0.0332103 0.315227 0)
(0.0276047 0.302926 0)
(0.0238253 0.288614 0)
(0.0206345 0.271233 0)
(0.0175426 0.250097 0)
(0.0138569 0.217302 0)
(0.0112399 0.168543 0)
(0.003183 0.104815 0)
(0.00173491 0.0187052 0)
(-0.000469826 0.056127 0)
(-0.000489324 0.12194 0)
(0.00684323 0.175055 0)
(0.0139744 0.216001 0)
(0.0231504 0.249332 0)
(0.0329 0.27954 0)
(0.0420698 0.305097 0)
(0.0500567 0.325417 0)
(0.0558139 0.340484 0)
(0.0589563 0.351892 0)
(0.060207 0.359653 0)
(0.0593786 0.36135 0)
(0.0574633 0.356924 0)
(0.0536435 0.352199 0)
(0.048475 0.345113 0)
(0.0417486 0.336022 0)
(0.0347952 0.325314 0)
(0.0282412 0.312227 0)
(0.0233221 0.296913 0)
(0.0192305 0.278785 0)
(0.0162469 0.25727 0)
(0.0133019 0.224931 0)
(0.0111555 0.178138 0)
(0.00326564 0.116536 0)
(0.00188117 0.0310742 0)
(0.000642466 0.0508215 0)
(0.00130872 0.114379 0)
(0.00724827 0.165538 0)
(0.0134269 0.205326 0)
(0.020469 0.236853 0)
(0.0285011 0.266071 0)
(0.0368903 0.291235 0)
(0.0443589 0.313632 0)
(0.0497099 0.333019 0)
(0.0525322 0.347622 0)
(0.0541289 0.357276 0)
(0.0541663 0.361289 0)
(0.0530418 0.360404 0)
(0.0501053 0.359156 0)
(0.0457798 0.355174 0)
(0.0394291 0.347791 0)
(0.0325221 0.336475 0)
(0.026144 0.321672 0)
(0.0206781 0.304992 0)
(0.0165392 0.28685 0)
(0.0134593 0.264252 0)
(0.0114285 0.231887 0)
(0.00934126 0.186944 0)
(0.00276047 0.126767 0)
(0.00172605 0.0426673 0)
(0.00191913 0.0444851 0)
(0.00347608 0.107007 0)
(0.00772473 0.156716 0)
(0.0131437 0.195893 0)
(0.0186492 0.227444 0)
(0.0246247 0.255643 0)
(0.0312783 0.280534 0)
(0.0372708 0.303823 0)
(0.0418784 0.325287 0)
(0.0445782 0.342194 0)
(0.0456938 0.354115 0)
(0.0455091 0.360777 0)
(0.0443663 0.362565 0)
(0.0416514 0.364281 0)
(0.037734 0.36332 0)
(0.0327098 0.358076 0)
(0.0272012 0.346712 0)
(0.021554 0.331785 0)
(0.0160699 0.314067 0)
(0.0124984 0.294428 0)
(0.00982375 0.271655 0)
(0.00852757 0.238009 0)
(0.00671075 0.195589 0)
(0.00183106 0.13533 0)
(0.00148954 0.0526548 0)
(0.00304224 0.0369695 0)
(0.00524082 0.0997441 0)
(0.00758852 0.148868 0)
(0.0116416 0.186538 0)
(0.0161521 0.21821 0)
(0.0207458 0.246566 0)
(0.0254712 0.271791 0)
(0.0296961 0.295974 0)
(0.033025 0.319292 0)
(0.0348051 0.338145 0)
(0.0353588 0.352071 0)
(0.0346481 0.360583 0)
(0.0328222 0.36478 0)
(0.0295945 0.368691 0)
(0.025377 0.369711 0)
(0.0214056 0.365699 0)
(0.0171684 0.355792 0)
(0.012903 0.341231 0)
(0.00887744 0.322462 0)
(0.00570081 0.301256 0)
(0.00416067 0.276314 0)
(0.0040957 0.242406 0)
(0.00320914 0.20079 0)
(0.000989459 0.140476 0)
(0.00107039 0.0600312 0)
(0.00382405 0.0294123 0)
(0.0070669 0.0936143 0)
(0.00720322 0.142211 0)
(0.00897987 0.178848 0)
(0.0119994 0.210417 0)
(0.0154474 0.238909 0)
(0.0184523 0.265378 0)
(0.0208258 0.290552 0)
(0.0225005 0.314665 0)
(0.0235394 0.334792 0)
(0.0231545 0.350701 0)
(0.0219297 0.361373 0)
(0.0193803 0.368398 0)
(0.015573 0.374575 0)
(0.0112367 0.376064 0)
(0.00788039 0.371758 0)
(0.00483907 0.36238 0)
(0.00241093 0.3479 0)
(9.88863e-05 0.329157 0)
(-0.00181529 0.306097 0)
(-0.0018999 0.278231 0)
(-0.000836397 0.243675 0)
(-0.00017496 0.202092 0)
(9.21296e-05 0.142233 0)
(0.00062047 0.0647905 0)
(0.00414807 0.0232243 0)
(0.00800162 0.0895461 0)
(0.00608806 0.138066 0)
(0.00625511 0.17397 0)
(0.00755279 0.205196 0)
(0.00938042 0.233417 0)
(0.0110388 0.260816 0)
(0.0117628 0.286831 0)
(0.0119097 0.311457 0)
(0.0112797 0.332925 0)
(0.00988729 0.3504 0)
(0.00791542 0.362842 0)
(0.00487156 0.372281 0)
(0.00144524 0.379635 0)
(-0.00210131 0.381656 0)
(-0.00501517 0.376973 0)
(-0.00688141 0.366291 0)
(-0.00775753 0.351044 0)
(-0.00809079 0.331533 0)
(-0.00783478 0.30679 0)
(-0.00660484 0.276806 0)
(-0.00482462 0.241171 0)
(-0.00288458 0.199476 0)
(-0.000798945 0.141747 0)
(0.000431365 0.0669813 0)
(0.00407563 0.0202932 0)
(0.00755456 0.0887794 0)
(0.00362892 0.136671 0)
(0.00298072 0.17161 0)
(0.0030265 0.203278 0)
(0.00301726 0.231152 0)
(0.00298478 0.258886 0)
(0.00199048 0.285679 0)
(0.000564699 0.311483 0)
(-0.00174636 0.33435 0)
(-0.00382278 0.352628 0)
(-0.00609146 0.366229 0)
(-0.00878432 0.376028 0)
(-0.0116648 0.383715 0)
(-0.0141439 0.385364 0)
(-0.015488 0.379467 0)
(-0.0158119 0.367889 0)
(-0.0154907 0.351298 0)
(-0.0139877 0.330095 0)
(-0.0117955 0.303729 0)
(-0.00935502 0.273206 0)
(-0.00703218 0.23753 0)
(-0.00456374 0.195304 0)
(-0.00123803 0.140103 0)
(0.000406318 0.067314 0)
(0.00358568 0.0213238 0)
(0.00591412 0.0906861 0)
(0.000418465 0.138575 0)
(-0.00105611 0.17234 0)
(-0.00223232 0.203536 0)
(-0.00388442 0.231338 0)
(-0.00611062 0.259427 0)
(-0.00895642 0.286824 0)
(-0.0118447 0.31291 0)
(-0.0145022 0.33592 0)
(-0.0163438 0.354724 0)
(-0.018043 0.368773 0)
(-0.0196021 0.378887 0)
(-0.0211592 0.386239 0)
(-0.0220799 0.386469 0)
(-0.0220853 0.379106 0)
(-0.0212225 0.366109 0)
(-0.0196039 0.347795 0)
(-0.0169222 0.324668 0)
(-0.0136899 0.29813 0)
(-0.0105353 0.267589 0)
(-0.00760923 0.231902 0)
(-0.00521354 0.191149 0)
(-0.00133444 0.137598 0)
(0.000299636 0.0665764 0)
(0.00233423 0.0251228 0)
(0.00308679 0.0948219 0)
(-0.00285751 0.143827 0)
(-0.00503631 0.177414 0)
(-0.00778683 0.207601 0)
(-0.0111935 0.236032 0)
(-0.0154233 0.264169 0)
(-0.0198836 0.290829 0)
(-0.0236087 0.316285 0)
(-0.0257334 0.338431 0)
(-0.0263934 0.356386 0)
(-0.0267616 0.370112 0)
(-0.0270057 0.3794 0)
(-0.0269927 0.385869 0)
(-0.0264211 0.384477 0)
(-0.0247952 0.375775 0)
(-0.0225396 0.3616 0)
(-0.0197566 0.342356 0)
(-0.0166518 0.318148 0)
(-0.0132014 0.290756 0)
(-0.00984962 0.261125 0)
(-0.00700704 0.226372 0)
(-0.00522588 0.186879 0)
(-0.00171637 0.134812 0)
(-9.17169e-05 0.0648543 0)
(0.00107536 0.0306152 0)
(0.000643308 0.101259 0)
(-0.00541602 0.150691 0)
(-0.00784506 0.184926 0)
(-0.0117052 0.214922 0)
(-0.0163989 0.242754 0)
(-0.0216755 0.2701 0)
(-0.0268046 0.296092 0)
(-0.0305215 0.319282 0)
(-0.0322995 0.338814 0)
(-0.0325416 0.355535 0)
(-0.0322615 0.368791 0)
(-0.0312959 0.377348 0)
(-0.0297866 0.382671 0)
(-0.0276621 0.379965 0)
(-0.0247616 0.369771 0)
(-0.0214503 0.354508 0)
(-0.0178509 0.334962 0)
(-0.0143645 0.310935 0)
(-0.010876 0.283902 0)
(-0.00804476 0.254859 0)
(-0.00559674 0.22209 0)
(-0.00464743 0.183989 0)
(-0.00186348 0.132274 0)
(-0.000456705 0.0626308 0)
(0.000312597 0.0382073 0)
(-0.000833059 0.109712 0)
(-0.00716089 0.159374 0)
(-0.0101143 0.1937 0)
(-0.0146445 0.223408 0)
(-0.0198271 0.251023 0)
(-0.0249206 0.278449 0)
(-0.0293564 0.30398 0)
(-0.032371 0.325373 0)
(-0.0342445 0.341827 0)
(-0.0347838 0.355651 0)
(-0.0341242 0.36628 0)
(-0.0323938 0.372511 0)
(-0.0299302 0.376761 0)
(-0.0268056 0.372232 0)
(-0.022976 0.361419 0)
(-0.0193984 0.346158 0)
(-0.0152976 0.326398 0)
(-0.0117463 0.30277 0)
(-0.00809414 0.276632 0)
(-0.00594842 0.24994 0)
(-0.00418527 0.218495 0)
(-0.00359522 0.181454 0)
(-0.00167162 0.129552 0)
(-0.000620221 0.0601692 0)
(0.000104062 0.0467558 0)
(-0.00134926 0.118875 0)
(-0.007614 0.168286 0)
(-0.0109102 0.202919 0)
(-0.016178 0.231981 0)
(-0.0210953 0.258891 0)
(-0.0250075 0.285703 0)
(-0.027758 0.309608 0)
(-0.0292813 0.328868 0)
(-0.0307024 0.343787 0)
(-0.0316799 0.355021 0)
(-0.0316183 0.362844 0)
(-0.0299809 0.36711 0)
(-0.0270159 0.370041 0)
(-0.0234228 0.364411 0)
(-0.0192821 0.353122 0)
(-0.0154266 0.337758 0)
(-0.0114636 0.31806 0)
(-0.00818888 0.295639 0)
(-0.0052658 0.271219 0)
(-0.0035338 0.246022 0)
(-0.0023125 0.215881 0)
(-0.00171806 0.179836 0)
(-0.000940196 0.127603 0)
(-0.000531552 0.0590251 0)
(0.000362659 0.0549378 0)
(-0.00120565 0.127413 0)
(-0.00718266 0.17652 0)
(-0.0103751 0.211948 0)
(-0.0158388 0.240664 0)
(-0.0202427 0.26594 0)
(-0.0231116 0.291312 0)
(-0.0245433 0.313607 0)
(-0.025384 0.332279 0)
(-0.0265934 0.346403 0)
(-0.0277183 0.355654 0)
(-0.028279 0.360621 0)
(-0.0270551 0.361011 0)
(-0.024058 0.361537 0)
(-0.0202364 0.355004 0)
(-0.0162278 0.343473 0)
(-0.0122161 0.328978 0)
(-0.00863702 0.310535 0)
(-0.00566933 0.289508 0)
(-0.00317819 0.266476 0)
(-0.00169608 0.242952 0)
(-0.000723126 0.213934 0)
(0.000444147 0.178429 0)
(-5.65588e-05 0.127567 0)
(-0.0002364 0.0595892 0)
(0.000541434 0.0625548 0)
(-0.00102509 0.135512 0)
(-0.00706168 0.183174 0)
(-0.0096677 0.219951 0)
(-0.0146654 0.249004 0)
(-0.0185579 0.273087 0)
(-0.0213077 0.296134 0)
(-0.0225052 0.316292 0)
(-0.0230261 0.333801 0)
(-0.0235383 0.347677 0)
(-0.023935 0.355991 0)
(-0.0239658 0.358896 0)
(-0.0227078 0.356036 0)
(-0.0202675 0.354327 0)
(-0.0172907 0.347329 0)
(-0.0143167 0.335482 0)
(-0.0109814 0.320876 0)
(-0.0076316 0.303297 0)
(-0.00481037 0.283622 0)
(-0.00263855 0.262183 0)
(-0.00111054 0.240183 0)
(-0.000117065 0.211863 0)
(0.00177923 0.177338 0)
(0.000288703 0.129043 0)
(-0.000172559 0.0616116 0)
(0.000311472 0.0692439 0)
(-0.000839542 0.142729 0)
(-0.00688721 0.188423 0)
(-0.00908521 0.22598 0)
(-0.0129151 0.25644 0)
(-0.0157136 0.279696 0)
(-0.0180157 0.300792 0)
(-0.0192743 0.318481 0)
(-0.0200618 0.33469 0)
(-0.0202839 0.346816 0)
(-0.0198051 0.353759 0)
(-0.0194426 0.355282 0)
(-0.0184571 0.350719 0)
(-0.0166365 0.347856 0)
(-0.0139795 0.340702 0)
(-0.0116864 0.328961 0)
(-0.00925935 0.314183 0)
(-0.00669251 0.297348 0)
(-0.00431714 0.278798 0)
(-0.00250907 0.258839 0)
(-0.000936455 0.237621 0)
(0.000547223 0.209587 0)
(0.00268898 0.176071 0)
(0.000377895 0.130441 0)
(-0.000337595 0.0642022 0)
(-0.000244925 0.0757596 0)
(-0.00113012 0.149459 0)
(-0.00677851 0.193735 0)
(-0.00881729 0.230128 0)
(-0.0109067 0.26096 0)
(-0.012795 0.283675 0)
(-0.0140569 0.304344 0)
(-0.0152879 0.321283 0)
(-0.0159577 0.335991 0)
(-0.0159685 0.346176 0)
(-0.015348 0.351921 0)
(-0.0151741 0.352799 0)
(-0.0146829 0.346552 0)
(-0.0137111 0.341639 0)
(-0.0120137 0.333972 0)
(-0.0101779 0.323831 0)
(-0.00843286 0.30937 0)
(-0.00657277 0.29256 0)
(-0.00457142 0.274685 0)
(-0.00273633 0.255016 0)
(-0.000531726 0.233782 0)
(0.0012572 0.205815 0)
(0.00269219 0.175357 0)
(0.000222458 0.131716 0)
(-0.000300601 0.0666407 0)
(-0.000715709 0.0821808 0)
(-0.00177215 0.155605 0)
(-0.00679568 0.198684 0)
(-0.00869711 0.232365 0)
(-0.00964198 0.263944 0)
(-0.0107537 0.286641 0)
(-0.011526 0.306918 0)
(-0.0123521 0.322874 0)
(-0.0124561 0.335956 0)
(-0.012235 0.344607 0)
(-0.0117647 0.349754 0)
(-0.0116127 0.349839 0)
(-0.0111617 0.342877 0)
(-0.0109463 0.338018 0)
(-0.0105264 0.329901 0)
(-0.0094615 0.319335 0)
(-0.00786894 0.305569 0)
(-0.00618531 0.289285 0)
(-0.00449502 0.271386 0)
(-0.00223425 0.25055 0)
(0.000629014 0.229243 0)
(0.00181265 0.203708 0)
(0.00238421 0.175862 0)
(9.84616e-05 0.134211 0)
(-8.93095e-05 0.0688638 0)
(-0.000987547 0.0882709 0)
(-0.0020579 0.161542 0)
(-0.00687015 0.203587 0)
(-0.00878667 0.234907 0)
(-0.00969549 0.26537 0)
(-0.0100097 0.28847 0)
(-0.0103194 0.308549 0)
(-0.0103473 0.323553 0)
(-0.0101889 0.33524 0)
(-0.00976674 0.343466 0)
(-0.00973657 0.348099 0)
(-0.00968324 0.347896 0)
(-0.00944536 0.340837 0)
(-0.00983944 0.33617 0)
(-0.00988573 0.327592 0)
(-0.0093358 0.316041 0)
(-0.00799076 0.301477 0)
(-0.00637157 0.284923 0)
(-0.00431218 0.266645 0)
(-0.0019047 0.244589 0)
(0.000479417 0.225181 0)
(0.000694163 0.202612 0)
(0.00128055 0.17631 0)
(-0.000485547 0.136564 0)
(-0.000123646 0.0712345 0)
(-0.00115975 0.094957 0)
(-0.00224087 0.167981 0)
(-0.00688938 0.209117 0)
(-0.00866003 0.238691 0)
(-0.0101225 0.267245 0)
(-0.00987276 0.289004 0)
(-0.00981329 0.308739 0)
(-0.00956942 0.323087 0)
(-0.0092705 0.334735 0)
(-0.0089741 0.342961 0)
(-0.00907786 0.347618 0)
(-0.00879648 0.346281 0)
(-0.00899725 0.34002 0)
(-0.00953506 0.335383 0)
(-0.00971545 0.325846 0)
(-0.00895298 0.313184 0)
(-0.00744111 0.297858 0)
(-0.00573927 0.280497 0)
(-0.00372614 0.26165 0)
(-0.00198622 0.240192 0)
(-0.000918227 0.223502 0)
(-0.00107912 0.202326 0)
(-0.000233996 0.176287 0)
(-0.00146124 0.137689 0)
(-0.000379839 0.0726604 0)
(-0.00117441 0.101188 0)
(-0.00215936 0.173569 0)
(-0.00585923 0.214401 0)
(-0.00745792 0.242774 0)
(-0.00886055 0.269353 0)
(-0.00839465 0.28967 0)
(-0.00800157 0.309555 0)
(-0.00786589 0.323435 0)
(-0.00769371 0.334427 0)
(-0.0076618 0.342609 0)
(-0.00734744 0.346969 0)
(-0.00681939 0.345968 0)
(-0.00741043 0.339968 0)
(-0.00791637 0.334727 0)
(-0.00795139 0.323579 0)
(-0.00684075 0.309547 0)
(-0.00527343 0.293229 0)
(-0.00352533 0.275401 0)
(-0.00185407 0.257705 0)
(-0.00114967 0.237933 0)
(-0.00102576 0.222401 0)
(-0.00117458 0.20144 0)
(-0.000629184 0.176807 0)
(-0.0015997 0.138693 0)
(-0.000364981 0.0737154 0)
(-0.000902817 0.106503 0)
(-0.00163961 0.177375 0)
(-0.00430879 0.218043 0)
(-0.00536701 0.24601 0)
(-0.00620308 0.270569 0)
(-0.0053809 0.289134 0)
(-0.00444654 0.309007 0)
(-0.00376325 0.323245 0)
(-0.00345503 0.334833 0)
(-0.00347925 0.342695 0)
(-0.00294644 0.345985 0)
(-0.00257677 0.345621 0)
(-0.00264827 0.340443 0)
(-0.00326706 0.334256 0)
(-0.00342108 0.320831 0)
(-0.00301354 0.30571 0)
(-0.00207867 0.288957 0)
(-0.00101666 0.271242 0)
(0.000221347 0.255055 0)
(0.000349276 0.236747 0)
(0.000270833 0.221944 0)
(-0.000252784 0.201528 0)
(-0.000595091 0.177672 0)
(-0.00139089 0.139525 0)
(-0.000338326 0.0751929 0)
(-0.000528417 0.110664 0)
(-0.000873598 0.180554 0)
(-0.00307072 0.220199 0)
(-0.00322419 0.247795 0)
(-0.0032642 0.270701 0)
(-0.00218234 0.287774 0)
(-0.00103705 0.30729 0)
(-0.000235318 0.321787 0)
(2.78354e-05 0.333933 0)
(0.000299162 0.341682 0)
(0.000815738 0.345096 0)
(0.00110935 0.344735 0)
(0.00146036 0.339757 0)
(0.00156484 0.334316 0)
(0.00120034 0.320735 0)
(0.000703954 0.304674 0)
(0.000683202 0.287201 0)
(0.00123242 0.268969 0)
(0.00174467 0.253234 0)
(0.00173108 0.235825 0)
(0.00158466 0.222414 0)
(0.00046262 0.204028 0)
(-4.94159e-05 0.179379 0)
(-0.00117074 0.140327 0)
(-0.000452129 0.076763 0)
(-0.00023035 0.113827 0)
(6.87893e-05 0.182503 0)
(-0.00165209 0.220661 0)
(-0.0012577 0.246822 0)
(-0.000423882 0.269646 0)
(0.00049372 0.285523 0)
(0.0012081 0.305243 0)
(0.00164806 0.32067 0)
(0.0015639 0.33305 0)
(0.00194114 0.340205 0)
(0.00246991 0.343666 0)
(0.00321437 0.343533 0)
(0.00389386 0.337681 0)
(0.00463118 0.333003 0)
(0.00479635 0.320729 0)
(0.00422327 0.304848 0)
(0.00402504 0.286506 0)
(0.00394013 0.268054 0)
(0.00374169 0.252339 0)
(0.00299314 0.235865 0)
(0.00213397 0.223697 0)
(0.000821833 0.205895 0)
(0.000692804 0.180499 0)
(-0.000855667 0.141357 0)
(-0.00059581 0.0783284 0)
(-0.000172831 0.116244 0)
(0.000662975 0.183364 0)
(-0.0008468 0.220227 0)
(-0.000243701 0.245083 0)
(0.000443632 0.267787 0)
(0.000898821 0.284643 0)
(0.000884453 0.304723 0)
(0.00102573 0.319661 0)
(0.0016433 0.331527 0)
(0.00273482 0.338731 0)
(0.00391788 0.341157 0)
(0.00524692 0.340746 0)
(0.00632609 0.335887 0)
(0.00754334 0.330997 0)
(0.00839914 0.31972 0)
(0.00816964 0.304388 0)
(0.00784469 0.286355 0)
(0.0070292 0.26824 0)
(0.00598401 0.253815 0)
(0.0042157 0.238128 0)
(0.00288761 0.225887 0)
(0.00167058 0.207382 0)
(0.00183465 0.181486 0)
(-0.000411376 0.143382 0)
(-0.000516612 0.0808622 0)
(-0.000229913 0.118939 0)
(0.000424376 0.184673 0)
(-0.000945601 0.220442 0)
(-0.000775691 0.24442 0)
(-0.000505031 0.266926 0)
(-0.000426185 0.285103 0)
(-0.000619628 0.304137 0)
(-0.000100582 0.316982 0)
(0.00126434 0.32807 0)
(0.00306896 0.334249 0)
(0.00519712 0.337057 0)
(0.00689352 0.337503 0)
(0.00844428 0.331973 0)
(0.0100046 0.32715 0)
(0.0115736 0.317745 0)