/*--------------------------------*- C++ -*----------------------------------*\
| =========                 |                                                 |
| \\      /  F ield         | OpenFOAM: The Open Source CFD Toolbox           |
|  \\    /   O peration     | Version:  2.3.0                                 |
|   \\  /    A nd           | Web:      www.OpenFOAM.org                      |
|    \\/     M anipulation  |                                                 |
\*---------------------------------------------------------------------------*/
FoamFile
{
    version     2.0;
    format      ascii;
    class       volVectorField;
    location    "84";
    object      Ur;
}
// * * * * * * * * * * * * * * * * * * * * * * * * * * * * * * * * * * * * * //

dimensions      [0 1 -1 0 0 0 0];

internalField   nonuniform List<vector> 
1875
(
(-0.0157778 0.218401 0)
(-0.0211416 0.219427 0)
(-0.0109953 0.219369 0)
(-0.00189024 0.218599 0)
(0.00510995 0.218796 0)
(0.0100373 0.219602 0)
(0.0124326 0.220334 0)
(0.0124829 0.220496 0)
(0.0105549 0.219812 0)
(0.00706691 0.218289 0)
(0.00224636 0.215968 0)
(-0.00321556 0.213904 0)
(-0.00869869 0.21143 0)
(-0.0147137 0.207111 0)
(-0.0217539 0.201272 0)
(-0.0291447 0.197073 0)
(-0.0354135 0.194802 0)
(-0.0395366 0.195351 0)
(-0.0405435 0.195478 0)
(-0.0381506 0.195716 0)
(-0.0322411 0.196584 0)
(-0.0239851 0.197262 0)
(-0.0136555 0.193888 0)
(-0.0175076 0.19271 0)
(-0.014127 0.194634 0)
(-0.00524921 0.283968 0)
(-0.00490592 0.285341 0)
(0.00827453 0.288285 0)
(0.0142702 0.290174 0)
(0.0190773 0.289857 0)
(0.022814 0.28783 0)
(0.0254347 0.284997 0)
(0.0267944 0.281961 0)
(0.0268283 0.279205 0)
(0.0254883 0.276885 0)
(0.0226472 0.274982 0)
(0.017682 0.272926 0)
(0.0116778 0.271312 0)
(0.00540238 0.270988 0)
(-0.00129866 0.271783 0)
(-0.00746856 0.271896 0)
(-0.012558 0.271487 0)
(-0.0130147 0.269865 0)
(-0.0137032 0.26905 0)
(-0.0138012 0.268852 0)
(-0.0134076 0.268621 0)
(-0.0128841 0.268548 0)
(-0.0145009 0.270951 0)
(-0.0147339 0.270509 0)
(-0.00754828 0.27238 0)
(0.000328293 0.278199 0)
(0.00822534 0.280477 0)
(0.0200767 0.281169 0)
(0.0258526 0.281081 0)
(0.0299171 0.280513 0)
(0.0329837 0.279688 0)
(0.0351853 0.278636 0)
(0.0364212 0.277403 0)
(0.0365001 0.275937 0)
(0.035204 0.274317 0)
(0.0330472 0.272637 0)
(0.0302581 0.270932 0)
(0.0256196 0.269275 0)
(0.0196656 0.267435 0)
(0.0139687 0.265642 0)
(0.00861122 0.26365 0)
(0.00304899 0.261673 0)
(-0.00312579 0.258336 0)
(-0.00688468 0.257016 0)
(-0.00881156 0.256778 0)
(-0.0096112 0.257325 0)
(-0.00953276 0.258692 0)
(-0.00771159 0.262703 0)
(-0.00738177 0.263806 0)
(-0.00364229 0.265018 0)
(0.0118027 0.28354 0)
(0.0242384 0.285853 0)
(0.0272158 0.284347 0)
(0.0301507 0.282267 0)
(0.0334464 0.280474 0)
(0.0358814 0.278909 0)
(0.0369111 0.27744 0)
(0.0364422 0.276064 0)
(0.0347101 0.2747 0)
(0.0321633 0.273379 0)
(0.0286589 0.272142 0)
(0.024588 0.270893 0)
(0.0201172 0.269342 0)
(0.0153637 0.267887 0)
(0.010868 0.266304 0)
(0.00673686 0.264529 0)
(0.00277997 0.262442 0)
(-0.00115435 0.261606 0)
(-0.00315075 0.261034 0)
(-0.00396384 0.260849 0)
(-0.003732 0.260979 0)
(-0.00321972 0.261543 0)
(-0.0026224 0.261439 0)
(-0.00374819 0.262955 0)
(-0.00109979 0.264757 0)
(0.0164726 0.277754 0)
(0.0273225 0.279065 0)
(0.022981 0.277388 0)
(0.0257051 0.275316 0)
(0.0308221 0.273615 0)
(0.033929 0.27202 0)
(0.0348523 0.270389 0)
(0.0340521 0.268841 0)
(0.0319215 0.267559 0)
(0.0287652 0.26644 0)
(0.0248053 0.265405 0)
(0.0201014 0.264345 0)
(0.0147481 0.263463 0)
(0.00902906 0.26271 0)
(0.00325208 0.261924 0)
(-0.00186818 0.260969 0)
(-0.00541612 0.260492 0)
(-0.00698416 0.260896 0)
(-0.00688921 0.260489 0)
(-0.00572075 0.260159 0)
(-0.00398334 0.26061 0)
(-0.00243857 0.261083 0)
(-0.00114014 0.261279 0)
(0.000911363 0.26324 0)
(0.00173394 0.265171 0)
(0.0201633 0.268419 0)
(0.0274792 0.269962 0)
(0.0167306 0.268385 0)
(0.0218066 0.266937 0)
(0.0281368 0.265703 0)
(0.0305542 0.264297 0)
(0.0307025 0.262981 0)
(0.0295062 0.261844 0)
(0.0270991 0.260924 0)
(0.0234974 0.260201 0)
(0.0187249 0.259574 0)
(0.0130339 0.259026 0)
(0.00677758 0.258566 0)
(0.000265985 0.258215 0)
(-0.00570173 0.257958 0)
(-0.00993931 0.258144 0)
(-0.0117058 0.258611 0)
(-0.0115287 0.259117 0)
(-0.00992754 0.260087 0)
(-0.00729415 0.26127 0)
(-0.00454197 0.262125 0)
(-0.00244859 0.262745 0)
(-0.000918377 0.263137 0)
(0.00370106 0.264236 0)
(0.00417718 0.265308 0)
(0.0254295 0.25897 0)
(0.0286501 0.259922 0)
(0.0124645 0.259224 0)
(0.0188929 0.258786 0)
(0.0238739 0.257489 0)
(0.0248167 0.256016 0)
(0.0243406 0.254963 0)
(0.0224482 0.25425 0)
(0.0190921 0.253739 0)
(0.0142804 0.253439 0)
(0.00837064 0.253477 0)
(0.00194369 0.253445 0)
(-0.0043803 0.253498 0)
(-0.00985009 0.253742 0)
(-0.0137585 0.254718 0)
(-0.0157541 0.256336 0)
(-0.0157958 0.257928 0)
(-0.0142147 0.259526 0)
(-0.011352 0.261166 0)
(-0.00789637 0.262536 0)
(-0.00485385 0.263432 0)
(-0.00267039 0.263926 0)
(-0.000780443 0.264186 0)
(0.00510133 0.263422 0)
(0.00530265 0.263328 0)
(0.0280755 0.252907 0)
(0.0278874 0.252993 0)
(0.00796722 0.253092 0)
(0.0140385 0.252475 0)
(0.0159976 0.251076 0)
(0.0158473 0.250015 0)
(0.0147262 0.249452 0)
(0.0117626 0.249247 0)
(0.00739147 0.249421 0)
(0.00224722 0.249616 0)
(-0.00336123 0.248554 0)
(-0.0088038 0.249385 0)
(-0.0132991 0.250914 0)
(-0.0164691 0.253842 0)
(-0.0182477 0.255855 0)
(-0.0184213 0.257664 0)
(-0.0171095 0.259665 0)
(-0.0143345 0.261646 0)
(-0.0107933 0.263327 0)
(-0.00733249 0.264437 0)
(-0.00455055 0.265014 0)
(-0.00247427 0.265242 0)
(-0.000314265 0.265298 0)
(0.00548335 0.265082 0)
(0.00509955 0.264363 0)
(0.0260713 0.249612 0)
(0.0232169 0.249039 0)
(0.00295936 0.249457 0)
(0.00687237 0.248711 0)
(0.00679176 0.24769 0)
(0.0065193 0.247311 0)
(0.00506392 0.247314 0)
(0.00210686 0.247633 0)
(-0.00171533 0.247388 0)
(-0.00624824 0.246578 0)
(-0.0102999 0.250915 0)
(-0.0136707 0.253955 0)
(-0.0162245 0.255166 0)
(-0.0187884 0.256779 0)
(-0.0193168 0.258867 0)
(-0.0181869 0.26083 0)
(-0.0156778 0.262824 0)
(-0.0123686 0.264476 0)
(-0.00897749 0.265591 0)
(-0.00603315 0.266159 0)
(-0.00370373 0.266334 0)
(-0.00183733 0.266278 0)
(0.000236689 0.266118 0)
(0.00491203 0.265761 0)
(0.00417014 0.264522 0)
(0.0236381 0.248447 0)
(0.0186688 0.248352 0)
(-0.00222528 0.24872 0)
(-0.000138851 0.248232 0)
(-0.000671076 0.248021 0)
(-0.000431329 0.248356 0)
(-0.00131725 0.249101 0)
(-0.00310387 0.250573 0)
(-0.00596372 0.254235 0)
(-0.00906205 0.259791 0)
(-0.0121228 0.259973 0)
(-0.0162302 0.258659 0)
(-0.0189188 0.261238 0)
(-0.0184651 0.261043 0)
(-0.0175165 0.262548 0)
(-0.0153068 0.26438 0)
(-0.0123565 0.265825 0)
(-0.00925213 0.266791 0)
(-0.00639411 0.267277 0)
(-0.00401774 0.267393 0)
(-0.0021299 0.267267 0)
(-0.000591812 0.266984 0)
(0.00099128 0.266559 0)
(0.00404871 0.265869 0)
(0.00288655 0.264772 0)
(0.0204843 0.250081 0)
(0.0147438 0.2501 0)
(-0.00538102 0.250663 0)
(-0.00397582 0.250784 0)
(-0.00415156 0.25146 0)
(-0.00339986 0.252409 0)
(-0.00372075 0.253665 0)
(-0.00507758 0.255061 0)
(-0.00865976 0.255907 0)
(-0.011807 0.256443 0)
(-0.0146621 0.258224 0)
(-0.0156267 0.260383 0)
(-0.0158404 0.261407 0)
(-0.0150812 0.264175 0)
(-0.0134597 0.265805 0)
(-0.0110756 0.267021 0)
(-0.00840575 0.267826 0)
(-0.00580088 0.268254 0)
(-0.00346051 0.268375 0)
(-0.00150982 0.268285 0)
(1.2266e-05 0.268051 0)
(0.00114996 0.2677 0)
(0.00209235 0.267203 0)
(0.00363544 0.266518 0)
(0.00207708 0.265612 0)
(0.0174351 0.253144 0)
(0.0123183 0.253199 0)
(-0.00561918 0.254054 0)
(-0.00455394 0.254579 0)
(-0.0044404 0.25548 0)
(-0.00357273 0.25647 0)
(-0.00379081 0.257583 0)
(-0.00526809 0.258722 0)
(-0.00773661 0.25969 0)
(-0.0100813 0.260206 0)
(-0.0118353 0.261546 0)
(-0.0125907 0.263705 0)
(-0.0124213 0.265384 0)
(-0.0113399 0.266681 0)
(-0.00958704 0.267711 0)
(-0.00745568 0.268447 0)
(-0.00519575 0.268899 0)
(-0.00295782 0.269112 0)
(-0.000849981 0.269125 0)
(0.00101767 0.268984 0)
(0.00253073 0.268723 0)
(0.00361639 0.268355 0)
(0.0044857 0.267831 0)
(0.00588308 0.267285 0)
(0.00336654 0.267385 0)
(0.0151273 0.256193 0)
(0.0113493 0.256246 0)
(-0.00439139 0.257201 0)
(-0.00407012 0.257699 0)
(-0.00396812 0.258544 0)
(-0.00328579 0.25937 0)
(-0.00356628 0.260243 0)
(-0.0048881 0.261056 0)
(-0.00661454 0.262049 0)
(-0.00809645 0.263202 0)
(-0.00920081 0.264415 0)
(-0.00958944 0.26565 0)
(-0.00923317 0.266762 0)
(-0.00828119 0.267671 0)
(-0.00689302 0.26836 0)
(-0.00523525 0.268839 0)
(-0.00345188 0.269131 0)
(-0.00163741 0.26926 0)
(0.000165954 0.269227 0)
(0.00189954 0.269033 0)
(0.00342944 0.268687 0)
(0.00473404 0.268172 0)
(0.00644988 0.267585 0)
(0.00844079 0.267198 0)
(0.00498775 0.266128 0)
(0.0128094 0.258683 0)
(0.0102688 0.258251 0)
(-0.00308176 0.258948 0)
(-0.0032662 0.259669 0)
(-0.0032877 0.260468 0)
(-0.00283315 0.261189 0)
(-0.00321576 0.261937 0)
(-0.00421099 0.26263 0)
(-0.00521648 0.263591 0)
(-0.00615471 0.264558 0)
(-0.006903 0.265486 0)
(-0.00720437 0.266347 0)
(-0.00712482 0.26707 0)
(-0.00674113 0.26762 0)
(-0.00606156 0.267997 0)
(-0.00513426 0.2682 0)
(-0.00400862 0.268261 0)
(-0.00275544 0.268238 0)
(-0.00140716 0.268231 0)
(3.92764e-06 0.268099 0)
(0.00140873 0.267808 0)
(0.00320084 0.267586 0)
(0.00541368 0.267558 0)
(0.00830601 0.266785 0)
(0.00572339 0.266965 0)
(0.00929672 0.26081 0)
(0.0078434 0.259775 0)
(-0.00175696 0.259929 0)
(-0.00186201 0.260563 0)
(-0.00219569 0.261288 0)
(-0.00196439 0.262041 0)
(-0.00237192 0.262691 0)
(-0.00300377 0.263426 0)
(-0.00352125 0.264226 0)
(-0.00430689 0.264944 0)
(-0.00520542 0.265593 0)
(-0.00605383 0.266079 0)
(-0.00668922 0.266343 0)
(-0.00702827 0.266535 0)
(-0.00709993 0.266672 0)
(-0.00688973 0.266776 0)
(-0.00637595 0.26685 0)
(-0.00559109 0.266824 0)
(-0.00460714 0.266647 0)
(-0.00342338 0.266606 0)
(-0.0019414 0.267161 0)
(-0.000296117 0.267285 0)
(0.000693994 0.266917 0)
(0.00648263 0.265568 0)
(0.00589126 0.266391 0)
(0.00542217 0.260262 0)
(0.00490218 0.25877 0)
(-0.000506654 0.260937 0)
(-0.000389715 0.261404 0)
(-0.000684286 0.261897 0)
(-0.000526051 0.262305 0)
(-0.00069705 0.262815 0)
(-0.00116813 0.263491 0)
(-0.00186595 0.263968 0)
(-0.00298965 0.264266 0)
(-0.00438839 0.264426 0)
(-0.00589371 0.264548 0)
(-0.00718159 0.264746 0)
(-0.00807661 0.264945 0)
(-0.00860916 0.265148 0)
(-0.00878433 0.265366 0)
(-0.00862562 0.265603 0)
(-0.00810188 0.265923 0)
(-0.00741947 0.266319 0)
(-0.0069658 0.266586 0)
(-0.00696982 0.266255 0)
(-0.00735713 0.266142 0)
(-0.00787889 0.265789 0)
(0.000434301 0.26584 0)
(0.00285629 0.264433 0)
(0.0011991 0.263075 0)
(0.00219198 0.261205 0)
(0.000417179 0.261326 0)
(0.000821884 0.261465 0)
(0.000866878 0.26165 0)
(0.00121971 0.261648 0)
(0.00131923 0.261839 0)
(0.000838244 0.262534 0)
(-0.000408612 0.26276 0)
(-0.00209134 0.262813 0)
(-0.00394716 0.262833 0)
(-0.00572692 0.262899 0)
(-0.00726036 0.263054 0)
(-0.00845414 0.263274 0)
(-0.00922901 0.263542 0)
(-0.00958521 0.263848 0)
(-0.00960069 0.264189 0)
(-0.00968135 0.264648 0)
(-0.0101873 0.26505 0)
(-0.011035 0.265245 0)
(-0.0117957 0.264957 0)
(-0.013233 0.265186 0)
(-0.0153312 0.266238 0)
(-0.0111762 0.266739 0)
(-0.0038405 0.264809 0)
(-0.00248622 0.264945 0)
(-0.000855356 0.262927 0)
(0.00193417 0.261338 0)
(0.00207883 0.261484 0)
(0.00231027 0.261483 0)
(0.00298323 0.262038 0)
(0.00337809 0.261902 0)
(0.00296271 0.26129 0)
(0.00134245 0.261407 0)
(-0.000811619 0.261342 0)
(-0.00304114 0.261256 0)
(-0.00507553 0.261233 0)
(-0.00679467 0.261308 0)
(-0.00813745 0.261489 0)
(-0.00903725 0.261751 0)
(-0.00951576 0.262044 0)
(-0.00968721 0.262319 0)
(-0.0101506 0.262457 0)
(-0.0112518 0.262481 0)
(-0.0124067 0.262666 0)
(-0.0132546 0.263777 0)
(-0.0133643 0.264845 0)
(-0.0149236 0.266069 0)
(-0.0185537 0.268667 0)
(-0.0106792 0.267672 0)
(-0.006317 0.264046 0)
(-0.00370265 0.261865 0)
(0.00370485 0.261554 0)
(0.00375513 0.261563 0)
(0.00398466 0.26154 0)
(0.00471482 0.26106 0)
(0.00527678 0.260993 0)
(0.00521148 0.260832 0)
(0.0037239 0.260349 0)
(0.00123904 0.260101 0)
(-0.00152229 0.259895 0)
(-0.00393311 0.259752 0)
(-0.00585619 0.259702 0)
(-0.00732108 0.25978 0)
(-0.00836154 0.259973 0)
(-0.00906093 0.260225 0)
(-0.00956071 0.260476 0)
(-0.00989648 0.260575 0)
(-0.010261 0.260986 0)
(-0.0105809 0.261755 0)
(-0.0104939 0.262475 0)
(-0.00909997 0.263278 0)
(-0.00812245 0.264749 0)
(-0.016087 0.267527 0)
(-0.0121009 0.26743 0)
(-0.00899943 0.262862 0)
(-0.00615131 0.261857 0)
(0.00474919 0.262042 0)
(0.00552134 0.262025 0)
(0.00568426 0.261902 0)
(0.00626493 0.261484 0)
(0.00695235 0.261049 0)
(0.00693299 0.259627 0)
(0.0061561 0.258426 0)
(0.00384221 0.258906 0)
(0.000790952 0.258856 0)
(-0.00220015 0.258711 0)
(-0.00456319 0.258576 0)
(-0.00622892 0.258513 0)
(-0.00736883 0.25858 0)
(-0.00814966 0.258759 0)
(-0.00874458 0.259049 0)
(-0.00878264 0.259465 0)
(-0.00817102 0.259904 0)
(-0.00764142 0.260516 0)
(-0.00719405 0.261215 0)
(-0.00543979 0.261993 0)
(-0.00189075 0.262315 0)
(-0.0103829 0.263393 0)
(-0.0111679 0.264569 0)
(-0.0102013 0.264129 0)
(-0.00833975 0.264043 0)
(0.00455989 0.262921 0)
(0.0070677 0.262525 0)
(0.00731503 0.262385 0)
(0.00763559 0.261998 0)
(0.00796427 0.261083 0)
(0.00845203 0.261723 0)
(0.0077033 0.260432 0)
(0.0065414 0.257783 0)
(0.00409819 0.258238 0)
(0.000615963 0.258168 0)
(-0.00268906 0.257926 0)
(-0.00493003 0.257787 0)
(-0.00627696 0.257738 0)
(-0.00702573 0.257824 0)
(-0.00734144 0.25803 0)
(-0.00721404 0.258486 0)
(-0.00639643 0.258868 0)
(-0.00526921 0.259219 0)
(-0.0042627 0.259695 0)
(-0.00290599 0.260251 0)
(0.000312608 0.260219 0)
(-0.00731357 0.259885 0)
(-0.00972085 0.26093 0)
(-0.0104215 0.264669 0)
(-0.0101514 0.265327 0)
(0.00307316 0.264372 0)
(0.00779454 0.26338 0)
(0.00888942 0.262994 0)
(0.00899054 0.262634 0)
(0.00905908 0.262069 0)
(0.00898177 0.260393 0)
(0.00895471 0.261388 0)
(0.00850833 0.259122 0)
(0.0068618 0.255895 0)
(0.00410584 0.256666 0)
(0.000604547 0.257192 0)
(-0.00267387 0.257223 0)
(-0.00483774 0.257247 0)
(-0.00592533 0.257313 0)
(-0.00612719 0.257463 0)
(-0.00578773 0.257721 0)
(-0.00496198 0.258106 0)
(-0.00358637 0.258349 0)
(-0.00217026 0.258596 0)
(-0.00132268 0.258812 0)
(0.000931513 0.258695 0)
(-0.00575039 0.258065 0)
(-0.00820807 0.258663 0)
(-0.00992835 0.265166 0)
(-0.0111536 0.266448 0)
(0.000886045 0.266299 0)
(0.00701367 0.265064 0)
(0.00970724 0.264044 0)
(0.0103517 0.263432 0)
(0.0102905 0.262829 0)
(0.00992632 0.262047 0)
(0.00947287 0.259959 0)
(0.00853281 0.261378 0)
(0.00771422 0.259932 0)
(0.00619171 0.256554 0)
(0.00402242 0.256134 0)
(0.00104256 0.25656 0)
(-0.00198676 0.256778 0)
(-0.00407506 0.257006 0)
(-0.00487453 0.25722 0)
(-0.00455683 0.257398 0)
(-0.00371866 0.257713 0)
(-0.00244019 0.257929 0)
(-0.000915234 0.258022 0)
(-0.000269348 0.258039 0)
(0.00109544 0.258003 0)
(-0.00460542 0.257282 0)
(-0.00663367 0.257315 0)
(-0.00846501 0.26566 0)
(-0.010688 0.267398 0)
(-0.0011369 0.268244 0)
(0.00439951 0.267294 0)
(0.00854274 0.26584 0)
(0.0105813 0.264677 0)
(0.0109946 0.263823 0)
(0.0106461 0.262986 0)
(0.00958218 0.261917 0)
(0.0086807 0.262125 0)
(0.00707358 0.262042 0)
(0.00682916 0.260392 0)
(0.00573581 0.256737 0)
(0.00407905 0.256097 0)
(0.00165303 0.256452 0)
(-0.00098788 0.256766 0)
(-0.00283317 0.257139 0)
(-0.00324809 0.257419 0)
(-0.00262943 0.257595 0)
(-0.00156874 0.257855 0)
(-0.000240089 0.25791 0)
(0.000379758 0.257842 0)
(0.000913008 0.257828 0)
(-0.00499742 0.257201 0)
(-0.00644587 0.256664 0)
(-0.00653583 0.265873 0)
(-0.00891276 0.267708 0)
(-0.00232576 0.268568 0)
(0.00119542 0.268653 0)
(0.00558183 0.267683 0)
(0.00902865 0.266319 0)
(0.0106051 0.265114 0)
(0.0107441 0.264105 0)
(0.00988414 0.263205 0)
(0.00866779 0.261274 0)
(0.00764803 0.260968 0)
(0.00629242 0.260999 0)
(0.00588322 0.260842 0)
(0.00531779 0.258087 0)
(0.00410094 0.257021 0)
(0.00220233 0.256967 0)
(3.33112e-06 0.25726 0)
(-0.00142112 0.257658 0)
(-0.00150585 0.257897 0)
(-0.00078715 0.258073 0)
(0.000170565 0.258186 0)
(0.000651315 0.258129 0)
(0.00067813 0.258066 0)
(-0.00562562 0.257817 0)
(-0.00655046 0.257207 0)
(-0.00446479 0.26523 0)
(-0.00668827 0.267224 0)
(-0.00268431 0.267779 0)
(-0.000524707 0.268548 0)
(0.0025936 0.268474 0)
(0.00622033 0.267528 0)
(0.00879365 0.266273 0)
(0.00977768 0.265098 0)
(0.00953357 0.264072 0)
(0.00824036 0.262821 0)
(0.00676988 0.261258 0)
(0.00567445 0.260271 0)
(0.00517334 0.259885 0)
(0.00483325 0.259793 0)
(0.00459619 0.258628 0)
(0.00389524 0.257918 0)
(0.00242268 0.257805 0)
(0.000705307 0.258092 0)
(-0.000220556 0.258416 0)
(-9.09181e-05 0.258579 0)
(0.000506723 0.258673 0)
(0.000741063 0.258693 0)
(0.000587783 0.258655 0)
(-0.00560567 0.258563 0)
(-0.00628078 0.258327 0)
(-0.00210569 0.264424 0)
(-0.00396234 0.266317 0)
(-0.00207514 0.266696 0)
(-0.000614617 0.267403 0)
(0.000938319 0.267741 0)
(0.00352924 0.26751 0)
(0.0061422 0.26666 0)
(0.0077319 0.265573 0)
(0.00812146 0.264517 0)
(0.00727209 0.26354 0)
(0.00583574 0.2627 0)
(0.00477654 0.261993 0)
(0.00409238 0.261307 0)
(0.00383779 0.260619 0)
(0.00390136 0.259681 0)
(0.00402981 0.259138 0)
(0.00359123 0.258729 0)
(0.00237965 0.258732 0)
(0.00109356 0.258993 0)
(0.00053546 0.259196 0)
(0.000788251 0.25924 0)
(0.000888517 0.25935 0)
(0.000548891 0.259459 0)
(-0.00503101 0.259328 0)
(-0.00551473 0.259415 0)
(0.000239911 0.264396 0)
(-0.001077 0.265704 0)
(-0.00160218 0.266402 0)
(-0.00048762 0.266336 0)
(0.000359485 0.266358 0)
(0.00180345 0.266417 0)
(0.00364427 0.266078 0)
(0.00515262 0.265354 0)
(0.00584281 0.264484 0)
(0.00545582 0.263606 0)
(0.00439645 0.262955 0)
(0.00347867 0.262285 0)
(0.0029578 0.262124 0)
(0.00282088 0.261926 0)
(0.00297856 0.261037 0)
(0.00341522 0.260173 0)
(0.00367249 0.259768 0)
(0.00319672 0.259563 0)
(0.00210518 0.259657 0)
(0.00113003 0.259863 0)
(0.00116466 0.259992 0)
(0.00149974 0.260187 0)
(0.000539962 0.260788 0)
(-0.00450942 0.26024 0)
(-0.00448431 0.260478 0)
(0.00267432 0.263445 0)
(0.00322742 0.264431 0)
(-0.0011161 0.265196 0)
(-0.00260966 0.264127 0)
(-0.000978535 0.264953 0)
(0.000320345 0.264928 0)
(0.00161627 0.264868 0)
(0.00271487 0.264556 0)
(0.00332185 0.264022 0)
(0.00319976 0.263374 0)
(0.00254831 0.262774 0)
(0.0019559 0.262395 0)
(0.00171636 0.261522 0)
(0.00171533 0.26126 0)
(0.00199722 0.261498 0)
(0.00257767 0.26113 0)
(0.003192 0.260655 0)
(0.00337514 0.260362 0)
(0.00284987 0.260283 0)
(0.00205403 0.260397 0)
(0.00225479 0.260525 0)
(0.00378519 0.2606 0)
(0.00071475 0.261689 0)
(-0.00508585 0.260669 0)
(-0.0035699 0.261044 0)
(0.00508297 0.262029 0)
(0.00741448 0.261188 0)
(0.00140296 0.261231 0)
(-0.0032364 0.263479 0)
(-0.00264702 0.262449 0)
(-0.00097184 0.26311 0)
(0.000116443 0.263352 0)
(0.000737821 0.263296 0)
(0.000975526 0.263063 0)
(0.000859874 0.262677 0)
(0.000644216 0.262356 0)
(0.000503904 0.262148 0)
(0.000494279 0.261964 0)
(0.000628096 0.261801 0)
(0.0010255 0.261677 0)
(0.00167665 0.261497 0)
(0.00239115 0.261269 0)
(0.00294502 0.260942 0)
(0.00299233 0.260709 0)
(0.00258822 0.260638 0)
(0.00273738 0.260646 0)
(0.00397732 0.260387 0)
(0.000904315 0.258921 0)
(-0.00379925 0.260269 0)
(-0.00244253 0.260832 0)
(0.00661224 0.259602 0)
(0.00867783 0.260581 0)
(0.00365908 0.260314 0)
(-2.44636e-05 0.261101 0)
(-0.00172507 0.26165 0)
(-0.000944798 0.261635 0)
(-0.000527773 0.261795 0)
(-0.000522463 0.261939 0)
(-0.000795273 0.261979 0)
(-0.0010027 0.261872 0)
(-0.000885026 0.261825 0)
(-0.000710643 0.261794 0)
(-0.000535188 0.261676 0)
(-0.000253056 0.261599 0)
(0.000214767 0.261709 0)
(0.000837451 0.261785 0)
(0.0014766 0.261675 0)
(0.00203785 0.261473 0)
(0.00232173 0.261197 0)
(0.00224165 0.260981 0)
(0.00209192 0.260971 0)
(0.00168586 0.260743 0)
(0.000584342 0.259981 0)
(-0.00105158 0.260498 0)
(-0.00094129 0.261173 0)
(0.00838956 0.26023 0)
(0.00972255 0.261122 0)
(0.00432817 0.260219 0)
(0.00288962 0.259074 0)
(0.000626036 0.260577 0)
(-3.16559e-05 0.260672 0)
(-0.000470806 0.260872 0)
(-0.00114294 0.261069 0)
(-0.0019593 0.261181 0)
(-0.00226747 0.26126 0)
(-0.00189339 0.261419 0)
(-0.00153089 0.261579 0)
(-0.0012357 0.261854 0)
(-0.000853574 0.261966 0)
(-0.0003565 0.261929 0)
(0.000212903 0.261984 0)
(0.000779391 0.261955 0)
(0.00125743 0.261848 0)
(0.00160596 0.26168 0)
(0.00190387 0.261525 0)
(0.00190993 0.261493 0)
(0.000954415 0.261491 0)
(-0.000159332 0.261445 0)
(0.000116256 0.260062 0)
(0.000549438 0.26094 0)
(0.0110255 0.261856 0)
(0.0110378 0.260616 0)
(0.003001 0.259753 0)
(0.00366806 0.259864 0)
(0.00247527 0.259522 0)
(0.000932928 0.260128 0)
(-0.000368158 0.260422 0)
(-0.00177889 0.260542 0)
(-0.00292847 0.260636 0)
(-0.00312327 0.260877 0)
(-0.0025542 0.261161 0)
(-0.00208994 0.26142 0)
(-0.00169803 0.261733 0)
(-0.00121386 0.261933 0)
(-0.000726655 0.261998 0)
(-0.000222053 0.262089 0)
(0.000252076 0.262105 0)
(0.000666176 0.262047 0)
(0.00108026 0.261939 0)
(0.00164808 0.261837 0)
(0.00189795 0.261792 0)
(0.000560075 0.261826 0)
(-0.000963399 0.261453 0)
(0.0011827 0.261306 0)
(0.00220311 0.262427 0)
(0.0108762 0.261465 0)
(0.0106804 0.260653 0)
(0.002087 0.260446 0)
(0.00320066 0.259693 0)
(0.00323823 0.259879 0)
(0.00144407 0.260066 0)
(-0.000721106 0.260124 0)
(-0.00266646 0.260145 0)
(-0.00372588 0.260293 0)
(-0.00361837 0.260674 0)
(-0.00291638 0.261082 0)
(-0.00236907 0.261283 0)
(-0.00192015 0.261525 0)
(-0.0014547 0.261778 0)
(-0.000991364 0.262036 0)
(-0.00054053 0.262147 0)
(-0.000153895 0.262189 0)
(0.00021842 0.262167 0)
(0.000729294 0.262107 0)
(0.00151191 0.262055 0)
(0.00192012 0.261975 0)
(0.000193642 0.261939 0)
(-0.00178591 0.261986 0)
(0.00147898 0.263421 0)
(0.00284044 0.263205 0)
(0.00832466 0.261233 0)
(0.00792323 0.260264 0)
(0.00112631 0.2603 0)
(0.0026726 0.260197 0)
(0.00336264 0.259988 0)
(0.00118537 0.259989 0)
(-0.0016979 0.259851 0)
(-0.00365494 0.259875 0)
(-0.00425713 0.260178 0)
(-0.00381042 0.260736 0)
(-0.00303197 0.260703 0)
(-0.00247237 0.261431 0)
(-0.00204898 0.261713 0)
(-0.00159401 0.261871 0)
(-0.00115734 0.262058 0)
(-0.00075793 0.262181 0)
(-0.000432097 0.262242 0)
(-5.60998e-05 0.262255 0)
(0.00057076 0.262249 0)
(0.00142768 0.262231 0)
(0.00178929 0.262091 0)
(-3.94456e-05 0.261924 0)
(-0.00204738 0.261869 0)
(0.00128111 0.261816 0)
(0.00263124 0.261422 0)
(0.00671474 0.260446 0)
(0.00582665 0.260181 0)
(0.000777108 0.260009 0)
(0.00265233 0.260313 0)
(0.00273289 0.26002 0)
(1.18603e-06 0.259792 0)
(-0.00305437 0.259572 0)
(-0.00439964 0.259742 0)
(-0.00443301 0.260151 0)
(-0.00373433 0.259542 0)
(-0.00314875 0.259936 0)
(-0.00262495 0.261868 0)
(-0.00210605 0.261928 0)
(-0.00162951 0.26187 0)
(-0.00121519 0.262062 0)
(-0.000850154 0.262188 0)
(-0.000535022 0.262261 0)
(-9.40728e-05 0.262304 0)
(0.000633224 0.262334 0)
(0.00138287 0.262306 0)
(0.00151775 0.262084 0)
(0.000192353 0.261764 0)
(-0.000988202 0.262283 0)
(0.000594956 0.26191 0)
(0.00113847 0.261258 0)
(0.00664396 0.259571 0)
(0.00544954 0.259902 0)
(0.000881719 0.259977 0)
(0.00278696 0.259979 0)
(0.00155865 0.259909 0)
(-0.0017584 0.259452 0)
(-0.00423224 0.259379 0)
(-0.00471108 0.259724 0)
(-0.00425012 0.260225 0)
(-0.00359785 0.260559 0)
(-0.00310322 0.262435 0)
(-0.0025852 0.261007 0)
(-0.00202693 0.261399 0)
(-0.00158191 0.261867 0)
(-0.00116022 0.262041 0)
(-0.00081424 0.262164 0)
(-0.000472389 0.262245 0)
(4.94507e-05 0.262308 0)
(0.000789658 0.262348 0)
(0.00125933 0.262294 0)
(0.00108649 0.262077 0)
(0.000629053 0.261807 0)
(0.000868668 0.262056 0)
(-3.1082e-06 0.264174 0)
(-0.000855244 0.261183 0)
(0.00700288 0.259251 0)
(0.00597797 0.259718 0)
(0.000928071 0.260066 0)
(0.00225388 0.259841 0)
(-8.84936e-05 0.259624 0)
(-0.00355037 0.259184 0)
(-0.00490114 0.259389 0)
(-0.00472115 0.259836 0)
(-0.00409414 0.260245 0)
(-0.00346973 0.262463 0)
(-0.00315978 0.262257 0)
(-0.00223861 0.261033 0)
(-0.00190395 0.261608 0)
(-0.00142492 0.261838 0)
(-0.000992968 0.261999 0)
(-0.000632111 0.26211 0)
(-0.000223053 0.262191 0)
(0.000387428 0.262253 0)
(0.0011095 0.262269 0)
(0.0014335 0.262178 0)
(0.00126603 0.262067 0)
(0.00152449 0.261969 0)
(0.00383471 0.261162 0)
(-0.000120772 0.263743 0)
(-0.00339929 0.261378 0)
(0.00737591 0.259222 0)
(0.00656609 0.259718 0)
(0.000876438 0.259801 0)
(0.00106432 0.259699 0)
(-0.00202005 0.259251 0)
(-0.00476645 0.259141 0)
(-0.00506661 0.259563 0)
(-0.00463801 0.260031 0)
(-0.00401319 0.260638 0)
(-0.00355576 0.261774 0)
(-0.00259057 0.260208 0)
(-0.00207361 0.261993 0)
(-0.0016355 0.261599 0)
(-0.0011749 0.261792 0)
(-0.000745283 0.261922 0)
(-0.000360844 0.262007 0)
(0.000113099 0.262062 0)
(0.00076818 0.262085 0)
(0.00143949 0.262034 0)
(0.00175201 0.26189 0)
(0.0017112 0.261735 0)
(0.00202406 0.261613 0)
(0.00431087 0.261827 0)
(-0.000131621 0.259162 0)
(-0.00378958 0.262477 0)
(0.00785319 0.259429 0)
(0.00659705 0.260124 0)
(2.29276e-05 0.25979 0)
(-0.00058362 0.259565 0)
(-0.00364674 0.259072 0)
(-0.00512271 0.259315 0)
(-0.00482482 0.259785 0)
(-0.00434342 0.260203 0)
(-0.00376563 0.260523 0)
(-0.00315286 0.259923 0)
(-0.00242517 0.260998 0)
(-0.00190712 0.26119 0)
(-0.00142567 0.26159 0)
(-0.000951774 0.261732 0)
(-0.000532324 0.261828 0)
(-0.000140389 0.261886 0)
(0.000342903 0.261914 0)
(0.000935918 0.261898 0)
(0.00144276 0.261806 0)
(0.00158365 0.261632 0)
(0.00140283 0.261539 0)
(0.00124614 0.261321 0)
(0.00254597 0.262171 0)
(-0.000154918 0.258938 0)
(-0.00221452 0.260371 0)
(0.0084416 0.259343 0)
(0.00605332 0.259862 0)
(-0.00191619 0.259606 0)
(-0.00267451 0.259336 0)
(-0.00490512 0.25909 0)
(-0.00506302 0.259512 0)
(-0.00452213 0.259928 0)
(-0.00400745 0.260293 0)
(-0.00340457 0.260621 0)
(-0.00281566 0.260603 0)
(-0.00224737 0.261111 0)
(-0.00175231 0.261316 0)
(-0.00124856 0.26151 0)
(-0.000742703 0.261631 0)
(-0.000321723 0.261708 0)
(7.88792e-05 0.26175 0)
(0.000548302 0.261761 0)
(0.0010627 0.261722 0)
(0.00139907 0.261613 0)
(0.0013516 0.261469 0)
(0.000985444 0.260348 0)
(0.000549509 0.26025 0)
(0.000740469 0.259947 0)
(-0.000139451 0.262187 0)
(-0.00073737 0.259921 0)
(0.00733003 0.258964 0)
(0.00552378 0.257985 0)
(-0.0020923 0.259337 0)
(-0.00394816 0.259077 0)
(-0.00530141 0.259216 0)
(-0.00471923 0.259658 0)
(-0.00418567 0.260005 0)
(-0.00367915 0.260332 0)
(-0.00310043 0.260594 0)
(-0.00252472 0.260851 0)
(-0.00198126 0.261112 0)
(-0.0014984 0.261261 0)
(-0.000993115 0.261404 0)
(-0.000497657 0.261505 0)
(-9.36692e-05 0.261562 0)
(0.000293248 0.261587 0)
(0.000720186 0.26158 0)
(0.00113536 0.261523 0)
(0.00140065 0.261508 0)
(0.00139567 0.261376 0)
(0.000965956 0.261076 0)
(0.000161757 0.261033 0)
(-5.25371e-05 0.260283 0)
(-0.000464479 0.260246 0)
(-0.000696503 0.262329 0)
(0.0053862 0.258922 0)
(0.00550308 0.258403 0)
(-0.00100704 0.259175 0)
(-0.00452139 0.258953 0)
(-0.0050268 0.259394 0)
(-0.00433831 0.259768 0)
(-0.00384163 0.260074 0)
(-0.00332948 0.260368 0)
(-0.00277959 0.260636 0)
(-0.00222843 0.260942 0)
(-0.00169431 0.26112 0)
(-0.00122484 0.261179 0)
(-0.000732082 0.261298 0)
(-0.000263713 0.261373 0)
(0.000111862 0.261409 0)
(0.000474441 0.261411 0)
(0.000845972 0.261375 0)
(0.00114087 0.26131 0)
(0.00130418 0.260175 0)
(0.00126738 0.260051 0)
(0.000841209 0.262769 0)
(0.000135492 0.262648 0)
(-6.40705e-06 0.260597 0)
(-0.000899484 0.259987 0)
(-0.00108794 0.260133 0)
(0.00419833 0.259005 0)
(0.00412925 0.258859 0)
(-0.00100222 0.25801 0)
(-0.00367466 0.258908 0)
(-0.00423879 0.259437 0)
(-0.00383097 0.259794 0)
(-0.00341537 0.260095 0)
(-0.00293068 0.260365 0)
(-0.00241349 0.260585 0)
(-0.0019076 0.260727 0)
(-0.0014031 0.260897 0)
(-0.000951355 0.26108 0)
(-0.000477898 0.261177 0)
(-5.2372e-05 0.261229 0)
(0.000282703 0.261248 0)
(0.000603217 0.261233 0)
(0.000959768 0.261255 0)
(0.00128003 0.261215 0)
(0.001383 0.26089 0)
(0.000989432 0.260846 0)
(0.000473484 0.260214 0)
(-6.46779e-05 0.260165 0)
(-0.000104826 0.262562 0)
(-0.00089977 0.26216 0)
(-0.00110578 0.259709 0)
(0.0031539 0.259189 0)
(0.00234327 0.258966 0)
(-0.000972977 0.25885 0)
(-0.00206718 0.259165 0)
(-0.0031192 0.259565 0)
(-0.00305301 0.259868 0)
(-0.00281701 0.260134 0)
(-0.00242092 0.26037 0)
(-0.00196809 0.260574 0)
(-0.00155109 0.260738 0)
(-0.00111964 0.260866 0)
(-0.000671112 0.260985 0)
(-0.000240562 0.261056 0)
(0.000135181 0.261088 0)
(0.00042057 0.261081 0)
(0.000659897 0.261067 0)
(0.000971136 0.260313 0)
(0.00124561 0.25993 0)
(0.00126107 0.262754 0)
(0.00103851 0.262391 0)
(0.000617356 0.259758 0)
(-0.00033334 0.259802 0)
(-0.000465725 0.259949 0)
(-0.00113945 0.260177 0)
(-0.00136209 0.26133 0)
(0.00238323 0.259512 0)
(0.00157203 0.259488 0)
(-0.000877156 0.259459 0)
(-0.00147118 0.259532 0)
(-0.00242107 0.259762 0)
(-0.0024672 0.260017 0)
(-0.00230789 0.260235 0)
(-0.00200063 0.260347 0)
(-0.00164212 0.26067 0)
(-0.00119822 0.260788 0)
(-0.000754714 0.260732 0)
(-0.000403404 0.260889 0)
(-2.59558e-05 0.260951 0)
(0.000304208 0.260967 0)
(0.000601483 0.261043 0)
(0.00093564 0.261037 0)
(0.00121978 0.260404 0)
(0.00112484 0.26066 0)
(0.000975176 0.260091 0)
(0.00110009 0.260176 0)
(0.000766867 0.261572 0)
(-0.000183409 0.26151 0)
(-0.000277431 0.259875 0)
(-0.00155728 0.259682 0)
(-0.00184982 0.260717 0)
(0.00178532 0.259745 0)
(0.00106413 0.259622 0)
(-0.00085069 0.259781 0)
(-0.00123619 0.259821 0)
(-0.00198053 0.260008 0)
(-0.0020032 0.25988 0)
(-0.00179638 0.259998 0)
(-0.00153336 0.260673 0)
(-0.00120109 0.260236 0)
(-0.000818261 0.259453 0)
(-0.000561125 0.261004 0)
(-0.000192166 0.260927 0)
(0.000157893 0.260853 0)
(0.000396301 0.260849 0)
(0.000663454 0.259864 0)
(0.00101008 0.259748 0)
(0.00119687 0.262422 0)
(0.00115349 0.262567 0)
(0.0011329 0.259525 0)
(0.000942614 0.260354 0)
(0.000611364 0.260979 0)
(-0.000151058 0.260707 0)
(-0.000277379 0.261587 0)
(-0.00176553 0.261508 0)
(-0.00203624 0.260474 0)
(0.00127389 0.259958 0)
(0.000699525 0.259945 0)
(-0.00074327 0.260017 0)
(-0.000967805 0.259666 0)
(-0.00138465 0.259719 0)
(-0.00137631 0.259254 0)
(-0.00136682 0.259439 0)
(-0.00117621 0.259932 0)
(-0.000834149 0.25965 0)
(-0.000601427 0.261867 0)
(-0.000508217 0.25995 0)
(-4.18498e-05 0.259951 0)
(0.000302573 0.260934 0)
(0.000620051 0.260934 0)
(0.000911446 0.26047 0)
(0.00088318 0.260532 0)
(0.00084525 0.260341 0)
(0.00111 0.259985 0)
(0.0011189 0.26169 0)
(0.000849573 0.261103 0)
(0.000546712 0.26041 0)