/*--------------------------------*- C++ -*----------------------------------*\
| =========                 |                                                 |
| \\      /  F ield         | OpenFOAM: The Open Source CFD Toolbox           |
|  \\    /   O peration     | Version:  2.3.0                                 |
|   \\  /    A nd           | Web:      www.OpenFOAM.org                      |
|    \\/     M anipulation  |                                                 |
\*---------------------------------------------------------------------------*/
FoamFile
{
    version     2.0;
    format      ascii;
    class       volVectorField;
    location    "0.244";
    object      U;
}
// * * * * * * * * * * * * * * * * * * * * * * * * * * * * * * * * * * * * * //

dimensions      [0 1 -1 0 0 0 0];

internalField   nonuniform List<vector> 
545
(
(0.454609 0.0865017 4.22638e-29)
(0.403982 0.00699973 3.80624e-30)
(0.362285 0.00338506 -1.90912e-31)
(0.332881 0.00330521 0)
(0.301569 0.00856352 -8.50172e-31)
(0.46037 0.0266046 8.52691e-29)
(0.416288 0.021972 1.06398e-29)
(0.362488 0.0213343 1.05967e-30)
(0.329906 0.0187428 0)
(0.298021 0.0211827 -1.23179e-30)
(0.466109 0.0432258 1.32117e-30)
(0.414888 0.0383092 5.73495e-31)
(0.358074 0.0340911 4.35542e-31)
(0.324524 0.028896 0)
(0.291882 0.0316806 -4.01909e-31)
(0.464077 0.0608535 -1.65547e-28)
(0.399174 0.0527104 -3.40379e-30)
(0.349827 0.0465282 -2.86925e-31)
(0.315813 0.0387585 0)
(0.282469 0.0402064 -2.40734e-29)
(0.469084 0.00372713 -3.25208e-28)
(0.371671 0.0753067 1.27116e-30)
(0.339675 0.0632194 2.14869e-30)
(0.301992 0.0562247 7.86697e-30)
(0.263799 0.0765771 -4.0072e-29)
(0.271527 0.00704843 0)
(0.25756 0.001646 0)
(0.257848 1.67054e-05 0)
(0.258487 -0.000468402 0)
(0.259451 -0.000250801 0)
(0.259706 -0.000161715 0)
(0.259993 -2.95369e-05 0)
(0.259928 -4.21632e-05 0)
(0.260058 2.06202e-05 0)
(0.259944 -2.54431e-05 0)
(0.260057 2.54572e-05 0)
(0.259945 -2.51317e-05 0)
(0.260054 2.57565e-05 0)
(0.259946 -2.57136e-05 0)
(0.260052 2.60857e-05 0)
(0.259948 -2.61306e-05 0)
(0.26005 2.63911e-05 0)
(0.259951 -2.64714e-05 0)
(0.260048 2.6744e-05 0)
(0.259953 -2.67657e-05 0)
(0.260045 2.70202e-05 0)
(0.259956 -2.70486e-05 0)
(0.260042 2.7315e-05 0)
(0.259958 -2.73386e-05 0)
(0.26004 2.75512e-05 0)
(0.259961 -2.75696e-05 0)
(0.260037 2.77558e-05 0)
(0.259964 -2.78074e-05 0)
(0.260034 2.79956e-05 0)
(0.259967 -2.80255e-05 0)
(0.260031 2.81335e-05 0)
(0.25997 -2.81844e-05 0)
(0.260028 2.83325e-05 0)
(0.259973 -2.82935e-05 0)
(0.260024 2.84316e-05 0)
(0.259976 -2.84189e-05 0)
(0.260021 2.84843e-05 0)
(0.25998 -2.8501e-05 0)
(0.260018 2.85527e-05 0)
(0.259983 -2.85263e-05 0)
(0.260014 2.85181e-05 0)
(0.259987 -2.83428e-05 0)
(0.260011 2.81705e-05 0)
(0.25999 -2.75505e-05 0)
(0.260006 2.60244e-05 0)
(0.26948 0.0148185 0)
(0.257581 0.00344309 0)
(0.258295 2.44767e-05 0)
(0.25897 -0.000511494 0)
(0.25948 -0.000367808 0)
(0.259869 -0.000145204 0)
(0.259882 -9.20449e-05 0)
(0.260045 3.4809e-06 0)
(0.25994 -2.986e-05 0)
(0.260058 2.4667e-05 0)
(0.259944 -2.50705e-05 0)
(0.260056 2.58446e-05 0)
(0.259946 -2.57006e-05 0)
(0.260053 2.60278e-05 0)
(0.259948 -2.61822e-05 0)
(0.260051 2.63749e-05 0)
(0.25995 -2.66204e-05 0)
(0.260049 2.67257e-05 0)
(0.259952 -2.69034e-05 0)
(0.260047 2.70731e-05 0)
(0.259955 -2.72393e-05 0)
(0.260044 2.73857e-05 0)
(0.259957 -2.7494e-05 0)
(0.260041 2.76343e-05 0)
(0.25996 -2.77723e-05 0)
(0.260039 2.78888e-05 0)
(0.259963 -2.80275e-05 0)
(0.260036 2.811e-05 0)
(0.259966 -2.82182e-05 0)
(0.260033 2.83163e-05 0)
(0.259969 -2.84739e-05 0)
(0.26003 2.85006e-05 0)
(0.259972 -2.85572e-05 0)
(0.260027 2.86972e-05 0)
(0.259975 -2.87217e-05 0)
(0.260023 2.88035e-05 0)
(0.259979 -2.88865e-05 0)
(0.26002 2.89018e-05 0)
(0.259982 -2.89258e-05 0)
(0.260017 2.89208e-05 0)
(0.259985 -2.88864e-05 0)
(0.260013 2.8841e-05 0)
(0.259989 -2.85506e-05 0)
(0.260009 2.80946e-05 0)
(0.259992 -2.71848e-05 0)
(0.26641 0.0237407 0)
(0.256901 0.00481647 0)
(0.259297 -0.00014549 0)
(0.2595 -0.000832275 0)
(0.259921 -0.000467296 0)
(0.259872 -0.000264159 0)
(0.260039 -7.20972e-05 0)
(0.259936 -5.59892e-05 0)
(0.260058 1.78309e-05 0)
(0.259943 -2.62969e-05 0)
(0.260057 2.59705e-05 0)
(0.259945 -2.54802e-05 0)
(0.260054 2.61989e-05 0)
(0.259947 -2.62493e-05 0)
(0.260052 2.65259e-05 0)
(0.259949 -2.66627e-05 0)
(0.26005 2.67651e-05 0)
(0.259951 -2.70341e-05 0)
(0.260048 2.71997e-05 0)
(0.259953 -2.73201e-05 0)
(0.260045 2.74759e-05 0)
(0.259956 -2.76385e-05 0)
(0.260043 2.78522e-05 0)
(0.259959 -2.79665e-05 0)
(0.26004 2.80844e-05 0)
(0.259961 -2.82079e-05 0)
(0.260037 2.83174e-05 0)
(0.259964 -2.84929e-05 0)
(0.260034 2.86084e-05 0)
(0.259967 -2.86823e-05 0)
(0.260031 2.86743e-05 0)
(0.259971 -2.88525e-05 0)
(0.260028 2.89596e-05 0)
(0.259974 -2.89288e-05 0)
(0.260025 2.90502e-05 0)
(0.259977 -2.90565e-05 0)
(0.260022 2.90504e-05 0)
(0.25998 -2.91362e-05 0)
(0.260018 2.92023e-05 0)
(0.259984 -2.92528e-05 0)
(0.260015 2.92216e-05 0)
(0.259987 -2.90619e-05 0)
(0.260011 2.9007e-05 0)
(0.259991 -2.86221e-05 0)
(0.260008 2.8152e-05 0)
(0.262219 0.0304656 0)
(0.256947 0.00493764 0)
(0.260539 -0.000584516 0)
(0.260478 -0.000874749 0)
(0.260205 -0.000517417 0)
(0.260148 -0.000209689 0)
(0.259971 -0.0001192 0)
(0.260067 -5.05021e-06 0)
(0.259943 -3.20693e-05 0)
(0.260057 2.4487e-05 0)
(0.259943 -2.52231e-05 0)
(0.260055 2.61532e-05 0)
(0.259946 -2.5867e-05 0)
(0.260053 2.6199e-05 0)
(0.259948 -2.63371e-05 0)
(0.260051 2.66422e-05 0)
(0.25995 -2.69217e-05 0)
(0.260049 2.69861e-05 0)
(0.259952 -2.71562e-05 0)
(0.260047 2.73952e-05 0)
(0.259955 -2.75597e-05 0)
(0.260044 2.76892e-05 0)
(0.259957 -2.77453e-05 0)
(0.260041 2.79259e-05 0)
(0.25996 -2.80819e-05 0)
(0.260039 2.82187e-05 0)
(0.259963 -2.83448e-05 0)
(0.260036 2.83873e-05 0)
(0.259966 -2.84985e-05 0)
(0.260033 2.86842e-05 0)
(0.259969 -2.89012e-05 0)
(0.26003 2.88639e-05 0)
(0.259972 -2.89197e-05 0)
(0.260027 2.91231e-05 0)
(0.259975 -2.91397e-05 0)
(0.260023 2.92796e-05 0)
(0.259979 -2.94266e-05 0)
(0.26002 2.94419e-05 0)
(0.259982 -2.9402e-05 0)
(0.260017 2.93588e-05 0)
(0.259985 -2.93982e-05 0)
(0.260013 2.94755e-05 0)
(0.259989 -2.92165e-05 0)
(0.260009 2.91175e-05 0)
(0.259992 -2.84418e-05 0)
(0.259783 0.0501588 0)
(0.259281 0.00486262 0)
(0.262548 -0.000608758 0)
(0.261235 -0.000754226 0)
(0.26068 -0.000303519 0)
(0.260162 -0.000185374 0)
(0.260128 -4.32793e-05 0)
(0.259957 -4.64218e-05 0)
(0.26006 2.10706e-05 0)
(0.259942 -2.63583e-05 0)
(0.260056 2.63648e-05 0)
(0.259944 -2.60355e-05 0)
(0.260054 2.66302e-05 0)
(0.259947 -2.68291e-05 0)
(0.260053 2.70809e-05 0)
(0.259949 -2.71394e-05 0)
(0.26005 2.72377e-05 0)
(0.259951 -2.75486e-05 0)
(0.260048 2.77384e-05 0)
(0.259953 -2.78271e-05 0)
(0.260045 2.79981e-05 0)
(0.259956 -2.82199e-05 0)
(0.260043 2.84852e-05 0)
(0.259959 -2.85934e-05 0)
(0.26004 2.86981e-05 0)
(0.259962 -2.8825e-05 0)
(0.260037 2.89806e-05 0)
(0.259964 -2.92015e-05 0)
(0.260034 2.93205e-05 0)
(0.259967 -2.93066e-05 0)
(0.260031 2.92775e-05 0)
(0.25997 -2.95088e-05 0)
(0.260028 2.96154e-05 0)
(0.259974 -2.95655e-05 0)
(0.260025 2.966e-05 0)
(0.259977 -2.9642e-05 0)
(0.260022 2.95889e-05 0)
(0.25998 -2.97035e-05 0)
(0.260018 2.98702e-05 0)
(0.259984 -2.999e-05 0)
(0.260015 2.99546e-05 0)
(0.259987 -2.9814e-05 0)
(0.260011 2.99409e-05 0)
(0.259991 -2.95909e-05 0)
(0.260008 3.00934e-05 0)
(0.269293 -2.43659e-05 0)
(0.260306 2.4125e-05 0)
(0.264261 -2.45729e-05 0)
(0.26188 2.47956e-05 0)
(0.260721 -2.51032e-05 0)
(0.260355 2.53691e-05 0)
(0.260022 -2.56551e-05 0)
(0.260073 2.59394e-05 0)
(0.259941 -2.62002e-05 0)
(0.260055 2.6455e-05 0)
(0.259942 -2.66915e-05 0)
(0.260055 2.69068e-05 0)
(0.259946 -2.71279e-05 0)
(0.260053 2.73824e-05 0)
(0.259947 -2.76025e-05 0)
(0.260051 2.78181e-05 0)
(0.25995 -2.80185e-05 0)
(0.260049 2.8226e-05 0)
(0.259952 -2.84137e-05 0)
(0.260047 2.85862e-05 0)
(0.259955 -2.87667e-05 0)
(0.260044 2.89462e-05 0)
(0.259957 -2.91105e-05 0)
(0.260041 2.92682e-05 0)
(0.25996 -2.94161e-05 0)
(0.260039 2.95445e-05 0)
(0.259963 -2.96758e-05 0)
(0.260036 2.98237e-05 0)
(0.259966 -2.99569e-05 0)
(0.260033 3.0066e-05 0)
(0.259969 -3.01774e-05 0)
(0.260029 3.02805e-05 0)
(0.259972 -3.03712e-05 0)
(0.260026 3.04454e-05 0)
(0.259975 -3.05158e-05 0)
(0.260023 3.05878e-05 0)
(0.259978 -3.0678e-05 0)
(0.26002 3.07418e-05 0)
(0.259982 -3.07949e-05 0)
(0.260016 3.08499e-05 0)
(0.259985 -3.08874e-05 0)
(0.260013 3.09391e-05 0)
(0.259989 -3.09009e-05 0)
(0.26001 3.11816e-05 0)
(0.259993 -3.05803e-05 0)
(0.469084 -0.00377188 0)
(0.371672 -0.0752618 2.50416e-31)
(0.339675 -0.0632647 -2.00378e-30)
(0.301993 -0.056179 -7.86704e-30)
(0.263799 -0.0766231 0)
(0.464078 -0.0608088 0)
(0.399174 -0.0527553 0)
(0.349828 -0.046483 0)
(0.315813 -0.0388041 -2.44924e-30)
(0.282469 -0.0401603 0)
(0.466109 -0.0432705 0)
(0.414889 -0.0382643 0)
(0.358073 -0.0341363 0)
(0.324525 -0.0288503 -1.37758e-30)
(0.291881 -0.0317266 0)
(0.460371 -0.0265599 0)
(0.416288 -0.0220168 0)
(0.362488 -0.0212891 0)
(0.329905 -0.0187883 5.91295e-31)
(0.298021 -0.0211366 0)
(0.454608 -0.0865464 0)
(0.403983 -0.00695482 0)
(0.362284 -0.00343031 0)
(0.332882 -0.00325956 9.21066e-32)
(0.301569 -0.00860967 0)
(0.259784 -0.0501121 0)
(0.259281 -0.00491017 0)
(0.262548 0.000656717 0)
(0.261235 0.000705468 0)
(0.26068 0.000352772 0)
(0.260162 0.000135615 0)
(0.260128 9.35939e-05 0)
(0.259957 -4.38915e-06 0)
(0.26006 3.02486e-05 0)
(0.259942 -2.547e-05 0)
(0.260056 2.59619e-05 0)
(0.259944 -2.67695e-05 0)
(0.260054 2.6605e-05 0)
(0.259947 -2.68177e-05 0)
(0.260052 2.70039e-05 0)
(0.259949 -2.73781e-05 0)
(0.26005 2.76785e-05 0)
(0.259951 -2.77603e-05 0)
(0.260048 2.79583e-05 0)
(0.259953 -2.8248e-05 0)
(0.260045 2.84049e-05 0)
(0.259956 -2.85185e-05 0)
(0.260043 2.85793e-05 0)
(0.259959 -2.87816e-05 0)
(0.26004 2.89885e-05 0)
(0.259962 -2.91519e-05 0)
(0.260037 2.92363e-05 0)
(0.259964 -2.92363e-05 0)
(0.260034 2.9363e-05 0)
(0.259967 -2.96173e-05 0)
(0.260031 2.9858e-05 0)
(0.25997 -2.98248e-05 0)
(0.260028 2.99299e-05 0)
(0.259974 -3.01762e-05 0)
(0.260025 3.02366e-05 0)
(0.259977 -3.03651e-05 0)
(0.260022 3.05052e-05 0)
(0.25998 -3.0511e-05 0)
(0.260018 3.04669e-05 0)
(0.259984 -3.04331e-05 0)
(0.260015 3.05776e-05 0)
(0.259987 -3.07931e-05 0)
(0.260012 3.08555e-05 0)
(0.259991 -3.09283e-05 0)
(0.26001 3.06484e-05 0)
(0.262219 -0.0305122 0)
(0.256947 -0.00489063 0)
(0.260539 0.000536789 0)
(0.260479 0.000922922 0)
(0.260205 0.000468662 0)
(0.260148 0.00025901 0)
(0.259971 6.93747e-05 0)
(0.260067 5.54353e-05 0)
(0.259943 -1.88186e-05 0)
(0.260057 2.68722e-05 0)
(0.259943 -2.66073e-05 0)
(0.260055 2.61099e-05 0)
(0.259946 -2.68566e-05 0)
(0.260053 2.69882e-05 0)
(0.259948 -2.72793e-05 0)
(0.260051 2.73815e-05 0)
(0.25995 -2.75054e-05 0)
(0.260049 2.78286e-05 0)
(0.259952 -2.80266e-05 0)
(0.260047 2.81323e-05 0)
(0.259955 -2.83232e-05 0)
(0.260044 2.85339e-05 0)
(0.259957 -2.87957e-05 0)
(0.260041 2.89196e-05 0)
(0.25996 -2.90448e-05 0)
(0.260039 2.9172e-05 0)
(0.259963 -2.93132e-05 0)
(0.260036 2.95492e-05 0)
(0.259966 -2.96806e-05 0)
(0.260033 2.97151e-05 0)
(0.259969 -2.97106e-05 0)
(0.26003 2.99496e-05 0)
(0.259972 -3.0062e-05 0)
(0.260027 3.00104e-05 0)
(0.259975 -3.01361e-05 0)
(0.260023 3.01498e-05 0)
(0.259979 -3.01568e-05 0)
(0.26002 3.02677e-05 0)
(0.259982 -3.04029e-05 0)
(0.260017 3.05554e-05 0)
(0.259985 -3.05828e-05 0)
(0.260013 3.05975e-05 0)
(0.259989 -3.08676e-05 0)
(0.26001 3.09671e-05 0)
(0.259991 -3.17125e-05 0)
(0.26641 -0.0236939 0)
(0.256901 -0.00486388 0)
(0.259297 0.00019336 0)
(0.2595 0.000783721 0)
(0.259921 0.000516354 0)
(0.259872 0.000214587 0)
(0.260039 0.000122233 0)
(0.259936 5.3654e-06 0)
(0.260058 3.33021e-05 0)
(0.259943 -2.53393e-05 0)
(0.260057 2.6136e-05 0)
(0.259945 -2.70968e-05 0)
(0.260054 2.6825e-05 0)
(0.259947 -2.72065e-05 0)
(0.260052 2.73672e-05 0)
(0.259949 -2.76508e-05 0)
(0.26005 2.79486e-05 0)
(0.259951 -2.80664e-05 0)
(0.260048 2.82776e-05 0)
(0.259953 -2.85246e-05 0)
(0.260045 2.87097e-05 0)
(0.259956 -2.88822e-05 0)
(0.260043 2.89922e-05 0)
(0.259959 -2.91836e-05 0)
(0.26004 2.93604e-05 0)
(0.259961 -2.95179e-05 0)
(0.260037 2.9671e-05 0)
(0.259964 -2.97402e-05 0)
(0.260034 2.98687e-05 0)
(0.259967 -3.00273e-05 0)
(0.260031 3.02448e-05 0)
(0.259971 -3.02624e-05 0)
(0.260028 3.03454e-05 0)
(0.259974 -3.05471e-05 0)
(0.260025 3.05814e-05 0)
(0.259977 -3.07098e-05 0)
(0.260022 3.08361e-05 0)
(0.25998 -3.087e-05 0)
(0.260018 3.09173e-05 0)
(0.259984 -3.09495e-05 0)
(0.260015 3.10757e-05 0)
(0.259987 -3.12885e-05 0)
(0.260012 3.14041e-05 0)
(0.25999 -3.19184e-05 0)
(0.260008 3.21998e-05 0)
(0.26948 -0.0148652 0)
(0.257582 -0.0033959 0)
(0.258295 -7.22981e-05 0)
(0.25897 0.000559788 0)
(0.25948 0.000318924 0)
(0.259869 0.000194638 0)
(0.259882 4.21066e-05 0)
(0.260045 4.70095e-05 0)
(0.25994 -2.112e-05 0)
(0.260058 2.67936e-05 0)
(0.259944 -2.68745e-05 0)
(0.260056 2.65486e-05 0)
(0.259946 -2.71516e-05 0)
(0.260053 2.72663e-05 0)
(0.259948 -2.75427e-05 0)
(0.260051 2.77577e-05 0)
(0.25995 -2.79189e-05 0)
(0.260049 2.82004e-05 0)
(0.259952 -2.83983e-05 0)
(0.260047 2.85817e-05 0)
(0.259955 -2.87667e-05 0)
(0.260044 2.89553e-05 0)
(0.259957 -2.91658e-05 0)
(0.260041 2.93324e-05 0)
(0.25996 -2.94852e-05 0)
(0.260039 2.96431e-05 0)
(0.259963 -2.97657e-05 0)
(0.260036 2.99435e-05 0)
(0.259966 -3.00741e-05 0)
(0.260033 3.02007e-05 0)
(0.259969 -3.02562e-05 0)
(0.26003 3.04301e-05 0)
(0.259972 -3.05529e-05 0)
(0.260026 3.05811e-05 0)
(0.259975 -3.0704e-05 0)
(0.260023 3.07634e-05 0)
(0.259979 -3.08113e-05 0)
(0.26002 3.09168e-05 0)
(0.259982 -3.09908e-05 0)
(0.260017 3.10951e-05 0)
(0.259985 -3.11961e-05 0)
(0.260013 3.13164e-05 0)
(0.259989 -3.16499e-05 0)
(0.260009 3.21089e-05 0)
(0.259991 -3.31579e-05 0)
(0.271527 -0.00700175 0)
(0.25756 -0.00169327 0)
(0.257848 3.10962e-05 0)
(0.258487 0.000419972 0)
(0.259451 0.000299736 0)
(0.259706 0.000112278 0)
(0.259993 7.95535e-05 0)
(0.259928 -8.31835e-06 0)
(0.260058 3.03824e-05 0)
(0.259944 -2.60555e-05 0)
(0.260057 2.65022e-05 0)
(0.259945 -2.73008e-05 0)
(0.260054 2.7115e-05 0)
(0.259946 -2.76138e-05 0)
(0.260052 2.7655e-05 0)
(0.259948 -2.80425e-05 0)
(0.26005 2.81699e-05 0)
(0.259951 -2.84858e-05 0)
(0.260048 2.85793e-05 0)
(0.259953 -2.89245e-05 0)
(0.260045 2.90126e-05 0)
(0.259956 -2.93205e-05 0)
(0.260042 2.93758e-05 0)
(0.259958 -2.96561e-05 0)
(0.26004 2.97358e-05 0)
(0.259961 -2.99905e-05 0)
(0.260037 3.00746e-05 0)
(0.259964 -3.02726e-05 0)
(0.260034 3.03287e-05 0)
(0.259967 -3.05236e-05 0)
(0.260031 3.06295e-05 0)
(0.25997 -3.07722e-05 0)
(0.260028 3.08122e-05 0)
(0.259973 -3.10098e-05 0)
(0.260024 3.10303e-05 0)
(0.259976 -3.11784e-05 0)
(0.260021 3.12473e-05 0)
(0.25998 -3.13403e-05 0)
(0.260018 3.13999e-05 0)
(0.259983 -3.1498e-05 0)
(0.260014 3.15928e-05 0)
(0.259986 -3.1817e-05 0)
(0.260011 3.20205e-05 0)
(0.25999 -3.27036e-05 0)
(0.260007 3.4441e-05 0)
)
;

boundaryField
{
    AirInlet
    {
        type            fixedValue;
        value           uniform (0.1 0 0);
    }
    WaterInlet
    {
        type            fixedValue;
        value           uniform (0.5 0 0);
    }
    ChannelWall
    {
        type            fixedValue;
        value           uniform (0 0 0);
    }
    Outlet
    {
        type            pressureInletOutletVelocity;
        value           nonuniform List<vector> 
11
(
(0.260006 2.60244e-05 0)
(0.259992 -2.71848e-05 0)
(0.260008 2.8152e-05 0)
(0.259992 -2.84418e-05 0)
(0.260008 3.00934e-05 0)
(0.259993 -3.05803e-05 0)
(0.26001 3.06484e-05 0)
(0.259991 -3.17125e-05 0)
(0.260008 3.21998e-05 0)
(0.259991 -3.31579e-05 0)
(0.260007 3.4441e-05 0)
)
;
    }
    FrontAndBack
    {
        type            empty;
    }
}


// ************************************************************************* //
