/*--------------------------------*- C++ -*----------------------------------*\
| =========                 |                                                 |
| \\      /  F ield         | OpenFOAM: The Open Source CFD Toolbox           |
|  \\    /   O peration     | Version:  2.3.0                                 |
|   \\  /    A nd           | Web:      www.OpenFOAM.org                      |
|    \\/     M anipulation  |                                                 |
\*---------------------------------------------------------------------------*/
FoamFile
{
    version     2.0;
    format      ascii;
    class       volScalarField;
    location    "1.35";
    object      p;
}
// * * * * * * * * * * * * * * * * * * * * * * * * * * * * * * * * * * * * * //

dimensions      [1 -1 -2 0 0 0 0];

internalField   nonuniform List<scalar> 
6000
(
105712
105715
105716
105718
105721
105712
105701
105694
105689
105687
105689
105693
105699
105706
105715
105725
105735
105746
105755
105762
105764
105764
105766
105772
105777
105775
105763
105748
105742
105738
105643
105645
105648
105649
105650
105647
105639
105634
105631
105631
105632
105636
105643
105651
105659
105667
105675
105682
105688
105692
105695
105698
105702
105708
105713
105712
105705
105696
105689
105686
105590
105592
105596
105600
105606
105608
105603
105597
105593
105592
105593
105597
105606
105617
105627
105635
105642
105647
105650
105653
105653
105652
105652
105652
105653
105655
105657
105656
105648
105645
105514
105508
105508
105518
105531
105545
105553
105555
105553
105551
105552
105556
105564
105573
105578
105582
105585
105586
105587
105587
105584
105577
105564
105550
105555
105564
105578
105591
105593
105592
105409
105392
105391
105418
105444
105468
105491
105504
105508
105508
105508
105509
105511
105509
105502
105495
105489
105484
105481
105479
105472
105455
105428
105415
105421
105444
105473
105493
105506
105513
105295
105275
105277
105306
105351
105386
105414
105436
105450
105454
105453
105449
105438
105423
105401
105368
105344
105335
105335
105338
105341
105340
105338
105337
105336
105338
105347
105365
105383
105400
105218
105217
105220
105226
105250
105291
105330
105356
105373
105380
105375
105360
105340
105310
105271
105258
105257
105261
105268
105277
105286
105295
105301
105303
105298
105287
105270
105255
105254
105270
105183
105187
105189
105190
105195
105214
105249
105280
105294
105295
105276
105243
105221
105209
105207
105213
105222
105232
105242
105254
105265
105274
105280
105280
105272
105253
105229
105213
105208
105207
105159
105162
105164
105166
105168
105179
105196
105216
105224
105214
105177
105163
105162
105166
105175
105186
105198
105210
105223
105235
105247
105255
105258
105255
105243
105222
105204
105195
105192
105191
105136
105137
105140
105142
105146
105156
105165
105170
105166
105137
105121
105124
105130
105138
105149
105161
105174
105188
105201
105214
105223
105229
105229
105224
105212
105197
105187
105184
105183
105182
105112
105114
105115
105117
105121
105130
105135
105130
105112
105086
105088
105094
105100
105109
105122
105136
105150
105164
105175
105185
105191
105195
105195
105191
105186
105179
105176
105175
105174
105173
105089
105090
105091
105092
105093
105100
105103
105092
105066
105054
105058
105063
105069
105080
105095
105110
105124
105135
105143
105149
105153
105156
105158
105159
105161
105164
105166
105166
105165
105165
105067
105068
105067
105066
105065
105066
105070
105054
105027
105025
105027
105031
105037
105048
105065
105081
105093
105101
105104
105108
105113
105116
105120
105124
105132
105145
105154
105157
105156
105156
105048
105048
105045
105041
105037
105032
105034
105014
104993
104994
104995
104998
105003
105013
105030
105045
105055
105060
105064
105067
105072
105076
105078
105080
105087
105107
105131
105140
105141
105142
105031
105030
105025
105018
105010
105000
104993
104973
104963
104964
104964
104964
104967
104975
104988
105002
105012
105019
105023
105026
105031
105035
105033
105024
105023
105040
105069
105095
105103
105106
105014
105013
105007
104996
104984
104970
104953
104939
104936
104934
104932
104930
104931
104934
104944
104957
104968
104977
104983
104988
104992
104994
104982
104974
104974
104980
104991
105007
105024
105031
104996
104994
104986
104974
104960
104944
104928
104915
104911
104906
104901
104897
104895
104894
104902
104915
104927
104937
104946
104953
104958
104960
104955
104953
104953
104955
104960
104965
104972
104975
104965
104961
104958
104950
104939
104924
104908
104894
104885
104877
104869
104864
104860
104859
104863
104876
104888
104900
104911
104922
104933
104942
104942
104942
104943
104944
104946
104948
104950
104951
104903
104895
104901
104914
104912
104900
104886
104871
104857
104845
104836
104830
104826
104826
104828
104839
104852
104866
104880
104895
104912
104927
104932
104933
104934
104934
104935
104936
104937
104938
104804
104803
104816
104840
104863
104864
104855
104842
104823
104809
104801
104795
104792
104794
104797
104806
104818
104833
104851
104870
104891
104911
104919
104922
104924
104925
104925
104925
104926
104927
104690
104690
104711
104744
104777
104801
104806
104799
104781
104771
104764
104760
104759
104764
104767
104770
104782
104803
104824
104845
104867
104890
104901
104907
104911
104913
104914
104914
104915
104916
104565
104570
104599
104642
104680
104710
104729
104733
104731
104731
104729
104728
104728
104731
104730
104726
104739
104766
104792
104814
104837
104861
104875
104885
104892
104897
104900
104901
104902
104904
104499
104501
104515
104549
104591
104618
104631
104646
104674
104689
104693
104693
104692
104687
104670
104652
104665
104709
104745
104773
104798
104823
104841
104855
104866
104875
104880
104884
104886
104887
104481
104482
104486
104499
104525
104547
104555
104572
104610
104636
104645
104646
104639
104622
104599
104586
104588
104613
104672
104716
104748
104775
104797
104816
104831
104844
104854
104861
104865
104867
104477
104477
104478
104483
104494
104508
104518
104528
104549
104570
104581
104583
104576
104567
104559
104557
104558
104566
104595
104649
104691
104723
104748
104770
104789
104806
104821
104833
104839
104841
104474
104474
104475
104477
104484
104492
104501
104507
104514
104523
104531
104536
104538
104539
104541
104543
104545
104549
104562
104598
104640
104674
104701
104724
104745
104765
104783
104798
104808
104811
104471
104471
104471
104473
104477
104483
104489
104494
104498
104503
104508
104514
104519
104523
104527
104530
104533
104538
104546
104570
104604
104634
104659
104682
104705
104725
104744
104760
104771
104773
104466
104467
104467
104467
104470
104473
104478
104482
104486
104491
104495
104500
104505
104509
104513
104516
104521
104526
104533
104551
104576
104600
104624
104646
104667
104687
104704
104717
104724
104725
104461
104461
104460
104460
104461
104464
104467
104471
104474
104478
104483
104487
104491
104495
104499
104503
104508
104513
104519
104533
104552
104571
104592
104612
104630
104646
104659
104668
104673
104674
104453
104452
104451
104451
104452
104454
104457
104460
104463
104467
104471
104474
104478
104482
104486
104490
104495
104499
104504
104515
104528
104544
104561
104577
104591
104603
104613
104619
104622
104623
104443
104442
104442
104441
104442
104444
104446
104449
104452
104455
104459
104462
104466
104469
104473
104478
104482
104485
104489
104496
104505
104517
104529
104541
104552
104561
104567
104571
104573
104572
104432
104432
104431
104431
104432
104434
104436
104438
104441
104444
104447
104450
104453
104457
104461
104466
104470
104471
104473
104476
104482
104490
104499
104507
104515
104520
104524
104525
104525
104524
104422
104421
104421
104421
104422
104424
104426
104428
104430
104433
104436
104438
104442
104445
104450
104455
104457
104456
104455
104456
104459
104463
104469
104475
104479
104480
104480
104481
104481
104480
104411
104411
104411
104411
104412
104414
104415
104417
104420
104422
104424
104427
104430
104434
104439
104443
104443
104440
104436
104434
104434
104437
104440
104442
104441
104441
104441
104442
104441
104440
104401
104401
104401
104401
104402
104403
104405
104407
104409
104411
104413
104416
104419
104423
104428
104430
104428
104422
104415
104411
104409
104409
104410
104409
104410
104406
104404
104404
104403
104403
104391
104391
104391
104391
104392
104393
104395
104396
104398
104400
104402
104405
104407
104411
104415
104416
104410
104401
104393
104386
104382
104380
104379
104381
104378
104375
104371
104369
104366
104364
104381
104380
104380
104381
104382
104383
104385
104386
104388
104390
104392
104394
104396
104398
104401
104399
104391
104379
104368
104359
104352
104349
104352
104352
104348
104341
104335
104331
104329
104326
104370
104370
104370
104370
104371
104373
104374
104376
104378
104380
104382
104384
104385
104386
104387
104382
104370
104356
104342
104330
104320
104316
104320
104322
104313
104302
104293
104287
104285
104286
104359
104360
104360
104360
104361
104363
104364
104366
104369
104372
104374
104375
104376
104376
104375
104367
104350
104331
104314
104298
104286
104281
104286
104287
104274
104260
104246
104235
104229
104230
104348
104349
104349
104350
104351
104352
104354
104356
104360
104364
104367
104368
104369
104368
104364
104352
104329
104306
104284
104265
104251
104247
104251
104251
104233
104211
104188
104170
104158
104154
104338
104339
104339
104339
104340
104341
104343
104346
104350
104356
104360
104362
104361
104359
104352
104335
104307
104279
104253
104231
104217
104214
104214
104214
104184
104148
104115
104089
104072
104063
104327
104328
104328
104328
104328
104330
104331
104334
104338
104345
104350
104353
104351
104345
104333
104312
104281
104249
104220
104197
104183
104182
104182
104169
104121
104071
104026
103989
103962
103947
104316
104317
104317
104317
104317
104317
104318
104320
104323
104329
104334
104336
104333
104320
104302
104281
104252
104218
104187
104161
104149
104148
104152
104107
104043
103977
103915
103860
103813
103783
104306
104306
104306
104305
104304
104304
104304
104304
104305
104307
104309
104307
104300
104284
104262
104243
104220
104187
104153
104128
104115
104114
104092
104029
103950
103867
103783
103695
103632
103608
104296
104296
104294
104292
104291
104290
104289
104289
104287
104284
104281
104272
104259
104242
104221
104204
104186
104154
104121
104096
104083
104067
104015
103938
103846
103747
103647
103583
103563
103559
104286
104284
104280
104279
104278
104277
104276
104274
104272
104266
104256
104240
104222
104203
104183
104167
104151
104122
104089
104063
104039
103996
103930
103843
103741
103636
103570
103551
103549
103548
104272
104269
104265
104264
104264
104263
104263
104261
104258
104250
104233
104209
104186
104166
104148
104131
104115
104088
104055
104021
103981
103924
103848
103752
103646
103573
103549
103545
103545
103545
104250
104250
104248
104249
104250
104250
104250
104249
104245
104232
104206
104174
104149
104129
104113
104096
104080
104053
104018
103976
103924
103858
103774
103670
103583
103550
103544
103544
103544
103544
104219
104224
104227
104230
104233
104235
104236
104234
104227
104204
104164
104128
104105
104090
104078
104064
104045
104019
103982
103934
103874
103801
103707
103607
103558
103544
103542
103543
103543
103543
104172
104176
104189
104199
104206
104212
104213
104207
104188
104150
104106
104072
104053
104046
104048
104036
104015
103989
103950
103897
103831
103751
103655
103577
103549
103542
103541
103542
103542
103542
104084
104086
104112
104134
104147
104155
104157
104143
104102
104060
104039
104027
104021
104019
104018
104013
103993
103965
103923
103866
103796
103713
103623
103565
103545
103540
103540
103540
103540
103541
104000
104005
104019
104035
104046
104049
104046
104038
104025
104016
104012
104009
104006
104003
103999
103994
103981
103950
103902
103840
103768
103687
103605
103557
103542
103539
103539
103539
103539
103539
103978
103979
103983
103988
103993
103996
103998
103999
104000
104001
104001
104000
103997
103993
103988
103982
103973
103940
103887
103821
103747
103668
103593
103552
103539
103537
103537
103537
103537
103537
103973
103973
103974
103976
103979
103982
103985
103988
103991
103993
103993
103992
103990
103985
103979
103971
103961
103933
103875
103805
103729
103652
103584
103547
103537
103536
103536
103536
103536
103536
103971
103971
103972
103973
103975
103977
103979
103982
103984
103985
103986
103985
103982
103977
103969
103958
103944
103921
103864
103790
103711
103634
103572
103542
103534
103534
103534
103534
103534
103534
103969
103969
103969
103970
103971
103972
103974
103976
103977
103979
103979
103978
103974
103968
103957
103942
103921
103894
103847
103772
103691
103614
103558
103536
103531
103532
103532
103532
103532
103532
103966
103966
103966
103967
103967
103968
103969
103970
103971
103972
103973
103971
103965
103956
103941
103920
103891
103854
103812
103750
103668
103590
103543
103530
103529
103530
103530
103530
103531
103531
103963
103963
103963
103963
103963
103964
103964
103965
103966
103966
103965
103961
103952
103937
103917
103889
103854
103811
103764
103710
103635
103562
103532
103527
103528
103528
103529
103529
103529
103529
103960
103960
103960
103960
103960
103960
103960
103960
103960
103960
103957
103949
103934
103912
103884
103851
103811
103766
103715
103656
103585
103537
103526
103526
103527
103527
103527
103527
103527
103527
103957
103957
103957
103957
103956
103956
103956
103955
103955
103953
103947
103934
103912
103884
103851
103813
103770
103723
103669
103605
103548
103528
103525
103525
103525
103525
103525
103525
103526
103526
103954
103954
103954
103953
103953
103952
103951
103950
103949
103945
103936
103917
103891
103860
103823
103781
103735
103685
103630
103570
103534
103525
103524
103524
103524
103524
103524
103524
103524
103524
103951
103951
103950
103950
103949
103948
103947
103945
103942
103937
103924
103902
103873
103840
103800
103755
103706
103654
103599
103548
103527
103523
103523
103523
103522
103522
103522
103522
103522
103522
103948
103948
103947
103946
103945
103944
103942
103939
103935
103927
103912
103888
103857
103822
103780
103734
103683
103629
103574
103536
103524
103522
103522
103521
103521
103520
103520
103520
103520
103520
103944
103944
103944
103943
103941
103939
103937
103934
103928
103918
103899
103872
103840
103804
103763
103716
103664
103608
103555
103529
103522
103521
103520
103519
103519
103518
103518
103518
103518
103518
103940
103940
103939
103938
103937
103935
103932
103927
103919
103906
103884
103855
103821
103784
103743
103698
103647
103591
103544
103526
103521
103520
103518
103517
103517
103516
103516
103516
103516
103516
103936
103936
103935
103933
103932
103929
103925
103919
103908
103891
103865
103833
103799
103761
103722
103679
103633
103581
103540
103525
103520
103518
103516
103515
103515
103514
103514
103514
103514
103514
103931
103930
103929
103928
103926
103922
103917
103907
103892
103870
103841
103808
103775
103739
103703
103664
103622
103577
103540
103523
103518
103516
103514
103513
103513
103512
103512
103512
103511
103511
103924
103924
103923
103921
103918
103912
103903
103889
103869
103843
103814
103783
103752
103719
103685
103650
103613
103576
103541
103521
103515
103513
103512
103511
103510
103510
103509
103509
103509
103509
103917
103916
103915
103912
103906
103897
103882
103863
103838
103812
103785
103757
103728
103699
103668
103637
103604
103572
103542
103521
103513
103511
103510
103509
103508
103507
103507
103507
103507
103507
103907
103906
103904
103898
103887
103872
103851
103828
103803
103778
103753
103727
103701
103675
103649
103622
103595
103566
103540
103520
103511
103508
103507
103506
103506
103505
103505
103504
103504
103504
103893
103891
103886
103874
103857
103836
103812
103788
103765
103741
103718
103695
103672
103650
103627
103605
103582
103559
103537
103518
103508
103506
103505
103504
103503
103502
103502
103502
103502
103502
103871
103866
103855
103837
103815
103792
103770
103748
103726
103704
103683
103662
103642
103622
103602
103584
103566
103547
103530
103515
103506
103503
103502
103501
103500
103500
103499
103499
103499
103499
103833
103824
103808
103788
103767
103747
103727
103707
103687
103668
103649
103630
103612
103595
103578
103562
103547
103534
103521
103509
103502
103500
103499
103498
103497
103497
103497
103497
103497
103497
103775
103766
103751
103734
103716
103699
103682
103666
103649
103633
103617
103601
103585
103570
103556
103543
103531
103520
103511
103503
103498
103496
103495
103495
103494
103494
103494
103494
103494
103495
103709
103703
103692
103679
103665
103652
103638
103624
103611
103597
103584
103572
103560
103548
103537
103527
103517
103509
103502
103497
103494
103492
103492
103491
103491
103491
103491
103492
103492
103492
103646
103642
103634
103625
103614
103603
103592
103581
103571
103560
103550
103540
103531
103522
103513
103506
103499
103494
103490
103488
103488
103488
103487
103487
103487
103488
103488
103489
103490
103490
103588
103584
103579
103572
103564
103555
103546
103538
103529
103520
103512
103504
103497
103490
103485
103481
103477
103476
103476
103477
103480
103482
103483
103483
103483
103484
103485
103486
103487
103487
103532
103529
103525
103520
103513
103507
103500
103493
103486
103479
103473
103467
103462
103458
103455
103453
103454
103455
103459
103464
103470
103476
103478
103478
103479
103480
103481
103482
103483
103484
103478
103476
103473
103469
103464
103459
103454
103448
103443
103438
103434
103430
103427
103426
103426
103427
103430
103434
103441
103449
103458
103468
103473
103473
103474
103474
103476
103477
103478
103479
103425
103424
103422
103419
103415
103411
103408
103404
103401
103398
103396
103394
103394
103395
103398
103402
103407
103415
103423
103434
103446
103459
103467
103468
103468
103468
103469
103470
103472
103472
103374
103373
103371
103369
103367
103365
103363
103361
103359
103359
103359
103360
103362
103366
103370
103377
103385
103394
103405
103418
103433
103448
103460
103461
103461
103461
103462
103463
103464
103464
103324
103323
103322
103321
103320
103319
103318
103318
103318
103319
103321
103324
103328
103333
103339
103348
103358
103370
103384
103400
103418
103436
103451
103453
103453
103453
103453
103454
103455
103455
103275
103275
103274
103273
103273
103273
103273
103274
103275
103277
103279
103283
103288
103295
103304
103315
103329
103344
103362
103381
103402
103424
103440
103443
103443
103443
103444
103445
103446
103446
103227
103226
103226
103226
103226
103226
103227
103228
103229
103231
103235
103240
103247
103256
103267
103281
103298
103317
103339
103362
103387
103411
103428
103433
103434
103434
103434
103435
103436
103437
103178
103178
103178
103178
103178
103179
103179
103180
103182
103185
103189
103196
103204
103215
103229
103245
103265
103288
103315
103343
103372
103399
103416
103422
103425
103425
103425
103426
103427
103428
103130
103130
103130
103130
103130
103130
103131
103132
103134
103138
103145
103154
103164
103177
103192
103210
103231
103257
103288
103323
103358
103388
103405
103413
103416
103416
103417
103417
103418
103419
103082
103082
103081
103081
103082
103082
103083
103085
103089
103096
103105
103116
103129
103143
103159
103178
103200
103227
103261
103300
103342
103377
103395
103404
103407
103408
103408
103409
103410
103411
103034
103033
103033
103034
103034
103036
103038
103043
103050
103058
103070
103084
103099
103116
103134
103154
103177
103206
103241
103281
103327
103367
103387
103396
103400
103401
103401
103401
103402
103403
102986
102986
102987
102988
102990
102993
102999
103006
103016
103028
103042
103057
103074
103092
103111
103133
103158
103189
103226
103270
103319
103362
103382
103389
103393
103394
103395
103394
103395
103395
102940
102940
102941
102943
102948
102954
102962
102973
102984
102995
103008
103022
103038
103056
103077
103100
103127
103159
103197
103241
103292
103346
103375
103384
103386
103388
103388
103388
103389
103387
102893
102894
102896
102899
102904
102911
102919
102928
102937
102946
102957
102969
102983
103000
103021
103045
103074
103108
103148
103194
103246
103306
103358
103376
103379
103381
103381
103382
103381
103379
102847
102847
102849
102852
102857
102862
102868
102875
102883
102891
102899
102908
102920
102935
102955
102979
103009
103045
103087
103135
103189
103251
103315
103359
103369
103371
103372
103373
103370
103364
102798
102799
102800
102802
102805
102809
102814
102819
102825
102830
102835
102841
102851
102866
102885
102909
102940
102977
103020
103069
103124
103185
103251
103316
103346
103354
103357
103357
103349
103333
102748
102748
102749
102750
102752
102754
102757
102760
102762
102768
102775
102782
102790
102802
102819
102840
102870
102907
102949
102998
103052
103111
103174
103239
103290
103316
103326
103321
103298
103271
102698
102697
102697
102697
102698
102699
102700
102703
102707
102711
102716
102723
102731
102743
102758
102778
102803
102837
102877
102924
102975
103031
103089
103144
103189
103225
103245
103234
103200
103171
102646
102645
102644
102644
102645
102646
102648
102650
102653
102657
102665
102672
102681
102691
102704
102720
102741
102770
102806
102848
102896
102948
102999
103044
103073
103091
103102
103097
103074
103043
102593
102591
102593
102594
102595
102596
102598
102601
102606
102611
102617
102624
102631
102640
102651
102665
102682
102706
102736
102774
102817
102864
102910
102947
102967
102971
102967
102959
102944
102927
102541
102540
102546
102550
102550
102550
102552
102556
102560
102563
102566
102569
102574
102581
102591
102604
102620
102640
102667
102700
102739
102781
102822
102857
102875
102878
102874
102866
102860
102858
102497
102497
102501
102507
102509
102508
102509
102510
102511
102510
102509
102508
102510
102514
102523
102535
102550
102569
102594
102624
102659
102698
102737
102770
102792
102802
102807
102808
102808
102809
102455
102459
102463
102468
102471
102468
102465
102461
102457
102452
102446
102441
102439
102440
102447
102458
102473
102492
102516
102544
102578
102615
102653
102686
102710
102730
102745
102755
102761
102764
102417
102422
102428
102432
102427
102421
102415
102408
102399
102388
102377
102366
102359
102358
102364
102374
102389
102409
102433
102461
102494
102531
102568
102602
102627
102652
102674
102692
102704
102711
102375
102379
102382
102383
102374
102367
102359
102349
102336
102319
102298
102278
102266
102266
102273
102284
102300
102321
102347
102376
102408
102445
102483
102516
102542
102568
102591
102609
102622
102634
102320
102318
102318
102316
102311
102305
102296
102284
102269
102243
102207
102170
102164
102167
102176
102189
102207
102230
102257
102288
102321
102359
102397
102430
102456
102481
102501
102516
102524
102535
102248
102245
102245
102244
102240
102236
102231
102223
102202
102158
102117
102100
102098
102101
102105
102113
102124
102143
102167
102198
102234
102272
102312
102346
102371
102393
102411
102423
102430
102435
102172
102171
102173
102175
102176
102174
102169
102162
102137
102092
102073
102071
102071
102071
102072
102074
102077
102083
102094
102115
102147
102186
102228
102265
102290
102310
102325
102335
102341
102343
102102
102104
102108
102114
102118
102119
102116
102106
102079
102059
102055
102055
102055
102055
102055
102056
102056
102057
102059
102064
102077
102107
102147
102187
102214
102231
102243
102252
102259
102260
102041
102044
102050
102058
102064
102067
102067
102060
102047
102041
102041
102042
102042
102042
102042
102042
102042
102043
102043
102043
102046
102055
102080
102115
102143
102159
102169
102176
102183
102185
101985
101989
101996
102003
102008
102013
102018
102022
102025
102027
102029
102030
102030
102031
102031
102031
102030
102030
102031
102031
102032
102033
102040
102058
102080
102093
102102
102108
102112
102114
101928
101933
101939
101943
101947
101956
101968
101985
102002
102012
102017
102019
102021
102021
102021
102020
102020
102020
102020
102021
102021
102019
102017
102019
102026
102032
102038
102042
102045
102046
101869
101874
101877
101880
101886
101897
101916
101941
101969
101990
102001
102006
102009
102010
102010
102010
102009
102009
102009
102009
102007
102002
101993
101983
101976
101973
101974
101976
101979
101980
101806
101810
101812
101817
101826
101841
101860
101882
101911
101941
101963
101976
101984
101988
101991
101993
101993
101993
101991
101988
101982
101971
101956
101938
101923
101913
101910
101908
101910
101911
101741
101744
101747
101752
101761
101768
101776
101788
101807
101831
101858
101884
101908
101928
101945
101955
101959
101958
101952
101942
101929
101914
101898
101879
101862
101850
101842
101838
101837
101838
101676
101676
101676
101676
101675
101672
101669
101670
101679
101696
101720
101749
101781
101813
101842
101866
101879
101881
101874
101861
101847
101834
101821
101809
101795
101783
101772
101766
101763
101762
101606
101602
101596
101587
101578
101565
101553
101549
101553
101565
101585
101612
101647
101684
101717
101744
101761
101768
101767
101760
101751
101742
101735
101729
101722
101713
101702
101694
101689
101686
101527
101519
101508
101495
101477
101460
101448
101447
101452
101463
101479
101502
101533
101567
101599
101624
101641
101650
101654
101653
101649
101646
101643
101641
101641
101639
101631
101621
101614
101611
101440
101432
101419
101402
101384
101372
101371
101376
101382
101391
101403
101421
101444
101471
101496
101515
101528
101536
101541
101543
101544
101545
101546
101548
101553
101556
101556
101549
101540
101537
101352
101345
101332
101316
101307
101308
101314
101321
101327
101334
101342
101355
101372
101390
101405
101415
101422
101425
101428
101431
101435
101440
101445
101451
101459
101467
101472
101472
101465
101460
101269
101262
101251
101244
101247
101253
101261
101268
101274
101280
101286
101295
101306
101313
101317
101318
101317
101316
101315
101317
101324
101332
101341
101351
101361
101372
101382
101387
101387
101380
101191
101187
101183
101184
101192
101200
101207
101213
101220
101226
101233
101239
101239
101233
101227
101220
101213
101207
101202
101202
101210
101222
101236
101249
101262
101275
101287
101296
101301
101297
101120
101120
101123
101130
101138
101145
101152
101159
101166
101174
101182
101179
101164
101149
101135
101123
101113
101103
101097
101098
101101
101113
101129
101146
101162
101176
101190
101202
101210
101211
101055
101057
101067
101073
101081
101089
101096
101106
101115
101125
101125
101103
101081
101061
101045
101032
101021
101013
101011
101011
101012
101016
101028
101045
101062
101078
101092
101105
101115
101120
100991
100996
101007
101015
101023
101033
101044
101055
101064
101062
101040
101015
100992
100974
100961
100951
100944
100939
100938
100937
100936
100934
100938
100949
100965
100981
100995
101008
101018
101025
100929
100937
100947
100958
100967
100979
100990
100996
100989
100968
100944
100921
100903
100892
100885
100880
100876
100874
100872
100869
100867
100863
100860
100861
100872
100886
100899
100911
100920
100927
100872
100881
100890
100901
100911
100917
100915
100903
100885
100863
100842
100828
100820
100816
100814
100814
100813
100812
100808
100805
100801
100797
100789
100784
100785
100794
100805
100815
100823
100828
100815
100823
100832
100839
100839
100828
100812
100793
100773
100755
100743
100739
100739
100742
100744
100747
100748
100748
100746
100742
100739
100736
100725
100711
100705
100707
100714
100722
100728
100732
100752
100758
100761
100755
100740
100721
100699
100678
100663
100654
100653
100656
100661
100667
100672
100677
100680
100682
100681
100679
100676
100675
100663
100644
100630
100625
100626
100630
100634
100637
100679
100678
100668
100652
100632
100609
100587
100572
100567
100568
100574
100580
100587
100593
100600
100606
100610
100613
100614
100613
100610
100603
100593
100579
100561
100549
100542
100541
100542
100543
100590
100581
100564
100546
100523
100502
100493
100490
100492
100499
100506
100512
100518
100524
100530
100535
100540
100543
100544
100543
100537
100525
100515
100507
100494
100476
100463
100455
100451
100451
100486
100475
100459
100440
100421
100415
100417
100423
100430
100438
100445
100451
100455
100459
100463
100468
100471
100474
100474
100472
100463
100448
100435
100429
100419
100403
100385
100371
100362
100358
100377
100368
100355
100341
100335
100340
100350
100360
100370
100379
100386
100391
100395
100398
100400
100403
100405
100406
100406
100402
100392
100377
100361
100351
100340
100325
100306
100287
100272
100265
100269
100262
100255
100254
100260
100272
100285
100298
100311
100321
100328
100332
100336
100338
100339
100341
100341
100341
100340
100335
100326
100312
100294
100279
100264
100245
100222
100199
100179
100167
100165
100160
100164
100178
100193
100208
100224
100239
100253
100262
100268
100273
100276
100278
100280
100280
100280
100279
100277
100273
100265
100252
100234
100215
100194
100165
100135
100109
100086
100069
100070
100067
100081
100105
100128
100147
100165
100182
100194
100203
100209
100213
100217
100220
100221
100222
100221
100219
100216
100212
100205
100195
100179
100157
100129
100095
100065
100042
100028
100021
100021
100020
100025
100038
100064
100089
100110
100126
100137
100144
100150
100155
100159
100162
100164
100166
100165
100163
100159
100154
100148
100140
100127
100104
100075
100045
100024
100014
100010
100009
100010
100009
100010
100012
100018
100032
100054
100071
100082
100088
100093
100097
100102
100106
100109
100112
100112
100110
100105
100100
100094
100088
100078
100061
100037
100017
100009
100007
100007
100007
100008
100008
100008
100008
100008
100011
100016
100025
100034
100038
100041
100044
100049
100053
100056
100059
100063
100061
100055
100050
100045
100039
100033
100024
100012
100007
100006
100006
100007
100007
100008
100008
100008
100008
100008
100007
100008
100009
100011
100012
100013
100014
100015
100016
100017
100019
100025
100022
100018
100016
100014
100011
100009
100007
100006
100006
100006
100006
100007
100007
100008
100008
100008
100008
100008
100008
100007
100007
100007
100007
100007
100007
100007
100007
100006
100006
100007
100007
100006
100005
100005
100005
100005
100005
100005
100005
100006
100006
100006
100006
100008
100008
100008
100008
100008
100008
100008
100007
100007
100007
100007
100007
100006
100006
100005
100005
100004
100004
100004
100004
100004
100004
100004