/*--------------------------------*- C++ -*----------------------------------*\
| =========                 |                                                 |
| \\      /  F ield         | OpenFOAM: The Open Source CFD Toolbox           |
|  \\    /   O peration     | Version:  2.3.0                                 |
|   \\  /    A nd           | Web:      www.OpenFOAM.org                      |
|    \\/     M anipulation  |                                                 |
\*---------------------------------------------------------------------------*/
FoamFile
{
    version     2.0;
    format      ascii;
    class       surfaceScalarField;
    location    "64";
    object      phi;
}
// * * * * * * * * * * * * * * * * * * * * * * * * * * * * * * * * * * * * * //

dimensions      [0 3 -1 0 0 0 0];

internalField   nonuniform List<scalar> 
3650
(
3.31155e-05
1.89857e-06
7.67715e-05
-8.64547e-06
0.000126124
-1.43444e-05
0.00017487
-1.37366e-05
0.000220392
-1.05118e-05
0.00026098
-5.57552e-06
0.000295722
2.72309e-07
0.000324044
6.69443e-06
0.000345584
1.3477e-05
0.000360037
2.05656e-05
0.000367199
2.78571e-05
0.00036717
3.50485e-05
0.000359069
4.3122e-05
0.000342069
5.20211e-05
0.000317406
5.96845e-05
0.000286402
6.60257e-05
0.000251301
7.01239e-05
0.000214446
7.18759e-05
0.000178234
7.12333e-05
0.000144836
6.84174e-05
0.000115261
6.45923e-05
8.88667e-05
6.1411e-05
6.16061e-05
6.22776e-05
2.93079e-05
6.73177e-05
6.4325e-05
5.34166e-05
-5.14894e-05
9.78107e-05
-5.30141e-05
0.000137337
-5.38475e-05
0.000173684
-5.006e-05
0.000206676
-4.34788e-05
0.00023617
-3.50423e-05
0.000261823
-2.53522e-05
0.000283233
-1.46845e-05
0.000299904
-3.16026e-06
0.000311344
9.16084e-06
0.000316639
2.26001e-05
0.000315005
3.67239e-05
0.000308058
5.01128e-05
0.00029586
6.42666e-05
0.000277677
7.79179e-05
0.000253799
8.99573e-05
0.000225362
9.86167e-05
0.000194593
0.000102699
0.000162959
0.000102921
0.000131586
9.98419e-05
0.000101209
9.50171e-05
7.25272e-05
9.01383e-05
4.56992e-05
8.91514e-05
2.13634e-05
9.17027e-05
8.57339e-05
4.63708e-05
-9.78472e-05
8.72302e-05
-9.38603e-05
0.000119567
-8.61708e-05
0.000146566
-7.70453e-05
0.000169506
-6.64029e-05
0.000188844
-5.43633e-05
0.000204571
-4.10599e-05
0.000216688
-2.67794e-05
0.000225245
-1.16933e-05
0.000230384
4.04926e-06
0.000232725
2.02889e-05
0.000232101
3.7381e-05
0.000226701
5.55515e-05
0.000216967
7.40431e-05
0.000202714
9.22198e-05
0.000183947
0.000108778
0.000160637
0.000121983
0.000135561
0.000127834
0.00011019
0.000128349
8.61131e-05
0.000123973
6.42553e-05
0.000116925
4.46446e-05
0.000109796
2.73849e-05
0.000106457
1.35852e-05
0.000105551
9.93629e-05
3.01425e-05
-0.000127983
5.60438e-05
-0.000119754
7.63065e-05
-0.000106425
9.34838e-05
-9.42124e-05
0.000107943
-8.08503e-05
0.000119408
-6.58141e-05
0.000127631
-4.92662e-05
0.000132429
-3.15576e-05
0.000134168
-1.34095e-05
0.000133107
5.13556e-06
0.000129197
2.42288e-05
0.000122857
4.37558e-05
0.000114681
6.37665e-05
0.000104641
8.41288e-05
9.27732e-05
0.00010414
7.92869e-05
0.000122324
6.50984e-05
0.000136237
5.11869e-05
0.000141812
3.83437e-05
0.000141258
2.72876e-05
0.00013509
1.8252e-05
0.000126017
1.09281e-05
0.000117171
5.52389e-06
0.000111912
1.9607e-06
0.000109165
0.00010137
1.21327e-05
-0.000140113
2.18772e-05
-0.000129495
2.85768e-05
-0.000113119
3.46774e-05
-0.000100306
3.88542e-05
-8.50185e-05
4.05323e-05
-6.74813e-05
3.96968e-05
-4.8417e-05
3.63963e-05
-2.824e-05
3.09485e-05
-7.94098e-06
2.37854e-05
1.23231e-05
1.52942e-05
3.27489e-05
5.68523e-06
5.33984e-05
-4.58515e-06
7.4076e-05
-1.48817e-05
9.44711e-05
-2.4228e-05
0.000113539
-3.12553e-05
0.000129412
-3.45169e-05
0.000139565
-3.51944e-05
0.000142557
-3.32866e-05
0.000139416
-2.95032e-05
0.000131368
-2.4641e-05
0.00012121
-1.92741e-05
0.000111854
-1.29099e-05
0.000105596
-5.89241e-06
0.000102197
9.55225e-05
-2.38161e-06
-0.000137731
-7.27558e-06
-0.000124599
-1.37266e-05
-0.000106664
-1.98014e-05
-9.42264e-05
-2.78323e-05
-7.69803e-05
-3.79644e-05
-5.73391e-05
-4.9567e-05
-3.68011e-05
-6.20112e-05
-1.57785e-05
-7.49665e-05
5.03589e-06
-8.79698e-05
2.53525e-05
-0.000100505
4.5315e-05
-0.000111943
6.48729e-05
-0.000121477
8.3652e-05
-0.000127871
0.000100915
-0.000129645
0.000115369
-0.000125823
0.000125653
-0.000116888
0.000130695
-0.000104184
0.000129918
-8.89297e-05
0.000124224
-7.27632e-05
0.000115259
-5.69324e-05
0.000105431
-4.1897e-05
9.68665e-05
-2.70219e-05
9.07666e-05
-1.22215e-05
8.74422e-05
8.33439e-05
-1.42604e-05
-0.000123471
-3.21692e-05
-0.000106688
-5.03828e-05
-8.8446e-05
-6.87589e-05
-7.58444e-05
-8.932e-05
-5.64107e-05
-0.000110916
-3.5731e-05
-0.000132492
-1.52091e-05
-0.000153023
4.77346e-06
-0.000171703
2.37406e-05
-0.000187802
4.14821e-05
-0.000200487
5.80359e-05
-0.000208828
7.3255e-05
-0.000211912
8.67824e-05
-0.000208856
9.7912e-05
-0.000199415
0.000105985
-0.000184015
0.000110312
-0.000164034
0.000110776
-0.000140909
0.000106852
-0.000116701
0.000100071
-9.32113e-05
9.18195e-05
-7.14016e-05
8.36671e-05
-5.128e-05
7.67882e-05
-3.22889e-05
7.18171e-05
-1.43223e-05
6.95173e-05
6.90628e-05
-2.3117e-05
-0.000100354
-5.15091e-05
-7.82915e-05
-7.97401e-05
-6.0207e-05
-0.00010916
-4.64152e-05
-0.000139892
-2.56652e-05
-0.00016971
-5.89489e-06
-0.00019734
1.24428e-05
-0.000221367
2.88283e-05
-0.000240429
4.28341e-05
-0.000253799
5.48894e-05
-0.000260996
6.52741e-05
-0.00026153
7.38344e-05
-0.000255149
8.04513e-05
-0.000242194
8.50091e-05
-0.000223415
8.726e-05
-0.000199876
8.68282e-05
-0.000172917
8.38698e-05
-0.000144756
7.87427e-05
-0.000117308
7.26701e-05
-9.18618e-05
6.64167e-05
-6.88948e-05
6.07413e-05
-4.81973e-05
5.61299e-05
-2.9443e-05
5.31006e-05
-1.28523e-05
5.29644e-05
5.62501e-05
-3.03198e-05
-7.00322e-05
-6.64541e-05
-4.21472e-05
-0.000101572
-2.50752e-05
-0.000137483
-1.04872e-05
-0.000172173
9.04666e-06
-0.000203607
2.55662e-05
-0.000230467
3.93342e-05
-0.000251505
4.99016e-05
-0.000266251
5.76193e-05
-0.000274058
6.27386e-05
-0.000274607
6.58674e-05
-0.000268024
6.72987e-05
-0.000254804
6.72792e-05
-0.00023576
6.60146e-05
-0.000211916
6.34644e-05
-0.000184796
5.97557e-05
-0.000156177
5.52962e-05
-0.000127993
5.06013e-05
-0.000101522
4.62393e-05
-7.75686e-05
4.25013e-05
-5.64327e-05
3.96419e-05
-3.80761e-05
3.78084e-05
-2.24313e-05
3.74901e-05
-9.71835e-06
4.02865e-05
4.65704e-05
-3.58874e-05
-3.41399e-05
-7.67281e-05
-1.28793e-06
-0.000114548
1.27686e-05
-0.00015059
2.55806e-05
-0.000183206
4.16957e-05
-0.000211251
5.36482e-05
-0.000233657
6.17804e-05
-0.000249712
6.59982e-05
-0.000259135
6.70873e-05
-0.000261703
6.53516e-05
-0.000257455
6.16649e-05
-0.00024656
5.64501e-05
-0.000229981
5.07451e-05
-0.000208865
4.49411e-05
-0.000184568
3.92093e-05
-0.000158592
3.38196e-05
-0.000132357
2.9098e-05
-0.00010702
2.53005e-05
-8.33451e-05
2.25982e-05
-6.19051e-05
2.10944e-05
-4.31114e-05
2.08807e-05
-2.73183e-05
2.20472e-05
-1.48339e-05
2.50374e-05
-5.91944e-06
3.14053e-05
4.06887e-05
-3.72681e-05
3.13908e-06
-7.59687e-05
3.74419e-05
-0.000112506
4.93391e-05
-0.000145343
5.84542e-05
-0.000174039
7.04343e-05
-0.000198058
7.77128e-05
-0.000216708
8.04774e-05
-0.000229421
7.87591e-05
-0.000235403
7.31179e-05
-0.000234397
6.43921e-05
-0.000227219
5.45313e-05
-0.000215208
4.44817e-05
-0.000199325
3.49018e-05
-0.000180514
2.61671e-05
-0.000159828
1.85577e-05
-0.000138229
1.2254e-05
-0.00011645
7.35014e-06
-9.50213e-05
3.90139e-06
-7.43666e-05
1.97266e-06
-5.49235e-05
1.68001e-06
-3.72189e-05
3.20472e-06
-2.19548e-05
6.81191e-06
-9.93603e-06
1.30481e-05
-2.41194e-06
2.39134e-05
3.83145e-05
-3.4014e-05
3.71713e-05
-6.62811e-05
6.97492e-05
-9.79936e-05
8.10949e-05
-0.000127317
8.78242e-05
-0.000152688
9.5856e-05
-0.000173553
9.8631e-05
-0.000189401
9.63787e-05
-0.000199635
8.90453e-05
-0.000203754
7.72869e-05
-0.000202325
6.30088e-05
-0.000196371
4.8619e-05
-0.000186908
3.50574e-05
-0.000174842
2.28703e-05
-0.000161003
1.23596e-05
-0.000145981
3.56521e-06
-0.000130122
-3.57738e-06
-0.000113594
-9.15076e-06
-9.64995e-05
-1.31681e-05
-7.89601e-05
-1.55419e-05
-6.11767e-05
-1.60789e-05
-4.35509e-05
-1.43963e-05
-2.68091e-05
-9.9047e-06
-1.19822e-05
-1.75226e-06
-2.15302e-06
1.41147e-05
3.62e-05
-2.81487e-05
6.53449e-05
-5.51561e-05
9.68067e-05
-8.11299e-05
0.000107121
-0.000106004
0.000112754
-0.000127583
0.000117494
-0.00014539
0.000116497
-0.000158803
0.00010985
-0.000167138
9.74348e-05
-0.000170669
8.0868e-05
-0.00017054
6.2924e-05
-0.000167518
4.56361e-05
-0.000162368
2.9942e-05
-0.000155772
1.63055e-05
-0.000148109
4.72458e-06
-0.000139476
-5.04163e-06
-0.000129825
-1.32039e-05
-0.000119037
-1.99155e-05
-0.00010695
-2.5233e-05
-9.34479e-05
-2.90223e-05
-7.84901e-05
-3.10159e-05
-6.21835e-05
-3.0682e-05
-4.48173e-05
-2.72495e-05
-2.75839e-05
-1.89627e-05
-1.31246e-05
-3.1607e-07
2.31135e-05
-2.16797e-05
8.70544e-05
-4.2853e-05
0.000118038
-6.32876e-05
0.000127615
-8.28449e-05
0.000132373
-9.98767e-05
0.00013459
-0.000114319
0.000131003
-0.00012526
0.000120853
-0.000132392
0.000104623
-0.000136531
8.50559e-05
-0.000138611
6.50464e-05
-0.000139302
4.63641e-05
-0.00013901
2.96831e-05
-0.000137848
1.51728e-05
-0.000135727
2.63038e-06
-0.000132552
-8.19179e-06
-0.000128181
-1.75521e-05
-0.00012246
-2.56152e-05
-0.000115229
-3.24441e-05
-0.00010624
-3.79917e-05
-9.52734e-05
-4.19647e-05
-8.19924e-05
-4.39453e-05
-6.60561e-05
-4.3168e-05
-4.83936e-05
-3.66058e-05
-2.76665e-05
-2.10176e-05
-4.51892e-06
-1.4451e-05
0.000101538
-2.88984e-05
0.000132549
-4.30104e-05
0.000141792
-5.6732e-05
0.000146162
-6.89688e-05
0.000146895
-7.97698e-05
0.000141871
-8.83661e-05
0.000129513
-9.49093e-05
0.000111223
-0.000100241
9.04361e-05
-0.000104869
6.97174e-05
-0.000108899
5.04304e-05
-0.000112347
3.31642e-05
-0.000115022
1.78762e-05
-0.000116711
4.34588e-06
-0.000117276
-7.60202e-06
-0.000116615
-1.81914e-05
-0.000114656
-2.75537e-05
-0.00011135
-3.57308e-05
-0.000106558
-4.27662e-05
-9.98849e-05
-4.86213e-05
-9.09752e-05
-5.28395e-05
-7.90642e-05
-5.50637e-05
-6.21677e-05
-5.34856e-05
-3.58188e-05
-4.73451e-05
-4.03113e-05
-6.72368e-06
0.000108297
-1.34593e-05
0.000139351
-2.05578e-05
0.000148959
-2.78434e-05
0.000153518
-3.47859e-05
0.000153908
-4.1532e-05
0.000148687
-4.80231e-05
0.000136069
-5.42823e-05
0.000117539
-6.05923e-05
9.67952e-05
-6.69541e-05
7.61218e-05
-7.30526e-05
5.65662e-05
-7.86265e-05
3.87712e-05
-8.34748e-05
2.27542e-05
-8.74467e-05
8.34459e-06
-9.03575e-05
-4.66685e-06
-9.21044e-05
-1.64223e-05
-9.26836e-05
-2.69544e-05
-9.21182e-05
-3.62778e-05
-9.04629e-05
-4.44045e-05
-8.75213e-05
-5.15473e-05
-8.28974e-05
-5.74488e-05
-7.54816e-05
-6.24653e-05
-6.18728e-05
-6.70796e-05
-3.6062e-05
-7.31394e-05
-7.63557e-05
1.13198e-06
0.000107199
2.70317e-06
0.000137846
3.36705e-06
0.000148364
3.09243e-06
0.000153863
1.96296e-06
0.000155109
-3.44496e-07
0.000151064
-4.41989e-06
0.000140209
-9.97623e-06
0.000123153
-1.64769e-05
0.000103346
-2.34799e-05
8.31684e-05
-3.06544e-05
6.37789e-05
-3.75775e-05
4.57284e-05
-4.39453e-05
2.91525e-05
-4.9506e-05
1.39328e-05
-5.4031e-05
-1.17011e-07
-5.74216e-05
-1.30094e-05
-5.97154e-05
-2.46404e-05
-6.10212e-05
-3.49536e-05
-6.13438e-05
-4.40652e-05
-6.04034e-05
-5.24724e-05
-5.75339e-05
-6.03041e-05
-5.21835e-05
-6.78024e-05
-4.36992e-05
-7.55515e-05
-2.59941e-05
-9.08332e-05
-0.00010234
7.94049e-06
9.92913e-05
1.8614e-05
0.000127235
2.75133e-05
0.000139531
3.45191e-05
0.000146925
3.95965e-05
0.000150101
4.23523e-05
0.000148377
4.17881e-05
0.000140839
3.79125e-05
0.000127087
3.18182e-05
0.000109492
2.44634e-05
9.05682e-05
1.64642e-05
7.1818e-05
8.34592e-06
5.38822e-05
5.04224e-07
3.7026e-05
-6.74764e-06
2.12132e-05
-1.31499e-05
6.31078e-06
-1.8522e-05
-7.61436e-06
-2.27782e-05
-2.03637e-05
-2.59172e-05
-3.17961e-05
-2.77766e-05
-4.21891e-05
-2.79842e-05
-5.22497e-05
-2.62239e-05
-6.20509e-05
-2.26124e-05
-7.14018e-05
-1.8984e-05
-7.91697e-05
-1.26561e-05
-9.7154e-05
-0.000114991
1.36937e-05
8.563e-05
3.2649e-05
0.000108335
4.94447e-05
0.000122797
6.34984e-05
0.000132937
7.48978e-05
0.000138768
8.31582e-05
0.000140184
8.72988e-05
0.000136763
8.65561e-05
0.00012789
8.18028e-05
0.000114299
7.44877e-05
9.79307e-05
6.5745e-05
8.06027e-05
5.63354e-05
6.33293e-05
4.6779e-05
4.66159e-05
3.74531e-05
3.05692e-05
2.86504e-05
1.51402e-05
2.06611e-05
3.98861e-07
1.37638e-05
-1.34452e-05
8.17621e-06
-2.61894e-05
4.11997e-06
-3.81158e-05
1.54545e-06
-4.96602e-05
3.90284e-07
-6.08828e-05
5.4147e-07
-7.15417e-05
1.0557e-08
-7.86293e-05
-2.49019e-06
-9.46477e-05
-0.000117478
1.70463e-05
6.86157e-05
4.10357e-05
8.43928e-05
6.43854e-05
9.95028e-05
8.49585e-05
0.000112424
0.000102414
0.000121375
0.000116272
0.00012639
0.000125828
0.000127271
0.000130001
0.000123777
0.000128577
0.000115779
0.0001227
0.000103859
0.000113873
8.94743e-05
0.000103286
7.39569e-05
9.1886e-05
5.80516e-05
8.02645e-05
4.22229e-05
6.88169e-05
2.66166e-05
5.79126e-05
1.13287e-05
4.79436e-05
-3.45354e-06
3.92661e-05
-1.74918e-05
3.20348e-05
-3.08669e-05
2.60378e-05
-4.36479e-05
2.10112e-05
-5.58432e-05
1.66009e-05
-6.71206e-05
1.2097e-05
-7.41157e-05
4.41029e-06
-8.69548e-05
-0.000113066
1.77518e-05
5.08956e-05
4.28643e-05
5.93195e-05
7.00105e-05
7.24034e-05
9.56149e-05
8.68726e-05
0.000118269
9.87778e-05
0.000137312
0.000107407
0.000152064
0.000112579
0.000161729
0.000114173
0.000165544
0.000112023
0.00016341
0.000106047
0.000156432
9.65016e-05
0.000145715
8.47187e-05
0.000132746
7.10604e-05
0.000118764
5.62408e-05
0.000104602
4.08099e-05
9.07819e-05
2.51772e-05
7.77152e-05
9.63802e-06
6.57691e-05
-5.52382e-06
5.50603e-05
-2.01391e-05
4.54673e-05
-3.40385e-05
3.66662e-05
-4.70282e-05
2.80728e-05
-5.85156e-05
1.97725e-05
-6.58046e-05
9.29207e-06
-7.64663e-05
-0.000103773
1.59486e-05
3.49783e-05
3.9078e-05
3.6223e-05
6.64459e-05
4.50736e-05
9.46506e-05
5.8713e-05
0.000121056
7.24228e-05
0.000144325
8.41925e-05
0.000163564
9.33965e-05
0.00017805
9.97436e-05
0.000187207
0.000102924
0.000190454
0.000102856
0.000187476
9.95324e-05
0.000178833
9.34105e-05
0.000165788
8.41506e-05
0.000150092
7.19773e-05
0.000133486
5.74518e-05
0.000116993
4.17021e-05
0.00010114
2.55187e-05
8.62856e-05
9.35518e-06
7.25827e-05
-6.41489e-06
5.99488e-05
-2.13863e-05
4.81455e-05
-3.52092e-05
3.65456e-05
-4.69025e-05
2.54341e-05
-5.46807e-05
1.27777e-05
-6.37993e-05
-9.09918e-05
1.13442e-05
2.36656e-05
3.08102e-05
1.67853e-05
5.56622e-05
2.02524e-05
8.37261e-05
3.06854e-05
0.000111922
4.42693e-05
0.000138019
5.81427e-05
0.000160578
7.08893e-05
0.000178608
8.17667e-05
0.000191454
9.01334e-05
0.000198718
9.56478e-05
0.000200004
9.83014e-05
0.000195604
9.78624e-05
0.000185834
9.39702e-05
0.00017151
8.63479e-05
0.000154364
7.46401e-05
0.000136037
6.00657e-05
0.000117845
4.37438e-05
0.000100525
2.67029e-05
8.44136e-05
9.72112e-06
6.95325e-05
-6.48417e-06
5.57032e-05
-2.1362e-05
4.22656e-05
-3.34495e-05
2.928e-05
-4.16802e-05
1.51285e-05
-4.96345e-05
-7.58584e-05
5.09661e-06
1.86011e-05
2.03978e-05
1.50926e-06
4.14e-05
-7.2452e-07
6.6929e-05
5.18525e-06
9.45231e-05
1.6709e-05
0.000121533
3.11719e-05
0.000145859
4.66081e-05
0.00016602
6.16542e-05
0.000181038
7.5168e-05
0.000190462
8.62785e-05
0.000194399
9.44194e-05
0.000193596
9.87198e-05
0.000188183
9.94355e-05
0.000178128
9.64544e-05
0.000163544
8.92735e-05
0.000145866
7.77879e-05
0.000126842
6.28068e-05
0.000107961
4.56166e-05
9.0116e-05
2.75948e-05
7.36651e-05
9.99118e-06
5.86193e-05
-6.29538e-06
4.43867e-05
-1.9199e-05
3.04489e-05
-2.77248e-05
1.57426e-05
-3.49118e-05
-6.01086e-05
4.56512e-06
1.40688e-05
1.57129e-05
-9.61554e-06
3.181e-05
-1.68004e-05
5.21458e-05
-1.51275e-05
7.5836e-05
-6.95469e-06
0.000100682
6.35776e-06
0.000124338
2.29887e-05
0.000144856
4.11789e-05
0.000160816
5.92556e-05
0.000171543
7.56043e-05
0.000176797
8.9221e-05
0.000177392
9.81793e-05
0.000174008
0.000102875
0.000166962
0.000103555
0.000156073
0.000100216
0.000141697
9.22153e-05
0.000124757
7.97921e-05
0.000106647
6.37657e-05
8.87362e-05
4.55399e-05
7.19038e-05
2.68523e-05
5.65834e-05
9.04912e-06
4.26311e-05
-5.2261e-06
2.8942e-05
-1.40152e-05
1.47606e-05
-2.07105e-05
-4.53386e-05
8.19179e-06
5.9096e-06
1.63695e-05
-1.77713e-05
2.82878e-05
-2.87003e-05
4.27543e-05
-2.95748e-05
6.01925e-05
-2.43716e-05
7.97194e-05
-1.31442e-05
9.95991e-05
3.13895e-06
0.000117852
2.29619e-05
0.000132753
4.43977e-05
0.000143198
6.52085e-05
0.000148587
8.38856e-05
0.000149414
9.74083e-05
0.000146855
0.000105491
0.000141466
0.000109003
0.000133628
0.00010811
0.000123169
0.00010273
0.000110341
9.26714e-05
9.56102e-05
7.85423e-05
8.00005e-05
6.11894e-05
6.46191e-05
4.22673e-05
5.02757e-05
2.34205e-05
3.77383e-05
7.3346e-06
2.54319e-05
-1.68544e-06
1.28159e-05
-8.07116e-06
-3.25112e-05
9.73763e-06
-3.79687e-06
1.634e-05
-2.43522e-05
2.58347e-05
-3.81788e-05
3.60533e-05
-3.97765e-05
4.74855e-05
-3.57858e-05
6.03884e-05
-2.60267e-05
7.42426e-05
-1.06906e-05
8.77507e-05
9.48429e-06
9.93355e-05
3.28505e-05
0.000107743
5.68461e-05
0.000112353
7.93285e-05
0.000113014
9.68035e-05
0.000111179
0.000107384
0.000107405
0.000112836
0.000102021
0.000113554
9.50649e-05
0.000109744
8.66094e-05
0.000101182
7.66296e-05
8.85724e-05
6.52262e-05
7.26375e-05
5.31158e-05
5.44161e-05
4.11686e-05
3.53996e-05
3.08998e-05
1.76294e-05
2.06702e-05
8.57019e-06
1.03347e-05
2.29059e-06
-2.21633e-05
1.09972e-05
-1.47654e-05
1.62997e-05
-2.96336e-05
2.27804e-05
-4.46448e-05
2.95035e-05
-4.64848e-05
3.61102e-05
-4.23764e-05
4.29683e-05
-3.28668e-05
5.02514e-05
-1.79523e-05
5.76558e-05
2.1065e-06
6.42199e-05
2.632e-05
6.88812e-05
5.22268e-05
7.12474e-05
7.7013e-05
7.15465e-05
9.65607e-05
7.06672e-05
0.000108322
6.87521e-05
0.000114812
6.60248e-05
0.000116342
6.26334e-05
0.000113195
5.84488e-05
0.000105423
5.33269e-05
9.37473e-05
4.69734e-05
7.9039e-05
3.93771e-05
6.20544e-05
3.1079e-05
4.37331e-05
2.33879e-05
2.53489e-05
1.5251e-05
1.67354e-05
7.52784e-06
1.00426e-05
-1.46209e-05
1.25411e-05
-2.72812e-05
1.72404e-05
-3.43124e-05
1.84338e-05
-4.58239e-05
2.14538e-05
-4.94912e-05
2.3949e-05
-4.48567e-05
2.59483e-05
-3.48493e-05
2.75434e-05
-1.95276e-05
2.88665e-05
8.08062e-07
2.97353e-05
2.54827e-05
2.99028e-05
5.20995e-05
2.96029e-05
7.73625e-05
2.96986e-05
9.65211e-05
2.98646e-05
0.000108215
3.01174e-05
0.00011462
3.0373e-05
0.000116148
3.06529e-05
0.000112976
3.06046e-05
0.000105529
2.99096e-05
9.44963e-05
2.83194e-05
8.06784e-05
2.55129e-05
6.49048e-05
2.1564e-05
4.77196e-05
1.67547e-05
3.01885e-05
9.66417e-06
2.38566e-05
4.53925e-06
1.51981e-05
-1.00663e-05
1.31298e-05
-4.03901e-05
1.70659e-05
-3.82286e-05
1.33911e-05
-4.21336e-05
1.2134e-05
-4.82208e-05
1.08016e-05
-4.35101e-05
8.65827e-06
-3.26895e-05
5.56662e-06
-1.64164e-05
1.67629e-06
4.72282e-06
-2.54997e-06
2.97405e-05
-6.26776e-06
5.58578e-05
-8.27126e-06
7.94159e-05
-8.0702e-06
9.6376e-05
-6.63215e-06
0.000106836
-4.25247e-06
0.000112301
-1.17564e-06
0.000113132
2.36841e-06
0.000109491
5.9131e-06
0.000102042
8.99863e-06
9.14644e-05
1.12678e-05
7.84585e-05
1.24351e-05
6.37819e-05
1.22841e-05
4.79089e-05
1.04289e-05
3.20753e-05
4.79605e-06
2.95224e-05
1.89795e-06
1.8128e-05
-8.15262e-06
1.0742e-05
-5.11156e-05
1.21302e-05
-3.95977e-05
7.51747e-06
-3.75035e-05
2.79592e-06
-4.34852e-05
-1.89929e-06
-3.88005e-05
-7.82878e-06
-2.67432e-05
-1.51365e-05
-9.08818e-06
-2.33978e-05
1.301e-05
-3.13897e-05
3.7766e-05
-3.73486e-05
6.18592e-05
-3.97388e-05
8.18569e-05
-3.89341e-05
9.5627e-05
-3.61871e-05
0.000104147
-3.19095e-05
0.000108083
-2.64889e-05
0.000107771
-2.03982e-05
0.000103459
-1.41879e-05
9.58871e-05
-8.37633e-06
8.5705e-05
-3.38032e-06
7.35107e-05
4.50519e-07
5.99946e-05
2.77345e-06
4.56241e-05
3.12912e-06
3.17517e-05
1.34684e-06
3.13393e-05
4.10831e-07
1.90967e-05
-7.72612e-06
6.06547e-06
-5.71681e-05
4.44223e-06
-3.79556e-05
-2.80269e-08
-3.30142e-05
-6.40869e-06
-3.70892e-05
-1.38567e-05
-3.13372e-05
-2.32921e-05
-1.72897e-05
-3.43812e-05
2.02345e-06
-4.58606e-05
2.45186e-05
-5.5568e-05
4.75105e-05
-6.14904e-05
6.7827e-05
-6.29855e-05
8.34036e-05
-6.13111e-05
9.40077e-05
-5.73289e-05
0.000100222
-5.15877e-05
0.0001024
-4.45088e-05
0.000100749
-3.6692e-05
9.56979e-05
-2.87364e-05
8.79849e-05
-2.11402e-05
7.8159e-05
-1.43207e-05
6.67375e-05
-8.64989e-06
5.43659e-05
-4.59841e-06
4.16099e-05
-2.77237e-06
2.99579e-05
-1.3063e-06
2.99081e-05
-1.19892e-07
1.79434e-05
-7.83017e-06
6.2798e-07
-5.77855e-05
-3.37308e-06
-3.39352e-05
-8.49984e-06
-2.78669e-05
-1.60658e-05
-2.95065e-05
-2.59608e-05
-2.14254e-05
-3.84413e-05
-4.78847e-06
-5.19707e-05
1.55792e-05
-6.42459e-05
3.68275e-05
-7.30198e-05
5.63256e-05
-7.72915e-05
7.21461e-05
-7.75816e-05
8.37452e-05
-7.50459e-05
9.15263e-05
-7.01838e-05
9.54159e-05
-6.34896e-05
9.57614e-05
-5.5468e-05
9.27827e-05
-4.67425e-05
8.70258e-05
-3.78495e-05
7.91427e-05
-2.92171e-05
6.95743e-05
-2.12318e-05
5.87964e-05
-1.43061e-05
4.74805e-05
-9.12746e-06
3.64673e-05
-6.33422e-06
2.71971e-05
-3.25711e-06
2.68653e-05
6.54224e-08
1.46532e-05
-7.7479e-06
-4.17587e-06
-5.36001e-05
-1.00376e-05
-2.80532e-05
-1.60035e-05
-2.18797e-05
-2.51506e-05
-2.03414e-05
-3.76075e-05
-8.94913e-06
-5.19801e-05
9.60889e-06
-6.54727e-05
2.91033e-05
-7.59369e-05
4.73302e-05
-8.23195e-05
6.27524e-05
-8.48662e-05
7.47414e-05
-8.43714e-05
8.3302e-05
-8.11927e-05
8.8401e-05
-7.58436e-05
9.0121e-05
-6.87517e-05
8.87235e-05
-6.04572e-05
8.45409e-05
-5.15275e-05
7.81467e-05
-4.23744e-05
7.00377e-05
-3.33437e-05
6.05887e-05
-2.48201e-05
5.03145e-05
-1.7342e-05
4.00404e-05
-1.17301e-05
3.08902e-05
-8.5388e-06
2.40382e-05
-4.51459e-06
2.28741e-05
4.74264e-07
9.6949e-06
-7.2551e-06
-7.39074e-06
-4.61998e-05
-1.48383e-05
-2.05842e-05
-2.24807e-05
-1.4215e-05
-3.33027e-05
-9.49941e-06
-4.75419e-05
5.31343e-06
-6.14333e-05
2.35303e-05
-7.26226e-05
4.03289e-05
-8.02855e-05
5.50349e-05
-8.44883e-05
6.70013e-05
-8.57919e-05
7.60943e-05
-8.45837e-05
8.21453e-05
-8.10052e-05
8.48751e-05
-7.55591e-05
8.47277e-05
-6.86043e-05
8.18206e-05
-6.064e-05
7.66269e-05
-5.20721e-05
6.96269e-05
-4.31847e-05
6.11958e-05
-3.42825e-05
5.17289e-05
-2.5827e-05
4.18981e-05
-1.85403e-05
3.27895e-05
-1.30836e-05
2.54669e-05
-9.94065e-06
2.0928e-05
-5.53151e-06
1.84965e-05
2.24154e-07
3.96752e-06
-7.01038e-06
-9.03097e-06
-3.71586e-05
-1.80985e-05
-1.14937e-05
-2.76457e-05
-4.64418e-06
-3.97685e-05
2.64626e-06
-5.35745e-05
1.9148e-05
-6.49532e-05
3.49438e-05
-7.33038e-05
4.87193e-05
-7.87194e-05
6.04945e-05
-8.14819e-05
6.9811e-05
-8.18535e-05
7.65155e-05
-8.00221e-05
8.0365e-05
-7.64255e-05
8.13301e-05
-7.122e-05
7.95733e-05
-6.47839e-05
7.54342e-05
-5.75007e-05
6.93917e-05
-4.96042e-05
6.17761e-05
-4.12981e-05
5.29326e-05
-3.29201e-05
4.33906e-05
-2.50586e-05
3.40731e-05
-1.84371e-05
2.62019e-05
-1.36028e-05
2.0665e-05
-1.06571e-05
1.8015e-05
-6.52925e-06
1.43984e-05
-1.10408e-06
-1.43168e-06
-8.0924e-06
-9.47674e-06
-2.76709e-05
-2.03474e-05
-5.97864e-07
-3.0948e-05
5.98238e-06
-4.30584e-05
1.47834e-05
-5.43581e-05
3.04809e-05
-6.28611e-05
4.3485e-05
-6.89489e-05
5.48492e-05
-7.28046e-05
6.43956e-05
-7.46012e-05
7.16555e-05
-7.44115e-05
7.63754e-05
-7.24524e-05
7.84563e-05
-6.9014e-05
7.79422e-05
-6.42754e-05
7.48843e-05
-5.85879e-05
6.97946e-05
-5.21406e-05
6.29904e-05
-4.50457e-05
5.47247e-05
-3.74947e-05
4.54222e-05
-2.99107e-05
3.58439e-05
-2.29463e-05
2.7143e-05
-1.71034e-05
2.03913e-05
-1.29515e-05
1.65446e-05
-1.00144e-05
1.51106e-05
-6.43976e-06
1.08521e-05
-2.54137e-06
-5.30572e-06
-1.06114e-05
-9.3004e-06
-1.83584e-05
-2.08183e-05
1.09477e-05
-3.1584e-05
1.67771e-05
-4.23094e-05
2.55397e-05
-5.08118e-05
3.902e-05
-5.7128e-05
4.98417e-05
-6.16493e-05
5.94143e-05
-6.43967e-05
6.71893e-05
-6.54882e-05
7.27954e-05
-6.50475e-05
7.59841e-05
-6.31833e-05
7.6642e-05
-5.99955e-05
7.48037e-05
-5.58921e-05
7.08291e-05
-5.10253e-05
6.49744e-05
-4.54362e-05
5.74455e-05
-3.91818e-05
4.85118e-05
-3.24896e-05
3.87684e-05
-2.58497e-05
2.9239e-05
-1.9848e-05
2.11738e-05
-1.47561e-05
1.53302e-05
-1.09889e-05
1.28084e-05
-7.94593e-06
1.21001e-05
-5.13683e-06
8.07032e-06
-3.07656e-06
-7.34213e-06
-1.36659e-05
-8.91574e-06
-9.42941e-06
-1.85166e-05
2.05789e-05
-2.89783e-05
2.72712e-05
-3.78624e-05
3.44579e-05
-4.44107e-05
4.56074e-05
-4.93229e-05
5.47961e-05
-5.27812e-05
6.29175e-05
-5.47778e-05
6.92331e-05
-5.53876e-05
7.34538e-05
-5.4749e-05
7.53949e-05
-5.30073e-05
7.49497e-05
-5.03592e-05
7.22042e-05
-4.69668e-05
6.74839e-05
-4.28921e-05
6.0945e-05
-3.8116e-05
5.27122e-05
-3.26975e-05
4.31331e-05
-2.69124e-05
3.30197e-05
-2.1247e-05
2.3607e-05
-1.61458e-05
1.61035e-05
-1.17403e-05
1.09543e-05
-8.31898e-06
9.41743e-06
-5.42276e-06
9.2358e-06
-3.27254e-06
5.94671e-06
-3.07734e-06
-7.5133e-06
-1.67223e-05
-8.11627e-06
-1.29845e-06
-1.56109e-05
2.81063e-05
-2.41944e-05
3.58902e-05
-3.1344e-05
4.16444e-05
-3.66331e-05
5.09372e-05
-4.05992e-05
5.88056e-05
-4.32985e-05
6.56627e-05
-4.47801e-05
7.07624e-05
-4.51473e-05
7.38698e-05
-4.45486e-05
7.48454e-05
-4.30547e-05
7.35046e-05
-4.08814e-05
7.00788e-05
-3.81279e-05
6.47767e-05
-3.47622e-05
5.76236e-05
-3.07363e-05
4.87279e-05
-2.61311e-05
3.85661e-05
-2.12548e-05
2.81781e-05
-1.65243e-05
1.89082e-05
-1.22457e-05
1.18546e-05
-8.54613e-06
7.28337e-06
-5.63301e-06
6.53401e-06
-3.09983e-06
6.73398e-06
-1.32829e-06
4.20141e-06
-2.91745e-06
-5.89892e-06
-1.962e-05
-6.88764e-06
5.60522e-06
-1.30562e-05
3.43101e-05
-1.90757e-05
4.19475e-05
-2.46348e-05
4.72425e-05
-2.88776e-05
5.52221e-05
-3.20418e-05
6.20142e-05
-3.4143e-05
6.78106e-05
-3.52496e-05
7.19171e-05
-3.54581e-05
7.41271e-05
-3.49166e-05
7.43531e-05
-3.37268e-05
7.23633e-05
-3.20224e-05
6.84217e-05
-2.98491e-05
6.26491e-05
-2.71494e-05
5.49674e-05
-2.38526e-05
4.54717e-05
-2.00755e-05
3.48258e-05
-1.61477e-05
2.42836e-05
-1.24167e-05
1.52076e-05
-9.06137e-06
8.52783e-06
-6.32508e-06
4.57488e-06
-4.12278e-06
4.36076e-06
-2.12941e-06
4.77131e-06
-5.35667e-07
2.63345e-06
-2.32678e-06
-4.08094e-06
-2.19283e-05
-5.49778e-06
1.11202e-05
-1.02847e-05
3.91343e-05
-1.46917e-05
4.63942e-05
-1.88203e-05
5.14118e-05
-2.20294e-05
5.84746e-05
-2.43936e-05
6.44238e-05
-2.59246e-05
6.93887e-05
-2.66856e-05
7.27265e-05
-2.6767e-05
7.42574e-05
-2.62746e-05
7.39097e-05
-2.53293e-05
7.14663e-05
-2.40213e-05
6.71607e-05
-2.23742e-05
6.10473e-05
-2.03175e-05
5.29536e-05
-1.77895e-05
4.29833e-05
-1.49322e-05
3.20043e-05
-1.20612e-05
2.14448e-05
-9.46807e-06
1.26438e-05
-7.23036e-06
6.31781e-06
-5.53155e-06
2.90328e-06
-4.23184e-06
3.08967e-06
-2.9214e-06
3.49104e-06
-1.52861e-06
1.26589e-06
-1.64262e-06
-3.93921e-06
-2.35532e-05
-4.18697e-06
1.53254e-05
-7.78215e-06
4.27683e-05
-1.09758e-05
4.96289e-05
-1.39538e-05
5.44317e-05
-1.62287e-05
6.07936e-05
-1.78426e-05
6.60836e-05
-1.88252e-05
7.0419e-05
-1.92293e-05
7.31791e-05
-1.9162e-05
7.42391e-05
-1.86942e-05
7.34908e-05
-1.79105e-05
7.07307e-05
-1.68982e-05
6.61952e-05
-1.56878e-05
5.98819e-05
-1.42334e-05
5.15416e-05
-1.25595e-05
4.13483e-05
-1.07767e-05
3.02564e-05
-9.07983e-06
1.97792e-05
-7.6791e-06
1.12718e-05
-6.52597e-06
5.19192e-06
-5.61035e-06
2.01459e-06
-4.91101e-06
2.41885e-06
-4.0063e-06
2.61629e-06
-2.74294e-06
2.73959e-08
-1.58509e-06
-5.06933e-06
-2.51212e-05
-3.07359e-06
1.84179e-05
-5.63203e-06
4.53667e-05
-7.88342e-06
5.19224e-05
-9.88911e-06
5.648e-05
-1.13825e-05
6.23317e-05
-1.23494e-05
6.70969e-05
-1.28424e-05
7.09598e-05
-1.29161e-05
7.33015e-05
-1.26546e-05
7.40266e-05
-1.2135e-05
7.302e-05
-1.14431e-05
7.00867e-05
-1.06469e-05
6.54456e-05
-9.80074e-06
5.90806e-05
-8.95357e-06
5.07365e-05
-8.20314e-06
4.06363e-05
-7.55611e-06
2.96438e-05
-7.01823e-06
1.92721e-05
-6.63769e-06
1.09195e-05
-6.34448e-06
4.92574e-06
-5.95275e-06
1.64973e-06
-5.37361e-06
1.86832e-06
-4.50953e-06
1.78206e-06
-3.30315e-06
-1.15441e-06
-1.99239e-06
-6.35276e-06
-2.70969e-05
-2.14412e-06
2.05815e-05
-3.86854e-06
4.71321e-05
-5.31076e-06
5.34073e-05
-6.6443e-06
5.78569e-05
-7.43773e-06
6.31703e-05
-7.86239e-06
6.75682e-05
-7.91397e-06
7.10593e-05
-7.65844e-06
7.30947e-05
-7.18833e-06
7.36054e-05
-6.58729e-06
7.24677e-05
-5.94351e-06
6.94908e-05
-5.31681e-06
6.48654e-05
-4.79599e-06
5.86043e-05
-4.5321e-06
5.05145e-05
-4.59902e-06
4.07416e-05
-4.93157e-06
3.00108e-05
-5.36817e-06
1.97397e-05
-5.80734e-06
1.13873e-05
-6.14556e-06
5.29088e-06
-6.09895e-06
1.62977e-06
-5.48505e-06
1.28266e-06
-4.61664e-06
9.4315e-07
-3.61351e-06
-2.1332e-06
-2.42597e-06
-7.51338e-06
-2.9507e-05
-1.40884e-06
2.20101e-05
-2.44755e-06
4.82121e-05
-3.23328e-06
5.42361e-05
-3.95e-06
5.86172e-05
-4.27177e-06
6.35374e-05
-4.23521e-06
6.75783e-05
-3.87783e-06
7.07498e-05
-3.30728e-06
7.25727e-05
-2.61599e-06
7.2963e-05
-1.89627e-06
7.17966e-05
-1.25192e-06
6.88941e-05
-7.42882e-07
6.44027e-05
-4.81698e-07
5.83877e-05
-6.42393e-07
5.07172e-05
-1.30474e-06
4.14426e-05
-2.41537e-06
3.11562e-05
-3.68212e-06
2.10377e-05
-4.84863e-06
1.25827e-05
-5.71743e-06
6.1869e-06
-5.92403e-06
1.86289e-06
-5.14432e-06
5.30514e-07
-4.24979e-06
7.75907e-08
-3.54462e-06
-2.81418e-06
-2.66521e-06
-8.3663e-06
-3.21573e-05
-9.0954e-07
2.29395e-05
-1.44645e-06
4.87903e-05
-1.8212e-06
5.4654e-05
-1.81827e-06
5.8658e-05
-1.6737e-06
6.34383e-05
-1.20082e-06
6.71521e-05
-4.81546e-07
7.00783e-05
3.44079e-07
7.17955e-05
1.25909e-06
7.20966e-05
2.1192e-06
7.09848e-05
2.8117e-06
6.82491e-05
3.25975e-06
6.40008e-05
3.38595e-06
5.83059e-05
3.01771e-06
5.11274e-05
1.9898e-06
4.25094e-05
3.13905e-07
3.28674e-05
-1.67633e-06
2.30597e-05
-3.43552e-06
1.4371e-05
-4.77963e-06
7.55879e-06
-5.25012e-06
2.3604e-06
-4.35242e-06
-3.39593e-07
-3.31935e-06
-9.26572e-07
-3.01918e-06
-3.08963e-06
-2.60741e-06
-8.75154e-06
-3.4751e-05
-5.41767e-07
2.35016e-05
-6.35337e-07
4.8926e-05
-5.24659e-07
5.45869e-05
-1.65909e-07
5.83432e-05
5.20164e-07
6.27976e-05
1.2457e-06
6.64731e-05
2.12765e-06
6.9244e-05
3.24164e-06
7.07297e-05
4.36374e-06
7.10228e-05
5.42928e-06
6.99674e-05
6.27081e-06
6.74549e-05
6.77439e-06
6.35434e-05
6.90707e-06
5.82176e-05
6.51376e-06
5.1563e-05
5.37978e-06
4.36829e-05
3.4571e-06
3.48263e-05
9.96797e-07
2.55528e-05
-1.28607e-06
1.66839e-05
-2.95826e-06
9.25928e-06
-3.82939e-06
3.25882e-06
-3.25267e-06
-8.88955e-07
-2.21429e-06
-1.93627e-06
-2.24803e-06
-3.03023e-06
-2.25273e-06
-8.7198e-06
-3.69913e-05
-3.46356e-07
2.3869e-05
-4.12568e-08
4.86637e-05
5.9095e-07
5.39986e-05
1.35605e-06
5.7622e-05
2.27287e-06
6.19261e-05
3.26625e-06
6.55262e-05