/*--------------------------------*- C++ -*----------------------------------*\
| =========                 |                                                 |
| \\      /  F ield         | OpenFOAM: The Open Source CFD Toolbox           |
|  \\    /   O peration     | Version:  2.3.0                                 |
|   \\  /    A nd           | Web:      www.OpenFOAM.org                      |
|    \\/     M anipulation  |                                                 |
\*---------------------------------------------------------------------------*/
FoamFile
{
    version     2.0;
    format      ascii;
    class       surfaceScalarField;
    location    "64";
    object      phi.water;
}
// * * * * * * * * * * * * * * * * * * * * * * * * * * * * * * * * * * * * * //

dimensions      [0 3 -1 0 0 0 0];

internalField   nonuniform List<scalar> 
3650
(
4.04806e-05
-4.23589e-05
8.21151e-05
-4.73529e-05
0.000128108
-4.89027e-05
0.000174218
-4.76193e-05
0.000217751
-4.43166e-05
0.000257063
-3.97343e-05
0.000291306
-3.44066e-05
0.000319853
-2.86639e-05
0.000342278
-2.271e-05
0.000358211
-1.65944e-05
0.000367306
-1.04318e-05
0.000369358
-4.49825e-06
0.000363463
2.80179e-06
0.000349039
1.14718e-05
0.000327063
1.9092e-05
0.000298356
2.55806e-05
0.000264648
3.04637e-05
0.000228052
3.33179e-05
0.000190957
3.40764e-05
0.000155729
3.2912e-05
0.000123815
3.05055e-05
9.49335e-05
2.8071e-05
6.74425e-05
2.73139e-05
3.6201e-05
2.84184e-05
2.87385e-05
5.49606e-05
-8.77556e-05
9.70121e-05
-8.57969e-05
0.000134195
-8.34169e-05
0.000169303
-7.83657e-05
0.000201265
-7.13738e-05
0.000229912
-6.2942e-05
0.000254948
-5.34518e-05
0.000275998
-4.31726e-05
0.000292602
-3.22663e-05
0.000304363
-2.07664e-05
0.000310527
-8.3216e-06
0.000310412
4.45374e-06
0.000305427
1.58204e-05
0.00029549
2.78632e-05
0.000279628
3.95142e-05
0.000257451
4.99104e-05
0.000229783
5.78395e-05
0.000199176
6.24647e-05
0.000167487
6.38666e-05
0.000136034
6.25026e-05
0.000105617
5.95154e-05
7.6736e-05
5.64804e-05
5.00079e-05
5.54348e-05
2.46922e-05
5.62162e-05
5.34469e-05
4.52462e-05
-0.000121562
8.38713e-05
-0.000117544
0.000114598
-0.000109977
0.000140606
-0.000100918
0.000162721
-9.04952e-05
0.000181369
-7.88189e-05
0.000196549
-6.6078e-05
0.000208316
-5.24906e-05
0.000216768
-3.82435e-05
0.000222016
-2.35086e-05
0.000224623
-8.50674e-06
0.000224537
7.1171e-06
0.00022014
2.34561e-05
0.000211689
3.96229e-05
0.000198947
5.5223e-05
0.000182082
6.92172e-05
0.00016091
8.00915e-05
0.000137296
8.62075e-05
0.000112513
8.77497e-05
8.83923e-05
8.54398e-05
6.62519e-05
8.087e-05
4.64649e-05
7.60343e-05
2.92492e-05
7.2845e-05
1.49838e-05
7.08136e-05
6.78134e-05
2.75306e-05
-0.000140417
5.20527e-05
-0.000135089
7.14908e-05
-0.000125636
8.7834e-05
-0.000114484
0.00010151
-0.000101758
0.000112339
-8.75565e-05
0.000120154
-7.21233e-05
0.000124835
-5.57719e-05
0.000126702
-3.88523e-05
0.000125995
-2.15341e-05
0.000122673
-3.82229e-06
0.00011709
1.41088e-05
0.000109813
3.22943e-05
0.000100824
5.0376e-05
9.01668e-05
6.76471e-05
7.81399e-05
8.28797e-05
6.53811e-05
9.42888e-05
5.23326e-05
9.99512e-05
3.97166e-05
0.000100366
2.84044e-05
9.64222e-05
1.89662e-05
9.00733e-05
1.14065e-05
8.3543e-05
6.08387e-06
7.8593e-05
2.33681e-06
7.4779e-05
7.00239e-05
1.02084e-05
-0.00014701
1.88173e-05
-0.00014142
2.48882e-05
-0.000131166
3.00233e-05
-0.00011888
3.31891e-05
-0.000104524
3.40785e-05
-8.838e-05
3.26987e-05
-7.09238e-05
2.92115e-05
-5.26085e-05
2.39795e-05
-3.39226e-05
1.73471e-05
-1.51179e-05
9.66937e-06
3.74235e-06
1.18905e-06
2.26111e-05
-7.63353e-06
4.12444e-05
-1.62062e-05
5.9204e-05
-2.37228e-05
7.55888e-05
-2.92657e-05
8.90199e-05
-3.19049e-05
9.78344e-05
-3.25747e-05
0.000101004
-3.11176e-05
9.91481e-05
-2.80306e-05
9.34254e-05
-2.37794e-05
8.58512e-05
-1.87953e-05
7.84622e-05
-1.29705e-05
7.26564e-05
-6.50036e-06
6.83499e-05
6.39826e-05
-4.45497e-06
-0.000143332
-1.01414e-05
-0.000136906
-1.68326e-05
-0.000125776
-2.40091e-05
-0.000112673
-3.31928e-05
-9.7101e-05
-4.40828e-05
-7.96566e-05
-5.60938e-05
-6.11371e-05
-6.85897e-05
-4.21602e-05
-8.11395e-05
-2.32461e-05
-9.32679e-05
-4.66383e-06
-0.000104485
1.34999e-05
-0.000114185
3.1111e-05
-0.000121649
4.782e-05
-0.000125915
6.29944e-05
-0.000125984
7.56802e-05
-0.00012135
8.47954e-05
-0.000112468
8.94367e-05
-0.000100381
8.93848e-05
-8.61153e-05
8.53599e-05
-7.09718e-05
7.86724e-05
-5.59036e-05
7.10333e-05
-4.13485e-05
6.39613e-05
-2.73908e-05
5.84034e-05
-1.35204e-05
5.45142e-05
5.13228e-05
-1.69511e-05
-0.000128902
-3.5324e-05
-0.000121761
-5.32432e-05
-0.000110061
-7.27842e-05
-9.63365e-05
-9.44341e-05
-7.99648e-05
-0.000116581
-6.2086e-05
-0.000138215
-4.38432e-05
-0.000158272
-2.59649e-05
-0.000175893
-8.90253e-06
-0.000190393
7.13693e-06
-0.000201091
2.21053e-05
-0.000207273
3.58753e-05
-0.000208319
4.80917e-05
-0.000203729
5.82015e-05
-0.000193517
6.56267e-05
-0.000178108
6.98324e-05
-0.000158749
7.05981e-05
-0.000136737
6.805e-05
-0.000113777
6.30825e-05
-9.13471e-05
5.67742e-05
-7.0274e-05
5.02772e-05
-5.06857e-05
4.45444e-05
-3.27856e-05
4.02241e-05
-1.59179e-05
3.76531e-05
3.62609e-05
-2.68036e-05
-0.000106018
-5.50742e-05
-9.8151e-05
-8.22709e-05
-8.57109e-05
-0.000112659
-7.14795e-05
-0.000143943
-5.49188e-05
-0.000173749
-3.78818e-05
-0.000200756
-2.16909e-05
-0.000223551
-7.02187e-06
-0.000240997
5.80147e-06
-0.000252499
1.68704e-05
-0.000257774
2.64198e-05
-0.000256656
3.43868e-05
-0.000249127
4.06627e-05
-0.000235576
4.50615e-05
-0.000216774
4.73932e-05
-0.000193814
4.75261e-05
-0.000167953
4.56226e-05
-0.000141076
4.20542e-05
-0.000114782
3.7526e-05
-9.02156e-05
3.26978e-05
-6.78645e-05
2.8204e-05
-4.76983e-05
2.45742e-05
-3.00031e-05
2.2305e-05
-1.43793e-05
2.18461e-05
2.25622e-05
-3.46117e-05
-7.76328e-05
-6.94678e-05
-6.83063e-05
-0.000102849
-5.51731e-05
-0.000139265
-4.09688e-05
-0.000173944
-2.54437e-05
-0.000205086
-1.09426e-05
-0.000231157
1.3598e-06
-0.000250976
1.09867e-05
-0.000264171
1.81128e-05
-0.000270458
2.29038e-05
-0.000269747
2.592e-05
-0.000262125
2.74627e-05
-0.000248239
2.7762e-05
-0.000229145
2.69584e-05
-0.000205865
2.51715e-05
-0.000179744
2.25481e-05
-0.000152323
1.934e-05
-0.000125254
1.58879e-05
-9.96892e-05
1.25888e-05
-7.64065e-05
9.7683e-06
-5.57541e-05
7.72278e-06
-3.78293e-05
6.7243e-06
-2.29641e-05
7.14062e-06
-1.09002e-05
9.35148e-06
1.22541e-05
-4.05554e-05
-4.5928e-05
-7.80807e-05
-3.49757e-05
-0.000113588
-2.18744e-05
-0.000150066
-8.88125e-06
-0.00018278
4.1642e-06
-0.000210777
1.48545e-05
-0.000232755
2.22039e-05
-0.000247823
2.60419e-05
-0.000256072
2.67743e-05
-0.000257523
2.51256e-05
-0.000251957
2.19172e-05
-0.000240441
1.75e-05
-0.000224039
1.26918e-05
-0.000203464
7.91823e-06
-0.000180022
3.29567e-06
-0.000155069
-9.93118e-07
-0.000129834
-4.7476e-06
-0.000105364
-7.76745e-06
-8.23823e-05
-9.86109e-06
-6.14585e-05
-1.08526e-05
-4.30281e-05
-1.05628e-05
-2.75006e-05
-8.79517e-06
-1.54233e-05
-5.26642e-06
-6.75636e-06
2.21732e-07
5.7909e-06
-4.22072e-05
-1.31941e-05
-7.66833e-05
-1.19793e-06
-0.00011067
1.0979e-05
-0.000143812
2.16821e-05
-0.00017273
3.13957e-05
-0.000196782
3.78339e-05
-0.000214894
4.01244e-05
-0.000226617
3.82599e-05
-0.000231351
3.28788e-05
-0.000229566
2.50971e-05
-0.000222362
1.63746e-05
-0.000210516
7.579e-06
-0.000194989
-7.58496e-07
-0.00017682
-8.30476e-06
-0.000156916
-1.48798e-05
-0.000136131
-2.03664e-05
-0.000115114
-2.46792e-05
-9.43566e-05
-2.77249e-05
-7.42627e-05
-2.93725e-05
-5.52538e-05
-2.9438e-05
-3.78489e-05
-2.76651e-05
-2.27697e-05
-2.37215e-05
-1.09365e-05
-1.72039e-05
-3.3561e-06
-7.82925e-06
1.70102e-06
-3.87625e-05
1.7724e-05
-6.75564e-05
2.97909e-05
-9.69019e-05
4.09691e-05
-0.000126129
4.93765e-05
-0.00015146
5.57228e-05
-0.000172244
5.80287e-05
-0.000187583
5.55998e-05
-0.000197063
4.85863e-05
-0.000200528
3.79792e-05
-0.000198762
2.54317e-05
-0.000192794
1.26613e-05
-0.000183554
5.97936e-07
-0.000171914
-1.0284e-05
-0.000158629
-1.97714e-05
-0.000144205
-2.78298e-05
-0.000128949
-3.44921e-05
-0.000113007
-3.97848e-05
-9.64662e-05
-4.36522e-05
-7.94335e-05
-4.59391e-05
-6.20931e-05
-4.64032e-05
-4.48303e-05
-4.46261e-05
-2.84206e-05
-4.00023e-05
-1.40322e-05
-3.17417e-05
-4.16669e-06
-1.89601e-05
-5.04781e-06
-3.28165e-05
4.42926e-05
-5.68857e-05
5.63159e-05
-8.06859e-05
6.64762e-05
-0.00010524
7.30916e-05
-0.000126593
7.661e-05
-0.000144194
7.54204e-05
-0.000157161
6.90088e-05
-0.000165058
5.77517e-05
-0.000168299
4.31652e-05
-0.000168018
2.73135e-05
-0.00016503
1.18385e-05
-0.000160082
-2.38354e-06
-0.000153776
-1.49768e-05
-0.000146439
-2.59134e-05
-0.000138156
-3.53027e-05
-0.000128878
-4.3276e-05
-0.000118489
-4.99132e-05
-0.000106822
-5.51986e-05
-9.37511e-05
-5.89813e-05
-7.92264e-05
-6.09511e-05
-6.33652e-05
-6.05894e-05
-4.6532e-05
-5.70972e-05
-3.0103e-05
-4.92743e-05
-1.61225e-05
-3.60428e-05
-2.16276e-05
-2.58539e-05
6.52705e-05
-4.47198e-05
7.72741e-05
-6.31732e-05
8.66807e-05
-8.24174e-05
9.19894e-05
-9.92246e-05
9.34076e-05
-0.000113415
8.96841e-05
-0.000124034
8.03387e-05
-0.000130946
6.60932e-05
-0.000134926
4.89608e-05
-0.000136883
3.11143e-05
-0.000137503
1.40406e-05
-0.000137184
-1.52932e-06
-0.000136035
-1.5355e-05
-0.000133974
-2.75093e-05
-0.000130907
-3.81474e-05
-0.000126691
-4.74341e-05
-0.000121173
-5.54749e-05
-0.000114203
-6.23015e-05
-0.000105538
-6.78371e-05
-9.49426e-05
-7.18145e-05
-8.21412e-05
-7.37765e-05
-6.67706e-05
-7.30073e-05
-5.01745e-05
-6.83015e-05
-3.06096e-05
-5.91018e-05
-4.93726e-05
-1.76667e-05
7.95077e-05
-3.0596e-05
9.16653e-05
-4.3226e-05
0.000100782
-5.673e-05
0.000105399
-6.87742e-05
0.000105618
-7.9347e-05
0.000100478
-8.77231e-05
8.94794e-05
-9.40856e-05
7.36789e-05
-9.91628e-05
5.53491e-05
-0.000103482
3.65584e-05
-0.00010721
1.86225e-05
-0.000110386
2.17861e-06
-0.000112847
-1.26105e-05
-0.000114401
-2.58207e-05
-0.000114918
-3.75948e-05
-0.000114289
-4.80771e-05
-0.000112408
-5.73671e-05
-0.000109196
-6.55226e-05
-0.000104522
-7.25613e-05
-9.80572e-05
-7.8422e-05
-8.941e-05
-8.28705e-05
-7.76805e-05
-8.56053e-05
-6.19205e-05
-8.61257e-05
-3.75755e-05
-8.43752e-05
-8.18864e-05
-8.79619e-06
8.62165e-05
-1.48696e-05
9.85935e-05
-2.11085e-05
0.000107934
-2.83079e-05
0.000112626
-3.51746e-05
0.000112686
-4.17742e-05
0.000107393
-4.79937e-05
9.62528e-05
-5.39002e-05
8.0349e-05
-5.97454e-05
6.19591e-05
-6.55859e-05
4.30112e-05
-7.12082e-05
2.47077e-05
-7.63833e-05
7.68062e-06
-8.0904e-05
-7.8818e-06
-8.46094e-05
-2.20157e-05
-8.73097e-05
-3.48297e-05
-8.89086e-05
-4.64202e-05
-8.94201e-05
-5.68451e-05
-8.88654e-05
-6.61546e-05
-8.72643e-05
-7.44279e-05
-8.43039e-05
-8.17886e-05
-7.94342e-05
-8.83045e-05
-7.16017e-05
-9.41562e-05
-5.8564e-05
-9.96089e-05
-3.47502e-05
-0.000105104
-0.000108725
3.65174e-07
8.50501e-05
1.7067e-06
9.76201e-05
2.48984e-06
0.000107537
2.08323e-06
0.000113042
8.94241e-07
0.000114025
-1.33861e-06
0.000109931
-4.99977e-06
0.000100218
-9.94505e-06
8.56243e-05
-1.57957e-05
6.82047e-05
-2.21758e-05
4.98027e-05
-2.87799e-05
3.16233e-05
-3.52147e-05
1.43337e-05
-4.11802e-05
-1.79653e-06
-4.64257e-05
-1.67329e-05
-5.0733e-05
-3.0527e-05
-5.39933e-05
-4.32021e-05
-5.62065e-05
-5.47497e-05
-5.741e-05
-6.51987e-05
-5.75533e-05
-7.4687e-05
-5.63745e-05
-8.34734e-05
-5.32984e-05
-9.17637e-05
-4.76379e-05
-9.98407e-05
-3.91055e-05
-0.000108197
-2.29356e-05
-0.000117726
-0.000124103
8.38758e-06
7.66878e-05
1.79605e-05
8.85297e-05
2.61672e-05
9.92092e-05
3.29283e-05
0.000106276
3.78113e-05
0.000109178
4.05318e-05
0.000107416
4.04011e-05
0.000100518
3.73496e-05
8.86833e-05
3.21331e-05
7.343e-05
2.55526e-05
5.64604e-05
1.82149e-05
3.90587e-05
1.06447e-05
2.19936e-05
3.24082e-06
5.65418e-06
-3.68175e-06
-9.82737e-06
-9.86248e-06
-2.44245e-05
-1.51037e-05
-3.80898e-05
-1.92736e-05
-5.0757e-05
-2.23091e-05
-6.24237e-05
-2.40653e-05
-7.32492e-05
-2.42941e-05
-8.34973e-05
-2.28423e-05
-9.33094e-05
-1.95455e-05
-0.0001028
-1.55588e-05
-0.000112304
-9.94678e-06
-0.000123188
-0.000130807
1.53438e-05
6.18663e-05
3.2253e-05
7.22945e-05
4.74737e-05
8.35822e-05
6.11821e-05
9.25812e-05
7.23295e-05
9.80334e-05
8.0442e-05
9.93596e-05
8.48469e-05
9.62005e-05
8.4972e-05
8.84001e-05
8.13508e-05
7.66974e-05
7.50766e-05
6.2373e-05
6.71654e-05
4.671e-05
5.83889e-05
3.06232e-05
4.93062e-05
1.46566e-05
4.03259e-05
-9.18976e-07
3.17667e-05
-1.59819e-05
2.39355e-05
-3.04151e-05
1.71245e-05
-4.40976e-05
1.15441e-05
-5.69643e-05
7.36959e-06
-6.91059e-05
4.54018e-06
-8.06649e-05
2.88637e-06
-9.16619e-05
2.18007e-06
-0.000102017
1.63402e-06
-0.000111766
-2.25522e-07
-0.000122931
-0.000131769
1.94987e-05
4.3081e-05
4.10247e-05
5.14219e-05
6.20477e-05
6.23337e-05
8.20022e-05
7.28511e-05
9.91294e-05
8.09376e-05
0.000112794
8.5677e-05
0.000122406
8.66162e-05
0.000127167
8.35366e-05
0.00012687
7.65627e-05
0.000122284
6.62946e-05
0.00011459
5.37032e-05
0.000104866
3.97381e-05
9.4055e-05
2.50354e-05
8.28147e-05
1.00277e-05
7.16176e-05
-5.01243e-06
6.08725e-05
-1.9873e-05
5.09662e-05
-3.43512e-05
4.22115e-05
-4.82816e-05
3.47425e-05
-6.16022e-05
2.83908e-05
-7.42636e-05
2.28861e-05
-8.6148e-05
1.77696e-05
-9.70364e-05
1.34487e-05
-0.000106825
6.55875e-06
-0.000117499
-0.000127136
2.05351e-05
2.31773e-05
4.33577e-05
2.8911e-05
6.78005e-05
3.81851e-05
9.23094e-05
4.90502e-05
0.000114452
5.91264e-05
0.000133236
6.69976e-05
0.00014794
7.19481e-05
0.000157875
7.36141e-05
0.000162444
7.18351e-05
0.000161517
6.66912e-05
0.000155853
5.85453e-05
0.000146333
4.81361e-05
0.000134281
3.59677e-05
0.000120874
2.24777e-05
0.00010702
8.11963e-06
9.334e-05
-6.7103e-06
8.02918e-05
-2.16619e-05
6.82298e-05
-3.64236e-05
5.72723e-05
-5.07348e-05
4.73268e-05
-6.43363e-05
3.81509e-05
-7.69403e-05
2.91128e-05
-8.82041e-05
2.12787e-05
-9.80248e-05
1.16595e-05
-0.000108194
-0.000117721
1.87127e-05
4.93845e-06
3.99653e-05
7.53772e-06
6.47938e-05
1.40222e-05
9.14799e-05
2.37149e-05
0.000117025
3.45235e-05
0.000139862
4.46948e-05
0.000158957
5.31288e-05
0.000173557
5.91719e-05
0.000183094
6.23968e-05
0.000187016
6.25879e-05
0.000185091
5.97535e-05
0.000177797
5.4275e-05
0.000166094
4.59553e-05
0.000151475
3.5198e-05
0.000135495
2.24329e-05
0.000119234
8.25799e-06
0.000103374
-6.73729e-06
8.8361e-05
-2.20313e-05
7.43948e-05
-3.7138e-05
6.14324e-05
-5.15721e-05
4.93317e-05
-6.48476e-05
3.74226e-05
-7.64727e-05
2.68614e-05
-8.63879e-05
1.50595e-05
-9.61379e-05
-0.000105482
1.39292e-05
-9.27642e-06
3.19758e-05
-1.08922e-05
5.47902e-05
-8.16012e-06
8.126e-05
-9.60738e-07
0.000108211
9.20095e-06
0.000133522
2.05714e-05
0.000155712
3.17373e-05
0.000173731
4.16755e-05
0.000186842
4.9618e-05
0.000194624
5.50368e-05
0.000196589
5.75901e-05
0.000193089
5.72586e-05
0.000184519
5.37175e-05
0.000171419
4.68348e-05
0.000155286
3.66964e-05
0.000137593
2.40183e-05
0.000119631
9.54516e-06
0.00010224
-5.93921e-06
8.58837e-05
-2.16766e-05
7.0675e-05
-3.69122e-05
5.65566e-05
-5.09178e-05
4.28538e-05
-6.29902e-05
3.0499e-05
-7.30611e-05
1.73397e-05
-8.24723e-05
-9.16068e-05
7.85922e-06
-1.91541e-05
2.20529e-05
-2.5943e-05
4.15052e-05
-2.74557e-05
6.56432e-05
-2.34307e-05
9.18069e-05
-1.4929e-05
0.000117646
-3.42039e-06
0.000141235
9.62993e-06
0.000161122
2.29041e-05
0.000176318
3.52365e-05
0.000186248
4.56613e-05
0.000190949
5.34257e-05
0.000190857
5.78001e-05
0.000186001
5.86925e-05
0.000176604
5.60034e-05
0.000162855
4.94498e-05
0.000146016
3.92181e-05
0.000127609
2.60404e-05
0.000108993
1.08539e-05
9.1118e-05
-5.27977e-06
7.44555e-05
-2.128e-05
5.91549e-05
-3.61067e-05
4.467e-05
-4.87616e-05
3.1528e-05
-5.9056e-05
1.80322e-05
-6.8253e-05
-7.70477e-05
7.08507e-06
-2.68958e-05
1.74042e-05
-3.77321e-05
3.24757e-05
-4.29527e-05
5.18382e-05
-4.19173e-05
7.42883e-05
-3.55262e-05
9.78211e-05
-2.47864e-05
0.000120414
-1.09057e-05
0.000140314
4.76521e-06
0.000156173
2.07701e-05
0.000167236
3.56515e-05
0.00017316
4.81634e-05
0.000174438
5.70706e-05
0.000171659
6.19364e-05
0.000165093
6.28131e-05
0.000154578
5.96952e-05
0.000140666
5.22643e-05
0.000124291
4.09783e-05
0.000106672
2.67056e-05
8.90351e-05
1.06197e-05
7.22598e-05
-5.91902e-06
5.68479e-05
-2.15369e-05
4.26864e-05
-3.48766e-05
2.98753e-05
-4.54422e-05
1.70159e-05
-5.45576e-05
-6.31036e-05
9.79325e-06
-3.52612e-05
1.75664e-05
-4.72673e-05
2.88507e-05
-5.48226e-05
4.27598e-05
-5.57907e-05
5.94067e-05
-5.11319e-05
7.78739e-05
-4.14262e-05
9.66589e-05
-2.75224e-05
0.00011407
-1.05178e-05
0.000128577
8.11792e-06
0.000139121
2.66115e-05
0.000145103
4.32333e-05
0.000146727
5.61107e-05
0.000144752
6.43742e-05
0.000139802
6.80469e-05
0.000132215
6.73314e-05
0.000121836
6.22692e-05
0.000109165
5.28347e-05
9.4762e-05
3.98464e-05
7.95328e-05
2.43322e-05
6.44709e-05
7.70306e-06
5.02941e-05
-8.44934e-06
3.76266e-05
-2.24387e-05
2.61655e-05
-3.32559e-05
1.48343e-05
-4.2377e-05
-5.08156e-05
1.07867e-05
-4.49723e-05
1.71588e-05
-5.59027e-05
2.60944e-05
-6.42384e-05
3.58841e-05
-6.58656e-05
4.68843e-05
-6.19325e-05
5.91765e-05
-5.2768e-05
7.22302e-05
-3.89593e-05
8.49523e-05
-2.12941e-05
9.60288e-05
-1.03976e-06
0.000104343
1.99499e-05
0.000109338
3.95649e-05
0.000110761
5.54358e-05
0.000109556
6.61355e-05
0.000106116
7.1775e-05
0.000100893
7.26054e-05
9.39502e-05
6.90331e-05
8.53844e-05
6.09524e-05
7.53992e-05
4.91397e-05
6.42158e-05
3.45095e-05
5.25121e-05
1.82951e-05
4.09386e-05
2.06922e-06
3.06486e-05
-1.23006e-05
2.11883e-05
-2.32205e-05
1.19833e-05
-3.23849e-05
-4.08037e-05
1.1511e-05
-5.55018e-05
1.67232e-05
-6.3657e-05
2.27315e-05
-7.102e-05
2.90003e-05
-7.23941e-05
3.52997e-05
-6.83134e-05
4.1865e-05
-5.90569e-05
4.874e-05
-4.50722e-05
5.56398e-05
-2.69684e-05
6.18042e-05
-5.81177e-06
6.64064e-05
1.65733e-05
6.91382e-05
3.78314e-05
7.00638e-05
5.52444e-05
6.96569e-05
6.71161e-05
6.80023e-05
7.3693e-05
6.53847e-05
7.52916e-05
6.19274e-05
7.23511e-05
5.75417e-05
6.50551e-05
5.22117e-05
5.41045e-05
4.58207e-05
4.03977e-05
3.84814e-05
2.49817e-05
3.0573e-05
9.23343e-06
2.30216e-05
-4.98236e-06
1.56403e-05
-1.56806e-05
8.78308e-06
-2.49594e-05
-3.34197e-05
1.20932e-05
-6.61624e-05
1.67885e-05
-7.00623e-05
1.81302e-05
-7.45578e-05
2.08083e-05
-7.52223e-05
2.29247e-05
-7.05488e-05
2.47076e-05
-6.07677e-05
2.61307e-05
-4.6301e-05
2.72794e-05
-2.77526e-05
2.80769e-05
-6.16006e-06
2.84665e-05
1.66196e-05
2.866e-05
3.80713e-05
2.91743e-05
5.53714e-05
2.96164e-05
6.70891e-05
3.00052e-05
7.35341e-05
3.02542e-05
7.50886e-05
3.03572e-05
7.2155e-05
3.00471e-05
6.51748e-05
2.90889e-05
5.48266e-05
2.73025e-05
4.19552e-05
2.44757e-05
2.75173e-05
2.06279e-05
1.27101e-05
1.6062e-05
-7.08041e-07
1.00885e-05
-1.07293e-05
5.52198e-06
-2.02746e-05
-2.89095e-05
1.11455e-05
-7.49643e-05
1.51335e-05
-7.42758e-05
1.26442e-05
-7.49162e-05
1.14518e-05
-7.44373e-05
9.72358e-06
-6.89615e-05
7.34372e-06
-5.84172e-05
4.1657e-06
-4.32751e-05
3.66409e-07
-2.43e-05
-3.50375e-06
-2.719e-06
-6.63007e-06
1.94523e-05
-8.11583e-06
3.9644e-05
-7.71723e-06
5.53844e-05
-6.19501e-06
6.58299e-05
-3.80446e-06
7.12634e-05
-8.42445e-07
7.21364e-05
2.4444e-06
6.88028e-05
5.66501e-06
6.18426e-05
8.43552e-06
5.19323e-05
1.04341e-05
3.9843e-05
1.13884e-05
2.64602e-05
1.105e-05
1.28709e-05
9.37746e-06
7.06758e-07
5.19066e-06
-8.27142e-06
2.64984e-06
-1.80892e-05
-2.69892e-05
7.59108e-06
-7.96581e-05
9.21682e-06
-7.54028e-05
6.07802e-06
-7.26698e-05
1.80817e-06
-7.0572e-05
-3.10506e-06
-6.407e-05
-9.21597e-06
-5.25898e-05
-1.64656e-05
-3.67371e-05
-2.43099e-05
-1.75707e-05
-3.1528e-05
3.35871e-06
-3.6671e-05
2.38566e-05
-3.86846e-05
4.15608e-05
-3.78848e-05
5.47855e-05
-3.51864e-05
6.32277e-05
-3.10096e-05
6.71238e-05
-2.57985e-05
6.69283e-05
-2.00172e-05
6.30021e-05
-1.41567e-05
5.59522e-05
-8.67444e-06
4.64335e-05
-3.96383e-06
3.51468e-05
-3.69977e-07
2.28986e-05
1.81737e-06
1.06726e-05
2.35256e-06
-9.19541e-08
1.39803e-06
-7.985e-06
6.89281e-07
-1.76985e-05
-2.66653e-05
2.32249e-06
-7.98671e-05
1.5562e-06
-7.35681e-05
-1.84227e-06
-6.84193e-05
-7.89707e-06
-6.4445e-05
-1.53702e-05
-5.66285e-05
-2.47563e-05
-4.40703e-05
-3.54028e-05
-2.76497e-05
-4.59917e-05
-8.79826e-06
-5.46645e-05
1.06088e-05
-5.9942e-05
2.84249e-05
-6.1366e-05
4.29112e-05
-5.98098e-05
5.32671e-05
-5.59627e-05
5.93999e-05
-5.04029e-05
6.15879e-05
-4.35911e-05
6.01674e-05
-3.61112e-05
5.55728e-05
-2.85005e-05
4.8398e-05
-2.1218e-05
3.92416e-05
-1.4675e-05
2.87414e-05
-9.24882e-06
1.76385e-05
-5.24404e-06
6.81571e-06
-3.12136e-06
-2.56699e-06
-1.54333e-06
-9.57798e-06
-4.71947e-07
-1.8842e-05
-2.75895e-05
-2.92528e-06
-7.652e-05
-5.97291e-06
-6.92539e-05
-1.0299e-05
-6.26111e-05
-1.78044e-05
-5.68066e-05
-2.75613e-05
-4.74771e-05
-3.95382e-05
-3.38643e-05
-5.20877e-05
-1.72754e-05
-6.32318e-05
4.94812e-07
-7.12227e-05
1.75019e-05
-7.52939e-05
3.20853e-05
-7.5724e-05
4.32958e-05
-7.33387e-05
5.08626e-05
-6.86384e-05
5.4723e-05
-6.21681e-05
5.51924e-05
-5.44515e-05
5.25582e-05
-4.60616e-05
4.72963e-05
-3.74911e-05
3.996e-05
-2.91616e-05
3.10913e-05
-2.14791e-05
2.12896e-05
-1.48557e-05
1.12622e-05
-9.7025e-06
1.7998e-06
-6.48518e-06
-6.28727e-06
-3.56402e-06
-1.26715e-05
-7.99803e-07
-2.14656e-05
-2.95483e-05
-6.88338e-06
-7.06869e-05
-1.21218e-05
-6.28959e-05
-1.78049e-05
-5.53407e-05
-2.69298e-05
-4.79374e-05
-3.87803e-05
-3.7183e-05
-5.20404e-05
-2.29131e-05
-6.43646e-05
-6.92416e-06
-7.40607e-05
8.9089e-06
-8.02035e-05
2.30518e-05
-8.28075e-05
3.45212e-05
-8.2421e-05
4.28454e-05
-7.94025e-05
4.78247e-05
-7.42452e-05
4.96291e-05
-6.74066e-05
4.84835e-05
-5.94197e-05
4.47291e-05
-5.07967e-05
3.88341e-05
-4.19395e-05
3.12941e-05
-3.32213e-05
2.26221e-05
-2.5057e-05
1.34214e-05
-1.79362e-05
4.39613e-06
-1.23226e-05
-3.77852e-06
-8.57991e-06
-1.06843e-05
-4.8872e-06
-1.66871e-05
-8.63139e-07
-2.50961e-05
-3.20316e-05
-9.69646e-06
-6.29352e-05
-1.66217e-05
-5.49363e-05
-2.40581e-05
-4.68042e-05
-3.46376e-05
-3.81613e-05
-4.76425e-05
-2.63811e-05
-6.02211e-05
-1.22377e-05
-7.06914e-05
2.27673e-06
-7.81515e-05
1.56976e-05
-8.24199e-05
2.70556e-05
-8.38523e-05
3.58127e-05
-8.27404e-05
4.16794e-05
-7.93071e-05
4.44671e-05
-7.40575e-05
4.44942e-05
-6.73498e-05
4.19521e-05
-5.96491e-05
3.72097e-05
-5.13342e-05
3.07112e-05
-4.27212e-05
2.29211e-05
-3.41611e-05
1.43703e-05
-2.61102e-05
5.7081e-06
-1.91748e-05
-2.36536e-06
-1.3678e-05
-9.34183e-06
-9.91052e-06
-1.52056e-05
-5.93696e-06
-2.10341e-05
-1.28932e-06
-2.91587e-05
-3.47848e-05
-1.14246e-05
-5.38526e-05
-1.97484e-05
-4.58544e-05
-2.86408e-05
-3.73833e-05
-4.00749e-05
-2.80061e-05
-5.2424e-05
-1.59266e-05
-6.29744e-05
-2.78671e-06
-7.11572e-05
9.78129e-06
-7.66355e-05
2.08475e-05
-7.95456e-05
2.97924e-05
-7.99966e-05
3.62678e-05
-7.83181e-05
4.00135e-05
-7.49141e-05
4.10918e-05
-6.98672e-05
3.96341e-05
-6.36464e-05
3.59085e-05
-5.65593e-05
3.03056e-05
-4.88686e-05
2.32353e-05
-4.08338e-05
1.51741e-05
-3.28226e-05
6.71834e-06
-2.53602e-05
-1.42231e-06
-1.90258e-05
-8.58834e-06
-1.40826e-05
-1.44612e-05
-1.05366e-05
-1.94316e-05
-6.78315e-06
-2.51525e-05
-2.28425e-06
-3.30864e-05
-3.76693e-05
-1.2041e-05
-4.43485e-05
-2.15785e-05
-3.62938e-05
-3.10109e-05
-2.7726e-05
-4.21821e-05
-1.82072e-05
-5.24846e-05
-6.67954e-06
-6.07767e-05
4.94342e-06
-6.69506e-05
1.55857e-05
-7.09233e-05
2.46266e-05
-7.28191e-05
3.1599e-05
-7.27775e-05
3.61909e-05
-7.09726e-05
3.82464e-05
-6.76635e-05
3.79037e-05
-6.30992e-05
3.52201e-05
-5.75565e-05
3.05208e-05
-5.12432e-05
2.41664e-05
-4.43283e-05
1.65616e-05
-3.70568e-05
8.24008e-06
-2.98304e-05
-1.10662e-07
-2.32064e-05
-7.74321e-06
-1.75717e-05
-1.40845e-05
-1.32615e-05
-1.89804e-05
-9.90715e-06
-2.31978e-05
-6.57363e-06
-2.86866e-05
-3.14933e-06
-3.63682e-05
-4.04993e-05
-1.18767e-05
-3.51184e-05
-2.15126e-05
-2.69304e-05
-3.07293e-05
-1.84649e-05
-4.06382e-05
-9.36989e-06
-4.87737e-05
1.0188e-06
-5.52121e-05
1.10503e-05
-5.98728e-05
2.00087e-05
-6.27518e-05
2.73708e-05
-6.39598e-05
3.27447e-05
-6.36261e-05
3.58175e-05
-6.18875e-05
3.65517e-05
-5.88625e-05
3.49996e-05
-5.48809e-05
3.13463e-05
-5.00902e-05
2.58528e-05
-4.45917e-05
1.88423e-05
-3.85096e-05
1.07536e-05
-3.20951e-05
2.20984e-06
-2.57668e-05
-6.01563e-06
-2.00198e-05
-1.31778e-05
-1.50715e-05
-1.88184e-05
-1.1214e-05
-2.28995e-05
-8.03181e-06
-2.64639e-05
-5.2679e-06
-3.14938e-05
-3.20764e-06
-3.87395e-05
-4.29517e-05
-1.1121e-05
-2.6512e-05
-1.91317e-05
-1.83508e-05
-2.7761e-05
-1.00746e-05
-3.59897e-05
-1.72802e-06
-4.2518e-05
7.33643e-06
-4.76213e-05
1.59128e-05
-5.12147e-05
2.34342e-05
-5.33442e-05
2.93978e-05
-5.40911e-05
3.34402e-05
-5.3583e-05
3.53036e-05
-5.19696e-05
3.49911e-05
-4.94249e-05
3.25222e-05
-4.60885e-05
2.80839e-05
-4.20463e-05
2.19131e-05
-3.73444e-05
1.43257e-05
-3.20987e-05
5.8162e-06
-2.65724e-05
-2.89711e-06
-2.11606e-05
-1.0983e-05
-1.6249e-05
-1.77351e-05
-1.19665e-05
-2.28038e-05
-8.55496e-06
-2.62304e-05
-5.7471e-06
-2.9216e-05
-3.47798e-06
-3.3628e-05
-2.76729e-06
-4.02201e-05
-4.48032e-05
-9.75869e-06
-1.88689e-05
-1.6071e-05
-1.09592e-05
-2.31247e-05
-2.91565e-06
-2.97603e-05
4.64597e-06
-3.50475e-05
1.25097e-05
-3.91491e-05
1.98373e-05
-4.19734e-05
2.61359e-05
-4.35891e-05
3.09335e-05
-4.40831e-05
3.38824e-05
-4.35978e-05
3.48058e-05
-4.22204e-05
3.36427e-05
-4.01187e-05
3.04538e-05
-3.73831e-05
2.53946e-05
-3.40314e-05
1.86626e-05
-3.00842e-05
1.05857e-05
-2.56581e-05
1.73211e-06
-2.10206e-05
-7.09451e-06
-1.65108e-05
-1.50404e-05
-1.24099e-05
-2.14573e-05
-8.84282e-06
-2.60773e-05
-5.98866e-06
-2.90175e-05
-3.71643e-06
-3.1547e-05
-1.80116e-06
-3.53497e-05
-2.22217e-06
-4.11945e-05
-4.6299e-05
-8.08625e-06
-1.24507e-05
-1.31615e-05
-4.87565e-06
-1.82878e-05
2.79824e-06
-2.34717e-05
9.72066e-06
-2.76322e-05
1.66425e-05
-3.08635e-05
2.29584e-05
-3.30624e-05
2.82504e-05
-3.42866e-05
3.20941e-05
-3.46139e-05
3.41706e-05
-3.41771e-05
3.43551e-05
-3.30731e-05
3.25458e-05
-3.14097e-05
2.88076e-05
-2.9237e-05
2.32665e-05
-2.65515e-05
1.60907e-05
-2.33552e-05
7.62972e-06
-1.97752e-05
-1.47154e-06
-1.60755e-05
-1.03453e-05
-1.25494e-05
-1.81474e-05
-9.36528e-06
-2.42957e-05
-6.71957e-06
-2.85792e-05
-4.55984e-06
-3.12045e-05
-2.84555e-06
-3.34669e-05
-1.18489e-06
-3.68562e-05
-1.61847e-06
-4.20743e-05
-4.7653e-05
-6.37116e-06
-7.35205e-06
-1.02521e-05
-1.16931e-07
-1.40563e-05
7.1365e-06
-1.79289e-05
1.35602e-05
-2.10472e-05
1.97706e-05
-2.34506e-05
2.53026e-05
-2.50599e-05
2.98068e-05
-2.59181e-05
3.29054e-05
-2.61004e-05
3.43245e-05
-2.57035e-05
3.39461e-05
-2.48253e-05
3.16685e-05
-2.35435e-05
2.75443e-05
-2.18933e-05
2.16694e-05
-1.9864e-05
1.41919e-05
-1.74617e-05
5.48606e-06
-1.48144e-05
-3.74228e-06
-1.21551e-05
-1.25904e-05
-9.72128e-06
-2.02436e-05
-7.59968e-06
-2.61921e-05
-5.91029e-06
-3.02555e-05
-4.54359e-06
-3.27254e-05
-3.30688e-06
-3.49202e-05
-1.85463e-06
-3.81889e-05
-1.2728e-06
-4.30709e-05
-4.88576e-05
-4.81153e-06
-3.48387e-06
-7.68248e-06
3.4501e-06
-1.04431e-05
1.03216e-05
-1.32322e-05
1.63331e-05
-1.54374e-05
2.19963e-05
-1.70892e-05
2.69251e-05
-1.81429e-05
3.08283e-05
-1.8636e-05
3.33669e-05
-1.86512e-05
3.43157e-05
-1.82594e-05
3.35402e-05
-1.75376e-05
3.09487e-05
-1.65599e-05
2.65893e-05
-1.53712e-05
2.05351e-05
-1.39773e-05
1.29214e-05
-1.24274e-05
4.13906e-06
-1.08123e-05
-5.08779e-06
-9.26423e-06
-1.38546e-05
-7.93694e-06
-2.13796e-05
-6.81047e-06
-2.7222e-05
-5.85759e-06
-3.12357e-05
-5.02765e-06
-3.37411e-05
-4.05867e-06
-3.60468e-05
-2.73404e-06
-3.94189e-05
-1.37827e-06
-4.42728e-05
-5.00986e-05
-3.48775e-06
-6.59914e-07
-5.50022e-06
6.01465e-06
-7.42908e-06
1.25581e-05
-9.30849e-06
1.82247e-05
-1.07505e-05
2.34523e-05
-1.17527e-05
2.79195e-05
-1.23098e-05
3.13689e-05
-1.24608e-05
3.35001e-05
-1.22771e-05
3.41178e-05
-1.18323e-05
3.30875e-05
-1.12069e-05
3.03269e-05
-1.04707e-05
2.58757e-05
-9.68974e-06
1.97985e-05
-8.92055e-06
1.22255e-05
-8.23958e-06
3.537e-06
-7.65766e-06
-5.5736e-06
-7.1682e-06
-1.42337e-05
-6.78727e-06
-2.16911e-05
-6.4372e-06
-2.75352e-05
-5.99102e-06
-3.16884e-05
-5.34954e-06
-3.4417e-05
-4.4577e-06
-3.69828e-05
-3.15027e-06
-4.05774e-05
-1.66903e-06
-4.55605e-05
-5.14662e-05
-2.39282e-06
1.28525e-06
-3.72067e-06
7.75351e-06
-4.94177e-06
1.40285e-05
-6.1452e-06
1.94248e-05
-6.92361e-06
2.42802e-05
-7.38435e-06
2.83743e-05
-7.4937e-06
3.14763e-05
-7.31415e-06
3.33173e-05
-6.92189e-06
3.37216e-05
-6.39635e-06
3.25616e-05
-5.8251e-06
2.9761e-05
-5.28257e-06
2.53531e-05
-4.85519e-06
1.94033e-05
-4.65211e-06
1.20366e-05
-4.72154e-06
3.59268e-06
-5.0195e-06
-5.30396e-06
-5.41664e-06
-1.38411e-05
-5.78865e-06
-2.12949e-05
-6.02855e-06
-2.72819e-05
-5.92886e-06
-3.17178e-05
-5.36677e-06
-3.48183e-05
-4.52541e-06
-3.77146e-05
-3.28621e-06
-4.15465e-05
-1.82984e-06
-4.67183e-05
-5.27651e-05
-1.5285e-06
2.53533e-06
-2.30191e-06
8.82234e-06
-2.9635e-06
1.48634e-05
-3.56964e-06
2.00306e-05
-3.83914e-06
2.46045e-05
-3.82893e-06
2.83738e-05
-3.53571e-06
3.11962e-05
-3.04625e-06
3.28363e-05
-2.43767e-06
3.31197e-05
-1.79949e-06
3.19317e-05
-1.23315e-06
2.91993e-05
-8.1744e-07
2.49501e-05
-6.5407e-07
1.92513e-05
-8.63536e-07
1.22225e-05
-1.4881e-06
4.14942e-06
-2.47577e-06
-4.43784e-06
-3.60651e-06
-1.28202e-05
-4.6295e-06
-2.03121e-05
-5.34964e-06
-2.65486e-05
-5.52152e-06
-3.13918e-05
-4.96012e-06
-3.49959e-05
-4.16646e-06
-3.82111e-05
-3.05017e-06
-4.22193e-05
-1.73656e-06
-4.75802e-05
-5.37749e-05
-9.17469e-07
3.25562e-06
-1.25506e-06
9.36832e-06
-1.48782e-06
1.52018e-05
-1.49003e-06
2.01023e-05
-1.32814e-06
2.44321e-05
-8.79923e-07
2.79733e-05
-2.4388e-07
3.05876e-05
5.12722e-07
3.20873e-05
1.33914e-06
3.23155e-05
2.11301e-06
3.11674e-05
2.73198e-06
2.85795e-05
3.10049e-06
2.45708e-05
3.13117e-06
1.9203e-05
2.70263e-06
1.26001e-05
1.73001e-06
4.99867e-06
2.59716e-07
-3.18361e-06
-1.46094e-06
-1.13555e-05
-3.00678e-06
-1.89001e-05
-4.14884e-06
-2.54055e-05
-4.60702e-06
-3.07236e-05
-4.10119e-06
-3.48873e-05
-3.339e-06
-3.8427e-05
-2.42973e-06
-4.25242e-05
-1.36661e-06
-4.80277e-05
-5.43588e-05
-4.55031e-07
3.52589e-06
-4.10039e-07
9.47585e-06
-2.40534e-07
1.50888e-05
1.4991e-07
1.97811e-05
7.82212e-07
2.388e-05
1.47999e-06
2.72717e-05
2.35098e-06
2.97462e-05
3.37662e-06
3.11147e-05
4.3999e-06
3.13137e-05
5.35734e-06
3.02372e-05
6.10632e-06
2.78388e-05
6.53297e-06
2.41259e-05
6.56546e-06
1.91437e-05
6.09011e-06
1.30095e-05
5.00025e-06
5.93109e-06
3.32054e-06
-1.77754e-06
1.25121e-06
-9.66107e-06
-7.11765e-07
-1.72102e-05
-2.17784e-06
-2.3976e-05
-3.01077e-06
-2.97429e-05
-2.85137e-06