/*--------------------------------*- C++ -*----------------------------------*\
| =========                 |                                                 |
| \\      /  F ield         | OpenFOAM: The Open Source CFD Toolbox           |
|  \\    /   O peration     | Version:  2.3.0                                 |
|   \\  /    A nd           | Web:      www.OpenFOAM.org                      |
|    \\/     M anipulation  |                                                 |
\*---------------------------------------------------------------------------*/
FoamFile
{
    version     2.0;
    format      ascii;
    class       volVectorField;
    location    "64";
    object      U;
}
// * * * * * * * * * * * * * * * * * * * * * * * * * * * * * * * * * * * * * //

dimensions      [0 1 -1 0 0 0 0];

internalField   nonuniform List<vector> 
1875
(
(0.0186397 -0.0396024 0)
(0.0379288 -0.0554935 0)
(0.0756272 -0.0641024 0)
(0.113101 -0.0625435 0)
(0.148832 -0.0574853 0)
(0.181356 -0.0503529 0)
(0.209748 -0.0421966 0)
(0.233498 -0.0337004 0)
(0.252282 -0.0252359 0)
(0.265859 -0.016724 0)
(0.27403 -0.00842832 0)
(0.276794 -0.000335736 0)
(0.273853 0.00726092 0)
(0.26452 0.01395 0)
(0.248752 0.0197184 0)
(0.227541 0.0251504 0)
(0.20232 0.0294259 0)
(0.174893 0.0311901 0)
(0.147023 0.029703 0)
(0.120578 0.0247344 0)
(0.0968872 0.0179587 0)
(0.0761755 0.0125355 0)
(0.0573056 0.013139 0)
(0.0312208 0.0191066 0)
(0.0191747 0.0138473 0)
(0.0291965 -0.00380336 0)
(0.0552575 -0.0170639 0)
(0.0887378 -0.027016 0)
(0.117119 -0.0265458 0)
(0.143132 -0.0202246 0)
(0.166646 -0.0098095 0)
(0.187422 0.00288018 0)
(0.205183 0.0172653 0)
(0.219537 0.0329653 0)
(0.230194 0.0499251 0)
(0.23661 0.0683627 0)
(0.237987 0.088122 0)
(0.234693 0.107833 0)
(0.227522 0.126823 0)
(0.216265 0.144495 0)
(0.200244 0.159503 0)
(0.180425 0.168728 0)
(0.157936 0.172928 0)
(0.134205 0.172428 0)
(0.110338 0.16815 0)
(0.0869833 0.162127 0)
(0.0647009 0.156211 0)
(0.0442356 0.156572 0)
(0.0238074 0.16413 0)
(0.0111317 0.156012 0)
(0.021059 -0.139439 0)
(0.0505435 -0.137129 0)
(0.0785263 -0.13072 0)
(0.100532 -0.119508 0)
(0.119153 -0.104695 0)
(0.134977 -0.0876412 0)
(0.148133 -0.0686425 0)
(0.158558 -0.0480446 0)
(0.166325 -0.0259035 0)
(0.171434 -0.00252583 0)
(0.174233 0.021964 0)
(0.174969 0.0479415 0)
(0.172852 0.0759889 0)
(0.167247 0.105096 0)
(0.158221 0.133423 0)
(0.145916 0.158739 0)
(0.129904 0.178237 0)
(0.111322 0.187353 0)
(0.0921169 0.188477 0)
(0.0733576 0.18274 0)
(0.0560032 0.173196 0)
(0.0404362 0.163407 0)
(0.0265807 0.160035 0)
(0.0142309 0.160967 0)
(0.00694039 0.152343 0)
(0.00844524 -0.19596 0)
(0.0337808 -0.183757 0)
(0.0505451 -0.164547 0)
(0.0642006 -0.145106 0)
(0.0759887 -0.124284 0)
(0.0857522 -0.101209 0)
(0.0931818 -0.0759642 0)
(0.0980648 -0.0490905 0)
(0.100481 -0.0210404 0)
(0.100707 0.00802564 0)
(0.0987863 0.0381858 0)
(0.0949065 0.0692413 0)
(0.089451 0.100997 0)
(0.0825999 0.133613 0)
(0.0743846 0.166123 0)
(0.0648871 0.196361 0)
(0.0542886 0.221147 0)
(0.0435303 0.231835 0)
(0.0333622 0.232757 0)
(0.0242779 0.224055 0)
(0.0167181 0.21015 0)
(0.0105809 0.196214 0)
(0.00593845 0.188593 0)
(0.002405 0.184748 0)
(0.000280061 0.17139 0)
(-0.000488941 -0.230866 0)
(0.014586 -0.214967 0)
(0.0196357 -0.189532 0)
(0.0239444 -0.167949 0)
(0.027865 -0.144019 0)
(0.0301421 -0.116831 0)
(0.030464 -0.0867983 0)
(0.028916 -0.054535 0)
(0.0255589 -0.0219873 0)
(0.0207618 0.0108668 0)
(0.0148402 0.0443346 0)
(0.00799531 0.0785197 0)
(0.000459176 0.113264 0)
(-0.0073636 0.148328 0)
(-0.0148877 0.182382 0)
(-0.021223 0.212646 0)
(-0.0251956 0.234265 0)
(-0.0265454 0.242255 0)
(-0.0260393 0.239476 0)
(-0.0238236 0.22757 0)
(-0.0204857 0.211123 0)
(-0.016645 0.195416 0)
(-0.0122429 0.18535 0)
(-0.00644289 0.180294 0)
(-0.00399293 0.167668 0)
(-0.00679577 -0.23694 0)
(-0.00118879 -0.217143 0)
(-0.00731873 -0.18791 0)
(-0.0125453 -0.166812 0)
(-0.0176334 -0.139896 0)
(-0.0244236 -0.108748 0)
(-0.0326851 -0.0752932 0)
(-0.0417823 -0.040333 0)
(-0.0513864 -0.00525995 0)
(-0.0612084 0.0293954 0)
(-0.0708732 0.0640155 0)
(-0.0799738 0.0986751 0)
(-0.0879941 0.133002 0)
(-0.0941698 0.166099 0)
(-0.0974228 0.195736 0)
(-0.0967 0.218437 0)
(-0.0917586 0.230739 0)
(-0.0834183 0.232751 0)
(-0.0727246 0.225063 0)
(-0.060707 0.210206 0)
(-0.0485788 0.192862 0)
(-0.0370195 0.177442 0)
(-0.0258387 0.166711 0)
(-0.0133932 0.160745 0)
(-0.0077577 0.151324 0)
(-0.0145041 -0.221222 0)
(-0.0142885 -0.197631 0)
(-0.0304045 -0.16725 0)
(-0.0446803 -0.146934 0)
(-0.0590841 -0.116432 0)
(-0.0750612 -0.0821137 0)
(-0.0914785 -0.0470857 0)
(-0.107434 -0.0119487 0)
(-0.122269 0.0224114 0)
(-0.13544 0.0555813 0)
(-0.146363 0.0876689 0)
(-0.154379 0.11835 0)
(-0.158795 0.146705 0)
(-0.158889 0.171165 0)
(-0.154165 0.189671 0)
(-0.144666 0.201204 0)
(-0.131184 0.205619 0)
(-0.114708 0.200964 0)
(-0.0966467 0.189666 0)
(-0.0785336 0.174567 0)
(-0.0614701 0.159075 0)
(-0.0457888 0.145889 0)
(-0.031099 0.136272 0)
(-0.0158597 0.130898 0)
(-0.00893328 0.126745 0)
(-0.0203283 -0.189289 0)
(-0.0236553 -0.15769 0)
(-0.0489056 -0.127301 0)
(-0.0708291 -0.105625 0)
(-0.093368 -0.0712665 0)
(-0.116493 -0.0365047 0)
(-0.138304 -0.0029806 0)
(-0.157917 0.0286593 0)
(-0.174241 0.0577168 0)
(-0.186475 0.0836799 0)
(-0.194255 0.1067 0)
(-0.197189 0.126632 0)
(-0.194949 0.14337 0)
(-0.187575 0.155967 0)
(-0.175525 0.164276 0)
(-0.159428 0.167085 0)
(-0.140187 0.164178 0)
(-0.119169 0.155698 0)
(-0.0980571 0.144297 0)
(-0.07807 0.131784 0)
(-0.0598876 0.120009 0)
(-0.0435495 0.110205 0)
(-0.0286815 0.103228 0)
(-0.0142969 0.1008 0)
(-0.00789241 0.103468 0)
(-0.0239673 -0.144996 0)
(-0.031286 -0.102734 0)
(-0.0632462 -0.0727333 0)
(-0.0897281 -0.0482914 0)
(-0.11656 -0.0133124 0)
(-0.141761 0.0179141 0)
(-0.163843 0.0455389 0)
(-0.181974 0.0684359 0)
(-0.195473 0.0856812 0)
(-0.203994 0.0992105 0)
(-0.207064 0.1108 0)
(-0.204672 0.11985 0)
(-0.197179 0.125201 0)
(-0.184908 0.12773 0)
(-0.168553 0.126892 0)
(-0.149167 0.12266 0)
(-0.127954 0.115687 0)
(-0.106386 0.107023 0)
(-0.0857144 0.0981127 0)
(-0.0667045 0.0897135 0)
(-0.0497657 0.0825159 0)
(-0.0349539 0.0769163 0)
(-0.0221448 0.0737952 0)
(-0.0107275 0.0758119 0)
(-0.00590981 0.0841594 0)
(-0.0263867 -0.0885774 0)
(-0.0371737 -0.0375252 0)
(-0.0726711 -0.0104676 0)
(-0.0997355 0.0139663 0)
(-0.125984 0.0441683 0)
(-0.148976 0.0679814 0)
(-0.16805 0.0861234 0)
(-0.182512 0.0983707 0)
(-0.19237 0.10676 0)
(-0.196341 0.110776 0)
(-0.195959 0.109897 0)
(-0.190251 0.105104 0)
(-0.179522 0.0992255 0)
(-0.165199 0.0923779 0)
(-0.147953 0.0847625 0)
(-0.128846 0.0766348 0)
(-0.109051 0.0687374 0)
(-0.0895494 0.0617282 0)
(-0.0710548 0.0560694 0)
(-0.0540474 0.0519738 0)
(-0.0388876 0.0496048 0)
(-0.0258468 0.0490662 0)
(-0.0151771 0.0511199 0)
(-0.00669864 0.0584657 0)
(-0.00342761 0.0712069 0)
(-0.0268962 -0.0245678 0)
(-0.037474 0.033853 0)
(-0.0719132 0.0534819 0)
(-0.0971593 0.0715395 0)
(-0.120636 0.0949004 0)
(-0.140566 0.110828 0)
(-0.156724 0.119694 0)
(-0.168574 0.121481 0)
(-0.175536 0.117123 0)
(-0.177531 0.107974 0)
(-0.174098 0.0960427 0)
(-0.166615 0.08301 0)
(-0.15606 0.0700156 0)
(-0.142841 0.0574957 0)
(-0.127862 0.0460023 0)
(-0.111861 0.0361709 0)
(-0.0954893 0.0283426 0)
(-0.0792054 0.022697 0)
(-0.063351 0.0193487 0)
(-0.0482327 0.0184236 0)
(-0.0341942 0.0200657 0)
(-0.0216796 0.0244778 0)
(-0.0112574 0.0323726 0)
(-0.0035752 0.0462595 0)
(-0.00099989 0.0645564 0)
(-0.0252525 0.0358894 0)
(-0.033075 0.0911168 0)
(-0.0625144 0.111283 0)
(-0.0849225 0.123426 0)
(-0.10581 0.139802 0)
(-0.123302 0.148038 0)
(-0.137196 0.148331 0)
(-0.147061 0.140761 0)
(-0.152383 0.125959 0)
(-0.153225 0.105687 0)
(-0.150221 0.0849064 0)
(-0.144255 0.06478 0)
(-0.136031 0.0460338 0)
(-0.126188 0.0295826 0)
(-0.115289 0.0157641 0)
(-0.103665 0.00462342 0)
(-0.0914991 -0.00386446 0)
(-0.0788747 -0.00970545 0)
(-0.0658618 -0.012803 0)
(-0.0525674 -0.012891 0)
(-0.0391938 -0.0095164 0)
(-0.0261205 -0.00201182 0)
(-0.0139362 0.0107289 0)
(-0.00397367 0.0328294 0)
(-0.00085221 0.062296 0)
(-0.0218937 0.0878575 0)
(-0.0272355 0.141026 0)
(-0.0517807 0.158663 0)
(-0.0704572 0.169111 0)
(-0.0882868 0.179526 0)
(-0.103185 0.180556 0)
(-0.115023 0.172774 0)
(-0.123201 0.155918 0)
(-0.127489 0.131571 0)
(-0.128562 0.104034 0)
(-0.127214 0.0769468 0)
(-0.12401 0.0519901 0)
(-0.119514 0.0300768 0)
(-0.114127 0.0114584 0)
(-0.108013 -0.00405824 0)
(-0.101173 -0.0167351 0)
(-0.0935338 -0.0268219 0)
(-0.084985 -0.0343555 0)
(-0.0754043 -0.0391449 0)
(-0.0647313 -0.0408126 0)
(-0.0529709 -0.0385402 0)
(-0.0401788 -0.0310356 0)
(-0.0269014 -0.0165621 0)
(-0.0140529 0.0141458 0)
(-0.0080539 0.0582673 0)
(-0.0177181 0.129595 0)
(-0.0207756 0.181399 0)
(-0.0403425 0.19813 0)
(-0.0550031 0.206498 0)
(-0.0690326 0.211886 0)
(-0.0809364 0.20754 0)
(-0.0905725 0.193144 0)
(-0.0972964 0.168584 0)
(-0.101337 0.13771 0)
(-0.103499 0.105454 0)
(-0.104428 0.074891 0)
(-0.104524 0.0475204 0)
(-0.103972 0.0239737 0)
(-0.102759 0.00401889 0)
(-0.100797 -0.0129776 0)
(-0.097996 -0.0274774 0)
(-0.0942436 -0.0397451 0)
(-0.0894199 -0.0499032 0)
(-0.0833816 -0.0576632 0)
(-0.0759513 -0.0625158 0)
(-0.0668997 -0.0635647 0)
(-0.0559022 -0.0595251 0)
(-0.0433281 -0.0463503 0)
(-0.0273806 -0.0149175 0)
(-0.0176486 0.0186599 0)
(-0.0123598 0.160227 0)
(-0.0136609 0.21193 0)
(-0.0273458 0.227063 0)
(-0.0374994 0.234524 0)
(-0.0474429 0.236496 0)
(-0.0561523 0.228872 0)
(-0.0634929 0.209409 0)
(-0.0690724 0.179852 0)
(-0.0733852 0.145489 0)
(-0.0770389 0.111042 0)
(-0.0802613 0.0793581 0)
(-0.0830785 0.0511828 0)
(-0.0854102 0.0263989 0)
(-0.0870774 0.00459489 0)
(-0.0879539 -0.0144375 0)
(-0.0879301 -0.0310927 0)
(-0.0869561 -0.0456425 0)
(-0.0850005 -0.0581804 0)
(-0.0820087 -0.0688463 0)
(-0.077791 -0.0771777 0)
(-0.0720422 -0.0826837 0)
(-0.0644484 -0.0840391 0)
(-0.0541222 -0.0752447 0)
(-0.0362312 -0.0547868 0)
(-0.0214579 -0.0338767 0)
(-0.00647683 0.177881 0)
(-0.00595797 0.229419 0)
(-0.0129342 0.245386 0)
(-0.0181219 0.252475 0)
(-0.023568 0.252934 0)
(-0.0287003 0.243791 0)
(-0.0336835 0.222048 0)
(-0.0384199 0.190641 0)
(-0.0430852 0.155732 0)
(-0.047848 0.121144 0)
(-0.0525601 0.0885721 0)
(-0.0569777 0.0592281 0)
(-0.0609235 0.0330654 0)
(-0.0642653 0.00976826 0)
(-0.0668665 -0.0110259 0)
(-0.0686276 -0.0296437 0)
(-0.0695006 -0.046269 0)
(-0.0695067 -0.0609706 0)
(-0.068695 -0.0737817 0)
(-0.067002 -0.0850247 0)
(-0.0643287 -0.0935094 0)
(-0.0601981 -0.0994085 0)
(-0.0529758 -0.1026 0)
(-0.0376305 -0.102234 0)
(-0.017976 -0.0986051 0)
(-0.000397082 0.182604 0)
(0.00205047 0.234709 0)
(0.0022294 0.251019 0)
(0.00261056 0.259112 0)
(0.00204743 0.259898 0)
(0.000843197 0.251596 0)
(-0.00154021 0.231339 0)
(-0.00521017 0.201029 0)
(-0.00978923 0.166818 0)
(-0.0149142 0.132506 0)
(-0.0202959 0.0998785 0)
(-0.0256459 0.0698788 0)
(-0.0306825 0.0426292 0)
(-0.0352018 0.0178806 0)
(-0.0390141 -0.00471474 0)
(-0.0419897 -0.0253087 0)
(-0.0441137 -0.0438236 0)
(-0.0454561 -0.0602379 0)
(-0.0461022 -0.0745478 0)
(-0.0459404 -0.0871526 0)
(-0.044613 -0.0983805 0)
(-0.0416961 -0.109323 0)
(-0.037164 -0.12168 0)
(-0.0277267 -0.141999 0)
(-0.00926013 -0.15529 0)
(0.00462991 0.175279 0)
(0.00933567 0.225447 0)
(0.0175934 0.243555 0)
(0.0235878 0.253797 0)
(0.0281774 0.257216 0)
(0.0312007 0.252033 0)
(0.0321188 0.236038 0)
(0.0303554 0.209476 0)
(0.0264639 0.177645 0)
(0.021295 0.144682 0)
(0.0154369 0.112672 0)
(0.00930797 0.0824968 0)
(0.00325578 0.0544836 0)
(-0.00246062 0.0284854 0)
(-0.00762291 0.00423478 0)
(-0.0120632 -0.01817 0)
(-0.0156848 -0.038458 0)
(-0.0184766 -0.056454 0)
(-0.0204046 -0.0725361 0)
(-0.0212301 -0.0879454 0)
(-0.020637 -0.102899 0)
(-0.0184682 -0.117112 0)
(-0.016064 -0.130875 0)
(-0.0134798 -0.161715 0)
(-0.00220727 -0.187313 0)
(0.00893709 0.156126 0)
(0.0157331 0.19918 0)
(0.0312485 0.221839 0)
(0.0428219 0.23621 0)
(0.052401 0.243369 0)
(0.059909 0.2428 0)
(0.0647091 0.233604 0)
(0.0659783 0.214276 0)
(0.0637235 0.187431 0)
(0.0589899 0.157294 0)
(0.0528071 0.126794 0)
(0.0458825 0.0971833 0)
(0.0386832 0.0690005 0)
(0.0315336 0.0422756 0)
(0.024677 0.0168395 0)
(0.0183275 -0.00717759 0)
(0.0127022 -0.0293834 0)
(0.00798093 -0.0494884 0)
(0.00434018 -0.0680596 0)
(0.00186478 -0.0862249 0)
(0.0004975 -0.103985 0)
(0.000311962 -0.120936 0)
(0.000675336 -0.133021 0)
(-0.002433 -0.16246 0)
(0.00113116 -0.197053 0)
(0.0111844 0.129398 0)
(0.0195283 0.161862 0)
(0.0398589 0.187627 0)
(0.0565158 0.207061 0)
(0.0708638 0.219316 0)
(0.0827047 0.2246 0)
(0.0916426 0.222434 0)
(0.0969193 0.212193 0)
(0.0978733 0.193732 0)
(0.0949124 0.169308 0)
(0.0891737 0.142023 0)
(0.0817053 0.114049 0)
(0.0733209 0.0865326 0)
(0.0645874 0.059765 0)
(0.0558557 0.0337624 0)
(0.0473991 0.00862036 0)
(0.0395059 -0.0153443 0)
(0.0324656 -0.0377447 0)
(0.0265003 -0.0589483 0)
(0.021579 -0.0792702 0)
(0.0174994 -0.0989117 0)
(0.014092 -0.117472 0)
(0.0111098 -0.129013 0)
(0.00466711 -0.15258 0)
(0.00547576 -0.193936 0)
(0.0114576 0.0994329 0)
(0.0203113 0.119577 0)
(0.0422354 0.144261 0)
(0.0625056 0.167846 0)
(0.0807988 0.185439 0)
(0.0965491 0.196894 0)
(0.109351 0.202006 0)
(0.118653 0.200605 0)
(0.123799 0.192419 0)
(0.124354 0.177043 0)
(0.120737 0.15641 0)
(0.113886 0.132725 0)
(0.104767 0.107182 0)
(0.0944708 0.0811865 0)
(0.0837813 0.0551706 0)
(0.073188 0.0293441 0)
(0.0630273 0.00401122 0)
(0.0535989 -0.0204133 0)
(0.0451007 -0.0438158 0)
(0.0375248 -0.0661022 0)
(0.0306968 -0.0871028 0)
(0.0242426 -0.106102 0)
(0.0182107 -0.117856 0)
(0.00902934 -0.137044 0)
(0.00888897 -0.181984 0)
(0.0101683 0.0703097 0)
(0.0183183 0.0783087 0)
(0.0390172 0.0972508 0)
(0.060493 0.121825 0)
(0.0813347 0.143876 0)
(0.100161 0.161184 0)
(0.116246 0.173333 0)
(0.129019 0.180062 0)
(0.137992 0.181088 0)
(0.142721 0.176596 0)
(0.142843 0.165069 0)
(0.138294 0.149503 0)
(0.129919 0.129698 0)
(0.118836 0.106283 0)
(0.106469 0.0808718 0)
(0.0938997 0.0546406 0)
(0.0816722 0.0282176 0)
(0.0700977 0.0021245 0)
(0.0593744 -0.023182 0)
(0.049521 -0.0472272 0)
(0.0404268 -0.0695205 0)
(0.0316882 -0.0887925 0)
(0.0234602 -0.101345 0)
(0.0123819 -0.117747 0)
(0.010708 -0.163782 0)
(0.00718309 0.0463691 0)
(0.0136944 0.0425198 0)
(0.0315486 0.0531418 0)
(0.0519767 0.0740299 0)
(0.073538 0.097638 0)
(0.0942302 0.119523 0)
(0.112689 0.138036 0)
(0.128069 0.152462 0)
(0.139755 0.162055 0)
(0.147383 0.166439 0)
(0.150553 0.166978 0)
(0.149452 0.161889 0)
(0.143985 0.15071 0)
(0.134694 0.133703 0)
(0.122611 0.110746 0)
(0.109045 0.0844167 0)
(0.0951565 0.0568822 0)
(0.0817228 0.0291123 0)
(0.0691384 0.00186744 0)
(0.057515 -0.0239874 0)
(0.0468171 -0.0477819 0)
(0.0366308 -0.0675048 0)
(0.0270186 -0.0809 0)
(0.0147097 -0.0949413 0)
(0.0118029 -0.139554 0)
(0.00320298 0.0317867 0)
(0.00764914 0.0130735 0)
(0.0221886 0.0142464 0)
(0.0400545 0.0283076 0)
(0.0604018 0.0500342 0)
(0.0812975 0.0743845 0)
(0.100873 0.0983419 0)
(0.11778 0.120166 0)
(0.131109 0.138472 0)
(0.140287 0.152486 0)
(0.145436 0.161528 0)
(0.146279 0.165131 0)
(0.144036 0.163033 0)
(0.138328 0.154537 0)
(0.128804 0.138429 0)
(0.116466 0.116134 0)
(0.10241 0.089157 0)
(0.0879761 0.0600472 0)
(0.0740785 0.0306471 0)
(0.061163 0.00246766 0)
(0.0493968 -0.0233417 0)
(0.0384767 -0.0439289 0)
(0.0282258 -0.0579685 0)
(0.0152948 -0.0704385 0)
(0.0121813 -0.11304 0)
(0.0030135 0.0302151 0)
(0.00617742 -0.00794275 0)
(0.0169682 -0.0166288 0)
(0.0308309 -0.0109321 0)
(0.0476063 0.00581272 0)
(0.0661806 0.0296702 0)
(0.0847445 0.0571158 0)
(0.101619 0.085376 0)
(0.115512 0.112056 0)
(0.125588 0.135028 0)
(0.13157 0.152919 0)
(0.133751 0.163956 0)
(0.132461 0.168732 0)
(0.128592 0.167052 0)
(0.121887 0.159141 0)
(0.112221 0.14329 0)
(0.100277 0.120387 0)
(0.0868809 0.0921719 0)
(0.0731712 0.0614519 0)
(0.0600076 0.0309144 0)
(0.047923 0.00241301 0)
(0.0370056 -0.0200371 0)
(0.0269744 -0.0343963 0)
(0.014388 -0.0458808 0)
(0.011455 -0.087202 0)
(0.00545799 0.0167692 0)
(0.00826672 -0.0238146 0)
(0.0161635 -0.0392909 0)
(0.0261377 -0.0395101 0)
(0.0381844 -0.0290192 0)
(0.0522485 -0.00848038 0)
(0.0673344 0.0195116 0)
(0.0819656 0.051853 0)
(0.0946699 0.0853824 0)
(0.10434 0.116834 0)
(0.110319 0.144114 0)
(0.112539 0.16294 0)
(0.11176 0.173705 0)
(0.108583 0.177918 0)
(0.103719 0.174802 0)
(0.0967922 0.163981 0)
(0.0879612 0.145578 0)
(0.0774872 0.120435 0)
(0.0659148 0.09042 0)
(0.0541136 0.0586494 0)
(0.0428354 0.0277852 0)
(0.0327768 0.0026166 0)
(0.0238018 -0.0123128 0)
(0.0125402 -0.0231527 0)
(0.00993404 -0.0639656 0)
(0.00623968 0.00225107 0)
(0.00919479 -0.0356924 0)
(0.0155004 -0.0565228 0)
(0.022987 -0.0592436 0)
(0.0310752 -0.0524271 0)
(0.0402455 -0.0355341 0)
(0.0504211 -0.00920836 0)
(0.0609255 0.0245559 0)
(0.0706015 0.0624881 0)
(0.0782812 0.100413 0)
(0.0832598 0.135357 0)
(0.0851517 0.161537 0)
(0.0845446 0.177791 0)
(0.0823506 0.185352 0)
(0.0788292 0.185475 0)
(0.0742594 0.178302 0)
(0.0684132 0.163222 0)
(0.0614844 0.141329 0)
(0.0533793 0.113547 0)
(0.0444184 0.0822672 0)
(0.0351922 0.0503102 0)
(0.0268311 0.0218317 0)
(0.0194447 0.00670252 0)
(0.010129 -0.00376802 0)
(0.0079872 -0.0444763 0)
(0.00660731 -0.0152121 0)
(0.0100727 -0.0456287 0)
(0.0145657 -0.0706912 0)
(0.0195708 -0.0733951 0)
(0.0245385 -0.0669458 0)
(0.029586 -0.0513499 0)
(0.0348982 -0.0265862 0)
(0.0405116 0.00689901 0)
(0.0459294 0.0468606 0)
(0.05028 0.0888958 0)
(0.0529638 0.12888 0)
(0.0539023 0.160965 0)
(0.0535741 0.180012 0)
(0.0525084 0.190578 0)
(0.0506784 0.192888 0)
(0.0484272 0.187428 0)
(0.0455787 0.173929 0)
(0.0421165 0.153803 0)
(0.0378282 0.128505 0)
(0.0325502 0.0990849 0)
(0.0264234 0.0676744 0)
(0.0203561 0.0369192 0)
(0.0145892 0.0219081 0)
(0.00736853 0.0113965 0)
(0.00582057 -0.0294473 0)
(0.00684272 -0.0342381 0)
(0.0116988 -0.0532769 0)
(0.0135291 -0.0782772 0)
(0.0149054 -0.0815897 0)
(0.0170541 -0.074314 0)
(0.0187713 -0.058217 0)
(0.0200961 -0.0332917 0)
(0.0211899 5.19927e-05 0)
(0.0220512 0.0407798 0)
(0.0224611 0.0850886 0)
(0.0223496 0.127723 0)
(0.0222345 0.160789 0)
(0.0223504 0.180964 0)
(0.0225241 0.192049 0)
(0.0227042 0.194927 0)
(0.0229287 0.189916 0)
(0.0230721 0.177422 0)
(0.0228365 0.158596 0)
(0.0220242 0.134861 0)
(0.0204039 0.107677 0)
(0.017829 0.0780215 0)
(0.0145461 0.0474804 0)
(0.0100303 0.0337907 0)
(0.0043698 0.021976 0)
(0.00357789 -0.019445 0)
(0.00585568 -0.056326 0)
(0.0127176 -0.0610707 0)
(0.0118778 -0.0745972 0)
(0.00945298 -0.0834244 0)
(0.00866713 -0.0751975 0)
(0.00743071 -0.0578922 0)
(0.00545677 -0.0317115 0)
(0.00277575 0.00273125 0)
(-0.000373439 0.0442298 0)
(-0.00350663 0.0886258 0)
(-0.00579029 0.130176 0)
(-0.00642218 0.160939 0)
(-0.00568987 0.179728 0)
(-0.0042084 0.189989 0)
(-0.00212564 0.192162 0)
(0.000417878 0.186576 0)
(0.00315364 0.174282 0)
(0.0057075 0.156325 0)
(0.00777287 0.133978 0)
(0.00911616 0.108563 0)
(0.00953458 0.0809199 0)
(0.00888335 0.0530316 0)
(0.00589509 0.0455895 0)
(0.00178261 0.0285143 0)
(0.00161312 -0.014325 0)
(0.00317235 -0.0779743 0)
(0.0105184 -0.0661804 0)
(0.0079967 -0.0655044 0)
(0.00386811 -0.0771827 0)
(0.000483622 -0.0697443 0)
(-0.003437 -0.0509677 0)
(-0.00844699 -0.0229035 0)
(-0.0144403 0.0131081 0)
(-0.0207807 0.054989 0)
(-0.0262845 0.097625 0)
(-0.0295203 0.134567 0)
(-0.0299592 0.160342 0)
(-0.0284667 0.176424 0)
(-0.0257793 0.184384 0)
(-0.0220473 0.184939 0)
(-0.0176485 0.178373 0)
(-0.0129422 0.165857 0)
(-0.00835283 0.148557 0)
(-0.00423127 0.127551 0)
(-0.000854795 0.104044 0)
(0.00151291 0.0788044 0)
(0.00252258 0.0539999 0)
(0.00185187 0.0529553 0)
(0.000421746 0.0318522 0)
(0.0003263 -0.0128009 0)
(-6.22669e-05 -0.0922191 0)
(0.00627353 -0.0656128 0)
(0.00197125 -0.0592514 0)
(-0.00218905 -0.0675214 0)
(-0.00731285 -0.0594201 0)
(-0.0136349 -0.0380571 0)
(-0.0214916 -0.00731818 0)
(-0.03025 0.0303183 0)
(-0.0385535 0.0709661 0)
(-0.0446518 0.108638 0)
(-0.0473748 0.138359 0)
(-0.0471072 0.158484 0)
(-0.0448468 0.170828 0)
(-0.0411367 0.175964 0)
(-0.0362115 0.174325 0)
(-0.0305282 0.166517 0)
(-0.0245162 0.153782 0)
(-0.0186026 0.13713 0)
(-0.0131237 0.117481 0)
(-0.0083648 0.0959307 0)
(-0.00463258 0.0732764 0)
(-0.00253882 0.0518592 0)
(-0.00146795 0.0514328 0)
(-0.000227001 0.0317402 0)
(-0.000387917 -0.01296 0)
(-0.0035687 -0.0981662 0)
(0.00137111 -0.0609134 0)
(-0.0042439 -0.0510769 0)
(-0.00883867 -0.0561736 0)
(-0.0153598 -0.0450443 0)
(-0.0238555 -0.0195807 0)
(-0.0339474 0.0140849 0)
(-0.0440287 0.0514773 0)
(-0.0522154 0.0874796 0)
(-0.0571523 0.117526 0)
(-0.0587049 0.13951 0)
(-0.0577084 0.154958 0)
(-0.0548479 0.163307 0)
(-0.0504115 0.165411 0)
(-0.0447922 0.161548 0)
(-0.0384084 0.152509 0)
(-0.0317148 0.139525 0)
(-0.0250674 0.123413 0)
(-0.0187603 0.104979 0)
(-0.0130762 0.0852782 0)
(-0.00842929 0.0653994 0)
(-0.00561472 0.0479588 0)
(-0.00367255 0.0481326 0)
(-0.000512307 0.0282697 0)
(-0.000422486 -0.0130683 0)
(-0.00593397 -0.0947049 0)
(-0.00338952 -0.0523643 0)
(-0.0095637 -0.0419344 0)
(-0.0149508 -0.0422336 0)
(-0.0231241 -0.0263899 0)
(-0.0334935 0.00364436 0)
(-0.0444078 0.0379236 0)
(-0.0536871 0.0713497 0)
(-0.0600857 0.100308 0)
(-0.0633232 0.122934 0)
(-0.0640234 0.139424 0)
(-0.0625191 0.15017 0)
(-0.0592582 0.154755 0)
(-0.0544895 0.153799 0)
(-0.0486221 0.147755 0)
(-0.0420738 0.137605 0)
(-0.0352227 0.124311 0)
(-0.0283336 0.108525 0)
(-0.0216656 0.09103 0)
(-0.0155537 0.07301 0)
(-0.0105377 0.0561713 0)
(-0.00745319 0.0427075 0)
(-0.00510705 0.0414065 0)
(-0.000631963 0.0206399 0)
(-9.15259e-05 -0.0127418 0)
(-0.00729465 -0.0840323 0)
(-0.00660569 -0.0412025 0)
(-0.0138031 -0.0310557 0)
(-0.0204324 -0.0255969 0)
(-0.030049 -0.00340093 0)
(-0.0411254 0.0284749 0)
(-0.0508441 0.0591593 0)
(-0.057988 0.0864452 0)
(-0.0623878 0.108875 0)
(-0.0643761 0.126158 0)
(-0.0643336 0.138731 0)
(-0.0625006 0.144589 0)
(-0.0590219 0.145698 0)
(-0.0542957 0.141995 0)
(-0.0486165 0.134091 0)
(-0.0423524 0.122921 0)
(-0.0357494 0.10918 0)
(-0.0290049 0.0934652 0)
(-0.022391 0.0767111 0)
(-0.0163754 0.0604824 0)
(-0.0115108 0.046818 0)
(-0.00852443 0.0374286 0)
(-0.00608717 0.0348458 0)
(-0.00117053 0.0115138 0)
(-0.000122496 -0.0115482 0)
(-0.00819087 -0.0697843 0)
(-0.00835723 -0.027381 0)
(-0.0170267 -0.0163183 0)
(-0.0249306 -0.00602623 0)
(-0.0350449 0.0212269 0)
(-0.0449494 0.0500393 0)
(-0.0523913 0.0753041 0)
(-0.0575348 0.0970274 0)
(-0.0605604 0.114508 0)
(-0.0616409 0.127708 0)
(-0.0611552 0.135533 0)
(-0.0589362 0.138178 0)
(-0.055645 0.136735 0)
(-0.0511935 0.130755 0)
(-0.0459941 0.121352 0)
(-0.0402574 0.10919 0)
(-0.0341281 0.0948286 0)
(-0.0277865 0.0789907 0)
(-0.0215814 0.0629816 0)
(-0.0160488 0.0488524 0)
(-0.0117055 0.038115 0)
(-0.00901265 0.0323693 0)
(-0.0066971 0.0268913 0)
(-0.00231761 0.00178728 0)
(-0.000786485 -0.0117016 0)
(-0.00835744 -0.054078 0)
(-0.00928896 -0.0109432 0)
(-0.0192828 0.000868778 0)
(-0.0276295 0.0149216 0)
(-0.0368545 0.042648 0)
(-0.0444427 0.0664238 0)
(-0.0498587 0.0870613 0)
(-0.0535685 0.104588 0)
(-0.0556544 0.118136 0)
(-0.0562522 0.127263 0)
(-0.0553627 0.132126 0)
(-0.0533288 0.133024 0)
(-0.0501891 0.128516 0)
(-0.0462371 0.120707 0)
(-0.0416544 0.10997 0)
(-0.0365439 0.0967475 0)
(-0.0309931 0.0816325 0)
(-0.0252218 0.0656685 0)
(-0.0196632 0.050626 0)
(-0.0147763 0.0385203 0)
(-0.011017 0.0308023 0)
(-0.00854183 0.0276964 0)
(-0.00628367 0.0211595 0)
(-0.00306694 -0.00643197 0)
(-0.00152832 -0.0152277 0)
(-0.00802101 -0.0382425 0)
(-0.00940523 0.00893932 0)
(-0.0199002 0.0191171 0)
(-0.0277992 0.0343912 0)
(-0.0353361 0.0589161 0)
(-0.0408482 0.0784886 0)
(-0.0448798 0.0957464 0)
(-0.0475947 0.110051 0)
(-0.0490131 0.120696 0)
(-0.0492283 0.127255 0)
(-0.0483528 0.129244 0)
(-0.0464021 0.126906 0)
(-0.0436195 0.12111 0)
(-0.0402365 0.111956 0)
(-0.0363012 0.100012 0)
(-0.0318302 0.085683 0)
(-0.0269093 0.0697931 0)
(-0.0218149 0.0538358 0)
(-0.0169963 0.0398836 0)
(-0.0127793 0.0294872 0)
(-0.00946564 0.0243847 0)
(-0.00700464 0.0226781 0)
(-0.00484452 0.0150446 0)
(-0.0029513 -0.0111551 0)
(-0.00164522 -0.020206 0)
(-0.00741996 -0.0228779 0)
(-0.00854811 0.02765 0)
(-0.0180815 0.036881 0)
(-0.0253025 0.0507419 0)
(-0.0312208 0.0711015 0)
(-0.0354356 0.0876251 0)
(-0.0385686 0.10229 0)
(-0.0406059 0.113896 0)
(-0.0415641 0.12197 0)
(-0.0415231 0.126145 0)
(-0.0406062 0.126261 0)
(-0.0389209 0.12233 0)
(-0.0366348 0.114987 0)
(-0.0338278 0.104629 0)
(-0.0305013 0.091479 0)
(-0.0266453 0.0760328 0)
(-0.0223752 0.0594518 0)
(-0.0179984 0.0436542 0)
(-0.0139066 0.0307302 0)
(-0.0103043 0.0216541 0)
(-0.00737828 0.0183464 0)
(-0.00503693 0.0176758 0)
(-0.00302793 0.0119017 0)
(-0.00242065 -0.0131863 0)
(-0.00139738 -0.0252799 0)
(-0.00651979 -0.00848435 0)
(-0.0075244 0.0409399 0)
(-0.0151429 0.0540929 0)
(-0.0210605 0.0641322 0)
(-0.0257746 0.0809089 0)
(-0.0291985 0.0950171 0)
(-0.0316977 0.107422 0)
(-0.0332526 0.11686 0)
(-0.0339201 0.122865 0)
(-0.0338164 0.125132 0)
(-0.033002 0.123533 0)
(-0.0315991 0.118359 0)
(-0.029744 0.109966 0)
(-0.0274529 0.0985266 0)
(-0.0246749 0.0842323 0)
(-0.0214016 0.0677488 0)
(-0.0177807 0.0506223 0)
(-0.0141123 0.0350475 0)
(-0.0106931 0.0229548 0)
(-0.00767336 0.0148589 0)
(-0.00520166 0.0130165 0)
(-0.00318545 0.0130597 0)
(-0.00124217 0.00785737 0)
(-0.0017633 -0.0119211 0)
(-0.00119911 -0.0305461 0)
(-0.00541307 0.00416104 0)
(-0.00649084 0.0527192 0)
(-0.0122397 0.0655215 0)
(-0.0165228 0.0746895 0)
(-0.0202829 0.0888918 0)
(-0.023038 0.101006 0)
(-0.0250131 0.111449 0)
(-0.0262032 0.119015 0)
(-0.0266703 0.123421 0)
(-0.0265275 0.124371 0)
(-0.0258541 0.121451 0)
(-0.0247521 0.11524 0)
(-0.0232974 0.10596 0)
(-0.0214784 0.0935563 0)
(-0.0192229 0.0781988 0)
(-0.0165295 0.0608116 0)
(-0.0135798 0.0433133 0)
(-0.0106598 0.027985 0)
(-0.00796479 0.016556 0)
(-0.00566774 0.00939985 0)
(-0.00383752 0.00873256 0)
(-0.00231762 0.00934102 0)
(-0.000582514 0.00608143 0)
(-0.0012677 -0.00783872 0)
(-0.000835802 -0.0349905 0)
(-0.00425885 0.0144956 0)
(-0.00520751 0.0616167 0)
(-0.00953116 0.0742163 0)
(-0.0126445 0.082739 0)
(-0.0154825 0.0951604 0)
(-0.01756 0.105693 0)
(-0.0190205 0.114575 0)
(-0.0198667 0.120714 0)
(-0.0201642 0.123668 0)
(-0.0199901 0.123466 0)
(-0.0194317 0.119768 0)
(-0.0185755 0.112841 0)
(-0.0174695 0.10288 0)
(-0.0160899 0.0896812 0)
(-0.0143617 0.073392 0)
(-0.0123014 0.0552985 0)
(-0.0101013 0.0376574 0)
(-0.00801739 0.0227332 0)
(-0.00618391 0.0118949 0)
(-0.00470702 0.00586836 0)
(-0.0036183 0.00582024 0)
(-0.00270398 0.00660532 0)
(-0.00151546 0.00276336 0)
(-0.00133777 -0.00570167 0)
(-0.000411844 -0.03801 0)
(-0.00320363 0.0225387 0)
(-0.00398109 0.0688088 0)
(-0.00716962 0.0804012 0)
(-0.00940469 0.0886038 0)
(-0.0114467 0.0997372 0)
(-0.0128926 0.109039 0)
(-0.013865 0.116713 0)
(-0.0143702 0.121718 0)
(-0.014481 0.123826 0)
(-0.0142655 0.122854 0)
(-0.0137801 0.118449 0)
(-0.013095 0.111025 0)
(-0.0122614 0.100609 0)
(-0.0112632 0.0868295 0)
(-0.0100775 0.0698867 0)
(-0.00875382 0.0513838 0)
(-0.00741501 0.0338241 0)
(-0.00623875 0.019405 0)
(-0.00528465 0.00904391 0)
(-0.00451469 0.00382291 0)
(-0.00394135 0.00448957 0)
(-0.00340129 0.00504842 0)
(-0.00254183 0.00148449 0)
(-0.00175481 -0.00747435 0)
(-0.000335936 -0.040443 0)
(-0.00231618 0.0285334 0)
(-0.00291662 0.0737449 0)
(-0.0051772 0.0850218 0)
(-0.00671195 0.0928265 0)
(-0.00807427 0.102903 0)
(-0.00898982 0.111234 0)
(-0.00953109 0.118012 0)
(-0.00973064 0.122205 0)
(-0.00964624 0.123635 0)
(-0.00933808 0.122117 0)
(-0.00886902 0.117318 0)
(-0.00829849 0.10962 0)
(-0.00767346 0.0989877 0)
(-0.00702632 0.0849632 0)
(-0.00641787 0.0679281 0)
(-0.00589176 0.04946 0)
(-0.0054406 0.0320987 0)
(-0.00510362 0.0180425 0)
(-0.0048729 0.00813249 0)
(-0.00463314 0.00287243 0)
(-0.00428812 0.00355354 0)
(-0.00376763 0.00366507 0)
(-0.00297347 -0.00140565 0)
(-0.00217821 -0.00949045 0)
(-0.00044225 -0.0433246 0)
(-0.00159172 0.0328342 0)
(-0.0020362 0.0774609 0)
(-0.00351715 0.088038 0)
(-0.00452688 0.0952134 0)
(-0.00536543 0.104825 0)
(-0.00580384 0.112411 0)
(-0.00598007 0.118515 0)
(-0.00588858 0.122128 0)
(-0.00560126 0.123113 0)
(-0.00518314 0.121278 0)
(-0.00470183 0.116301 0)
(-0.00421112 0.108529 0)
(-0.0037604 0.0979442 0)
(-0.00344694 0.0841596 0)
(-0.00337226 0.0675365 0)
(-0.00354197 0.049373 0)
(-0.00385429 0.0321672 0)
(-0.0041992 0.0183842 0)
(-0.00452621 0.00844372 0)
(-0.00467155 0.00262984 0)
(-0.00441812 0.00255553 0)
(-0.00383413 0.00228112 0)
(-0.00311827 -0.0024185 0)
(-0.00258217 -0.0116494 0)
(-0.000464456 -0.0469446 0)
(-0.00102449 0.0357604 0)
(-0.00132784 0.0794602 0)
(-0.00219304 0.0898971 0)
(-0.00271568 0.0976466 0)
(-0.00315952 0.105512 0)
(-0.00324798 0.112802 0)
(-0.00309263 0.118342 0)
(-0.00272525 0.121514 0)
(-0.00223589 0.12223 0)
(-0.00168871 0.120276 0)
(-0.00116111 0.115333 0)
(-0.000712557 0.107689 0)
(-0.00039851 0.097404 0)
(-0.000339181 0.0842278 0)
(-0.000646403 0.0682825 0)
(-0.00134221 0.0506839 0)
(-0.00228573 0.0336559 0)
(-0.0032321 0.0198259 0)
(-0.00404353 0.00942734 0)
(-0.0045006 0.00281626 0)
(-0.00425101 0.0016486 0)
(-0.00354063 0.000882295 0)
(-0.00291126 -0.00466759 0)
(-0.00281017 -0.013463 0)
(-0.000339002 -0.051336 0)
(-0.000637903 0.0375265 0)
(-0.000838602 0.0810902 0)
(-0.00127598 0.0907023 0)
(-0.00143089 0.0979777 0)
(-0.00132812 0.106366 0)
(-0.0011423 0.112421 0)
(-0.000659643 0.11743 0)
(-6.94974e-05 0.120389 0)
(0.000597078 0.12097 0)
(0.00128714 0.119032 0)
(0.00188659 0.114298 0)
(0.00232965 0.106972 0)
(0.00256788 0.0972132 0)
(0.00250488 0.0848227 0)
(0.00199235 0.0698532 0)
(0.000947042 0.0531702 0)
(-0.000500932 0.0364802 0)
(-0.00197455 0.0221438 0)
(-0.00319399 0.0113015 0)
(-0.00394109 0.00341189 0)
(-0.00373482 0.000328721 0)
(-0.00285381 -0.000628633 0)
(-0.00229065 -0.00470196 0)
(-0.00276404 -0.0144315 0)
(-7.1952e-05 -0.0558509 0)
(-0.000364115 0.0388377 0)
(-0.000462111 0.0816711 0)
(-0.00048673 0.0915965 0)
(-0.000284446 0.0972985 0)
(6.89372e-05 0.105304 0)
(0.000657787 0.11117 0)
(0.00123246 0.115916 0)
(0.00199032 0.118909 0)
(0.00285768 0.119334 0)
(0.00369814 0.117593 0)
(0.00443864 0.113218 0)
(0.00495809 0.106383 0)
(0.00521344 0.0971066 0)
(0.0051466 0.0855656 0)
(0.00459442 0.07185 0)
(0.00342908 0.0563893 0)
(0.0017029 0.0403881 0)