/*--------------------------------*- C++ -*----------------------------------*\
| =========                 |                                                 |
| \\      /  F ield         | OpenFOAM: The Open Source CFD Toolbox           |
|  \\    /   O peration     | Version:  2.3.0                                 |
|   \\  /    A nd           | Web:      www.OpenFOAM.org                      |
|    \\/     M anipulation  |                                                 |
\*---------------------------------------------------------------------------*/
FoamFile
{
    version     2.0;
    format      ascii;
    class       volVectorField;
    location    "64";
    object      U.water;
}
// * * * * * * * * * * * * * * * * * * * * * * * * * * * * * * * * * * * * * //

dimensions      [0 1 -1 0 0 0 0];

internalField   nonuniform List<vector> 
1875
(
(0.023458 -0.105577 0)
(0.0435053 -0.112058 0)
(0.0782244 -0.114816 0)
(0.11348 -0.113175 0)
(0.147488 -0.108753 0)
(0.178762 -0.102769 0)
(0.206492 -0.0959816 0)
(0.230158 -0.0888318 0)
(0.24937 -0.0815038 0)
(0.26385 -0.0739993 0)
(0.273338 -0.0663048 0)
(0.277662 -0.0584699 0)
(0.276289 -0.0505029 0)
(0.268715 -0.042719 0)
(0.254996 -0.0350874 0)
(0.235749 -0.0278857 0)
(0.211989 -0.0220394 0)
(0.185197 -0.0186344 0)
(0.157096 -0.0182913 0)
(0.129579 -0.0211898 0)
(0.104234 -0.0264711 0)
(0.0816433 -0.0321926 0)
(0.0608245 -0.0358971 0)
(0.0367885 -0.0372238 0)
(0.0234756 -0.0398686 0)
(0.0303703 -0.0755072 0)
(0.0561583 -0.0807817 0)
(0.0869096 -0.08328 0)
(0.114263 -0.0800489 0)
(0.139441 -0.0725157 0)
(0.16224 -0.0619665 0)
(0.182456 -0.0494925 0)
(0.199846 -0.0357689 0)
(0.214032 -0.0212547 0)
(0.224762 -0.00593839 0)
(0.231602 0.0102423 0)
(0.233888 0.0271969 0)
(0.231927 0.0439847 0)
(0.226364 0.0600694 0)
(0.216896 0.0751087 0)
(0.202559 0.0882037 0)
(0.183603 0.0977935 0)
(0.161355 0.10337 0)
(0.137622 0.105134 0)
(0.11369 0.103753 0)
(0.0902954 0.100654 0)
(0.067997 0.0978119 0)
(0.047248 0.0981856 0)
(0.027247 0.101865 0)
(0.0127431 0.100599 0)
(0.0208632 -0.190045 0)
(0.048967 -0.184717 0)
(0.075226 -0.175096 0)
(0.0964047 -0.162532 0)
(0.114351 -0.147577 0)
(0.129611 -0.130672 0)
(0.142295 -0.112129 0)
(0.152372 -0.0922194 0)
(0.159965 -0.0711053 0)
(0.165092 -0.0490982 0)
(0.168026 -0.0262832 0)
(0.169029 -0.00256368 0)
(0.167505 0.0220939 0)
(0.162795 0.0470864 0)
(0.154794 0.0712586 0)
(0.143723 0.0929207 0)
(0.129354 0.109746 0)
(0.112245 0.119576 0)
(0.093767 0.122618 0)
(0.0751533 0.119916 0)
(0.0576018 0.113759 0)
(0.0418326 0.107239 0)
(0.0279225 0.103819 0)
(0.0156872 0.102889 0)
(0.00761615 0.0990928 0)
(0.00721468 -0.224081 0)
(0.0311119 -0.214487 0)
(0.0472252 -0.19901 0)
(0.060273 -0.181158 0)
(0.0714403 -0.161201 0)
(0.0806593 -0.139166 0)
(0.0876819 -0.115308 0)
(0.0923661 -0.0900262 0)
(0.0948024 -0.0637005 0)
(0.0952019 -0.0365412 0)
(0.0936523 -0.00863377 0)
(0.0902829 0.0198635 0)
(0.0854433 0.0487139 0)
(0.0793368 0.0776626 0)
(0.0719606 0.105737 0)
(0.0634292 0.13111 0)
(0.0540204 0.151002 0)
(0.0441835 0.161866 0)
(0.0344027 0.164161 0)
(0.025278 0.159148 0)
(0.017398 0.149892 0)
(0.0109936 0.140072 0)
(0.00624115 0.132792 0)
(0.0029471 0.127004 0)
(0.000341711 0.119089 0)
(-0.00129655 -0.24443 0)
(0.0125332 -0.235551 0)
(0.0171232 -0.219237 0)
(0.0208679 -0.199596 0)
(0.0239622 -0.176924 0)
(0.0255552 -0.151482 0)
(0.0253784 -0.123773 0)
(0.0235214 -0.0944308 0)
(0.0201963 -0.0642525 0)
(0.015693 -0.0335895 0)
(0.0102769 -0.00251268 0)
(0.00415726 0.0289329 0)
(-0.00240485 0.0605209 0)
(-0.00902237 0.0916607 0)
(-0.0151703 0.121035 0)
(-0.0201736 0.146371 0)
(-0.023325 0.164453 0)
(-0.024512 0.172478 0)
(-0.0241755 0.171611 0)
(-0.0224328 0.163493 0)
(-0.0196403 0.15157 0)
(-0.0161665 0.139561 0)
(-0.012001 0.130213 0)
(-0.00678657 0.123197 0)
(-0.00446376 0.115313 0)
(-0.00759949 -0.246455 0)
(-0.0033302 -0.236348 0)
(-0.00938859 -0.218356 0)
(-0.0151872 -0.197085 0)
(-0.0212911 -0.172009 0)
(-0.0287995 -0.143744 0)
(-0.0374768 -0.113312 0)
(-0.0467641 -0.0816241 0)
(-0.0562449 -0.0495453 0)
(-0.0655768 -0.017554 0)
(-0.0744123 0.014251 0)
(-0.0823573 0.0457149 0)
(-0.0889199 0.0763854 0)
(-0.0934562 0.105295 0)
(-0.0951921 0.130686 0)
(-0.0934796 0.150175 0)
(-0.0883164 0.161467 0)
(-0.0802568 0.164056 0)
(-0.0701937 0.158791 0)
(-0.058991 0.147891 0)
(-0.04757 0.134635 0)
(-0.036455 0.122089 0)
(-0.025574 0.112193 0)
(-0.0142601 0.105022 0)
(-0.00868649 0.0985378 0)
(-0.0155186 -0.230385 0)
(-0.017055 -0.219441 0)
(-0.0322255 -0.200503 0)
(-0.0471677 -0.178176 0)
(-0.0626231 -0.151399 0)
(-0.0791892 -0.121499 0)
(-0.0958289 -0.0901709 0)
(-0.111637 -0.0585837 0)
(-0.125899 -0.0275638 0)
(-0.138048 0.00247653 0)
(-0.147593 0.0313717 0)
(-0.154015 0.0587557 0)
(-0.156802 0.0838715 0)
(-0.155501 0.105554 0)
(-0.149892 0.12239 0)
(-0.140133 0.133222 0)
(-0.126884 0.137355 0)
(-0.111098 0.13456 0)
(-0.0939819 0.126357 0)
(-0.0767767 0.114899 0)
(-0.060397 0.102618 0)
(-0.0451503 0.0915399 0)
(-0.0308413 0.0828986 0)
(-0.0169254 0.0770442 0)
(-0.0100768 0.072978 0)
(-0.0215076 -0.198235 0)
(-0.0274972 -0.186074 0)
(-0.0504028 -0.166059 0)
(-0.0730972 -0.142664 0)
(-0.0963276 -0.114758 0)
(-0.119606 -0.0849146 0)
(-0.141213 -0.0553007 0)
(-0.160089 -0.0271483 0)
(-0.175311 -0.00113803 0)
(-0.186227 0.0223813 0)
(-0.192533 0.0433973 0)
(-0.194077 0.0618052 0)
(-0.190772 0.0772917 0)
(-0.182747 0.0892128 0)
(-0.170453 0.0970272 0)
(-0.154564 0.100135 0)
(-0.135979 0.0985311 0)
(-0.11592 0.0927625 0)
(-0.0957576 0.084304 0)
(-0.076549 0.0746227 0)
(-0.0589171 0.0651572 0)
(-0.0429628 0.0570714 0)
(-0.028516 0.0512859 0)
(-0.0153472 0.0485288 0)
(-0.00897453 0.0479937 0)
(-0.0252229 -0.154938 0)
(-0.0355668 -0.140583 0)
(-0.0637722 -0.119028 0)
(-0.0910351 -0.0948146 0)
(-0.117923 -0.0673313 0)
(-0.143052 -0.0402973 0)
(-0.164741 -0.0159123 0)
(-0.18209 0.00477413 0)
(-0.194537 0.0214497 0)
(-0.201807 0.0345032 0)
(-0.203857 0.0450093 0)
(-0.200606 0.0532568 0)
(-0.192423 0.0586981 0)
(-0.179846 0.0613657 0)
(-0.163719 0.0613014 0)
(-0.144939 0.0586513 0)
(-0.1246 0.0538755 0)
(-0.103936 0.0476726 0)
(-0.0840338 0.0409535 0)
(-0.0656167 0.0344685 0)
(-0.0490972 0.0289024 0)
(-0.0345965 0.0248564 0)
(-0.022128 0.0230655 0)
(-0.0115738 0.0243188 0)
(-0.00672454 0.0273402 0)
(-0.0280811 -0.103976 0)
(-0.0410421 -0.0869311 0)
(-0.0714898 -0.0645348 0)
(-0.0993848 -0.0411333 0)
(-0.125591 -0.0167859 0)
(-0.148715 0.00450638 0)
(-0.167579 0.0210151 0)
(-0.181619 0.0323559 0)
(-0.190401 0.0390859 0)
(-0.193737 0.0421145 0)
(-0.192306 0.0419814 0)
(-0.18567 0.0386058 0)
(-0.174949 0.0339764 0)
(-0.160895 0.0286438 0)
(-0.144171 0.0227862 0)
(-0.125805 0.016672 0)
(-0.106794 0.0107198 0)
(-0.088007 0.00537597 0)
(-0.0701008 0.00106259 0)
(-0.0535469 -0.00188917 0)
(-0.0387104 -0.00317656 0)
(-0.0258929 -0.00248954 0)
(-0.0154008 0.000675768 0)
(-0.00737343 0.00682225 0)
(-0.00393676 0.0136387 0)
(-0.0290121 -0.0484619 0)
(-0.0411749 -0.0290179 0)
(-0.0702311 -0.00796655 0)
(-0.0960194 0.01179 0)
(-0.11953 0.0308062 0)
(-0.139692 0.045058 0)
(-0.155656 0.0529488 0)
(-0.166892 0.0543501 0)
(-0.173021 0.0501287 0)
(-0.173984 0.0417454 0)
(-0.170397 0.0311241 0)
(-0.163051 0.0197677 0)
(-0.152606 0.00849375 0)
(-0.139797 -0.00210912 0)
(-0.125366 -0.0116857 0)
(-0.109983 -0.0198818 0)
(-0.0942122 -0.0264443 0)
(-0.0784714 -0.0311664 0)
(-0.0630827 -0.0338312 0)
(-0.0483402 -0.0341911 0)
(-0.0345771 -0.0319524 0)
(-0.0222371 -0.0267655 0)
(-0.0119202 -0.0181874 0)
(-0.00441415 -0.00604374 0)
(-0.00149576 0.00583705 0)
(-0.02751 0.00531261 0)
(-0.0366815 0.0252835 0)
(-0.0615487 0.0448856 0)
(-0.0841587 0.0606044 0)
(-0.104839 0.073795 0)
(-0.122422 0.0809178 0)
(-0.13609 0.0806102 0)
(-0.145423 0.072972 0)
(-0.150172 0.0592503 0)
(-0.15061 0.0416193 0)
(-0.147502 0.023138 0)
(-0.141618 0.00527863 0)
(-0.133641 -0.0111858 0)
(-0.124186 -0.0256809 0)
(-0.113727 -0.0379851 0)
(-0.10256 -0.048047 0)
(-0.0908428 -0.0558329 0)
(-0.0786487 -0.0612521 0)
(-0.0660366 -0.0640938 0)
(-0.0531013 -0.0639867 0)
(-0.0400324 -0.0603779 0)
(-0.0271986 -0.0525246 0)
(-0.0152784 -0.0395245 0)
(-0.00570641 -0.0206732 0)
(-0.00195157 -0.00111212 0)
(-0.0241703 0.053616 0)
(-0.0308954 0.0737739 0)
(-0.0513806 0.0914298 0)
(-0.0700905 0.103816 0)
(-0.0875544 0.111791 0)
(-0.102418 0.112363 0)
(-0.11398 0.104596 0)
(-0.121781 0.088891 0)
(-0.125799 0.0672932 0)
(-0.126701 0.0430512 0)
(-0.1253 0.0189704 0)
(-0.122197 -0.0033665 0)
(-0.117899 -0.0232184 0)
(-0.112748 -0.040389 0)
(-0.106888 -0.0549697 0)
(-0.100319 -0.0671245 0)
(-0.0929687 -0.0769759 0)
(-0.0847307 -0.0844291 0)
(-0.0754689 -0.0891816 0)
(-0.0651223 -0.0907976 0)
(-0.0536846 -0.0884425 0)
(-0.0412409 -0.080842 0)
(-0.0284138 -0.0662769 0)
(-0.0163576 -0.0426204 0)
(-0.00999517 -0.0158856 0)
(-0.0197582 0.0936834 0)
(-0.0241795 0.113748 0)
(-0.0402421 0.129932 0)
(-0.0548579 0.139635 0)
(-0.0685769 0.143389 0)
(-0.0803901 0.138845 0)
(-0.0897611 0.125227 0)
(-0.0962757 0.103379 0)
(-0.100188 0.0763397 0)
(-0.102242 0.0477414 0)
(-0.103097 0.020205 0)
(-0.103159 -0.00488583 0)
(-0.102601 -0.0270243 0)
(-0.101414 -0.0462777 0)
(-0.099516 -0.0629504 0)
(-0.0968123 -0.0773285 0)
(-0.0931943 -0.0895655 0)
(-0.0885411 -0.0996852 0)
(-0.0827255 -0.107464 0)
(-0.0755554 -0.11232 0)
(-0.0668021 -0.113358 0)
(-0.0562303 -0.109214 0)
(-0.0440665 -0.0977028 0)
(-0.0294983 -0.077225 0)
(-0.0196705 -0.0561713 0)
(-0.0139037 0.123536 0)
(-0.0164162 0.143725 0)
(-0.0274864 0.158859 0)
(-0.0376252 0.166823 0)
(-0.0473403 0.167757 0)
(-0.0559395 0.159872 0)
(-0.0630734 0.142313 0)
(-0.0685275 0.11664 0)
(-0.0726896 0.0865408 0)
(-0.07612 0.0556324 0)
(-0.0791066 0.0262799 0)
(-0.0817046 -0.000468863 0)
(-0.0838467 -0.0243764 0)
(-0.085384 -0.0455834 0)
(-0.0861864 -0.0643217 0)
(-0.0861634 -0.0808498 0)
(-0.0852379 -0.0953544 0)
(-0.0833494 -0.107924 0)
(-0.0804299 -0.118531 0)
(-0.0763193 -0.126871 0)
(-0.0707722 -0.132325 0)
(-0.0633666 -0.133828 0)
(-0.0531312 -0.129533 0)
(-0.0371968 -0.119342 0)
(-0.0228157 -0.108357 0)
(-0.00744013 0.14128 0)
(-0.00786761 0.161652 0)
(-0.0133189 0.176913 0)
(-0.0185261 0.184329 0)
(-0.0238727 0.184114 0)
(-0.028962 0.174843 0)
(-0.0337709 0.155707 0)
(-0.0382848 0.128696 0)
(-0.0426476 0.0977061 0)
(-0.0470208 0.0660071 0)
(-0.051346 0.0356123 0)
(-0.0554334 0.00759018 0)
(-0.0591086 -0.0177824 0)
(-0.0622272 -0.0406078 0)
(-0.064653 -0.0611154 0)
(-0.0662744 -0.0795223 0)
(-0.0670633 -0.0959818 0)
(-0.0670502 -0.110601 0)
(-0.0662697 -0.123473 0)
(-0.0646298 -0.134673 0)
(-0.0618705 -0.143987 0)
(-0.0574433 -0.151445 0)
(-0.0499113 -0.157084 0)
(-0.0359612 -0.160938 0)
(-0.0175925 -0.162332 0)
(-0.000660608 0.145665 0)
(0.00105708 0.166788 0)
(0.00170015 0.182759 0)
(0.00186444 0.19097 0)
(0.00127682 0.191384 0)
(2.24009e-05 0.182987 0)
(-0.00217681 0.164974 0)
(-0.00543607 0.138989 0)
(-0.00952761 0.108709 0)
(-0.0141678 0.0772685 0)
(-0.0190954 0.046642 0)
(-0.0240435 0.0178845 0)
(-0.0287467 -0.00863704 0)
(-0.0329944 -0.0329365 0)
(-0.0366061 -0.0551587 0)
(-0.0394555 -0.0754128 0)
(-0.0415086 -0.0937354 0)
(-0.0427982 -0.110187 0)
(-0.0433405 -0.124932 0)
(-0.0430129 -0.138312 0)
(-0.0415023 -0.150753 0)
(-0.0384533 -0.162892 0)
(-0.0335379 -0.17559 0)
(-0.0245522 -0.189697 0)
(-0.00784538 -0.199166 0)
(0.00496297 0.13812 0)
(0.00934414 0.158805 0)
(0.0167094 0.175746 0)
(0.0224734 0.185881 0)
(0.0269091 0.188723 0)
(0.0297949 0.183465 0)
(0.0308299 0.169086 0)
(0.0295863 0.146404 0)
(0.0263758 0.118602 0)
(0.0218355 0.0886919 0)
(0.0165166 0.058721 0)
(0.0108436 0.0298433 0)
(0.00516112 0.00258994 0)
(-0.000266433 -0.0229117 0)
(-0.00522326 -0.0466835 0)
(-0.0095364 -0.0686944 0)
(-0.0130879 -0.0888801 0)
(-0.0158168 -0.107276 0)
(-0.0176513 -0.124177 0)
(-0.0184205 -0.140094 0)
(-0.0179256 -0.155352 0)
(-0.0161366 -0.170283 0)
(-0.0137246 -0.185754 0)
(-0.0107525 -0.203754 0)
(-0.000977744 -0.216116 0)
(0.00994513 0.11784 0)
(0.0166341 0.13665 0)
(0.029945 0.155234 0)
(0.0411868 0.168603 0)
(0.0505659 0.175384 0)
(0.0578989 0.174735 0)
(0.062668 0.166117 0)
(0.0643801 0.149321 0)
(0.0629463 0.126245 0)
(0.0590659 0.0995686 0)
(0.053592 0.0715314 0)
(0.0472122 0.0435307 0)
(0.0404233 0.0163156 0)
(0.0335774 -0.00979861 0)
(0.0269381 -0.0346954 0)
(0.0207371 -0.0582412 0)
(0.0152 -0.0802751 0)
(0.0105199 -0.100756 0)
(0.00684543 -0.119941 0)
(0.00423031 -0.138216 0)
(0.00261877 -0.155709 0)
(0.00190627 -0.172415 0)
(0.00148759 -0.188586 0)
(-0.000531566 -0.207232 0)
(0.0021299 -0.221104 0)
(0.0127233 0.0886061 0)
(0.0210477 0.104513 0)
(0.0384417 0.123548 0)
(0.0544532 0.140154 0)
(0.0685026 0.151563 0)
(0.0801485 0.15663 0)
(0.0889938 0.154711 0)
(0.0944668 0.145516 0)
(0.0961009 0.12957 0)
(0.0941165 0.108478 0)
(0.0893205 0.08428 0)
(0.0826119 0.0586586 0)
(0.0747662 0.0326668 0)
(0.0663833 0.00686299 0)
(0.0578786 -0.0184533 0)
(0.0495734 -0.0430361 0)
(0.0417671 -0.0666313 0)
(0.0347315 -0.0890595 0)
(0.0286439 -0.110366 0)
(0.0234934 -0.130629 0)
(0.019113 -0.149794 0)
(0.0152846 -0.167597 0)
(0.011598 -0.183895 0)
(0.00646038 -0.202084 0)
(0.00645681 -0.217539 0)
(0.0132806 0.0551439 0)
(0.0221378 0.0670953 0)
(0.0411435 0.084464 0)
(0.0602918 0.102861 0)
(0.0780728 0.118395 0)
(0.0935598 0.129143 0)
(0.106239 0.134202 0)
(0.115595 0.133139 0)
(0.121099 0.125859 0)
(0.122425 0.112719 0)
(0.119814 0.0949414 0)
(0.113926 0.0739868 0)
(0.105628 0.0509443 0)
(0.0958884 0.02673 0)
(0.0855125 0.00192308 0)
(0.0750743 -0.0230299 0)
(0.0649729 -0.0477127 0)
(0.0555118 -0.0717462 0)
(0.0468735 -0.0948637 0)
(0.0390663 -0.116811 0)
(0.0319434 -0.137253 0)
(0.0252332 -0.15572 0)
(0.0187085 -0.172023 0)
(0.0110889 -0.189343 0)
(0.0099276 -0.205284 0)
(0.0120177 0.0221718 0)
(0.0201932 0.0293818 0)
(0.0384491 0.042988 0)
(0.058539 0.0607694 0)
(0.0785412 0.0787767 0)
(0.0969232 0.0942499 0)
(0.112805 0.105701 0)
(0.125566 0.112331 0)
(0.134719 0.113701 0)
(0.139842 0.109708 0)
(0.140575 0.100389 0)
(0.136993 0.086639 0)
(0.129657 0.0689494 0)
(0.11953 0.0481381 0)
(0.107816 0.0251112 0)
(0.0955439 0.000692861 0)
(0.0833793 -0.0244155 0)
(0.0717349 -0.0495632 0)
(0.060846 -0.0741398 0)
(0.0507664 -0.0975304 0)
(0.0414053 -0.119095 0)
(0.0325045 -0.138154 0)
(0.0238957 -0.154595 0)
(0.0144026 -0.171201 0)
(0.0116835 -0.18698 0)
(0.00889248 -0.00567869 0)
(0.0155048 -0.00421763 0)
(0.0314924 0.00387302 0)
(0.0506545 0.0184433 0)
(0.0711337 0.0364399 0)
(0.091074 0.0548288 0)
(0.109116 0.0714622 0)
(0.124363 0.0849631 0)
(0.136162 0.094354 0)
(0.144073 0.0990419 0)
(0.147745 0.0988235 0)
(0.147132 0.0943837 0)
(0.142538 0.0845419 0)
(0.134177 0.0694048 0)
(0.122968 0.0497556 0)
(0.110041 0.0268495 0)
(0.0964687 0.00196409 0)
(0.0830743 -0.0238474 0)
(0.0703516 -0.0496057 0)
(0.0585053 -0.0743189 0)
(0.0475392 -0.097012 0)
(0.0372047 -0.116716 0)
(0.0272791 -0.133347 0)
(0.0166023 -0.149263 0)
(0.0127972 -0.164652 0)
(0.00499386 -0.0260659 0)
(0.00961808 -0.0324611 0)
(0.0227338 -0.0312106 0)
(0.0396109 -0.0215805 0)
(0.0588594 -0.00562262 0)
(0.0787445 0.0138898 0)
(0.0976021 0.0344509 0)
(0.114134 0.0540572 0)
(0.127433 0.0711338 0)
(0.136918 0.0845287 0)
(0.142485 0.093366 0)
(0.144036 0.0966444 0)
(0.142186 0.0947913 0)
(0.136894 0.0871827 0)
(0.127965 0.072989 0)
(0.116273 0.0535097 0)
(0.102806 0.030035 0)
(0.0887075 0.0041572 0)
(0.0748788 -0.0225737 0)
(0.0618592 -0.0486537 0)
(0.0498821 -0.0726477 0)
(0.0388032 -0.093194 0)
(0.0282978 -0.110139 0)
(0.0171858 -0.125582 0)
(0.0132618 -0.140434 0)
(0.00468304 -0.0376651 0)
(0.00793724 -0.0539292 0)
(0.017784 -0.0602948 0)
(0.0309946 -0.0564442 0)
(0.0469304 -0.0439719 0)
(0.0644907 -0.0250967 0)
(0.0821272 -0.00219445 0)
(0.0983587 0.0223778 0)
(0.111983 0.0463433 0)
(0.122177 0.0676362 0)
(0.128553 0.0846367 0)
(0.131292 0.0959127 0)
(0.13047 0.10068 0)
(0.127054 0.099414 0)
(0.120616 0.0919613 0)
(0.111252 0.0774054 0)
(0.0997073 0.0569517 0)
(0.086743 0.032161 0)
(0.0733294 0.00505918 0)
(0.0602859 -0.0222296 0)
(0.0481707 -0.0476714 0)
(0.0371485 -0.069318 0)
(0.0269026 -0.0866728 0)
(0.0162122 -0.101881 0)
(0.0125431 -0.116266 0)
(0.00648036 -0.0517201 0)
(0.00946847 -0.0715498 0)
(0.0167805 -0.0827973 0)
(0.026369 -0.0833163 0)
(0.0379414 -0.0744828 0)
(0.0512774 -0.0575097 0)
(0.0655061 -0.0341155 0)
(0.0793734 -0.00646922 0)
(0.0916019 0.0228723 0)
(0.101166 0.0511384 0)
(0.10741 0.0758074 0)
(0.110231 0.0942721 0)
(0.110008 0.105597 0)
(0.107171 0.109669 0)
(0.102617 0.106831 0)
(0.0957632 0.0967742 0)
(0.0869922 0.0796779 0)
(0.0767051 0.0569291 0)
(0.065425 0.0304056 0)
(0.0538939 0.00253823 0)
(0.0428264 -0.0241032 0)
(0.0327846 -0.0469376 0)
(0.0236256 -0.0647949 0)
(0.014148 -0.0799765 0)
(0.0109181 -0.0941143 0)
(0.00684943 -0.066473 0)
(0.0100526 -0.0862703 0)
(0.015884 -0.100066 0)
(0.0230046 -0.102809 0)
(0.0308036 -0.096171 0)
(0.0396035 -0.0807963 0)
(0.0492225 -0.0577867 0)
(0.0590868 -0.0287013 0)
(0.0682426 0.00409999 0)
(0.0756978 0.0374906 0)
(0.0807659 0.0682293 0)
(0.0831517 0.0926806 0)
(0.0831389 0.108994 0)
(0.0813006 0.117154 0)
(0.0779327 0.117498 0)
(0.0734529 0.110689 0)
(0.067535 0.0963892 0)
(0.0605296 0.075892 0)
(0.0525049 0.0507278 0)
(0.0437831 0.0231662 0)
(0.0349247 -0.00404562 0)
(0.0267081 -0.0278584 0)
(0.0191993 -0.0460532 0)
(0.0114289 -0.0612944 0)
(0.00879468 -0.0753396 0)
(0.00684862 -0.083724 0)
(0.0105564 -0.100214 0)
(0.0147284 -0.114011 0)
(0.0193349 -0.116776 0)
(0.0240284 -0.110353 0)
(0.0288821 -0.0952441 0)
(0.0339408 -0.0722654 0)
(0.03919 -0.0424591 0)
(0.0442228 -0.00772307 0)
(0.0483798 0.0288362 0)
(0.0511763 0.0634761 0)
(0.0525408 0.0919559 0)
(0.0526851 0.11134 0)
(0.0518687 0.122029 0)
(0.0501829 0.124433 0)
(0.0479503 0.119299 0)
(0.044987 0.106693 0)
(0.0413443 0.0878389 0)
(0.0369379 0.0642715 0)
(0.0317281 0.0378072 0)
(0.0259134 0.0109359 0)
(0.0200737 -0.013164 0)
(0.0143457 -0.0313234 0)
(0.00838154 -0.0466641 0)
(0.00642627 -0.0607169 0)
(0.00659313 -0.10144 0)
(0.0112919 -0.112022 0)
(0.0133015 -0.122853 0)
(0.0146173 -0.124582 0)
(0.0163893 -0.117374 0)
(0.0179068 -0.101626 0)
(0.0191035 -0.0780309 0)
(0.020065 -0.0475381 0)
(0.020803 -0.0117776 0)
(0.0212442 0.0262755 0)
(0.0214395 0.062508 0)
(0.0217088 0.0921001 0)
(0.0220821 0.112306 0)
(0.0224069 0.123562 0)
(0.0226438 0.126497 0)
(0.022797 0.121824 0)
(0.022756 0.110096 0)
(0.0223162 0.0924385 0)
(0.0213155 0.0703218 0)
(0.019599 0.0454132 0)
(0.0170859 0.0197895 0)
(0.0138824 -0.0035394 0)
(0.00976483 -0.0210754 0)
(0.00529655 -0.036631 0)
(0.00400637 -0.0508356 0)
(0.00482649 -0.118637 0)
(0.0108606 -0.121371 0)
(0.0109194 -0.125787 0)
(0.00912154 -0.126217 0)
(0.00798148 -0.117789 0)
(0.00650807 -0.100879 0)
(0.00441627 -0.0762299 0)
(0.00173003 -0.0449099 0)
(-0.0012622 -0.00873043 0)
(-0.00401583 0.0291328 0)
(-0.00582022 0.0644057 0)
(-0.00619269 0.0924657 0)
(-0.0053898 0.111325 0)
(-0.00386122 0.121543 0)
(-0.00180929 0.123779 0)
(0.000589535 0.118663 0)
(0.00309212 0.107112 0)
(0.00539896 0.0902655 0)
(0.00724132 0.069459 0)
(0.00840159 0.0462307 0)
(0.00868412 0.0224857 0)
(0.00789363 0.00107668 0)
(0.0055249 -0.0148469 0)
(0.00261206 -0.0310986 0)
(0.0019012 -0.0457381 0)
(0.00150953 -0.130827 0)
(0.00772603 -0.126043 0)
(0.00639808 -0.123651 0)
(0.00316879 -0.121777 0)
(-0.000314482 -0.111989 0)
(-0.00443745 -0.0937505 0)
(-0.00951226 -0.0679346 0)
(-0.0153368 -0.0360239 0)
(-0.0212068 -0.000283585 0)
(-0.0260364 0.0357448 0)
(-0.0287788 0.0677665 0)
(-0.0291463 0.0921795 0)
(-0.0277008 0.108139 0)
(-0.0250503 0.116028 0)
(-0.0214344 0.116702 0)
(-0.0172335 0.110702 0)
(-0.0127869 0.0990376 0)
(-0.00845832 0.0828446 0)
(-0.00456816 0.0633518 0)
(-0.00138846 0.0419704 0)
(0.000823451 0.0204377 0)
(0.00180306 0.00137031 0)
(0.00152101 -0.0125607 0)
(0.000743954 -0.0291567 0)
(0.000431517 -0.044142 0)
(-0.0019077 -0.134499 0)
(0.00310519 -0.125239 0)
(0.000436962 -0.118354 0)
(-0.0033462 -0.113225 0)
(-0.00840237 -0.101417 0)
(-0.0147983 -0.0814565 0)
(-0.0224925 -0.0544831 0)
(-0.0307284 -0.0225152 0)
(-0.0382308 0.0115352 0)
(-0.0436261 0.0438518 0)
(-0.0461175 0.0708433 0)
(-0.045937 0.0905059 0)
(-0.043767 0.102667 0)
(-0.040169 0.107746 0)
(-0.0354091 0.106424 0)
(-0.0299588 0.0993286 0)
(-0.0242128 0.087483 0)
(-0.0185489 0.0719369 0)
(-0.0132901 0.0538 0)
(-0.00872684 0.0343508 0)
(-0.0051609 0.0151331 0)
(-0.00293181 -0.00167202 0)
(-0.00160456 -0.0140747 0)
(-0.00049231 -0.0298674 0)
(-0.000550696 -0.0447637 0)
(-0.00521372 -0.131671 0)
(-0.00168057 -0.120008 0)
(-0.00550979 -0.10987 0)
(-0.0101698 -0.101641 0)
(-0.0166259 -0.0873672 0)
(-0.0249464 -0.0654807 0)
(-0.0344464 -0.0376871 0)
(-0.0436607 -0.0067498 0)
(-0.0510641 0.0239238 0)
(-0.0556389 0.0509899 0)
(-0.0572415 0.0722459 0)
(-0.0563756 0.0871236 0)
(-0.0536218 0.0953799 0)
(-0.049323 0.0975844 0)
(-0.0439046 0.0941715 0)
(-0.0377712 0.085943 0)
(-0.0313283 0.0738637 0)
(-0.0249141 0.0588795 0)
(-0.0188289 0.0420069 0)
(-0.0133784 0.0244367 0)
(-0.00893844 0.00756082 0)
(-0.00590844 -0.00693413 0)
(-0.0036202 -0.0179581 0)
(-0.00113395 -0.0329685 0)
(-0.000838287 -0.0472604 0)
(-0.00711637 -0.123702 0)
(-0.00581162 -0.110919 0)
(-0.0106708 -0.098889 0)
(-0.0163961 -0.0877675 0)
(-0.0243025 -0.0709399 0)
(-0.0339986 -0.0474043 0)
(-0.043959 -0.0198202 0)
(-0.0524776 0.00849565 0)
(-0.0585071 0.0344897 0)
(-0.061748 0.0560065 0)
(-0.0624993 0.0720697 0)
(-0.0611169 0.0824339 0)
(-0.057981 0.0870473 0)
(-0.0533731 0.0864228 0)
(-0.0477238 0.0810479 0)
(-0.0414133 0.0717365 0)
(-0.0347853 0.0593598 0)
(-0.0281189 0.0447808 0)
(-0.0216981 0.0289805 0)
(-0.0158749 0.0131235 0)
(-0.0110898 -0.00155471 0)
(-0.00772028 -0.0140253 0)
(-0.00492315 -0.0242892 0)
(-0.00152633 -0.038585 0)
(-0.000800244 -0.051261 0)
(-0.00829416 -0.111987 0)
(-0.0086744 -0.0987862 0)
(-0.0147715 -0.0856477 0)
(-0.0217038 -0.0720695 0)
(-0.0306745 -0.0529986 0)
(-0.0406114 -0.028882 0)
(-0.0495603 -0.00315641 0)
(-0.0563973 0.0212704 0)
(-0.0607914 0.0423854 0)
(-0.0628685 0.0590768 0)
(-0.0629183 0.0708633 0)
(-0.0611613 0.0770522 0)
(-0.0578162 0.0784276 0)
(-0.0532529 0.0752324 0)
(-0.0477758 0.0680858 0)
(-0.0417045 0.0577426 0)
(-0.0352914 0.0449839 0)
(-0.0287711 0.0306558 0)
(-0.0224453 0.0157862 0)
(-0.0167371 0.00155252 0)
(-0.0120855 -0.0110216 0)
(-0.00876286 -0.0215825 0)
(-0.00584094 -0.0313182 0)
(-0.00213732 -0.0450798 0)
(-0.0010229 -0.0555381 0)
(-0.00923328 -0.0976249 0)
(-0.0104705 -0.0843274 0)
(-0.0177463 -0.0703927 0)
(-0.0256057 -0.0551237 0)
(-0.0347135 -0.0348331 0)
(-0.043606 -0.0118005 0)
(-0.050788 0.0108155 0)
(-0.0559267 0.0310979 0)
(-0.0590401 0.0478414 0)
(-0.0602628 0.0603769 0)
(-0.0597402 0.0681353 0)
(-0.0577843 0.0711264 0)
(-0.0545443 0.0699069 0)
(-0.0502623 0.0646215 0)
(-0.0452162 0.0559636 0)
(-0.0396229 0.0446487 0)
(-0.0336629 0.031445 0)
(-0.0275599 0.0172755 0)
(-0.0216604 0.00327398 0)
(-0.0164114 -0.00940419 0)
(-0.0122079 -0.0200792 0)
(-0.00916138 -0.0290591 0)
(-0.00641354 -0.0387157 0)
(-0.00303182 -0.0519891 0)
(-0.00157378 -0.0602226 0)
(-0.00949675 -0.0818841 0)
(-0.0114067 -0.0685723 0)
(-0.0194413 -0.0542191 0)
(-0.0274606 -0.0381756 0)
(-0.0356895 -0.0181753 0)
(-0.0428546 0.00254029 0)
(-0.0483195 0.0217853 0)
(-0.0521098 0.0383752 0)
(-0.0542872 0.051448 0)
(-0.0549455 0.0604835 0)
(-0.0542197 0.0651905 0)
(-0.0522472 0.0658636 0)
(-0.0492463 0.0622138 0)
(-0.0454129 0.0550851 0)
(-0.0409293 0.0450699 0)
(-0.0359255 0.0328212 0)
(-0.0305413 0.019159 0)
(-0.0250197 0.00514638 0)
(-0.0197377 -0.00798521 0)
(-0.0150867 -0.01919 0)
(-0.0113831 -0.02809 0)
(-0.00860422 -0.0356743 0)
(-0.00609789 -0.0450651 0)
(-0.00344426 -0.0581985 0)
(-0.00195491 -0.0652465 0)
(-0.00916267 -0.0660275 0)
(-0.0114066 -0.0524433 0)
(-0.0194368 -0.0381822 0)
(-0.0269022 -0.0224748 0)
(-0.0337924 -0.00407968 0)
(-0.0393465 0.0139291 0)
(-0.0434993 0.030155 0)
(-0.0463108 0.0437048 0)
(-0.0478269 0.0538819 0)
(-0.0481196 0.0601303 0)
(-0.0473266 0.062274 0)
(-0.0454894 0.060528 0)
(-0.0428258 0.0551967 0)
(-0.0395091 0.0466622 0)
(-0.035626 0.0354989 0)
(-0.0312436 0.022402 0)
(-0.0264935 0.00833029 0)
(-0.0216382 -0.00548971 0)
(-0.0170391 -0.0177941 0)
(-0.0129929 -0.0277203 0)
(-0.0097033 -0.0351304 0)
(-0.00710153 -0.0416157 0)
(-0.00488994 -0.0505219 0)
(-0.00307841 -0.0629575 0)
(-0.00171675 -0.069777 0)
(-0.00835212 -0.0509654 0)
(-0.0103726 -0.0372163 0)
(-0.0175092 -0.0233283 0)
(-0.0240758 -0.00873966 0)
(-0.0297071 0.00745704 0)
(-0.0341016 0.0228905 0)
(-0.0373456 0.0365327 0)
(-0.0394787 0.047531 0)
(-0.0405402 0.0552695 0)
(-0.0406003 0.0592701 0)
(-0.0397783 0.0595656 0)
(-0.0381883 0.056115 0)
(-0.0359618 0.0492898 0)
(-0.0331806 0.0395176 0)
(-0.0298822 0.0273174 0)
(-0.0261131 0.0134569 0)
(-0.0220134 -0.000945051 0)
(-0.0178466 -0.0145369 0)
(-0.0139203 -0.0260992 0)
(-0.0104469 -0.0349661 0)
(-0.00756072 -0.0411563 0)
(-0.00522083 -0.0465599 0)
(-0.00334407 -0.0544134 0)
(-0.00234072 -0.0660791 0)
(-0.00114161 -0.0733071 0)
(-0.00721647 -0.0373452 0)
(-0.00889824 -0.0239272 0)
(-0.0146485 -0.01018 0)
(-0.019987 0.00300302 0)
(-0.0245215 0.0169893 0)
(-0.0280681 0.030142 0)
(-0.0306543 0.0415709 0)
(-0.032308 0.0504531 0)
(-0.0330775 0.0561764 0)
(-0.0330583 0.0583971 0)
(-0.0323349 0.0570796 0)
(-0.0310097 0.0522968 0)
(-0.0291841 0.0443286 0)
(-0.0268946 0.0335328 0)
(-0.024141 0.020442 0)
(-0.0209635 0.00593867 0)
(-0.0175107 -0.00870178 0)
(-0.0140265 -0.022061 0)
(-0.0107536 -0.033009 0)
(-0.00785986 -0.0410439 0)
(-0.00544922 -0.0462969 0)
(-0.00348556 -0.0508619 0)
(-0.00191903 -0.0577279 0)
(-0.00157948 -0.0680818 0)
(-0.000662051 -0.07611 0)
(-0.00595156 -0.0255493 0)
(-0.00737035 -0.0126258 0)
(-0.011761 0.000481248 0)
(-0.0157777 0.0124962 0)
(-0.0193249 0.024715 0)
(-0.0221273 0.0359835 0)
(-0.0241601 0.0455472 0)
(-0.0254349 0.0526566 0)
(-0.0259943 0.0567628 0)
(-0.0259341 0.0576218 0)
(-0.0253363 0.0550631 0)
(-0.0242849 0.0492181 0)
(-0.0228413 0.0403246 0)
(-0.021016 0.0286818 0)
(-0.0187943 0.0148517 0)
(-0.0162173 -0.000155257 0)
(-0.0134399 -0.0149372 0)
(-0.0106852 -0.0280679 0)
(-0.00813733 -0.0385177 0)
(-0.00594318 -0.0458997 0)
(-0.00415031 -0.0504554 0)
(-0.00266682 -0.0543342 0)
(-0.00138757 -0.0601538 0)
(-0.00113642 -0.0693126 0)
(-0.0003029 -0.0783614 0)
(-0.00466938 -0.01598 0)
(-0.00579233 -0.00365018 0)
(-0.00909829 0.00879029 0)
(-0.012083 0.0198755 0)
(-0.0147372 0.0307433 0)
(-0.0168328 0.0405325 0)
(-0.0183364 0.0486126 0)
(-0.0192538 0.0543147 0)
(-0.0196251 0.0571343 0)
(-0.0195282 0.0568983 0)
(-0.0190339 0.0534273 0)
(-0.0182137 0.0468138 0)
(-0.0171111 0.0372393 0)
(-0.0157276 0.0249662 0)
(-0.0140502 0.0105981 0)
(-0.0121249 -0.00472888 0)
(-0.010097 -0.0195271 0)
(-0.00815398 -0.0324058 0)
(-0.00642864 -0.0424536 0)
(-0.00500489 -0.0493547 0)
(-0.00388109 -0.0535536 0)
(-0.0029124 -0.0571966 0)
(-0.00192964 -0.0626469 0)
(-0.00126122 -0.0708315 0)
(-0.000137726 -0.0804057 0)
(-0.00350637 -0.0085592 0)
(-0.00436827 0.00324096 0)
(-0.0067924 0.0149739 0)
(-0.00894807 0.0253029 0)
(-0.010845 0.0351446 0)
(-0.0123087 0.0437985 0)
(-0.0133209 0.0507352 0)
(-0.0138915 0.0553625 0)
(-0.0140674 0.057278 0)
(-0.0139118 0.0562545 0)
(-0.0134802 0.0521312 0)
(-0.0128327 0.0449991 0)
(-0.0120136 0.0349917 0)
(-0.011038 0.0223404 0)
(-0.00992061 0.00768807 0)
(-0.00871294 -0.00774877 0)
(-0.00750634 -0.0224478 0)
(-0.00641509 -0.0350858 0)
(-0.0054939 -0.0448756 0)
(-0.00472934 -0.0514862 0)
(-0.00408526 -0.0555286 0)
(-0.00343503 -0.0591931 0)
(-0.00260502 -0.0646244 0)
(-0.0016352 -0.0727322 0)
(-0.000208233 -0.0824 0)
(-0.00252334 -0.00306688 0)
(-0.00315338 0.0082516 0)
(-0.00485319 0.0194228 0)
(-0.00633385 0.0291377 0)
(-0.00759631 0.0381697 0)
(-0.00852291 0.0459467 0)
(-0.0091041 0.0520199 0)
(-0.00935928 0.0558557 0)
(-0.00933376 0.0571068 0)
(-0.00908358 0.0555455 0)
(-0.00866798 0.0510292 0)
(-0.0081442 0.0436283 0)
(-0.00756272 0.0334522 0)
(-0.00697062 0.0207204 0)
(-0.00641933 0.00609319 0)
(-0.0059427 -0.00922749 0)
(-0.00554207 -0.0237484 0)
(-0.00522489 -0.0362015 0)
(-0.00496645 -0.0458932 0)
(-0.00468404 -0.0526455 0)
(-0.00429285 -0.0569423 0)
(-0.00372867 -0.0609584 0)
(-0.00294145 -0.0667744 0)
(-0.00193436 -0.0748859 0)
(-0.000272743 -0.084615 0)
(-0.00172206 0.000842351 0)
(-0.00215416 0.0117804 0)
(-0.00325913 0.0224236 0)
(-0.00420555 0.0315687 0)
(-0.00496227 0.0399926 0)
(-0.00543166 0.0471085 0)
(-0.00563829 0.0525348 0)
(-0.00560064 0.0558056 0)
(-0.005372 0.0566143 0)
(-0.00501206 0.0547418 0)
(-0.00458512 0.0500573 0)
(-0.00415086 0.0426215 0)
(-0.00377022 0.0325405 0)
(-0.00352142 0.020029 0)
(-0.00347115 0.00569896 0)
(-0.00362282 -0.00934224 0)
(-0.00390565 -0.0236822 0)
(-0.00422008 -0.0360813 0)
(-0.00447646 -0.0458509 0)
(-0.00454865 -0.0529828 0)
(-0.00430145 -0.057782 0)
(-0.00376852 -0.0623029 0)
(-0.00303884 -0.0684609 0)
(-0.00210512 -0.0769502 0)
(-0.000169278 -0.0868747 0)
(-0.00109478 0.00342974 0)
(-0.00135991 0.0140412 0)
(-0.0019929 0.0243178 0)
(-0.00249104 0.0331647 0)
(-0.00282935 0.0408999 0)
(-0.0029296 0.0474586 0)
(-0.00280567 0.0523769 0)
(-0.0024986 0.0552457 0)
(-0.00207087 0.0557862 0)
(-0.00158598 0.0537937 0)
(-0.00111679 0.0491439 0)
(-0.000730006 0.0418876 0)
(-0.000493759 0.0321361 0)
(-0.000497127 0.0200947 0)
(-0.000813093 0.00628254 0)
(-0.00144233 -0.0083283 0)
(-0.00227675 -0.0224427 0)
(-0.00312788 -0.034871 0)
(-0.00382285 -0.0450425 0)
(-0.0041754 -0.052712 0)
(-0.00401556 -0.0582546 0)
(-0.00347872 -0.0633909 0)
(-0.00282449 -0.0699963 0)
(-0.0020539 -0.0787495 0)
(0.000102911 -0.0889173 0)
(-0.000658698 0.00500953 0)
(-0.000786509 0.0153516 0)
(-0.00105815 0.025207 0)
(-0.00115732 0.0336424 0)
(-0.00109857 0.0411255 0)
(-0.0008673 0.0471278 0)
(-0.000453536 0.0516102 0)
(8.31421e-05 0.0542073 0)
(0.000693618 0.0546103 0)
(0.00131228 0.0526372 0)
(0.001854 0.0481761 0)
(0.00224315 0.0412677 0)
(0.00241291 0.0320254 0)
(0.00228028 0.0206396 0)
(0.0017542 0.00754071 0)
(0.000808614 -0.00647169 0)
(-0.000439994 -0.020294 0)
(-0.00172777 -0.0328268 0)
(-0.00279069 -0.0434462 0)
(-0.00340857 -0.0519036 0)
(-0.00336403 -0.0583604 0)
(-0.00284014 -0.0639656 0)
(-0.00228001 -0.070724 0)
(-0.00175122 -0.0798503 0)