/*--------------------------------*- C++ -*----------------------------------*\
| =========                 |                                                 |
| \\      /  F ield         | OpenFOAM: The Open Source CFD Toolbox           |
|  \\    /   O peration     | Version:  2.3.0                                 |
|   \\  /    A nd           | Web:      www.OpenFOAM.org                      |
|    \\/     M anipulation  |                                                 |
\*---------------------------------------------------------------------------*/
FoamFile
{
    version     2.0;
    format      ascii;
    class       volScalarField;
    location    "0.282";
    object      alpha.water;
}
// * * * * * * * * * * * * * * * * * * * * * * * * * * * * * * * * * * * * * //

dimensions      [0 0 0 0 0 0 0];

internalField   nonuniform List<scalar> 
545
(
1
1
1
1
1
1
1
1
1
1
1
1
1
1
1
1
1
1
1
1
1
1
1
1
1
1
1
1
1
1
1
1
1
1
1
1
1
1
1
1
1
1
1
1
1
1
1
1
1
1
1
1
1
1
1
1
1
1
1
1
1
1
1
1
1
1
1
1
1
1
1
1
1
1
1
1
1
1
1
1
1
1
1
1
1
1
1
1
1
1
1
1
1
1
1
1
1
1
1
1
1
1
1
1
1
1
1
1
1
1
1
1
1
1
1
1
1
1
1
0.999999
0.999999
0.999999
0.999999
0.999999
0.999999
0.999999
0.999999
0.999999
0.999999
0.999999
0.999999
0.999999
0.999999
0.999999
0.999999
0.999999
0.999999
0.999999
0.999999
0.999999
0.999999
0.999999
0.999999
0.999999
0.999999
0.999999
0.999999
0.999999
0.999999
0.999999
0.999999
0.999999
0.999999
0.999999
0.999999
0.999999
0.999999
0.999999
0.999999
0.999999
1
1
0.99999
0.999964
0.999941
0.999932
0.999932
0.999935
0.999938
0.99994
0.99994
0.99994
0.99994
0.999939
0.999938
0.999938
0.999938
0.999938
0.999938
0.999938
0.999938
0.999938
0.999938
0.999938
0.999938
0.999938
0.999938
0.999938
0.999938
0.999938
0.999938
0.999938
0.999938
0.999938
0.999938
0.999938
0.999938
0.999938
0.999938
0.999938
0.999938
0.999938
0.999938
0.999938
0.999938
1
1
0.999531
0.998511
0.995608
0.99401
0.994399
0.994897
0.995287
0.995548
0.995659
0.995651
0.995576
0.995482
0.995404
0.995355
0.995338
0.99534
0.995355
0.99537
0.995383
0.995389
0.995391
0.995388
0.995382
0.995374
0.995368
0.995362
0.99536
0.995358
0.995359
0.995359
0.995361
0.995361
0.995358
0.995352
0.995346
0.995339
0.995334
0.995329
0.99533
0.99533
0.995335
0.995339
0.995343
0.228055
0.31238
0.775594
0.788895
0.466211
0.4358
0.435783
0.435823
0.765257
0.995671
0.696591
0.548805
0.54107
0.539084
0.54005
0.695995
0.961757
0.681413
0.480177
0.534341
0.533023
0.533447
0.533103
0.848108
0.995451
0.770414
0.448439
0.452855
0.525379
0.502764
0.502899
0.524586
0.860417
0.99554
0.995575
0.85088
0.372535
0.213536
0.254581
0.3356
0.294498
0.294553
0.368807
0.767149
0.994008
1
1
1
1
1
1
1
1
1
1
1
1
1
1
1
1
1
1
1
1
1
1
1
1
1
1
1
0.99953
0.99851
0.995606
0.994012
0.994397
0.994899
0.995286
0.995547
0.995658
0.99565
0.995572
0.995477
0.995396
0.995349
0.995329
0.995331
0.995343
0.995359
0.99537
0.995377
0.995378
0.995378
0.995373
0.995366
0.995358
0.995354
0.995349
0.995348
0.995346
0.995348
0.995349
0.995348
0.995342
0.995334
0.995322
0.995316
0.995306
0.995304
0.995301
0.995303
0.995305
0.995312
0.995316
1
1
0.99999
0.999964
0.999941
0.999932
0.999932
0.999935
0.999938
0.99994
0.99994
0.99994
0.999939
0.999939
0.999938
0.999938
0.999938
0.999938
0.999938
0.999938
0.999938
0.999938
0.999938
0.999938
0.999938
0.999938
0.999938
0.999938
0.999938
0.999938
0.999938
0.999938
0.999938
0.999938
0.999938
0.999938
0.999938
0.999938
0.999938
0.999938
0.999938
0.999938
0.999938
0.999938
0.999938
1
1
1
1
0.999999
0.999999
0.999999
0.999999
0.999999
0.999999
0.999999
0.999999
0.999999
0.999999
0.999999
0.999999
0.999999
0.999999
0.999999
0.999999
0.999999
0.999999
0.999999
0.999999
0.999999
0.999999
0.999999
0.999999
0.999999
0.999999
0.999999
0.999999
0.999999
0.999999
0.999999
0.999999
0.999999
0.999999
0.999999
0.999999
0.999999
0.999999
0.999999
0.999999
0.999999
1
1
1
1
1
1
1
1
1
1
1
1
1
1
1
1
1
1
1
1
1
1
1
1
1
1
1
1
1
1
1
1
1
1
1
1
1
1
1
1
1
1
1
1
1
1
1
1
1
1
1
1
1
1
1
1
1
1
1
1
1
1
1
1
1
1
1
1
1
1
1
1
1
1
1
1
1
1
1
1
1
1
1
1
1
1
1
1
1
1
)
;

boundaryField
{
    AirInlet
    {
        type            fixedValue;
        value           uniform 0;
    }
    WaterInlet
    {
        type            fixedValue;
        value           uniform 1;
    }
    ChannelWall
    {
        type            zeroGradient;
    }
    Outlet
    {
        type            inletOutlet;
        inletValue      uniform 0;
        value           nonuniform List<scalar> 
11
(
1
1
0.999999
0.999938
0.995343
0.994008
0.995316
0.999938
0.999999
1
1
)
;
    }
    FrontAndBack
    {
        type            empty;
    }
}


// ************************************************************************* //
