/*--------------------------------*- C++ -*----------------------------------*\
| =========                 |                                                 |
| \\      /  F ield         | OpenFOAM: The Open Source CFD Toolbox           |
|  \\    /   O peration     | Version:  2.3.0                                 |
|   \\  /    A nd           | Web:      www.OpenFOAM.org                      |
|    \\/     M anipulation  |                                                 |
\*---------------------------------------------------------------------------*/
FoamFile
{
    version     2.0;
    format      ascii;
    class       volScalarField;
    location    "0.7";
    object      p_rgh;
}
// * * * * * * * * * * * * * * * * * * * * * * * * * * * * * * * * * * * * * //

dimensions      [1 -1 -2 0 0 0 0];

internalField   nonuniform List<scalar> 
2268
(
530.371
529.889
531.73
536.177
545.079
560.262
581.646
605.389
628.282
650.066
671.324
692.158
712.387
731.804
750.159
766.785
781.293
791.819
796.974
796.611
802.934
828.707
856.437
529.918
528.916
530.618
534.973
543.609
558.833
580.631
604.929
628.161
650.077
671.385
692.235
712.491
731.942
750.392
767.319
782.441
794.407
797.484
791.47
793.606
815.862
850.443
527.996
526.757
528.695
532.929
540.878
555.913
578.408
603.953
627.967
650.144
671.565
692.455
712.69
732.051
750.354
767.316
782.676
796.374
801.092
790.879
787.441
804.863
845.452
525.294
523.905
525.998
529.906
536.779
551.408
575.142
602.774
627.943
650.412
671.922
692.862
713.123
732.464
750.74
767.735
783.166
796.575
805.382
801.812
792.339
810.214
845.501
522.521
520.84
522.811
526.34
532.413
546.589
572.268
602.029
628.308
650.955
672.54
693.518
713.8
733.152
751.487
768.614
784.194
797.667
808.046
812.489
811.969
826.391
848.096
519.801
517.793
519.197
522.402
528.378
543.476
570.617
601.729
628.856
651.649
673.437
694.435
714.705
734.046
752.482
769.804
785.664
799.631
811.277
819.001
826.09
833.574
850.287
517.187
515.976
516.367
519.308
526.603
542.915
569.875
600.822
628.746
651.804
674.373
695.656
715.915
735.196
753.719
771.251
787.404
801.723
814.122
823.473
832.838
840.048
853.555
502.611
486.365
471.463
462.1
465.288
486.686
532.966
595.258
627.571
652.296
675.447
697.013
717.211
736.286
755.008
772.933
789.555
804.175
816.947
827.435
838.616
846.185
859.735
772.722
634.375
674.777
776.96
870.763
920.486
959.539
901.796
912.955
886.222
699.382
534.302
445.414
416.156
445.423
577.486
807.577
947.768
982.71
761.221
588.178
641.801
767.684
869.63
923.931
960.088
866.351
909.471
843.762
592.262
432.802
393.115
399.233
426.184
522.479
723.7
928.815
990.738
725.512
537.37
616.296
755.363
869.173
933.291
974.682
889.958
846.076
635.249
350.506
293.244
288.68
297.282
309.729
349.45
515.42
872.639
1001.37
679.733
493.699
593.342
741.59
866.204
951.836
1018.62
946.892
700.925
358.373
273.342
268.044
267.708
268.413
269.439
271.578
313.017
670.153
1001.49
599.48
395.855
564.53
729.086
855.374
969.845
1108.26
993.572
525.751
279.278
268.182
267.332
267.542
268.35
269.226
268.969
276.678
423.521
985.017
550.069
406.917
574.149
710.804
825.523
957.072
1160.69
971.526
385.583
270.514
267.16
267.018
267.411
268.326
269.224
268.651
267.468
323.103
932.794
566.417
552.012
612.474
664.147
754.815
898.501
1152.61
864.795
301.902
268.191
266.79
266.794
267.298
268.266
269.042
268.518
265.697
286.48
816.106
721.092
673.476
610.602
560.932
483.216
767.133
1082.48
733.165
274.873
267.219
266.524
266.591
267.143
268.115
268.874
267.569
265.288
264.192
552.03
171.068
169.458
170.115
181.153
216.111
285.494
381.707
485.376
575.779
641.549
676.941
699.535
719.953
738.374
757.06
775.712
793.123
808.054
820.598
833.746
847.011
855.673
864.803
4.63875
15.025
28.9906
44.9536
58.7192
68.4131
84.1823
131.307
215.9
331.405
458.237
566.569
638.292
688.45
748.836
779.507
800.368
815.303
825.743
844.294
863.088
872.118
867.386
2.29454
1.89913
1.81213
1.65442
1.51324
1.46509
1.55238
1.67907
1.70857
2.3567
37.5732
98.272
166.852
226.076
296.687
409.418
509.042
546.842
581.892
693.125
810.066
860.248
841.909
1.75169
1.51189
1.49883
1.41644
1.35671
1.37074
1.46717
1.56939
1.62957
1.68576
1.68037
1.7182
1.84168
2.01623
2.15997
2.89673
18.2576
76.2422
129.188
296.449
548.165
667.655
335.346
1.57485
1.34139
1.36848
1.31647
1.28718
1.30321
1.36379
1.44092
1.49391
1.52132
1.53513
1.57037
1.60459
1.64624
1.90535
3.04513
42.6448
203.465
206.573
211.245
56.11
26.5597
25.6542
1.4829
1.34837
1.3144
1.28166
1.27846
1.30573
1.35864
1.40847
1.44749
1.47572
1.48779
1.48872
1.49274
1.49565
1.42893
3.79901
59.131
83.0867
56.9409
32.6135
41.8569
60.3333
129.185
1.38818
1.34816
1.29781
1.26849
1.26616
1.2808
1.30372
1.3265
1.34234
1.35066
1.34772
1.33443
1.3071
1.22701
1.30991
1.05914
0.429292
0.719637
1.22014
44.0974
302.525
362.645
364.781
1.28744
1.29303
1.26629
1.24243
1.23315
1.23383
1.2415
1.24912
1.2469
1.23547
1.21351
1.18031
1.12354
1.02877
0.896469
0.753673
0.717393
0.778483
0.752835
1.08191
37.3499
228.875
352.373
1.20326
1.21591
1.20199
1.18682
1.1754
1.16837
1.16685
1.16418
1.15325
1.13327
1.10196
1.05671
0.996955
0.921022
0.828285
0.749627
0.711949
0.677978
0.615807
0.652312
0.697858
1.96447
33.0523
1.128
1.13318
1.12218
1.11204
1.10121
1.09134
1.0832
1.07222
1.05536
1.03122
0.997673
0.953559
0.899429
0.83595
0.764362
0.69977
0.666232
0.639925
0.594692
0.53501
0.524193
1.49781
9.36838
1.05111
1.05104
1.04223
1.03348
1.02279
1.0111
0.998382
0.98241
0.961614
0.934594
0.899719
0.856508
0.805852
0.748878
0.688084
0.63237
0.593049
0.567014
0.540663
0.511505
0.667397
2.11253
95.8994
0.974723
0.972757
0.965514
0.956882
0.94578
0.932032
0.916481
0.897338
0.873586
0.844024
0.807729
0.764482
0.714896
0.659902
0.601524
0.544548
0.492586
0.445934
0.396623
0.333407
0.409393
0.984507
5.53683
0.901288
0.898286
0.891709
0.882641
0.870748
0.855644
0.837819
0.816068
0.789692
0.757894
0.720155
0.676127
0.625771
0.569235
0.506946
0.440461
0.369361
0.287776
0.178992
0.0208806
0.283193
5.54358
5.23378
0.830825
0.827215
0.820784
0.811061
0.798392
0.782141
0.762558
0.738769
0.710295
0.676563
0.637051
0.591178
0.538391
0.477974
0.408727
0.329148
0.235305
0.114816
-0.0582267
-0.325787
-0.0352343
6.10792
4.44405
0.763581
0.759408
0.753026
0.742816
0.729445
0.712223
0.691326
0.666125
0.636046
0.600578
0.559089
0.510791
0.454733
0.389492
0.312661
0.220399
0.105918
-0.0466749
-0.272501
-0.630112
-0.860179
6.67576
6.42278
0.699431
0.695408
0.688828
0.678285
0.664309
0.64639
0.624415
0.598416
0.567014
0.530074
0.48681
0.436257
0.377163
0.307612
0.224458
0.122633
-0.00624587
-0.17796
-0.426888
-0.808999
-1.03409
3.04244
7.78182
0.63904
0.635012
0.628322
0.617585
0.603212
0.584857
0.562354
0.535348
0.503184
0.465277
0.420794
0.368632
0.307393
0.235043
0.148127
0.0414873
-0.0931247
-0.269294
-0.511192
-0.862497
-1.12988
-1.03464
3.67009
0.582396
0.578372
0.571624
0.560802
0.546229
0.527643
0.504832
0.477408
0.444834
0.40644
0.361375
0.308529
0.24649
0.173238
0.0855728
-0.0211225
-0.153706
-0.322448
-0.543162
-0.838233
-1.21496
-1.77127
-2.2792
0.529529
0.525542
0.518806
0.507993
0.493396
0.474798
0.451964
0.424524
0.391971
0.353633
0.308709
0.256209
0.194812
0.122662
0.0370926
-0.0655543
-0.190387
-0.344178
-0.536452
-0.777492
-1.08462
-1.4807
-1.93785
0.48045
0.476519
0.469863
0.459149
0.444683
0.426283
0.403709
0.376605
0.34451
0.306812
0.262794
0.211623
0.15216
0.0828242
0.00155494
-0.0942857
-0.208142
-0.344217
-0.507597
-0.702532
-0.934803
-1.20739
-1.51401
0.435078
0.431232
0.424712
0.414194
0.400004
0.381997
0.359946
0.333528
0.302318
0.265782
0.223326
0.174295
0.117775
0.0525152
-0.0229985
-0.110576
-0.212361
-0.330754
-0.468161
-0.625669
-0.803466
-0.996521
-1.19798
0.39326
0.389543
0.383204
0.372983
0.359214
0.341782
0.320485
0.29505
0.265098
0.230177
0.189824
0.143551
0.0906589
0.0302221
-0.0388063
-0.117591
-0.207346
-0.309255
-0.424142
-0.551723
-0.690142
-0.833988
-0.976039
0.354829
0.351272
0.345161
0.335329
0.32212
0.305431
0.285089
0.260874
0.232472
0.199518
0.161671
0.118573
0.069708
0.0144507
-0.0478607
-0.117899
-0.196227
-0.283239
-0.378854
-0.482163
-0.590866
-0.700381
-0.804505
0.319604
0.316226
0.310387
0.301027
0.2885
0.272693
0.25347
0.230655
0.204012
0.173263
0.138165
0.0984769
0.0538383
0.00385858
-0.0518189
-0.113498
-0.181319
-0.255185
-0.334548
-0.418201
-0.503889
-0.587934
-0.665628
0.287374
0.284194
0.278671
0.269849
0.258103
0.24329
0.225309
0.204024
0.179271
0.150859
0.118631
0.0824347
0.0420421
-0.00276093
-0.0521037
-0.106024
-0.164403
-0.226875
-0.292678
-0.360534
-0.428435
-0.4935
-0.55238
0.257917
0.254955
0.249785
0.241561
0.230656
0.216906
0.200246
0.180575
0.157779
0.131749
0.10241
0.0696677
0.0334013
-0.0064566
-0.0498761
-0.0967271
-0.146743
-0.199432
-0.253982
-0.309195
-0.363387
-0.414335
-0.45968
0.231013
0.22829
0.22349
0.215912
0.205873
0.193216
0.177907
0.15988
0.139061
0.115406
0.088903
0.0595111
0.0271898
-0.00801556
-0.0459716
-0.0864615
-0.12915
-0.173514
-0.218774
-0.263873
-0.307433
-0.347754
-0.38316
0.206462
0.203982
0.199561
0.192646
0.18348
0.171918
0.157955
0.14156
0.122701
0.101387
0.0776375
0.0514513
0.0228567
-0.00802541
-0.0410086
-0.0758455
-0.112184
-0.14951
-0.187114
-0.224091
-0.259334
-0.291555
-0.319561
0.184093
0.181828
0.177801
0.171526
0.163226
0.152745
0.140106
0.125305
0.10836
0.0893174
0.068206
0.0450503
0.01993
-0.00699234
-0.0355109
-0.0653757
-0.0962438
-0.127634
-0.158921
-0.18935
-0.218047
-0.244047
-0.266497
0.163728
0.161637
0.158012
0.152336
0.144876
0.135446
0.124096
0.11084
0.0957405
0.0788644
0.0602407
0.0399097
0.0179857
-0.00535242
-0.0299008
-0.0554205
-0.081589
-0.107971
-0.13403
-0.15915
-0.182654
-0.203819
-0.222039
0.14514
0.143215
0.13997
0.134852
0.128195
0.119779
0.109673
0.0979079
0.0845713
0.0697345
0.0534246
0.0356965
0.0166819
-0.00344131
-0.0244812
-0.0462127
-0.0683375
-0.0904742
-0.112176
-0.132954
-0.152288
-0.169644
-0.184587
0.128085
0.126352
0.12344
0.118858
0.112963
0.105516
0.0966102
0.0862796
0.0746135
0.0616736
0.0474915
0.0321394
0.0157527
-0.0015012
-0.0194423
-0.0378589
-0.0564834
-0.0749953
-0.0930368
-0.110227
-0.126171
-0.140473
-0.152818
0.112366
0.110837
0.108224
0.104167
0.0989966
0.0924718
0.0847162
0.0757502
0.0656463
0.0544523
0.0422128
0.0290188
0.0150009
0.000312615
-0.0148773
-0.0303745
-0.0459508
-0.0613501
-0.0762939
-0.090489
-0.103632
-0.115424
-0.125635
0.0978261
0.0964883
0.0941726
0.0906314
0.0861465
0.0804921
0.0738207
0.066126
0.0574603
0.0478643
0.0373999
0.0261696
0.0142943
0.001913
-0.0108208
-0.0237378
-0.0366543
-0.0493725
-0.0616773
-0.0733391
-0.0841198
-0.0937907
-0.102183
0.0842978
0.0831495
0.0811462
0.0781
0.0742593
0.0694189
0.0637509
0.0572178
0.0498653
0.0417357
0.0329029
0.0234673
0.0135377
0.00323602
-0.00730432
-0.017944
-0.0285405
-0.0389418
-0.0489784
-0.0584674
-0.0672208
-0.0750676
-0.0818913
0.0716015
0.0706765
0.0689819
0.066398
0.0631581
0.0590767
0.0543277
0.0488506
0.0427026
0.0359282
0.0285999
0.020806
0.0126397
0.00420581
-0.00438361
-0.0130179
-0.0215877
-0.0299747
-0.0380435
-0.0456506
-0.0526537
-0.0589331
-0.0644164
0.0595859
0.0589248
0.0575032
0.0553399
0.0526598
0.0492866
0.0453832
0.0408788
0.0358496
0.0303334
0.0243904
0.0180912
0.0115141
0.00474974
-0.00210839
-0.008974
-0.0157642
-0.0223877
-0.0287403
-0.0347151
-0.0402121
-0.045154
-0.0494985
0.0481215
0.0477444
0.0465344
0.0447554
0.0426004
0.0398928
0.0367802
0.0331914
0.029213
0.0248659
0.0201934
0.0152502
0.0101044
0.00483564
-0.000480165
-0.00577827
-0.0109987
-0.0160746
-0.0209306
-0.025492
-0.0296933
-0.0334846
-0.0368449
0.0370709
0.0369725
0.0359106
0.0345068
0.0328531
0.0307809
0.0284228
0.025706
0.0227161
0.0194511
0.0159443
0.012239
0.00839458
0.00447866
0.000547102
-0.00335713
-0.00719202
-0.01091
-0.0144579
-0.017787
-0.0208548
-0.0236291
-0.0261052
0.0262843
0.0264243
0.0255054
0.0244971
0.0233333
0.0218746
0.0202392
0.0183488
0.0162823
0.0140185
0.0115909
0.00903167
0.00638687
0.00370611
0.00102382
-0.00163456
-0.00423857
-0.00675314
-0.00914231
-0.0113783
-0.0134351
-0.0152958
-0.0169682
0.0157014
0.0159807
0.0152489
0.0146678
0.0139828
0.013121
0.0121711
0.0110632
0.00986051
0.00853609
0.00712265
0.00563754
0.00410959
0.00256535
0.00102232
-0.000503246
-0.00199226
-0.00342168
-0.00477185
-0.00603009
-0.00718332
-0.00822549
-0.00916867
0.00501826
0.00539726
0.00506531
0.00489074
0.00466541
0.00437443
0.00407314
0.0037105
0.00332653
0.00289935
0.00244939
0.00197806
0.00149642
0.00101227
0.000531035
5.88135e-05
-0.000399198
-0.000835139
-0.00124378
-0.00162279
-0.00196945
-0.00228408
-0.00257575
867.592
862.876
853.785
839.52
869.054
868.782
862.907
838.872
809.314
805.682
797.683
551.546
39.7051
38.7937
36.266
31.9083
31.0376
33.372
31.7069
28.216
188.563
80.9765
25.7691
21.4348
431.688
424.528
148.374
22.6221
487.994
607.388
431.048
101.861
451.976
772.562
780.327
276.919
346.383
859.099
967.849
976.336
922.11
1030.97
1043.71
1054.84
352.873
933.215
1101.48
1091.61
-2.17297
-3.1581
-4.76774
-5.8201
-2.81352
-2.9892
-3.19399
-3.42087
-3.08421
-3.37307
-3.52775
-3.69193
2.21333
-3.59756
-3.71417
-3.79942
3.8347
1.07647
-1.17265
-3.68588
-1.45427
-2.30862
-1.15364
-1.33063
-2.28279
-2.45855
-2.51189
-2.55185
-1.72234
-1.83548
-1.92553
-1.98888
-1.33136
-1.4057
-1.46645
-1.51043
-1.06589
-1.11449
-1.15348
-1.18203
-0.868091
-0.902172
-0.929593
-0.949905
-0.712087
-0.737065
-0.757469
-0.772916
-0.587132
-0.605862
-0.621361
-0.63339
-0.486159
-0.500425
-0.512328
-0.521716
-0.403641
-0.414687
-0.423985
-0.431411
-0.335676
-0.3444
-0.351805
-0.35778
-0.279416
-0.286455
-0.292475
-0.297368
-0.232582
-0.238379
-0.243374
-0.247459
-0.193322
-0.198174
-0.202382
-0.205855
-0.160121
-0.164212
-0.167787
-0.170786
-0.131737
-0.13518
-0.13822
-0.140824
-0.107238
-0.110113
-0.112682
-0.114928
-0.0860326
-0.0884118
-0.0905604
-0.0924671
-0.0677772
-0.0697239
-0.0714934
-0.0730802
-0.0521938
-0.0537666
-0.0552063
-0.0565066
-0.038966
-0.0402283
-0.041428
-0.0425854
-0.0276898
-0.0286468
-0.0295761
-0.0304867
-0.0180544
-0.018721
-0.0193839
-0.0200502
-0.00978658
-0.0101742
-0.0105729
-0.0109895
-0.00277448
-0.00290429
-0.00304375
-0.00319618
808.387
718.671
575.373
270.955
149.929
437.237
919.434
627.153
267.973
266.437
266.116
266.293
266.86
267.816
268.848
264.563
262.112
253.56
406.969
749.692
542.933
110.764
44.3449
46.8589
244.111
808.766
752.905
267.295
266.269
265.919
265.947
266.451
269.12
349.778
328.819
261.111
237.87
383.801
164.051
24.813
22.9316
25.6216
247.457
545.244
801.279
941.413
402.986
266.359
266.375
266.219
266.826
487.762
777.617
737.224
343.6
191.814
570.489
26.3049
22.0177
18.8834
20.1645
11.6975
88.2371
559.951
970.209
980.869
275.716
268.732
269.697
546.708
942.039
874.751
834.204
386.83
138.903
588.852
21.8204
15.3612
13.421
13.4798
16.0882
21.0245
144.466
940.005
1063.65
580.476
337.429
344.866
1093.03
1008.95
905.588
882.865
260.451
127.491
599.058
16.5607
9.74422
8.54619
11.5358
16.1776
19.9303
21.0746
310.116
1085.9
1287.61
496.136
940.614
1300.39
1087.17
978.596
877.838
159.309
140.917
714.967
16.0762
9.18445
7.59455
10.8434
15.9337
19.9865
21.5431
257.663
1145.74
1019.54
591.982
1323.93
1356.97
1162.08
1044.85
490.634
214.971
196.362
931.728
28.2435
15.8217
10.8032
12.1375
17.2292
22.3558
56.4424
443.733
984.661
607.555
664.048
746.976
536.237
1207.59
985.167
307.568
301.97
678.208
1065.17
72.0338
26.6539
35.4106
56.2865
50.2898
58.5419
101.699
302.739
526.115
722.871
692.647
166.887
93.1683
780.101
1117.06
863.371
629.161
994.621
1181.05
452.36
60.3709
36.2033
123.266
389.101
507.277
445.04
532.02
706.252
669.661
503.946
17.1016
14.7986
120.255
1177.48
1400.39
1455.83
1476.33
1586.62
1056.47
962.47
694.074
718.261
928.384
951.513
951.917
987.559
936.875
310.093
25.8088
6.8495
6.45584
5.12981
243.884
1377.08
1733.03
1788.14
1765.96
1086.35
1080.25
1091.4
1105
1014.87
576.924
151.413
103.953
97.5319
6.73821
0.396089
3.26377
3.13128
2.5633
1.7042
41.8705
673.93
1558.62
1820.79
513.429
927.827
816.982
180.921
0.571223
-0.0823465
-1.0328
-0.677669
-2.76812
-1.51603
0.136765
1.50935
1.40099
1.15797
0.712849
0.984188
4.85808
275.661
1890.72
-3.82198
-3.6801
-3.32585
-2.96352
-0.429551
3.21008
3.04715
0.944616
-1.57084
-1.08073
-0.283774
0.185319
0.24668
0.319172
0.329729
0.309389
1.04057
28.5976
799.852
-3.82587
-3.56291
-3.06727
-2.19257
-1.10242
-0.963408
-1.1261
-1.09771
-1.02056
-0.895053
-0.684593
-0.567218
-0.352636
-0.139555
0.0340901
0.186115
0.368594
7.11094
23.3143
-3.87905
-3.56646
-2.93947
-2.21713
-1.58229
-1.15517
-0.907552
-0.799735
-0.808836
-0.878925
-0.865638
-0.818815
-0.58776
-0.296523
-0.11351
-0.0477619
0.0501488
3.71854
86.52
-4.05235
-3.63083
-2.94633
-2.13309
-1.47915
-1.04125
-0.793198
-0.703537
-0.734823
-0.821675
-0.891601
-0.848988
-0.651687
-0.341309
-0.118497
-0.036729
0.115594
1.74086
175.516
-1.53332
-2.32492
-2.49749
-1.98855
-1.42386
-1.03401
-0.804808
-0.698912
-0.682076
-0.699466
-0.69666
-0.626782
-0.474827
-0.283123
-0.0948408
0.0278721
0.160522
0.0526721
182.985
-1.44551
-1.24476
-1.19837
-1.72173
-1.31609
-1.00863
-0.814239
-0.69979
-0.636883
-0.593229
-0.540516
-0.458433
-0.34015
-0.199114
-0.0482998
0.0773019
0.215495
0.172755
190.206
-2.00224
-1.78193
-1.6612
-1.4003
-1.17661
-0.949659
-0.792237
-0.681949
-0.601283
-0.532742
-0.460794
-0.375387
-0.271797
-0.156064
-0.0280325
0.0876656
0.23765
0.249988
167.766
-1.5575
-1.55129
-1.42579
-1.23282
-1.0314
-0.867407
-0.740953
-0.640985
-0.558835
-0.485185
-0.41002
-0.326143
-0.230855
-0.131233
-0.0243941
0.0622413
0.186715
0.370799
10.77
-1.21158
-1.19755
-1.13102
-1.02094
-0.893662
-0.775831
-0.675346
-0.58944
-0.513752
-0.442921
-0.370274
-0.290526
-0.202592
-0.115254
-0.0271918
0.029361
0.120726
0.134186
0.200169
-0.971053
-0.96603
-0.924588
-0.8546
-0.768819
-0.682461
-0.603113
-0.531564
-0.46612
-0.403355
-0.33792
-0.264739
-0.183174
-0.104199
-0.0303833
0.00809376
0.106184
0.0223069
4.95501
-0.790098
-0.788754
-0.762391
-0.715206
-0.655195
-0.591273
-0.529401
-0.471924
-0.418721
-0.367063
-0.311373
-0.244217
-0.166793
-0.0967247
-0.0350976
0.0349425
0.12855
-0.0647536
217.408
-0.647782
-0.651055
-0.631261
-0.597641
-0.554053
-0.505893
-0.457934
-0.413275
-0.372967
-0.334807
-0.29009
-0.211904
-0.134048
-0.0914224
-0.0425069
0.0876939
0.126807
-0.0252332
351.161
-0.53322
-0.535744
-0.522956
-0.498388
-0.46551
-0.428278
-0.390897
-0.357386
-0.330474
-0.30685
-0.251835
-0.206164
-0.144757
-0.100134
-0.0558984
0.0787704
0.0897217
-0.0191715
364.181
-0.440642
-0.442912
-0.433808
-0.415007
-0.389176
-0.359382
-0.32971
-0.305813
-0.291979
-0.258843
-0.249647
-0.223049
-0.168616
-0.131166
-0.081917
0.0607451
-0.00326073
-0.0438438
376.608
-0.365288
-0.367362
-0.360455
-0.345551
-0.324571
-0.299825
-0.275748
-0.260111
-0.245872
-0.240441
-0.255897
-0.243656
-0.214867
-0.171583
-0.109113
-0.0198328
-0.0401827
-0.0719124
391.406
-0.30357
-0.305497
-0.300231
-0.28838
-0.271145
-0.250154
-0.230367
-0.219358
-0.218087
-0.254831
-0.287287
-0.289945
-0.249313
-0.193833
-0.136577
-0.11474
-0.0772598
-0.0996858
404.977
-0.252694
-0.254619
-0.250857
-0.241775
-0.227969
-0.210446
-0.193514
-0.183955
-0.201181
-0.237704
-0.275646
-0.277969
-0.246145
-0.197502
-0.112657
-0.154297
-0.112475
-0.129013
417.546
-0.210387
-0.212467
-0.210157
-0.203698
-0.193345
-0.179538
-0.166052
-0.159691
-0.168945
-0.198826
-0.233126
-0.238039
-0.182883
-0.075314
-0.126288
-0.177218
-0.142322
-0.157494
429.889
-0.174803
-0.177084
-0.176057
-0.17193
-0.164874
-0.154994
-0.144586
-0.138334
-0.13888
-0.154568
-0.133309
-0.0707664
-0.0131241
-0.0215601
-0.181561
-0.174882
-0.14213
-0.136407
441.488
-0.144405
-0.146844
-0.146824
-0.144566
-0.140284
-0.134163
-0.127364
-0.122156
-0.11866
-0.122429
-0.0175849
0.0369686
0.0158052
-0.102665
-0.180815
-0.168785
-0.131485
-0.137478
406.032
-0.118088
-0.120583
-0.121303
-0.120454
-0.118292
-0.115154
-0.111843
-0.109772
-0.10868
-0.109635
-0.0691885
-0.00154214
-0.0393489
-0.176134
-0.176403
-0.176112
-0.147862
2.33258
28.9521
-0.0952088
-0.0976799
-0.0989461
-0.0991745
-0.0986106
-0.097642
-0.0968835
-0.0973161
-0.0995346
-0.102916
-0.108874
-0.121036
-0.140274
-0.156694
-0.162125
-0.185019
-0.179722
2.45588
0.172601
-0.0754112
-0.0778636
-0.0795515
-0.0806257
-0.0812914
-0.0819456
-0.0829578
-0.084882
-0.0886035
-0.093835
-0.100828
-0.110589
-0.123001
-0.134584
-0.141089
-0.166732
-0.160399
0.746353
0.30954
-0.0584078
-0.0609088
-0.062891
-0.0646039
-0.066201
-0.068067
-0.0703792
-0.0733129
-0.0778353
-0.0838809
-0.0915554
-0.0999265
-0.108505
-0.116425
-0.120466
-0.139286
-0.123959
-0.135272
0.782388
-0.0444999
-0.0465074
-0.0485595
-0.0506901
-0.0529622
-0.055678
-0.0589003
-0.0626309
-0.0677304
-0.0740592
-0.0819551
-0.0894828
-0.0962399
-0.102481
-0.104521
-0.118032
-0.0863816
-0.115201
2.15513
-0.0319876
-0.0339437
-0.0360428
-0.0384336
-0.0411863
-0.0445029
-0.0483701
-0.0527929
-0.0583984
-0.0649382
-0.0726434
-0.0795087
-0.0856704
-0.0914877
-0.0930924
-0.106085
-0.0752571
-0.105614
2.20851
-0.0211842
-0.0229209
-0.0249829
-0.0275218
-0.0306058
-0.0343647
-0.0387311
-0.0437317
-0.0497054
-0.0564201
-0.0638311
-0.0704929
-0.0767679
-0.0824898
-0.0849359
-0.0990633
-0.0879375
-0.0924607
1.01139
-0.0117463
-0.0131356
-0.0150841
-0.0176931
-0.0209975
-0.0250679
-0.0298298
-0.0352848
-0.0415158
-0.0483377
-0.0555463
-0.0623451
-0.0690956
-0.0755428
-0.0806636
-0.0937165
-0.0887734
-0.0948455
-0.107144
-0.00349968
-0.00439607
-0.00615556
-0.00877936
-0.0122725
-0.0166145
-0.0217483
-0.0276773
-0.0342532
-0.0412177
-0.0483403
-0.0550893
-0.0624474
-0.0701679
-0.0796364
-0.0935167
-0.0907915
-0.110578
-0.106091
)
;

boundaryField
{
    leftWall
    {
        type            fixedFluxPressure;
        gradient        uniform 0;
        value           nonuniform List<scalar> 
50
(
530.371
529.918
527.996
525.294
522.521
519.801
517.187
502.611
171.068
4.63875
2.29454
1.75169
1.57485
1.4829
1.38818
1.28744
1.20326
1.128
1.05111
0.974723
0.901288
0.830825
0.763581
0.699431
0.63904
0.582396
0.529529
0.48045
0.435078
0.39326
0.354829
0.319604
0.287374
0.257917
0.231013
0.206462
0.184093
0.163728
0.14514
0.128085
0.112366
0.0978261
0.0842978
0.0716015
0.0595859
0.0481215
0.0370709
0.0262843
0.0157014
0.00501826
)
;
    }
    rightWall
    {
        type            fixedFluxPressure;
        gradient        uniform 0;
        value           nonuniform List<scalar> 
50
(
982.71
990.738
1001.37
1001.49
985.017
932.794
816.106
552.03
406.969
383.801
570.489
588.852
599.058
714.967
931.728
1065.17
1181.05
1586.62
1765.96
1820.79
1890.72
799.852
23.3143
86.52
175.516
182.985
190.206
167.766
10.77
0.200169
4.95501
217.408
351.161
364.181
376.608
391.406
404.977
417.546
429.889
441.488
406.032
28.9521
0.172601
0.30954
0.782388
2.15513
2.20851
1.01139
-0.107144
-0.106091
)
;
    }
    lowerWall
    {
        type            fixedFluxPressure;
        gradient        uniform 0;
        value           nonuniform List<scalar> 
62
(
530.371
529.889
531.73
536.177
545.079
560.262
581.646
605.389
628.282
650.066
671.324
692.158
712.387
731.804
750.159
766.785
781.293
791.819
796.974
796.611
802.934
828.707
856.437
856.437
850.443
845.452
845.501
848.096
850.287
853.555
859.735
867.592
862.876
853.785
839.52
772.722
761.221
725.512
679.733
599.48
550.069
566.417
721.092
772.722
634.375
674.777
776.96
870.763
920.486
959.539
901.796
912.955
886.222
699.382
534.302
445.414
416.156
445.423
577.486
807.577
947.768
982.71
)
;
    }
    atmosphere
    {
        type            totalPressure;
        rho             rho;
        psi             none;
        gamma           1;
        p0              uniform 0;
        value           nonuniform List<scalar> 
46
(
0
0
0
0
0
0
0
0
0
0
0
0
0
0
0
0
0
0
0
0
0
0
0
0
0
0
0
-3.29036e-06
-0.000588073
-0.00221404
-0.00482115
-0.0084241
-0.01291
-0.0181952
-0.0244376
-0.0312541
-0.0383091
-0.0454331
-0.0517647
-0.0594984
-0.0678982
-0.0795912
-0.0965104
-0.0929345
-0.12464
-0.10163
)
;
    }
    defaultFaces
    {
        type            empty;
    }
}


// ************************************************************************* //
