/*--------------------------------*- C++ -*----------------------------------*\
| =========                 |                                                 |
| \\      /  F ield         | OpenFOAM: The Open Source CFD Toolbox           |
|  \\    /   O peration     | Version:  2.3.0                                 |
|   \\  /    A nd           | Web:      www.OpenFOAM.org                      |
|    \\/     M anipulation  |                                                 |
\*---------------------------------------------------------------------------*/
FoamFile
{
    version     2.0;
    format      ascii;
    class       surfaceScalarField;
    location    "0.7";
    object      phi;
}
// * * * * * * * * * * * * * * * * * * * * * * * * * * * * * * * * * * * * * //

dimensions      [0 3 -1 0 0 0 0];

internalField   nonuniform List<scalar> 
4432
(
-3.55358e-06
3.55358e-06
-7.22011e-06
3.66652e-06
-9.63909e-06
2.41898e-06
-1.12921e-05
1.65302e-06
-1.20998e-05
8.07654e-07
-1.13624e-05
-7.37413e-07
-8.90838e-06
-2.45398e-06
-5.80671e-06
-3.10168e-06
-3.39273e-06
-2.41397e-06
-2.1925e-06
-1.20023e-06
-2.08609e-06
-1.06411e-07
-2.87835e-06
7.9226e-07
-4.24129e-06
1.36294e-06
-6.04072e-06
1.79943e-06
-8.34909e-06
2.30838e-06
-1.10942e-05
2.74512e-06
-1.34158e-05
2.3216e-06
-1.5246e-05
1.83019e-06
-1.91736e-05
3.92759e-06
-2.4828e-05
5.65436e-06
-2.45946e-05
-2.33346e-07
-1.47229e-05
-9.87176e-06
-1.47229e-05
-4.57527e-06
8.12885e-06
-7.80438e-06
6.89563e-06
-9.65937e-06
4.27397e-06
-1.12634e-05
3.25701e-06
-1.23463e-05
1.89058e-06
-1.18622e-05
-1.22147e-06
-9.41566e-06
-4.90055e-06
-6.09405e-06
-6.42329e-06
-3.45754e-06
-5.05047e-06
-2.12428e-06
-2.53349e-06
-1.74908e-06
-4.8161e-07
-1.91755e-06
9.6073e-07
-2.46242e-06
1.90781e-06
-3.30496e-06
2.64197e-06
-4.54901e-06
3.55244e-06
-6.65948e-06
4.85557e-06
-1.0219e-05
5.88112e-06
-1.5095e-05
6.70617e-06
-1.97136e-05
8.54623e-06
-2.14203e-05
7.36102e-06
-1.83056e-05
-3.34805e-06
-1.04938e-05
-1.76835e-05
-2.52167e-05
-3.72852e-06
1.18574e-05
-6.35316e-06
9.52027e-06
-8.33173e-06
6.25253e-06
-1.04537e-05
5.379e-06
-1.20545e-05
3.4914e-06
-1.18551e-05
-1.42092e-06
-9.67413e-06
-7.08152e-06
-6.57675e-06
-9.52067e-06
-4.01573e-06
-7.61149e-06
-2.64605e-06
-3.90317e-06
-2.3336e-06
-7.94063e-07
-2.5741e-06
1.20123e-06
-2.99773e-06
2.33144e-06
-3.30669e-06
2.95092e-06
-3.34059e-06
3.58636e-06
-3.32917e-06
4.84413e-06
-4.15281e-06
6.70477e-06
-6.32562e-06
8.87898e-06
-8.55149e-06
1.07721e-05
-9.27632e-06
8.08585e-06
-7.76121e-06
-4.86317e-06
-4.04999e-06
-2.13947e-05
-2.92667e-05
-2.3192e-06
1.41766e-05
-4.21394e-06
1.1415e-05
-6.05068e-06
8.08927e-06
-7.9197e-06
7.24802e-06
-9.07654e-06
4.64824e-06
-8.7786e-06
-1.71886e-06
-7.38688e-06
-8.47324e-06
-5.71568e-06
-1.11919e-05
-4.27085e-06
-9.05633e-06
-3.37487e-06
-4.79915e-06
-3.16274e-06
-1.00619e-06
-3.4811e-06
1.51959e-06
-3.95244e-06
2.80279e-06
-4.23496e-06
3.23343e-06
-4.07226e-06
3.42368e-06
-3.30668e-06
4.07854e-06
-1.9828e-06
5.38089e-06
-5.1332e-07
7.4095e-06
1.18039e-06
9.07838e-06
2.88139e-06
6.38486e-06
2.80752e-06
-4.78931e-06
2.04539e-06
-2.06326e-05
-2.72213e-05
-5.02195e-07
1.46788e-05
-9.94231e-07
1.1907e-05
-2.01159e-06
9.10662e-06
-2.7005e-06
7.93694e-06
-2.37591e-06
4.32365e-06
-1.55293e-06
-2.54184e-06
-1.5456e-06
-8.48057e-06
-2.52295e-06
-1.02145e-05
-3.50576e-06
-8.07352e-06
-3.98325e-06
-4.32166e-06
-4.17436e-06
-8.15078e-07
-4.50349e-06
1.84872e-06
-4.90013e-06
3.19944e-06
-5.08121e-06
3.4145e-06
-4.80707e-06
3.14955e-06
-4.02226e-06
3.29373e-06
-2.43745e-06
3.79608e-06
2.04378e-07
4.76767e-06
4.0892e-06
5.19355e-06
7.7089e-06
2.76516e-06
7.85815e-06
-4.93856e-06
4.93515e-06
-1.77096e-05
-2.22861e-05
1.80099e-06
1.28778e-05
3.12828e-06
1.05797e-05
3.93115e-06
8.30375e-06
5.20478e-06
6.66331e-06
6.9827e-06
2.54573e-06
7.53585e-06
-3.09499e-06
5.61207e-06
-6.55679e-06
2.00457e-06
-6.60703e-06
-1.75263e-06
-4.31632e-06
-4.13253e-06
-1.94176e-06
-5.14629e-06
1.98679e-07
-5.62338e-06
2.3258e-06
-5.93044e-06
3.50651e-06
-5.90302e-06
3.38707e-06
-5.36948e-06
2.61603e-06
-4.44992e-06
2.37416e-06
-3.08748e-06
2.43363e-06
-9.02185e-07
2.58238e-06
2.46341e-06
1.82795e-06
6.19559e-06
-9.67021e-07
7.23615e-06
-5.97912e-06
5.11882e-06
-1.55923e-05
-1.71673e-05
3.49862e-06
9.37914e-06
7.39838e-06
6.67999e-06
1.13207e-05
4.38139e-06
1.51512e-05
2.83287e-06
1.73922e-05
3.04694e-07
1.58938e-05
-1.59654e-06
1.10559e-05
-1.71895e-06
5.19689e-06
-7.48002e-07
-1.46485e-07
1.02706e-06
-3.86283e-06
1.77459e-06
-5.80859e-06
2.14444e-06
-6.73641e-06
3.25362e-06
-7.04956e-06
3.81967e-06
-6.79552e-06
3.13303e-06
-5.89809e-06
1.7186e-06
-4.7098e-06
1.18587e-06
-3.32339e-06
1.04722e-06
-1.55279e-06
8.11783e-07
6.78205e-07
-4.03053e-07
3.28001e-06
-3.56883e-06
4.58668e-06
-7.28579e-06
4.03653e-06
-1.50422e-05
-1.31308e-05
6.57509e-06
2.80405e-06
1.40406e-05
-7.85493e-07
1.91902e-05
-7.68242e-07
2.17519e-05
2.7115e-07
2.08187e-05
1.23791e-06
1.61279e-05
3.09424e-06
9.7343e-06
4.67466e-06
3.9499e-06
5.0364e-06
-4.2052e-07
5.39748e-06
-3.5131e-06
4.86718e-06
-5.63169e-06
4.26303e-06
-7.14522e-06
4.76714e-06
-7.91057e-06
4.58503e-06
-7.78267e-06
3.00513e-06
-6.63544e-06
5.7137e-07
-5.14414e-06
-3.05433e-07
-3.57485e-06
-5.22069e-07
-1.83527e-06
-9.27802e-07
-6.03705e-08
-2.17795e-06
1.56429e-06
-5.19349e-06
2.58178e-06
-8.30328e-06
2.80755e-06
-1.52679e-05
-1.03232e-05
-2.81221e-05
2.81221e-05
-5.07876e-05
2.26655e-05
-4.68959e-05
-3.89166e-06
-3.34383e-05
-1.34576e-05
-2.14325e-05
-1.20058e-05
-1.06853e-05
-1.07472e-05
1.45302e-05
-2.52155e-05
2.28609e-05
-8.33066e-06
-6.23138e-06
2.90923e-05
-6.23468e-05
5.61154e-05
-0.000110368
4.80215e-05
-0.000129678
1.93092e-05
-0.000128371
-1.30694e-06
-0.000118856
-9.5148e-06
-0.000105241
-1.36145e-05
-8.4704e-05
-2.05374e-05
-4.80144e-05
-3.66896e-05
-4.75355e-07
-4.7539e-05
-4.75352e-07
-3.34813e-05
6.16034e-05
-4.19076e-05
3.10918e-05
-3.13951e-05
-1.44041e-05
-1.87414e-05
-2.61113e-05
-8.0839e-06
-2.26633e-05
2.32733e-06
-2.11584e-05
1.92768e-05
-4.21649e-05
-1.66304e-06
1.26091e-05
-6.77601e-05
9.51894e-05
-0.00012908
0.000117435
-0.00015471
7.36516e-05
-0.000154996
1.9595e-05
-0.000148572
-7.73081e-06
-0.000138918
-1.91684e-05
-0.000124767
-2.77654e-05
-0.000104531
-4.07736e-05
-7.05724e-05
-7.06482e-05
-2.3039e-05
-9.50724e-05
-2.35144e-05
-2.33798e-05
8.49831e-05
-2.32816e-05
3.09936e-05
-1.29123e-05
-2.47735e-05
-1.11828e-06
-3.79053e-05
5.30278e-06
-2.90844e-05
5.62977e-06
-2.14854e-05
-2.66207e-06
-3.38731e-05
-5.23733e-05
6.23204e-05
-0.000118324
0.00016114
-0.000163116
0.000162227
-0.000185668
9.62034e-05
-0.000190992
2.49198e-05
-0.000185568
-1.31548e-05
-0.000172276
-3.24606e-05
-0.000153324
-4.67178e-05
-0.000128171
-6.59267e-05
-9.07518e-05
-0.000108067
-3.94521e-05
-0.000146372
-6.29665e-05
-9.19571e-06
9.41788e-05
9.0055e-07
2.08974e-05
6.72715e-06
-3.06e-05
1.56454e-05
-4.68236e-05
1.70576e-05
-3.04965e-05
5.3056e-06
-9.73343e-06
-2.35946e-05
-4.97293e-06
-8.17381e-05
0.000120464
-0.000141275
0.000220677
-0.000164838
0.00018579
-0.000184186
0.000115552
-0.000200033
4.07668e-05
-0.000193004
-2.0184e-05
-0.00017623
-4.92348e-05
-0.00016283
-6.01177e-05
-0.000146853
-8.19038e-05
-0.000107755
-0.000147165
-4.66477e-05
-0.000207479
-0.000109614
3.69501e-06
9.04838e-05
1.61343e-05
8.45802e-06
2.54481e-05
-3.99138e-05
3.17714e-05
-5.31468e-05
2.71974e-05
-2.59226e-05
4.67671e-06
1.27873e-05
-3.72554e-05
3.69592e-05
-9.58462e-05
0.000179055
-0.000140892
0.000265723
-0.000156781
0.000201679
-0.000175288
0.000134059
-0.000171664
3.71424e-05
-0.000148183
-4.36646e-05
-0.000121755
-7.56634e-05
-0.000100684
-8.11887e-05
-0.000114335
-6.82531e-05
-0.000112421
-0.000149079
-4.53393e-05
-0.000274561
-0.000154954
2.18517e-05
6.86321e-05
3.13084e-05
-9.98708e-07
4.1499e-05
-5.01044e-05
4.64034e-05
-5.80512e-05
3.6783e-05
-1.63021e-05
6.30228e-06
4.3268e-05
-4.00316e-05
8.32931e-05
-9.3716e-05
0.000232739
-0.000128327
0.000300334
-0.000136707
0.000210059
-0.000146041
0.000143392
-0.000121511
1.26127e-05
-8.24667e-05
-8.27086e-05
-3.33967e-05
-0.000124734
1.14825e-05
-0.000126068
-7.00657e-06
-4.97636e-05
-7.08029e-05
-8.52829e-05
-3.87558e-05
-0.000306608
-0.000193709
3.15552e-05
3.7077e-05
4.37607e-05
-1.32043e-05
5.40483e-05
-6.0392e-05
5.7763e-05
-6.17659e-05
4.47458e-05
-3.28499e-06
1.0112e-05
7.79018e-05
-3.3062e-05
0.000126467
-7.10321e-05
0.000270709
-9.50848e-05
0.000324387
-0.000112589
0.000227563
-0.000110979
0.000141782
-8.14672e-05
-1.68993e-05
-4.05278e-05
-0.000123648
1.04831e-05
-0.000175744
7.91247e-05
-0.00019471
0.000116645
-8.72841e-05
1.54236e-05
1.59384e-05
-2.9404e-05
-0.00026178
-0.000223113
2.99696e-05
7.10738e-06
4.9395e-05
-3.26296e-05
5.85218e-05
-6.95189e-05
6.00017e-05
-6.32457e-05
4.36494e-05
1.30673e-05
1.2977e-05
0.000108574
-2.3278e-05
0.000162722
-3.61272e-05
0.000283558
-5.95417e-05
0.000347801
-8.35532e-05
0.000251575
-8.24401e-05
0.000140669
-4.98951e-05
-4.94443e-05
-7.15408e-06
-0.000166389
3.37393e-05
-0.000216638
6.92716e-05
-0.000230242
0.000131201
-0.000149213
0.000109752
3.73872e-05
-1.73474e-05
-0.000134681
-0.000240461
3.57421e-06
-7.70164e-07
-1.93052e-06
4.71924e-06
-7.78254e-06
5.08378e-06
-1.06648e-05
3.15342e-06
-1.1554e-05
2.1271e-06
-1.23786e-05
3.91881e-06
-1.33106e-05
5.60673e-06
-1.36554e-05
5.38113e-06
-1.29902e-05
4.73229e-06
-1.22658e-05
4.14278e-06
-1.2664e-05
4.66125e-06
-1.44098e-05
6.51298e-06
-1.62697e-05
6.44489e-06
-1.61203e-05
2.85574e-06
-1.31314e-05
-2.4175e-06
-1.00326e-05
-3.40426e-06
-7.47308e-06
-3.08159e-06
-4.63895e-06
-3.76193e-06
-1.44339e-06
-5.37352e-06
1.44989e-06
-8.08677e-06
4.57879e-06
-1.14322e-05
6.59653e-06
-1.72857e-05
-1.74909e-05
1.37642e-05
-0.000114164
0.000113394
-0.000122414
1.29693e-05
-0.000101292
-1.6039e-05
-8.69904e-05
-1.11479e-05
-8.06598e-05
-4.20347e-06
-7.82757e-05
1.53473e-06
-7.64508e-05
3.78175e-06
-7.02508e-05
-8.18855e-07
-5.90281e-05
-6.49036e-06
-4.53635e-05
-9.52185e-06
-3.21294e-05
-8.57279e-06
-2.32709e-05
-2.34556e-06
-1.66157e-05
-2.10267e-07
-1.03972e-05
-3.36285e-06
-6.30699e-06
-6.50767e-06
-4.57876e-06
-5.13248e-06
-3.22239e-06
-4.43796e-06
-1.77705e-07
-6.80662e-06
2.8218e-06
-8.37303e-06
3.55551e-06
-8.82048e-06
4.99497e-06
-1.28716e-05
8.16701e-06
-2.04577e-05
-2.35833e-05
1.42594e-05
-6.62929e-05
0.000179687
-0.000119157
6.58337e-05
-0.000164272
2.9076e-05
-0.000204976
2.95559e-05
-0.000233484
2.43041e-05
-0.000248123
1.61735e-05
-0.000249795
5.45432e-06
-0.000239555
-1.10596e-05
-0.000211734
-3.4311e-05
-0.000174043
-4.72133e-05
-0.000119884
-6.27308e-05
-8.59055e-05
-3.63245e-05
-7.27883e-05
-1.33276e-05
-6.67132e-05
-9.43786e-06
-5.59558e-05
-1.72651e-05
-4.06422e-05
-2.0446e-05
-2.93804e-05
-1.56998e-05
-1.79041e-05
-1.82829e-05
-1.11854e-05
-1.50918e-05
-7.78209e-06
-1.22237e-05
-6.47446e-06
-1.41793e-05
-3.46337e-06
-2.34688e-05
-2.23931e-05
-4.65354e-06
-3.12149e-05
0.000210902
-7.72443e-05
0.000111863
-0.000120311
7.21424e-05
-0.000145685
5.49299e-05
-0.000158228
3.68474e-05
-0.00016456
2.25048e-05
-0.000170488
1.1383e-05
-0.000188108
6.56011e-06
-0.000226812
4.39254e-06
-0.000268298
-5.72669e-06
-0.000316599
-1.44302e-05
-0.000352957
3.33815e-08
-0.000375986
9.7016e-06
-0.000379677
-5.74653e-06
-0.000359948
-3.69942e-05
-0.000317389
-6.30047e-05
-0.000256689
-7.64005e-05
-0.000207221
-6.77503e-05
-0.000168212
-5.41014e-05
-0.000139591
-4.08446e-05
-0.000122646
-3.11242e-05
-0.000118093
-2.80214e-05
-4.88407e-05
-9.16458e-05
1.34419e-05
0.00019746
-1.96117e-05
0.000144917
-4.10305e-05
9.35613e-05
-4.8628e-05
6.25273e-05
-5.15351e-05
3.97546e-05
-5.21167e-05
2.30864e-05
-4.95394e-05
8.80578e-06
-5.42506e-05
1.12712e-05
-7.71385e-05
2.72804e-05
-0.000120022
3.71566e-05
-0.000170586
3.61337e-05
-0.000210888
4.03357e-05
-0.000239845
3.86585e-05
-0.000268406
2.28141e-05
-0.000305721
3.20916e-07
-0.000318104
-5.06213e-05
-0.000304418
-9.00865e-05
-0.00028605
-8.61188e-05
-0.000276006
-6.41447e-05
-0.000288691
-2.81605e-05
-0.000311393
-8.4218e-06
-0.000332829
-6.58558e-06
-5.14407e-05
-0.000330229
4.03178e-05
0.000157142
2.88155e-05
0.000156419
1.66468e-05
0.00010573
1.24127e-05
6.67614e-05
5.79485e-06
4.63725e-05
-8.7232e-06
3.76045e-05
-2.62148e-05
2.62974e-05
-3.92815e-05
2.43379e-05
-4.71898e-05
3.51887e-05
-6.00483e-05
5.0015e-05
-8.326e-05
5.93452e-05
-0.000110084
6.71601e-05
-0.000147718
7.62923e-05
-0.000206953
8.20488e-05
-0.000270395
6.37634e-05
-0.00032064
-3.7657e-07
-0.000329792
-8.09346e-05
-0.000332371
-8.35402e-05
-0.00032431
-7.22057e-05
-0.000306457
-4.60127e-05
-0.000275451
-3.94286e-05
-0.00023838
-4.36559e-05
-5.70907e-05
-0.00023273
3.22484e-05
0.000124893
4.63078e-05
0.00014236
4.34471e-05
0.000108591
3.52126e-05
7.49959e-05
2.38311e-05
5.77541e-05
8.70458e-06
5.27311e-05
-1.09705e-05
4.59724e-05
-3.09019e-05
4.42693e-05
-4.38635e-05
4.81502e-05
-5.1106e-05
5.72576e-05
-6.03067e-05
6.85459e-05
-7.05358e-05
7.73891e-05
-7.96886e-05
8.54451e-05
-9.18356e-05
9.41959e-05
-0.000107161
7.90884e-05
-0.000130312
2.27749e-05
-0.000177469
-3.37778e-05
-0.000220661
-4.03482e-05
-0.000247758
-4.51083e-05
-0.000238262
-5.55092e-05
-0.000200161
-7.75299e-05
-0.000174189
-6.96271e-05
-5.85242e-05
-0.000172756
1.33312e-05
0.000111562
3.61023e-05
0.000119589
4.12087e-05
0.000103485
3.37379e-05
8.24669e-05
2.13673e-05
7.01248e-05
8.01562e-06
6.60828e-05
-8.4135e-06
6.24015e-05
-2.57196e-05
6.15754e-05
-3.91994e-05
6.163e-05
-4.7588e-05
6.56462e-05
-5.33274e-05
7.42853e-05
-5.75237e-05
8.15855e-05
-5.70856e-05
8.50071e-05
-5.16337e-05
8.87439e-05
-5.63953e-05
8.385e-05
-9.32424e-05
5.96219e-05
-0.00016435
3.73296e-05
-0.000233373
2.86751e-05
-0.000274773
-3.70875e-06
-0.000278197
-5.20848e-05
-0.000253987
-0.00010174
-0.000210251
-0.000113363
-9.57568e-05
-0.000173019
2.69315e-06
0.000108869
2.0448e-05
0.000101834
2.66735e-05
9.72593e-05
2.21263e-05
8.70143e-05
1.27264e-05
7.95248e-05
2.66175e-06
7.61474e-05
-9.30193e-06
7.43651e-05
-2.15615e-05
7.38349e-05
-3.27353e-05
7.28037e-05
-4.11728e-05
7.40837e-05
-4.60113e-05
7.91238e-05
-4.88532e-05
8.44274e-05
-5.05056e-05
8.66594e-05
-4.99201e-05
8.81584e-05
-5.35184e-05
8.74482e-05
-7.44481e-05
8.05516e-05
-0.000113958
7.68389e-05
-0.000159599
7.43162e-05
-0.000212759
4.94515e-05
-0.000262997
-1.84649e-06
-0.000291774
-7.29628e-05
-0.000282689
-0.000122448
-0.000134251
-0.000244195
4.31961e-07
0.000108437
1.00588e-05
9.22072e-05
1.38604e-05
9.34577e-05
1.14288e-05
8.94461e-05
5.65658e-06
8.5297e-05
-9.29356e-07
8.27334e-05
-8.62099e-06
8.20568e-05
-1.68444e-05
8.20583e-05
-2.56274e-05
8.15868e-05
-3.35423e-05
8.19985e-05
-3.87197e-05
8.43012e-05
-4.18855e-05
8.75932e-05
-4.55187e-05
9.02927e-05
-5.01038e-05
9.27433e-05
-5.70601e-05
9.44046e-05
-7.10427e-05
9.45341e-05
-9.25942e-05
9.83903e-05
-0.000122858
0.00010458
-0.000168356
9.49491e-05
-0.000217759
4.75568e-05
-0.000257723
-3.29988e-05
-0.000277106
-0.000103066
-0.000150607
-0.000260751
3.69665e-07
0.000108068
4.74443e-06
8.78326e-05
6.52483e-06
9.16774e-05
5.23488e-06
9.07361e-05
1.98144e-06
8.85504e-05
-2.13288e-06
8.68477e-05
-6.93224e-06
8.68562e-05
-1.23894e-05
8.75155e-05
-1.88155e-05
8.80129e-05
-2.54157e-05
8.85987e-05
-3.09164e-05
8.98018e-05
-3.53838e-05
9.20605e-05
-4.04924e-05
9.54012e-05
-4.73439e-05
9.95947e-05
-5.64813e-05
0.000103542
-6.88182e-05
0.000106871
-8.45119e-05
0.000114084
-0.000108068
0.000128137
-0.000148621
0.000135502
-0.000202683
0.000101619
-0.000250882
1.51998e-05
-0.000274672
-7.92756e-05
-0.000157988
-0.000267291
1.72285e-07
0.000107895
2.13669e-06
8.58681e-05
3.05564e-06
9.07584e-05
2.35679e-06
9.14349e-05
4.623e-07
9.04449e-05
-2.20921e-06
8.95192e-05
-5.31318e-06
8.99602e-05
-8.88489e-06
9.10872e-05
-1.32103e-05
9.23384e-05
-1.81367e-05
9.35252e-05
-2.3289e-05
9.49541e-05
-2.86151e-05
9.73866e-05
-3.47058e-05
0.000101492
-4.22591e-05
0.000107148
-5.1876e-05
0.000113159
-6.40399e-05
0.000119035
-7.88287e-05
0.000128873
-9.98827e-05
0.000149191
-0.000137583
0.000173203
-0.000197355
0.000161391
-0.000260243
7.80878e-05
-0.000302159
-3.736e-05
-0.000131571
-0.000328575
-6.90165e-08
0.000107964
8.99148e-07
8.49e-05
1.50474e-06
9.01528e-05
1.12275e-06
9.18168e-05
-4.41804e-08
9.16119e-05
-1.84201e-06
9.13171e-05
-3.92099e-06
9.20392e-05
-6.26217e-06
9.34285e-05
-9.10015e-06
9.51764e-05
-1.26298e-05
9.70548e-05
-1.69621e-05
9.92863e-05
-2.21059e-05
0.00010253
-2.80999e-05
0.000107486
-3.51962e-05
0.000114244
-4.40745e-05
0.000122037
-5.5564e-05
0.000130524
-6.95197e-05
0.000142828
-8.63817e-05
0.000166053
-0.000113538
0.000200359
-0.000163337
0.00021119
-0.000221061
0.000135812
-0.000277702
1.92813e-05
-5.901e-05
-0.000350263
-1.02476e-07
0.000108067
4.59302e-07
8.43382e-05
9.1402e-07
8.96981e-05
7.0805e-07
9.20229e-05
-1.14157e-08
9.23315e-05
-1.19568e-06
9.25015e-05
-2.60055e-06
9.34442e-05
-4.17519e-06
9.50032e-05
-6.07381e-06
9.70751e-05
-8.55734e-06
9.95383e-05
-1.18475e-05
0.000102577
-1.5987e-05
0.00010667
-2.08583e-05
0.000112357
-2.64932e-05
0.000119879
-3.34707e-05
0.000129015
-4.2726e-05
0.00013978
-5.40941e-05
0.000154196
-6.55632e-05
0.000177522
-7.97831e-05
0.000214579
-0.000113073
0.000244479
-0.00016566
0.000188399
-0.000215952
6.95731e-05
5.76851e-06
-0.000280731
3.75081e-08
0.000108029
4.34445e-07
8.39413e-05
8.29749e-07
8.93029e-05
7.92118e-07
9.20607e-05
4.31672e-07
9.2692e-05
-2.72143e-07
9.32054e-05
-1.16766e-06
9.43398e-05
-2.1964e-06
9.60319e-05
-3.4274e-06
9.8306e-05
-5.04369e-06
0.000101155
-7.20907e-06
0.000104742
-9.93709e-06
0.000109397
-1.30851e-05
0.000115505
-1.65791e-05
0.000123373
-2.07379e-05
0.000133174
-2.62048e-05
0.000145247
-3.28605e-05
0.000160852
-3.82928e-05
0.000182954
-4.00747e-05
0.000216361
-5.09703e-05
0.000255375
-0.000102291
0.00023972
-0.000166748
0.000134029
6.37076e-05
-0.000224687
3.01803e-07
0.000107728
6.38415e-07
8.36048e-05
1.06294e-06
8.88785e-05
1.22457e-06
9.18992e-05
1.18651e-06
9.27302e-05
9.15925e-07
9.3476e-05
4.9696e-07
9.47587e-05
-3.59152e-08
9.65649e-05
-6.63533e-07
9.89335e-05
-1.46453e-06
0.000101956
-2.5004e-06
0.000105778
-3.7246e-06
0.000110622
-4.96957e-06
0.00011675
-6.0898e-06
0.000124493
-7.06027e-06
0.000134144
-8.00063e-06
0.000146187
-8.50908e-06
0.00016136
-6.59586e-06
0.000181041
1.87074e-06
0.000207895
1.38999e-05
0.000243346
-8.70133e-06
0.000262322
-7.57885e-05
0.000201116
0.000119532
-0.000131613
5.79977e-07
0.000107148
9.63349e-07
8.32215e-05
1.48602e-06
8.83559e-05
1.86499e-06
9.15203e-05
2.14091e-06
9.24543e-05
2.27898e-06
9.33379e-05
2.33077e-06
9.47069e-05
2.34363e-06
9.65521e-05
2.34268e-06
9.89345e-05
2.35708e-06
0.000101941
2.42809e-06
0.000105707
2.64114e-06
0.000110408
3.15677e-06
0.000116234
4.26417e-06
0.000123386
6.21031e-06
0.000132198
9.37889e-06
0.000143018
1.44578e-05
0.000156281
2.31233e-05
0.000172375
3.86313e-05
0.000192387
6.38137e-05
0.000218163
8.37329e-05
0.000242402
5.15058e-05
0.000233344
0.000173838
-2.79994e-06
8.46706e-07
0.000106301
1.34077e-06
8.27274e-05
2.01573e-06
8.7681e-05
2.6323e-06
9.09037e-05
3.21227e-06
9.18743e-05
3.73756e-06
9.28127e-05
4.2546e-06
9.41899e-05
4.8025e-06
9.60042e-05
5.44105e-06
9.8296e-05
6.22287e-06
0.00010116
7.24511e-06
0.000104684
8.66358e-06
0.00010899
1.06873e-05
0.00011421
1.35903e-05
0.000120483
1.77952e-05
0.000127993
2.387e-05
0.000136943
3.273e-05
0.000147421
4.5818e-05
0.000159287
6.57327e-05
0.000172472
9.6003e-05
0.000187893
0.000134619
0.000203786
0.000157297
0.000210666
0.000185869
0.000145265
1.08549e-06
0.000105216
1.72245e-06
8.20905e-05
2.58071e-06
8.68228e-05
3.43837e-06
9.0046e-05
4.30906e-06
9.10036e-05
5.19809e-06
9.19237e-05
6.14612e-06
9.32419e-05
7.1971e-06
9.49531e-05
8.41527e-06
9.70781e-05
9.8973e-06
9.96776e-05
1.17622e-05
0.000102819
1.41685e-05
0.000106584
1.7334e-05
0.000111045
2.1557e-05
0.00011626
2.72497e-05
0.0001223
3.50211e-05
0.000129172
4.56782e-05
0.000136764
6.02742e-05
0.000144691
8.04628e-05
0.000152283
0.000108982
0.000159374
0.00014785
0.000164917
0.000190816
0.000167701
0.000154771
0.000221914
1.29911e-06
0.000103916
2.08686e-06
8.13028e-05
3.13813e-06
8.57715e-05
4.22913e-06
8.8955e-05
5.3689e-06
8.98639e-05
6.57846e-06
9.07141e-05
7.89884e-06
9.19217e-05
9.38982e-06
9.34621e-05
1.11226e-05
9.53455e-05
1.31918e-05
9.76082e-05
1.5714e-05
0.000100297
1.8857e-05
0.00010344
2.28338e-05
0.000107068
2.79146e-05
0.000111179
3.44623e-05
0.000115753
4.29479e-05
0.000120686
5.39733e-05
0.000125739
6.81897e-05
0.000130475
8.63404e-05
0.000134133
0.000109754
0.00013596
0.000139957
0.000134715
0.000176785
0.000130873
0.000119611
0.000211944
1.48863e-06
0.000102428
2.42218e-06
8.03695e-05
3.65905e-06
8.45348e-05
4.96691e-06
8.76472e-05
6.34843e-06
8.84825e-05
7.83431e-06
8.92283e-05
9.47328e-06
9.02828e-05
1.13236e-05
9.16119e-05
1.34588e-05
9.32103e-05
1.5973e-05
9.50938e-05
1.89867e-05
9.72832e-05
2.26454e-05
9.97818e-05
2.71344e-05
0.000102579
3.26836e-05
0.00010563
3.95791e-05
0.000108857
4.8161e-05
0.000112105
5.88019e-05
0.000115098
7.18586e-05
0.000117418
8.7552e-05
0.00011844
0.000106099
0.000117414
0.000127604
0.00011321
0.000152666
0.000105811
9.39314e-05
0.000178346
1.65301e-06
0.000100775
2.72e-06
7.93028e-05
4.12314e-06
8.31317e-05
5.62226e-06
8.61481e-05
7.21225e-06
8.68925e-05
8.9305e-06
8.75101e-05
1.08241e-05
8.83889e-05
1.29553e-05
8.94807e-05
1.53929e-05
9.07726e-05
1.82274e-05
9.22591e-05
2.15652e-05
9.39455e-05
2.55343e-05
9.58124e-05
3.02906e-05
9.78226e-05
3.60152e-05
9.99053e-05
4.29191e-05
0.000101954
5.12247e-05
0.000103799
6.1148e-05
0.000105174
7.28495e-05
0.000105717
8.63429e-05
0.000104946
0.000101446
0.000102311
0.000117575
9.70805e-05
0.000134555
8.8831e-05
7.71309e-05
0.000151355
1.79229e-06
9.89827e-05
2.9757e-06
7.81195e-05
4.52034e-06
8.15871e-05
6.17956e-06
8.44888e-05
7.93999e-06
8.5132e-05
9.84127e-06
8.5609e-05
1.1932e-05
8.62981e-05
1.42675e-05
8.71453e-05
1.69164e-05
8.81234e-05
1.99566e-05
8.92189e-05
2.34815e-05
9.04207e-05
2.75993e-05
9.16945e-05
3.24341e-05
9.29879e-05
3.81206e-05
9.42187e-05
4.48052e-05
9.52688e-05
5.26274e-05
9.59764e-05
6.16966e-05
9.6105e-05
7.20549e-05
9.53584e-05
8.36391e-05
9.33618e-05
9.6226e-05
8.97238e-05
0.000109257
8.4049e-05
0.000122132
7.59562e-05
6.50716e-05
0.000134192
1.90747e-06
9.70754e-05
3.18809e-06
7.68389e-05
4.84486e-06
7.99303e-05
6.6293e-06
8.27044e-05
8.52157e-06
8.32397e-05
1.05585e-05
8.3572e-05
1.27885e-05
8.40681e-05
1.52619e-05
8.46718e-05
1.80405e-05
8.53448e-05
2.11915e-05
8.6068e-05
2.47943e-05
8.6818e-05
2.89356e-05
8.75531e-05
3.37089e-05
8.82144e-05
3.92109e-05
8.87166e-05
4.55368e-05
8.89428e-05
5.27666e-05
8.87465e-05
6.09433e-05
8.79284e-05
7.00491e-05
8.62525e-05
7.99778e-05
8.34331e-05
9.05214e-05
7.91801e-05
0.000101305
7.32658e-05
0.000111787
6.54741e-05
5.54622e-05
0.000121396
1.99913e-06
9.50764e-05
3.35629e-06
7.54818e-05
5.09471e-06
7.81918e-05
6.96983e-06
8.08292e-05
8.95467e-06
8.1255e-05
1.10827e-05
8.14439e-05
1.33992e-05
8.17518e-05
1.59502e-05
8.21207e-05
1.87892e-05
8.25058e-05
2.19731e-05
8.28841e-05
2.55661e-05
8.32247e-05
2.96353e-05
8.34841e-05
3.42492e-05
8.36005e-05
3.94732e-05
8.34925e-05
4.53644e-05
8.30516e-05
5.19618e-05
8.21491e-05
5.92685e-05
8.06217e-05
6.72359e-05
7.82849e-05
7.57429e-05
7.49259e-05
8.45929e-05
7.03301e-05
9.35129e-05
6.43457e-05
0.000102123
5.68638e-05
4.76144e-05
0.000109971
2.06915e-06
9.30072e-05
3.48087e-06
7.40701e-05
5.27153e-06
7.64011e-05
7.20283e-06
7.88978e-05
9.24265e-06
7.92153e-05
1.14202e-05
7.92663e-05
1.37769e-05
7.93952e-05
1.63525e-05
7.9545e-05
1.91941e-05
7.96642e-05
2.23475e-05
7.97309e-05
2.58623e-05
7.97098e-05
2.97901e-05
7.95564e-05
3.4179e-05
7.92116e-05
3.90708e-05
7.86007e-05
4.44945e-05
7.76277e-05
5.04614e-05
7.61822e-05
5.69513e-05
7.41318e-05
6.39007e-05
7.13353e-05
7.11917e-05
6.76348e-05
7.86479e-05
6.28738e-05
8.60497e-05
5.69439e-05
9.31234e-05
4.97901e-05
4.12171e-05
9.95207e-05
2.12116e-06
9.08861e-05
3.56298e-06
7.26282e-05
5.37646e-06
7.45876e-05
7.33246e-06
7.6942e-05
9.39278e-06
7.7155e-05
1.15826e-05
7.70766e-05
1.3937e-05
7.70409e-05
1.64939e-05
7.69881e-05
1.92889e-05
7.68693e-05
2.23607e-05
7.66589e-05
2.57481e-05
7.63223e-05
2.94874e-05
7.58172e-05
3.361e-05
7.50888e-05
3.81407e-05
7.40697e-05
4.30902e-05
7.26781e-05
4.84513e-05
7.0821e-05
5.41904e-05
6.83926e-05
6.02411e-05
6.52845e-05
6.64941e-05
6.13817e-05
7.27976e-05
5.65702e-05
7.89707e-05
5.07708e-05
8.48048e-05
4.39558e-05
3.59948e-05
9.0027e-05
2.16032e-06
8.87258e-05
3.60338e-06
7.11851e-05
5.41303e-06
7.2778e-05
7.36301e-06
7.49923e-05
9.41384e-06
7.51043e-05
1.1582e-05
7.49088e-05
1.39e-05
7.47227e-05
1.64002e-05
7.44881e-05
1.9111e-05
7.41585e-05
2.20633e-05
7.37064e-05
2.52854e-05
7.31e-05
2.88034e-05
7.22992e-05
3.26366e-05
7.12552e-05
3.67958e-05
6.99102e-05
4.12803e-05
6.81936e-05
4.60723e-05
6.60289e-05
5.11311e-05
6.33337e-05
5.63917e-05
6.00238e-05
6.17564e-05
5.60169e-05
6.70952e-05
5.12314e-05
7.22582e-05
4.56078e-05
7.70829e-05
3.9131e-05
3.17203e-05
8.13573e-05
2.1936e-06
8.65321e-05
3.6045e-06
6.97741e-05
5.38397e-06
7.09985e-05
7.30208e-06
7.30743e-05
9.31624e-06
7.30903e-05
1.14344e-05
7.27908e-05
1.36873e-05
7.24699e-05
1.61005e-05
7.20749e-05
1.86971e-05
7.15617e-05
2.15013e-05
7.09021e-05
2.45333e-05
7.00679e-05
2.78102e-05
6.90222e-05
3.13421e-05
6.77231e-05
3.51322e-05
6.61198e-05
3.91712e-05
6.41545e-05
4.34351e-05
6.17649e-05
4.78815e-05
5.88872e-05
5.24488e-05
5.54565e-05
5.70508e-05
5.14149e-05
6.15771e-05
4.67051e-05
6.59024e-05
4.12825e-05
6.98961e-05
3.51373e-05
2.82235e-05
7.33929e-05
2.22704e-06
8.4305e-05
3.57299e-06
6.8428e-05
5.29486e-06
6.92765e-05
7.15876e-06
7.12103e-05
9.11351e-06
7.11356e-05
1.11577e-05
7.07465e-05
1.33213e-05
7.03064e-05
1.56242e-05
6.97721e-05
1.80851e-05
6.91009e-05
2.07215e-05
6.82656e-05
2.35488e-05
6.72406e-05
2.65752e-05
6.59955e-05
2.98065e-05
6.44916e-05
3.32389e-05
6.26873e-05
3.68581e-05
6.05352e-05
4.06373e-05
5.79856e-05
4.45359e-05
5.49886e-05
4.84962e-05
5.14961e-05
5.24443e-05
4.74668e-05
5.62865e-05
4.28628e-05
5.99163e-05
3.76527e-05
6.32261e-05
3.18274e-05
2.53647e-05
6.60851e-05
2.26062e-06
8.20443e-05
3.51867e-06
6.71698e-05
5.15449e-06
6.76407e-05
6.9449e-06
6.94198e-05
8.8188e-06
6.92618e-05
1.077e-05
6.87953e-05
1.28257e-05
6.8251e-05
1.50009e-05
6.75969e-05
1.73115e-05
6.67903e-05
1.977e-05
6.58071e-05
2.23854e-05
6.4625e-05
2.51629e-05
6.32177e-05
2.8102e-05
6.15524e-05
3.11952e-05
5.9594e-05
3.44261e-05
5.73043e-05
3.77675e-05
5.46441e-05
4.11804e-05
5.15756e-05
4.46145e-05
4.8062e-05
4.80058e-05
4.40754e-05
5.12762e-05
3.95923e-05
5.43367e-05
3.45922e-05
5.70968e-05
2.90674e-05
2.30086e-05
5.94531e-05
2.28852e-06
7.97558e-05
3.44755e-06
6.60106e-05
4.97225e-06
6.61161e-05
6.67068e-06
6.77215e-05
8.44592e-06
6.74866e-05
1.0288e-05
6.69535e-05
1.22203e-05
6.63187e-05
1.42558e-05
6.55612e-05
1.64069e-05
6.46393e-05
1.86824e-05
6.35316e-05
2.1087e-05
6.22203e-05
2.3622e-05
6.06826e-05
2.62836e-05
5.88908e-05
2.90618e-05
5.68157e-05
3.19392e-05
5.44268e-05
3.48895e-05
5.16938e-05
3.78778e-05
4.85871e-05
4.086e-05
4.50797e-05
4.37832e-05
4.11521e-05
4.65843e-05
3.67912e-05
4.91913e-05
3.19853e-05
5.15295e-05
2.67293e-05
2.10204e-05
5.35179e-05
2.30598e-06
7.74496e-05
3.3579e-06
6.49587e-05
4.75205e-06
6.47219e-05
6.34108e-06
6.61324e-05
8.0022e-06
6.58253e-05
9.72023e-06
6.52356e-05
1.15166e-05
6.45221e-05
1.34022e-05
6.36755e-05
1.53872e-05
6.26544e-05
1.74771e-05
6.14417e-05
1.96725e-05
6.00249e-05
2.1973e-05
5.8382e-05
2.43717e-05
5.64921e-05
2.68573e-05
5.433e-05
2.94128e-05
5.1871e-05
3.20143e-05
4.90921e-05
3.46313e-05
4.597e-05
3.72264e-05
4.24846e-05
3.97569e-05
3.86216e-05
4.2175e-05
3.43732e-05
4.44251e-05
2.97353e-05
4.64484e-05
2.47062e-05
1.92855e-05
4.81835e-05
2.31264e-06
7.51369e-05
3.246e-06
6.40255e-05
4.49265e-06
6.34752e-05
5.95608e-06
6.46689e-05
7.4879e-06
6.42935e-05
9.06701e-06
6.36566e-05
1.07146e-05
6.28744e-05
1.24397e-05
6.19505e-05
1.42505e-05
6.08437e-05
1.61485e-05
5.95436e-05
1.81334e-05
5.80399e-05
2.02015e-05
5.6314e-05
2.23451e-05
5.43485e-05
2.45527e-05
5.21221e-05
2.6808e-05
4.96156e-05
2.90899e-05
4.681e-05
3.13725e-05
4.36873e-05
3.36256e-05
4.02316e-05
3.58158e-05
3.64315e-05
3.79077e-05
3.22813e-05
3.98609e-05
2.77822e-05
4.163e-05
2.29372e-05
1.7747e-05
4.31687e-05
2.30729e-06
7.28297e-05
3.11186e-06
6.32209e-05
4.19323e-06
6.23939e-05
5.51473e-06
6.33474e-05
6.89956e-06
6.29088e-05
8.32388e-06
6.22323e-05
9.80864e-06
6.13896e-05
1.136e-05
6.03992e-05
1.29838e-05
5.92199e-05
1.46791e-05
5.78482e-05
1.64446e-05
5.62742e-05
1.82749e-05
5.44837e-05
2.01619e-05
5.24614e-05
2.2094e-05
5.01898e-05
2.40566e-05
4.76529e-05
2.60314e-05
4.48352e-05
2.79966e-05
4.17221e-05
2.9928e-05
3.83003e-05
3.18005e-05
3.4559e-05
3.35869e-05
3.04951e-05
3.52573e-05
2.6112e-05
3.67764e-05
2.14184e-05
1.64177e-05
3.81058e-05
2.28132e-06
7.05485e-05
2.95618e-06
6.2546e-05
3.85613e-06
6.1494e-05
5.01801e-06
6.21856e-05
6.23641e-06
6.16906e-05
7.49012e-06
6.09786e-05
8.79654e-06
6.00833e-05
1.01592e-05
5.90365e-05
1.15813e-05
5.77977e-05
1.30597e-05
5.63697e-05
1.45923e-05
5.47417e-05
1.61741e-05
5.29019e-05
1.77967e-05
5.08387e-05
1.94484e-05
4.85379e-05
2.11163e-05
4.59849e-05
2.27846e-05
4.31668e-05
2.44355e-05
4.00713e-05
2.6049e-05
3.66869e-05
2.76056e-05
3.30024e-05
2.9082e-05
2.90189e-05
3.04547e-05
2.47394e-05
3.16943e-05
2.01788e-05
1.53412e-05
3.27708e-05
2.21719e-06
6.83313e-05
2.77413e-06
6.1989e-05
3.48385e-06
6.07845e-05
4.47008e-06
6.11995e-05
5.50489e-06
6.06558e-05
6.57514e-06
5.99084e-05
7.69002e-06
5.89685e-05
8.85177e-06
5.78748e-05
1.0059e-05
5.65904e-05
1.13084e-05
5.51204e-05
1.25978e-05
5.34524e-05
1.3923e-05
5.15767e-05
1.52749e-05
4.94867e-05
1.66425e-05
4.71701e-05
1.8015e-05
4.46123e-05
1.93791e-05
4.18027e-05
2.07192e-05
3.87312e-05
2.20191e-05
3.5387e-05
2.32613e-05
3.17603e-05
2.44255e-05
2.78546e-05
2.54913e-05
2.36737e-05
2.64357e-05
1.92344e-05
1.4538e-05
2.72389e-05
2.09969e-06
6.62315e-05
2.55658e-06
6.15323e-05
3.07604e-06
6.02652e-05
3.87781e-06
6.03978e-05
4.7194e-06
5.98142e-05
5.59959e-06
5.90283e-05
6.51514e-06
5.80531e-05
7.4699e-06
5.692e-05
8.45649e-06
5.56038e-05
9.47416e-06
5.41029e-05
1.05192e-05
5.24074e-05
1.15881e-05
5.05078e-05
1.26732e-05
4.84015e-05
1.37636e-05