/*--------------------------------*- C++ -*----------------------------------*\
| =========                 |                                                 |
| \\      /  F ield         | OpenFOAM: The Open Source CFD Toolbox           |
|  \\    /   O peration     | Version:  2.3.0                                 |
|   \\  /    A nd           | Web:      www.OpenFOAM.org                      |
|    \\/     M anipulation  |                                                 |
\*---------------------------------------------------------------------------*/
FoamFile
{
    version     2.0;
    format      ascii;
    class       volScalarField;
    location    "82";
    object      alpha.water;
}
// * * * * * * * * * * * * * * * * * * * * * * * * * * * * * * * * * * * * * //

dimensions      [0 0 0 0 0 0 0];

internalField   nonuniform List<scalar> 
1875
(
0.710448
0.75522
0.776614
0.774947
0.770838
0.765604
0.75965
0.75321
0.746659
0.740384
0.734686
0.730744
0.728965
0.728156
0.728693
0.731583
0.737898
0.7461
0.755178
0.7653
0.772685
0.766561
0.737853
0.697313
0.707843
0.743339
0.773972
0.802914
0.813182
0.817666
0.816967
0.814689
0.810739
0.805097
0.797841
0.788793
0.777514
0.766332
0.756092
0.747835
0.74024
0.739355
0.74328
0.751543
0.762413
0.772688
0.787913
0.788483
0.768357
0.804318
0.804905
0.819045
0.833819
0.838413
0.839987
0.839325
0.837708
0.835327
0.831855
0.827187
0.82163
0.813788
0.80166
0.785879
0.769435
0.753406
0.742208
0.737856
0.743712
0.755747
0.769969
0.786585
0.788483
0.785187
0.805225
0.889923
0.881699
0.86821
0.860862
0.857321
0.853296
0.848203
0.842561
0.836442
0.82962
0.821523
0.813118
0.803025
0.791045
0.776335
0.759089
0.741947
0.73343
0.736798
0.749302
0.766771
0.78471
0.788476
0.785607
0.805225
0.947019
0.918812
0.882029
0.873186
0.867516
0.860505
0.8518
0.841876
0.833693
0.826042
0.817571
0.808243
0.798129
0.785883
0.770958
0.753907
0.738519
0.733384
0.73792
0.75155
0.769252
0.785856
0.789262
0.786719
0.805225
0.964413
0.921754
0.875155
0.875159
0.867639
0.856278
0.845263
0.833984
0.823888
0.814956
0.805556
0.795229
0.783994
0.770628
0.755853
0.742516
0.735167
0.734791
0.743432
0.758675
0.775437
0.788264
0.791242
0.789196
0.804162
0.964413
0.906826
0.862063
0.871138
0.856879
0.840097
0.826933
0.814794
0.803638
0.793281
0.782564
0.771407
0.759858
0.748594
0.74032
0.737283
0.736863
0.742241
0.755077
0.769946
0.783299
0.791725
0.794491
0.792527
0.798713
0.964413
0.877059
0.843649
0.85336
0.829723
0.811706
0.797756
0.784959
0.773522
0.763102
0.753829
0.746355
0.742102
0.740442
0.740341
0.740202
0.746213
0.756987
0.770085
0.781765
0.790691
0.796143
0.799069
0.795719
0.789976
0.954494
0.843037
0.820216
0.824095
0.795855
0.779848
0.766581
0.756043
0.748413
0.743633
0.741526
0.741154
0.741154
0.742694
0.746058
0.752361
0.762921
0.773991
0.783847
0.79147
0.797036
0.80112
0.804273
0.798498
0.780166
0.935187
0.81156
0.795571
0.794705
0.76839
0.755969
0.746187
0.740743
0.739209
0.739563
0.740522
0.742834
0.746884
0.752996
0.760735
0.770544
0.780246
0.788152
0.7942
0.798705
0.802319
0.805757
0.808736
0.799826
0.773179
0.915461
0.786246
0.775617
0.774287
0.753693
0.74515
0.739835
0.738171
0.738104
0.740824
0.745288
0.752026
0.760202
0.769552
0.778815
0.787324
0.793802
0.79845
0.801787
0.804369
0.806839
0.809713
0.812057
0.799653
0.767984
0.899855
0.768372
0.762508
0.763758
0.747697
0.741845
0.738771
0.738153
0.74046
0.747112
0.756121
0.766545
0.77693
0.786438
0.794287
0.800123
0.804129
0.806877
0.808734
0.810106
0.81152
0.813497
0.814822
0.798347
0.751385
0.889282
0.756976
0.753834
0.757844
0.745112
0.740844
0.738972
0.739489
0.746678
0.757526
0.769751
0.781708
0.792005
0.800015
0.805695
0.809447
0.811854
0.813403
0.814366
0.814812
0.814847
0.814822
0.814905
0.790424
0.720427
0.883087
0.749717
0.747512
0.753929
0.743634
0.740468
0.739348
0.743252
0.755112
0.768833
0.782409
0.793892
0.802656
0.808611
0.812174
0.814007
0.814753
0.814851
0.814822
0.814885
0.814822
0.814961
0.812794
0.771938
0.720427
0.879337
0.744834
0.742582
0.751242
0.74271
0.740399
0.739987
0.748194
0.763035
0.778231
0.79151
0.800514
0.806429
0.810078
0.812423
0.813954
0.814706
0.814822
0.814941
0.814822
0.814969
0.814352
0.799873
0.758467
0.720427
0.878241
0.741756
0.73785
0.749836
0.742118
0.740147
0.739635
0.751568
0.766851
0.780614
0.791551
0.800151
0.805716
0.809206
0.811498
0.812984
0.813944
0.814599
0.814261
0.812266
0.808657
0.802692
0.792261
0.773573
0.74773
0.87824
0.743028
0.737848
0.74937
0.742358
0.740202
0.739634
0.750213
0.76519
0.778882
0.789861
0.798186
0.803542
0.807019
0.809379
0.810871
0.811548
0.811291
0.808396
0.803581
0.798527
0.793654
0.793116
0.812734
0.818825
0.876086
0.750707
0.739115
0.748129
0.743449
0.740717
0.739635
0.74657
0.760083
0.77401
0.785521
0.79422
0.799917
0.803673
0.806267
0.807696
0.807863
0.805647
0.801352
0.798357
0.797017
0.79382
0.789583
0.839851
0.886997
0.868701
0.76704
0.743381
0.74677
0.744827
0.742021
0.739937
0.742723
0.752097
0.765193
0.777798
0.787874
0.794851
0.799437
0.802539
0.804178
0.804051
0.801406
0.798387
0.798367
0.79837
0.799505
0.78964
0.832496
0.91543
0.857203
0.789019
0.753573
0.747684
0.745756
0.743669
0.740897
0.741128
0.744868
0.753957
0.766167
0.778168
0.787551
0.794034
0.798358
0.800896
0.801263
0.799963
0.798625
0.79867
0.80003
0.804963
0.789581
0.8145
0.915488
0.843088
0.810399
0.772844
0.75296
0.747233
0.745015
0.742466
0.741276
0.741457
0.745055
0.75334
0.764467
0.776083
0.785767
0.792756
0.79731
0.799476
0.79972
0.799518
0.799632
0.800917
0.806022
0.78964
0.79803
0.915488
0.825917
0.826244
0.799689
0.768197
0.752497
0.747073
0.744065
0.741835
0.741456
0.741999
0.743711
0.746809
0.758118
0.771383
0.782937
0.791417
0.79676
0.799308
0.800582
0.801185
0.801889
0.806017
0.790911
0.788323
0.911352
0.808481
0.837741
0.824926
0.792969
0.766677
0.753168
0.746984
0.74313
0.741593
0.740736
0.738121
0.738659
0.740268
0.751585
0.766498
0.780246
0.790689
0.797339
0.800577
0.802816
0.803297
0.806162
0.793055
0.782273
0.90224
0.791767
0.837738
0.837888
0.817643
0.789576
0.767445
0.754326
0.746564
0.742523
0.739975
0.738659
0.737653
0.738659
0.740198
0.749425
0.764044
0.779283
0.791615
0.799137
0.80367
0.804922
0.806836
0.794244
0.77749
0.893587
0.771664
0.83795
0.837738
0.832375
0.812907
0.788807
0.768657
0.75453
0.745745
0.740458
0.73807
0.738659
0.738081
0.738659
0.741326
0.750273
0.765051
0.781506
0.794612
0.802784
0.806097
0.807435
0.79434
0.772936
0.887535
0.749206
0.836818
0.838458
0.837738
0.828643
0.809839
0.787617
0.767666
0.752747
0.742436
0.738659
0.737816
0.738659
0.738501
0.739541
0.74361
0.753846
0.76998
0.787088
0.800016
0.805916
0.807426
0.794145
0.770812
0.883744
0.747315
0.828966
0.837738
0.837845
0.83521
0.823995
0.804949
0.782818
0.762848
0.746819
0.73838
0.738659
0.738301
0.738659
0.73934
0.741561
0.747875
0.760933
0.778825
0.795511
0.804976
0.807455
0.793777
0.770739
0.881572
0.74871
0.811132
0.838391
0.837738
0.837074
0.831192
0.816617
0.795941
0.77363
0.753011
0.738659
0.738242
0.738659
0.738596
0.739372
0.741616
0.745892
0.755661
0.772138
0.790473
0.803181
0.807426
0.793389
0.770812
0.880432
0.762783
0.792272
0.818005
0.831564
0.837076
0.834771
0.823075
0.804648
0.781754
0.75836
0.73849
0.738659
0.738532
0.738659
0.739469
0.741882
0.746102
0.75342
0.76757
0.785758
0.800885
0.807453
0.793115
0.770779
0.879844
0.794784
0.785634
0.777095
0.812399
0.835125
0.834929
0.824684
0.804466
0.781158
0.75766
0.738659
0.738576
0.738659
0.738655
0.739723
0.742419
0.746678
0.75358
0.764802
0.781739
0.798424
0.807194
0.792907
0.770812
0.878975
0.837241
0.782123
0.775043
0.797326
0.829387
0.833797
0.823316
0.801969
0.777727
0.754351
0.738628
0.738659
0.738647
0.738793
0.740223
0.743218
0.747513
0.754022
0.764524
0.779769
0.796421
0.806514
0.792494
0.772963
0.876192
0.877543
0.776937
0.775316
0.797874
0.824653
0.83123
0.819222
0.795633
0.770526
0.749194
0.738744
0.738753
0.738763
0.739172
0.740976
0.744187
0.748441
0.75467
0.764975
0.780284
0.796536
0.805238
0.791621
0.779523
0.870701
0.903203
0.775316
0.775044
0.802464
0.824249
0.827382
0.811222
0.785006
0.760957
0.744631
0.739105
0.739032
0.739033
0.73978
0.741908
0.745194
0.749377
0.75561
0.766262
0.781957
0.797374
0.802171
0.784579
0.790052
0.863931
0.910099
0.775194
0.775316
0.81072
0.823839
0.820849
0.7984
0.771797
0.752238
0.742114
0.739614
0.73948
0.739439
0.740544
0.742926
0.746176
0.750383
0.75708
0.768689
0.784792
0.797363
0.796178
0.755128
0.802736
0.856822
0.909952
0.775316
0.778876
0.816953
0.821811
0.809343
0.78223
0.759813
0.746803
0.741541
0.740207
0.740027
0.739995
0.741447
0.743947
0.74717
0.751633
0.759277
0.772186
0.788125
0.797133
0.787879
0.746927
0.814505
0.848451
0.90871
0.7753
0.785835
0.816904
0.815298
0.792764
0.767408
0.752116
0.744556
0.741824
0.740797
0.740477
0.740676
0.742416
0.744991
0.748305
0.753312
0.762181
0.776104
0.790854
0.795837
0.778647
0.749029
0.824099
0.842043
0.90759
0.775876
0.791137
0.815036
0.801925
0.775603
0.757749
0.748758
0.744324
0.74227
0.741281
0.741003
0.74145
0.743503
0.746148
0.749691
0.755433
0.7654
0.779317
0.790911
0.793632
0.770798
0.746376
0.829078
0.842269
0.907595
0.775212
0.790699
0.809087
0.784528
0.763269
0.752961
0.747355
0.74415
0.742454
0.741913
0.741761
0.742388
0.744737
0.747445
0.751287
0.757736
0.768325
0.781395
0.790366
0.791183
0.767861
0.749029
0.824783
0.845825
0.907411
0.766089
0.787402
0.798838
0.770213
0.757001
0.750866
0.746706
0.74422
0.742862
0.742552
0.74246
0.743569
0.746051
0.748787
0.752921
0.759943
0.770706
0.782554
0.789288
0.788978
0.769087
0.746162
0.803099
0.854166
0.905805
0.744998
0.777914
0.786706
0.762702
0.754773
0.749978
0.746541
0.744493
0.743569
0.743295
0.743251
0.744889
0.747287
0.749987
0.754431
0.761963
0.772631
0.783055
0.787954
0.786621
0.77005
0.749029
0.757359
0.86221
0.902819
0.743631
0.757942
0.775751
0.759464
0.753988
0.749588
0.74663
0.744987
0.744344
0.744081
0.74413
0.746058
0.748224
0.750913
0.755784
0.763825
0.77419
0.782874
0.786307
0.78376
0.769261
0.746138
0.749029
0.866164
0.899287
0.744998
0.744209
0.76762
0.757263
0.753393
0.749357
0.746827
0.745538
0.745011
0.744733
0.74489
0.74685
0.74878
0.751636
0.75707
0.765553
0.775368
0.782263
0.784249
0.780731
0.767203
0.749029
0.747668
0.867985
0.895893
0.743603
0.744998
0.762155
0.755385
0.752784
0.749162
0.747046
0.745977
0.745424
0.745131
0.745427
0.747273
0.749099
0.75232
0.758385
0.767066
0.775875
0.781278
0.782259
0.777528
0.764215
0.746208
0.749029
0.868906
0.893067
0.744998
0.744204
0.758521
0.753876
0.752166
0.748958
0.747174
0.746205
0.74561
0.745336
0.745779
0.747514
0.749356
0.753068
0.759731
0.768133
0.775627
0.780169
0.780764
0.774687
0.761335
0.749029
0.747727
0.869686
0.89087
0.743959
0.744998
0.756104
0.752715
0.751566
0.748729
0.747194
0.746258
0.745642
0.745483
0.746068
0.747686
0.749676
0.753878
0.760982
0.768863
0.775172
0.778843
0.77971
0.773905
0.759561
0.746322
0.749029
0.870943
0.889143
0.744998
0.744395
0.753887
0.751836
0.751122
0.748523
0.74721
0.746269
0.745695
0.745648
0.746399
0.747863
0.750126
0.754603
0.761871
0.769371
0.774793
0.777661
0.779475
0.773933
0.758346
0.749029
0.747814
0.872801
0.887788
0.744245
0.744998
0.74991
0.75111
0.751088
0.748487
0.747243
0.746374
0.745951
0.745739
0.746771
0.74823
0.750498
0.755253
0.762262
0.769201
0.774402
0.777832
0.779807
0.773795
0.756871
0.746488
0.749029
0.875159
0.886627
0.744998
0.744577
0.744998
0.750539
0.751085
0.748533
0.747274
0.746738
0.746206
0.745974
0.74714
0.748619
0.750631
0.755898
0.762255
0.768689
0.774015
0.778224
0.780408
0.773762
0.754516
0.749029
0.747945
0.87795
0.885598
0.744457
0.744998
0.74472
0.750272
0.751013
0.748598
0.747471
0.746808
0.746207
0.746522
0.747272
0.7485
0.750848
0.755884
0.762089
0.768302
0.773829
0.778199
0.780468
0.773657
0.750984
0.746662
0.749029
0.880676
0.884702
0.744998
0.74473
0.744998
0.750021
0.750729
0.748563
0.747652
0.746694
0.746357
0.746474
0.747272
0.748592
0.751079
0.755586
0.761665
0.767717
0.773629
0.778335
0.780457
0.773138
0.748971
0.749029
0.74807
0.882769
0.883791
0.744654
0.744998
0.74472
0.749697
0.750686
0.748484
0.747407
0.746753
0.746191
0.746252
0.747153
0.748814
0.751292
0.755328
0.761166
0.766704
0.773243
0.778578
0.78011
0.771954
0.749029
0.746873
0.749029
0.884247
0.882842
0.744998
0.744833
0.744998
0.74939
0.750522
0.748392
0.747288
0.746667
0.746188
0.74627
0.747082
0.748719
0.751264
0.755323
0.760509
0.766246
0.772823
0.778564
0.779156
0.769921
0.748968
0.749029
0.748219
0.885482
0.882195
0.744797
0.744998
0.744737
0.748926
0.750159
0.748178
0.747299
0.746352
0.746227
0.746213
0.747134
0.748872
0.751353
0.755219
0.75974
0.766241
0.772522
0.778274
0.777671
0.767232
0.749029
0.747061
0.749029
0.886702
0.881364
0.744998
0.744895
0.744998
0.747406
0.749748
0.748024
0.747029
0.746339
0.746073
0.746113
0.7472
0.749228
0.751542
0.754983
0.759771
0.766061
0.77222
0.77735
0.775905
0.764832
0.748978
0.749029
0.748372
0.88808
0.880227
0.744911
0.744998
0.744761
0.744998
0.749124
0.747789
0.747015
0.746178
0.74607
0.746256
0.747484
0.749405
0.751607
0.754748
0.759782
0.765912
0.771798
0.775845
0.77424
0.763845
0.749029
0.747285
0.749029
0.889722
0.879314
0.744998
0.74494
0.744998
0.744836
0.748328
0.747374
0.746985
0.746176
0.746206
0.746516
0.748017
0.749785
0.7517
0.754856
0.759609
0.765871
0.771306
0.774125
0.77295
0.763904
0.749
0.749029
0.748541
0.891737
0.878083
0.744978
0.744998
0.744782
0.744998
0.747829
0.747049
0.746667
0.746275
0.746392
0.746953
0.748568
0.750246
0.751946
0.755067
0.75947
0.765728
0.770845
0.772435
0.771924
0.764193
0.749029
0.747567
0.749029
0.894163
0.876235
0.745181
0.744974
0.744998
0.744861
0.747439
0.746941
0.746719
0.746439
0.746602
0.747704
0.749048
0.750194
0.752216
0.755168
0.759473
0.76538
0.770315
0.770858
0.770914
0.764924
0.749278
0.749029
0.748717
0.897076
0.874051
0.74571
0.744998
0.744808
0.744998
0.746955
0.746823
0.746869
0.74668
0.747118
0.74809
0.749386
0.750386
0.752418
0.755259
0.759311
0.764754
0.769496
0.769523
0.76983
0.766253
0.750789
0.747941
0.749029
0.900609
0.870825
0.747031
0.745082
0.744998
0.744883
0.74621
0.746689
0.746867
0.747149
0.747185
0.747988
0.749353
0.750652
0.752544
0.755281
0.759022
0.763806
0.768231
0.768564
0.768999
0.767914
0.754403
0.749029
0.748912
0.904922
0.866206
0.749695
0.745238
0.744861
0.744998
0.744943
0.746378
0.746927
0.747192
0.747189
0.747924
0.749307
0.75036
0.752437
0.755146
0.758674
0.762587
0.766544
0.76785
0.768907
0.769102
0.75946
0.748405
0.749029
0.909998
0.860922
0.753283
0.745942
0.744998
0.74491
0.744998
0.745346
0.74692
0.747189
0.747415
0.747819
0.749219
0.75027
0.752247
0.75474
0.757864
0.761168
0.764557
0.766898
0.768778
0.769105
0.763375
0.749029
0.749086
0.915067
0.854989
0.7574
0.74709
0.744923
0.744998
0.744947
0.744998
0.746317
0.746817
0.747301
0.747662
0.74869
0.750098
0.751737
0.753861
0.756338
0.759063
0.761835
0.764779
0.767691
0.768388
0.763921
0.74882
0.749307
0.918052
0.84894
0.760967
0.747391
0.744998
0.744969
0.744998
0.744978
0.745217
0.746038
0.746639
0.747253
0.747834
0.74926
0.75066
0.752404
0.75438
0.756429
0.758735
0.761677
0.765301
0.766715
0.763836
0.749029
0.749779
0.917396
0.845449
0.761319
0.747991
0.745716
0.745661
0.745651
0.745761
0.746026
0.746777
0.74741
0.74802
0.7487
0.750003
0.751322
0.752947
0.754875
0.756966
0.7594
0.762338
0.766105
0.768033
0.766288
0.752077
0.75428
0.915954
0.845424
0.763029
0.752897
0.751798
0.751239
0.751174
0.751583
0.752083
0.752824
0.753632
0.754404
0.755319
0.756437
0.757871
0.759547
0.761612
0.764
0.766713
0.769818
0.773517
0.77534
0.77534
0.765582
0.768824
0.915678
0.842651
0.762258
0.761177
0.760947
0.758227
0.757447
0.758037
0.758875
0.759694
0.760421
0.761039
0.761872
0.76264
0.763881
0.765295
0.766999
0.769061
0.771518
0.774292
0.77534
0.77534
0.77534
0.77534
0.775305
0.901507
0.72292
0.684007
0.69113
0.685111
0.677532
0.674888
0.675171
0.676128
0.676993
0.677098
0.676686
0.676159
0.675243
0.674205
0.672967
0.671527
0.669925
0.668174
0.666232
0.664348
0.661311
0.66137
0.665088
0.661761
0.716575
0.239804
0.291817
0.308426
0.302461
0.296885
0.29685
0.298482
0.300299
0.301202
0.300438
0.298416
0.295677
0.291511
0.286397
0.280281
0.273241
0.265341
0.256691
0.247442
0.238601
0.229909
0.223879
0.223032
0.213317
0.169512
0.0137354
0.0242317
0.0304631
0.0315581
0.0318364
0.0323
0.0327706
0.0331293
0.0332556
0.0330922
0.0326788
0.0320663
0.0311822
0.0300907
0.0288143
0.0273943
0.0258551
0.0242654
0.0227068
0.0212653
0.0200013
0.019007
0.0181047
0.0141104
0.00704656
2.98218e-05
0.000211675
0.000657168
0.000862002
0.000869386
0.000856365
0.000846569
0.000841338
0.000837124
0.000830395
0.000818933
0.000801573
0.000777127
0.000746244
0.000710094
0.000670391
0.0006291
0.000588853
0.000552929
0.000524087
0.000505821
0.000495831
0.000429265
0.000167296
3.23063e-05
1.75216e-08
1.48785e-07
2.61719e-06
5.35432e-06
5.18093e-06
4.63143e-06
4.26517e-06
4.06334e-06
4.00012e-06
4.02933e-06
4.08727e-06
4.12493e-06
4.1081e-06
4.03958e-06
3.9234e-06
3.78478e-06
3.64933e-06
3.5391e-06
3.46259e-06
3.45254e-06
3.51921e-06
3.78973e-06
3.22111e-06
3.34081e-07
3.14905e-08
2.3427e-10
4.69503e-10
3.7588e-09
5.99845e-09
4.15682e-09
2.80039e-09
2.07706e-09
1.78782e-09
1.95515e-09
2.50827e-09
3.31178e-09
4.07476e-09
4.59229e-09
4.84104e-09
4.88755e-09
4.88526e-09
4.97367e-09
5.2697e-09
5.76987e-09
6.41011e-09
7.06773e-09
7.98047e-09
9.3435e-09
1.14243e-09
2.54525e-10
1.31393e-11
3.56482e-12
3.00138e-12
1.8906e-12
7.07212e-13
6.01186e-13
1.65423e-13
2.02505e-13
3.65707e-13
4.09783e-13
6.20948e-13
1.04361e-12
1.33049e-12
1.43641e-12
1.44029e-12
1.42275e-12
1.56763e-12
2.05369e-12
3.0852e-12
5.06006e-12
8.16514e-12
1.16052e-11
1.87568e-11
1.16812e-11
2.42779e-11
1.13596e-11
3.98193e-12
3.00571e-12
1.58284e-12
3.56715e-13
9.00391e-14
1.84297e-14
4.44089e-16
-6.66134e-16
1.93179e-14
9.70335e-14
2.07723e-13
2.70006e-13
2.53686e-13
2.08056e-13
1.45661e-13
1.16795e-13
1.56319e-13
3.99347e-13
1.53633e-12
4.173e-12
7.93143e-12
6.86828e-12
1.00513e-11
2.10909e-11
)
;

boundaryField
{
    inlet
    {
        type            calculated;
        value           uniform 0.5;
    }
    outlet
    {
        type            calculated;
        value           nonuniform List<scalar> 
25
(
1.13596e-11
3.98193e-12
3.00571e-12
0
0
0
0
0
0
1.93179e-14
9.70335e-14
2.07723e-13
2.70006e-13
2.53686e-13
2.08056e-13
1.45661e-13
1.16795e-13
0
0
1.53633e-12
4.173e-12
7.93143e-12
6.86828e-12
1.00513e-11
2.10909e-11
)
;
    }
    walls
    {
        type            calculated;
        value           nonuniform List<scalar> 
150
(
0.710448
0.743339
0.804905
0.889923
0.947019
0.964413
0.964413
0.964413
0.954494
0.935187
0.915461
0.899855
0.889282
0.883087
0.879337
0.878241
0.87824
0.876086
0.868701
0.857203
0.843088
0.825917
0.808481
0.791767
0.771664
0.749206
0.747315
0.74871
0.762783
0.794784
0.837241
0.877543
0.903203
0.910099
0.909952
0.90871
0.90759
0.907595
0.907411
0.905805
0.902819
0.899287
0.895893
0.893067
0.89087
0.889143
0.887788
0.886627
0.885598
0.884702
0.883791
0.882842
0.882195
0.881364
0.880227
0.879314
0.878083
0.876235
0.874051
0.870825
0.866206
0.860922
0.854989
0.84894
0.845449
0.845424
0.842651
0.72292
0.239804
0.0137354
2.98218e-05
1.75216e-08
2.3427e-10
1.31393e-11
1.13596e-11
0.707843
0.804318
0.805225
0.805225
0.805225
0.804162
0.798713
0.789976
0.780166
0.773179
0.767984
0.751385
0.720427
0.720427
0.720427
0.74773
0.818825
0.886997
0.91543
0.915488
0.915488
0.911352
0.90224
0.893587
0.887535
0.883744
0.881572
0.880432
0.879844
0.878975
0.876192
0.870701
0.863931
0.856822
0.848451
0.842043
0.842269
0.845825
0.854166
0.86221
0.866164
0.867985
0.868906
0.869686
0.870943
0.872801
0.875159
0.87795
0.880676
0.882769
0.884247
0.885482
0.886702
0.88808
0.889722
0.891737
0.894163
0.897076
0.900609
0.904922
0.909998
0.915067
0.918052
0.917396
0.915954
0.915678
0.901507
0.716575
0.169512
0.00704656
3.23063e-05
3.14905e-08
2.54525e-10
2.42779e-11
2.10909e-11
)
;
    }
    defaultFaces
    {
        type            empty;
    }
}


// ************************************************************************* //
