/*--------------------------------*- C++ -*----------------------------------*\
| =========                 |                                                 |
| \\      /  F ield         | OpenFOAM: The Open Source CFD Toolbox           |
|  \\    /   O peration     | Version:  2.3.0                                 |
|   \\  /    A nd           | Web:      www.OpenFOAM.org                      |
|    \\/     M anipulation  |                                                 |
\*---------------------------------------------------------------------------*/
FoamFile
{
    version     2.0;
    format      ascii;
    class       volScalarField;
    location    "82";
    object      nut.water;
}
// * * * * * * * * * * * * * * * * * * * * * * * * * * * * * * * * * * * * * //

dimensions      [0 2 -1 0 0 0 0];

internalField   nonuniform List<scalar> 
1875
(
0.00103838
0.00109042
0.0011772
0.00125852
0.00133242
0.00139704
0.00145292
0.00150129
0.00154278
0.00157885
0.00161044
0.00163739
0.00165905
0.00167591
0.00168047
0.00167853
0.00166402
0.00162886
0.00157497
0.0015025
0.00141247
0.00130407
0.00117118
0.00100241
0.000799954
0.00108783
0.00125624
0.00139611
0.00149534
0.00156539
0.00161307
0.00164517
0.00166555
0.00167857
0.00168405
0.0016892
0.00169468
0.00169842
0.00170241
0.00170559
0.00170962
0.00170343
0.001685
0.00164973
0.00158503
0.00149472
0.00137472
0.00121663
0.00101211
0.000781791
0.00137888
0.00157855
0.00172846
0.00182321
0.00187883
0.00190478
0.00191146
0.00190528
0.00189051
0.00187031
0.00184982
0.00183013
0.00181
0.00179032
0.00177195
0.00175058
0.00172929
0.00170219
0.00166828
0.00160843
0.00152763
0.00141946
0.00128218
0.00112589
0.000983665
0.00176871
0.00198533
0.00209397
0.00213696
0.002142
0.00212488
0.00209653
0.00206107
0.00202301
0.00198466
0.00194707
0.00191059
0.001875
0.00184107
0.00180954
0.00177838
0.00174643
0.00170916
0.0016649
0.00160361
0.0015233
0.00142492
0.00130871
0.00118174
0.00106319
0.00226389
0.00234201
0.00234321
0.00231542
0.00227233
0.00222051
0.00216572
0.00211153
0.00206005
0.0020117
0.00196594
0.00192274
0.00188187
0.00184325
0.0018069
0.0017706
0.00173028
0.00168675
0.00163706
0.00157682
0.00150215
0.00141301
0.00131077
0.00120412
0.00110194
0.00258375
0.00257304
0.00250875
0.00242651
0.00233769
0.00224999
0.00216862
0.00209612
0.00203258
0.0019779
0.0019302
0.00188731
0.00184718
0.00180776
0.00176755
0.00172547
0.00168344
0.0016409
0.00159059
0.0015323
0.00146475
0.00138654
0.00130117
0.00121239
0.00112658
0.00273789
0.00268766
0.00257637
0.00245553
0.00233571
0.00222345
0.00212319
0.00203669
0.00196539
0.0019069
0.00185812
0.00181557
0.00177646
0.00173885
0.00170193
0.00166514
0.00162721
0.00158727
0.00154027
0.00148776
0.0014287
0.00136206
0.00129104
0.00121868
0.00115121
0.00290632
0.00278205
0.00261744
0.00245909
0.00231189
0.00217523
0.00205635
0.00195871
0.00187867
0.00181771
0.00176968
0.0017305
0.00169595
0.00166363
0.00163374
0.00160417
0.00157411
0.00153739
0.0014956
0.00144868
0.00139621
0.00133799
0.00127622
0.00121137
0.00114283
0.00298232
0.00281878
0.00262134
0.00243919
0.00227056
0.00211584
0.00198408
0.00187723
0.00179097
0.0017322
0.00168783
0.00165402
0.00162605
0.00160128
0.00157913
0.00155665
0.00152797
0.00149432
0.00145689
0.00141522
0.00136825
0.00131559
0.00125851
0.00119546
0.0011245
0.00302355
0.00282956
0.00261174
0.00241438
0.00222896
0.00205974
0.00191742
0.00180194
0.001718
0.00166311
0.00162789
0.00160346
0.00158202
0.00156353
0.00154505
0.00152319
0.00149844
0.00147047
0.00143762
0.00139917
0.00135455
0.00130405
0.00124707
0.00118141
0.00110566
0.0030793
0.00284067
0.00260242
0.00239277
0.002198
0.00202323
0.00187846
0.00176711
0.00168711
0.00163697
0.00160592
0.00158572
0.00157105
0.00155939
0.00154608
0.00152974
0.00150869
0.0014819
0.001449
0.00140964
0.00136311
0.00130977
0.00124798
0.0011756
0.00109088
0.00310746
0.00283893
0.00258907
0.00237595
0.00218257
0.00201251
0.00187476
0.00177131
0.0017014
0.00165953
0.00163622
0.00162343
0.00161566
0.0016085
0.00159872
0.00158429
0.0015635
0.00153545
0.00149977
0.00145577
0.00140299
0.00134089
0.00126783
0.00118054
0.00107662
0.00299079
0.00276509
0.0025459
0.0023529
0.0021763
0.00202017
0.00189325
0.00180115
0.00174298
0.00171202
0.00169944
0.00169696
0.00169784
0.00169727
0.00169146
0.00167936
0.00165923
0.00162986
0.00159051
0.00154052
0.00147937
0.00140699
0.00132328
0.00122458
0.00111347
0.00276666
0.00263481
0.00247824
0.00232376
0.00217568
0.00204225
0.00193552
0.00186024
0.00181593
0.00179644
0.00179331
0.00179855
0.00180594
0.00181055
0.00180905
0.00180089
0.00178326
0.0017549
0.00171462
0.00166157
0.00159511
0.00151436
0.00142019
0.00131056
0.00119734
0.00259256
0.00251852
0.00241403
0.00229974
0.00218411
0.00207714
0.00199073
0.00193134
0.00189924
0.00188905
0.00189331
0.00190481
0.00191811
0.00192888
0.00193371
0.00193199
0.00192069
0.00189812
0.00186255
0.00181211
0.00174499
0.00166044
0.00155537
0.00142857
0.00129274
0.00251872
0.00245869
0.00237864
0.00229123
0.00220101
0.00211758
0.00204983
0.00200421
0.00198149
0.00197759
0.00198655
0.00200273
0.00202151
0.00203888
0.0020516
0.00205874
0.00205785
0.00204641
0.00202241
0.00198289
0.00192512
0.00184525
0.00173852
0.00159959
0.00143001
0.00247166
0.00242523
0.0023653
0.00229911
0.00222892
0.00216344
0.00210973
0.00207387
0.00205751
0.0020574
0.00206908
0.00208809
0.00211058
0.00213326
0.00215371
0.0021699
0.00218053
0.00218348
0.00217608
0.00215611
0.00212042
0.00206423
0.00198041
0.00185806
0.00167771
0.00245108
0.00241447
0.00236883
0.00231777
0.00226453
0.00221316
0.00217017
0.00214094
0.00212737
0.00212818
0.0021403
0.00216014
0.00218439
0.00221037
0.002236
0.00225947
0.00227919
0.00229369
0.00230207
0.00230302
0.00229412
0.0022722
0.00223247
0.00216959
0.00206036
0.00246233
0.00242534
0.00238805
0.00234891
0.00230789
0.00226625
0.00223037
0.00220426
0.00219063
0.0021898
0.00220026
0.0022191
0.00224349
0.00227102
0.00229942
0.0023274
0.00235323
0.00237562
0.00239368
0.00240661
0.00241347
0.00241256
0.00240153
0.00238241
0.00235219
0.00244845
0.00242033
0.00239356
0.00236538
0.00233758
0.00230708
0.00227875
0.0022562
0.00224312
0.00224112
0.00224911
0.00226609
0.00228965
0.00231748
0.00234735
0.0023781
0.00240793
0.00243567
0.00246034
0.00248089
0.00249559
0.00250226
0.00249807
0.00248259
0.00244597
0.00236412
0.00235766
0.00235135
0.0023396
0.00232631
0.00231311
0.00229669
0.00228298
0.00227346
0.00227214
0.00228056
0.0022971
0.00232076
0.00234922
0.00238114
0.00241449
0.00244771
0.00247955
0.00250885
0.00253432
0.00255423
0.00256671
0.00256827
0.00255983
0.00253915
0.00217286
0.002204
0.00223167
0.0022525
0.00226501
0.00226976
0.0022694
0.00226895
0.00227068
0.00227584
0.00228796
0.00230785
0.00233272
0.00236456
0.0024001
0.00243741
0.00247483
0.00251093
0.00254442
0.00257381
0.00259728
0.00261263
0.00261735
0.00261125
0.0025955
0.00188008
0.00196807
0.00203828
0.00209678
0.00214365
0.0021804
0.00220644
0.00222121
0.00223569
0.00225046
0.00226918
0.00229328
0.00232455
0.00236218
0.00240386
0.00244739
0.00249076
0.00253236
0.00257076
0.00260445
0.00263145
0.00264941
0.00265538
0.00264863
0.00262847
0.0016227
0.00174783
0.00185279
0.00193896
0.00201055
0.00206687
0.00211335
0.00215161
0.00218128
0.00220839
0.00223461
0.00226498
0.00230226
0.0023469
0.00239633
0.00244734
0.00249784
0.00254657
0.00259127
0.00263061
0.00266272
0.00268549
0.00269586
0.00269375
0.00267861
0.00145869
0.00161372
0.00174279
0.00184777
0.0019315
0.00199824
0.00205081
0.00209433
0.00213274
0.00216744
0.00220289
0.00224074
0.00228331
0.00233202
0.00238698
0.00244482
0.00250251
0.00255756
0.00260921
0.00265514
0.00269346
0.00272273
0.00274082
0.00274777
0.00274445
0.00141486
0.00158533
0.00172818
0.00184523
0.00193513
0.00200357
0.00205387
0.00209345
0.00212719
0.00215956
0.00219418
0.00223279
0.00227596
0.00232632
0.00238371
0.00244576
0.00250951
0.00257009
0.00262786
0.00268011
0.00272494
0.00276119
0.00278779
0.00280607
0.00281713
0.00146835
0.00164414
0.00179464
0.00191566
0.00200851
0.00207487
0.00211958
0.00214949
0.00217199
0.00219288
0.00221737
0.00224938
0.00229009
0.0023398
0.00239598
0.00245839
0.00252412
0.00258854
0.0026503
0.00270733
0.00275758
0.00279989
0.00283433
0.0028635
0.00288859
0.00157967
0.00176611
0.00192243
0.00204512
0.00213568
0.00219594
0.00223188
0.00224857
0.00225605
0.0022623
0.00227396
0.00229561
0.00232848
0.00237244
0.00242559
0.00248581
0.00255031
0.00261515
0.00267818
0.00273732
0.00279057
0.00283676
0.00287682
0.00291452
0.00295128
0.0017525
0.00194185
0.0020989
0.00221796
0.00230064
0.00235047
0.00237405
0.00237788
0.00237114
0.00236247
0.00235971
0.00236887
0.00239115
0.00242627
0.00247245
0.00252698
0.00258694
0.0026488
0.00271011
0.00276817
0.00282096
0.00286757
0.00290929
0.00295115
0.00299569
0.00200919
0.00218122
0.00231765
0.00242015
0.00248731
0.00252151
0.00252943
0.00251839
0.00249745
0.00247505
0.00245907
0.00245605
0.00246744
0.00249281
0.00253042
0.0025776
0.00263096
0.00268689
0.00274271
0.00279588
0.00284425
0.00288674
0.00292464
0.00296337
0.0030059
0.00233446
0.00247235
0.00257351
0.00264362
0.00268468
0.00269684
0.00268574
0.00265856
0.00262344
0.00258864
0.00256181
0.00254865
0.00255029
0.00256649
0.00259538
0.00263407
0.00267892
0.0027265
0.00277378
0.00281818
0.00285759
0.00289116
0.00291944
0.00294918
0.00298548
0.00272168
0.0027979
0.00284627
0.00287305
0.00287938
0.00286561
0.00283424
0.00279089
0.00274279
0.00269776
0.00266214
0.00264041
0.0026338
0.00264148
0.00266156
0.0026911
0.0027263
0.00276356
0.00280002
0.00283269
0.00285911
0.00287754
0.00288828
0.00289507
0.00290292
0.00310317
0.00310025
0.00309196
0.00307816
0.00305461
0.00301764
0.00296832
0.00291093
0.00285243
0.00279941
0.00275684
0.00272826
0.00271466
0.0027145
0.00272623
0.0027465
0.00277167
0.00279819
0.00282313
0.00284322
0.00285546
0.00285748
0.00284968
0.00283413
0.00281281
0.00333044
0.0033067
0.00327673
0.00324353
0.00320147
0.00314841
0.00308555
0.00301807
0.00295204
0.00289326
0.00284567
0.00281178
0.00279231
0.00278554
0.00278947
0.00280103
0.00281668
0.00283344
0.00284785
0.00285666
0.0028566
0.00284527
0.00282229
0.00279389
0.00275757
0.00348972
0.00346409
0.00342626
0.00338238
0.00332808
0.00326309
0.00319048
0.00311561
0.00304477
0.00298233
0.00293134
0.00289293
0.00286819
0.00285585
0.00285317
0.00285731
0.00286529
0.00287384
0.00287965
0.00287923
0.00286862
0.00284561
0.00280896
0.00276516
0.00270606
0.00365247
0.00361632
0.00356723
0.00351148
0.0034454
0.00336984
0.00328901
0.00320873
0.00313431
0.00306929
0.00301549
0.00297437
0.00294592
0.00292895
0.00292117
0.00291991
0.00292221
0.002925
0.00292492
0.00291811
0.00290071
0.00287005
0.00282592
0.00277392
0.00270037
0.00382671
0.00377398
0.00370935
0.00363937
0.00356049
0.00347448
0.00338655
0.00330179
0.00322439
0.00315725
0.00310203
0.00305963
0.00302889
0.00300891
0.00299781
0.00299312
0.00299211
0.00299183
0.00298889
0.0029793
0.00295963
0.00292718
0.00288276
0.00283081
0.00275442
0.00401364
0.00393801
0.00385414
0.00376844
0.00367648
0.00358105
0.00348716
0.00339923
0.00331993
0.00325151
0.00319564
0.00315203
0.00311998
0.0030985
0.00308575
0.00307947
0.00307717
0.003076
0.00307263
0.00306322
0.00304501
0.0030157
0.00297701
0.00293248
0.00286703
0.00419538
0.00409884
0.00399729
0.00389758
0.0037947
0.00369214
0.0035946
0.00350472
0.00342471
0.00335605
0.00329899
0.00325427
0.0032215
0.00319933
0.00318594
0.00317923
0.00317682
0.00317595
0.00317339
0.00316573
0.0031507
0.00312669
0.0030953
0.00305922
0.00300867
0.00436764
0.00425369
0.00413703
0.00402639
0.00391596
0.00380901
0.00370895
0.00361777
0.00353709
0.00346807
0.00341117
0.00336644
0.00333342
0.00331097
0.00329735
0.00329056
0.00328828
0.00328778
0.003286
0.00327998
0.003268
0.00324908
0.00322476
0.00319734
0.00316175
0.00453282
0.00440466
0.00427509
0.00415562
0.00404047
0.00393102
0.00382967
0.00373797
0.00365723
0.0035883
0.00353161
0.00348714
0.0034542
0.0034316
0.00341768
0.00341054
0.00340785
0.0034069
0.00340479
0.00339907
0.00338855
0.00337257
0.00335321
0.00333474
0.00331748
0.00468657
0.00454942
0.00441118
0.00428572
0.00416787
0.00405738
0.00395577
0.00386428
0.003784
0.00371559
0.00365933
0.0036151
0.00358214
0.00355918
0.00354463
0.00353656
0.00353261
0.00353
0.00352586
0.00351804
0.0035054
0.00348785
0.00346722
0.0034458
0.00342721
0.00483226
0.00468938
0.00454638
0.00441758
0.00429818
0.00418746
0.00408627
0.00399555
0.00391615
0.00384853
0.00379277
0.00374868
0.00371553
0.00369198
0.00367647
0.00366705
0.00366127
0.00365634
0.00364953
0.00363833
0.00362127
0.00359916
0.00357249
0.00354105
0.00350379
0.00497385
0.00482754
0.00468187
0.00455103
0.00443092
0.0043205
0.0042201
0.0041304
0.00405198
0.00398521
0.00393006
0.00388618
0.00385279
0.00382855
0.00381193
0.00380092
0.00379303
0.00378554
0.00377592
0.00376232
0.00374363
0.00371948
0.0036909
0.00366034
0.003628
0.00511464
0.00496533
0.0048178
0.00468577
0.00456544
0.0044556
0.00435623
0.00426772
0.00419043
0.00412455
0.00407001
0.00402633
0.0039927
0.00396779
0.00395011
0.00393766
0.00392801
0.00391797
0.00390518
0.00388928
0.00386903
0.00384314
0.00381313
0.0037807
0.00374946
0.00525281
0.00510162
0.00495303
0.00482036
0.00470032
0.00459142
0.00449332
0.00440618
0.00433024
0.00426551
0.00421152
0.00416809
0.00413433
0.00410871
0.00408993
0.00407599
0.00406445
0.00405275
0.00403884
0.00402084
0.00399722
0.00396834
0.00393476
0.00389502
0.00384973
0.00538672
0.00523445
0.00508564
0.00495301
0.00483384
0.00472651
0.00463005
0.00454444
0.00447009
0.00440651
0.00435321
0.00431022
0.00427659
0.00425056
0.00423116
0.00421594
0.00420234
0.00418939
0.00417505
0.00415648
0.0041325
0.00410322
0.00407012
0.00403372
0.00399468
0.00551319
0.00536106
0.00521317
0.00508151
0.00496395
0.00485872
0.00476434
0.0046807
0.00460779
0.00454518
0.0044937
0.00445146
0.00441749
0.00439175
0.00437211
0.00435649
0.0043429
0.00432907
0.00431299
0.004294
0.00427067
0.00424222
0.00421087
0.00417734
0.00414373
0.00562877
0.00547771
0.00533195
0.00520255
0.00508738
0.0049843
0.00489275
0.00481233
0.00474175
0.00468207
0.00463212
0.00459113
0.00455832
0.00453276
0.00451238
0.00449657
0.00448337
0.00446954
0.00445343
0.00443406
0.00441024
0.00438186
0.00435116
0.00431839
0.00428525
0.00572574
0.00557972
0.00543907
0.00531387
0.00520322
0.00510507
0.00501738
0.00493987
0.00487305
0.00481585
0.00476729
0.00472809
0.00469738
0.00467276
0.00465347
0.00463778
0.00462348
0.00460955
0.00459407
0.0045747
0.00455048
0.00452176
0.00449117
0.00445812
0.0044238
0.00579683
0.00566376
0.00553289
0.00541639
0.00531243
0.00521979
0.00513703
0.00506386
0.0050005
0.00494586
0.0049009
0.00486402
0.00483426
0.00481131
0.00479397
0.00477942
0.00476603
0.00475223
0.00473633
0.00471668
0.00469211
0.00466292
0.0046314
0.00459703
0.0045611
0.00587567
0.00574704
0.00562295
0.00551305
0.0054153
0.00532781
0.00525055
0.00518312
0.00512386
0.00507428
0.00503293
0.00499908
0.00497192
0.00495069
0.00493394
0.00492042
0.00490881
0.00489603
0.00488063
0.00486122
0.00483669
0.00480718
0.00477501
0.00473961
0.00470418
0.00593854
0.00581656
0.00570173
0.0055997
0.00551002
0.00543102
0.00536035
0.00529787
0.00524478
0.00519957
0.00516146
0.00513128
0.00510822
0.00509002
0.00507561
0.00506408
0.00505321
0.00504199
0.0050279
0.00500939
0.00498566
0.00495683
0.00492467
0.00488851
0.00485031
0.00595241
0.00586268
0.00576791
0.00568081
0.0056015
0.00553036
0.0054668
0.00541094
0.00536306
0.00532235
0.00528992
0.00526394
0.00524359
0.00522869
0.00521793
0.00520971
0.00520158
0.00519237
0.00518017
0.00516333
0.00514109
0.00511363
0.00508231
0.00504635
0.00500747
0.00604915
0.00594808
0.00585199
0.00576758
0.00569293
0.00562694
0.00556991
0.00552123
0.00547908
0.00544511
0.00541792
0.00539694
0.0053814
0.00537061
0.0053633
0.00535783
0.00535334
0.00534727
0.00533814
0.00532418
0.00530443
0.0052793
0.00524982
0.00521528
0.00517803
0.00612363
0.00601959
0.00592703
0.00584767
0.00577994
0.00572231
0.00567229
0.00562942
0.0055947
0.00556663
0.00554438
0.00552885
0.00551929
0.00551355
0.00551087
0.00550988
0.00550955
0.00550765
0.00550254
0.00549267
0.005477
0.00545547
0.00542895
0.00539618
0.00535875
0.00610998
0.00604803
0.00598014
0.00591801
0.00586225
0.00581374
0.00577199
0.00573691
0.00570867
0.0056865
0.00567152
0.00566189
0.00565679
0.00565634
0.0056593
0.00566448
0.00566968
0.00567329
0.0056737
0.00566954
0.00565966
0.00564369
0.00562217
0.00559373
0.00555965
0.00620263
0.0061237
0.00605323
0.00599434
0.00594451
0.00590239
0.00586825
0.00584155
0.00582043
0.00580647
0.00579817
0.00579504
0.00579656
0.00580226
0.00581115
0.00582197
0.00583328
0.00584363
0.00585113
0.00585465
0.00585288
0.00584517
0.0058316
0.00581045
0.00578191
0.0062452
0.00617183
0.00611068
0.00606077
0.00602071
0.00598903
0.00596362
0.0059441
0.00593145
0.00592426
0.00592197
0.00592553
0.00593441
0.00594673
0.00596197
0.0059792
0.00599768
0.00601582
0.00603206
0.00604545
0.00605461
0.0060586
0.00605733
0.00604856
0.00603083
0.00620103
0.00617692
0.00614615
0.00611748
0.00609223
0.00607168
0.00605591
0.00604507
0.00603945
0.00603847
0.0060434
0.0060532
0.00606681
0.00608485
0.00610657
0.0061313
0.00615763
0.00618451
0.00621091
0.00623615
0.00625924
0.00627914
0.00629573
0.00630722
0.00630948
0.00627217
0.00623731
0.00620772
0.00618436
0.00616606
0.00615226
0.00614408
0.00614133
0.00614249
0.00614915
0.00616021
0.00617538
0.00619439
0.00621751
0.00624428
0.00627427
0.00630691
0.0063417
0.00637821
0.0064162
0.00645519
0.00649473
0.00653497
0.00657506
0.00660814
0.00631756
0.00628724
0.00626447
0.00624719
0.00623578
0.00622973
0.00622827
0.00623124
0.00623908
0.00625117
0.00626664
0.00628545
0.00630893
0.00633551
0.00636528
0.00639821
0.00643488
0.00647545
0.00652024
0.00656975
0.0066245
0.0066851
0.00675269
0.00682758
0.00689853
0.0063077
0.00631409
0.00630824
0.0063011
0.00629669
0.00629689
0.00630136
0.00630988
0.00632268
0.00633837
0.00635769
0.00637969
0.00640398
0.00643079
0.00646036
0.00649324
0.00652968
0.00657098
0.00661881
0.00667518
0.0067424
0.006823
0.00691982
0.00703376
0.00714596
0.00645874
0.00640837
0.00636994
0.00634726
0.00633815
0.00633975
0.00634975
0.00636581
0.00638541
0.00640735
0.00643075
0.00645502
0.00647901
0.00650311
0.0065275
0.00655294
0.00658064
0.00661287
0.00665279
0.00670489
0.00677488
0.00686987
0.00699859
0.00716751
0.00735253
0.00655632
0.00642373
0.00634554
0.00631136
0.00630723
0.00632221
0.0063485
0.00638063
0.00641479
0.00644855
0.00647981
0.00650758
0.00653108
0.0065499
0.00656408
0.00657422
0.00658197
0.00658995
0.00660252
0.00662653
0.00667208
0.00675462
0.006897
0.00712853
0.00744609
0.00631203
0.00614536
0.0060921
0.00610613
0.00615474
0.00621896
0.00628771
0.00635464
0.00641605
0.0064698
0.00651452
0.00654928
0.00657298
0.00658541
0.00658604
0.0065747
0.0065517
0.00651832
0.00647751
0.00643499
0.00640116
0.00639467
0.00644856
0.00662375
0.00698985
0.00527851
0.00536205
0.00553833
0.00573036
0.0059112
0.00607223
0.00621155
0.00632978
0.00642816
0.00650774
0.00656923
0.00661315
0.0066394
0.00664716
0.00663543
0.00660266
0.00654701
0.0064662
0.00635786
0.00621982
0.00605109
0.00585455
0.00564146
0.00544589
0.00536261
0.00342462
0.00430089
0.00494886
0.00540792
0.00574602
0.00600438
0.00620686
0.00636774
0.00649565
0.00659587
0.0066715
0.00672424
0.00675503
0.00676254
0.00674561
0.00670152
0.00662625
0.00651412
0.00635714
0.00614398
0.00585765
0.00547289
0.00495146
0.00423295
0.00331379
0.00575483
0.00561028
0.00571405
0.00588986
0.00608921
0.00628415
0.00646035
0.00661258
0.00674
0.00684344
0.00692395
0.00698244
0.0070192
0.00703259
0.00702169
0.00698384
0.00691529
0.00681114
0.00666582
0.00647481
0.00623811
0.00596916
0.00570924
0.0055324
0.00562487
0.0133696
0.00827916
0.00698052
0.00655855
0.00650018
0.00657948
0.00670765
0.00683931
0.00695995
0.00706307
0.00714638
0.00721034
0.00725489
0.0072774
0.00727939
0.00725793
0.00720932
0.00712886
0.00701175
0.006858
0.00668987
0.00659361
0.0068035
0.00808589
0.014391
0.0507162
0.0167914
0.00924468
0.00737578
0.00691196
0.00687015
0.00695953
0.00707625
0.00717876
0.00727142
0.00735439
0.00743131
0.00749101
0.0075331
0.0075514
0.00754593
0.00751324
0.00744621
0.00733213
0.0071568
0.00694224
0.00684864
0.00743368
0.0107437
0.0251119
0.0631988
0.0245919
0.0116774
0.00829347
0.00717782
0.00683925
0.0066524
0.00656924
0.00658738
0.00665467
0.00678896
0.00692728
0.00705326
0.00715951
0.0072443
0.00731294
0.0073748
0.00743379
0.00747687
0.00743194
0.00716847
0.00695016
0.0078994
0.0132581
0.0315503
0.0272284
0.0179142
0.0102544
0.00596133
0.00444006
0.0037276
0.00342855
0.00338996
0.00363054
0.00401053
0.00443891
0.00482179
0.00510186
0.0052764
0.00538152
0.0054606
0.00558885
0.00584697
0.00628337
0.00695645
0.00732412
0.00730591
0.00849599
0.0128102
0.0201279
0.0132325
0.0105589
0.00454631
0.00145234
0.000507707
0.00024924
0.000219656
0.000249508
0.000368046
0.00067337
0.00110736
0.00144191
0.00159201
0.00162882
0.00159877
0.00155419
0.00161907
0.0018574
0.00235993
0.00327819
0.00510717
0.00666955
0.00788871
0.0115133
0.0145748
0.00562149
0.00487
0.00168989
0.000207639
4.72352e-06
1.15678e-06
8.73124e-07
8.58069e-07
1.27612e-06
1.4001e-05
7.86034e-05
0.000152415
0.000181555
0.000171382
0.000139388
9.73604e-05
7.66832e-05
9.13441e-05
0.000176759
0.000505814
0.00143235
0.00333917
0.00596824
0.00841364
0.00826704
)
;

boundaryField
{
    inlet
    {
        type            calculated;
        value           uniform 8.4375e-07;
    }
    outlet
    {
        type            calculated;
        value           nonuniform List<scalar> 
25
(
0.00562149
0.00487
0.00168989
8.4375e-07
8.4375e-07
8.4375e-07
8.4375e-07
8.4375e-07
8.4375e-07
1.4001e-05
7.86034e-05
0.000152415
0.000181555
0.000171382
0.000139388
9.73604e-05
7.66832e-05
8.4375e-07
8.4375e-07
0.000505814
0.00143235
0.00333917
0.00596824
0.00841364
0.00826704
)
;
    }
    walls
    {
        type            nutkWallFunction;
        Cmu             0.09;
        kappa           0.41;
        E               9.8;
        value           nonuniform List<scalar> 
150
(
1.686e-05
1.92069e-05
1.99061e-05
2.01415e-05
2.03239e-05
2.06808e-05
2.1034e-05
2.13475e-05
2.15468e-05
2.16752e-05
2.17141e-05
2.16487e-05
2.15629e-05
2.14794e-05
2.13926e-05
2.13082e-05
2.12593e-05
2.12412e-05
2.12278e-05
2.11889e-05
2.10676e-05
2.08062e-05
2.04271e-05
2.00225e-05
1.97722e-05
1.97458e-05
1.99592e-05
2.03302e-05
2.07449e-05
2.11487e-05
2.15356e-05
2.18927e-05
2.2196e-05
2.2448e-05
2.26643e-05
2.28613e-05
2.30492e-05
2.32317e-05
2.34037e-05
2.35504e-05
2.36722e-05
2.37841e-05
2.38943e-05
2.40085e-05
2.41271e-05
2.4249e-05
2.43723e-05
2.44949e-05
2.46164e-05
2.47371e-05
2.48552e-05
2.49694e-05
2.50832e-05
2.51924e-05
2.52976e-05
2.54066e-05
2.55143e-05
2.5623e-05
2.57425e-05
2.5871e-05
2.60159e-05
2.61948e-05
2.6416e-05
2.66962e-05
2.70676e-05
2.75762e-05
2.83112e-05
2.93594e-05
2.94275e-05
2.89007e-05
2.71033e-05
2.56793e-05
2.46804e-05
2.3124e-05
2.14749e-05
1.41277e-05
1.67652e-05
1.77256e-05
1.81637e-05
1.83486e-05
1.84297e-05
1.84213e-05
1.83808e-05
1.82871e-05
1.82043e-05
1.82231e-05
1.83893e-05
1.87457e-05
1.92173e-05
1.9679e-05
2.00379e-05
2.0392e-05
2.07324e-05
2.10053e-05
2.11843e-05
2.13027e-05
2.1399e-05
2.14842e-05
2.15585e-05
2.16228e-05
2.16782e-05
2.17271e-05
2.17697e-05
2.1803e-05
2.18234e-05
2.18307e-05
2.18377e-05
2.18444e-05
2.18462e-05
2.18665e-05
2.19303e-05
2.20466e-05
2.2221e-05
2.24308e-05
2.26201e-05
2.27807e-05
2.29475e-05
2.3116e-05
2.32854e-05
2.34582e-05
2.36328e-05
2.38093e-05
2.3987e-05
2.41641e-05
2.43396e-05
2.45154e-05
2.46924e-05
2.48705e-05
2.50502e-05
2.52327e-05
2.54197e-05
2.56118e-05
2.58102e-05
2.6017e-05
2.62356e-05
2.64707e-05
2.67292e-05
2.70227e-05
2.73722e-05
2.78112e-05
2.84083e-05
2.92982e-05
3.0569e-05
3.07674e-05
3.03907e-05
2.91428e-05
2.75546e-05
2.65768e-05
2.61237e-05
2.50799e-05
)
;
    }
    defaultFaces
    {
        type            empty;
    }
}


// ************************************************************************* //
