/*--------------------------------*- C++ -*----------------------------------*\
| =========                 |                                                 |
| \\      /  F ield         | OpenFOAM: The Open Source CFD Toolbox           |
|  \\    /   O peration     | Version:  2.3.0                                 |
|   \\  /    A nd           | Web:      www.OpenFOAM.org                      |
|    \\/     M anipulation  |                                                 |
\*---------------------------------------------------------------------------*/
FoamFile
{
    version     2.0;
    format      ascii;
    class       volScalarField;
    location    "3.50001";
    object      alpha.airMean;
}
// * * * * * * * * * * * * * * * * * * * * * * * * * * * * * * * * * * * * * //

dimensions      [0 0 0 0 0 0 0];

internalField   nonuniform List<scalar> 
10000
(
0.00473829
0.00480949
0.00534883
0.00868498
0.0907873
0.177167
0.279301
0.357298
0.382464
0.359494
0.359187
0.443899
0.416849
0.350505
0.252033
0.068048
0.0080343
0.00638199
0.00636249
0.0063682
1.04657e-07
1.11748e-07
4.12723e-06
0.00193109
0.121617
0.205095
0.280044
0.187688
0.196747
0.217042
0.187999
0.500903
0.536342
0.508107
0.463417
0.0904107
0.000699336
2.1304e-07
1.67631e-07
1.8153e-07
4.56406e-14
4.02639e-12
9.15275e-10
1.50328e-05
0.00839583
0.146966
0.228822
0.260612
0.260308
0.261267
0.239691
0.244431
0.310854
0.287888
0.229946
0.00693074
9.23398e-06
3.40509e-10
4.80344e-12
9.57105e-14
2.67382e-14
2.66478e-12
1.80647e-10
3.1557e-06
0.00504817
0.206827
0.246219
0.248785
0.247033
0.239624
0.239199
0.248352
0.248924
0.240913
0.18822
0.00478594
9.14233e-06
3.89133e-10
4.63969e-12
5.99165e-14
1.57502e-14
1.75862e-12
1.26926e-10
1.26613e-06
0.0038835
0.178356
0.228058
0.22735
0.217285
0.204533
0.214409
0.209288
0.226085
0.218539
0.162456
0.00383109
8.23206e-06
1.86696e-10
2.05478e-12
2.41259e-14
7.59599e-15
1.10861e-12
1.02473e-10
5.59682e-07
0.00269739
0.169709
0.215391
0.218488
0.192591
0.207587
0.195886
0.196348
0.204205
0.202872
0.153305
0.00312963
5.826e-06
1.10429e-10
1.32093e-12
1.18209e-14
2.65007e-15
4.81945e-13
6.00636e-11
8.55665e-08
0.00110203
0.15532
0.198402
0.193355
0.187568
0.176142
0.18622
0.17412
0.180959
0.185097
0.139612
0.00186262
3.69327e-06
7.74596e-11
7.40296e-13
5.30335e-15
4.12895e-16
9.9486e-14
1.40916e-11
9.24369e-09
0.00029393
0.101553
0.146815
0.162509
0.135762
0.145086
0.146566
0.137589
0.129702
0.127143
0.0819819
0.00133647
1.73706e-06
2.7133e-11
1.53494e-13
1.68416e-15
1.61546e-17
6.17129e-15
9.82316e-13
4.04528e-09
3.93054e-06
0.000321529
0.000464769
0.000940804
0.000574749
0.000712489
0.000657757
0.000725194
0.000646455
0.000529808
0.000437128
0.000524501
4.30095e-07
3.312e-12
2.36438e-14
1.75686e-16
1.16003e-21
2.18631e-19
4.28635e-17
7.62853e-14
2.02608e-10
3.12012e-13
6.55722e-16
7.59318e-18
4.72849e-20
1.35112e-22
2.70879e-23
1.00976e-22
3.85115e-10
3.90149e-12
1.76299e-10
5.08376e-06
5.25363e-09
2.2071e-21
6.19634e-23
2.0019e-24
0
0
0
0
0
0
0
1.85278e-32
7.28253e-28
1.68663e-25
5.61068e-20
3.75165e-20
2.48599e-12
1.39753e-15
3.82978e-18
1.74668e-20
7.71858e-23
3.59163e-25
3.41168e-27
6.54155e-30
0
0
0
0
0
0
0
0
0
0
0
0
0
0
0
0
0
0
0
0
0
0
0
0
0
0
0
0
0
0
0
0
0
0
0
0
0
0
0
0
0
0
0
0
0
0
0
0
0
0
0
0
0
0
0
0
0
0
0
0
0
0
0
0
0
0
0
0
0
0
0
0
0
0
0
0
0
0
0
0
0
0
0
0
0
0
0
0
0
0
0
0
0
0
0
0
0
0
0
0
0
0
0
0
0
0
0
0
0
0
0
0
0
0
0
0
0
0
0
0
0
0
0
0
0
0
0
0
0
0
0
0
0
0
0
0
0
0
0
0
0
0
0
0
0
0
0
0
0
0
0
0
0
0
0
0
0
0
0
0
0
0
0
0
0
0
0
0
0
0
0
0
0
0
0
0
0
0
0
0
0.00489358
0.00488518
0.0054496
0.00897442
0.0962548
0.181025
0.284455
0.368407
0.39384
0.367047
0.363992
0.449223
0.421333
0.355442
0.255267
0.0738563
0.00820237
0.00656391
0.00649275
0.00654092
1.24724e-07
1.23079e-07
4.04353e-06
0.00245719
0.133777
0.209289
0.284787
0.187485
0.196027
0.216988
0.187298
0.505911
0.542271
0.514917
0.473728
0.106397
0.000872236
2.64514e-07
2.1533e-07
2.32575e-07
3.98553e-14
3.62322e-12
7.84316e-10
1.4994e-05
0.00955277
0.145187
0.229836
0.262615
0.26211
0.263365
0.240413
0.244282
0.314439
0.289789
0.234274
0.0076802
8.9434e-06
3.72144e-10
4.57127e-12
9.16586e-14
2.19234e-14
2.43453e-12
1.70901e-10
2.96529e-06
0.00506235
0.208154
0.24777
0.251494
0.250453
0.2427
0.241194
0.251032
0.251427
0.242461
0.189498
0.00474105
1.07432e-05
6.74261e-10
4.45596e-12
5.68555e-14
1.25323e-14
1.5533e-12
1.1667e-10
1.26678e-06
0.00406623
0.179057
0.22911
0.228886
0.219297
0.205383
0.216169
0.211027
0.228187
0.21951
0.16313
0.00385174
1.06671e-05
5.27513e-10
1.93421e-12
2.19202e-14
6.13493e-15
9.72578e-13
9.14015e-11
5.71259e-07
0.00294958
0.170306
0.216039
0.219672
0.193192
0.208549
0.196458
0.197485
0.205454
0.203525
0.153478
0.00314811
6.93241e-06
2.39468e-10
1.23478e-12
1.07278e-14
2.2156e-15
4.24992e-13
5.13144e-11
8.69072e-08
0.00125524
0.156523
0.199244
0.193853
0.188625
0.177074
0.186893
0.175008
0.182144
0.186115
0.141383
0.00177218
4.02223e-06
1.06127e-10
6.95574e-13
4.93083e-15
3.91188e-16
1.03522e-13
1.51873e-11
7.23029e-09
0.000329206
0.105739
0.150817
0.166307
0.13986
0.149461
0.150772
0.142355
0.134562
0.131744
0.0867379
0.00125753
1.51971e-06
2.4725e-11
1.54286e-13
1.67516e-15
1.28037e-17
4.81887e-15
7.45081e-13
2.57265e-09
3.85273e-06
0.000341743
0.000487073
0.000978233
0.000607803
0.000757416
0.000694016
0.000773494
0.000679071
0.000550197
0.000454232
0.000554455
3.79456e-07
2.52844e-12
2.13768e-14
1.71117e-16
1.13244e-21
2.06614e-19
3.84597e-17
4.94268e-14
1.19042e-10
3.31694e-13
8.05091e-16
8.41506e-18
5.02111e-20
1.43317e-22
3.92212e-21
8.31702e-21
6.63618e-11
8.07789e-13
4.90724e-11
4.1099e-06
5.75529e-09
1.00263e-20
2.04614e-22
6.1513e-24
0
0
0
0
0
0
0
3.75102e-33
1.90465e-28
8.42811e-24
4.14277e-18
2.37736e-18
4.2342e-13
4.34358e-16
4.73069e-19
2.44003e-21
2.38005e-23
1.80434e-25
1.97622e-27
4.58078e-30
0
0
0
0
0
0
0
0
0
0
0
0
0
0
0
0
0
0
0
0
0
0
0
0
0
0
0
0
0
0
0
0
0
0
0
0
0
0
0
0
0
0
0
0
0
0
0
0
0
0
0
0
0
0
0
0
0
0
0
0
0
0
0
0
0
0
0
0
0
0
0
0
0
0
0
0
0
0
0
0
0
0
0
0
0
0
0
0
0
0
0
0
0
0
0
0
0
0
0
0
0
0
0
0
0
0
0
0
0
0
0
0
0
0
0
0
0
0
0
0
0
0
0
0
0
0
0
0
0
0
0
0
0
0
0
0
0
0
0
0
0
0
0
0
0
0
0
0
0
0
0
0
0
0
0
0
0
0
0
0
0
0
0
0
0
0
0
0
0
0
0
0
0
0
0
0
0
0
0
0
0.00497036
0.00493084
0.00551011
0.00914749
0.0996482
0.183186
0.28716
0.375334
0.400638
0.371518
0.366331
0.45189
0.422753
0.356727
0.254876
0.0772361
0.00833037
0.00670426
0.00661507
0.00666528
1.23224e-07
1.19129e-07
3.62099e-06
0.0027782
0.142466
0.211933
0.287662
0.187313
0.195583
0.216939
0.186847
0.509254
0.54557
0.51883
0.480031
0.116545
0.000862705
2.60995e-07
2.23028e-07
2.38558e-07
3.59717e-14
3.3292e-12
5.79418e-10
1.5365e-05
0.0104094
0.144171
0.230408
0.263595
0.262856
0.264354
0.240662
0.243772
0.315755
0.290384
0.236598
0.00824378
5.9269e-06
2.09032e-10
4.2531e-12
8.82346e-14
1.79696e-14
2.159e-12
1.47636e-10
2.46772e-06
0.00505196
0.208939
0.248719
0.253114
0.25248
0.24452
0.242314
0.252467
0.252792
0.243382
0.190209
0.00461975
5.1794e-06
3.17207e-10
4.20679e-12
5.48077e-14
1.02947e-14
1.36888e-12
1.02761e-10
1.14265e-06
0.00414965
0.179453
0.229779
0.229918
0.220622
0.205977
0.217231
0.212097
0.229505
0.220098
0.163526
0.00379689
4.81906e-06
2.76397e-10
1.84186e-12
2.10501e-14
5.07484e-15
8.42889e-13
7.92177e-11
5.2281e-07
0.00310007
0.170629
0.216433
0.220402
0.193581
0.209104
0.196811
0.198206
0.206239
0.203919
0.153564
0.00303264
3.49775e-06
1.71364e-10
1.18739e-12
1.02899e-14
1.86645e-15
3.85159e-13
4.64137e-11
7.11373e-08
0.00136005
0.157135
0.199677
0.1941
0.189162
0.17753
0.187229
0.175439
0.182745
0.186624
0.142241
0.00151573
1.53929e-06
7.49648e-11
6.6843e-13
4.75409e-15
3.74911e-16
1.02172e-13
1.55946e-11
4.97931e-09
0.000357849
0.108021
0.152972
0.168352
0.142076
0.151828
0.153034
0.144932
0.1372
0.134235
0.0893363
0.000817964
5.44824e-07
2.20102e-11
1.55486e-13
1.67427e-15
9.95269e-18
3.80734e-15
6.72527e-13
1.10579e-09
3.55725e-06
0.000352953
0.000499461
0.000998699
0.000626023
0.000782203
0.000713406
0.000799198
0.000694056
0.000554084
0.000403075
0.000459514
2.41964e-07
1.83319e-12
1.95452e-14
1.70028e-16
1.06093e-21
1.833e-19
3.02624e-17
2.10663e-14
6.403e-11
3.08459e-13
1.01689e-15
9.80642e-18
5.39689e-20
1.52184e-22
5.1974e-19
1.04207e-18
1.00643e-10
6.88796e-13
2.52355e-12
1.37648e-06
1.78213e-09
6.07121e-20
8.70115e-22
2.07785e-23
0
0
0
0
0
0
0
9.95517e-32
1.06612e-26
6.46691e-22
4.25101e-16
2.62526e-16
5.40226e-13
3.82575e-16
2.53124e-19
6.37772e-22
5.91448e-24
6.50415e-26
7.97037e-28
2.2242e-30
0
0
0
0
0
0
0
0
0
0
0
0
0
0
0
0
0
0
0
0
0
0
0
0
0
0
0
0
0
0
0
0
0
0
0
0
0
0
0
0
0
0
0
0
0
0
0
0
0
0
0
0
0
0
0
0
0
0
0
0
0
0
0
0
0
0
0
0
0
0
0
0
0
0
0
0
0
0
0
0
0
0
0
0
0
0
0
0
0
0
0
0
0
0
0
0
0
0
0
0
0
0
0
0
0
0
0
0
0
0
0
0
0
0
0
0
0
0
0
0
0
0
0
0
0
0
0
0
0
0
0
0
0
0
0
0
0
0
0
0
0
0
0
0
0
0
0
0
0
0
0
0
0
0
0
0
0
0
0
0
0
0
0
0
0
0
0
0
0
0
0
0
0
0
0
0
0
0
0
0
0.00492684
0.00487504
0.00545827
0.00912955
0.102446
0.184833
0.289577
0.382936
0.407641
0.37668
0.369049
0.454926
0.423826
0.357164
0.25381
0.0791918
0.00819576
0.00665458
0.00654499
0.00658703
1.2861e-07
1.20741e-07
3.41864e-06
0.00324463
0.153166
0.214992
0.290796
0.187055
0.195061
0.216858
0.186247
0.512502
0.549203
0.523183
0.487287
0.127767
0.000754863
2.55301e-07
2.23688e-07
2.4104e-07
3.27046e-14
3.00943e-12
4.798e-10
1.64019e-05
0.0113945
0.142816
0.230939
0.2645
0.263465
0.265273
0.240791
0.242916
0.3171
0.291008
0.238939
0.00915623
4.60055e-06
1.49452e-10
3.91825e-12
8.58749e-14
1.51461e-14
1.93903e-12
1.29294e-10
2.05449e-06
0.00506699
0.20985
0.249801
0.2549
0.254693
0.246548
0.243521
0.253984
0.254217
0.244434
0.191045
0.0045378
1.99721e-06
1.5612e-10
3.94739e-12
5.32424e-14
8.75444e-15
1.2448e-12
9.43072e-11
1.03345e-06
0.00424409
0.179897
0.230568
0.231165
0.222213
0.206709
0.21845
0.213305
0.231034
0.22078
0.164009
0.0037743
1.18277e-06
7.94287e-11
1.74265e-12
2.10235e-14
4.37353e-15
7.75479e-13
7.41961e-11
4.95049e-07
0.00328069
0.170994
0.216899
0.221267
0.194056
0.209735
0.197231
0.199069
0.207175
0.20439
0.153707
0.00303799
8.22137e-07
6.74751e-11
1.1426e-12
1.03793e-14
1.68263e-15
3.70664e-13
4.46528e-11
6.8599e-08
0.00149804
0.157789
0.200134
0.194359
0.189733
0.178003
0.187583
0.175887
0.183387
0.187171
0.143199
0.00145421
2.36646e-07
5.38843e-11
6.53727e-13
4.83948e-15
3.78791e-16
1.07408e-13
1.62361e-11
4.76201e-09
0.000408545
0.110561
0.155331
0.170589
0.144503
0.154415
0.155508
0.147753
0.140109
0.137018
0.0923578
0.000540055
1.12498e-07
2.09332e-11
1.65986e-13
1.74677e-15
8.2174e-18
3.09714e-15
5.60661e-13
1.02974e-09
4.21964e-06
0.000366146
0.000514516
0.00102313
0.000648415
0.000812959
0.000738125
0.000835681
0.000726213
0.000575843
0.000415487
0.000261118
9.66535e-08
1.25567e-12
1.7789e-14
1.67599e-16
9.20408e-22
1.59473e-19
2.25939e-17
1.01409e-14
3.9321e-11
2.64359e-13
1.29289e-15
1.20443e-17
5.94312e-20
6.119e-22
1.29509e-10
2.34087e-10
5.07071e-10
2.29936e-12
2.51976e-13
8.35896e-08
1.78381e-10
3.23529e-19
4.02766e-21
7.08696e-23
0
0
0
0
0
0
0
1.48679e-30
6.30115e-25
1.0721e-19
6.57419e-14
6.24073e-14
2.23956e-13
8.62026e-17
3.53324e-20
6.00461e-23
1.02881e-24
1.79157e-26
2.40125e-28
7.76623e-31
0
0
0
0
0
0
0
0
0
0
0
0
0
0
0
0
0
0
0
0
0
0
0
0
0
0
0
0
0
0
0
0
0
0
0
0
0
0
0
0
0
0
0
0
0
0
0
0
0
0
0
0
0
0
0
0
0
0
0
0
0
0
0
0
0
0
0
0
0
0
0
0
0
0
0
0
0
0
0
0
0
0
0
0
0
0
0
0
0
0
0
0
0
0
0
0
0
0
0
0
0
0
0
0
0
0
0
0
0
0
0
0
0
0
0
0
0
0
0
0
0
0
0
0
0
0
0
0
0
0
0
0
0
0
0
0
0
0
0
0
0
0
0
0
0
0
0
0
0
0
0
0
0
0
0
0
0
0
0
0
0
0
0
0
0
0
0
0
0
0
0
0
0
0
0
0
0
0
0
0
0.00490682
0.00484702
0.00543473
0.00914184
0.105933
0.186872
0.292719
0.390768
0.414463
0.382357
0.371998
0.458264
0.42474
0.357554
0.253161
0.0814995
0.00807275
0.00659738
0.00646904
0.00651147
1.34172e-07
1.22951e-07
3.19918e-06
0.00365847
0.164555
0.218083
0.29392
0.186804
0.194506
0.21679
0.185593
0.515764
0.552651
0.527371
0.494669
0.138957
0.000632324
2.49708e-07
2.20407e-07
2.41608e-07
3.04551e-14
2.71323e-12
3.99877e-10
1.7108e-05
0.0125505
0.141621
0.231503
0.265251
0.263917
0.266034
0.240883
0.241874
0.318044
0.291401
0.240994
0.0103225
4.20546e-06
1.28582e-10
3.60912e-12
8.45295e-14
1.29439e-14
1.72657e-12
1.11948e-10
1.71995e-06
0.00507929
0.210732
0.250832
0.256558
0.256723
0.248466
0.244616
0.255314
0.255453
0.245447
0.191848
0.00449428
1.49668e-06
1.38412e-10
3.68347e-12
5.20526e-14
7.52442e-15
1.11616e-12
8.70468e-11
9.35443e-07
0.00431716
0.180333
0.231374
0.232466
0.223866
0.2075
0.219651
0.214485
0.232541
0.22145
0.164481
0.00377668
7.92752e-07
6.94715e-11
1.62999e-12
2.14377e-14
3.77874e-15
7.02204e-13
6.77615e-11
4.75005e-07
0.0034481
0.171328
0.217366
0.22215
0.194562
0.210346
0.197656
0.199957
0.208138
0.204859
0.153848
0.00311676
4.34289e-07
5.9727e-11
1.09094e-12
1.08391e-14
1.54238e-15
3.5092e-13
4.14593e-11
6.91949e-08
0.0016397
0.158369
0.200539
0.194583
0.190235
0.178407
0.187891
0.176267
0.183954
0.187652
0.14403
0.00152627
8.3764e-08
4.99381e-11
6.36069e-13
5.05664e-15
3.82296e-16
1.12425e-13
1.68572e-11
4.59977e-09
0.000466685
0.112877
0.157464
0.17261
0.146697
0.156749
0.157735
0.150296
0.142744
0.139546
0.0951509
0.000492492
2.53443e-08
2.04774e-11
1.76354e-13
1.83539e-15
7.24779e-18
2.56128e-15
4.39332e-13
8.68696e-10
5.47018e-06
0.000376732
0.000526842
0.00104275
0.00066711
0.000838828
0.000758168
0.000867143
0.000757095
0.000599707
0.000449091
0.000110947
1.75247e-08
8.14645e-13
1.59082e-14
1.60884e-16
7.67344e-22
1.42903e-19
2.60892e-17
1.57764e-14
3.37907e-10
4.89363e-13
2.23381e-15
1.96372e-17
7.28031e-20
9.39921e-12
1.45865e-10
1.859e-10
3.92694e-10
1.2423e-12
5.2391e-14
4.06056e-10
2.28139e-11
2.18043e-18
1.7993e-20
2.23502e-22
0
0
0
0
0
0
0
2.26297e-33
1.2905e-26
1.42808e-20
1.14507e-14
4.21305e-17
2.0388e-16
1.94366e-19
1.32388e-22
4.60024e-25
1.31027e-25
3.93702e-27
5.61729e-29
1.99272e-31
0
0
0
0
0
0
0
0
0
0
0
0
0
0
0
0
0
0
0
0
0
0
0
0
0
0
0
0
0
0
0
0
0
0
0
0
0
0
0
0
0
0
0
0
0
0
0
0
0
0
0
0
0
0
0
0
0
0
0
0
0
0
0
0
0
0
0
0
0
0
0
0
0
0
0
0
0
0
0
0
0
0
0
0
0
0
0
0
0
0
0
0
0
0
0
0
0
0
0
0
0
0
0
0
0
0
0
0
0
0
0
0
0
0
0
0
0
0
0
0
0
0
0
0
0
0
0
0
0
0
0
0
0
0
0
0
0
0
0
0
0
0
0
0
0
0
0
0
0
0
0
0
0
0
0
0
0
0
0
0
0
0
0
0
0
0
0
0
0
0
0
0
0
0
0
0
0
0
0
0
0.00489169
0.00481867
0.0054112
0.00913914
0.109529
0.188901
0.296075
0.398319
0.421147
0.388087
0.374888
0.462051
0.425864
0.35814
0.252532
0.0836787
0.00798609
0.00656199
0.0064134
0.00645829
1.40408e-07
1.26458e-07
2.82126e-06
0.00401619
0.177235
0.221399
0.297114
0.186529
0.193921
0.21671
0.184857
0.51894
0.556136
0.531633
0.502444
0.150387
0.000502217
2.58954e-07
2.24695e-07
2.48739e-07
2.85969e-14
2.38547e-12
2.97248e-10
1.72274e-05
0.0138983
0.14036
0.232018
0.265862
0.264245
0.266663
0.240892
0.240582
0.318735
0.291621
0.242809
0.0118049
4.23737e-06
1.09887e-10
3.34331e-12
8.34039e-14
1.13038e-14
1.51899e-12
9.79093e-11
1.44015e-06
0.00509784
0.21164
0.25185
0.25812
0.258607
0.250328
0.245643
0.256539
0.256554
0.246459
0.192663
0.00446673
1.23805e-06
1.20769e-10
3.43804e-12
5.09007e-14
6.52574e-15
9.74361e-13
8.01692e-11
8.41459e-07
0.00437798
0.180768
0.232214
0.23384
0.225615
0.208364
0.220868
0.215646
0.234053
0.222129
0.164966
0.00378652
6.80458e-07
6.22398e-11
1.50904e-12
2.17602e-14
3.26554e-15
6.14192e-13
6.35873e-11
4.54503e-07
0.0036085
0.171657
0.217858
0.223091
0.195121
0.210968
0.19811
0.200907
0.209162
0.205345
0.153995
0.00320878
3.75266e-07
5.38866e-11
1.02031e-12
1.13229e-14
1.42489e-15
3.18588e-13
3.89813e-11
7.03043e-08
0.00178896
0.158913
0.200919
0.194789
0.190706
0.178772
0.188166
0.17661
0.184487
0.1881
0.144797
0.0016259
6.73404e-08
4.43777e-11
5.96017e-13
5.28717e-15
3.9163e-16
1.15757e-13
1.8087e-11
4.48319e-09
0.000534177
0.115133
0.159518
0.174558
0.148808
0.158989
0.159879
0.152733
0.145283
0.141989
0.0978854
0.000522003
1.27232e-08
1.99733e-11
1.82526e-13
1.90948e-15
5.9799e-18
1.94223e-15
3.16788e-13
3.0507e-10
6.58547e-06
0.000383602
0.000534664
0.00105578
0.000678946
0.00085528
0.000771004
0.000887207
0.000777153
0.000615003
0.000479402
9.93746e-05
7.55812e-10
5.22596e-13
1.40799e-14
1.5177e-16
6.35871e-22
1.06111e-19
9.3517e-18
1.81702e-15
2.32866e-21
0
2.87856e-24
0
2.64047e-29
2.58977e-21
0
8.54559e-19
3.16489e-18
5.36982e-21
4.20347e-22
9.49669e-12
8.45781e-14
8.75145e-18
6.40633e-20
5.15851e-22
0
0
0
0
0
0
0
0
0
0
0
0
0
0
0
3.89014e-34
1.27377e-26
7.07615e-28
1.04088e-29
3.73202e-32
0
0
0
0
0
0
0
0
0
0
0
0
0
0
0
0
0
0
0
0
0
0
0
0
0
0
0
0
0
0
0
0
0
0
0
0
0
0
0
0
0
0
0
0
0
0
0
0
0
0
0
0
0
0
0
0
0
0
0
0
0
0
0
0
0
0
0
0
0
0
0
0
0
0
0
0
0
0
0
0
0
0
0
0
0
0
0
0
0
0
0
0
0
0
0
0
0
0
0
0
0
0
0
0
0
0
0
0
0
0
0
0
0
0
0
0
0
0
0
0
0
0
0
0
0
0
0
0
0
0
0
0
0
0
0
0
0
0
0
0
0
0
0
0
0
0
0
0
0
0
0
0
0
0
0
0
0
0
0
0
0
0
0
0
0
0
0
0
0
0
0
0
0
0
0
0
0
0
0
0
0.00488371
0.00479757
0.00539562
0.00911669
0.113442
0.191109
0.300105
0.405533
0.427646
0.393891
0.37771
0.466031
0.426961
0.35882
0.252134
0.0858022
0.00793353
0.00654183
0.00637363
0.00641964
1.4612e-07
1.30281e-07
2.56737e-06
0.00432933
0.190771
0.22486
0.300331
0.186262
0.193338
0.216636
0.184067
0.522017
0.55955
0.535822
0.510296
0.161865
0.000406905
2.74184e-07
2.31e-07
2.56887e-07
2.73062e-14
2.07249e-12
2.22308e-10
1.72246e-05
0.0155219
0.139128
0.232536
0.266374
0.26448
0.267195
0.240859
0.23913
0.319151
0.291656
0.244396
0.0136164
4.61505e-06
9.80261e-11
3.13772e-12
8.08003e-14
1.0123e-14
1.31031e-12
8.50342e-11
1.1916e-06
0.00511945
0.21255
0.252832
0.259545
0.26029
0.252082
0.24658
0.257635
0.25751
0.247453
0.193468
0.00444443
1.0194e-06
1.09104e-10
3.24905e-12
4.88592e-14
5.698e-15
8.29473e-13
7.16017e-11
7.43781e-07
0.00442421
0.181199
0.233072
0.235257
0.227423
0.209296
0.222076
0.216762
0.235525
0.222804
0.165449
0.00378889
5.83483e-07
5.62755e-11
1.40505e-12
2.14848e-14
2.78934e-15
5.21411e-13
5.81225e-11
4.27126e-07
0.00375562
0.171966
0.218369
0.224081
0.195735
0.211587
0.198584
0.201904
0.210235
0.205839
0.154144
0.00329102
3.31709e-07
4.87983e-11
9.50418e-13
1.13884e-14
1.27352e-15
2.79222e-13
3.67778e-11
7.0599e-08
0.00194099
0.159408
0.201265
0.194971
0.191132
0.179093
0.18841
0.176908
0.184976
0.188506
0.145477
0.00172801
6.06946e-08
3.92265e-11
5.54185e-13
5.42894e-15
3.82622e-16
1.06034e-13
1.88033e-11
4.7546e-09
0.000610934
0.117242
0.161425
0.176376
0.150772
0.161072
0.161873
0.154993
0.147646
0.144264
0.100456
0.000562006
1.05266e-08
1.81378e-11
1.84086e-13
1.94822e-15
4.17914e-18
1.19996e-15
1.81501e-13
7.17605e-11
5.63608e-06
0.000384694
0.00053596
0.00105698
0.000680857
0.000858149
0.000772635
0.00088896
0.000776766
0.000612775
0.000475263
6.87157e-05
3.78057e-10
3.13241e-13
1.22148e-14
1.42159e-16
5.282e-22
8.01036e-20
4.25722e-18
3.86736e-16
2.79903e-22
0
0
0
0
0
0
0
0
0
0
1.53414e-20
5.81167e-15
4.14124e-18
2.66896e-20
2.03247e-22
0
0
0
0
0
0
0
0
0
0
0
0
0
0
0
1.13829e-35
9.03968e-28
1.04237e-28
1.53075e-30
5.06454e-33
0
0
0
0
0
0
0
0
0
0
0
0
0
0
0
0
0
0
0
0
0
0
0
0
0
0
0
0
0
0
0
0
0
0
0
0
0
0
0
0
0
0
0
0
0
0
0
0
0
0
0
0
0
0
0
0
0
0
0
0
0
0
0
0
0
0
0
0
0
0
0
0
0
0
0
0
0
0
0
0
0
0
0
0
0
0
0
0
0
0
0
0
0
0
0
0
0
0
0
0
0
0
0
0
0
0
0
0
0
0
0
0
0
0
0
0
0
0
0
0
0
0
0
0
0
0
0
0
0
0
0
0
0
0
0
0
0
0
0
0
0
0
0
0
0
0
0
0
0
0
0
0
0
0
0
0
0
0
0
0
0
0
0
0
0
0
0
0
0
0
0
0
0
0
0
0
0
0
0
0
0.00487645
0.00477771
0.00538169
0.00907786
0.117609
0.193376
0.304675
0.412435
0.434182
0.399459
0.380579
0.470348
0.428257
0.359698
0.251829
0.0877534
0.00790151
0.00652559
0.00633873
0.00638506
1.51224e-07
1.34247e-07
2.36879e-06
0.00431807
0.205033
0.228524
0.303552
0.186011
0.19276
0.216582
0.183221
0.525021
0.563003
0.540044
0.518405
0.173173
0.00038321
2.94292e-07
2.37622e-07
2.64494e-07
2.62968e-14
1.80845e-12
1.73416e-10
1.61989e-05
0.0174333
0.137865
0.233013
0.266783
0.264641
0.267633
0.240772
0.237492
0.319332
0.291532
0.24577
0.0157728
5.50764e-06
8.43065e-11
2.81528e-12
7.39203e-14
9.30709e-15
1.13236e-12
7.4121e-11
9.69947e-07
0.00514609
0.213474
0.25378
0.260827
0.261765
0.253722
0.247428
0.258627
0.258335
0.248429
0.194273
0.00443035
8.28884e-07
9.09322e-11
2.87136e-12
4.29138e-14
5.02393e-15
6.99626e-13
6.35619e-11
6.37862e-07
0.00445785
0.181628
0.233941
0.236694
0.229266
0.210283
0.223271
0.217814
0.236937
0.223474
0.165934
0.00378611
4.90712e-07
4.68222e-11
1.18971e-12
1.89724e-14
2.35706e-15
4.34712e-13
5.36474e-11
3.88523e-07
0.00388844
0.172266
0.218902
0.225127
0.196408
0.212208
0.199081
0.20295
0.21136
0.206345
0.154296
0.00336342
2.8799e-07
4.11952e-11
8.16956e-13
1.04338e-14
1.08879e-15
2.35064e-13
3.35909e-11
6.85106e-08
0.00209323
0.159866
0.201585
0.195136
0.191526
0.179375
0.188627
0.177169
0.185432
0.18888
0.146094
0.00183021
5.43337e-08
3.39462e-11
5.03259e-13
5.25955e-15
3.46422e-16
9.48509e-14
1.8578e-11
5.20365e-09
0.00069563
0.119231
0.163208
0.178072
0.152605
0.16301
0.163729
0.157091
0.149852
0.146392
0.10289
0.000612409
9.20075e-09
1.62886e-11
1.78571e-13
1.89872e-15
2.54513e-18
6.25139e-16
8.69189e-14
2.46837e-11
5.06093e-06
0.000385751
0.000536949
0.00105868
0.000682297
0.000860348
0.00077392
0.000890331
0.000776611
0.000611375
0.000469524
1.50227e-05
2.99786e-10
1.8123e-13
1.05078e-14
1.33676e-16
4.37833e-22
5.83138e-20
1.87935e-18
7.67277e-17
4.96047e-23
0
0
0
0
0
0
0
0
0
0
1.59365e-21
1.096e-15
2.04999e-18
1.11126e-20
6.40605e-23
0
0
0
0
0
0
0
0
0
0
0
0
0
0
0
2.83379e-37
4.42431e-29
1.24245e-29
1.7611e-31
4.88972e-34
0
0
0
0
0
0
0
0
0
0
0
0
0
0
0
0
0
0
0
0
0
0
0
0
0
0
0
0
0
0
0
0
0
0
0
0
0
0
0
0
0
0
0
0
0
0
0
0
0
0
0
0
0
0
0
0
0
0
0
0
0
0
0
0
0
0
0
0
0
0
0
0
0
0
0
0
0
0
0
0
0
0
0
0
0
0
0
0
0
0
0
0
0
0
0
0
0
0
0
0
0
0
0
0
0
0
0
0
0
0
0
0
0
0
0
0
0
0
0
0
0
0
0
0
0
0
0
0
0
0
0
0
0
0
0
0
0
0
0
0
0
0
0
0
0
0
0
0
0
0
0
0
0
0
0
0
0
0
0
0
0
0
0
0
0
0
0
0
0
0
0
0
0
0
0
0
0
0
0
0
0.00487122
0.00476008
0.00537073
0.00905554
0.122203
0.195766
0.309722
0.418839
0.440647
0.404796
0.383319
0.474657
0.429806
0.360726
0.251827
0.0896178
0.00788339
0.00651183
0.00630688
0.00635311
1.55568e-07
1.38188e-07
2.13517e-06
0.00420197
0.220461
0.232304
0.306762
0.18579
0.1922
0.216558
0.182324
0.527924
0.566404
0.544197
0.526732
0.184288
0.000375037
3.19196e-07
2.43952e-07
2.70774e-07
2.51634e-14
1.56377e-12
1.34473e-10
1.51941e-05
0.0198068
0.136596
0.233493
0.267113
0.264754
0.267999
0.240656
0.235725
0.319215
0.291199
0.246903
0.0182485
7.01715e-06
7.80053e-11
2.64295e-12
6.90537e-14
8.67453e-15
9.63938e-13
6.32922e-11
7.72855e-07
0.00517809
0.214398
0.254686
0.261953
0.263024
0.255225
0.248184
0.259514
0.25904
0.249381
0.195066
0.00442249
6.6403e-07
7.92875e-11
2.61732e-12
3.77498e-14
4.45202e-15
5.79907e-13
5.37e-11
5.26489e-07
0.00447945
0.182051
0.234809
0.238122
0.231107
0.211319
0.224438
0.218788
0.238259
0.224132
0.166412
0.00377742
4.0342e-07
3.8451e-11
1.02253e-12
1.64579e-14
1.98607e-15
3.49978e-13
4.57243e-11
3.39545e-07
0.00400535
0.172549
0.219455
0.226224
0.19714
0.212822
0.199597
0.204031
0.212528
0.20686
0.154449
0.00342365
2.43243e-07
3.35919e-11
6.95644e-13
9.18254e-15
8.80555e-16
1.86675e-13
2.89935e-11
6.29743e-08
0.00224218
0.160282
0.201879
0.195284
0.191885
0.17962
0.188817
0.177391
0.185853
0.189221
0.14664
0.00192929
4.74925e-08
2.78561e-11
4.38708e-13
4.75526e-15
2.69837e-16
7.71561e-14
1.62152e-11
5.6302e-09
0.000786616
0.12106
0.16484
0.179625
0.15428
0.164781
0.165424
0.159005
0.15187
0.148342
0.10514
0.00067218
8.04995e-09
1.4766e-11
1.64805e-13
1.747e-15
1.57085e-18
3.06257e-16
3.89739e-14
1.00924e-11
4.76726e-06
0.000386077
0.000536882
0.00105861
0.000682279
0.000860677
0.000773974
0.000889874
0.000775608
0.000609973
0.0004688
8.51876e-06
1.63286e-10
1.08077e-13
8.98383e-15
1.26089e-16
3.58645e-22
4.12582e-20
8.36032e-19
1.34021e-17
7.22581e-24
0
0
0
0
0
0
0
0
0
0
3.51392e-22
3.35987e-16
8.80292e-19
4.66083e-21
2.22897e-23
0
0
0
0
0
0
0
0
0
0
0
0
0
0
0
4.88488e-39
1.36121e-30
1.16463e-30
1.53117e-32
3.35968e-35
0
0
0
0
0
0
0
0
0
0
0
0
0
0
0
0
0
0
0
0
0
0
0
0
0
0
0
0
0
0
0
0
0
0
0
0
0
0
0
0
0
0
0
0
0
0
0
0
0
0
0
0
0
0
0
0
0
0
0
0
0
0
0
0
0
0
0
0
0
0
0
0
0
0
0
0
0
0
0
0
0
0
0
0
0
0
0
0
0
0
0
0
0
0
0
0
0
0
0
0
0
0
0
0
0
0
0
0
0
0
0
0
0
0
0
0
0
0
0
0
0
0
0
0
0
0
0
0
0
0
0
0
0
0
0
0
0
0
0
0
0
0
0
0
0
0
0
0
0
0
0
0
0
0
0
0
0
0
0
0
0
0
0
0
0
0
0
0
0
0
0
0
0
0
0
0
0
0
0
0
0.00486806
0.00474415
0.0053626
0.00907344
0.127242
0.19818
0.31514
0.4248
0.447086
0.409877
0.385835
0.479125
0.431537
0.362009
0.252201
0.0915624
0.00788139
0.0065009
0.00627807
0.00632416
1.59056e-07
1.41975e-07
1.97373e-06
0.00422021
0.238101
0.236155
0.309982
0.185597
0.191659
0.216566
0.181377
0.53074
0.569841
0.548366
0.535508
0.195439
0.00038857
3.50814e-07
2.49951e-07
2.75615e-07
2.41766e-14
1.36528e-12
1.08049e-10
1.47743e-05
0.0226909
0.135304
0.233945
0.267373
0.264835
0.2683
0.240507
0.233808
0.318823
0.290658
0.247744
0.021001
9.1526e-06
7.97402e-11
2.57242e-12
6.61333e-14
8.29025e-15
8.31579e-13
5.34084e-11
6.09192e-07
0.00521546
0.215327
0.255553
0.262929
0.264081
0.256587
0.248852
0.260316
0.259637
0.250306
0.195851
0.00442096
5.28628e-07
7.11728e-11
2.44658e-12
3.39277e-14
4.06778e-15
4.91259e-13
4.5362e-11
4.18859e-07
0.00449106
0.18247
0.235665
0.239515
0.232915
0.212388
0.225567
0.219672
0.239473
0.224776
0.166885
0.00376467
3.25778e-07
3.27022e-11
9.24337e-13
1.49516e-14
1.70639e-15
2.86579e-13
3.91498e-11
2.84841e-07
0.00410628
0.172821
0.22003
0.227371
0.197933
0.213432
0.200131
0.205143
0.213733
0.207383
0.154605
0.00347224
2.00118e-07
2.83758e-11
6.24728e-13
8.42248e-15
6.81009e-16
1.43525e-13
2.45535e-11
5.46901e-08
0.0023852
0.160664
0.20215
0.195419
0.192214
0.179835
0.188987
0.177583
0.186245
0.189534
0.147133
0.00202251
4.01772e-08
2.37011e-11
3.92615e-13
4.34012e-15
1.84174e-16
6.17103e-14
1.42623e-11
5.75185e-09
0.000881328
0.122759
0.166346
0.181056
0.155823
0.166407
0.166983
0.160762
0.153731
0.150143
0.107236
0.000734456
6.90162e-09
1.32479e-11
1.47888e-13
1.58526e-15
1.06791e-18
1.52919e-16
1.66498e-14
3.69073e-12
4.56626e-06
0.000386719
0.00053715
0.001059
0.000682703
0.00086158
0.000774343
0.000889838
0.000774739
0.000609135
0.000469176
7.70685e-06
9.3892e-11
6.47948e-14
7.60176e-15
1.18975e-16
2.92705e-22
2.83584e-20
3.76309e-19
2.05906e-18
9.14858e-25
0
0
0
0
0
0
0
0
0
0
8.36784e-23
9.15999e-17
3.29931e-19
2.07378e-21
1.1014e-23
0
0
0
0
0
0
0
0
0
0
0
0
0
0
0
6.43255e-41
2.21739e-32
8.16963e-32
9.45783e-34
1.71324e-36
0
0
0
0
0
0
0
0
0
0
0
0
0
0
0
0
0
0
0
0
0
0
0
0
0
0
0
0
0
0
0
0
0
0
0
0
0
0
0
0
0
0
0
0
0
0
0
0
0
0
0
0
0
0
0
0
0
0
0
0
0
0
0
0
0
0
0
0
0
0
0
0
0
0
0
0
0
0
0
0
0
0
0
0
0
0
0
0
0
0
0
0
0
0
0
0
0
0
0
0
0
0
0
0
0
0
0
0
0
0
0
0
0
0
0
0
0
0
0
0
0
0
0
0
0
0
0
0
0
0
0
0
0
0
0
0
0
0
0
0
0
0
0
0
0
0
0
0
0
0
0
0
0
0
0
0
0
0
0
0
0
0
0
0
0
0
0
0
0
0
0
0
0
0
0
0
0
0
0
0
0.00486739
0.00473031
0.00535791
0.0091256
0.132486
0.200661
0.321339
0.43004
0.453173
0.414752
0.387929
0.483621
0.433202
0.363597
0.25307
0.0937085
0.00790408
0.0064935
0.00625278
0.00629864
1.61604e-07
1.45354e-07
1.88599e-06
0.00440971
0.257808
0.240039
0.313177
0.185431
0.191144
0.21661
0.180385
0.533447
0.57324
0.552467
0.54457
0.207052
0.000442901
3.88884e-07
2.55128e-07
2.78931e-07
2.33951e-14
1.22074e-12
9.49889e-11
1.5194e-05
0.0261518
0.133999
0.234384
0.267581
0.264899
0.268556
0.240342
0.231794
0.318113
0.289893
0.248318
0.0239736
1.21193e-05
9.03364e-11
2.55157e-12
6.42454e-14
8.07119e-15
7.37102e-13
4.60125e-11
4.77486e-07
0.00525655
0.216248
0.256378
0.263759
0.264953
0.257802
0.249434
0.261037
0.26014
0.251197
0.196618
0.004424
4.223e-07
6.42242e-11
2.30706e-12
3.06449e-14
3.83039e-15
4.30223e-13
4.02564e-11
3.26939e-07
0.00449346
0.182882
0.2365
0.240848
0.234654
0.213476
0.226648
0.220459
0.240563
0.225401
0.167347
0.00374844
2.61235e-07
2.8297e-11
8.54034e-13
1.36957e-14
1.49658e-15
2.39539e-13
3.56354e-11
2.30303e-07
0.00419127
0.173077
0.22062
0.228559
0.198782
0.214034
0.200678
0.206271
0.214961
0.20791
0.154762
0.00350937
1.63517e-07
2.45035e-11
5.67785e-13
7.69345e-15
5.19589e-16
1.07405e-13
2.12275e-11
4.51929e-08
0.00251957
0.16101
0.202398
0.195542
0.192513
0.180021
0.189136
0.177743
0.18661
0.189821
0.147572
0.00210782
3.27222e-08
1.92717e-11
3.39133e-13
3.8676e-15
1.03958e-16
4.27877e-14
1.12938e-11
5.45286e-09
0.000976358
0.124298
0.167705
0.182342
0.157212
0.16787
0.168384
0.162344
0.155411
0.151772
0.109143
0.000796509
5.66557e-09
9.63625e-12
1.17402e-13
1.37566e-15
7.93549e-19
8.22289e-17
7.44856e-15
1.30704e-12
4.40599e-06
0.000386733
0.000536515
0.00105794
0.000681995
0.00086107
0.000773432
0.000887906
0.000771979
0.000607223
0.00046889
6.52688e-06
4.3832e-11
3.8706e-14
6.36774e-15
1.11978e-16
2.3626e-22
1.89566e-20
1.6997e-19
2.76844e-19
1.34708e-25
0
0
0
0
0
0
0
0
0
0
1.98158e-23
2.1458e-17
1.12167e-19
1.07613e-21
8.08419e-24
0
0
0
0
0
0
0
0
0
0
0
0
0
0
0
8.31083e-43
1.23021e-34
3.91682e-33
3.99883e-35
6.82697e-38
0
0
0
0
0
0
0
0
0
0
0
0
0
0
0
0
0
0
0
0
0
0
0
0
0
0
0
0
0
0
0
0
0
0
0
0
0
0
0
0
0
0
0
0
0
0
0
0
0
0
0
0
0
0
0
0
0
0
0
0
0
0
0
0
0
0
0
0
0
0
0
0
0
0
0
0
0
0
0
0
0
0
0
0
0
0
0
0
0
0
0
0
0
0
0
0
0
0
0
0
0
0
0
0
0
0
0
0
0
0
0
0
0
0
0
0
0
0
0
0
0
0
0
0
0
0
0
0
0
0
0
0
0
0
0
0
0
0
0
0
0
0
0
0
0
0
0
0
0
0
0
0
0
0
0
0
0
0
0
0
0
0
0
0
0
0
0
0
0
0
0
0
0
0
0
0
0
0
0
0
0.00486942
0.0047197
0.00535717
0.00916822
0.137212
0.203139
0.328442
0.434691
0.45917
0.419506
0.389265
0.48859
0.435203
0.365394
0.254263
0.096031
0.00795369
0.00649032
0.00623171
0.00627675
1.63184e-07
1.47883e-07
1.82799e-06
0.00462229
0.277849
0.24391
0.316353
0.18528
0.190657
0.216688
0.179352
0.536052
0.57667
0.556552
0.553702
0.219236
0.000562487
4.39894e-07
2.58873e-07
2.80677e-07
2.24806e-14
1.08457e-12
7.85168e-11
1.57224e-05
0.0301792
0.132687
0.234794
0.267749
0.264949
0.26877
0.24016
0.229665
0.317065
0.288916
0.248614
0.0271352
1.61947e-05
1.15897e-10
2.54557e-12
6.26082e-14
7.87352e-15
6.48283e-13
3.93446e-11
3.8414e-07
0.00529951
0.217161
0.257163
0.264456
0.265669
0.258875
0.249938
0.261691
0.260563
0.25205
0.19737
0.00443207
3.47661e-07
5.84681e-11
2.18185e-12
2.79016e-14
3.6377e-15
3.71562e-13
3.43561e-11
2.58927e-07
0.00448844
0.183287
0.237303
0.2421
0.236294
0.214566
0.227672
0.221146
0.241524
0.226006
0.1678
0.00372991
2.12965e-07
2.47895e-11
7.88376e-13
1.26421e-14
1.36207e-15
1.97168e-13
3.00618e-11
1.84515e-07
0.00426101
0.173323
0.221225
0.229779
0.199678
0.214629
0.201234
0.207405
0.2162
0.208438
0.154919