/*--------------------------------*- C++ -*----------------------------------*\
| =========                 |                                                 |
| \\      /  F ield         | OpenFOAM: The Open Source CFD Toolbox           |
|  \\    /   O peration     | Version:  2.3.0                                 |
|   \\  /    A nd           | Web:      www.OpenFOAM.org                      |
|    \\/     M anipulation  |                                                 |
\*---------------------------------------------------------------------------*/
FoamFile
{
    version     2.0;
    format      ascii;
    class       volScalarField;
    location    "3.50001";
    object      epsilonm;
}
// * * * * * * * * * * * * * * * * * * * * * * * * * * * * * * * * * * * * * //

dimensions      [0 2 -3 0 0 0 0];

internalField   nonuniform List<scalar> 
10000
(
100.219
61.5028
32.5721
17.6717
7.19767
3.58526
0.404337
0.190943
1.12109
1.00094
15.7521
26.8682
31.4386
38.7989
41.4805
53.5033
69.2405
84.3447
95.1755
107.542
42.8528
16.6975
10.1829
11.827
1.50436
0.640523
0.0240145
0.000981383
0.000561424
0.00789035
0.338947
13.7343
14.4004
22.5618
29.4367
38.366
50.4742
64.1399
72.3554
103.17
41.3631
40.1303
43.5174
29.1776
0.4674
1.03957
0.0186421
0.00029286
0.000250323
0.000621677
0.0708949
0.422589
6.92681
17.9809
30.6012
40.6621
64.5985
121.889
146.392
358.458
39.804
131.72
337.853
192.582
0.585351
0.00736726
0.000174567
0.000159613
0.000173695
0.000164272
0.00618633
0.763982
6.75549
18.4315
34.6553
52.9303
147.32
396.368
529.934
1640.06
56.0868
558.885
1627.38
119.979
0.614623
0.00185282
0.00023963
0.000166129
0.000180726
0.000224926
0.0258751
1.27911
7.55887
19.2979
40.9302
193.401
863.873
1089.37
2312.02
1647.32
132.295
1956.52
1778.87
109.821
0.615352
0.00162013
0.00020893
0.000170639
0.0002178
0.000830608
0.0558025
1.65137
7.66739
18.4518
37.3099
92.0834
829.428
2014.43
2067.12
1707.73
603.588
4673.61
3024.96
72.7929
0.715726
0.00206652
0.000295617
0.000379682
0.00178565
0.0196173
0.37237
2.84805
8.05759
17.2243
34.5291
85.2545
360.709
1854.93
1914.91
1604.17
5390.18
4980.08
5540.11
56.1838
0.685414
0.00648044
0.0021776
0.00669391
0.040677
0.341909
1.78193
4.55314
8.92212
15.8594
29.36
79.9307
379.284
1336.21
1496.95
1171
5486.06
683.291
5799.34
84.4656
0.888978
0.0309636
0.0242044
0.08775
0.409151
1.46014
3.27991
5.85699
9.49819
14.5575
20.2097
78.5846
302.34
1088.91
1339.19
954.949
5263.25
743.592
3310.97
321.457
1.80938
0.246583
0.189759
0.353068
1.1934
2.53108
4.15035
6.14944
8.96823
13.6055
24.2676
73.5725
426.647
975.245
1208.68
796.145
5827.72
4609.61
24.4491
305.711
2.43195
0.447769
0.363788
1.00455
2.32996
3.91059
5.4359
6.48582
9.21254
13.7117
24.8941
68.4693
353.114
822.578
977.019
579.855
6247.55
3924.59
22.0678
241.7
1.97617
0.45444
0.585907
1.42136
2.89424
4.46726
5.69283
7.74733
9.86843
14.0387
24.4354
64.3585
303.771
735.076
753.36
63.863
7362.16
4309.62
26.9956
242.917
1.90784
0.522608
0.975782
1.99872
3.2719
4.58601
5.77392
7.06374
6.74471
11.3645
20.7279
55.0386
271.891
627.594
129.665
14.8897
6092.74
4802.2
30.8654
229.634
1.99734
0.6942
1.49401
2.61983
3.88745
5.0784
6.1553
7.39686
8.69401
11.468
18.8553
47.9699
234.31
519.912
34.574
6.04956
269.884
3525.95
18.1642
169.251
2.0593
1.03048
2.02204
3.21181
4.50232
5.65136
6.66203
7.86417
9.19814
11.4068
16.5368
35.933
182.29
360.299
22.0522
3.31448
106.1
1749.64
5.37248
139.919
2.23062
1.44307
2.51068
3.73437
5.04914
6.1889
7.16783
8.34264
9.60108
11.4424
15.102
31.6426
114.549
37.4068
9.87867
2.02176
474.785
915.734
2.07416
143.803
2.59797
1.87802
2.92751
4.15653
5.48237
6.61979
7.58039
8.7228
9.8748
11.3174
13.3064
26.1091
78.2948
22.9105
5.03681
1.91127
2541.1
371.117
0.68858
126.427
2.92476
2.45033
3.24888
4.4503
5.755
6.88357
7.83458
8.91299
9.96389
11.3108
13.685
19.6989
28.1081
14.748
1.37706
0.264493
487.775
91.5788
0.156106
44.8386
2.26708
2.55256
3.37426
4.59048
5.81142
6.92006
7.90746
8.83792
9.73982
10.8103
12.5927
16.4731
22.2685
8.61512
0.300624
0.00921438
57.5977
17.1848
0.00719453
3.21767
1.44135
2.22628
3.37407
4.62408
5.82981
6.92686
7.90213
8.77422
9.5713
10.3956
11.5382
14.065
20.0867
1.66307
0.0104869
0.000359783
101.933
63.5137
33.3165
17.6509
7.49513
3.57225
0.377184
0.208085
1.31318
0.995542
16.1334
27.0494
31.5343
38.9161
41.5051
53.5548
69.3442
84.5067
95.3527
107.662
42.8354
16.44
8.18731
9.58175
2.19133
0.704327
0.0208929
0.00090479
0.000508807
0.00694446
0.350708
13.3243
14.4176
22.5991
29.45
38.3807
50.4904
64.0171
72.0671
100.925
41.6503
38.1585
29.6281
15.6178
0.433414
0.988686
0.0151568
0.000281985
0.000246465
0.000559651
0.0630487
0.382422
6.92083
18.0154
30.7088
40.7764
64.4823
120.03
142.737
320.399
40.2096
118.268
172.987
75.4597
0.368329
0.00613751
0.000170361
0.000159149
0.000172444
0.000162657
0.00474206
0.721733
6.73541
18.4479
34.7758
54.4997
139.955
382.402
484.536
1114.05
55.0976
475.988
848.659
65.3805
0.406244
0.00178018
0.000233748
0.000165417
0.000178634
0.000207192
0.020435
1.24157
7.53558
19.3081
40.8645
160.451
636.21
1014.77
1608.13
1132.32
118.752
1587.14
1011.68
61.575
0.420141
0.00154296
0.000203868
0.000168128
0.000201648
0.000609536
0.0437733
1.6117
7.63882
18.4469
37.3628
91.0949
651.247
1510.45
1472.21
1165.37
389.865
2604.48
1855.38
56.2123
0.494489
0.00180649
0.000271768
0.000331482
0.00143073
0.0155133
0.346115
2.82166
8.03432
17.2124
34.5468
84.9326
351.681
1405.27
1369.4
1085.19
2616.14
2662.07
2814.53
38.4389
0.577136
0.00553827
0.00198997
0.00618861
0.0370191
0.327406
1.76824
4.54085
8.90959
15.8507
29.3826
79.4303
366.841
1050.29
1080.03
792.31
3251.4
588.866
2793.97
46.3725
0.784708
0.0276941
0.023373
0.088653
0.40507
1.45293
3.27506
5.85353
9.49599
14.5682
20.4246
77.099
291.958
869.839
958.966
636.217
3103.87
509.072
885.097
102.542
1.09322
0.255668
0.197794
0.362725
1.2056
2.55301
4.17845
6.18633
9.01821
13.6854
24.4275
73.8324
376.852
785.558
857.987
524.21
3339.44
2226.97
13.7073
146.871
1.85654
0.413913
0.361389
1.00481
2.33011
3.91073
5.43629
6.51351
9.251
13.7741
25.0235
68.5889
315.502
662.014
683.965
368.806
3517.44
2084.87
14.4933
124.237
1.44601
0.431673
0.583837
1.43178
2.89414
4.46775
5.71452
7.74852
9.87048
14.038
24.4239
64.1932
271.644
586.201
513.002
60.0229
3950.33
2245.39
16.5764
120.915
1.40865
0.514296
0.980811
2.01167
3.28732
4.60458
5.79583
7.09126
6.8759
11.4134
20.8196
55.0999
242.336
497.442
121.896
14.5245
2912.9
2417.99
17.9855
115.837
1.48173
0.698087
1.50322
2.6346
3.9046
5.09812
6.17755
7.42307
8.72784
11.5148
18.9408
48.0336
208.551
407.265
33.5687
5.99887
217.998
1751.55
10.0736
90.8855
1.66495
1.03888
2.03392
3.22784
4.52073
5.67207
6.68483
7.89074
9.23044
11.4514
16.5328
36.0227
161.982
275.261
21.563
3.24627
91.1583
919.516
2.92668
75.5672
1.95527
1.45417
2.5243
3.75134
5.06848
6.21042
7.19121
8.36975
9.63346
11.4857
15.0971
31.5809
100.118
36.9974
9.95643
1.95617
339.743
439.396
1.06992
74.741
2.40332
1.89089
2.94234
4.17419
5.50247
6.642
7.60426
8.75039
9.90724
11.3593
13.305
26.0795
68.0884
22.9507
5.12446
2.01948
1118.11
156.946
0.353319
64.0366
2.82305
2.45026
3.26467
4.46849
5.7759
6.90653
7.85883
8.94113
9.99644
11.3517
13.7437
19.7872
28.1183
14.7932
1.43693
0.404543
178.628
39.7983
0.0814949
20.7324
2.24977
2.55275
3.3908
4.60908
5.83216
6.94267
7.93193
8.86529
9.77116
10.8487
12.6458
16.5563
22.264
8.61076
0.332018
0.0170477
15.8884
5.23758
0.00287044
1.68012
1.45446
2.24095
3.39084
4.64302
5.85062
6.94951
7.92681
8.80142
9.60209
10.4323
11.5869
14.1408
19.8638
1.62659
0.011951
0.00156013
101.223
63.9564
33.0377
17.3022
7.78156
3.5512
0.366742
0.209902
1.26147
0.966586
16.2693
27.3422
31.7254
39.1541
41.5385
53.6007
69.4303
84.607
95.4253
107.52
42.7397
16.1794
6.92193
7.34814
3.60601
0.732156
0.0195647
0.00086928
0.00048206
0.00655871
0.345208
13.1873
14.4722
22.6762
29.4767
38.4096
50.5165
63.7651
71.5107
97.3147
42.1051
35.1862
19.7448
8.23768
0.421073
0.920632
0.0136576
0.000276818
0.000242117
0.00053277
0.0571073
0.353214
6.91001
18.0846
30.9224
40.9926
64.3082
116.698
136.816
275.315
40.7997
100.192
93.9735
29.0858
0.306837
0.00561126
0.000168622
0.000158361
0.000170962
0.000161297
0.00417337
0.672039
6.69759
18.4794
35.0006
57.2606
130.751
358.104
426.885
778.25
53.913
369.194
453.616
36.2139
0.324238
0.00175787
0.000230605
0.000164346
0.000176952
0.000200748
0.0182095
1.18461
7.49171
19.3268
40.8104
140.593
478.872
896.164
1145.03
799.116
106.187
1125.3
601.272
37.0392
0.337161
0.00150912
0.000201455
0.00016695
0.000195699
0.000534103
0.0385046
1.54627
7.58427
18.4352
37.4615
89.767
524.312
1151.56
1070.54
816.697
275.36
1496.81
1069.93
38.0327
0.391979
0.00169695
0.000262216
0.000312967
0.00129606
0.0138019
0.315011
2.77342
7.9891
17.1874
34.574
84.3733
336.387
1081.48
999.303
753.742
1328.87
1492.36
1473.19
25.8584
0.510573
0.00515392
0.00191912
0.00597639
0.0353087
0.308513
1.74305
4.51668
8.88427
15.8314
29.4154
78.6065
345.147
836.536
794.563
550.546
1983.32
462.037
1328.56
26.8333
0.717579
0.0261264
0.0229516
0.0889092
0.397525
1.43828
3.26454
5.84574
9.49052
14.5867
20.8222
75.6599
274.685
703.267
701.02
436.076
1888.55
315.649
215.897
34.7827
1.01866
0.271566
0.207381
0.371278
1.21436
2.56948
4.1994
6.21509
9.05651
13.7454
24.5364
73.8534
335.171
640.011
622.232
355.531
1977.35
1098.3
8.98176
71.7442
1.68654
0.396386
0.360481
1.00523
2.33033
3.91095
5.43683
6.53418
9.27976
13.8209
25.1192
68.5474
283.569
538.937
489.831
244.193
2042.32
1141.77
10.2493
66.9041
1.3439
0.420387
0.581859
1.43954
2.89386
4.4686
5.73062
7.75067
9.87397
14.0362
24.4005
63.9597
244.313
473.183
359.956
54.2747
2178.09
1205.68
10.7848
63.809
1.24444
0.510668
0.984214
2.02139
3.29924
4.61912
5.81226
7.1143
7.07783
11.4483
20.8773
55.0445
217.247
399.363
109.315
13.9168
1428.85
1246.25
10.8245
61.941
1.27893
0.70157
1.51008
2.64567
3.91814
5.11379
6.19423
7.44386
8.7555
11.55
18.9974
47.9992
186.686
323.373
32.1363
5.91124
151.665
880.5
5.6832
51.9315
1.4701
1.04514
2.04301
3.23985
4.53538
5.68862
6.70192
7.91184
9.25583
11.4855
16.5238
36.0532
144.842
213.969
20.9208
3.14953
75.6318
502.597
1.87673
43.9127
1.7775
1.46231
2.53487
3.76405
5.08397
6.22769
7.20873
8.39138
9.6591
11.5195
15.0872
31.4994
88.6698
36.4496
10.1021
1.85238
231.551
234.697
0.68623
42.0984
2.23899
1.90021
2.95392
4.18743
5.51861
6.65987
7.62215
8.77251
9.93312
11.3926
13.3006
26.0475
60.7517
23.0596
5.27495
2.02057
517.822
90.717
0.254454
35.0956
2.71576
2.45016
3.27702
4.48213
5.79272
6.92504
7.877
8.96375
10.0225
11.3842
13.7897
19.862
28.1642
14.8845
1.51138
0.455513
94.8455
30.9079
0.0570106
10.7929
2.22935
2.55303
3.40318
4.62301
5.8477
6.9596
7.95025
8.88579
9.79464
10.8775
12.6856
16.6194
22.2583
8.60835
0.349532
0.0152728
3.12021
2.88049
0.00138472
0.663052
1.46949
2.25212
3.40353
4.65732
5.86632
6.96657
7.94539
8.8219
9.62528
10.46
11.6237
14.197
19.441
1.57451
0.0118009
0.0024372
100.04
64.7012
33.0045
17.0464
8.15957
3.54118
0.346689
0.204253
1.15233
0.947489
16.2855
27.7283
32.0123
39.5202
41.5825
53.6327
69.4815
84.6261
95.3821
107.14
42.557
16.0557
6.26997
5.89509
5.23679
0.765433
0.0168497
0.000793516
0.000426229
0.0058847
0.333374
13.1744
14.57
22.796
29.5173
38.4531
50.5535
63.4139
70.7743
93.1781
42.6046
31.9916
14.4273
5.82467
0.418114
0.848339
0.0113337
0.000269686
0.000240036
0.000493241
0.0508355
0.323617
6.89685
18.1896
31.2448
41.2746
64.1392
112.441
129.933
234.354
41.3506
82.7719
54.7838
12.93
0.28722
0.00472861
0.000166178
0.000158069
0.000170304
0.000160627
0.00327438
0.620645
6.64369
18.5247
35.3183
59.0708
122.494
326.999
371.07
562.713
52.6936
271.088
249.141
21.1917
0.287141
0.00173786
0.000226441
0.000163918
0.000175964
0.000192393
0.0144755
1.1169
7.42949
19.3531
40.8045
126.367
372.707
763.375
837.432
581.378
96.2503
739.374
377.126
23.8694
0.292193
0.00144238
0.0001981
0.000165589
0.000187334
0.000426263
0.0304508
1.4633
7.50539
18.4145
37.6013
88.4282
434.226
894.647
797.698
589.263
213.988
890.66
624.787
24.9254
0.336265
0.00148535
0.000246699
0.000281657
0.00106397
0.0111116
0.283077
2.70656
7.92232
17.1473
34.6037
83.6392
317.291
846.702
746.046
538.747
760.942
877.462
794.122
17.7603
0.459357
0.004417
0.00180607
0.00561442
0.0327027
0.288365
1.70807
4.48058
8.84485
15.7982
29.4445
77.5757
318.362
676.692
598.236
394.739
1258.49
339.152
622.875
16.518
0.678545
0.0234705
0.0225105
0.0890532
0.387638
1.41662
3.24824
5.83331
9.48115
14.6104
21.3528
74.3333
254.518
576.993
524.761
308.886
1194.3
195.571
53.0025
16.5722
1.1831
0.290101
0.217367
0.377989
1.21952
2.5806
4.21333
6.23587
9.08329
13.7857
24.5934
73.773
300.428
528.554
462.242
249.279
1217.37
561.281
6.86123
37.0075
1.7481
0.390379
0.360623
1.00569
2.33058
3.91117
5.43732
6.54795
9.29894
13.852
25.1824
68.4456
256.667
444.748
359.845
168.634
1227.79
649.54
7.73235
38.2329
1.47275
0.417255
0.579733
1.44474
2.89333
4.46969
5.7413
7.75362
9.87811
14.0331
24.3647
63.7359
221.237
387.285
260.387
47.8421
1237.23
671.689
7.74919
36.337
1.28248
0.510433
0.985925
2.0279
3.3077
4.6297
5.82324
7.13227
7.27817
11.4688
20.9015
54.949
196.076
325.187
94.9186
13.2174
715.122
657.219
6.86927
36.0081
1.26388
0.704532
1.51457
2.65307
3.92812
5.12542
6.20537
7.45929
8.77639
11.5735
19.0256
47.9325
168.235
260.664
30.6254
5.80103
96.1722
453.068
3.30802
32.4201
1.4117
1.04947
2.04934
3.24788
4.54633
5.70104
6.71332
7.92752
9.27436
11.5093
16.5085
36.0602
130.503
169.868
20.2946
3.03737
61.4661
294.453
1.29751
28.2885
1.69358
1.46775
2.54241
3.77254
5.09563
6.24075
7.22042
8.40758
9.67804
11.544
15.0717
31.4276
79.7643
35.9303
10.3122
1.74667
154.296
149.431
0.562102
26.6369
2.14025
1.90633
2.96227
4.19627
5.53083
6.67346
7.63409
8.78921
9.95251
11.4173
13.291
26.0282
55.6861
23.2527
5.47922
1.98167
246.97
76.682
0.268552
21.8965
2.64204
2.45012
3.28596
4.49124
5.8055
6.93916
7.88914
8.98092
10.0421
11.4083
13.8232
19.9232
28.2606
15.0249
1.59444
0.563003
29.9486
32.1398
0.062513
6.92034
2.21656
2.55334
3.41146
4.6323
5.85808
6.9709
7.96246
8.89946
9.8103
10.8967
12.7122
16.6623
22.26
8.61518
0.36512
0.0177369
0.111504
0.803762
0.000514373
0.3446
1.48292
2.25976
3.41213
4.66695
5.87687
6.97803
7.95787
8.83566
9.64085
10.4785
11.6485
14.2344
18.8609
1.52016
0.0121533
0.00234824
99.2209
65.823
33.1846
16.9227
8.53512
3.50815
0.331214
0.177091
1.087
0.928945
16.3387
28.2115
32.3937
40.0208
41.6399
53.6605
69.5204
84.6101
95.2879
106.663
42.1827
16.1052
5.96541
5.06088
5.92985
0.779547
0.0155303
0.000749923
0.0003945
0.00551544
0.329076
14.0752
14.7131
22.9615
29.5723
38.511
50.6043
63.0017
69.9499
89.0698
43.0706
29.055
11.4568
4.91661
0.415543
0.778872
0.0102247
0.000264455
0.000235491
0.000468534
0.0450192
0.296836
6.88304
18.3321
31.6804
41.6145
64.0199
107.799
122.988
200.451
41.6956
67.9487
35.7322
7.6103
0.278773
0.00431116
0.00016484
0.000157451
0.000168932
0.000159449
0.0028354
0.569386
6.57488
18.5831
35.7274
60.2291
116.035
293.637
322.199
421.445
51.3664
194.949
141.848
13.3085
0.270374
0.00172702
0.000222937
0.000163024
0.000174226
0.000188371
0.0126194
1.04281
7.35051
19.387
40.8785
115.462
301.751
637.68
629.675
436.269
88.0957
473.238
247.377
16.1155
0.2671
0.00137395
0.000195612
0.000164577
0.000183341
0.000376664
0.0258033
1.36807
7.40387
18.384
37.7839
87.2539
369.616
708.867
609.402
438.289
175.551
548.502
373.791
16.7609
0.304052
0.00135266
0.00023853
0.000266303
0.000950656
0.00969204
0.2516
2.6238
7.83499
17.0914
34.6363
82.8031
296.482
675.333
570.287
396.821
500.536
536.887
437.914
12.7697
0.424023
0.00405197
0.00175001
0.00542854
0.0309444
0.268217
1.66493
4.43314
8.79124
15.7502
29.4658
76.4373
290.325
556.572
461.444
292.324
830.605
238.343
282.135
11.18
0.652473
0.0210182
0.0221992
0.0891576
0.376071
1.38826
3.22609
5.81609
9.46754
14.6371
21.9629
73.1505
234.687
480.979
402.636
226.311
780.878
131.017
16.8672
10.9222
1.3773
0.304727
0.22601
0.381928
1.22091
2.58643
4.22031
6.24875
9.09867
13.8064
24.5962
73.6963
271.627
442.991
352.122
180.895
776.528
301.455
5.85696
21.3769
1.88939
0.390562
0.361163
1.00601
2.33076
3.91132
5.43762
6.55484
9.30856
13.8676
25.2137
68.363
234.143
372.494
271.523
121.245
758.491
383.035
6.36566
23.5597
1.64569
0.418211
0.577155
1.44737
2.89248
4.47095
5.74663
7.75722
9.88218
14.0284
24.3161
63.584
201.876
321.805
194.142
41.5809
719.807
390.617
6.01954
22.7872
1.38461
0.511619
0.985833
2.03118
3.31273
4.63637
5.82875
7.14458
7.42551
11.4746
20.8924
54.8737
178.312
268.886
81.1097
12.5338
357.018
355.014
4.775
23.3505
1.32082
0.706442
1.51664
2.65679
3.93455
5.13306
6.21095
7.46936
8.78996
11.5854
19.0255
47.8851
152.756
213.68
29.2289
5.67614
60.2283
243.292
2.08617
22.3926
1.42028
1.05178
2.05289
3.25191
4.55359
5.70937
6.71904
7.93781
9.28604
11.523
16.4857
36.0645
118.61
138.14
19.7578
2.91477
47.9033
185.283
1.00453
20.3611
1.67011
1.47053
2.54691
3.77681
5.10348
6.24963
7.22628
8.41838
9.69032
11.5595
15.05
31.3856
72.9689
35.5383
10.5858
1.64805
90.2003
108.778
0.58557
19.0801
2.09827
1.90939
2.96739
4.20071
5.53916
6.68278
7.64007
8.80053
9.96543
11.4337
13.2735
26.0281
52.296
23.5392
5.7318
1.91751
106.341
64.3145
0.277335
15.6681
2.60717
2.45013
3.29152
4.49582
5.81427
6.94893
7.89522
8.99268
10.0552
11.4241
13.8444
19.9701
28.4154
15.2186
1.68589
0.672279
1.86944
13.2174
0.0657326
5.32743
2.21177
2.55355
3.41562
4.63697
5.86328
6.97656
7.96857
8.90631
9.81815
10.9063
12.7256
16.6844
22.2797
8.6388
0.380191
0.0193593
0.014331
0.150515
0.000877378
0.319312
1.49121
2.26371
3.41651
4.67184
5.88222
6.98383
7.96417
8.84261
9.64872
10.4879
11.6611
14.2532
18.1771
1.47213
0.0124606
0.00228728
98.6489
67.1869
33.472
16.8831
8.96475
3.48268
0.310318
0.146141
0.923736
0.913239
16.4882
28.8112
32.8685
40.6654
41.7119
53.6874
69.5558
84.5783
95.1733
106.162
41.4086
16.4201
5.86778
4.5921
7.5881
0.816113
0.0131697
0.000677166
0.000342646
0.00490604
0.320167
15.9939
14.8995
23.1766
29.642
38.5826
50.6707
62.5613
69.1096
85.2946
43.5404
26.6217
9.6675
4.50074
0.410541
0.718011
0.00859647
0.000257989
0.000233288
0.000436685
0.039479
0.271861
6.86987
18.5143
32.2365
42.0082
63.975
103.193
116.516
173.575
41.8001
56.0764
25.4219
5.67755
0.272189
0.00368775
0.000162756
0.000157166
0.00016828
0.000158883
0.00218364
0.519172
6.49183
18.6545
36.2314
61.1166
111.375
262.012
281.525
327.024
49.7635
141.151
86.9907
9.05532
0.262863
0.0017142
0.000219132
0.000162602
0.000173371
0.000182781
0.00967869
0.965014
7.25589
19.4289
41.0592
107.167
254.361
529.843
487.43
338.137
80.8651
305.856
167.833
11.4204
0.253824
0.00127195
0.000192633
0.000163504
0.000177568
0.000308881
0.0196465
1.26422
7.28106
18.3431
38.0138
86.3585
322.477
573.594
477.795
336.536
148.2
350.009
228.089
11.8654
0.285299
0.00115389
0.000224829
0.000239657
0.000757361
0.00757355
0.221215
2.52732
7.72805
17.0197
34.6742
81.9562
275.753
549.677
447.022
301.726
363.099
340.953
245.002
9.80613
0.398665
0.00342938
0.00165738
0.00512603
0.0288874
0.248699
1.61501
4.37502
8.72358
15.6869
29.4761
75.2897
263.925
466.053
365.067
223.858
566.897
164.765
119.762
8.5323
0.627455
0.0189192
0.0220483
0.0895151
0.364238
1.35412
3.19829
5.79399
9.44934
14.6638
22.6007
72.0947
217.129
407.937
317.079
171.705
524.68
96.0554
8.7255
8.74796
1.18758
6.20774e-07
0.228978
6.20774e-07
1.21754
2.58664
6.20774e-07
6.25362
9.10258
13.8071
24.5417
73.7074
247.926
377.287
275.455
136.045
509.761
173.308
5.48754
14.2375
1.06379
6.20774e-07
6.20774e-07
6.20774e-07
6.20774e-07
6.20774e-07
6.20774e-07
6.20774e-07
6.20774e-07
6.20774e-07
6.20774e-07
91.2759
215.43
317.044
210.78
90.6305
482.506
235.152
5.70819
16.0353
0.832595
6.20774e-07
0.573751
6.20774e-07
2.89126
4.47232
6.20774e-07
7.76138
9.88567
14.022
24.2537
63.555
185.754
271.832
149.371
36.0219
426.684
237.877
5.01219
15.9472
0.864381
6.20774e-07
0.983784
6.20774e-07
3.31432
4.63913
6.20774e-07
7.15085
7.49275
11.4654
20.8497
54.867
163.51
226.078
69.2989
11.921
175.065
198.107
3.65767
16.9871
1.0875
6.20774e-07
1.51623
6.20774e-07
3.93741
5.13671
6.20774e-07
7.47407
8.79584
11.5857
18.9968
47.8979
139.86
178.442
28.0417
5.53984
37.5048
140.762
1.54389
17.0565
1.18586
6.20774e-07
2.05361
6.20774e-07
4.55715
5.71362
6.20774e-07
7.94271
9.29087
11.5266
16.4544
36.0812
108.838
115.319
19.3405
2.78285
32.4741
121.946
0.88375
16.1313
1.4211
6.20774e-07
2.54836
6.20774e-07
5.10753
6.25433
6.20774e-07
8.4238
9.69594
11.5658
15.0216
31.3871
67.8865
35.333
10.9165
1.55587
42.703
77.4091
0.642016
15.148
1.83178
6.20774e-07
2.96928
6.20774e-07
5.54359
6.68787
6.20774e-07
8.80647
9.97188
11.4418
13.2459
26.0495
50.0747
23.9267
6.02905
1.83962
32.4639
20.3274
0.378624
12.4806
2.26384
6.20774e-07
3.2937
6.20774e-07
5.81906
6.95437
6.20774e-07
8.99906
10.062
11.4317
13.853
20.0013
28.6351
15.4711
1.78789
0.784922
0.0518784
0.760746
0.162471
4.61636
2.19433
6.20774e-07
6.20774e-07
6.20774e-07
6.20774e-07
6.20774e-07
6.20774e-07
6.20774e-07
6.20774e-07
6.20774e-07
6.20774e-07
22.5598
22.3269
8.68619
0.396148
0.0214587
0.00166857
0.072388
0.00282796
0.37417
1.9929
2.01406e-05
2.01406e-05
2.01406e-05
2.01406e-05
2.01406e-05
2.01406e-05
2.01406e-05
2.01406e-05
2.01406e-05
2.01406e-05
15.0046
17.4455
1.43652
0.0129069
0.00225842
98.3032
68.752
33.8254
16.8937
9.41197
3.43424
0.291617
0.107292
0.724085
0.894063
16.6853
29.55
33.4348
41.4667
41.8001
53.7144
69.5899
84.538
95.0516
105.675
39.9358
17.0551
5.93657
4.32188
9.11221
0.84059
0.0118363
0.000636994
0.000309888
0.00455829
0.316032
18.562
15.1199
23.4463
29.7271
38.6671
50.7533
62.1198
68.3083
81.9975
44.1036
24.8315
8.54347
4.2701
0.402232
0.665931
0.00774996
0.000252322
0.00022823
0.000414903
0.0344355
0.249173
6.8562
18.7391
32.923
42.4537
64.0162
98.8933
110.8
152.794
41.6911
46.8955
19.3174
4.83088
0.264697
0.00337752
0.00016169
0.000156575
0.000166943
0.000157902
0.00186791
0.470517
6.39479
18.7385
36.837
61.9581
108.167
234.252
248.74
262.93
47.8413
104.455
58.5953
6.76175
0.259369
0.00170254
0.000215418
0.000161725
0.00017167
0.000180121
0.00823879
0.885365
7.14645
19.4793
41.3677
101.136
222.658
443.016
389.059
271
73.981
203.884
115.439
8.58366
0.246426
0.00117149
0.000190155
0.000162629
0.000174875
0.000278003
0.0161035
1.15445
7.13802
18.2914
38.2961
85.824
287.518
474.785
385.005
267.117
126.582
231.893
141.908
8.99019
0.272907
0.00102694
0.000217622
0.000226543
0.000662405
0.00647441
0.1923
2.41887
7.60235
16.9318
34.7201
81.1858
256.466
457.369
359.942
237.236
277.604
225.071
136.798
8.11071
0.366751
0.00289891
0.00139619
0.00421748
0.0241527
0.223813
1.55642
4.30585
8.64205
15.6087
29.4732
74.2126
240.876
397.862
296.647
177.443
399.183
115.342
46.6633
7.33978
0.607137
0.0180879
0.0219816
0.0885942
0.354087
1.31903
3.16869
5.768
9.42393
14.682
23.224
71.1452
202.672
352.504
256.683
135.025
358.157
73.7831
6.74095
7.7671
2.32487
6.20774e-07
6.20774e-07
6.20774e-07
6.20774e-07
6.20774e-07
6.20774e-07
6.20774e-07
6.20774e-07
6.20774e-07
6.20774e-07
94.6308
228.615
326.966
221.636
106.144
340.002
108.814
5.5417
10.7864
2.25639
6.20774e-07
6.20774e-07
6.20774e-07
6.20774e-07
6.20774e-07
6.20774e-07
6.20774e-07
6.20774e-07
6.20774e-07
6.20774e-07
88.4632
200.077
274.596
168.621
70.3851
314.91
150.73
5.51674
12.1114
1.98442
6.20774e-07
6.20774e-07
6.20774e-07
6.20774e-07
6.20774e-07
6.20774e-07
6.20774e-07
6.20774e-07
6.20774e-07
6.20774e-07
77.0886
172.462
233.746
118.859
31.4009
255.135
151.899
4.44949
12.3712
1.85692
6.20774e-07
6.20774e-07
6.20774e-07
6.20774e-07
6.20774e-07
6.20774e-07
6.20774e-07
6.20774e-07
6.20774e-07
6.20774e-07
67.6393
151.284
193.552
59.9227
11.3983
85.6651
116.698
3.0394
13.6304
1.90166
6.20774e-07
6.20774e-07
6.20774e-07
6.20774e-07
6.20774e-07
6.20774e-07
6.20774e-07
6.20774e-07
6.20774e-07
6.20774e-07
59.5246
129.207
152.037
27.0998
5.39301
20.8043
86.2977
1.36884
14.0796
1.91268
6.20774e-07
6.20774e-07
6.20774e-07
6.20774e-07
6.20774e-07
6.20774e-07
6.20774e-07
6.20774e-07
6.20774e-07
6.20774e-07
51.3624
100.896
98.9265
19.0513
2.64138
14.5464
78.8741
0.927438
13.7289
2.11056
6.20774e-07
6.20774e-07
6.20774e-07
6.20774e-07
6.20774e-07
6.20774e-07
6.20774e-07
6.20774e-07
6.20774e-07
6.20774e-07
41.102
64.1731
35.3473
11.2963
1.47131
12.6167
42.4982
0.795886
12.9492
2.4706
6.20774e-07
6.20774e-07
6.20774e-07
6.20774e-07
6.20774e-07
6.20774e-07
6.20774e-07
6.20774e-07
6.20774e-07
6.20774e-07
35.7504
48.6416
24.4238
6.37009
1.75748
3.69672
2.31402
0.596248
10.7066
2.79728
6.20774e-07
6.20774e-07
6.20774e-07
6.20774e-07
6.20774e-07
6.20774e-07
6.20774e-07
6.20774e-07
6.20774e-07
6.20774e-07
27.4118
28.9257
15.7892
1.90426
0.886861
0.00553163
0.0617637
0.278214
4.27631
2.48682
6.20774e-07
6.20774e-07
6.20774e-07
6.20774e-07
6.20774e-07
6.20774e-07
6.20774e-07
6.20774e-07
6.20774e-07
6.20774e-07
22.2219
22.3929
8.76364
0.413846
0.0242025
0.000648139
0.0192489
0.0116881
0.441714
1.99975
2.01406e-05
2.01406e-05
2.01406e-05
2.01406e-05
2.01406e-05
2.01406e-05
2.01406e-05
2.01406e-05
2.01406e-05
2.01406e-05
14.5943
16.7158
1.41685
0.013563
0.00226099
98.2204
70.5349
34.2433
16.9498
9.84556
3.38203
0.269624
0.0871715
0.538464
0.863621
16.8028
30.4318
34.0907
42.4387
41.9064
53.742
69.6239
84.4938
94.9327
105.229
39.7573
18.092
6.16805
4.1633
10.7919
0.858791
0.0100986
0.000575899
0.000274382
0.00400795
0.311069
20.5791
15.3651
23.7719
29.8289
38.7638
50.8526
61.6984
67.5864
79.2328
44.9292
23.8692
7.85534
4.12234
0.390756
0.61788
0.00644018
0.000246294
0.000225629
0.000389729
0.0297942
0.22917
6.84086
19.01
33.7529
42.95
64.1476
95.0502
105.971
137.038
41.4923
39.999
15.2856
4.40888
0.255413
0.00288436
0.00015998
0.000156297
0.000166296
0.000157425
0.00142016
0.423785
6.28363
18.8354
37.5527
62.8803
106.005
211.029
222.986
218.994
45.6348
79.5021
42.3373
5.51019
0.256875
0.00168938
0.000211806
0.000161304
0.00017084
0.000176346
0.00609025
0.805265
7.02272
19.539
41.8208
97.0665
201.434
376.006
320.659
224.716
67.0661
141.404
79.0639
6.88034
0.24157
0.00105256
0.000187529
0.000161803
0.000171066
0.000238111
0.0116081
1.041
6.97553
18.2287
38.636
85.7107
261.421
402.731
319.351
219.374
108.69
159.729
90.6415
7.32279
0.263518
0.000857879
0.000207681
0.000209715
0.000531416
0.00491168
0.16517
2.29989
7.45856
16.8278
34.7768
80.566
239.494
389.69
298.242
193.124
217.396
154.688
74.0772
7.10894
0.336169
0.00241463
0.00127187
0.00378975
0.0216843
0.1992
1.49055
4.22619
8.54685
15.5152
29.4547
73.2638
221.915
346.726
247.938
145.646
289.076
83.2917
20.1932
6.77085
0.575883
0.0166485
0.0216559
0.0867925
0.344051
1.28321
3.13754
5.73831
9.39127
14.6889
23.7964
70.3153
191.44
310.733
213.916
110.073
251.02
57.8409
6.53071
7.27606
2.9283
6.20774e-07
6.20774e-07
6.20774e-07
6.20774e-07
6.20774e-07
6.20774e-07
6.20774e-07
6.20774e-07
6.20774e-07
6.20774e-07
92.1311
213.145
288.704
183.7
85.9291
232.526
73.8627
5.99326
8.99705
2.8722
6.20774e-07
6.20774e-07
6.20774e-07
6.20774e-07
6.20774e-07
6.20774e-07
6.20774e-07
6.20774e-07
6.20774e-07
6.20774e-07
86.1281
187.668
242.318
139.204
56.7845
209.771
100.657
5.71114
9.98883
2.65271
6.20774e-07
6.20774e-07
6.20774e-07
6.20774e-07
6.20774e-07
6.20774e-07
6.20774e-07
6.20774e-07
6.20774e-07
6.20774e-07
75.1128
161.677
204.866
97.9662
27.688
152.472
101.238
4.2069
10.4221
2.51155
6.20774e-07
6.20774e-07
6.20774e-07
6.20774e-07
6.20774e-07
6.20774e-07
6.20774e-07
6.20774e-07
6.20774e-07
6.20774e-07
65.8275
141.329
168.937
52.8831
10.9659
41.3855
72.8458
2.71138
11.7424
2.47823
6.20774e-07
6.20774e-07
6.20774e-07
6.20774e-07
6.20774e-07
6.20774e-07
6.20774e-07
6.20774e-07
6.20774e-07
6.20774e-07
57.8891
120.521
132.321
26.4076
5.23535
8.03618
52.0022
1.39061
12.3437
2.47364
6.20774e-07
6.20774e-07
6.20774e-07
6.20774e-07
6.20774e-07
6.20774e-07
6.20774e-07
6.20774e-07
6.20774e-07
6.20774e-07
50.0387
94.5339
87.209
18.8921
2.48941
2.81159
45.2411
1.09099
12.2871
2.62962
6.20774e-07
6.20774e-07
6.20774e-07
6.20774e-07
6.20774e-07
6.20774e-07
6.20774e-07
6.20774e-07
6.20774e-07
6.20774e-07
40.5093
61.5328
35.6075
11.7202
1.39335
1.08062
13.7073
1.00099
11.6421
2.91499
6.20774e-07
6.20774e-07
6.20774e-07
6.20774e-07
6.20774e-07
6.20774e-07
6.20774e-07
6.20774e-07
6.20774e-07
6.20774e-07
35.1738
47.7208
25.0425
6.75672
1.67431
0.130349
0.148534
0.816963
9.64853
3.14479
6.20774e-07
6.20774e-07
6.20774e-07
6.20774e-07
6.20774e-07
6.20774e-07
6.20774e-07
6.20774e-07
6.20774e-07
6.20774e-07
27.2488
29.2726
16.1808
2.03999
0.976737
0.00313528
0.00778042
0.386321
4.10638
2.67837
6.20774e-07
6.20774e-07
6.20774e-07
6.20774e-07
6.20774e-07
6.20774e-07
6.20774e-07
6.20774e-07
6.20774e-07
6.20774e-07
21.932
22.4902
8.87657
0.433878
0.0280124
0.000626472
0.00429559
0.0225608
0.512309
1.9968
2.01406e-05
2.01406e-05
2.01406e-05
2.01406e-05
2.01406e-05
2.01406e-05
2.01406e-05
2.01406e-05
2.01406e-05
2.01406e-05
14.2405
16.0323
1.41386
0.0144508
0.00224204
98.4288
72.5681
34.7306
17.0368
10.2628
3.31048
0.249358
0.0780213
0.463402
0.831685
16.7
31.3074
34.8368
43.5803
42.0319
53.7704
69.6587
84.4503
94.8254
104.845
40.6308
19.6405
6.55766
4.07294
13.0483
0.865325
0.00907088
0.000538829
0.0002447
0.00368749
0.308787
22.6607
15.642
24.0866
29.9503
38.8721
50.9684
61.3134
66.9725
77.0079
46.3053
23.7455
7.51678
4.02196
0.376383
0.564543
0.00546978
0.000240252
0.000220095
0.000371219
0.0253803
0.209411
6.81294
19.3322
34.7427
43.4967
64.3693
91.7296
102.074
125.356
41.4202
35.0626
12.3912
4.18384
0.244863
0.00262012
0.000159133
0.000155735
0.000164958
0.000156594
0.0012036
0.37926
6.15811
18.9448
38.3886
63.9583
104.639
192.21
203.302
188.829
43.2503
62.3032
31.4593
4.81909
0.254056
0.0016748
0.000207945
0.000160437
0.000169214
0.000174517
0.00505018
0.725826
6.88494
19.6082
42.4328
94.6863
187.275
325.813
273.204
192.806
59.8
102.102
54.2322
5.85405
0.237173
0.000940372
0.000185081
0.000160958
0.000169257
0.000220073
0.00924787
0.92588
6.79404
18.1544
39.0391
86.0758
242.167
350.654
273.092
186.479
93.6504
114.313
59.0785
6.37682
0.254561
0.00075289
0.000201896
0.000200501
0.00046491
0.00414117
0.140027
2.17163
7.29726
16.7072
34.8469
80.1592
225.32
340.462
254.687
162.86
171.587
110.635
39.7163
6.5164
0.306811
0.0020472
0.0010587
0.00308391
0.0178331
0.175735
1.41853
4.13654
8.43814
15.4058
29.418