/*--------------------------------*- C++ -*----------------------------------*\
| =========                 |                                                 |
| \\      /  F ield         | OpenFOAM: The Open Source CFD Toolbox           |
|  \\    /   O peration     | Version:  2.3.0                                 |
|   \\  /    A nd           | Web:      www.OpenFOAM.org                      |
|    \\/     M anipulation  |                                                 |
\*---------------------------------------------------------------------------*/
FoamFile
{
    version     2.0;
    format      ascii;
    class       volVectorField;
    location    "3.50001";
    object      U.air;
}
// * * * * * * * * * * * * * * * * * * * * * * * * * * * * * * * * * * * * * //

dimensions      [0 1 -1 0 0 0 0];

internalField   nonuniform List<vector> 
10000
(
(-0.340727 -1.46677 -1.02359)
(0.0501617 -1.46884 -1.02913)
(0.160375 -1.21741 -0.857016)
(0.225089 -0.709638 -0.442466)
(0.359635 -0.491533 -0.321115)
(0.278274 -0.308246 -0.60027)
(0.0448605 -0.144553 -0.375839)
(0.000222281 -0.0862123 -0.325682)
(-0.0103399 -0.0893451 -0.304021)
(-0.0222822 -0.108328 -0.293062)
(-0.195876 -0.144767 -0.433703)
(-0.358129 -0.101554 -0.159492)
(-0.324144 -0.0440117 -0.0620742)
(-0.303906 -0.0907837 -0.0823996)
(-0.243191 -0.204557 -0.182728)
(-0.200847 -0.273453 -0.277855)
(-0.142471 -0.341545 -0.35576)
(-0.0542471 -0.408677 -0.426276)
(0.0393356 -0.477566 -0.429339)
(0.295451 -0.493267 -0.47744)
(0.0111123 -1.63563 -0.134348)
(-0.0181415 -1.54092 -0.1503)
(-0.0103155 -1.30897 -0.131958)
(-0.00117845 -0.525467 -0.00898141)
(0.0120341 -0.192014 -0.488773)
(0.0719805 -0.0146164 -1.76082)
(-0.00275507 -0.0320901 -0.845124)
(-0.000836218 -0.0589993 -0.484956)
(0.000181335 -0.0686847 -0.399681)
(0.000774363 -0.0527287 -0.449194)
(0.0302054 -0.0534791 -1.23322)
(-0.0511298 -0.0683749 -0.332046)
(-0.199108 -0.0758525 -0.101577)
(-0.135618 -0.137379 -0.0310418)
(-0.0764612 -0.208647 -0.0258818)
(-0.0823163 -0.297305 -0.0534543)
(-0.0647505 -0.435308 -0.0844807)
(-0.0286862 -0.559947 -0.122071)
(-0.000415213 -0.69831 -0.122322)
(0.0568312 -0.725015 -0.122592)
(0.0199678 -1.68168 -0.0609927)
(-0.000629639 -1.51551 -0.0398461)
(-0.00846881 -1.31971 -0.0692355)
(0.00854597 -0.611649 -0.0191905)
(0.00545047 -0.309867 -0.112614)
(0.00840574 -0.127879 -0.299086)
(0.00277334 -0.0850632 -0.297786)
(0.000554305 -0.0729374 -0.333186)
(-9.77868e-05 -0.0795128 -0.308045)
(0.00165738 -0.0896165 -0.273832)
(-0.00172184 -0.0871504 -0.326338)
(0.0492493 -0.182943 -0.250991)
(-0.0642111 -0.177739 -0.134243)
(-0.0650989 -0.200563 -0.0582028)
(-0.0370242 -0.277157 -0.0375807)
(-0.0336791 -0.349397 0.00727854)
(-0.0349842 -0.542165 -0.0461605)
(-0.0137596 -0.72131 -0.0473325)
(0.000904076 -0.853126 -0.0435813)
(0.013054 -0.830738 -0.0148829)
(0.0322049 -1.61553 -0.062757)
(0.0315462 -1.3229 -0.00314876)
(-0.00885426 -1.09814 -0.00264385)
(-0.00935314 -0.423358 0.0266109)
(-0.00302158 -0.300276 -0.0885614)
(-0.0022059 -0.0855372 -0.284342)
(0.000394835 -0.0683852 -0.354395)
(4.42498e-05 -0.0696644 -0.354038)
(1.4743e-06 -0.0775908 -0.31892)
(-0.000753135 -0.0795011 -0.303629)
(-0.000352268 -0.0790066 -0.323644)
(-0.0116136 -0.0955294 -0.264062)
(-0.0350057 -0.120904 -0.138916)
(-0.0332284 -0.187823 -0.0691676)
(-0.0182567 -0.270384 -0.0290701)
(-0.000561377 -0.169906 0.0138011)
(-0.00762011 -0.530168 0.0309727)
(-0.014166 -0.740132 -0.0222145)
(-0.0369066 -0.849763 -0.00357879)
(-0.0528686 -0.664063 0.032483)
(0.0246805 -1.58379 -0.0746901)
(0.0317784 -1.18683 -0.013269)
(-0.0158652 -0.790494 0.035418)
(-0.0205333 -0.325406 0.0327747)
(-0.00390486 -0.305263 -0.0804365)
(-0.00225814 -0.10718 -0.226936)
(1.27608e-05 -0.0766829 -0.320302)
(0.000136141 -0.0703144 -0.34902)
(-1.57492e-05 -0.0774492 -0.312952)
(-0.00128035 -0.0839304 -0.294862)
(-0.00263771 -0.0825387 -0.298774)
(-0.0177419 -0.118049 -0.218894)
(-0.0286026 -0.144668 -0.149623)
(-0.0224395 -0.197461 -0.0868056)
(-0.0208494 -0.277734 -0.0320491)
(0.0079189 -0.371411 -0.0221251)
(-8.93475e-05 -0.516681 0.0402792)
(-0.035999 -0.713223 0.000822315)
(-0.0592388 -0.727275 0.0227533)
(-0.0661559 -0.651354 0.0234655)
(0.0129959 -1.48693 -0.0388252)
(-0.00181043 -1.10214 -0.00438786)
(-0.0144341 -0.776514 0.0302892)
(-0.021797 -0.320966 0.0130438)
(-0.00377703 -0.288648 -0.0781471)
(-0.00424212 -0.10006 -0.244183)
(-0.00042102 -0.0760096 -0.319348)
(-2.78298e-05 -0.0699654 -0.349329)
(0.000106607 -0.0776819 -0.314233)
(-0.00182296 -0.0807118 -0.302122)
(-0.00204353 -0.0824205 -0.306357)
(-0.0113467 -0.106472 -0.213323)
(-0.0148247 -0.129763 -0.139888)
(-0.0128763 -0.174215 -0.0867746)
(-0.0171623 -0.245312 -0.0329398)
(-0.00545903 -0.331317 -0.00319818)
(-0.0103592 -0.483543 -0.0206898)
(-0.0419209 -0.650221 0.0204292)
(-0.0585293 -0.687799 0.0295694)
(-0.0502087 -0.659345 0.0103804)
(0.000364964 -1.37196 -0.02897)
(-0.0244559 -1.06704 0.0128814)
(0.000661895 -0.980823 0.00194589)
(-0.013704 -0.477131 -0.00877373)
(0.00406843 -0.269268 -0.0838196)
(-0.00402948 -0.10045 -0.242406)
(-0.000354692 -0.0786265 -0.305828)
(-2.75315e-05 -0.0705098 -0.341494)
(-0.000285086 -0.0764215 -0.31465)
(-0.00284923 -0.0803715 -0.301563)
(-0.00143329 -0.0821129 -0.26973)
(-0.00437189 -0.0974804 -0.172243)
(-0.00222139 -0.109122 -0.118871)
(-0.0023369 -0.13994 -0.0741007)
(-0.00754245 -0.204883 -0.0352416)
(-0.0183333 -0.306376 -0.0125825)
(-0.0259096 -0.4849 -0.0231311)
(-0.035077 -0.623493 0.00639109)
(-0.043842 -0.665377 0.0200298)
(-0.0386965 -0.650668 0.0101205)
(-0.00406568 -1.24269 0.00543829)
(-0.0372057 -1.14411 0.0176993)
(0.0209903 -1.18644 0.0091296)
(0.0136382 -0.655482 -0.0117504)
(0.00597448 -0.222191 -0.0841572)
(-0.000662465 -0.0960651 -0.244042)
(-0.000121721 -0.0790641 -0.299039)
(-0.000241998 -0.0699922 -0.325419)
(-0.00116408 -0.0722717 -0.303635)
(0.000769201 -0.0716247 -0.242641)
(0.00347047 -0.0737972 -0.156707)
(0.00535549 -0.0700441 -0.100133)
(0.00951588 -0.0741457 -0.0685668)
(0.0112324 -0.0943779 -0.0367396)
(0.0103051 -0.139981 -0.0118771)
(-0.0149213 -0.21905 -0.004246)
(-0.034503 -0.398879 0.0260157)
(-0.0313319 -0.543817 0.0236007)
(-0.0204447 -0.61183 0.0262005)
(-0.0198746 -0.592605 0.0227411)
(-0.00494888 -1.09844 0.0500082)
(-0.0107664 -1.31251 -0.0029109)
(0.0288813 -1.24682 0.0299867)
(0.0317482 -0.69289 -0.0016269)
(0.000502333 -0.167146 -0.0363241)
(-0.00107625 -0.0650145 -0.192366)
(0.00114872 -0.053864 -0.22428)
(0.00159112 -0.0436805 -0.246776)
(0.00150149 -0.04208 -0.193339)
(0.00359284 -0.0340463 -0.104341)
(0.00484845 -0.0257656 -0.046857)
(0.00469349 -0.0238486 -0.0216311)
(0.0071997 -0.0246608 -0.00608105)
(0.00832518 -0.0301718 0.0101771)
(0.0122881 -0.0351155 0.0159212)
(-0.00416985 -0.0936315 0.0426745)
(-0.0283897 -0.344507 0.0462252)
(-0.0197511 -0.501018 0.0267412)
(-0.00364134 -0.591975 0.0199778)
(-0.0130962 -0.559578 0.0184108)
(0.00264418 -1.08437 0.0463167)
(0.00217348 -1.31936 -0.0111817)
(0.00248914 -1.35163 0.0122639)
(0.0362973 -0.557575 0.00801587)
(-0.00138156 -0.0872898 0.00314716)
(0.00150251 -0.0259033 0.0042152)
(0.00092421 -0.0186171 0.00406578)
(0.00118411 0.00511805 0.00387427)
(0.000929756 0.00737915 0.00404762)
(8.02452e-05 0.0023809 0.00312079)
(5.70428e-06 -0.000179434 0.00234118)
(0.000271298 -0.00483859 0.00219013)
(0.000708496 -0.00724124 0.00280167)
(0.000718452 -0.00951348 0.0103349)
(0.00282443 -0.0131611 0.0182507)
(0.00266204 -0.0303241 0.0243843)
(-0.000342941 -0.299166 0.0496979)
(-0.00465957 -0.477298 0.0214377)
(0.0077321 -0.574505 0.0147337)
(-0.0129341 -0.529175 0.0124605)
(0.0124757 -1.13431 0.0301601)
(0.00599381 -1.14768 0.011968)
(-0.00498449 -1.58983 -0.0239963)
(0.0149111 -0.461544 0.0104222)
(-0.00695253 -0.1702 -0.000732908)
(0.00046926 -0.0338876 0.000663651)
(6.11036e-05 -0.0191633 0.000911972)
(-2.81001e-05 -0.00971194 -0.000635559)
(-2.99693e-05 -0.00610498 -0.000651772)
(5.0929e-05 -0.00472816 -0.000348109)
(4.25765e-06 -0.00409683 -0.000235608)
(2.41299e-05 -0.00452093 8.70218e-05)
(5.65391e-05 -0.00450048 0.000167678)
(7.19133e-05 -0.00496803 0.00030861)
(0.000139669 -0.00588658 0.00049224)
(0.00244531 -0.0188699 0.00376371)
(0.00302739 -0.285515 0.0138404)
(0.00565011 -0.450747 0.018727)
(0.00398464 -0.541244 0.0120683)
(-0.0145629 -0.494113 0.00852178)
(0.00949177 -1.17009 0.0264188)
(0.00793427 -1.04371 0.0303491)
(-0.00365538 -1.59509 -0.0379004)
(0.00354885 -0.41694 0.0110007)
(-0.00156833 -0.076557 0.00519346)
(-0.000130172 -0.0307841 0.00117517)
(0.000220301 -0.018082 0.000351065)
(-1.14942e-05 -0.00737238 0.000233234)
(-3.72766e-05 -0.0065321 -0.000101677)
(3.63857e-06 -0.00517379 -0.000112115)
(-2.00363e-05 -0.0034917 3.04903e-05)
(-6.34307e-05 -0.00449579 -5.72964e-05)
(-8.74069e-06 -0.00477264 -9.2896e-05)
(2.22759e-05 -0.00516818 -0.000118647)
(-8.20742e-06 -0.00641227 -0.000118432)
(0.000452776 -0.0202054 -0.000150099)
(0.00257691 -0.268911 0.0108166)
(0.00382815 -0.436005 0.0103781)
(4.92295e-05 -0.51168 0.00903463)
(-0.0145945 -0.496135 -0.0032058)
(-0.0209567 -1.2726 0.0216516)
(0.0147797 -1.08061 0.0129785)
(0.00594427 -1.61813 -0.0399681)
(0.00335677 -0.422766 0.00275329)
(0.000957323 -0.0710149 0.00191686)
(0.000600202 -0.0249226 0.00126431)
(-3.19708e-05 -0.013326 0.000750158)
(-5.95423e-05 -0.00628915 0.000187229)
(1.47963e-05 -0.00604532 6.5685e-05)
(-6.36376e-05 -0.00501636 1.22719e-05)
(-7.21339e-06 -0.00344318 3.08762e-05)
(3.2619e-05 -0.00440861 -3.50543e-06)
(-1.83973e-08 -0.00508159 -1.99607e-05)
(2.13325e-05 -0.00536189 -1.13942e-05)
(0.000186381 -0.00652838 3.07203e-05)
(0.00104417 -0.0197865 5.84126e-05)
(0.0013424 -0.259811 0.00447938)
(-0.00111483 -0.416163 0.0055137)
(0.00736087 -0.500723 -0.00555526)
(-0.0177441 -0.430421 -0.0309078)
(-0.0470289 -1.29626 0.030092)
(0.0239804 -1.13664 0.0077503)
(0.00994319 -1.64697 -0.043225)
(0.0051559 -0.412454 0.00276336)
(0.000160247 -0.0668461 0.00202411)
(0.000426115 -0.0169166 0.00118635)
(-0.000142833 -0.0102986 0.000458094)
(-6.61466e-05 -0.00529114 0.000149854)
(-2.43617e-05 -0.00555788 0.000102977)
(-2.18986e-05 -0.00478471 5.79394e-05)
(-5.69056e-06 -0.00326858 3.24689e-05)
(2.37385e-05 -0.00430723 3.41423e-05)
(-1.42795e-06 -0.00470132 3.52435e-05)
(-7.89877e-05 -0.00520534 4.35417e-05)
(-2.5298e-05 -0.00669746 8.79515e-05)
(0.000843807 -0.0199297 7.86728e-05)
(0.000529123 -0.248187 0.00223287)
(-0.00758833 -0.396675 0.000613826)
(0.0178568 -0.468827 -0.0768113)
(-0.0410703 -0.312998 -0.134225)
(-0.0325202 -1.45786 -0.00637187)
(0.0219908 -1.03993 0.0330204)
(-0.00289142 -1.68668 -0.0352516)
(0.00386127 -0.363801 0.010587)
(0.000686085 -0.0598728 0.00304328)
(3.59277e-05 -0.0119456 0.000575919)
(-9.01373e-05 -0.00840617 0.000292022)
(-4.04344e-05 -0.00463227 9.90691e-05)
(-1.22718e-05 -0.00503609 8.65753e-05)
(-1.59271e-05 -0.00444934 5.67362e-05)
(-4.705e-06 -0.00310011 2.74138e-05)
(4.90691e-06 -0.00407462 3.83193e-05)
(-6.48321e-06 -0.00433848 4.84105e-05)
(-7.70089e-05 -0.00490175 3.17873e-05)
(-0.000210447 -0.0068117 1.33867e-05)
(-0.000152797 -0.0196985 8.60869e-05)
(-0.00173883 -0.233393 0.00425127)
(-0.00871086 -0.372512 0.00514931)
(0.0191475 -0.448098 -0.11107)
(-0.0413889 -0.210588 -0.24256)
(-0.0173572 -1.4587 -0.0217088)
(0.000219563 -0.813363 0.0496715)
(-0.00461345 -1.70074 -0.0230277)
(0.0029902 -0.341492 0.00825413)
(0.00129851 -0.0488273 0.00296079)
(-0.000176502 -0.00934281 0.000217742)
(-3.28026e-05 -0.00726277 0.000194515)
(-2.7067e-05 -0.00419099 6.30134e-05)
(-6.23978e-06 -0.00468217 6.02617e-05)
(-1.03769e-05 -0.0042051 4.22483e-05)
(-3.16034e-06 -0.00295802 2.12202e-05)
(2.75712e-06 -0.00390672 2.99e-05)
(-1.80174e-06 -0.00412184 3.43593e-05)
(-2.05654e-05 -0.00467001 2.76326e-05)
(-0.000156242 -0.00661902 -7.04233e-05)
(-0.00115673 -0.017891 -5.37328e-06)
(-0.00366454 -0.224053 0.000518609)
(0.00283261 -0.379981 -0.0161464)
(0.00113716 -0.465962 -0.122441)
(0.0056112 -0.227101 -0.317014)
(0.0145573 -1.27662 -0.0114652)
(-0.0124219 -0.687235 0.0252367)
(0.00382343 -1.70915 -0.0165953)
(0.00154596 -0.350472 0.00306643)
(0.00240571 -0.0370452 0.00235489)
(-0.000214536 -0.00760565 5.15055e-05)
(5.24843e-05 -0.00650502 0.0001368)
(-1.80935e-05 -0.00390542 3.257e-05)
(-3.88581e-07 -0.00441879 4.37635e-05)
(-8.22948e-06 -0.00400956 3.26518e-05)
(-1.67833e-06 -0.00285538 1.41543e-05)
(4.88721e-06 -0.00376009 2.60094e-05)
(7.63047e-06 -0.00395724 3.16323e-05)
(3.233e-05 -0.00446064 4.8375e-05)
(8.07482e-05 -0.00635762 -5.99521e-05)
(-0.00148586 -0.0168822 -0.000268841)
(-0.00495837 -0.210588 0.00112084)
(0.00325416 -0.370859 -0.0456052)
(-0.0239646 -0.564129 -0.103384)
(0.0659654 -0.543538 -0.23596)
(-0.00260801 -0.978337 0.0129951)
(0.00210892 -0.540005 0.0104324)
(0.00317364 -1.71961 -0.0174677)
(-0.0022407 -0.338735 0.00631759)
(0.00223654 -0.0265445 0.00186804)
(-9.26465e-06 -0.00638502 -4.51917e-05)
(6.80907e-05 -0.00598858 0.000259303)
(-1.47394e-05 -0.00373882 1.89553e-05)
(2.76235e-05 -0.00424014 0.000161296)
(-3.14945e-05 -0.00387028 0.000143434)
(-1.18183e-06 -0.00279908 1.3847e-05)
(3.00191e-05 -0.00364941 0.000135996)
(1.4783e-05 -0.00382959 0.000147839)
(5.11579e-05 -0.00425673 0.000192381)
(0.000244921 -0.00550081 0.000178914)
(-0.000962748 -0.0150684 0.000781045)
(0.00103098 -0.198716 -0.00175992)
(0.0172145 -0.366066 -0.0448756)
(-0.000199654 -0.745802 -0.0664858)
(0.0180984 -0.98185 -0.0901855)
(-0.00795459 -0.618164 0.0154044)
(0.0115756 -0.339442 0.0121647)
(-0.00233747 -1.73453 -0.0172055)
(-0.00712562 -0.253156 0.0149396)
(0.000539724 -0.0202307 0.00168172)
(-6.37506e-05 -0.00594486 -8.81553e-05)
(-1.64706e-05 -0.00451153 0.000222916)
(-1.199e-05 -0.00364236 1.81253e-05)
(2.18264e-05 -0.00322509 0.000152149)
(-2.49899e-05 -0.00294759 0.000137408)
(-9.93493e-07 -0.00275947 1.16711e-05)
(2.3829e-05 -0.00278754 0.000130849)
(9.13659e-06 -0.00289298 0.000139967)
(2.43549e-05 -0.00318307 0.000172977)
(0.000194793 -0.00390019 0.000236476)
(-8.15372e-05 -0.0106454 0.00102706)
(0.00329639 -0.186238 -0.00989416)
(0.0333057 -0.355169 -0.0432527)
(0.0114429 -0.837318 -0.0396343)
(-0.00155728 -1.04413 -0.0134218)
(-0.00302933 -0.393363 0.00510681)
(0.00448886 -0.22568 0.00503284)
(-0.00013852 -1.82323 -0.00795413)
(-0.00465363 -0.118278 0.00996919)
(-0.00414743 -0.0163849 0.00129238)
(-0.000424438 -0.00604745 0.000371682)
(-0.000145631 -0.00439045 7.388e-05)
(-2.77532e-05 -0.00355937 4.37608e-05)
(-1.22571e-05 -0.00312027 3.53549e-05)
(-7.47183e-06 -0.00285327 3.21053e-05)
(-2.30352e-06 -0.00270019 2.76246e-05)
(3.40382e-06 -0.00270057 3.09334e-05)
(1.27472e-05 -0.00279994 3.58491e-05)
(7.04911e-05 -0.00307196 6.07356e-05)
(0.00036176 -0.00376732 0.000281267)
(0.00276117 -0.00938695 0.00120289)
(0.0101901 -0.164579 -0.00553294)
(0.033827 -0.35069 -0.0275433)
(-0.00163578 -0.888039 -0.0150952)
(0.000317011 -1.06207 7.66698e-05)
(-0.369767 -1.45363 -0.846408)
(0.0561249 -1.46145 -0.878915)
(0.178752 -1.20086 -0.722437)
(0.241614 -0.711696 -0.3799)
(0.377878 -0.493919 -0.288846)
(0.279366 -0.305273 -0.568465)
(0.0210792 -0.136354 -0.353121)
(-0.0162694 -0.084795 -0.315058)
(-0.0427956 -0.0835071 -0.298786)
(-0.0257306 -0.104429 -0.27524)
(-0.261968 -0.163065 -0.39964)
(-0.400889 -0.0980508 -0.137989)
(-0.324315 -0.0408346 -0.0550241)
(-0.305748 -0.0889948 -0.0637906)
(-0.246404 -0.202708 -0.131685)
(-0.204169 -0.270061 -0.18138)
(-0.144882 -0.336854 -0.23254)
(-0.0547509 -0.402757 -0.286367)
(0.039562 -0.472086 -0.29424)
(0.306814 -0.487936 -0.338831)
(0.00917811 -1.6274 -0.126214)
(-0.0167489 -1.54009 -0.147008)
(-0.00512863 -1.29846 -0.127041)
(3.24407e-05 -0.541084 -0.0150678)
(0.0121025 -0.176884 -0.495512)
(0.0771724 -0.0127055 -1.76927)
(-0.00272218 -0.029904 -0.844733)
(-0.000839189 -0.0566204 -0.485999)
(0.000355599 -0.0648639 -0.400313)
(0.000431981 -0.0485371 -0.451282)
(0.037778 -0.0651903 -1.23263)
(-0.0385404 -0.0491877 -0.313431)
(-0.195438 -0.0754302 -0.0882637)
(-0.133312 -0.136464 -0.0325087)
(-0.0761613 -0.206992 -0.0241832)
(-0.0830034 -0.2939 -0.0411127)
(-0.0654123 -0.430889 -0.0550861)
(-0.0289924 -0.550417 -0.090573)
(-0.000200386 -0.688912 -0.100418)
(0.0586724 -0.716425 -0.106232)
(0.0188038 -1.68876 -0.061263)
(-0.00137983 -1.53969 -0.0479275)
(-0.00677297 -1.33739 -0.0792527)
(0.00926221 -0.632624 -0.0275491)
(0.0060194 -0.304177 -0.107914)
(0.00846605 -0.12503 -0.295029)
(0.00271275 -0.0798111 -0.295477)
(0.000544903 -0.0682966 -0.332433)
(-0.000110301 -0.0743989 -0.307629)
(0.00164096 -0.0844072 -0.272369)
(-0.00167469 -0.0832764 -0.327067)
(0.0515229 -0.177262 -0.247982)
(-0.0643408 -0.180244 -0.124726)
(-0.0651216 -0.20039 -0.0564642)
(-0.0369816 -0.277087 -0.0347697)
(-0.0342836 -0.352652 -0.0156861)
(-0.0355729 -0.540904 -0.0329048)
(-0.0137353 -0.720324 -0.0418042)
(0.00114258 -0.852608 -0.0403302)
(0.0133821 -0.834575 -0.0128309)
(0.0308993 -1.62953 -0.0660144)
(0.0316917 -1.34762 -0.0140954)
(-0.0101406 -1.13628 -0.0149776)
(-0.00961244 -0.510204 0.00676852)
(-0.0025266 -0.289251 -0.0891321)
(-0.00228334 -0.0792511 -0.285671)
(0.000357999 -0.0637601 -0.354945)
(4.00172e-05 -0.0651033 -0.354156)
(-1.41839e-05 -0.0725472 -0.318985)
(-0.000794372 -0.0741989 -0.303903)
(-0.00079985 -0.0737299 -0.323321)
(-0.0113744 -0.0928075 -0.265567)
(-0.0349207 -0.119864 -0.138965)
(-0.033235 -0.187308 -0.0706139)
(-0.0180157 -0.27033 -0.0318718)
(-0.000579093 -0.214032 0.00727058)
(-0.00787021 -0.544856 0.00896906)
(-0.0152441 -0.739645 -0.0232069)
(-0.0364295 -0.852296 -0.00119933)
(-0.0550977 -0.695953 0.031837)
(0.0235801 -1.60099 -0.0794345)
(0.030449 -1.20518 -0.0189586)
(-0.0187823 -0.872546 0.0319033)
(-0.0238765 -0.408335 0.026369)
(-0.00393931 -0.294338 -0.0818376)
(-0.00275986 -0.10052 -0.226398)
(-5.51529e-05 -0.0717153 -0.320027)
(0.000110912 -0.0657381 -0.349002)
(-2.02698e-05 -0.0724079 -0.312874)
(-0.00132432 -0.0785293 -0.294663)
(-0.00239217 -0.0773185 -0.29775)
(-0.0177351 -0.116649 -0.216775)
(-0.0286231 -0.144216 -0.148697)
(-0.0223244 -0.197118 -0.088424)
(-0.0212084 -0.277448 -0.0371423)
(0.00801947 -0.372534 0.00192241)
(0.00161283 -0.544286 0.0146661)
(-0.0364759 -0.716029 0.0019815)
(-0.0617832 -0.749581 0.0240525)
(-0.0678132 -0.675584 0.0229596)
(0.0131449 -1.5023 -0.0457603)
(-0.00235458 -1.1221 -0.00154597)
(-0.0162309 -0.842653 0.0385898)
(-0.0241344 -0.38783 0.0232909)
(-0.00372802 -0.277475 -0.0806776)
(-0.00459884 -0.0935754 -0.244736)
(-0.000440469 -0.0710671 -0.319464)
(-4.79204e-05 -0.0654081 -0.349344)
(9.04152e-05 -0.0726345 -0.314194)
(-0.00188028 -0.075503 -0.30219)
(-0.00191636 -0.0776628 -0.30585)
(-0.011334 -0.105614 -0.213811)
(-0.0147897 -0.129293 -0.142251)
(-0.0127673 -0.173839 -0.0910345)
(-0.0173959 -0.245045 -0.0414416)
(-0.00666358 -0.331127 -0.00578333)
(-0.0104933 -0.489692 -0.000246547)
(-0.0421753 -0.664209 0.0240129)
(-0.0604717 -0.710506 0.0279256)
(-0.0504486 -0.676712 0.00934508)
(0.00108663 -1.38727 -0.0261865)
(-0.026008 -1.11043 0.0203305)
(0.0010684 -1.01357 0.0154722)
(-0.0140283 -0.495563 0.00861492)
(0.00419733 -0.261246 -0.0874027)
(-0.00414101 -0.0938559 -0.242402)
(-0.00033452 -0.0734077 -0.305872)
(-4.60852e-05 -0.0658726 -0.341491)
(-0.000341161 -0.0714889 -0.314776)
(-0.00297425 -0.0756034 -0.301946)
(-0.0014546 -0.080339 -0.270072)
(-0.0043712 -0.0970694 -0.174649)
(-0.00216917 -0.108794 -0.123002)
(-0.00223077 -0.139549 -0.0808009)
(-0.00751696 -0.204519 -0.0461065)
(-0.0191547 -0.305561 -0.0199816)
(-0.0264772 -0.485256 -0.0120447)
(-0.0357643 -0.63229 0.00406485)
(-0.0452049 -0.683142 0.0174756)
(-0.0387998 -0.668802 0.00682907)
(-0.00412656 -1.2837 0.00503457)
(-0.0386068 -1.1896 0.0173286)
(0.0228981 -1.23206 0.0160508)
(0.0127711 -0.663607 -0.00161774)
(0.00693494 -0.217421 -0.0880955)
(-0.000602545 -0.0897521 -0.245729)
(-0.000104241 -0.073811 -0.300486)
(-0.000343658 -0.0652555 -0.326864)
(-0.00132869 -0.06827 -0.30554)
(0.00065225 -0.070365 -0.245525)
(0.00350867 -0.0734529 -0.160978)
(0.00542963 -0.0697653 -0.106101)
(0.00965339 -0.0738868 -0.0755573)
(0.0114509 -0.0940594 -0.0498239)
(0.0104892 -0.139805 -0.0291186)
(-0.0147873 -0.218648 -0.0174135)
(-0.0359765 -0.412372 0.00228236)
(-0.0329935 -0.555554 0.0191147)
(-0.0211155 -0.631691 0.0230188)
(-0.0192933 -0.618259 0.0187841)
(-0.00366189 -1.16622 0.0464006)
(-0.0102579 -1.32698 -0.00480648)
(0.0309909 -1.32174 0.0302338)
(0.0300771 -0.703016 -0.00160676)
(0.000710428 -0.164818 -0.0405677)
(-0.00109882 -0.0587049 -0.19524)
(0.00112071 -0.0486355 -0.227046)
(0.00143314 -0.0407568 -0.25052)
(0.00142516 -0.0408902 -0.198773)
(0.00372611 -0.0333238 -0.112862)
(0.00498227 -0.0251852 -0.057656)
(0.00477409 -0.0233596 -0.0333061)
(0.00731252 -0.0241999 -0.0188814)
(0.00842955 -0.0301668 -0.00628883)
(0.0127827 -0.0354884 -0.000434436)
(-0.0034338 -0.0973959 0.0252932)
(-0.0295293 -0.358667 0.0115878)
(-0.0213043 -0.511884 0.0239542)
(-0.00357316 -0.609575 0.0181284)
(-0.0126236 -0.583846 0.015933)
(0.00230742 -1.15376 0.0471607)
(0.00315897 -1.33966 -0.00832665)
(0.00292159 -1.44561 0.010181)
(0.0378299 -0.629423 0.00136638)
(-0.00130526 -0.120035 0.00495045)
(0.00151319 -0.0292289 0.00320367)
(0.000964833 -0.0229664 0.00307378)
(0.00116691 0.000762299 0.0028419)
(0.000927232 0.00317867 0.00312347)
(0.000111437 -7.42034e-05 0.00236477)
(2.67673e-05 -0.00143203 0.00172752)
(0.000261264 -0.00565373 0.00162773)
(0.000643865 -0.00774351 0.00180298)
(0.000647249 -0.00947179 0.00266536)
(0.00267988 -0.0129899 0.0036406)
(0.00357652 -0.0297041 0.012114)
(-0.000182962 -0.312787 0.0171851)
(-0.00556187 -0.486177 0.0196035)
(0.00818254 -0.59037 0.0128531)
(-0.0127193 -0.550608 0.0102832)
(0.0114724 -1.19286 0.032652)
(0.00776072 -1.20758 0.00951371)
(-0.00497899 -1.58254 -0.0240326)
(0.0149397 -0.509814 0.00573308)
(-0.00676992 -0.151565 -0.000465041)
(0.000439017 -0.0330995 0.000593869)
(8.47356e-05 -0.0180893 0.000912935)
(-2.61008e-05 -0.00896269 -0.00026534)
(-3.08604e-05 -0.00564678 -0.000292001)
(4.50452e-05 -0.00437204 -0.000153495)
(1.94656e-06 -0.00378088 -0.000114066)
(1.29918e-05 -0.00414772 7.03253e-05)
(4.73222e-05 -0.00412252 0.000115742)
(5.95402e-05 -0.00454331 0.000204636)
(0.000102848 -0.00537992 0.00031459)
(0.00207301 -0.0175765 0.00076458)
(0.00255157 -0.288984 0.0125861)
(0.00581003 -0.459042 0.017094)
(0.0044148 -0.556724 0.00997653)
(-0.0145504 -0.512453 0.00503802)
(0.00781857 -1.22703 0.0305108)
(0.0101162 -1.11585 0.0292199)
(-0.00323741 -1.58615 -0.0359874)
(0.00278311 -0.463113 0.00953581)
(-0.00236387 -0.112483 0.00116709)
(-1.78898e-05 -0.0300489 0.000802883)
(0.000232941 -0.0174267 0.000204243)
(1.0238e-06 -0.00686741 0.000199964)
(-3.41987e-05 -0.00617015 -6.24748e-05)
(3.39988e-06 -0.00488512 -7.01959e-05)
(-2.05442e-05 -0.00323228 4.28499e-05)
(-6.16861e-05 -0.00424297 -5.48751e-05)
(-8.30185e-06 -0.00450303 -0.00010636)
(2.20671e-05 -0.00487651 -0.000103779)
(-1.06265e-05 -0.00604432 -0.00010516)
(0.000419586 -0.0190909 -0.000185681)
(0.00227646 -0.271377 0.00984002)
(0.003993 -0.442772 0.00902615)
(0.000438428 -0.526147 0.00517872)
(-0.014438 -0.495447 -0.00795101)
(-0.0228118 -1.33094 0.0230129)
(0.0169441 -1.13518 0.0150808)
(0.00686589 -1.60927 -0.0369088)
(0.00274674 -0.460215 0.00269168)
(0.00149928 -0.0982774 0.00143172)
(0.00060946 -0.0239252 0.000868885)
(-8.46208e-06 -0.0127684 0.000567852)
(-4.10608e-05 -0.00583335 0.000136099)
(1.94761e-05 -0.00574672 8.37112e-05)
(-6.06062e-05 -0.00476346 3.79312e-05)
(-6.39645e-06 -0.00318193 2.31223e-05)
(3.30447e-05 -0.00418088 2.28865e-05)
(-1.16322e-07 -0.00476598 1.59201e-05)
(1.8852e-05 -0.0050909 2.01264e-05)
(0.000176849 -0.00619976 5.10924e-05)
(0.000898552 -0.0188269 0.000136365)
(0.00117419 -0.26178 0.00377508)
(-0.000807642 -0.421984 0.00380122)
(0.00751911 -0.501005 -0.00961814)
(-0.0182886 -0.427539 -0.0361686)
(-0.0494613 -1.37369 0.0242113)
(0.0266127 -1.18668 0.00403005)
(0.0118744 -1.63734 -0.0385154)
(0.00449279 -0.446801 0.000960764)
(0.000348189 -0.0880562 0.00163005)
(0.000433707 -0.0159604 0.000826077)
(-0.000114561 -0.00981988 0.000350404)
(-5.47164e-05 -0.0048997 0.000108985)
(-2.10086e-05 -0.00527814 8.02708e-05)
(-1.9371e-05 -0.00454062 4.56682e-05)
(-4.82355e-06 -0.00301915 2.42234e-05)
(2.32524e-05 -0.00408526 2.74751e-05)
(-1.55815e-06 -0.00446055 5.60116e-05)
(-7.81684e-05 -0.00494132 3.54953e-05)
(-2.59208e-05 -0.00635915 2.61456e-05)
(0.000758552 -0.0189777 3.63623e-05)
(0.000484904 -0.250141 0.00152041)
(-0.00567853 -0.401838 -0.00161041)
(0.0178825 -0.467151 -0.0774202)
(-0.0417388 -0.309458 -0.139581)
(-0.0329456 -1.49567 -0.01262)
(0.0238173 -1.12335 0.020395)
(5.90165e-06 -1.67356 -0.0313919)
(0.00343863 -0.405062 0.0078986)
(0.00104398 -0.0705934 0.00234213)
(8.26855e-05 -0.0111568 0.000401969)
(-7.52599e-05 -0.00800029 0.000222401)
(-3.35852e-05 -0.00428548 7.26638e-05)
(-1.05899e-05 -0.0047778 6.73761e-05)
(-1.3952e-05 -0.00421894 4.45409e-05)
(-4.01351e-06 -0.00286281 2.06339e-05)
(4.31033e-06 -0.00386215 3.01879e-05)
(-6.0275e-06 -0.00411395 3.82649e-05)
(-7.35773e-05 -0.00464926 2.46287e-05)
(-0.000202781 -0.00642629 -2.48779e-05)
(-0.000227163 -0.0187719 -4.59302e-05)
(-0.00181706 -0.235416 0.00365262)
(-0.00605975 -0.37839 0.00168573)
(0.0192901 -0.446559 -0.110163)
(-0.0411908 -0.206595 -0.24352)
(-0.0176775 -1.50387 -0.0291193)
(-5.00402e-05 -0.925997 0.0359388)
(-0.00112015 -1.68512 -0.0222997)
(0.00273257 -0.381105 0.00752074)
(0.00160592 -0.0511205 0.00217464)
(-0.000114522 -0.00869037 0.000146485)
(-2.71548e-05 -0.00690483 0.000147197)
(-2.25355e-05 -0.00387508 4.64907e-05)
(-5.37445e-06 -0.00444029 4.68598e-05)
(-9.07644e-06 -0.00398614 3.30968e-05)
(-2.69684e-06 -0.00273102 1.5988e-05)
(2.38872e-06 -0.00370222 2.34406e-05)
(-1.67568e-06 -0.00390674 2.69339e-05)
(-1.72393e-05 -0.00442894 2.13692e-05)
(-0.00014995 -0.00624336 -5.19081e-05)
(-0.00109789 -0.0169053 -6.74911e-05)
(-0.0032594 -0.225619 -0.000334163)
(0.002914 -0.379552 -0.0181188)
(0.00121469 -0.464173 -0.118982)
(0.00635955 -0.217368 -0.304941)
(0.012049 -1.33739 -0.0221432)
(-0.012994 -0.796952 0.0140121)
(0.00562039 -1.69025 -0.0170545)
(0.00135031 -0.385494 0.00291982)
(0.00250831 -0.0364959 0.0016589)
(-0.000160417 -0.00705769 -1.36662e-06)
(5.20291e-05 -0.00618342 0.000103024)
(-1.5029e-05 -0.00361002 2.41168e-05)
(-3.15494e-07 -0.00419211 3.36421e-05)
(-7.19608e-06 -0.0038024 2.51948e-05)
(-1.43036e-06 -0.00263604 1.05836e-05)
(4.27168e-06 -0.00356502 1.99698e-05)
(6.79345e-06 -0.00375264 2.42942e-05)
(3.34004e-05 -0.00423241 3.77571e-05)
(8.16074e-05 -0.00599718 -1.08148e-05)
(-0.00144156 -0.0159545 -8.56795e-05)
(-0.00391334 -0.21224 -0.00111132)
(0.00332552 -0.370336 -0.0454704)
(-0.0244524 -0.56093 -0.0965866)
(0.0694316 -0.508901 -0.210979)
(-0.00419323 -1.09539 -0.00583048)
(0.00494817 -0.657915 -0.00520281)
(0.00372673 -1.69696 -0.0161056)
(-0.00228041 -0.379024 0.00263139)
(0.00233261 -0.0253781 0.0012821)
(-7.57399e-06 -0.00587146 -6.25566e-05)
(6.48946e-05 -0.00568882 0.000205285)
(-1.18889e-05 -0.00345585 1.36151e-05)
(2.40159e-05 -0.004021 0.000128816)
(-2.7109e-05 -0.00366885 0.00011489)
(-9.5724e-07 -0.002584 9.80312e-06)
(2.59429e-05 -0.00345869 0.000108746)
(1.28082e-05 -0.0036301 0.000117838)
(4.84082e-05 -0.00403682 0.000151675)
(0.000224624 -0.00522292 0.00017881)
(-0.000918089 -0.0143578 0.00069595)
(0.000987787 -0.198491 -0.00422501)
(0.0170956 -0.365437 -0.0452793)
(-0.00131424 -0.734789 -0.0571258)
(0.0248006 -0.92596 -0.0686108)
(-0.010301 -0.835449 -0.0138062)
(0.0148234 -0.473671 -0.00232728)
(-0.00240231 -1.71275 -0.0148934)
(-0.00760981 -0.328932 0.00616448)
(0.000902905 -0.0192061 0.00118304)
(-5.51905e-05 -0.00546714 -4.39509e-05)
(-1.78552e-05 -0.00417314 0.000175842)
(-9.80002e-06 -0.0033672 1.23409e-05)
(1.82542e-05 -0.00297803 0.000120877)
(-2.06889e-05 -0.00272083 0.000109426)
(-7.99108e-07 -0.00254775 7.71044e-06)
(1.98092e-05 -0.00257252 0.000104006)
(7.58293e-06 -0.00267008 0.000110947)
(2.06026e-05 -0.00293876 0.000135121)
(0.000166216 -0.00360731 0.000188195)
(0.000102423 -0.00987695 0.0007847)
(0.00308868 -0.186066 -0.011772)
(0.0330064 -0.354331 -0.0439902)
(0.0114528 -0.811508 -0.0332186)
(-0.000416206 -1.00161 -0.00962875)
(-0.00413953 -0.709714 -0.00776851)
(0.00511985 -0.382457 -0.000905386)
(0.000355585 -1.7972 -0.00727479)
(-0.00654168 -0.266887 0.00358424)
(-0.00391705 -0.015535 0.000893092)
(-0.000368992 -0.00560063 0.000232469)
(-0.000129316 -0.00405585 4.03889e-06)
(-2.46748e-05 -0.0032876 -8.42486e-06)
(-1.10412e-05 -0.00287789 -1.05155e-05)
(-6.67371e-06 -0.00263068 -1.04555e-05)
(-2.08709e-06 -0.00249113 -1.21662e-05)
(2.9367e-06 -0.00248931 -9.94415e-06)
(1.10847e-05 -0.00258106 -7.58362e-06)
(6.01394e-05 -0.00283199 5.95181e-06)
(0.000312576 -0.00346987 0.000154184)
(0.0026502 -0.00866169 0.000821467)
(0.00971788 -0.164416 -0.0070673)
(0.0333584 -0.348655 -0.0273428)
(-0.00137657 -0.848327 -0.0119186)
(0.000686887 -1.02372 3.80556e-05)
(-0.394686 -1.4419 -0.763644)
(0.0598973 -1.45761 -0.806498)
(0.19376 -1.18743 -0.656407)
(0.25713 -0.715943 -0.347605)
(0.395678 -0.493621 -0.274521)
(0.27954 -0.302935 -0.555396)
(0.0177745 -0.129611 -0.345936)
(-0.0188225 -0.0833445 -0.308734)
(-0.0489561 -0.0820792 -0.288431)
(-0.0254707 -0.101764 -0.268159)
(-0.264481 -0.169719 -0.373934)
(-0.400418 -0.101517 -0.128286)
(-0.32413 -0.040889 -0.0524018)
(-0.306598 -0.0867374 -0.055276)
(-0.246989 -0.201858 -0.108216)
(-0.204543 -0.269496 -0.135777)
(-0.145542 -0.335924 -0.174943)
(-0.055071 -0.401774 -0.222887)
(0.0392055 -0.471037 -0.233692)
(0.309 -0.486957 -0.278167)
(0.00622744 -1.62409 -0.117282)
(-0.0152525 -1.55099 -0.141842)
(-0.000874674 -1.29322 -0.122853)
(0.00108446 -0.566979 -0.0175788)
(0.0103478 -0.168667 -0.491815)
(0.0852636 -0.0123411 -1.77019)
(-0.00261807 -0.0290029 -0.844582)
(-0.000811104 -0.0554564 -0.486272)
(0.000417617 -0.0637816 -0.400518)
(0.000413534 -0.0466686 -0.452001)
(0.038717 -0.0649547 -1.23315)
(-0.0310789 -0.0406236 -0.30064)
(-0.192775 -0.0734532 -0.078468)
(-0.132128 -0.135605 -0.0331978)
(-0.0751381 -0.206117 -0.023491)
(-0.0829615 -0.294009 -0.0353935)
(-0.0653712 -0.430792 -0.04181)