/*--------------------------------*- C++ -*----------------------------------*\
| =========                 |                                                 |
| \\      /  F ield         | OpenFOAM: The Open Source CFD Toolbox           |
|  \\    /   O peration     | Version:  2.3.0                                 |
|   \\  /    A nd           | Web:      www.OpenFOAM.org                      |
|    \\/     M anipulation  |                                                 |
\*---------------------------------------------------------------------------*/
FoamFile
{
    version     2.0;
    format      ascii;
    class       volVectorField;
    location    "3.50001";
    object      Ur;
}
// * * * * * * * * * * * * * * * * * * * * * * * * * * * * * * * * * * * * * //

dimensions      [0 1 -1 0 0 0 0];

internalField   nonuniform List<vector> 
10000
(
(-0.0107569 0.00477702 -0.190261)
(0.00258554 0.00408137 -0.165383)
(0.00432873 0.00549277 -0.131693)
(0.00412144 0.00201325 -0.0566406)
(0.00106528 0.00109453 -0.00802532)
(0.000370259 0.000458708 -0.00601361)
(0.00599204 0.000513336 6.47902e-05)
(0.00258918 0.00145252 -0.011466)
(-0.00665983 0.00101234 -0.0141634)
(-0.000617683 0.000559674 -0.0073045)
(-0.0173134 -0.00348017 -0.0153859)
(-0.00749485 0.0397876 -0.0204654)
(-0.000102912 0.0246775 -0.00687602)
(-0.00139512 0.000938 -0.0229295)
(-0.00247237 0.00181395 -0.0644324)
(-0.00229737 0.00281177 -0.111581)
(-0.00138187 0.00327913 -0.138714)
(-0.000294135 0.00337929 -0.154953)
(6.31601e-05 0.00289505 -0.146066)
(0.00781294 0.00340939 -0.14906)
(-0.00113325 0.00761284 -0.00204716)
(6.28371e-05 0.00653762 -0.00197025)
(0.000316778 0.00524421 -0.0120051)
(-4.63422e-05 0.0017586 0.00211656)
(-0.000138679 0.000983081 -0.0113)
(0.00565218 0.000206863 0.000375548)
(9.09104e-06 3.60578e-05 0.000174704)
(-1.36298e-05 -0.0010093 -0.000223393)
(2.11539e-05 0.000188164 -0.000255549)
(-7.04417e-05 0.000173478 0.000423296)
(0.0144999 -0.0106016 -0.00274775)
(0.0126492 0.0590065 -0.0837214)
(0.00692831 0.0112954 -0.0335924)
(0.00355303 0.00071515 0.00282258)
(-0.00053586 0.00180311 0.00039225)
(-0.0008342 0.00410336 -0.0141703)
(-0.000956325 0.00441805 -0.0310841)
(0.000146971 0.0155524 -0.0357159)
(0.000927767 0.0151858 -0.0225871)
(0.00273117 0.0142615 -0.0156675)
(4.8979e-06 -7.66002e-06 7.93198e-05)
(-3.90287e-05 -0.000387473 -1.99865e-05)
(3.98415e-05 0.000129808 -0.000388692)
(-0.000162459 0.000381179 0.0056763)
(-0.000194775 0.000176612 -0.00169292)
(4.52975e-05 -5.23115e-06 -0.0013912)
(5.12903e-05 5.98155e-06 -0.00026207)
(9.70696e-06 1.19297e-05 -2.29087e-05)
(-3.2701e-06 8.07297e-06 -3.58903e-05)
(2.5095e-06 -4.32129e-06 -0.000108667)
(-1.64887e-05 6.08649e-05 6.45215e-05)
(-0.000211154 -0.00110453 -0.000694235)
(-5.11785e-05 -0.0145649 -0.00908759)
(9.29225e-05 2.44821e-05 -0.00168887)
(0.000548796 0.000109237 -0.0037854)
(0.000100701 0.00358642 0.020908)
(-0.000806704 0.0017626 -0.0144464)
(8.05071e-05 0.000990417 -0.00191778)
(1.68866e-05 1.8518e-05 7.36935e-05)
(8.41259e-05 4.77269e-05 -0.000138912)
(-9.85239e-07 -8.60995e-06 2.75409e-05)
(-8.39481e-06 6.2001e-05 -9.18793e-07)
(-0.000281217 -0.000446793 -6.96107e-05)
(-0.000403697 0.00565457 0.00971485)
(-0.000315907 5.74836e-05 0.000567759)
(-6.72821e-06 5.10609e-05 -4.60995e-05)
(2.92491e-07 1.05227e-05 2.25901e-05)
(-1.45555e-06 2.52113e-06 4.52329e-06)
(-2.79081e-07 2.37851e-06 -2.16018e-05)
(-7.27511e-06 6.90984e-06 -2.92725e-05)
(-3.63168e-06 -8.31009e-06 -0.000369854)
(1.95731e-05 -7.72963e-06 -0.000798603)
(5.44259e-05 0.000210234 0.000470455)
(7.48442e-05 0.000109767 0.00251209)
(0.00020853 0.000236263 0.00368503)
(0.000756431 0.00844921 0.014507)
(0.000456536 0.0168786 0.0389634)
(-0.000788296 0.000957452 0.00237063)
(0.000125512 -0.000297366 -0.000102014)
(-0.000134024 -0.00180359 -6.21897e-05)
(6.8613e-05 -2.64785e-05 -4.62698e-05)
(-1.38249e-06 0.000291977 0.000147213)
(-0.000577462 -0.00177725 -6.85469e-05)
(-0.000386218 0.000888508 0.00242414)
(-6.71595e-05 -3.34315e-08 0.000774001)
(-1.19731e-05 4.00172e-06 7.47639e-05)
(-4.18255e-07 1.13304e-06 -3.00931e-05)
(8.48501e-07 1.12559e-06 -3.27558e-07)
(-6.19405e-07 3.63309e-06 -1.87693e-05)
(-9.03727e-06 1.38615e-06 -9.69003e-06)
(-5.2937e-05 8.41019e-06 -0.000600843)
(-3.83249e-05 7.40205e-06 -0.00106226)
(8.35444e-05 7.32963e-05 -0.00118412)
(0.000192618 9.90233e-05 0.00219899)
(-0.000621687 0.000162779 0.0064066)
(0.000605786 -0.00150574 -0.0263835)
(0.00133956 0.0177293 0.040302)
(-0.000335254 0.00161641 0.00375219)
(-0.000152286 -0.002177 -7.82568e-05)
(2.79405e-05 6.53168e-05 7.48754e-05)
(0.000129942 -0.000143252 1.99064e-06)
(0.000147259 -0.000170713 5.58943e-05)
(-9.38216e-05 0.00070756 0.000168875)
(-4.64746e-05 -0.0027171 -0.00766505)
(0.000201597 -7.96924e-07 0.000241187)
(-3.00054e-06 -1.11585e-07 6.42204e-05)
(-2.45238e-06 1.72126e-06 1.55313e-05)
(-8.13647e-07 7.17836e-07 -1.85602e-05)
(6.43594e-07 3.08339e-06 -2.25871e-05)
(-8.75126e-06 2.24231e-06 3.01517e-06)
(7.72369e-06 5.07589e-06 -0.000545381)
(7.50757e-05 9.62276e-05 0.000191473)
(0.000133857 0.000166702 0.00290405)
(0.000210161 0.000170364 0.00493228)
(-6.36354e-05 0.00015192 0.0105829)
(-0.000814089 0.00119233 -0.0031082)
(2.94441e-05 -0.00516335 -0.0327571)
(0.00120736 -0.000696924 3.55446e-05)
(1.67062e-05 -0.000407833 2.9903e-05)
(-4.13642e-06 5.56921e-05 1.36939e-05)
(-0.000128535 -0.000337317 -5.37468e-05)
(5.62009e-05 -0.000438981 -7.18583e-05)
(4.2032e-05 0.00232401 4.40992e-05)
(0.000295471 0.000476882 -0.00449553)
(0.000248172 4.99814e-06 9.93575e-05)
(-4.53322e-06 2.7382e-06 -7.21417e-05)
(5.00141e-07 3.39529e-06 -9.18857e-05)
(1.99699e-06 6.03996e-06 -8.68097e-05)
(6.59251e-07 9.63862e-06 -3.12116e-05)
(-3.19479e-06 3.3215e-05 -0.000126485)
(5.87716e-05 0.000110074 -0.000369142)
(0.000116337 0.000175719 0.00210751)
(0.000150432 0.000184627 0.00469006)
(0.000212594 0.000253688 0.00785929)
(4.7499e-05 0.00022945 0.0128114)
(-0.000620322 0.000417637 0.010649)
(-0.00023279 0.00288206 -0.0221942)
(0.000424675 -8.83526e-05 0.000163873)
(-5.25417e-05 -0.000406833 1.25197e-05)
(-2.56018e-05 -0.000165138 -2.7066e-06)
(-0.000157815 -0.00561785 -0.000351796)
(6.07584e-05 0.00438494 0.00013384)
(-7.5665e-05 0.00131462 -0.000111999)
(2.63756e-05 0.000196617 5.35484e-06)
(3.98278e-05 3.14442e-05 -0.000389806)
(4.17216e-06 3.4599e-06 2.34841e-05)
(6.54521e-07 5.36445e-06 2.83911e-05)
(3.78766e-06 2.65845e-05 5.50189e-05)
(2.4514e-05 7.47743e-05 6.49398e-05)
(9.45328e-05 0.000198609 0.000738743)
(0.000145902 0.000280891 0.00315894)
(0.000109784 0.000277621 0.0062946)
(0.000204984 0.00027484 0.00832265)
(0.00029783 0.000289647 0.0154291)
(0.000132874 0.000124374 0.0203824)
(0.000210403 0.000439703 0.0217057)
(0.00142008 0.0162967 0.0282071)
(-0.000449533 -0.000190954 0.000748196)
(-1.66972e-05 -0.000343485 1.40592e-05)
(-1.44278e-05 -0.000218027 5.18079e-06)
(0.000115073 -0.00216312 -0.00010237)
(-1.78124e-05 -0.000160089 -2.02786e-05)
(-2.19632e-05 0.00209925 2.56066e-05)
(-0.000115631 -3.83471e-06 -1.13647e-05)
(-0.000167894 2.24014e-06 -0.000840627)
(-1.09312e-05 2.53292e-05 -0.000623888)
(2.01448e-05 3.96494e-05 -0.000526625)
(6.75131e-05 4.21072e-05 0.000374932)
(0.000165424 0.000115707 0.00184135)
(0.000203435 0.000211305 0.00652845)
(0.000128065 0.00013735 0.0107522)
(8.35791e-05 7.8957e-05 0.0127437)
(0.000143672 4.9793e-05 0.0147414)
(-3.44745e-05 0.000333244 0.0189424)
(-2.20097e-05 0.00044035 0.0174923)
(0.000703997 0.00209463 0.0272112)
(0.00133659 0.0146678 0.0494667)
(-0.000502036 -0.000250986 0.000303771)
(-6.77537e-07 -0.000167116 1.4045e-05)
(-2.49432e-07 -9.84488e-05 2.94039e-05)
(1.66298e-05 0.000344884 9.32897e-05)
(1.4455e-05 -0.00015761 -0.000178811)
(3.70812e-05 0.00571739 0.00010185)
(6.59933e-05 -0.00069284 -3.52711e-05)
(5.30323e-07 -2.20927e-05 -1.14722e-06)
(-2.88033e-05 -2.26973e-05 -0.000127403)
(-6.43775e-06 -2.20002e-05 -0.000177538)
(-4.53864e-06 -5.32216e-05 -0.000264609)
(-4.76975e-06 -8.30448e-05 -0.000286051)
(-1.94515e-05 -0.000415615 -0.00048782)
(-2.22519e-06 -0.000815813 -0.000411402)
(4.36305e-05 -0.00118036 -0.000320513)
(0.000175981 -0.00198451 0.000200664)
(0.000150341 -0.0020558 0.00699539)
(0.00115931 -0.00361128 0.0142582)
(0.000674169 5.33193e-06 0.0136989)
(0.000198431 0.00989046 0.0468256)
(-0.000376025 -0.000310448 9.88683e-07)
(1.05159e-05 -0.000137568 5.37254e-06)
(3.95252e-06 -2.42072e-05 2.35857e-05)
(-4.55733e-05 0.000829185 9.98302e-05)
(2.39614e-05 -0.00441107 -7.68583e-05)
(5.29235e-07 2.98814e-05 3.75227e-06)
(1.14911e-05 -0.000183194 1.03875e-05)
(-1.48655e-06 -3.24187e-06 -3.63917e-08)
(7.0927e-09 -4.035e-08 2.20508e-07)
(3.67861e-08 -1.21979e-06 -1.47638e-08)
(2.83612e-08 -6.8775e-07 2.5241e-07)
(-8.43586e-09 3.04705e-07 -8.76231e-08)
(-5.83569e-09 8.24818e-07 -2.76754e-07)
(-1.18698e-08 1.14094e-06 -2.35654e-07)
(5.06189e-08 7.97005e-07 -2.3617e-07)
(2.25985e-08 -3.51524e-06 -2.78683e-07)
(-1.33329e-07 1.36342e-06 -2.74222e-07)
(7.5497e-08 -9.17194e-06 -8.28804e-07)
(0.000612082 -0.000616663 0.00241241)
(-1.13697e-07 -0.000719222 -0.000172931)
(1.10257e-05 -0.000165825 1.63283e-05)
(1.29952e-05 -3.33571e-05 1.22994e-05)
(1.17525e-05 0.000376386 2.26538e-05)
(-2.41479e-05 0.0010727 5.74706e-05)
(-4.73015e-06 -0.000146202 9.23455e-05)
(-1.43887e-05 2.23018e-05 1.65665e-05)
(-1.63157e-06 -8.73897e-06 1.05841e-05)
(-2.7564e-07 1.7405e-06 8.51972e-07)
(-5.92759e-08 -1.47761e-06 -1.52756e-07)
(1.20383e-07 -1.62988e-06 1.27745e-07)
(6.30802e-09 -3.10599e-07 1.39969e-07)
(-1.45607e-08 5.22702e-07 9.54379e-08)
(-1.86584e-09 1.01774e-06 6.21163e-08)
(2.59107e-08 9.33957e-07 3.84534e-08)
(4.87527e-07 1.39536e-06 8.1266e-08)
(-2.7082e-08 1.46353e-06 1.5333e-06)
(-4.88698e-07 1.49198e-06 -2.23515e-08)
(1.21363e-08 1.4284e-06 -5.77293e-08)
(2.10111e-07 -1.76872e-06 4.00208e-07)
(3.11324e-06 -9.37654e-05 3.38567e-06)
(1.63948e-05 -0.000117144 1.33557e-05)
(1.98469e-06 0.000431919 1.40388e-05)
(-6.71605e-06 -7.22863e-05 2.2743e-05)
(0.000117924 0.00158972 -1.41582e-05)
(-4.01627e-05 0.000726324 5.27594e-05)
(2.45439e-06 2.00286e-05 3.59322e-06)
(-1.67308e-06 3.27878e-05 6.65934e-06)
(-2.5674e-07 9.33501e-07 7.94845e-08)
(6.34635e-08 -2.42717e-06 -5.6767e-08)
(7.27153e-08 -6.16089e-07 1.59239e-07)
(-1.03387e-08 5.51219e-07 8.74302e-08)
(-1.70488e-08 8.22452e-07 9.5674e-08)
(-9.8904e-09 1.07334e-06 3.70534e-08)
(-5.97803e-09 9.72011e-07 1.86086e-09)
(3.01849e-09 1.46839e-06 3.83814e-09)
(1.15122e-09 9.36627e-07 -5.63176e-08)
(1.55611e-08 1.22404e-06 2.66544e-08)
(8.29147e-08 1.36806e-06 7.83226e-08)
(4.9845e-07 -2.53428e-06 3.79784e-07)
(1.72165e-06 -7.48457e-05 6.84467e-06)
(1.00157e-05 -0.000147074 1.55817e-05)
(-6.4907e-06 -0.000110749 6.95665e-05)
(9.05641e-06 -8.16477e-05 6.03994e-05)
(0.000118496 0.00407708 4.30838e-05)
(5.32714e-06 -0.000541883 -0.000170944)
(1.66597e-05 3.83372e-05 -1.72072e-05)
(2.70882e-06 -9.78674e-05 -1.01967e-05)
(2.67476e-07 -1.26523e-06 -3.79368e-07)
(1.63267e-07 -1.78964e-06 2.63986e-08)
(-1.63052e-08 3.82935e-07 9.28945e-08)
(-6.20263e-09 8.34602e-07 3.38073e-08)
(-2.19573e-09 1.20205e-06 4.00009e-08)
(-1.53433e-08 1.27374e-06 1.6573e-08)
(-1.79387e-08 9.90022e-07 -5.47525e-08)
(-4.92037e-07 1.47039e-06 1.15246e-08)
(3.77013e-08 1.31316e-06 -1.5373e-06)
(5.44342e-07 1.59177e-06 6.97322e-08)
(1.35545e-09 1.67808e-06 -3.627e-08)
(4.38699e-07 -6.48119e-07 3.68767e-07)
(2.91798e-06 -7.30269e-05 3.09779e-06)
(1.24001e-06 -0.000177276 2.39093e-05)
(1.54457e-06 -8.85013e-05 7.31476e-05)
(1.80774e-05 -0.000129921 9.36477e-05)
(-6.86678e-06 -0.000268346 6.79509e-05)
(5.25141e-05 -0.00195674 -0.000134284)
(-7.32436e-06 1.00367e-05 -7.60433e-06)
(1.41131e-06 -4.08283e-05 6.06652e-06)
(-3.6395e-08 -1.64605e-06 -1.36721e-07)
(8.49391e-08 -2.83679e-07 1.30813e-07)
(-3.86742e-08 9.03035e-07 3.92243e-08)
(-3.72157e-09 9.54805e-07 1.31567e-08)
(-8.95383e-10 1.29283e-06 9.12495e-09)
(-1.75739e-09 1.30612e-06 2.71736e-09)
(-2.90237e-09 9.96261e-07 -4.79437e-09)
(-3.32963e-08 1.38654e-06 -1.41439e-08)
(9.78615e-09 2.01476e-06 -6.52996e-08)
(2.13106e-08 1.66697e-06 -1.41062e-08)
(-1.46326e-07 1.09441e-06 -3.45064e-07)
(-4.58934e-07 1.54659e-06 1.11449e-06)
(5.03938e-06 -5.5419e-05 2.04815e-05)
(1.65891e-05 0.000238042 1.74784e-05)
(9.89082e-06 -4.01348e-05 1.31249e-05)
(-1.59563e-05 -2.94385e-05 3.88712e-05)
(-5.54104e-06 5.36516e-05 -6.5073e-06)
(3.08323e-05 -0.000649414 0.000110009)
(-1.96571e-05 1.84173e-05 -5.37755e-06)
(-3.43521e-07 3.72043e-05 1.49252e-05)
(-5.00874e-07 -1.37251e-06 1.12402e-07)
(-3.11233e-08 4.93614e-07 8.9189e-08)
(-3.65508e-08 1.13606e-06 1.45836e-08)
(-1.92578e-09 1.00148e-06 5.59475e-09)
(-2.69975e-10 1.33207e-06 7.87687e-10)
(2.66966e-10 1.32502e-06 -4.59197e-10)
(-4.62093e-10 9.88198e-07 -2.0926e-09)
(-5.84404e-09 1.35405e-06 -4.69322e-09)
(1.80243e-08 1.48033e-06 -5.62608e-08)
(8.7426e-08 1.66805e-06 -1.10851e-08)
(-5.32906e-08 3.75321e-07 -6.70405e-07)
(-7.87102e-06 1.04723e-06 2.17355e-06)
(8.46319e-06 -5.55152e-05 1.07039e-05)
(1.20164e-05 -5.03171e-05 3.39313e-05)
(2.20218e-05 3.69923e-06 -8.37595e-08)
(-7.66614e-05 8.49818e-05 2.84067e-05)
(1.644e-05 -2.48732e-05 2.92293e-05)
(-3.33241e-06 0.000305059 9.99754e-05)
(1.57511e-05 -2.63521e-05 8.31104e-06)
(2.61015e-07 1.35908e-05 -1.86641e-06)
(3.96957e-07 -1.16873e-06 -1.06776e-07)
(-3.35039e-08 9.71013e-07 9.62423e-10)
(-1.9152e-08 1.22369e-06 2.83672e-09)
(-5.17964e-11 1.0242e-06 3.21367e-09)
(-2.14554e-10 1.34576e-06 -9.80134e-10)
(9.35315e-10 1.33136e-06 -1.11434e-09)
(-3.21542e-10 9.92247e-07 3.04537e-10)
(-2.34251e-09 1.34605e-06 -3.53191e-09)
(-7.45404e-09 1.43017e-06 -1.85147e-09)
(7.21044e-08 1.65576e-06 -1.12931e-08)
(1.76935e-07 -8.31709e-08 3.76606e-07)
(1.14051e-06 2.94939e-06 1.06088e-06)
(-1.9567e-06 7.52333e-05 -1.12091e-05)
(-1.23663e-06 -2.63089e-05 1.86083e-05)
(1.58642e-06 0.000106287 -3.50729e-05)
(1.95317e-05 0.000467655 -6.82015e-05)
(-1.7094e-05 -0.00520823 -9.17673e-05)
(-5.93305e-06 -0.000329588 -5.59433e-05)
(5.39248e-06 -0.0002846 4.68844e-06)
(2.04547e-07 -8.52629e-05 -1.02675e-05)
(9.49858e-07 -1.74209e-06 -4.08708e-07)
(2.84635e-09 9.50678e-07 -5.45688e-08)
(6.10017e-09 1.21899e-06 -5.77497e-08)
(1.00097e-09 1.04265e-06 6.18275e-10)
(-7.10037e-09 1.32605e-06 -5.66237e-08)
(7.82656e-09 1.31171e-06 -5.52905e-08)
(-5.16065e-10 1.00374e-06 -1.02466e-09)
(-1.46193e-08 1.32201e-06 -5.85382e-08)
(-1.53146e-08 1.3871e-06 -7.80263e-08)
(-7.55683e-08 1.51182e-06 -5.34962e-08)
(1.4643e-07 1.22486e-06 4.54403e-07)
(6.05551e-06 -1.61062e-06 -1.02521e-06)
(-4.45659e-06 -2.38014e-05 -8.25255e-06)
(-1.31072e-05 -1.96191e-05 1.45475e-06)
(-2.88623e-05 0.000205945 -6.91889e-05)
(0.000122536 0.000394347 -0.000442639)
(-1.24816e-05 -0.000436517 -1.17807e-05)
(6.23068e-06 -0.000159147 -1.67322e-05)
(-2.01198e-07 -0.00441024 4.13741e-05)
(-3.53704e-06 -5.65564e-05 -6.54518e-06)
(6.24777e-07 -1.90883e-06 -2.77167e-07)
(2.57666e-08 9.33143e-07 -4.89064e-08)
(1.64193e-08 9.89736e-07 -5.58979e-08)
(5.48437e-10 1.06047e-06 -1.15021e-09)
(-6.01979e-09 1.03132e-06 -5.86516e-08)
(6.35766e-09 1.01504e-06 -5.74961e-08)
(-8.0198e-11 1.01384e-06 -1.54936e-09)
(-6.70942e-09 1.01988e-06 -5.84394e-08)
(-1.49954e-09 1.05955e-06 -6.09695e-08)
(1.36338e-08 1.12935e-06 -7.20062e-08)
(3.40546e-08 1.22456e-06 6.2762e-08)
(6.25346e-07 -2.25516e-07 -5.56485e-08)
(-1.03254e-06 -2.20461e-05 9.10731e-06)
(-4.46211e-06 -1.37975e-05 8.04218e-06)
(0.000180278 0.000166661 -0.000252725)
(-0.000173151 -0.000779603 3.07713e-05)
(3.0248e-06 -0.000292665 1.42492e-06)
(6.1888e-07 -3.27265e-05 8.13375e-06)
(7.90447e-06 -0.078848 0.000260815)
(2.37256e-07 3.15902e-05 3.52608e-07)
(1.00242e-08 -2.9447e-08 -1.06826e-07)
(6.83643e-09 8.20676e-07 9.30332e-09)
(1.12567e-08 1.16221e-06 6.86224e-09)
(2.58322e-09 1.14512e-06 6.38869e-09)
(1.97156e-09 1.11028e-06 6.25118e-09)
(1.35917e-09 1.07797e-06 6.25093e-09)
(1.53111e-10 1.05941e-06 6.83472e-09)
(-1.2039e-09 1.07451e-06 5.97386e-09)
(-5.77422e-09 1.11225e-06 7.38511e-09)
(1.8078e-08 1.19076e-06 -6.68664e-09)
(-7.55918e-08 1.23056e-06 2.32727e-07)
(2.70114e-06 1.40679e-06 -2.33748e-07)
(-1.80434e-06 7.16943e-07 3.15817e-05)
(-1.75738e-05 -0.00021298 1.65238e-05)
(-0.000135489 -0.00840304 0.000391878)
(4.6598e-05 -0.0152917 0.000364413)
(-0.0228918 0.00844316 -0.103123)
(0.00469253 0.00694308 -0.105146)
(0.00935292 0.0100811 -0.0851018)
(0.00943913 0.0034289 -0.0314452)
(0.00243745 0.00120167 0.000216275)
(0.000502133 0.000414614 -0.0030712)
(-0.00234065 0.000120308 0.00157844)
(-0.0136151 -0.00149729 -0.00713097)
(-0.0390108 0.0025499 -0.0148149)
(-0.00324483 0.00044065 -0.00390398)
(-0.084128 -0.0228901 0.0145898)
(-0.0492257 0.0451883 -0.00309761)
(-0.000280841 0.0280346 -0.00105949)
(-0.00288839 0.00186473 -0.00678118)
(-0.00538718 0.00338518 -0.0198333)
(-0.00537035 0.00592463 -0.0268668)
(-0.00357494 0.00749788 -0.0316654)
(-0.000754263 0.00868401 -0.0357179)
(0.000261772 0.00761053 -0.033288)
(0.0177018 0.00768239 -0.036679)
(-0.00094943 0.0119794 -0.00205668)
(0.000350666 0.0104109 -0.000924873)
(0.000798095 0.0101926 -0.0114363)
(-0.000212586 0.00330341 0.000197057)
(-0.000604495 0.0014001 -0.00299025)
(0.0118949 0.000574528 -0.000646741)
(6.04452e-05 -4.58595e-05 -4.82739e-05)
(-3.58733e-05 -0.00226411 -0.000171635)
(2.33376e-05 -0.000329811 -0.000172174)
(-0.000144997 0.000293442 0.000195037)
(0.0207587 -0.0219186 -0.00169681)
(0.0236995 0.0737013 -0.0660983)
(0.0110312 0.0113191 -0.0206948)
(0.00592505 0.00135515 0.00139282)
(-0.000685531 0.00306369 0.0017775)
(-0.00148235 0.00733785 -0.00344129)
(-0.00155791 0.00851085 -0.00566922)
(-1.60217e-05 0.024326 -0.0110651)
(0.00117384 0.023478 -0.00905699)
(0.00369776 0.0217702 -0.00779341)
(-5.40834e-08 -3.65354e-05 9.05163e-05)
(-0.000258427 -0.000583403 -0.00142957)
(0.000128618 0.000270728 -7.33528e-05)
(-0.000218562 0.000344075 -0.000415854)
(-0.000222335 0.000635138 -0.000946752)
(8.13879e-05 3.30183e-05 -8.20901e-05)
(5.75728e-05 -3.02609e-05 -8.25362e-05)
(9.57304e-06 1.60488e-05 4.14346e-05)
(-3.65774e-06 1.33126e-05 7.36583e-06)
(1.84629e-06 -2.37357e-05 -1.29488e-05)
(-1.61942e-05 0.000128351 -2.88792e-05)
(-0.000357052 9.09412e-05 1.86212e-05)
(-6.71642e-05 -0.0183605 -0.00171798)
(0.000135767 6.19338e-06 -0.000268275)
(0.000748496 0.000116558 -0.00147353)
(-0.000393075 0.00107833 2.01941e-05)
(-0.00133352 0.00300988 -0.00358779)
(0.000183016 0.00183349 -0.00033573)
(3.13422e-05 0.000476358 -4.75544e-05)
(0.000108637 0.000621348 -0.000133781)
(-2.20756e-06 -1.25474e-05 4.08238e-05)
(-2.41802e-05 -3.17091e-07 4.00137e-05)
(-0.000395761 -0.000327235 -6.57016e-05)
(-0.000630423 0.000923508 -0.000655029)
(-0.000333894 0.000113291 0.000698835)
(-2.64928e-05 5.55376e-05 -6.46271e-05)
(3.74165e-06 7.78716e-06 -1.24742e-05)
(-1.2922e-06 -1.7111e-06 -2.89988e-06)
(-1.70247e-06 -1.19187e-06 -2.3791e-05)
(-1.55414e-05 2.63717e-06 -4.66424e-05)
(-4.66081e-05 -1.32742e-05 -0.000299595)
(4.02302e-05 -1.73004e-05 -0.00142296)
(0.000139149 0.000339174 0.000388718)
(0.000127761 0.000182471 0.00135177)
(0.000455359 0.000385402 0.00139994)
(0.00167844 0.00203582 0.00491405)
(0.000432867 0.00254171 0.0134077)
(-0.00174667 0.00182467 0.000771101)
(0.000471587 -0.000219131 -7.52761e-05)
(3.31372e-05 -0.000402219 8.12919e-06)
(7.8839e-05 -2.8303e-05 -4.10355e-05)
(3.23516e-05 0.000374758 -0.000237444)
(-0.000875224 1.03375e-05 -1.28991e-05)
(-0.000809001 -0.000294503 0.000913777)
(-0.000102862 -1.52608e-05 0.000872769)
(-3.71775e-05 4.27917e-06 9.2169e-05)
(-4.63493e-06 -1.1062e-06 -9.52325e-07)
(2.27184e-07 -1.96466e-06 9.15464e-07)
(-2.92007e-07 -4.2982e-07 -1.43024e-05)
(-1.98312e-05 6.37575e-08 1.75075e-06)
(-5.94261e-05 -1.09868e-05 -0.000501359)
(-4.76082e-05 4.69286e-05 -5.30497e-05)
(0.000123845 0.000110276 -0.000495538)
(0.000324184 0.000145707 0.000908628)
(-0.00103433 0.000284143 0.00235723)
(0.00159911 -0.000723015 -0.00326822)
(0.00306744 -0.00287799 0.0124551)
(-0.000584884 0.00167006 0.00162067)
(7.71947e-05 -0.000346418 -1.79421e-05)
(1.62065e-05 -0.000215207 7.52263e-05)
(7.41521e-05 -0.000179587 2.35814e-05)
(0.000271859 0.0011135 3.58884e-05)
(-0.000258003 0.000355713 0.000163113)
(4.40146e-05 -0.000368921 -0.000521229)
(0.000258601 -3.38505e-05 0.000373505)
(-1.16822e-05 -9.38672e-06 3.80173e-05)
(-3.96635e-06 -4.46209e-06 1.01525e-05)
(-1.37711e-06 -5.11655e-06 -1.60411e-05)
(8.62571e-07 -2.69462e-06 -1.62216e-05)
(-2.33597e-05 -8.50404e-06 -5.09574e-06)
(4.22201e-06 -1.64191e-05 -0.000524629)
(0.000129915 0.000126012 -0.000122901)
(0.000223115 0.000273082 0.00109604)
(0.000357856 0.000277831 0.00163263)
(-0.000213824 0.000268447 0.00366713)
(-0.00176448 0.00155039 -0.00181515)
(0.00048827 -0.00242668 -0.00906609)
(0.00255963 0.000234249 0.000262701)
(3.2354e-05 -0.000269017 4.53132e-05)
(-3.19367e-05 -0.000202071 2.17499e-05)
(-0.000123886 -0.000233488 0.000195997)
(5.20802e-05 0.000318006 0.000335196)
(1.22994e-05 0.000963675 6.92738e-05)
(0.000303292 0.00101135 0.000837487)
(0.000219531 -2.41414e-05 -1.4386e-05)
(-5.30295e-06 -4.71899e-06 -5.52537e-05)
(7.97713e-07 -2.22612e-06 -6.92529e-05)
(3.16916e-06 6.51127e-07 -7.12827e-05)
(-4.52589e-06 -1.0143e-06 -4.37264e-05)
(-2.0136e-05 1.3101e-05 -0.000181085)
(8.71188e-05 0.000145313 -0.00053285)
(0.000201056 0.000276498 0.000442408)
(0.000251961 0.00029879 0.00155882)
(0.000368025 0.000442576 0.00253008)
(0.000127683 0.000418764 0.00386162)
(-0.00132739 0.000941757 0.00503495)
(-0.00060748 0.00278362 -0.00737919)
(0.000809604 -5.51355e-06 -3.43331e-06)
(-5.81075e-05 -0.000295389 2.03704e-05)
(-4.33004e-05 -0.000265717 -4.76042e-06)
(-0.000138878 -0.00107275 -0.000259109)
(-8.27941e-05 0.000791841 5.50506e-05)
(-7.80381e-05 -1.03197e-05 -0.000105179)
(1.05457e-05 0.000276343 -2.65649e-05)
(4.18917e-05 -1.42487e-05 -0.00058321)
(1.77078e-05 -3.34735e-05 -5.19211e-05)
(8.61452e-07 -3.10016e-05 -6.01445e-06)
(-5.3173e-07 3.67612e-06 -1.55953e-05)
(1.46192e-05 3.57788e-05 -0.000103071)
(0.00013252 0.000276751 -0.00054162)
(0.000259981 0.000447097 0.00034154)
(0.000215092 0.000455642 0.00192652)
(0.000370345 0.000453661 0.00298056)
(0.000552705 0.000502518 0.00470031)
(0.000344703 0.000176992 0.00639051)
(0.000443984 0.000686718 0.0105312)
(0.000267714 0.00328292 0.00742398)
(-0.000697699 -0.000137115 3.45189e-07)
(-2.39682e-05 -0.000272299 1.93342e-05)
(-2.02168e-05 -0.000263498 5.54692e-06)
(0.000232737 -0.000602197 -0.000231649)
(-3.31413e-05 0.000134987 0.000107218)
(2.97107e-05 -0.000511872 -3.26332e-05)
(-0.000159859 1.68486e-06 -1.09717e-06)
(-0.000173416 3.8699e-06 -0.00128781)
(4.40905e-06 -2.88134e-05 -0.00100124)
(4.08492e-05 -1.93326e-05 -0.0010232)
(8.87495e-05 5.76675e-05 -0.000499058)
(0.000245783 0.00015838 -0.000853592)
(0.000374638 0.000383832 0.000306562)
(0.000265355 0.000296998 0.00204418)
(0.000175353 0.000208348 0.00285758)
(0.00026934 0.000160067 0.00374645)
(9.49822e-05 -5.67274e-05 0.00483213)
(0.000451684 -0.000299602 0.00416609)
(0.00143356 -0.000352254 0.0109619)
(0.000337003 0.00106385 0.014997)
(-0.000980364 -0.000125701 3.78003e-05)
(-3.29051e-06 -0.000209628 1.81693e-05)
(-1.20186e-06 -0.000177975 3.24662e-05)
(4.90201e-05 -0.00017029 6.58792e-05)
(1.63191e-05 1.68581e-05 -3.78255e-05)
(6.95417e-05 -9.76767e-05 7.75478e-05)
(2.94095e-05 -9.13025e-05 -4.21189e-05)
(3.52927e-06 8.29495e-06 -1.01811e-06)
(-3.19116e-05 4.33019e-06 -0.000150914)
(-6.11228e-06 9.55778e-06 -0.000202987)
(-3.4651e-06 -3.89253e-05 -0.000300587)
(-3.90078e-06 -4.78925e-05 -0.000325723)
(-1.83868e-05 -0.000473639 -0.000577861)
(-5.29507e-07 -0.00100548 -0.000529162)
(4.18595e-05 -0.00144512 -0.000472639)
(0.000155093 -0.00228997 -0.000375937)
(0.000134837 -0.00215808 -0.000109658)
(0.0012362 -0.00382443 0.000332575)
(0.00159264 -0.00101008 0.00353557)
(0.00058869 -0.000803754 0.0139091)
(-0.000863149 -0.000186655 1.69265e-05)
(1.71087e-05 -0.00021083 8.72975e-06)
(4.45549e-06 -0.000163592 2.71727e-05)
(-6.13857e-05 0.000115855 8.14064e-05)
(8.42917e-06 -0.000471036 -0.000116558)
(5.74639e-06 3.50916e-05 3.91704e-05)
(1.11184e-05 1.04237e-05 1.7058e-05)
(-2.47264e-06 -7.36937e-06 -3.36441e-07)
(1.4198e-07 4.87276e-07 1.42627e-07)
(9.99896e-08 -1.71148e-06 4.3719e-08)
(5.27474e-08 -1.33403e-06 3.46255e-07)
(-1.01435e-08 4.80801e-07 -7.9233e-08)
(-9.32019e-09 1.28709e-06 -3.2429e-07)
(-1.57261e-08 1.8422e-06 -2.62323e-07)
(5.81542e-08 1.30688e-06 -2.09423e-07)
(1.9154e-08 -9.94587e-08 -1.94598e-07)
(-1.37402e-07 2.31049e-06 -2.12554e-07)
(1.65512e-07 -4.27645e-06 -6.42111e-07)
(0.00060566 -0.000831954 -7.78618e-05)
(5.72834e-06 -0.000960676 -0.000103336)
(2.117e-05 -0.000168387 2.13766e-05)
(2.74931e-05 -0.000193768 1.349e-05)
(-5.64841e-06 -0.000143143 1.43474e-05)
(2.91893e-05 0.000331633 5.26263e-05)
(-9.33725e-06 0.000180848 7.94054e-05)
(-1.41095e-05 2.0611e-05 1.30933e-05)
(-2.46849e-06 6.23807e-06 1.19301e-05)
(-2.88405e-07 1.03737e-05 1.21874e-06)
(-6.82449e-08 -6.4287e-07 -5.93334e-08)
(2.11323e-07 -1.31678e-06 1.69556e-07)
(1.17858e-08 2.59227e-08 1.48797e-07)
(-2.52795e-08 7.96439e-07 9.83226e-08)
(-6.87386e-09 1.61656e-06 7.20203e-08)
(3.33848e-08 1.57773e-06 3.9974e-08)
(6.27385e-07 2.25152e-06 7.07561e-08)
(-6.23311e-08 2.91364e-06 -5.97458e-09)
(-6.11931e-07 2.36428e-06 -1.57422e-09)
(4.19773e-08 2.24947e-06 -3.51629e-08)
(7.38221e-07 -2.74183e-06 4.37716e-07)
(4.65785e-06 -8.6611e-05 7.91041e-06)
(2.82993e-05 -0.000163615 1.64367e-05)
(1.72394e-06 -0.000183518 -2.03423e-06)
(-1.06743e-05 -7.64916e-05 2.5489e-05)
(6.27724e-05 0.000217528 -4.28983e-05)
(-5.40501e-05 0.000632578 7.43711e-05)
(2.80527e-06 1.76358e-05 1.64592e-06)
(-2.65897e-06 2.59221e-05 9.73148e-06)
(-3.59481e-07 3.08713e-07 1.32183e-07)
(-1.21306e-09 -1.88608e-06 7.0581e-08)
(1.44047e-07 2.2562e-07 2.32328e-07)
(-1.85411e-08 1.1296e-06 8.05612e-08)
(-2.92391e-08 1.61708e-06 9.90764e-08)
(-1.81818e-08 1.876e-06 4.38843e-08)
(-1.32903e-08 1.54574e-06 -9.2664e-10)
(9.96673e-09 2.38984e-06 1.91872e-08)
(-3.22903e-09 6.69316e-06 4.6531e-08)
(2.22497e-08 2.01615e-06 3.60803e-08)
(1.31688e-07 2.57078e-06 1.04188e-07)
(9.56601e-07 -1.88447e-06 3.56243e-07)
(2.7862e-06 -9.29612e-05 8.49443e-06)
(1.83966e-05 -0.000152254 1.81306e-05)
(-2.08409e-05 -7.16049e-05 7.94911e-05)
(1.45334e-05 -0.000144856 7.24779e-05)
(-2.8662e-05 0.0001319 -1.63571e-05)
(-1.0758e-05 2.99456e-05 -0.000147516)
(1.37838e-05 2.99329e-05 -1.62154e-05)
(1.20552e-06 -2.16169e-05 -8.5421e-06)
(3.26084e-07 -3.83855e-07 -2.01506e-07)
(2.17121e-07 -1.08163e-06 2.34443e-07)
(-2.78867e-08 1.34038e-06 1.09119e-07)
(-1.08399e-08 1.51238e-06 2.89729e-08)
(-3.21727e-09 2.03619e-06 3.45594e-08)
(-2.13119e-08 2.06922e-06 1.27835e-08)
(-2.23234e-08 1.56242e-06 -4.95945e-08)
(-5.98113e-07 2.31711e-06 3.45081e-09)
(6.29072e-08 2.85107e-06 8.77449e-08)
(7.21234e-07 2.58297e-06 4.41677e-08)
(-1.35928e-07 2.6834e-06 -5.43196e-08)
(6.07915e-07 -1.02768e-06 6.87737e-07)
(5.01912e-06 -9.74254e-05 3.535e-06)
(5.72128e-06 -0.00013087 2.75958e-05)
(2.06577e-06 -0.000155236 9.14894e-05)
(2.66942e-05 -0.000194786 0.000104613)
(4.76366e-06 -4.18589e-05 0.00011055)
(3.49656e-05 -0.000768665 -0.000121587)
(-8.7432e-06 4.64837e-06 -7.15571e-06)
(1.53518e-06 -1.44647e-05 4.36612e-06)
(-1.19437e-07 -4.88002e-07 -8.23119e-08)
(1.58632e-07 4.77902e-07 2.04385e-07)
(-6.8485e-08 1.90195e-06 3.94951e-08)
(-6.17545e-09 1.62571e-06 9.33818e-09)
(-1.53732e-09 2.13945e-06 5.38282e-09)
(-2.52909e-09 2.10294e-06 -7.17619e-11)
(-4.35976e-09 1.55752e-06 -5.28374e-09)
(-3.63484e-08 2.18499e-06 -1.43321e-08)
(1.77136e-08 3.00066e-06 -8.3826e-08)
(6.00074e-08 2.70358e-06 -1.0837e-08)
(-1.83752e-07 2.26005e-06 -4.62028e-07)
(-3.75158e-06 5.34636e-07 1.1106e-06)
(7.81809e-06 -8.37918e-05 2.86786e-05)
(1.83838e-05 -9.25342e-05 1.56396e-05)
(1.45526e-05 -6.54003e-05 1.26593e-05)
(-2.5227e-05 -3.50373e-05 3.99105e-05)
(-8.31674e-06 5.74152e-05 4.91569e-05)
(4.00968e-05 -0.000143388 0.000122671)
(-1.85619e-05 8.95189e-06 -5.56989e-06)
(-4.0035e-07 4.37318e-05 1.51608e-05)
(-6.62496e-07 8.18954e-07 1.93127e-07)
(-4.14422e-08 1.20861e-06 1.2717e-07)
(-6.05762e-08 2.11287e-06 1.20946e-08)
(-2.88209e-09 1.64738e-06 2.66582e-09)
(-4.65435e-10 2.15895e-06 -1.9223e-09)
(5.63963e-10 2.10739e-06 -2.51393e-09)
(-7.1167e-10 1.5368e-06 -2.95603e-09)
(-6.50885e-09 2.12527e-06 -5.61997e-09)
(2.93239e-08 2.31179e-06 -4.6069e-08)
(1.88991e-07 2.6972e-06 -2.18569e-09)
(2.30593e-07 1.77439e-06 -1.17179e-06)
(-1.07333e-05 1.54511e-06 1.57201e-06)
(1.40437e-05 -5.99316e-05 3.42655e-05)
(1.65918e-05 -7.97174e-05 4.15759e-05)
(3.46059e-05 9.47586e-07 -3.29845e-06)
(-7.54956e-05 7.24843e-05 2.96965e-05)
(1.2054e-05 0.000229423 3.73236e-05)
(-1.27403e-06 0.000437106 0.000112262)
(1.52192e-05 -1.89381e-05 9.05394e-06)
(8.96952e-07 1.69514e-05 2.64566e-06)
(-5.47046e-08 1.71782e-06 2.14988e-07)
(-8.01199e-08 1.44876e-06 1.37871e-08)
(-3.7177e-08 2.14861e-06 5.71491e-10)
(-1.54276e-10 1.64605e-06 1.39092e-09)
(-4.76914e-10 2.14879e-06 -2.89773e-09)
(1.53747e-09 2.09586e-06 -2.63202e-09)
(-4.33942e-10 1.53293e-06 -6.62218e-10)
(-5.01597e-09 2.09949e-06 -4.6186e-09)
(-1.25008e-08 2.23386e-06 -5.30292e-09)
(7.69918e-08 2.64554e-06 -8.75979e-09)
(1.07543e-07 2.63689e-06 4.78376e-07)
(5.06049e-06 2.15683e-06 2.06174e-06)
(1.78382e-05 -4.77094e-05 -1.05878e-05)
(-3.75145e-06 -4.33073e-05 2.26655e-05)
(-1.69765e-07 0.000184066 -4.70469e-05)
(1.95129e-05 0.000413331 -3.93969e-05)
(2.59656e-06 0.00043955 2.41214e-05)
(-8.33344e-06 0.000111456 -2.69715e-05)
(2.86408e-06 -0.000276076 3.55442e-06)
(1.15521e-06 -2.16022e-05 -9.59276e-06)
(9.27802e-07 1.54602e-06 -9.21952e-08)
(-2.74417e-10 1.54168e-06 -7.32869e-08)
(5.86893e-09 2.13002e-06 -6.10598e-08)
(1.60394e-09 1.65426e-06 -4.03965e-10)
(-1.3304e-08 2.14635e-06 -6.1007e-08)
(1.44573e-08 2.09317e-06 -5.94643e-08)
(-7.47072e-10 1.54566e-06 -1.70911e-09)
(-2.51393e-08 2.09243e-06 -6.24078e-08)
(-2.47561e-08 2.20652e-06 -8.61741e-08)
(-2.12997e-07 2.46051e-06 -6.74669e-08)
(1.69652e-07 2.46348e-06 1.01575e-06)
(8.66931e-06 3.57999e-07 -6.43142e-07)
(-5.23514e-06 -3.83539e-05 -2.89104e-05)
(-1.93628e-05 -3.49515e-05 3.37638e-07)