/*--------------------------------*- C++ -*----------------------------------*\
| =========                 |                                                 |
| \\      /  F ield         | OpenFOAM: The Open Source CFD Toolbox           |
|  \\    /   O peration     | Version:  2.3.0                                 |
|   \\  /    A nd           | Web:      www.OpenFOAM.org                      |
|    \\/     M anipulation  |                                                 |
\*---------------------------------------------------------------------------*/
FoamFile
{
    version     2.0;
    format      ascii;
    class       volScalarField;
    location    "4.00001";
    object      alpha.airMean;
}
// * * * * * * * * * * * * * * * * * * * * * * * * * * * * * * * * * * * * * //

dimensions      [0 0 0 0 0 0 0];

internalField   nonuniform List<scalar> 
10000
(
0.00471874
0.00487175
0.00538337
0.00867548
0.0985894
0.187442
0.287443
0.377126
0.396853
0.368899
0.367142
0.447291
0.420625
0.351838
0.244141
0.0623715
0.00801121
0.00636299
0.00621699
0.00629968
9.6594e-08
1.0818e-07
3.63239e-06
0.00178178
0.131268
0.206331
0.282589
0.188694
0.203999
0.222286
0.202245
0.501713
0.545053
0.512698
0.449914
0.0820988
0.000623066
2.09847e-07
1.56116e-07
1.74106e-07
5.92227e-14
4.85951e-12
9.33468e-10
1.66161e-05
0.00995919
0.15812
0.242382
0.27188
0.270349
0.267017
0.250258
0.254464
0.318794
0.292018
0.226258
0.00683985
3.10195e-05
1.02122e-08
9.86365e-12
1.35153e-13
3.55301e-14
3.21943e-12
2.33529e-10
4.61172e-06
0.00605375
0.222826
0.259632
0.260669
0.259682
0.248795
0.249684
0.253145
0.253314
0.24639
0.185951
0.00493134
2.87425e-05
6.21201e-09
1.01423e-11
8.26629e-14
2.09985e-14
1.98679e-12
1.51064e-10
1.96867e-06
0.00490311
0.198059
0.243147
0.246752
0.235108
0.216744
0.225413
0.213661
0.228121
0.221095
0.160876
0.00406436
2.12843e-05
1.2449e-09
5.45285e-12
4.27497e-14
1.15768e-14
1.32324e-12
1.28775e-10
9.81473e-07
0.00358349
0.189067
0.231013
0.237842
0.212105
0.215929
0.202243
0.199347
0.207217
0.20441
0.151241
0.00396852
1.48826e-05
2.68609e-10
4.66598e-12
2.69507e-14
5.40291e-15
7.24459e-13
8.70857e-11
1.56663e-07
0.00158554
0.174026
0.214399
0.21317
0.203099
0.18359
0.188564
0.178678
0.187629
0.189956
0.138441
0.00414342
1.07814e-05
1.08217e-10
1.44436e-12
1.76815e-14
1.7363e-15
3.12756e-13
4.58763e-11
1.48526e-08
0.00044301
0.112929
0.157036
0.172044
0.142984
0.147195
0.146824
0.136198
0.130427
0.128184
0.0833515
0.00557673
7.46722e-06
4.89092e-11
4.9063e-13
9.44444e-15
5.8913e-17
1.49167e-14
1.96958e-12
3.83355e-09
4.88618e-06
0.000390151
0.000531066
0.0009604
0.000651912
0.000784509
0.000752616
0.00109229
0.00170432
0.00192652
0.00302259
0.00435775
2.4543e-06
1.5862e-11
2.05919e-13
4.42284e-15
1.0151e-21
1.91315e-19
3.75082e-17
6.67543e-14
1.77295e-10
2.7303e-13
5.73798e-16
6.75818e-18
3.84284e-12
1.52291e-09
1.88822e-08
1.02501e-08
9.39851e-08
1.33174e-07
1.0368e-06
3.64335e-05
2.92384e-08
2.98512e-12
7.58649e-14
1.0852e-15
1.53843e-46
6.75261e-44
2.57758e-42
1.04306e-39
2.6645e-37
2.69111e-35
2.99905e-33
5.22715e-30
1.85196e-26
3.79955e-24
1.97444e-17
5.79849e-15
8.98203e-12
2.21965e-14
5.72824e-17
2.86914e-19
5.03673e-22
1.00951e-23
3.63036e-26
7.60364e-28
0
0
0
0
0
0
0
0
0
0
0
0
0
0
0
0
0
0
0
0
0
0
0
0
0
0
0
0
0
0
0
0
0
0
0
0
0
0
0
0
0
0
0
0
0
0
0
0
0
0
0
0
0
0
0
0
0
0
0
0
0
0
0
0
0
0
0
0
0
0
0
0
0
0
0
0
0
0
0
0
0
0
0
0
0
0
0
0
0
0
0
0
0
0
0
0
0
0
0
0
0
0
0
0
0
0
0
0
0
0
0
0
0
0
0
0
0
0
0
0
0
0
0
0
0
0
0
0
0
0
0
0
0
0
0
0
0
0
0
0
0
0
0
0
0
0
0
0
0
0
0
0
0
0
0
0
0
0
0
0
0
0
0
0
0
0
0
0
0
0
0
0
0
0
0
0
0
0
0
0
0.00486921
0.00493808
0.00547934
0.00897685
0.104745
0.191473
0.292579
0.389681
0.409632
0.376761
0.372442
0.45348
0.425716
0.357105
0.247993
0.0676536
0.00818504
0.00654949
0.00635956
0.00649038
1.16079e-07
1.19629e-07
3.57525e-06
0.00223798
0.145011
0.209998
0.286725
0.188186
0.203143
0.221869
0.201414
0.508094
0.55266
0.520555
0.461743
0.096227
0.000767885
2.5604e-07
2.01513e-07
2.24991e-07
5.27219e-14
4.30778e-12
7.95997e-10
1.63331e-05
0.0113226
0.156034
0.243186
0.273642
0.271828
0.268866
0.250966
0.255121
0.323501
0.294445
0.231476
0.00728237
2.44692e-05
7.54751e-09
8.69752e-12
1.2616e-13
3.03555e-14
2.90429e-12
2.17335e-10
4.2193e-06
0.00603181
0.223935
0.260987
0.262851
0.262589
0.251547
0.252069
0.256579
0.256649
0.248926
0.188127
0.00466968
2.94182e-05
5.17641e-09
8.51172e-12
7.86025e-14
1.73262e-14
1.73194e-12
1.34978e-10
1.88468e-06
0.00507644
0.198721
0.244119
0.248119
0.236893
0.218032
0.228403
0.216544
0.2313
0.223201
0.162094
0.00372262
2.06942e-05
2.51237e-09
5.0976e-12
4.08981e-14
9.66046e-15
1.13965e-12
1.09545e-10
9.52064e-07
0.00386478
0.189659
0.231587
0.238934
0.212866
0.217812
0.203996
0.201214
0.208914
0.205461
0.151634
0.00322706
1.23775e-05
5.41457e-10
3.7929e-12
2.51621e-14
4.58197e-15
6.14426e-13
7.01442e-11
1.56981e-07
0.00179032
0.175435
0.215312
0.213867
0.204876
0.185469
0.189899
0.179949
0.189032
0.191138
0.140112
0.00262507
8.22205e-06
1.47128e-10
1.38229e-12
1.68294e-14
1.52503e-15
2.66914e-13
3.38842e-11
1.32975e-08
0.000510702
0.117987
0.161717
0.176588
0.148046
0.152262
0.151378
0.141045
0.135202
0.132648
0.087429
0.00402417
4.98675e-06
5.08705e-11
4.87111e-13
9.13029e-15
5.26852e-17
1.27061e-14
1.47797e-12
2.48605e-09
5.08549e-06
0.000418298
0.000559689
0.00100194
0.000695761
0.000840684
0.000780207
0.00108756
0.00155484
0.00132512
0.00203988
0.0043844
1.56332e-06
1.52565e-11
1.91441e-13
4.14441e-15
9.90958e-22
1.808e-19
3.36546e-17
4.32514e-14
1.04169e-10
2.90252e-13
7.04504e-16
7.59689e-18
3.27498e-12
9.03849e-10
1.41446e-08
8.8114e-09
8.98064e-08
1.27422e-07
8.78294e-07
3.34609e-05
3.01033e-08
2.61006e-12
6.50148e-14
9.97562e-16
1.76354e-46
6.88435e-44
3.28578e-42
2.01203e-39
5.32103e-37
5.40729e-35
4.90428e-33
5.02326e-30
7.37389e-27
8.24951e-23
7.70287e-17
4.33531e-15
2.74857e-12
1.33845e-14
3.6752e-17
1.11032e-19
2.97082e-22
8.93944e-24
3.45161e-26
8.10513e-28
0
0
0
0
0
0
0
0
0
0
0
0
0
0
0
0
0
0
0
0
0
0
0
0
0
0
0
0
0
0
0
0
0
0
0
0
0
0
0
0
0
0
0
0
0
0
0
0
0
0
0
0
0
0
0
0
0
0
0
0
0
0
0
0
0
0
0
0
0
0
0
0
0
0
0
0
0
0
0
0
0
0
0
0
0
0
0
0
0
0
0
0
0
0
0
0
0
0
0
0
0
0
0
0
0
0
0
0
0
0
0
0
0
0
0
0
0
0
0
0
0
0
0
0
0
0
0
0
0
0
0
0
0
0
0
0
0
0
0
0
0
0
0
0
0
0
0
0
0
0
0
0
0
0
0
0
0
0
0
0
0
0
0
0
0
0
0
0
0
0
0
0
0
0
0
0
0
0
0
0
0.00494262
0.00497798
0.00553728
0.00916803
0.108534
0.193726
0.295274
0.397719
0.417632
0.381492
0.375058
0.456557
0.427394
0.358555
0.248209
0.0707506
0.00831609
0.00668931
0.00648391
0.00662098
1.14557e-07
1.15288e-07
3.2467e-06
0.00253429
0.154691
0.212312
0.289237
0.187849
0.202637
0.221613
0.200895
0.512333
0.557013
0.525068
0.469041
0.105268
0.000756033
2.49286e-07
2.08114e-07
2.30001e-07
4.74352e-14
3.85484e-12
5.90719e-10
1.62067e-05
0.012352
0.154842
0.243638
0.274513
0.272431
0.269726
0.251188
0.255034
0.325481
0.295298
0.234361
0.00761875
8.79969e-06
1.50146e-09
7.41618e-12
1.15687e-13
2.56101e-14
2.5489e-12
1.86056e-10
3.40166e-06
0.00599963
0.224592
0.261817
0.264164
0.264309
0.253148
0.253274
0.258349
0.258405
0.250329
0.189435
0.00442462
1.01063e-05
1.72492e-09
7.35569e-12
7.41983e-14
1.45286e-14
1.52796e-12
1.18932e-10
1.61307e-06
0.00514934
0.199095
0.244734
0.249035
0.238061
0.218776
0.230119
0.218264
0.23327
0.224498
0.162886
0.00358215
8.07485e-06
8.12461e-10
4.67834e-12
3.8746e-14
8.16661e-15
9.91525e-13
9.50131e-11
8.22348e-07
0.00402718
0.189979
0.231934
0.239603
0.213307
0.218854
0.205081
0.202449
0.210051
0.206165
0.151919
0.00289568
5.43372e-06
3.43178e-10
3.26072e-12
2.37158e-14
3.9486e-15
5.43197e-13
6.13431e-11
1.31567e-07
0.00192357
0.176141
0.215773
0.214208
0.205782
0.186515
0.190685
0.180679
0.189862
0.191811
0.140991
0.00179359
3.22793e-06
1.08978e-10
1.1958e-12
1.5933e-14
1.3854e-15
2.28912e-13
2.86354e-11
1.07575e-08
0.000560616
0.120748
0.164241
0.179043
0.15083
0.155081
0.153871
0.143691
0.137846
0.135154
0.0898247
0.00239971
1.99381e-06
4.33018e-11
4.75423e-13
8.94382e-15
4.74624e-17
1.05499e-14
1.14906e-12
1.14512e-09
4.99296e-06
0.000434069
0.000575644
0.00102469
0.000720564
0.000878878
0.000780142
0.000897666
0.000891601
0.000586037
0.00056617
0.00381259
9.87935e-07
1.34066e-11
1.88323e-13
4.02489e-15
9.28376e-22
1.60399e-19
2.64814e-17
1.84343e-14
5.60302e-11
2.69921e-13
8.89838e-16
9.13166e-18
2.7776e-12
5.23424e-10
6.92319e-09
4.4328e-09
5.50006e-08
8.09073e-08
5.54715e-07
2.18647e-05
1.02023e-08
3.03208e-12
6.38019e-14
9.82792e-16
2.28417e-46
8.10804e-44
5.62883e-42
4.43391e-39
1.69764e-36
1.81657e-34
1.90896e-32
5.74939e-29
8.75867e-26
4.7338e-21
4.83081e-15
4.67333e-15
2.42145e-12
9.05893e-15
2.12554e-17
4.66214e-20
1.76635e-22
7.92606e-24
3.71396e-26
9.90187e-28
0
0
0
0
0
0
0
0
0
0
0
0
0
0
0
0
0
0
0
0
0
0
0
0
0
0
0
0
0
0
0
0
0
0
0
0
0
0
0
0
0
0
0
0
0
0
0
0
0
0
0
0
0
0
0
0
0
0
0
0
0
0
0
0
0
0
0
0
0
0
0
0
0
0
0
0
0
0
0
0
0
0
0
0
0
0
0
0
0
0
0
0
0
0
0
0
0
0
0
0
0
0
0
0
0
0
0
0
0
0
0
0
0
0
0
0
0
0
0
0
0
0
0
0
0
0
0
0
0
0
0
0
0
0
0
0
0
0
0
0
0
0
0
0
0
0
0
0
0
0
0
0
0
0
0
0
0
0
0
0
0
0
0
0
0
0
0
0
0
0
0
0
0
0
0
0
0
0
0
0
0.00489697
0.00491623
0.00548267
0.00917691
0.111667
0.195528
0.297731
0.406727
0.426032
0.386926
0.377944
0.459834
0.428798
0.359038
0.247514
0.0725473
0.00819104
0.00664125
0.00642184
0.00655031
1.197e-07
1.16395e-07
3.154e-06
0.00308125
0.166584
0.21499
0.291975
0.187417
0.202059
0.221307
0.200232
0.516616
0.561774
0.53009
0.477335
0.115347
0.000660943
2.44482e-07
2.09664e-07
2.33556e-07
4.28032e-14
3.40718e-12
4.92538e-10
1.71758e-05
0.0135664
0.153274
0.244038
0.275323
0.272912
0.270487
0.251261
0.25463
0.327524
0.296137
0.237337
0.00838314
4.71062e-06
3.91166e-10
5.82236e-12
1.07008e-13
2.18144e-14
2.25263e-12
1.58964e-10
2.77299e-06
0.00599319
0.225356
0.262762
0.265611
0.266183
0.254917
0.254491
0.260168
0.260202
0.251851
0.190994
0.00428157
2.70177e-06
4.83482e-10
5.98635e-12
6.9979e-14
1.25364e-14
1.40159e-12
1.08386e-10
1.39902e-06
0.00523347
0.199513
0.245457
0.250139
0.239461
0.219611
0.231996
0.220157
0.235524
0.226005
0.163884
0.00353205
1.9661e-06
2.29194e-10
3.29568e-12
3.6986e-14
7.14005e-15
9.22104e-13
8.74728e-11
7.35099e-07
0.00422175
0.190339
0.232343
0.240391
0.213817
0.219978
0.206346
0.203945
0.211436
0.207041
0.152333
0.00284616
1.59875e-06
1.73235e-10
2.11882e-12
2.35151e-14
3.57125e-15
5.1986e-13
5.74901e-11
1.21003e-07
0.00209421
0.176888
0.216257
0.21456
0.206742
0.187686
0.191604
0.181526
0.190817
0.192588
0.142037
0.00152826
1.05341e-06
8.01962e-11
1.05594e-12
1.55528e-14
1.30133e-15
2.10514e-13
2.67796e-11
1.05273e-08
0.000638058
0.123817
0.167005
0.181732
0.153917
0.158247
0.156698
0.146685
0.140933
0.13808
0.0928527
0.00146679
8.999e-07
3.91942e-11
4.47558e-13
8.54177e-15
4.26477e-17
8.57997e-15
8.50689e-13
1.03448e-09
5.86388e-06
0.000452684
0.000595107
0.00105209
0.000752617
0.000945946
0.000830887
0.000877105
0.000807777
0.000614154
0.000546919
0.00264363
5.37859e-07
1.17215e-11
1.60896e-13
3.65339e-15
8.05413e-22
1.39549e-19
1.97711e-17
8.87386e-15
3.44083e-11
2.3133e-13
1.13136e-15
1.19565e-17
1.65165e-12
2.41333e-10
2.76366e-09
2.34822e-09
2.10089e-08
3.19749e-08
2.59408e-07
8.65735e-06
2.20849e-09
2.20442e-12
4.35142e-14
8.32572e-16
2.96671e-46
1.14729e-43
1.13746e-41
8.73116e-39
8.27483e-36
1.0912e-33
1.60474e-31
1.22046e-27
5.86819e-24
7.75286e-19
5.99621e-13
3.35718e-13
1.42543e-12
4.89415e-15
8.60651e-18
1.72591e-20
9.49723e-23
7.09096e-24
4.20183e-26
1.22131e-27
0
0
0
0
0
0
0
0
0
0
0
0
0
0
0
0
0
0
0
0
0
0
0
0
0
0
0
0
0
0
0
0
0
0
0
0
0
0
0
0
0
0
0
0
0
0
0
0
0
0
0
0
0
0
0
0
0
0
0
0
0
0
0
0
0
0
0
0
0
0
0
0
0
0
0
0
0
0
0
0
0
0
0
0
0
0
0
0
0
0
0
0
0
0
0
0
0
0
0
0
0
0
0
0
0
0
0
0
0
0
0
0
0
0
0
0
0
0
0
0
0
0
0
0
0
0
0
0
0
0
0
0
0
0
0
0
0
0
0
0
0
0
0
0
0
0
0
0
0
0
0
0
0
0
0
0
0
0
0
0
0
0
0
0
0
0
0
0
0
0
0
0
0
0
0
0
0
0
0
0
0.00487594
0.00488359
0.00545793
0.00921918
0.115573
0.197718
0.300902
0.415944
0.434361
0.392946
0.381086
0.463406
0.430097
0.359593
0.247287
0.0746635
0.00807672
0.00658816
0.00635575
0.00648243
1.25043e-07
1.18174e-07
2.99852e-06
0.00353485
0.179226
0.217688
0.294706
0.187006
0.201464
0.221016
0.19955
0.520964
0.566483
0.534937
0.485734
0.125433
0.000553547
2.40755e-07
2.0804e-07
2.35858e-07
3.96219e-14
2.99853e-12
4.11212e-10
1.77366e-05
0.014968
0.151887
0.244479
0.276005
0.273263
0.271121
0.251298
0.254021
0.32916
0.2967
0.240012
0.00941126
3.95348e-06
1.87169e-10
4.43572e-12
1.01832e-13
1.88089e-14
1.95799e-12
1.34089e-10
2.27641e-06
0.00598458
0.226096
0.263662
0.266954
0.267898
0.256585
0.255537
0.261719
0.261714
0.253215
0.192505
0.00421904
1.6533e-06
2.14857e-10
4.51636e-12
6.79263e-14
1.09807e-14
1.25886e-12
9.87879e-11
1.22238e-06
0.00529386
0.199924
0.246194
0.251291
0.240913
0.220442
0.23374
0.221925
0.237689
0.22746
0.164898
0.00351248
1.0309e-06
1.34737e-10
2.22768e-12
3.67317e-14
6.26962e-15
8.39701e-13
7.88113e-11
6.69976e-07
0.00439942
0.190667
0.232753
0.241194
0.214333
0.220989
0.207582
0.205484
0.212876
0.207944
0.152767
0.00289959
7.51289e-07
1.22604e-10
1.57385e-12
2.41327e-14
3.22407e-15
4.85088e-13
5.28644e-11
1.14653e-07
0.00226606
0.177544
0.216681
0.214863
0.207579
0.18876
0.19249
0.182326
0.191706
0.193302
0.142969
0.00149493
4.74737e-07
7.4903e-11
9.80723e-13
1.57016e-14
1.1815e-15
1.92248e-13
2.56704e-11
1.04295e-08
0.000724574
0.126615
0.169504
0.184164
0.156734
0.161154
0.159263
0.149417
0.143771
0.140748
0.0956612
0.000967208
4.22495e-07
3.4679e-11
4.16366e-13
8.39401e-15
3.71796e-17
6.76446e-15
5.98581e-13
8.4636e-10
7.30689e-06
0.000467868
0.000611308
0.00107433
0.000780256
0.00101319
0.000891346
0.000938847
0.00089916
0.0006631
0.000592921
0.00156232
2.02871e-07
9.74156e-12
1.376e-13
3.48642e-15
6.71473e-22
1.25049e-19
2.28297e-17
1.38053e-14
2.95689e-10
4.28222e-13
1.95473e-15
2.49088e-17
1.06007e-12
3.13801e-10
1.73646e-09
1.69048e-09
5.66504e-09
7.91749e-09
5.35615e-08
1.3053e-06
5.63425e-10
1.31368e-12
2.81027e-14
7.83521e-16
2.4895e-46
1.04514e-43
6.22874e-42
2.26449e-39
1.69459e-36
2.25727e-34
5.4575e-32
4.18154e-28
2.40107e-24
3.03179e-19
2.36879e-13
5.33551e-14
2.58454e-13
1.33054e-15
1.81797e-18
3.91584e-21
4.01067e-23
6.37758e-24
4.88306e-26
1.45672e-27
0
0
0
0
0
0
0
0
0
0
0
0
0
0
0
0
0
0
0
0
0
0
0
0
0
0
0
0
0
0
0
0
0
0
0
0
0
0
0
0
0
0
0
0
0
0
0
0
0
0
0
0
0
0
0
0
0
0
0
0
0
0
0
0
0
0
0
0
0
0
0
0
0
0
0
0
0
0
0
0
0
0
0
0
0
0
0
0
0
0
0
0
0
0
0
0
0
0
0
0
0
0
0
0
0
0
0
0
0
0
0
0
0
0
0
0
0
0
0
0
0
0
0
0
0
0
0
0
0
0
0
0
0
0
0
0
0
0
0
0
0
0
0
0
0
0
0
0
0
0
0
0
0
0
0
0
0
0
0
0
0
0
0
0
0
0
0
0
0
0
0
0
0
0
0
0
0
0
0
0
0.00485924
0.00485025
0.00543276
0.00925172
0.1196
0.199894
0.304266
0.424849
0.442629
0.399128
0.384159
0.467356
0.431602
0.360267
0.247076
0.0766823
0.00799861
0.00655625
0.0063089
0.00643749
1.31055e-07
1.21236e-07
2.70105e-06
0.00394642
0.193314
0.220579
0.297498
0.186579
0.200851
0.220718
0.198818
0.525275
0.571396
0.539872
0.494565
0.13578
0.00043962
2.50494e-07
2.1329e-07
2.44113e-07
3.75911e-14
2.60976e-12
3.13065e-10
1.7817e-05
0.0165866
0.150436
0.244872
0.27657
0.27351
0.271627
0.251225
0.253174
0.330573
0.297058
0.24244
0.0107348
3.84074e-06
1.34305e-10
3.75334e-12
1.00128e-13
1.6775e-14
1.6799e-12
1.12866e-10
1.87771e-06
0.0059834
0.226858
0.264549
0.268215
0.269484
0.258199
0.256476
0.263108
0.263021
0.25449
0.194026
0.00419455
1.23994e-06
1.49793e-10
3.80063e-12
6.71195e-14
9.82249e-15
1.08928e-12
8.80874e-11
1.07255e-06
0.00534129
0.200335
0.24696
0.252507
0.242448
0.221303
0.235404
0.223588
0.239799
0.228896
0.165957
0.00351193
7.41275e-07
9.27449e-11
1.88703e-12
3.72388e-14
5.55744e-15
7.25776e-13
7.10797e-11
6.15136e-07
0.00456839
0.19099
0.233184
0.242047
0.21488
0.221936
0.208828
0.207109
0.214414
0.208904
0.153233
0.00297545
4.9022e-07
8.26048e-11
1.37161e-12
2.47768e-14
2.90435e-15
4.21793e-13
4.6847e-11
1.09983e-07
0.00244461
0.178154
0.217074
0.215137
0.208351
0.189785
0.193376
0.183132
0.19259
0.194002
0.143857
0.00154758
2.34076e-07
6.57753e-11
9.01836e-13
1.59171e-14
1.04894e-15
1.74467e-13
2.49431e-11
1.02962e-08
0.0008227
0.129338
0.171909
0.186508
0.159461
0.163985
0.161755
0.152039
0.146501
0.143326
0.0984092
0.000721359
1.91527e-07
3.00776e-11
3.90431e-13
8.44967e-15
3.04421e-17
4.98359e-15
3.92195e-13
3.10989e-10
8.58249e-06
0.000477718
0.000621673
0.00108904
0.000797915
0.0010594
0.000933516
0.000980642
0.000959826
0.000693054
0.000613715
0.00123276
1.02202e-07
8.61222e-12
1.25782e-13
3.47457e-15
5.56426e-22
9.28535e-20
8.18331e-18
1.59001e-15
3.07183e-21
0
3.95752e-24
0
9.31001e-22
2.0408e-17
0
5.35081e-17
1.5825e-16
1.83615e-17
9.5329e-16
3.30499e-09
8.91969e-11
4.63026e-13
1.93442e-14
7.92801e-16
2.04363e-46
8.46616e-44
3.26061e-42
6.33847e-40
2.49943e-46
0
0
0
0
0
0
0
0
0
0
5.13771e-29
1.6015e-23
5.75507e-24
5.6294e-26
1.66274e-27
0
0
0
0
0
0
0
0
0
0
0
0
0
0
0
0
0
0
0
0
0
0
0
0
0
0
0
0
0
0
0
0
0
0
0
0
0
0
0
0
0
0
0
0
0
0
0
0
0
0
0
0
0
0
0
0
0
0
0
0
0
0
0
0
0
0
0
0
0
0
0
0
0
0
0
0
0
0
0
0
0
0
0
0
0
0
0
0
0
0
0
0
0
0
0
0
0
0
0
0
0
0
0
0
0
0
0
0
0
0
0
0
0
0
0
0
0
0
0
0
0
0
0
0
0
0
0
0
0
0
0
0
0
0
0
0
0
0
0
0
0
0
0
0
0
0
0
0
0
0
0
0
0
0
0
0
0
0
0
0
0
0
0
0
0
0
0
0
0
0
0
0
0
0
0
0
0
0
0
0
0.0048495
0.00482404
0.00541554
0.00926971
0.123967
0.202245
0.308259
0.4333
0.450853
0.405587
0.387198
0.471581
0.433029
0.361037
0.247086
0.0786671
0.00795238
0.00653909
0.00627701
0.00640628
1.36589e-07
1.24661e-07
2.55294e-06
0.00437282
0.208426
0.223589
0.300312
0.186168
0.200249
0.220431
0.198069
0.529573
0.576399
0.544735
0.503491
0.146219
0.000356181
2.65594e-07
2.20301e-07
2.53057e-07
3.64372e-14
2.28032e-12
2.47435e-10
1.79628e-05
0.0184982
0.149023
0.245273
0.277052
0.273682
0.272049
0.251092
0.252178
0.331753
0.29721
0.244629
0.0123586
4.1052e-06
1.08544e-10
3.4404e-12
9.84778e-14
1.53734e-14
1.43704e-12
9.50251e-11
1.53562e-06
0.00598604
0.227624
0.265404
0.269361
0.270895
0.259718
0.257306
0.264325
0.264118
0.255663
0.195516
0.00418516
9.61979e-07
1.20695e-10
3.48738e-12
6.59809e-14
8.83485e-15
9.2687e-13
7.71118e-11
9.30959e-07
0.00537305
0.200744
0.247741
0.25376
0.244034
0.222194
0.23696
0.225111
0.241787
0.230274
0.167032
0.00351628
5.65332e-07
6.89169e-11
1.69293e-12
3.72464e-14
4.83903e-15
6.10979e-13
6.31213e-11
5.57328e-07
0.00472148
0.191296
0.233631
0.242942
0.215462
0.222804
0.210054
0.208782
0.216024
0.209903
0.153721
0.0030472
3.4145e-07
5.90172e-11
1.21253e-12
2.48089e-14
2.50205e-15
3.55212e-13
4.21092e-11
1.04482e-07
0.00262344
0.178704
0.217429
0.215378
0.209043
0.190739
0.194252
0.183933
0.193456
0.194676
0.144676
0.00163121
9.45333e-08
4.65608e-11
7.79316e-13
1.57219e-14
8.96204e-16
1.47245e-13
2.36647e-11
1.0259e-08
0.000931582
0.131884
0.174145
0.188695
0.16202
0.166676
0.164112
0.154491
0.149063
0.145737
0.101001
0.000583703
4.51697e-08
2.42385e-11
3.72256e-13
8.64538e-15
2.31224e-17
3.29626e-15
2.15226e-13
8.17627e-11
7.63468e-06
0.000479261
0.000623307
0.00109028
0.000798406
0.00104927
0.000914186
0.000950264
0.000907671
0.000673942
0.000578461
0.000296968
2.41945e-08
6.87737e-12
1.2372e-13
3.57518e-15
4.62207e-22
7.00956e-20
3.72532e-18
3.38418e-16
3.69032e-22
0
0
0
0
0
0
0
0
0
0
1.13728e-16
1.43402e-11
1.96153e-13
1.93831e-14
8.42495e-16
1.7901e-46
6.33035e-44
1.80482e-42
2.53203e-40
5.19185e-47
0
0
0
0
0
0
0
0
0
0
1.1676e-29
6.86068e-24
5.19464e-24
6.12371e-26
1.77839e-27
0
0
0
0
0
0
0
0
0
0
0
0
0
0
0
0
0
0
0
0
0
0
0
0
0
0
0
0
0
0
0
0
0
0
0
0
0
0
0
0
0
0
0
0
0
0
0
0
0
0
0
0
0
0
0
0
0
0
0
0
0
0
0
0
0
0
0
0
0
0
0
0
0
0
0
0
0
0
0
0
0
0
0
0
0
0
0
0
0
0
0
0
0
0
0
0
0
0
0
0
0
0
0
0
0
0
0
0
0
0
0
0
0
0
0
0
0
0
0
0
0
0
0
0
0
0
0
0
0
0
0
0
0
0
0
0
0
0
0
0
0
0
0
0
0
0
0
0
0
0
0
0
0
0
0
0
0
0
0
0
0
0
0
0
0
0
0
0
0
0
0
0
0
0
0
0
0
0
0
0
0.00484053
0.00479913
0.00540007
0.0092678
0.128581
0.204649
0.312739
0.44138
0.45948
0.412229
0.390287
0.476482
0.434781
0.361924
0.24716
0.0805131
0.00792495
0.00652581
0.00624957
0.00637896
1.41557e-07
1.28284e-07
2.42463e-06
0.00449759
0.22449
0.226769
0.303129
0.18578
0.199663
0.220167
0.197301
0.533959
0.581578
0.549623
0.512646
0.156567
0.000335434
2.85012e-07
2.27536e-07
2.61347e-07
3.57127e-14
2.01843e-12
2.05786e-10
1.71777e-05
0.0207107
0.147587
0.245638
0.277447
0.273795
0.272381
0.250884
0.251011
0.332762
0.297185
0.246591
0.0142955
4.85795e-06
8.91543e-11
3.09697e-12
9.34816e-14
1.44371e-14
1.24555e-12
8.06912e-11
1.23516e-06
0.00599456
0.228403
0.266229
0.270384
0.272124
0.261136
0.258038
0.265407
0.265035
0.256751
0.196979
0.0041908
7.58481e-07
9.62576e-11
3.09811e-12
6.18683e-14
8.07183e-15
7.91232e-13
6.75236e-11
7.90286e-07
0.00539195
0.20115
0.248532
0.255029
0.24565
0.223116
0.23841
0.226477
0.243624
0.231582
0.168122
0.00352082
4.47215e-07
5.34235e-11
1.47431e-12
3.58377e-14
4.23119e-15
5.15089e-13
5.72538e-11
4.92242e-07
0.00485839
0.191593
0.234098
0.243886
0.216085
0.223604
0.211253
0.210486
0.217697
0.210937
0.154232
0.00311338
2.65856e-07
4.66348e-11
1.07525e-12
2.45597e-14
2.11829e-15
2.95228e-13
3.75993e-11
9.58375e-08
0.00280011
0.179209
0.217754
0.215593
0.209669
0.191617
0.195115
0.184733
0.194311
0.195333
0.145443
0.0017231
5.27526e-08
3.85833e-11
7.23867e-13
1.59088e-14
7.33143e-16
1.23432e-13
2.23691e-11
1.00853e-08
0.0010489
0.134281
0.176233
0.190738
0.164423
0.169227
0.166343
0.156789
0.151477
0.148002
0.103466
0.000604018
1.04435e-08
2.21328e-11
3.687e-13
8.88109e-15
1.65782e-17
1.9991e-15
1.03404e-13
2.94367e-11
7.07899e-06
0.000480712
0.000624565
0.00109192
0.000799005
0.001044
0.000904756
0.00093719
0.000884156
0.000665319
0.000565815
3.00359e-05
1.65162e-09
5.86499e-12
1.24071e-13
3.69852e-15
3.83131e-22
5.10281e-20
1.64454e-18
6.71414e-17
6.54511e-23
0
0
0
0
0
0
0
0
0
0
3.43524e-18
2.23589e-12
1.59118e-13
2.22988e-14
9.01322e-16
1.58061e-46
4.28021e-44
8.94558e-43
1.03788e-40
1.85428e-47
0
0
0
0
0
0
0
0
0
0
3.62968e-30
3.00259e-24
4.67964e-24
6.34331e-26
1.79078e-27
0
0
0
0
0
0
0
0
0
0
0
0
0
0
0
0
0
0
0
0
0
0
0
0
0
0
0
0
0
0
0
0
0
0
0
0
0
0
0
0
0
0
0
0
0
0
0
0
0
0
0
0
0
0
0
0
0
0
0
0
0
0
0
0
0
0
0
0
0
0
0
0
0
0
0
0
0
0
0
0
0
0
0
0
0
0
0
0
0
0
0
0
0
0
0
0
0
0
0
0
0
0
0
0
0
0
0
0
0
0
0
0
0
0
0
0
0
0
0
0
0
0
0
0
0
0
0
0
0
0
0
0
0
0
0
0
0
0
0
0
0
0
0
0
0
0
0
0
0
0
0
0
0
0
0
0
0
0
0
0
0
0
0
0
0
0
0
0
0
0
0
0
0
0
0
0
0
0
0
0
0.00483362
0.00477651
0.00538765
0.00927502
0.133572
0.207172
0.317662
0.44888
0.468401
0.419177
0.393266
0.481163
0.436742
0.362932
0.247486
0.0822957
0.00791037
0.00651522
0.00622512
0.00635424
1.45808e-07
1.31943e-07
2.24498e-06
0.0044986
0.241831
0.230038
0.305938
0.185427
0.199105
0.219938
0.196524
0.538543
0.586733
0.554436
0.521955
0.166806
0.00032828
3.08566e-07
2.34428e-07
2.68259e-07
3.50252e-14
1.80163e-12
1.71012e-10
1.64657e-05
0.0234006
0.146156
0.246009
0.277777
0.273874
0.272648
0.250627
0.249727
0.333559
0.296949
0.248304
0.0165233
6.1694e-06
7.99883e-11
2.90629e-12
9.02873e-14
1.37801e-14
1.081e-12
6.78655e-11
9.78342e-07
0.00600936
0.229185
0.267017
0.271276
0.273165
0.262435
0.25867
0.266366
0.265788
0.25776
0.198395
0.00420789
6.04962e-07
8.19762e-11
2.84406e-12
5.85119e-14
7.51421e-15
6.75916e-13
5.69641e-11
6.52589e-07
0.00539855
0.201552
0.24932
0.256292
0.247264
0.224065
0.239751
0.227681
0.245278
0.232799
0.169207
0.00352248
3.64121e-07
4.32423e-11
1.3202e-12
3.45733e-14
3.76423e-15
4.29173e-13
4.89207e-11
4.23226e-07
0.00497722
0.191873
0.234582
0.244872
0.216753
0.224336
0.212412
0.212188
0.219413
0.211995
0.15476
0.00316938
2.21036e-07
3.82691e-11
9.68581e-13
2.41855e-14
1.75668e-15
2.37589e-13
3.24061e-11
8.42913e-08
0.00297084
0.179662
0.218047
0.215784
0.210229
0.192414
0.195957
0.18553
0.195151
0.195971
0.146153
0.0018134
4.38427e-08
3.22319e-11
6.69924e-13
1.59299e-14
5.54892e-16
9.73596e-14
1.93985e-11
9.6915e-09
0.00117233
0.136485
0.178145
0.19261
0.166636
0.171606
0.168419
0.158904
0.153704
0.150088
0.105751
0.000660713
7.78123e-09
2.0398e-11
3.60609e-13
9.05376e-15
1.1563e-17
1.16861e-15
4.92042e-14
1.22846e-11
6.79886e-06
0.000481192
0.000624586
0.0010918
0.000798414
0.00104052
0.000898671
0.000928936
0.00087146
0.000660716
0.000563403
1.78656e-05
2.95968e-10
4.87647e-12
1.25584e-13
3.82792e-15
3.13836e-22
3.61035e-20
7.31579e-19
1.17277e-17
9.56419e-24
0
0
0
0
0
0
0
0
0
0
3.80869e-19
4.68135e-13
1.62368e-13
2.59319e-14
9.63779e-16
1.32162e-46
2.6083e-44
3.71591e-43
4.01742e-41
7.16465e-48
0
0
0
0
0
0
0
0
0
0
1.32147e-30
1.33474e-24
4.20492e-24
6.3904e-26
1.73136e-27
0
0
0
0
0
0
0
0
0
0
0
0
0
0
0
0
0
0
0
0
0
0
0
0
0
0
0
0
0
0
0
0
0
0
0
0
0
0
0
0
0
0
0
0
0
0
0
0
0
0
0
0
0
0
0
0
0
0
0
0
0
0
0
0
0
0
0
0
0
0
0
0
0
0
0
0
0
0
0
0
0
0
0
0
0
0
0
0
0
0
0
0
0
0
0
0
0
0
0
0
0
0
0
0
0
0
0
0
0
0
0
0
0
0
0
0
0
0
0
0
0
0
0
0
0
0
0
0
0
0
0
0
0
0
0
0
0
0
0
0
0
0
0
0
0
0
0
0
0
0
0
0
0
0
0
0
0
0
0
0
0
0
0
0
0
0
0
0
0
0
0
0
0
0
0
0
0
0
0
0
0.00482883
0.0047557
0.00537811
0.00931588
0.138912
0.209718
0.322926
0.455866
0.477154
0.426067
0.396031
0.485603
0.438899
0.364197
0.248086
0.0841593
0.00791066
0.00650763
0.00620372
0.00633256
1.49234e-07
1.35463e-07
2.16564e-06
0.00464645
0.261244
0.233356
0.308755
0.185107
0.198575
0.219746
0.195739
0.543383
0.591954
0.55928
0.531609
0.177143
0.000340126
3.37817e-07
2.40892e-07
2.73703e-07
3.45146e-14
1.64773e-12
1.53629e-10
1.64298e-05
0.0266117
0.14471
0.246355
0.278046
0.273934
0.272854
0.250321
0.248304
0.334209
0.2965
0.249723
0.0190062
8.0342e-06
7.94718e-11
2.81514e-12
8.87663e-14
1.341e-14
9.57328e-13
5.67643e-11
7.7532e-07
0.00603062
0.229971
0.267771
0.27204
0.27403
0.263613
0.259215
0.267228
0.266399
0.258702
0.199763
0.00423667
4.82661e-07
7.29005e-11
2.67532e-12
5.62713e-14
7.21197e-15
5.93193e-13
4.78803e-11
5.29241e-07
0.00539512
0.201949
0.250098
0.257523
0.248847
0.225031
0.240987
0.228724
0.246732
0.233919
0.170282
0.00352284
2.94392e-07
3.68248e-11
1.23609e-12
3.41964e-14
3.44366e-15
3.65435e-13
4.14499e-11
3.55227e-07
0.00507825
0.192144
0.235084
0.245902
0.217466
0.225015
0.213523
0.213863
0.22115
0.213067
0.155305
0.00321546
1.82013e-07
3.27802e-11
9.13633e-13
2.42136e-14
1.44316e-15
1.88518e-13
2.70643e-11
7.22839e-08
0.00313321
0.180077
0.218315
0.215955
0.210731
0.19313
0.196774
0.186327
0.195981
0.196596
0.146822
0.0018979
3.71901e-08
2.8124e-11
6.40607e-13
1.60242e-14
3.94204e-16
7.55632e-14
1.63364e-11
9.04021e-09
0.0012987
0.138529
0.179908
0.194334
0.168684
0.173828
0.170358
0.160864
0.155773
0.152023
0.107884
0.000720125
6.71062e-09
1.89892e-11
3.54926e-13
9.20793e-15
7.87948e-18
6.78242e-16
2.48152e-14
5.35804e-12
6.61588e-06
0.00048208
0.000624995
0.00109215
0.000798368
0.00103856
0.000894245
0.000922908
0.000861945
0.00065772
0.000562629
1.6386e-05
1.50966e-10
4.30757e-12
1.28817e-13
3.94672e-15
2.56135e-22
2.48154e-20
3.29293e-19
1.8018e-18
1.22187e-24
0
0
0
0
0
0
0
0
0
0
9.91143e-20
1.2467e-13
1.80815e-13
3.00164e-14
1.03152e-15
1.00331e-46
1.44842e-44
1.26329e-43
1.39557e-41
2.47917e-48
0
0
0
0
0
0
0
0
0
0
5.36673e-31
6.05936e-25
3.76791e-24
6.36347e-26
1.63793e-27
0
0
0
0
0
0
0
0
0
0
0
0
0
0
0
0
0
0
0
0
0
0
0
0
0
0
0
0
0
0
0
0
0
0
0
0
0
0
0
0
0
0
0
0
0
0
0
0
0
0
0
0
0
0
0
0
0
0
0
0
0
0
0
0
0
0
0
0
0
0
0
0
0
0
0
0
0
0
0
0
0
0
0
0
0
0
0
0
0
0
0
0
0
0
0
0
0
0
0
0
0
0
0
0
0
0
0
0
0
0
0
0
0
0
0
0
0
0
0
0
0
0
0
0
0
0
0
0
0
0
0
0
0
0
0
0
0
0
0
0
0
0
0
0
0
0
0
0
0
0
0
0
0
0
0
0
0
0
0
0
0
0
0
0
0
0
0
0
0
0
0
0
0
0
0
0
0
0
0
0
0.00482654
0.00473711
0.00537198
0.00937668
0.144429
0.21233
0.328894
0.46206
0.485672
0.432642
0.398418
0.490302
0.440941
0.36608
0.249033
0.0862106
0.00793337
0.0065037
0.00618598
0.00631435
1.51738e-07
1.3855e-07
2.14169e-06
0.00488051
0.282504
0.236686
0.311551
0.18482
0.198075
0.219594
0.194966
0.548247
0.597111
0.564092
0.541455
0.187957
0.000387677
3.72404e-07
2.46399e-07
2.77577e-07
3.41857e-14
1.55698e-12
1.54062e-10
1.69946e-05
0.0303993
0.143265
0.246695
0.278271
0.273986
0.273014
0.249984
0.246788
0.334717
0.295831
0.250864
0.0216968
1.06298e-05
8.792e-11
2.77453e-12
8.81547e-14
1.32259e-14
8.71105e-13
4.85576e-11
6.22213e-07
0.00605652
0.230752
0.268487
0.272681
0.274736
0.264665
0.259678
0.268001
0.266886
0.259582
0.201069
0.00427632
3.87191e-07
6.58545e-11
2.53834e-12
5.44188e-14
7.10703e-15
5.36712e-13
4.17495e-11
4.29648e-07
0.00538236
0.20234
0.250855
0.258702
0.250369
0.226004
0.24212
0.229616
0.247982
0.234935
0.171332
0.00352265
2.36468e-07
3.24854e-11
1.17876e-12
3.39753e-14
3.25377e-15
3.1836e-13
3.67061e-11
2.94707e-07
0.00516188
0.1924
0.2356
0.246965
0.218222
0.225644
0.214577
0.215485
0.222883
0.214137
0.155859
0.00325196
1.48839e-07
2.90739e-11
8.71523e-13
2.41539e-14
1.21661e-15
1.49012e-13
2.26109e-11
6.12291e-08
0.00328446
0.180448
0.218558
0.216108
0.21118
0.193765
0.197561
0.187118
0.196799
0.197206
0.147446
0.00197486
3.04063e-08
2.38834e-11
6.02377e-13
1.59433e-14
2.67625e-16
5.38407e-14
1.25658e-11
8.27328e-09
0.00142395
0.140382
0.1815
0.195885
0.170538
0.175863
0.172136
0.162646
0.157657
0.153782
0.109831
0.00077887
5.5768e-09
1.52864e-11
3.33479e-13
9.20357e-15
5.23616e-18
3.9648e-16
1.44955e-14
2.80512e-12
6.46719e-06
0.000482226
0.000624363
0.00109097
0.000797037
0.00103515
0.000888998
0.00091599
0.000852054
0.000654028
0.000561126
1.46173e-05
8.34177e-11
3.90483e-12
1.31797e-13
4.03716e-15
2.06742e-22
1.65882e-20
1.48734e-19
2.42255e-19
1.82454e-25
0
0
0
0
0
0
0
0
0
0
7.15649e-20
6.64881e-14
2.15277e-13
3.45312e-14
1.10605e-15
6.8651e-47
7.46334e-45
3.47558e-44
4.27351e-42
7.77275e-49
0
0
0
0
0
0
0
0
0
0
2.62249e-31
2.85511e-25
3.36649e-24
6.27948e-26
1.52924e-27
0
0
0
0
0
0
0
0
0
0
0
0
0
0
0
0
0
0
0
0
0
0
0
0
0
0
0
0
0
0
0
0
0
0
0
0
0
0
0
0
0
0
0
0
0
0
0
0
0
0
0
0
0
0
0
0
0
0
0
0
0
0
0
0
0
0
0
0
0
0
0
0
0
0
0
0
0
0
0
0
0
0
0
0
0
0
0
0
0
0
0
0
0
0
0
0
0
0
0
0
0
0
0
0
0
0
0
0
0
0
0
0
0
0
0
0
0
0
0
0
0
0
0
0
0
0
0
0
0
0
0
0
0
0
0
0
0
0
0
0
0
0
0
0
0
0
0
0
0
0
0
0
0
0
0
0
0
0
0
0
0
0
0
0
0
0
0
0
0
0
0
0
0
0
0
0
0
0
0
0
0.00482695
0.00472186
0.00536975
0.00942171
0.149513
0.214941
0.335671
0.467583
0.493506
0.438974
0.40011
0.495554
0.443317
0.368376
0.250175
0.08844
0.00798042
0.00650403
0.00617267
0.00629985
1.53278e-07
1.40801e-07
2.0916e-06
0.00510249
0.304297
0.239987
0.314331
0.184554
0.197605
0.219482
0.194183
0.553262
0.602226
0.569052
0.551349
0.199344
0.000492336
4.17898e-07
2.50293e-07
2.79837e-07
3.35932e-14
1.4766e-12
1.55438e-10
1.77147e-05
0.0347715
0.141821
0.247009
0.27846
0.274034