/*--------------------------------*- C++ -*----------------------------------*\
| =========                 |                                                 |
| \\      /  F ield         | OpenFOAM: The Open Source CFD Toolbox           |
|  \\    /   O peration     | Version:  2.3.0                                 |
|   \\  /    A nd           | Web:      www.OpenFOAM.org                      |
|    \\/     M anipulation  |                                                 |
\*---------------------------------------------------------------------------*/
FoamFile
{
    version     2.0;
    format      ascii;
    class       volScalarField;
    location    "4.00001";
    object      epsilon.air;
}
// * * * * * * * * * * * * * * * * * * * * * * * * * * * * * * * * * * * * * //

dimensions      [0 2 -3 0 0 0 0];

internalField   nonuniform List<scalar> 
10000
(
242.438
163.597
96.9477
28.534
4.05122
1.70324
0.304468
1.58624
0.580351
0.226883
2.56033
8.97083
1.4272
0.778551
3.49573
12.8168
209.595
353.942
473.056
431.791
157.083
72.2387
66.935
22.9431
0.395658
0.309496
0.0164538
0.0138729
0.00475257
0.000481442
0.00993998
0.437676
1.45563
0.303946
6.61193
6.221
3361.59
3796.44
1252.56
1852.08
164.232
161.957
106.058
48.7145
0.318664
0.408085
0.00736773
0.000751545
0.000458998
0.000518902
0.000499382
0.00203689
0.00716374
0.00317891
0.013615
7.40789
3365.55
22012.7
3573.1
10639.7
204.318
618.797
212.338
314.575
0.439012
0.00319735
0.000194612
0.000204581
0.000233176
0.000235179
0.000234224
0.000215957
0.00019796
0.000181222
0.00115762
3.61162
1029.86
2732.93
4989.47
59673.7
187.743
3886.53
721.656
2117.23
0.927814
0.00147872
0.00024882
0.000214055
0.000229125
0.000252882
0.00023082
0.000262844
0.000266716
0.000216486
0.00152235
4.83426
799.89
179.932
4368.21
3577.35
297.004
22887.7
3636.21
703.137
0.711579
0.000992758
0.000249141
0.000222268
0.000254436
0.000264335
0.000244175
0.000256961
0.000240971
0.000225444
0.00132141
2.89086
481.053
121.769
2024.3
11564.6
465.686
9603.18
23026.1
508.049
0.976636
0.00165532
0.000633883
0.000529639
0.000692506
0.000769875
0.000614766
0.000751817
0.00068289
0.000545962
0.00171864
2.32631
513.324
326.219
4970.93
66428.9
2125.47
4498.36
26745.3
500.805
2.62599
0.0079964
0.00538664
0.00444133
0.00576558
0.00628189
0.0049763
0.00626249
0.00578596
0.0047496
0.00747627
3.15354
584.524
2885.3
52364.6
66989.9
5423.46
685.703
26999
261.956
5.83969
0.339043
0.280664
0.2097
0.344233
0.345922
0.257494
0.380668
0.373048
0.324419
0.417401
5.20421
141.848
27871.7
31988.9
75928.9
2151.52
27.9724
17100.7
173.236
6.83731
2.94852
2.70317
1.49088
2.25916
2.35021
1.59065
2.59985
3.04066
2.95961
3.43212
8.86543
173.72
7551.29
186693
69391.8
632.531
48.7791
30.1826
83.2311
6.63022
3.00607
2.39034
1.77822
1.97894
1.99013
1.79596
2.05853
3.63348
3.64143
2.84348
8.40236
208.132
8520.75
94473.3
62193.5
164.461
115.369
18.9732
365.403
15.6884
3.42929
3.41025
2.17806
2.99002
2.95979
2.13703
2.63226
2.58978
2.56521
3.18933
15.6082
331.133
1357.62
495.948
58442.2
208.727
437.954
56.1296
3882.67
29.5426
6.72133
8.91135
2.77506
7.1401
6.9182
2.75307
5.72148
5.08702
4.60383
5.84768
18.4795
1813.64
3003.06
445.358
62872.2
527.373
3942.45
88.3059
9581.34
112.08
6.23159
9.07379
3.18697
7.01559
6.59167
4.01842
5.45408
4.51097
3.1333
3.28677
20.4796
2011.21
18982.1
722.109
68450
625.014
1966.94
73.1094
7933.42
94.4889
5.1652
8.85661
3.04988
6.18605
5.5867
3.52716
4.39044
2.22944
2.23797
3.09619
26.1318
3202.63
99713.4
976.286
64243.2
203.258
2123.15
32.2726
1187.06
58.6684
6.25804
8.7588
2.9556
2.67285
2.48229
2.86961
2.17319
2.21579
2.74773
3.49328
23.352
1885.84
34550.6
275.728
52492.1
499.141
294.916
34.8778
5635.65
71.8793
5.87118
8.16103
5.31573
3.2267
3.03885
1.95366
2.62662
3.11021
3.61625
3.68255
17.8778
997.248
74.1396
78.6943
28016.5
2933.41
407.013
3.43878
278.591
21.9218
3.14518
6.52823
5.20222
7.12252
6.60181
2.08896
5.42926
6.96949
5.47019
4.06969
17.1916
77.2534
0.676056
32.9325
12527.8
771.491
1435.7
1.82565
2.73978
9.32884
2.98049
4.5522
4.7146
5.53378
2.39716
1.79739
2.1325
2.85395
3.84319
4.91542
7.2925
16.9011
0.197996
2.0796
2065.55
69.8693
119.669
0.0524657
0.022069
1.72802
1.89632
2.2944
3.8104
1.6734
1.75922
1.50614
1.71092
1.6913
0.920333
0.710363
0.711124
2.13498
0.160148
0.0703885
146.727
239.553
164.868
97.6229
26.1132
4.38727
1.74819
0.299577
0.862514
0.225736
0.0858807
1.04846
4.96937
3.09509
0.803809
3.60591
11.5709
150.785
315.209
449.614
412.427
150.946
70.936
64.9341
22.5286
0.626129
0.383682
0.0164581
0.0140598
0.00484428
0.000457371
0.010106
0.233577
2.96443
0.452282
7.73978
3.55243
1758.23
2828.06
1125.47
1565.61
169.831
145.997
103.852
34.692
0.315333
0.401029
0.00665177
0.000729523
0.000451999
0.00050808
0.000488977
0.00205602
0.00780986
0.00357148
0.0137771
4.66228
1773.09
10945.3
3330.16
7784.09
210.73
484.537
202.254
136.147
0.402356
0.00286603
0.000189497
0.000202199
0.000229397
0.00023035
0.000230354
0.00020989
0.000192619
0.000177904
0.000969717
2.68914
666.989
2224.18
4635.29
27928.4
191.349
2604.13
649.242
681.474
0.487692
0.00132871
0.000243273
0.000210476
0.000224398
0.000246799
0.000226482
0.000257718
0.000261843
0.000212588
0.00127663
3.38676
481.808
151.122
4088.65
3237.43
258.489
11181.9
2930.1
420.372
0.459963
0.000877047
0.000236682
0.000213351
0.000240523
0.000247682
0.000232063
0.000241993
0.000228429
0.000216098
0.00109129
2.18712
287.494
107.247
1829.15
9134.27
396.577
5946.6
12592.9
338.233
0.73701
0.00137301
0.000531575
0.000451946
0.000574791
0.000635334
0.000517026
0.000619596
0.000566151
0.000459709
0.00137858
1.55229
278.698
226.858
2604.06
37937.8
1135.88
2981.18
14160.6
296.634
2.23172
0.00679316
0.00451303
0.00390365
0.00488775
0.0052983
0.00433639
0.00525851
0.00486408
0.00400102
0.00604095
2.17921
290.812
1209.74
12852.3
39116.7
2969.23
689.134
12756.7
193.837
5.48911
0.276828
0.226564
0.184866
0.292415
0.292293
0.227845
0.318394
0.313843
0.272557
0.331766
4.91149
115.327
8152.97
23311.6
43745
1227.08
111.79
4132.3
102.453
5.9843
2.88702
2.60296
1.5602
2.2113
2.28886
1.65325
2.50726
2.89536
2.84288
3.21696
7.13648
139.824
6269.96
87764.5
39659
554.382
95.3451
14.1518
78.3583
7.50177
3.09997
2.42798
1.79524
1.99836
2.00991
1.81381
2.07774
3.36994
3.38541
2.88827
8.8733
157.437
6690.47
25348.9
35113.8
160.395
114.295
15.5844
302.051
10.3991
3.51655
3.44218
2.20705
3.01197
2.98322
2.16915
2.64844
2.60418
2.57946
3.20774
12.907
217.029
1228.48
275.827
32874.4
192.319
177.132
42.1288
1833.85
24.1405
5.22411
6.46783
2.82816
5.90545
5.74222
2.52103
5.01549
4.60588
4.21371
5.04416
12.5689
838.319
2651.59
281.329
34656.7
469.718
1001.38
62.1434
5557.75
76.0061
5.18154
6.69472
3.26277
5.94588
5.64718
3.63236
4.87159
4.14672
2.86694
3.29859
12.8608
1014.97
15521.8
473.289
36933
562.65
1032.9
51.8928
4296.19
70.0294
4.99765
6.63675
3.11845
5.43001
4.97012
3.2845
4.02326
2.24209
2.25519
3.13348
15.667
1712.17
57541.8
575.856
33540.4
181.75
925.129
21.7931
964.26
50.2984
5.39489
6.57634
3.01531
2.71273
2.50938
2.71913
2.18843
2.23428
2.78622
3.5612
15.3684
842.028
13080.2
128.743
26047.4
284.85
270.333
18.9798
2919.36
58.1829
4.95362
6.16179
4.38951
3.27224
3.07194
1.9716
2.64434
3.13263
3.67919
3.76896
12.4435
450.165
30.6649
39.0753
12914.6
1048.4
253.5
1.69906
181.044
18.2314
3.19344
5.07762
4.29154
5.36546
5.30235
2.10842
4.71686
5.86081
5.41277
4.16049
12.8692
64.1125
0.577222
14.0094
5111.62
202.583
579.389
0.742268
3.97101
9.96208
3.07644
3.83276
3.96879
4.54774
2.45685
1.82256
2.17328
2.96334
4.08242
5.34033
8.06834
17.0511
0.185947
0.98491
900.325
3.67878
28.6568
0.013935
0.0399887
3.34287
2.21378
2.37259
3.10418
1.80656
1.91083
1.57514
1.84671
2.25403
2.30149
2.45862
2.37028
4.32098
0.129331
0.032652
85.2242
234.111
163.016
95.4339
24.2154
4.67945
1.76827
0.298674
0.766104
0.167245
0.063618
0.618571
3.18817
3.89297
0.829571
3.74256
10.9852
116.401
277.057
406.388
383.375
149.948
69.5956
61.9228
22.3512
1.05822
0.423901
0.0166909
0.0137391
0.00477961
0.000446455
0.00981546
0.184759
3.75826
0.813878
10.9808
3.15476
935.802
1977.27
945.099
1259.19
179.668
129.516
99.9899
28.2239
0.315325
0.390735
0.00632862
0.000698415
0.000435681
0.000488567
0.000470767
0.00205303
0.00807728
0.00372427
0.0135617
3.32694
961.746
5710.79
2923.21
5364.17
222.557
360.327
187.645
57.9239
0.390359
0.00272654
0.000186072
0.000198678
0.000223991
0.000223911
0.000224849
0.000204602
0.000188533
0.000175182
0.000893738
2.16102
437.1
1502.65
4044.69
13656.8
200.945
1573.14
558.256
212.567
0.395928
0.00126578
0.00023748
0.000206361
0.000219109
0.000240378
0.000221171
0.000251195
0.000255081
0.000208551
0.00117475
2.63691
308.718
124.279
3574.37
2744.65
237.721
5476.89
2223.78
251.81
0.374663
0.000830742
0.000230909
0.000209196
0.000234281
0.00024033
0.000226532
0.000235323
0.000222849
0.000211794
0.00100099
1.79917
190.414
94.4392
1576.55
6730.91
328.494
3774.06
7119.31
233.275
0.642346
0.00126333
0.000493803
0.000422658
0.000531462
0.000585669
0.000480339
0.000571236
0.000523459
0.000428031
0.0012541
1.21033
172.384
171.293
1877.94
22362.9
759.561
1960.41
7722.84
197.243
1.99747
0.00632769
0.00420034
0.0037005
0.00456039
0.0049299
0.00409312
0.00488667
0.00452319
0.00372712
0.00552107
1.77429
169.211
645.171
5112.2
23512.2
1645.52
589.845
5951.13
135.579
5.26971
0.247087
0.197086
0.169358
0.255838
0.253095
0.207457
0.276415
0.27486
0.241684
0.286856
4.73363
98.4059
3183.38
15398.5
26000.7
778.554
168.572
878.598
72.6112
7.14495
2.98643
2.60164
1.64942
2.22618
2.29639
1.74104
2.50531
2.86722
2.83529
3.16953
7.28833
110.538
4504.4
40966.5
23357.7
446.58
130.6
9.02094
72.044
9.10693
3.26409
2.49406
1.82521
2.03268
2.04492
1.84526
2.11245
3.23244
3.25268
2.96889
9.95678
123.404
4300.33
6030.65
20388.3
153.319
115.167
13.0007
248.769
9.7338
3.70708
3.54396
2.25766
3.0655
3.03823
2.22663
2.68334
2.63405
2.60829
3.2534
11.0363
135.86
1017.7
157.329
19031.9
169.984
106.61
30.2046
1189.79
20.3686
4.55327
5.31049
2.92627
5.20825
5.07644
2.49179
4.58933
4.30487
3.96624
4.54506
10.4502
404.398
2172.64
169.203
19665.5
381.524
305.728
42.8311
3336.02
54.8571
4.68829
5.53479
3.40297
5.32108
5.0901
3.44525
4.51256
3.91825
2.70053
3.33218
10.9669
554.226
11824.9
274.954
20478.7
463.802
562.261
35.9937
2440.03
53.6395
4.83874
5.53154
3.24446
4.97522
4.59501
3.16051
3.79495
2.26629
2.28688
3.21211
12.5825
942.68
33856.6
310.386
17922.2
159.025
490.543
14.2422
747.376
46.4146
5.0096
5.4875
3.13622
2.78608
2.55987
2.64185
2.21703
2.2677
2.85559
3.69276
12.2194
376.823
5008.46
55.6546
13161
152.973
239.214
9.35841
1593.32
49.1828
4.56801
5.16642
3.98412
3.38515
3.14843
2.0034
2.68237
3.18444
3.79637
3.93331
10.1541
179.927
12.4304
17.8638
6066.37
331.269
193.662
0.785344
91.5434
16.3862
3.28691
4.34893
3.89262
4.52773
4.6113
2.1455
4.29671
5.22043
5.34519
4.3243
10.9941
45.0572
0.479982
5.77897
2290.85
43.8346
256.046
0.276319
5.59482
10.9883
3.24124
3.52093
3.62984
4.12316
2.56465
1.86629
2.245
3.14554
4.46035
5.96959
9.17838
10.9395
0.157563
0.483928
650.124
0.491435
5.25568
0.00239326
0.137315
5.76007
2.77405
2.5202
2.81644
2.04103
2.1788
1.69641
2.08614
3.19247
4.12411
4.77414
4.96924
2.03169
0.0988316
0.00357575
27.0367
230.777
163.213
95.1338
22.5252
5.07359
1.80744
0.292006
0.739831
0.142498
0.0547809
0.347251
1.84418
3.74825
0.844001
3.86417
10.6592
96.8473
251.684
379.341
364.536
152.031
68.9379
58.7386
20.7156
2.46331
0.518061
0.0167623
0.0131656
0.00451888
0.000429262
0.0093557
0.150414
4.06545
1.05695
13.9582
2.98866
509.056
1362.67
749.15
1000.01
192.612
115.834
94.904
26.1612
0.315509
0.380843
0.00584263
0.000684172
0.000429345
0.000480444
0.000463198
0.00205983
0.00819
0.00379297
0.0133261
2.4674
543.062
3116.21
2415.24
3697.85
238.45
274.011
171.559
37.3829
0.381085
0.002472
0.000183358
0.000197224
0.000221748
0.000221147
0.000222542
0.000201801
0.000185832
0.000173221
0.000767154
1.64665
298.226
870.529
3301.66
7118.27
215.502
938.763
470.248
88.7763
0.371019
0.00115824
0.000234747
0.000204518
0.000216726
0.000237449
0.000218843
0.000248376
0.000252214
0.000206692
0.00100384
1.94462
210.852
103.291
2906.11
2269.32
232.011
2775.59
1655.02
155.975
0.333975
0.000749395
0.000224038
0.000204339
0.000226816
0.000231584
0.000220011
0.000227343
0.000216113
0.000206724
0.000854572
1.4266
138.27
83.6649
1298.46
4895.39
284.242
2471.46
4159.77
166.859
0.570851
0.00107634
0.000435989
0.000376235
0.000464284
0.000509243
0.000422425
0.000496766
0.000457709
0.000379341
0.00106784
0.96433
121.418
132.029
1473.18
13640.9
513.488
1314.69
4350.45
141.252
1.79762
0.00559752
0.00379105
0.00340178
0.00412895
0.00445264
0.00374384
0.00440585
0.00407267
0.00335284
0.00483677
1.54866
116.018
422.682
3214.56
14619
954.67
468.439
2739.84
97.2104
5.04348
0.205229
0.161277
0.150415
0.217953
0.214163
0.184007
0.232647
0.230726
0.201707
0.22853
4.57447
85.6772
1708.57
9612.02
15980
553.981
194.483
178.769
59.7358
9.0685
3.17086
2.66696
1.742
2.28401
2.35142
1.83573
2.56633
2.92197
2.90372
3.23435
8.3525
90.7191
2863.77
18946.4
14226.6
353.485
153.226
7.57215
66.0277
11.1083
3.45312
2.57046
1.8597
2.07252
2.08558
1.8815
2.15326
3.18351
3.20649
3.06357
11.4749
98.7023
2327.28
1351.05
12242.5
145.419
114.757
10.9031
201.359
10.7743
3.95685
3.70571
2.31557
3.14526
3.11842
2.29331
2.73206
2.67471
2.64686
3.32186
10.7253
97.8268
770.867
94.1249
11393.8
149.923
85.4226
21.2695
852.713
18.1598
4.38699
4.87749
3.04274
4.87071
4.75509
2.58236
4.36626
4.1408
3.8308
4.27552
10.1082
210.348
1679.95
101.163
11524.1
291.564
156.422
29.5639
2067.12
42.3586
4.54441
5.08161
3.57161
5.00725
4.80774
3.39256
4.32073
3.79503
2.61016
3.38338
10.7358
322.578
8650.02
151.7
11674.1
355.586
330.826
24.9636
1463.12
44.3951
4.78561
5.08364
3.3943
4.73878
4.3985
3.12006
3.67323
2.29744
2.32675
3.31644
11.6689
522.977
20208.5
161.016
9791.08
143.107
318.966
9.62018
577.505
45.0828
4.91862
5.04492
3.2874
2.87862
2.62409
2.61626
2.25349
2.30933
2.94234
3.86355
11.4209
179.558
1882.5
22.4649
6735.82
91.0818
210.444
4.84107
920.871
44.6374
4.49738
4.76996
3.88943
3.55179
3.259
2.04013
2.73537
3.25928
3.94926
4.14519
9.59535
83.6756
5.16025
7.22688
2892.7
84.4103
147.872
0.395125
50.9205
15.7184
3.40051
4.06937
3.80181
4.23526
4.31584
2.19026
4.08672
4.90461
5.3198
4.52219
10.3991
32.8463
0.451704
2.08537
1119.03
7.99547
106.305
0.0956985
7.26908
12.1209
3.4261
3.45412
3.54233
4.03316
2.6896
1.91595
2.32662
3.34214
4.85913
6.61704
10.2976
8.83625
0.144646
0.037357
259.496
0.332478
0.788942
0.00167753
0.453091
8.34255
3.4333
2.71285
2.7734
2.31446
2.49202
1.83684
2.36572
4.26482
6.04053
7.1319
7.87723
1.88507
0.072056
0.00179328
1.41036
227.503
163.874
95.0164
21.1362
5.4961
1.827
0.288698
0.774747
0.135224
0.0523303
0.222315
1.34738
2.23308
0.86335
3.98822
10.4272
84.8167
230.939
351.537
347.618
156.035
69.0573
55.8035
7.79509
6.21232
0.599829
0.0167183
0.0117142
0.00422654
0.000410038
0.00848142
0.135291
4.37185
1.46334
17.7295
3.04702
282.787
939.738
569.787
795.168
207.806
104.639
88.9885
25.6254
0.299855
0.370007
0.00545972
0.000652608
0.000414605
0.000461328
0.000446047
0.00204322
0.00805382
0.00376698
0.0127217
1.93687
318.375
1769.61
1871.45
2600.07
257.301
216.685
155.229
30.9936
0.368814
0.00232012
0.000179889
0.000193946
0.000216798
0.000215432
0.000217506
0.000196537
0.000181223
0.000170293
0.000699816
1.29204
211.169
474.851
2505.02
4033.08
233.559
583.127
391.807
53.1395
0.36086
0.00110526
0.000229047
0.000200744
0.00021179
0.000231375
0.00021394
0.000242298
0.000245998
0.000202915
0.0009175
1.46784
149.681
88.4011
2187.37
1836.09
237.201
1532.9
1222.73
102.455
0.314507
0.000703348
0.000218704
0.000200564
0.000221349
0.000225211
0.000215088
0.000221526
0.00021124
0.000202833
0.000782407
1.16001
106.128
75.1611
1025.27
3567.33
263.681
1636.59
2504.74
121.165
0.521235
0.000985061
0.000407544
0.000353425
0.000431384
0.000471711
0.000394
0.000460309
0.000425576
0.000355526
0.000978376
0.810421
93.6749
104.017
1138.89
8604.15
374.665
888.893
2512.71
105.617
1.6242
0.00524482
0.00359703
0.00325669
0.00391905
0.0042199
0.00357306
0.00417275
0.00385599
0.00317465
0.00451601
1.42645
89.4948
280.237
2203.17
9383.51
596.591
366.705
1217.36
74.1801
4.82141
0.172671
0.132647
0.134221
0.184397
0.179722
0.162821
0.1939
0.190856
0.167284
0.182247
4.36892
75.9569
988.951
5702.12
10152.8
434.532
200.825
44.012
53.6261
10.8276
3.33605
2.76117
1.8098
2.3589
2.42664
1.90653
2.65604
3.01736
3.00709
3.34975
9.65295
78.0066
1634.75
8582.48
8955.46
287.623
166.349
7.22588
60.8108
12.89
3.59666
2.62879
1.88578
2.10302
2.11671
1.90895
2.18477
3.18321
3.2074
3.1364
12.8496
83.0734
1161.58
325.181
7585.6
137.941
112.576
9.38627
160.968
12.1054
4.16276
3.88607
2.35911
3.23199
3.20485
2.34395
2.7828
2.71594
2.68534
3.39425
11.4137
79.5297
531.52
59.2567
7023.12
135.139
73.27
14.9526
616.782
17.4012
4.44785
4.82914
3.13294
4.76033
4.65154
2.69042
4.28153
4.07389
3.77633
4.16171
10.6863
127.335
1221.96
62.3804
6957.6
220.778
100.596
20.5971
1315.43
36.5557
4.57162
5.01275
3.70489
4.89611
4.70687
3.4068
4.24534
3.74733
2.57073
3.43889
11.222
199.638
6082
82.7688
6807.77
266.211
215.817
17.4663
929.36
40.3323
4.81705
5.00008
3.51085
4.65034
4.32486
3.12392
3.62741
2.32759
2.36509
3.41948
11.7681
295.332
12090.2
80.7505
5432.22
133.755
231.281
6.67302
451.409
45.0594
4.96242
4.96137
3.40844
2.96848
2.68659
2.61809
2.28883
2.34921
3.02672
4.03249
11.7056
102.093
590
8.21793
3456.01
59.9485
176.886
2.56743
566.201
43.286
4.55197
4.70651
3.93362
3.732
3.37781
2.06795
2.79073
3.33901
4.10549
4.3547
9.83646
52.1818
2.89017
2.2088
1343.42
22.8808
98.346
0.23404
36.7959
15.6444
3.48943
4.04246
3.84923
4.23601
4.25763
2.22529
4.017
4.79432
5.35342
4.70911
10.4455
27.5667
0.464467
0.367512
387.586
4.21904
24.8192
0.0464171
8.86208
12.9621
3.562
3.4947
3.57182
4.08776
2.78378
1.95281
2.38726
3.48107
5.13215
7.06106
11.0801
8.72535
0.13892
0.00603533
17.2815
0.461793
0.719954
0.00221013
0.891786
10.4382
3.95632
2.88381
2.83144
2.52535
2.73524
1.94434
2.58272
5.13422
7.6734
9.16562
10.5239
2.29415
0.0478413
0.00230594
0.204578
224.944
165.196
95.1505
20.6587
5.94869
1.8519
0.280901
0.834399
0.137042
0.0539911
0.194571
1.30471
2.23377
0.872775
4.092
10.2368
77.8591
214.797
327.194
333.319
161.276
70.3512
53.3806
4.53674
9.00441
0.688564
0.0164512
0.0100603
0.00393726
0.000388507
0.00715716
0.120787
5.98432
1.71158
21.5484
3.15288
164.762
653.716
425.555
641.027
224.715
95.7305
82.7484
25.5895
0.284969
0.356345
0.00491471
0.000637129
0.000407626
0.00045215
0.000437781
0.00202573
0.00749426
0.0035539
0.0121568
1.61076
195.819
1048.14
1357.29
1867.12
278.551
176.531
139.125
28.6975
0.354303
0.00204597
0.000177829
0.000192408
0.000214482
0.000212747
0.000215137
0.000194008
0.000178563
0.000168736
0.00059655
1.01577
153.888
275.284
1762.22
2499.6
254.006
396.542
323.745
40.4593
0.352185
0.00101376
0.000226323
0.000198956
0.000209464
0.000228507
0.000211629
0.000239428
0.000243049
0.000201125
0.000795654
1.12784
109.608
78.5717
1526.57
1459.64
250.583
931.162
897.197
71.8589
0.302782
0.000625464
0.000213377
0.000196821
0.000215618
0.000218603
0.000210099
0.000215455
0.000206073
0.000198919
0.000673816
0.962668
84.5697
68.8574
777.432
2623
258.922
1086.5
1553.67
89.8689
0.483065
0.000833234
0.000360613
0.0003153
0.000377032
0.000409835
0.000346695
0.000400172
0.000372643
0.000316333
0.000845379
0.710784
76.7513
84.9156
843.738
5608.01
304.397
600.151
1470.49
82.114
1.45238
0.0047223
0.0033574
0.00304615
0.00364907
0.00392545
0.00333128
0.0038835
0.00358938
0.0029488
0.00413316
1.35447
74.4085
189.67
1490.07
6208.67
416.714
287.15
502.843
60.809
4.55228
0.150058
0.113766
0.122654
0.162134
0.157137
0.148083
0.168279
0.164153
0.143359
0.150949
4.09962
68.7983
571.347
3136.09
6669.67
362.407
197.336
16.8925
50.2621
5.59388
4.28945e-06
2.819
4.28945e-06
2.40417
2.47357
4.28945e-06
2.71437
3.07951
3.06965
3.42014
10.589
70.2925
874.353
3748.42
5821.79
243.714
171.921
7.26144
56.5266
7.07978
4.28945e-06
4.28945e-06
4.28945e-06
4.28945e-06
4.28945e-06
4.28945e-06
4.28945e-06
4.28945e-06
4.28945e-06
4.28945e-06
14.3366
73.7516
599.76
103.089
4834.44
131.66
108.622
8.28412
128.608
9.10043
4.28945e-06
4.02196
4.28945e-06
3.29563
3.26788
4.28945e-06
2.81805
2.74266
2.7095
3.44007
12.3149
70.2499
338.654
38.6036
4443.19
124.649
63.2744
10.7137
442.673
15.8713
4.28945e-06
4.9277
4.28945e-06
4.76632
4.65904
4.28945e-06
4.27541
4.0648
3.77045
4.13304
11.4606
91.7989
821.286
38.9593
4314.38
173.048
72.5263
14.6193
856.173
42.3261
4.28945e-06
5.09581
4.28945e-06
4.89206
4.70287
4.28945e-06
4.23709
3.74449
2.55778
3.47521
11.8865
134.345
4051.94
46.3858
4037.73
199.057
150.803
12.4467
626.642
48.0507
4.28945e-06
5.0665
4.28945e-06
4.64515
4.32088
4.28945e-06
3.62656
2.34565
2.38899
3.48457
12.2505
178.059
7137.55
37.6945
3029.92
118.805
172.366
4.6455
357.96
57.4787
4.28945e-06
5.02627
4.28945e-06
3.02671
2.72653
4.28945e-06
2.31073
2.37427
3.0829
4.1434
12.3141
71.8726
136.177
2.81147
1722.6
38.2594
135.785
1.57988
369.907
56.7952
4.28945e-06
4.77762
4.28945e-06
3.86384
3.46466
4.28945e-06
2.82931
3.39529
4.21579
4.49373
10.2931
40.9976
2.29662
0.362623
518.686
11.6999
48.6081
0.193509
31.6102
29.1111
4.28945e-06
4.11339
4.28945e-06
4.33976
4.30697
4.28945e-06
4.02314
4.79198
5.41557
4.82827
10.7107
25.3621
0.48522
0.0252675
57.0545
4.92047
6.06523
0.0532694
10.3422
30.3697
4.28945e-06
4.28945e-06
4.28945e-06
4.28945e-06
4.28945e-06
4.28945e-06
4.28945e-06
4.28945e-06
4.28945e-06
4.28945e-06
19.2707
9.27202
0.135747
0.00762085
0.367667
1.77742
0.433199
0.00291267
1.43083
26.3439
0.000198149
0.000198149
0.000198149
0.000198149
0.000198149
0.000198149
0.000198149
0.000198149
0.000198149
0.000198149
19.1268
2.88633
0.0282584
0.00359171
0.02241
222.483
166.765
95.4592
20.6212
6.40502
1.86364
0.2774
0.858003
0.15469
0.0547288
0.199432
1.81037
3.45877
0.883319
4.18449
10.0697
73.1964
201.529
307.531
319.887
167.412
73.1756
51.7214
4.41832
13.3946
0.807597
0.0162054
0.00849497
0.00355864
0.000363089
0.00593046
0.113142
8.03712
2.07993
25.6698
3.26125
106.687
462.356
315.842
532.71
243.087
89.6392
76.7657
25.9432
0.269053
0.337455
0.00441168
0.000604902
0.000392514
0.000432191
0.000420004
0.00197785
0.0062905
0.00350436
0.0112608
1.39618
129.041
651.334
927.359
1360.39
301.639
146.116
123.537
27.9809
0.336968
0.0018602
0.000174606
0.000189175
0.00020962
0.000207407
0.000210147
0.000189203
0.000174004
0.000166149
0.000544929
0.813941
114.13
180.774
1161.24
1677.21
277.536
290.22
265.578
34.9764
0.34419
0.000969867
0.000220774
0.000195331
0.000204801
0.00022273
0.000207001
0.000233438
0.000236868
0.000197511
0.00072171
0.893261
83.3949
72.6926
1004.9
1147.14
269.853
604.145
655.759
54.567
0.295288
0.00057739
0.000208561
0.000193403
0.000210857
0.000213168
0.000205733
0.000210449
0.000201854
0.00019538
0.000621146
0.822887
69.6188
64.5459
564.361
1952.65
266.426
720.785
987.618
69.2299
0.449892
0.000760338
0.000337457
0.000296587
0.000350345
0.000379379
0.000323502
0.000370616
0.000346638
0.000297079
0.000781898
0.650828
65.552
72.1511
590.003
3773.72
272.63
402.87
850.978
66.4719
1.23628
0.00404836
0.00292143
0.00265217
0.00315416
0.00338759
0.00288322
0.00335109
0.00310121
0.00254394
0.00358653
1.28227
64.9504
133.992
955.627
4230.47
325.407
227.676
198.55
53.211
4.35774
0.144
0.109649
0.118709
0.156167
0.151151
0.143159
0.161783
0.157932
0.137835
0.143985
3.8993
63.6642
338.23
1544.65
4531.4
311.918
187.598
10.387
48.1686
12.7981
4.28945e-06
4.28945e-06
4.28945e-06
4.28945e-06
4.28945e-06
4.28945e-06
4.28945e-06
4.28945e-06
4.28945e-06
4.28945e-06
22.6755
65.5693
470.888
1535.63
3902.85
213.948
171.584
7.59479
53.1732
13.9798
4.28945e-06
4.28945e-06
4.28945e-06
4.28945e-06
4.28945e-06
4.28945e-06
4.28945e-06
4.28945e-06
4.28945e-06
4.28945e-06
21.7255
68.0026
337.984
45.7132
3156.69
126.202
103.028
7.44381
104.152
15.8168
4.28945e-06
4.28945e-06
4.28945e-06
4.28945e-06
4.28945e-06
4.28945e-06
4.28945e-06
4.28945e-06
4.28945e-06
4.28945e-06
20.707
65.2437
207.779
25.2496
2877.46
116.518
52.9924
8.09728
316.784
22.7455
4.28945e-06
4.28945e-06
4.28945e-06
4.28945e-06
4.28945e-06
4.28945e-06
4.28945e-06
4.28945e-06
4.28945e-06
4.28945e-06
20.0104
75.5181
495.501
24.2884
2734.47
142.46
54.2645
10.7586
570.766
42.417
4.28945e-06
4.28945e-06
4.28945e-06
4.28945e-06
4.28945e-06
4.28945e-06
4.28945e-06
4.28945e-06
4.28945e-06
4.28945e-06
19.2812
99.6757
2478.2
25.6672
2416.23
151.327
104.398
9.36533
448.452
48.8087
4.28945e-06
4.28945e-06
4.28945e-06
4.28945e-06
4.28945e-06
4.28945e-06
4.28945e-06
4.28945e-06
4.28945e-06
4.28945e-06
19.3842
118.976
4059.39
16.1489
1664.84
92.3743
121.828
3.50438
287.922
57.5139
4.28945e-06
4.28945e-06
4.28945e-06
4.28945e-06
4.28945e-06
4.28945e-06
4.28945e-06
4.28945e-06
4.28945e-06
4.28945e-06
21.8687
59.0348
36.19
1.15594
766.884
21.7369
87.5411
1.12511
254.506
55.6784
4.28945e-06
4.28945e-06
4.28945e-06
4.28945e-06
4.28945e-06
4.28945e-06
4.28945e-06
4.28945e-06
4.28945e-06
4.28945e-06
22.4448
36.5694
2.09635
0.129597
125.953
6.26411
19.3714
0.201136
29.3784
32.3432
4.28945e-06
4.28945e-06
4.28945e-06
4.28945e-06
4.28945e-06
4.28945e-06
4.28945e-06
4.28945e-06
4.28945e-06
4.28945e-06
22.7168
24.5232
0.506364
0.0320874
2.54227
2.88379
2.26728
0.0649981
11.6123
31.4878
4.28945e-06
4.28945e-06
4.28945e-06
4.28945e-06
4.28945e-06
4.28945e-06
4.28945e-06
4.28945e-06
4.28945e-06
4.28945e-06
21.1062
9.93507
0.139436
0.0150526
0.0401851
0.855652
0.207359
0.00363131
1.73784
27.1749
0.000198149
0.000198149
0.000198149
0.000198149
0.000198149
0.000198149
0.000198149
0.000198149
0.000198149
0.000198149
19.6609
3.40302
0.0223822
0.00715007
0.00689247
220.33
168.719
95.9181
20.9617
6.89955
1.86845
0.266889
0.863033
0.163589
0.0548088
0.255925
2.35516
2.98997
0.885172
4.24637
9.92251
70.1147
190.012
292.156
308.229
174.311
77.9826
51.041
4.61599
18.8979
0.913783
0.0155156
0.00752337
0.00297765
0.000342174
0.00521156
0.0970625
8.59
2.30025
29.4993
3.32847
77.5092
336.555
236.955
442.542
262.966
87.0607
71.6259
26.4933
0.254009
0.312979
0.00380979
0.000587882
0.00038499
0.000422081
0.000411167
0.00193274
0.00564261
0.00347223
0.010459
1.24513
92.1678
426.559
610.765
1011.21
326.415
122.862
108.967
27.9464
0.31806
0.00156705
0.000173005
0.000187608
0.000207263
0.000204819
0.000207725
0.000186872
0.000171777
0.000164886
0.000466951
0.661638
86.7592
134.497
736.908
1196.84
304.567
220.077
216.729
32.2852
0.33742
0.00090275
0.000218049
0.00019357
0.000202536
0.000219908
0.000204742
0.000230506
0.000233827
0.000195754
0.000627739
0.723799
66.547
69.9767
646.428
898.109
295.038
405.243
477.235
44.7525
0.290124
0.000501538
0.000204266
0.000190402
0.000206282
0.000207992
0.000201741
0.000205666
0.000197779
0.000192222
0.000548537
0.720193
59.2347
61.9811
390.032
1473.41
283.876
476.1
639.708
56.1876
0.419397
0.000650739
0.000303866
0.000269447
0.000312107
0.000335892
0.000290252
0.000328389
0.000309429
0.000269511
0.000695431
0.614334
57.7214
63.7083
383.747
2618.53
262.598
272.034
483.192
56.2479
1.0217
0.00360772
0.00270904
0.00246087
0.00291354
0.00312621
0.00266545
0.00309244
0.00286381
0.00234609
0.00331498
1.26297
58.634
99.9083
528.452
2966.01
275.181
184.546
78.7552
48.8318
4.10429
0.134854
0.104452
0.1125
0.148542
0.143898
0.135611
0.153421
0.150061
0.130566
0.135349
3.68815
60.0549
211.649
692.916
3182.31
270.795
175.592
9.07123
46.7878
19.3419
4.28945e-06
4.28945e-06
4.28945e-06
4.28945e-06
4.28945e-06
4.28945e-06
4.28945e-06
4.28945e-06
4.28945e-06
4.28945e-06
26.7592
62.6023
269.165
552.429
2690.81
192.603
167.056
8.1385
50.6692
20.1076
4.28945e-06
4.28945e-06
4.28945e-06
4.28945e-06
4.28945e-06
4.28945e-06
4.28945e-06
4.28945e-06
4.28945e-06
4.28945e-06
26
64.328
206.81
25.9957
2101.59
121.003
96.0456
6.94208
86.5191
21.6608
4.28945e-06
4.28945e-06
4.28945e-06
4.28945e-06
4.28945e-06
4.28945e-06
4.28945e-06
4.28945e-06
4.28945e-06
4.28945e-06
25.2905
62.3955
129.447
17.1255
1901.37
108.903
41.4976
6.68187
229.089
27.5682
4.28945e-06
4.28945e-06
4.28945e-06
4.28945e-06
4.28945e-06
4.28945e-06
4.28945e-06
4.28945e-06
4.28945e-06
4.28945e-06
24.9277
67.4489
262.417
14.8384
1758.81
124.996
38.2161
8.43097
392.335
41.6543
4.28945e-06
4.28945e-06
4.28945e-06
4.28945e-06
4.28945e-06
4.28945e-06
4.28945e-06
4.28945e-06
4.28945e-06
4.28945e-06
24.5785
80.6493
1309.6
13.4975
1437.28
111.543
64.9302
7.58232
336.638
48.2008
4.28945e-06
4.28945e-06
4.28945e-06
4.28945e-06
4.28945e-06
4.28945e-06
4.28945e-06
4.28945e-06
4.28945e-06
4.28945e-06
24.8638
88.7429
2122.77
6.65773
858.709
58.514
74.763
2.9648
236.034
55.4926
4.28945e-06
4.28945e-06
4.28945e-06
4.28945e-06
4.28945e-06
4.28945e-06
4.28945e-06
4.28945e-06
4.28945e-06
4.28945e-06
26.1549
53.215
15.4604
0.769135
253.416
12.2759
44.068
0.942369
183.276
52.3192
4.28945e-06
4.28945e-06
4.28945e-06
4.28945e-06
4.28945e-06
4.28945e-06
4.28945e-06
4.28945e-06
4.28945e-06
4.28945e-06
26.0805
34.7591
1.94187
0.170373
13.1265
4.50111
5.65015
0.233749
28.2664
34.1994
4.28945e-06
4.28945e-06
4.28945e-06
4.28945e-06
4.28945e-06
4.28945e-06
4.28945e-06
4.28945e-06
4.28945e-06
4.28945e-06
25.028
24.2666
0.524174
0.0680019
0.162395
2.62056
0.6637
0.0785822
12.7353
32.2893
4.28945e-06
4.28945e-06
4.28945e-06
4.28945e-06
4.28945e-06
4.28945e-06
4.28945e-06
4.28945e-06
4.28945e-06
4.28945e-06
22.2677
10.5825
0.14689
0.035575
0.0290042
0.741277
0.0654347
0.00485661
2.01924
28.166
0.000198149
0.000198149
0.000198149
0.000198149
0.000198149
0.000198149
0.000198149
0.000198149
0.000198149
0.000198149
20.2352
3.82666
0.0214448
0.0195284
0.00512022
218.391
170.996
96.5439
21.4934
7.3689
1.86864
0.261129
0.800307
0.164859
0.0511017
0.313876
3.35191
2.84908
0.885684
4.28037
9.78654
68.0073
180.383
279.939
298.567
181.968
85.3424
51.4315
5.06491
24.9339
1.03855
0.0148343
0.00569944
0.00239649
0.000317708
0.00404884
0.0828115
9.21561
2.61142
33.2469
3.35441
62.0419
253.158
181.86
367.419
284.701
88.4886
67.9329
27.1552
0.237346
0.283924
0.00329075
0.000555813
0.000369259
0.00040162
0.000393069
0.00185443
0.0052238
0.00323374
0.00946413
1.12726
71.3289
295.049
401.21
768.289
353.389
106.389