/*--------------------------------*- C++ -*----------------------------------*\
| =========                 |                                                 |
| \\      /  F ield         | OpenFOAM: The Open Source CFD Toolbox           |
|  \\    /   O peration     | Version:  2.3.0                                 |
|   \\  /    A nd           | Web:      www.OpenFOAM.org                      |
|    \\/     M anipulation  |                                                 |
\*---------------------------------------------------------------------------*/
FoamFile
{
    version     2.0;
    format      ascii;
    class       volScalarField;
    location    "4.00001";
    object      k.air;
}
// * * * * * * * * * * * * * * * * * * * * * * * * * * * * * * * * * * * * * //

dimensions      [0 2 -2 0 0 0 0];

internalField   nonuniform List<scalar> 
10000
(
1.01828
0.674598
0.431182
0.183441
0.0259582
0.00930418
0.00198322
0.00423492
0.0023754
0.00142193
0.00039529
0.00298653
0.00255346
0.00443257
0.0155431
0.064482
0.44465
0.816516
1.064
1.09341
0.927375
0.352702
0.331156
0.194297
0.00127616
0.000401943
0.000156139
0.000415177
0.000233538
7.27439e-05
0.000354018
0.00127734
0.00142643
0.000107401
0.00129772
0.0110149
3.16554
3.39221
1.63708
2.00746
0.96419
0.422278
0.420121
0.194884
0.00505307
0.00855937
0.00036266
0.000110853
8.14475e-05
8.93834e-05
8.59448e-05
0.000201702
0.00012874
0.000100906
0.000168889
0.0196945
3.1958
12.039
4.35129
6.96181
1.02951
0.889484
0.587774
0.40759
0.00599544
0.00012687
4.49125e-05
4.71776e-05
5.17339e-05
5.20878e-05
5.19064e-05
4.8821e-05
4.53464e-05
4.27589e-05
6.62338e-05
0.0137492
1.41303
2.61544
5.52739
22.7463
0.725137
3.06688
1.28982
1.83825
0.00608565
6.72063e-05
5.37578e-05
4.85201e-05
5.09477e-05
5.43537e-05
5.11327e-05
5.58875e-05
5.65007e-05
4.88258e-05
7.99568e-05
0.0189322
1.20309
0.334419
5.068
4.31145
0.678684
11.855
3.83925
0.948194
0.00504106
5.66856e-05
5.12484e-05
4.77672e-05
5.12991e-05
5.20688e-05
5.03165e-05
5.13723e-05
4.95932e-05
4.8231e-05
6.8019e-05
0.0179347
0.87154
0.289012
2.87404
8.02021
0.774025
7.17567
13.1359
0.740141
0.0085434
7.44827e-05
6.13192e-05
5.54508e-05
6.14503e-05
6.48561e-05
5.82285e-05
6.35818e-05
6.12585e-05
5.686e-05
7.91038e-05
0.0191934
0.950056
0.42677
3.5753
28.4972
2.07803
4.02339
13.9917
0.701223
0.024014
0.000244522
0.000207582
0.000180165
0.000224988
0.00024174
0.000198259
0.000237361
0.00022034
0.000190923
0.000238199
0.0298838
1.06696
1.83305
18.3401
28.8002
4.10877
0.824599
12.6816
0.441388
0.0438741
0.00840013
0.00845566
0.00697363
0.011144
0.0110801
0.00836547
0.0114151
0.0109448
0.00970945
0.0104803
0.053698
0.382364
12.1307
13.3659
31.4723
2.42176
0.0363908
6.55859
0.311193
0.0335214
0.0651329
0.0759719
0.0584717
0.0744124
0.0750309
0.0594914
0.0744882
0.0757851
0.0747861
0.078588
0.0616405
0.291573
5.94595
47.0363
29.0968
1.28038
0.215674
0.0557399
0.369039
0.0603313
0.081915
0.0877931
0.0852002
0.0891787
0.0891742
0.084761
0.0902618
0.0980191
0.0983978
0.0936144
0.0872283
0.306754
6.07463
20.9582
26.3948
0.556137
0.502924
0.0780136
0.727133
0.0783875
0.0747394
0.0819829
0.0857836
0.0900457
0.0899194
0.0809259
0.0959058
0.101157
0.103589
0.101834
0.107429
0.535545
1.81736
0.430852
25.0863
0.512274
0.576694
0.148092
3.84476
0.0939551
0.0842936
0.0954915
0.0823863
0.110569
0.109266
0.0509617
0.114949
0.119913
0.120892
0.128584
0.0930557
1.94863
2.76865
0.441486
26.1913
0.946161
2.66515
0.178856
7.84473
0.215588
0.0859852
0.099587
0.0821427
0.1164
0.11515
0.0865672
0.118751
0.123045
0.11708
0.104452
0.0945542
2.17973
11.9931
0.657229
27.4419
1.15062
1.86963
0.145056
6.57161
0.233502
0.0860375
0.10115
0.0845882
0.126183
0.123105
0.0926808
0.120871
0.104376
0.102564
0.0995979
0.0855389
2.8402
37.6564
0.72906
25.4308
0.564028
2.21411
0.0701995
1.8845
0.255858
0.0910191
0.101149
0.0792267
0.094719
0.0968318
0.0950492
0.0995478
0.100674
0.0993702
0.0982326
0.0825074
1.93316
12.4477
0.192271
21.4115
0.670197
0.692885
0.0545189
4.88527
0.189971
0.0978574
0.0976204
0.0812214
0.082381
0.0888548
0.0886436
0.0959857
0.0971554
0.0948707
0.0982488
0.104438
1.21151
0.0633941
0.06687
13.379
2.4647
0.711769
0.00664403
0.431289
0.14993
0.0883675
0.0885911
0.0796811
0.0854038
0.0983925
0.0853494
0.110736
0.11826
0.10125
0.101588
0.13635
0.235107
0.00480963
0.0289461
7.21881
0.79249
1.52195
0.00304015
0.0286102
0.145783
0.0854593
0.0798799
0.0808064
0.0837209
0.0804506
0.0809793
0.0816924
0.0854013
0.0932075
0.0977824
0.119319
0.0679999
0.00513843
0.0026327
1.73198
0.0796475
0.164319
0.000398812
0.00072985
0.0232345
0.0435868
0.0540785
0.0685232
0.0553874
0.0522088
0.057165
0.0522384
0.0317391
0.0124865
0.00880587
0.00900504
0.00953413
0.00855421
0.000416676
0.173027
1.0002
0.679866
0.433989
0.16805
0.0264731
0.00909498
0.00188366
0.00321299
0.00160668
0.000932732
0.000237039
0.00231669
0.00346846
0.00428622
0.0153333
0.0645421
0.420439
0.802811
1.05596
1.08669
0.909641
0.366178
0.331465
0.202723
0.00120206
0.000396712
0.000147065
0.000419946
0.000237433
7.1209e-05
0.000358455
0.00094531
0.00228563
0.000141632
0.0013173
0.00770435
2.16485
2.96886
1.55499
1.9266
0.988283
0.430844
0.422804
0.202708
0.00489539
0.00854196
0.000349211
0.000109762
8.07902e-05
8.81667e-05
8.50217e-05
0.000208411
0.00013704
0.000103884
0.000178561
0.0192862
2.19869
7.85421
4.16
6.10398
1.06351
0.845752
0.588223
0.287407
0.00602031
0.000118905
4.41855e-05
4.67282e-05
5.11112e-05
5.12427e-05
5.12634e-05
4.78547e-05
4.45272e-05
4.22102e-05
6.33701e-05
0.0135264
1.14557
2.29524
5.26849
14.2686
0.784065
2.52995
1.25153
0.883399
0.00573362
6.50889e-05
5.30166e-05
4.8004e-05
5.02587e-05
5.3638e-05
5.05194e-05
5.52634e-05
5.58735e-05
4.82961e-05
7.80727e-05
0.0176882
0.927507
0.345206
4.83862
4.13008
0.742875
7.66166
3.49533
0.731393
0.00483991
5.46913e-05
5.03699e-05
4.71666e-05
5.0485e-05
5.10969e-05
4.95603e-05
5.04881e-05
4.88069e-05
4.7586e-05
6.45509e-05
0.0166
0.677137
0.310837
2.73825
7.24556
0.806934
5.52477
9.13958
0.625288
0.0080636
6.94939e-05
5.79571e-05
5.28661e-05
5.75965e-05
6.04672e-05
5.50254e-05
5.93394e-05
5.75011e-05
5.39359e-05
7.17664e-05
0.015624
0.686587
0.405567
2.84967
20.4333
1.50553
3.27382
9.52725
0.54623
0.0233832
0.000216704
0.000180271
0.000161576
0.000195134
0.000208547
0.000176507
0.000205773
0.000192099
0.000167813
0.000203015
0.0244704
0.724992
1.15844
7.04263
20.9687
2.92647
0.984718
7.89565
0.407071
0.0502941
0.00725973
0.00707297
0.00616066
0.00967403
0.009584
0.00749792
0.00990714
0.00954986
0.0084597
0.0087935
0.0553008
0.384292
5.46517
11.5284
22.6767
1.79827
0.246127
2.41882
0.316401
0.0453487
0.0672419
0.0769545
0.0617083
0.0757641
0.0762543
0.0626179
0.0755896
0.0767327
0.0760548
0.0789505
0.0649866
0.320896
5.32016
29.1854
20.8655
1.21698
0.371425
0.0510063
0.375112
0.0689913
0.0833227
0.0886006
0.0856548
0.0896829
0.0896838
0.0852314
0.0907409
0.0963264
0.0968063
0.0943887
0.0929728
0.330339
5.21602
8.38817
18.7942
0.564524
0.530258
0.0779566
0.691611
0.0716467
0.0763889
0.0833926
0.0864325
0.0909004
0.0907768
0.0817213
0.0964849
0.101654
0.104053
0.102505
0.10416
0.450915
1.70756
0.317206
17.8136
0.517424
0.442172
0.131601
2.51104
0.0969434
0.0779375
0.0853158
0.0834015
0.103651
0.102615
0.0548122
0.110158
0.116341
0.117686
0.121503
0.0887895
1.22814
2.61108
0.341127
18.3109
0.889616
1.07193
0.154787
5.70288
0.19484
0.0821768
0.0895696
0.0833283
0.11018
0.109503
0.0848483
0.114646
0.119896
0.1132
0.105067
0.0861481
1.44295
10.9176
0.493866
18.8868
1.09156
1.29552
0.128833
4.58505
0.22634
0.0864141
0.0914552
0.0857298
0.120575
0.118381
0.0915182
0.117591
0.104769
0.103033
0.100552
0.0807809
1.94616
27.0549
0.518712
17.1044
0.539192
1.35535
0.0549753
1.74457
0.249712
0.0879502
0.091494
0.0804436
0.0956747
0.0975362
0.0941254
0.100004
0.101179
0.100182
0.0995282
0.0850504
1.18586
6.61787
0.117018
13.9029
0.51866
0.669266
0.0339151
3.29491
0.194498
0.0924883
0.0886216
0.0769819
0.0837036
0.089844
0.0891048
0.0965835
0.0979109
0.0960852
0.0996542
0.099964
0.745311
0.0411803
0.0419358
8.27007
1.24748
0.568111
0.00421774
0.343719
0.151383
0.0894457
0.0818052
0.0755408
0.0782408
0.0914718
0.0858662
0.105706
0.111266
0.101828
0.103129
0.125712
0.225258
0.00582588
0.0162276
4.09685
0.304856
0.853353
0.00177065
0.0714755
0.150808
0.0869445
0.0760976
0.0769741
0.0791026
0.0815925
0.0815865
0.0825702
0.0870857
0.0965185
0.102948
0.126591
0.0833327
0.00574143
0.00168405
1.00623
0.00687417
0.0558001
0.000360303
0.00103056
0.0365158
0.0477467
0.0557491
0.0645103
0.057531
0.0547089
0.0586327
0.05456
0.0383335
0.0249428
0.022093
0.0220874
0.0388783
0.00820567
0.000380164
0.101988
0.984784
0.678561
0.431234
0.157307
0.0266792
0.00899824
0.00184657
0.00296017
0.00143322
0.000798212
0.000179093
0.00194259
0.00403903
0.00417381
0.0151447
0.0643955
0.396618
0.776426
1.01731
1.06815
0.909722
0.384493
0.332383
0.213454
0.00123897
0.000399101
0.000143343
0.000416386
0.00023764
6.9527e-05
0.000352273
0.000848974
0.00262529
0.000199316
0.00161158
0.00674206
1.49257
2.48915
1.42714
1.81435
1.03059
0.441683
0.426437
0.216381
0.00480478
0.00845863
0.00033639
0.000106854
7.88314e-05
8.58065e-05
8.29391e-05
0.000210297
0.000140048
0.000104959
0.000180422
0.0182914
1.54343
5.28198
3.81473
5.16766
1.1225
0.791965
0.587762
0.236739
0.00593011
0.000115295
4.36071e-05
4.61383e-05
5.02395e-05
5.02348e-05
5.03727e-05
4.69865e-05
4.38669e-05
4.17855e-05
6.15111e-05
0.0125807
0.937137
1.78357
4.79802
9.30709
0.869843
1.9799
1.19243
0.450092
0.00557303
6.40249e-05
5.21079e-05
4.73318e-05
4.9404e-05
5.26274e-05
4.96796e-05
5.42628e-05
5.48432e-05
4.76281e-05
7.55924e-05
0.0159314
0.748102
0.358235
4.40435
3.81412
0.827245
4.99456
3.06692
0.56059
0.00466009
5.38252e-05
4.95286e-05
4.65401e-05
4.96731e-05
5.01853e-05
4.87922e-05
4.96448e-05
4.80759e-05
4.694e-05
6.30487e-05
0.0150117
0.568631
0.331742
2.51365
6.29262
0.853014
4.29042
6.48866
0.539257
0.00771021
6.75884e-05
5.66215e-05
5.18293e-05
5.61124e-05
5.8772e-05
5.37568e-05
5.77093e-05
5.60458e-05
5.27766e-05
6.89427e-05
0.0131478
0.552493
0.392348
2.5072
14.9607
1.27101
2.63397
6.59676
0.466012
0.0228056
0.000205732
0.000170218
0.000154533
0.000183788
0.000195854
0.00016814
0.000193704
0.000181343
0.000159086
0.000189786
0.0212248
0.561611
0.868882
4.17576
15.5602
2.12097
0.990415
4.80871
0.374844
0.0549937
0.00652419
0.00616167
0.00562409
0.00845506
0.00831372
0.00682176
0.00868823
0.00843545
0.00755073
0.00767605
0.0559529
0.39418
3.12656
9.2321
16.6743
1.46395
0.435012
0.798156
0.3282
0.0615846
0.0703893
0.0788092
0.0647943
0.0776547
0.0780675
0.0656513
0.0774278
0.0785686
0.0781451
0.0806278
0.0752931
0.353913
4.32062
17.8285
15.2549
1.1242
0.502646
0.0509937
0.384649
0.082909
0.0857683
0.0900023
0.0864486
0.0905651
0.0905765
0.086054
0.0915884
0.0958295
0.0963651
0.095754
0.102896
0.358016
3.90422
3.02626
13.6249
0.575061
0.560223
0.0750719
0.65835
0.0791725
0.0793595
0.0860025
0.0875597
0.0925092
0.092384
0.0830977
0.0975722
0.10258
0.104915
0.103784
0.104805
0.401108
1.5097
0.225885
12.8803
0.522532
0.402745
0.112108
2.01694
0.104525
0.0759695
0.0815135
0.0851876
0.100199
0.0993119
0.0581855
0.107614
0.114385
0.11589
0.117187
0.0938886
0.813502
2.34535
0.241272
13.0357
0.799466
0.537795
0.129288
4.23663
0.184081
0.0814814
0.08564
0.085432
0.106971
0.106579
0.084631
0.112428
0.118149
0.110859
0.106227
0.0931729
1.00675
9.45822
0.330794
13.2057
0.990091
0.927094
0.109904
3.32387
0.223675
0.0874262
0.087521
0.087724
0.117473
0.115782
0.0913757
0.115782
0.105496
0.103891
0.10227
0.0900151
1.34788
19.5534
0.332119
11.6428
0.512939
0.957528
0.0434651
1.57694
0.252182
0.0875674
0.0875551
0.0826479
0.0973617
0.0988249
0.0939824
0.100843
0.102091
0.101641
0.101857
0.0947849
0.747626
3.49255
0.0647556
9.09486
0.384381
0.636567
0.0185637
2.3029
0.198183
0.0909295
0.0850262
0.0760934
0.0862672
0.0917072
0.0899115
0.0977047
0.0993364
0.0982801
0.1022
0.102864
0.455169
0.0330589
0.023996
5.15454
0.546236
0.488891
0.00287073
0.268157
0.157532
0.0913102
0.0792815
0.074662
0.0759466
0.0883949
0.0867876
0.103093
0.107647
0.10299
0.105879
0.125146
0.228331
0.00646397
0.00824382
2.40883
0.0881728
0.479668
0.00114795
0.119665
0.158825
0.0894745
0.0753348
0.0760194
0.0780919
0.0835718
0.0826375
0.0840867
0.0898877
0.101413
0.110087
0.136961
0.0990718
0.00554998
0.00101645
0.707912
0.00153567
0.0113713
0.000341703
0.00309689
0.0559523
0.0548279
0.0587016
0.0638782
0.0612948
0.059034
0.061181
0.0585734
0.0487469
0.0417355
0.0416692
0.0422494
0.0500554
0.00709697
0.000383639
0.0247021
0.980942
0.68567
0.434467
0.148129
0.0268378
0.00884
0.00175977
0.00283989
0.00135724
0.000725499
0.000113684
0.00138982
0.00402663
0.00402402
0.0149544
0.0643097
0.384557
0.761323
0.997259
1.06318
0.921621
0.404906
0.334745
0.206944
0.00169327
0.000406918
0.000135775
0.000404302
0.000233273
6.83478e-05
0.00033895
0.000759896
0.00276234
0.000229175
0.00175764
0.00616396
1.03832
2.05318
1.2791
1.6969
1.08491
0.451839
0.42931
0.231639
0.00464984
0.00835386
0.000318677
0.000105682
7.80975e-05
8.48187e-05
8.21108e-05
0.000213588
0.000141306
0.000106244
0.000181009
0.0177345
1.11368
3.65503
3.35533
4.34671
1.19611
0.740829
0.584533
0.235714
0.00576866
0.000108347
4.32499e-05
4.58799e-05
4.9867e-05
4.97812e-05
4.99871e-05
4.65246e-05
4.34534e-05
4.14835e-05
5.93922e-05
0.0116287
0.783672
1.27085
4.16981
6.40956
0.965068
1.55449
1.12151
0.308635
0.00543349
6.19652e-05
5.16944e-05
4.7038e-05
4.90241e-05
5.21968e-05
4.93179e-05
5.38494e-05
5.4417e-05
4.73349e-05
7.36503e-05
0.0141616
0.627491
0.372712
3.81636
3.46544
0.914772
3.38368
2.63999
0.444602
0.00448774
5.23904e-05
4.91125e-05
4.62446e-05
4.92811e-05
4.97373e-05
4.84254e-05
4.92319e-05
4.77133e-05
4.66285e-05
6.05883e-05
0.0133004
0.505494
0.350094
2.23444
5.41005
0.909846
3.36431
4.70129
0.470859
0.00735538
6.45935e-05
5.46437e-05
5.02624e-05
5.3884e-05
5.62482e-05
5.18314e-05
5.5255e-05
5.38491e-05
5.10342e-05
6.451e-05
0.0111674
0.48513
0.382459
2.21372
11.2
1.12358
2.12054
4.64022
0.416761
0.0219339
0.000188322
0.00015696
0.000144282
0.000168852
0.000179338
0.000156149
0.000177722
0.000166835
0.000146888
0.000171844
0.0191032
0.486513
0.710351
3.25498
11.7954
1.61969
0.943445
2.85237
0.357748
0.0577362
0.00563702
0.0051644
0.00498315
0.007233
0.00707384
0.00607754
0.00746704
0.00726389
0.00649964
0.00640167
0.0556621
0.406989
2.15025
7.00149
12.5287
1.29001
0.561352
0.260864
0.343826
0.0784494
0.0738176
0.0811558
0.0674644
0.0798226
0.0801989
0.0683139
0.079688
0.0809502
0.0807183
0.0830983
0.0880773
0.385653
3.22436
10.6819
11.3907
1.04156
0.602117
0.0528527
0.395856
0.0977734
0.0885205
0.0915879
0.0873537
0.0915772
0.091601
0.0869939
0.0925667
0.0961001
0.0966578
0.0973297
0.114676
0.387951
2.64017
1.03622
10.0817
0.584974
0.58188
0.072142
0.626304
0.0914238
0.0828576
0.0893355
0.0888396
0.0945572
0.0944283
0.0846546
0.0989706
0.103766
0.106017
0.105444
0.110843
0.399025
1.25552
0.162486
9.49609
0.524598
0.376997
0.0930076
1.70493
0.113707
0.0768512
0.0816337
0.0872369
0.0991996
0.0983892
0.0615302
0.106727
0.113656
0.115195
0.115074
0.102509
0.597985
2.01077
0.167379
9.4611
0.702408
0.391249
0.106167
3.21244
0.180398
0.0826073
0.0855307
0.0878698
0.105931
0.105639
0.0853312
0.111633
0.117486
0.109739
0.107731
0.103403
0.749268
7.88606
0.21181
9.36908
0.857308
0.706774
0.0893373
2.51676
0.225377
0.0890184
0.0872513
0.0900136
0.116245
0.114784
0.0918685
0.115103
0.106422
0.104972
0.104405
0.101247
0.948583
14.1301
0.201033
8.00254
0.506158
0.754142
0.0339225
1.41847
0.25858
0.0887538
0.0872597
0.0852126
0.0994436
0.100429
0.0943257
0.101904
0.103233
0.103458
0.104748
0.106535
0.53744
1.76376
0.0327472
5.96469
0.281117
0.594802
0.0126638
1.67902
0.203616
0.091641
0.084901
0.0771522
0.0895788
0.0941166
0.0908324
0.0991456
0.101173
0.101028
0.105395
0.109652
0.358029
0.0319866
0.0118098
3.18445
0.184919
0.406578
0.00247034
0.259069
0.164241
0.0934049
0.0795528
0.0757059
0.0767072
0.087948
0.0878535
0.102245
0.106407
0.104636
0.109194
0.129113
0.253175
0.00715841
0.00363923
1.40699
0.0206356
0.227705
0.0010447
0.167533
0.167652
0.0922862
0.0763155
0.0767989
0.079183
0.085805
0.0838242
0.085797
0.09296
0.106454
0.11715
0.147198
0.122676
0.00510447
0.000520219
0.293186
0.00139089
0.00232742
0.000347059
0.00933652
0.0750006
0.0627596
0.0621912
0.0652049
0.0656159
0.0639403
0.0640814
0.0631313
0.0598189
0.0577582
0.0597378
0.0628598
0.0628587
0.00574142
0.000484772
0.00185874
0.975098
0.692916
0.437739
0.140519
0.0269093
0.00872684
0.0017166
0.00280606
0.00133915
0.000696563
8.31417e-05
0.00109982
0.00316486
0.00395488
0.0147379
0.0641706
0.374386
0.742703
0.974946
1.05612
0.940709
0.426505
0.338707
0.0804197
0.00241632
0.00041766
0.000131196
0.00038642
0.00022625
6.60762e-05
0.000319296
0.000717853
0.00285351
0.000287038
0.00203076
0.00568138
0.740436
1.68719
1.12803
1.58957
1.14594
0.461069
0.430478
0.245454
0.00425783
0.00821285
0.000299439
0.000102884
7.63525e-05
8.2488e-05
8.01694e-05
0.000214799
0.000140672
0.000107133
0.000178117
0.0171587
0.827939
2.59976
2.83017
3.66167
1.27614
0.694472
0.577184
0.245741
0.0055213
0.000104512
4.26757e-05
4.53206e-05
4.9053e-05
4.88458e-05
4.9154e-05
4.56584e-05
4.27364e-05
4.10381e-05
5.70331e-05
0.0105573
0.668841
0.910085
3.45476
4.70101
1.06301
1.26335
1.04395
0.27241
0.00526973
6.07793e-05
5.08067e-05
4.64132e-05
4.82235e-05
5.12637e-05
4.85432e-05
5.29236e-05
5.34691e-05
4.67152e-05
6.98784e-05
0.0123276
0.541044
0.388854
3.14983
3.10627
1.00136
2.44342
2.24303
0.370705
0.00434411
5.16932e-05
4.82637e-05
4.56343e-05
4.84707e-05
4.88259e-05
4.76687e-05
4.83866e-05
4.69727e-05
4.59874e-05
5.85452e-05
0.011715
0.464289
0.365299
1.92405
4.64306
0.973725
2.64035
3.47331
0.416199
0.00701142
6.3129e-05
5.3543e-05
4.94097e-05
5.2739e-05
5.49348e-05
5.08112e-05
5.40057e-05
5.2719e-05
5.00974e-05
6.23367e-05
0.00968971
0.448666
0.375902
1.90318
8.56922
1.05712
1.70033
3.29235
0.384484
0.0209161
0.000179678
0.00015057
0.000139293
0.000161541
0.000171235
0.000150252
0.000169878
0.000159748
0.000140959
0.000163233
0.0177731
0.451222
0.592333
2.6298
9.12364
1.33546
0.875939
1.62151
0.352568
0.058829
0.00487546
0.00429199
0.00442512
0.00609729
0.00593412
0.00538451
0.00631886
0.00615655
0.00552864
0.0052694
0.0538994
0.420576
1.54473
5.03021
9.61975
1.19404
0.643445
0.111669
0.361375
0.0905455
0.0763691
0.0834632
0.0692041
0.0818616
0.0822299
0.0700672
0.081892
0.0833356
0.083226
0.0856511
0.0999067
0.4158
2.251
6.22523
8.68195
0.979846
0.673801
0.05604
0.40753
0.109085
0.0905725
0.0927787
0.0880317
0.0923433
0.0923764
0.0876995
0.0933101
0.0965942
0.097158
0.0985275
0.123981
0.41861
1.73437
0.38609
7.59836
0.5926
0.590377
0.0691803
0.597826
0.10159
0.0855519
0.0926401
0.0897945
0.0965807
0.0964487
0.0858142
0.10036
0.10494
0.107106
0.107097
0.119586
0.418252
0.988107
0.12293
7.11835
0.522156
0.349461
0.0767477
1.44578
0.120818
0.0785636
0.0836345
0.0887832
0.0996455
0.0988749
0.063938
0.106879
0.113714
0.115226
0.114469
0.112015
0.509836
1.63889
0.12219
6.98492
0.618397
0.331317
0.0870375
2.48304
0.18082
0.0841038
0.0873168
0.0897325
0.106198
0.105908
0.086192
0.111742
0.117536
0.109432
0.109244
0.113424
0.610789
6.31409
0.140924
6.71535
0.724791
0.563778
0.0717692
1.99512
0.228087
0.0905036
0.0888349
0.091745
0.116223
0.11482
0.092471
0.115166
0.107331
0.106028
0.106468
0.111595
0.711967
10.1077
0.117777
5.51988
0.487239
0.625122
0.0261722
1.27911
0.264412
0.0901917
0.0888157
0.0871657
0.101455
0.101988
0.0947582
0.102945
0.104343
0.10522
0.107545
0.117534
0.470562
0.749445
0.0161776
3.87639
0.206603
0.525581
0.00997972
1.28353
0.209007
0.092901
0.0865348
0.0786286
0.0928854
0.0965266
0.0915229
0.100582
0.103003
0.103731
0.108501
0.117345
0.35415
0.0331411
0.00497807
1.86447
0.073414
0.294781
0.00273722
0.285775
0.168931
0.0949575
0.0812143
0.077177
0.0788877
0.08893
0.0886601
0.102477
0.106586
0.106434
0.112295
0.134448
0.284705
0.00801528
0.00141222
0.581952
0.0171016
0.074554
0.00148919
0.209547
0.174179
0.0943348
0.0776578
0.078006
0.0807299
0.0874606
0.0847027
0.0870651
0.0951819
0.109948
0.121925
0.154225
0.149845
0.00449653
0.000802468
0.0292002
0.00260286
0.00479384
0.000380682
0.0195486
0.0889425
0.0687331
0.0649877
0.0668931
0.0688824
0.0676333
0.0662617
0.0665671
0.0680482
0.0696759
0.073271
0.0790744
0.0764458
0.00407215
0.000716227
0.00159646
0.970644
0.701641
0.441758
0.138709
0.0267937
0.00857521
0.0016331
0.00285618
0.00137743
0.00069117
7.03801e-05
0.00105137
0.00315812
0.00387702
0.0145476
0.0640267
0.367895
0.724686
0.95683
1.05162
0.963908
0.449306
0.344207
0.0477706
0.00267496
0.000422776
0.000123305
0.00036319
0.00021661
6.46923e-05
0.000297433
0.000665073
0.00327127
0.000320263
0.00221483
0.00539627
0.562473
1.39878
0.986314
1.50434
1.20985
0.470616
0.429879
0.256623
0.00388941
0.00802199
0.000280661
0.0001015
7.55127e-05
8.13472e-05
7.92242e-05
0.000215392
0.00013713
0.000107509
0.00017241
0.0166319
0.643704
1.90869
2.29548
3.08464
1.35699
0.651767
0.565096
0.257615
0.00521497
9.82485e-05
4.2392e-05
4.50532e-05
4.8666e-05
4.83991e-05
4.87552e-05
4.52372e-05
4.23339e-05
4.07963e-05
5.52698e-05
0.00951455
0.577819
0.712032
2.73789
3.65746
1.15952
1.07097
0.963382
0.267512
0.00507603
5.90536e-05
5.03795e-05
4.61156e-05
4.78421e-05
5.08202e-05
4.81742e-05
5.2483e-05
5.3015e-05
4.64205e-05
6.77156e-05
0.0107431
0.479271
0.407119
2.49192
2.75782
1.09036
1.85822
1.8888
0.32622
0.00421211
5.06021e-05
4.78549e-05
4.53427e-05
4.80817e-05
4.83898e-05
4.73069e-05
4.79817e-05
4.66177e-05
4.56801e-05
5.68048e-05
0.0104074
0.43521
0.377345
1.60489
3.994
1.04025
2.0714
2.60825
0.376864
0.00665057
6.06294e-05
5.18781e-05
4.80736e-05
5.08693e-05
5.28295e-05
4.91799e-05
5.1945e-05
5.0871e-05
4.86303e-05
5.88084e-05
0.00865993
0.42691
0.37235
1.57842
6.69706
1.03871
1.3565
2.3351
0.36633
0.0193434
0.000166261
0.000142527
0.000132138
0.000152183
0.000160951
0.000141894
0.000159804
0.000150584
0.000133046
0.00015239
0.0168473
0.434494
0.508018
2.10713
7.19476
1.18607
0.812431
0.862875
0.353817
0.0588895
0.00436944
0.00373458
0.00404272
0.00535317
0.00518697
0.00491323
0.00554843
0.00541737
0.00486886
0.00453133
0.0508823
0.433609
1.12449
3.33983
7.54864
1.13234
0.693061
0.0754799
0.378614
0.0925259
1.6859e-05
0.0847552
1.6859e-05
0.0829735
0.0833559
1.6859e-05
0.0831335
0.0846852
0.0845958
0.0870948
0.10739
0.443728
1.53216
3.48437
6.74868
0.934277
0.719868
0.0612543
0.418602
0.121278
1.6859e-05
1.6859e-05
1.6859e-05
1.6859e-05
1.6859e-05
1.6859e-05
1.6859e-05
1.6859e-05
1.6859e-05
1.6859e-05
0.254359
0.447234
1.18536
0.187563
5.81583
0.596665
0.586266
0.0658466
0.574643
0.15109
1.6859e-05
0.0949582
1.6859e-05
0.0979847
0.0978537
1.6859e-05
0.101324
0.105745
0.107849
0.108219
0.126956
0.443521
0.755491
0.0999527
5.41291
0.513157
0.319849
0.0652546
1.22624
0.224472
1.6859e-05
0.0856668
1.6859e-05
0.100484
0.0997433
1.6859e-05
0.107392
0.114051
0.115534
0.114588
0.119288
0.486083
1.25985
0.0977567
5.22759
0.551684
0.289453
0.0725312
1.9583
0.492651
1.6859e-05
0.0892185
1.6859e-05
0.106855
0.106539
1.6859e-05
0.112162
0.117862
0.109486
0.110291
0.12068
0.550005
4.79973
0.103875
4.83758
0.61033
0.454452
0.0589314
1.65581
0.562673
1.6859e-05
0.0905793
1.6859e-05
0.116688
0.115261
1.6859e-05
0.115526
0.107937
0.106734
0.107843
0.118839
0.598305
7.07452
0.0724797
3.78328
0.429819
0.516112
0.0211434
1.15881
0.592266
1.6859e-05
0.0905482
1.6859e-05
0.102813
0.103042
1.6859e-05
0.10365
0.105089
0.106406
0.109415
0.125408
0.46556
0.265005
0.0102634
2.42665
0.148004
0.429314
0.00871685
1.02596
0.537932
1.6859e-05
0.0883027
1.6859e-05
0.095205
0.0982153
1.6859e-05
0.101576
0.104264
0.105578
0.110586
0.12319
0.376078
0.0339117
0.00270256
0.881547
0.0553349
0.17513
0.0035605
0.319433
0.615089
1.6859e-05
0.0828716
1.6859e-05
0.0809032
0.0901331
1.6859e-05
0.103061
0.10723
0.107806
0.114309
0.138715
0.31589
0.00891278
0.0014119
0.116905
0.0296933
0.0375398
0.00236809
0.245824
0.669069
1.6859e-05
1.6859e-05
1.6859e-05
1.6859e-05
1.6859e-05
1.6859e-05
1.6859e-05
1.6859e-05
1.6859e-05
1.6859e-05
0.50098
0.176562
0.00392153
0.00125122
0.00428914
0.0128637
0.00918363
0.000412393
0.0341346
0.582536
9.60295e-05
9.60295e-05
9.60295e-05
9.60295e-05
9.60295e-05
9.60295e-05
9.60295e-05
9.60295e-05
9.60295e-05
9.60295e-05
0.501212
0.0906671
0.00215188
0.000842467
0.00305273
0.965473
0.710381
0.445782
0.13971
0.0264899
0.00845392
0.00159245
0.00307578
0.00138655
0.000714491
6.5177e-05
0.00114851
0.00398982
0.00382377
0.0143603
0.0638552
0.364282
0.707691
0.939224
1.04625
0.989262
0.473934
0.351292
0.0469978
0.00301469
0.00044268
0.0001187
0.000334076
0.000203237
6.19206e-05
0.000270307
0.0006409
0.00373858
0.000391138
0.00242774
0.00511181
0.464425
1.17957
0.862517
1.4063
1.27428
0.482432
0.428129
0.267186
0.00354622
0.00775807
0.000262424
9.84802e-05
7.3656e-05
7.88889e-05
7.7152e-05
0.00021488
0.000135255
0.000105478
0.000166125
0.016049
0.529443
1.4544
1.80803
2.61997
1.43595
0.612873
0.548497
0.268941
0.00485258
9.40064e-05
4.18719e-05
4.44951e-05
4.78588e-05
4.75135e-05
4.79296e-05
4.44364e-05
4.16226e-05
4.03868e-05
5.28624e-05
0.00843251
0.506282
0.616308
2.10097
2.98236
1.25421
0.92944
0.883156
0.271703
0.00486244
5.76674e-05
4.94951e-05
4.5504e-05
4.70697e-05
4.99023e-05
4.74154e-05
5.15433e-05
5.20488e-05
4.58165e-05
6.38757e-05
0.00935003
0.436926
0.426662
1.92136
2.43684
1.18206
1.45791
1.57788
0.303768
0.00408853
5.00834e-05
4.70467e-05
4.47572e-05
4.73014e-05
4.75303e-05
4.65804e-05
4.71782e-05
4.59142e-05
4.50653e-05
5.47331e-05
0.00931353
0.413973
0.388649
1.29748
3.45001
1.10895
1.62331
1.98274
0.352775
0.00625235
5.9325e-05
5.08672e-05
4.73107e-05
4.98826e-05
5.16873e-05
4.82929e-05
5.08761e-05
4.98964e-05
4.78041e-05
5.70777e-05
0.00795596
0.412659
0.370192
1.25067
5.34182
1.0463
1.08228
1.62615
0.358466
0.0168216
0.000147395
0.000128574
0.000119475
0.000136068
0.000143369
0.000127278
0.000142417
0.000134676
0.000119565
0.000136294
0.0158165
0.426628
0.450676
1.55318
5.7802
1.10494
0.757444
0.44241
0.35973
0.0577689
0.00422465
0.00361144
0.00392467
0.00516629
0.00499824
0.00476523
0.00535029
0.00523361
0.004704
0.00436081
0.048185
0.44613
0.844027
2.0713
6.05216
1.08198
0.719785
0.0694118
0.394248
0.238069
1.6859e-05
1.6859e-05
1.6859e-05
1.6859e-05
1.6859e-05
1.6859e-05
1.6859e-05
1.6859e-05
1.6859e-05
1.6859e-05
0.426872
0.468385
1.06716
1.81888
5.34061
0.897407
0.743818
0.0665219
0.428628
0.262052
1.6859e-05
1.6859e-05
1.6859e-05
1.6859e-05
1.6859e-05
1.6859e-05
1.6859e-05
1.6859e-05
1.6859e-05
1.6859e-05
0.408031
0.472545
0.861604
0.121348
4.50453
0.596653
0.56993
0.0648206
0.55731
0.287716
1.6859e-05
1.6859e-05
1.6859e-05
1.6859e-05
1.6859e-05
1.6859e-05
1.6859e-05
1.6859e-05
1.6859e-05
1.6859e-05
0.387885
0.468617
0.585654
0.0880128
4.16525
0.49445
0.28474
0.0602079
1.04961
0.37205
1.6859e-05
1.6859e-05
1.6859e-05
1.6859e-05
1.6859e-05
1.6859e-05
1.6859e-05
1.6859e-05
1.6859e-05
1.6859e-05
0.372118
0.488813
0.910293
0.0854152
3.94707
0.496642
0.247255
0.0635941
1.58331
0.591317
1.6859e-05
1.6859e-05
1.6859e-05
1.6859e-05
1.6859e-05
1.6859e-05
1.6859e-05
1.6859e-05
1.6859e-05
1.6859e-05
0.354461
0.530947
3.38585
0.0848865
3.47458
0.507099
0.355343
0.0517901
1.4235
0.650199
1.6859e-05
1.6859e-05
1.6859e-05
1.6859e-05
1.6859e-05
1.6859e-05
1.6859e-05
1.6859e-05
1.6859e-05
1.6859e-05
0.358446
0.555612
4.76468
0.0569514
2.52901
0.339892
0.403985
0.019594
1.06183
0.674664
1.6859e-05
1.6859e-05
1.6859e-05
1.6859e-05
1.6859e-05
1.6859e-05
1.6859e-05
1.6859e-05
1.6859e-05
1.6859e-05
0.443835
0.479372
0.139927
0.0130753
1.34661
0.0979784
0.30692
0.00887727
0.857112
0.645031
1.6859e-05
1.6859e-05
1.6859e-05
1.6859e-05
1.6859e-05
1.6859e-05
1.6859e-05
1.6859e-05
1.6859e-05
1.6859e-05
0.500907
0.402335
0.0336886
0.00413754
0.274852
0.0419893
0.0858153
0.00459558
0.349104
0.702555
1.6859e-05
1.6859e-05
1.6859e-05
1.6859e-05
1.6859e-05
1.6859e-05
1.6859e-05
1.6859e-05
1.6859e-05
1.6859e-05
0.563277
0.344364
0.00978922
0.00243059
0.0103514
0.0280543
0.0183097
0.00290323
0.274195
0.711507
1.6859e-05
1.6859e-05
1.6859e-05
1.6859e-05
1.6859e-05
1.6859e-05
1.6859e-05
1.6859e-05
1.6859e-05
1.6859e-05
0.552261
0.198902
0.00386342
0.00187764
0.00343034
0.0107424
0.00315078
0.000447193
0.0450859
0.617722
9.60295e-05
9.60295e-05
9.60295e-05
9.60295e-05
9.60295e-05
9.60295e-05
9.60295e-05
9.60295e-05
9.60295e-05
9.60295e-05
0.5219
0.101883
0.00127067
0.00157398
0.00219477
0.960586
0.719703
0.449757
0.143164
0.0260427
0.00831854
0.00150476
0.0033461
0.00138725
0.000751184
6.30751e-05
0.00124229
0.00376537
0.00376609
0.0142025
0.0636584
0.362777
0.69378
0.923048
1.04066
1.01562
0.501389
0.360079
0.0491645
0.00316182
0.000453022
0.000111395
0.00029976
0.000189655
6.03421e-05
0.000242297
0.00059849
0.00383931
0.000455002
0.00254339
0.00488736
0.412748
1.01279
0.759526
1.30224
1.3381
0.498757
0.426376
0.276672
0.00319864
0.00741341
0.000247302
9.67268e-05
7.26801e-05
7.75237e-05
7.60334e-05
0.000212933
0.00012843
0.000102802
0.000157844
0.0153605
0.460864
1.15439
1.40852
2.25223
1.51212
0.579915
0.528514
0.278834
0.00445172
8.7967e-05
4.16196e-05
4.42215e-05
4.74622e-05
4.70782e-05
4.75226e-05
4.40435e-05
4.12723e-05
4.01861e-05
5.14607e-05
0.00734966
0.454135
0.573419
1.59498
2.51689
1.34794
0.814429
0.807124
0.278604
0.00464087
5.61253e-05
4.90577e-05
4.52048e-05
4.66907e-05
4.94503e-05
4.70426e-05
5.10793e-05
5.15688e-05
4.55208e-05
6.20225e-05
0.00812924
0.409031
0.446552
1.47921
2.15318
1.27415
1.16244
1.30524
0.295375
0.0039675
4.93494e-05
4.66488e-05
4.44707e-05
4.69177e-05
4.71085e-05
4.62236e-05
4.67835e-05
4.55697e-05
4.47639e-05
5.35625e-05
0.00840407
0.39811
0.400959
1.02755
2.9943
1.18782
1.27188
1.52046
0.339799
0.00581942
5.72185e-05
4.96036e-05
4.63011e-05
4.84995e-05
5.01347e-05
4.7088e-05
4.93596e-05
4.8531e-05
4.67164e-05
5.44362e-05
0.00746719
0.402907
0.368105
0.948056
4.34343
1.06591
0.878586
1.10594
0.35779
0.0139365
0.00013594
0.000121705
0.000113252
0.000128128
0.000134704
0.000120082
0.000133848
0.000126839
0.00011291
0.000127931
0.0152626
0.423179
0.412751
1.0436
4.7269
1.05132