/*--------------------------------*- C++ -*----------------------------------*\
| =========                 |                                                 |
| \\      /  F ield         | OpenFOAM: The Open Source CFD Toolbox           |
|  \\    /   O peration     | Version:  2.3.0                                 |
|   \\  /    A nd           | Web:      www.OpenFOAM.org                      |
|    \\/     M anipulation  |                                                 |
\*---------------------------------------------------------------------------*/
FoamFile
{
    version     2.0;
    format      ascii;
    class       volScalarField;
    location    "4.00001";
    object      rho;
}
// * * * * * * * * * * * * * * * * * * * * * * * * * * * * * * * * * * * * * //

dimensions      [1 -3 0 0 0 0 0];

internalField   nonuniform List<scalar> 
10000
(
1023.9
1023.82
1023.21
1017.62
793.275
725.219
652.314
407.659
413.662
400.286
438.417
301.461
514.033
648.627
845.49
994.584
1021.57
1023.21
1024.67
1024.01
1027.11
1027.11
1027.11
1027.1
673.432
788.006
660.48
828.883
774.908
768.403
806.124
392.065
159.736
216.698
471.4
970.807
1027.11
1027.11
1027.11
1027.11
1027.11
1027.11
1027.11
1027.1
1003.47
733.581
682.864
699.397
645.612
703.406
703.877
709.861
550.209
624.224
724.638
1022.47
1027.11
1027.11
1027.11
1027.11
1027.11
1027.11
1027.11
1027.09
1016.08
621.418
645.515
678.195
636.311
725.126
739.479
666.219
679.736
622.04
671.82
1021.89
1027.11
1027.11
1027.11
1027.11
1027.11
1027.11
1027.11
1027.09
1015.95
681.822
643.215
630.001
651.348
655.554
689.899
653.797
717.54
637.124
665.381
1023.48
1027.11
1027.11
1027.11
1027.11
1027.11
1027.11
1027.11
1027.09
1015.08
697.362
698.892
633.71
646.393
643.944
633.636
640.848
615.832
624.723
686.233
1023.69
1027.11
1027.11
1027.11
1027.11
1027.11
1027.11
1027.11
1027.11
1020.2
718.222
690.285
630.37
623.552
684.385
631.536
627.322
612.437
620.068
689.974
1024.4
1027.11
1027.11
1027.11
1027.11
1027.11
1027.11
1027.11
1027.11
1025.06
756.243
718.385
743.795
831.942
819.201
810.935
831.349
831.453
812.01
806.863
1026.02
1027.11
1027.11
1027.11
1027.11
1027.11
1027.11
1027.11
1027.11
1027.1
1025.85
1025.51
1025.84
1026.34
1026.08
1026.18
1026.32
1026.4
1026.4
1026.19
1027.1
1027.11
1027.11
1027.11
1027.11
1027.11
1027.11
1027.11
1027.11
1027.11
1027.11
1027.11
1027.11
1027.11
1027.11
1027.11
1027.11
1027.11
1027.11
1027.11
1027.11
1027.11
1027.11
1027.11
1027.11
1027.11
1027.11
1027.11
1027.11
1027.11
1027.11
1027.11
1027.11
1027.11
1027.11
1027.11
1027.11
1027.11
1027.11
1027.11
1027.11
1027.11
1027.11
1027.11
1027.11
1027.11
1027.11
1027.11
1027.11
1027.11
1027.11
1027.11
1027.11
1027.11
1027.11
1027.11
1027.11
1027.11
1027.11
1027.11
1027.11
1027.11
1027.11
1027.11
1027.11
1027.11
1027.11
1027.11
1027.11
1027.11
1027.11
1027.11
1027.11
1027.11
1027.11
1027.11
1027.11
1027.11
1027.11
1027.11
1027.11
1027.11
1027.11
1027.11
1027.11
1027.11
1027.11
1027.11
1027.11
1027.11
1027.11
1027.11
1027.11
1027.11
1027.11
1027.11
1027.11
1027.11
1027.11
1027.11
1027.11
1027.11
1027.11
1027.11
1027.11
1027.11
1027.11
1027.11
1027.11
1027.11
1027.11
1027.11
1027.11
1027.11
1027.11
1027.11
1027.11
1027.11
1027.11
1027.11
1027.11
1027.11
1027.11
1027.11
1027.11
1027.11
1027.11
1027.11
1027.11
1027.11
1027.11
1027.11
1027.11
1027.11
1027.11
1027.11
1027.11
1027.11
1027.11
1027.11
1027.11
1027.11
1027.11
1027.11
1027.11
1027.11
1027.11
1027.11
1027.11
1027.11
1027.11
1027.11
1027.11
1027.11
1027.11
1027.11
1027.11
1027.11
1027.11
1027.11
1027.11
1027.11
1027.11
1027.11
1027.11
1027.11
1027.11
1027.11
1027.11
1027.11
1027.11
1027.11
1027.11
1027.11
1027.11
1027.11
1027.11
1027.11
1027.11
1027.11
1027.11
1027.11
1027.11
1027.11
1027.11
1027.11
1027.11
1027.11
1027.11
1027.11
1027.11
1027.11
1027.11
1027.11
1027.11
1027.11
1027.11
1027.11
1027.11
1027.11
1027.11
1027.11
1027.11
1027.11
1027.11
1027.11
1027.11
1027.11
1027.11
1027.11
1027.11
1027.11
1027.11
1027.11
1027.11
1027.11
1027.11
1027.11
1027.11
1027.11
1027.11
1027.11
1027.11
1027.11
1027.11
1023.68
1023.69
1023.1
1015.85
772.29
720.306
647.218
380.101
390.232
379.84
414.274
280.339
503.872
647.016
842.838
993.408
1021.65
1023.16
1024.62
1023.94
1027.11
1027.11
1027.11
1027.1
632.685
787.2
658.099
831.226
778.638
770.501
808.848
377.422
147.51
201.902
448.772
966.571
1027.11
1027.11
1027.11
1027.11
1027.11
1027.11
1027.11
1027.11
996.487
737.994
684.152
700.427
646.477
702.266
702.358
711.567
541.861
625.951
726.387
1022.42
1027.11
1027.11
1027.11
1027.11
1027.11
1027.11
1027.11
1027.09
1016.28
619.612
645.761
680.334
635.721
727.795
740.367
667.009
677.318
621.571
672.59
1021.7
1027.11
1027.11
1027.11
1027.11
1027.11
1027.11
1027.11
1027.09
1016.12
680.771
641.121
629.903
651.479
656.105
693.168
654.325
721.18
637.454
664.482
1022.98
1027.11
1027.11
1027.11
1027.11
1027.11
1027.11
1027.11
1027.09
1015.02
696.508
699.182
633.868
647.524
642.53
633.556
641.822
615.703
625.092
686.18
1023.21
1027.11
1027.11
1027.11
1027.11
1027.11
1027.11
1027.11
1027.11
1019.56
717.045
690.063
629.235
619.078
681.18
627.746
623.165
608.009
616.996
688.137
1023.45
1027.11
1027.11
1027.11
1027.11
1027.11
1027.11
1027.11
1027.11
1024.69
744.476
706.571
731.216
820.947
808.057
800.232
819.98
820.521
801.615
794.914
1025.27
1027.11
1027.11
1027.11
1027.11
1027.11
1027.11
1027.11
1027.11
1027.1
1025.74
1025.38
1025.74
1026.29
1026
1026.13
1026.24
1026.34
1026.35
1026.12
1027.1
1027.11
1027.11
1027.11
1027.11
1027.11
1027.11
1027.11
1027.11
1027.11
1027.11
1027.11
1027.11
1027.11
1027.11
1027.11
1027.11
1027.11
1027.11
1027.11
1027.11
1027.11
1027.11
1027.11
1027.11
1027.11
1027.11
1027.11
1027.11
1027.11
1027.11
1027.11
1027.11
1027.11
1027.11
1027.11
1027.11
1027.11
1027.11
1027.11
1027.11
1027.11
1027.11
1027.11
1027.11
1027.11
1027.11
1027.11
1027.11
1027.11
1027.11
1027.11
1027.11
1027.11
1027.11
1027.11
1027.11
1027.11
1027.11
1027.11
1027.11
1027.11
1027.11
1027.11
1027.11
1027.11
1027.11
1027.11
1027.11
1027.11
1027.11
1027.11
1027.11
1027.11
1027.11
1027.11
1027.11
1027.11
1027.11
1027.11
1027.11
1027.11
1027.11
1027.11
1027.11
1027.11
1027.11
1027.11
1027.11
1027.11
1027.11
1027.11
1027.11
1027.11
1027.11
1027.11
1027.11
1027.11
1027.11
1027.11
1027.11
1027.11
1027.11
1027.11
1027.11
1027.11
1027.11
1027.11
1027.11
1027.11
1027.11
1027.11
1027.11
1027.11
1027.11
1027.11
1027.11
1027.11
1027.11
1027.11
1027.11
1027.11
1027.11
1027.11
1027.11
1027.11
1027.11
1027.11
1027.11
1027.11
1027.11
1027.11
1027.11
1027.11
1027.11
1027.11
1027.11
1027.11
1027.11
1027.11
1027.11
1027.11
1027.11
1027.11
1027.11
1027.11
1027.11
1027.11
1027.11
1027.11
1027.11
1027.11
1027.11
1027.11
1027.11
1027.11
1027.11
1027.11
1027.11
1027.11
1027.11
1027.11
1027.11
1027.11
1027.11
1027.11
1027.11
1027.11
1027.11
1027.11
1027.11
1027.11
1027.11
1027.11
1027.11
1027.11
1027.11
1027.11
1027.11
1027.11
1027.11
1027.11
1027.11
1027.11
1027.11
1027.11
1027.11
1027.11
1027.11
1027.11
1027.11
1027.11
1027.11
1027.11
1027.11
1027.11
1027.11
1027.11
1027.11
1027.11
1027.11
1027.11
1027.11
1027.11
1027.11
1027.11
1027.11
1027.11
1027.11
1027.11
1027.11
1027.11
1027.11
1027.11
1027.11
1027.11
1027.11
1027.11
1027.11
1027.11
1027.11
1027.11
1027.11
1027.11
1027.11
1023.58
1023.63
1023.04
1014.42
758.609
717.897
644.714
362.339
377.162
366.93
400.192
266.618
505.818
646.56
840.901
992.611
1021.67
1023.13
1024.58
1023.9
1027.11
1027.11
1027.11
1027.08
605.873
786.745
656.658
832.527
780.676
771.599
810.344
367.588
140.71
194.115
432.805
963.67
1027.11
1027.11
1027.11
1027.11
1027.11
1027.11
1027.11
1027.11
990.441
741.28
684.837
700.882
646.943
701.536
701.437
712.511
538.409
627.304
727.315
1022.24
1027.11
1027.11
1027.11
1027.11
1027.11
1027.11
1027.11
1027.1
1016.39
618.527
645.957
681.515
635.389
729.249
740.795
667.437
675.813
621.325
673.089
1021.41
1027.11
1027.11
1027.11
1027.11
1027.11
1027.11
1027.11
1027.09
1016.23
680.208
639.956
629.848
651.545
656.508
694.931
654.588
723.149
637.608
663.964
1022.56
1027.11
1027.11
1027.11
1027.11
1027.11
1027.11
1027.11
1027.09
1015.02
695.946
699.347
633.981
648.242
641.738
633.756
642.476
615.782
625.385
686.222
1022.79
1027.11
1027.11
1027.11
1027.11
1027.11
1027.11
1027.11
1027.11
1019.23
716.486
689.962
628.741
616.811
679.619
625.806
621.102
605.783
615.476
687.363
1022.66
1027.11
1027.11
1027.11
1027.11
1027.11
1027.11
1027.11
1027.11
1024.48
738.328
700.281
724.41
814.894
801.985
794.393
813.721
814.502
795.933
788.414
1024.75
1027.11
1027.11
1027.11
1027.11
1027.11
1027.11
1027.11
1027.11
1027.09
1025.68
1025.31
1025.68
1026.25
1025.94
1026.1
1026.21
1026.3
1026.31
1026.07
1027.1
1027.11
1027.11
1027.11
1027.11
1027.11
1027.11
1027.11
1027.11
1027.11
1027.11
1027.11
1027.11
1027.11
1027.11
1027.11
1027.11
1027.11
1027.11
1027.11
1027.11
1027.11
1027.11
1027.11
1027.11
1027.11
1027.11
1027.11
1027.11
1027.11
1027.11
1027.11
1027.11
1027.11
1027.11
1027.11
1027.11
1027.11
1027.11
1027.11
1027.11
1027.11
1027.11
1027.11
1027.11
1027.11
1027.11
1027.11
1027.11
1027.11
1027.11
1027.11
1027.11
1027.11
1027.11
1027.11
1027.11
1027.11
1027.11
1027.11
1027.11
1027.11
1027.11
1027.11
1027.11
1027.11
1027.11
1027.11
1027.11
1027.11
1027.11
1027.11
1027.11
1027.11
1027.11
1027.11
1027.11
1027.11
1027.11
1027.11
1027.11
1027.11
1027.11
1027.11
1027.11
1027.11
1027.11
1027.11
1027.11
1027.11
1027.11
1027.11
1027.11
1027.11
1027.11
1027.11
1027.11
1027.11
1027.11
1027.11
1027.11
1027.11
1027.11
1027.11
1027.11
1027.11
1027.11
1027.11
1027.11
1027.11
1027.11
1027.11
1027.11
1027.11
1027.11
1027.11
1027.11
1027.11
1027.11
1027.11
1027.11
1027.11
1027.11
1027.11
1027.11
1027.11
1027.11
1027.11
1027.11
1027.11
1027.11
1027.11
1027.11
1027.11
1027.11
1027.11
1027.11
1027.11
1027.11
1027.11
1027.11
1027.11
1027.11
1027.11
1027.11
1027.11
1027.11
1027.11
1027.11
1027.11
1027.11
1027.11
1027.11
1027.11
1027.11
1027.11
1027.11
1027.11
1027.11
1027.11
1027.11
1027.11
1027.11
1027.11
1027.11
1027.11
1027.11
1027.11
1027.11
1027.11
1027.11
1027.11
1027.11
1027.11
1027.11
1027.11
1027.11
1027.11
1027.11
1027.11
1027.11
1027.11
1027.11
1027.11
1027.11
1027.11
1027.11
1027.11
1027.11
1027.11
1027.11
1027.11
1027.11
1027.11
1027.11
1027.11
1027.11
1027.11
1027.11
1027.11
1027.11
1027.11
1027.11
1027.11
1027.11
1027.11
1027.11
1027.11
1027.11
1027.11
1027.11
1027.11
1027.11
1027.11
1027.11
1027.11
1027.11
1027.11
1027.11
1027.11
1027.11
1027.11
1027.11
1027.11
1027.11
1023.58
1023.64
1023.06
1012.85
745.936
715.785
642.132
344.028
363.638
353.026
385.896
252.143
513.235
645.423
839.452
992.006
1021.77
1023.18
1024.58
1023.94
1027.11
1027.11
1027.11
1026.7
563.517
786.322
655.176
833.99
782.913
772.755
812.002
358.472
133.487
184.834
416.614
960.024
1027.11
1027.11
1027.11
1027.11
1027.11
1027.11
1027.11
1027.11
982.245
746.214
685.702
701.3
647.44
700.725
700.375
713.672
536.437
629.274
728.623
1022.11
1027.11
1027.11
1027.11
1027.11
1027.11
1027.11
1027.11
1027.1
1016.45
617.272
646.199
682.82
635.019
730.831
741.242
667.876
673.989
621.058
673.658
1021.06
1027.11
1027.11
1027.11
1027.11
1027.11
1027.11
1027.11
1027.1
1016.32
679.61
638.667
629.788
651.614
657.012
696.848
654.876
725.329
637.766
663.389
1021.98
1027.11
1027.11
1027.11
1027.11
1027.11
1027.11
1027.11
1027.09
1015
695.224
699.53
634.113
649.074
640.85
633.98
643.246
615.897
625.744
686.269
1022.22
1027.11
1027.11
1027.11
1027.11
1027.11
1027.11
1027.11
1027.11
1018.85
715.929
689.859
628.272
614.422
677.999
623.744
618.956
603.451
613.901
686.627
1021.83
1027.11
1027.11
1027.11
1027.11
1027.11
1027.11
1027.11
1027.11
1024.24
731.741
693.461
716.96
808.195
795.307
787.947
806.799
807.839
789.664
781.276
1024.42
1027.11
1027.11
1027.11
1027.11
1027.11
1027.11
1027.11
1027.11
1027.09
1025.61
1025.23
1025.62
1026.21
1025.87
1026.06
1026.17
1026.26
1026.27
1026.02
1027.09
1027.11
1027.11
1027.11
1027.11
1027.11
1027.11
1027.11
1027.11
1027.11
1027.11
1027.11
1027.11
1027.11
1027.11
1027.11
1027.11
1027.11
1027.11
1027.11
1027.11
1027.11
1027.11
1027.11
1027.11
1027.11
1027.11
1027.11
1027.11
1027.11
1027.11
1027.11
1027.11
1027.11
1027.11
1027.11
1027.11
1027.11
1027.11
1027.11
1027.11
1027.11
1027.11
1027.11
1027.11
1027.11
1027.11
1027.11
1027.11
1027.11
1027.11
1027.11
1027.11
1027.11
1027.11
1027.11
1027.11
1027.11
1027.11
1027.11
1027.11
1027.11
1027.11
1027.11
1027.11
1027.11
1027.11
1027.11
1027.11
1027.11
1027.11
1027.11
1027.11
1027.11
1027.11
1027.11
1027.11
1027.11
1027.11
1027.11
1027.11
1027.11
1027.11
1027.11
1027.11
1027.11
1027.11
1027.11
1027.11
1027.11
1027.11
1027.11
1027.11
1027.11
1027.11
1027.11
1027.11
1027.11
1027.11
1027.11
1027.11
1027.11
1027.11
1027.11
1027.11
1027.11
1027.11
1027.11
1027.11
1027.11
1027.11
1027.11
1027.11
1027.11
1027.11
1027.11
1027.11
1027.11
1027.11
1027.11
1027.11
1027.11
1027.11
1027.11
1027.11
1027.11
1027.11
1027.11
1027.11
1027.11
1027.11
1027.11
1027.11
1027.11
1027.11
1027.11
1027.11
1027.11
1027.11
1027.11
1027.11
1027.11
1027.11
1027.11
1027.11
1027.11
1027.11
1027.11
1027.11
1027.11
1027.11
1027.11
1027.11
1027.11
1027.11
1027.11
1027.11
1027.11
1027.11
1027.11
1027.11
1027.11
1027.11
1027.11
1027.11
1027.11
1027.11
1027.11
1027.11
1027.11
1027.11
1027.11
1027.11
1027.11
1027.11
1027.11
1027.11
1027.11
1027.11
1027.11
1027.11
1027.11
1027.11
1027.11
1027.11
1027.11
1027.11
1027.11
1027.11
1027.11
1027.11
1027.11
1027.11
1027.11
1027.11
1027.11
1027.11
1027.11
1027.11
1027.11
1027.11
1027.11
1027.11
1027.11
1027.11
1027.11
1027.11
1027.11
1027.11
1027.11
1027.11
1027.11
1027.11
1027.11
1027.11
1027.11
1027.11
1027.11
1027.11
1027.11
1027.11
1027.11
1027.11
1027.11
1027.11
1023.56
1023.63
1023.06
1011.08
734.198
713.487
638.947
327.194
349.6
340.344
372.337
234.047
522.15
642.277
837.209
991.269
1021.81
1023.2
1024.56
1023.95
1027.11
1027.11
1027.11
1020.63
505.122
786.105
653.915
835.338
784.985
773.848
813.537
349.593
126.914
176.062
400.2
956.278
1027.11
1027.11
1027.11
1027.11
1027.11
1027.11
1027.11
1027.1
972.261
751.224
686.406
701.633
647.924
699.875
699.353
714.703
535.645
631.369
729.76
1021.93
1027.11
1027.11
1027.11
1027.11
1027.11
1027.11
1027.11
1027.1
1016.49
616.08
646.489
684.035
634.669
732.289
741.619
668.326
672.132
620.802
674.251
1020.67
1027.11
1027.11
1027.11
1027.11
1027.11
1027.11
1027.11
1027.1
1016.43
679.044
637.451
629.732
651.682
657.545
698.601
655.114
727.349
637.898
662.82
1021.36
1027.11
1027.11
1027.11
1027.11
1027.11
1027.11
1027.11
1027.1
1015.08
694.472
699.691
634.25
649.901
640.007
634.311
644.023
616.092
626.124
686.317
1021.71
1027.11
1027.11
1027.11
1027.11
1027.11
1027.11
1027.11
1027.11
1018.52
715.502
689.794
627.91
612.327
676.617
621.912
617.105
601.418
612.547
686.079
1021.18
1027.11
1027.11
1027.11
1027.11
1027.11
1027.11
1027.11
1027.11
1023.98
725.934
687.343
710.21
802.088
789.28
782.099
800.49
801.757
783.96
774.876
1024.29
1027.11
1027.11
1027.11
1027.11
1027.11
1027.11
1027.11
1027.11
1027.08
1025.56
1025.15
1025.56
1026.17
1025.82
1026.03
1026.14
1026.23
1026.24
1025.97
1027.09
1027.11
1027.11
1027.11
1027.11
1027.11
1027.11
1027.11
1027.11
1027.11
1027.11
1027.11
1027.11
1027.11
1027.11
1027.11
1027.11
1027.11
1027.11
1027.11
1027.11
1027.11
1027.11
1027.11
1027.11
1027.11
1027.11
1027.11
1027.11
1027.11
1027.11
1027.11
1027.11
1027.11
1027.11
1027.11
1027.11
1027.11
1027.11
1027.11
1027.11
1027.11
1027.11
1027.11
1027.11
1027.11
1027.11
1027.11
1027.11
1027.11
1027.11
1027.11
1027.11
1027.11
1027.11
1027.11
1027.11
1027.11
1027.11
1027.11
1027.11
1027.11
1027.11
1027.11
1027.11
1027.11
1027.11
1027.11
1027.11
1027.11
1027.11
1027.11
1027.11
1027.11
1027.11
1027.11
1027.11
1027.11
1027.11
1027.11
1027.11
1027.11
1027.11
1027.11
1027.11
1027.11
1027.11
1027.11
1027.11
1027.11
1027.11
1027.11
1027.11
1027.11
1027.11
1027.11
1027.11
1027.11
1027.11
1027.11
1027.11
1027.11
1027.11
1027.11
1027.11
1027.11
1027.11
1027.11
1027.11
1027.11
1027.11
1027.11
1027.11
1027.11
1027.11
1027.11
1027.11
1027.11
1027.11
1027.11
1027.11
1027.11
1027.11
1027.11
1027.11
1027.11
1027.11
1027.11
1027.11
1027.11
1027.11
1027.11
1027.11
1027.11
1027.11
1027.11
1027.11
1027.11
1027.11
1027.11
1027.11
1027.11
1027.11
1027.11
1027.11
1027.11
1027.11
1027.11
1027.11
1027.11
1027.11
1027.11
1027.11
1027.11
1027.11
1027.11
1027.11
1027.11
1027.11
1027.11
1027.11
1027.11
1027.11
1027.11
1027.11
1027.11
1027.11
1027.11
1027.11
1027.11
1027.11
1027.11
1027.11
1027.11
1027.11
1027.11
1027.11
1027.11
1027.11
1027.11
1027.11
1027.11
1027.11
1027.11
1027.11
1027.11
1027.11
1027.11
1027.11
1027.11
1027.11
1027.11
1027.11
1027.11
1027.11
1027.11
1027.11
1027.11
1027.11
1027.11
1027.11
1027.11
1027.11
1027.11
1027.11
1027.11
1027.11
1027.11
1027.11
1027.11
1027.11
1027.11
1027.11
1027.11
1027.11
1027.11
1027.11
1027.11
1027.11
1027.11
1027.11
1027.11
1027.11
1027.11
1027.11
1023.54
1023.62
1023.07
1010.35
724.472
711.422
635.807
311.665
334.653
328.747
359.445
215.542
519.957
638.918
835.087
990.541
1021.84
1023.22
1024.56
1023.97
1027.11
1027.11
1027.11
1011.64
460.656
786.188
652.871
836.663
786.998
774.898
815.04
340.994
120.318
166.924
383.844
952.276
1027.11
1027.11
1027.11
1027.11
1027.11
1027.11
1027.11
1027.06
967.211
756.514
687.14
701.883
648.396
699.015
698.308
715.775
535.383
633.902
731.042
1021.72
1027.11
1027.11
1027.11
1027.11
1027.11
1027.11
1027.11
1027.11
1016.54
614.92
646.807
685.223
634.323
733.691
741.963
668.756
670.111
620.557
674.856
1020.24
1027.11
1027.11
1027.11
1027.11
1027.11
1027.11
1027.11
1027.1
1016.55
678.505
636.255
629.679
651.747
658.129
700.285
655.337
729.331
638.019
662.26
1020.75
1027.11
1027.11
1027.11
1027.11
1027.11
1027.11
1027.11
1027.1
1015.14
693.613
699.806
634.392
650.745
639.166
634.706
644.827
616.33
626.53
686.367
1021.31
1027.11
1027.11
1027.11
1027.11
1027.11
1027.11
1027.11
1027.11
1018.17
715.186
689.792
627.615
610.379
675.354
620.186
615.41
599.537
611.314
685.638
1020.74
1027.11
1027.11
1027.11
1027.11
1027.11
1027.11
1027.11
1027.11
1023.64
720.434
681.441
703.712
796.162
783.476
776.436
794.372
795.853
778.441
768.772
1024.27
1027.11
1027.11
1027.11
1027.11
1027.11
1027.11
1027.11
1027.11
1027.08
1025.52
1025.11
1025.52
1026.15
1025.79
1026
1026.12
1026.22
1026.22
1025.95
1027.09
1027.11
1027.11
1027.11
1027.11
1027.11
1027.11
1027.11
1027.11
1027.11
1027.11
1027.11
1027.11
1027.11
1027.11
1027.11
1027.11
1027.11
1027.11
1027.11
1027.11
1027.11
1027.11
1027.11
1027.11
1027.11
1027.11
1027.11
1027.11
1027.11
1027.11
1027.11
1027.11
1027.11
1027.11
1027.11
1027.11
1027.11
1027.11
1027.11
1027.11
1027.11
1027.11
1027.11
1027.11
1027.11
1027.11
1027.11
1027.11
1027.11
1027.11
1027.11
1027.11
1027.11
1027.11
1027.11
1027.11
1027.11
1027.11
1027.11
1027.11
1027.11
1027.11
1027.11
1027.11
1027.11
1027.11
1027.11
1027.11
1027.11
1027.11
1027.11
1027.11
1027.11
1027.11
1027.11
1027.11
1027.11
1027.11
1027.11
1027.11
1027.11
1027.11
1027.11
1027.11
1027.11
1027.11
1027.11
1027.11
1027.11
1027.11
1027.11
1027.11
1027.11
1027.11
1027.11
1027.11
1027.11
1027.11
1027.11
1027.11
1027.11
1027.11
1027.11
1027.11
1027.11
1027.11
1027.11
1027.11
1027.11
1027.11
1027.11
1027.11
1027.11
1027.11
1027.11
1027.11
1027.11
1027.11
1027.11
1027.11
1027.11
1027.11
1027.11
1027.11
1027.11
1027.11
1027.11
1027.11
1027.11
1027.11
1027.11
1027.11
1027.11
1027.11
1027.11
1027.11
1027.11
1027.11
1027.11
1027.11
1027.11
1027.11
1027.11
1027.11
1027.11
1027.11
1027.11
1027.11
1027.11
1027.11
1027.11
1027.11
1027.11
1027.11
1027.11
1027.11
1027.11
1027.11
1027.11
1027.11
1027.11
1027.11
1027.11
1027.11
1027.11
1027.11
1027.11
1027.11
1027.11
1027.11
1027.11
1027.11
1027.11
1027.11
1027.11
1027.11
1027.11
1027.11
1027.11
1027.11
1027.11
1027.11
1027.11
1027.11
1027.11
1027.11
1027.11
1027.11
1027.11
1027.11
1027.11
1027.11
1027.11
1027.11
1027.11
1027.11
1027.11
1027.11
1027.11
1027.11
1027.11
1027.11
1027.11
1027.11
1027.11
1027.11
1027.11
1027.11
1027.11
1027.11
1027.11
1027.11
1027.11
1027.11
1027.11
1027.11
1027.11
1027.11
1027.11
1027.11
1027.11
1027.11
1027.11
1027.11
1023.51
1023.61
1023.07
1010.35
716.32
709.3
632.322
297.704
319.997
318.509
347.559
198.766
509.969
634.985
832.527
989.773
1021.86
1023.25
1024.54
1023.99
1027.11
1027.11
1027.11
1009.71
431.549
786.689
652.016
837.929
788.912
775.916
816.478
332.619
113.681
157.849
367.73
948.124
1027.11
1027.11
1027.11
1027.11
1027.11
1027.11
1027.11
1027.05
963.731
761.338
687.797
702.066
648.859
698.126
697.286
716.782
536.146
636.697
732.299
1021.49
1027.11
1027.11
1027.11
1027.11
1027.11
1027.11
1027.11
1027.11
1016.57
613.857
647.152
686.35
633.99
735.007
742.264
669.188
667.987
620.324
675.466
1019.78
1027.11
1027.11
1027.11
1027.11
1027.11
1027.11
1027.11
1027.1
1016.67
677.986
635.107
629.628
651.812
658.742
701.856
655.531
731.196
638.126
661.711
1020.23
1027.11
1027.11
1027.11
1027.11
1027.11
1027.11
1027.11
1027.1
1015.24
692.682
699.872
634.534
651.584
638.34
635.157
645.631
616.611
626.944
686.422
1021.05
1027.11
1027.11
1027.11
1027.11
1027.11
1027.11
1027.11
1027.11
1017.79
715.004
690.114
627.386
608.619
674.239
618.599
613.906
597.847
610.226
685.312
1020.56
1027.11
1027.11
1027.11
1027.11
1027.11
1027.11
1027.11
1027.11
1023.13
715.41
675.87
697.661
790.636
778.107
771.17
788.671
790.344
773.306
763.203
1024.34
1027.11
1027.11
1027.11
1027.11
1027.11
1027.11
1027.11
1027.11
1027.08
1025.52
1025.1
1025.51
1026.15
1025.79
1026
1026.12
1026.22
1026.22
1025.95
1027.09
1027.11
1027.11
1027.11
1027.11
1027.11
1027.11
1027.11
1027.11
1027.11
1027.11
1027.11
1027.11
1027.11
1027.11
1027.11
1027.11
1027.11
1027.11
1027.11
1027.11
1027.11
1027.11
1027.11
1027.11
1027.11
1027.11
1027.11
1027.11
1027.11
1027.11
1027.11
1027.11
1027.11
1027.11
1027.11
1027.11
1027.11
1027.11
1027.11
1027.11
1027.11
1027.11
1027.11
1027.11
1027.11
1027.11
1027.11
1027.11
1027.11
1027.11
1027.11
1027.11
1027.11
1027.11
1027.11
1027.11
1027.11
1027.11
1027.11
1027.11
1027.11
1027.11
1027.11
1027.11
1027.11
1027.11
1027.11
1027.11
1027.11
1027.11
1027.11
1027.11
1027.11
1027.11
1027.11
1027.11
1027.11
1027.11
1027.11
1027.11
1027.11
1027.11
1027.11
1027.11
1027.11
1027.11
1027.11
1027.11
1027.11
1027.11
1027.11
1027.11
1027.11
1027.11
1027.11
1027.11
1027.11
1027.11
1027.11
1027.11
1027.11
1027.11
1027.11
1027.11
1027.11
1027.11
1027.11
1027.11
1027.11
1027.11
1027.11
1027.11
1027.11
1027.11
1027.11
1027.11
1027.11
1027.11
1027.11
1027.11
1027.11
1027.11
1027.11
1027.11
1027.11
1027.11
1027.11
1027.11
1027.11
1027.11
1027.11
1027.11
1027.11
1027.11
1027.11
1027.11
1027.11
1027.11
1027.11
1027.11
1027.11
1027.11
1027.11
1027.11
1027.11
1027.11
1027.11
1027.11
1027.11
1027.11
1027.11
1027.11
1027.11
1027.11
1027.11
1027.11
1027.11
1027.11
1027.11
1027.11
1027.11
1027.11
1027.11
1027.11
1027.11
1027.11
1027.11
1027.11
1027.11
1027.11
1027.11
1027.11
1027.11
1027.11
1027.11
1027.11
1027.11
1027.11
1027.11
1027.11
1027.11
1027.11
1027.11
1027.11
1027.11
1027.11
1027.11
1027.11
1027.11
1027.11
1027.11
1027.11
1027.11
1027.11
1027.11
1027.11
1027.11
1027.11
1027.11
1027.11
1027.11
1027.11
1027.11
1027.11
1027.11
1027.11
1027.11
1027.11
1027.11
1027.11
1027.11
1027.11
1027.11
1027.11
1027.11
1027.11
1027.11
1027.11
1027.11
1027.11
1027.11
1027.11
1027.11
1027.11
1023.48
1023.6
1023.07
1010.96
708.89
707.26
628.516
284.011
306.598
308.749
336.294
181.673
490.003
630.211
829.802
988.994
1021.88
1023.27
1024.53
1024
1027.11
1027.11
1027.11
1010.14
396.057
787.264
651.344
839.145
790.734
776.896
817.856
324.598
106.939
148.528
351.989
943.842
1027.11
1027.11
1027.11
1027.11
1027.11
1027.11
1027.11
1027.05
959.074
765.475
688.447
702.185
649.305
697.236
696.27
717.791
537.453
639.858
733.678
1021.23
1027.11
1027.11
1027.11
1027.11
1027.11
1027.11
1027.11
1027.11
1016.57
612.879
647.514
687.434
633.672
736.251
742.534
669.605
665.728
620.103
676.069
1019.3
1027.11
1027.11
1027.11
1027.11
1027.11
1027.11
1027.11
1027.11
1016.79
677.489
633.996
629.578
651.869
659.389
703.341
655.709
732.936
638.222
661.17
1019.84
1027.11
1027.11
1027.11
1027.11
1027.11
1027.11
1027.11
1027.1
1015.35
691.679
699.915
634.677
652.422
637.522
635.659
646.438
616.929
627.367
686.476
1020.94
1027.11
1027.11
1027.11
1027.11
1027.11
1027.11
1027.11
1027.11
1017.37
714.939
690.434
627.208
606.997
673.228
617.112
612.541
596.298
609.246
685.075
1020.53
1027.11
1027.11
1027.11
1027.11
1027.11
1027.11
1027.11
1027.11
1022.4
710.819
670.636
692.016
785.44
773.109
766.238
783.316
785.161
768.491
758.072
1024.46
1027.11
1027.11
1027.11
1027.11
1027.11
1027.11
1027.11
1027.11
1027.08
1025.53
1025.1
1025.5
1026.15
1025.8
1026
1026.11
1026.22
1026.22
1025.94
1027.09
1027.11
1027.11
1027.11
1027.11
1027.11
1027.11
1027.11
1027.11
1027.11
1027.11
1027.11
1027.11
1027.11
1027.11
1027.11
1027.11
1027.11
1027.11
1027.11
1027.11
1027.11
1027.11
1027.11
1027.11
1027.11
1027.11
1027.11
1027.11
1027.11
1027.11
1027.11
1027.11
1027.11
1027.11
1027.11
1027.11
1027.11
1027.11
1027.11
1027.11
1027.11
1027.11
1027.11
1027.11
1027.11
1027.11
1027.11
1027.11
1027.11
1027.11
1027.11
1027.11
1027.11
1027.11
1027.11
1027.11
1027.11
1027.11
1027.11
1027.11
1027.11
1027.11
1027.11
1027.11
1027.11
1027.11
1027.11
1027.11
1027.11
1027.11
1027.11
1027.11
1027.11
1027.11
1027.11
1027.11
1027.11
1027.11
1027.11
1027.11
1027.11
1027.11
1027.11
1027.11
1027.11
1027.11
1027.11
1027.11
1027.11
1027.11
1027.11
1027.11
1027.11
1027.11
1027.11
1027.11
1027.11
1027.11
1027.11
1027.11
1027.11
1027.11
1027.11
1027.11
1027.11
1027.11
1027.11
1027.11
1027.11
1027.11
1027.11
1027.11
1027.11
1027.11
1027.11
1027.11
1027.11
1027.11
1027.11
1027.11
1027.11
1027.11
1027.11
1027.11
1027.11
1027.11
1027.11
1027.11
1027.11
1027.11
1027.11
1027.11
1027.11
1027.11
1027.11
1027.11
1027.11
1027.11
1027.11
1027.11
1027.11
1027.11
1027.11
1027.11
1027.11
1027.11
1027.11
1027.11
1027.11
1027.11
1027.11
1027.11
1027.11
1027.11
1027.11
1027.11
1027.11
1027.11
1027.11
1027.11
1027.11
1027.11
1027.11
1027.11
1027.11
1027.11
1027.11
1027.11
1027.11
1027.11
1027.11
1027.11
1027.11
1027.11
1027.11
1027.11
1027.11
1027.11
1027.11
1027.11
1027.11
1027.11
1027.11
1027.11
1027.11
1027.11
1027.11
1027.11
1027.11
1027.11
1027.11
1027.11
1027.11
1027.11
1027.11
1027.11
1027.11
1027.11
1027.11
1027.11
1027.11
1027.11
1027.11
1027.11
1027.11
1027.11
1027.11
1027.11
1027.11
1027.11
1027.11
1027.11
1027.11
1027.11
1027.11
1027.11
1027.11
1027.11
1027.11
1027.11
1027.11
1027.11
1027.11
1027.11
1023.45
1023.59
1023.06
1011.79
703.286
705.21
624.313
270.413
295.275
298.876
326.086
165.571
477.495
624.229
826.656
988.196
1021.89
1023.29
1024.52
1024.02
1027.11
1027.11
1027.11
1012.07
366.981
788.226
650.761
840.301
792.451
777.846
819.166
317.01
100.44
139.342
336.803
939.501
1027.11
1027.11
1027.11
1027.11
1027.11
1027.11
1027.11
1027.05
953.336
768.813
689.035
702.259
649.73
696.342
695.282
718.747
539.355
643.233
735.071
1020.94
1027.11
1027.11
1027.11
1027.11
1027.11
1027.11
1027.11
1027.11
1016.39
611.989
647.889
688.456
633.38
737.411
742.77
670.019
663.409
619.895
676.663
1018.78
1027.11
1027.11
1027.11
1027.11
1027.11
1027.11
1027.11
1027.11
1016.92
677.009
632.933
629.53
651.902
660.055
704.72
655.866
734.477
638.306
660.64
1019.6
1027.11
1027.11
1027.11
1027.11
1027.11
1027.11
1027.11
1027.11
1015.45
690.747
699.942
634.819
653.252
636.716
636.194
647.229
617.262
627.79
686.531
1020.92
1027.11
1027.11
1027.11
1027.11
1027.11
1027.11
1027.11
1027.11
1016.93
714.973
690.871
627.074
605.527
672.33
615.731
611.327
594.909
608.374
684.924
1020.7
1027.11
1027.11
1027.11
1027.11
1027.11
1027.11
1027.11
1027.11
1021.48
706.66
665.79
686.839
780.671
768.569
761.728
778.41
780.401
764.08
753.44
1024.49
1027.11
1027.11
1027.11
1027.11
1027.11
1027.11
1027.11
1027.11
1027.08
1025.55
1025.1
1025.49
1026.17
1025.82
1026
1026.11
1026.22
1026.24
1025.95
1027.09
1027.11
1027.11
1027.11
1027.11
1027.11
1027.11
1027.11
1027.11
1027.11
1027.11
1027.11
1027.11
1027.11
1027.11
1027.11
1027.11
1027.11
1027.11
1027.11
1027.11
1027.11
1027.11
1027.11
1027.11
1027.11
1027.11
1027.11
1027.11
1027.11
1027.11
1027.11
1027.11
1027.11
1027.11
1027.11
1027.11
1027.11
1027.11
1027.11
1027.11
1027.11
1027.11
1027.11
1027.11
1027.11
1027.11
1027.11
1027.11
1027.11
1027.11
1027.11
1027.11
1027.11
1027.11
1027.11
1027.11
1027.11
1027.11
1027.11
1027.11
1027.11
1027.11
1027.11
1027.11
1027.11
1027.11
1027.11
1027.11
1027.11
1027.11
1027.11
1027.11
1027.11
1027.11
1027.11
1027.11
1027.11
1027.11
1027.11
1027.11
1027.11
1027.11
1027.11
1027.11
1027.11
1027.11
1027.11
1027.11
1027.11
1027.11
1027.11
1027.11
1027.11
1027.11
1027.11
1027.11
1027.11
1027.11
1027.11
1027.11
1027.11
1027.11
1027.11
1027.11
1027.11
1027.11
1027.11
1027.11
1027.11
1027.11
1027.11
1027.11
1027.11
1027.11
1027.11
1027.11
1027.11
1027.11
1027.11
1027.11
1027.11
1027.11
1027.11
1027.11
1027.11
1027.11
1027.11
1027.11
1027.11
1027.11
1027.11
1027.11
1027.11
1027.11
1027.11
1027.11
1027.11
1027.11
1027.11
1027.11
1027.11
1027.11
1027.11
1027.11
1027.11
1027.11
1027.11
1027.11
1027.11
1027.11
1027.11
1027.11
1027.11
1027.11
1027.11
1027.11
1027.11
1027.11
1027.11
1027.11
1027.11
1027.11
1027.11
1027.11
1027.11
1027.11
1027.11
1027.11
1027.11
1027.11
1027.11
1027.11
1027.11
1027.11
1027.11
1027.11
1027.11
1027.11
1027.11
1027.11
1027.11
1027.11
1027.11
1027.11
1027.11
1027.11
1027.11
1027.11
1027.11
1027.11
1027.11
1027.11
1027.11
1027.11
1027.11
1027.11
1027.11
1027.11
1027.11
1027.11
1027.11
1027.11
1027.11
1027.11
1027.11
1027.11
1027.11
1027.11
1027.11
1027.11
1027.11
1027.11
1027.11
1027.11
1027.11
1027.11
1027.11
1027.11
1027.11
1027.11
1027.11
1027.11
1027.11
1027.11
1023.42
1023.57
1023.05
1012.37
699.045
703.264
619.943
256.558
285.127
288.441
316.802
150.17
464.085
617.519
823.245
987.397
1021.9
1023.31
1024.5
1024.03
1027.11
1027.11
1027.11
1014.39
339.02
789.443
650.218
841.397
794.061
778.754
820.405
309.932
93.8921
130.039
322.301
935.165
1027.11
1027.11
1027.11
1027.11
1027.11
1027.11
1027.11
1027.06
946.573
771.563
689.595
702.294
650.133
695.461
694.313
719.68
542.109
646.912
736.583
1020.62
1027.11
1027.11
1027.11
1027.11
1027.11