/*--------------------------------*- C++ -*----------------------------------*\
| =========                 |                                                 |
| \\      /  F ield         | OpenFOAM: The Open Source CFD Toolbox           |
|  \\    /   O peration     | Version:  2.3.0                                 |
|   \\  /    A nd           | Web:      www.OpenFOAM.org                      |
|    \\/     M anipulation  |                                                 |
\*---------------------------------------------------------------------------*/
FoamFile
{
    version     2.0;
    format      ascii;
    class       volScalarField;
    location    "0.116";
    object      p_rgh;
}
// * * * * * * * * * * * * * * * * * * * * * * * * * * * * * * * * * * * * * //

dimensions      [1 -1 -2 0 0 0 0];

internalField   nonuniform List<scalar> 
545
(
-9.31617e+07
-1.73531e+07
-2.5221e+06
-3.24694e+06
-1.02027e+07
6.66618e+07
-3.70472e+06
-2.94149e+06
-3.13152e+06
-8.33097e+06
1.16074e+08
3.95927e+06
-643300
-712248
-8.72646e+06
6.7248e+07
-3.91285e+06
-2.38803e+06
-373848
-7.78072e+06
-1.07165e+08
-2.94409e+06
-746806
4.70152e+06
1.35341e+07
-8.64568e+06
-2.24779e+06
-940404
-135057
-895.79
9820.69
-15270.5
-26365
-31905.3
-32311.9
-33378.4
-31396.4
-29803
-26174.6
-24660.4
-20918.1
-19038.5
-15118.4
-13235.4
-8982.22
-7485.76
-4304.38
-3944.39
-1219.39
-1158.83
1457.07
1063.72
2808.91
1106.34
1386.94
-1672.65
-2228.6
-5544.28
-5912.02
-9054.83
-9381.2
-13015
-13518.6
-16806.1
-16179.1
-17478.2
-14463.1
-13716.8
-9392.5
-8077.75
-7.70432e+06
-1.44428e+06
-894737
-277000
-121861
-53382
-40742.6
-35949.9
-34316.5
-33535.5
-32834.9
-31627.9
-29143.9
-26526.8
-23992.2
-21494.7
-18516.5
-15751.5
-12620.7
-9650.03
-6881.26
-5000.28
-3239.58
-1869.81
-374.021
771.55
1901.68
2150.83
1963.26
645.408
-874.765
-3062.19
-4745.54
-6738.87
-8205
-10194.2
-12197.6
-14425.8
-16037.1
-17097.6
-16582
-15269.9
-12530.7
-9142.24
-3042.51
-9.13664e+06
-745408
-530981
-115409
-75342.1
-43461.4
-42122.5
-37418.2
-35547.1
-33523.4
-32898.6
-30870.5
-29218.4
-26013.1
-24188.5
-21138.8
-18958.9
-15443.7
-13107.9
-9408.17
-7448.46
-4680.21
-3643.63
-1354.01
-764.22
1257.03
1503.51
2660.68
1532.62
1090.26
-1401.96
-2629.43
-5270.73
-6275.8
-8715.58
-9651.89
-12746.9
-13933.3
-16570.3
-16548.9
-16984.9
-14603.3
-12678.9
-8500.8
-5808.02
-9.69576e+06
627425
175605
162439
18617.7
-16468
-36365.7
-37274.3
-35367.9
-33765
-32234.4
-30657.6
-28539.1
-26199.1
-23723.3
-21472.5
-18598.5
-15978.7
-12914.4
-10083.2
-7205.44
-5217.29
-3130
-1738.1
-231.632
770.213
2070.47
2162.32
2075.49
507.995
-896.149
-3272.91
-4687.58
-6946.53
-8109.59
-10193.5
-12175.5
-14493.6
-15916.3
-17041
-16239.3
-14972.7
-11676.5
-7854.2
-1324.17
-1.83331e+06
3.71516e+06
1.29484e+06
383333
44208.6
-21248.5
-40078.7
-37745
-36043.5
-33210.1
-32386.6
-29724.4
-28593.1
-25595.6
-24109.9
-20917.2
-19084.2
-15619
-13775.8
-9810.23
-7945.7
-4725.98
-3656.86
-1000.83
-872.842
1395.65
1503.24
2746.44
1443.19
1058.18
-1560.99
-2735.98
-5207.43
-6473.72
-8725.54
-9404.68
-12961.8
-13776.7
-16535.9
-16240.2
-16697.5
-14083
-11691.8
-7318.83
-4979.69
-1.44407e+07
5.70147e+06
2.12937e+06
505173
48886.2
-30408.4
-43968.8
-39981.6
-35353.9
-30472.8
-27019.7
-26719.1
-24629.8
-22755.8
-21696.5
-21002.3
-16018.2
-13615.4
-9541.25
-7868.61
-5184.5
-5326.7
-2390.55
1999.81
4790.97
4009.87
5462.88
5360.53
4651.64
362.191
-757.258
-2289.01
-753.549
-2159.06
-4431.14
-8139.13
-7096.24
-10873.6
-14857.5
-16927.4
-15670.8
-14165.5
-6967.16
-2896.43
3131.99
-1.07164e+08
-2.94316e+06
-744588
4.70475e+06
1.35359e+07
6.72489e+07
-3.91225e+06
-2.38592e+06
-370647
-7.77853e+06
1.16075e+08
3.95969e+06
-641230
-709101
-8.72401e+06
6.66621e+07
-3.70427e+06
-2.93959e+06
-3.12881e+06
-8.32844e+06
-9.31616e+07
-1.73525e+07
-2.52042e+06
-3.24471e+06
-1.02001e+07
-1.83249e+06
3.71524e+06
1.29508e+06
382882
44742.7
-21182.1
-39028.1
-37713.6
-35364.4
-33325.1
-31615.1
-29671.4
-27748.5
-25672.3
-23352.5
-21179.9
-18776.8
-16401.6
-13780.4
-10621.2
-7755.32
-5268.11
-3178.16
-1388.33
-437.79
969.105
1910.04
2246.62
1731.78
409.88
-1238.83
-3232.16
-4750.72
-6848.81
-8311.87
-9902.96
-12620.1
-14195.8
-15963.8
-16502.9
-15979.4
-14271.6
-11078.8
-7770.33
-4687.63
-9.6946e+06
627880
175670
162216
19304.1
-15725.1
-34964.1
-36709.1
-34657.1
-33378.5
-31196.8
-29816.8
-27335.5
-25712.7
-22850.5
-21387.4
-18608.9
-16915.3
-13544
-11111.9
-7487.17
-5658.35
-2843.85
-1898.2
35.3481
530.982
2254.66
1751.34
2000.8
-114.907
-908.248
-3599.66
-4378.25
-7094.84
-7899.77
-10577.9
-12094.5
-14715.8
-15419.3
-16874.4
-15462.5
-14676.7
-11019.3
-7922.39
-1100.24
-9.13512e+06
-744634
-531048
-115331
-74399.9
-42111.1
-40602.5
-36517.9
-34834.7
-32731.7
-31558
-29237.5
-27629.2
-24997.8
-23236.7
-20817.5
-19251.1
-16449.2
-14203.8
-10605.4
-8168.09
-5084.68
-3550.58
-1322.67
-633.36
1181.97
1477.55
2297.28
1121.94
481.223
-1682.74
-2797.73
-5094.19
-6247.6
-8691.89
-9926.72
-12880
-13988.2
-16139
-15995.9
-16105.8
-13879.8
-11953.7
-8244.38
-5695.22
-7.70244e+06
-1.44346e+06
-894566
-276487
-120566
-51700.6
-39211
-34878.5
-33534.2
-32551.3
-31136.8
-29395.2
-27183.5
-25124.8
-22900.7
-21127
-18988.1
-16809.7
-13900.6
-10987.2
-7884.38
-5503.98
-3266.5
-1766.24
-266.251
765.63
1779.25
1745.77
1353.07
-30.4464
-1286.02
-3174.19
-4611.66
-6653.56
-8256.79
-10440
-12423.9
-14444.9
-15614.8
-16311.8
-15523
-14272.2
-11706.2
-8655.67
-2863
-8.64339e+06
-2.24699e+06
-939987
-134213
587.577
11634.3
-13731.8
-25244.4
-31082.8
-31213.3
-31439.8
-28861.1
-27628
-24540.3
-23488
-20580.4
-19592.2
-16171.5
-14529.8
-10358.2
-8622.63
-4914.16
-4061.77
-1109.73
-1042.09
1479.92
903.28
2363.85
407.149
666.858
-2135.19
-2334.67
-5434.17
-5823.61
-9127.46
-9611.45
-13268.7
-13547
-16393.6
-15296.9
-16301.5
-13328.2
-12788.9
-8807.5
-7871.18
)
;

boundaryField
{
    AirInlet
    {
        type            fixedFluxPressure;
        gradient        uniform 2.31274e+08;
        value           uniform -1.44384e+07;
    }
    WaterInlet
    {
        type            fixedFluxPressure;
        gradient        nonuniform List<scalar> 10(0 -0.178587 0 0 -0.0524968 0 0 -0.0927895 -0.312527 -0.182318);
        value           nonuniform List<scalar> 10(-9.31617e+07 6.66618e+07 1.16074e+08 6.7248e+07 -1.07165e+08 -1.07164e+08 6.72489e+07 1.16075e+08 6.66621e+07 -9.31616e+07);
    }
    ChannelWall
    {
        type            fixedFluxPressure;
        gradient        uniform 0;
        value           nonuniform List<scalar> 
110
(
-1.07165e+08
-2.94409e+06
-746806
4.70152e+06
1.35341e+07
-1.07164e+08
-2.94316e+06
-744588
4.70475e+06
1.35359e+07
-9.31616e+07
-1.73525e+07
-2.52042e+06
-3.24471e+06
-1.02001e+07
-8.64339e+06
-2.24699e+06
-939987
-134213
587.577
11634.3
-13731.8
-25244.4
-31082.8
-31213.3
-31439.8
-28861.1
-27628
-24540.3
-23488
-20580.4
-19592.2
-16171.5
-14529.8
-10358.2
-8622.63
-4914.16
-4061.77
-1109.73
-1042.09
1479.92
903.28
2363.85
407.149
666.858
-2135.19
-2334.67
-5434.17
-5823.61
-9127.46
-9611.45
-13268.7
-13547
-16393.6
-15296.9
-16301.5
-13328.2
-12788.9
-8807.5
-7871.18
-9.31617e+07
-1.73531e+07
-2.5221e+06
-3.24694e+06
-1.02027e+07
-8.64568e+06
-2.24779e+06
-940404
-135057
-895.79
9820.69
-15270.5
-26365
-31905.3
-32311.9
-33378.4
-31396.4
-29803
-26174.6
-24660.4
-20918.1
-19038.5
-15118.4
-13235.4
-8982.22
-7485.76
-4304.38
-3944.39
-1219.39
-1158.83
1457.07
1063.72
2808.91
1106.34
1386.94
-1672.65
-2228.6
-5544.28
-5912.02
-9054.83
-9381.2
-13015
-13518.6
-16806.1
-16179.1
-17478.2
-14463.1
-13716.8
-9392.5
-8077.75
)
;
    }
    Outlet
    {
        type            totalPressure;
        rho             rho;
        psi             none;
        gamma           1;
        p0              uniform 0;
        value           uniform 0;
    }
    FrontAndBack
    {
        type            empty;
    }
}


// ************************************************************************* //
