/*--------------------------------*- C++ -*----------------------------------*\
| =========                 |                                                 |
| \\      /  F ield         | OpenFOAM: The Open Source CFD Toolbox           |
|  \\    /   O peration     | Version:  2.3.0                                 |
|   \\  /    A nd           | Web:      www.OpenFOAM.org                      |
|    \\/     M anipulation  |                                                 |
\*---------------------------------------------------------------------------*/
FoamFile
{
    version     2.0;
    format      ascii;
    class       volVectorField;
    location    "72";
    object      U.air;
}
// * * * * * * * * * * * * * * * * * * * * * * * * * * * * * * * * * * * * * //

dimensions      [0 1 -1 0 0 0 0];

internalField   nonuniform List<vector> 
1875
(
(0.00665653 0.11425 0)
(0.020342 0.108397 0)
(0.0645536 0.105491 0)
(0.108746 0.106227 0)
(0.149549 0.110777 0)
(0.185553 0.11754 0)
(0.215476 0.125037 0)
(0.238999 0.1323 0)
(0.256126 0.138827 0)
(0.267 0.144624 0)
(0.271616 0.149808 0)
(0.270526 0.155369 0)
(0.263901 0.160587 0)
(0.250548 0.163765 0)
(0.230042 0.165152 0)
(0.203873 0.168402 0)
(0.174349 0.172737 0)
(0.144092 0.176609 0)
(0.115454 0.177171 0)
(0.0904503 0.174948 0)
(0.070697 0.171038 0)
(0.0559772 0.166083 0)
(0.0445968 0.158902 0)
(0.0165148 0.155269 0)
(0.00716329 0.154298 0)
(0.0253785 0.211086 0)
(0.0509605 0.206921 0)
(0.0946118 0.207027 0)
(0.127536 0.211975 0)
(0.157116 0.218908 0)
(0.18331 0.227137 0)
(0.205846 0.236465 0)
(0.224344 0.246835 0)
(0.238461 0.258349 0)
(0.247765 0.27104 0)
(0.251688 0.284965 0)
(0.249008 0.299525 0)
(0.240912 0.314397 0)
(0.228937 0.329961 0)
(0.212903 0.345825 0)
(0.192802 0.359002 0)
(0.170499 0.368089 0)
(0.147669 0.372748 0)
(0.122822 0.374379 0)
(0.0985503 0.37318 0)
(0.0750283 0.370004 0)
(0.053061 0.366991 0)
(0.0312253 0.3691 0)
(0.0105385 0.371163 0)
(0.00383333 0.370039 0)
(0.0219956 0.090005 0)
(0.0578856 0.0975453 0)
(0.0958148 0.107683 0)
(0.122698 0.120085 0)
(0.144701 0.134315 0)
(0.16305 0.150156 0)
(0.177963 0.167314 0)
(0.18929 0.185587 0)
(0.196846 0.204694 0)
(0.200562 0.224527 0)
(0.201294 0.24506 0)
(0.199335 0.266441 0)
(0.193197 0.288854 0)
(0.182805 0.31164 0)
(0.169514 0.333908 0)
(0.153243 0.353794 0)
(0.133149 0.368581 0)
(0.110745 0.37653 0)
(0.0892898 0.379684 0)
(0.0689784 0.377669 0)
(0.050682 0.372669 0)
(0.034726 0.367773 0)
(0.0221699 0.367942 0)
(0.00920636 0.366313 0)
(0.00465591 0.361892 0)
(0.0198285 0.0607521 0)
(0.0562814 0.0727387 0)
(0.0752829 0.0868387 0)
(0.0915767 0.102628 0)
(0.106431 0.120678 0)
(0.118399 0.140886 0)
(0.126822 0.162892 0)
(0.131342 0.186387 0)
(0.132158 0.210881 0)
(0.13004 0.236192 0)
(0.124941 0.262289 0)
(0.117582 0.288928 0)
(0.108456 0.315601 0)
(0.097832 0.342433 0)
(0.0860814 0.368384 0)
(0.0734165 0.391858 0)
(0.0594307 0.410193 0)
(0.0461803 0.421681 0)
(0.0350346 0.425039 0)
(0.0251826 0.421205 0)
(0.01763 0.412831 0)
(0.0115336 0.403651 0)
(0.00689495 0.395426 0)
(0.00138466 0.38947 0)
(0.000738171 0.382731 0)
(0.0157596 0.0332165 0)
(0.0408857 0.0439071 0)
(0.0413847 0.0588814 0)
(0.0485835 0.0765541 0)
(0.05763 0.0973595 0)
(0.0631462 0.120934 0)
(0.0646652 0.146648 0)
(0.0625852 0.173945 0)
(0.0574888 0.202386 0)
(0.0500324 0.23146 0)
(0.0407191 0.260982 0)
(0.0298556 0.290829 0)
(0.0177391 0.32097 0)
(0.00499347 0.350818 0)
(-0.00744175 0.37907 0)
(-0.0179436 0.403496 0)
(-0.0246724 0.422485 0)
(-0.0273451 0.432696 0)
(-0.0271387 0.432886 0)
(-0.0243034 0.425509 0)
(-0.0197892 0.414659 0)
(-0.0150538 0.403378 0)
(-0.0101918 0.394056 0)
(-0.00419851 0.38787 0)
(-0.00147898 0.381804 0)
(0.0146979 0.0210814 0)
(0.026318 0.033009 0)
(0.00950055 0.0495991 0)
(0.00961793 0.0692447 0)
(0.0112538 0.0928496 0)
(0.00749885 0.119435 0)
(-3.14397e-05 0.148245 0)
(-0.00981998 0.178524 0)
(-0.0212773 0.209423 0)
(-0.0341034 0.240443 0)
(-0.0478958 0.271355 0)
(-0.0620964 0.301989 0)
(-0.0759051 0.331963 0)
(-0.0880604 0.360429 0)
(-0.0965981 0.385877 0)
(-0.0996624 0.406701 0)
(-0.0965752 0.419706 0)
(-0.0887379 0.423742 0)
(-0.0775146 0.420841 0)
(-0.0637144 0.41186 0)
(-0.049541 0.39988 0)
(-0.0365553 0.388274 0)
(-0.0244306 0.37897 0)
(-0.00898059 0.372743 0)
(-0.0033572 0.367202 0)
(0.0128568 0.025687 0)
(0.0150347 0.0382325 0)
(-0.0171757 0.0566135 0)
(-0.0242654 0.0782134 0)
(-0.0327976 0.103443 0)
(-0.0469891 0.131645 0)
(-0.0631596 0.161855 0)
(-0.0804288 0.192871 0)
(-0.0980785 0.223651 0)
(-0.115488 0.253751 0)
(-0.13182 0.282972 0)
(-0.145887 0.310672 0)
(-0.156371 0.336311 0)
(-0.161843 0.359108 0)
(-0.161227 0.377991 0)
(-0.154269 0.391168 0)
(-0.141781 0.397469 0)
(-0.125109 0.396943 0)
(-0.105396 0.39067 0)
(-0.0846883 0.380517 0)
(-0.0652136 0.369118 0)
(-0.0477523 0.358677 0)
(-0.0312987 0.35047 0)
(-0.0111103 0.343717 0)
(-0.00425137 0.339199 0)
(0.0109232 0.0496019 0)
(0.00554346 0.0627217 0)
(-0.0391311 0.0824977 0)
(-0.0541529 0.104751 0)
(-0.0737078 0.130854 0)
(-0.0961028 0.15966 0)
(-0.118356 0.189297 0)
(-0.140447 0.218319 0)
(-0.16081 0.245884 0)
(-0.177994 0.270808 0)
(-0.191261 0.292603 0)
(-0.199682 0.313285 0)
(-0.20224 0.331823 0)
(-0.198595 0.347222 0)
(-0.18921 0.357347 0)
(-0.174463 0.362588 0)
(-0.15526 0.362855 0)
(-0.132917 0.358631 0)
(-0.109405 0.35112 0)
(-0.0867264 0.3418 0)
(-0.0661908 0.332469 0)
(-0.0477441 0.324529 0)
(-0.0302828 0.31894 0)
(-0.0100851 0.316096 0)
(-0.00380202 0.314668 0)
(0.00545653 0.0885685 0)
(-0.00705586 0.101606 0)
(-0.0572253 0.122542 0)
(-0.0789322 0.145293 0)
(-0.105037 0.171586 0)
(-0.129933 0.199177 0)
(-0.153141 0.2254 0)
(-0.173993 0.248871 0)
(-0.19118 0.267942 0)
(-0.204257 0.283627 0)
(-0.211667 0.300263 0)
(-0.2134 0.31281 0)
(-0.209395 0.320349 0)
(-0.200434 0.325637 0)
(-0.185397 0.327592 0)
(-0.166232 0.326557 0)
(-0.143874 0.322849 0)
(-0.120322 0.317 0)
(-0.0973361 0.309982 0)
(-0.0761387 0.302781 0)
(-0.0572025 0.296456 0)
(-0.0402448 0.291846 0)
(-0.0245443 0.289779 0)
(-0.00757864 0.290861 0)
(-0.00281032 0.292974 0)
(-0.00100569 0.136698 0)
(-0.0180418 0.151867 0)
(-0.0690183 0.173572 0)
(-0.0932517 0.196285 0)
(-0.119589 0.221616 0)
(-0.14239 0.245685 0)
(-0.162671 0.266199 0)
(-0.179322 0.28246 0)
(-0.192573 0.296557 0)
(-0.200358 0.3067 0)
(-0.203704 0.308108 0)
(-0.202558 0.305832 0)
(-0.194602 0.304126 0)
(-0.180793 0.298942 0)
(-0.163718 0.294557 0)
(-0.143367 0.289191 0)
(-0.121667 0.283284 0)
(-0.100052 0.277291 0)
(-0.0796241 0.271818 0)
(-0.0609898 0.267418 0)
(-0.0443496 0.264634 0)
(-0.0296673 0.263998 0)
(-0.0169247 0.266201 0)
(-0.00458416 0.271805 0)
(-0.00174368 0.278231 0)
(-0.00494545 0.190169 0)
(-0.0223109 0.207368 0)
(-0.0703551 0.229438 0)
(-0.0931956 0.251201 0)
(-0.116507 0.273549 0)
(-0.13604 0.292094 0)
(-0.15322 0.304977 0)
(-0.167418 0.311438 0)
(-0.178146 0.311002 0)
(-0.184352 0.306165 0)
(-0.184343 0.299383 0)
(-0.178277 0.290686 0)
(-0.168543 0.281114 0)
(-0.15491 0.272459 0)
(-0.138652 0.26338 0)
(-0.120613 0.255151 0)
(-0.102021 0.248026 0)
(-0.0836695 0.242325 0)
(-0.0661272 0.238374 0)
(-0.0497494 0.236498 0)
(-0.0347934 0.237063 0)
(-0.0216189 0.240548 0)
(-0.0108205 0.247547 0)
(-0.00165741 0.2585 0)
(-0.000129577 0.26986 0)
(-0.0056945 0.243132 0)
(-0.0203704 0.261879 0)
(-0.0634611 0.283596 0)
(-0.083854 0.303039 0)
(-0.103865 0.320924 0)
(-0.120603 0.33324 0)
(-0.135296 0.33841 0)
(-0.147356 0.335979 0)
(-0.155725 0.326771 0)
(-0.159339 0.312041 0)
(-0.158135 0.296043 0)
(-0.152823 0.280324 0)
(-0.144283 0.264751 0)
(-0.133086 0.250582 0)
(-0.120181 0.238186 0)
(-0.106252 0.22773 0)
(-0.0917869 0.219334 0)
(-0.0770726 0.213142 0)
(-0.062329 0.209384 0)
(-0.0477757 0.208392 0)
(-0.0337192 0.210673 0)
(-0.0206299 0.216914 0)
(-0.00874538 0.227953 0)
(0.00191173 0.244861 0)
(0.00240996 0.264029 0)
(-0.00458229 0.29089 0)
(-0.0156522 0.310794 0)
(-0.0539275 0.331449 0)
(-0.0720604 0.347726 0)
(-0.0887487 0.361042 0)
(-0.102767 0.367568 0)
(-0.115069 0.365869 0)
(-0.124866 0.355612 0)
(-0.131019 0.338476 0)
(-0.13339 0.317183 0)
(-0.132608 0.294651 0)
(-0.129161 0.272981 0)
(-0.1236 0.253212 0)
(-0.116566 0.235791 0)
(-0.108556 0.2208 0)
(-0.0997741 0.208186 0)
(-0.090257 0.197917 0)
(-0.0799508 0.190022 0)
(-0.0688306 0.184714 0)
(-0.056897 0.182486 0)
(-0.0443549 0.184065 0)
(-0.0312807 0.190528 0)
(-0.0170421 0.203509 0)
(-0.00347661 0.225058 0)
(-0.0019321 0.250106 0)
(-0.00345614 0.331306 0)
(-0.011254 0.351273 0)
(-0.0429905 0.370348 0)
(-0.0575254 0.38408 0)
(-0.0710516 0.393337 0)
(-0.0824069 0.395178 0)
(-0.0922671 0.388036 0)
(-0.0997712 0.371894 0)
(-0.1044 0.348975 0)
(-0.106751 0.322649 0)
(-0.107435 0.295991 0)
(-0.106928 0.270965 0)
(-0.105568 0.248382 0)
(-0.103448 0.228464 0)
(-0.100485 0.211124 0)
(-0.0966043 0.196141 0)
(-0.0917422 0.183336 0)
(-0.085782 0.172959 0)
(-0.0785579 0.165396 0)
(-0.0700078 0.160616 0)
(-0.0599294 0.159494 0)
(-0.0476886 0.163483 0)
(-0.0337664 0.174668 0)
(-0.0165843 0.193837 0)
(-0.0106748 0.216404 0)
(-0.00252326 0.36301 0)
(-0.00696849 0.382672 0)
(-0.0292381 0.400447 0)
(-0.0392564 0.411281 0)
(-0.0495704 0.417509 0)
(-0.0581851 0.416092 0)
(-0.065599 0.405179 0)
(-0.0711638 0.385131 0)
(-0.0752665 0.35869 0)
(-0.0787871 0.329524 0)
(-0.0820364 0.300511 0)
(-0.0849531 0.273311 0)
(-0.0873922 0.248726 0)
(-0.0891642 0.226882 0)
(-0.0900044 0.207631 0)
(-0.0896989 0.19078 0)
(-0.0881919 0.176195 0)
(-0.0856739 0.163618 0)
(-0.0821629 0.153048 0)
(-0.0771274 0.145074 0)
(-0.0703223 0.140394 0)
(-0.061631 0.14003 0)
(-0.0513767 0.144534 0)
(-0.0295468 0.155264 0)
(-0.016449 0.167264 0)
(-0.000753876 0.381002 0)
(-0.00186793 0.400374 0)
(-0.0140463 0.419625 0)
(-0.0193325 0.429528 0)
(-0.0252864 0.434009 0)
(-0.0304337 0.430319 0)
(-0.0351832 0.417573 0)
(-0.0396833 0.395675 0)
(-0.0442777 0.367735 0)
(-0.0494015 0.33731 0)
(-0.0549392 0.307132 0)
(-0.0603393 0.278815 0)
(-0.065152 0.252982 0)
(-0.069229 0.229736 0)
(-0.072454 0.208927 0)
(-0.0747366 0.190455 0)
(-0.075945 0.174257 0)
(-0.0758664 0.160037 0)
(-0.0744992 0.147473 0)
(-0.0724908 0.13733 0)
(-0.069956 0.129262 0)
(-0.0669557 0.123094 0)
(-0.0611293 0.119177 0)
(-0.040601 0.117158 0)
(-0.0182489 0.115663 0)
(0.000797173 0.389705 0)
(0.00342378 0.409132 0)
(0.00113402 0.426472 0)
(0.00138086 0.436192 0)
(0.000395232 0.44044 0)
(-0.000552701 0.436838 0)
(-0.0025335 0.424298 0)
(-0.00620133 0.403194 0)
(-0.0113407 0.375723 0)
(-0.0175018 0.345596 0)
(-0.0241476 0.315368 0)
(-0.0308032 0.286549 0)
(-0.0370877 0.259844 0)
(-0.04272 0.235403 0)
(-0.0474984 0.213155 0)
(-0.0512336 0.192964 0)
(-0.0538381 0.174782 0)
(-0.0553758 0.15885 0)
(-0.0560568 0.145368 0)
(-0.056322 0.133406 0)
(-0.0560062 0.122492 0)
(-0.0543814 0.112257 0)
(-0.0521407 0.102645 0)
(-0.0424597 0.0921099 0)
(-0.0166287 0.0821701 0)
(0.00179948 0.385712 0)
(0.00759545 0.404507 0)
(0.0168231 0.420824 0)
(0.0219683 0.431984 0)
(0.0258929 0.437604 0)
(0.0294091 0.436367 0)
(0.0306466 0.426428 0)
(0.0287904 0.40737 0)
(0.023951 0.382431 0)
(0.0173154 0.353988 0)
(0.00987593 0.324583 0)
(0.00224624 0.2958 0)
(-0.00512742 0.2685 0)
(-0.0119338 0.242997 0)
(-0.0179534 0.219361 0)
(-0.0229732 0.197618 0)
(-0.0268879 0.177857 0)
(-0.02974 0.160135 0)
(-0.0318509 0.144298 0)
(-0.0332107 0.12993 0)
(-0.0328304 0.116619 0)
(-0.0296895 0.103868 0)
(-0.0276447 0.0909667 0)
(-0.0306081 0.0774468 0)
(-0.0133579 0.0655002 0)
(0.00186187 0.367508 0)
(0.0109654 0.384306 0)
(0.0310154 0.403308 0)
(0.0410716 0.417012 0)
(0.0496008 0.425381 0)
(0.0569785 0.426993 0)
(0.0620536 0.421244 0)
(0.0633185 0.407652 0)
(0.0600146 0.386941 0)
(0.0534483 0.361825 0)
(0.0452944 0.334492 0)
(0.0366765 0.306614 0)
(0.0281908 0.2793 0)
(0.020175 0.253098 0)
(0.0127975 0.228265 0)
(0.00620333 0.204981 0)
(0.000568817 0.18344 0)
(-0.00402435 0.163792 0)
(-0.00756939 0.145925 0)
(-0.00972718 0.129556 0)
(-0.0102938 0.114196 0)
(-0.00829668 0.0993017 0)
(-0.00397385 0.0842216 0)
(-0.013283 0.0682253 0)
(-0.00970347 0.0555595 0)
(0.00145536 0.340617 0)
(0.0123534 0.356067 0)
(0.0403374 0.376086 0)
(0.0555598 0.392695 0)
(0.0682083 0.404534 0)
(0.0792075 0.410533 0)
(0.0877406 0.409993 0)
(0.0927404 0.402214 0)
(0.0929095 0.38796 0)
(0.0882386 0.368151 0)
(0.0801643 0.344446 0)
(0.0704652 0.319017 0)
(0.0605287 0.29281 0)
(0.0509982 0.266623 0)
(0.0420843 0.241043 0)
(0.0338101 0.216483 0)
(0.0263139 0.193325 0)
(0.0198273 0.171824 0)
(0.0146946 0.152038 0)
(0.0111294 0.133724 0)
(0.00866396 0.116502 0)
(0.00751223 0.100415 0)
(0.00868281 0.0848654 0)
(-0.00271583 0.0671805 0)
(-0.00460038 0.0535633 0)
(0.00106833 0.311681 0)
(0.0114877 0.324807 0)
(0.043385 0.342444 0)
(0.0636507 0.360818 0)
(0.0798584 0.376267 0)
(0.0939105 0.386945 0)
(0.10543 0.392116 0)
(0.113774 0.391353 0)
(0.117815 0.382857 0)
(0.116927 0.369828 0)
(0.11147 0.353789 0)
(0.102116 0.33253 0)
(0.0903653 0.308676 0)
(0.078656 0.283657 0)
(0.0677683 0.258094 0)
(0.0577466 0.232718 0)
(0.0485598 0.208178 0)
(0.0403783 0.184973 0)
(0.0335162 0.163367 0)
(0.0280233 0.143298 0)
(0.023374 0.124728 0)
(0.0189444 0.107833 0)
(0.0165179 0.0925905 0)
(0.0030186 0.075671 0)
(-0.00105495 0.0607145 0)
(0.00065309 0.281562 0)
(0.00882743 0.291335 0)
(0.040324 0.306223 0)
(0.0642309 0.324425 0)
(0.0837748 0.342449 0)
(0.100398 0.357513 0)
(0.114444 0.368292 0)
(0.125223 0.373951 0)
(0.132918 0.376105 0)
(0.135663 0.369477 0)
(0.133872 0.354461 0)
(0.126984 0.341594 0)
(0.116113 0.324604 0)
(0.102666 0.302489 0)
(0.0891407 0.278198 0)
(0.0768386 0.252866 0)
(0.065851 0.227484 0)
(0.0561024 0.202872 0)
(0.0476127 0.179616 0)
(0.0403005 0.158061 0)
(0.0338013 0.138444 0)
(0.0271037 0.121139 0)
(0.0216017 0.106374 0)
(0.00642374 0.09078 0)
(0.00176156 0.0749119 0)
(-0.000555125 0.255688 0)
(0.00408901 0.260596 0)
(0.0317263 0.271357 0)
(0.0567892 0.287355 0)
(0.0792195 0.305944 0)
(0.0984673 0.32419 0)
(0.114622 0.339974 0)
(0.12742 0.352115 0)
(0.136695 0.358699 0)
(0.14193 0.36299 0)
(0.142588 0.363194 0)
(0.139675 0.351967 0)
(0.132148 0.336734 0)
(0.121125 0.320754 0)
(0.107112 0.299539 0)
(0.0924818 0.27554 0)
(0.0789555 0.250132 0)
(0.0671424 0.224602 0)
(0.0569882 0.199996 0)
(0.0481105 0.177135 0)
(0.0401955 0.156599 0)
(0.0320346 0.138966 0)
(0.0243081 0.12443 0)
(0.00692777 0.110065 0)
(0.00253535 0.0945651 0)
(-0.00358232 0.234777 0)
(-0.00263508 0.232499 0)
(0.0201475 0.238533 0)
(0.0431214 0.251299 0)
(0.0668508 0.269028 0)
(0.0884845 0.289204 0)
(0.106714 0.309345 0)
(0.121185 0.327505 0)
(0.131269 0.342122 0)
(0.137859 0.354203 0)
(0.140132 0.35932 0)
(0.138737 0.360205 0)
(0.13553 0.353678 0)
(0.127855 0.338044 0)
(0.117056 0.321047 0)
(0.103198 0.299466 0)
(0.088312 0.27493 0)
(0.0743413 0.249069 0)
(0.0622359 0.223415 0)
(0.0518695 0.199295 0)
(0.0428126 0.177801 0)
(0.0337652 0.159675 0)
(0.0249749 0.145187 0)
(0.00631794 0.131592 0)
(0.00230504 0.117044 0)
(-0.00200176 0.218624 0)
(-0.00237172 0.210028 0)
(0.013727 0.209641 0)
(0.0313075 0.218579 0)
(0.0523364 0.234482 0)
(0.073921 0.255249 0)
(0.0931979 0.278602 0)
(0.108785 0.302164 0)
(0.120041 0.32377 0)
(0.126839 0.340318 0)
(0.129931 0.353027 0)
(0.129992 0.361154 0)
(0.126933 0.360823 0)
(0.121904 0.355788 0)
(0.114195 0.342079 0)
(0.103763 0.32334 0)
(0.0907959 0.300285 0)
(0.0767981 0.274643 0)
(0.0635676 0.248268 0)
(0.0520167 0.222995 0)
(0.0421593 0.200358 0)
(0.0328533 0.181587 0)
(0.024036 0.166887 0)
(0.00574557 0.153601 0)
(0.00196652 0.139917 0)
(0.00230207 0.206237 0)
(0.00257491 0.191889 0)
(0.0133634 0.186758 0)
(0.0252668 0.192123 0)
(0.0401222 0.205725 0)
(0.057787 0.225821 0)
(0.0754801 0.250661 0)
(0.0907618 0.278034 0)
(0.102278 0.305289 0)
(0.109492 0.329841 0)
(0.112277 0.349068 0)
(0.111927 0.360839 0)
(0.109552 0.368412 0)
(0.105736 0.367344 0)
(0.100123 0.358904 0)
(0.0928045 0.344101 0)
(0.0835533 0.323526 0)
(0.0722908 0.298756 0)
(0.0602055 0.272159 0)
(0.0486997 0.246003 0)
(0.0386491 0.222316 0)
(0.0297627 0.202679 0)
(0.0217433 0.187648 0)
(0.00514008 0.174319 0)
(0.00167845 0.161106 0)
(0.00413474 0.192897 0)
(0.00498113 0.177683 0)
(0.0129149 0.169435 0)
(0.0218691 0.171802 0)
(0.0313463 0.183364 0)
(0.0430189 0.202618 0)
(0.0562665 0.227905 0)
(0.0689862 0.2575 0)
(0.0792128 0.28886 0)
(0.0861115 0.318923 0)
(0.0885763 0.344645 0)
(0.0878483 0.362809 0)
(0.0860163 0.372663 0)
(0.0829075 0.376212 0)
(0.0790758 0.37269 0)
(0.0742393 0.360524 0)
(0.0684545 0.342102 0)
(0.0611366 0.31883 0)
(0.0521464 0.292664 0)
(0.0424103 0.266115 0)
(0.0331414 0.241632 0)
(0.0252617 0.221325 0)
(0.018425 0.206026 0)
(0.00424992 0.192414 0)
(0.00134057 0.179405 0)
(0.00569454 0.175722 0)
(0.00756317 0.163395 0)
(0.0123784 0.15534 0)
(0.0191741 0.156666 0)
(0.0251622 0.167286 0)
(0.0314688 0.185946 0)
(0.0388859 0.211569 0)
(0.0469781 0.242528 0)
(0.0541665 0.276564 0)
(0.0593004 0.310506 0)
(0.060687 0.340735 0)
(0.0596722 0.362735 0)
(0.0584585 0.37643 0)
(0.0565796 0.381975 0)
(0.0544253 0.380097 0)
(0.0519187 0.37084 0)
(0.0490568 0.354656 0)
(0.0454465 0.33308 0)
(0.040351 0.307948 0)
(0.033739 0.281689 0)
(0.0266298 0.256992 0)
(0.0207216 0.23651 0)
(0.0146706 0.221625 0)
(0.00277986 0.207347 0)
(0.000866691 0.194319 0)
(0.00788839 0.15703 0)
(0.0135959 0.150295 0)
(0.0140294 0.145548 0)
(0.0150298 0.147951 0)
(0.0187349 0.157828 0)
(0.0216618 0.176241 0)
(0.024325 0.202092 0)
(0.027178 0.233953 0)
(0.0296788 0.269552 0)
(0.0311267 0.305625 0)
(0.0309464 0.338067 0)
(0.0302936 0.362278 0)
(0.029904 0.377603 0)
(0.0294458 0.384568 0)
(0.0291187 0.38382 0)
(0.0289326 0.375746 0)
(0.0287145 0.360767 0)
(0.0281443 0.340688 0)
(0.0267362 0.316794 0)
(0.0240524 0.291294 0)
(0.0205494 0.266983 0)
(0.0180954 0.246869 0)
(0.0111331 0.232927 0)
(4.99388e-05 0.217649 0)
(6.24906e-05 0.204509 0)
(0.00970209 0.138154 0)
(0.0204933 0.138858 0)
(0.0160011 0.139908 0)
(0.0104401 0.143159 0)
(0.0112734 0.154151 0)
(0.0117783 0.173007 0)
(0.0110329 0.199169 0)
(0.00947943 0.231467 0)
(0.00727691 0.267666 0)
(0.00455045 0.304308 0)
(0.00294239 0.337026 0)
(0.00288919 0.36118 0)
(0.00329538 0.376355 0)
(0.00424106 0.383197 0)
(0.00568129 0.382499 0)
(0.00760274 0.374854 0)
(0.00969047 0.360889 0)
(0.011512 0.341831 0)
(0.0128159 0.319221 0)
(0.0133355 0.294922 0)
(0.0130542 0.271548 0)
(0.0127633 0.252311 0)
(0.00719815 0.237508 0)
(-0.000788782 0.223356 0)
(-0.000308708 0.210003 0)
(0.0105094 0.125551 0)
(0.0209592 0.134841 0)
(0.0134566 0.139039 0)
(0.00752593 0.14442 0)
(0.00496125 0.156338 0)
(0.00247405 0.176044 0)
(-0.00146981 0.202768 0)
(-0.00665259 0.235234 0)
(-0.0125851 0.270996 0)
(-0.0181779 0.306362 0)
(-0.0205539 0.337267 0)
(-0.0200794 0.359651 0)
(-0.0189594 0.373588 0)
(-0.0168953 0.379529 0)
(-0.013939 0.378151 0)
(-0.0103721 0.370147 0)
(-0.00656462 0.356434 0)
(-0.00296826 0.338171 0)
(0.000148794 0.316762 0)
(0.00259851 0.293899 0)
(0.0042212 0.271991 0)
(0.00433832 0.25405 0)
(0.00254188 0.240604 0)
(0.000312814 0.224384 0)
(0.000117581 0.211387 0)
(0.010307 0.124517 0)
(0.0174424 0.134979 0)
(0.00644213 0.142195 0)
(0.00379362 0.150213 0)
(-0.000626649 0.163765 0)
(-0.00610305 0.18457 0)
(-0.0132417 0.211894 0)
(-0.0219015 0.243999 0)
(-0.0306173 0.278136 0)
(-0.0370238 0.310665 0)
(-0.0389733 0.338154 0)
(-0.0379616 0.357676 0)
(-0.0359672 0.36973 0)
(-0.0327781 0.373823 0)
(-0.0285775 0.370777 0)
(-0.0237951 0.362205 0)
(-0.0187563 0.348571 0)
(-0.0138969 0.331008 0)
(-0.00942265 0.310781 0)
(-0.00541463 0.289493 0)
(-0.00223102 0.269399 0)
(-0.0014227 0.253081 0)
(-0.00181363 0.241199 0)
(0.000373622 0.22586 0)
(0.00104388 0.213009 0)
(0.00754651 0.12817 0)
(0.0109658 0.137508 0)
(-0.000940185 0.148995 0)
(-0.00286841 0.159268 0)
(-0.00782525 0.174689 0)
(-0.0157971 0.196723 0)
(-0.0259942 0.224242 0)
(-0.0369984 0.255177 0)
(-0.0460663 0.286688 0)
(-0.0510069 0.315501 0)
(-0.051681 0.338579 0)
(-0.0501132 0.35402 0)
(-0.0473746 0.362558 0)
(-0.0432988 0.364829 0)
(-0.038273 0.361203 0)
(-0.0326485 0.351951 0)
(-0.0268502 0.338323 0)
(-0.021187 0.321349 0)
(-0.0157726 0.302222 0)
(-0.0105861 0.282499 0)
(-0.00642277 0.264266 0)
(-0.00536533 0.249473 0)
(-0.00532 0.238052 0)
(0.000267808 0.224535 0)
(0.00187563 0.211767 0)
(0.00303383 0.133199 0)
(0.00365611 0.145642 0)
(-0.00671284 0.158293 0)
(-0.00852838 0.170527 0)
(-0.015457 0.187684 0)
(-0.0264329 0.210636 0)
(-0.038763 0.237741 0)
(-0.0494963 0.266808 0)
(-0.0564743 0.294908 0)
(-0.0591658 0.318463 0)
(-0.058831 0.336322 0)
(-0.0568366 0.350268 0)
(-0.0535036 0.355935 0)
(-0.048901 0.355621 0)
(-0.0433857 0.350305 0)
(-0.0373216 0.34036 0)
(-0.0311367 0.326682 0)
(-0.0250064 0.310227 0)
(-0.0189699 0.292158 0)
(-0.0130912 0.274017 0)
(-0.00851415 0.257524 0)
(-0.00751071 0.244175 0)
(-0.00742817 0.233368 0)
(0.000317226 0.218165 0)
(0.00267872 0.205927 0)
(0.00107698 0.142911 0)
(0.000178818 0.156257 0)
(-0.0105587 0.169914 0)
(-0.0137095 0.183467 0)
(-0.0236993 0.202089 0)
(-0.037015 0.225184 0)
(-0.0486337 0.251221 0)
(-0.056638 0.277634 0)
(-0.0607206 0.301667 0)
(-0.0619723 0.320411 0)
(-0.0613331 0.336018 0)
(-0.0590617 0.344159 0)
(-0.0551884 0.347263 0)
(-0.0503017 0.345437 0)
(-0.0445824 0.338777 0)
(-0.0384584 0.32817 0)
(-0.0321948 0.314409 0)
(-0.0258611 0.298416 0)
(-0.0194846 0.281381 0)
(-0.0134679 0.264814 0)
(-0.00892238 0.250108 0)
(-0.00792693 0.238194 0)
(-0.00765168 0.22746 0)
(0.000656499 0.212385 0)
(0.00299639 0.200715 0)
(0.00102354 0.155614 0)
(-0.000429582 0.169436 0)
(-0.0136268 0.183304 0)
(-0.0196808 0.197862 0)
(-0.0320038 0.216908 0)
(-0.0446776 0.239589 0)
(-0.0532406 0.263741 0)
(-0.0582976 0.286746 0)
(-0.0604847 0.306697 0)
(-0.0606955 0.324626 0)
(-0.0598321 0.334739 0)
(-0.0570066 0.3378 0)
(-0.0532439 0.339017 0)
(-0.0483301 0.335156 0)
(-0.042786 0.327284 0)
(-0.0369078 0.316026 0)
(-0.0308129 0.302125 0)
(-0.0244909 0.28652 0)
(-0.018058 0.270455 0)
(-0.0123375 0.255356 0)
(-0.00822265 0.242325 0)
(-0.00705044 0.231672 0)
(-0.00613194 0.221597 0)
(0.000406946 0.207528 0)
(0.00190071 0.196104 0)
(0.00185863 0.170235 0)
(-0.00103674 0.184223 0)
(-0.0174913 0.197679 0)
(-0.025931 0.212698 0)
(-0.0379876 0.23158 0)
(-0.0473121 0.253141 0)
(-0.0528633 0.274501 0)
(-0.0561311 0.293769 0)
(-0.0574175 0.30979 0)
(-0.0574163 0.322697 0)
(-0.0552868 0.329294 0)
(-0.0523598 0.332862 0)
(-0.0486305 0.330812 0)
(-0.0440548 0.325388 0)
(-0.0390066 0.316414 0)
(-0.0336378 0.304497 0)
(-0.0279291 0.290388 0)
(-0.0218679 0.2751 0)
(-0.0157789 0.25993 0)
(-0.0106302 0.246151 0)
(-0.00707953 0.234729 0)
(-0.00559967 0.225425 0)
(-0.00387512 0.215672 0)
(-0.000410055 0.202497 0)
(4.62842e-05 0.191753 0)
(0.00220664 0.184781 0)
(-0.00231629 0.197995 0)
(-0.0206171 0.211828 0)
(-0.02963 0.226829 0)
(-0.0393601 0.245185 0)
(-0.0451363 0.264674 0)
(-0.0487281 0.282944 0)
(-0.0508432 0.298842 0)
(-0.0515474 0.311427 0)
(-0.050967 0.318645 0)
(-0.0490592 0.324425 0)
(-0.0463924 0.326266 0)
(-0.042826 0.323276 0)
(-0.0387595 0.316503 0)
(-0.0343534 0.306554 0)
(-0.0296072 0.294001 0)
(-0.0244017 0.279653 0)
(-0.0188047 0.264628 0)
(-0.0133457 0.250257 0)
(-0.00879571 0.237723 0)
(-0.00551841 0.227706 0)
(-0.00342973 0.219764 0)
(-0.000736389 0.211249 0)
(-0.00069026 0.199231 0)
(-0.00169871 0.188637 0)
(0.000467819 0.198832 0)
(-0.00331695 0.211046 0)
(-0.0193976 0.22548 0)
(-0.0284232 0.23997 0)
(-0.0359157 0.25701 0)
(-0.0397717 0.273923 0)
(-0.0424185 0.289336 0)
(-0.0438682 0.30244 0)
(-0.0441439 0.312547 0)
(-0.0434722 0.319446 0)
(-0.0419928 0.322168 0)
(-0.0395698 0.320976 0)
(-0.0364794 0.31655 0)
(-0.0330683 0.308671 0)
(-0.0293965 0.297861 0)
(-0.0253109 0.284717 0)
(-0.0206902 0.270116 0)
(-0.0156975 0.255286 0)
(-0.0109258 0.24157 0)
(-0.00684768 0.230064 0)
(-0.00361932 0.221284 0)
(-0.0013146 0.214583 0)
(0.00257148 0.206576 0)
(-0.000256245 0.195883 0)
(-0.00330977 0.185413 0)
(-0.000973304 0.212395 0)
(-0.00351896 0.225281 0)
(-0.016387 0.238421 0)
(-0.0243906 0.251988 0)
(-0.0301528 0.267085 0)
(-0.0332309 0.281493 0)
(-0.0353806 0.294419 0)
(-0.036463 0.305082 0)
(-0.0365824 0.312948 0)
(-0.0358266 0.317984 0)
(-0.0343868 0.319195 0)
(-0.0323059 0.316542 0)
(-0.0298941 0.310891 0)
(-0.0272942 0.302109 0)
(-0.0244273 0.290594 0)
(-0.0210981 0.276925 0)
(-0.0172236 0.262082 0)
(-0.0130515 0.247392 0)
(-0.009144 0.23419 0)
(-0.00570851 0.223463 0)
(-0.00298692 0.21557 0)
(-0.00146792 0.209684 0)
(0.00110601 0.202531 0)
(-0.000750372 0.191518 0)
(-0.00240894 0.182445 0)
(-0.00114731 0.22465 0)
(-0.00336203 0.237168 0)
(-0.013856 0.249799 0)
(-0.0199356 0.262206 0)
(-0.0242408 0.27532 0)
(-0.0267396 0.287608 0)
(-0.0284127 0.298485 0)
(-0.0291585 0.307306 0)
(-0.029113 0.313565 0)
(-0.0284218 0.316239 0)
(-0.0271495 0.315974 0)
(-0.0254957 0.312951 0)
(-0.0236771 0.306424 0)
(-0.021755 0.296988 0)
(-0.0196144 0.284938 0)
(-0.0170709 0.270882 0)
(-0.0140423 0.255893 0)
(-0.0108089 0.241359 0)
(-0.00784017 0.228616 0)
(-0.00520243 0.218555 0)
(-0.00323015 0.211425 0)
(-0.00245776 0.206361 0)
(-0.00163637 0.199327 0)
(-0.00154472 0.190189 0)
(-0.00100454 0.179477 0)
(-0.00101854 0.234691 0)
(-0.00288029 0.246794 0)
(-0.0112386 0.258808 0)
(-0.0157087 0.270159 0)
(-0.0188479 0.281662 0)
(-0.0207763 0.292281 0)
(-0.0219877 0.301508 0)
(-0.0224306 0.308685 0)
(-0.0222234 0.313421 0)
(-0.0215591 0.315321 0)
(-0.0205405 0.314233 0)
(-0.0192745 0.310103 0)
(-0.0178785 0.303017 0)
(-0.0164328 0.29315 0)
(-0.0148769 0.280772 0)
(-0.0130649 0.266518 0)
(-0.0109547 0.251504 0)
(-0.00872327 0.237129 0)
(-0.00663872 0.224723 0)
(-0.00472187 0.215118 0)
(-0.00331452 0.208512 0)
(-0.00267805 0.202886 0)
(-0.0020389 0.1996 0)
(-0.00178321 0.189836 0)
(-0.000874967 0.178765 0)
(-0.000850995 0.242723 0)
(-0.00244591 0.254128 0)
(-0.00880956 0.265641 0)
(-0.0119283 0.276143 0)
(-0.0142002 0.286382 0)
(-0.0155859 0.295693 0)
(-0.0163586 0.303627 0)
(-0.0165311 0.309632 0)
(-0.0162258 0.313253 0)
(-0.0155725 0.314254 0)
(-0.0146792 0.312502 0)
(-0.0136496 0.307854 0)
(-0.012537 0.300429 0)
(-0.01141 0.290336 0)
(-0.010264 0.277826 0)
(-0.0090784 0.263536 0)
(-0.00788351 0.248579 0)
(-0.00670241 0.234373 0)
(-0.00554273 0.222187 0)
(-0.0043291 0.212815 0)
(-0.00327697 0.206461 0)
(-0.00271345 0.201997 0)
(-0.00214864 0.196053 0)
(-0.0021387 0.18757 0)
(-0.00105944 0.178846 0)
(-0.000771433 0.248932 0)
(-0.00215175 0.259961 0)
(-0.0066853 0.270833 0)
(-0.00864675 0.280494 0)
(-0.0102624 0.28976 0)
(-0.0112035 0.298057 0)
(-0.0116173 0.304971 0)
(-0.011563 0.31005 0)
(-0.0111461 0.312962 0)
(-0.0104662 0.313321 0)
(-0.00964544 0.310998 0)
(-0.00876461 0.306039 0)
(-0.00782877 0.298438 0)
(-0.00690581 0.288292 0)
(-0.00606151 0.275823 0)
(-0.00538679 0.26163 0)
(-0.00493625 0.246802 0)
(-0.00460496 0.232719 0)
(-0.00423756 0.220664 0)
(-0.00373058 0.211417 0)
(-0.00295937 0.205116 0)
(-0.00227953 0.20246 0)
(-0.00176525 0.194136 0)
(-0.0026179 0.185985 0)
(-0.00134714 0.175416 0)
(-0.000657678 0.253649 0)
(-0.00180568 0.264158 0)
(-0.00500872 0.274646 0)
(-0.00618006 0.283578 0)
(-0.00716798 0.292046 0)
(-0.00769852 0.29952 0)
(-0.00782088 0.305646 0)
(-0.00754831 0.310003 0)
(-0.00702232 0.312125 0)
(-0.00631053 0.312071 0)
(-0.00550509 0.309642 0)
(-0.00469395 0.304531 0)
(-0.00387178 0.296906 0)
(-0.00309391 0.286857 0)
(-0.00248221 0.274589 0)
(-0.00220455 0.260659 0)
(-0.00233054 0.246074 0)
(-0.00265407 0.232138 0)
(-0.00287354 0.220086 0)
(-0.00296394 0.210749 0)
(-0.00262854 0.204329 0)
(-0.00200912 0.199127 0)
(-0.00155466 0.195484 0)
(-0.00269933 0.187006 0)
(-0.00147507 0.174118 0)
(-0.000585711 0.257006 0)
(-0.00145772 0.267171 0)
(-0.00361631 0.277095 0)
(-0.00431284 0.285466 0)
(-0.00484544 0.29334 0)
(-0.00502115 0.30029 0)
(-0.00483179 0.305804 0)
(-0.00438857 0.309551 0)
(-0.00375231 0.311484 0)
(-0.00297465 0.311027 0)
(-0.00217664 0.308312 0)
(-0.00141453 0.303172 0)
(-0.000662045 0.295672 0)
(3.65961e-05 0.285858 0)
(0.000519271 0.273934 0)
(0.000561458 0.260401 0)
(3.7637e-05 0.246163 0)
(-0.000823952 0.232426 0)
(-0.00152637 0.22038 0)
(-0.00197344 0.210888 0)
(-0.00200013 0.204219 0)
(-0.00179613 0.19865 0)
(-0.00155386 0.192761 0)
(-0.00296504 0.184147 0)
(-0.00178229 0.175045 0)
(-0.000552219 0.259442 0)
(-0.00126519 0.26927 0)
(-0.00263086 0.27852 0)
(-0.00290095 0.28673 0)
(-0.00304354 0.29415 0)
(-0.0029552 0.299538 0)
(-0.00256781 0.304591 0)
(-0.00199666 0.308987 0)
(-0.0012603 0.309493 0)
(-0.000438588 0.309859 0)
(0.000364909 0.307171 0)
(0.00120735 0.302094 0)
(0.00193868 0.294615 0)
(0.0025493 0.285093 0)
(0.00294058 0.273598 0)
(0.0028652 0.260553 0)
(0.0021482 0.24673 0)
(0.000939012 0.233232 0)
(-0.000168984 0.221223 0)
(-0.000917566 0.211583 0)
(-0.00122389 0.204632 0)
(-0.00124081 0.200281 0)
(-0.00103606 0.19234 0)
(-0.00344284 0.183858 0)
(-0.00222191 0.173861 0)
(-0.00054225 0.261038 0)
(-0.00104742 0.269983 0)
(-0.00173675 0.279382 0)
(-0.00167799 0.286485 0)
(-0.00144028 0.293372 0)
(-0.00118387 0.299711 0)
(-0.000878331 0.304408 0)
(-0.000327608 0.3072 0)
(0.000536795 0.308702 0)
(0.00113809 0.308601 0)
(0.0020391 0.305023 0)
(0.0029276 0.299957 0)
(0.00367348 0.293829 0)
(0.00432256 0.284666 0)
(0.00474615 0.273621 0)
(0.0046511 0.26101 0)
(0.00387971 0.24763 0)
(0.00252193 0.234405 0)
(0.00108002 0.222461 0)
(-9.82423e-05 0.212666 0)
(-0.000828205 0.205337 0)
(-0.000918679 0.200147 0)
(-0.000649526 0.194144 0)
(-0.00345202 0.184974 0)
(-0.00238279 0.173946 0)
(-0.000430279 0.261477 0)
(-0.000943994 0.270534 0)
(-0.00120434 0.279576 0)
(-0.000872907 0.286333 0)
(-0.00067396 0.293121 0)
(-0.000331818 0.301474 0)
(0.00029172 0.305962 0)
(0.00103092 0.306039 0)
(0.00178259 0.30999 0)
(0.0027061 0.307325 0)
(0.00374308 0.30369 0)
(0.00428956 0.299022 0)
(0.00479735 0.291709 0)
(0.00551005 0.283071 0)
(0.00591678 0.272761 0)
(0.00584695 0.261586 0)
(0.00515061 0.248722 0)
(0.00389721 0.235838 0)
(0.00231745 0.224029 0)
(0.000697408 0.214143 0)
(-0.000464923 0.206481 0)
(-0.0006807 0.200452 0)
(-0.000328353 0.193951 0)
(-0.00337624 0.18497 0)
(-0.00241505 0.174459 0)
(-0.000552328 0.261987 0)
(-0.00101576 0.273119 0)
(-0.00101017 0.279494 0)
(-0.000641558 0.288456 0)
(-0.000287293 0.294977 0)
(0.000213937 0.298018 0)
(0.00117144 0.302213 0)
(0.00207591 0.307343 0)
(0.00282757 0.306098 0)