/*--------------------------------*- C++ -*----------------------------------*\
| =========                 |                                                 |
| \\      /  F ield         | OpenFOAM: The Open Source CFD Toolbox           |
|  \\    /   O peration     | Version:  2.3.0                                 |
|   \\  /    A nd           | Web:      www.OpenFOAM.org                      |
|    \\/     M anipulation  |                                                 |
\*---------------------------------------------------------------------------*/
FoamFile
{
    version     2.0;
    format      ascii;
    class       volScalarField;
    location    "0.45";
    object      p;
}
// * * * * * * * * * * * * * * * * * * * * * * * * * * * * * * * * * * * * * //

dimensions      [1 -1 -2 0 0 0 0];

internalField   nonuniform List<scalar> 
8000
(
-0.26079
-0.260795
-0.260802
-0.260808
-0.26081
-0.260801
-0.26078
-0.260784
-0.260783
-0.260782
-0.260782
-0.260782
-0.260783
-0.26078
-0.2608
-0.260809
-0.260807
-0.260802
-0.260795
-0.260789
-0.782343
-0.782351
-0.782358
-0.782365
-0.782368
-0.78236
-0.782336
-0.782332
-0.782329
-0.782328
-0.782328
-0.782329
-0.782331
-0.782335
-0.782359
-0.782367
-0.782364
-0.782357
-0.782349
-0.782342
-1.30388
-1.30389
-1.30389
-1.30389
-1.3039
-1.30389
-1.30388
-1.30388
-1.30387
-1.30387
-1.30387
-1.30387
-1.30387
-1.30388
-1.30389
-1.30389
-1.30389
-1.30389
-1.30389
-1.30388
-1.82542
-1.82543
-1.82543
-1.82543
-1.82543
-1.82543
-1.82542
-1.82542
-1.82542
-1.82541
-1.82541
-1.82541
-1.82542
-1.82542
-1.82542
-1.82543
-1.82543
-1.82542
-1.82542
-1.82542
-2.34696
-2.34697
-2.34697
-2.34697
-2.34697
-2.34696
-2.34696
-2.34696
-2.34696
-2.34696
-2.34696
-2.34696
-2.34696
-2.34696
-2.34696
-2.34696
-2.34696
-2.34696
-2.34696
-2.34696
-2.8685
-2.8685
-2.8685
-2.8685
-2.8685
-2.8685
-2.8685
-2.8685
-2.8685
-2.8685
-2.8685
-2.8685
-2.8685
-2.8685
-2.8685
-2.8685
-2.8685
-2.8685
-2.8685
-2.8685
-3.39004
-3.39004
-3.39004
-3.39004
-3.39004
-3.39004
-3.39004
-3.39004
-3.39004
-3.39004
-3.39004
-3.39004
-3.39004
-3.39004
-3.39004
-3.39004
-3.39004
-3.39004
-3.39004
-3.39003
-3.91158
-3.91158
-3.91158
-3.91158
-3.91158
-3.91158
-3.91158
-3.91158
-3.91158
-3.91158
-3.91158
-3.91158
-3.91158
-3.91158
-3.91158
-3.91158
-3.91158
-3.91158
-3.91158
-3.91157
-4.43311
-4.43312
-4.43312
-4.43312
-4.43312
-4.43312
-4.43312
-4.43312
-4.43312
-4.43312
-4.43312
-4.43312
-4.43312
-4.43312
-4.43312
-4.43312
-4.43312
-4.43311
-4.43311
-4.43311
-4.95465
-4.95466
-4.95466
-4.95466
-4.95466
-4.95466
-4.95466
-4.95465
-4.95465
-4.95465
-4.95465
-4.95465
-4.95465
-4.95465
-4.95465
-4.95465
-4.95465
-4.95465
-4.95465
-4.95465
-5.47619
-5.47619
-5.47619
-5.47619
-5.47619
-5.47619
-5.47619
-5.47619
-5.47619
-5.47619
-5.47619
-5.47619
-5.47619
-5.47619
-5.47619
-5.47619
-5.47619
-5.47619
-5.47619
-5.47619
-5.99773
-5.99773
-5.99773
-5.99773
-5.99773
-5.99773
-5.99773
-5.99773
-5.99773
-5.99773
-5.99773
-5.99773
-5.99773
-5.99773
-5.99773
-5.99773
-5.99773
-5.99773
-5.99773
-5.99773
-6.51926
-6.51927
-6.51927
-6.51927
-6.51927
-6.51927
-6.51927
-6.51927
-6.51927
-6.51927
-6.51927
-6.51927
-6.51927
-6.51927
-6.51927
-6.51927
-6.51927
-6.51927
-6.51927
-6.51926
-7.0408
-7.0408
-7.0408
-7.0408
-7.0408
-7.0408
-7.0408
-7.0408
-7.0408
-7.0408
-7.0408
-7.0408
-7.0408
-7.0408
-7.0408
-7.0408
-7.0408
-7.0408
-7.0408
-7.0408
-7.56234
-7.56234
-7.56234
-7.56234
-7.56234
-7.56234
-7.56234
-7.56234
-7.56234
-7.56234
-7.56234
-7.56234
-7.56234
-7.56234
-7.56234
-7.56234
-7.56234
-7.56234
-7.56234
-7.56234
-8.08387
-8.08388
-8.08388
-8.08388
-8.08388
-8.08388
-8.08388
-8.08388
-8.08388
-8.08388
-8.08388
-8.08388
-8.08388
-8.08388
-8.08388
-8.08388
-8.08388
-8.08388
-8.08388
-8.08388
-8.60541
-8.60541
-8.60541
-8.60541
-8.60541
-8.60541
-8.60541
-8.60541
-8.60541
-8.60541
-8.60541
-8.60541
-8.60541
-8.60541
-8.60542
-8.60542
-8.60542
-8.60542
-8.60542
-8.60541
-9.12695
-9.12695
-9.12695
-9.12695
-9.12695
-9.12695
-9.12695
-9.12695
-9.12695
-9.12695
-9.12695
-9.12695
-9.12695
-9.12695
-9.12695
-9.12695
-9.12695
-9.12695
-9.12695
-9.12695
-9.64848
-9.64848
-9.64849
-9.64849
-9.64849
-9.64849
-9.64849
-9.64849
-9.64849
-9.64849
-9.64849
-9.64849
-9.64849
-9.64849
-9.64849
-9.64849
-9.64849
-9.64849
-9.64849
-9.64849
-10.17
-10.17
-10.17
-10.17
-10.17
-10.17
-10.17
-10.17
-10.17
-10.17
-10.17
-10.17
-10.17
-10.17
-10.17
-10.17
-10.17
-10.17
-10.17
-10.17
-10.6916
-10.6916
-10.6916
-10.6916
-10.6916
-10.6916
-10.6916
-10.6916
-10.6916
-10.6916
-10.6916
-10.6916
-10.6916
-10.6916
-10.6916
-10.6916
-10.6916
-10.6916
-10.6916
-10.6916
-11.2131
-11.2131
-11.2131
-11.2131
-11.2131
-11.2131
-11.2131
-11.2131
-11.2131
-11.2131
-11.2131
-11.2131
-11.2131
-11.2131
-11.2131
-11.2131
-11.2131
-11.2131
-11.2131
-11.2131
-11.7346
-11.7346
-11.7346
-11.7346
-11.7346
-11.7346
-11.7346
-11.7346
-11.7346
-11.7346
-11.7346
-11.7346
-11.7346
-11.7346
-11.7346
-11.7346
-11.7346
-11.7346
-11.7346
-11.7346
-12.2562
-12.2562
-12.2562
-12.2562
-12.2562
-12.2562
-12.2562
-12.2562
-12.2562
-12.2562
-12.2562
-12.2562
-12.2562
-12.2562
-12.2562
-12.2562
-12.2562
-12.2562
-12.2562
-12.2562
-12.7777
-12.7777
-12.7777
-12.7777
-12.7777
-12.7777
-12.7777
-12.7777
-12.7777
-12.7777
-12.7777
-12.7777
-12.7777
-12.7777
-12.7777
-12.7777
-12.7777
-12.7777
-12.7777
-12.7777
-13.2992
-13.2992
-13.2992
-13.2992
-13.2992
-13.2992
-13.2992
-13.2992
-13.2992
-13.2992
-13.2992
-13.2992
-13.2992
-13.2992
-13.2992
-13.2992
-13.2992
-13.2992
-13.2992
-13.2992
-13.8208
-13.8208
-13.8208
-13.8208
-13.8208
-13.8208
-13.8208
-13.8208
-13.8208
-13.8208
-13.8208
-13.8208
-13.8208
-13.8208
-13.8208
-13.8208
-13.8208
-13.8208
-13.8208
-13.8208
-14.3423
-14.3423
-14.3423
-14.3423
-14.3423
-14.3423
-14.3423
-14.3423
-14.3423
-14.3423
-14.3423
-14.3423
-14.3423
-14.3423
-14.3423
-14.3423
-14.3423
-14.3423
-14.3423
-14.3423
-14.8639
-14.8639
-14.8639
-14.8639
-14.8639
-14.8639
-14.8639
-14.8639
-14.8639
-14.8639
-14.8639
-14.8639
-14.8639
-14.8639
-14.8639
-14.8639
-14.8639
-14.8639
-14.8639
-14.8639
-15.3854
-15.3854
-15.3854
-15.3854
-15.3854
-15.3854
-15.3854
-15.3854
-15.3854
-15.3854
-15.3854
-15.3854
-15.3854
-15.3854
-15.3854
-15.3854
-15.3854
-15.3854
-15.3854
-15.3854
-15.9069
-15.9069
-15.9069
-15.9069
-15.9069
-15.9069
-15.9069
-15.9069
-15.9069
-15.9069
-15.9069
-15.9069
-15.9069
-15.9069
-15.9069
-15.9069
-15.9069
-15.9069
-15.9069
-15.9069
-16.4285
-16.4285
-16.4285
-16.4285
-16.4285
-16.4285
-16.4285
-16.4285
-16.4285
-16.4285
-16.4285
-16.4285
-16.4285
-16.4285
-16.4285
-16.4285
-16.4285
-16.4285
-16.4285
-16.4285
-16.95
-16.95
-16.95
-16.95
-16.95
-16.95
-16.95
-16.95
-16.95
-16.95
-16.95
-16.95
-16.95
-16.95
-16.95
-16.95
-16.95
-16.95
-16.95
-16.95
-17.4716
-17.4716
-17.4716
-17.4716
-17.4716
-17.4716
-17.4716
-17.4716
-17.4716
-17.4716
-17.4716
-17.4716
-17.4716
-17.4716
-17.4715
-17.4715
-17.4715
-17.4715
-17.4715
-17.4715
-17.9931
-17.9931
-17.9931
-17.9931
-17.9931
-17.9931
-17.9931
-17.9931
-17.9931
-17.9931
-17.9931
-17.9931
-17.9931
-17.9931
-17.9931
-17.9931
-17.9931
-17.9931
-17.9931
-17.9931
-18.5146
-18.5146
-18.5146
-18.5146
-18.5146
-18.5146
-18.5146
-18.5146
-18.5146
-18.5146
-18.5146
-18.5146
-18.5146
-18.5146
-18.5146
-18.5146
-18.5146
-18.5146
-18.5146
-18.5146
-19.0362
-19.0362
-19.0362
-19.0362
-19.0362
-19.0362
-19.0362
-19.0362
-19.0362
-19.0362
-19.0362
-19.0362
-19.0362
-19.0362
-19.0362
-19.0362
-19.0362
-19.0362
-19.0362
-19.0362
-19.5577
-19.5577
-19.5577
-19.5577
-19.5577
-19.5577
-19.5577
-19.5577
-19.5577
-19.5577
-19.5577
-19.5577
-19.5577
-19.5577
-19.5577
-19.5577
-19.5577
-19.5577
-19.5577
-19.5577
-20.0792
-20.0792
-20.0792
-20.0792
-20.0792
-20.0792
-20.0792
-20.0792
-20.0792
-20.0792
-20.0792
-20.0792
-20.0792
-20.0792
-20.0792
-20.0792
-20.0792
-20.0792
-20.0792
-20.0792
-20.6008
-20.6008
-20.6008
-20.6008
-20.6008
-20.6008
-20.6008
-20.6008
-20.6008
-20.6008
-20.6008
-20.6008
-20.6008
-20.6008
-20.6008
-20.6008
-20.6008
-20.6008
-20.6008
-20.6008
-21.1223
-21.1223
-21.1223
-21.1223
-21.1223
-21.1223
-21.1223
-21.1223
-21.1223
-21.1223
-21.1223
-21.1223
-21.1223
-21.1223
-21.1223
-21.1223
-21.1223
-21.1223
-21.1223
-21.1223
-21.6439
-21.6439
-21.6439
-21.6439
-21.6439
-21.6439
-21.6439
-21.6439
-21.6439
-21.6439
-21.6439
-21.6439
-21.6439
-21.6439
-21.6439
-21.6439
-21.6439
-21.6439
-21.6439
-21.6439
-22.1654
-22.1654
-22.1654
-22.1654
-22.1654
-22.1654
-22.1654
-22.1654
-22.1654
-22.1654
-22.1654
-22.1654
-22.1654
-22.1654
-22.1654
-22.1654
-22.1654
-22.1654
-22.1654
-22.1654
-22.6869
-22.6869
-22.6869
-22.6869
-22.6869
-22.6869
-22.6869
-22.6869
-22.6869
-22.6869
-22.6869
-22.6869
-22.6869
-22.6869
-22.6869
-22.6869
-22.6869
-22.6869
-22.6869
-22.6869
-23.2085
-23.2085
-23.2085
-23.2085
-23.2085
-23.2085
-23.2085
-23.2085
-23.2085
-23.2085
-23.2085
-23.2085
-23.2085
-23.2085
-23.2085
-23.2085
-23.2085
-23.2085
-23.2085
-23.2085
-23.73
-23.73
-23.73
-23.73
-23.73
-23.73
-23.73
-23.73
-23.73
-23.73
-23.73
-23.73
-23.73
-23.73
-23.73
-23.73
-23.73
-23.73
-23.73
-23.73
-24.2515
-24.2515
-24.2515
-24.2515
-24.2515
-24.2515
-24.2515
-24.2515
-24.2515
-24.2515
-24.2515
-24.2515
-24.2515
-24.2515
-24.2515
-24.2515
-24.2515
-24.2515
-24.2515
-24.2515
-24.7731
-24.7731
-24.7731
-24.7731
-24.7731
-24.7731
-24.7731
-24.7731
-24.7731
-24.7731
-24.7731
-24.7731
-24.7731
-24.7731
-24.7731
-24.7731
-24.7731
-24.7731
-24.7731
-24.7731
-25.2946
-25.2946
-25.2946
-25.2946
-25.2946
-25.2946
-25.2946
-25.2946
-25.2946
-25.2946
-25.2946
-25.2946
-25.2946
-25.2946
-25.2946
-25.2946
-25.2946
-25.2946
-25.2946
-25.2946
-25.8162
-25.8162
-25.8162
-25.8162
-25.8162
-25.8162
-25.8162
-25.8162
-25.8162
-25.8162
-25.8162
-25.8162
-25.8162
-25.8162
-25.8162
-25.8162
-25.8162
-25.8162
-25.8162
-25.8162
-26.3377
-26.3377
-26.3377
-26.3377
-26.3377
-26.3377
-26.3377
-26.3377
-26.3377
-26.3377
-26.3377
-26.3377
-26.3377
-26.3377
-26.3377
-26.3377
-26.3377
-26.3377
-26.3377
-26.3377
-26.8592
-26.8592
-26.8592
-26.8592
-26.8592
-26.8592
-26.8592
-26.8592
-26.8592
-26.8592
-26.8592
-26.8592
-26.8592
-26.8592
-26.8592
-26.8592
-26.8592
-26.8592
-26.8592
-26.8592
-27.3808
-27.3808
-27.3808
-27.3808
-27.3808
-27.3808
-27.3808
-27.3808
-27.3808
-27.3808
-27.3808
-27.3808
-27.3808
-27.3808
-27.3808
-27.3808
-27.3808
-27.3808
-27.3808
-27.3808
-27.9023
-27.9023
-27.9023
-27.9023
-27.9023
-27.9023
-27.9023
-27.9023
-27.9023
-27.9023
-27.9023
-27.9023
-27.9023
-27.9023
-27.9023
-27.9023
-27.9023
-27.9023
-27.9023
-27.9023
-28.4238
-28.4238
-28.4238
-28.4238
-28.4238
-28.4238
-28.4238
-28.4238
-28.4238
-28.4238
-28.4238
-28.4238
-28.4238
-28.4238
-28.4238
-28.4238
-28.4238
-28.4238
-28.4238
-28.4238
-28.9454
-28.9454
-28.9454
-28.9454
-28.9454
-28.9454
-28.9454
-28.9454
-28.9454
-28.9454
-28.9454
-28.9454
-28.9454
-28.9454
-28.9454
-28.9454
-28.9454
-28.9454
-28.9454
-28.9454
-29.4669
-29.4669
-29.4669
-29.4669
-29.4669
-29.4669
-29.4669
-29.4669
-29.4669
-29.4669
-29.4669
-29.4669
-29.4669
-29.4669
-29.4669
-29.4669
-29.4669
-29.4669
-29.4669
-29.4669
-29.9885
-29.9885
-29.9885
-29.9885
-29.9885
-29.9885
-29.9885
-29.9885
-29.9885
-29.9885
-29.9885
-29.9885
-29.9885
-29.9885
-29.9885
-29.9885
-29.9885
-29.9885
-29.9885
-29.9885
-30.51
-30.51
-30.51
-30.51
-30.51
-30.51
-30.51
-30.51
-30.51
-30.51
-30.51
-30.51
-30.51
-30.51
-30.51
-30.51
-30.51
-30.51
-30.51
-30.51
-31.0315
-31.0315
-31.0315
-31.0315
-31.0315
-31.0315
-31.0315
-31.0315
-31.0315
-31.0315
-31.0315
-31.0315
-31.0315
-31.0315
-31.0315
-31.0315
-31.0315
-31.0315
-31.0315
-31.0315
-31.5531
-31.5531
-31.5531
-31.5531
-31.5531
-31.5531
-31.5531
-31.5531
-31.5531
-31.5531
-31.5531
-31.5531
-31.5531
-31.5531
-31.5531
-31.5531
-31.5531
-31.5531
-31.5531
-31.5531
-32.0746
-32.0746
-32.0746
-32.0746
-32.0746
-32.0746
-32.0746
-32.0746
-32.0746
-32.0746
-32.0746
-32.0746
-32.0746
-32.0746
-32.0746
-32.0746
-32.0746
-32.0746
-32.0746
-32.0746
-32.5961
-32.5961
-32.5961
-32.5961
-32.5961
-32.5961
-32.5961
-32.5961
-32.5961
-32.5961
-32.5961
-32.5961
-32.5961
-32.5961
-32.5961
-32.5961
-32.5961
-32.5961
-32.5961
-32.5961
-33.1177
-33.1177
-33.1177
-33.1177
-33.1177
-33.1177
-33.1177
-33.1177
-33.1177
-33.1177
-33.1177
-33.1177
-33.1177
-33.1177
-33.1177
-33.1177
-33.1177
-33.1177
-33.1177
-33.1177
-33.6392
-33.6392
-33.6392
-33.6392
-33.6392
-33.6392
-33.6392
-33.6392
-33.6392
-33.6392
-33.6392
-33.6392
-33.6392
-33.6392
-33.6392
-33.6392
-33.6392
-33.6392
-33.6392
-33.6392
-34.1608
-34.1608
-34.1608
-34.1608
-34.1608
-34.1608
-34.1608
-34.1608
-34.1608
-34.1608
-34.1608
-34.1608
-34.1608
-34.1608
-34.1608
-34.1608
-34.1608
-34.1608
-34.1608
-34.1608
-34.6823
-34.6823
-34.6823
-34.6823
-34.6823
-34.6823
-34.6823
-34.6823
-34.6823
-34.6823
-34.6823
-34.6823
-34.6823
-34.6823
-34.6823
-34.6823
-34.6823
-34.6823
-34.6823
-34.6823
-35.2038
-35.2038
-35.2038
-35.2038
-35.2038
-35.2038
-35.2038
-35.2038
-35.2038
-35.2038
-35.2038
-35.2038
-35.2038
-35.2038
-35.2038
-35.2038
-35.2038
-35.2038
-35.2038
-35.2038
-35.7254
-35.7254
-35.7254
-35.7254
-35.7254
-35.7254
-35.7254
-35.7254
-35.7254
-35.7254
-35.7254
-35.7254
-35.7254
-35.7254
-35.7254
-35.7254
-35.7254
-35.7254
-35.7254
-35.7254
-36.2469
-36.2469
-36.2469
-36.2469
-36.2469
-36.2469
-36.2469
-36.2469
-36.2469
-36.2469
-36.2469
-36.2469
-36.2469
-36.2469
-36.2469
-36.2469
-36.2469
-36.2469
-36.2469
-36.2469
-36.7684
-36.7684
-36.7684
-36.7684
-36.7684
-36.7684
-36.7684
-36.7684
-36.7684
-36.7684
-36.7684
-36.7684
-36.7684
-36.7684
-36.7684
-36.7684
-36.7684
-36.7684
-36.7684
-36.7684
-37.29
-37.29
-37.29
-37.29
-37.29
-37.29
-37.29
-37.29
-37.29
-37.29
-37.29
-37.29
-37.29
-37.29
-37.29
-37.29
-37.29
-37.29
-37.29
-37.29
-37.8115
-37.8115
-37.8115
-37.8115
-37.8115
-37.8115
-37.8115
-37.8115
-37.8115
-37.8115
-37.8115
-37.8115
-37.8115
-37.8115
-37.8115
-37.8115
-37.8115
-37.8115
-37.8115
-37.8115
-38.3331
-38.3331
-38.3331
-38.3331
-38.3331
-38.3331
-38.3331
-38.3331
-38.3331
-38.3331
-38.3331
-38.3331
-38.3331
-38.3331
-38.3331
-38.3331
-38.3331
-38.3331
-38.3331
-38.3331
-38.8546
-38.8546
-38.8546
-38.8546
-38.8546
-38.8546
-38.8546
-38.8546
-38.8546
-38.8546
-38.8546
-38.8546
-38.8546
-38.8546
-38.8546
-38.8546
-38.8546
-38.8546
-38.8546
-38.8546
-39.3761
-39.3761
-39.3761
-39.3761
-39.3761
-39.3761
-39.3761
-39.3761
-39.3761
-39.3761
-39.3761
-39.3761
-39.3761
-39.3761
-39.3761
-39.3761
-39.3761
-39.3761
-39.3761
-39.3761
-39.8977
-39.8977
-39.8977
-39.8977
-39.8977
-39.8977
-39.8977
-39.8977
-39.8977
-39.8977
-39.8977
-39.8977
-39.8977
-39.8977
-39.8977
-39.8977
-39.8977
-39.8977
-39.8977
-39.8977
-40.4192
-40.4192
-40.4192
-40.4192
-40.4192
-40.4192
-40.4192
-40.4192
-40.4192
-40.4192
-40.4192
-40.4192
-40.4192
-40.4192
-40.4192
-40.4192
-40.4192
-40.4192
-40.4192
-40.4192
-40.9407
-40.9407
-40.9407
-40.9407
-40.9407
-40.9407
-40.9407
-40.9407
-40.9407
-40.9407
-40.9407
-40.9407
-40.9407
-40.9407
-40.9407
-40.9407
-40.9407
-40.9407
-40.9407
-40.9407
-41.4623
-41.4623
-41.4623
-41.4623
-41.4623
-41.4623
-41.4623
-41.4623
-41.4623
-41.4623
-41.4623
-41.4623
-41.4623
-41.4623
-41.4623
-41.4623
-41.4623
-41.4623
-41.4623
-41.4623
-41.9838
-41.9838
-41.9838
-41.9838
-41.9838
-41.9838
-41.9838
-41.9838
-41.9838
-41.9838
-41.9838
-41.9838
-41.9838
-41.9838
-41.9838
-41.9838
-41.9838
-41.9838
-41.9838
-41.9838
-42.5054
-42.5054
-42.5054
-42.5054
-42.5054
-42.5054
-42.5054
-42.5054
-42.5054
-42.5054
-42.5054
-42.5054
-42.5054
-42.5054
-42.5054
-42.5054
-42.5054
-42.5054
-42.5054
-42.5054
-43.0269
-43.0269
-43.0269
-43.0269
-43.0269
-43.0269
-43.0269
-43.0269
-43.0269
-43.0269
-43.0269
-43.0269
-43.0269
-43.0269
-43.0269
-43.0269
-43.0269
-43.0269
-43.0269
-43.0269
-43.5484
-43.5484
-43.5484
-43.5484
-43.5484
-43.5484
-43.5484
-43.5484
-43.5484
-43.5484
-43.5484
-43.5484
-43.5484
-43.5484
-43.5484
-43.5484
-43.5484
-43.5484
-43.5484
-43.5484
-44.07
-44.07
-44.07
-44.07
-44.07
-44.07
-44.07
-44.07
-44.07
-44.07
-44.07
-44.07
-44.07
-44.07
-44.07
-44.07
-44.07
-44.07
-44.07
-44.07
-44.5915
-44.5915
-44.5915
-44.5915
-44.5915
-44.5915
-44.5915
-44.5915
-44.5915
-44.5915
-44.5915
-44.5915
-44.5915
-44.5915
-44.5915
-44.5915
-44.5915
-44.5915
-44.5915
-44.5915
-45.1131
-45.1131
-45.1131
-45.1131
-45.1131
-45.1131
-45.1131
-45.113
-45.113
-45.113
-45.113
-45.113
-45.113
-45.113
-45.113
-45.113
-45.113
-45.113
-45.113
-45.113
-45.6346
-45.6346
-45.6346
-45.6346
-45.6346
-45.6346
-45.6346
-45.6346
-45.6346
-45.6346
-45.6346
-45.6346
-45.6346
-45.6346
-45.6346
-45.6346
-45.6346
-45.6346
-45.6346
-45.6346
-46.1561
-46.1561
-46.1561
-46.1561
-46.1561
-46.1561
-46.1561
-46.1561
-46.1561
-46.1561
-46.1561
-46.1561
-46.1561
-46.1561
-46.1561
-46.1561
-46.1561
-46.1561
-46.1561
-46.1561
-46.6777
-46.6777
-46.6777
-46.6777
-46.6777
-46.6777
-46.6777
-46.6777
-46.6777
-46.6777
-46.6777
-46.6777
-46.6777
-46.6777
-46.6777
-46.6777
-46.6777
-46.6777
-46.6777
-46.6777
-47.1992
-47.1992
-47.1992
-47.1992
-47.1992
-47.1992
-47.1992
-47.1992
-47.1992
-47.1992
-47.1992
-47.1992
-47.1992
-47.1992
-47.1992
-47.1992
-47.1992
-47.1992
-47.1992
-47.1992
-47.7208
-47.7208
-47.7208
-47.7208
-47.7207
-47.7207
-47.7207
-47.7207
-47.7207
-47.7207
-47.7207
-47.7207
-47.7207
-47.7207
-47.7207
-47.7207
-47.7207
-47.7207
-47.7207
-47.7207
-48.2423
-48.2423
-48.2423
-48.2423
-48.2423
-48.2423
-48.2423
-48.2423
-48.2423
-48.2423
-48.2423
-48.2423
-48.2423
-48.2423
-48.2423
-48.2423
-48.2423
-48.2423
-48.2423
-48.2423
-48.7638
-48.7638
-48.7638
-48.7638
-48.7638
-48.7638
-48.7638
-48.7638
-48.7638
-48.7638
-48.7638
-48.7638
-48.7638
-48.7638
-48.7638
-48.7638
-48.7638
-48.7638
-48.7638
-48.7638
-49.2854
-49.2854
-49.2854
-49.2854
-49.2854
-49.2854
-49.2854
-49.2854
-49.2854
-49.2854
-49.2853
-49.2853
-49.2853
-49.2853
-49.2853
-49.2853
-49.2853
-49.2853
-49.2853
-49.2853
-49.8069
-49.8069
-49.8069
-49.8069
-49.8069
-49.8069
-49.8069
-49.8069
-49.8069
-49.8069
-49.8069
-49.8069
-49.8069
-49.8069
-49.8069
-49.8069
-49.8069
-49.8069
-49.8069
-49.8069
-50.3285
-50.3285
-50.3285
-50.3285
-50.3285
-50.3285
-50.3284
-50.3284
-50.3284
-50.3284
-50.3284
-50.3284
-50.3284
-50.3284
-50.3284
-50.3284
-50.3284
-50.3284
-50.3284
-50.3284
-50.85
-50.85
-50.85
-50.85
-50.85
-50.85
-50.85
-50.85
-50.85
-50.85
-50.85
-50.85
-50.8499
-50.8499
-50.8499
-50.8499
-50.8499
-50.8499
-50.8499
-50.8499
-51.3716
-51.3716
-51.3716
-51.3715
-51.3715
-51.3715
-51.3715
-51.3715
-51.3715
-51.3715
-51.3715
-51.3715
-51.3715
-51.3715
-51.3715
-51.3715
-51.3715
-51.3715
-51.3715
-51.3715
-51.8931
-51.8931
-51.8931
-51.8931
-51.8931
-51.8931
-51.8931
-51.8931
-51.8931
-51.893
-51.893
-51.893
-51.893
-51.893
-51.893
-51.893
-51.893
-51.893
-51.893
-51.893
-52.4147
-52.4147
-52.4146
-52.4146
-52.4146
-52.4146
-52.4146
-52.4146
-52.4146
-52.4146
-52.4146
-52.4146
-52.4146
-52.4145
-52.4145
-52.4145
-52.4145
-52.4145
-52.4145
-52.4145
-52.9362
-52.9362
-52.9362
-52.9362
-52.9362
-52.9362
-52.9362
-52.9362
-52.9361
-52.9361
-52.9361
-52.9361
-52.9361
-52.9361
-52.9361
-52.936
-52.936
-52.936
-52.936
-52.936
-53.4578
-53.4578
-53.4578
-53.4577
-53.4577
-53.4577
-53.4577
-53.4577
-53.4577
-53.4577
-53.4576
-53.4576
-53.4576
-53.4576
-53.4576
-53.4576
-53.4576
-53.4576
-53.4576
-53.4576
-53.9793
-53.9793
-53.9793
-53.9793
-53.9793
-53.9793
-53.9793
-53.9792
-53.9792
-53.9792
-53.9792
-53.9792
-53.9791
-53.9791
-53.9791
-53.9791
-53.9791
-53.9791
-53.9791
-53.9791
-54.5009
-54.5009
-54.5009
-54.5009
-54.5008
-54.5008
-54.5008
-54.5008
-54.5008
-54.5007
-54.5007
-54.5007
-54.5007
-54.5007
-54.5006
-54.5006
-54.5006
-54.5006
-54.5006
-54.5006
-55.0224
-55.0224
-55.0224
-55.0224
-55.0224
-55.0224
-55.0224
-55.0223
-55.0223
-55.0223
-55.0223
-55.0222
-55.0222
-55.0222
-55.0222
-55.0221
-55.0221
-55.0221
-55.0221
-55.0221
-55.544
-55.544
-55.544
-55.544
-55.544
-55.5439
-55.5439
-55.5439
-55.5439
-55.5438
-55.5438
-55.5438
-55.5437
-55.5437
-55.5437
-55.5437
-55.5436
-55.5436
-55.5436
-55.5436
-56.0656
-56.0656
-56.0656
-56.0655
-56.0655
-56.0655
-56.0655
-56.0654
-56.0654
-56.0654
-56.0653
-56.0653
-56.0653
-56.0652
-56.0652
-56.0652
-56.0651
-56.0651
-56.0651
-56.0651
-56.5872
-56.5872
-56.5871
-56.5871
-56.5871
-56.5871
-56.587
-56.587
-56.5869
-56.5869
-56.5869
-56.5868
-56.5868
-56.5867
-56.5867
-56.5867
-56.5866
-56.5866
-56.5866
-56.5866
-57.1087
-57.1087
-57.1087
-57.1087
-57.1087
-57.1086
-57.1086
-57.1085
-57.1085
-57.1084
-57.1084
-57.1083
-57.1083
-57.1082
-57.1082
-57.1082
-57.1081
-57.1081
-57.1081
-57.1081
-57.6303
-57.6303
-57.6303
-57.6303
-57.6303
-57.6302
-57.6302
-57.6301
-57.63
-57.63
-57.6299
-57.6299
-57.6298
-57.6298
-57.6297
-57.6297
-57.6296
-57.6296
-57.6296
-57.6296
-58.1519
-58.1519
-58.1519
-58.1519
-58.1518
-58.1518
-58.1517
-58.1517
-58.1516
-58.1515
-58.1515
-58.1514
-58.1513
-58.1513
-58.1512
-58.1511
-58.1511
-58.1511
-58.1511
-58.151
-58.6736
-58.6735
-58.6735
-58.6735
-58.6734
-58.6734
-58.6733
-58.6732
-58.6732
-58.6731
-58.673
-58.6729
-58.6728
-58.6728
-58.6727
-58.6726
-58.6726
-58.6725
-58.6725
-58.6725
-59.1952
-59.1952
-59.1951
-59.1951
-59.1951
-59.195
-59.1949
-59.1948
-59.1947
-59.1946
-59.1945
-59.1944
-59.1943
-59.1942
-59.1942
-59.1941
-59.194
-59.194
-59.194
-59.194
-59.7168
-59.7168
-59.7168
-59.7167
-59.7167
-59.7166
-59.7165
-59.7164
-59.7163
-59.7162
-59.716
-59.7159
-59.7158
-59.7157
-59.7156
-59.7155
-59.7155
-59.7154
-59.7154
-59.7154
-60.2385
-60.2385
-60.2384
-60.2384
-60.2383
-60.2382
-60.2381
-60.238
-60.2378
-60.2377
-60.2376
-60.2374
-60.2373
-60.2372
-60.2371
-60.237
-60.2369
-60.2368
-60.2368
-60.2368
-60.7602
-60.7602
-60.7601
-60.7601
-60.76
-60.7598
-60.7597
-60.7596
-60.7594
-60.7593
-60.7591
-60.7589
-60.7588
-60.7586
-60.7585
-60.7584
-60.7583
-60.7582
-60.7582
-60.7582
-61.2819
-61.2819
-61.2818
-61.2817
-61.2816
-61.2815
-61.2813
-61.2812
-61.281
-61.2808
-61.2806
-61.2804
-61.2803
-61.2801
-61.2799
-61.2798
-61.2797
-61.2796
-61.2796
-61.2795
-61.8036
-61.8036
-61.8036
-61.8035
-61.8033
-61.8032
-61.803
-61.8028
-61.8026
-61.8024
-61.8021
-61.8019
-61.8017
-61.8015
-61.8013
-61.8012
-61.8011
-61.801
-61.8009
-61.8009
-62.3254
-62.3254
-62.3253
-62.3252
-62.3251
-62.3249
-62.3247
-62.3244
-62.3242
-62.3239
-62.3237
-62.3234
-62.3232
-62.3229
-62.3227
-62.3225
-62.3224
-62.3223
-62.3222
-62.3222
-62.8472
-62.8472
-62.8471
-62.847
-62.8468
-62.8466
-62.8464
-62.8461
-62.8458
-62.8455
-62.8452
-62.8449
-62.8446
-62.8443
-62.8441
-62.8439
-62.8437
-62.8435
-62.8435
-62.8434
-63.3691
-63.3691
-63.369
-63.3688
-63.3686
-63.3684
-63.3681
-63.3677
-63.3674
-63.367
-63.3667
-63.3663
-63.366
-63.3657
-63.3654
-63.3651
-63.3649
-63.3648
-63.3647
-63.3646
-63.891
-63.891
-63.8909
-63.8907
-63.8904
-63.8902
-63.8898
-63.8894
-63.889
-63.8886
-63.8882
-63.8878
-63.8874
-63.887
-63.8867
-63.8864
-63.8861
-63.8859
-63.8858
-63.8858
-64.413
-64.413
-64.4128
-64.4126
-64.4123
-64.412
-64.4116
-64.4112
-64.4107
-64.4102
-64.4097
-64.4092
-64.4087
-64.4083
-64.4079
-64.4075
-64.4073
-64.4071
-64.4069
-64.4069
-64.9351
-64.935
-64.9349
-64.9346
-64.9343
-64.9339
-64.9334
-64.9329
-64.9323
-64.9318
-64.9312
-64.9306
-64.9301
-64.9295
-64.9291
-64.9287
-64.9283
-64.9281
-64.9279
-64.9278
-65.4573
-65.4572
-65.457
-65.4567
-65.4563
-65.4558
-65.4553
-65.4547
-65.454
-65.4534
-65.4527
-65.452
-65.4513
-65.4507
-65.4502
-65.4497
-65.4493
-65.449
-65.4488
-65.4488
-65.9796
-65.9795
-65.9792
-65.9789
-65.9784
-65.9779
-65.9772
-65.9765
-65.9757
-65.9749
-65.9741
-65.9733
-65.9726
-65.9719
-65.9712
-65.9707
-65.9702
-65.9699
-65.9697
-65.9695
-66.502
-66.5019
-66.5016
-66.5012
-66.5006
-66.5
-66.4992
-66.4984
-66.4975
-66.4966
-66.4956
-66.4947
-66.4938
-66.4929
-66.4922
-66.4915
-66.491
-66.4906
-66.4903
-66.4902
-67.0245
-67.0244
-67.0241
-67.0236
-67.023
-67.0222
-67.0213
-67.0203
-67.0193
-67.0182
-67.0171
-67.016
-67.0149
-67.0139
-67.013
-67.0123
-67.0117
-67.0112
-67.0109
-67.0107
-67.5473
-67.5471
-67.5467
-67.5462
-67.5454
-67.5445
-67.5435
-67.5423
-67.5411
-67.5398
-67.5385
-67.5372
-67.536
-67.5348
-67.5338
-67.5329
-67.5322
-67.5316
-67.5312
-67.5311
-68.0702
-68.07
-68.0696
-68.0689
-68.0681
-68.067
-68.0658
-68.0644
-68.063
-68.0614
-68.0599
-68.0584
-68.057
-68.0556
-68.0544
-68.0533
-68.0525
-68.0518
-68.0514
-68.0512
-68.5934
-68.5932
-68.5927
-68.5919
-68.5909
-68.5896
-68.5882
-68.5866
-68.5849
-68.5831
-68.5813
-68.5795
-68.5778
-68.5763
-68.5748
-68.5736
-68.5726
-68.5718
-68.5713
-68.5711
-69.1169
-69.1166
-69.116
-69.1151
-69.1139
-69.1125
-69.1107
-69.1089
-69.1069
-69.1048
-69.1027
-69.1006
-69.0986
-69.0967
-69.0951
-69.0936
-69.0924
-69.0915
-69.091
-69.0907
-69.6407
-69.6404
-69.6397
-69.6386
-69.6372
-69.6355
-69.6335
-69.6313
-69.6289
-69.6265
-69.624
-69.6216
-69.6192
-69.6171
-69.6151
-69.6134
-69.612
-69.611
-69.6103
-69.61
-70.165
-70.1646
-70.1638
-70.1625
-70.1608
-70.1588
-70.1565
-70.1538
-70.1511
-70.1482
-70.1453
-70.1424
-70.1397
-70.1372
-70.1349
-70.1329
-70.1312
-70.13
-70.1292
-70.1288
-70.6897
-70.6892
-70.6882
-70.6868
-70.6848
-70.6824
-70.6797
-70.6766
-70.6733
-70.6699
-70.6665
-70.6632
-70.66
-70.657
-70.6543
-70.652
-70.6501
-70.6486
-70.6477
-70.6472
-71.2149
-71.2143
-71.2132
-71.2115
-71.2092
-71.2064
-71.2032
-71.1995
-71.1957
-71.1917
-71.1877
-71.1838
-71.1801
-71.1766
-71.1734
-71.1707
-71.1684
-71.1667
-71.1657
-71.1651
-71.7407
-71.7401
-71.7388
-71.7368
-71.7342
-71.7308
-71.727
-71.7228
-71.7181
-71.7135
-71.7089
-71.7043
-71.6999
-71.6958
-71.6921
-71.6889
-71.6863
-71.6843
-71.683
-71.6824
-72.2673
-72.2666
-72.265
-72.2627
-72.2595
-72.2556
-72.2512
-72.2463
-72.241
-72.2354
-72.2299
-72.2246
-72.2194
-72.2146
-72.2103
-72.2065
-72.2034
-72.2011
-72.1996
-72.1989
-72.7948
-72.7939
-72.7921
-72.7893
-72.7856
-72.7811
-72.7759
-72.7701
-72.764
-72.7574
-72.7509
-72.7446
-72.7386
-72.733
-72.7279
-72.7235
-72.7199
-72.7171
-72.7154
-72.7145
-73.3233
-73.3222
-73.32
-73.3168
-73.3124
-73.3072
-73.3011
-73.2944
-73.2872
-73.2795
-73.2718
-73.2644
-73.2574
-73.2508
-73.2448
-73.2397
-73.2354
-73.2322
-73.2302
-73.2292
-73.853
-73.8517
-73.8491
-73.8453
-73.8402
-73.834
-73.8269
-73.819
-73.8107
-73.802
-73.7924
-73.7839
-73.7756
-73.768
-73.761
-73.7549
-73.7499
-73.7462
-73.7438
-73.7426
-74.3841
-74.3826
-74.3796
-74.375
-74.369
-74.3618
-74.3534
-74.3442
-74.3344
-74.3241
-74.3134
-74.3032
-74.2934
-74.2844
-74.2762
-74.2691
-74.2632
-74.2588
-74.256
-74.2547
-74.9169
-74.9151
-74.9116
-74.906
-74.8991
-74.8906
-74.8808
-74.87
-74.8585
-74.8464
-74.8341
-74.8221
-74.8106
-74.8
-74.7903
-74.782
-74.7751
-74.7699
-74.7667
-74.7651
-75.4515
-75.4495
-75.4452
-75.4388
-75.4306
-75.4207
-75.4092
-75.3965
-75.383
-75.3689
-75.3547
-75.3405
-75.3269
-75.3145
-75.3032
-75.2934
-75.2853
-75.2793
-75.2754
-75.2736
-75.9885
-75.986
-75.981
-75.9735
-75.9639
-75.9522
-75.9388
-75.9239
-75.9081
-75.8916
-75.8749
-75.8584
-75.8425
-75.8278
-75.8145
-75.8031
-75.7936
-75.7865
-75.782
-75.7799
-76.5281
-76.5252
-76.5193
-76.5104
-76.4991
-76.4854
-76.4697
-76.4523
-76.4338
-76.4145
-76.395
-76.3758
-76.357
-76.3395
-76.324
-76.3107
-76.2996
-76.2913
-76.2861
-76.2835
-77.0708
-77.0674
-77.0604
-77.05
-77.0367
-77.0206
-77.0021
-76.9818
-76.9601
-76.9376
-76.9148
-76.8924
-76.871
-76.8492
-76.8314
-76.8159
-76.803
-76.7932
-76.7871
-76.7841
-77.6173
-77.6132
-77.605
-77.5927
-77.577
-77.558
-77.5364
-77.5126
-77.4873
-77.4608
-77.4341
-77.4079
-77.3824
-77.3582
-77.3367
-77.3184
-77.3032
-77.2919
-77.2847
-77.2811
-78.1681
-78.1633
-78.1536
-78.139
-78.1204
-78.0981
-78.0727
-78.0451
-78.0153
-77.9843
-77.9531
-77.9224
-77.8928
-77.8647
-77.8387
-77.8176
-77.7998
-77.7866
-77.7783
-77.774
-78.724
-78.7184
-78.707
-78.6895
-78.6675
-78.6412
-78.6116
-78.5793
-78.5444
-78.508
-78.4715
-78.4358
-78.4012
-78.368
-78.3377
-78.313
-78.2923
-78.2769
-78.2672
-78.2621
-79.286
-79.2794
-79.2661
-79.2448
-79.219
-79.1877
-79.1534
-79.1155
-79.0748
-79.032
-78.9893
-78.9478
-78.9076
-78.8684
-78.8323
-78.8039
-78.7799
-78.7619
-78.7507
-78.7446
-79.8553
-79.8474
-79.8323
-79.8055
-79.7753
-79.7375
-79.6982
-79.6541
-79.6068
-79.556
-79.5061
-79.4583
-79.4117
-79.365
-79.3215
-79.2895
-79.2613
-79.2413
-79.2279
-79.2208
-80.4332
-80.4236
-80.4053
-80.3749
-80.3377
-80.291
-80.2485
-80.1972
-80.1408
-80.0796
-80.0215
-79.9694
-79.9151
-79.8601
-79.8041
-79.7688
-79.737
-79.7128
-79.6979
-79.6898
-81.0216
-81.0101
-80.9875
-80.9347
-80.9072
-80.8421
-80.7295
-80.7193
-80.6783
-80.6019
-80.5343
-80.4774
-80.3968
-80.2678
-80.2721
-80.2403
-80.2032
-80.178
-80.1596
-80.1505
-81.622
-81.6069
-81.568
-81.518
-81.4782
-81.3341
-81.19
-81.1127
-81.1853
-81.1138
-81.0322
-80.9683
-80.74
-80.6567
-80.6666
-80.6967
-80.6513
-80.6245
-80.6111
-80.6013
-82.2414
-82.2162
-82.1774
-82.1208
-82.0545
-81.8531
-81.7561
-81.6712
-81.7083
-81.6286
-81.5324
-81.4614
-81.2264
-81.1275
-81.0744
-81.1311
-81.1039
-81.0658
-81.0479
-81.0425
-82.8882
-82.8409
-82.8073
-82.7299
-82.6425
-82.4187
-82.3249
-82.258
-82.2584
-82.1534
-82.0423
-81.9477
-81.7569
-81.5913
-81.5092
-81.5868
-81.532
-81.5023
-81.4666
-81.478
-83.5417
-83.4927
-83.4508
-83.3685
-83.3076
-83.1081
-82.986
-82.9247
-82.8119
-82.6801
-82.5521
-82.4355
-82.2982
-82.1282
-82.0232
-82.0514
-81.9665
-81.9237
-81.8794
-81.8812
-84.2035
-84.1802
-84.1148
-84.0267
-83.9256
-83.803
-83.6582
-83.5047
-83.3565
-83.2036
-83.0547
-82.9143
-82.7658
-82.6536
-82.5548
-82.4592
-82.3764
-82.3218
-82.2927
-82.2614
-84.912
-84.8672
-84.7961
-84.6962
-84.5721
-84.4246
-84.258
-84.0813
-83.9032
-83.7238
-83.5499
-83.3892
-83.2079
-83.0754
-82.9583
-82.8543
-82.7663
-82.7006
-82.6658
-82.6264
-85.6544
-85.5903
-85.5034
-85.3794
-85.2356
-85.0653
-84.8708
-84.6631
-84.4512
-84.2395
-84.0337
-83.8386
-83.6519
-83.491
-83.3507
-83.2295
-83.1297
-83.0588
-83.0163
-83.0014
-86.4492
-86.3633
-86.2653
-86.1153
-85.9346
-85.7227
-85.4916
-85.2507
-85.0003
-84.7511
-84.5095
-84.2816
-84.0711
-83.8839
-83.7191
-83.5803
-83.4685
-83.3864
-83.3361
-83.3289
-87.2701
-87.1877
-87.0526
-86.8714
-86.6547
-86.4074
-86.1357
-85.8467
-85.5511
-85.2589
-84.9767
-84.7122
-84.4704
-84.2555
-84.0689
-83.9067
-83.7771
-83.6857
-83.6375
-83.6241
-88.1699
-88.0723
-87.9086
-87.6926
-87.4292
-87.1293