/*--------------------------------*- C++ -*----------------------------------*\
| =========                 |                                                 |
| \\      /  F ield         | OpenFOAM: The Open Source CFD Toolbox           |
|  \\    /   O peration     | Version:  2.3.0                                 |
|   \\  /    A nd           | Web:      www.OpenFOAM.org                      |
|    \\/     M anipulation  |                                                 |
\*---------------------------------------------------------------------------*/
FoamFile
{
    version     2.0;
    format      ascii;
    class       volScalarField;
    location    "1.50002";
    object      alpha.air;
}
// * * * * * * * * * * * * * * * * * * * * * * * * * * * * * * * * * * * * * //

dimensions      [0 0 0 0 0 0 0];

internalField   nonuniform List<scalar> 
10000
(
0.00321859
0.00310626
0.00346013
0.00560282
0.0118741
0.0548724
0.21372
0.24131
0.272223
0.280894
0.28972
0.347281
0.348771
0.176873
0.0186381
0.0105952
0.00659237
0.00441351
0.00413089
0.00388095
9.5111e-09
7.82839e-09
6.87534e-10
1.16594e-07
0.00139129
0.0952225
0.293017
0.247381
0.291045
0.276436
0.291979
0.307415
0.327191
0.188768
0.0012254
4.76179e-07
9.24711e-08
4.88167e-09
1.20952e-08
1.39542e-08
2.28384e-19
3.1982e-16
1.06867e-13
8.60807e-12
7.8771e-07
0.00391791
0.126371
0.257982
0.290985
0.226403
0.261221
0.249449
0.250638
0.0619951
0.000349934
1.85917e-08
3.11956e-11
1.92721e-13
7.82438e-16
9.46335e-19
2.11638e-20
4.5432e-17
2.34209e-14
2.17063e-12
2.78028e-09
0.000713875
0.0656335
0.18404
0.186672
0.102847
0.135022
0.148047
0.165344
0.0217783
3.13467e-05
1.36757e-09
9.4716e-12
6.52342e-14
2.16794e-16
7.23539e-20
7.00853e-22
2.76333e-18
8.7681e-16
4.44159e-13
2.91827e-10
6.49023e-05
0.024733
0.0869869
0.0679381
0.028922
0.0452021
0.0542628
0.0596707
0.00378872
7.29964e-07
3.73299e-10
6.60361e-13
8.79562e-16
1.02959e-17
8.91487e-20
1.40296e-21
6.26392e-19
8.40197e-16
8.08491e-13
1.01506e-10
4.33668e-06
0.00529749
0.0198705
0.0124978
0.00328588
0.00830039
0.00871067
0.01126
0.000497779
3.12708e-08
1.41797e-10
6.29299e-13
1.34177e-16
1.76672e-19
6.03996e-21
4.13704e-22
1.83346e-20
5.59944e-17
4.49357e-13
4.83652e-11
1.80092e-08
6.0708e-05
0.000380802
8.15135e-05
3.68415e-06
1.62553e-05
6.54586e-05
0.000707003
1.41249e-05
1.67056e-09
1.26943e-11
2.88564e-14
9.89213e-17
1.83512e-22
1.54966e-24
4.24994e-25
1.16064e-23
3.12864e-18
4.30981e-15
4.29279e-13
5.90102e-10
1.74439e-08
1.13547e-07
6.17113e-11
3.06984e-13
2.44232e-11
4.83521e-09
6.40275e-07
1.34784e-08
4.82476e-11
6.23538e-14
3.02294e-17
2.90392e-19
1.19163e-22
3.27234e-25
0
0
0
0
0
0
0
0
0
0
0
0
0
0
0
0
0
0
0
0
0
0
0
0
0
0
0
0
0
0
0
0
0
0
0
0
0
0
0
0
0
0
0
0
0
0
0
0
0
0
0
0
0
0
0
0
0
0
0
0
0
0
0
0
0
0
0
0
0
0
0
0
0
0
0
0
0
0
0
0
0
0
0
0
0
0
0
0
0
0
0
0
0
0
0
0
0
0
0
0
0
0
0
0
0
0
0
0
0
0
0
0
0
0
0
0
0
0
0
0
0
0
0
0
0
0
0
0
0
0
0
0
0
0
0
0
0
0
0
0
0
0
0
0
0
0
0
0
0
0
0
0
0
0
0
0
0
0
0
0
0
0
0
0
0
0
0
0
0
0
0
0
0
0
0
0
0
0
0
0
0
0
0
0
0
0
0
0
0
0
0
0
0
0
0
0
0
0
0
0
0
0
0
0
0
0
0
0
0
0
0
0
0
0
0
0
0
0
0
0
0
0
0
0
0
0
0
0
0
0
0
0
0
0
0
0
0
0
0
0
0.00327073
0.00317782
0.00353572
0.00561396
0.0127131
0.0564385
0.217239
0.24168
0.271105
0.282387
0.290775
0.352218
0.354084
0.18347
0.0193202
0.011023
0.0066659
0.0044476
0.00416531
0.00409859
1.35481e-08
1.28911e-08
2.38232e-09
1.45115e-07
0.00234352
0.101873
0.305675
0.244713
0.291506
0.281009
0.293811
0.317356
0.34028
0.213401
0.00146254
7.91003e-07
1.14805e-07
2.11613e-10
1.3255e-08
2.87471e-08
1.34121e-19
2.00986e-16
6.61359e-14
6.62692e-12
1.91454e-06
0.00454028
0.138956
0.263134
0.301389
0.255825
0.285272
0.272775
0.270917
0.078006
0.000456453
5.77859e-08
2.05934e-11
1.30572e-13
4.98438e-16
6.73839e-19
1.82609e-20
3.15233e-17
1.49772e-14
1.69779e-12
6.5399e-09
0.000923967
0.0726057
0.199826
0.215238
0.128812
0.163974
0.179886
0.198523
0.0299357
4.22256e-05
1.49831e-09
7.64586e-12
4.77725e-14
1.53064e-16
4.02601e-20
5.98062e-22
2.15694e-18
6.6891e-16
4.76267e-13
3.46911e-10
7.79973e-05
0.0285297
0.101343
0.0847916
0.039163
0.0585553
0.0747934
0.0819699
0.00557561
1.01543e-06
4.84665e-10
7.81948e-13
6.74248e-16
7.87746e-18
5.24223e-20
1.30526e-21
5.27155e-19
6.19378e-16
9.1564e-13
1.14393e-10
4.61003e-06
0.00633423
0.0245933
0.0165442
0.00462312
0.0114218
0.0131799
0.016912
0.00077543
4.90763e-08
1.97345e-10
8.31296e-13
1.81471e-16
1.65222e-19
4.27629e-21
3.5052e-22
1.59064e-20
3.31029e-17
5.43047e-13
5.64391e-11
1.90615e-08
7.21079e-05
0.000471755
0.000109262
5.14231e-06
2.25866e-05
9.78407e-05
0.00110901
2.22178e-05
1.94098e-09
1.6509e-11
3.4621e-14
1.24402e-16
1.12309e-22
9.9513e-25
3.56095e-25
9.82577e-24
3.31706e-18
4.95771e-15
5.11913e-13
6.26562e-10
1.9258e-08
1.37031e-07
6.69694e-11
3.25355e-13
2.36519e-11
5.469e-09
9.70188e-07
1.70961e-08
5.45792e-11
7.48571e-14
2.21276e-17
2.41579e-19
6.42362e-23
2.38864e-25
0
0
0
0
0
0
0
0
0
0
0
0
0
0
0
0
0
0
0
0
0
0
0
0
0
0
0
0
0
0
0
0
0
0
0
0
0
0
0
0
0
0
0
0
0
0
0
0
0
0
0
0
0
0
0
0
0
0
0
0
0
0
0
0
0
0
0
0
0
0
0
0
0
0
0
0
0
0
0
0
0
0
0
0
0
0
0
0
0
0
0
0
0
0
0
0
0
0
0
0
0
0
0
0
0
0
0
0
0
0
0
0
0
0
0
0
0
0
0
0
0
0
0
0
0
0
0
0
0
0
0
0
0
0
0
0
0
0
0
0
0
0
0
0
0
0
0
0
0
0
0
0
0
0
0
0
0
0
0
0
0
0
0
0
0
0
0
0
0
0
0
0
0
0
0
0
0
0
0
0
0
0
0
0
0
0
0
0
0
0
0
0
0
0
0
0
0
0
0
0
0
0
0
0
0
0
0
0
0
0
0
0
0
0
0
0
0
0
0
0
0
0
0
0
0
0
0
0
0
0
0
0
0
0
0
0
0
0
0
0
0.00328679
0.00320042
0.0035711
0.00563737
0.0132496
0.0573338
0.218873
0.24225
0.270989
0.283131
0.291248
0.354117
0.356211
0.187148
0.0198834
0.0113073
0.00671983
0.00448232
0.0041847
0.00418434
1.31585e-08
1.3558e-08
9.04539e-10
1.16336e-07
0.0031866
0.105561
0.312737
0.24244
0.288632
0.281962
0.294207
0.321581
0.346484
0.2276
0.0016738
1.09522e-06
9.89318e-08
1.32628e-11
1.05235e-08
3.15887e-08
6.99347e-20
7.60889e-17
3.25411e-14
4.48824e-12
3.29784e-06
0.00488437
0.146804
0.265244
0.305145
0.269003
0.294789
0.283136
0.279884
0.0881328
0.000534739
1.17015e-07
1.16016e-11
8.17072e-14
3.09928e-16
4.52971e-19
1.31972e-20
1.15637e-17
7.53148e-15
1.18223e-12
2.38905e-08
0.00106746
0.0765062
0.207665
0.230404
0.144631
0.180985
0.197523
0.2165
0.0357951
5.09527e-05
2.08681e-09
5.83251e-12
3.09774e-14
1.0026e-16
1.84514e-20
4.67716e-22
1.20718e-18
2.58725e-16
4.11621e-13
3.77419e-10
8.57632e-05
0.0307963
0.109672
0.0954115
0.0462793
0.0673305
0.0888948
0.0974118
0.00696266
1.25033e-06
6.15814e-10
7.50559e-13
4.39659e-16
4.84738e-18
2.37533e-20
1.02942e-21
3.82739e-19
6.94162e-17
9.07059e-13
1.23812e-10
4.70118e-06
0.00698775
0.0276432
0.0193359
0.00561029
0.0136583
0.0167063
0.0213715
0.00100485
6.51188e-08
2.66904e-10
1.0087e-12
2.77183e-16
1.25279e-19
2.27571e-21
2.71966e-22
1.24911e-20
7.26505e-18
5.72034e-13
6.29859e-11
2.01313e-08
7.93169e-05
0.000531305
0.00012883
6.19431e-06
2.72053e-05
0.000123412
0.00144218
2.90079e-05
2.50677e-09
2.02776e-11
3.18398e-14
1.1358e-16
2.11454e-23
1.87057e-25
2.90204e-25
7.72589e-24
2.82976e-18
5.17676e-15
5.9966e-13
6.63745e-10
2.11444e-08
1.5177e-07
7.2346e-11
3.44701e-13
2.2045e-11
5.96615e-09
1.22592e-06
2.16116e-08
6.11755e-11
8.70382e-14
7.13035e-18
1.08547e-19
1.0412e-23
8.58786e-26
0
0
0
0
0
0
0
0
0
0
0
0
0
0
0
0
0
0
0
0
0
0
0
0
0
0
0
0
0
0
0
0
0
0
0
0
0
0
0
0
0
0
0
0
0
0
0
0
0
0
0
0
0
0
0
0
0
0
0
0
0
0
0
0
0
0
0
0
0
0
0
0
0
0
0
0
0
0
0
0
0
0
0
0
0
0
0
0
0
0
0
0
0
0
0
0
0
0
0
0
0
0
0
0
0
0
0
0
0
0
0
0
0
0
0
0
0
0
0
0
0
0
0
0
0
0
0
0
0
0
0
0
0
0
0
0
0
0
0
0
0
0
0
0
0
0
0
0
0
0
0
0
0
0
0
0
0
0
0
0
0
0
0
0
0
0
0
0
0
0
0
0
0
0
0
0
0
0
0
0
0
0
0
0
0
0
0
0
0
0
0
0
0
0
0
0
0
0
0
0
0
0
0
0
0
0
0
0
0
0
0
0
0
0
0
0
0
0
0
0
0
0
0
0
0
0
0
0
0
0
0
0
0
0
0
0
0
0
0
0
0.00323837
0.00315924
0.00355994
0.00551758
0.0136006
0.0577031
0.219114
0.240482
0.268506
0.281506
0.289077
0.354917
0.357388
0.189209
0.0201475
0.0113778
0.00664821
0.00445614
0.0041278
0.00416666
1.57462e-08
1.70132e-08
5.66408e-09
1.00511e-07
0.00439556
0.109485
0.320711
0.239369
0.285719
0.282377
0.294317
0.325457
0.352627
0.242942
0.00192135
1.65443e-06
9.43552e-08
2.07949e-11
1.16013e-08
3.85928e-08
3.42474e-20
1.82479e-17
1.25434e-14
2.74189e-12
5.85452e-06
0.00525676
0.156535
0.267168
0.308178
0.2807
0.302804
0.292699
0.288132
0.0995971
0.000637794
2.21923e-07
9.21263e-12
5.10212e-14
1.81072e-16
2.87732e-19
8.46369e-21
3.28939e-18
2.94071e-15
7.39688e-13
5.55108e-08
0.0012433
0.0809103
0.215654
0.24599
0.16216
0.199481
0.215668
0.234612
0.0430361
6.32609e-05
2.98382e-09
3.72107e-12
1.83633e-14
6.02661e-17
7.21719e-21
3.16586e-22
5.26594e-19
7.54696e-17
3.07767e-13
4.4071e-10
9.43477e-05
0.0334015
0.118981
0.107711
0.054958
0.0776907
0.1056
0.115774
0.00876452
1.59927e-06
7.61637e-10
5.52408e-13
2.64265e-16
2.54507e-18
8.68463e-21
6.47171e-22
2.30317e-19
1.44682e-17
8.09075e-13
1.29172e-10
4.74737e-06
0.00776374
0.0312932
0.0227818
0.00687154
0.0164633
0.021328
0.027214
0.00131482
8.68011e-08
3.49763e-10
1.09806e-12
3.81738e-16
8.17496e-20
9.8558e-22
1.81864e-22
8.48187e-21
3.01998e-18
5.4755e-13
6.75988e-11
2.13411e-08
8.79272e-05
0.000603529
0.00015343
7.53806e-06
3.31418e-05
0.000157329
0.00189439
3.82758e-05
3.20019e-09
2.36214e-11
2.08127e-14
6.95154e-17
9.27371e-25
1.25648e-26
2.09758e-25
5.46537e-24
1.7619e-18
5.00374e-15
6.90613e-13
7.02241e-10
2.31419e-08
1.69711e-07
7.76731e-11
3.65119e-13
1.9818e-11
6.33304e-09
1.56139e-06
3.0817e-08
6.8027e-11
9.83269e-14
1.31368e-18
2.89207e-20
3.7758e-25
1.74406e-26
0
0
0
0
0
0
0
0
0
0
0
0
0
0
0
0
0
0
0
0
0
0
0
0
0
0
0
0
0
0
0
0
0
0
0
0
0
0
0
0
0
0
0
0
0
0
0
0
0
0
0
0
0
0
0
0
0
0
0
0
0
0
0
0
0
0
0
0
0
0
0
0
0
0
0
0
0
0
0
0
0
0
0
0
0
0
0
0
0
0
0
0
0
0
0
0
0
0
0
0
0
0
0
0
0
0
0
0
0
0
0
0
0
0
0
0
0
0
0
0
0
0
0
0
0
0
0
0
0
0
0
0
0
0
0
0
0
0
0
0
0
0
0
0
0
0
0
0
0
0
0
0
0
0
0
0
0
0
0
0
0
0
0
0
0
0
0
0
0
0
0
0
0
0
0
0
0
0
0
0
0
0
0
0
0
0
0
0
0
0
0
0
0
0
0
0
0
0
0
0
0
0
0
0
0
0
0
0
0
0
0
0
0
0
0
0
0
0
0
0
0
0
0
0
0
0
0
0
0
0
0
0
0
0
0
0
0
0
0
0
0.00321978
0.00314359
0.00356434
0.00546255
0.0139693
0.0581574
0.220304
0.239958
0.267713
0.280921
0.288296
0.356373
0.359617
0.191858
0.0204738
0.0114755
0.00661727
0.0044519
0.00410288
0.00416372
1.78042e-08
1.96943e-08
9.37824e-09
9.54966e-08
0.00591821
0.113151
0.328557
0.236041
0.281947
0.282573
0.292036
0.32881
0.358178
0.257639
0.00217921
2.54067e-06
9.33104e-08
3.42323e-11
1.25952e-08
4.45655e-08
1.61497e-20
2.40428e-18
4.00019e-15
1.49288e-12
9.99388e-06
0.00560979
0.16691
0.268654
0.310081
0.289168
0.308928
0.30016
0.294564
0.110805
0.000756488
3.95839e-07
7.38761e-12
3.02125e-14
9.9054e-17
1.72751e-19
5.01983e-21
6.73521e-19
7.9628e-16
4.08875e-13
9.90353e-08
0.00142569
0.0850705
0.222369
0.2593
0.178601
0.216464
0.231297
0.249767
0.0508242
7.85323e-05
4.30532e-09
2.34415e-12
1.06231e-14
3.45724e-17
2.50182e-21
1.84645e-22
1.97584e-19
1.9614e-17
1.90808e-13
5.20416e-10
0.00010173
0.0359217
0.127703
0.11983
0.0640824
0.0881768
0.122566
0.134453
0.010817
2.05516e-06
9.13551e-10
4.07263e-13
1.45783e-16
1.10326e-18
2.51481e-21
3.09472e-22
1.1625e-19
3.62092e-18
6.54682e-13
1.30593e-10
4.72942e-06
0.00854519
0.035004
0.0264303
0.00826925
0.0195046
0.0266169
0.0338857
0.00168259
1.1074e-07
4.44225e-10
1.08896e-12
4.0738e-16
5.12102e-20
3.67549e-22
1.0435e-22
5.01433e-21
1.02309e-18
4.73768e-13
7.03203e-11
2.27082e-08
9.66502e-05
0.000677986
0.000179949
9.01876e-06
3.96864e-05
0.000196614
0.00243173
4.91674e-05
4.0367e-09
2.63019e-11
5.48325e-15
1.43995e-17
1.20027e-26
7.85942e-28
1.32637e-25
3.47222e-24
7.78385e-19
4.56429e-15
7.83176e-13
7.41672e-10
2.52204e-08
1.8768e-07
8.2827e-11
3.86764e-13
1.71391e-11
6.52449e-09
1.94008e-06
3.73468e-08
7.51549e-11
1.09235e-13
1.61776e-19
5.17565e-21
2.72063e-27
2.31317e-27
0
0
0
0
0
0
0
0
0
0
0
0
0
0
0
0
0
0
0
0
0
0
0
0
0
0
0
0
0
0
0
0
0
0
0
0
0
0
0
0
0
0
0
0
0
0
0
0
0
0
0
0
0
0
0
0
0
0
0
0
0
0
0
0
0
0
0
0
0
0
0
0
0
0
0
0
0
0
0
0
0
0
0
0
0
0
0
0
0
0
0
0
0
0
0
0
0
0
0
0
0
0
0
0
0
0
0
0
0
0
0
0
0
0
0
0
0
0
0
0
0
0
0
0
0
0
0
0
0
0
0
0
0
0
0
0
0
0
0
0
0
0
0
0
0
0
0
0
0
0
0
0
0
0
0
0
0
0
0
0
0
0
0
0
0
0
0
0
0
0
0
0
0
0
0
0
0
0
0
0
0
0
0
0
0
0
0
0
0
0
0
0
0
0
0
0
0
0
0
0
0
0
0
0
0
0
0
0
0
0
0
0
0
0
0
0
0
0
0
0
0
0
0
0
0
0
0
0
0
0
0
0
0
0
0
0
0
0
0
0
0.00319523
0.00312167
0.00356287
0.00541202
0.0142871
0.0585845
0.221048
0.238921
0.266487
0.279539
0.286881
0.357338
0.361493
0.193813
0.0207813
0.0115887
0.00658434
0.00443974
0.00406711
0.00416785
2.02421e-08
2.31826e-08
1.38911e-08
9.58071e-08
0.00780463
0.11713
0.336331
0.232308
0.277685
0.280862
0.289495
0.331677
0.363411
0.271949
0.00245486
3.81771e-06
9.44886e-08
6.15177e-11
1.43609e-08
5.06773e-08
7.42229e-21
1.64165e-19
1.07636e-15
6.86638e-13
1.66769e-05
0.00594718
0.178139
0.269851
0.311244
0.296009
0.31359
0.306227
0.299746
0.121887
0.000896082
6.70725e-07
6.00604e-12
1.73877e-14
4.93564e-17
9.75539e-20
2.80867e-21
8.09476e-20
1.8141e-16
1.91256e-13
1.57352e-07
0.00161873
0.0892231
0.228268
0.270919
0.194207
0.232324
0.244881
0.262457
0.059278
9.81001e-05
6.23662e-09
1.85449e-12
6.21816e-15
1.79112e-17
8.52825e-22
1.00207e-22
6.6499e-20
9.95632e-18
1.11158e-13
5.98591e-10
0.000108034
0.0384661
0.136181
0.132048
0.0738115
0.0989788
0.139848
0.153417
0.0131705
2.64595e-06
1.06128e-09
2.9026e-13
7.10632e-17
4.34796e-19
6.54179e-22
1.13218e-22
5.01823e-20
1.70979e-18
4.72264e-13
1.28905e-10
4.55226e-06
0.00936597
0.0389139
0.0303897
0.00984402
0.0228612
0.0327023
0.0415264
0.00212067
1.37128e-07
5.48224e-10
9.44466e-13
2.95058e-16
2.89858e-20
1.23642e-22
5.13421e-23
2.66679e-21
2.03843e-19
3.68892e-13
7.16344e-11
2.43131e-08
0.000105891
0.000757815
0.000209349
1.06863e-05
4.70599e-05
0.000242539
0.00307163
6.19631e-05
5.03048e-09
2.83263e-11
1.2688e-16
2.25308e-19
2.92725e-28
5.4058e-29
7.43817e-26
2.0064e-24
2.43155e-19
3.81457e-15
8.76474e-13
7.82129e-10
2.73924e-08
2.0663e-07
8.76024e-11
4.09589e-13
1.41125e-11
6.5223e-09
2.36501e-06
4.53875e-08
8.24852e-11
1.20925e-13
1.32692e-20
6.69767e-22
1.07451e-30
2.19923e-28
0
0
0
0
0
0
0
0
0
0
0
0
0
0
0
0
0
0
0
0
0
0
0
0
0
0
0
0
0
0
0
0
0
0
0
0
0
0
0
0
0
0
0
0
0
0
0
0
0
0
0
0
0
0
0
0
0
0
0
0
0
0
0
0
0
0
0
0
0
0
0
0
0
0
0
0
0
0
0
0
0
0
0
0
0
0
0
0
0
0
0
0
0
0
0
0
0
0
0
0
0
0
0
0
0
0
0
0
0
0
0
0
0
0
0
0
0
0
0
0
0
0
0
0
0
0
0
0
0
0
0
0
0
0
0
0
0
0
0
0
0
0
0
0
0
0
0
0
0
0
0
0
0
0
0
0
0
0
0
0
0
0
0
0
0
0
0
0
0
0
0
0
0
0
0
0
0
0
0
0
0
0
0
0
0
0
0
0
0
0
0
0
0
0
0
0
0
0
0
0
0
0
0
0
0
0
0
0
0
0
0
0
0
0
0
0
0
0
0
0
0
0
0
0
0
0
0
0
0
0
0
0
0
0
0
0
0
0
0
0
0.00317657
0.00310364
0.00356428
0.00537687
0.0145482
0.0591063
0.222008
0.238253
0.265735
0.278441
0.285735
0.358633
0.363791
0.195752
0.0210953
0.0117199
0.00655971
0.00443365
0.00403589
0.00417892
2.26112e-08
2.64889e-08
1.86668e-08
1.00643e-07
0.0100214
0.121601
0.343801
0.228387
0.273115
0.278581
0.28609
0.334135
0.368635
0.285795
0.00274107
5.50005e-06
9.76752e-08
1.30587e-10
1.65752e-08
5.6192e-08
3.32078e-21
1.02695e-20
2.55356e-16
2.67482e-13
2.70874e-05
0.00625623
0.189634
0.270803
0.311843
0.301469
0.316987
0.311167
0.3039
0.132593
0.00105728
1.08422e-06
4.48404e-12
9.49092e-15
2.20293e-17
5.15124e-20
1.48904e-21
1.21445e-20
4.75901e-17
7.59744e-14
2.28208e-07
0.00181303
0.0932565
0.233316
0.280741
0.208592
0.246718
0.256304
0.272662
0.0682431
0.000122381
9.02352e-09
1.37538e-12
3.48673e-15
8.3617e-18
3.21049e-22
5.427e-23
2.09814e-20
7.33753e-18
6.41966e-14
6.63678e-10
0.000112534
0.0409732
0.144198
0.144054
0.0839307
0.109839
0.156895
0.171981
0.0158071
3.35789e-06
1.19505e-09
1.63744e-13
2.89927e-17
1.77245e-19
2.04772e-22
3.38143e-23
1.90209e-20
1.46198e-18
2.88743e-13
1.25385e-10
4.4292e-06
0.010207
0.0429256
0.0345837
0.0115794
0.0264826
0.0395272
0.0500435
0.00262986
1.67851e-07
6.60311e-10
6.7078e-13
1.30035e-16
1.5038e-20
4.07052e-23
2.14625e-23
1.28595e-21
3.34017e-20
2.50539e-13
7.2309e-11
2.61432e-08
0.000115428
0.000841103
0.000241158
1.25251e-05
5.51848e-05
0.000295148
0.00381562
7.66722e-05
6.19413e-09
2.99564e-11
1.27945e-18
1.43891e-21
3.31767e-29
3.87866e-30
3.74872e-26
1.07261e-24
5.70761e-20
2.92968e-15
9.70645e-13
8.23217e-10
2.96324e-08
2.25969e-07
9.18106e-11
4.33421e-13
1.11255e-11
6.29179e-09
2.82659e-06
5.41129e-08
8.99709e-11
1.34736e-13
6.8504e-22
6.56741e-23
9.80721e-31
1.58798e-29
0
0
0
0
0
0
0
0
0
0
0
0
0
0
0
0
0
0
0
0
0
0
0
0
0
0
0
0
0
0
0
0
0
0
0
0
0
0
0
0
0
0
0
0
0
0
0
0
0
0
0
0
0
0
0
0
0
0
0
0
0
0
0
0
0
0
0
0
0
0
0
0
0
0
0
0
0
0
0
0
0
0
0
0
0
0
0
0
0
0
0
0
0
0
0
0
0
0
0
0
0
0
0
0
0
0
0
0
0
0
0
0
0
0
0
0
0
0
0
0
0
0
0
0
0
0
0
0
0
0
0
0
0
0
0
0
0
0
0
0
0
0
0
0
0
0
0
0
0
0
0
0
0
0
0
0
0
0
0
0
0
0
0
0
0
0
0
0
0
0
0
0
0
0
0
0
0
0
0
0
0
0
0
0
0
0
0
0
0
0
0
0
0
0
0
0
0
0
0
0
0
0
0
0
0
0
0
0
0
0
0
0
0
0
0
0
0
0
0
0
0
0
0
0
0
0
0
0
0
0
0
0
0
0
0
0
0
0
0
0
0.00315955
0.00308481
0.00356625
0.00535298
0.0147738
0.0597358
0.222908
0.237479
0.26464
0.2769
0.284141
0.359842
0.365924
0.197413
0.0214034
0.011862
0.00654012
0.00442845
0.00400455
0.00419167
2.50436e-08
2.98223e-08
2.37328e-08
1.07373e-07
0.0125245
0.126535
0.350792
0.224321
0.268435
0.275506
0.282382
0.336297
0.374068
0.299209
0.00303122
7.57989e-06
1.01714e-07
3.29889e-10
1.92992e-08
6.10566e-08
1.42648e-21
4.39749e-21
6.89488e-17
1.03448e-13
4.24036e-05
0.00653486
0.201017
0.271556
0.312056
0.30575
0.319377
0.315257
0.307271
0.14278
0.00124063
1.67091e-06
2.72484e-12
4.61248e-15
8.52751e-18
2.54925e-20
7.45826e-22
4.30353e-21
1.91543e-17
4.04895e-14
3.08049e-07
0.00200544
0.0971751
0.237643
0.288929
0.221637
0.259585
0.265746
0.280679
0.0775977
0.00015148
1.29599e-08
8.3204e-13
1.64308e-15
3.48737e-18
1.39488e-22
2.96871e-23
6.8134e-21
5.76728e-18
3.54233e-14
7.08734e-10
0.00011521
0.0434518
0.151753
0.155729
0.0943087
0.120623
0.173331
0.189676
0.0187126
4.16848e-06
1.30809e-09
6.27588e-14
1.07713e-17
8.97077e-20
8.51792e-23
8.87978e-24
6.63042e-21
1.38387e-18
1.32484e-13
1.21391e-10
4.41518e-06
0.0110737
0.0470401
0.03899
0.0134701
0.0303453
0.0470448
0.0593559
0.00321161
2.02696e-07
7.80587e-10
3.17317e-13
2.09746e-17
8.31491e-21
1.31179e-23
7.70916e-24
5.63853e-22
6.2522e-21
1.34276e-13
7.31711e-11
2.82087e-08
0.000125362
0.000928327
0.000275381
1.45343e-05
6.4053e-05
0.000354613
0.00466567
9.33072e-05
7.53912e-09
3.15979e-11
2.73874e-21
2.38732e-24
7.20611e-30
1.41238e-30
1.73666e-26
5.38483e-25
1.07192e-20
1.91996e-15
1.06551e-12
8.64724e-10
3.19411e-08
2.45744e-07
9.53754e-11
4.57898e-13
8.43909e-12
5.8658e-09
3.31415e-06
6.3348e-08
9.75181e-11
1.51792e-13
1.96434e-23
5.0388e-24
2.72238e-30
9.48804e-31
0
0
0
0
0
0
0
0
0
0
0
0
0
0
0
0
0
0
0
0
0
0
0
0
0
0
0
0
0
0
0
0
0
0
0
0
0
0
0
0
0
0
0
0
0
0
0
0
0
0
0
0
0
0
0
0
0
0
0
0
0
0
0
0
0
0
0
0
0
0
0
0
0
0
0
0
0
0
0
0
0
0
0
0
0
0
0
0
0
0
0
0
0
0
0
0
0
0
0
0
0
0
0
0
0
0
0
0
0
0
0
0
0
0
0
0
0
0
0
0
0
0
0
0
0
0
0
0
0
0
0
0
0
0
0
0
0
0
0
0
0
0
0
0
0
0
0
0
0
0
0
0
0
0
0
0
0
0
0
0
0
0
0
0
0
0
0
0
0
0
0
0
0
0
0
0
0
0
0
0
0
0
0
0
0
0
0
0
0
0
0
0
0
0
0
0
0
0
0
0
0
0
0
0
0
0
0
0
0
0
0
0
0
0
0
0
0
0
0
0
0
0
0
0
0
0
0
0
0
0
0
0
0
0
0
0
0
0
0
0
0.00314487
0.00306595
0.00357073
0.00533877
0.0150728
0.0605596
0.223908
0.236863
0.26361
0.275387
0.282629
0.361138
0.368141
0.198932
0.0217062
0.0120146
0.00652639
0.00442526
0.00397411
0.00420755
2.74907e-08
3.3166e-08
2.85926e-08
1.16676e-07
0.0152815
0.131388
0.357371
0.220201
0.263788
0.27181
0.27827
0.338285
0.379707
0.312223
0.00331725
1.00016e-05
1.05896e-07
9.53022e-10
2.2317e-08
6.5174e-08
5.83876e-22
2.54481e-21
3.14e-17
6.96817e-14
6.21941e-05
0.00677219
0.211856
0.27214
0.312069
0.309064
0.320982
0.318708
0.310065
0.152314
0.00144426
2.45588e-06
1.15188e-12
1.49632e-15
2.77896e-18
1.20073e-20
3.51156e-22
1.56576e-21
1.06483e-17
4.13588e-14
3.90572e-07
0.00218926
0.100915
0.241313
0.295591
0.233252
0.270888
0.273427
0.286861
0.0871866
0.000184939
2.33167e-08
2.75414e-13
4.33867e-16
9.64589e-19
6.07335e-23
1.61578e-23
2.22345e-21
3.80288e-18
2.64076e-14
7.33222e-10
0.000116155
0.0458803
0.158777
0.166912
0.104777
0.131169
0.188804
0.206112
0.0218589
5.05494e-06
1.39844e-09
1.06384e-14
4.53419e-18
4.40119e-20
3.40917e-23
2.24248e-24
2.24811e-21
1.04872e-18
3.1401e-14
1.18025e-10
4.4478e-06
0.011957
0.0512041
0.043553
0.0155005
0.0344047
0.0551647
0.069336
0.00386437
2.40983e-07
9.1124e-10
2.55314e-14
3.2626e-19
4.79666e-21
4.18138e-24
2.43945e-24
2.27176e-22
3.14967e-21
3.59454e-14
7.49062e-11
3.04313e-08
0.00013556
0.00101839
0.0003117
1.66959e-05
7.36031e-05
0.000420687
0.00561924
0.000111784
9.07655e-09
3.3685e-11
1.06907e-23
1.07354e-25
8.87722e-30
1.90291e-30
7.71144e-27
2.62164e-25
1.77869e-21
7.97257e-16
1.16146e-12
9.06532e-10
3.43012e-08
2.6564e-07
9.84367e-11
4.82486e-13
6.20363e-12
5.29075e-09
3.82008e-06
7.28246e-08
1.04986e-10
1.73218e-13
4.04451e-25
3.09397e-25
6.85497e-30
1.47721e-31
0
0
0
0
0
0
0
0
0
0
0
0
0
0
0
0
0
0
0
0
0
0
0
0
0
0
0
0
0
0
0
0
0
0
0
0
0
0
0
0
0
0
0
0
0
0
0
0
0
0
0
0
0
0
0
0
0
0
0
0
0
0
0
0
0
0
0
0
0
0
0
0
0
0
0
0
0
0
0
0
0
0
0
0
0
0
0
0
0
0
0
0
0
0
0
0
0
0
0
0
0
0
0
0
0
0
0
0
0
0
0
0
0
0
0
0
0
0
0
0
0
0
0
0
0
0
0
0
0
0
0
0
0
0
0
0
0
0
0
0
0
0
0
0
0
0
0
0
0
0
0
0
0
0
0
0
0
0
0
0
0
0
0
0
0
0
0
0
0
0
0
0
0
0
0
0
0
0
0
0
0
0
0
0
0
0
0
0
0
0
0
0
0
0
0
0
0
0
0
0
0
0
0
0
0
0
0
0
0
0
0
0
0
0
0
0
0
0
0
0
0
0
0
0
0
0
0
0
0
0
0
0
0
0
0
0
0
0
0
0
0.00313224
0.003047
0.00357778
0.00533265
0.0156819
0.0615223
0.224928
0.23626
0.262152
0.27377
0.28108
0.362378
0.370306
0.200294
0.0220014
0.0121755
0.00651849
0.00442377
0.00394328
0.00422655
2.97801e-08
3.64876e-08
3.29901e-08
1.26211e-07
0.0183059
0.135669
0.363855
0.216025
0.259241
0.267653
0.273879
0.340152
0.385516
0.324867
0.00359137
1.26955e-05
1.09575e-07
3.46898e-09
2.5559e-08
6.84962e-08
2.28564e-22
2.69015e-21
1.74677e-17
6.40984e-14
8.32445e-05
0.00696842
0.221977
0.272585
0.31206
0.311598
0.321998
0.32169
0.312447
0.161104
0.00166522
3.45154e-06
8.10679e-13
8.48397e-16
1.03874e-18
5.44603e-21
1.55068e-22
7.72266e-22
5.48949e-18
4.46469e-14
4.59783e-07
0.0023618
0.104449
0.244415
0.300844
0.243432
0.280665
0.279612
0.291582
0.0968462
0.000222203
3.28242e-08
1.77448e-13
2.13591e-16
3.76747e-19
3.36694e-23
8.59765e-24
6.06494e-22
1.95193e-18
2.828e-14
7.44341e-10
0.000116333
0.0482585
0.165257
0.177488
0.115178
0.141343
0.203053
0.22103
0.025209
6.01519e-06
1.58704e-09
4.8492e-15
1.9181e-18
1.59571e-20
1.84349e-23
5.32147e-25
7.44515e-22
5.8604e-19
9.76919e-15
1.15932e-10
4.58126e-06
0.0128571
0.0553984
0.0482239
0.0176526
0.0386137
0.0637714
0.0798304
0.00458418
2.86117e-07
1.05624e-09
3.64456e-16
2.91103e-19
2.57782e-21
1.76698e-24
7.00001e-25
8.51595e-23
3.02921e-21
5.99431e-16
7.79366e-11
3.27897e-08
0.000146021
0.00111125
0.000349899
1.89837e-05
8.37729e-05
0.000492899
0.00667037
0.000131945
1.08161e-08
3.6584e-11
9.40567e-23
2.26919e-25
2.23236e-29
2.88961e-30
3.55886e-27
1.36156e-25
4.0747e-22
1.00068e-16
1.25929e-12
9.48543e-10
3.67116e-08
2.85614e-07
1.01358e-10
5.06713e-13
4.4608e-12
4.60609e-09
4.33582e-06
8.22052e-08
1.12239e-10
2.0068e-13
4.58348e-24
2.10068e-26
1.60491e-29
1.84638e-31
0
0
0
0
0
0
0
0
0
0
0
0
0
0
0
0
0
0
0
0
0
0
0
0
0
0
0
0
0
0
0
0
0
0
0
0
0
0
0
0
0
0
0
0
0
0
0
0
0
0
0
0
0
0
0
0
0
0
0
0
0
0
0
0
0
0
0
0
0
0
0
0
0
0
0
0
0
0
0
0
0
0
0
0
0
0
0
0
0
0
0
0
0
0
0
0
0
0
0
0
0
0
0
0
0
0
0
0
0
0
0
0
0
0
0
0
0
0
0
0
0
0
0
0
0
0
0
0
0
0
0
0
0
0
0
0
0
0
0
0
0
0
0
0
0
0
0
0
0
0
0
0
0
0
0
0
0
0
0
0
0
0
0
0
0
0
0
0
0
0
0
0
0
0
0
0
0
0
0
0
0
0
0
0
0
0
0
0
0
0
0
0
0
0
0
0
0
0
0
0
0
0
0
0
0
0
0
0
0
0
0
0
0
0
0
0
0
0
0
0
0
0
0
0
0
0
0
0
0
0
0
0
0
0
0
0
0
0
0
0
0.00312196
0.00303026
0.00359067
0.00533215
0.0164121
0.0625798
0.226132
0.23572
0.260878
0.272172
0.279602
0.363643
0.372471
0.201531
0.0222878
0.012342
0.00651582
0.00442615
0.00391224
0.00424892
3.16907e-08
3.9499e-08
3.63955e-08
1.34791e-07
0.0218174
0.139296
0.370863
0.211668
0.254672
0.263155
0.269326
0.341907
0.391429
0.337187
0.00384742
1.55947e-05
1.12191e-07
1.08284e-08
2.904e-08
7.10061e-08
9.75675e-23
3.95359e-21
9.03568e-18
5.31033e-14
0.000107425
0.00711617
0.231213
0.272921
0.31164
0.313511
0.322585
0.324332
0.314546
0.169092
0.0019002
4.67156e-06
7.38508e-13
5.62195e-16
3.60616e-19
2.36598e-21
6.53545e-23
8.30329e-22
2.32844e-18
3.92438e-14
4.93918e-07
0.00252028
0.107736
0.247016
0.305067
0.252226
0.289001
0.284553
0.295174
0.106413
0.000262866
4.62116e-08
1.56726e-13
1.20387e-16
1.20881e-19
3.36532e-23
4.40015e-24
1.41376e-22
7.74151e-19
2.54289e-14
7.54866e-10
0.000115647
0.0505769
0.171173
0.187358
0.125356
0.151022
0.215906
0.234292
0.0287172
7.06252e-06
1.78407e-09
3.23747e-15
2.01276e-18
4.74156e-21
1.85194e-23
1.32637e-25
2.30303e-22
2.41312e-19
9.30797e-15
1.15308e-10
4.84196e-06
0.0137663
0.0595817
0.0529426
0.0199037
0.0429165
0.0727246
0.0906602
0.0053638
3.45144e-07
1.22082e-09
4.26084e-16
5.05577e-19
1.20062e-21
1.12554e-24
1.89437e-25
3.02261e-23
2.88341e-21
2.47461e-17
8.24142e-11
3.53505e-08
0.000156598
0.00120602
0.000389637
2.13587e-05
9.4477e-05
0.000570652
0.00780954
0.000153551
1.27628e-08
4.05695e-11
6.12157e-22
6.32293e-25
5.62792e-29
5.03936e-30
1.92547e-27
8.20541e-26
2.60219e-22
9.87589e-18
1.36002e-12
9.90602e-10
3.91562e-08
3.0557e-07
1.04498e-10
5.30219e-13
3.18622e-12
3.99312e-09
4.85814e-06
9.14462e-08
1.19169e-10
2.3706e-13
5.06537e-23
7.66556e-27
3.83563e-29
2.62236e-31
0
0
0
0
0
0
0
0
0
0
0
0
0
0
0
0
0
0
0
0
0
0
0
0
0
0
0
0
0
0
0
0
0
0
0
0
0
0
0
0
0
0
0
0
0
0
0
0
0
0
0
0
0
0
0
0
0
0
0
0
0
0
0
0
0
0
0
0
0
0
0
0
0
0
0
0
0
0
0
0
0
0
0
0
0
0
0
0
0
0
0
0
0
0
0
0
0
0
0
0
0
0
0
0
0
0
0
0
0
0
0
0
0
0
0
0
0
0
0
0
0
0
0
0
0
0
0
0
0
0
0
0
0
0
0
0
0
0
0
0
0
0
0
0
0
0
0
0
0
0
0
0
0
0
0
0
0
0
0
0
0
0
0
0
0
0
0
0
0
0
0
0
0
0
0
0
0
0
0
0
0
0
0
0
0
0
0
0
0
0
0
0
0
0
0
0
0
0
0
0
0
0
0
0
0
0
0
0
0
0
0
0
0
0
0
0
0
0
0
0
0
0
0
0
0
0
0
0
0
0
0
0
0
0
0
0
0
0
0
0
0.00311439
0.00302048
0.00361116
0.00534376
0.01719
0.063669
0.227488
0.235205
0.25965
0.270578
0.278171
0.364872
0.374578
0.202659
0.0225654
0.0125117
0.0065181
0.00443339
0.00388331
0.00427455
3.30316e-08
4.14014e-08
3.82192e-08
1.44377e-07
0.0257572
0.14274
0.378558
0.207216
0.250214
0.258458
0.264717
0.343573
0.397366
0.349203
0.00408105
1.86316e-05
1.13494e-07
1.47701e-08
3.24492e-08
7.27624e-08
6.55522e-23
5.95237e-21
4.05256e-18
3.9147e-14
0.000137511
0.00721718
0.239572
0.273181
0.311317
0.314938
0.322871
0.326729
0.316459
0.176253
0.0021467
6.1306e-06
1.42312e-12
6.43227e-16
1.60229e-19
1.05837e-21
2.94611e-23
1.1701e-21
8.17126e-19
2.90093e-14
4.97287e-07
0.00266653
0.110761
0.249183
0.30831
0.259722
0.296014
0.288486
0.297913
0.115736
0.000306831
6.32589e-08
3.64131e-13
1.419e-16
4.88021e-20
4.40488e-23
2.13341e-24
3.37999e-23
2.43703e-19
1.8123e-14
7.72788e-10
0.000114651
0.0528327
0.176523
0.196457
0.135171
0.160113
0.227277
0.245853
0.0323315
8.21309e-06
1.99035e-09
8.46749e-15
4.21847e-18
3.67647e-21
2.32263e-23
3.59138e-26
6.5219e-23
7.5989e-20
7.03309e-15
1.15957e-10
5.21808e-06
0.0146809
0.0637269
0.0576491
0.0222282
0.0472543
0.0818668
0.101629
0.00619276
4.24369e-07
1.40907e-09
1.45254e-15
9.67139e-19
6.10572e-22
7.14e-25
5.23338e-26
1.04622e-23
2.42438e-21
3.21257e-17
8.82523e-11
3.8187e-08
0.000167279
0.00130225
0.000430578
2.37777e-05
0.000105619
0.000653161
0.00902451
0.000176288
1.49135e-08
4.59101e-11
2.97374e-21
1.92919e-24
1.38893e-28
1.03161e-29
1.30101e-27
6.02827e-26
2.55043e-22
4.432e-18
1.46433e-12
1.03257e-09
4.16279e-08
3.25699e-07
1.12246e-10
5.52748e-13
2.29239e-12
3.47569e-09
5.38618e-06
1.00661e-07
1.25708e-10
2.86542e-13
3.27939e-22
3.22491e-26
1.01087e-28
3.32226e-31
0
0
0
0
0
0
0
0
0
0
0
0
0
0
0
0
0
0
0
0
0
0
0
0
0
0
0
0
0
0
0
0
0
0
0
0
0
0
0
0
0
0
0
0
0
0
0
0
0
0
0
0
0
0
0
0
0
0
0
0
0
0
0
0
0
0
0
0
0
0
0
0
0
0
0
0
0
0
0
0
0
0
0
0
0
0
0
0
0
0
0
0
0
0
0
0
0
0
0
0
0
0
0
0
0
0
0
0
0
0
0
0
0
0
0
0
0
0
0
0
0
0
0
0
0
0
0
0
0
0
0
0
0
0
0
0
0
0
0
0
0
0
0
0
0
0
0
0
0
0
0
0
0
0
0
0
0
0
0
0
0
0
0
0
0
0
0
0
0
0
0
0
0
0
0
0
0
0
0
0
0
0
0
0
0
0
0
0
0
0
0
0
0
0
0
0
0
0
0
0
0
0
0
0
0
0
0
0
0
0
0
0
0
0
0
0
0
0
0
0
0
0
0
0
0
0
0
0
0
0
0
0
0
0
0
0
0
0
0
0
0.00310992
0.0030226
0.00363944
0.00536292
0.018029
0.0648843
0.229145
0.234755
0.258579
0.269039
0.276832
0.366085
0.37663
0.203693
0.0228345
0.0126857
0.00653103
0.00444737
0.00386069
0.00430319
3.368e-08
4.17082e-08
3.87554e-08
1.558e-07
0.030111
0.146514
0.386692
0.202845
0.245966
0.253686
0.260144
0.345155
0.403246
0.360907
0.0042887
2.17125e-05
1.14016e-07
1.57501e-08
3.45944e-08
7.38741e-08
8.10764e-23
8.80822e-21
1.60861e-18
3.32281e-14
0.000174205
0.00726861
0.247188
0.273383
0.310928
0.315983
0.322962
0.328942
0.318254
0.182598
0.00240275
7.85486e-06
3.56498e-12
1.03167e-15
8.58229e-20
5.3472e-22
1.99887e-23
1.67195e-21
2.66641e-19
2.26332e-14
4.73988e-07
0.00280364
0.113516
0.250976
0.310765
0.266033
0.301843
0.291607
0.300011
0.124689
0.000354151
8.53726e-08
1.04876e-12
2.2577e-16
1.49509e-20
5.2126e-23
9.71081e-25
8.93171e-24
6.73479e-20
1.00897e-14
7.94022e-10
0.000114316
0.0550167
0.181313
0.204747
0.144497
0.168539
0.23716
0.255747
0.0359952
9.47302e-06
2.20355e-09
2.60887e-14
7.39539e-18
5.74378e-21
2.63447e-23
1.25869e-26
1.76693e-23
2.13008e-20
4.18042e-15
1.17491e-10
5.63764e-06
0.0155924
0.0677942
0.0622795
0.0245977
0.0515646
0.0910305
0.112531
0.00705809
5.23546e-07
1.62286e-09
4.63503e-15
1.4865e-18
6.72533e-22
3.09431e-25
1.62247e-26
3.71842e-24
1.78541e-21
5.40042e-17
9.51892e-11
4.11956e-08
0.000177964
0.00139891
0.000472264
2.62036e-05
0.000117069
0.000739341
0.0102998
0.000199763
1.72555e-08
5.30762e-11
1.08677e-20
5.38806e-24
3.41053e-28
2.26999e-29
9.97159e-28
5.00089e-26
2.36167e-22
8.21314e-18
1.57211e-12
1.07416e-09
4.4106e-08
3.46257e-07
1.20268e-10
5.74118e-13
1.68898e-12
3.07089e-09
5.92328e-06
1.09957e-07
1.31821e-10
3.53182e-13
1.4003e-21
1.34321e-25
2.88438e-28
4.55958e-31
0
0
0
0
0
0
0
0
0
0
0
0
0
0
0
0
0
0
0
0
0
0
0
0
0
0
0
0
0
0
0
0
0
0
0
0
0
0
0
0
0
0
0
0
0
0
0
0
0
0
0
0
0
0
0
0
0
0
0
0
0
0
0
0
0
0
0
0
0
0
0
0
0
0
0
0
0
0
0
0
0
0
0
0
0
0
0
0
0
0
0
0
0
0
0
0
0
0
0
0
0
0
0
0
0
0
0
0
0
0
0
0
0
0
0
0
0
0
0
0
0
0
0
0
0
0
0
0
0
0
0
0
0
0
0
0
0
0
0
0
0
0
0
0
0
0
0
0
0
0
0
0
0
0
0
0
0
0
0
0
0
0
0
0
0
0
0
0
0
0
0
0
0
0
0
0
0
0
0
0
0
0
0
0
0
0
0
0
0
0
0
0
0
0
0
0
0
0
0
0
0
0
0
0
0
0
0
0
0
0
0
0
0
0
0
0
0
0
0
0
0
0
0
0
0
0
0
0
0
0
0
0
0
0
0
0
0
0
0
0
0.00310855
0.00303921
0.00367323
0.00539034
0.0189341
0.0662461
0.231017
0.234388
0.257608
0.267571
0.275591
0.367263
0.378605
0.204644
0.0230956