/*--------------------------------*- C++ -*----------------------------------*\
| =========                 |                                                 |
| \\      /  F ield         | OpenFOAM: The Open Source CFD Toolbox           |
|  \\    /   O peration     | Version:  2.3.0                                 |
|   \\  /    A nd           | Web:      www.OpenFOAM.org                      |
|    \\/     M anipulation  |                                                 |
\*---------------------------------------------------------------------------*/
FoamFile
{
    version     2.0;
    format      ascii;
    class       volScalarField;
    location    "1.50002";
    object      epsilon.air;
}
// * * * * * * * * * * * * * * * * * * * * * * * * * * * * * * * * * * * * * //

dimensions      [0 2 -3 0 0 0 0];

internalField   nonuniform List<scalar> 
10000
(
296.965
201.695
89.136
49.0212
9.39395
2.04567
0.612191
0.141802
0.0295102
0.0387959
0.0358055
0.0435219
0.0713087
0.184557
1.00168
5.09496
16.7093
42.5839
49.9896
125.165
1324.76
293.931
39.3535
137.837
3.68257
0.0315832
0.00748649
0.00355876
0.00646513
0.00972759
0.00877067
0.0108116
0.0111919
0.0151564
0.129096
1.88461
19.0326
118.026
52.5416
92.3799
7835.57
2222.53
99.5606
39.5399
3.13357
0.0338999
0.00120424
0.00225939
0.00471428
0.00688219
0.00659072
0.00937759
0.00977353
0.0125788
0.0843216
1.61344
31.5888
173.804
132.402
89.7115
44274.3
16354.2
378.454
31.0489
2.29997
0.0228041
0.000939399
0.00166136
0.0033147
0.00505422
0.00494215
0.0090515
0.0101596
0.0147696
0.0833541
1.8157
167.574
194.111
311.746
103.29
17454.8
14909.4
2460.58
37.0107
2.12597
0.0276491
0.000927786
0.00140047
0.00302731
0.00535656
0.00488923
0.00990466
0.0122715
0.0426732
0.0923884
3.74889
1347.07
394.324
662.322
229.849
96149
7543.86
19334.3
136.598
2.2102
0.0302882
0.00174483
0.00149322
0.00519768
0.020837
0.00993151
0.0272636
0.0339756
0.105618
0.150564
4.80537
594.957
2057.87
709.408
1470.47
87564.5
660.919
22151.9
853.851
3.10369
0.0547907
0.0108876
0.021901
0.0815604
0.132461
0.112877
0.284191
0.330543
0.271732
0.373435
3.73308
126.252
10871.9
192.673
10631.3
328.733
248.742
20835.1
1636.67
6.13604
0.134081
0.0651093
0.124439
0.361857
0.505966
0.428153
0.806224
0.95644
0.726824
0.8623
4.33908
85.8168
10006.8
373.444
10562.4
83.4236
303.485
24624.5
1442.88
9.05698
0.596839
0.543799
0.660801
1.36043
1.54574
1.28084
1.83888
1.94642
1.72203
1.82866
10.9445
80.8343
10212.4
790.309
10371.4
157.589
275.006
599.15
1024.27
11.4913
2.86456
3.67364
2.7917
3.53823
3.54999
2.74193
3.50669
3.40347
3.43937
4.17257
10.1777
112.096
10363.2
1657.73
9660.38
185.659
949.885
105.96
1040.47
14.3572
2.88776
4.31828
4.04108
3.41502
3.35146
3.7086
3.17139
2.91565
3.17625
4.71966
7.93398
918.481
12850.2
4302.6
9721.73
271.569
5431.3
107.558
1160.22
16.3885
2.87483
2.47445
3.07703
1.84734
2.40864
2.70626
1.78559
1.67643
1.8568
2.76029
13.0439
1909.07
16253.2
15857.2
10070.5
627.021
30559.1
400.035
180.103
19.4179
3.21505
2.67681
1.94684
1.69167
2.19072
1.73751
1.70214
1.62347
1.85806
3.24156
35.8938
850.035
227.695
13887.1
590.665
1586.97
28899.5
2771.79
106.541
11.0463
3.85072
3.40021
2.15443
1.86623
1.75889
1.95086
2.14332
1.89885
2.21857
6.49221
25.2488
173.79
92.1858
10845.9
1072.19
7349.22
29528.3
18738
264.121
10.6366
5.91459
7.9556
2.62102
2.21485
2.00264
2.6302
3.76486
2.29168
2.61372
4.52736
17.8994
65.4561
21.0145
674.241
9936.13
41060.6
26290.4
113.365
1596.71
14.4205
5.43167
8.24317
4.23454
2.67521
2.30117
2.83798
2.67252
2.43025
3.00627
2.96237
15.4984
31.9151
4.42147
66.4429
11573.8
22793.8
17356.3
61.3861
1024.44
13.2821
5.13011
7.60746
4.07328
3.09553
2.85348
1.89476
2.30837
2.214
2.40503
2.93323
13.8
14.5296
2.57915
29.7773
7603.39
7487.43
8019.06
14.8151
782.365
10.718
3.09855
6.36409
3.43938
5.78775
5.97614
2.05597
4.97099
2.80535
2.60864
3.01008
13.0979
6.28293
1.55339
15.4466
4246.79
1488.48
1391.94
2.08791
423.29
8.11383
3.46451
4.26929
1.90978
3.82195
4.29648
1.98179
3.87962
3.95261
2.33978
2.82652
6.55298
2.85202
0.714927
5.63164
799.894
74.8266
182.334
0.0722504
2.63552
0.738697
1.57233
1.46252
1.40949
3.08424
1.46362
1.52071
1.37983
1.48318
1.63581
1.76194
3.04119
0.346832
0.102397
1.80959
111.319
284.035
201.984
91.0763
47.6897
8.909
2.03433
0.621936
0.143148
0.0265934
0.0339794
0.0315083
0.0387049
0.0670552
0.186029
1.01659
5.11177
16.8712
40.8299
50.6353
124.445
1101.66
208.88
37.0327
120.627
2.65425
0.0309984
0.00853612
0.00328339
0.00611485
0.0096276
0.00861263
0.0107302
0.0110809
0.0152173
0.125993
1.95167
18.3868
106.758
50.33
95.0919
5693.93
1132.33
84.2343
39.1995
3.23611
0.0314975
0.00114344
0.00216535
0.00472151
0.00694283
0.00663542
0.00934209
0.00966466
0.0120255
0.0817885
1.63448
24.5926
162.258
126.102
93.2372
21120.5
6996.03
271.519
30.754
2.31455
0.0190833
0.000871316
0.00155005
0.00313192
0.00484351
0.0047565
0.00869778
0.00978635
0.0135402
0.0773452
1.71337
68.7765
178.808
286.621
103.671
12869.3
7934.23
1526.21
33.1087
2.15053
0.0248012
0.000861562
0.00130705
0.00267951
0.00461776
0.00418014
0.00822249
0.0102653
0.0304768
0.077099
2.31082
415.747
335.925
587.038
186.283
45450.4
5435.67
9673.34
81.0564
2.21017
0.0280757
0.00133428
0.00118492
0.00346392
0.0125261
0.00606639
0.015674
0.021471
0.078065
0.108624
3.14667
384.338
1563.08
619.86
869.885
38241.1
467.507
11767.5
210.719
2.81044
0.0482639
0.00851086
0.0161205
0.0576117
0.095104
0.0807047
0.228168
0.257027
0.213625
0.29679
3.26531
101.739
5685.86
154.96
4999.04
192.736
202.268
11493.4
688.696
4.45388
0.112703
0.0512019
0.100214
0.304988
0.446513
0.374286
0.750753
0.905841
0.661375
0.791175
4.01931
67.4241
5422.56
324.084
5573.41
84.8301
238.076
12069.8
796.217
7.13782
0.509138
0.453662
0.61001
1.28891
1.48846
1.24995
1.80442
1.92207
1.67354
1.77436
6.79021
62.7944
5524.02
714.487
4794.82
161.565
256.988
543.092
623.604
10.656
2.81719
3.38212
2.68857
3.19517
3.17968
2.59153
3.13791
3.07172
3.13081
3.68283
7.57852
70.2171
5617.4
1511.26
4140.57
190.286
805.135
83.8245
596.717
13.722
2.95173
3.90575
3.62792
3.16592
3.10396
3.36659
2.96985
2.75974
2.98761
4.24953
7.95086
176.103
6476.31
3586.11
4920.29
265.469
4041.21
62.4691
708.042
14.428
2.93244
2.5046
2.89444
1.85827
2.20841
2.57247
1.79545
1.68421
1.86691
2.79053
10.0727
513.571
6728.82
8424.82
4604.74
554.754
15958.8
142.973
170.582
14.0572
3.30407
2.72511
1.96395
1.70076
2.03916
1.74817
1.71107
1.6304
1.86799
3.24179
21.4923
523.92
163.7
7422.77
535.74
1360.43
15468.9
643.162
96.6546
9.45342
3.91124
3.44954
2.18225
1.87939
1.76931
1.96671
2.15469
1.90943
2.23168
5.61109
18.8336
154.661
62.6822
5273.75
757.803
5447.93
15054.9
2652.18
155.027
9.01139
4.66926
6.2249
2.66145
2.23776
2.01786
2.63963
3.40124
2.30805
2.63667
4.4926
13.3928
62.0788
16.6051
552.848
3864.92
20211.6
12814.3
58.0782
614.07
12.0282
4.62898
6.45246
3.76928
2.72141
2.3251
2.69189
2.61763
2.45061
3.03575
2.99354
11.2745
31.4731
4.41753
49.304
5639.83
10344.6
8006.19
33.2613
504.131
12.2057
4.51459
6.038
3.67213
3.15394
2.87974
1.90939
2.3176
2.23196
2.42983
2.97849
10.0191
14.524
2.61546
27.2523
3396.43
2874.83
3362.42
7.37358
374.554
10.3754
3.16132
5.13385
3.17285
4.78968
4.99921
2.07334
4.40105
2.82759
2.65786
3.0887
9.91663
6.68521
1.5744
19.8516
1711.42
660.022
582.69
0.950556
173.211
9.21858
3.6251
3.70427
1.93826
3.35914
3.73134
2.01316
3.4444
3.43861
2.418
2.95237
6.99811
3.71279
0.72972
11.2912
313.405
64.651
60.7648
0.0250444
3.34697
2.77983
2.24655
1.52915
1.45435
2.68863
1.52979
1.59608
1.43549
1.56005
1.76185
2.04639
3.74259
0.65151
0.106198
3.6141
34.7806
264.33
200.324
90.3312
45.1401
8.46775
2.01282
0.620763
0.141303
0.0248001
0.0290589
0.027268
0.034399
0.0624953
0.180258
1.00314
5.02241
16.5133
37.0083
49.7622
123.168
861.138
165.452
35.1064
94.1588
2.10593
0.0307322
0.00901608
0.00307316
0.00482495
0.00808351
0.00711315
0.00905176
0.00940536
0.013277
0.10954
1.95983
17.6766
90.188
47.3952
99.3866
3838.24
627.246
71.8732
38.4867
3.28588
0.0300094
0.00108859
0.00186726
0.00418873
0.00634031
0.0060054
0.00854156
0.00870739
0.0110926
0.0751277
1.63985
20.93
142.259
115.962
98.9327
10463.1
3119.68
191.129
30.4279
2.30983
0.0172869
0.000783542
0.00135924
0.0027028
0.00421496
0.00412827
0.00766823
0.00865364
0.0119595
0.0686145
1.67732
33.216
154.364
246.932
105.985
8257.31
4345.79
870.878
30.6086
2.16182
0.0234885
0.00078447
0.00117564
0.0023583
0.00390858
0.00354696
0.00696479
0.00873292
0.0222479
0.0697771
1.89454
135.23
264.739
464.321
157.49
21239.1
3341.87
4966.84
56.4231
2.21227
0.0272476
0.00115845
0.00105759
0.00282965
0.00922942
0.00466829
0.0107784
0.0149425
0.0587247
0.08879
2.42585
199.053
1094.26
476.185
505.019
15667.1
338.424
6471.59
108.138
2.71569
0.0455961
0.00761119
0.0138513
0.0471767
0.0769126
0.0653492
0.173329
0.188921
0.159163
0.226866
2.96729
79.7057
3073.35
125.2
2432.28
123.739
167.522
6538.39
285.777
3.81857
0.104029
0.0458441
0.0893597
0.25549
0.377711
0.314859
0.666155
0.821255
0.568706
0.690547
3.90452
53.9334
3036.23
272.637
3033.16
86.6638
188.151
6246.65
435.092
6.06234
0.44769
0.387449
0.543755
1.17648
1.38985
1.18556
1.73427
1.86596
1.57975
1.68354
5.39961
50.7996
3093.39
615.654
2237.55
165.133
231.705
470.422
387.071
9.69046
2.90642
3.28818
2.74581
3.05702
3.02762
2.63003
2.9806
2.92781
3.00085
3.47711
7.0689
54.577
3152.46
1290.17
1806.94
194.052
641.512
64.4164
365.079
13.5176
3.06782
3.69795
3.42423
3.0397
2.97852
3.19674
2.86693
2.67972
2.8902
4.01728
8.74665
81.3564
3385.82
2723.01
2570.8
258.235
2776.59
39.1018
410.81
14.1486
3.03687
2.56045
2.80234
1.87935
2.0978
2.5046
1.81404
1.69865
1.88562
2.84967
9.22858
166.539
2841.14
4627.68
2252.87
484.976
8588.8
58.1567
156.553
13.8997
3.46727
2.81256
1.99431
1.7176
1.94313
1.76745
1.72732
1.643
1.88603
3.26919
14.9705
249.936
111.777
4082.93
474.413
1103.17
8552.46
103.183
86.8541
10.1503
4.05798
3.56672
2.23076
1.90331
1.78858
1.99392
2.17755
1.92865
2.25681
5.06862
15.6102
127.138
42.3873
2674.3
570.935
3752.48
7906.15
195.137
95.5528
9.19102
4.19244
5.31789
2.73949
2.27927
2.04553
2.66158
3.19057
2.33853
2.67866
4.45029
11.656
56.6941
12.8455
386.882
1688.58
10174.9
6392.48
33.876
249.549
10.8223
4.27905
5.50529
3.54472
2.80585
2.36881
2.61631
2.54524
2.48813
3.09035
3.0557
9.82517
30.8732
4.43118
33.0955
2831.78
4717.03
3775.63
19.1761
262.921
11.6117
4.23039
5.2001
3.47419
3.27738
2.93735
1.93539
2.33802
2.2646
2.47477
3.06542
8.77061
14.3501
2.6761
17.4395
1551.76
1316.2
1529.94
4.06153
192.682
10.5593
3.27395
4.47988
3.03516
4.25351
4.45051
2.10604
4.05424
2.87507
2.74772
3.2374
8.71793
6.10366
1.60202
12.6054
745.115
497.776
374.333
0.502292
70.6402
10.9629
3.89317
3.44728
1.99027
3.14301
3.46875
2.0692
3.23353
3.20044
2.55613
3.17108
7.71907
2.57451
0.747791
8.11127
176.932
14.6751
13.9609
0.00616468
2.65258
5.55504
3.35368
1.64617
1.53402
2.50657
1.64646
1.72876
1.53309
1.69474
1.98567
2.55135
4.93705
0.35939
0.111657
2.41233
5.10599
251.808
202.351
91.476
43.8761
8.1974
2.00647
0.626231
0.142052
0.0239692
0.0268547
0.0253738
0.0324504
0.0607582
0.179524
1.00407
4.97725
16.4917
35.2903
50.0011
123.085
653.311
141.592
34.0916
68.7919
1.61919
0.0306492
0.0102829
0.00304799
0.00418772
0.00681271
0.00599145
0.00761884
0.00801859
0.0113451
0.0997463
1.95829
16.9703
71.9745
44.2978
104.619
2503.78
422.236
63.4947
37.4179
3.31646
0.0286917
0.00107655
0.00173615
0.00390309
0.00579846
0.00549179
0.00779708
0.00785677
0.010148
0.0716194
1.64071
18.9365
117.511
104.238
105.799
5269.66
1560.45
140.724
30.1694
2.30166
0.0150039
0.000744875
0.00127298
0.00249245
0.00383637
0.00376214
0.00686189
0.00770249
0.0105467
0.0639023
1.66243
23.0386
126.121
203.352
109.682
4583.62
2482.32
517.613
29.5021
2.16701
0.021561
0.000748903
0.00111589
0.00219382
0.00345506
0.00320201
0.00610562
0.00760849
0.0166674
0.0626885
1.77895
57.6975
198.995
331.241
144.815
9264.29
1968.9
2599.64
44.6887
2.21367
0.0261254
0.000990275
0.000933213
0.00230069
0.00657617
0.00357643
0.00783969
0.0108183
0.0447225
0.0707628
2.10435
100.757
732.426
323.76
334.186
5183.61
262.846
3707.38
75.5876
2.66889
0.040916
0.0064108
0.0110324
0.0360631
0.0579332
0.0494232
0.127921
0.128684
0.116386
0.171701
2.77885
62.792
1724.74
103.648
1268.27
95.0241
143.384
3875.35
138.896
3.59365
0.0910222
0.0392016
0.076377
0.214031
0.315415
0.262685
0.572678
0.721307
0.47222
0.585391
3.90711
45.1716
1769.38
226.721
1716.96
88.3311
156.159
3483.53
246.237
5.57995
0.380059
0.317076
0.471079
1.04458
1.2668
1.09408
1.63765
1.78433
1.45515
1.56765
5.15673
43.403
1804.01
512.951
1075.77
165.262
205.852
389.567
250.252
9.71412
3.07295
3.33377
2.90169
3.06811
3.03387
2.78308
2.97755
2.92226
3.00231
3.47282
7.6122
46.7303
1837.32
1046.48
848.444
192.804
502.961
48.1671
241.385
13.7652
3.205
3.6295
3.3619
3.00006
2.93926
3.14481
2.83433
2.65444
2.85828
3.94465
9.86169
58.4229
1850.21
1931.49
1410.29
248.379
1852.8
26.2906
257.347
14.7954
3.15985
2.63121
2.77368
1.9067
2.05036
2.48371
1.83783
1.71691
1.90915
2.92611
9.65051
83.7979
1227.84
2629.87
1230.37
422.838
4813.52
34.7571
141.056
15.3147
3.6576
2.92219
2.02933
1.7389
1.89015
1.78998
1.74768
1.65869
1.90849
3.32348
12.7846
125.229
73.4816
2322.19
414.957
872.048
4914.45
42.376
78.7971
11.8537
4.26979
3.73788
2.28615
1.93333
1.81302
2.02496
2.20824
1.9527
2.28934
4.77298
14.2428
98.5289
29.8179
1409.41
449.209
2497.19
4291.15
38.6077
71.8904
10.1633
4.14804
4.92361
2.83467
2.33132
2.08022
2.69314
3.09214
2.37747
2.73183
4.42737
11.2663
51.2191
10.5287
230.458
910.607
5224.39
3271.23
22.6479
127.271
10.6325
4.20947
5.08563
3.47847
2.91276
2.42387
2.59102
2.48792
2.53608
3.16101
3.13675
9.66216
30.205
4.47544
18.6571
1467.85
2182.79
1845.31
11.6873
150.536
11.5729
4.15654
4.82802
3.41308
3.44974
3.01868
1.96547
2.36687
2.3055
2.53076
3.17698
8.71544
14.4237
2.75857
7.85372
729.498
692.509
772.67
2.44927
111.314
11.0959
3.4038
4.20173
2.98753
4.02699
4.19365
2.14531
3.87159
2.94149
2.86138
3.42834
8.56426
6.13811
1.64016
5.18367
340.723
209.064
176.619
0.279899
38.106
12.8053
4.18928
3.38585
2.05144
3.08881
3.39947
2.13415
3.17011
3.13789
2.71533
3.41904
8.51677
2.53232
0.771759
3.42682
55.0477
1.19588
1.11307
0.00702668
2.64894
8.69591
4.61096
1.7817
1.62675
2.4619
1.78195
1.88275
1.64585
1.85064
2.24805
3.14597
6.32748
0.4065
0.119555
0.701778
0.523992
239.764
205.103
92.6949
42.5145
7.98572
2.0013
0.628753
0.141931
0.0224106
0.0235299
0.0224089
0.0293091
0.0577849
0.178309
1.00526
4.93268
16.4445
33.0346
50.1099
123.057
488.501
127.005
33.7845
51.6586
1.24345
0.0306213
0.0110756
0.0030888
0.00353325
0.0056649
0.004995
0.00634755
0.00677178
0.00962996
0.0884345
1.94598
16.2955
55.2521
41.1852
110.646
1594.41
312.459
58.0844
36.1359
3.32835
0.0271917
0.00107182
0.00155882
0.00356274
0.00525867
0.00496362
0.00705612
0.00706954
0.00919516
0.0665669
1.63131
17.6732
91.8798
92.0955
113.26
2627.76
909.443
109.476
30.0107
2.28786
0.0129984
0.000668737
0.00112495
0.0021839
0.00338537
0.00332978
0.00609876
0.00681204
0.00912646
0.0559514
1.64541
19.0335
98.217
160.72
114.153
2133.84
1483.33
330.944
29.1715
2.16579
0.0203767
0.000686075
0.00100679
0.00195681
0.00296303
0.00285344
0.00534941
0.00665686
0.012985
0.055302
1.73774
34.049
144.744
220.677
142.941
3430.88
1198.48
1395.52
38.737
2.20744
0.0254585
0.000856351
0.000832502
0.00192599
0.00486366
0.00287051
0.00600535
0.00820341
0.0340067
0.0585787
1.95537
57.6791
475.52
200.321
250.997
1156.64
216.831
2213.09
60.2758
2.62119
0.0380783
0.0057861
0.00945678
0.0289923
0.0453859
0.0391251
0.0932057
0.0835818
0.0852476
0.130755
2.65666
50.0698
1001.87
87.3438
734.266
84.5949
126.154
2385.86
87.4493
3.49682
0.0834399
0.0359181
0.0683976
0.179957
0.262538
0.218935
0.480314
0.615915
0.382664
0.486365
3.95703
39.5253
1065.07
187.034
1013.92
91.595
135.017
2085.59
148.12
5.40251
0.315967
0.249401
0.395696
0.89994
1.12411
0.975199
1.5144
1.67493
1.30316
1.41849
5.34488
38.8811
1088.13
415.669
561.824
158.814
182.907
307.456
167.888
10.2301
3.22452
3.45143
3.05792
3.1592
3.12472
2.94477
3.05727
2.9917
3.07417
3.56995
8.5477
42.2628
1106.22
814.066
460.041
181.663
398.154
35.2306
170.809
14.3182
3.31139
3.63442
3.37167
3.00613
2.94546
3.15346
2.83918
2.65846
2.86173
3.95382
10.8288
48.3951
1043.29
1302.11
827.586
233.143
1241.35
18.657
177.112
15.7609
3.25502
2.70002
2.77789
1.93349
2.03996
2.48727
1.861
1.73443
1.93157
2.99961
10.5579
58.0317
531.038
1543.17
762.467
363.851
2810.75
23.4866
124.49
16.8611
3.80396
3.02921
2.0558
1.75958
1.86742
1.80718
1.76736
1.67369
1.92982
3.38617
12.4967
78.5057
48.5662
1355.17
359.455
678.305
2926.01
28.2692
73.0148
13.5729
4.46062
3.92327
2.32768
1.9625
1.83687
2.04836
2.23966
1.97591
2.32133
4.64463
13.9297
75.2488
22.3061
752.529
355.207
1636.16
2405.52
24.352
62.6484
11.2012
4.26385
4.82835
2.9096
2.38204
2.11382
2.72203
3.06684
2.41587
2.78407
4.43419
11.5042
46.9747
9.27957
118.519
565.06
2712.05
1712.51
14.4513
84.3378
10.8599
4.2642
4.9763
3.49093
3.01832
2.47757
2.59273
2.45716
2.58386
3.2333
3.21557
10.0625
29.6696
4.5586
9.34833
780.063
971.502
915.071
7.26889
98.701
11.79
4.18158
4.73332
3.42181
3.63338
3.1048
1.9883
2.39694
2.34459
2.58453
3.28561
9.18573
14.8109
2.86377
3.21104
341.597
205.433
306.701
1.42691
74.242
11.6395
3.50364
4.14655
2.98848
3.98747
4.12057
2.17587
3.8022
3.01256
2.97341
3.61675
8.91131
6.58456
1.69324
1.98969
113.402
13.7104
14.2648
0.183085
27.8321
14.1762
4.40072
3.41408
2.09827
3.11141
3.42168
2.18332
3.18021
3.1556
2.83585
3.60365
9.11597
2.95391
0.804192
1.23578
3.37846
0.211981
0.214979
0.011227
2.96337
11.5412
5.63116
1.88519
1.69781
2.48169
1.88582
2.00094
1.73185
1.97
2.4519
3.61514
7.44641
0.658361
0.130336
0.127494
0.0830862
228.898
209.211
94.2907
41.5578
7.82661
1.99628
0.631462
0.14251
0.0217454
0.0217121
0.0208457
0.0277102
0.0564196
0.178028
1.00692
4.88407
16.4271
31.4832
50.3741
123.213
367.435
118.85
34.1974
41.6468
0.961992
0.0309931
0.0114328
0.0034179
0.00307447
0.00473051
0.00421413
0.00532376
0.00576901
0.00818305
0.0787893
1.92265
15.6949
41.0345
38.0914
117.439
992.607
244.694
54.8957
34.8718
3.32008
0.0259134
0.00111454
0.00145331
0.00329534
0.0047579
0.00448187
0.00637557
0.00635002
0.00826358
0.0629178
1.609
16.8276
68.6118
80.0343
121.258
1316.21
597.983
89.8061
29.9273
2.26569
0.0112348
0.000630945
0.00103968
0.00195642
0.00300079
0.00295738
0.00536774
0.0060098
0.00777602
0.0503651
1.61798
17.2225
73.4995
122.449
118.942
893.491
934.77
226.311
29.2576
2.15846
0.0194656
0.000654112
0.000947151
0.0017912
0.00261141
0.00258145
0.00477833
0.00584762
0.0104005
0.0491248
1.70699
24.8505
102.645
144.837
140.016
1065.18
778.977
792.098
35.7469
2.18948
0.0242511
0.000754856
0.000753244
0.00164736
0.00367023
0.00236026
0.00478315
0.00646259
0.0259772
0.0476175
1.86511
39.6464
301.582
120.751
209.046
267.426
184.518
1376.31
51.9611
2.5619
0.0334262
0.00488341
0.00750866
0.0222401
0.0344303
0.0298479
0.0672852
0.0527055
0.0628303
0.100789
2.5627
40.7986
598.929
74.5104
474.041
82.4496
113.081
1521.05
67.6849
3.41226
0.073259
0.0321108
0.060589
0.153278
0.220145
0.184074
0.396722
0.513392
0.307546
0.4021
3.99238
35.926
657.111
153.546
633.34
101.878
119.838
1321.21
98.79
5.33246
0.270571
0.200733
0.330568
0.748186
0.965225
0.837896
1.36196
1.53199
1.12434
1.22634
5.66483
36.1826
673.305
329.356
337.831
146.388
163.219
230.781
119.8
13.9953
2.69113e-05
3.53684
2.69113e-05
3.23998
3.20835
2.69113e-05
3.13464
3.0601
3.1403
3.6564
9.31499
39.5945
681.905
609.334
296.658
157.554
321.385
25.9628
128.713
19.4616
2.69113e-05
2.69113e-05
2.69113e-05
2.69113e-05
2.69113e-05
2.69113e-05
2.69113e-05
2.69113e-05
2.69113e-05
2.69113e-05
15.0874
43.0186
597.418
853.437
546.669
208.705
851.851
14.2912
132.371
20.4989
2.69113e-05
2.74483
2.69113e-05
1.95038
2.04339
2.69113e-05
1.87568
1.74521
1.94507
3.04311
11.3798
47.535
222.167
932.966
552.404
302.48
1708.53
17.0127
108.234
20.7283
2.69113e-05
3.10152
2.69113e-05
1.77281
1.86214
2.69113e-05
1.78011
1.68299
1.94272
3.42658
12.8352
59.2958
33.9936
803.279
317.756
517.94
1798.76
20.3025
68.7472
18.9185
2.69113e-05
4.06028
2.69113e-05
1.98175
1.85242
2.69113e-05
2.26161
1.99078
2.34168
4.61086
14.0979
60.261
18.0439
396.284
274.116
1034.04
1386.34
17.5141
58.3238
17.3696
2.69113e-05
4.86727
2.69113e-05
2.41584
2.13561
2.69113e-05
3.07714
2.44146
2.81866
4.45577
11.9117
43.8201
8.74177
54.1246
364.917
1380.5
898.37
8.95789
67.0812
18.2131
2.69113e-05
5.00882
2.69113e-05
3.09067
2.51298
2.69113e-05
2.44762
2.61682
3.28642
3.26274
10.5652
29.3489
4.6832
4.36628
409.661
340.303
398.67
4.65488
74.3515
21.9624
2.69113e-05
4.76613
2.69113e-05
3.7685
3.1667
2.69113e-05
2.41712
2.3693
2.61885
3.3547
9.7347
15.4381
2.99016
1.47019
131.034
18.7253
62.0405
1.12096
57.0885
21.072
2.69113e-05
4.18929
2.69113e-05
4.02897
4.13913
2.69113e-05
3.79933
3.06473
3.05019
3.74284
9.36066
7.19969
1.76111
0.937427
18.2254
0.311303
0.497919
0.199029
24.8941
18.8629
2.69113e-05
2.69113e-05
2.69113e-05
2.69113e-05
2.69113e-05
2.69113e-05
2.69113e-05
2.69113e-05
2.69113e-05
2.69113e-05
29.2224
3.51101
0.843902
0.532448
0.153136
0.0222937
0.0316464
0.0132015
3.45518
15.9334
0.000237624
0.000237624
0.000237624
0.000237624
0.000237624
0.000237624
0.000237624
0.000237624
0.000237624
0.000237624
29.1095
1.1084
0.142926
0.0328935
0.0107734
219.929
214.196
96.024
41.0517
7.70709
1.9875
0.633151
0.142667
0.0206625
0.0195962
0.0189301
0.0256884
0.0546328
0.177903
1.00779
4.82665
16.4094
30.2378
50.6815
123.482
278.843
115.614
35.4528
35.6209
0.753438
0.0316325
0.0114271
0.00391
0.00267574
0.00397875
0.00357938
0.00450521
0.00494883
0.00698238
0.0689694
1.88726
15.1771
29.9893
35.1622
125.061
603.149
200.546
53.4794
33.5483
3.28611
0.0242767
0.00119211
0.00134255
0.00305525
0.0042992
0.00406584
0.00574759
0.00570702
0.00739817
0.0588263
1.57389
16.2903
49.5726
68.8812
130.188
713.984
425.049
77.2147
29.9093
2.23406
0.00977674
0.000565894
0.000924791
0.00171346
0.00262762
0.00259355
0.00472441
0.00527026
0.00660686
0.043286
1.57742
16.3836
53.3311
90.7935
124.217
419.555
624.493
165.458
29.5635
2.14362
0.0189294
0.000601197
0.000859285
0.00160709
0.00231896
0.00231028
0.00425065
0.00515827
0.00854214
0.0431082
1.67067
20.763
71.1481
97.1426
138.084
368.11
540.887
487.285
34.3877
2.15672
0.0232175
0.000661902
0.000676855
0.00142243
0.00285488
0.00198745
0.00390554
0.00517525
0.0198204
0.0398311
1.78621
31.2966
187.205
77.7079
185.378
125.706
158.924
890.413
47.0771
2.48825
0.030298
0.00440998
0.00637235
0.0175872
0.0263452
0.0231422
0.0479325
0.0325407
0.0463992
0.0782555
2.46387
34.8825
365.643
64.1428
332.804
89.5523
102.298
1000.87
58.3975
3.23374
0.0616382
0.0264761
0.048158
0.112492
0.160976
0.133959
0.294128
0.387405
0.218897
0.297139
3.9271
33.6611
412.479
125.88
424.49
127.579
107.783
870.414
75.6624
5.28099
0.255559
0.187116
0.30201
0.638917
0.829753
0.718175
1.20232
1.36854
0.954993
1.04477
5.92705
34.6848
423.534
256.99
238.393
136.312
145.769
165.432
92.5846
19.9536
2.69113e-05
2.69113e-05
2.69113e-05
2.69113e-05
2.69113e-05
2.69113e-05
2.69113e-05
2.69113e-05
2.69113e-05
2.69113e-05
17.6791
37.9089
425.713
441.78
226.449
121.192
263.729
19.9187
102.754
23.8794
2.69113e-05
2.69113e-05
2.69113e-05
2.69113e-05
2.69113e-05
2.69113e-05
2.69113e-05
2.69113e-05
2.69113e-05
2.69113e-05
18.135
39.9629
337.029
555.706
445.231
168.858
602.882
11.7392
105.776
24.5266
2.69113e-05
2.69113e-05
2.69113e-05
2.69113e-05
2.69113e-05
2.69113e-05
2.69113e-05
2.69113e-05
2.69113e-05
2.69113e-05
18.8564
42.5292
98.523
579.21
501.927
228.592
1076.35
12.8074
94.3372
24.4845
2.69113e-05
2.69113e-05
2.69113e-05
2.69113e-05
2.69113e-05
2.69113e-05
2.69113e-05
2.69113e-05
2.69113e-05
2.69113e-05
19.429
49.9729
25.7832
476.343
314.248
385.988
1134.94
15.0384
65.5076
23.095
2.69113e-05
2.69113e-05
2.69113e-05
2.69113e-05
2.69113e-05
2.69113e-05
2.69113e-05
2.69113e-05
2.69113e-05
2.69113e-05
19.9414
51.3479
15.7328
198.582
199.359
596.217
807.458
12.5536
55.9735
21.9099
2.69113e-05
2.69113e-05
2.69113e-05
2.69113e-05
2.69113e-05
2.69113e-05
2.69113e-05
2.69113e-05
2.69113e-05
2.69113e-05
20.839
41.4327
8.69379
22.1198
231.083
642.606
437.915
6.11184
59.1337
22.3332
2.69113e-05
2.69113e-05
2.69113e-05
2.69113e-05
2.69113e-05
2.69113e-05
2.69113e-05
2.69113e-05
2.69113e-05
2.69113e-05
22.159
29.2014
4.85095
2.07197
188.487
68.3245
116.288
3.47144
62.3392
24.9772
2.69113e-05
2.69113e-05
2.69113e-05
2.69113e-05
2.69113e-05
2.69113e-05
2.69113e-05
2.69113e-05
2.69113e-05
2.69113e-05
24.3136
16.1981
3.13641
0.842218
30.9169
0.524523
4.9559
1.09861
49.1354
23.569
2.69113e-05
2.69113e-05
2.69113e-05
2.69113e-05
2.69113e-05
2.69113e-05
2.69113e-05
2.69113e-05
2.69113e-05
2.69113e-05
27.594
7.84672
1.84257
0.580388
1.28854
0.0350881
0.0377281
0.21948
24.8969
20.5629
2.69113e-05
2.69113e-05
2.69113e-05
2.69113e-05
2.69113e-05
2.69113e-05
2.69113e-05
2.69113e-05
2.69113e-05
2.69113e-05
28.871
3.87531
0.888333
0.307289
0.0277854
0.00614084
0.00769018
0.0147684
4.09346
17.4346
0.000237624
0.000237624
0.000237624
0.000237624
0.000237624
0.000237624
0.000237624
0.000237624
0.000237624
0.000237624
28.1483
1.32379
0.1558
0.0173322
0.00397054
213.134
220.284
97.9245
40.8641
7.61077
1.97544
0.634129
0.143131
0.0201463
0.0180397
0.0175432
0.0243544
0.0536063
0.177953
1.00808
4.76236
16.3967
29.3283
51.095
123.923
213.747
116.356
37.7358
31.9031
0.598865
0.0334255
0.0111395
0.00458999
0.00235097
0.00334881
0.00303476
0.0038143
0.00425461
0.00600051
0.0602613
1.84129
14.7865
21.9968
32.6608
133.741
390.872
171.847
53.4255
32.2604
3.23663
0.0228892
0.00130179
0.00126368
0.00285549
0.00390289
0.00370497
0.00517522
0.00514071
0.00662112
0.054731
1.52863
15.9787
35.1536
57.5136
140.585
441.654
318.467
69.1607
29.9561
2.19573
0.00846307
0.000526896
0.000845262
0.00150862
0.00229039
0.00226319
0.00413843
0.0045942
0.00568313
0.037633
1.52685
16.0355
37.8684
67.1089
130.244
256.705
441.202
128.16
29.9788
2.11859
0.0185947
0.000569302
0.000799128
0.00145239
0.00206985
0.00206568
0.00377306
0.00455773
0.00715389
0.038635
1.63029
18.9358
48.3127
67.3561
136.903
193.988
396.023
325.504
33.9319
2.10889
0.0213527
0.0005952
0.000617742
0.00124512
0.00228282
0.0017028
0.00323238
0.00416501
0.0151209
0.034204
1.71233
26.853
113.877
56.5173
168.057
105.124
137.55
597.387
44.1147
2.40656
0.0257708
0.00382049
0.00521271
0.0141834
0.0210193
0.0186403
0.0353675
0.0205042
0.0360085
0.0639576
2.34957
31.4337
225.911
55.7736
248.364
107.187
92.5991
677.245
53.3057
3.0295
0.0530541
0.023648
0.0420256
0.0912456
0.12371
0.104454
0.212742
0.277832
0.15822
0.225344
3.76027
32.3673
261.281
103.262
307.135
153.642
97.0921
588.016
64.5877
5.1163
0.23359
0.172204
0.270949
0.542891
0.702976
0.605505
1.03472
1.18735
0.789439
0.863414
6.01886
33.976
268.521
198.899
193.281
138.571
129.269
114.998
77.2976
24.1331
2.69113e-05
2.69113e-05
2.69113e-05
2.69113e-05
2.69113e-05
2.69113e-05
2.69113e-05
2.69113e-05
2.69113e-05
2.69113e-05
19.8431
36.8449
266.617
313.317
206.463
79.7185
217.476
16.5675
86.4322
26.9355
2.69113e-05
2.69113e-05
2.69113e-05
2.69113e-05
2.69113e-05
2.69113e-05
2.69113e-05
2.69113e-05
2.69113e-05
2.69113e-05
20.3532
38.1786
187.382
364.998
482.085
105.731
437.403
10.3026
89.1357
27.2663
2.69113e-05
2.69113e-05
2.69113e-05
2.69113e-05
2.69113e-05
2.69113e-05
2.69113e-05
2.69113e-05
2.69113e-05
2.69113e-05
21.1882
39.8929
51.2546
366.58
592.928
155.195
695.306
10.0364
83.4956
27.0622
2.69113e-05
2.69113e-05
2.69113e-05
2.69113e-05
2.69113e-05
2.69113e-05
2.69113e-05
2.69113e-05
2.69113e-05
2.69113e-05
21.8718
44.9023
21.1608
274.856
391.44
251.871
726.2
11.3644
63.0613
26.0666
2.69113e-05
2.69113e-05
2.69113e-05
2.69113e-05
2.69113e-05
2.69113e-05
2.69113e-05
2.69113e-05
2.69113e-05
2.69113e-05
22.4836
46.0524
14.7373
89.1052
128.663
307.397
454.342
9.036
54.5484
25.1709
2.69113e-05
2.69113e-05
2.69113e-05
2.69113e-05
2.69113e-05
2.69113e-05
2.69113e-05
2.69113e-05
2.69113e-05
2.69113e-05
23.4103
39.6781
8.99427
8.29292
135.22
238.093
161.698
4.73256
55.0913
25.2868
2.69113e-05
2.69113e-05
2.69113e-05
2.69113e-05
2.69113e-05
2.69113e-05
2.69113e-05
2.69113e-05
2.69113e-05
2.69113e-05
24.6825
29.1697
5.06692
1.14909
59.0778
6.12829
17.8647
3.19408
56.069
26.9063
2.69113e-05
2.69113e-05
2.69113e-05
2.69113e-05
2.69113e-05
2.69113e-05
2.69113e-05
2.69113e-05
2.69113e-05
2.69113e-05
26.4685
16.9439
3.30402
0.601032
3.67897
0.0761053
0.288762
1.16059
45.6936
25.1781
2.69113e-05
2.69113e-05
2.69113e-05
2.69113e-05
2.69113e-05
2.69113e-05
2.69113e-05
2.69113e-05
2.69113e-05
2.69113e-05
28.3981
8.37842
1.93724
0.443432
0.149625
0.0258192
0.0163208
0.233709
26.5449
21.6479
2.69113e-05
2.69113e-05
2.69113e-05
2.69113e-05
2.69113e-05
2.69113e-05
2.69113e-05
2.69113e-05
2.69113e-05
2.69113e-05
28.5025
4.10799
0.935957
0.226508
0.0248176
0.00480741
0.00399451
0.0159861
5.11336
18.5071
0.000237624
0.000237624
0.000237624
0.000237624
0.000237624
0.000237624
0.000237624
0.000237624
0.000237624
0.000237624
27.4498
1.42315
0.168361
0.0145945
0.00395267
208.276
227.645
99.9947
40.8491
7.50386
1.95787
0.634408
0.143411
0.019371
0.0165465
0.0161955
0.0230428
0.0526245
0.178172
1.00771
4.6926
16.3874
28.6862
51.6102
124.517
168.059
121.846
41.394
29.6309
0.483354
0.0363211
0.010593
0.00547722
0.00206671
0.00281755
0.00257534
0.0032292
0.003667
0.00519273
0.0524585
1.78958
14.5277
16.5343
30.4207
143.764
276.111
154.861
54.996
31.2238
3.17815
0.0212373
0.00138621
0.00118423
0.0026796
0.003555
0.00339168
0.00467291
0.00464911
0.00595013
0.0502567
1.4798
15.8411
24.8961
46.6484
153.337
309.235
248.255
64.4648
30.057
2.15037
0.00739662
0.00047444
0.000756163
0.0013145
0.00198163
0.00195958
0.00359064
0.003971
0.00489612
0.0318944
1.47299
15.9535
26.7088
50.7247
137.435
191.209
327.206
103.731
30.4597
2.07788
0.018139
0.000523068
0.000727327
0.00129969
0.00183693
0.00183396
0.0033311
0.00401314
0.0060629
0.0347369
1.59191
18.1433
32.5083
49.3959
136.363
156.526
301.768
232.656
33.9606
2.04268
0.0193713
0.00052996
0.000557363
0.00108924
0.00186078
0.00146875
0.00266825
0.00340922
0.0114937
0.0310346
1.64934
24.3973
68.3445
45.1153
154.474
107.956
119.181
413.807