/*--------------------------------*- C++ -*----------------------------------*\
| =========                 |                                                 |
| \\      /  F ield         | OpenFOAM: The Open Source CFD Toolbox           |
|  \\    /   O peration     | Version:  2.3.0                                 |
|   \\  /    A nd           | Web:      www.OpenFOAM.org                      |
|    \\/     M anipulation  |                                                 |
\*---------------------------------------------------------------------------*/
FoamFile
{
    version     2.0;
    format      ascii;
    class       volScalarField;
    location    "1.50002";
    object      k.water;
}
// * * * * * * * * * * * * * * * * * * * * * * * * * * * * * * * * * * * * * //

dimensions      [0 2 -2 0 0 0 0];

internalField   nonuniform List<scalar> 
10000
(
0.174474
0.150177
0.0839153
0.070782
0.0355627
0.0176509
0.0080084
0.00237342
0.00082084
0.00137231
0.00128565
0.0013908
0.00171599
0.00324899
0.00849328
0.0241212
0.0386143
0.0472075
0.0604666
0.151421
0.162438
0.0574838
0.0223911
0.0479094
0.00486952
0.000447752
0.000185692
0.000272736
0.000519547
0.000715947
0.00066308
0.000768487
0.000776726
0.000933279
0.000722287
0.00312654
0.0158532
0.0408941
0.0255103
0.0633985
0.596419
0.184094
0.029963
0.0308107
0.00409587
0.000234358
0.000148215
0.000275343
0.00044018
0.000585655
0.000564197
0.00070964
0.000727439
0.000844088
0.00046026
0.00282325
0.0150231
0.0577697
0.043791
0.0538556
2.03711
0.986067
0.053318
0.0275389
0.00376094
0.000138107
0.000138128
0.000205264
0.000328941
0.000441374
0.000438625
0.000661082
0.000717184
0.000773671
0.000387904
0.0031709
0.0256934
0.0580464
0.074923
0.04916
1.0697
1.02198
0.21642
0.0235953
0.00379746
0.000126687
0.000120868
0.000175646
0.00028251
0.000369058
0.000365236
0.000606409
0.000711225
0.000692161
0.000403772
0.003467
0.15082
0.0754447
0.127709
0.0515584
3.44934
0.676315
1.20553
0.024657
0.00396866
0.000106614
9.21388e-05
0.000134394
0.000248886
0.000336569
0.000324647
0.00065591
0.000870822
0.000703208
0.000575326
0.00388825
0.104105
0.256361
0.130645
0.160599
3.05686
0.106177
1.40825
0.0822227
0.00485035
0.000160353
9.72557e-05
0.000165152
0.000425469
0.000641864
0.00057639
0.00129518
0.00170561
0.00120916
0.00127082
0.0045834
0.0358799
0.84072
0.0464253
0.786619
0.0549483
0.0554154
1.35688
0.170272
0.00576064
0.000401673
0.000293754
0.000561665
0.0014787
0.00205105
0.00182625
0.00317025
0.00367805
0.00279291
0.00277055
0.00526426
0.0227009
0.806874
0.0863196
0.82195
0.0483621
0.0550337
1.44659
0.170971
0.00572551
0.00162901
0.00170843
0.002315
0.0043201
0.00496497
0.00452878
0.00596138
0.0063037
0.00543537
0.00500635
0.00663712
0.0199888
0.821612
0.170898
0.729399
0.0657629
0.0591144
0.121644
0.147112
0.00376937
0.00719681
0.008381
0.00628241
0.00807562
0.00787279
0.0058259
0.00782265
0.00790415
0.00815862
0.00786126
0.00858915
0.022065
0.825881
0.295652
0.660987
0.0650426
0.129161
0.0273178
0.161897
0.00667543
0.00940897
0.0108507
0.00975347
0.0102559
0.0100656
0.0096625
0.0103567
0.0104685
0.0106612
0.0111759
0.0102183
0.0864545
0.90771
0.519522
0.724962
0.0719073
0.473141
0.0187055
0.189546
0.00661249
0.00940167
0.0107732
0.0104402
0.010839
0.0110976
0.0102733
0.0110093
0.0113122
0.0113799
0.0112238
0.0107119
0.173315
0.947783
1.13463
0.733435
0.113272
1.69036
0.0333333
0.0712355
0.00780779
0.00902515
0.0103609
0.0101067
0.0109229
0.0112524
0.0101731
0.0111256
0.0114425
0.0114681
0.0112405
0.0175716
0.126685
0.0401833
1.00624
0.157868
0.214698
1.66341
0.148438
0.0479724
0.00626096
0.00813304
0.00952879
0.00965888
0.010927
0.0108988
0.00996359
0.0111052
0.0114393
0.0114526
0.013959
0.0160828
0.0558479
0.0204295
0.798936
0.181007
0.597834
1.65842
0.677156
0.0538107
0.00806231
0.0090095
0.0115064
0.0091213
0.0108148
0.0109151
0.00983536
0.0121668
0.0115056
0.0115137
0.0123799
0.0140111
0.0334476
0.018206
0.113068
0.719151
2.03372
1.47997
0.0127578
0.193799
0.0126825
0.00932177
0.0118615
0.00966561
0.0103067
0.0108111
0.0104245
0.0116567
0.0116798
0.0120569
0.0112746
0.0128011
0.0236479
0.0194066
0.0143628
0.84739
1.27886
1.05897
0.00747873
0.15542
0.0126511
0.0103538
0.0116008
0.00994924
0.00925289
0.0103171
0.0101761
0.0111436
0.0113735
0.0113337
0.0108328
0.0120968
0.0147267
0.0184949
0.00726869
0.595821
0.525711
0.587711
0.00202029
0.128764
0.0108005
0.00993502
0.0105906
0.0102519
0.0103448
0.0113464
0.00971507
0.0124862
0.0104244
0.0101336
0.009732
0.0132872
0.00661038
0.0168802
0.0057579
0.376911
0.150254
0.146476
0.000378889
0.0714537
0.00965742
0.00974829
0.00923253
0.00873989
0.00891983
0.00933361
0.00880713
0.00950905
0.00965929
0.00829486
0.00879718
0.0132924
0.00326565
0.0117761
0.00524002
0.0984758
0.0109935
0.0235934
4.65687e-05
0.00156324
0.00100335
0.00313469
0.00666743
0.00669448
0.00824939
0.00655549
0.00627976
0.00657846
0.00638464
0.00585394
0.00490594
0.00606102
0.000500399
0.00390964
0.00312916
0.0163084
0.175748
0.155254
0.0868621
0.0713512
0.0358726
0.0178264
0.00811587
0.00239527
0.000736922
0.00124161
0.00116893
0.00127559
0.00163078
0.00325644
0.00870334
0.0248031
0.0392236
0.0469132
0.0615902
0.153525
0.154288
0.0577359
0.0236767
0.0446347
0.005016
0.000428762
0.000169728
0.00023632
0.000495237
0.000704486
0.000649231
0.000755946
0.000762436
0.00091662
0.000734035
0.00329357
0.0161824
0.0387469
0.0258147
0.0651763
0.514039
0.137414
0.0320674
0.0312444
0.00441038
0.000256557
0.000135579
0.000268048
0.00043464
0.000584976
0.000563584
0.000710612
0.00072239
0.000848308
0.000472748
0.00293251
0.0154884
0.0554629
0.0439108
0.0565464
1.28729
0.583294
0.0513537
0.028278
0.00387463
0.000126738
0.000132454
0.000197088
0.000319635
0.000433155
0.000428402
0.000655102
0.000705297
0.000777215
0.000377568
0.00324017
0.0179784
0.0558355
0.0727381
0.0521756
0.904018
0.7015
0.1699
0.0245219
0.00383747
0.000112963
0.000118289
0.00017087
0.000273859
0.000357409
0.000356452
0.000575956
0.000680589
0.000667446
0.000363664
0.00347774
0.071101
0.0712844
0.118315
0.0531194
2.14385
0.55704
0.789794
0.0239353
0.00397702
9.87433e-05
8.78122e-05
0.000125204
0.000221845
0.000293995
0.000285348
0.00056346
0.000755306
0.000622264
0.000434497
0.00390384
0.0796185
0.225476
0.119683
0.128669
1.78154
0.0980498
0.962668
0.0350541
0.00478719
0.000142518
8.783e-05
0.000140732
0.000330549
0.000497925
0.000443498
0.00109225
0.00149867
0.00100405
0.00102818
0.00479508
0.0342147
0.570523
0.0445347
0.496001
0.0509178
0.0545785
0.952858
0.0992786
0.00586304
0.000347102
0.00024755
0.000471519
0.00129373
0.00185644
0.00162526
0.00298823
0.00351046
0.00258388
0.00256431
0.00575764
0.0233942
0.561056
0.0830979
0.560784
0.04902
0.0538054
0.936041
0.12223
0.00635257
0.00147211
0.0015316
0.00218215
0.00420587
0.00487535
0.00444948
0.00590836
0.00626272
0.00534281
0.00492069
0.00630194
0.0216104
0.570315
0.164004
0.451277
0.0669146
0.0605472
0.115724
0.114198
0.00555333
0.00747563
0.0084093
0.00658195
0.00807164
0.00786686
0.0061193
0.00781763
0.00791923
0.0081881
0.0078721
0.00829001
0.0224129
0.573765
0.281973
0.388463
0.0669111
0.124143
0.0245123
0.11996
0.00810925
0.00952973
0.0105738
0.00951696
0.0101057
0.00991902
0.00946905
0.0102382
0.0103838
0.0105484
0.0108743
0.0107542
0.0321927
0.598729
0.471633
0.481495
0.0741899
0.41137
0.0144147
0.143803
0.00782071
0.00951778
0.010851
0.0103237
0.0108789
0.0107617
0.0101978
0.0110457
0.011343
0.0114167
0.0113039
0.0111415
0.0741083
0.538031
0.775342
0.456525
0.111669
1.14299
0.0179495
0.0702746
0.00807443
0.00919215
0.01047
0.0101564
0.0109573
0.0109756
0.0102091
0.011159
0.0114706
0.011504
0.0113158
0.0151555
0.0937252
0.0360199
0.69177
0.152316
0.204027
1.1442
0.0507679
0.0477603
0.00717047
0.00829422
0.00967443
0.00972896
0.0109705
0.0109363
0.0100103
0.011149
0.0114762
0.0114978
0.0132694
0.015302
0.0534998
0.0207446
0.514891
0.162665
0.521164
1.0987
0.152311
0.0473771
0.00842704
0.00834993
0.0105826
0.00922206
0.0108784
0.010963
0.00988304
0.0117518
0.0115533
0.011573
0.0124113
0.0131785
0.0339149
0.0191393
0.0991284
0.396744
1.31328
0.949837
0.00869043
0.108385
0.0126728
0.0089715
0.0108909
0.00940215
0.0104134
0.0108784
0.010336
0.0116054
0.011732
0.0121201
0.0113633
0.011831
0.0249105
0.0196456
0.0141037
0.545467
0.781292
0.655279
0.00521485
0.103425
0.013055
0.010016
0.0107203
0.00971399
0.00938955
0.010407
0.0102208
0.0111911
0.0114281
0.0114011
0.0109417
0.0111311
0.0165167
0.0186901
0.00949719
0.360711
0.286381
0.341787
0.0013342
0.0842608
0.0114153
0.0100571
0.00989661
0.010064
0.00978921
0.0107156
0.00976829
0.0120056
0.0105016
0.0102391
0.00988566
0.0122612
0.00873198
0.0170535
0.00889029
0.212706
0.0886118
0.082846
0.00024553
0.0424681
0.0110533
0.00999086
0.00889869
0.00881552
0.00865144
0.00899102
0.00888821
0.00921984
0.00925071
0.00844519
0.00900485
0.0137187
0.00511435
0.0119123
0.00820141
0.0529441
0.00847338
0.00944371
4.33377e-05
0.00330541
0.00292277
0.00397563
0.00681618
0.00681565
0.00793877
0.00670682
0.00645296
0.0067143
0.00655526
0.00610144
0.00534575
0.00683266
0.000961132
0.0040275
0.00448601
0.00608128
0.17427
0.157435
0.0876001
0.0708229
0.0358644
0.0178747
0.00812419
0.00238069
0.000685448
0.00108653
0.0010349
0.00115272
0.00153087
0.00316924
0.00874502
0.0250623
0.0392426
0.044958
0.0616657
0.15372
0.142876
0.0589454
0.0251284
0.0401432
0.00504073
0.000404959
0.000163519
0.000209904
0.000421883
0.000626402
0.000571009
0.000673625
0.000677046
0.000819468
0.000677517
0.00336022
0.0166905
0.0353383
0.0261467
0.0680296
0.419185
0.11356
0.0342549
0.0318684
0.0046585
0.000263647
0.000120679
0.000246566
0.000398781
0.000545924
0.000524872
0.000671454
0.000678308
0.000810723
0.000471284
0.00298176
0.0163195
0.0512637
0.0438362
0.0607851
0.8276
0.360465
0.0496049
0.029352
0.00392632
0.000116043
0.000122784
0.000179683
0.000290342
0.000397156
0.000392013
0.000612144
0.000656128
0.000738165
0.000345888
0.00326626
0.0163937
0.0518413
0.0687525
0.0565229
0.681712
0.491741
0.128664
0.0260329
0.00384857
0.000105401
0.000111943
0.000159334
0.000253136
0.000330786
0.000330183
0.000520168
0.000620496
0.000620762
0.00033314
0.00348755
0.0365209
0.0647531
0.102109
0.0562391
1.2997
0.417878
0.524619
0.0251581
0.00395653
9.60202e-05
8.3567e-05
0.000117982
0.000204938
0.000265863
0.000258602
0.000481178
0.000634946
0.00053728
0.00036114
0.00387091
0.0540159
0.187192
0.100946
0.104905
0.966247
0.0904461
0.673447
0.0281989
0.00471567
0.000135496
8.39224e-05
0.000130726
0.000287148
0.000415463
0.000375436
0.000869538
0.00122927
0.000789525
0.000782556
0.00489487
0.0325643
0.395208
0.0429274
0.323098
0.0482898
0.0541756
0.683403
0.0566035
0.0058863
0.000323991
0.000228712
0.000429539
0.00110994
0.00161011
0.00139309
0.00269915
0.00322542
0.00227103
0.00225719
0.00620999
0.0250817
0.398157
0.0789119
0.390627
0.0500814
0.0534691
0.633063
0.0869661
0.00694864
0.00131891
0.0013589
0.001998
0.00399321
0.00469028
0.00427231
0.00577421
0.00614683
0.00514183
0.00473097
0.00675105
0.0244733
0.40448
0.152994
0.280941
0.0680109
0.0621138
0.106054
0.0896076
0.00709362
0.00783736
0.00858761
0.00697359
0.00821644
0.0080194
0.00652448
0.00796753
0.00807193
0.00834902
0.00806054
0.00887844
0.0256188
0.406612
0.258598
0.232457
0.06869
0.117281
0.021019
0.0937686
0.0097618
0.00974299
0.010489
0.00946253
0.0100786
0.00989629
0.00943206
0.0102228
0.0103812
0.0105323
0.0107829
0.0116832
0.0283283
0.40466
0.401719
0.327462
0.0765899
0.339132
0.0111223
0.107244
0.00948529
0.00972051
0.0109932
0.0103069
0.0109534
0.0106089
0.0101984
0.0111129
0.0113998
0.0114844
0.0114504
0.012001
0.042927
0.308202
0.540723
0.303552
0.109311
0.789659
0.0115639
0.0687917
0.00954199
0.00947985
0.0106667
0.0102434
0.0110206
0.010813
0.0102727
0.0112199
0.0115218
0.0115693
0.0114595
0.0145858
0.0624618
0.0315238
0.48339
0.14376
0.188289
0.803254
0.0152404
0.0481022
0.0086172
0.00858459
0.00994944
0.00985063
0.0110496
0.0110053
0.0100919
0.011231
0.0115434
0.0115811
0.0128845
0.0155297
0.0503433
0.0215258
0.340007
0.1457
0.431436
0.741236
0.0207904
0.0448477
0.00935325
0.00820122
0.0101785
0.0094002
0.0109937
0.0110501
0.00996943
0.0115386
0.011641
0.0116812
0.0124783
0.0134651
0.0350793
0.0201674
0.077249
0.245831
0.857175
0.616826
0.00697097
0.0682829
0.0129652
0.00892058
0.0104552
0.00934557
0.0106065
0.0110007
0.0103282
0.0115423
0.0118277
0.0122361
0.0115254
0.0120515
0.0270332
0.0200545
0.0121685
0.356835
0.475299
0.409589
0.00436143
0.0736257
0.0137365
0.0099366
0.0103255
0.00966038
0.00964574
0.0105756
0.0102992
0.0112805
0.0115273
0.0115235
0.0111396
0.01132
0.0190709
0.0190188
0.0087913
0.220332
0.170012
0.206778
0.00113821
0.0599284
0.0123522
0.0102697
0.00960877
0.0100128
0.009571
0.0104225
0.00986295
0.0117524
0.0106457
0.0104308
0.0101649
0.0122158
0.0111749
0.0173509
0.00848904
0.123873
0.0650169
0.0545585
0.00021137
0.0302071
0.0128435
0.0103912
0.00882953
0.00894841
0.00860392
0.00891102
0.00902966
0.00914606
0.00912168
0.00870707
0.00936196
0.0144205
0.00654757
0.0121678
0.00780465
0.0317408
0.00161318
0.00181761
4.72001e-05
0.00491997
0.00530977
0.00527101
0.0070776
0.00702764
0.00786938
0.0069726
0.0067539
0.00695204
0.00685318
0.00653197
0.00609803
0.00809313
0.00166327
0.0042795
0.00356948
0.000870554
0.172877
0.159928
0.0890028
0.070175
0.0357349
0.0179031
0.00817895
0.0023968
0.000657491
0.00101204
0.000971412
0.00109499
0.00148904
0.00315055
0.00883894
0.0252642
0.0392743
0.0440393
0.062044
0.153208
0.130509
0.0605192
0.0265916
0.0365235
0.00502937
0.000380155
0.000157813
0.000198064
0.000373101
0.000548775
0.00049848
0.000589356
0.000592475
0.000712766
0.000642906
0.00339125
0.0172156
0.0312599
0.0263344
0.0714657
0.331018
0.10165
0.0361426
0.032489
0.00487208
0.000272552
0.000111892
0.000236308
0.00037368
0.000507162
0.000487193
0.000625776
0.000629817
0.000756508
0.000475841
0.00299931
0.0172493
0.045766
0.0432433
0.0656223
0.532408
0.246644
0.0483223
0.0304854
0.00394038
0.000107793
0.000118262
0.000171554
0.000273922
0.000371748
0.000367313
0.000567029
0.000608776
0.000690667
0.000327421
0.00325759
0.016809
0.0466229
0.0632815
0.0612234
0.456073
0.355433
0.101703
0.0277612
0.00382968
9.74467e-05
0.000109406
0.000154279
0.000243059
0.00031579
0.000315568
0.000482875
0.000566937
0.000587155
0.000303436
0.00348303
0.025165
0.0570836
0.0833262
0.0605183
0.73455
0.309341
0.353091
0.0269578
0.00390788
9.29131e-05
8.14815e-05
0.000113232
0.000191373
0.000245011
0.000238893
0.000421253
0.00054353
0.000473596
0.000298743
0.00381369
0.0378699
0.149735
0.0793166
0.0916232
0.432534
0.0842108
0.48376
0.0278714
0.00462116
0.000123926
7.87439e-05
0.000117941
0.00024103
0.000341071
0.000310309
0.000679758
0.000963664
0.000616433
0.000588962
0.00491798
0.0313481
0.279922
0.0416154
0.224253
0.0466531
0.0539019
0.502397
0.0381215
0.00585185
0.000289131
0.000204141
0.000378876
0.000952336
0.00137332
0.00118188
0.00236239
0.00287427
0.00192544
0.00191937
0.00660462
0.0271243
0.288986
0.0743323
0.27955
0.0515398
0.0534372
0.450684
0.0635614
0.00744649
0.00116081
0.00118311
0.00181359
0.00371014
0.00443198
0.00401751
0.00556522
0.00595809
0.00485214
0.00444959
0.00751015
0.0276281
0.293449
0.139608
0.181204
0.0681959
0.0630651
0.0937197
0.0724186
0.00853237
0.0082158
0.00886659
0.00738067
0.00846174
0.00827399
0.00696095
0.00821994
0.0083143
0.00859295
0.00836501
0.00993526
0.029268
0.294676
0.229371
0.149834
0.0689356
0.110277
0.0174252
0.0776924
0.011199
0.00998821
0.0105259
0.00952118
0.0101287
0.0099519
0.00949229
0.010272
0.0104291
0.0105769
0.0108236
0.0127388
0.0309116
0.279601
0.326151
0.231991
0.0774518
0.275361
0.00890071
0.0851288
0.0110347
0.00995169
0.0111723
0.0103522
0.011049
0.0105839
0.0102452
0.0111984
0.0114717
0.01157
0.0116348
0.0130978
0.0381732
0.17813
0.384788
0.22115
0.105265
0.559806
0.00910534
0.06669
0.0112315
0.00980134
0.0109119
0.0103426
0.011101
0.0107386
0.0103461
0.0112965
0.0115863
0.0116514
0.0116452
0.015001
0.048958
0.0277941
0.343442
0.133115
0.169778
0.576944
0.0100411
0.049247
0.0101763
0.00893467
0.0103014
0.00998853
0.0111493
0.0110928
0.010185
0.0113365
0.0116279
0.0116867
0.0127255
0.0162228
0.0472045
0.0223517
0.22772
0.129288
0.344951
0.509713
0.00879267
0.0458338
0.0104349
0.00835304
0.0101203
0.0096054
0.0111385
0.0111598
0.0100724
0.0114733
0.0117522
0.0118174
0.0125796
0.0142302
0.0370562
0.0211455
0.0534091
0.175362
0.563417
0.405066
0.00679465
0.0545091
0.0134614
0.00904874
0.0103764
0.00941618
0.0108482
0.0111536
0.0103704
0.0115043
0.0119492
0.012384
0.0117286
0.0127935
0.0296197
0.0205506
0.00906901
0.236758
0.286473
0.258923
0.00488584
0.0588791
0.0144752
0.0100115
0.0102579
0.0097201
0.00997574
0.0107929
0.0103888
0.0113957
0.0116519
0.0116769
0.0113868
0.0120294
0.0218044
0.0194123
0.00651455
0.135144
0.10119
0.125846
0.00177899
0.0484894
0.0132981
0.0105102
0.00959586
0.0100498
0.00958467
0.0103665
0.00997227
0.0116678
0.0108304
0.010671
0.0105133
0.0126713
0.013835
0.0177152
0.00638924
0.0700946
0.0275105
0.0252095
0.000321962
0.028416
0.014519
0.0108263
0.0089191
0.00910029
0.00869169
0.00899009
0.00919045
0.00920504
0.00916748
0.00900405
0.0097611
0.0151992
0.00827752
0.0124995
0.0056078
0.0110062
0.000191153
0.000195592
6.63069e-05
0.00682565
0.00767617
0.00662791
0.00737807
0.0072702
0.00794869
0.00727783
0.0070967
0.00722427
0.00719374
0.00702252
0.00694127
0.00948153
0.00242674
0.00462064
0.00165154
0.00016384
0.171632
0.16269
0.0904808
0.0699186
0.0356351
0.0179134
0.00820387
0.00239936
0.00061402
0.000911236
0.000883643
0.00100932
0.00142333
0.00313285
0.00893833
0.0254718
0.0393675
0.0429823
0.0623316
0.152815
0.118422
0.0622381
0.0280778
0.0340804
0.00493761
0.000348103
0.000150294
0.000185602
0.000330352
0.000477307
0.000434267
0.000513863
0.000519293
0.000616698
0.000596335
0.00339927
0.0177028
0.0269921
0.0263678
0.0751683
0.255335
0.0940817
0.0377428
0.0330098
0.0050387
0.000275576
9.69662e-05
0.000222115
0.000348206
0.000468993
0.00044966
0.000581644
0.000583007
0.000699941
0.000472999
0.00299205
0.0181407
0.039657
0.0419693
0.0705439
0.340073
0.188273
0.0473783
0.0315364
0.00391728
9.45765e-05
0.000109323
0.000157857
0.00025154
0.000342949
0.000339365
0.00052108
0.000560717
0.000641712
0.000295304
0.00319755
0.0176985
0.0407901
0.0565796
0.0658139
0.270497
0.266267
0.0848887
0.0295009
0.00377529
8.99799e-05
0.000103703
0.000144721
0.0002272
0.000295855
0.000295672
0.000451565
0.000522251
0.000557401
0.000268209
0.00343345
0.0219908
0.0491198
0.0662654
0.0660516
0.364539
0.23631
0.243651
0.0288992
0.00383387
9.13737e-05
7.7657e-05
0.000106116
0.00017637
0.000223484
0.000218021
0.000372258
0.000473852
0.000421732
0.000253467
0.00371874
0.0305363
0.116714
0.060047
0.0848211
0.148718
0.079057
0.356831
0.0293549
0.00450011
0.000117902
7.5312e-05
0.000110005
0.00020992
0.000285105
0.000262982
0.000533504
0.000739279
0.000490183
0.000449876
0.00487608
0.0305851
0.202122
0.0403792
0.168511
0.0464636
0.0534417
0.377661
0.0334803
0.00576823
0.000269029
0.00019092
0.000344435
0.000818332
0.00116569
0.001003
0.00201542
0.00249074
0.00159038
0.001594
0.00687881
0.0291418
0.213307
0.0695229
0.207033
0.0538228
0.0532312
0.334508
0.0491756
0.00780642
0.00100477
0.00100674
0.00162372
0.00336794
0.0041078
0.00370074
0.00528053
0.00569166
0.00448343
0.00407763
0.00833617
0.0307174
0.216646
0.125173
0.127248
0.0669521
0.0631833
0.079951
0.0610383
0.00956917
0.00849459
0.0091663
0.00768403
0.0087295
0.00854723
0.00728837
0.00849003
0.00856895
0.00884342
0.00868064
0.011028
0.0327466
0.217084
0.197536
0.109772
0.066336
0.103486
0.0143999
0.0678253
0.0121863
0.0101734
0.0105995
0.00960714
0.0101957
0.0100232
0.00957365
0.0103332
0.0104839
0.0106332
0.0109037
0.0135568
0.0341691
0.195655
0.256133
0.175765
0.0757047
0.224706
0.00777639
0.0726155
0.0121369
0.0101254
0.0113483
0.0104086
0.0111442
0.0106244
0.0102965
0.0112831
0.0115426
0.011654
0.0118142
0.0141933
0.0394203
0.102534
0.278891
0.177355
0.0986623
0.406899
0.00785075
0.0642457
0.0124852
0.0100406
0.0111498
0.010417
0.0111806
0.0107223
0.0104014
0.0113718
0.0116494
0.0117317
0.0118291
0.0157627
0.0458629
0.0257423
0.246437
0.122114
0.149623
0.422711
0.00847828
0.0508531
0.0113594
0.00921381
0.0106534
0.0100909
0.0112474
0.0111793
0.0102549
0.0114418
0.0117108
0.0117905
0.0127089
0.0170213
0.0459759
0.0230988
0.151636
0.112144
0.26832
0.356257
0.00779927
0.0481357
0.0112882
0.00856867
0.0102476
0.00976114
0.0112805
0.0112677
0.0101537
0.0114956
0.0118619
0.011951
0.0126979
0.0150819
0.03942
0.0220767
0.0332687
0.133391
0.369206
0.267136
0.00693911
0.0516612
0.0139038
0.00921029
0.0104921
0.00951521
0.0110833
0.0113033
0.01042
0.011502
0.0120695
0.0125323
0.0119257
0.0136508
0.0324073
0.0210708
0.0065547
0.157497
0.15993
0.160565
0.00571622
0.0533814
0.0150233
0.0101224
0.0103695
0.00980677
0.0103081
0.0110098
0.0104561
0.0115108
0.0117738
0.0118266
0.0116266
0.0128668
0.0245496
0.0198177
0.00514985
0.0798532
0.036356
0.0596472
0.00272856
0.0446375
0.013971
0.0106885
0.00972711
0.0101106
0.00972075
0.0104455
0.010055
0.0116883
0.0110146
0.0109055
0.0108508
0.013304
0.0164988
0.0180981
0.00519584
0.0290599
0.00270667
0.00295061
0.000526972
0.0299024
0.0156529
0.0111385
0.00904259
0.0092141
0.00880716
0.0091066
0.00931033
0.00929759
0.0092634
0.00922543
0.0100542
0.0157814
0.0101723
0.0128641
0.00416477
0.00115055
0.000173641
0.000173181
8.59164e-05
0.00855975
0.00952837
0.00763481
0.00760517
0.00745303
0.0080627
0.00750856
0.00735472
0.0074295
0.00745045
0.00739264
0.00757396
0.0105339
0.00352558
0.00500048
0.000602908
0.000146007
0.170502
0.165621
0.0921014
0.0699303
0.0355505
0.017906
0.00821752
0.00240909
0.000593188
0.000845184
0.000825406
0.000955165
0.00138998
0.003128
0.00903884
0.0256552
0.0394754
0.0421023
0.0626129
0.15258
0.107578
0.0641009
0.0296419
0.0324846
0.00478138
0.000317834
0.000141804
0.000179923
0.000296082
0.000415365
0.000381467
0.000448829
0.000456241
0.000533663
0.000551597
0.00337983
0.018149
0.0230044
0.0262136
0.0789694
0.193304
0.0887115
0.0391303
0.0333056
0.00515166
0.000276995
8.90136e-05
0.000210127
0.000326873
0.000432386
0.000415217
0.000539583
0.000538946
0.000645502
0.000462777
0.00294412
0.0189632
0.0335855
0.0401028
0.0754512
0.222739
0.154731
0.0466724
0.0324452
0.00385147
8.81964e-05
0.000104168
0.000148493
0.000232048
0.000315189
0.000312269
0.000477344
0.000513861
0.00059224
0.000268129
0.00309824
0.0186813
0.0349086
0.0493699
0.0698107
0.158581
0.207718
0.0738447
0.0311411
0.00369616
8.6537e-05
0.000100868
0.000138653
0.0002146
0.00027803
0.000277881
0.000422439
0.000484351
0.000529671
0.000243862
0.00334184
0.0213287
0.0413919
0.0530299
0.0700466
0.167949
0.18842
0.176631
0.0308301
0.00373649
8.91296e-05
7.57603e-05
0.000101956
0.000165283
0.000207057
0.000202035
0.00033306
0.000418992
0.000378638
0.000215871
0.00357914
0.0278705
0.0891227
0.046419
0.0824862
0.0698675
0.0744021
0.270118
0.0313799
0.00435689
0.000107627
7.1296e-05
0.000100766
0.000181158
0.000240238
0.00022415
0.000423833
0.000569159
0.000399578
0.000351732
0.00476169
0.030434
0.148089
0.0390739
0.135532
0.0485101
0.0525888
0.289614
0.0337413
0.00563222
0.000242552
0.000175069
0.000310928
0.000708244
0.000993131
0.000856814
0.00168935
0.00210554
0.00129871
0.00131446
0.00700316
0.0311315
0.159329
0.0645657
0.160456
0.0581587
0.052575
0.255362
0.0429747
0.00799012
0.000891992
0.000869809
0.00144258
0.00298062
0.00372045
0.00334247
0.00491677
0.0053383
0.00403361
0.0036145
0.00908357
0.0335822
0.161869
0.110746
0.100508
0.0651246
0.0623154
0.0659856
0.0544579
0.0273186
4.89684e-06
0.00934792
4.89684e-06
0.00890111
0.00872292
4.89684e-06
0.00866104
0.00872797
0.0089967
0.00887054
0.0117894
0.0359314
0.16146
0.165521
0.0918896
0.0603433
0.0966634
0.0124163
0.0619777
0.0365114
4.89684e-06
4.89684e-06
4.89684e-06
4.89684e-06
4.89684e-06
4.89684e-06
4.89684e-06
4.89684e-06
4.89684e-06
4.89684e-06
0.035978
0.0372721
0.136883
0.197945
0.148094
0.0702061
0.185724
0.00747741
0.0656248
0.0364542
4.89684e-06
0.01147
4.89684e-06
0.011211
0.010671
4.89684e-06
0.0113418
0.0115914
0.0117114
0.0119338
0.0149861
0.0417616
0.0591983
0.205365
0.159201
0.0886235
0.302459
0.00736061
0.0620581
0.0352982
4.89684e-06
0.0113121
4.89684e-06
0.0112358
0.0107304
4.89684e-06
0.0114234
0.0116922
0.0117858
0.0119513
0.0164074
0.0462528
0.0250878
0.177017
0.114601
0.12833
0.314605
0.00777383
0.0526192
0.0317353
4.89684e-06
0.0109012
4.89684e-06
0.011315
0.0112393
4.89684e-06
0.0115151
0.0117669
0.0118604
0.0127457
0.0176286
0.046466
0.0238308
0.09843
0.0937491
0.199251
0.251116
0.00762344
0.050761
0.0312202
4.89684e-06
0.0104026
4.89684e-06
0.0113782
0.0113419
4.89684e-06
0.0115415
0.011937
0.0120408
0.0127914
0.0157156
0.0418951
0.0229384
0.0193181
0.101349
0.233715
0.172833
0.00735793
0.0524145
0.0407896
4.89684e-06
0.0106438
4.89684e-06
0.011244
0.0114059
4.89684e-06
0.0115187
0.0121526
0.0126376
0.0120559
0.0143022
0.0352157
0.0215621
0.00517384
0.101432
0.0689315
0.0864079
0.00642576
0.0524961
0.0512843
4.89684e-06
0.010513
4.89684e-06
0.0105412
0.0111613
4.89684e-06
0.0115907
0.0118568
0.0119279
0.011787
0.0135112
0.0272199
0.0202006
0.00470206
0.0376382
0.00490368
0.015673
0.00344366
0.0446765
0.0516171
4.89684e-06
0.00987032
4.89684e-06
0.00986092
0.0105518
4.89684e-06
0.0117455
0.0111428
0.0110653
0.0110768
0.0138257
0.0190376
0.0184661
0.00483761
0.00635786
0.000460105
0.000511337
0.000633847
0.0322825
0.052146
4.89684e-06
4.89684e-06
4.89684e-06
4.89684e-06
4.89684e-06
4.89684e-06
4.89684e-06
4.89684e-06
4.89684e-06
4.89684e-06
0.0811454
0.0120763
0.0132282
0.00365657
0.000317203
0.000321975
0.00040238
8.74903e-05
0.0100237
0.0476091
1.27366e-05
1.27366e-05
1.27366e-05
1.27366e-05
1.27366e-05
1.27366e-05
1.27366e-05
1.27366e-05
1.27366e-05
1.27366e-05
0.0799036
0.00497537
0.00538271
0.000430513
0.000193934
0.16936
0.168702
0.093828
0.0701591
0.0354624
0.0178669
0.00821998
0.00241231
0.000560656
0.00077792
0.000765419
0.000897869
0.00134951
0.00312657
0.00913516
0.0257962
0.0395771
0.0413523
0.0628666
0.152438
0.0954884
0.0662025
0.0313732
0.0314421
0.0045506
0.000283207
0.000127363
0.000175251
0.000267235
0.0003646
0.000337051
0.000394391
0.000402549
0.000462729
0.000505157
0.00331371
0.0185608
0.019597
0.0259544
0.0827931
0.147752
0.0847518
0.040391
0.0334304
0.00520315
0.000277019
7.8336e-05
0.000196841
0.000308341
0.000399654
0.00038459
0.000499655
0.000498026
0.000594599
0.000448326
0.00286514
0.0197098
0.0280407
0.0375748
0.0803113
0.160206
0.132836
0.0461614
0.0331933
0.00374917
7.96812e-05
9.66622e-05
0.000137254
0.000212044
0.000287544
0.000285134
0.000435886
0.000469108
0.000542756
0.00023726
0.00296758
0.0196394
0.029406
0.0425347
0.0732443
0.110568
0.168535
0.0663543
0.0326094
0.00359457
8.35822e-05
9.55358e-05
0.000130243
0.000200496
0.000259228
0.00025926
0.000394365
0.000449708
0.000502186
0.000219543
0.00321789
0.0217039
0.0342568
0.0433607
0.0731016
0.0968188
0.155847
0.13609
0.0326839
0.00361486
8.74653e-05
7.24963e-05
9.59697e-05
0.00015327
0.000190659
0.000185933
0.000299997
0.000374682
0.000341026
0.000190674
0.00340165
0.0269392
0.0668905
0.0385127
0.0816825
0.0573422
0.0698854
0.209506
0.0335122
0.00419394
0.000101692
6.81103e-05
9.40585e-05
0.000159531
0.000204173
0.000192863
0.000340979
0.0004453
0.000332495
0.000281263
0.00457477
0.0308273
0.109527
0.03765
0.114219
0.0541901
0.051203
0.226056
0.0355182
0.00536628
0.000209456
0.000150802
0.000255772
0.000546115
0.000764691
0.000657256
0.0013088
0.00165322
0.000972948
0.000994828
0.00694554
0.0330413
0.11983
0.059504
0.130991
0.0673376
0.0513008
0.198288
0.0418126
0.00801999
0.000852179
0.000823136
0.00133797
0.00264041
0.00333241
0.00297758
0.0044942
0.00490881
0.0035615
0.00314464
0.009595
0.0361852
0.121789
0.0970928
0.0879763
0.06438
0.0603852
0.0531389
0.051646
0.0413362
4.89684e-06
4.89684e-06
4.89684e-06
4.89684e-06
4.89684e-06
4.89684e-06
4.89684e-06
4.89684e-06
4.89684e-06
4.89684e-06
0.0439158
0.0387911
0.120451
0.135653
0.085609
0.0508347
0.0893845
0.0115616
0.0587496
0.0477721
4.89684e-06
4.89684e-06
4.89684e-06
4.89684e-06
4.89684e-06
4.89684e-06
4.89684e-06
4.89684e-06
4.89684e-06
4.89684e-06
0.0445567
0.0400294
0.0941711
0.152556
0.145345
0.0596611
0.155102
0.00769434
0.0618225
0.0471916
4.89684e-06
4.89684e-06
4.89684e-06
4.89684e-06
4.89684e-06
4.89684e-06
4.89684e-06
4.89684e-06
4.89684e-06
4.89684e-06
0.045779
0.0440991
0.0387922
0.152987
0.165079
0.0733258
0.228556
0.00726957
0.0604752
0.0456207
4.89684e-06
4.89684e-06
4.89684e-06
4.89684e-06
4.89684e-06
4.89684e-06
4.89684e-06
4.89684e-06
4.89684e-06
4.89684e-06
0.0473482
0.0476175
0.0251228
0.125678
0.116083
0.105814
0.236205
0.00762133
0.0543364
0.0426924
4.89684e-06
4.89684e-06
4.89684e-06
4.89684e-06
4.89684e-06
4.89684e-06
4.89684e-06
4.89684e-06
4.89684e-06
4.89684e-06
0.0490138
0.0477567
0.0245483
0.0606811
0.0734752
0.135725
0.17524
0.00778019
0.0532614
0.0432327
4.89684e-06
4.89684e-06
4.89684e-06
4.89684e-06
4.89684e-06
4.89684e-06
4.89684e-06
4.89684e-06
4.89684e-06
4.89684e-06
0.0520404
0.0442936
0.0237214
0.0109576
0.0746034
0.133433
0.103056
0.00783152
0.0542339
0.0518368
4.89684e-06
4.89684e-06
4.89684e-06
4.89684e-06
4.89684e-06
4.89684e-06
4.89684e-06
4.89684e-06
4.89684e-06
4.89684e-06
0.0565511
0.0379079
0.0219871
0.00467855
0.0564661
0.0183086
0.0313863
0.0070594
0.0534277
0.0604632
4.89684e-06
4.89684e-06
4.89684e-06
4.89684e-06
4.89684e-06
4.89684e-06
4.89684e-06
4.89684e-06
4.89684e-06
4.89684e-06
0.0642189
0.029741
0.0205398
0.00469751
0.0114829
0.000563657
0.00180797
0.00378675
0.0462527
0.0604994
4.89684e-06
4.89684e-06
4.89684e-06
4.89684e-06
4.89684e-06
4.89684e-06
4.89684e-06
4.89684e-06
4.89684e-06
4.89684e-06
0.0767521
0.0213613
0.0187977
0.00484026
0.000904989
0.000362844
0.000223311
0.000677145
0.0347022
0.0586936
4.89684e-06
4.89684e-06
4.89684e-06
4.89684e-06
4.89684e-06
4.89684e-06
4.89684e-06
4.89684e-06
4.89684e-06
4.89684e-06
0.0812762
0.0133012
0.0135677
0.00362784
0.000300261
0.000210176
0.00021853
8.91088e-05
0.0110134
0.0528681
1.27366e-05
1.27366e-05
1.27366e-05
1.27366e-05
1.27366e-05