/*--------------------------------*- C++ -*----------------------------------*\
| =========                 |                                                 |
| \\      /  F ield         | OpenFOAM: The Open Source CFD Toolbox           |
|  \\    /   O peration     | Version:  2.3.0                                 |
|   \\  /    A nd           | Web:      www.OpenFOAM.org                      |
|    \\/     M anipulation  |                                                 |
\*---------------------------------------------------------------------------*/
FoamFile
{
    version     2.0;
    format      ascii;
    class       volVectorField;
    location    "1.50002";
    object      U.air;
}
// * * * * * * * * * * * * * * * * * * * * * * * * * * * * * * * * * * * * * //

dimensions      [0 1 -1 0 0 0 0];

internalField   nonuniform List<vector> 
10000
(
(-0.297173 -1.25202 -0.891289)
(0.0433647 -1.3062 -0.891626)
(0.107967 -1.18427 -0.795355)
(0.227577 -0.703798 -0.446163)
(0.22136 -0.413507 -0.282869)
(0.218038 -0.265621 -0.256473)
(0.151012 -0.213714 -0.205044)
(0.049277 -0.188419 -0.185494)
(0.0145438 -0.203965 -0.165008)
(0.00195786 -0.221679 -0.160608)
(0.00119425 -0.21969 -0.158871)
(-0.00541927 -0.222612 -0.166068)
(-0.0255974 -0.224237 -0.172165)
(-0.0612531 -0.230223 -0.176725)
(-0.0931467 -0.258559 -0.200243)
(-0.147426 -0.38185 -0.260486)
(-0.167714 -0.617061 -0.418558)
(-0.0776494 -0.957049 -0.66942)
(-0.0183624 -1.0078 -0.705085)
(0.232485 -1.01818 -0.694933)
(0.0119452 -1.29514 -0.0994306)
(0.00827888 -1.33135 -0.12616)
(-0.0157069 -1.28088 -0.0903392)
(0.0113801 -0.517508 -0.014146)
(0.00151976 -0.283945 -0.135194)
(0.0549651 -0.10958 -0.223289)
(0.0193273 -0.156384 -0.149393)
(-0.00216034 -0.192462 -0.121899)
(-0.00166962 -0.228616 -0.105985)
(-0.000285778 -0.25033 -0.0979064)
(-0.00159617 -0.247136 -0.0994457)
(0.0010918 -0.256537 -0.0964432)
(0.00249112 -0.256812 -0.0955911)
(0.000944176 -0.254061 -0.0966048)
(-0.000239053 -0.253766 -0.0958465)
(-0.00305158 -0.364002 -0.0807929)
(-0.00906827 -0.563537 -0.02399)
(0.00690658 -1.02248 -0.0693616)
(-0.00496162 -1.02665 -0.0749195)
(-0.013571 -1.14242 -0.112279)
(0.0139335 -1.30858 -0.0218114)
(0.00381237 -1.20809 -0.0212638)
(-0.014815 -1.28978 -0.0561436)
(0.00337092 -0.594838 -0.0359831)
(0.00745749 -0.388336 -0.0755392)
(0.00610236 -0.20116 -0.121765)
(0.00268264 -0.196479 -0.122344)
(-8.1742e-05 -0.21851 -0.110516)
(0.000455331 -0.247019 -0.0967066)
(-0.000161128 -0.261309 -0.0906413)
(-0.00176991 -0.260875 -0.0910448)
(-0.00177404 -0.273744 -0.0875255)
(-0.000311926 -0.274664 -0.0895842)
(0.000306964 -0.270834 -0.0901601)
(-0.00103174 -0.278989 -0.0914969)
(-0.00378244 -0.398905 -0.0749875)
(0.00519221 -0.601188 -0.0238524)
(-0.00197553 -1.02757 -0.0149688)
(-0.0025843 -1.01255 -0.00954472)
(-0.020643 -1.17841 -0.062421)
(0.0231401 -1.20612 0.010352)
(0.0118447 -0.901581 0.00714875)
(-0.0108347 -1.15927 -0.0379764)
(-0.00127059 -0.595607 -0.0306124)
(0.00235266 -0.360899 -0.0662756)
(-0.0026349 -0.188994 -0.128125)
(0.000652758 -0.175954 -0.134093)
(-0.000625833 -0.200696 -0.118724)
(-3.20714e-05 -0.226241 -0.105366)
(-0.000220399 -0.237801 -0.0993872)
(-0.00137003 -0.239398 -0.0988846)
(-0.00218489 -0.264243 -0.0897899)
(-0.00063781 -0.2686 -0.0895315)
(-0.000124638 -0.263835 -0.0900529)
(-0.000952021 -0.270159 -0.0913681)
(-0.00376149 -0.393779 -0.0600526)
(0.00626013 -0.569878 -0.0024003)
(-0.00245182 -1.01962 -0.00898426)
(0.00602823 -0.988667 -0.00623071)
(-0.0178597 -1.12178 -0.048017)
(0.0156604 -1.44488 -0.00611035)
(0.0188128 -0.796034 0.0370242)
(0.0149281 -1.01617 -0.0145486)
(-0.0145369 -0.618868 -0.0279057)
(0.00746462 -0.325472 -0.0823353)
(-0.00275789 -0.187381 -0.12919)
(0.000460409 -0.171136 -0.139714)
(-0.000368869 -0.193339 -0.123119)
(-0.000718984 -0.216773 -0.109279)
(-5.54239e-05 -0.227921 -0.103054)
(-0.000466046 -0.229115 -0.102357)
(-0.00162435 -0.25501 -0.0908564)
(-0.000624181 -0.263227 -0.0879617)
(-0.00110148 -0.260287 -0.0884546)
(-0.000280907 -0.268656 -0.0888911)
(-0.00227599 -0.379201 -0.0526789)
(0.0045137 -0.436779 0.00158442)
(-0.00808135 -0.994433 -0.0144793)
(0.00773828 -0.990426 -0.00729518)
(0.0103816 -1.05409 -0.0313993)
(-0.0293107 -1.53601 -0.0014098)
(0.0134299 -0.936676 -0.000269493)
(0.029268 -0.878056 0.00877052)
(-0.0298479 -0.618869 -0.0129107)
(0.00848132 -0.3015 -0.0835376)
(-0.000208707 -0.164747 -0.145126)
(0.00014974 -0.15551 -0.152713)
(-0.000871375 -0.171642 -0.136443)
(-0.00102632 -0.197664 -0.117738)
(-0.000136317 -0.2095 -0.110801)
(-0.000401062 -0.2088 -0.111126)
(-0.00125805 -0.233417 -0.096595)
(-2.29737e-06 -0.245383 -0.0906428)
(-0.00084847 -0.2442 -0.0922216)
(0.000255934 -0.256972 -0.0889619)
(-0.00347343 -0.332929 -0.054078)
(0.0125247 -0.440584 -0.000125545)
(-0.0120874 -0.876288 -0.00641839)
(-0.00101853 -1.00602 -0.00459322)
(0.0127558 -0.892749 -0.00681138)
(-0.0608602 -1.57258 0.0233658)
(-0.00213269 -1.28317 -0.0413072)
(0.0389468 -0.887955 0.0107724)
(-0.0250486 -0.567156 0.00169528)
(0.0108412 -0.279421 -0.0778126)
(0.000531409 -0.153609 -0.156023)
(4.84699e-05 -0.14366 -0.164446)
(-0.00124571 -0.16077 -0.145072)
(-0.00148527 -0.188295 -0.120979)
(-0.000282132 -0.19939 -0.113222)
(-0.000237629 -0.197754 -0.113704)
(-0.00108091 -0.217244 -0.0974758)
(7.02904e-05 -0.22677 -0.0894586)
(-0.000507354 -0.222486 -0.0948117)
(-0.00143507 -0.237588 -0.087433)
(-0.00752821 -0.287901 -0.0554586)
(0.013197 -0.527814 -0.00412351)
(0.00149116 -0.707372 0.01392)
(-0.00305425 -1.02823 -0.0156619)
(0.00371803 -0.743049 0.00547625)
(-0.0377306 -1.7141 0.00468641)
(-0.0190162 -1.38572 -0.0225403)
(0.0286532 -0.855004 0.0267688)
(-0.0107355 -0.420515 0.0224969)
(0.00595779 -0.224614 -0.0708095)
(0.00211645 -0.132016 -0.164038)
(-0.000100718 -0.12606 -0.172867)
(-0.00160243 -0.141327 -0.147131)
(-0.00185827 -0.16206 -0.11659)
(-0.000423813 -0.169589 -0.105113)
(-0.000578365 -0.167176 -0.109185)
(-0.00106036 -0.179204 -0.0894402)
(-0.000586801 -0.183338 -0.0806467)
(-0.00122718 -0.179586 -0.0910426)
(-0.00261671 -0.189372 -0.0822402)
(-0.00449159 -0.21649 -0.0382163)
(-0.0003688 -0.584392 -0.000575983)
(0.00808288 -0.678966 0.02271)
(-0.0227351 -0.94494 -0.0179173)
(0.000128942 -0.701104 0.0203241)
(-0.0081957 -1.71488 -0.0349663)
(-0.0366129 -1.39494 -0.00942443)
(0.00569214 -1.00143 0.0189115)
(0.0105172 -0.358414 0.0385755)
(-0.00636355 -0.158698 -0.0250973)
(-0.0018666 -0.0905658 -0.128541)
(-0.000635535 -0.0859544 -0.138407)
(-0.000759532 -0.0942753 -0.109139)
(-0.000172582 -0.104719 -0.0768457)
(-4.86996e-05 -0.105768 -0.0675664)
(0.000231367 -0.105068 -0.0715162)
(0.000855449 -0.107312 -0.0528239)
(-0.000605212 -0.109141 -0.0464246)
(-0.00183945 -0.110071 -0.0584363)
(0.00254259 -0.120023 -0.0494581)
(-0.00125855 -0.0814902 0.00751932)
(-0.00417688 -0.619376 -0.00044139)
(0.00789091 -0.68278 0.0197676)
(-0.0296102 -0.85457 -0.00288538)
(-0.0147696 -0.738212 0.0133117)
(0.0132442 -1.65235 -0.048203)
(-0.0357108 -1.38264 -0.0158583)
(-0.0239154 -1.417 -0.00449679)
(0.0187621 -0.311652 0.0431661)
(-0.00172405 -0.0619961 0.00587634)
(0.000883585 -0.0333992 0.00634502)
(0.000389365 -0.0390794 0.00619582)
(0.000362952 -0.0355029 0.00736049)
(0.000413698 -0.0405524 0.00941084)
(-0.000221849 -0.0412212 0.00972569)
(7.32673e-05 -0.0375657 0.00947413)
(0.00042933 -0.0411148 0.0103066)
(0.000123551 -0.0401566 0.0107279)
(-0.000237744 -0.0396769 0.0105119)
(-0.00149529 -0.0442653 0.0108145)
(-0.00299088 -0.0704069 0.00803538)
(-0.0018033 -0.631686 -0.00138006)
(0.00071588 -0.685685 0.0206155)
(-0.00165582 -0.821838 -0.00520958)
(-0.0137754 -0.750157 0.01131)
(0.0239943 -1.53858 -0.0432848)
(-0.0152407 -1.31679 -0.021121)
(-0.0291984 -1.52234 -0.0158961)
(0.0137227 -0.318839 0.024305)
(-0.00478109 -0.147042 -0.00682749)
(-0.000123083 -0.0505177 -0.00017048)
(0.000462941 -0.0370674 0.000408766)
(0.000338949 -0.0371974 0.00101814)
(8.54861e-05 -0.0328401 0.00174832)
(0.000255318 -0.0327655 0.00179789)
(-0.000174612 -0.035571 0.00151188)
(-0.000137657 -0.031146 0.00197386)
(-5.02737e-05 -0.0291593 0.00206221)
(-0.000391225 -0.0304481 0.00167758)
(-0.000921732 -0.0386049 0.000793434)
(-0.000235755 -0.110468 -0.00368938)
(-0.00878443 -0.580489 0.000197473)
(-0.0100804 -0.759264 0.0112111)
(0.0145132 -0.809896 -0.00408541)
(-0.00758936 -0.699644 0.0258943)
(0.0279546 -1.4801 -0.0408023)
(-0.00876803 -1.19799 -0.0179065)
(-0.0221251 -1.54462 -0.0369909)
(0.0121063 -0.4037 0.000511672)
(-0.00338353 -0.157945 -0.00035211)
(-0.0010099 -0.0491859 -0.000414841)
(-0.000151609 -0.0473188 -0.00187439)
(0.000389279 -0.0301727 0.000904055)
(0.000184882 -0.0343233 -4.28257e-05)
(0.000187466 -0.0319546 -4.55112e-05)
(-0.00022006 -0.0278318 0.00103533)
(-0.000123359 -0.0325044 -0.000110202)
(-3.05854e-05 -0.0296539 -7.83784e-05)
(-0.000148961 -0.0324525 -0.000300556)
(0.000308524 -0.0488923 -0.00144842)
(0.000851464 -0.126224 -0.00353955)
(-0.0178505 -0.524401 0.00078532)
(-0.0159874 -0.936354 0.00934298)
(0.0204083 -0.792364 0.00464606)
(-0.00124958 -0.764158 0.0159635)
(0.0133442 -1.44157 -0.0331789)
(-0.00983634 -1.00454 0.0203957)
(-0.00418151 -1.53741 -0.0315137)
(0.00630626 -0.522538 -0.0104501)
(0.000341297 -0.0893089 0.00357029)
(-0.00104785 -0.0577737 -0.00144303)
(-0.000516629 -0.0550141 -0.00219778)
(0.000112242 -0.0312064 -0.000304749)
(4.04577e-05 -0.0313509 -7.93139e-05)
(-0.000118325 -0.0288409 0.000150692)
(0.000115303 -0.0270576 -3.36975e-06)
(0.000137851 -0.0305165 -0.000424011)
(9.00453e-06 -0.0279465 -0.000251469)
(0.000323689 -0.0317545 -0.000386253)
(0.000763431 -0.0519866 -0.000196488)
(-0.00083795 -0.0936003 0.00180134)
(-0.0142188 -0.534585 0.000169193)
(-0.015646 -1.13308 -0.00202172)
(-0.00727114 -0.762148 0.0231731)
(0.0142679 -0.940083 -0.0651759)
(-0.0152358 -1.3757 -0.0145078)
(-0.00726971 -0.972871 0.0262746)
(0.0126337 -1.46883 -0.00307125)
(-0.00523864 -0.548631 -0.00759807)
(0.00133019 -0.0699651 0.00418194)
(-0.000331564 -0.0634807 -0.000437223)
(-0.000569189 -0.0696558 -0.00086244)
(-0.000467033 -0.0368558 -0.00130357)
(-0.000217181 -0.0347868 -0.00102456)
(0.000198862 -0.0327556 -0.000524384)
(0.000380715 -0.0304199 -0.000686286)
(-0.000167082 -0.0365383 -0.00095537)
(-0.000201834 -0.0322472 -0.000903961)
(0.000397409 -0.0369508 -0.0009775)
(0.000709668 -0.0448647 6.23153e-06)
(-0.000760417 -0.0771259 0.00220393)
(-0.0016575 -0.567211 -0.00239236)
(-0.0145669 -1.14724 -0.0191642)
(-0.0119091 -0.754559 0.0197415)
(0.0252552 -0.923895 -0.062587)
(0.00476262 -1.28799 -0.0239193)
(-0.00629498 -0.997546 0.0101029)
(0.0058744 -1.37494 0.000941334)
(-0.00411945 -0.544282 -0.00213168)
(0.00296459 -0.0625953 0.00326622)
(6.18586e-05 -0.0514305 0.000744862)
(-4.3109e-05 -0.0546232 0.000579555)
(-0.000793174 -0.0463023 -0.000562068)
(-0.000382095 -0.0421098 -0.00188017)
(0.000413123 -0.0366588 -0.000996608)
(0.000386293 -0.0341934 -9.52735e-05)
(-0.000344574 -0.0361951 2.36145e-05)
(-0.00020359 -0.0374604 -0.000665974)
(-0.000198199 -0.0422363 -0.000597732)
(3.85778e-05 -0.0503535 -3.40902e-05)
(0.00026437 -0.0727026 0.000744798)
(0.00434407 -0.574564 -0.00369607)
(-0.0095629 -1.14632 -0.0193397)
(-0.00263602 -0.934383 -0.00755888)
(0.0199377 -0.826179 0.00105752)
(-0.00853323 -1.1304 0.00040473)
(0.00866754 -0.981247 0.0101192)
(0.00375288 -1.5717 -0.0109888)
(0.000995498 -0.421359 0.00301109)
(0.000547173 -0.0665041 -0.000176499)
(0.000264494 -0.0447951 0.00115642)
(0.000202254 -0.0548562 0.00018522)
(-0.000458647 -0.0383498 0.000391648)
(-0.000582169 -0.0545431 -0.00259834)
(-4.78875e-05 -0.0433476 -0.00163686)
(0.000134264 -0.0282252 0.000426334)
(1.91832e-05 -0.0353724 5.09609e-05)
(0.000192175 -0.0389444 -0.00016956)
(-0.000256321 -0.0428894 -9.21295e-05)
(1.02537e-05 -0.050605 -0.000406588)
(0.000543192 -0.0725398 0.000109381)
(0.00274812 -0.596836 -0.00403419)
(0.00178865 -1.13228 -0.012698)
(-0.00275863 -0.978915 -0.0142433)
(0.00877553 -0.744391 0.00814829)
(-0.0246017 -0.966742 0.0197672)
(0.0148192 -0.879603 0.0179675)
(0.000681783 -1.57574 -0.0207438)
(-0.000365015 -0.333824 0.0110516)
(-0.00412256 -0.0879929 -0.002672)
(0.000593836 -0.0415847 0.000515526)
(0.000369707 -0.0529858 0.00047177)
(0.000188543 -0.0368622 0.00059356)
(0.000227019 -0.0678497 -0.000206095)
(-0.000816649 -0.0534772 -0.00103385)
(-0.000168952 -0.0296511 -0.00013579)
(0.000213194 -0.0391948 -0.000817157)
(-0.000140089 -0.0389062 -0.00107258)
(-4.39435e-05 -0.0430819 -0.0010702)
(0.000439079 -0.0556675 -0.00171004)
(-0.000726251 -0.0713252 0.000790263)
(0.00472417 -0.642467 -0.0125212)
(0.00506263 -1.12108 -0.0110771)
(-0.00198892 -0.965864 -0.00406017)
(0.00475296 -0.675329 0.0104325)
(-0.00591079 -0.721127 0.0124578)
(0.004814 -0.710594 0.0186729)
(-0.00116718 -1.59279 -0.0153318)
(-0.00351143 -0.311577 0.0101897)
(-0.00304501 -0.104753 -0.004745)
(0.000303772 -0.0501496 -0.00155766)
(0.000326945 -0.0502652 0.00210604)
(0.000382951 -0.0329121 0.000268323)
(0.000729853 -0.0477174 0.00292513)
(-0.000979748 -0.046753 0.00129174)
(-0.000143729 -0.0333356 -0.000746401)
(0.000363546 -0.0399375 0.0002633)
(-0.000262461 -0.0494485 -3.22664e-05)
(-0.000140456 -0.0542429 -0.000364187)
(-8.69005e-05 -0.06675 -0.000241652)
(-0.00319407 -0.0683124 0.00209562)
(0.00539958 -0.662969 -0.0155979)
(0.00921282 -1.11565 -0.00890538)
(0.00113599 -0.959915 -0.0015003)
(0.00126575 -0.580072 0.00840089)
(-0.00379142 -0.421506 0.0132585)
(0.00553584 -0.409942 0.01373)
(0.000826813 -1.60779 -0.00711379)
(-0.00668154 -0.323273 0.000414931)
(0.000283685 -0.150668 -0.00861094)
(-0.000656478 -0.0682275 -0.00670795)
(0.0006171 -0.0414321 0.00153569)
(0.000247538 -0.0386641 -0.000836699)
(0.000162735 -0.0391346 0.00190136)
(-0.000548909 -0.0410171 0.00090606)
(-0.000123654 -0.0398524 -0.00177717)
(0.000281777 -0.0378715 0.000317656)
(0.00028246 -0.0403663 0.00026085)
(0.000141334 -0.0540884 -0.000350119)
(-9.60355e-05 -0.0630701 -0.0011651)
(0.000458748 -0.0816106 -0.000780954)
(0.00389351 -0.634347 -0.00821881)
(0.0179261 -1.11364 -0.00413282)
(0.00112536 -0.984755 -0.00149943)
(0.000951105 -0.345862 0.00812823)
(-0.0017516 -0.177911 0.00688633)
(0.00324389 -0.26582 0.00219462)
(-0.000455909 -1.80026 -0.00275319)
(-0.00530784 -0.388198 -0.0132874)
(0.00100378 -0.229883 -0.0051006)
(-0.00169781 -0.130141 -0.00555438)
(-0.000798368 -0.0505662 -0.000255267)
(-0.000317973 -0.0451662 -0.00054408)
(-0.000129169 -0.0375199 0.000383795)
(0.000479985 -0.0508832 -0.000454389)
(-5.67797e-05 -0.0542666 -0.00135818)
(-0.000160597 -0.0477456 -0.000489161)
(0.000452058 -0.053886 -0.000759806)
(0.000654164 -0.0663042 -0.00108852)
(0.000559259 -0.090912 -0.00191735)
(0.00623972 -0.109534 -0.00216833)
(0.00204372 -0.605923 -0.000785819)
(0.0188487 -1.19348 -0.00214595)
(0.000504273 -1.05328 -0.00284041)
(-4.50783e-05 -0.226245 0.000461516)
(-0.328492 -1.24624 -0.770791)
(0.0466569 -1.29897 -0.76791)
(0.122657 -1.16907 -0.673495)
(0.244838 -0.706053 -0.38763)
(0.231766 -0.41119 -0.24552)
(0.223335 -0.264694 -0.234094)
(0.155024 -0.211183 -0.17878)
(0.0510179 -0.182152 -0.1602)
(0.0158603 -0.196039 -0.141261)
(0.00221705 -0.213428 -0.137)
(0.00129879 -0.21172 -0.135826)
(-0.00601456 -0.214152 -0.141494)
(-0.0278036 -0.215317 -0.145902)
(-0.0661134 -0.222041 -0.149683)
(-0.0991222 -0.251927 -0.171333)
(-0.15676 -0.376053 -0.217893)
(-0.182307 -0.614905 -0.361031)
(-0.0875863 -0.94807 -0.573789)
(-0.0194077 -1.00364 -0.613286)
(0.251484 -1.00933 -0.580407)
(0.00999856 -1.29908 -0.0958978)
(0.00811979 -1.33345 -0.127805)
(-0.0120928 -1.27053 -0.086376)
(0.0134699 -0.527834 -0.0180165)
(0.00084493 -0.265395 -0.138114)
(0.06139 -0.0947241 -0.227446)
(0.0235083 -0.140282 -0.147029)
(-0.00208116 -0.175518 -0.119441)
(-0.00119916 -0.214182 -0.104019)
(-0.000276283 -0.237404 -0.0960563)
(-0.00151438 -0.233842 -0.0975876)
(0.00126958 -0.243551 -0.0942377)
(0.00237831 -0.243644 -0.0931917)
(0.000345772 -0.241077 -0.0944098)
(-0.000770521 -0.234148 -0.0947732)
(-0.00386054 -0.345297 -0.0798)
(-0.0111945 -0.563109 -0.024354)
(0.00616886 -1.01959 -0.0668817)
(-0.00450218 -1.02557 -0.0735831)
(-0.0120724 -1.13788 -0.106904)
(0.0144303 -1.32847 -0.0142181)
(0.00210699 -1.24518 -0.0269484)
(-0.0132129 -1.30049 -0.0610295)
(0.00419417 -0.604447 -0.0343387)
(0.00808606 -0.380995 -0.0724435)
(0.00613169 -0.189237 -0.118131)
(0.00284911 -0.185806 -0.121364)
(-3.26446e-05 -0.207375 -0.110024)
(0.00055528 -0.236011 -0.0969055)
(-0.000135876 -0.251115 -0.091293)
(-0.00176767 -0.250441 -0.0914673)
(-0.00178646 -0.263753 -0.0873076)
(-0.000380873 -0.264576 -0.0891832)
(0.000186079 -0.261436 -0.0897818)
(-0.00147562 -0.264184 -0.0906326)
(-0.0044198 -0.388238 -0.0742279)
(0.00438908 -0.610774 -0.023694)
(-0.00184649 -1.03514 -0.0150674)
(-0.00196145 -1.02483 -0.0105483)
(-0.01975 -1.18589 -0.0626772)
(0.023823 -1.25892 0.0132159)
(0.0130183 -0.967023 0.00238117)
(-0.0104923 -1.18244 -0.0475911)
(-0.00051336 -0.602252 -0.0302361)
(0.00168245 -0.351238 -0.068726)
(-0.00286834 -0.176141 -0.128712)
(0.000734219 -0.164712 -0.135413)
(-0.000594369 -0.188961 -0.119938)
(2.76566e-05 -0.214707 -0.106864)
(-0.000195452 -0.22677 -0.100883)
(-0.00137551 -0.228395 -0.100292)
(-0.00218558 -0.253571 -0.0907311)
(-0.00062859 -0.258131 -0.0901828)
(-0.000165554 -0.253686 -0.0905112)
(-0.00110352 -0.25462 -0.0917189)
(-0.00348081 -0.385365 -0.0611404)
(0.00606673 -0.596978 -0.00663982)
(-0.00257774 -1.02768 -0.0101195)
(0.0059971 -1.00242 -0.00651035)
(-0.0179079 -1.1376 -0.0514126)
(0.0149916 -1.46095 0.00924979)
(0.0205154 -0.87279 0.0345383)
(0.0148557 -1.04792 -0.0118334)
(-0.0147234 -0.62495 -0.0267684)
(0.00766939 -0.318039 -0.0850519)
(-0.00282388 -0.175186 -0.130048)
(0.000514895 -0.160394 -0.140865)
(-0.000382301 -0.18195 -0.124578)
(-0.000682531 -0.205206 -0.110736)
(-5.35621e-05 -0.216239 -0.10443)
(-0.000455943 -0.217544 -0.10378)
(-0.00159356 -0.244383 -0.0923275)
(-0.00058578 -0.252966 -0.0891003)
(-0.00106076 -0.249481 -0.0893566)
(-0.000111983 -0.254241 -0.0893657)
(-0.00226903 -0.372064 -0.0554161)
(0.00455423 -0.509752 -0.00254361)
(-0.00825587 -1.00491 -0.0196445)
(0.00763098 -1.00336 -0.00733151)
(0.0077126 -1.07554 -0.0398853)
(-0.0300613 -1.57393 0.0107178)
(0.0137467 -0.963867 0.00648602)
(0.0313346 -0.927262 0.0126941)
(-0.0312887 -0.629221 -0.0118613)
(0.0087917 -0.294578 -0.0864257)
(-0.000149926 -0.153805 -0.146379)
(0.000162783 -0.145561 -0.154017)
(-0.000837848 -0.160942 -0.137914)
(-0.000960574 -0.185782 -0.119076)
(-9.56475e-05 -0.197681 -0.112102)
(-0.000355293 -0.197078 -0.11248)
(-0.0011905 -0.222615 -0.0982225)
(7.26211e-05 -0.235375 -0.0922043)
(-0.00080866 -0.233477 -0.0938788)
(0.000308511 -0.243973 -0.0901617)
(-0.00382375 -0.327369 -0.0584286)
(0.0130496 -0.476273 0.00146185)
(-0.0115719 -0.894036 -0.00939069)
(-0.00176752 -1.0205 -0.00424448)
(0.0109881 -0.915409 -0.0111597)
(-0.0620017 -1.63185 0.0137173)
(-0.000811444 -1.29569 -0.0337088)
(0.0398931 -0.929579 0.0116785)
(-0.0281013 -0.627341 -0.00182216)
(0.0113272 -0.274258 -0.0818449)
(0.000495183 -0.143566 -0.157054)
(9.41006e-05 -0.134229 -0.165798)
(-0.0011626 -0.15035 -0.146441)
(-0.00134055 -0.17704 -0.122635)
(-0.000235389 -0.189005 -0.11505)
(-0.000222163 -0.187159 -0.115507)
(-0.00104884 -0.209389 -0.0997812)
(0.000165077 -0.220221 -0.0921368)
(-0.000381853 -0.214379 -0.0974936)
(-0.00121434 -0.228835 -0.0898016)
(-0.00803254 -0.286798 -0.0605861)
(0.0134692 -0.537689 0.00107367)
(0.00201929 -0.758009 0.0132505)
(-0.00405619 -1.04505 -0.0182869)
(0.00413499 -0.792089 0.00395102)
(-0.0372176 -1.73056 -0.01655)
(-0.0176719 -1.40434 -0.0207707)
(0.0291983 -0.910502 0.0299238)
(-0.0117069 -0.526741 0.0184084)
(0.00696056 -0.220714 -0.076277)
(0.00202098 -0.12382 -0.166676)
(-7.3608e-05 -0.118142 -0.175377)
(-0.00155695 -0.132913 -0.150099)
(-0.00189036 -0.155718 -0.119915)
(-0.000426317 -0.164458 -0.108671)
(-0.000604279 -0.161745 -0.112669)
(-0.00114791 -0.175749 -0.0934113)
(-0.000534545 -0.180482 -0.0858043)
(-0.00110765 -0.175735 -0.0950894)
(-0.00274556 -0.185454 -0.0864715)
(-0.0049864 -0.22393 -0.0459026)
(-4.49555e-05 -0.589222 0.00261344)
(0.00911417 -0.733999 0.0226175)
(-0.0231205 -0.961052 -0.0236504)
(-0.000831002 -0.756983 0.0194117)
(-0.00768188 -1.7294 -0.0350187)
(-0.037203 -1.41515 -0.0101096)
(0.00541544 -1.04949 0.025274)
(0.0142274 -0.460904 0.0356592)
(-0.00600038 -0.158436 -0.0306721)
(-0.0019924 -0.0842572 -0.132453)
(-0.000698543 -0.0799773 -0.141584)
(-0.000889762 -0.0891639 -0.11292)
(-0.000344867 -0.101479 -0.0809749)
(-7.26446e-05 -0.102988 -0.0718843)
(0.000185341 -0.102212 -0.0759187)
(0.00078575 -0.105059 -0.0573686)
(-0.000614478 -0.107039 -0.0510528)
(-0.00184673 -0.107699 -0.0632345)
(0.00271848 -0.117706 -0.0544063)
(-0.00195383 -0.12224 0.00207025)
(-0.00376453 -0.618285 0.00111879)
(0.00839857 -0.734365 0.0206525)
(-0.0291992 -0.866212 -0.006039)
(-0.0166869 -0.799416 0.0130801)
(0.0117965 -1.67271 -0.0525025)
(-0.0353215 -1.40272 -0.0171167)
(-0.0237936 -1.41879 0.00104914)
(0.0234672 -0.407233 0.0410462)
(-0.00316595 -0.0893305 0.00628847)
(0.000916046 -0.0363615 0.00500102)
(0.000392901 -0.0438613 0.00489364)
(0.000340706 -0.0392429 0.00565912)
(0.000414716 -0.0449749 0.00729739)
(-0.000251785 -0.0457747 0.00753961)
(7.34536e-05 -0.0418467 0.00725322)
(0.00045538 -0.0454793 0.008007)
(0.000134666 -0.0441537 0.00834212)
(-0.000259792 -0.0435881 0.00819142)
(-0.00161176 -0.0498567 0.00841961)
(-0.00348044 -0.0861971 0.00849207)
(-0.00143831 -0.632648 -0.00121336)
(0.000488273 -0.739163 0.0228273)
(-0.00156985 -0.832678 -0.0061389)
(-0.0145486 -0.818907 0.0106414)
(0.0221667 -1.56677 -0.0477617)
(-0.0136861 -1.33781 -0.0256376)
(-0.0298289 -1.52386 -0.0116522)
(0.0153314 -0.390075 0.0264402)
(-0.00457176 -0.127772 -0.00254468)
(-0.000145211 -0.0464649 4.06574e-05)
(0.000438216 -0.0362509 0.000452609)
(0.000313056 -0.0368286 0.000876099)
(7.49483e-05 -0.0319853 0.0013647)
(0.000261306 -0.0319572 0.00156541)
(-0.000188667 -0.0350789 0.00122518)
(-0.000149605 -0.0301809 0.00152768)
(-4.42303e-05 -0.0280984 0.00158948)
(-0.000355125 -0.0293893 0.00131102)
(-0.000797864 -0.0377957 0.000730988)
(-0.000181839 -0.10091 -0.00176654)
(-0.00870658 -0.641064 -0.00107334)
(-0.0106926 -0.808811 0.0175423)
(0.0146851 -0.822751 -5.50322e-05)
(-0.00785516 -0.776182 0.0274504)
(0.0275098 -1.51086 -0.0429983)
(-0.00873039 -1.22216 -0.0159722)
(-0.0237541 -1.54905 -0.037642)
(0.011734 -0.438081 0.00431089)
(-0.0026407 -0.139454 -0.00152286)
(-0.000925138 -0.0451834 -0.000287331)
(-0.000148123 -0.044643 -0.00148961)
(0.00034392 -0.0292063 0.000581984)
(0.000177081 -0.0324222 -0.000182905)
(0.00016761 -0.0312822 -8.7615e-05)
(-0.00022214 -0.0268308 0.000668095)
(-0.000120333 -0.0307039 -0.000231919)
(-2.85954e-05 -0.0280104 -0.000202692)
(-0.000135692 -0.030647 -0.000366778)
(0.00030521 -0.0461325 -0.0011976)
(0.000814212 -0.117624 -0.00300129)
(-0.0193059 -0.601529 -0.00120122)
(-0.0171565 -0.986562 0.0124939)
(0.0211235 -0.829901 0.00754109)
(-0.000690227 -0.828228 0.0187403)
(0.013771 -1.47197 -0.0360071)
(-0.0105036 -1.06652 0.0217696)
(-0.00251515 -1.55222 -0.0341128)
(0.00626029 -0.527321 -0.00735661)
(0.000670132 -0.116717 0.000558887)
(-0.000940335 -0.0530499 -0.000949962)
(-0.000489785 -0.0518262 -0.00152927)
(0.000100423 -0.0287183 -0.000225068)
(3.4807e-05 -0.0295887 -5.49545e-05)
(-0.000120662 -0.0281467 2.67626e-05)
(0.000112375 -0.0249154 -2.6382e-05)
(0.000133898 -0.0287948 -0.000301338)
(8.59067e-06 -0.0263764 -0.000179114)
(0.000308392 -0.029965 -0.000274512)
(0.000705663 -0.0490485 -0.00010835)
(-0.000929866 -0.10296 0.000824756)
(-0.0142225 -0.565884 0.000342343)
(-0.0170399 -1.13671 -0.00323734)
(-0.00689747 -0.818861 0.0203406)
(0.0160529 -0.955688 -0.0654803)
(-0.0148456 -1.39918 -0.0198429)
(-0.0078822 -1.03753 0.0252537)
(0.012539 -1.53224 -0.00141408)
(-0.00472021 -0.552996 -0.00641651)
(0.00199998 -0.0918547 0.00270757)
(-0.000294475 -0.0584471 -0.000379925)
(-0.000532798 -0.0656824 -0.000663751)
(-0.000431224 -0.0338566 -0.000844694)
(-0.000213908 -0.0328233 -0.000722033)
(0.0001873 -0.0309178 -0.000445218)
(0.000365114 -0.0279694 -0.000455571)
(-0.000157069 -0.0345028 -0.000617946)
(-0.000195323 -0.030431 -0.000639793)
(0.000371636 -0.0348673 -0.000690985)
(0.000649397 -0.044991 -7.29528e-06)
(-0.000824532 -0.0846424 0.00147229)
(-0.00149722 -0.576164 -0.000576802)
(-0.0170304 -1.14854 -0.01767)
(-0.012242 -0.814768 0.0177498)
(0.0261028 -0.9429 -0.0624376)
(0.0038158 -1.31552 -0.0204654)
(-0.00664814 -1.05044 0.00931482)
(0.00834786 -1.49768 0.00278678)
(-0.00409881 -0.553116 -0.00441588)
(0.00350089 -0.0736391 0.00256178)
(0.000104188 -0.0533669 0.000390644)
(-1.49966e-05 -0.0572937 0.000299442)
(-0.000728054 -0.0425807 -0.000354523)
(-0.000362636 -0.0397163 -0.00131445)
(0.00039105 -0.0345795 -0.000699527)
(0.000355032 -0.0314873 -1.08047e-05)
(-0.000336012 -0.0358435 1.98703e-06)
(-0.00019251 -0.0353526 -0.000469924)
(-0.000191918 -0.0398577 -0.000421383)
(3.38704e-05 -0.0475741 -3.38882e-05)
(0.000331932 -0.0792895 0.000417439)
(0.00356685 -0.581972 -0.00230229)
(-0.0108811 -1.14542 -0.0196512)
(-0.00204591 -0.95812 -0.00644316)
(0.0206641 -0.879253 0.000167546)
(-0.00977554 -1.18405 -0.00285527)
(0.0097032 -1.04027 0.00457102)
(0.00740748 -1.56917 -0.0107482)
(0.000607398 -0.475055 -0.00219735)
(0.000501573 -0.0634539 0.000518748)
(0.000252306 -0.0458659 0.000843271)
(0.000227409 -0.0573467 0.000147892)
(-0.000411784 -0.0381336 0.00026132)
(-0.000550026 -0.0514048 -0.00180659)
(-4.69981e-05 -0.0408787 -0.0011458)
(9.22126e-05 -0.0271959 0.000293245)
(1.87363e-05 -0.0335302 -3.01391e-06)
(0.000187554 -0.0367626 -0.000116138)
(-0.000239285 -0.0404937 -6.03454e-05)
(6.32976e-06 -0.0477373 -0.000265571)
(0.000642532 -0.0794712 -4.24285e-05)
(0.00226579 -0.603668 -0.00158226)
(0.00167439 -1.13264 -0.0132839)
(-0.00244523 -1.04765 -0.0133451)
(0.00886571 -0.800137 0.00291356)
(-0.0266864 -1.05859 0.00216055)
(0.0169343 -0.964246 0.0063887)
(0.0050866 -1.56914 -0.0179472)
(-0.00054518 -0.390274 0.00730646)
(-0.00368408 -0.0793134 -0.00134284)
(0.000525211 -0.041456 0.00037034)
(0.000391005 -0.0553229 0.000323836)
(0.000200853 -0.0364556 0.000435911)
(0.000220371 -0.0640377 -0.000222027)
(-0.000775617 -0.0504493 -0.000741379)
(-0.000154469 -0.0272932 -0.000111672)
(0.000205135 -0.0370033 -0.00052931)
(-0.000135284 -0.0367112 -0.000752462)
(-3.95864e-05 -0.0406426 -0.000742032)
(0.000413329 -0.0524799 -0.00118138)
(-0.000753558 -0.0788818 0.000520215)
(0.00384757 -0.653924 -0.00993806)
(0.0049971 -1.12159 -0.0113438)
(-0.00417029 -1.06827 -0.00472043)
(0.00505343 -0.747548 0.00318121)
(-0.00796037 -0.855203 -0.0110196)
(0.00596463 -0.827023 0.000682543)
(0.000664674 -1.58125 -0.0141262)
(-0.00359866 -0.37027 0.00952407)
(-0.00262229 -0.0939365 -0.00258552)
(0.000268525 -0.0460433 -0.000950072)
(0.000303407 -0.0527745 0.00169133)
(0.000362486 -0.0320557 0.000159804)
(0.000767269 -0.0501019 0.00221736)
(-0.000944377 -0.0481663 0.00109817)
(-0.000129044 -0.0306498 -0.000476233)
(0.000361412 -0.0400012 0.000373348)
(-0.000249668 -0.0466652 0.00017111)
(-0.000137385 -0.0511421 -1.96151e-05)
(-8.83402e-05 -0.062898 0.000123698)
(-0.00336356 -0.0739806 0.00196306)
(0.00431893 -0.701283 -0.0155428)
(0.00913356 -1.11622 -0.00907802)
(-0.000382528 -1.07276 -0.00042185)
(0.0018402 -0.674208 -0.0044238)
(-0.00639871 -0.641349 -0.0101637)
(0.00672409 -0.608254 -0.00667591)
(0.00104888 -1.59477 -0.00594698)
(-0.00645026 -0.4014 0.00206835)
(0.000333943 -0.132467 -0.00447201)
(-0.000608871 -0.0622099 -0.0041287)
(0.000495535 -0.0415134 0.0012924)
(0.000231031 -0.0355572 -0.000567047)
(0.000139892 -0.0392614 0.00156544)
(-0.000495942 -0.0409734 0.000819336)
(-0.000114704 -0.0366086 -0.00114396)
(0.000252143 -0.0373949 0.00033632)
(0.000303064 -0.0397882 0.000402293)
(0.000132928 -0.0496603 6.63656e-05)
(-7.73472e-05 -0.0578102 -0.000372849)
(0.00036643 -0.0752621 0.000271643)
(0.00357609 -0.712555 -0.0110025)
(0.017954 -1.1142 -0.00421117)
(7.28783e-05 -1.07664 0.000206832)
(0.00192243 -0.52402 -0.00806733)
(-0.00343429 -0.538552 -0.00619204)
(0.00324547 -0.544542 -0.00562977)
(-0.00051639 -1.78251 -0.00213264)
(-0.0047201 -0.485481 -0.0117405)
(0.00133975 -0.187957 -0.00201987)
(-0.00152249 -0.116484 -0.00312386)
(-0.000727201 -0.0465165 -0.000133641)
(-0.000299995 -0.0414919 -0.000356657)
(-0.000135636 -0.0372217 8.10571e-05)
(0.000456665 -0.0468046 -0.000276313)
(-5.27953e-05 -0.0498085 -0.000865818)
(-0.000156305 -0.0439075 -0.000324424)
(0.000420931 -0.0495326 -0.000508234)
(0.000608383 -0.0608199 -0.000687398)
(0.000514599 -0.0830198 -0.0011446)
(0.00595849 -0.100302 -0.00123197)
(0.00168942 -0.734448 -0.00221342)
(0.0190857 -1.19421 -0.00212347)
(0.00042665 -1.1449 -0.00176184)
(0.000805824 -0.4927 -0.00567078)
(-0.352708 -1.24373 -0.711095)
(0.0496052 -1.29516 -0.705908)
(0.133895 -1.15758 -0.611845)
(0.260517 -0.709645 -0.353575)
(0.242922 -0.409095 -0.223703)
(0.22833 -0.263898 -0.221372)
(0.158519 -0.209227 -0.165614)
(0.0521599 -0.178107 -0.150155)
(0.0165793 -0.190783 -0.133064)
(0.0024313 -0.207133 -0.127543)
(0.00134798 -0.205716 -0.126747)
(-0.0063773 -0.20807 -0.131699)
(-0.029188 -0.208957 -0.135526)
(-0.0694782 -0.215893 -0.137733)
(-0.104438 -0.245998 -0.154744)
(-0.167128 -0.369788 -0.19238)
(-0.19616 -0.613751 -0.327639)
(-0.0944504 -0.943136 -0.527661)
(-0.0186589 -1.00289 -0.567022)
(0.26952 -1.001 -0.520267)
(0.00703603 -1.31485 -0.0936703)
(0.00805215 -1.34658 -0.128228)
(-0.00805153 -1.26433 -0.0814277)
(0.0165733 -0.550622 -0.0211267)
(0.000449782 -0.252979 -0.139941)
(0.0646956 -0.0889325 -0.229467)
(0.0250208 -0.133536 -0.146199)
(-0.00328027 -0.166384 -0.118606)
(-0.000482338 -0.20126 -0.103264)
(-0.000250053 -0.223795 -0.0952393)
(-0.00137359 -0.220202 -0.0967929)
(0.00134433 -0.229551 -0.0932476)
(0.00205287 -0.2296 -0.0920788)
(-0.00042011 -0.22687 -0.0933119)
(-0.00102076 -0.220089 -0.0942331)
(-0.00459843 -0.329272 -0.0787957)
(-0.0139852 -0.566874 -0.0241606)
(0.00526491 -1.02269 -0.0632926)
(-0.00364569 -1.03335 -0.0711406)