/*--------------------------------*- C++ -*----------------------------------*\
| =========                 |                                                 |
| \\      /  F ield         | OpenFOAM: The Open Source CFD Toolbox           |
|  \\    /   O peration     | Version:  2.3.0                                 |
|   \\  /    A nd           | Web:      www.OpenFOAM.org                      |
|    \\/     M anipulation  |                                                 |
\*---------------------------------------------------------------------------*/
FoamFile
{
    version     2.0;
    format      ascii;
    class       volScalarField;
    location    "0.45";
    object      epsilon;
}
// * * * * * * * * * * * * * * * * * * * * * * * * * * * * * * * * * * * * * //

dimensions      [0 2 -3 0 0 0 0];

internalField   nonuniform List<scalar> 
545
(
4.70451e+08
4.4799e+08
4.12148e+08
3.81227e+08
3.60065e+08
4.7956e+08
4.49024e+08
4.11051e+08
3.79339e+08
3.5653e+08
4.95221e+08
4.49864e+08
4.0842e+08
3.75422e+08
3.50206e+08
5.18904e+08
4.49181e+08
4.04197e+08
3.69816e+08
3.40539e+08
5.54011e+08
4.45321e+08
3.99338e+08
3.63807e+08
3.26918e+08
3.49247e+08
3.43337e+08
3.41455e+08
3.4086e+08
3.40671e+08
3.40608e+08
3.40584e+08
3.40573e+08
3.40566e+08
3.40561e+08
3.40555e+08
3.4055e+08
3.40545e+08
3.40541e+08
3.40536e+08
3.40532e+08
3.40528e+08
3.40523e+08
3.40519e+08
3.40516e+08
3.40512e+08
3.40509e+08
3.40505e+08
3.40502e+08
3.40499e+08
3.40496e+08
3.40493e+08
3.40491e+08
3.40488e+08
3.40486e+08
3.40484e+08
3.40481e+08
3.4048e+08
3.40478e+08
3.40476e+08
3.40475e+08
3.40473e+08
3.40472e+08
3.40471e+08
3.4047e+08
3.4047e+08
3.40469e+08
3.40469e+08
3.40468e+08
3.40468e+08
3.46541e+08
3.42509e+08
3.41194e+08
3.40778e+08
3.40645e+08
3.406e+08
3.40582e+08
3.40573e+08
3.40566e+08
3.4056e+08
3.40555e+08
3.4055e+08
3.40545e+08
3.40541e+08
3.40536e+08
3.40532e+08
3.40527e+08
3.40523e+08
3.40519e+08
3.40516e+08
3.40512e+08
3.40508e+08
3.40505e+08
3.40502e+08
3.40499e+08
3.40496e+08
3.40493e+08
3.4049e+08
3.40488e+08
3.40486e+08
3.40483e+08
3.40481e+08
3.40479e+08
3.40478e+08
3.40476e+08
3.40475e+08
3.40473e+08
3.40472e+08
3.40471e+08
3.4047e+08
3.40469e+08
3.40469e+08
3.40468e+08
3.40468e+08
3.40468e+08
3.42604e+08
3.41122e+08
3.40749e+08
3.40639e+08
3.40602e+08
3.40586e+08
3.40578e+08
3.40571e+08
3.40566e+08
3.4056e+08
3.40555e+08
3.4055e+08
3.40545e+08
3.40541e+08
3.40536e+08
3.40532e+08
3.40527e+08
3.40523e+08
3.40519e+08
3.40516e+08
3.40512e+08
3.40508e+08
3.40505e+08
3.40502e+08
3.40499e+08
3.40496e+08
3.40493e+08
3.4049e+08
3.40488e+08
3.40486e+08
3.40483e+08
3.40481e+08
3.40479e+08
3.40478e+08
3.40476e+08
3.40475e+08
3.40473e+08
3.40472e+08
3.40471e+08
3.4047e+08
3.40469e+08
3.40469e+08
3.40468e+08
3.40468e+08
3.40468e+08
3.37483e+08
3.39502e+08
3.4025e+08
3.40484e+08
3.40554e+08
3.40571e+08
3.40573e+08
3.4057e+08
3.40565e+08
3.4056e+08
3.40555e+08
3.4055e+08
3.40545e+08
3.4054e+08
3.40536e+08
3.40532e+08
3.40527e+08
3.40523e+08
3.40519e+08
3.40515e+08
3.40512e+08
3.40508e+08
3.40505e+08
3.40502e+08
3.40499e+08
3.40496e+08
3.40493e+08
3.4049e+08
3.40488e+08
3.40485e+08
3.40483e+08
3.40481e+08
3.40479e+08
3.40478e+08
3.40476e+08
3.40474e+08
3.40473e+08
3.40472e+08
3.40471e+08
3.4047e+08
3.40469e+08
3.40469e+08
3.40468e+08
3.40468e+08
3.40468e+08
3.31513e+08
3.38133e+08
3.39854e+08
3.40364e+08
3.40517e+08
3.4056e+08
3.40569e+08
3.40569e+08
3.40565e+08
3.4056e+08
3.40555e+08
3.4055e+08
3.40545e+08
3.4054e+08
3.40536e+08
3.40532e+08
3.40527e+08
3.40523e+08
3.40519e+08
3.40515e+08
3.40512e+08
3.40508e+08
3.40505e+08
3.40502e+08
3.40499e+08
3.40496e+08
3.40493e+08
3.4049e+08
3.40488e+08
3.40485e+08
3.40483e+08
3.40481e+08
3.40479e+08
3.40478e+08
3.40476e+08
3.40474e+08
3.40473e+08
3.40472e+08
3.40471e+08
3.4047e+08
3.40469e+08
3.40469e+08
3.40468e+08
3.40468e+08
3.40468e+08
3.32177e+08
3.37716e+08
3.39693e+08
3.40313e+08
3.40501e+08
3.40555e+08
3.40568e+08
3.40568e+08
3.40564e+08
3.4056e+08
3.40555e+08
3.4055e+08
3.40545e+08
3.4054e+08
3.40536e+08
3.40531e+08
3.40527e+08
3.40523e+08
3.40519e+08
3.40515e+08
3.40512e+08
3.40508e+08
3.40505e+08
3.40502e+08
3.40499e+08
3.40496e+08
3.40493e+08
3.4049e+08
3.40488e+08
3.40485e+08
3.40483e+08
3.40481e+08
3.40479e+08
3.40478e+08
3.40476e+08
3.40474e+08
3.40473e+08
3.40472e+08
3.40471e+08
3.4047e+08
3.40469e+08
3.40469e+08
3.40468e+08
3.40468e+08
3.40468e+08
5.54011e+08
4.45321e+08
3.99338e+08
3.63807e+08
3.26918e+08
5.18904e+08
4.49181e+08
4.04197e+08
3.69816e+08
3.40539e+08
4.95221e+08
4.49864e+08
4.0842e+08
3.75422e+08
3.50206e+08
4.7956e+08
4.49024e+08
4.11051e+08
3.79339e+08
3.5653e+08
4.70451e+08
4.4799e+08
4.12148e+08
3.81227e+08
3.60065e+08
3.31513e+08
3.38133e+08
3.39854e+08
3.40364e+08
3.40517e+08
3.4056e+08
3.40569e+08
3.40569e+08
3.40565e+08
3.4056e+08
3.40555e+08
3.4055e+08
3.40545e+08
3.4054e+08
3.40536e+08
3.40532e+08
3.40527e+08
3.40523e+08
3.40519e+08
3.40515e+08
3.40512e+08
3.40508e+08
3.40505e+08
3.40502e+08
3.40499e+08
3.40496e+08
3.40493e+08
3.4049e+08
3.40488e+08
3.40485e+08
3.40483e+08
3.40481e+08
3.40479e+08
3.40478e+08
3.40476e+08
3.40474e+08
3.40473e+08
3.40472e+08
3.40471e+08
3.4047e+08
3.40469e+08
3.40469e+08
3.40468e+08
3.40468e+08
3.40468e+08
3.37483e+08
3.39502e+08
3.4025e+08
3.40484e+08
3.40554e+08
3.40571e+08
3.40573e+08
3.4057e+08
3.40565e+08
3.4056e+08
3.40555e+08
3.4055e+08
3.40545e+08
3.4054e+08
3.40536e+08
3.40532e+08
3.40527e+08
3.40523e+08
3.40519e+08
3.40515e+08
3.40512e+08
3.40508e+08
3.40505e+08
3.40502e+08
3.40499e+08
3.40496e+08
3.40493e+08
3.4049e+08
3.40488e+08
3.40485e+08
3.40483e+08
3.40481e+08
3.40479e+08
3.40478e+08
3.40476e+08
3.40474e+08
3.40473e+08
3.40472e+08
3.40471e+08
3.4047e+08
3.40469e+08
3.40469e+08
3.40468e+08
3.40468e+08
3.40468e+08
3.42604e+08
3.41122e+08
3.40749e+08
3.40639e+08
3.40602e+08
3.40586e+08
3.40578e+08
3.40571e+08
3.40566e+08
3.4056e+08
3.40555e+08
3.4055e+08
3.40545e+08
3.40541e+08
3.40536e+08
3.40532e+08
3.40527e+08
3.40523e+08
3.40519e+08
3.40516e+08
3.40512e+08
3.40508e+08
3.40505e+08
3.40502e+08
3.40499e+08
3.40496e+08
3.40493e+08
3.4049e+08
3.40488e+08
3.40486e+08
3.40483e+08
3.40481e+08
3.40479e+08
3.40478e+08
3.40476e+08
3.40475e+08
3.40473e+08
3.40472e+08
3.40471e+08
3.4047e+08
3.40469e+08
3.40469e+08
3.40468e+08
3.40468e+08
3.40468e+08
3.46541e+08
3.42509e+08
3.41194e+08
3.40778e+08
3.40645e+08
3.406e+08
3.40582e+08
3.40573e+08
3.40566e+08
3.4056e+08
3.40555e+08
3.4055e+08
3.40545e+08
3.40541e+08
3.40536e+08
3.40532e+08
3.40527e+08
3.40523e+08
3.40519e+08
3.40516e+08
3.40512e+08
3.40508e+08
3.40505e+08
3.40502e+08
3.40499e+08
3.40496e+08
3.40493e+08
3.4049e+08
3.40488e+08
3.40486e+08
3.40483e+08
3.40481e+08
3.40479e+08
3.40478e+08
3.40476e+08
3.40475e+08
3.40473e+08
3.40472e+08
3.40471e+08
3.4047e+08
3.40469e+08
3.40469e+08
3.40468e+08
3.40468e+08
3.40468e+08
3.49247e+08
3.43337e+08
3.41455e+08
3.4086e+08
3.40671e+08
3.40608e+08
3.40584e+08
3.40573e+08
3.40566e+08
3.40561e+08
3.40555e+08
3.4055e+08
3.40545e+08
3.40541e+08
3.40536e+08
3.40532e+08
3.40528e+08
3.40523e+08
3.4052e+08
3.40516e+08
3.40512e+08
3.40509e+08
3.40505e+08
3.40502e+08
3.40499e+08
3.40496e+08
3.40493e+08
3.40491e+08
3.40488e+08
3.40486e+08
3.40484e+08
3.40481e+08
3.4048e+08
3.40478e+08
3.40476e+08
3.40475e+08
3.40473e+08
3.40472e+08
3.40471e+08
3.4047e+08
3.4047e+08
3.40469e+08
3.40469e+08
3.40468e+08
3.40468e+08
)
;

boundaryField
{
    AirInlet
    {
        type            fixedValue;
        value           uniform 0.1;
    }
    WaterInlet
    {
        type            fixedValue;
        value           uniform 0.1;
    }
    ChannelWall
    {
        type            fixedValue;
        value           uniform 0.1;
    }
    Outlet
    {
        type            inletOutlet;
        inletValue      uniform 0.1;
        value           nonuniform List<scalar> 
11
(
3.40468e+08
3.40468e+08
3.40468e+08
3.40468e+08
3.40468e+08
3.40468e+08
3.40468e+08
3.40468e+08
3.40468e+08
3.40468e+08
3.40468e+08
)
;
    }
    FrontAndBack
    {
        type            empty;
    }
}


// ************************************************************************* //
