/*--------------------------------*- C++ -*----------------------------------*\
| =========                 |                                                 |
| \\      /  F ield         | OpenFOAM: The Open Source CFD Toolbox           |
|  \\    /   O peration     | Version:  2.3.0                                 |
|   \\  /    A nd           | Web:      www.OpenFOAM.org                      |
|    \\/     M anipulation  |                                                 |
\*---------------------------------------------------------------------------*/
FoamFile
{
    version     2.0;
    format      ascii;
    class       volScalarField;
    location    "0.13";
    object      alpha.air;
}
// * * * * * * * * * * * * * * * * * * * * * * * * * * * * * * * * * * * * * //

dimensions      [0 0 0 0 0 0 0];

internalField   nonuniform List<scalar> 
6000
(
0.633166
0.633175
0.632793
0.632793
0.632407
0.632448
0.632185
0.632316
0.63202
0.632066
0.631766
0.631744
0.631523
0.631632
0.631502
0.631558
0.631464
0.631597
0.631549
0.631915
0.631853
0.63217
0.632066
0.632348
0.63221
0.63258
0.632572
0.632975
0.632957
0.633342
0.633159
0.632772
0.632834
0.632399
0.63242
0.632043
0.632229
0.631909
0.632004
0.631703
0.631712
0.631398
0.631512
0.631363
0.631505
0.631347
0.631457
0.631345
0.63155
0.631506
0.631885
0.63177
0.632138
0.631942
0.632344
0.632177
0.632637
0.632577
0.633038
0.632948
0.680858
0.63316
0.638463
0.636753
0.632039
0.632127
0.631786
0.631907
0.63162
0.631655
0.631354
0.631328
0.6311
0.631194
0.631077
0.631165
0.631067
0.631192
0.631149
0.631511
0.631443
0.631812
0.631663
0.632039
0.631813
0.632273
0.636622
0.638507
0.632937
0.680861
0.759485
0.709773
0.717539
0.714709
0.699381
0.68011
0.659266
0.643094
0.635511
0.632274
0.631447
0.631022
0.631115
0.630952
0.631078
0.630977
0.631074
0.630973
0.631169
0.631204
0.632426
0.635267
0.643331
0.65904
0.680228
0.699289
0.714572
0.717558
0.709605
0.759699
0.759485
0.757409
0.757621
0.757391
0.757647
0.750051
0.732732
0.712259
0.696908
0.689198
0.686553
0.685982
0.685865
0.685838
0.685807
0.685876
0.685964
0.686034
0.686142
0.686723
0.689331
0.697009
0.712635
0.732686
0.750285
0.757267
0.757531
0.757284
0.757299
0.759703
0.759485
0.756683
0.757391
0.757618
0.75737
0.757833
0.757347
0.757676
0.753042
0.748547
0.746768
0.746793
0.746644
0.746927
0.746695
0.747016
0.746923
0.747187
0.746897
0.747335
0.748642
0.753541
0.757227
0.757761
0.757248
0.75757
0.757267
0.757423
0.756669
0.759703
0.759485
0.73963
0.737743
0.745153
0.756739
0.757347
0.757828
0.757322
0.75779
0.757294
0.757731
0.757264
0.757693
0.757231
0.757649
0.757196
0.757595
0.757161
0.757626
0.757179
0.757672
0.757204
0.757727
0.757227
0.757537
0.756381
0.744801
0.737424
0.739807
0.759691
0.749581
0.711156
0.695947
0.707548
0.733094
0.753802
0.757322
0.757754
0.757294
0.757607
0.757264
0.757549
0.757231
0.757505
0.757196
0.757461
0.757161
0.757439
0.757151
0.757484
0.757179
0.757687
0.757204
0.757461
0.753511
0.732346
0.706834
0.695625
0.711377
0.749538
0.706518
0.675487
0.65269
0.660908
0.693733
0.734695
0.756257
0.757294
0.757576
0.757264
0.757363
0.757231
0.757319
0.757196
0.757278
0.757161
0.757241
0.757121
0.757248
0.757151
0.757294
0.757179
0.757383
0.756303
0.734563
0.692935
0.659935
0.652288
0.675178
0.70526
0.644993
0.633536
0.615104
0.618487
0.655358
0.709378
0.745405
0.756391
0.757264
0.756791
0.75577
0.754946
0.754411
0.754127
0.753962
0.753963
0.754105
0.754405
0.754928
0.755799
0.75682
0.757263
0.756472
0.745765
0.709955
0.655484
0.617608
0.614111
0.632467
0.642191
0.582844
0.590281
0.583662
0.586471
0.625542
0.685913
0.727782
0.746223
0.749895
0.748353
0.745961
0.743883
0.742493
0.74169
0.741299
0.741293
0.741678
0.742494
0.743898
0.746011
0.748452
0.749994
0.746424
0.728275
0.687055
0.627117
0.587593
0.58439
0.589398
0.57891
0.531183
0.550084
0.562754
0.568366
0.602679
0.662427
0.706233
0.727566
0.733485
0.732226
0.72938
0.726517
0.724423
0.723136
0.72253
0.722522
0.72311
0.724398
0.726497
0.729378
0.732246
0.733527
0.727656
0.706572
0.663324
0.604878
0.572415
0.567363
0.553058
0.525421
0.500878
0.521739
0.551068
0.558349
0.583149
0.635724
0.680155
0.703608
0.711846
0.7119
0.709357
0.706281
0.703781
0.702149
0.701396
0.701393
0.702129
0.703749
0.706236
0.709298
0.711822
0.711728
0.703455
0.680033
0.635805
0.584624
0.562956
0.557545
0.533595
0.495392
0.488559
0.510248
0.542137
0.550216
0.565234
0.60634
0.649283
0.675236
0.686353
0.688529
0.686833
0.684049
0.681483
0.6797
0.678857
0.678853
0.679683
0.681443
0.683979
0.686715
0.688356
0.686063
0.674741
0.64853
0.605449
0.565553
0.553355
0.549137
0.524887
0.488212
0.488559
0.508914
0.534363
0.543762
0.55052
0.57782
0.615414
0.64312
0.657234
0.662028
0.661852
0.659848
0.657607
0.655918
0.655068
0.655057
0.655892
0.657551
0.659747
0.661683
0.661775
0.656764
0.642303
0.614119
0.576483
0.550251
0.544558
0.53832
0.513069
0.488212
0.48856
0.52702
0.529158
0.538765
0.541081
0.55535
0.583153
0.609531
0.62581
0.633129
0.634962
0.634223
0.632717
0.631391
0.630661
0.630644
0.631356
0.632648
0.634104
0.634783
0.632818
0.625244
0.608537
0.581657
0.554044
0.540737
0.537431
0.523229
0.513146
0.522918
0.493257
0.549215
0.529157
0.533082
0.536395
0.541713
0.558121
0.579036
0.595201
0.604231
0.607983
0.608766
0.608325
0.607592
0.607114
0.607097
0.607554
0.608255
0.608663
0.607816
0.603931
0.594663
0.578107
0.556859
0.540852
0.536503
0.5296
0.512637
0.525765
0.537199
0.512301
0.54923
0.533386
0.528303
0.532428
0.535053
0.542997
0.55644
0.56967
0.578872
0.583853
0.585983
0.586611
0.58658
0.586432
0.586426
0.586545
0.586554
0.585899
0.583717
0.578645
0.569275
0.555798
0.542348
0.53526
0.533148
0.52081
0.512612
0.545851
0.533225
0.531183
0.548722
0.543425
0.527517
0.528217
0.531691
0.535824
0.543213
0.552246
0.560043
0.565223
0.5681
0.569498
0.570049
0.570202
0.570201
0.570021
0.56945
0.568033
0.56512
0.559905
0.552048
0.542966
0.535789
0.53289
0.527584
0.518206
0.522163
0.545693
0.514933
0.557485
0.536232
0.537365
0.526821
0.526588
0.529637
0.532868
0.53703
0.542616
0.548324
0.552834
0.555775
0.557478
0.558346
0.558687
0.558689
0.558325
0.557439
0.555717
0.552759
0.548246
0.542565
0.537091
0.533195
0.530884
0.522396
0.518243
0.545281
0.545826
0.502796
0.55747
0.518153
0.513425
0.512124
0.521972
0.528942
0.531517
0.53457
0.538086
0.541945
0.545403
0.547943
0.549568
0.550489
0.550889
0.55089
0.550475
0.549539
0.547899
0.545351
0.541888
0.538059
0.534677
0.532059
0.528727
0.520404
0.525263
0.54535
0.543228
0.527964
0.557455
0.511723
0.494573
0.494026
0.509635
0.527402
0.530028
0.533289
0.535954
0.538587
0.541051
0.543011
0.544352
0.545147
0.54551
0.545513
0.545145
0.544346
0.543002
0.541037
0.538581
0.536027
0.533639
0.53125
0.527296
0.517768
0.521853
0.529249
0.528852
0.555677
0.557439
0.509709
0.499699
0.494014
0.498614
0.525201
0.528998
0.532481
0.53484
0.536743
0.538429
0.539813
0.540816
0.541449
0.541738
0.541744
0.541466
0.540838
0.539833
0.538461
0.53682
0.535038
0.533005
0.530256
0.525639
0.505821
0.500014
0.505537
0.528772
0.55565
0.547046
0.508614
0.529686
0.523115
0.498575
0.521133
0.529573
0.532014
0.534223
0.535684
0.53681
0.537735
0.538416
0.538874
0.539099
0.539103
0.538894
0.538448
0.537782
0.536876
0.535768
0.534351
0.532312
0.528746
0.521241
0.493904
0.494949
0.494929
0.517573
0.555625
0.523515
0.508657
0.534419
0.533801
0.502246
0.517057
0.52999
0.531718
0.53367
0.534922
0.535741
0.536366
0.536813
0.537109
0.537262
0.537267
0.537132
0.536852
0.536418
0.5358
0.534992
0.533736
0.531631
0.528369
0.517596
0.493911
0.52265
0.498444
0.498967
0.555598
0.504253
0.529797
0.533801
0.534487
0.524764
0.517071
0.529222
0.53145
0.532934
0.534108
0.534833
0.535316
0.535644
0.535848
0.535952
0.535955
0.535865
0.535675
0.535361
0.534882
0.534176
0.532974
0.531087
0.528785
0.516263
0.505211
0.535592
0.53446
0.500158
0.541455
0.488677
0.527275
0.534378
0.533801
0.533919
0.519974
0.52805
0.531067
0.532093
0.533101
0.533822
0.53428
0.534565
0.534731
0.534806
0.534809
0.534741
0.534586
0.534314
0.533876
0.533168
0.532056
0.530699
0.528536
0.516928
0.53079
0.534864
0.535699
0.529497
0.526863
0.485747
0.506087
0.533801
0.534133
0.533801
0.527191
0.528096
0.530652
0.531501
0.532143
0.532743
0.533161
0.533411
0.533555
0.533611
0.533615
0.533561
0.533419
0.533171
0.532765
0.532149
0.531374
0.530418
0.528056
0.520916
0.534864
0.535646
0.534864
0.535139
0.520918
0.485747
0.50324
0.524837
0.533801
0.53382
0.532374
0.529229
0.530482
0.531273
0.53162
0.531932
0.532181
0.532336
0.532429
0.532458
0.532462
0.532429
0.532328
0.532154
0.531881
0.53151
0.531101
0.530266
0.528608
0.528771
0.534992
0.534864
0.535337
0.534863
0.509881
0.487233
0.529686
0.510472
0.53211
0.533319
0.532899
0.530952
0.530553
0.531201
0.531478
0.531595
0.53167
0.531715
0.531739
0.531742
0.531738
0.531724
0.531681
0.531608
0.531509
0.531354
0.531038
0.530332
0.530633
0.534105
0.534864
0.535078
0.534864
0.526585
0.49211
0.511736
0.566987
0.509545
0.524585
0.531923
0.532595
0.531889
0.530923
0.53124
0.531474
0.531542
0.531573
0.531593
0.531587
0.531574
0.53156
0.531547
0.531532
0.531506
0.53148
0.531384
0.531101
0.530911
0.532866
0.534378
0.534865
0.534864
0.528634
0.524786
0.480126
0.519612
0.578955
0.509583
0.517237
0.529281
0.53199
0.53214
0.531595
0.531491
0.531585
0.531589
0.531587
0.531601
0.531592
0.531578
0.531564
0.53155
0.531535
0.53152
0.531536
0.53153
0.531384
0.532041
0.533512
0.534052
0.534162
0.532685
0.519433
0.528409
0.479726
0.54026
0.578968
0.535824
0.519694
0.52732
0.531234
0.532204
0.532196
0.531927
0.531858
0.53176
0.531621
0.531615
0.531606
0.531592
0.531578
0.531565
0.531549
0.531607
0.531717
0.53181
0.531858
0.533
0.533451
0.533458
0.532488
0.526575
0.519121
0.530295
0.479726
0.569223
0.57898
0.574307
0.53295
0.527898
0.530946
0.532288
0.532591
0.532338
0.532173
0.532014
0.531807
0.531629
0.531619
0.531605
0.531592
0.531578
0.531639
0.531822
0.531991
0.532159
0.532363
0.533434
0.533384
0.533109
0.530595
0.522142
0.519144
0.530388
0.479733
0.587828
0.578991
0.578979
0.543297
0.529973
0.531286
0.532595
0.532906
0.532677
0.532448
0.532249
0.532052
0.531783
0.531633
0.531619
0.531621
0.531628
0.531858
0.532063
0.532261
0.532477
0.53278
0.533614
0.53346
0.533127
0.530316
0.524016
0.519792
0.52898
0.527975
0.58773
0.570037
0.560271
0.526062
0.512566
0.528545
0.53308
0.533268
0.532963
0.532669
0.532423
0.532225
0.532017
0.53175
0.531774
0.531819
0.531825
0.532058
0.532243
0.53246
0.532708
0.5331
0.533714
0.533619
0.533285
0.531188
0.529133
0.528899
0.516628
0.548924
0.587633
0.58164
0.525681
0.48927
0.477022
0.511723
0.532207
0.533583
0.533216
0.532856
0.532574
0.532348
0.53216
0.532018
0.532042
0.532069
0.532063
0.532184
0.532372
0.532609
0.532889
0.533406
0.533779
0.533784
0.533556
0.53272
0.530353
0.519172
0.502084
0.548883
0.587562
0.580175
0.492328
0.474233
0.474254
0.500489
0.528304
0.53362
0.533363
0.533037
0.532743
0.532488
0.532297
0.532246
0.532219
0.53223
0.532249
0.532311
0.532506
0.532762
0.533083
0.533675
0.533836
0.533848
0.533706
0.533214
0.521022
0.496496
0.502093
0.548838
0.587364
0.531445
0.473176
0.477244
0.490617
0.510966
0.526934
0.533802
0.533541
0.533234
0.532929
0.532666
0.532473
0.532414
0.532343
0.532349
0.532411
0.532478
0.532677
0.532951
0.53331
0.533816
0.533834
0.533791
0.533552
0.532268
0.506388
0.490238
0.502994
0.548796
0.543153
0.487486
0.473135
0.533823
0.534944
0.517041
0.529796
0.534063
0.533815
0.533444
0.533095
0.532828
0.532635
0.532534
0.532437
0.53244
0.532535
0.532642
0.532846
0.533136
0.533511
0.533853
0.533815
0.533655
0.533273
0.529532
0.507058
0.490261
0.494474
0.541413
0.50314
0.481582
0.49694
0.545038
0.544428
0.518104
0.533074
0.534252
0.53396
0.533554
0.533201
0.53292
0.532723
0.532594
0.532485
0.532485
0.532594
0.532734
0.532943
0.53324
0.533607
0.533877
0.533826
0.533657
0.533602
0.527439
0.5157
0.506714
0.505417
0.511403
0.490291
0.481555
0.544908
0.544428
0.544437
0.520216
0.533943
0.534262
0.533968
0.533559
0.533214
0.532937
0.532737
0.532594
0.532475
0.532475
0.532593
0.532747
0.532961
0.533258
0.533621
0.533888
0.533856
0.533677
0.534433
0.528981
0.532814
0.536992
0.529958
0.487424
0.481043
0.499025
0.544428
0.545008
0.544213
0.525087
0.533638
0.534179
0.533858
0.533473
0.533136
0.532859
0.532651
0.532475
0.532348
0.532351
0.532485
0.532672
0.532897
0.533198
0.53356
0.533869
0.53387
0.53372
0.535328
0.533095
0.537057
0.536893
0.536885
0.484594
0.472961
0.514236
0.54513
0.544428
0.544361
0.531329
0.533377
0.533893
0.533547
0.533188
0.532854
0.53256
0.532358
0.532191
0.53217
0.532163
0.532206
0.532394
0.53262
0.532945
0.533314
0.533688
0.533837
0.533912
0.535777
0.536343
0.536893
0.537267
0.536869
0.484595
0.469244
0.505465
0.544428
0.544634
0.544416
0.536398
0.53347
0.533689
0.533231
0.532798
0.532429
0.532193
0.53217
0.532139
0.532122
0.53213
0.532144
0.532166
0.532194
0.532505
0.532898
0.53334
0.533743
0.534278
0.53613
0.536893
0.537005
0.536893
0.536701
0.491277
0.469224
0.495974
0.544478
0.544428
0.544414
0.53915
0.533977
0.533694
0.533135
0.532571
0.532176
0.532143
0.532127
0.532113
0.532088
0.532098
0.532124
0.532137
0.53215
0.532172
0.532561
0.533087
0.533698
0.534729
0.536331
0.536896
0.536893
0.536931
0.535606
0.523146
0.469185
0.490002
0.537917
0.544445
0.544255
0.539563
0.534917
0.533818
0.533152
0.532555
0.532134
0.532109
0.532094
0.532082
0.532064
0.532065
0.532092
0.532105
0.532131
0.532146
0.532473
0.53305
0.533732
0.535141
0.536366
0.536875
0.536902
0.536637
0.527337
0.523572
0.469171
0.500661
0.52046
0.542956
0.543726
0.539444
0.535729
0.534104
0.533246
0.5326
0.532102
0.532084
0.532073
0.532061
0.532041
0.532031
0.532058
0.532071
0.5321
0.532113
0.532491
0.533086
0.533865
0.535439
0.536301
0.536657
0.536726
0.533641
0.516855
0.520129
0.484616
0.530608
0.506701
0.539662
0.542485
0.539017
0.536024
0.534408
0.533453
0.532752
0.53215
0.532059
0.532045
0.532033
0.532008
0.531998
0.532023
0.532037
0.532063
0.53208
0.5326
0.53323
0.5341
0.53555
0.536209
0.536348
0.535841
0.527287
0.516886
0.518067
0.518822
0.543144
0.50672
0.536027
0.540132
0.538185
0.535966
0.53453
0.533659
0.532987
0.53248
0.532027
0.532013
0.532001
0.531976
0.531967
0.531991
0.532002
0.532029
0.532192
0.532835
0.533468
0.534334
0.535549
0.536158
0.536035
0.534185
0.520766
0.520768
0.523876
0.521861
0.543346
0.506716
0.530879
0.537259
0.537253
0.535759
0.534504
0.533724
0.533159
0.532756
0.532
0.531987
0.531976
0.531964
0.531955
0.531967
0.531977
0.532001
0.532639
0.533082
0.533651
0.534448
0.53551
0.536115
0.535755
0.533072
0.521308
0.543606
0.53363
0.522953
0.543145
0.519809
0.52569
0.534806
0.536634
0.535456
0.534431
0.533715
0.533195
0.532864
0.532048
0.531978
0.531967
0.531945
0.531936
0.531956
0.531966
0.532
0.532853
0.533193
0.533697
0.53445
0.535398
0.536063
0.535766
0.533379
0.521562
0.543187
0.538073
0.524096
0.543367
0.543146
0.526079
0.532843
0.536156
0.53514
0.5343
0.533657
0.533178
0.532868
0.53259
0.531957
0.531945
0.531922
0.531913
0.531936
0.531947
0.532349
0.532888
0.533198
0.533686
0.534392
0.535221
0.536044
0.535933
0.533124
0.523988
0.543465
0.537703
0.524916
0.543146
0.543428
0.534534
0.532849
0.535472
0.534775
0.534091
0.533517
0.533104
0.53284
0.532682
0.531949
0.531922
0.5319
0.531898
0.531913
0.531938
0.532684
0.532876
0.533165
0.533616
0.534257
0.53504
0.536002
0.535851
0.533213
0.538303
0.543188
0.532169
0.525131
0.543338
0.543147
0.543252
0.532856
0.534614
0.534308
0.533809
0.533314
0.532971
0.532762
0.532644
0.532209
0.531901
0.53189
0.531886
0.531902
0.532152
0.532673
0.532819
0.533068
0.533472
0.534065
0.534838
0.535799
0.535558
0.536695
0.543188
0.543294
0.525395
0.523202
0.543146
0.543435
0.543147
0.534282
0.534108
0.5339
0.533504
0.533101
0.53282
0.532654
0.532565
0.532465
0.531899
0.531874
0.531868
0.531893
0.532459
0.532592
0.53271
0.53292
0.533276
0.533821
0.534556
0.535343
0.535492
0.543002
0.543409
0.543187
0.519064
0.519232
0.542084
0.543147
0.54328
0.539938
0.534379
0.533838
0.533293
0.53293
0.532687
0.532549
0.532472
0.532406
0.532007
0.531855
0.531857
0.531994
0.532401
0.532476
0.532574
0.532749
0.533055
0.533538
0.534168
0.534758
0.535906
0.543281
0.543188
0.543217
0.513008
0.516203
0.529805
0.543192
0.543147
0.543021
0.535243
0.533899
0.533258
0.53283
0.532591
0.53246
0.532379
0.532306
0.532192
0.531846
0.531848
0.53217
0.532283
0.532354
0.532435
0.532578
0.532838
0.533257
0.533792
0.534442
0.537096
0.543188
0.543343
0.541032
0.508918
0.515182
0.514366
0.542934
0.543185
0.543146
0.53631
0.534119
0.533283
0.53279
0.532526
0.532386
0.532295
0.53221
0.532134
0.531837
0.531839
0.532107
0.53217
0.53224
0.532312
0.532431
0.532659
0.533046
0.533657
0.534548
0.538976
0.543255
0.543188
0.524326
0.507213
0.522443
0.513307
0.538399
0.543147
0.543058
0.536873
0.5344
0.533338
0.532774
0.532477
0.532319
0.532212
0.532118
0.532033
0.531828
0.531829
0.532003
0.53207
0.532143
0.532216
0.532324
0.532543
0.532945
0.533681
0.534913
0.540916
0.543188
0.543198
0.509551
0.510434
0.541598
0.513191
0.528993
0.542922
0.542603
0.536778
0.534428
0.533353
0.532756
0.532427
0.532249
0.532129
0.532027
0.531939
0.531819
0.531821
0.531904
0.531979
0.532057
0.532141
0.532255
0.532486
0.532944
0.533764
0.535531
0.542055
0.543211
0.539234
0.509611
0.52804
0.558603
0.53363
0.523208
0.541578
0.541421
0.536382
0.534344
0.533304
0.53269
0.532347
0.532164
0.532036
0.531925
0.531842
0.531765
0.531753
0.531813
0.531887
0.531975
0.532073
0.532204
0.532463
0.532971
0.533928
0.536132
0.542052
0.543188
0.531886
0.515314
0.551978
0.564838
0.56525
0.523295
0.539025
0.539474
0.535664
0.534174
0.533171
0.532563
0.532226
0.532049
0.531913
0.531818
0.531721
0.531664
0.531652
0.53171
0.531795
0.53189
0.532004
0.532154
0.532445
0.533004
0.534066
0.536267
0.541741
0.542839
0.528688
0.562249
0.566671
0.56527
0.565654
0.52459
0.53707
0.537205
0.534806
0.533891
0.532954
0.53239
0.532073
0.531907
0.531789
0.531689
0.531613
0.531544
0.531543
0.531614
0.531696
0.531795
0.531919
0.532086
0.532403
0.532988
0.534038
0.5361
0.540843
0.541559
0.528695
0.570072
0.570087
0.561548
0.56525
0.531059
0.537161
0.53543
0.534099
0.533487
0.532657
0.532167
0.531893
0.531744
0.531638
0.531529
0.531471
0.531384
0.531397
0.531495
0.531573
0.531685
0.531815
0.531982
0.532298
0.532884
0.533898
0.535601
0.53925
0.540008
0.528591
0.570208
0.565742
0.544821
0.56541
0.535
0.53746
0.534456
0.533636
0.533032
0.532311
0.5319
0.531677
0.531556
0.531432
0.531362
0.531268
0.531262
0.531288
0.53132
0.531427
0.531531
0.531663
0.531821
0.53211
0.53265
0.533594
0.53482
0.537206
0.539174
0.528648
0.570055
0.545772
0.52537
0.565229
0.53723
0.537472
0.533834
0.533274
0.532585
0.531943
0.531595
0.531418
0.531317
0.531236
0.531166
0.531139
0.531121
0.531156
0.531191
0.531243
0.531313
0.531437
0.531587
0.531836
0.532292
0.533114
0.533952
0.535501
0.538245
0.528487
0.570067
0.525736
0.514461
0.565069
0.541045
0.537499
0.53309
0.53283
0.532122
0.531539
0.531238
0.531116
0.531037
0.531005
0.530989
0.530992
0.530902
0.530939
0.531048
0.53103
0.531078
0.531156
0.53127
0.531456
0.531824
0.532525
0.533134
0.534134
0.536638
0.528648
0.568629
0.515441
0.511709
0.56334
0.54971
0.538006
0.532171
0.53216
0.531566
0.531058
0.53083
0.53076
0.530756
0.530739
0.530796
0.530766
0.530755
0.530788
0.530814
0.530839
0.530824
0.530822
0.530855
0.530966
0.531265
0.531872
0.53229
0.532359
0.535178
0.528824
0.564794
0.512933
0.512444
0.560668
0.560103
0.540503
0.531769
0.531449
0.530925
0.530583
0.530528
0.530514
0.530516
0.530568
0.530556
0.53064
0.530624
0.530653
0.530649
0.530656
0.530556
0.530513
0.53052
0.530535
0.530695
0.531095
0.531338
0.530559
0.535485
0.541182
0.562525
0.513911
0.516712
0.554428
0.561387
0.545575
0.53218
0.531223
0.530574
0.530501
0.530472
0.530472
0.530472
0.530505
0.530522
0.53055
0.530508
0.530519
0.53056
0.530527
0.530499
0.530477
0.530481
0.53049
0.530514
0.530538
0.530544
0.530531
0.538584
0.558312
0.560828
0.517422
0.523271
0.537887
0.561381
0.550676
0.533671
0.531416
0.530597
0.53048
0.530466
0.530458
0.530454
0.530476
0.53053
0.530485
0.530478
0.53047
0.530478
0.530487
0.530484
0.530455
0.530459
0.530465
0.530485
0.530498
0.530514
0.530523
0.545786
0.562471
0.549754
0.52611
0.523228
0.512752
0.55625
0.553738
0.536203
0.531946
0.530692
0.530472
0.530457
0.530453
0.530445
0.530457
0.530474
0.530478
0.53047
0.530462
0.53047
0.53047
0.530449
0.530439
0.530445
0.530451
0.530463
0.530475
0.530867
0.532002
0.554307
0.562408
0.527139
0.529471
0.519356
0.502826
0.532175
0.552014
0.538533
0.532605
0.530844
0.530458
0.530453
0.530444
0.530438
0.530454
0.530462
0.530486
0.530461
0.530456
0.530466
0.530456
0.530439
0.530432
0.530437
0.530441
0.530453
0.530461
0.531701
0.536859
0.55432
0.544944
0.512867
0.525775
0.50326
0.502908
0.493635
0.540425
0.539752
0.533463
0.531184
0.530453
0.530443
0.530438
0.53043
0.530438
0.530471
0.530462
0.530456
0.530448
0.530453
0.530445
0.530432
0.530412
0.530417
0.530427
0.530447
0.530469
0.533202
0.541184
0.543871
0.501994
0.512981
0.508344
0.496198
0.517985
0.491688
0.520991
0.53863
0.533996
0.531632
0.530545
0.530438
0.530428
0.530424
0.53043
0.530517
0.53047
0.530466
0.530441
0.530448
0.530451
0.530427
0.530405
0.530409
0.530421
0.530428
0.531245
0.534345
0.540062
0.522786
0.491019
0.520806
0.497052
0.506863
0.551616
0.491784
0.50952
0.535251
0.533873
0.531654
0.531046
0.530429
0.530424
0.530417
0.530442
0.53056
0.530546
0.530382
0.530363
0.530471
0.530571
0.530399
0.530398
0.530396
0.530402
0.530461
0.531909
0.534365
0.535679
0.50848
0.491122
0.539292
0.497415
0.551445
0.582127
0.499209
0.504097
0.529449
0.533471
0.531527
0.531136
0.53044
0.530417
0.53041
0.530453
0.530577
0.530512
0.530351
0.530356
0.530526
0.530579
0.530391
0.530383
0.530389
0.530395
0.531113
0.531848
0.533821
0.527912
0.502223
0.49954
0.571668
0.536783
0.573042
0.585065
0.502698
0.49732
0.521477
0.532545
0.53151
0.531129
0.530807
0.530437
0.530403
0.530507
0.530575
0.530263
0.530345
0.530349
0.530344
0.53057
0.530459
0.530377
0.530383
0.53052
0.531225
0.531642
0.532494
0.518657
0.495885
0.503024
0.584866
0.566648
0.576253
0.585384
0.503236
0.492784
0.513938
0.531229
0.531515
0.53114
0.530875
0.530571
0.530397
0.530314
0.530267
0.53017
0.530249
0.530298
0.530193
0.530295
0.530359
0.530364
0.530478
0.530857
0.531149
0.531587
0.530748
0.511098
0.492597
0.503933
0.585213
0.573662
0.563226
0.585066
0.514557
0.492768
0.508681
0.529062
0.531132
0.530603
0.530271
0.530043
0.529896
0.52977
0.529652
0.530101
0.52988
0.529947
0.53011
0.529674
0.529741
0.529886
0.530048
0.530319
0.530577
0.531107
0.528434
0.506549
0.492602
0.518869
0.584899
0.564726
0.541555
0.585398
0.567038
0.497355
0.507577
0.526279
0.529792
0.52943
0.529204
0.529078
0.5291
0.529177
0.529286
0.529866
0.529721
0.529725
0.529857
0.529251
0.529115
0.529107
0.529143
0.529284
0.529458
0.529746
0.525755
0.50592
0.499191
0.576412
0.585264
0.543506
0.530068
0.585067
0.585793
0.51728
0.508174
0.523286
0.527646
0.527977
0.528101
0.528291
0.528523
0.528764
0.528995
0.529474
0.529695
0.529697
0.529427
0.528998
0.528778
0.52855
0.528359
0.528146
0.528002
0.527581
0.522965
0.506884
0.523075
0.585691
0.5849
0.531084
0.527432
0.585141
0.585092
0.558359
0.514317
0.522409
0.525622
0.526464
0.526967
0.527481
0.527895
0.528231
0.52843
0.528814
0.529362
0.529362
0.52875
0.528472
0.528284
0.527929
0.527512
0.526953
0.526448
0.52554
0.522276
0.514364
0.568028
0.584902
0.58498
0.528018
0.532854
0.584524
0.58569
0.585092
0.526473
0.523593
0.525718
0.526557
0.527069
0.527508
0.527901
0.528202
0.528366
0.528569
0.529049
0.529027
0.528527
0.528351
0.528215
0.527919
0.527509
0.527045
0.526544
0.525654
0.523556
0.527386
0.584902
0.58569
0.584506
0.533672
0.560049
0.577895
0.58513
0.585291
0.536246
0.526586
0.526747
0.527328
0.527805
0.528095
0.528378
0.52858
0.528748
0.528862
0.529253
0.529215
0.528818
0.528694
0.528566
0.528357
0.528057
0.527782
0.52733
0.526732
0.526701
0.53711
0.585158
0.584902
0.578071
0.560792
0.584426
0.57467
0.585393
0.58513
0.539539
0.530629
0.52859
0.528697
0.529068
0.529285
0.529446
0.52949
0.529565
0.52956
0.529765
0.529716
0.529517
0.529518
0.529458
0.529383
0.52923
0.529059
0.528711
0.528623
0.53081
0.539773
0.584902
0.585279
0.57481
0.584892
0.592555
0.574729
0.585169
0.584821
0.53854
0.534155
0.531072
0.530765
0.530954
0.531067
0.531089
0.530961
0.530815
0.530644
0.530623
0.5306
0.530634
0.530827
0.530947
0.531039
0.531024
0.530945
0.530769
0.531101
0.534266
0.538599
0.584845
0.584902
0.574725
0.592848
0.592677
0.57467
0.585218
0.576291
0.535789
0.534669
0.532294
0.531981
0.531831
0.531732
0.531679
0.531665
0.531627
0.531564
0.53152
0.531524
0.5316
0.531643
0.531671
0.531687
0.531731
0.531828
0.531971
0.53227
0.534679
0.535619
0.576425
0.584995
0.57481
0.592885
0.59278
0.585018
0.585208
0.563079
0.532861
0.534175
0.532182
0.531896
0.531686
0.531592
0.531549
0.531592
0.531674
0.531677
0.531658
0.531657
0.531667
0.531664
0.531594
0.531564
0.531596
0.531681
0.531875
0.532147
0.534149
0.532591
0.562884
0.584909
0.584627
0.592993
0.59278
0.592901
0.585221
0.55241
0.531368
0.533112
0.531896
0.531681
0.531586
0.531545
0.531518
0.531537
0.531606
0.53159
0.531569
0.531568
0.531603
0.53161
0.531554
0.53154
0.531555
0.531586
0.531653
0.531855
0.533054
0.531349
0.551868
0.584921
0.593109
0.592994
0.592751
0.592679
0.58184
0.54408
0.531362
0.531573
0.531085
0.530992
0.531105
0.531157
0.53122
0.531274
0.531255
0.531262
0.531377
0.531378
0.531296
0.531307
0.531305
0.531245
0.531183
0.531124
0.530985
0.531063
0.531527
0.531348
0.543372
0.581337
0.59289
0.592962
0.592566
0.5928
0.567587
0.536266
0.531361
0.531145
0.530982
0.530982
0.530982
0.530982
0.530982
0.530982
0.531061
0.531197
0.531376
0.531382
0.531239
0.531095
0.531022
0.530985
0.530985
0.530985
0.530985
0.530985
0.531124
0.531341
0.535599
0.567257
0.593007
0.592775
0.58837
0.592572
0.543137
0.530943
0.532642
0.531682
0.530982
0.530982
0.530982
0.531041
0.531124
0.531204
0.531315
0.531448
0.531532
0.531539
0.531475
0.531328
0.531256
0.531169
0.53108
0.530985
0.530985
0.530985
0.531684
0.532565
0.530877
0.543325
0.592786
0.588635
0.576212
0.59254
0.526129
0.530293
0.532648
0.532224
0.531693
0.531299
0.531371
0.531461
0.531514
0.531505
0.531547
0.53162
0.531633
0.531634
0.531622
0.531548
0.531517
0.531534
0.53149
0.531391
0.531291
0.531715
0.532302
0.53257
0.530537
0.526339
0.592752
0.576669
0.546692
0.58865
0.523419
0.531491
0.532359
0.531724
0.531473
0.531388
0.531562
0.531608
0.531641
0.531639
0.531633
0.531634
0.531612
0.53162
0.53163
0.531629
0.531631
0.531634
0.531612
0.531579
0.531425
0.531523
0.531814
0.532327
0.531819
0.523525
0.588702
0.547094
0.515936
0.581095
0.523261
0.533939
0.530982
0.530441
0.530776
0.531331
0.531584
0.531611
0.531554
0.531556
0.531529
0.531407
0.531248
0.53127
0.531413
0.531533
0.531555
0.531554
0.531611
0.531597
0.53136
0.530824
0.530489
0.531064
0.534351
0.523215
0.580773
0.516226
0.506094
0.57095
0.523265
0.536482
0.529172
0.529337
0.530003
0.530456
0.530707
0.530825
0.530855
0.530864
0.530734
0.530524
0.53029
0.530303
0.530528
0.530743
0.530862
0.530855
0.530828
0.530721
0.530481
0.530048
0.529368
0.529285
0.536757
0.523219
0.571005
0.506412
0.50607
0.557738
0.524131
0.54337
0.527644
0.52798
0.52846
0.528466
0.528658
0.529023
0.529322
0.529347
0.529114
0.528905
0.52868
0.528667
0.528889
0.529123
0.529334
0.529311
0.52903
0.528666
0.528496
0.528472
0.528015
0.527687
0.543354
0.524236
0.558036
0.506385
0.506049
0.541526
0.527734
0.546958
0.526517
0.526516
0.526548
0.526547
0.52678
0.527063
0.527111
0.527112
0.526988
0.526845
0.526741
0.526733
0.526834
0.526994
0.527106
0.527097
0.52705
0.526764
0.526535
0.526529
0.526516
0.52651
0.547276
0.528001
0.54164
0.506364
0.506023
0.520817
0.533018
0.546835
0.526512
0.526517
0.526512
0.526517
0.526512
0.526517
0.526512
0.526517
0.526511
0.526517
0.526511
0.526517
0.52651
0.526517
0.52651
0.526517
0.52651
0.526516
0.52651
0.526516
0.526508
0.526516
0.547153
0.533338
0.520727
0.506346
0.511361
0.507588
0.536915
0.546924
0.526979
0.526512
0.526517
0.526512
0.526517
0.526512
0.526517
0.526512
0.526517
0.526911
0.527504
0.527462
0.526901
0.526508
0.526517
0.526508
0.526517
0.526508
0.526516
0.526508
0.526516
0.526768
0.547242
0.537019
0.507815
0.511764
0.559544
0.507518
0.534981
0.546835
0.530236
0.529096
0.527469
0.527134
0.527113
0.527244
0.527623
0.528134
0.529068
0.530208
0.5312
0.53118
0.530198
0.528917
0.527961
0.527436
0.527101
0.527055
0.527043
0.527391
0.529002
0.530057
0.547153
0.534952
0.507762
0.560832
0.584456
0.507589
0.528902
0.546854
0.534337
0.535251
0.532888
0.532152
0.532604
0.533881
0.535568
0.536304
0.537305
0.53771
0.538494
0.538493
0.537678
0.536424
0.535357
0.534386
0.533026
0.532362
0.531896
0.532645
0.535033
0.534307
0.547174
0.528786
0.507816
0.587593
0.597896
0.509899
0.523489
0.546835
0.538835
0.545503
0.544721
0.544826
0.546315
0.546835
0.546895
0.546835
0.546859
0.546008
0.545096
0.545086
0.545908
0.547071
0.547086
0.547186
0.546841
0.545482
0.543923
0.543809
0.544807
0.53882
0.547153
0.523284
0.510077
0.603499
0.61196
0.518879
0.521476
0.546817
0.544111
0.54692
0.546835
0.546924
0.546835
0.54692
0.546835
0.546883
0.546835
0.545969
0.544164
0.544118
0.545875
0.547153
0.547183
0.547153
0.54721
0.547153
0.54721
0.547153
0.54721
0.543967
0.547148
0.521659
0.519701
0.614714
0.616234
0.528308
0.521721
0.546827
0.54684
0.546835
0.54689
0.546835
0.546882
0.546835
0.546857
0.546835
0.544872
0.542356
0.540323
0.540271
0.542274
0.544907
0.546999
0.547173
0.547153
0.547185
0.547153
0.547205
0.547153
0.547156
0.547153
0.522026
0.529365
0.614707
0.616269
0.544057
0.52409
0.546444
0.546182
0.54685
0.546835
0.54685
0.546835
0.546616
0.545802
0.544164
0.541515
0.540416
0.539942
0.539932
0.540252
0.541322
0.543926
0.545831
0.546655
0.547033
0.547166
0.547153
0.547167
0.546336
0.546825
0.524462
0.5449
0.61469
0.616307
0.559248
0.530206
0.546027
0.543712
0.546142
0.54637
0.546436
0.545785
0.544477
0.542583
0.541739
0.541753
0.544608
0.545932
0.545916
0.544454
0.541397
0.541384
0.542279
0.544183
0.545521
0.546321
0.546346
0.546152
0.543607
0.546393
0.530437
0.561983
0.614676
0.616345
0.579673
0.539441
0.546108
0.542975
0.544049
0.544601