/*--------------------------------*- C++ -*----------------------------------*\
| =========                 |                                                 |
| \\      /  F ield         | OpenFOAM: The Open Source CFD Toolbox           |
|  \\    /   O peration     | Version:  2.3.0                                 |
|   \\  /    A nd           | Web:      www.OpenFOAM.org                      |
|    \\/     M anipulation  |                                                 |
\*---------------------------------------------------------------------------*/
FoamFile
{
    version     2.0;
    format      ascii;
    class       volVectorField;
    location    "0.13";
    object      U.particlesMean;
}
// * * * * * * * * * * * * * * * * * * * * * * * * * * * * * * * * * * * * * //

dimensions      [0 1 -1 0 0 0 0];

internalField   nonuniform List<vector> 
6000
(
(0.0075875 -0.203187 0)
(0.0163599 -0.204633 0)
(0.0266647 -0.205552 0)
(0.0323933 -0.206236 0)
(0.0355003 -0.20572 0)
(0.0365049 -0.205338 0)
(0.0358751 -0.205186 0)
(0.0338785 -0.204953 0)
(0.0307571 -0.204561 0)
(0.0268168 -0.204292 0)
(0.0223678 -0.204094 0)
(0.0175981 -0.204003 0)
(0.0126551 -0.203984 0)
(0.00761684 -0.203967 0)
(0.00253322 -0.203949 0)
(-0.0025764 -0.203943 0)
(-0.00766609 -0.203968 0)
(-0.012707 -0.203978 0)
(-0.0176524 -0.204002 0)
(-0.0224249 -0.204092 0)
(-0.0268779 -0.204289 0)
(-0.0308202 -0.204562 0)
(-0.0339465 -0.204955 0)
(-0.0359427 -0.205193 0)
(-0.036572 -0.205344 0)
(-0.0355587 -0.205754 0)
(-0.0324454 -0.206244 0)
(-0.0267021 -0.205552 0)
(-0.0163951 -0.204637 0)
(-0.00759232 -0.203032 0)
(0.0223693 -0.043586 0)
(0.03038 -0.0244871 0)
(0.0410556 -0.0172548 0)
(0.0461196 -0.0155027 0)
(0.0482638 -0.0151244 0)
(0.047888 -0.0135891 0)
(0.0458178 -0.0116643 0)
(0.0418963 -0.00998904 0)
(0.0371539 -0.00933341 0)
(0.0318963 -0.00896485 0)
(0.0263032 -0.00888449 0)
(0.020519 -0.00882063 0)
(0.0146447 -0.00886156 0)
(0.00875044 -0.00886528 0)
(0.00288489 -0.00895709 0)
(-0.00295522 -0.0089826 0)
(-0.00882056 -0.00888887 0)
(-0.0147133 -0.00889046 0)
(-0.0205875 -0.00884336 0)
(-0.0263733 -0.00891115 0)
(-0.03197 -0.008987 0)
(-0.0372327 -0.00935625 0)
(-0.0419818 -0.0100103 0)
(-0.0459059 -0.011687 0)
(-0.0479707 -0.0136055 0)
(-0.0483351 -0.0151348 0)
(-0.0461579 -0.0155417 0)
(-0.0410624 -0.0172918 0)
(-0.030366 -0.0244861 0)
(-0.0223588 -0.0436324 0)
(0.0260497 -0.0435042 0)
(0.0386416 -0.0243226 0)
(0.053179 -0.00681886 0)
(0.0609762 0.00690433 0)
(0.061872 0.0156657 0)
(0.0586071 0.0209855 0)
(0.0534341 0.0248479 0)
(0.0474007 0.0278684 0)
(0.0410486 0.0301629 0)
(0.0345994 0.0316714 0)
(0.0281445 0.0326007 0)
(0.0217414 0.0331077 0)
(0.0154185 0.0333926 0)
(0.00917645 0.0335031 0)
(0.00300577 0.0335481 0)
(-0.00311521 0.0335306 0)
(-0.00927153 0.0334847 0)
(-0.0155027 0.0333674 0)
(-0.0218189 0.0330909 0)
(-0.0282208 0.0325814 0)
(-0.0346786 0.0316634 0)
(-0.0411347 0.030151 0)
(-0.0474962 0.0278673 0)
(-0.0535378 0.02484 0)
(-0.0587127 0.020978 0)
(-0.061963 0.0156249 0)
(-0.0610233 0.0068418 0)
(-0.0531674 -0.00687873 0)
(-0.0385816 -0.0243212 0)
(-0.0259947 -0.0434625 0)
(0.0267891 -0.040403 0)
(0.0402942 -0.0155657 0)
(0.0554032 0.00619177 0)
(0.0661106 0.0247375 0)
(0.0695537 0.0385058 0)
(0.066388 0.0467361 0)
(0.059459 0.0513329 0)
(0.0513143 0.0542349 0)
(0.0432402 0.0561919 0)
(0.0356386 0.0574542 0)
(0.0285243 0.058164 0)
(0.0217978 0.0585071 0)
(0.0153565 0.0586407 0)
(0.00911252 0.0586746 0)
(0.00298518 0.0586646 0)
(-0.00309968 0.0586567 0)
(-0.00921196 0.0586648 0)
(-0.0154428 0.0586362 0)
(-0.0218751 0.0585062 0)
(-0.0285966 0.0581743 0)
(-0.0357123 0.0574722 0)
(-0.043322 0.0562266 0)
(-0.0514145 0.0542802 0)
(-0.0595872 0.0513861 0)
(-0.0665453 0.046765 0)
(-0.0697134 0.0384761 0)
(-0.066226 0.0246355 0)
(-0.0554525 0.00606709 0)
(-0.0402639 -0.0156268 0)
(-0.0267187 -0.0403614 0)
(0.0263411 -0.0304592 0)
(0.0401767 0.000426185 0)
(0.054645 0.0266188 0)
(0.0658372 0.04934 0)
(0.0711812 0.0673959 0)
(0.069593 0.0787184 0)
(0.0628257 0.0841084 0)
(0.0537498 0.0861966 0)
(0.0444836 0.0869508 0)
(0.0359596 0.087211 0)
(0.0283189 0.0872301 0)
(0.0213901 0.0871139 0)
(0.0149615 0.0869521 0)
(0.00885019 0.0868081 0)
(0.0029032 0.0867162 0)
(-0.00299634 0.0867117 0)
(-0.00893943 0.0868079 0)
(-0.0150418 0.0869551 0)
(-0.0214607 0.0871236 0)
(-0.0283819 0.0872498 0)
(-0.0360197 0.0872463 0)
(-0.0445521 0.0870071 0)
(-0.0538476 0.0862788 0)
(-0.0629773 0.0842079 0)
(-0.0698106 0.0787988 0)
(-0.0714491 0.0674035 0)
(-0.0661164 0.0492199 0)
(-0.0548938 0.0264019 0)
(-0.0403019 0.000223913 0)
(-0.0263519 -0.0304696 0)
(0.0264975 -0.0216857 0)
(0.0411494 0.0156785 0)
(0.0535605 0.0473769 0)
(0.0631021 0.0750389 0)
(0.0680975 0.0976437 0)
(0.0674068 0.112299 0)
(0.0616644 0.11929 0)
(0.0530579 0.121325 0)
(0.0438148 0.121162 0)
(0.0351684 0.120382 0)
(0.0274638 0.119572 0)
(0.0205969 0.118884 0)
(0.0143356 0.118355 0)
(0.00845863 0.11799 0)
(0.00277865 0.117798 0)
(-0.00285009 0.117794 0)
(-0.00853408 0.117988 0)
(-0.0144068 0.118353 0)
(-0.0206584 0.118886 0)
(-0.0275139 0.119583 0)
(-0.0352094 0.120413 0)
(-0.0438586 0.121222 0)
(-0.053131 0.121429 0)
(-0.0618077 0.119438 0)
(-0.0676559 0.112458 0)
(-0.0684636 0.0977496 0)
(-0.0635761 0.0749824 0)
(-0.0541255 0.0470928 0)
(-0.0416319 0.0152457 0)
(-0.0267618 -0.0218827 0)
(0.0272368 -0.0157 0)
(0.0427121 0.0291221 0)
(0.0525464 0.0670097 0)
(0.0589544 0.100019 0)
(0.0622072 0.12709 0)
(0.0613616 0.145078 0)
(0.056691 0.153981 0)
(0.0493603 0.156586 0)
(0.0411144 0.156108 0)
(0.033135 0.154676 0)
(0.0258976 0.153223 0)
(0.0194065 0.15204 0)
(0.0134901 0.151171 0)
(0.00795121 0.150598 0)
(0.00261123 0.150308 0)
(-0.00267571 0.150302 0)
(-0.00801976 0.150586 0)
(-0.0135541 0.151155 0)
(-0.0194586 0.152024 0)
(-0.0259315 0.153214 0)
(-0.0331478 0.154686 0)
(-0.0411109 0.156155 0)
(-0.04936 0.156693 0)
(-0.0567399 0.154165 0)
(-0.0615241 0.145316 0)
(-0.0625493 0.127317 0)
(-0.0594937 0.10013 0)
(-0.0533138 0.0668036 0)
(-0.0435593 0.0284723 0)
(-0.0278735 -0.0162002 0)
(0.0271061 -0.0130927 0)
(0.0433572 0.0400778 0)
(0.0509 0.0851658 0)
(0.053697 0.123874 0)
(0.0538595 0.155261 0)
(0.0521101 0.175943 0)
(0.0485608 0.186538 0)
(0.0431507 0.189977 0)
(0.0366362 0.189584 0)
(0.0299863 0.187844 0)
(0.0236664 0.185981 0)
(0.0178339 0.18443 0)
(0.0124323 0.183286 0)
(0.00733462 0.182538 0)
(0.00240548 0.182164 0)
(-0.00247435 0.182156 0)
(-0.00740378 0.182516 0)
(-0.0124935 0.183255 0)
(-0.0178784 0.184392 0)
(-0.0236834 0.185945 0)
(-0.029963 0.18782 0)
(-0.0365583 0.189594 0)
(-0.043026 0.190056 0)
(-0.0484015 0.186727 0)
(-0.0519865 0.176279 0)
(-0.0538992 0.155735 0)
(-0.0540809 0.124313 0)
(-0.0516684 0.0851387 0)
(-0.0442565 0.0393307 0)
(-0.0279476 -0.0140477 0)
(0.025601 -0.0141889 0)
(0.0412472 0.0485519 0)
(0.0475222 0.101075 0)
(0.047015 0.146325 0)
(0.0436804 0.181712 0)
(0.0408516 0.204363 0)
(0.0384749 0.216268 0)
(0.0351855 0.220608 0)
(0.0309224 0.220687 0)
(0.0259356 0.218945 0)
(0.0208667 0.216908 0)
(0.0159191 0.215134 0)
(0.0111797 0.213798 0)
(0.00661915 0.212918 0)
(0.00216864 0.212476 0)
(-0.00224629 0.212466 0)
(-0.00669393 0.212891 0)
(-0.0112436 0.213755 0)
(-0.0159626 0.215077 0)
(-0.0208748 0.21684 0)
(-0.0258845 0.218876 0)
(-0.0307957 0.220636 0)
(-0.0349142 0.2206 0)
(-0.0380726 0.216387 0)
(-0.0403131 0.204698 0)
(-0.0431297 0.182345 0)
(-0.0468794 0.147211 0)
(-0.0478328 0.101428 0)
(-0.0416942 0.0478958 0)
(-0.0261315 -0.0157394 0)
(0.0214143 -0.0184153 0)
(0.0351068 0.0546147 0)
(0.0406509 0.11555 0)
(0.0384696 0.166641 0)
(0.0324278 0.205503 0)
(0.0291872 0.229684 0)
(0.0280495 0.242685 0)
(0.0266908 0.247939 0)
(0.0246684 0.248848 0)
(0.0214578 0.247488 0)
(0.0177185 0.245532 0)
(0.0137749 0.243716 0)
(0.00978895 0.242296 0)
(0.00583197 0.241349 0)
(0.0019095 0.240879 0)
(-0.00199753 0.24087 0)
(-0.00591608 0.241316 0)
(-0.00986242 0.242244 0)
(-0.0138275 0.243639 0)
(-0.0177332 0.24543 0)
(-0.0214139 0.247363 0)
(-0.0244992 0.248697 0)
(-0.026369 0.247786 0)
(-0.0274755 0.242618 0)
(-0.028264 0.229826 0)
(-0.0311061 0.206076 0)
(-0.0372978 0.167652 0)
(-0.039769 0.116791 0)
(-0.0346492 0.054156 0)
(-0.0212535 -0.0201593 0)
(0.0135123 -0.0226275 0)
(0.0248278 0.0588927 0)
(0.0304124 0.127368 0)
(0.0280581 0.184537 0)
(0.0214864 0.225952 0)
(0.0187322 0.251419 0)
(0.0186596 0.265562 0)
(0.0189601 0.272011 0)
(0.0184334 0.27376 0)
(0.016928 0.273138 0)
(0.0144707 0.271486 0)
(0.0115332 0.269795 0)
(0.00832929 0.268405 0)
(0.00500625 0.267444 0)
(0.00163855 0.266948 0)
(-0.0017387 0.266935 0)
(-0.00510353 0.267409 0)
(-0.00841871 0.268343 0)
(-0.0116072 0.269702 0)
(-0.0145155 0.271351 0)
(-0.0169133 0.27295 0)
(-0.0183198 0.273498 0)
(-0.0186861 0.271693 0)
(-0.0181104 0.265217 0)
(-0.0177383 0.251174 0)
(-0.0199177 0.226091 0)
(-0.0259645 0.185445 0)
(-0.028733 0.127857 0)
(-0.0229516 0.0589555 0)
(-0.0126765 -0.0239591 0)
(0.00517419 -0.0240289 0)
(0.0139501 0.0624255 0)
(0.0208456 0.137493 0)
(0.0183214 0.199987 0)
(0.0131352 0.24283 0)
(0.0107924 0.269589 0)
(0.0112111 0.285041 0)
(0.0123964 0.292772 0)
(0.0130342 0.295582 0)
(0.0126612 0.295705 0)
(0.0113451 0.294586 0)
(0.00931571 0.293154 0)
(0.00686632 0.291887 0)
(0.00417398 0.290979 0)
(0.00136472 0.290495 0)
(-0.00147795 0.290485 0)
(-0.00428677 0.290942 0)
(-0.00697736 0.291823 0)
(-0.00942135 0.29305 0)
(-0.0114394 0.294431 0)
(-0.0127255 0.295465 0)
(-0.0130365 0.295245 0)
(-0.01229 0.292295 0)
(-0.0108947 0.284416 0)
(-0.010086 0.268885 0)
(-0.0118015 0.242371 0)
(-0.0161177 0.200568 0)
(-0.0182973 0.139077 0)
(-0.0115081 0.0632002 0)
(-0.00365347 -0.0240412 0)
(0.000955078 -0.0228112 0)
(0.00914105 0.0632726 0)
(0.0136179 0.147383 0)
(0.012045 0.212459 0)
(0.00820078 0.256594 0)
(0.00585455 0.284698 0)
(0.0060296 0.301486 0)
(0.00738167 0.310468 0)
(0.00858768 0.314381 0)
(0.00898662 0.315325 0)
(0.00848917 0.314803 0)
(0.00723493 0.313735 0)
(0.00546083 0.312666 0)
(0.00336446 0.311865 0)
(0.00109756 0.311452 0)
(-0.00122296 0.311442 0)
(-0.00349296 0.311833 0)
(-0.00559502 0.312604 0)
(-0.00737877 0.313634 0)
(-0.00864404 0.314643 0)
(-0.00915428 0.315072 0)
(-0.00875794 0.313995 0)
(-0.00753676 0.309887 0)
(-0.00610581 0.300649 0)
(-0.00570243 0.283585 0)
(-0.00751021 0.255526 0)
(-0.0103157 0.21242 0)
(-0.0104602 0.14903 0)
(-0.00714705 0.0639591 0)
(0.000785973 -0.0206993 0)
(0.00163583 -0.0252551 0)
(0.00891043 0.0654581 0)
(0.0113175 0.154607 0)
(0.00970792 0.222495 0)
(0.0063784 0.268171 0)
(0.00361627 0.297482 0)
(0.00299058 0.315434 0)
(0.003933 0.325516 0)
(0.00519986 0.330427 0)
(0.00598645 0.332196 0)
(0.00602908 0.332275 0)
(0.00537077 0.331624 0)
(0.00416535 0.330806 0)
(0.00260526 0.33014 0)
(0.000845037 0.329784 0)
(-0.00097889 0.329776 0)
(-0.00274518 0.330114 0)
(-0.00432017 0.330758 0)
(-0.00555096 0.331542 0)
(-0.00624898 0.332139 0)
(-0.00626577 0.331972 0)
(-0.00556032 0.330063 0)
(-0.00439554 0.324928 0)
(-0.00355862 0.314514 0)
(-0.00416634 0.296098 0)
(-0.00657141 0.266323 0)
(-0.00869447 0.221058 0)
(-0.00818036 0.155674 0)
(-0.00423631 0.0695861 0)
(0.00222122 -0.0244541 0)
(0.0079162 -0.0339373 0)
(0.0108007 0.0666215 0)
(0.0115554 0.160293 0)
(0.00988773 0.230929 0)
(0.00651835 0.278532 0)
(0.00319061 0.30877 0)
(0.00167843 0.327443 0)
(0.00189388 0.338328 0)
(0.00284714 0.344059 0)
(0.0036912 0.346564 0)
(0.00402336 0.34723 0)
(0.0037722 0.347 0)
(0.00302473 0.346463 0)
(0.00192321 0.34596 0)
(0.000618608 0.345673 0)
(-0.00075342 0.345669 0)
(-0.00206781 0.345947 0)
(-0.00319138 0.346437 0)
(-0.00397959 0.346953 0)
(-0.00429662 0.347145 0)
(-0.00406951 0.346414 0)
(-0.00338547 0.343791 0)
(-0.00267 0.337852 0)
(-0.00278253 0.326589 0)
(-0.00466665 0.307263 0)
(-0.00792086 0.276194 0)
(-0.0104413 0.228114 0)
(-0.0106832 0.159327 0)
(-0.00568197 0.0716046 0)
(-0.0018706 -0.0308273 0)
(0.0104842 -0.0415215 0)
(0.0104792 0.0656418 0)
(0.00997086 0.164949 0)
(0.00945512 0.239526 0)
(0.00665898 0.288772 0)
(0.00349213 0.319145 0)
(0.00145585 0.338018 0)
(0.000981403 0.349328 0)
(0.00143239 0.355638 0)
(0.00209187 0.358742 0)
(0.00249866 0.359933 0)
(0.00248703 0.360109 0)
(0.00207062 0.359858 0)
(0.00134328 0.359533 0)
(0.000427018 0.359328 0)
(-0.000554148 0.359329 0)
(-0.00148203 0.359535 0)
(-0.00223612 0.359861 0)
(-0.00270126 0.36011 0)
(-0.00279704 0.359927 0)
(-0.00252807 0.358714 0)
(-0.00209777 0.355555 0)
(-0.00202637 0.349113 0)
(-0.00312774 0.337481 0)
(-0.00612395 0.317856 0)
(-0.0105418 0.285767 0)
(-0.013959 0.235071 0)
(-0.0153779 0.162219 0)
(-0.015215 0.0695481 0)
(-0.00794511 -0.0317001 0)
(0.00360188 -0.0462494 0)
(0.0071672 0.0630544 0)
(0.00785121 0.16861 0)
(0.0075874 0.247578 0)
(0.00603336 0.297696 0)
(0.00363551 0.328666 0)
(0.00174351 0.347509 0)
(0.000844294 0.35894 0)
(0.000798539 0.36558 0)
(0.00113766 0.369113 0)
(0.00145622 0.37073 0)
(0.00153592 0.371266 0)
(0.00133087 0.371284 0)
(0.00088162 0.371135 0)
(0.000276292 0.371018 0)
(-0.000385567 0.371023 0)
(-0.00100186 0.371153 0)
(-0.00147573 0.371319 0)
(-0.00172936 0.371324 0)
(-0.00173278 0.370818 0)
(-0.00155876 0.369243 0)
(-0.00147138 0.365759 0)
(-0.00197521 0.359163 0)
(-0.00370439 0.347686 0)
(-0.00707845 0.328464 0)
(-0.0117021 0.296302 0)
(-0.0152266 0.242623 0)
(-0.0162955 0.16423 0)
(-0.0192784 0.0643436 0)
(-0.0175625 -0.037851 0)
(-0.00626038 -0.0454309 0)
(0.00107633 0.0664344 0)
(0.00550823 0.173848 0)
(0.00594301 0.254902 0)
(0.00505733 0.306595 0)
(0.00391859 0.337298 0)
(0.00232627 0.356127 0)
(0.00122257 0.367564 0)
(0.000758982 0.374339 0)
(0.000736516 0.378129 0)
(0.000860778 0.380051 0)
(0.000916168 0.380874 0)
(0.000812655 0.381122 0)
(0.000548196 0.381131 0)
(0.000169838 0.381094 0)
(-0.000250777 0.381105 0)
(-0.000636258 0.381164 0)
(-0.000917931 0.381185 0)
(-0.00105422 0.380981 0)
(-0.00105788 0.380228 0)
(-0.00103723 0.378417 0)
(-0.00124773 0.374803 0)
(-0.00206819 0.368307 0)
(-0.00385332 0.357273 0)
(-0.00667886 0.338756 0)
(-0.00994873 0.306897 0)
(-0.0128153 0.251401 0)
(-0.0141335 0.165958 0)
(-0.0151226 0.0602507 0)
(-0.0129211 -0.0470518 0)
(-0.0127732 -0.0420834 0)
(-0.00306464 0.0726666 0)
(0.00200565 0.183136 0)
(0.00436019 0.260602 0)
(0.00564696 0.312516 0)
(0.00478428 0.345016 0)
(0.00332505 0.3642 0)
(0.00197784 0.375618 0)
(0.00113821 0.382387 0)
(0.000756554 0.38627 0)
(0.000638605 0.388362 0)
(0.000590512 0.389379 0)
(0.000503182 0.389801 0)
(0.00033744 0.389935 0)
(0.000106034 0.389964 0)
(-0.000150937 0.389976 0)
(-0.000383654 0.389975 0)
(-0.000552143 0.389878 0)
(-0.000645477 0.389515 0)
(-0.000702308 0.388591 0)
(-0.000836203 0.386656 0)
(-0.00124399 0.383038 0)
(-0.00213308 0.376725 0)
(-0.00360025 0.366057 0)
(-0.00537981 0.34791 0)
(-0.00693942 0.316001 0)
(-0.00987014 0.260011 0)
(-0.0116106 0.169029 0)
(-0.00690419 0.0517413 0)
(0.000977254 -0.0462064 0)
(-0.00882143 -0.0348072 0)
(-0.00333853 0.0839594 0)
(0.00466488 0.187253 0)
(0.00763357 0.264705 0)
(0.00782407 0.318846 0)
(0.00654968 0.352598 0)
(0.00466316 0.372155 0)
(0.00296247 0.383503 0)
(0.00175648 0.39013 0)
(0.0010445 0.393956 0)
(0.000677761 0.396083 0)
(0.000491772 0.39719 0)
(0.000362763 0.397713 0)
(0.000230667 0.397931 0)
(7.74512e-05 0.398006 0)
(-8.42494e-05 0.398017 0)
(-0.000231488 0.397968 0)
(-0.000350687 0.397785 0)
(-0.000452629 0.397316 0)
(-0.000589185 0.396298 0)
(-0.000862797 0.394322 0)
(-0.00140559 0.390756 0)
(-0.00229882 0.384583 0)
(-0.0034677 0.374027 0)
(-0.00455845 0.355835 0)
(-0.00492072 0.3239 0)
(-0.00592243 0.268014 0)
(-0.00624637 0.178346 0)
(-0.00145095 0.0571387 0)
(0.0131506 -0.045295 0)
(-0.000408876 -0.0326005 0)
(0.0104707 0.0857555 0)
(0.0220533 0.183078 0)
(0.0175873 0.267734 0)
(0.0127553 0.326169 0)
(0.0097584 0.360774 0)
(0.00645404 0.380382 0)
(0.00408194 0.391506 0)
(0.00246218 0.397858 0)
(0.00144588 0.401482 0)
(0.000858003 0.403515 0)
(0.000531142 0.404609 0)
(0.00033676 0.405162 0)
(0.000196264 0.405418 0)
(7.20217e-05 0.405515 0)
(-4.66142e-05 0.405522 0)
(-0.000159224 0.405441 0)
(-0.000272967 0.405209 0)
(-0.000415674 0.404687 0)
(-0.000644763 0.403644 0)
(-0.00105257 0.401697 0)
(-0.00173245 0.398224 0)
(-0.00272491 0.392159 0)
(-0.00392378 0.381569 0)
(-0.00494761 0.362749 0)
(-0.00533878 0.329304 0)
(-0.00425609 0.274895 0)
(-0.000399998 0.192794 0)
(0.00397601 0.0718009 0)
(0.0182226 -0.0423719 0)
(0.0130481 -0.0247284 0)
(0.035616 0.0761041 0)
(0.0333498 0.178693 0)
(0.0271266 0.263921 0)
(0.0197054 0.331944 0)
(0.0134085 0.370458 0)
(0.00825361 0.389559 0)
(0.00506544 0.399962 0)
(0.00305272 0.405765 0)
(0.00180544 0.409018 0)
(0.00105541 0.410835 0)
(0.000621012 0.411824 0)
(0.000365684 0.412337 0)
(0.000201273 0.412584 0)
(7.71351e-05 0.412682 0)
(-3.19384e-05 0.412683 0)
(-0.000143155 0.412586 0)
(-0.000278482 0.412338 0)
(-0.000473293 0.411824 0)
(-0.000796251 0.410823 0)
(-0.00133673 0.408976 0)
(-0.00218602 0.405661 0)
(-0.0034204 0.39976 0)
(-0.00505239 0.389179 0)
(-0.00700976 0.37005 0)
(-0.0085643 0.336118 0)
(-0.0104956 0.278215 0)
(-0.00800894 0.194624 0)
(0.000825772 0.0848187 0)
(0.00964621 -0.036561 0)
(0.0248262 -0.0352557 0)
(0.0337095 0.0641579 0)
(0.0302373 0.175093 0)
(0.0254213 0.270138 0)
(0.019062 0.342532 0)
(0.0128358 0.381823 0)
(0.0083988 0.399665 0)
(0.00525199 0.408851 0)
(0.00323425 0.413836 0)
(0.00195466 0.41659 0)
(0.00116147 0.418105 0)
(0.000682607 0.418923 0)
(0.000393383 0.419348 0)
(0.000211902 0.419548 0)
(8.16969e-05 0.419625 0)
(-3.1025e-05 0.419621 0)
(-0.000151542 0.419533 0)
(-0.000311127 0.419312 0)
(-0.000560622 0.418848 0)
(-0.000966233 0.417951 0)
(-0.00162642 0.416283 0)
(-0.00266587 0.413232 0)
(-0.00427129 0.407656 0)
(-0.00674116 0.397435 0)
(-0.0106874 0.378571 0)
(-0.0153207 0.341378 0)
(-0.0250855 0.275642 0)
(-0.0313246 0.187306 0)
(-0.0262982 0.0806909 0)
(-0.00265654 -0.0338009 0)
(0.0121087 -0.0446671 0)
(0.0154155 0.0548614 0)
(0.0189785 0.169082 0)
(0.0230363 0.279286 0)
(0.0156286 0.353263 0)
(0.00949335 0.392629 0)
(0.00688614 0.409427 0)
(0.00451747 0.41758 0)
(0.00289748 0.421838 0)
(0.00181728 0.424104 0)
(0.00111378 0.425308 0)
(0.000669954 0.425937 0)
(0.000390941 0.426254 0)
(0.000209011 0.426402 0)
(7.97137e-05 0.426456 0)
(-3.35485e-05 0.426449 0)
(-0.000163292 0.426379 0)
(-0.000344835 0.426198 0)
(-0.000623022 0.42582 0)
(-0.00107169 0.42508 0)
(-0.00179477 0.42367 0)
(-0.00294402 0.42102 0)
(-0.00478426 0.416073 0)
(-0.00775283 0.406814 0)
(-0.0125825 0.388999 0)
(-0.019923 0.348044 0)
(-0.0265671 0.276075 0)
(-0.0335216 0.18217 0)
(-0.0384288 0.0719507 0)
(-0.0217732 -0.0280745 0)
(0.00338816 -0.0418956 0)
(0.00197018 0.0354978 0)
(0.0174018 0.171997 0)
(0.0196282 0.290943 0)
(0.0117366 0.364263 0)
(0.0064226 0.401982 0)
(0.00477148 0.418114 0)
(0.0033196 0.425715 0)
(0.00221968 0.42952 0)
(0.00144722 0.431435 0)
(0.000921885 0.432387 0)
(0.00057415 0.432852 0)
(0.000345355 0.433069 0)
(0.00018956 0.433164 0)
(7.24984e-05 0.433197 0)
(-3.50132e-05 0.433193 0)
(-0.000162171 0.433145 0)
(-0.000340482 0.433025 0)
(-0.0006123 0.432758 0)
(-0.0010427 0.432202 0)
(-0.00172362 0.431083 0)
(-0.00278637 0.428898 0)
(-0.00444049 0.424699 0)
(-0.00698508 0.416582 0)
(-0.0102969 0.399696 0)
(-0.0173494 0.358947 0)
(-0.0226316 0.283865 0)
(-0.0232493 0.176219 0)
(-0.0244934 0.0587519 0)
(-0.0177249 -0.0426319 0)
(-0.000793663 -0.0420565 0)
(0.0132267 0.0232157 0)
(0.0145952 0.183034 0)
(0.0141168 0.305912 0)
(0.00765809 0.375827 0)
(0.00416308 0.410249 0)
(0.00283383 0.425874 0)
(0.00208034 0.433206 0)
(0.00144564 0.436785 0)
(0.000979337 0.438505 0)
(0.000649645 0.439303 0)
(0.000422471 0.439657 0)
(0.000265833 0.439802 0)
(0.000153475 0.439855 0)
(6.3144e-05 0.439873 0)
(-2.58316e-05 0.439874 0)
(-0.000133895 0.439858 0)
(-0.000285558 0.439799 0)
(-0.00051223 0.439638 0)
(-0.000862116 0.439249 0)
(-0.00140263 0.438396 0)
(-0.00222223 0.436603 0)
(-0.00344059 0.432965 0)
(-0.00516576 0.42562 0)
(-0.00723245 0.409745 0)
(-0.0137077 0.370186 0)
(-0.0206997 0.294476 0)
(-0.0144626 0.169591 0)
(-0.00629278 0.0485279 0)
(-0.0035926 -0.0407664 0)
(-0.00688165 -0.0434952 0)
(0.00958897 0.0380197 0)
(0.00834038 0.205171 0)
(0.00660418 0.322978 0)
(0.00351684 0.387139 0)
(0.0021727 0.417953 0)
(0.00133202 0.432966 0)
(0.00100722 0.440182 0)
(0.000746087 0.443674 0)
(0.000530706 0.445316 0)
(0.000374184 0.446047 0)
(0.000260169 0.446343 0)
(0.000178044 0.446448 0)
(0.000114865 0.44648 0)
(5.81562e-05 0.446492 0)
(-3.23103e-06 0.446502 0)
(-7.95517e-05 0.446511 0)
(-0.000185598 0.446501 0)
(-0.00034113 0.446418 0)
(-0.000575698 0.446153 0)
(-0.000929541 0.44548 0)
(-0.00145126 0.443946 0)
(-0.00218458 0.440648 0)
(-0.00319004 0.433762 0)
(-0.00484097 0.418474 0)
(-0.00946684 0.382134 0)
(-0.0163709 0.308114 0)
(-0.0151337 0.176772 0)
(-0.00552288 0.0257632 0)
(-0.000305628 -0.0372697 0)
(-0.00677029 -0.0525542 0)
(0.0133913 0.0683474 0)
(0.00247118 0.232553 0)
(0.00102474 0.338265 0)
(0.000683182 0.396269 0)
(0.000629226 0.425113 0)
(0.000334495 0.439619 0)
(0.000235712 0.446801 0)
(0.000210728 0.45028 0)
(0.000178274 0.451908 0)
(0.000150525 0.452628 0)
(0.000126878 0.45291 0)
(0.000106977 0.453007 0)
(8.76595e-05 0.453034 0)
(6.35919e-05 0.45305 0)
(2.98999e-05 0.453069 0)
(-1.14082e-05 0.453096 0)
(-6.64963e-05 0.453115 0)
(-0.00014569 0.453082 0)
(-0.00026162 0.452887 0)
(-0.000428847 0.452307 0)
(-0.000662317 0.450894 0)
(-0.000962115 0.447758 0)
(-0.00144509 0.441083 0)
(-0.00248168 0.426591 0)
(-0.00465713 0.394426 0)
(-0.00996398 0.324804 0)
(-0.0121399 0.194094 0)
(-0.0145359 0.023138 0)
(0.00264377 -0.0379377 0)
(0.0168271 -0.0649168 0)
(0.0194203 0.0719013 0)
(0.00397531 0.239857 0)
(0.00135907 0.347311 0)
(0.000210378 0.403716 0)
(-1.36329e-05 0.431868 0)
(-0.000132103 0.446086 0)
(-0.000168882 0.45323 0)
(-0.000108947 0.45672 0)
(-4.10208e-05 0.458361 0)
(1.0806e-05 0.45909 0)
(4.66893e-05 0.459384 0)
(6.91099e-05 0.459489 0)
(8.04326e-05 0.459525 0)
(8.0392e-05 0.459547 0)
(6.89878e-05 0.459575 0)
(5.69404e-05 0.459611 0)
(4.67246e-05 0.459643 0)
(3.64159e-05 0.459624 0)
(2.58567e-05 0.45945 0)
(1.53962e-05 0.458896 0)
(1.01229e-05 0.457518 0)
(1.26732e-05 0.454427 0)
(-7.21455e-05 0.447842 0)
(-0.000307067 0.434047 0)
(-0.000509008 0.405033 0)
(-0.00237556 0.343043 0)
(-0.00486991 0.223392 0)
(-0.0125556 0.0462186 0)
(0.00596567 -0.0382215 0)
(0.0218265 -0.0805241 0)
(0.0164465 0.0709931 0)
(0.00608947 0.243944 0)
(0.00274974 0.354985 0)
(0.000817065 0.410742 0)
(0.000114055 0.438585 0)
(-0.000167208 0.45257 0)
(-0.000250532 0.459605 0)
(-0.000210615 0.463078 0)
(-0.00011769 0.464728 0)
(-3.5527e-05 0.465471 0)
(2.77579e-05 0.465783 0)
(6.94529e-05 0.465906 0)
(9.50563e-05 0.465952 0)
(0.000107942 0.465983 0)
(0.000109867 0.466015 0)
(0.000117181 0.466052 0)
(0.000138209 0.466082 0)
(0.000177169 0.466056 0)
(0.000240129 0.46587 0)
(0.000335827 0.465302 0)
(0.000479277 0.463899 0)
(0.000640159 0.460785 0)
(0.000819468 0.45422 0)
(0.00112461 0.440795 0)
(0.00181703 0.413278 0)
(0.00174218 0.356587 0)
(0.000430591 0.247506 0)
(-0.0132954 0.0722516 0)
(-0.000569306 -0.0452367 0)
(0.00552644 -0.0865041 0)
(0.00895958 0.0661443 0)
(0.00754212 0.24895 0)
(0.00342492 0.362274 0)
(0.00128311 0.418216 0)
(0.000353274 0.445511 0)
(-2.38906e-05 0.459183 0)
(-0.000149993 0.46603 0)
(-0.00014485 0.469428 0)
(-7.28458e-05 0.471061 0)
(3.23461e-06 0.471811 0)
(6.51801e-05 0.472139 0)
(0.000106379 0.472275 0)
(0.0001315 0.472333 0)
(0.000144193 0.472369 0)
(0.000148561 0.472401 0)
(0.000161776 0.472432 0)
(0.00019569 0.47245 0)
(0.000256845 0.472406 0)
(0.0003544 0.472195 0)
(0.000497133 0.471591 0)
(0.000692707 0.470144 0)
(0.000895793 0.466985 0)
(0.00115487 0.460424 0)
(0.00150242 0.44703 0)
(0.00175666 0.42 0)
(0.00148517 0.36523 0)
(-0.000878229 0.257946 0)
(-0.0131389 0.0794427 0)
(-0.0132985 -0.0600789 0)
(-0.00563644 -0.0836321 0)
(0.00545935 0.0625772 0)
(0.00734952 0.256233 0)
(0.00347857 0.370423 0)
(0.00134042 0.425808 0)
(0.000450618 0.452623 0)
(0.000116492 0.465913 0)
(1.02455e-05 0.472539 0)
(7.97431e-06 0.475822 0)
(5.47679e-05 0.477414 0)
(0.000108897 0.478157 0)
(0.000151191 0.47849 0)
(0.000175092 0.478633 0)
(0.000184725 0.478698 0)
(0.000184245 0.478738 0)
(0.000178857 0.478766 0)
(0.000184188 0.478788 0)
(0.000211781 0.47879 0)
(0.000269109 0.478722 0)
(0.000363531 0.478478 0)
(0.000499256 0.477837 0)
(0.000666494 0.476356 0)
(0.000830871 0.473195 0)
(0.00100204 0.466666 0)
(0.00111684 0.453367 0)
(0.000974003 0.426634 0)
(-1.6843e-05 0.372646 0)
(-0.00274128 0.265128 0)
(-0.00965772 0.0858401 0)
(-0.0110408 -0.0721424 0)
(-0.0145038 -0.0815045 0)
(0.00358267 0.0697085 0)
(0.005109 0.265971 0)
(0.00197418 0.378169 0)
(0.000744194 0.433284 0)
(0.000313414 0.459654 0)
(0.000228117 0.472629 0)
(0.000215446 0.479082 0)
(0.000227207 0.482264 0)
(0.000247804 0.483809 0)
(0.0002676 0.484537 0)
(0.000275165 0.484867 0)
(0.000268077 0.485014 0)
(0.00024956 0.485083 0)
(0.000223647 0.485121 0)
(0.000197471 0.485145 0)
(0.000181585 0.485155 0)
(0.000185889 0.485138 0)
(0.000217423 0.485046 0)
(0.000281409 0.484777 0)
(0.000375917 0.484117 0)
(0.000481013 0.482635 0)
(0.000575383 0.47952 0)
(0.000630828 0.473076 0)
(0.000541339 0.460032 0)
(2.96402e-05 0.43374 0)
(-0.001365 0.380147 0)
(-0.00385607 0.272545 0)
(-0.00517094 0.0914667 0)
(-0.00331498 -0.0771621 0)
(-0.018012 -0.0748819 0)
(0.00101737 0.0892785 0)
(0.000973768 0.278549 0)
(0.000148104 0.387279 0)
(-4.0816e-05 0.440233 0)
(0.000232756 0.466333 0)
(0.000414541 0.479216 0)
(0.000506153 0.485612 0)
(0.000515662 0.488745 0)
(0.000495965 0.490259 0)
(0.000466356 0.490969 0)
(0.000426561 0.491293 0)
(0.000377796 0.491438 0)
(0.000320302 0.491506 0)
(0.00025921 0.491539 0)
(0.000203038 0.491556 0)
(0.000154949 0.491552 0)
(0.000123944 0.491519 0)
(0.000117451 0.491413 0)
(0.000136267 0.491135 0)
(0.000173951 0.49048 0)
(0.000208928 0.489036 0)
(0.000225493 0.486008 0)
(0.000180757 0.479722 0)
(-4.83274e-05 0.466978 0)
(-0.000597253 0.441041 0)
(-0.00189293 0.387682 0)
(-0.00393334 0.280659 0)
(-0.00376733 0.098466 0)
(0.00364059 -0.0774065 0)
(-0.0107252 -0.0633937 0)
(-0.00353595 0.117274 0)
(-0.00617909 0.29591 0)
(-0.00294742 0.39468 0)
(-0.000182074 0.446426 0)
(0.000725805 0.472637 0)
(0.000963749 0.485719 0)
(0.000983741 0.492172 0)
(0.000904723 0.495298 0)
(0.000799757 0.496785 0)
(0.000696544 0.497473 0)
(0.00059474 0.497781 0)
(0.000494817 0.497916 0)
(0.000391664 0.497975 0)
(0.000288769 0.498 0)
(0.000195826 0.498007 0)
(0.000108956 0.497996 0)
(3.58889e-05 0.497956 0)
(-1.78991e-05 0.497844 0)
(-5.40963e-05 0.497567 0)
(-8.15441e-05 0.496931 0)
(-0.000121178 0.495541 0)
(-0.000183679 0.492607 0)
(-0.000308613 0.486491 0)
(-0.000568757 0.473988 0)
(-0.00103071 0.448357 0)
(-0.00184987 0.39542 0)
(-0.00347277 0.289048 0)
(-0.00399886 0.106729 0)
(0.00548448 -0.0755149 0)
(-0.00352773 -0.0544475 0)
(-0.00525086 0.136533 0)
(-0.0066412 0.30557 0)
(0.00119663 0.397455 0)
(0.00154994 0.451538 0)
(0.00232871 0.478914 0)
(0.00206561 0.492398 0)
(0.00170883 0.498896 0)
(0.00139702 0.501979 0)
(0.00114599 0.503413 0)
(0.000943008 0.504059 0)
(0.000767477 0.504338 0)
(0.000608835 0.504453 0)
(0.000456649 0.504497 0)
(0.000310668 0.504511 0)
(0.000177503 0.504508 0)
(4.97589e-05 0.504494 0)
(-6.93862e-05 0.504449 0)
(-0.00017477 0.504336 0)
(-0.000270133 0.504069 0)
(-0.000365382 0.503463 0)
(-0.000484013 0.502137 0)
(-0.000634142 0.499298 0)
(-0.000851998 0.493339 0)
(-0.00119308 0.481031 0)
(-0.00172619 0.455581 0)
(-0.00236787 0.402916 0)
(-0.00283837 0.298175 0)
(-0.00465169 0.116487 0)
(0.00213919 -0.0725243 0)
(0.00329714 -0.049344 0)
(0.0090035 0.139502 0)
(0.0225696 0.294553 0)
(0.0166591 0.393552 0)
(0.00984226 0.454329 0)
(0.00509134 0.486544 0)
(0.00361351 0.499723 0)
(0.00256172 0.505961 0)
(0.00191787 0.508861 0)
(0.00148911 0.510171 0)
(0.00117774 0.510733 0)
(0.000927898 0.510963 0)
(0.000710362 0.511048 0)
(0.000510106 0.511074 0)
(0.000323379 0.511073 0)
(0.000149729 0.511063 0)
(-1.90643e-05 0.511045 0)
(-0.000183704 0.510997 0)
(-0.000341585 0.510891 0)
(-0.000496686 0.510644 0)
(-0.000662243 0.510079 0)
(-0.000862968 0.508824 0)
(-0.00111489 0.506098 0)
(-0.00146634 0.500304 0)
(-0.00199045 0.488191 0)
(-0.0027475 0.462875 0)
(-0.00356585 0.409942 0)
(-0.00416585 0.304246 0)
(-0.00610136 0.122649 0)
(-0.00220193 -0.0701176 0)
(0.0156502 -0.0379143 0)
(0.034846 0.14225 0)
(0.0299102 0.284804 0)
(0.0236998 0.387162 0)
(0.0157641 0.453636 0)
(0.00972935 0.492148 0)
(0.00468923 0.507801 0)
(0.00319441 0.513419 0)
(0.00230902 0.515941 0)
(0.00175547 0.517039 0)
(0.00136463 0.517493 0)
(0.00105612 0.517653 0)
(0.000790882 0.517699 0)
(0.000549729 0.517703 0)
(0.000325672 0.517684 0)
(0.0001136 0.517667 0)
(-9.39973e-05 0.517647 0)
(-0.000301226 0.517602 0)
(-0.000507796 0.517508 0)
(-0.000719067 0.517289 0)
(-0.00095237 0.516778 0)
(-0.00123236 0.515614 0)
(-0.0015953 0.513025 0)
(-0.00211996 0.507439 0)
(-0.00293917 0.495591 0)
(-0.00422213 0.470531 0)
(-0.005967 0.417397 0)
(-0.00905506 0.307843 0)
(-0.0129052 0.121857 0)
(-0.00591758 -0.0689189 0)
(0.0119782 -0.0253297 0)
(0.0231382 0.132971 0)
(0.0197384 0.278524 0)
(0.017429 0.391849 0)
(0.0147747 0.461392 0)
(0.00794399 0.502488 0)
(0.00451283 0.516161 0)
(0.003273 0.521008 0)
(0.00245067 0.52311 0)
(0.00188866 0.523982 0)
(0.00147374 0.524306 0)
(0.00113759 0.524395 0)
(0.000843147 0.524398 0)
(0.000572174 0.524374 0)
(0.000316775 0.524342 0)
(7.10863e-05 0.524318 0)
(-0.000171057 0.524296 0)
(-0.000414795 0.524259 0)
(-0.000662885 0.524183 0)
(-0.000921437 0.524 0)
(-0.00121037 0.523554 0)
(-0.00155851 0.522499 0)
(-0.0020214 0.520082 0)
(-0.00270795 0.514767 0)
(-0.00380261 0.503314 0)
(-0.00572094 0.478696 0)
(-0.00828114 0.422759 0)
(-0.014013 0.306681 0)
(-0.0195634 0.119624 0)
(-0.0107645 -0.0668884 0)
(-0.00343523 -0.00527294 0)
(0.000567137 0.122146 0)
(0.00514024 0.277015 0)
(0.007595 0.399397 0)
(0.0126331 0.474826 0)
(0.00461474 0.512512 0)
(0.0037655 0.524062 0)
(0.00296831 0.528435 0)
(0.00236332 0.530252 0)
(0.0018909 0.530941 0)
(0.00150226 0.531144 0)
(0.00116715 0.531166 0)
(0.000862399 0.531127 0)
(0.000574318 0.531079 0)
(0.000296961 0.531035 0)
(2.54115e-05 0.531006 0)
(-0.000243746 0.530986 0)