/*--------------------------------*- C++ -*----------------------------------*\
| =========                 |                                                 |
| \\      /  F ield         | OpenFOAM: The Open Source CFD Toolbox           |
|  \\    /   O peration     | Version:  2.3.0                                 |
|   \\  /    A nd           | Web:      www.OpenFOAM.org                      |
|    \\/     M anipulation  |                                                 |
\*---------------------------------------------------------------------------*/
FoamFile
{
    version     2.0;
    format      ascii;
    class       volScalarField;
    location    "0.600139";
    object      k.water;
}
// * * * * * * * * * * * * * * * * * * * * * * * * * * * * * * * * * * * * * //

dimensions      [0 2 -2 0 0 0 0];

internalField   nonuniform List<scalar> 
18816
(
0.00113862
0.004998
0.018069
0.0238866
0.0270862
0.0281743
0.0266519
0.0191968
0.00780721
0.00808891
0.00928677
0.00916676
0.0255451
0.0325512
0.0253802
0.00924788
0.0115657
0.0264096
0.0424658
0.0483686
0.0400992
0.0275056
0.0184206
0.0119573
0.00540046
0.00459506
0.00337989
0.0013842
0.000428964
0.0237381
0.0480373
0.0460892
0.0411543
0.0387821
0.0305117
0.0168222
0.0105521
0.0134097
0.0242033
0.017845
0.0168104
0.00672035
0.00356935
0.00186383
0.00215631
0.00905362
0.0270599
0.0362536
0.0283422
0.0149786
0.0113727
0.00877483
0.00534437
0.0031666
0.00220877
0.000896532
0.000399264
0.00598182
0.0230741
0.0453297
0.0434581
0.027316
0.00720848
0.00392328
0.00491713
0.00919629
0.0123175
0.0109983
0.00329642
0.00246255
0.00559051
0.00292486
0.00210551
0.00253607
0.00482715
0.00706431
0.00730592
0.00780205
0.00949684
0.0107252
0.00895988
0.00436418
0.00232917
0.000751518
0.000177407
0.00583705
0.00866351
0.0286208
0.0318942
0.00741062
0.00200386
0.00217905
0.00297509
0.00355082
0.00408841
0.00421835
0.00364044
0.00326138
0.0040857
0.00302512
0.00213702
0.00211485
0.00205515
0.00201589
0.00202293
0.00241624
0.00349031
0.0049265
0.00474436
0.00338986
0.0025544
6.00045e-05
0.000255447
0.00597321
0.00651708
0.00837115
0.00731357
0.00139613
0.0019528
0.00207974
0.00272668
0.00284591
0.00260024
0.00203179
0.00171389
0.00164031
0.00179178
0.00195397
0.00221005
0.00262989
0.00254192
0.00218443
0.00151602
0.00144003
0.00132598
0.00164593
0.00254539
0.00298514
0.00429661
0.00036092
0.000368479
0.00406736
0.00571781
0.0048293
0.00251772
0.0014032
0.00230594
0.00240381
0.0034529
0.00341899
0.00280814
0.00186158
0.0014717
0.00123145
0.00140184
0.00170078
0.00230483
0.00316013
0.00343895
0.00310498
0.00204969
0.00200818
0.00152504
0.00113664
0.00318763
0.00453077
0.00500199
0.000307687
0.000628781
0.00222809
0.00376153
0.00323095
0.0015035
0.00165732
0.00230439
0.00283048
0.00407108
0.00374748
0.00295191
0.0020043
0.00161281
0.00128372
0.00142507
0.00160452
0.00227894
0.0032574
0.00376511
0.00381002
0.00252409
0.00215116
0.00177151
0.00103585
0.00342316
0.00470781
0.00343299
0.000410379
0.000870743
0.00182656
0.00267195
0.00216042
0.00120244
0.00192669
0.0026159
0.00330574
0.00428893
0.00368457
0.00270346
0.00176502
0.00155178
0.00124589
0.00137737
0.00142229
0.001991
0.00292756
0.00371942
0.00413379
0.00295585
0.00240025
0.00188521
0.00119744
0.0026121
0.00342462
0.00185849
0.000747016
0.00101507
0.00166831
0.00238415
0.00185285
0.00152186
0.00227199
0.00298138
0.00388106
0.00420206
0.00344225
0.002471
0.00166501
0.00163718
0.00137147
0.00157594
0.00140757
0.00181218
0.00252116
0.00343854
0.00406753
0.00344732
0.00276608
0.00220203
0.00146322
0.00186945
0.0024815
0.00151325
0.000983005
0.00108966
0.00157619
0.0023442
0.00198001
0.0018413
0.00245934
0.0031017
0.00352807
0.00367939
0.00337012
0.00272477
0.00214202
0.00232427
0.00205346
0.00233356
0.00204346
0.0021365
0.00290306
0.00341603
0.00366615
0.00349751
0.00295448
0.00237446
0.00174882
0.00180832
0.00222576
0.00138618
0.00112228
0.00111536
0.00163276
0.00249845
0.00234209
0.00194641
0.00238586
0.00283911
0.00279624
0.00306336
0.00330366
0.00293612
0.0026328
0.00271769
0.00254407
0.00273712
0.00255627
0.00264465
0.00316659
0.00336855
0.00309069
0.00288771
0.00281263
0.00239547
0.00190486
0.00210853
0.00226471
0.00133964
0.0011784
0.0011142
0.00187464
0.00275263
0.00251309
0.00185663
0.00227715
0.002741
0.00262121
0.00278714
0.00286974
0.00269207
0.00261561
0.00266341
0.00256503
0.00269748
0.00256252
0.00263554
0.00275996
0.002916
0.00276711
0.00264175
0.00276043
0.00231205
0.00187538
0.00240472
0.00253798
0.00149644
0.00112727
0.00107121
0.00216692
0.00295933
0.00250821
0.00177705
0.00223526
0.00260321
0.0025797
0.00267475
0.00234059
0.00237287
0.0022248
0.00238128
0.00221518
0.00238858
0.00218555
0.00221272
0.00241612
0.00235249
0.00265445
0.00255025
0.0026312
0.00226537
0.00179971
0.00249136
0.00282849
0.00184186
0.00101835
0.00101084
0.00245909
0.00314353
0.00244379
0.00175372
0.00220461
0.00248294
0.00243405
0.00243982
0.00209718
0.00222104
0.00204434
0.00227264
0.00204886
0.0022612
0.00200204
0.00200951
0.00217527
0.00208186
0.00239619
0.00245127
0.00245251
0.00221915
0.00175695
0.00246343
0.00305392
0.00223254
0.000956148
0.000960959
0.00275371
0.00329015
0.00241954
0.00179664
0.00217813
0.00241279
0.00231093
0.00229339
0.00196926
0.0021258
0.00196931
0.00219373
0.00198841
0.00212391
0.00194108
0.00192489
0.00203554
0.00195658
0.00225364
0.00229572
0.00235532
0.00219158
0.0017572
0.0023822
0.00322666
0.00262289
0.000933307
0.00093548
0.00291061
0.00325126
0.00232561
0.00182958
0.00212331
0.00219549
0.00211435
0.00203267
0.00183524
0.00207507
0.00192369
0.00217681
0.00196395
0.00208781
0.00191882
0.00187195
0.00196362
0.00180192
0.00197517
0.00210966
0.00217061
0.00211481
0.00177016
0.00225267
0.00323137
0.00285871
0.000914958
0.000907233
0.00283037
0.00298547
0.00207091
0.00176781
0.00194777
0.00192686
0.00181548
0.00178018
0.00172686
0.00204032
0.00186311
0.00216138
0.00191598
0.00210319
0.00189942
0.00185376
0.00197548
0.00170406
0.0017344
0.00186567
0.00188391
0.00195599
0.00172069
0.00200843
0.00301484
0.00283115
0.000888076
0.000842759
0.00244295
0.00243602
0.001658
0.00159196
0.00167298
0.00156426
0.00153775
0.00151146
0.001624
0.00199797
0.00180302
0.00211873
0.00186161
0.0021096
0.00185125
0.00180835
0.00197573
0.00165215
0.00150462
0.00156704
0.0015605
0.00168996
0.00157507
0.00165373
0.00251482
0.00249635
0.000844704
0.000681766
0.0016529
0.00152378
0.00125109
0.00128851
0.00128036
0.00115687
0.00117492
0.00137809
0.00174186
0.00201542
0.00187558
0.00210839
0.00192468
0.0021072
0.00190429
0.00185896
0.00202089
0.00180327
0.00140264
0.0012054
0.00114911
0.00130821
0.00130799
0.00128535
0.00162405
0.00173881
0.000712965
0.000474787
0.000903722
0.000879919
0.000896681
0.000956397
0.000899537
0.00078573
0.00082058
0.00139611
0.00179176
0.00185198
0.00177131
0.00189534
0.0017745
0.00181298
0.00174482
0.00176437
0.00179061
0.00183574
0.00150216
0.000845891
0.000793135
0.000919058
0.0010034
0.000968677
0.000971215
0.000984243
0.000525495
0.000279567
0.000516832
0.00054384
0.000620854
0.00068713
0.000638783
0.000543681
0.000525759
0.00103255
0.00100738
0.000851422
0.00086921
0.000805447
0.000870851
0.00084089
0.000870968
0.000890191
0.000875736
0.00102162
0.00108279
0.000567029
0.000577321
0.000673554
0.000741416
0.000692725
0.000620293
0.000587092
0.000326643
0.000147162
0.000307603
0.00036057
0.000466228
0.000553527
0.00055489
0.000541746
0.000529619
0.000500778
0.000216693
0.000190786
0.000226694
0.000201073
0.000249329
0.00021856
0.000234409
0.000230874
0.000205652
0.000223077
0.000528656
0.00055003
0.0005734
0.000588852
0.000594151
0.000509067
0.000407481
0.000350964
0.000173437
9.32086e-05
0.000295737
0.000336764
0.000400765
0.000425423
0.000408269
0.000366291
0.000364603
0.000434824
0.00048899
0.000477153
0.000461511
0.000445527
0.000434002
0.000438779
0.00044708
0.000470439
0.000490565
0.000504911
0.000462689
0.000386234
0.00039288
0.000439112
0.000456197
0.000415994
0.000327583
0.000278319
9.9317e-05
9.63749e-05
0.000327957
0.000341841
0.000345302
0.000338041
0.000329779
0.000323649
0.000325214
0.000292699
0.000219638
0.000198513
0.000160259
0.000142962
0.0001221
0.000130399
0.000139539
0.00016795
0.000207191
0.000230229
0.000306642
0.00033962
0.00034267
0.000351569
0.000359803
0.000363903
0.000352118
0.000333301
9.45814e-05
9.72683e-05
0.000285235
0.000283959
0.000272852
0.000249192
0.00022704
0.000209137
0.000208977
0.000234018
0.000255038
0.000255296
0.000243254
0.000234631
0.000228563
0.000231393
0.000236037
0.000248998
0.000263402
0.000265197
0.000247646
0.000222231
0.000223667
0.000242338
0.000264729
0.000288804
0.000299686
0.000298811
9.82046e-05
9.14348e-05
0.000243197
0.000236054
0.00021809
0.000190337
0.000167424
0.000154813
0.000157779
0.000154502
0.000140122
0.000135936
0.000132913
0.000132239
0.00013002
0.000132834
0.000132943
0.000137448
0.000141303
0.000147022
0.000162774
0.000166336
0.000163726
0.000176915
0.000200519
0.000229988
0.000248149
0.00025505
9.36893e-05
8.64056e-05
0.000217546
0.000206285
0.000183281
0.000149934
0.000118732
9.29587e-05
8.17644e-05
8.87155e-05
0.000104313
0.000119786
0.000127914
0.000136254
0.00014182
0.000143347
0.000137378
0.000131415
0.000123888
0.000109442
9.52034e-05
8.7877e-05
9.84597e-05
0.000124292
0.000156571
0.000192291
0.000216366
0.000228042
8.90933e-05
8.02629e-05
0.000196982
0.000183788
0.000160006
0.000126648
9.42015e-05
6.79891e-05
5.43435e-05
5.55929e-05
5.75015e-05
6.97502e-05
8.89245e-05
0.000106599
0.000115725
0.000116717
0.00010716
9.09491e-05
7.20186e-05
6.0804e-05
5.91986e-05
5.72089e-05
7.01169e-05
9.69788e-05
0.000131043
0.00016703
0.000192132
0.000206121
8.28806e-05
1e-15
0.00312531
0.00730398
0.00914428
0.0105914
0.0109279
0.0102458
0.00706251
0.00318938
0.00303801
0.00437242
0.00393221
0.0105739
0.013203
0.0088407
0.00334327
0.0044357
0.00980097
0.0164879
0.0190043
0.0168858
0.0117842
0.00821251
0.00567042
0.00305685
0.00264813
0.00204388
1e-15
1e-15
0.00675768
0.0179026
0.0194775
0.0180459
0.0171264
0.0142406
0.0081476
0.00540495
0.00602111
0.00819424
0.00564404
0.00639235
0.00355886
0.00190714
0.00118182
0.00135502
0.00423098
0.0122128
0.0148103
0.0113717
0.00696655
0.00567285
0.00459257
0.00301875
0.00185178
0.0013162
1e-15
1e-15
0.00260035
0.0104965
0.0203421
0.0196933
0.0134022
0.00397106
0.00220294
0.00262513
0.00478378
0.00597903
0.00509294
0.00206023
0.00134188
0.00252824
0.00150414
0.00115775
0.00136988
0.00249241
0.00352457
0.00358661
0.00370637
0.00446955
0.00489381
0.00425535
0.00226775
0.00132288
1e-15
1e-15
0.00248862
0.00416131
0.0130127
0.0148415
0.00413203
0.00123179
0.00132267
0.00169101
0.00185351
0.00188687
0.00170813
0.00146267
0.00162627
0.00165772
0.00134013
0.00114938
0.00122488
0.00127191
0.00129929
0.00130066
0.0013996
0.00180396
0.00227829
0.00222635
0.00173181
0.00149702
1e-15
1e-15
0.00251733
0.00315976
0.00404152
0.00367385
0.000950338
0.00106735
0.00126407
0.00159465
0.00159874
0.00134856
0.000931146
0.000753506
0.000661995
0.000725155
0.000882202
0.0011873
0.00154386
0.00155214
0.00134514
0.00102219
0.000925927
0.000840422
0.00102089
0.00138445
0.00159817
0.00222261
1e-15
1e-15
0.00193747
0.00281559
0.00254413
0.0015704
0.000841522
0.00124877
0.00141233
0.00194307
0.00190921
0.00159337
0.00109068
0.000801457
0.000584068
0.000667702
0.000849321
0.00126921
0.00173678
0.00190768
0.00178368
0.0012498
0.00111473
0.000837496
0.000916631
0.00170841
0.00222472
0.00235575
1e-15
9.99999e-16
0.00131476
0.0020473
0.00182861
0.00113191
0.00102825
0.0013211
0.00165159
0.00206532
0.00197658
0.00162434
0.00114774
0.000913085
0.00067951
0.000739709
0.000835038
0.00124364
0.00172246
0.0019605
0.00198166
0.0014929
0.00119644
0.00100374
0.000926945
0.00193934
0.00234694
0.00178533
9.99982e-16
9.99996e-16
0.00119479
0.0016862
0.00145466
0.0010531
0.00126461
0.00155549
0.00184461
0.00204333
0.0019802
0.00160012
0.00110132
0.000921174
0.000714016
0.000796155
0.000817539
0.00120348
0.00165338
0.0019509
0.00199081
0.00168795
0.00141774
0.00116548
0.000977909
0.00164918
0.00192825
0.00122061
9.99999e-16
2.46467e-14
0.00115943
0.00167307
0.00144949
0.0013619
0.00148109
0.00166587
0.00182095
0.0018007
0.00196256
0.00163197
0.00113245
0.00109575
0.000924438
0.00106333
0.000933976
0.00120113
0.00162932
0.00190366
0.00174996
0.00174738
0.0015537
0.00138013
0.00119622
0.0013964
0.00163839
0.00109648
9.99996e-16
6.08474e-13
0.00118137
0.00179541
0.00173052
0.00165106
0.00153208
0.00151508
0.00117515
0.00137569
0.00207002
0.00192014
0.00154959
0.00166003
0.00147144
0.00166515
0.0014619
0.00153115
0.00215514
0.00206186
0.00140188
0.00129807
0.00151932
0.00145755
0.00148992
0.00151257
0.00165558
0.00103737
1.89094e-14
2.12139e-13
0.00131695
0.00207833
0.00220804
0.00170322
0.00136515
0.00127669
0.00095837
0.00117589
0.00224347
0.00226439
0.00200169
0.00208363
0.00191671
0.00208949
0.00192247
0.00200897
0.00243146
0.00227383
0.00115781
0.00100674
0.00129454
0.00139825
0.0016457
0.0019426
0.00182986
0.00105438
3.52387e-15
9.9938e-16
0.00156966
0.00236138
0.0024196
0.00156168
0.00118039
0.00122995
0.00104403
0.00120067
0.00212064
0.00202096
0.00203867
0.00201287
0.00198631
0.0020341
0.00198273
0.00205298
0.00206678
0.00217094
0.00116824
0.00101089
0.00124818
0.00123814
0.00159975
0.00229607
0.00215787
0.0012108
9.99825e-16
1.85441e-13
0.00180188
0.00253437
0.00242511
0.00141289
0.00107704
0.00110265
0.00105981
0.00111923
0.00154059
0.00171549
0.00160198
0.00173297
0.00158845
0.00173544
0.00155141
0.00158374
0.00174735
0.00155422
0.00110671
0.00103942
0.00110196
0.00110229
0.00146321
0.00239982
0.00241387
0.00149123
7.17118e-15
5.16727e-13
0.00197836
0.00262943
0.00235843
0.0013428
0.0010215
0.00104026
0.000961013
0.00100098
0.00138773
0.00155728
0.00148093
0.00162214
0.00148064
0.0016111
0.00142504
0.00144088
0.00151359
0.00138248
0.000964236
0.000999279
0.000984553
0.00102258
0.00134661
0.00238482
0.00256862
0.00176171
5.01004e-13
3.33877e-09
0.00211473
0.00270527
0.0023388
0.00129323
0.000967128
0.000952488
0.000894772
0.000889985
0.00119501
0.00146859
0.00134519
0.0015399
0.00136184
0.00147324
0.00130951
0.00129785
0.00138784
0.00118878
0.000875818
0.000886179
0.000904239
0.000965267
0.00126685
0.00232698
0.00267331
0.00199698
1.67934e-10
3.64013e-07
0.0022957
0.00276599
0.00230734
0.00117433
0.000858614
0.000757643
0.000747052
0.000749057
0.00114198
0.00140716
0.00132295
0.00150698
0.0013601
0.00142063
0.00130972
0.00127037
0.00130032
0.00111555
0.00071451
0.000771381
0.000749646
0.000849979
0.00113929
0.00224967
0.00275503
0.00224096
6.05e-07
2.6691e-05
0.00250388
0.00275338
0.00213451
0.000949999
0.000684508
0.00059577
0.000591961
0.000629568
0.00109503
0.00137388
0.00128133
0.00148466
0.00132626
0.00142099
0.00129783
0.00125407
0.00129818
0.00108208
0.000628837
0.000635299
0.000564268
0.000688993
0.000934495
0.00206853
0.0027634
0.00248199
1.43729e-06
3.84242e-05
0.00242767
0.00248826
0.00169367
0.000680652
0.000495314
0.00041742
0.000456662
0.000566547
0.000991088
0.00134694
0.00119206
0.00145269
0.00124082
0.00148804
0.0012153
0.00117747
0.00136142
0.0010192
0.000582346
0.000474469
0.000418849
0.000502716
0.000688946
0.00169674
0.00254043
0.00246095
4.18879e-05
2.77029e-06
0.00185137
0.00179457
0.00105241
0.000438723
0.000321281
0.000277387
0.000342001
0.000609894
0.00112993
0.00134832
0.00125743
0.00143325
0.00130663
0.00144402
0.00127599
0.00123875
0.00135885
0.00117749
0.000653258
0.000364515
0.000277025
0.000324969
0.000455794
0.00112995
0.00187039
0.00192386
5.29872e-06
4.5455e-08
0.00113222
0.00106544
0.000502797
0.000285222
0.000226009
0.000206367
0.000284475
0.000686582
0.00118543
0.00121089
0.00120733
0.00126619
0.0012258
0.00121385
0.00119449
0.00119392
0.00116799
0.00121024
0.000747635
0.000306296
0.000214377
0.000229941
0.000301448
0.000581107
0.00116533
0.00120092
2.95426e-08
1.18305e-10
0.00050851
0.000453491
0.000267969
0.000210674
0.000191098
0.000176447
0.00023607
0.000484328
0.000506168
0.000490036
0.000579008
0.000533748
0.000624212
0.000573412
0.000611854
0.000588522
0.000497932
0.000490061
0.000480852
0.000250276
0.000191601
0.000200898
0.000223664
0.000300516
0.000524834
0.000561811
4.52964e-10
7.55945e-14
0.000231331
0.000224542
0.000189056
0.000187813
0.000192628
0.000199414
0.000225047
0.000216968
0.000152972
0.000132735
0.000145985
0.000136416
0.000153549
0.000141744
0.000148923
0.00014733
0.000136375
0.000151764
0.00022538
0.000233417
0.000211122
0.000202612
0.000196829
0.0002039
0.000253664
0.000258219
2.78164e-13
1.25459e-15
0.00015165
0.000158946
0.000160989
0.00016004
0.000154056
0.000145024
0.000148394
0.000167086
0.000192048
0.00018349
0.000178587
0.000170318
0.000166666
0.000168156
0.000170873
0.000180456
0.000187557
0.000196706
0.000177609
0.000157536
0.000154767
0.000164136
0.000168366
0.000167436
0.000166593
0.000159283
1.95805e-15
1e-15
0.00013395
0.000140422
0.00013884
0.000133001
0.000130172
0.000132052
0.000143495
0.000129972
9.5563e-05
7.87634e-05
6.34256e-05
5.41986e-05
4.64749e-05
4.93748e-05
5.27399e-05
6.55698e-05
8.11499e-05
9.86587e-05
0.000135062
0.000150343
0.000140564
0.000138993
0.000141453
0.000147064
0.000147732
0.000140448
1e-15
1e-15
0.000112747
0.000115323
0.000111125
0.000101677
9.40525e-05
8.90477e-05
8.58318e-05
8.71734e-05
9.64318e-05
9.33116e-05
8.60959e-05
8.14191e-05
7.88558e-05
8.00144e-05
8.13302e-05
8.75992e-05
9.55784e-05
9.96162e-05
9.18784e-05
9.11925e-05
9.53784e-05
0.000100827
0.000108645
0.000118747
0.000122968
0.000119951
1e-15
1e-15
9.50404e-05
9.57113e-05
9.01593e-05
8.04424e-05
7.27339e-05
6.73725e-05
6.71072e-05
6.30621e-05
5.11395e-05
4.3612e-05
4.1183e-05
4.03853e-05
3.96663e-05
4.06424e-05
4.01733e-05
4.20794e-05
4.46499e-05
5.27154e-05
6.59017e-05
7.07869e-05
7.1589e-05
7.75506e-05
8.56025e-05
9.61891e-05
0.000101877
0.000101221
1e-15
1e-15
8.51119e-05
8.39541e-05
7.70612e-05
6.62566e-05
5.63991e-05
4.67725e-05
3.86463e-05
3.41236e-05
3.28235e-05
3.5218e-05
3.88872e-05
4.25849e-05
4.50694e-05
4.55396e-05
4.24258e-05
3.93558e-05
3.5715e-05
3.3749e-05
3.59696e-05
4.10935e-05
4.98321e-05
6.00668e-05
7.03569e-05
8.20707e-05
8.92542e-05
9.05005e-05
1e-15
1e-15
7.68119e-05
7.41061e-05
6.67836e-05
5.65328e-05
4.68882e-05
3.83718e-05
3.11771e-05
2.85952e-05
2.61551e-05
2.75601e-05
3.27756e-05
3.84126e-05
4.13488e-05
4.15582e-05
3.8209e-05
3.28536e-05
2.76863e-05
2.68382e-05
2.98177e-05
3.28424e-05
4.05258e-05
4.96695e-05
5.98194e-05
7.09429e-05
7.86407e-05
8.15631e-05
1e-15
1e-15
0.00224119
0.00301084
0.00320659
0.00390127
0.00407196
0.00387932
0.00260893
0.00142317
0.00127411
0.00215322
0.00210334
0.004561
0.00564847
0.00277892
0.00121097
0.00164508
0.00354248
0.00645929
0.00761528
0.00721469
0.00548076
0.00404988
0.00302741
0.00192368
0.00168447
0.0013746
1e-15
1e-15
0.0024153
0.00633084
0.0087531
0.00868679
0.00840889
0.00729015
0.00431037
0.00298369
0.00297441
0.00298824
0.00206224
0.002498
0.00195036
0.00113072
0.00079456
0.000890782
0.00206609
0.00574434
0.00629727
0.00493823
0.00356035
0.00312164
0.00265984
0.00188471
0.0012152
0.000949217
1e-15
1e-15
0.00145585
0.00473351
0.00979386
0.00988416
0.00713596
0.00226014
0.00137031
0.00156479
0.00262431
0.00305129
0.00248261
0.00137769
0.000963989
0.00125641
0.000830525
0.000695075
0.000822361
0.00136078
0.00183274
0.00185877
0.00186614
0.00219611
0.00238604
0.00217295
0.00133391
0.000979165
1e-15
1e-15
0.00125298
0.00216097
0.00644684
0.00747114
0.0023646
0.000854039
0.000930625
0.00106647
0.00106322
0.000951017
0.000775987
0.000736239
0.000996908
0.00073133
0.000601753
0.000661815
0.000784091
0.00085187
0.000897418
0.000884359
0.000886213
0.00101256
0.00112272
0.00112428
0.000999518
0.00103443
9.99998e-16
1e-15
0.00117277
0.00163197
0.00213383
0.00194377
0.000702488
0.00072134
0.000897663
0.00107237
0.000999912
0.000791023
0.000519458
0.000417052
0.000350716
0.000353668
0.000452417
0.000718424
0.000977261
0.00102813
0.000945892
0.000794459
0.000717563
0.000633226
0.000699747
0.00084496
0.00097993
0.0013228
1e-15
1e-15
0.000985693
0.00145635
0.00143294
0.00103795
0.000643873
0.000836477
0.000986969
0.00120994
0.00115068
0.000981941
0.000719649
0.000520338
0.000334623
0.000374621
0.00051132
0.000797093
0.00104186
0.00114901
0.00112388
0.000918004
0.000787114
0.000602803
0.000735981
0.00101836
0.00124014
0.00134376
1e-15
1e-15
0.000924905
0.00119898
0.001101
0.000865472
0.000771376
0.000938704
0.0011362
0.0011383
0.00112169
0.000995187
0.000768913
0.000617329
0.0004352
0.000455688
0.000531322
0.000796146
0.0010193
0.00110688
0.00113069
0.00108068
0.000856469
0.000711143
0.000798992
0.00118282
0.00131648
0.00114747
1e-15
1e-15
0.000994942
0.0011868
0.00103928
0.000928589
0.00100854
0.00113203
0.00122009
0.000956543
0.00112713
0.00105262
0.000800116
0.000654642
0.000489486
0.000548088
0.000581026
0.000858945
0.00105313
0.00110146
0.00100666
0.00116331
0.00104033
0.000894034
0.000845082
0.00111546
0.00124844
0.00104393
1e-15
1e-15
0.00104266
0.00131501
0.0011758
0.0012665
0.00121439
0.00119978
0.00103601
0.000668933
0.0011788
0.00120602
0.000884843
0.000846757
0.000705194
0.00081806
0.000714075
0.000941643
0.00121886
0.0011116
0.00072158
0.0011174
0.00112008
0.00109086
0.00107212
0.00111383
0.00126973
0.00106946
1e-15
1e-15
0.00108982
0.00155273
0.00158253
0.0016003
0.00129167
0.000968941
0.000348546
0.000489928
0.00153052
0.00160001
0.0012847
0.00137384
0.00120307
0.00137397
0.00119501
0.0012672
0.00184397
0.0014776
0.000530003
0.000483431
0.00103947
0.00118726
0.00140128
0.00132919
0.00140941
0.00102806
1e-15
1e-15
0.00122905
0.00191687
0.00216706
0.00170327
0.00117616
0.000559779
0.00021795
0.000475747
0.00224593
0.00226783
0.00194352
0.00207727
0.00185212
0.00208606
0.00186175
0.00194771
0.00246162
0.0022854
0.000484977
0.000254512
0.000642163
0.001169
0.0016181
0.00187326
0.00166166
0.00100765
1e-15
1.4356e-10
0.00148795
0.00225278
0.00243357
0.00161071
0.000941574
0.000459772
0.000285835
0.000519702
0.00232102
0.00206839
0.00209733
0.00204826
0.00204047
0.00207429
0.00203725
0.00211442
0.00213509
0.0023784
0.000540348
0.000263115
0.000484661
0.00101293
0.0016236
0.00228553
0.00202488
0.00111177
3.95683e-14
4.04229e-06
0.0017218
0.00245332
0.00246929
0.00149085
0.00070163
0.000382548
0.000305536
0.00046443
0.00161194
0.00176503
0.00162432
0.00177059
0.00161009
0.00177683
0.00157825
0.00161047
0.00180618
0.00163543
0.000512484
0.000298813
0.000369899
0.00075857
0.00152781
0.00242029
0.00230624
0.00136792
1.31965e-07
5.64106e-05
0.00188066
0.00254163
0.00242621
0.00142423
0.000571087
0.000354425
0.000267755
0.000402555
0.00147251
0.00159281
0.0015142
0.00165191
0.00151378
0.00164741
0.00145852
0.00147523
0.00155678
0.00146896
0.000443433
0.000297122
0.000304383
0.000572936
0.0014207
0.00243367
0.00247001
0.00162007
4.81521e-05
0.000100131
0.00196792
0.00261073
0.0024209
0.0013805
0.000517895
0.000289353
0.000245522
0.000335367
0.00121741
0.00150565
0.00134794
0.00156923
0.00136172
0.00150643
0.00130857
0.00130059
0.00142931
0.00121008
0.000363191
0.000241671
0.000259056
0.000493031
0.00135203
0.00240845
0.00257328
0.00181485
8.77479e-05
0.000119562
0.0021401
0.00271492
0.00243951
0.00125088
0.000410207
0.00018436
0.000177328
0.000294884
0.00120457
0.00144552
0.00135579
0.00153807
0.00138867
0.0014348
0.00133438
0.00129752
0.00131836
0.0011707
0.000312512
0.000199533
0.000181882
0.000390871
0.0012146
0.00238493
0.00269596
0.00206467
0.000110056
0.000173858
0.00248314
0.00280616
0.00238097
0.00098069
0.000280626
0.000131321
0.000144715
0.000279429
0.00119199
0.00141768
0.00134279
0.00152287
0.00138545
0.00142531
0.00135621
0.00131242
0.00130592
0.00116372
0.000297775
0.000167816
0.000121829
0.00027121
0.000967729
0.00230709
0.00280748
0.00244478
0.000159315
0.000226785
0.00255841
0.00270144
0.00208673
0.000645718
0.000175436
9.14167e-05
0.000131307
0.000304177
0.00100735
0.00138494
0.0011935
0.00149239
0.00124031
0.00155883
0.00121705
0.00117724
0.00142895
0.00103004
0.000308756
0.000153653
9.21772e-05
0.000171408
0.00066504
0.00206319
0.00273733
0.00259055
0.000208335
0.000211575
0.00220343
0.00220618
0.00155385
0.000386421
0.000115945
7.56202e-05
0.000153614
0.000396799
0.00116588
0.00140442
0.0013139
0.0014907
0.00135943
0.00150761
0.0013303
0.0012925
0.00142578
0.00122436
0.000430315
0.00018758
7.80476e-05
0.00011493
0.000413269
0.00161402
0.00228294
0.00227772
0.000202559
0.000144596
0.00153387
0.00152468
0.000849177
0.000210313
8.6891e-05
7.42564e-05
0.000175653
0.000479133
0.00132988
0.0013242
0.00133856
0.00137896
0.00134581
0.00131908
0.00131399
0.00132411
0.00128006
0.00136945
0.000515809
0.000198056
7.82664e-05
8.89791e-05
0.000233633
0.00100288
0.00164019
0.00162357
0.000147511
7.74986e-05
0.00080039
0.000742525
0.000315614
0.000121481
7.62021e-05
7.83912e-05
0.000172002
0.000331587
0.000438072
0.000446734
0.000533842
0.000505261
0.000587397
0.000539543
0.000571478
0.000540003
0.000446717
0.00042455
0.000316127
0.000178894
8.47837e-05
7.98282e-05
0.00013546
0.000402589
0.000871067
0.000885634
8.41788e-05
3.62496e-05
0.00028891
0.000259541
0.000138827
8.78626e-05
8.20711e-05
8.55702e-05
0.000115548
0.000117305
0.000107402
8.89131e-05
9.38847e-05
8.78994e-05
9.86596e-05
9.10331e-05
9.55799e-05
9.43872e-05
8.92292e-05
0.000106334
0.000121098
0.000120628
9.10567e-05
8.64379e-05
9.49325e-05
0.000170045
0.000320415
0.000338632
4.17528e-05
1.82851e-05
0.00010752
0.000103903
8.61293e-05
7.75568e-05
7.41225e-05
7.36416e-05
8.38214e-05
8.44725e-05
8.27065e-05
6.95218e-05
6.31668e-05
5.58116e-05
5.44299e-05
5.45584e-05
5.60714e-05
6.26062e-05
7.05807e-05
8.46638e-05
8.93699e-05
8.9265e-05
7.8685e-05
7.90557e-05
8.23815e-05
9.48554e-05
0.000123885
0.000126527
2.19408e-05
9.38194e-06
6.89574e-05
7.30017e-05
7.08322e-05
6.69343e-05
6.55716e-05
6.68508e-05
7.73889e-05
7.28356e-05
5.36393e-05
3.97044e-05
3.03915e-05
2.44345e-05
2.13502e-05
2.21762e-05
2.39619e-05
3.08771e-05
4.05346e-05
5.50832e-05
7.62897e-05
8.2082e-05
7.18311e-05
7.05225e-05
7.18101e-05
7.65663e-05
7.95875e-05
7.55262e-05
1.17083e-05
6.96574e-06
5.54978e-05
5.93913e-05
5.8229e-05
5.48334e-05
5.24194e-05
5.20836e-05
5.1524e-05
4.67544e-05
4.44382e-05
3.88543e-05
3.232e-05
2.87433e-05
2.73934e-05
2.77935e-05
2.84979e-05
3.26315e-05
3.96041e-05
4.58009e-05
4.93932e-05
5.50381e-05
5.60581e-05
5.65866e-05
5.91011e-05
6.30037e-05
6.42924e-05
6.03237e-05
8.64527e-06
3.68701e-06
4.68313e-05
4.99352e-05
4.86439e-05
4.54115e-05
4.28938e-05
4.08293e-05
4.02569e-05
3.71866e-05
2.93407e-05
2.12702e-05
1.78617e-05
1.65124e-05
1.60021e-05
1.62578e-05
1.63835e-05
1.79927e-05
2.16511e-05
3.02157e-05
3.90663e-05
4.28081e-05
4.36884e-05
4.61146e-05
4.87827e-05
5.24501e-05
5.37938e-05
5.0651e-05
5.10756e-06
3.09234e-06
4.25304e-05
4.44458e-05
4.27472e-05
3.91222e-05
3.59391e-05
3.2241e-05
2.84121e-05
2.43975e-05
2.03272e-05
1.7627e-05
1.73274e-05
1.87243e-05
2.0134e-05
2.02729e-05
1.8534e-05
1.73526e-05
1.78257e-05
2.09054e-05
2.55967e-05
3.01882e-05
3.44923e-05
3.86043e-05
4.19708e-05
4.60161e-05
4.77899e-05
4.58075e-05
4.28483e-06
6.90355e-07
3.83575e-05
3.87951e-05
3.66879e-05
3.31552e-05
2.98676e-05
2.64441e-05
2.24713e-05
2.079e-05
1.94918e-05
2.07632e-05
2.44588e-05
2.80968e-05
2.99357e-05
3.00218e-05
2.79212e-05
2.43561e-05
2.06677e-05
1.98259e-05
2.16282e-05
2.36432e-05
2.80872e-05
3.19171e-05
3.54251e-05
3.93684e-05
4.15975e-05
4.1179e-05
1.45344e-06
1e-15
0.00155127
0.00128895
0.00107666
0.00138919
0.00152384
0.00153921
0.00117715
0.000884231
0.000825483
0.00115726
0.00144354
0.00209819
0.0024667
0.000976485
0.000612132
0.000724247
0.00127746
0.00236346
0.00309255
0.00320568
0.00284768
0.00229935
0.00186724
0.00135271
0.00119378
0.00102896
1e-15
1e-15
0.00152524
0.00252027
0.0043487
0.00459926
0.00459217
0.00410078
0.00250164
0.00181563
0.00173722
0.00154927
0.00112937
0.00118956
0.00115427
0.000796181
0.000562036
0.000602967
0.00110244
0.00279141
0.00291108
0.00240886
0.00203636
0.00190996
0.00171426
0.00130632
0.000895464
0.000824561
1e-15
1e-15
0.00113526
0.00232998
0.00524928
0.00553722
0.00413918
0.0013725
0.000942929
0.0010236
0.00149375
0.00162521
0.00127455
0.00100714
0.000865533
0.000740691
0.000455371
0.000439216
0.000535112
0.000816493
0.00104562
0.00101801
0.00102255
0.00117944
0.00127745
0.00123903
0.000909996
0.000885099
9.99998e-16
1e-15
0.000875856
0.00129777
0.0036031
0.00410349
0.00138855
0.000702796
0.000739773
0.000748138
0.000667478
0.000557756
0.000449465
0.000444978
0.000662981
0.000372434
0.000329193
0.000414391
0.000541508
0.000611948
0.000657526
0.000638608
0.000623629
0.00064857
0.00064372
0.000657647
0.000673254
0.000873542
9.99903e-16
1e-15
0.000753927
0.000964326
0.00127198
0.00112993
0.000588552
0.0006551
0.000778432
0.000829371
0.000703611
0.000548674
0.000395004
0.00031013
0.000243668
0.000222509
0.000288057
0.000497647
0.000668648
0.000742119
0.000741764
0.000707634
0.000670686
0.000579283
0.000575626
0.000616158
0.000705475
0.000999956
9.9997e-16
1e-15
0.000663756
0.000875544
0.000917016
0.000760927
0.000578598
0.00073417
0.000858993
0.000898697
0.000783867
0.000680198
0.000542344
0.000397893
0.000243643
0.000261491
0.000383599
0.000575648
0.000694603
0.000779867
0.000825272
0.000844743
0.00074865
0.000563042
0.000625931
0.000717587
0.000860483
0.00104574
1e-15
1e-15
0.000692084
0.000799846
0.000757057
0.000691422
0.000665191
0.000818583
0.000935075
0.000760392
0.000720606
0.000690659
0.000591126
0.0004893
0.000335843
0.000337221
0.000418883
0.000591972
0.000680962
0.000710819
0.000751684
0.000944485
0.000780996
0.000615702
0.000682621
0.000813167
0.000915469
0.000990244
1e-15
1e-15
0.000821901
0.000859632
0.000767144
0.000796358
0.000914983
0.00102088
0.000996133
0.000555639
0.000705962
0.000781863
0.000656688
0.000545408
0.000393077
0.000437286
0.000496721
0.000697567
0.000772123
0.000700306
0.000634398
0.000975957
0.00093942
0.000809329
0.000740617
0.000825908
0.000963611
0.000973346
1e-15
1e-15
0.00092562
0.00105812
0.000936542
0.00116308
0.00116519
0.00115919
0.000933097
0.000384517
0.000814276
0.00100226
0.000764201
0.000727843
0.000588665
0.000692436
0.000608964
0.000831477
0.00104169
0.000753352
0.000446846
0.000973332