/*--------------------------------*- C++ -*----------------------------------*\
| =========                 |                                                 |
| \\      /  F ield         | OpenFOAM: The Open Source CFD Toolbox           |
|  \\    /   O peration     | Version:  2.3.0                                 |
|   \\  /    A nd           | Web:      www.OpenFOAM.org                      |
|    \\/     M anipulation  |                                                 |
\*---------------------------------------------------------------------------*/
FoamFile
{
    version     2.0;
    format      ascii;
    class       volScalarField;
    location    "0.209861";
    object      k.water;
}
// * * * * * * * * * * * * * * * * * * * * * * * * * * * * * * * * * * * * * //

dimensions      [0 2 -2 0 0 0 0];

internalField   nonuniform List<scalar> 
1000
(
0.000675176
0.000556285
0.000554136
0.000554995
0.000555296
0.000555414
0.000555455
0.000555468
0.000555473
0.000555474
0.000555475
0.000555475
0.000555473
0.000555461
0.00055542
0.000555299
0.000554994
0.000554131
0.00055628
0.000675152
4.15044e-05
2.88133e-05
2.84004e-05
2.83847e-05
2.83711e-05
2.83637e-05
2.83595e-05
2.83567e-05
2.83554e-05
2.8355e-05
2.83548e-05
2.83552e-05
2.83561e-05
2.83585e-05
2.83626e-05
2.83706e-05
2.83849e-05
2.84015e-05
2.88142e-05
4.1505e-05
2.43926e-05
2.12209e-05
2.10739e-05
2.10844e-05
2.10751e-05
2.10699e-05
2.10662e-05
2.10639e-05
2.10626e-05
2.10621e-05
2.10621e-05
2.10627e-05
2.10639e-05
2.10662e-05
2.10699e-05
2.10752e-05
2.10845e-05
2.1074e-05
2.1221e-05
2.43927e-05
2.93482e-05
2.95457e-05
2.94537e-05
2.94474e-05
2.94381e-05
2.94322e-05
2.9428e-05
2.94254e-05
2.94239e-05
2.94232e-05
2.94232e-05
2.9424e-05
2.94256e-05
2.94283e-05
2.94324e-05
2.94383e-05
2.94476e-05
2.94538e-05
2.95458e-05
2.93482e-05
2.73056e-05
2.59951e-05
2.59462e-05
2.59622e-05
2.59639e-05
2.5962e-05
2.59594e-05
2.59571e-05
2.59555e-05
2.59547e-05
2.59548e-05
2.59556e-05
2.59573e-05
2.59597e-05
2.59623e-05
2.59641e-05
2.59624e-05
2.59463e-05
2.59951e-05
2.73056e-05
2.77688e-05
2.66721e-05
2.66034e-05
2.66045e-05
2.66042e-05
2.66032e-05
2.66019e-05
2.66008e-05
2.66e-05
2.65997e-05
2.65997e-05
2.66001e-05
2.6601e-05
2.66021e-05
2.66034e-05
2.66044e-05
2.66046e-05
2.66035e-05
2.66721e-05
2.77687e-05
2.77555e-05
2.66677e-05
2.66054e-05
2.66078e-05
2.66089e-05
2.66089e-05
2.66085e-05
2.66077e-05
2.66067e-05
2.66064e-05
2.66064e-05
2.66068e-05
2.66076e-05
2.66086e-05
2.66091e-05
2.6609e-05
2.66078e-05
2.66053e-05
2.66677e-05
2.77555e-05
2.77551e-05
2.66572e-05
2.65928e-05
2.65944e-05
2.65956e-05
2.65961e-05
2.65961e-05
2.65962e-05
2.65962e-05
2.6596e-05
2.6596e-05
2.65963e-05
2.65965e-05
2.65961e-05
2.65961e-05
2.65957e-05
2.65944e-05
2.65927e-05
2.6657e-05
2.77551e-05
2.77576e-05
2.66586e-05
2.65929e-05
2.65942e-05
2.65955e-05
2.65962e-05
2.65965e-05
2.65968e-05
2.65978e-05
2.65978e-05
2.65978e-05
2.65978e-05
2.65971e-05
2.65965e-05
2.65962e-05
2.65954e-05
2.65941e-05
2.65929e-05
2.66584e-05
2.77576e-05
2.77583e-05
2.66602e-05
2.65943e-05
2.65951e-05
2.65962e-05
2.65969e-05
2.65973e-05
2.65974e-05
2.65971e-05
2.65972e-05
2.65972e-05
2.65971e-05
2.65972e-05
2.65973e-05
2.65969e-05
2.65962e-05
2.6595e-05
2.65942e-05
2.66601e-05
2.77582e-05
0.00060825
0.000318529
0.000310992
0.000310999
0.000310999
0.000311
0.000311
0.000311
0.000311001
0.000311002
0.000311004
0.000311006
0.000311008
0.000311009
0.000311008
0.000311004
0.000310998
0.000310987
0.000318522
0.000608226
4.40175e-05
2.56694e-05
2.49102e-05
2.4812e-05
2.47697e-05
2.47509e-05
2.47427e-05
2.47392e-05
2.47377e-05
2.47371e-05
2.47371e-05
2.47376e-05
2.4739e-05
2.47424e-05
2.47506e-05
2.47695e-05
2.4812e-05
2.49104e-05
2.56696e-05
4.40173e-05
2.46483e-05
1.99772e-05
1.98631e-05
1.98676e-05
1.98712e-05
1.98728e-05
1.98736e-05
1.98739e-05
1.98741e-05
1.98742e-05
1.98742e-05
1.98741e-05
1.98739e-05
1.98735e-05
1.98727e-05
1.98711e-05
1.98676e-05
1.98631e-05
1.99773e-05
2.46484e-05
2.64197e-05
2.19429e-05
2.18268e-05
2.1825e-05
2.18247e-05
2.18244e-05
2.18242e-05
2.1824e-05
2.18239e-05
2.18239e-05
2.18239e-05
2.18239e-05
2.1824e-05
2.18242e-05
2.18244e-05
2.18248e-05
2.18251e-05
2.18268e-05
2.19429e-05
2.64197e-05
2.58986e-05
2.15381e-05
2.14267e-05
2.14276e-05
2.14278e-05
2.14276e-05
2.14272e-05
2.14269e-05
2.14266e-05
2.14265e-05
2.14265e-05
2.14267e-05
2.14269e-05
2.14272e-05
2.14276e-05
2.14279e-05
2.14277e-05
2.14267e-05
2.15381e-05
2.58986e-05
2.60059e-05
2.15931e-05
2.14791e-05
2.14783e-05
2.14783e-05
2.14782e-05
2.14781e-05
2.14779e-05
2.14778e-05
2.14778e-05
2.14778e-05
2.14778e-05
2.14779e-05
2.14781e-05
2.14783e-05
2.14784e-05
2.14783e-05
2.14791e-05
2.15932e-05
2.60059e-05
2.60088e-05
2.15948e-05
2.14811e-05
2.14804e-05
2.14806e-05
2.14806e-05
2.14806e-05
2.14805e-05
2.14804e-05
2.14803e-05
2.14804e-05
2.14804e-05
2.14805e-05
2.14806e-05
2.14807e-05
2.14806e-05
2.14804e-05
2.14811e-05
2.15948e-05
2.60088e-05
2.60092e-05
2.15938e-05
2.14798e-05
2.1479e-05
2.14792e-05
2.14793e-05
2.14793e-05
2.14793e-05
2.14793e-05
2.14793e-05
2.14793e-05
2.14793e-05
2.14793e-05
2.14793e-05
2.14793e-05
2.14792e-05
2.1479e-05
2.14798e-05
2.15938e-05
2.60092e-05
2.601e-05
2.15939e-05
2.14797e-05
2.14788e-05
2.1479e-05
2.14791e-05
2.14792e-05
2.14792e-05
2.14793e-05
2.14793e-05
2.14793e-05
2.14793e-05
2.14793e-05
2.14792e-05
2.14791e-05
2.1479e-05
2.14789e-05
2.14798e-05
2.15939e-05
2.601e-05
2.60103e-05
2.15942e-05
2.14799e-05
2.1479e-05
2.14791e-05
2.14792e-05
2.14793e-05
2.14793e-05
2.14793e-05
2.14793e-05
2.14793e-05
2.14793e-05
2.14793e-05
2.14793e-05
2.14792e-05
2.14791e-05
2.1479e-05
2.14799e-05
2.15942e-05
2.60103e-05
0.00061481
0.000314747
0.000305732
0.000305672
0.00030565
0.000305642
0.000305639
0.000305638
0.000305639
0.000305639
0.000305641
0.000305644
0.000305647
0.000305649
0.000305651
0.000305655
0.000305671
0.000305727
0.000314739
0.000614788
5.01762e-05
2.63596e-05
2.5427e-05
2.53194e-05
2.52734e-05
2.52531e-05
2.52443e-05
2.52406e-05
2.5239e-05
2.52384e-05
2.52384e-05
2.52389e-05
2.52404e-05
2.52441e-05
2.52528e-05
2.52732e-05
2.53194e-05
2.54272e-05
2.63597e-05
5.01755e-05
2.53545e-05
2.02006e-05
2.00707e-05
2.00737e-05
2.00778e-05
2.00797e-05
2.00807e-05
2.00813e-05
2.00815e-05
2.00816e-05
2.00816e-05
2.00815e-05
2.00812e-05
2.00806e-05
2.00796e-05
2.00777e-05
2.00737e-05
2.00707e-05
2.02007e-05
2.53546e-05
2.63079e-05
2.1253e-05
2.11219e-05
2.1121e-05
2.11215e-05
2.11218e-05
2.11219e-05
2.11219e-05
2.1122e-05
2.1122e-05
2.1122e-05
2.1122e-05
2.11219e-05
2.11219e-05
2.11218e-05
2.11215e-05
2.1121e-05
2.11219e-05
2.1253e-05
2.63079e-05
2.60161e-05
2.11948e-05
2.10654e-05
2.10646e-05
2.10646e-05
2.10646e-05
2.10644e-05
2.10644e-05
2.10643e-05
2.10643e-05
2.10643e-05
2.10643e-05
2.10644e-05
2.10645e-05
2.10646e-05
2.10646e-05
2.10646e-05
2.10654e-05
2.11948e-05
2.60161e-05
2.60758e-05
2.11999e-05
2.107e-05
2.10688e-05
2.10688e-05
2.10688e-05
2.10687e-05
2.10687e-05
2.10686e-05
2.10686e-05
2.10686e-05
2.10687e-05
2.10687e-05
2.10687e-05
2.10688e-05
2.10688e-05
2.10688e-05
2.107e-05
2.11999e-05
2.60758e-05
2.60797e-05
2.12003e-05
2.10703e-05
2.10691e-05
2.10692e-05
2.10692e-05
2.10692e-05
2.10691e-05
2.10691e-05
2.10691e-05
2.10691e-05
2.10691e-05
2.10691e-05
2.10692e-05
2.10692e-05
2.10692e-05
2.10691e-05
2.10703e-05
2.12003e-05
2.60797e-05
2.60803e-05
2.12001e-05
2.10701e-05
2.10688e-05
2.10689e-05
2.10689e-05
2.10689e-05
2.10689e-05
2.10689e-05
2.10689e-05
2.10689e-05
2.10689e-05
2.10689e-05
2.10689e-05
2.10689e-05
2.10689e-05
2.10688e-05
2.10701e-05
2.12001e-05
2.60803e-05
2.60808e-05
2.12002e-05
2.10701e-05
2.10688e-05
2.10688e-05
2.10688e-05
2.10688e-05
2.10689e-05
2.10689e-05
2.10689e-05
2.10689e-05
2.10689e-05
2.10689e-05
2.10689e-05
2.10688e-05
2.10688e-05
2.10688e-05
2.10701e-05
2.12002e-05
2.60808e-05
2.60811e-05
2.12002e-05
2.10701e-05
2.10688e-05
2.10688e-05
2.10688e-05
2.10689e-05
2.10689e-05
2.10689e-05
2.10689e-05
2.10689e-05
2.10689e-05
2.10689e-05
2.10689e-05
2.10689e-05
2.10688e-05
2.10688e-05
2.10701e-05
2.12002e-05
2.60811e-05
0.000608251
0.000318531
0.000310993
0.000311
0.000311001
0.000311001
0.000311001
0.000311002
0.000311002
0.000311003
0.000311005
0.000311007
0.000311009
0.00031101
0.000311009
0.000311005
0.000310999
0.000310988
0.000318523
0.000608231
4.40175e-05
2.56695e-05
2.49103e-05
2.48121e-05
2.47697e-05
2.4751e-05
2.47428e-05
2.47393e-05
2.47378e-05
2.47372e-05
2.47371e-05
2.47376e-05
2.4739e-05
2.47425e-05
2.47507e-05
2.47696e-05
2.48121e-05
2.49104e-05
2.56697e-05
4.40171e-05
2.46483e-05
1.99772e-05
1.98631e-05
1.98676e-05
1.98712e-05
1.98728e-05
1.98736e-05
1.98739e-05
1.98741e-05
1.98742e-05
1.98741e-05
1.98741e-05
1.98739e-05
1.98735e-05
1.98727e-05
1.98711e-05
1.98676e-05
1.98631e-05
1.99773e-05
2.46483e-05
2.64197e-05
2.19429e-05
2.18268e-05
2.1825e-05
2.18247e-05
2.18244e-05
2.18242e-05
2.1824e-05
2.18239e-05
2.18239e-05
2.18239e-05
2.18239e-05
2.1824e-05
2.18242e-05
2.18245e-05
2.18248e-05
2.18251e-05
2.18268e-05
2.19429e-05
2.64197e-05
2.58987e-05
2.15381e-05
2.14267e-05
2.14277e-05
2.14279e-05
2.14276e-05
2.14272e-05
2.14269e-05
2.14267e-05
2.14265e-05
2.14266e-05
2.14267e-05
2.14269e-05
2.14272e-05
2.14276e-05
2.14279e-05
2.14277e-05
2.14267e-05
2.15381e-05
2.58986e-05
2.60059e-05
2.15931e-05
2.14791e-05
2.14783e-05
2.14783e-05
2.14782e-05
2.14781e-05
2.14779e-05
2.14778e-05
2.14778e-05
2.14778e-05
2.14778e-05
2.14779e-05
2.14781e-05
2.14783e-05
2.14784e-05
2.14783e-05
2.14791e-05
2.15932e-05
2.60059e-05
2.60088e-05
2.15948e-05
2.14811e-05
2.14804e-05
2.14806e-05
2.14806e-05
2.14806e-05
2.14805e-05
2.14804e-05
2.14803e-05
2.14804e-05
2.14804e-05
2.14805e-05
2.14806e-05
2.14807e-05
2.14806e-05
2.14804e-05
2.14811e-05
2.15948e-05
2.60087e-05
2.60092e-05
2.15938e-05
2.14798e-05
2.1479e-05
2.14792e-05
2.14793e-05
2.14793e-05
2.14793e-05
2.14793e-05
2.14793e-05
2.14793e-05
2.14793e-05
2.14793e-05
2.14793e-05
2.14793e-05
2.14792e-05
2.1479e-05
2.14798e-05
2.15938e-05
2.60092e-05
2.601e-05
2.15939e-05
2.14797e-05
2.14788e-05
2.1479e-05
2.14791e-05
2.14792e-05
2.14792e-05
2.14793e-05
2.14793e-05
2.14793e-05
2.14793e-05
2.14793e-05
2.14792e-05
2.14791e-05
2.1479e-05
2.14789e-05
2.14797e-05
2.15939e-05
2.601e-05
2.60103e-05
2.15942e-05
2.14799e-05
2.1479e-05
2.14791e-05
2.14792e-05
2.14793e-05
2.14793e-05
2.14793e-05
2.14793e-05
2.14793e-05
2.14793e-05
2.14793e-05
2.14793e-05
2.14792e-05
2.14791e-05
2.1479e-05
2.14799e-05
2.15942e-05
2.60103e-05
0.000675171
0.000556284
0.000554134
0.000554993
0.000555294
0.000555412
0.000555452
0.000555466
0.00055547
0.000555472
0.000555473
0.000555474
0.000555472
0.000555459
0.000555417
0.000555297
0.000554992
0.00055413
0.000556278
0.000675157
4.15041e-05
2.88129e-05
2.84009e-05
2.8385e-05
2.83711e-05
2.83637e-05
2.83595e-05
2.83569e-05
2.83556e-05
2.83549e-05
2.83546e-05
2.83548e-05
2.83559e-05
2.83583e-05
2.83629e-05
2.83706e-05
2.83848e-05
2.84013e-05
2.88141e-05
4.15043e-05
2.43926e-05
2.12209e-05
2.10739e-05
2.10844e-05
2.10752e-05
2.10699e-05
2.10662e-05
2.10639e-05
2.10626e-05
2.10621e-05
2.10621e-05
2.10626e-05
2.10639e-05
2.10662e-05
2.107e-05
2.10752e-05
2.10845e-05
2.1074e-05
2.1221e-05
2.43926e-05
2.93482e-05
2.95457e-05
2.94537e-05
2.94475e-05
2.94382e-05
2.94322e-05
2.94281e-05
2.94254e-05
2.94239e-05
2.94232e-05
2.94233e-05
2.9424e-05
2.94256e-05
2.94283e-05
2.94324e-05
2.94384e-05
2.94476e-05
2.94538e-05
2.95458e-05
2.93482e-05
2.73057e-05
2.59951e-05
2.59463e-05
2.59622e-05
2.59639e-05
2.59621e-05
2.59594e-05
2.59571e-05
2.59555e-05
2.59548e-05
2.59548e-05
2.59557e-05
2.59574e-05
2.59597e-05
2.59624e-05
2.59642e-05
2.59624e-05
2.59464e-05
2.59952e-05
2.73056e-05
2.77688e-05
2.66722e-05
2.66035e-05
2.66045e-05
2.66043e-05
2.66033e-05
2.6602e-05
2.66008e-05
2.66001e-05
2.65997e-05
2.65997e-05
2.66002e-05
2.6601e-05
2.66021e-05
2.66034e-05
2.66044e-05
2.66046e-05
2.66035e-05
2.66721e-05
2.77688e-05
2.77555e-05
2.66677e-05
2.66054e-05
2.66078e-05
2.66089e-05
2.6609e-05
2.66085e-05
2.66077e-05
2.66067e-05
2.66064e-05
2.66064e-05
2.66068e-05
2.66076e-05
2.66086e-05
2.66091e-05
2.6609e-05
2.66079e-05
2.66054e-05
2.66677e-05
2.77555e-05
2.77551e-05
2.66572e-05
2.65928e-05
2.65944e-05
2.65956e-05
2.65961e-05
2.65961e-05
2.65962e-05
2.65962e-05
2.6596e-05
2.6596e-05
2.65963e-05
2.65965e-05
2.65961e-05
2.65961e-05
2.65957e-05
2.65944e-05
2.65927e-05
2.6657e-05
2.77551e-05
2.77576e-05
2.66586e-05
2.65929e-05
2.65942e-05
2.65954e-05
2.65962e-05
2.65965e-05
2.65968e-05
2.65978e-05
2.65978e-05
2.65978e-05
2.65978e-05
2.65971e-05
2.65965e-05
2.65962e-05
2.65954e-05
2.65941e-05
2.65928e-05
2.66584e-05
2.77576e-05
2.77583e-05
2.66602e-05
2.65943e-05
2.65951e-05
2.65962e-05
2.65969e-05
2.65973e-05
2.65974e-05
2.65971e-05
2.65971e-05
2.65971e-05
2.65971e-05
2.65972e-05
2.65973e-05
2.65969e-05
2.65961e-05
2.6595e-05
2.65942e-05
2.66601e-05
2.77582e-05
)
;

boundaryField
{
    aeration
    {
        type            fixedValue;
        value           uniform 3.75e-05;
    }
    xsides
    {
        type            kqRWallFunction;
        value           nonuniform List<scalar> 
100
(
0.000675176
4.15044e-05
2.43926e-05
2.93482e-05
2.73056e-05
2.77688e-05
2.77555e-05
2.77551e-05
2.77576e-05
2.77583e-05
0.00060825
4.40175e-05
2.46483e-05
2.64197e-05
2.58986e-05
2.60059e-05
2.60088e-05
2.60092e-05
2.601e-05
2.60103e-05
0.00061481
5.01762e-05
2.53545e-05
2.63079e-05
2.60161e-05
2.60758e-05
2.60797e-05
2.60803e-05
2.60808e-05
2.60811e-05
0.000608251
4.40175e-05
2.46483e-05
2.64197e-05
2.58987e-05
2.60059e-05
2.60088e-05
2.60092e-05
2.601e-05
2.60103e-05
0.000675171
4.15041e-05
2.43926e-05
2.93482e-05
2.73057e-05
2.77688e-05
2.77555e-05
2.77551e-05
2.77576e-05
2.77583e-05
0.000675152
4.1505e-05
2.43927e-05
2.93482e-05
2.73056e-05
2.77687e-05
2.77555e-05
2.77551e-05
2.77576e-05
2.77582e-05
0.000608226
4.40173e-05
2.46484e-05
2.64197e-05
2.58986e-05
2.60059e-05
2.60088e-05
2.60092e-05
2.601e-05
2.60103e-05
0.000614788
5.01755e-05
2.53546e-05
2.63079e-05
2.60161e-05
2.60758e-05
2.60797e-05
2.60803e-05
2.60808e-05
2.60811e-05
0.000608231
4.40171e-05
2.46483e-05
2.64197e-05
2.58986e-05
2.60059e-05
2.60087e-05
2.60092e-05
2.601e-05
2.60103e-05
0.000675157
4.15043e-05
2.43926e-05
2.93482e-05
2.73056e-05
2.77688e-05
2.77555e-05
2.77551e-05
2.77576e-05
2.77582e-05
)
;
    }
    zsides
    {
        type            kqRWallFunction;
        value           nonuniform List<scalar> 
400
(
0.000675176
4.15044e-05
2.43926e-05
2.93482e-05
2.73056e-05
2.77688e-05
2.77555e-05
2.77551e-05
2.77576e-05
2.77583e-05
0.000556285
2.88133e-05
2.12209e-05
2.95457e-05
2.59951e-05
2.66721e-05
2.66677e-05
2.66572e-05
2.66586e-05
2.66602e-05
0.000554136
2.84004e-05
2.10739e-05
2.94537e-05
2.59462e-05
2.66034e-05
2.66054e-05
2.65928e-05
2.65929e-05
2.65943e-05
0.000554995
2.83847e-05
2.10844e-05
2.94474e-05
2.59622e-05
2.66045e-05
2.66078e-05
2.65944e-05
2.65942e-05
2.65951e-05
0.000555296
2.83711e-05
2.10751e-05
2.94381e-05
2.59639e-05
2.66042e-05
2.66089e-05
2.65956e-05
2.65955e-05
2.65962e-05
0.000555414
2.83637e-05
2.10699e-05
2.94322e-05
2.5962e-05
2.66032e-05
2.66089e-05
2.65961e-05
2.65962e-05
2.65969e-05
0.000555455
2.83595e-05
2.10662e-05
2.9428e-05
2.59594e-05
2.66019e-05
2.66085e-05
2.65961e-05
2.65965e-05
2.65973e-05
0.000555468
2.83567e-05
2.10639e-05
2.94254e-05
2.59571e-05
2.66008e-05
2.66077e-05
2.65962e-05
2.65968e-05
2.65974e-05
0.000555473
2.83554e-05
2.10626e-05
2.94239e-05
2.59555e-05
2.66e-05
2.66067e-05
2.65962e-05
2.65978e-05
2.65971e-05
0.000555474
2.8355e-05
2.10621e-05
2.94232e-05
2.59547e-05
2.65997e-05
2.66064e-05
2.6596e-05
2.65978e-05
2.65972e-05
0.000555475
2.83548e-05
2.10621e-05
2.94232e-05
2.59548e-05
2.65997e-05
2.66064e-05
2.6596e-05
2.65978e-05
2.65972e-05
0.000555475
2.83552e-05
2.10627e-05
2.9424e-05
2.59556e-05
2.66001e-05
2.66068e-05
2.65963e-05
2.65978e-05
2.65971e-05
0.000555473
2.83561e-05
2.10639e-05
2.94256e-05
2.59573e-05
2.6601e-05
2.66076e-05
2.65965e-05
2.65971e-05
2.65972e-05
0.000555461
2.83585e-05
2.10662e-05
2.94283e-05
2.59597e-05
2.66021e-05
2.66086e-05
2.65961e-05
2.65965e-05
2.65973e-05
0.00055542
2.83626e-05
2.10699e-05
2.94324e-05
2.59623e-05
2.66034e-05
2.66091e-05
2.65961e-05
2.65962e-05
2.65969e-05
0.000555299
2.83706e-05
2.10752e-05
2.94383e-05
2.59641e-05
2.66044e-05
2.6609e-05
2.65957e-05
2.65954e-05
2.65962e-05
0.000554994
2.83849e-05
2.10845e-05
2.94476e-05
2.59624e-05
2.66046e-05
2.66078e-05
2.65944e-05
2.65941e-05
2.6595e-05
0.000554131
2.84015e-05
2.1074e-05
2.94538e-05
2.59463e-05
2.66035e-05
2.66053e-05
2.65927e-05
2.65929e-05
2.65942e-05
0.00055628
2.88142e-05
2.1221e-05
2.95458e-05
2.59951e-05
2.66721e-05
2.66677e-05
2.6657e-05
2.66584e-05
2.66601e-05
0.000675152
4.1505e-05
2.43927e-05
2.93482e-05
2.73056e-05
2.77687e-05
2.77555e-05
2.77551e-05
2.77576e-05
2.77582e-05
0.000675171
4.15041e-05
2.43926e-05
2.93482e-05
2.73057e-05
2.77688e-05
2.77555e-05
2.77551e-05
2.77576e-05
2.77583e-05
0.000556284
2.88129e-05
2.12209e-05
2.95457e-05
2.59951e-05
2.66722e-05
2.66677e-05
2.66572e-05
2.66586e-05
2.66602e-05
0.000554134
2.84009e-05
2.10739e-05
2.94537e-05
2.59463e-05
2.66035e-05
2.66054e-05
2.65928e-05
2.65929e-05
2.65943e-05
0.000554993
2.8385e-05
2.10844e-05
2.94475e-05
2.59622e-05
2.66045e-05
2.66078e-05
2.65944e-05
2.65942e-05
2.65951e-05
0.000555294
2.83711e-05
2.10752e-05
2.94382e-05
2.59639e-05
2.66043e-05
2.66089e-05
2.65956e-05
2.65954e-05
2.65962e-05
0.000555412
2.83637e-05
2.10699e-05
2.94322e-05
2.59621e-05
2.66033e-05
2.6609e-05
2.65961e-05
2.65962e-05
2.65969e-05
0.000555452
2.83595e-05
2.10662e-05
2.94281e-05
2.59594e-05
2.6602e-05
2.66085e-05
2.65961e-05
2.65965e-05
2.65973e-05
0.000555466
2.83569e-05
2.10639e-05
2.94254e-05
2.59571e-05
2.66008e-05
2.66077e-05
2.65962e-05
2.65968e-05
2.65974e-05
0.00055547
2.83556e-05
2.10626e-05
2.94239e-05
2.59555e-05
2.66001e-05
2.66067e-05
2.65962e-05
2.65978e-05
2.65971e-05
0.000555472
2.83549e-05
2.10621e-05
2.94232e-05
2.59548e-05
2.65997e-05
2.66064e-05
2.6596e-05
2.65978e-05
2.65971e-05
0.000555473
2.83546e-05
2.10621e-05
2.94233e-05
2.59548e-05
2.65997e-05
2.66064e-05
2.6596e-05
2.65978e-05
2.65971e-05
0.000555474
2.83548e-05
2.10626e-05
2.9424e-05
2.59557e-05
2.66002e-05
2.66068e-05
2.65963e-05
2.65978e-05
2.65971e-05
0.000555472
2.83559e-05
2.10639e-05
2.94256e-05
2.59574e-05
2.6601e-05
2.66076e-05
2.65965e-05
2.65971e-05
2.65972e-05
0.000555459
2.83583e-05
2.10662e-05
2.94283e-05
2.59597e-05
2.66021e-05
2.66086e-05
2.65961e-05
2.65965e-05
2.65973e-05
0.000555417
2.83629e-05
2.107e-05
2.94324e-05
2.59624e-05
2.66034e-05
2.66091e-05
2.65961e-05
2.65962e-05
2.65969e-05
0.000555297
2.83706e-05
2.10752e-05
2.94384e-05
2.59642e-05
2.66044e-05
2.6609e-05
2.65957e-05
2.65954e-05
2.65961e-05
0.000554992
2.83848e-05
2.10845e-05
2.94476e-05
2.59624e-05
2.66046e-05
2.66079e-05
2.65944e-05
2.65941e-05
2.6595e-05
0.00055413
2.84013e-05
2.1074e-05
2.94538e-05
2.59464e-05
2.66035e-05
2.66054e-05
2.65927e-05
2.65928e-05
2.65942e-05
0.000556278
2.88141e-05
2.1221e-05
2.95458e-05
2.59952e-05
2.66721e-05
2.66677e-05
2.6657e-05
2.66584e-05
2.66601e-05
0.000675157
4.15043e-05
2.43926e-05
2.93482e-05
2.73056e-05
2.77688e-05
2.77555e-05
2.77551e-05
2.77576e-05
2.77582e-05
)
;
    }
    outlet
    {
        type            inletOutlet;
        phi             phi.water;
        inletValue      uniform 3.75e-05;
        value           nonuniform List<scalar> 
100
(
2.77583e-05
2.60103e-05
2.60811e-05
2.60103e-05
2.77583e-05
2.66602e-05
2.15942e-05
2.12002e-05
2.15942e-05
2.66602e-05
2.65943e-05
2.14799e-05
2.10701e-05
2.14799e-05
2.65943e-05
2.65951e-05
2.1479e-05
2.10688e-05
2.1479e-05
2.65951e-05
2.65962e-05
2.14791e-05
2.10688e-05
2.14791e-05
2.65962e-05
2.65969e-05
2.14792e-05
2.10688e-05
2.14792e-05
2.65969e-05
2.65973e-05
2.14793e-05
2.10689e-05
2.14793e-05
2.65973e-05
2.65974e-05
2.14793e-05
2.10689e-05
2.14793e-05
2.65974e-05
2.65971e-05
2.14793e-05
2.10689e-05
2.14793e-05
2.65971e-05
2.65972e-05
2.14793e-05
2.10689e-05
2.14793e-05
2.65971e-05
2.65972e-05
2.14793e-05
2.10689e-05
2.14793e-05
2.65971e-05
2.65971e-05
2.14793e-05
2.10689e-05
2.14793e-05
2.65971e-05
2.65972e-05
2.14793e-05
2.10689e-05
2.14793e-05
2.65972e-05
2.65973e-05
2.14793e-05
2.10689e-05
2.14793e-05
2.65973e-05
2.65969e-05
2.14792e-05
2.10689e-05
2.14792e-05
2.65969e-05
2.65962e-05
2.14791e-05
2.10688e-05
2.14791e-05
2.65961e-05
2.6595e-05
2.1479e-05
2.10688e-05
2.1479e-05
2.6595e-05
2.65942e-05
2.14799e-05
2.10701e-05
2.14799e-05
2.65942e-05
2.66601e-05
2.15942e-05
2.12002e-05
2.15942e-05
2.66601e-05
2.77582e-05
2.60103e-05
2.60811e-05
2.60103e-05
2.77582e-05
)
;
    }
}


// ************************************************************************* //
