/*--------------------------------*- C++ -*----------------------------------*\
| =========                 |                                                 |
| \\      /  F ield         | OpenFOAM: The Open Source CFD Toolbox           |
|  \\    /   O peration     | Version:  2.3.0                                 |
|   \\  /    A nd           | Web:      www.OpenFOAM.org                      |
|    \\/     M anipulation  |                                                 |
\*---------------------------------------------------------------------------*/
FoamFile
{
    version     2.0;
    format      ascii;
    class       volScalarField;
    location    "4.09957";
    object      alpha.airMean;
}
// * * * * * * * * * * * * * * * * * * * * * * * * * * * * * * * * * * * * * //

dimensions      [0 0 0 0 0 0 0];

internalField   nonuniform List<scalar> 
1000
(
0.266143
0.227301
0.208633
0.207252
0.207364
0.211713
0.220288
0.244015
0.264382
0.26789
0.264252
0.254043
0.229276
0.201732
0.186212
0.177937
0.176767
0.181005
0.203118
0.258006
0.121121
0.0566705
0.0487063
0.043252
0.0387999
0.040481
0.0496884
0.0759909
0.118149
0.129656
0.106289
0.0814979
0.0574191
0.0365737
0.0311855
0.0300835
0.0326231
0.033972
0.0427491
0.113342
0.0768863
0.0421447
0.0341525
0.0221246
0.0176526
0.0223596
0.0292523
0.0498018
0.0882481
0.0929314
0.0748756
0.0572396
0.0360324
0.0234009
0.0141324
0.0114077
0.0140038
0.0197232
0.0257667
0.0694093
0.0627039
0.0363781
0.0220576
0.0109581
0.0113907
0.021832
0.0257782
0.0433576
0.074465
0.073673
0.0682226
0.0586478
0.0357513
0.026008
0.014023
0.00748612
0.00328147
0.00919553
0.018661
0.0576347
0.0507367
0.0253129
0.016815
0.00924026
0.0141976
0.0211118
0.0200568
0.0350916
0.0617645
0.0599516
0.0632097
0.0602618
0.0358777
0.0274624
0.0184254
0.00913965
0.00278638
0.00661101
0.0124925
0.0493787
0.0421711
0.0178951
0.0159781
0.0156838
0.0185299
0.0191143
0.017562
0.0308958
0.0525926
0.0496049
0.0580107
0.0610283
0.0400916
0.0316022
0.0233077
0.0164743
0.00738995
0.0073636
0.0121161
0.0450174
0.0363039
0.0160721
0.016086
0.0213497
0.0178293
0.0169286
0.0164441
0.0289153
0.0462802
0.0431855
0.049492
0.0567107
0.0419177
0.0355841
0.0273697
0.0232432
0.0126681
0.00825443
0.012556
0.0415589
0.0318233
0.0146956
0.0148087
0.0210481
0.0155002
0.0148749
0.015215
0.0278348
0.0419442
0.0393344
0.0406499
0.0484173
0.0400813
0.0368573
0.0291386
0.0242561
0.0136084
0.00837645
0.0127149
0.0384757
0.0284536
0.013558
0.0116254
0.0186306
0.0131177
0.0132203
0.0145079
0.026256
0.0381514
0.0378144
0.0353759
0.0425859
0.0358738
0.035913
0.0289508
0.0242144
0.00854954
0.00695998
0.0128131
0.0356602
0.0253925
0.0125799
0.0092135
0.00902061
0.00987228
0.0112921
0.0132723
0.0248152
0.0322941
0.0332592
0.0323071
0.0377694
0.0300621
0.0330819
0.0270177
0.0200968
0.00251454
0.002238
0.0128853
0.0332618
0.215215
0.189343
0.185682
0.194415
0.201415
0.204565
0.213975
0.230635
0.246326
0.243962
0.244486
0.245912
0.231063
0.199323
0.189216
0.181742
0.177959
0.174621
0.18598
0.224414
0.0884937
0.07019
0.0702408
0.065633
0.065436
0.0721505
0.08227
0.0994939
0.113916
0.112615
0.114028
0.0941243
0.0823648
0.0651139
0.0648984
0.0588637
0.0590515
0.0618473
0.0622334
0.0929779
0.0461328
0.0463001
0.0487768
0.0443082
0.0438906
0.0474431
0.0570614
0.072757
0.0865913
0.081277
0.0793102
0.0641574
0.0518417
0.0422689
0.0385786
0.0380172
0.0369737
0.0400198
0.0350578
0.0484048
0.0367328
0.0399564
0.0274102
0.0236768
0.0300615
0.0381757
0.0487305
0.0671144
0.0788442
0.0633246
0.0710649
0.0664759
0.0523425
0.0400952
0.0305537
0.0226882
0.0119787
0.0170238
0.0309582
0.039569
0.0264993
0.0271368
0.0135805
0.0138153
0.0257159
0.0332893
0.0404635
0.061022
0.0705243
0.0546578
0.0595357
0.0642099
0.0531759
0.0381021
0.0278386
0.0186419
0.00641985
0.00624577
0.0131019
0.0314509
0.0201874
0.0100509
0.0133111
0.0218729
0.0264541
0.0303474
0.0362769
0.0553825
0.0615851
0.0497334
0.0557332
0.058975
0.0513328
0.0400686
0.0305958
0.0242039
0.0134486
0.00604911
0.00752795
0.0286572
0.0177989
0.00855733
0.0152904
0.0280207
0.0258229
0.0278463
0.0336422
0.0500419
0.0518674
0.0455992
0.0528172
0.0570384
0.049304
0.0407661
0.0323629
0.0286524
0.0207147
0.00710158
0.00778904
0.0268855
0.0159702
0.00796029
0.0133284
0.0274477
0.0235229
0.0255614
0.0312098
0.0448409
0.0456056
0.0436059
0.0491581
0.0554201
0.0471367
0.0407031
0.0320598
0.0282798
0.0216057
0.00677127
0.00793844
0.0252143
0.0147863
0.00746605
0.00877264
0.023725
0.0204277
0.0231916
0.0283396
0.0391645
0.0381509
0.0414448
0.0466341
0.0530172
0.0444934
0.0397982
0.0305729
0.0271249
0.0157618
0.00423431
0.0081868
0.0237874
0.0135116
0.00691838
0.00577141
0.0148437
0.0171153
0.0206907
0.0251323
0.033631
0.0286257
0.0373449
0.0449296
0.05034
0.0404246
0.0381248
0.028729
0.0243408
0.00434014
0.000715611
0.0083614
0.0225695
0.211071
0.193251
0.1948
0.208543
0.218265
0.228721
0.232267
0.250679
0.269428
0.26653
0.262773
0.272171
0.246035
0.220962
0.211788
0.201266
0.194076
0.188645
0.194419
0.223261
0.0836618
0.0911329
0.0948129
0.0941976
0.0929622
0.109128
0.115735
0.132038
0.145516
0.136695
0.145044
0.131316
0.111679
0.104862
0.0976341
0.0881008
0.0882904
0.0889322
0.0830106
0.089988
0.0329104
0.0591152
0.063021
0.0625056
0.0603821
0.0702407
0.0796748
0.0960314
0.108986
0.0919595
0.100979
0.094633
0.0763204
0.0695809
0.0621131
0.0567653
0.0567878
0.0553263
0.0500472
0.0380161
0.025816
0.0463464
0.0348329
0.0398683
0.0449511
0.0562415
0.0677986
0.0852972
0.0989919
0.0781437
0.0830132
0.0866641
0.0696529
0.0589611
0.0468652
0.0392122
0.0260423
0.0237332
0.0373416
0.0300204
0.0158049
0.0300852
0.0106982
0.0180475
0.034117
0.0456178
0.0573781
0.0782605
0.091549
0.0654515
0.0696658
0.0803617
0.0673599
0.0541557
0.0376019
0.0270274
0.00860323
0.00520719
0.0159546
0.0216017
0.00948598
0.00548447
0.00960968
0.020116
0.0318599
0.0410606
0.0515679
0.0723312
0.0825174
0.0602186
0.063527
0.0705428
0.0608267
0.0520801
0.0381932
0.0272714
0.0149425
0.00391481
0.00351997
0.018638
0.00825912
0.0038725
0.0119196
0.0281051
0.030341
0.0380183
0.0474366
0.0666743
0.0687126
0.0548476
0.0600114
0.0661644
0.0551886
0.0489626
0.0381009
0.0295963
0.0223933
0.00502439
0.0035966
0.0175691
0.00741918
0.00360653
0.00986511
0.028738
0.028014
0.0354932
0.0436967
0.0601297
0.0595531
0.0518278
0.0581127
0.0638114
0.0519714
0.0454847
0.0359607
0.0289721
0.0235784
0.00480653
0.00382201
0.0164914
0.00685996
0.00332865
0.00510026
0.0245564
0.0247762
0.0324762
0.0393146
0.0519979
0.0483292
0.0488722
0.0571171
0.0617178
0.0495837
0.0424907
0.0330071
0.0273416
0.01963
0.00254831
0.00405756
0.0155569
0.00622468
0.00313101
0.00245722
0.0170298
0.0213861
0.0295273
0.0348557
0.0441662
0.0359379
0.0448186
0.0563964
0.060002
0.0465113
0.0399054
0.0303173
0.0245139
0.00673241
0.000424006
0.0042869
0.0146986
0.215016
0.18891
0.18515
0.196182
0.201131
0.206046
0.214104
0.230748
0.244716
0.245033
0.245388
0.247911
0.23034
0.198454
0.188106
0.179818
0.178991
0.17464
0.186019
0.224428
0.0884557
0.0698802
0.0699189
0.0658541
0.0648397
0.0724143
0.0818619
0.101542
0.1114
0.11256
0.112199
0.0946558
0.0821489
0.0654252
0.0649613
0.058063
0.0592548
0.0619043
0.0621771
0.0930442
0.0459582
0.0461877
0.0487791
0.043264
0.0431583
0.0468533
0.0566303
0.0732828
0.0868787
0.0806356
0.0783048
0.0648429
0.0519089
0.0425139
0.038986
0.0383877
0.0366827
0.0400309
0.0350196
0.0484711
0.036414
0.0399076
0.0272156
0.0237281
0.0301504
0.0380209
0.0484987
0.0671445
0.0787932
0.0629776
0.0703545
0.0664455
0.052122
0.0401791
0.0307152
0.0228297
0.01205
0.0170465
0.0309617
0.0396232
0.0261172
0.027025
0.013418
0.0137334
0.025843
0.0332354
0.0403539
0.0609424
0.0697699
0.0541845
0.0592707
0.0649286
0.0533658
0.0379889
0.0278457
0.0186557
0.00650676
0.00630778
0.0131057
0.0314956
0.0197912
0.009886
0.0130969
0.0218678
0.0265346
0.0303258
0.0362017
0.0552286
0.0607418
0.0495268
0.0532062
0.0565359
0.0510734
0.0401115
0.0307831
0.0242764
0.0136006
0.00616383
0.00753661
0.0286945
0.0174059
0.00841378
0.0152054
0.0280547
0.0258574
0.0278345
0.0335626
0.0498418
0.0511503
0.0454239
0.0505377
0.0535822
0.0460481
0.0396595
0.0321569
0.0288518
0.0209663
0.00727004
0.00781104
0.0269195
0.0155877
0.00784516
0.0132504
0.027457
0.0235314
0.0255496
0.0311279
0.0446112
0.0450117
0.0434069
0.0479206
0.0521607
0.0431413
0.0377647
0.0306647
0.0279208
0.0217192
0.00694523
0.00797334
0.0252477
0.0144101
0.00735899
0.00870815
0.0237381
0.0204294
0.023176
0.0282584
0.0389396
0.0376723
0.0412752
0.0460302
0.0512839
0.0415179
0.0368115
0.0285305
0.0261796
0.0155445
0.00433338
0.00822191
0.0238157
0.013145
0.00682238
0.00571457
0.0148556
0.0171157
0.0206653
0.0250292
0.0334206
0.0282591
0.0372261
0.0445327
0.0503051
0.039229
0.0366027
0.0270714
0.0232636
0.00398126
0.000755963
0.00837805
0.0225964
0.265165
0.225509
0.20689
0.205729
0.205755
0.209969
0.218584
0.242342
0.263181
0.267634
0.265069
0.255833
0.230195
0.202704
0.186998
0.178594
0.177159
0.181281
0.203424
0.258353
0.119763
0.0552802
0.047788
0.0420864
0.0380372
0.0400115
0.0494067
0.0756189
0.117584
0.129674
0.106288
0.0826064
0.0583986
0.0367455
0.0312436
0.0300289
0.0325401
0.0339589
0.0426767
0.113629
0.0756851
0.0419777
0.0340503
0.0217182
0.0174901
0.0222457
0.0290728
0.0495784
0.0880394
0.093209
0.0753449
0.0575792
0.0362802
0.0234218
0.0141206
0.0113632
0.01384
0.0197005
0.0256992
0.0696636
0.0616898
0.036281
0.0219524
0.0109495
0.0114429
0.0218361
0.0257234
0.0432161
0.0742631
0.0738588
0.0687366
0.059498
0.0359037
0.0259328
0.0140018
0.00748151
0.00324449
0.00916755
0.0186305
0.0578624
0.0498561
0.0252513
0.0168134
0.00925692
0.0141841
0.0211499
0.0200372
0.034984
0.0616482
0.0603066
0.0633444
0.0617003
0.0369382
0.0277576
0.0184784
0.00912951
0.00274264
0.00658408
0.0124768
0.0495868
0.0414183
0.0178713
0.0160231
0.0157245
0.0185554
0.0191529
0.0175591
0.0308088
0.0525856
0.0502647
0.0584808
0.0605045
0.0403611
0.0319408
0.0236021
0.0166078
0.00734726
0.00733366
0.0121087
0.045213
0.035651
0.0160574
0.0161312
0.0213989
0.0178516
0.0169616
0.0164355
0.0288544
0.0463369
0.0437274
0.0511797
0.0574628
0.0416778
0.0353985
0.0273778
0.023291
0.0125819
0.0082097
0.0125486
0.0417442
0.0312464
0.0146772
0.0148435
0.0211027
0.0155232
0.0149021
0.0151983
0.0278022
0.0420352
0.0397431
0.0424271
0.0499629
0.0402185
0.036488
0.0287469
0.0238915
0.0133742
0.0083005
0.0127001
0.0386556
0.0279326
0.0135306
0.011663
0.0187013
0.0131387
0.0132419
0.0144885
0.0262555
0.0382444
0.0382186
0.0367766
0.0446038
0.0371186
0.0355905
0.0282647
0.0235443
0.00804549
0.00682462
0.0128017
0.0358401
0.0249323
0.0125494
0.0092494
0.00903733
0.00987508
0.0113017
0.0132291
0.0248235
0.0323792
0.0336306
0.0331392
0.0395683
0.0309464
0.0327015
0.0260342
0.0191068
0.00192251
0.00213064
0.0128829
0.0334365
)
;

boundaryField
{
    aeration
    {
        type            calculated;
        value           uniform 0.5;
    }
    xsides
    {
        type            calculated;
        value           nonuniform List<scalar> 
100
(
0.266143
0.121121
0.0768863
0.0627039
0.0507367
0.0421711
0.0363039
0.0318233
0.0284536
0.0253925
0.215215
0.0884937
0.0461328
0.0367328
0.0264993
0.0201874
0.0177989
0.0159702
0.0147863
0.0135116
0.211071
0.0836618
0.0329104
0.025816
0.0158049
0.00948598
0.00825912
0.00741918
0.00685996
0.00622468
0.215016
0.0884557
0.0459582
0.036414
0.0261172
0.0197912
0.0174059
0.0155877
0.0144101
0.013145
0.265165
0.119763
0.0756851
0.0616898
0.0498561
0.0414183
0.035651
0.0312464
0.0279326
0.0249323
0.258006
0.113342
0.0694093
0.0576347
0.0493787
0.0450174
0.0415589
0.0384757
0.0356602
0.0332618
0.224414
0.0929779
0.0484048
0.039569
0.0314509
0.0286572
0.0268855
0.0252143
0.0237874
0.0225695
0.223261
0.089988
0.0380161
0.0300204
0.0216017
0.018638
0.0175691
0.0164914
0.0155569
0.0146986
0.224428
0.0930442
0.0484711
0.0396232
0.0314956
0.0286945
0.0269195
0.0252477
0.0238157
0.0225964
0.258353
0.113629
0.0696636
0.0578624
0.0495868
0.045213
0.0417442
0.0386556
0.0358401
0.0334365
)
;
    }
    zsides
    {
        type            calculated;
        value           nonuniform List<scalar> 
400
(
0.266143
0.121121
0.0768863
0.0627039
0.0507367
0.0421711
0.0363039
0.0318233
0.0284536
0.0253925
0.227301
0.0566705
0.0421447
0.0363781
0.0253129
0.0178951
0.0160721
0.0146956
0.013558
0.0125799
0.208633
0.0487063
0.0341525
0.0220576
0.016815
0.0159781
0.016086
0.0148087
0.0116254
0.0092135
0.207252
0.043252
0.0221246
0.0109581
0.00924026
0.0156838
0.0213497
0.0210481
0.0186306
0.00902061
0.207364
0.0387999
0.0176526
0.0113907
0.0141976
0.0185299
0.0178293
0.0155002
0.0131177
0.00987228
0.211713
0.040481
0.0223596
0.021832
0.0211118
0.0191143
0.0169286
0.0148749
0.0132203
0.0112921
0.220288
0.0496884
0.0292523
0.0257782
0.0200568
0.017562
0.0164441
0.015215
0.0145079
0.0132723
0.244015
0.0759909
0.0498018
0.0433576
0.0350916
0.0308958
0.0289153
0.0278348
0.026256
0.0248152
0.264382
0.118149
0.0882481
0.074465
0.0617645
0.0525926
0.0462802
0.0419442
0.0381514
0.0322941
0.26789
0.129656
0.0929314
0.073673
0.0599516
0.0496049
0.0431855
0.0393344
0.0378144
0.0332592
0.264252
0.106289
0.0748756
0.0682226
0.0632097
0.0580107
0.049492
0.0406499
0.0353759
0.0323071
0.254043
0.0814979
0.0572396
0.0586478
0.0602618
0.0610283
0.0567107
0.0484173
0.0425859
0.0377694
0.229276
0.0574191
0.0360324
0.0357513
0.0358777
0.0400916
0.0419177
0.0400813
0.0358738
0.0300621
0.201732
0.0365737
0.0234009
0.026008
0.0274624
0.0316022
0.0355841
0.0368573
0.035913
0.0330819
0.186212
0.0311855
0.0141324
0.014023
0.0184254
0.0233077
0.0273697
0.0291386
0.0289508
0.0270177
0.177937
0.0300835
0.0114077
0.00748612
0.00913965
0.0164743
0.0232432
0.0242561
0.0242144
0.0200968
0.176767
0.0326231
0.0140038
0.00328147
0.00278638
0.00738995
0.0126681
0.0136084
0.00854954
0.00251454
0.181005
0.033972
0.0197232
0.00919553
0.00661101
0.0073636
0.00825443
0.00837645
0.00695998
0.002238
0.203118
0.0427491
0.0257667
0.018661
0.0124925
0.0121161
0.012556
0.0127149
0.0128131
0.0128853
0.258006
0.113342
0.0694093
0.0576347
0.0493787
0.0450174
0.0415589
0.0384757
0.0356602
0.0332618
0.265165
0.119763
0.0756851
0.0616898
0.0498561
0.0414183
0.035651
0.0312464
0.0279326
0.0249323
0.225509
0.0552802
0.0419777
0.036281
0.0252513
0.0178713
0.0160574
0.0146772
0.0135306
0.0125494
0.20689
0.047788
0.0340503
0.0219524
0.0168134
0.0160231
0.0161312
0.0148435
0.011663
0.0092494
0.205729
0.0420864
0.0217182
0.0109495
0.00925692
0.0157245
0.0213989
0.0211027
0.0187013
0.00903733
0.205755
0.0380372
0.0174901
0.0114429
0.0141841
0.0185554
0.0178516
0.0155232
0.0131387
0.00987508
0.209969
0.0400115
0.0222457
0.0218361
0.0211499
0.0191529
0.0169616
0.0149021
0.0132419
0.0113017
0.218584
0.0494067
0.0290728
0.0257234
0.0200372
0.0175591
0.0164355
0.0151983
0.0144885
0.0132291
0.242342
0.0756189
0.0495784
0.0432161
0.034984
0.0308088
0.0288544
0.0278022
0.0262555
0.0248235
0.263181
0.117584
0.0880394
0.0742631
0.0616482
0.0525856
0.0463369
0.0420352
0.0382444
0.0323792
0.267634
0.129674
0.093209
0.0738588
0.0603066
0.0502647
0.0437274
0.0397431
0.0382186
0.0336306
0.265069
0.106288
0.0753449
0.0687366
0.0633444
0.0584808
0.0511797
0.0424271
0.0367766
0.0331392
0.255833
0.0826064
0.0575792
0.059498
0.0617003
0.0605045
0.0574628
0.0499629
0.0446038
0.0395683
0.230195
0.0583986
0.0362802
0.0359037
0.0369382
0.0403611
0.0416778
0.0402185
0.0371186
0.0309464
0.202704
0.0367455
0.0234218
0.0259328
0.0277576
0.0319408
0.0353985
0.036488
0.0355905
0.0327015
0.186998
0.0312436
0.0141206
0.0140018
0.0184784
0.0236021
0.0273778
0.0287469
0.0282647
0.0260342
0.178594
0.0300289
0.0113632
0.00748151
0.00912951
0.0166078
0.023291
0.0238915
0.0235443
0.0191068
0.177159
0.0325401
0.01384
0.00324449
0.00274264
0.00734726
0.0125819
0.0133742
0.00804549
0.00192251
0.181281
0.0339589
0.0197005
0.00916755
0.00658408
0.00733366
0.0082097
0.0083005
0.00682462
0.00213064
0.203424
0.0426767
0.0256992
0.0186305
0.0124768
0.0121087
0.0125486
0.0127001
0.0128017
0.0128829
0.258353
0.113629
0.0696636
0.0578624
0.0495868
0.045213
0.0417442
0.0386556
0.0358401
0.0334365
)
;
    }
    outlet
    {
        type            calculated;
        value           nonuniform List<scalar> 
100
(
0.0253925
0.0135116
0.00622468
0.013145
0.0249323
0.0125798
0.00691826
0.00313098
0.00682227
0.0125494
0.00910009
0.00559207
0.00224011
0.00553524
0.00913613
0.00697309
0.0135437
0.0159702
0.0135475
0.00695675
0.0096186
0.0168832
0.0211457
0.0168839
0.00962148
0.0111758
0.0205348
0.029321
0.0205096
0.0111856
0.0132114
0.0250442
0.0347039
0.0249406
0.0131685
0.0247571
0.0335588
0.0440804
0.0333501
0.0247621
0.0319911
0.0274346
0.0339925
0.0270621
0.0320702
0.033106
0.0372598
0.0447792
0.03713
0.0334607
0.0321156
0.0447546
0.0563379
0.0443226
0.0329435
0.0373404
0.0499829
0.0598635
0.05
0.0394424
0.0295045
0.0397031
0.0451397
0.0385458
0.0305502
0.0328796
0.0376751
0.0389928
0.0361765
0.0325014
0.0266477
0.0281289
0.0293975
0.0264714
0.025645
0.0192327
0.0232391
0.0233064
0.0221445
0.0182508
0.00223774
0.0018337
0.00102489
0.00145178
0.00165842
0.00136833
0.000201983
0.000203025
0.000237636
0.0012779
0.0122203
0.00797828
0.00410981
0.00798872
0.012215
0.0332618
0.0225695
0.0146986
0.0225964
0.0334365
)
;
    }
}


// ************************************************************************* //
