/*--------------------------------*- C++ -*----------------------------------*\
| =========                 |                                                 |
| \\      /  F ield         | OpenFOAM: The Open Source CFD Toolbox           |
|  \\    /   O peration     | Version:  2.3.0                                 |
|   \\  /    A nd           | Web:      www.OpenFOAM.org                      |
|    \\/     M anipulation  |                                                 |
\*---------------------------------------------------------------------------*/
FoamFile
{
    version     2.0;
    format      ascii;
    class       volScalarField;
    location    "4.09957";
    object      nut.air;
}
// * * * * * * * * * * * * * * * * * * * * * * * * * * * * * * * * * * * * * //

dimensions      [0 2 -1 0 0 0 0];

internalField   nonuniform List<scalar> 
1000
(
2.16516e-07
1.98414e-07
1.87553e-07
1.84217e-07
1.81213e-07
1.65445e-07
1.42783e-07
9.62452e-08
6.61155e-08
7.06191e-08
2.68757e-26
8.86839e-32
5.51344e-31
1.34568e-07
9.75587e-08
7.56273e-08
8.41613e-08
1.40545e-07
1.06194e-07
1.48402e-07
2.02233e-07
1.16426e-07
1.12488e-07
1.17458e-07
1.16674e-07
9.99354e-08
2.46064e-07
3.60078e-07
1.78729e-17
1.67399e-30
4.0869e-31
9.63417e-32
5.56765e-32
1.17789e-07
2.77968e-07
3.87773e-07
4.90855e-07
1.33554e-06
3.0371e-06
1.72868e-07
1.85846e-07
2.02388e-07
2.14869e-07
2.19666e-07
4.94188e-07
6.94316e-07
7.67957e-07
7.60646e-07
5.84453e-07
1.30093e-30
8.7158e-31
1.42802e-31
6.26869e-32
4.36666e-08
3.09397e-07
3.3788e-07
2.82123e-07
1.10564e-06
3.15415e-06
1.88794e-07
1.83963e-07
6.0652e-07
6.68623e-07
6.84366e-07
6.96806e-07
7.10063e-07
6.97831e-07
6.84303e-07
5.16734e-07
2.35812e-29
2.01121e-31
1.42437e-31
5.10984e-08
4.45796e-08
1.34946e-07
3.16244e-07
1.74726e-07
6.71766e-07
2.38611e-06
2.02043e-07
1.86133e-07
6.21785e-07
6.24453e-07
6.71078e-07
6.79413e-07
6.89918e-07
6.36363e-07
6.3619e-07
5.7223e-07
2.34985e-07
1.47067e-31
1.55786e-31
2.21926e-32
1.95296e-08
3.55944e-08
1.28321e-07
1.23784e-07
3.22944e-07
1.59723e-06
2.03489e-07
1.89308e-07
6.5943e-07
5.67846e-07
6.07409e-07
6.20239e-07
6.23902e-07
5.60854e-07
5.28247e-07
4.84301e-07
3.26559e-07
3.78708e-23
1.14293e-07
1.97556e-08
3.46273e-08
3.45152e-08
5.83115e-08
9.76956e-08
1.45164e-07
7.20199e-07
2.0179e-07
1.8969e-07
7.27825e-07
4.54448e-07
3.65237e-07
5.04018e-07
5.32422e-07
4.94328e-07
4.64789e-07
4.90681e-07
5.33051e-07
4.39889e-07
1.59914e-07
1.44901e-07
1.16781e-07
8.75137e-08
6.14222e-08
8.07464e-08
9.92208e-08
4.72275e-07
1.97865e-07
1.82448e-07
5.39351e-07
2.09562e-07
1.38883e-07
3.90868e-07
4.13199e-07
4.03543e-07
3.85822e-07
3.58164e-07
3.5287e-07
3.64851e-07
3.48608e-07
1.86321e-07
1.80455e-07
1.73488e-07
1.37848e-07
1.06515e-07
9.72098e-08
3.41158e-07
1.91423e-07
1.69087e-07
3.65987e-07
1.2315e-07
1.11528e-07
2.74722e-07
3.0188e-07
3.0908e-07
2.85094e-07
2.75248e-07
2.80677e-07
2.87562e-07
2.61809e-07
2.36044e-07
2.13415e-07
2.06066e-07
1.93283e-07
1.52949e-07
1.05768e-07
2.85277e-07
1.85094e-07
1.67828e-07
2.23466e-07
1.08077e-07
1.42602e-07
1.41653e-07
1.52263e-07
1.54224e-07
1.47564e-07
1.33872e-07
1.2276e-07
1.34041e-07
1.36435e-07
8.77495e-08
2.40572e-07
2.16683e-07
2.07452e-07
1.64325e-07
6.60003e-08
1.9061e-07
1.63662e-07
6.59912e-08
1.25783e-07
1.21085e-07
1.20196e-07
1.20045e-07
1.10643e-07
9.55931e-08
7.37927e-08
7.13629e-08
8.03856e-08
6.39476e-08
5.62964e-08
4.92692e-08
9.2992e-08
7.4754e-08
7.99448e-08
9.72234e-08
1.56867e-07
1.43927e-07
9.86405e-08
5.00543e-08
1.03496e-07
9.52009e-08
9.79093e-08
1.34126e-07
2.83679e-07
4.61066e-07
5.31744e-07
3.25023e-07
2.25765e-07
1.80564e-07
1.34792e-08
2.98488e-08
9.96114e-08
2.63337e-07
2.87471e-07
3.62041e-07
1.23636e-06
3.29624e-06
1.31352e-07
3.34009e-08
5.28742e-07
5.24822e-07
5.18478e-07
6.42697e-07
6.93215e-07
7.37639e-07
6.75295e-07
5.17012e-07
2.1082e-07
1.15103e-07
1.13559e-08
1.31601e-08
4.90056e-08
2.35311e-07
2.16388e-07
2.00909e-07
8.99063e-07
3.87763e-06
1.75811e-07
2.61285e-08
8.63141e-07
6.71678e-07
6.76136e-07
6.85226e-07
6.84058e-07
6.15643e-07
5.5576e-07
4.30265e-07
2.44166e-07
8.81857e-08
5.40237e-09
1.10621e-08
2.83506e-08
1.26416e-07
2.01963e-07
1.25409e-07
4.9541e-07
3.60851e-06
2.04769e-07
2.31163e-08
9.65938e-07
6.33956e-07
6.34967e-07
6.25039e-07
6.13399e-07
5.44087e-07
5.02232e-07
4.1595e-07
2.91592e-07
8.66642e-08
4.96329e-08
1.26107e-08
1.53262e-08
4.81058e-08
1.20237e-07
9.49306e-08
2.08548e-07
2.7931e-06
1.97504e-07
2.08361e-08
1.08601e-06
5.45895e-07
4.9822e-07
5.17261e-07
5.10118e-07
4.46752e-07
3.90488e-07
3.49853e-07
3.51721e-07
2.31103e-07
2.02337e-07
6.68388e-08
2.60734e-08
3.18728e-08
6.28799e-08
7.95511e-08
8.72012e-08
1.19619e-06
1.88293e-07
1.78424e-08
1.31708e-06
3.78846e-07
2.82229e-07
3.7702e-07
3.89257e-07
3.64194e-07
3.36618e-07
3.41243e-07
3.78093e-07
3.93781e-07
2.16337e-07
2.33397e-07
1.22172e-07
5.56036e-08
4.49302e-08
6.32322e-08
6.87165e-08
4.23261e-07
1.77539e-07
2.1138e-22
6.66489e-07
2.25082e-07
2.17834e-07
2.57476e-07
2.68552e-07
2.66569e-07
2.52482e-07
2.40139e-07
2.74951e-07
3.62701e-07
3.64858e-07
3.51092e-07
1.95487e-07
1.46342e-07
8.44898e-08
7.89889e-08
6.52514e-08
2.17797e-07
1.60121e-07
2.63993e-32
4.40692e-07
1.58095e-07
1.99399e-07
1.76893e-07
1.9342e-07
2.04273e-07
2.00092e-07
2.12393e-07
2.60467e-07
3.48828e-07
3.1562e-07
2.26114e-07
2.01947e-07
1.71692e-07
1.49102e-07
1.23679e-07
7.66243e-08
1.68546e-07
1.5798e-07
2.72736e-32
2.52098e-07
1.17326e-07
1.62125e-07
1.55555e-07
1.6487e-07
1.68253e-07
1.74583e-07
1.94474e-07
2.06202e-07
3.49505e-07
1.78679e-07
1.5313e-07
2.39692e-07
1.83822e-07
1.59019e-07
1.29352e-07
5.20668e-08
1.87207e-07
9.97097e-08
4.25548e-08
1.17117e-07
1.14081e-07
1.1489e-07
1.1365e-07
1.01104e-07
8.3204e-08
6.8648e-08
6.50653e-08
6.38774e-08
6.04339e-08
5.4719e-08
6.30604e-08
8.94236e-08
7.9867e-08
8.8217e-08
1.06423e-07
1.6658e-07
1.7007e-07
9.94387e-08
2.24003e-08
2.39262e-07
2.03402e-07
2.36774e-07
3.36746e-07
4.6169e-07
5.78309e-07
6.04325e-07
4.15975e-07
2.45013e-07
2.45163e-07
3.2106e-08
3.89366e-08
9.68761e-08
2.53694e-07
2.57878e-07
3.17763e-07
1.12027e-06
3.64671e-06
1.29794e-07
1.42555e-21
7.05944e-07
6.6255e-07
6.45781e-07
6.96752e-07
7.20782e-07
7.41647e-07
6.29702e-07
4.67096e-07
2.26795e-07
1.92477e-07
2.70699e-08
2.70451e-08
6.33467e-08
2.28145e-07
1.98622e-07
1.73162e-07
7.03179e-07
4.52798e-06
1.86295e-07
1.20557e-31
8.70089e-07
6.96524e-07
6.9334e-07
6.9455e-07
6.83673e-07
5.90304e-07
4.93639e-07
3.62349e-07
2.33991e-07
1.67999e-07
2.19978e-08
1.92557e-08
3.4153e-08
1.32851e-07
1.78266e-07
1.05452e-07
3.6851e-07
4.47688e-06
2.22983e-07
1.35529e-31
9.81639e-07
6.53997e-07
6.3027e-07
6.09858e-07
5.89829e-07
5.17341e-07
4.41498e-07
3.36933e-07
2.39841e-07
2.22633e-07
7.52281e-08
2.82806e-08
3.06224e-08
7.17751e-08
1.21074e-07
7.30563e-08
1.63345e-07
3.12388e-06
2.10892e-07
1.45922e-31
1.09394e-06
5.61285e-07
4.8873e-07
4.76557e-07
4.56708e-07
3.94706e-07
3.32737e-07
2.90958e-07
2.57153e-07
3.52255e-07
5.01747e-07
1.05223e-07
4.28677e-08
4.68951e-08
6.34109e-08
6.02692e-08
6.79962e-08
1.14875e-06
1.99222e-07
1.46596e-31
1.37326e-06
4.35794e-07
3.1536e-07
3.04802e-07
3.12819e-07
2.98706e-07
2.79006e-07
2.71338e-07
2.42904e-07
2.40873e-07
3.3306e-07
8.81533e-07
1.57386e-07
6.15428e-08
4.45689e-08
5.03162e-08
5.39502e-08
2.9158e-07
1.84208e-07
1.49702e-31
8.78852e-07
3.06701e-07
2.29101e-07
1.98171e-07
2.0822e-07
2.11287e-07
2.03252e-07
2.02426e-07
2.01889e-07
2.48636e-07
2.42808e-07
6.14711e-07
3.79115e-07
1.5892e-07
6.68615e-08
5.79517e-08
4.94637e-08
1.56369e-07
1.5957e-07
2.07992e-31
6.31871e-07
2.32931e-07
1.83519e-07
1.66561e-07
1.73671e-07
1.79763e-07
1.82817e-07
1.92577e-07
1.98856e-07
2.56362e-07
2.31435e-07
1.2604e-07
5.37019e-07
2.00215e-07
1.25102e-07
9.30075e-08
6.37348e-08
1.39993e-07
1.5828e-07
2.40692e-31
4.46296e-07
2.08482e-07
1.72939e-07
1.66035e-07
1.67902e-07
1.70086e-07
1.76804e-07
1.75577e-07
1.75982e-07
1.97627e-07
1.734e-07
1.6656e-07
5.57891e-07
2.14687e-07
1.44534e-07
1.14411e-07
5.7138e-08
5.04147e-07
6.14515e-23
6.95811e-08
1.28564e-07
1.24066e-07
1.2392e-07
1.22617e-07
1.09499e-07
8.96818e-08
6.83869e-08
6.49577e-08
7.19946e-08
6.01064e-08
5.65937e-08
4.94917e-08
9.31608e-08
7.4958e-08
7.98972e-08
9.72195e-08
1.567e-07
1.43939e-07
9.85949e-08
4.97724e-08
1.23789e-07
1.15164e-07
1.23056e-07
2.17355e-07
3.48948e-07
4.97354e-07
5.388e-07
3.20319e-07
2.0406e-07
1.7037e-07
1.40416e-08
3.02028e-08
1.00211e-07
2.5245e-07
2.75175e-07
3.42373e-07
1.15503e-06
3.23004e-06
1.31027e-07
3.2804e-08
6.55746e-07
6.30532e-07
6.11731e-07
6.64198e-07
6.9686e-07
7.39436e-07
6.44078e-07
4.84829e-07
1.85773e-07
1.03979e-07
9.25247e-09
1.62272e-08
5.58286e-08
2.30515e-07
2.09295e-07
1.82456e-07
7.39417e-07
3.83529e-06
1.75309e-07
2.63496e-08
8.72749e-07
6.75221e-07
6.78218e-07
6.85621e-07
6.84485e-07
6.16305e-07
5.18854e-07
3.83769e-07
1.74722e-07
6.47497e-08
8.93845e-09
8.00074e-09
2.32821e-08
1.2171e-07
1.93482e-07
1.01083e-07
3.71783e-07
3.61629e-06
2.04265e-07
2.33978e-08
9.75653e-07
6.3418e-07
6.35046e-07
6.24956e-07
6.12669e-07
5.4337e-07
4.77256e-07
3.59189e-07
1.77839e-07
6.21593e-08
5.65022e-08
2.5118e-08
3.23964e-08
6.75022e-08
1.17842e-07
4.04888e-08
1.52024e-07
2.75073e-06
1.97168e-07
2.10961e-08
1.09192e-06
5.46267e-07
4.98766e-07
5.17045e-07
5.09555e-07
4.44771e-07
3.98077e-07
3.23085e-07
1.70765e-07
1.09641e-07
2.26957e-07
6.00288e-08
2.86303e-08
3.11618e-08
2.39576e-08
1.64835e-08
4.73726e-08
1.16583e-06
1.87975e-07
1.85999e-08
1.31527e-06
3.79379e-07
2.82304e-07
3.76728e-07
3.89343e-07
3.68165e-07
3.55237e-07
3.38449e-07
2.66521e-07
9.98711e-08
3.33625e-08
4.01405e-07
8.21163e-08
3.71219e-08
1.9601e-08
2.19269e-08
3.17763e-08
2.92728e-07
1.77297e-07
4.62268e-20
6.73843e-07
2.26338e-07
2.18265e-07
2.5742e-07
2.68223e-07
2.64909e-07
2.43874e-07
2.31081e-07
2.51845e-07
2.31992e-07
2.96634e-07
4.11024e-07
2.59137e-07
8.58799e-08
3.7588e-08
3.05634e-08
3.19608e-08
1.2906e-07
1.60025e-07
2.94946e-32
4.45949e-07
1.5993e-07
2.01758e-07
1.76844e-07
1.93195e-07
2.04373e-07
2.01047e-07
1.93087e-07
1.93682e-07
2.71156e-07
6.31208e-07
7.32894e-08
6.50492e-08
6.41272e-08
5.21577e-08
5.16716e-08
4.52826e-08
9.96512e-08
1.57731e-07
3.039e-32
2.53362e-07
1.17654e-07
1.62443e-07
1.55564e-07
1.64905e-07
1.68194e-07
1.74731e-07
1.84166e-07
2.03292e-07
4.30673e-07
1.92846e-07
1.31289e-07
3.35492e-08
2.98605e-08
4.20365e-08
5.38672e-08
4.80398e-08
1.71494e-07
1.00391e-07
2.15161e-07
1.97069e-07
1.86448e-07
1.83327e-07
1.79018e-07
1.60192e-07
1.31751e-07
8.43972e-08
5.14191e-08
5.7047e-08
5.25621e-27
9.73093e-32
1.06268e-30
1.35725e-07
9.83464e-08
7.57669e-08
8.39142e-08
1.40668e-07
1.06229e-07
1.48513e-07
1.93037e-07
1.06719e-07
9.85927e-08
1.01345e-07
1.11578e-07
1.30974e-07
2.97193e-07
3.84993e-07
7.89571e-17
1.95071e-30
7.92427e-31
1.08979e-31
5.66895e-32
1.2066e-07
2.73557e-07
4.03558e-07
5.13826e-07
1.37565e-06
3.0931e-06
1.72937e-07
1.76166e-07
3.82929e-07
4.23309e-07
3.80216e-07
5.85042e-07
6.98856e-07
7.67625e-07
7.2942e-07
4.98058e-07
1.32783e-30
6.75376e-31
1.51795e-31
6.28286e-32
4.77457e-08
3.34144e-07
3.51423e-07
2.80729e-07
1.16014e-06
3.22548e-06
1.8873e-07
1.76067e-07
6.26067e-07
6.70303e-07
6.86011e-07
6.97134e-07
7.10759e-07
6.94833e-07
6.40818e-07
4.18018e-07
1.19135e-30
5.80254e-09
4.31179e-09
2.22434e-08
3.80333e-08
1.34325e-07
3.02931e-07
1.45555e-07
6.85814e-07
2.36989e-06
2.01942e-07
1.78832e-07
6.34727e-07
6.2464e-07
6.71873e-07
6.80208e-07
6.89244e-07
6.28868e-07
6.00436e-07
4.69952e-07
5.07141e-08
1.56406e-31
7.04931e-08
1.06241e-07
8.9382e-08
7.86823e-08
1.22899e-07
4.10718e-08
3.15302e-07
1.5613e-06
2.03544e-07
1.83098e-07
6.70531e-07
5.68197e-07
6.08286e-07
6.2096e-07
6.23958e-07
5.59682e-07
5.24865e-07
4.43479e-07
6.8134e-08
1.21154e-31
4.51052e-32
1.37308e-32
2.21511e-32
5.41277e-32
1.9516e-31
1.75174e-15
8.39138e-08
6.51578e-07
2.01916e-07
1.84145e-07
7.35987e-07
4.55354e-07
3.668e-07
5.0446e-07
5.33285e-07
5.00347e-07
4.92555e-07
4.77395e-07
2.52623e-07
8.6718e-31
4.13502e-32
1.52101e-32
2.1059e-32
3.46522e-32
6.76194e-32
1.91885e-31
1.62906e-08
3.94857e-07
1.98105e-07
1.7758e-07
5.44741e-07
2.08344e-07
1.37407e-07
3.91118e-07
4.13349e-07
4.02189e-07
3.7478e-07
3.54028e-07
3.5815e-07
1.5944e-07
1.08508e-29
4.03465e-32
1.87295e-32
2.90668e-32
6.76721e-32
1.67498e-31
3.89436e-09
2.71265e-07
1.91909e-07
1.64958e-07
3.66909e-07
1.21479e-07
1.07404e-07
2.74825e-07
3.02055e-07
3.09516e-07
2.85622e-07
2.51756e-07
2.39268e-07
3.10994e-07
3.40087e-20
7.59737e-31
3.02322e-32
2.5963e-32
4.17814e-32
1.08835e-31
3.71484e-10
1.85738e-07
1.86024e-07
1.63803e-07
2.23276e-07
1.08001e-07
1.42411e-07
1.41548e-07
1.52146e-07
1.53899e-07
1.47543e-07
1.4786e-07
1.50655e-07
1.2148e-07
1.18615e-07
3.43045e-30
4.30138e-32
2.54003e-32
4.23292e-32
7.50178e-18
5.51402e-09
1.87834e-07
1.64757e-07
)
;

boundaryField
{
    aeration
    {
        type            calculated;
        value           nonuniform List<scalar> 
100
(
1.89059e-08
1.89059e-08
1.89059e-08
1.89059e-08
1.89059e-08
1.8906e-08
1.8906e-08
1.89059e-08
1.8906e-08
1.8906e-08
1.8906e-08
1.8906e-08
1.8906e-08
1.8906e-08
1.8906e-08
1.89061e-08
1.89061e-08
1.89061e-08
1.89061e-08
1.89061e-08
1.89063e-08
1.89063e-08
1.89062e-08
1.89063e-08
1.89063e-08
1.89066e-08
1.89065e-08
1.89065e-08
1.89065e-08
1.89066e-08
1.89067e-08
1.89066e-08
1.89066e-08
1.89066e-08
1.89067e-08
1.89069e-08
1.89068e-08
1.89068e-08
1.89068e-08
1.89069e-08
1.89072e-08
1.8907e-08
1.8907e-08
1.8907e-08
1.89072e-08
1.89073e-08
1.89071e-08
1.89071e-08
1.89071e-08
1.89072e-08
1.89069e-08
1.89067e-08
1.89067e-08
1.89067e-08
1.89069e-08
1.89065e-08
1.89062e-08
1.89062e-08
1.89062e-08
1.89065e-08
1.89062e-08
1.89062e-08
1.89062e-08
1.89062e-08
1.89062e-08
1.89057e-08
1.89057e-08
1.89057e-08
1.89057e-08
1.89057e-08
1.89056e-08
1.89055e-08
1.89055e-08
1.89055e-08
1.89056e-08
1.89056e-08
1.89055e-08
1.89055e-08
1.89055e-08
1.89056e-08
1.89057e-08
1.89057e-08
1.89057e-08
1.89057e-08
1.89057e-08
1.89058e-08
1.89058e-08
1.89058e-08
1.89058e-08
1.89058e-08
1.89056e-08
1.89056e-08
1.89055e-08
1.89056e-08
1.89056e-08
1.89055e-08
1.89055e-08
1.89055e-08
1.89055e-08
1.89055e-08
)
;
    }
    xsides
    {
        type            nutkWallFunction;
        Cmu             0.09;
        kappa           0.41;
        E               9.8;
        value           uniform 1e-08;
    }
    zsides
    {
        type            nutkWallFunction;
        Cmu             0.09;
        kappa           0.41;
        E               9.8;
        value           uniform 1e-08;
    }
    outlet
    {
        type            calculated;
        value           nonuniform List<scalar> 
100
(
1.67804e-07
2.72697e-32
2.40657e-31
3.03856e-32
1.63779e-07
2.23437e-07
2.52065e-07
4.46237e-07
2.5333e-07
2.23247e-07
1.08063e-07
1.17312e-07
2.08457e-07
1.1764e-07
1.07988e-07
1.68929e-07
1.68929e-07
1.68929e-07
1.68929e-07
1.68929e-07
1.68929e-07
1.68929e-07
1.68929e-07
1.68929e-07
1.68929e-07
1.68929e-07
1.68929e-07
1.68929e-07
1.68929e-07
1.68929e-07
1.68929e-07
1.68929e-07
1.68929e-07
1.68929e-07
1.68929e-07
1.68929e-07
1.68929e-07
1.68929e-07
1.68929e-07
1.68929e-07
1.68929e-07
1.68929e-07
1.68929e-07
1.68929e-07
1.68929e-07
1.68929e-07
1.68929e-07
1.68929e-07
1.68929e-07
1.68929e-07
1.68929e-07
1.68929e-07
1.68929e-07
1.68929e-07
1.68929e-07
1.68929e-07
1.68929e-07
1.68929e-07
1.68929e-07
1.68929e-07
1.68929e-07
1.68929e-07
1.68929e-07
1.68929e-07
1.68929e-07
2.40546e-07
1.68929e-07
1.68929e-07
1.68929e-07
4.30088e-32
2.16655e-07
1.83799e-07
2.14662e-07
2.98568e-08
2.5397e-32
2.07423e-07
1.58997e-07
1.44515e-07
4.2031e-08
4.23233e-32
1.64301e-07
1.29334e-07
1.14395e-07
5.38599e-08
7.5007e-18
6.5991e-08
5.20595e-08
5.71301e-08
4.80331e-08
5.51324e-09
1.68929e-07
1.68929e-07
1.68929e-07
1.68929e-07
1.68929e-07
1.63639e-07
9.96959e-08
6.14427e-23
1.00377e-07
1.64733e-07
)
;
    }
}


// ************************************************************************* //
