/*--------------------------------*- C++ -*----------------------------------*\
| =========                 |                                                 |
| \\      /  F ield         | OpenFOAM: The Open Source CFD Toolbox           |
|  \\    /   O peration     | Version:  2.3.0                                 |
|   \\  /    A nd           | Web:      www.OpenFOAM.org                      |
|    \\/     M anipulation  |                                                 |
\*---------------------------------------------------------------------------*/
FoamFile
{
    version     2.0;
    format      ascii;
    class       surfaceScalarField;
    location    "4.09957";
    object      phi.air;
}
// * * * * * * * * * * * * * * * * * * * * * * * * * * * * * * * * * * * * * //

dimensions      [0 3 -1 0 0 0 0];

internalField   nonuniform List<scalar> 
2650
(
-7.0456e-08
1.00472e-07
-2.37818e-08
-6.23635e-08
1.92558e-08
-2.15736e-08
-5.46546e-08
1.92959e-08
-2.12935e-08
-5.41157e-08
2.7504e-08
-2.23031e-08
-5.53606e-08
2.33588e-08
-1.62613e-08
-5.27513e-08
1.24757e-08
-8.95209e-09
-4.68326e-08
3.71477e-09
-3.22844e-09
-2.86135e-08
-2.91934e-09
-8.74162e-09
1.85309e-08
-1.63524e-08
-2.40557e-08
7.87159e-08
-2.5551e-08
-2.77435e-08
9.84485e-08
2.36047e-08
-3.6829e-08
7.78328e-09
1.21403e-07
-2.46733e-08
-3.47947e-08
1.15751e-07
-6.7778e-08
-5.43414e-08
3.35023e-08
-8.47801e-09
-5.15915e-08
4.38229e-09
-1.04902e-09
-3.70773e-08
-6.44189e-09
-1.79718e-09
-4.78607e-09
-2.4802e-08
-8.34832e-10
4.22487e-08
-4.04134e-08
4.05698e-10
6.58607e-08
-1.82629e-08
1.36007e-09
7.65522e-08
-5.25035e-09
-3.90711e-08
1.42929e-07
-4.15742e-09
-4.64329e-08
1.75023e-08
9.11667e-09
-5.27276e-08
1.45072e-08
1.11313e-08
-5.39935e-08
1.36543e-08
1.52725e-08
-4.84111e-08
9.66153e-09
8.53318e-09
-4.04771e-08
-2.19194e-10
5.07488e-09
-2.97067e-08
-1.0665e-08
3.72917e-09
-1.32266e-08
-2.73125e-08
7.92484e-09
1.3792e-08
-4.6678e-08
3.32974e-09
5.0839e-08
-4.91664e-08
-1.34449e-08
9.8007e-08
-1.82216e-08
-5.95573e-09
2.57268e-08
1.31829e-07
6.3419e-08
6.03836e-09
1.4986e-07
-1.39494e-08
-7.87843e-09
4.92866e-08
-1.85886e-09
-1.45616e-08
1.03758e-08
7.70563e-10
-1.49604e-08
-7.3125e-09
1.35746e-09
-3.0031e-09
-3.71658e-08
2.53255e-10
1.77167e-08
-6.02137e-08
-1.22934e-09
2.51989e-08
-2.67801e-08
1.62749e-09
1.02781e-07
-6.91251e-10
-2.70773e-08
1.67567e-07
2.73877e-09
-3.45505e-08
1.7292e-08
7.72409e-09
-3.88887e-08
1.22472e-08
6.75378e-09
-3.77337e-08
7.73015e-09
4.87388e-09
-3.53221e-08
2.96368e-09
4.32869e-09
-3.17041e-08
-7.34986e-09
2.8986e-09
-2.42667e-08
-1.92211e-08
9.65787e-10
-1.46411e-08
-3.75939e-08
6.98623e-10
2.8892e-09
-6.47079e-08
5.74332e-10
3.57499e-08
-7.81037e-08
-3.82911e-09
7.18545e-08
-5.09201e-08
-4.01324e-09
2.89615e-08
1.27983e-07
4.6962e-08
2.04809e-08
1.52192e-07
6.42335e-09
6.0559e-09
6.57903e-08
-2.27676e-09
-5.08473e-09
2.11736e-08
2.18237e-10
-1.02677e-08
-2.70201e-09
5.63689e-10
-5.10611e-09
-4.22248e-08
-1.7274e-10
9.10634e-09
-7.41615e-08
-5.19761e-10
1.71439e-08
-3.61887e-08
1.65144e-09
1.20492e-07
-4.87174e-10
-1.74274e-08
1.84343e-07
8.97367e-10
-2.42636e-08
2.29686e-08
1.03315e-09
-2.6483e-08
1.36306e-08
8.27191e-10
-2.43107e-08
4.93695e-09
6.04144e-10
-2.14846e-08
-8.20259e-10
3.6975e-10
-1.98955e-08
-1.07318e-08
2.51538e-10
-1.79133e-08
-2.2728e-08
-1.66057e-11
-1.55593e-08
-4.01817e-08
2.04968e-10
-8.21155e-09
-7.12805e-08
-7.49891e-10
1.05664e-08
-9.39124e-08
-2.77687e-09
3.42972e-08
-7.69947e-08
2.22847e-09
2.80647e-08
1.07034e-07
2.68305e-08
2.76418e-08
1.481e-07
4.63522e-09
1.69265e-08
7.76624e-08
-1.22318e-09
7.93127e-09
3.09897e-08
-1.01527e-09
-2.06023e-09
6.8093e-09
4.1785e-10
-5.9788e-09
-3.82086e-08
-1.39454e-10
-6.09534e-10
-7.96101e-08
-1.23134e-10
9.11353e-09
-4.63337e-08
4.99101e-10
1.3009e-07
-6.60674e-10
-1.12398e-08
1.95725e-07
2.09092e-11
-1.87715e-08
3.02075e-08
1.76621e-10
-2.03193e-08
1.52723e-08
-9.03809e-11
-1.75094e-08
2.36944e-09
-2.34575e-10
-1.33176e-08
-4.48315e-09
-5.36878e-10
-1.22372e-08
-1.26688e-08
-1.20725e-11
-1.32844e-08
-2.27151e-08
-3.15568e-10
-1.62889e-08
-3.8158e-08
-5.12213e-10
-2.05507e-08
-6.69934e-08
-1.32212e-11
-2.03424e-08
-9.68342e-08
2.67819e-09
-7.89734e-09
-1.00138e-07
1.07778e-08
4.24847e-08
1.05354e-07
-4.90489e-08
5.61109e-08
1.57994e-07
-2.36e-08
3.69177e-08
1.05915e-07
-9.03718e-09
1.93896e-08
4.61419e-08
2.09753e-09
7.42415e-09
1.74249e-08
1.19093e-09
-5.23432e-09
-2.60325e-08
4.17312e-10
-7.8372e-09
-7.64048e-08
-7.45598e-10
1.72492e-09
-5.63977e-08
2.92628e-10
1.32265e-07
-7.70238e-10
-1.00757e-08
2.04614e-07
1.34701e-09
-1.83149e-08
3.86617e-08
-3.54794e-10
-2.0002e-08
1.77962e-08
-8.37191e-10
-1.54467e-08
-9.38536e-10
-1.24659e-09
-9.30161e-09
-8.4961e-09
-1.58801e-09
-7.32052e-09
-1.38793e-08
-7.92368e-10
-8.83685e-09
-2.0669e-08
-5.68032e-10
-1.49816e-08
-3.31479e-08
-3.986e-10
-2.45849e-08
-5.66712e-08
-2.27345e-09
-3.31398e-08
-8.93962e-08
1.03398e-09
-3.2004e-08
-1.02977e-07
1.98523e-09
5.56294e-08
1.09398e-08
7.50608e-09
1.05471e-07
1.38627e-07
-3.00455e-08
8.45412e-08
1.51378e-07
-2.42623e-08
4.63566e-08
9.51429e-08
-1.11287e-08
2.71169e-08
3.8589e-08
-2.22396e-09
4.29649e-09
-8.91701e-09
5.62162e-09
-6.66149e-09
-6.64807e-08
1.06161e-09
-1.63596e-09
-6.23469e-08
6.92489e-10
1.31647e-07
-1.22767e-09
-9.83775e-09
2.12234e-07
2.37483e-09
-1.91128e-08
4.92368e-08
-1.43586e-09
-2.19723e-08
2.23957e-08
-1.72555e-09
-1.53717e-08
-4.49155e-09
-3.06425e-09
-7.63263e-09
-1.40535e-08
-2.17618e-09
-4.15255e-09
-1.59167e-08
-1.43826e-09
-4.48137e-09
-1.92171e-08
-1.13066e-09
-7.47027e-09
-2.87242e-08
-1.51368e-09
-1.68511e-08
-4.71722e-08
-1.75041e-09
-3.10703e-08
-7.62085e-08
-5.95445e-10
-3.79996e-08
-9.62784e-08
3.27831e-10
2.91012e-08
-9.40493e-08
3.8971e-08
1.312e-07
1.92122e-08
1.87095e-08
1.25754e-07
1.50787e-07
6.17587e-09
9.47331e-08
1.41523e-07
-1.56523e-08
5.87468e-08
8.51149e-08
-1.08752e-08
2.90172e-08
2.40326e-08
-3.41985e-09
6.95652e-09
-4.25639e-08
-1.93297e-09
3.46031e-10
-5.4772e-08
-1.1585e-09
1.34104e-07
-2.09465e-09
-1.0336e-08
2.22736e-07
-5.56444e-12
-1.89426e-08
6.0566e-08
-2.91295e-09
-2.42709e-08
2.98179e-08
-2.10074e-09
-1.30506e-08
-1.14953e-08
-4.27568e-09
-5.85147e-09
-1.95471e-08
-1.61216e-09
-2.48606e-09
-1.7577e-08
-1.6919e-09
-2.42988e-09
-1.79384e-08
-1.3287e-09
-4.12527e-09
-2.57991e-08
-1.23255e-09
-7.71276e-09
-4.28813e-08
-7.45237e-10
-1.22553e-08
-7.07392e-08
-2.48689e-09
-8.22288e-09
-9.99632e-08
-1.78399e-09
2.62879e-08
-1.12816e-07
-1.74128e-08
1.03831e-07
-9.42688e-08
3.65039e-08
1.20889e-07
1.13881e-07
1.92868e-08
1.00362e-07
1.52204e-07
9.87758e-09
6.55238e-08
1.25476e-07
-5.6022e-09
3.69748e-08
5.79918e-08
-5.40156e-09
1.704e-08
-1.72906e-08
-5.33548e-09
4.9082e-09
-4.0029e-08
-2.78207e-09
1.41094e-07
-1.95002e-09
-1.52551e-08
2.38129e-07
6.94485e-11
-2.05929e-08
6.75893e-08
-1.8844e-09
-2.22259e-08
2.97585e-08
1.65567e-09
-8.63422e-09
-2.61591e-08
1.06422e-09
-2.94485e-09
-2.572e-08
-8.50531e-10
-1.06004e-09
-1.80357e-08
-1.39865e-09
-1.02152e-09
-1.66429e-08
-1.32218e-09
-1.80783e-09
-2.37447e-08
-1.25324e-09
-2.77197e-09
-4.04063e-08
-1.49258e-09
-3.44423e-09
-6.81543e-08
-1.9176e-09
3.08483e-09
-1.06189e-07
-1.88511e-09
2.21056e-08
-1.30921e-07
-2.56814e-09
5.14498e-08
-1.21974e-07
-2.55065e-09
1.04513e-07
5.00622e-08
1.01682e-08
9.34008e-08
1.46028e-07
1.72279e-08
7.23319e-08
1.4266e-07
3.9206e-09
4.05852e-08
9.65099e-08
-6.71368e-09
1.87909e-08
1.48569e-08
-1.03142e-08
8.04924e-09
-2.41733e-08
-5.21457e-09
1.50164e-07
-9.0588e-10
-7.79393e-09
2.00743e-11
-1.46647e-08
-1.94207e-09
-1.10926e-08
2.13107e-09
-4.19173e-09
-3.89712e-10
-9.9687e-10
-6.00775e-10
-2.97815e-10
-5.97741e-10
-3.23709e-10
-5.94102e-10
-4.69624e-10
-6.62029e-10
-6.04942e-10
-8.11647e-10
-4.8596e-10
-1.25123e-09
1.08159e-09
-5.57147e-10
7.87635e-09
3.61963e-10
2.72626e-08
1.34523e-08
6.24402e-08
6.66771e-09
5.92065e-08
1.06249e-08
4.75851e-08
5.86775e-09
2.55328e-08
-1.52051e-09
1.52952e-08
-9.29084e-09
6.95743e-09
-2.97307e-09
7.99786e-10
-7.49131e-08
7.43546e-08
-1.77287e-08
-6.74761e-08
-3.85694e-09
-1.9232e-08
-5.9979e-08
-2.92263e-09
-2.00318e-08
-6.15791e-08
5.0207e-09
-1.99313e-08
-6.54121e-08
7.4783e-09
-1.38536e-08
-6.31423e-08
2.43332e-09
-7.28633e-09
-5.50973e-08
-1.48902e-09
-3.36463e-09
-3.14692e-08
-1.84387e-08
-7.34216e-09
8.62689e-09
-4.55366e-08
-1.17898e-08
7.39469e-08
-6.51246e-08
-2.09909e-08
1.19949e-07
-5.07293e-08
-2.53619e-08
8.99527e-08
2.96661e-08
-1.8731e-08
-2.77476e-08
8.20068e-08
-2.54199e-08
-5.8951e-08
3.14608e-08
-2.8887e-09
-5.48496e-08
1.76163e-09
-8.06563e-10
-3.96536e-08
-1.02017e-08
-5.23059e-10
-4.9608e-09
-2.81938e-08
-7.63934e-10
4.36198e-08
-4.14905e-08
1.08756e-10
6.9639e-08
-1.8739e-08
3.57166e-10
7.26731e-08
-2.67492e-09
-4.16468e-08
1.15721e-07
-3.38486e-09
-5.09406e-08
6.6685e-09
8.32133e-09
-5.87609e-08
6.34331e-09
1.01729e-08
-5.90497e-08
9.52092e-09
1.15667e-08
-5.47877e-08
5.05188e-09
7.04008e-09
-4.65551e-08
-4.96183e-09
4.39799e-09
-3.22501e-08
-1.55448e-08
3.49234e-09
-1.29166e-08
-3.58809e-08
6.00676e-09
9.49927e-09
-6.61958e-08
1.3732e-09
3.69347e-08
-1.00559e-07
-5.26145e-09
6.93583e-08
-8.59956e-08
-3.14789e-09
5.77321e-08
7.91695e-08
2.56434e-08
1.28759e-08
1.23822e-07
-1.04452e-08
-7.11523e-09
5.02133e-08
-6.78011e-10
-1.5163e-08
9.97726e-09
6.99744e-10
-1.58664e-08
-8.56503e-09
5.08248e-10
-3.0403e-09
-4.10411e-08
1.61476e-10
1.8003e-08
-6.34466e-08
-2.55513e-10
2.81848e-08
-2.81253e-08
6.04864e-10
1.0056e-07
-1.1147e-10
-2.91959e-08
1.47667e-07
4.8855e-10
-3.75807e-08
1.55074e-08
7.18583e-09
-4.31231e-08
1.17922e-08
6.9276e-09
-4.19114e-08
6.29252e-09
6.40672e-09
-3.87472e-08
4.64116e-10
4.49588e-09
-3.41113e-08
-1.03337e-08
2.22094e-09
-2.61498e-08
-2.475e-08
8.41861e-10
-1.65556e-08
-4.57258e-08
9.81586e-10
-1.49244e-09
-8.20997e-08
1.38472e-09
1.71925e-08
-1.22071e-07
-9.37991e-10
4.44264e-08
-1.14702e-07
-2.66325e-09
3.69918e-08
1.08128e-07
2.54358e-08
2.92085e-08
1.36057e-07
1.9851e-09
8.67671e-09
7.02746e-08
-1.92847e-09
-5.37544e-09
2.42178e-08
-1.26558e-10
-1.10579e-08
-2.51695e-09
1.75125e-10
-5.55464e-09
-4.65115e-08
-1.8199e-10
9.43021e-09
-7.86969e-08
-3.44738e-11
1.94621e-08
-3.73994e-08
6.36115e-10
1.19778e-07
-2.34094e-10
-1.9388e-08
1.68797e-07
-5.48024e-10
-2.67876e-08
2.27253e-08
1.05986e-09
-2.95838e-08
1.45532e-08
8.61252e-10
-2.71028e-08
3.73647e-09
6.96996e-10
-2.37872e-08
-3.08098e-09
3.59919e-10
-2.1587e-08
-1.39772e-08
1.34521e-10
-1.94038e-08
-2.84882e-08
-2.31174e-11
-1.69642e-08
-4.92602e-08
6.11739e-11
-1.37443e-08
-8.64798e-08
5.16861e-10
-9.76766e-09
-1.28761e-07
-8.05172e-11
9.39007e-09
-1.36587e-07
5.0516e-09
3.58939e-08
8.89441e-08
1.91601e-08
3.65127e-08
1.3813e-07
2.05965e-09
2.09865e-08
8.71555e-08
-2.51547e-09
8.17675e-09
3.65153e-08
-7.30142e-10
-2.40304e-09
7.89634e-09
5.52058e-10
-6.56078e-09
-4.18821e-08
-6.00257e-10
-3.58788e-10
-8.4923e-08
4.20423e-11
1.07149e-08
-4.83144e-08
4.63426e-10
1.29978e-07
-2.93833e-10
-1.3085e-08
1.83509e-07
-1.39181e-09
-2.11954e-08
3.05097e-08
3.77851e-10
-2.30651e-08
1.63813e-08
-5.39279e-11
-1.95712e-08
7.79719e-10
-1.82379e-10
-1.5016e-08
-6.52983e-09
-3.35889e-10
-1.3334e-08
-1.56588e-08
-1.3438e-10
-1.43337e-08
-2.75544e-08
-4.39882e-10
-1.79586e-08
-4.69879e-08
-6.99556e-10
-2.40362e-08
-8.09185e-08
-6.94136e-10
-2.67103e-08
-1.26434e-07
2.95832e-09
-1.24372e-08
-1.45861e-07
5.79749e-09
5.15203e-08
3.27503e-08
-5.70491e-08
6.50956e-08
1.19004e-07
-1.77542e-08
4.31806e-08
1.05847e-07
-5.79495e-09
2.18665e-08
5.81575e-08
1.55003e-09
7.99199e-09
2.2109e-08
7.41445e-10
-4.91525e-09
-2.74878e-08
-1.12098e-09
-7.94767e-09
-8.21991e-08
-3.70697e-10
3.45993e-09
-5.96332e-08
6.71132e-10
1.32815e-07
-3.5167e-10
-1.13783e-08
1.96451e-07
-2.72624e-11
-2.10209e-08
3.94513e-08
2.42016e-10
-2.30565e-08
1.81694e-08
-5.87887e-10
-1.74835e-08
-5.03078e-09
-1.00928e-09
-1.06936e-08
-1.36739e-08
-9.90951e-10
-7.98302e-09
-1.85727e-08
-6.05835e-10
-9.21404e-09
-2.64883e-08
-4.37418e-10
-1.4862e-08
-4.15229e-08
-5.25552e-10
-2.58295e-08
-7.07016e-08
-3.09872e-09
-3.69414e-08
-1.12493e-07
-1.88956e-09
-3.90517e-08
-1.35771e-07
-6.10568e-09
4.4656e-08
-7.04092e-08
2.78123e-08
1.17502e-07
4.74093e-08
-3.11908e-08
1.07329e-07
1.18537e-07
-2.68917e-08
6.09718e-08
1.04535e-07
-1.13862e-08
3.04431e-08
5.30641e-08
-2.91753e-09
6.55435e-09
-9.27148e-10
2.79743e-09
-6.94248e-09
-6.82984e-08
7.1451e-10
2.06916e-10
-6.66677e-08
1.10749e-09
1.32153e-07
-5.26676e-10
-1.00546e-08
2.07935e-07
1.11684e-09
-2.20953e-08
5.03346e-08
-3.88741e-10
-2.54948e-08
2.10415e-08
-1.18111e-09
-1.72692e-08
-1.44032e-08
-1.91389e-09
-8.64299e-09
-2.38479e-08
-1.25199e-09
-4.46455e-09
-2.32565e-08
-9.4525e-10
-4.70234e-09
-2.66745e-08
-7.29982e-10
-7.66196e-09
-3.90588e-08
-1.05527e-09
-1.56037e-08
-6.33952e-08
-1.49155e-09
-2.85027e-08
-1.00035e-07
-1.84911e-09
-3.48415e-08
-1.29691e-07
-3.38779e-10
3.245e-08
-1.35635e-07
3.7648e-08
1.32101e-07
-5.03855e-08
1.69817e-08
1.45692e-07
1.09529e-07
1.55775e-09
1.27629e-07
1.2467e-07
-1.78997e-08
8.50195e-08
9.79781e-08
-1.33656e-08
4.13296e-08
3.88875e-08
4.89569e-10
9.21283e-09
-3.87005e-08
5.00852e-10
2.94947e-09
-6.06915e-08
-6.83427e-10
1.33793e-07
-7.322e-10
-1.06972e-08
2.18802e-07
-7.45964e-11
-2.2766e-08
6.06174e-08
-1.29298e-09
-2.59376e-08
2.33894e-08
-1.27863e-09
-1.48693e-08
-2.80903e-08
-1.65675e-09
-5.99161e-09
-3.51877e-08
-6.93949e-10
-2.43139e-09
-2.76562e-08
-8.60737e-10
-2.3672e-09
-2.74385e-08
-6.44008e-10
-3.96604e-09
-3.82069e-08
-5.1332e-10
-6.69712e-09
-6.15533e-08
1.07515e-10
-1.03652e-08
-9.97146e-08
-7.79662e-10
-5.51752e-09
-1.36577e-07
-1.4573e-09
2.56346e-08
-1.62665e-07
-2.3166e-08
9.29293e-08
-1.35124e-07
5.49371e-08
1.3507e-07
7.03202e-08
1.60406e-08
1.24875e-07
1.34808e-07
9.88127e-09
9.37316e-08
1.26919e-07
-3.25852e-09
5.35547e-08
7.67427e-08
-3.02262e-09
2.14449e-08
-8.98319e-09
-2.92898e-09
6.95526e-09
-4.66997e-08
-2.46835e-09
1.39983e-07
-1.02473e-09
-1.52754e-08
2.36304e-07
-1.90038e-09
-2.45229e-08
6.86572e-08
-8.86227e-10
-2.19895e-08
2.20923e-08
4.13812e-10
-8.58635e-09
-4.12908e-08
9.17142e-10
-2.33007e-09
-4.31956e-08
-2.3699e-10
-7.92286e-10
-3.01172e-08
-4.89149e-10
-9.48924e-10
-2.81303e-08
-4.9425e-10
-1.7168e-09
-3.82759e-08
-4.41063e-10
-2.51688e-09
-6.16546e-08
-6.27039e-10
-2.76156e-09
-1.00984e-07
-5.00834e-10
2.2873e-09
-1.42232e-07
-2.16736e-09
1.65107e-08
-1.82845e-07
8.46812e-10
5.54765e-08
-1.71868e-07
-5.60912e-09
1.11608e-07
1.09283e-08
1.29179e-08
1.08889e-07
1.31684e-07
2.29058e-08
9.40776e-08
1.40396e-07
5.36801e-09
5.97062e-08
1.07833e-07
-3.26219e-09
2.42189e-08
2.54483e-08
-9.27157e-09
9.94451e-09
-3.26444e-08
-5.14048e-09
1.50396e-07
-1.29458e-09
-7.72005e-09
-1.5878e-09
-1.70877e-08
-7.21967e-10
-1.16387e-08
6.02441e-10
-3.40796e-09
6.61638e-10
-9.32713e-10
-1.06674e-10
-3.04352e-10
-1.63643e-10
-2.491e-10
-1.68883e-10
-3.43894e-10
-1.77683e-10
-4.6915e-10
-2.14185e-10
-3.75903e-10
-4.42064e-10
8.8896e-10
-2.5913e-10
6.32424e-09
1.35839e-09
2.88795e-08
1.13649e-09
6.19474e-08
8.65954e-09
6.8053e-08
1.11798e-08
6.09652e-08
6.49601e-09
3.71972e-08
1.95645e-09
1.61928e-08
-8.89107e-09
7.15933e-09
-3.75797e-09
-9.64237e-11
-7.6252e-08
5.10207e-08
1.3128e-08
-6.80256e-08
-1.99189e-08
-1.14545e-09
-6.18274e-08
-1.92602e-08
-5.83324e-10
-6.50018e-08
-1.09752e-08
5.23095e-10
-6.97538e-08
-2.64492e-09
-1.37282e-10
-6.73481e-08
-2.0374e-09
-1.24478e-09
-5.78847e-08
-6.78717e-09
3.69814e-10
-3.29219e-08
-2.87572e-08
3.0615e-09
6.63082e-09
-5.15458e-08
6.9739e-09
6.89889e-08
-8.04104e-08
3.85382e-09
1.17063e-07
-7.63834e-08
9.686e-09
9.35668e-08
-2.80193e-09
1.36318e-08
-2.89135e-08
7.49074e-08
2.9128e-08
-5.96657e-08
2.99376e-08
3.73413e-09
-5.53837e-08
-3.55795e-10
1.35851e-09
-4.00099e-08
-1.10114e-08
1.35681e-09
-5.12187e-09
-2.97142e-08
6.31294e-10
4.41707e-08
-4.23315e-08
-1.45039e-11
7.02714e-08
-1.91581e-08
-1.27997e-10
7.00572e-08
3.14844e-09
-4.27086e-08
8.85246e-08
2.48704e-09
-5.36029e-08
-4.4781e-10
4.02489e-11
-6.13208e-08
-4.50393e-10
-6.22842e-10
-6.12301e-08
1.22853e-09
-4.20379e-10
-5.69988e-08
-4.13312e-11
4.42752e-10
-4.76219e-08
-8.27126e-09
1.95388e-10
-3.23898e-08
-1.93625e-08
-5.51541e-10
-1.33923e-08
-4.06283e-08
-1.54596e-09
6.93454e-09
-7.33852e-08
3.01449e-09
2.78297e-08
-1.17591e-07
1.1308e-08
5.85595e-08
-1.13821e-07
3.75963e-09
7.41586e-08
2.39926e-08
-1.78604e-08
1.70025e-08
1.11073e-07
1.15666e-08
-6.37567e-09
5.07759e-08
1.86125e-09
-1.5451e-08
1.00287e-08
-5.30032e-10
-1.61374e-08
-8.84339e-09
-8.82931e-10
-3.02064e-09
-4.23077e-08
-4.99269e-10
1.82671e-08
-6.4323e-08
3.86768e-10
2.87685e-08
-2.85389e-08
-6.28741e-10
9.89637e-08
1.69436e-11
-2.94291e-08
1.17956e-07
9.71588e-10
-3.85095e-08
1.46322e-08
1.05746e-09
-4.40602e-08
1.06678e-08
4.34805e-10
-4.28156e-08
4.82725e-09
1.61391e-10
-3.96337e-08
-3.08724e-10
1.04134e-10
-3.48017e-08
-1.26747e-08
2.38917e-10
-2.67081e-08
-2.83785e-08
2.17527e-10
-1.73842e-08
-5.11982e-08
1.02258e-09
-2.99304e-09
-8.97137e-08
3.31368e-09
1.12989e-08
-1.39442e-07
6.6877e-09
3.6981e-08
-1.42852e-07
6.43542e-10
3.75337e-08
5.82812e-08
-1.01222e-08
3.4021e-08
1.17026e-07
-3.54852e-10
1.02652e-08
7.00389e-08
2.59222e-09
-5.37523e-09
2.51749e-08
2.21371e-10
-1.13622e-08
-2.51203e-09
-1.89665e-10
-5.65081e-09
-4.79742e-08
-2.63198e-10
9.6509e-09
-7.97974e-08
1.63006e-10
1.99571e-08
-3.79069e-08
-5.03786e-10
1.18513e-07
2.34611e-10
-2.06125e-08
1.36934e-07
1.37659e-09
-2.77465e-08
2.22444e-08
4.28038e-10
-3.06045e-08
1.3864e-08
5.12533e-10
-2.79944e-08
2.49072e-09
4.18741e-10
-2.44564e-08
-4.7753e-09
1.69256e-10
-2.20859e-08
-1.53076e-08
-1.50451e-11
-1.98798e-08
-3.08781e-08
8.04211e-11
-1.7593e-08
-5.45884e-08
-6.12379e-11
-1.56415e-08
-9.43881e-08
2.17858e-09
-1.47655e-08
-1.45988e-07
5.68354e-09
8.5147e-09
-1.60672e-07
-4.20214e-10
3.75003e-08
5.14492e-08
-3.78745e-09
4.23613e-08
1.14214e-07
2.71524e-11
2.35261e-08
8.48247e-08
1.72307e-09
8.4553e-09
3.8728e-08
5.99611e-10
-2.38613e-09
8.45252e-09
3.88927e-10
-6.67257e-09
-4.31083e-08
-1.19909e-09
-3.07801e-10
-8.61188e-08
-3.79982e-11
1.11693e-08
-4.88846e-08
5.29297e-11
1.28917e-07
3.29533e-10
-1.49296e-08
1.48726e-07
1.95732e-09
-2.21231e-08
3.01011e-08
-4.22563e-10
-2.40509e-08
1.65135e-08
1.60923e-10
-2.03233e-08
-3.19686e-10
3.15714e-10
-1.55095e-08
-9.64401e-09
4.03134e-10
-1.3647e-08
-1.73731e-08
7.08775e-11
-1.46398e-08
-3.00854e-08
-2.56424e-10
-1.87203e-08
-5.09436e-08
-5.75398e-10
-2.60876e-08
-8.79217e-08
-1.20266e-09
-2.95654e-08
-1.40949e-07
1.3633e-09
-1.8161e-08
-1.67361e-07
1.01304e-09
4.84335e-08
-3.89774e-08
-3.26272e-08
6.98903e-08
8.08475e-08
-5.39374e-09
4.78658e-08
9.73787e-08
3.80206e-09
2.37146e-08
6.25614e-08
1.70297e-09
8.7679e-09
2.48914e-08
-8.72759e-10
-4.61312e-09
-2.72528e-08
-3.6309e-09
-8.01328e-09
-8.30819e-08
-5.84396e-11
3.91478e-09
-6.03585e-08
4.77913e-10
1.31812e-07
4.49698e-10
-1.36682e-08
1.61849e-07
6.75051e-10
-2.20534e-08
3.91133e-08
-5.25371e-10
-2.42037e-08
1.75221e-08
5.58113e-10
-1.82843e-08
-8.25745e-09
1.00985e-09
-1.10738e-08
-1.88467e-08
9.88122e-10
-8.08911e-09
-2.15075e-08
5.40026e-10
-9.02e-09
-2.97985e-08
1.97773e-10
-1.41549e-08
-4.59836e-08
-3.63794e-10
-2.60329e-08
-7.70162e-08
-2.54085e-09
-3.88941e-08
-1.2459e-07
-6.42019e-09
-4.17681e-08
-1.576e-07
-1.30393e-08
3.44969e-08
-1.22985e-07
3.6374e-08
1.2072e-07
-2.7223e-08
-8.78669e-09
1.16155e-07
7.88428e-08
-3.4155e-09
6.8301e-08
9.49837e-08
3.89382e-09
3.23769e-08
5.85675e-08
-9.42298e-10
7.6935e-09
5.88102e-09
-5.80996e-09
-6.83289e-09
-6.62967e-08
-1.57247e-09
6.60399e-10
-6.74525e-08
8.92214e-10
1.30831e-07
9.70892e-10
-1.18989e-08
1.75806e-07
-7.94743e-10
-2.34128e-08
5.00304e-08
1.03373e-10
-2.65858e-08
1.84357e-08
1.10149e-09
-1.80815e-08
-2.06027e-08
1.94719e-09
-8.71833e-09
-3.14694e-08
1.27499e-09
-4.28639e-09
-2.78159e-08
9.32242e-10
-4.45588e-09
-3.10279e-08
6.68379e-10
-7.25675e-09
-4.45964e-08
3.46082e-10
-1.35367e-08
-7.12623e-08
-1.1152e-09
-2.44118e-08
-1.12773e-07
-4.50004e-09
-3.10558e-08
-1.47897e-07
-4.84797e-09
3.66668e-08
-1.58319e-07
5.57177e-09
1.16368e-07
-1.09629e-07
2.01641e-08
1.5206e-07
4.51254e-08
-9.15918e-10
1.37656e-07
9.76323e-08
-6.06912e-09
1.00325e-07
9.0004e-08
-7.58177e-09
5.06297e-08
5.13844e-08
4.67007e-09
1.13744e-08
-3.06436e-08
4.03526e-09
3.89419e-09
-6.16665e-08
9.19284e-10
1.32078e-07
2.01069e-09
-1.18293e-08
1.87443e-07
2.61598e-10
-2.40872e-08
5.98264e-08
1.02513e-09
-2.61292e-08
1.78002e-08
1.41032e-09
-1.49486e-08
-3.54219e-08
2.02097e-09
-5.53988e-09
-4.27559e-08
7.2461e-10
-2.15549e-09
-3.2916e-08
8.68525e-10
-2.15098e-09
-3.23957e-08
7.26423e-10
-3.62592e-09
-4.4254e-08
6.24369e-10
-6.04314e-09
-6.98965e-08
1.17956e-09
-9.4644e-09
-1.11929e-07
1.17484e-09
-3.54244e-09
-1.53318e-07
-3.63932e-09
2.3197e-08
-1.86574e-07
-2.32422e-08
9.44898e-08
-1.60148e-07
3.45066e-08
1.34799e-07
3.48751e-09
1.7458e-08
1.36171e-07
1.0113e-07
4.68747e-09
1.15155e-07
1.09798e-07
-1.99118e-09
7.18091e-08
8.73413e-08
4.5022e-09
2.68751e-08
5.96466e-09
5.49993e-09
8.20548e-09
-4.65056e-08
8.44448e-10
1.37988e-07
1.45522e-09
-1.58209e-08
1.99487e-07
2.16984e-09
-2.53938e-08
6.75969e-08
7.38219e-10
-2.25551e-08
1.55057e-08
-1.4683e-10
-8.02139e-09
-4.97136e-08
-7.28595e-10
-2.00802e-09
-4.93216e-08
2.56821e-10
-6.52631e-10
-3.52311e-08
4.91214e-10
-8.53171e-10
-3.3143e-08
4.65734e-10
-1.62095e-09
-4.42695e-08
3.57096e-10
-2.36461e-09
-6.97917e-08
2.53186e-11
-2.58307e-09
-1.12924e-07
6.56997e-10
1.10697e-09
-1.58187e-07
-1.41859e-09
1.33267e-08
-2.07049e-07
6.27342e-09
6.69141e-08
-1.9851e-07
-2.39686e-08
1.01715e-07
-3.89384e-08
2.05261e-08
1.19297e-07
9.86268e-08
7.33868e-09
1.09535e-07
1.23139e-07
1.85948e-09
8.06341e-08
1.09214e-07
4.00675e-09
3.2994e-08
4.03559e-08
4.18274e-09
1.18582e-08
-3.16164e-08
9.67999e-10
1.48264e-07
4.28556e-10
-9.26187e-09
2.03549e-09
-1.76214e-08
4.96238e-10
-1.3021e-08
-6.04942e-10
-3.08726e-09
-5.64174e-10
-8.41385e-10
1.17097e-10
-2.77077e-10
1.71417e-10
-2.1652e-10
1.68271e-10
-3.01252e-10
1.65227e-10
-4.1486e-10
1.82017e-10
-3.63243e-10
-1.14225e-12
1.00657e-09
-1.95915e-10
6.27887e-09
1.72782e-09
3.04442e-08
8.28524e-10
5.23388e-08
1.59315e-08
7.43169e-08
-6.54292e-09
7.29087e-08
6.18226e-10
5.31861e-08
6.33781e-09
2.0986e-08
3.37597e-09
7.86686e-09
2.0112e-11
-5.4149e-10
-7.46139e-08
7.23554e-08
2.08607e-08
-6.69196e-08
-1.24504e-08
9.81173e-09
-5.98339e-08
-1.20919e-08
1.058e-08
-6.15716e-08
-3.16705e-09
1.14371e-08
-6.55505e-08
1.51117e-09
8.51901e-09
-6.3562e-08
6.85939e-10
2.46879e-09
-5.54312e-08
-2.81921e-09
1.48675e-09
-3.15288e-08
-2.13042e-08
7.07507e-09
8.49217e-09
-4.67571e-08
2.05001e-08
7.1988e-08
-7.41328e-08
2.15147e-08
1.18435e-07
-6.13131e-08
3.14377e-08
8.89134e-08
2.85946e-08
2.00728e-08
-2.81776e-08
8.25835e-08
7.02731e-08
-5.90846e-08
3.15042e-08
8.99662e-09
-5.49554e-08
2.0018e-09
1.33102e-09
-3.96811e-08
-1.00333e-08
2.38322e-09
-4.95192e-09
-2.81721e-08
6.42387e-10
4.36328e-08
-4.13874e-08
-4.23301e-10
6.96923e-08
-1.8705e-08
-1.20526e-09
7.28782e-08
5.56918e-09
-4.14889e-08
1.132e-07
3.64782e-09
-5.14041e-08
1.92755e-09
-3.97362e-09
-5.92988e-08
1.61266e-09
-5.96446e-09
-5.93535e-08
3.77457e-09
-6.79693e-09
-5.53433e-08
1.66584e-09
-3.412e-09
-4.6664e-08
-5.80634e-09
-1.90019e-09
-3.2239e-08
-1.60619e-08
-1.75375e-09
-1.29067e-08
-3.66423e-08
-5.59524e-09
8.00941e-09
-6.59164e-08
1.0648e-09
3.22996e-08
-1.06338e-07
1.93463e-08
6.12733e-08
-9.39958e-08
7.48605e-09
5.48395e-08
7.66171e-08
-5.94122e-08
1.19427e-08
1.24268e-07
1.32186e-08
-7.32538e-09
5.01936e-08
2.3902e-09
-1.51814e-08
1.00767e-08
-6.5149e-10
-1.58361e-08
-8.52669e-09
-1.65118e-09
-3.02541e-09
-4.11223e-08
-4.75443e-10
1.80254e-08
-6.32285e-08
1.22877e-09
2.82088e-08
-2.81117e-08
-1.63386e-09
1.00757e-07
6.29389e-10
-2.87174e-08
1.44948e-07
-1.5435e-09
-3.72195e-08
1.49435e-08
-3.5875e-09
-4.26896e-08
1.13994e-08
-3.84875e-09
-4.15939e-08
5.30059e-09
-3.52394e-09
-3.86566e-08
1.4994e-10
-2.75991e-09
-3.40726e-08
-1.04758e-08
-1.19693e-09
-2.60743e-08
-2.37063e-08
-3.71509e-10
-1.64739e-08
-4.57543e-08
5.63949e-10
-1.38963e-09
-8.07619e-08
3.07247e-09
1.47371e-08
-1.26401e-07
1.06816e-08
3.73514e-08
-1.23e-07
7.00537e-09
3.42915e-08
1.08247e-07
-3.87688e-08
2.83008e-08
1.34757e-07
-4.88678e-09
8.54595e-09
6.96179e-08
2.79171e-09
-5.29445e-09
2.4221e-08
-2.38994e-10
-1.0995e-08
-2.47875e-09
-5.59186e-10
-5.58396e-09
-4.67227e-08
-3.10656e-11
9.48283e-09
-7.84353e-08
5.2152e-10
1.94717e-08
-3.73618e-08
-1.50442e-09
1.19979e-07
4.93398e-10
-1.91673e-08
1.65942e-07
-1.44519e-10
-2.67229e-08
2.25873e-08
1.81838e-10
-2.95505e-08
1.45064e-08
2.24124e-10
-2.70894e-08
3.15719e-09
1.25975e-10
-2.37755e-08
-3.21943e-09
-1.71068e-12
-2.15723e-08
-1.40944e-08
-1.65166e-10
-1.94618e-08
-2.72909e-08
1.17243e-10
-1.72263e-08
-4.79269e-08
-7.34699e-11
-1.44477e-08
-8.49849e-08
3.72408e-09
-1.14723e-08
-1.32754e-07
9.10832e-09
6.92793e-09
-1.43257e-07
1.55427e-09
3.46649e-08
9.41063e-08
-1.77841e-08
3.62939e-08
1.38604e-07
-5.31142e-09
2.09863e-08
8.54249e-08
1.34341e-09
8.21229e-09
3.6422e-08
9.73189e-10
-2.18811e-09
8.08253e-09
1.91577e-10
-6.65347e-09
-4.25438e-08
-8.41929e-10
-3.84287e-10
-8.46591e-08
7.27071e-11
1.07164e-08
-4.81731e-08
-1.23401e-10
1.30196e-07
6.80577e-10
-1.29423e-08
1.80642e-07
4.15129e-10
-2.11669e-08
3.04458e-08
-1.7913e-10
-2.30571e-08
1.63857e-08
1.65525e-10
-1.95703e-08
7.74317e-10
3.1732e-10
-1.50201e-08
-6.50805e-09
5.78435e-10
-1.33825e-08
-1.56746e-08
-2.44038e-11
-1.46608e-08
-2.74958e-08
-1.10665e-10
-1.87398e-08
-4.55448e-08
-2.18983e-10
-2.58915e-08
-7.85067e-08
-4.34565e-10
-2.90684e-08
-1.29668e-07
1.40766e-09
-2.07658e-08
-1.54693e-07
4.16061e-09
5.03445e-08
-2.6104e-08
1.70394e-08
6.60856e-08
1.0404e-07
1.4256e-08
4.38903e-08
1.04999e-07
6.47387e-09
2.27265e-08
5.95195e-08
-5.23834e-10
9.00566e-09
2.33234e-08
-2.5247e-09
-5.10942e-09
-2.83222e-08
-3.73279e-09
-8.06552e-09
-8.22081e-08
5.79181e-10
3.45282e-09
-5.92737e-08
5.01681e-10
1.3306e-07
8.32417e-10
-1.1205e-08
1.93658e-07
-9.45157e-10
-2.09975e-08
3.94068e-08
2.06867e-10
-2.30521e-08
1.8177e-08
8.23655e-10
-1.74823e-08
-5.03643e-09
1.24822e-09
-1.06971e-08
-1.36734e-08
1.58628e-09
-8.01863e-09
-1.85807e-08
7.51568e-10
-9.35644e-09
-2.64979e-08
3.94485e-10
-1.52426e-08
-4.13371e-08
-2.56078e-10
-2.69265e-08
-6.92822e-08
-1.52625e-09
-3.94427e-08
-1.14871e-07
-8.81483e-09
-4.33363e-08
-1.4979e-07
-1.39426e-08
2.96275e-08
-1.0916e-07
4.7346e-08
1.16767e-07
-3.2549e-08
4.18056e-08
1.07789e-07
8.58724e-08
2.5177e-08
5.99153e-08
1.00318e-07
1.06136e-08
3.09887e-08
5.50464e-08
-4.10901e-09
6.04108e-09
3.28729e-09
-1.26208e-08
-7.64997e-09
-6.78555e-08
-2.05009e-09
1.13359e-10
-6.61117e-08
4.67098e-10
1.3248e-07
1.4934e-09
-9.91215e-09
2.05189e-07
-2.24694e-09
-2.20867e-08
5.02903e-08
1.28936e-09
-2.54909e-08
2.10212e-08
1.67884e-09
-1.72734e-08
-1.43922e-08
3.0891e-09
-8.64335e-09
-2.3805e-08
2.1893e-09
-4.4796e-09
-2.32541e-08
1.43267e-09
-4.76348e-09
-2.66703e-08
1.10999e-09
-7.80568e-09
-3.90985e-08
9.33047e-10
-1.52266e-08
-6.35612e-08
-1.06474e-09
-2.64402e-08
-1.0106e-07
-8.78729e-09
-3.38318e-08
-1.36883e-07
-1.02852e-08
3.7383e-08
-1.47195e-07
-2.74725e-08
1.06285e-07
-1.11022e-07
3.07694e-08
1.48423e-07
3.30882e-08
9.53024e-09
1.3312e-07
9.54359e-08
1.41929e-08
9.28369e-08
8.89488e-08
-1.45501e-09
4.49391e-08
4.81499e-08
7.60123e-09
9.18702e-09
-3.36452e-08
5.48647e-09
2.78701e-09
-6.0242e-08
1.68963e-09
1.34169e-07
3.16047e-09
-1.05524e-08
2.16063e-07
3.81496e-11
-2.27859e-08
6.05954e-08
2.79091e-09
-2.59693e-08
2.34257e-08
2.18795e-09
-1.48865e-08
-2.79756e-08
4.52061e-09
-5.99093e-09
-3.51372e-08
1.62374e-09
-2.4251e-09
-2.76582e-08
1.69815e-09
-2.31059e-09
-2.74547e-08
1.38009e-09
-3.9187e-09
-3.82521e-08
1.34893e-09
-6.93307e-09
-6.15813e-08
2.04553e-09
-1.05344e-08
-9.9548e-08
1.57563e-09
-4.97267e-09
-1.40169e-07
-7.69076e-09
2.43509e-08
-1.79068e-07
-2.21366e-08
9.665e-08
-1.41494e-07
-7.89845e-09
1.30786e-07
1.89984e-08
-3.06152e-09
1.33907e-07
9.86651e-08
-2.15584e-09
1.08822e-07
1.06381e-07
5.7967e-09
6.60173e-08
8.44455e-08
1.10937e-08
2.37981e-08
3.37618e-09
1.0696e-08
7.21377e-09
-4.54912e-08
2.56659e-09
1.40277e-07
2.73537e-09
-1.51388e-08
2.33459e-07
1.64981e-10
-2.45637e-08
6.87074e-08
1.84463e-09
-2.20543e-08
2.22438e-08
-1.47947e-09
-8.61641e-09
-4.1106e-08
-9.79748e-10
-2.33339e-09
-4.31849e-08
8.4428e-10
-7.95205e-10
-3.01197e-08
1.40067e-09
-9.76762e-10
-2.81347e-08
1.30682e-09
-1.75508e-09
-3.82691e-08
1.12882e-09
-2.59102e-09
-6.15264e-08
7.7594e-10
-2.78154e-09
-1.00386e-07
1.58357e-09
1.04414e-09
-1.46898e-07
-3.61437e-10
1.62486e-08
-1.99228e-07
7.03427e-09
5.81325e-08
-1.78638e-07
-2.81759e-08
1.07075e-07
4.08329e-09
-1.40067e-08
1.20157e-07
1.03812e-07
-1.12945e-08
1.06904e-07
1.18721e-07
2.94795e-09
7.62525e-08
1.05637e-07
1.37033e-08
3.00747e-08
3.77374e-08
1.61571e-08
1.1042e-08
-3.05373e-08
4.93279e-09
1.50651e-07
1.22099e-09
-7.56754e-09
3.21249e-10
-1.71017e-08
1.82645e-09
-1.16667e-08
-2.14585e-09
-3.41922e-09
4.8336e-10
-9.34089e-10
6.07382e-10
-3.04525e-10
6.04092e-10
-2.51121e-10
5.9685e-10
-3.37752e-10
6.56886e-10
-4.29997e-10
6.44274e-10
-3.2191e-10
3.24372e-10
1.15481e-09
-4.02169e-11
6.99103e-09
2.89275e-09
2.88144e-08
6.35731e-09
6.40783e-08
6.01151e-09
7.78835e-08
-2.81927e-08
7.23445e-08
-5.88563e-09
4.91528e-08
1.13366e-08
1.93841e-08
1.40322e-08
7.6344e-09
2.11777e-09
-9.66711e-10
-6.9988e-08
9.68896e-08
-6.20946e-08
7.77203e-09
-5.45562e-08
8.7691e-09
-5.40754e-08
1.67828e-08
-5.5897e-08
1.61975e-08
-5.3724e-08
6.53757e-09
-4.78769e-08
2.05164e-09
-2.90526e-08
-5.20555e-09
1.77407e-08
-1.95723e-08
7.76212e-08
-3.14742e-08
1.00791e-07
1.4597e-08
7.77371e-09
1.19279e-07
-3.50609e-08
1.18524e-07
-5.4504e-08
3.39322e-08
-5.17423e-08
4.65501e-09
-3.70128e-08
-6.07171e-09
-4.79487e-09
-2.49126e-08
4.22234e-08
-4.04117e-08
6.59437e-08
-1.82143e-08
7.69546e-08
-3.79002e-08
1.37834e-07
-4.56244e-08
1.1676e-08
-5.28729e-08
1.02193e-08
-5.40532e-08
1.14122e-08
-4.84127e-08
7.63327e-09
-4.14707e-08
-1.99201e-09
-2.98058e-08
-1.12773e-08
-1.28061e-08
-2.77948e-08
1.30979e-08
-4.4422e-08
4.90254e-08
-4.81206e-08
9.23645e-08
-2.19172e-08
2.45863e-08