/*--------------------------------*- C++ -*----------------------------------*\
| =========                 |                                                 |
| \\      /  F ield         | OpenFOAM: The Open Source CFD Toolbox           |
|  \\    /   O peration     | Version:  2.3.0                                 |
|   \\  /    A nd           | Web:      www.OpenFOAM.org                      |
|    \\/     M anipulation  |                                                 |
\*---------------------------------------------------------------------------*/
FoamFile
{
    version     2.0;
    format      ascii;
    class       volScalarField;
    location    "4.09957";
    object      rho;
}
// * * * * * * * * * * * * * * * * * * * * * * * * * * * * * * * * * * * * * //

dimensions      [1 -3 0 0 0 0 0];

internalField   nonuniform List<scalar> 
1000
(
583.554
644.675
640.997
639.711
695.72
764.377
826.157
884.456
927.317
942.805
914.88
757.592
720.341
778.581
863.323
903.307
933.996
951.655
937.789
796.992
690.534
916.12
913.27
908.479
968.592
1009.65
1022.58
1025.26
1026.19
1025.22
1020.15
909.298
742.693
962.794
1020.25
1022.84
1023.63
1026.11
1025.67
887.226
764.111
1019.24
1021.34
1021.7
1025.99
1027.06
1027.09
1027.09
1026.78
1024.83
1021.52
960.653
762.829
943.986
1022.11
1021.27
1020.86
1025.8
1025.1
916.372
805.603
1025.82
1027.08
1027.1
1027.11
1027.11
1027.11
1027.1
1026.9
1025.14
1013.64
975.95
791.12
925.469
1018.48
1018.32
1017.74
1024.46
1024.05
927.683
827.999
1025.9
1027.1
1027.11
1027.11
1027.11
1027.11
1027.11
1027.08
1025.87
1009.78
975.107
843.654
907.479
1000.72
1016.11
1013.86
1022.57
1023.94
929.623
843.883
1025.94
1027.06
1027.06
1027.11
1027.11
1027.11
1027.11
1027.11
1026.8
1018.28
969.502
890.365
906.873
960.658
1004.72
1005.95
1018.33
1024.23
929.141
856.748
1025.85
1026.59
1025.91
1027.1
1027.11
1027.11
1027.11
1027.11
1027.09
1025.69
1007.14
926.663
911.547
928.737
967.464
988.578
1010.53
1025.81
928.165
868.532
1025.28
1023.63
1021.96
1027.1
1027.11
1027.11
1027.11
1027.11
1027.11
1027.11
1026.95
1007.56
936.556
925.32
941.769
968.337
1001.54
1025.46
929.821
881.795
1023.8
1020.52
1022.39
1027.11
1027.11
1027.11
1027.11
1027.11
1027.11
1027.11
1027.11
1026.83
969.53
927.228
929.203
945.254
992.392
1025.33
933.339
897.134
1019.44
1014.25
1026.85
1027.11
1027.11
1027.11
1027.11
1027.11
1027.11
1027.11
1027.11
1027.11
989.432
931.409
919.384
936.985
1004.17
1026.73
938.672
690.891
795.086
789.842
786.388
828.046
871.549
911.432
948.82
971.701
982.633
979.082
957.198
820.962
814.004
889.014
919.625
942.359
955.031
942.079
810.363
836.044
1003.09
1000.47
997.905
1016.4
1024.27
1025.96
1026.63
1026.88
1026.4
1024.21
969.632
876.396
977.169
1020.82
1021.27
1022.24
1025.73
1025.81
908.352
887.662
1025.72
1026.56
1026.66
1027.04
1027.11
1027.11
1027.1
1027.03
1026.52
1020.51
979.737
895.297
972.361
1019.52
1017.64
1018.38
1024.56
1025.9
938.33
911.156
1026.56
1027.11
1027.11
1027.11
1027.11
1027.11
1027.11
1027.09
1026.66
1018.14
978.395
912.371
967.082
1016.23
1014.79
1014.71
1022.59
1025.76
949.651
924.614
1026.61
1027.1
1027.11
1027.11
1027.11
1027.11
1027.11
1027.11
1026.77
1018.16
985.087
937.738
957.064
1003.02
1012.82
1010.53
1019.31
1026.17
955.394
933.764
1026.6
1027.02
1026.89
1027.11
1027.11
1027.11
1027.11
1027.11
1027.05
1023.57
993.327
960.591
961.162
976.279
1000.92
1004.16
1013.18
1026.18
956.159
939.816
1026.43
1026.33
1026.02
1027.11
1027.11
1027.11
1027.11
1027.11
1027.11
1026.77
1020.22
996.685
969.415
972.379
983.396
991.31
1004.62
1025.3
957.399
946.216
1025.91
1025.19
1026.12
1027.11
1027.11
1027.11
1027.11
1027.11
1027.11
1027.11
1027.09
1020.97
981.823
967.487
972.969
981.307
997.736
1023.9
960.001
953.565
1025.09
1024.12
1026.86
1027.11
1027.11
1027.11
1027.11
1027.11
1027.11
1027.11
1027.11
1027.05
1000.12
964.301
964.835
971.299
992.102
1023.79
963.724
961.81
1021.82
1018.31
1027.11
1027.11
1027.11
1027.11
1027.11
1027.11
1027.11
1027.11
1027.11
1027.11
1009.98
967.32
954.818
962.039
1001.71
1026.48
968.133
738.898
846.687
840.649
835.54
862.815
897.866
931.15
959.951
976.143
988.338
986.855
966.205
816.258
831.1
896.571
923.191
945.39
956.834
944.35
815.82
893.072
1021.41
1022
1022.86
1024.84
1026.03
1026.65
1026.95
1027.04
1027.03
1026.04
1015.9
923.888
982.848
1020.75
1020.52
1021.48
1025.27
1026.12
915.424
939.013
1026.77
1027.1
1027.1
1027.11
1027.11
1027.11
1027.11
1027.11
1027.06
1025.06
1012.32
945.923
983.331
1019.02
1016.86
1016.71
1023.11
1026.45
945.527
957.08
1026.84
1027.11
1027.11
1027.11
1027.11
1027.11
1027.11
1027.11
1027.05
1024.64
1005.69
965.994
985.318
1016.02
1014.12
1012.63
1020.06
1026.51
957.015
966.198
1026.88
1027.11
1027.11
1027.11
1027.11
1027.11
1027.11
1027.11
1027.09
1025.32
1000.98
973.935
980.573
1005.75
1012.16
1008.39
1015.66
1026.51
962.089
973.06
1026.87
1027.05
1026.99
1027.11
1027.11
1027.11
1027.11
1027.11
1027.11
1026.93
1022.56
997.186
982.904
987.001
999.138
1002.32
1008.94
1025.91
963.4
978.007
1026.8
1026.86
1026.87
1027.11
1027.11
1027.11
1027.11
1027.11
1027.11
1027.07
1026.55
1025.3
1009.69
992.984
991.935
992.558
1001.87
1023.45
965.177
982.294
1026.63
1026.58
1027.03
1027.11
1027.11
1027.11
1027.11
1027.11
1027.11
1027.11
1027.11
1026.5
1020.14
1005.65
994.564
993.514
999.862
1021.65
968.099
986.773
1026.34
1026.21
1027.1
1027.11
1027.11
1027.11
1027.11
1027.11
1027.11
1027.11
1027.11
1027.09
1024.97
1013.92
999.91
995.171
1000.2
1021.66
971.902
992.509
1024.89
1023.28
1027.11
1027.11
1027.11
1027.11
1027.11
1027.11
1027.11
1027.11
1027.11
1027.11
1025.41
1015.59
1002.9
999.133
1007.37
1025.76
976.387
691.665
800.358
796.87
790.667
830.866
873.522
914.483
950.771
972.458
985.515
982.054
959.566
821.569
813.454
888.369
919.221
942.114
954.859
941.946
810.252
838.688
1014.04
1014.22
1014.92
1022.07
1025.05
1026.21
1026.72
1026.84
1026.46
1024.11
970.127
873.191
978.347
1020.52
1020.97
1021.98
1025.47
1025.74
908.234
891.476
1026.35
1026.99
1027.01
1027.09
1027.11
1027.11
1027.09
1026.98
1026.43
1020.77
980.113
891.875
972.802
1019.24
1017.3
1017.68
1023.6
1025.86
938.199
915.362
1026.59
1027.11
1027.11
1027.11
1027.11
1027.11
1027.1
1027.05
1026.41
1019.23
978.187
912.453
968.212
1016.04
1014.59
1013.46
1020.52
1025.76
949.473
928.488
1026.62
1027.1
1027.11
1027.11
1027.11
1027.11
1027.11
1027.08
1026.52
1020.18
980.876
933.484
955.605
1002.88
1013.13
1008.69
1015.75
1026.1
955.253
937.466
1026.61
1027.02
1026.9
1027.11
1027.11
1027.11
1027.11
1027.1
1026.85
1024.8
1020.29
974.053
961.22
972.445
998.051
1001.07
1008.14
1026.02
956.05
943.164
1026.44
1026.33
1026.03
1027.11
1027.11
1027.11
1027.11
1027.11
1027.09
1026.3
1022.31
1023.35
998.852
978.729
980.709
985.587
999.245
1023.93
957.304
949.11
1025.93
1025.21
1026.12
1027.11
1027.11
1027.11
1027.11
1027.11
1027.11
1027.11
1027.01
1026.08
1021.48
1005.16
988.13
987.678
995.606
1021.67
959.921
956.083
1025.11
1024.16
1026.86
1027.11
1027.11
1027.11
1027.11
1027.11
1027.11
1027.11
1027.11
1026.01
1010.75
1002.08
993.946
990.089
995.381
1021.31
963.767
964.063
1021.83
1018.32
1027.11
1027.11
1027.11
1027.11
1027.11
1027.11
1027.11
1027.11
1027.11
1027.1
1004.44
982.867
985.566
988.836
1003.4
1025.85
968.233
590.266
662.062
656.138
653.232
711.151
781.199
839.314
894.864
934.18
950.025
926.69
768.317
723.411
775.985
862.158
902.617
934.093
951.65
937.69
796.68
709.852
966.426
958.974
947.37
987.02
1016.62
1023.65
1025.6
1026.09
1024.75
1021.36
914.423
741.742
963.809
1020.21
1023.11
1023.98
1026.21
1025.74
886.763
781.499
1023.93
1025.25
1024.88
1026.6
1027.09
1027.1
1027.05
1026.35
1023.1
1019.73
961.574
759.051
944.11
1022.44
1021.66
1021.2
1025.98
1025.17
915.737
818.834
1025.91
1027.1
1027.11
1027.11
1027.11
1027.11
1027.06
1026.34
1022.74
1011.12
973.08
786.195
925.067
1018.92
1018.51
1017.81
1024.59
1023.99
927.123
838.63
1025.94
1027.1
1027.11
1027.11
1027.11
1027.11
1027.1
1026.86
1023.62
1005.47
970.098
832.261
898.503
999.044
1015.9
1013.56
1022.77
1023.74
928.96
852.662
1025.97
1027.06
1027.06
1027.11
1027.11
1027.11
1027.11
1027.08
1025.66
1011.9
977.919
885.973
902.104
956.135
1001.8
1004.67
1019.21
1023.48
928.472
864.296
1025.88
1026.59
1025.92
1027.1
1027.11
1027.11
1027.11
1027.11
1027.01
1023.31
993.839
934.742
912.553
928.987
963.614
988.035
1012.77
1025.45
927.534
875.252
1025.31
1023.6
1021.87
1027.1
1027.11
1027.11
1027.11
1027.11
1027.11
1027.09
1026.4
985.958
928.771
927.25
943.328
974.02
1006.74
1025.84
929.052
887.877
1023.81
1020.4
1022.1
1027.11
1027.11
1027.11
1027.11
1027.11
1027.11
1027.11
1027.11
1022.69
961.138
925.795
932.61
958.115
1001.85
1025.84
932.391
902.421
1019.42
1014.09
1026.82
1027.11
1027.11
1027.11
1027.11
1027.11
1027.11
1027.11
1027.11
1027
984.311
929.279
925.218
955.465
1012.14
1026.89
937.656
)
;

boundaryField
{
    aeration
    {
        type            calculated;
        value           nonuniform List<scalar> 
100
(
514.137
514.137
514.137
514.137
514.137
514.137
514.137
514.137
514.137
514.137
514.137
514.137
514.137
514.137
514.137
514.137
514.137
514.137
514.137
514.137
514.137
514.137
514.137
514.137
514.137
514.137
514.137
514.137
514.137
514.137
514.137
514.137
514.137
514.137
514.137
514.137
514.137
514.137
514.137
514.137
514.137
514.137
514.137
514.137
514.137
514.137
514.137
514.137
514.137
514.137
514.137
514.137
514.137
514.137
514.137
514.137
514.137
514.137
514.137
514.137
514.137
514.137
514.137
514.137
514.137
514.137
514.137
514.137
514.137
514.137
514.137
514.137
514.137
514.137
514.137
514.137
514.137
514.137
514.137
514.137
514.137
514.137
514.137
514.137
514.137
514.137
514.137
514.137
514.137
514.137
514.137
514.137
514.137
514.137
514.137
514.137
514.137
514.137
514.137
514.137
)
;
    }
    xsides
    {
        type            calculated;
        value           nonuniform List<scalar> 
100
(
583.554
690.534
764.111
805.603
827.999
843.883
856.748
868.532
881.795
897.134
690.891
836.044
887.662
911.156
924.614
933.764
939.816
946.216
953.565
961.81
738.898
893.072
939.013
957.08
966.198
973.06
978.007
982.294
986.773
992.509
691.665
838.688
891.476
915.362
928.488
937.466
943.164
949.11
956.083
964.063
590.266
709.852
781.499
818.834
838.63
852.662
864.296
875.252
887.877
902.421
796.992
887.226
916.372
927.683
929.623
929.141
928.165
929.821
933.339
938.672
810.363
908.352
938.33
949.651
955.394
956.159
957.399
960.001
963.724
968.133
815.82
915.424
945.527
957.015
962.089
963.4
965.177
968.099
971.902
976.387
810.252
908.234
938.199
949.473
955.253
956.05
957.304
959.921
963.767
968.233
796.68
886.763
915.737
927.123
928.96
928.472
927.534
929.052
932.391
937.656
)
;
    }
    zsides
    {
        type            calculated;
        value           nonuniform List<scalar> 
400
(
583.554
690.534
764.111
805.603
827.999
843.883
856.748
868.532
881.795
897.134
644.675
916.12
1019.24
1025.82
1025.9
1025.94
1025.85
1025.28
1023.8
1019.44
640.997
913.27
1021.34
1027.08
1027.1
1027.06
1026.59
1023.63
1020.52
1014.25
639.711
908.479
1021.7
1027.1
1027.11
1027.06
1025.91
1021.96
1022.39
1026.85
695.72
968.592
1025.99
1027.11
1027.11
1027.11
1027.1
1027.1
1027.11
1027.11
764.377
1009.65
1027.06
1027.11
1027.11
1027.11
1027.11
1027.11
1027.11
1027.11
826.157
1022.58
1027.09
1027.11
1027.11
1027.11
1027.11
1027.11
1027.11
1027.11
884.456
1025.26
1027.09
1027.1
1027.11
1027.11
1027.11
1027.11
1027.11
1027.11
927.317
1026.19
1026.78
1026.9
1027.08
1027.11
1027.11
1027.11
1027.11
1027.11
942.805
1025.22
1024.83
1025.14
1025.87
1026.8
1027.09
1027.11
1027.11
1027.11
914.88
1020.15
1021.52
1013.64
1009.78
1018.28
1025.69
1027.11
1027.11
1027.11
757.592
909.298
960.653
975.95
975.107
969.502
1007.14
1026.95
1027.11
1027.11
720.341
742.693
762.829
791.12
843.654
890.365
926.663
1007.56
1026.83
1027.11
778.581
962.794
943.986
925.469
907.479
906.873
911.547
936.556
969.53
989.432
863.323
1020.25
1022.11
1018.48
1000.72
960.658
928.737
925.32
927.228
931.409
903.307
1022.84
1021.27
1018.32
1016.11
1004.72
967.464
941.769
929.203
919.384
933.996
1023.63
1020.86
1017.74
1013.86
1005.95
988.578
968.337
945.254
936.985
951.655
1026.11
1025.8
1024.46
1022.57
1018.33
1010.53
1001.54
992.392
1004.17
937.789
1025.67
1025.1
1024.05
1023.94
1024.23
1025.81
1025.46
1025.33
1026.73
796.992
887.226
916.372
927.683
929.623
929.141
928.165
929.821
933.339
938.672
590.266
709.852
781.499
818.834
838.63
852.662
864.296
875.252
887.877
902.421
662.062
966.426
1023.93
1025.91
1025.94
1025.97
1025.88
1025.31
1023.81
1019.42
656.138
958.974
1025.25
1027.1
1027.1
1027.06
1026.59
1023.6
1020.4
1014.09
653.232
947.37
1024.88
1027.11
1027.11
1027.06
1025.92
1021.87
1022.1
1026.82
711.151
987.02
1026.6
1027.11
1027.11
1027.11
1027.1
1027.1
1027.11
1027.11
781.199
1016.62
1027.09
1027.11
1027.11
1027.11
1027.11
1027.11
1027.11
1027.11
839.314
1023.65
1027.1
1027.11
1027.11
1027.11
1027.11
1027.11
1027.11
1027.11
894.864
1025.6
1027.05
1027.06
1027.1
1027.11
1027.11
1027.11
1027.11
1027.11
934.18
1026.09
1026.35
1026.34
1026.86
1027.08
1027.11
1027.11
1027.11
1027.11
950.025
1024.75
1023.1
1022.74
1023.62
1025.66
1027.01
1027.11
1027.11
1027.11
926.69
1021.36
1019.73
1011.12
1005.47
1011.9
1023.31
1027.09
1027.11
1027.11
768.317
914.423
961.574
973.08
970.098
977.919
993.839
1026.4
1027.11
1027.11
723.411
741.742
759.051
786.195
832.261
885.973
934.742
985.958
1022.69
1027
775.985
963.809
944.11
925.067
898.503
902.104
912.553
928.771
961.138
984.311
862.158
1020.21
1022.44
1018.92
999.044
956.135
928.987
927.25
925.795
929.279
902.617
1023.11
1021.66
1018.51
1015.9
1001.8
963.614
943.328
932.61
925.218
934.093
1023.98
1021.2
1017.81
1013.56
1004.67
988.035
974.02
958.115
955.465
951.65
1026.21
1025.98
1024.59
1022.77
1019.21
1012.77
1006.74
1001.85
1012.14
937.69
1025.74
1025.17
1023.99
1023.74
1023.48
1025.45
1025.84
1025.84
1026.89
796.68
886.763
915.737
927.123
928.96
928.472
927.534
929.052
932.391
937.656
)
;
    }
    outlet
    {
        type            calculated;
        value           nonuniform List<scalar> 
100
(
897.134
961.81
992.509
964.063
902.421
1019.44
1021.82
1024.89
1021.83
1019.42
1014.25
1018.31
1023.28
1018.32
1014.09
1027.11
1027.11
1027.11
1027.11
1027.11
1027.11
1027.11
1027.11
1027.11
1027.11
1027.11
1027.11
1027.11
1027.11
1027.11
1027.11
1027.11
1027.11
1027.11
1027.11
1027.11
1027.11
1027.11
1027.11
1027.11
1027.11
1027.11
1027.11
1027.11
1027.11
1027.11
1027.11
1027.11
1027.11
1027.11
1027.11
1027.11
1027.11
1027.11
1027.11
1027.11
1027.11
1027.11
1027.11
1027.11
1027.11
1027.11
1027.11
1027.11
1027.11
989.432
1027.11
1027.11
1027.11
984.311
931.409
967.32
1015.59
982.867
929.279
919.384
954.818
1002.9
985.566
925.218
936.985
962.038
999.133
988.836
955.465
1004.17
1001.71
1007.37
1003.4
1012.14
1027.11
1027.11
1027.11
1027.11
1027.11
938.672
968.133
976.387
968.233
937.656
)
;
    }
}


// ************************************************************************* //
