/*--------------------------------*- C++ -*----------------------------------*\
| =========                 |                                                 |
| \\      /  F ield         | OpenFOAM: The Open Source CFD Toolbox           |
|  \\    /   O peration     | Version:  2.3.0                                 |
|   \\  /    A nd           | Web:      www.OpenFOAM.org                      |
|    \\/     M anipulation  |                                                 |
\*---------------------------------------------------------------------------*/
FoamFile
{
    version     2.0;
    format      ascii;
    class       volScalarField;
    location    "0.052";
    object      epsilon;
}
// * * * * * * * * * * * * * * * * * * * * * * * * * * * * * * * * * * * * * //

dimensions      [0 2 -3 0 0 0 0];

internalField   nonuniform List<scalar> 
545
(
3.14991e+07
2.99964e+07
2.75987e+07
2.55298e+07
2.41133e+07
3.2108e+07
3.00655e+07
2.75253e+07
2.54035e+07
2.38769e+07
3.31551e+07
3.01217e+07
2.73495e+07
2.51416e+07
2.3454e+07
3.47385e+07
3.00763e+07
2.70673e+07
2.47668e+07
2.28075e+07
3.70857e+07
2.98187e+07
2.67428e+07
2.43653e+07
2.18966e+07
2.33886e+07
2.29921e+07
2.28651e+07
2.28241e+07
2.28103e+07
2.2805e+07
2.28024e+07
2.28006e+07
2.27991e+07
2.27978e+07
2.27965e+07
2.27952e+07
2.2794e+07
2.27928e+07
2.27917e+07
2.27906e+07
2.27896e+07
2.27886e+07
2.27876e+07
2.27866e+07
2.27857e+07
2.27849e+07
2.27841e+07
2.27833e+07
2.27825e+07
2.27818e+07
2.27811e+07
2.27805e+07
2.27799e+07
2.27793e+07
2.27788e+07
2.27783e+07
2.27779e+07
2.27774e+07
2.27771e+07
2.27767e+07
2.27764e+07
2.27761e+07
2.27759e+07
2.27757e+07
2.27755e+07
2.27754e+07
2.27753e+07
2.27752e+07
2.27752e+07
2.32076e+07
2.29367e+07
2.28475e+07
2.28186e+07
2.28085e+07
2.28044e+07
2.28021e+07
2.28005e+07
2.2799e+07
2.27977e+07
2.27964e+07
2.27951e+07
2.27939e+07
2.27928e+07
2.27916e+07
2.27906e+07
2.27895e+07
2.27885e+07
2.27875e+07
2.27866e+07
2.27857e+07
2.27848e+07
2.2784e+07
2.27832e+07
2.27825e+07
2.27818e+07
2.27811e+07
2.27804e+07
2.27798e+07
2.27793e+07
2.27787e+07
2.27783e+07
2.27778e+07
2.27774e+07
2.2777e+07
2.27766e+07
2.27763e+07
2.27761e+07
2.27758e+07
2.27756e+07
2.27754e+07
2.27753e+07
2.27752e+07
2.27751e+07
2.27751e+07
2.29443e+07
2.28439e+07
2.28177e+07
2.28092e+07
2.28056e+07
2.28035e+07
2.28018e+07
2.28004e+07
2.2799e+07
2.27976e+07
2.27963e+07
2.27951e+07
2.27939e+07
2.27927e+07
2.27916e+07
2.27905e+07
2.27895e+07
2.27884e+07
2.27875e+07
2.27865e+07
2.27856e+07
2.27848e+07
2.2784e+07
2.27832e+07
2.27824e+07
2.27817e+07
2.2781e+07
2.27804e+07
2.27798e+07
2.27792e+07
2.27787e+07
2.27782e+07
2.27778e+07
2.27773e+07
2.2777e+07
2.27766e+07
2.27763e+07
2.2776e+07
2.27758e+07
2.27756e+07
2.27754e+07
2.27753e+07
2.27752e+07
2.27751e+07
2.27751e+07
2.26017e+07
2.27355e+07
2.27843e+07
2.27988e+07
2.28024e+07
2.28024e+07
2.28015e+07
2.28002e+07
2.27989e+07
2.27976e+07
2.27963e+07
2.27951e+07
2.27939e+07
2.27927e+07
2.27916e+07
2.27905e+07
2.27894e+07
2.27884e+07
2.27874e+07
2.27865e+07
2.27856e+07
2.27847e+07
2.27839e+07
2.27831e+07
2.27824e+07
2.27817e+07
2.2781e+07
2.27804e+07
2.27798e+07
2.27792e+07
2.27787e+07
2.27782e+07
2.27777e+07
2.27773e+07
2.27769e+07
2.27766e+07
2.27763e+07
2.2776e+07
2.27757e+07
2.27755e+07
2.27754e+07
2.27752e+07
2.27751e+07
2.27751e+07
2.2775e+07
2.22024e+07
2.26439e+07
2.27578e+07
2.27908e+07
2.27999e+07
2.28017e+07
2.28012e+07
2.28001e+07
2.27989e+07
2.27976e+07
2.27963e+07
2.27951e+07
2.27938e+07
2.27927e+07
2.27915e+07
2.27905e+07
2.27894e+07
2.27884e+07
2.27874e+07
2.27865e+07
2.27856e+07
2.27847e+07
2.27839e+07
2.27831e+07
2.27824e+07
2.27817e+07
2.2781e+07
2.27803e+07
2.27797e+07
2.27792e+07
2.27787e+07
2.27782e+07
2.27777e+07
2.27773e+07
2.27769e+07
2.27766e+07
2.27762e+07
2.2776e+07
2.27757e+07
2.27755e+07
2.27753e+07
2.27752e+07
2.27751e+07
2.27751e+07
2.2775e+07
2.22466e+07
2.2616e+07
2.27471e+07
2.27873e+07
2.27988e+07
2.28013e+07
2.28011e+07
2.28001e+07
2.27989e+07
2.27976e+07
2.27963e+07
2.2795e+07
2.27938e+07
2.27927e+07
2.27915e+07
2.27905e+07
2.27894e+07
2.27884e+07
2.27874e+07
2.27865e+07
2.27856e+07
2.27847e+07
2.27839e+07
2.27831e+07
2.27824e+07
2.27817e+07
2.2781e+07
2.27803e+07
2.27797e+07
2.27792e+07
2.27786e+07
2.27782e+07
2.27777e+07
2.27773e+07
2.27769e+07
2.27766e+07
2.27762e+07
2.2776e+07
2.27757e+07
2.27755e+07
2.27753e+07
2.27752e+07
2.27751e+07
2.2775e+07
2.2775e+07
3.70858e+07
2.98187e+07
2.67428e+07
2.43653e+07
2.18966e+07
3.47385e+07
3.00763e+07
2.70673e+07
2.47668e+07
2.28075e+07
3.31551e+07
3.01217e+07
2.73495e+07
2.51416e+07
2.3454e+07
3.2108e+07
3.00654e+07
2.75253e+07
2.54035e+07
2.38769e+07
3.1499e+07
2.99964e+07
2.75987e+07
2.55297e+07
2.41133e+07
2.22024e+07
2.26439e+07
2.27578e+07
2.27908e+07
2.27999e+07
2.28017e+07
2.28012e+07
2.28001e+07
2.27989e+07
2.27976e+07
2.27963e+07
2.27951e+07
2.27938e+07
2.27927e+07
2.27915e+07
2.27905e+07
2.27894e+07
2.27884e+07
2.27874e+07
2.27865e+07
2.27856e+07
2.27847e+07
2.27839e+07
2.27831e+07
2.27824e+07
2.27817e+07
2.2781e+07
2.27803e+07
2.27797e+07
2.27792e+07
2.27787e+07
2.27782e+07
2.27777e+07
2.27773e+07
2.27769e+07
2.27766e+07
2.27762e+07
2.2776e+07
2.27757e+07
2.27755e+07
2.27753e+07
2.27752e+07
2.27751e+07
2.27751e+07
2.2775e+07
2.26017e+07
2.27355e+07
2.27843e+07
2.27988e+07
2.28024e+07
2.28024e+07
2.28015e+07
2.28002e+07
2.27989e+07
2.27976e+07
2.27963e+07
2.27951e+07
2.27939e+07
2.27927e+07
2.27916e+07
2.27905e+07
2.27894e+07
2.27884e+07
2.27874e+07
2.27865e+07
2.27856e+07
2.27847e+07
2.27839e+07
2.27831e+07
2.27824e+07
2.27817e+07
2.2781e+07
2.27804e+07
2.27798e+07
2.27792e+07
2.27787e+07
2.27782e+07
2.27777e+07
2.27773e+07
2.27769e+07
2.27766e+07
2.27763e+07
2.2776e+07
2.27757e+07
2.27755e+07
2.27754e+07
2.27752e+07
2.27751e+07
2.27751e+07
2.2775e+07
2.29443e+07
2.28439e+07
2.28177e+07
2.28092e+07
2.28056e+07
2.28035e+07
2.28018e+07
2.28004e+07
2.2799e+07
2.27976e+07
2.27963e+07
2.27951e+07
2.27939e+07
2.27927e+07
2.27916e+07
2.27905e+07
2.27895e+07
2.27884e+07
2.27875e+07
2.27865e+07
2.27856e+07
2.27848e+07
2.2784e+07
2.27832e+07
2.27824e+07
2.27817e+07
2.2781e+07
2.27804e+07
2.27798e+07
2.27792e+07
2.27787e+07
2.27782e+07
2.27778e+07
2.27773e+07
2.2777e+07
2.27766e+07
2.27763e+07
2.2776e+07
2.27758e+07
2.27756e+07
2.27754e+07
2.27753e+07
2.27752e+07
2.27751e+07
2.27751e+07
2.32076e+07
2.29367e+07
2.28475e+07
2.28186e+07
2.28085e+07
2.28044e+07
2.28021e+07
2.28005e+07
2.2799e+07
2.27977e+07
2.27964e+07
2.27951e+07
2.27939e+07
2.27928e+07
2.27916e+07
2.27906e+07
2.27895e+07
2.27885e+07
2.27875e+07
2.27866e+07
2.27857e+07
2.27848e+07
2.2784e+07
2.27832e+07
2.27825e+07
2.27818e+07
2.27811e+07
2.27804e+07
2.27798e+07
2.27793e+07
2.27787e+07
2.27783e+07
2.27778e+07
2.27774e+07
2.2777e+07
2.27766e+07
2.27763e+07
2.27761e+07
2.27758e+07
2.27756e+07
2.27754e+07
2.27753e+07
2.27752e+07
2.27751e+07
2.27751e+07
2.33886e+07
2.29921e+07
2.28651e+07
2.28241e+07
2.28103e+07
2.2805e+07
2.28024e+07
2.28006e+07
2.27991e+07
2.27977e+07
2.27965e+07
2.27952e+07
2.2794e+07
2.27928e+07
2.27917e+07
2.27906e+07
2.27896e+07
2.27885e+07
2.27876e+07
2.27866e+07
2.27857e+07
2.27849e+07
2.27841e+07
2.27833e+07
2.27825e+07
2.27818e+07
2.27811e+07
2.27805e+07
2.27799e+07
2.27793e+07
2.27788e+07
2.27783e+07
2.27779e+07
2.27774e+07
2.27771e+07
2.27767e+07
2.27764e+07
2.27761e+07
2.27759e+07
2.27757e+07
2.27755e+07
2.27754e+07
2.27753e+07
2.27752e+07
2.27752e+07
)
;

boundaryField
{
    AirInlet
    {
        type            fixedValue;
        value           uniform 0.1;
    }
    WaterInlet
    {
        type            fixedValue;
        value           uniform 0.1;
    }
    ChannelWall
    {
        type            fixedValue;
        value           uniform 0.1;
    }
    Outlet
    {
        type            inletOutlet;
        inletValue      uniform 0.1;
        value           nonuniform List<scalar> 
11
(
2.27752e+07
2.27751e+07
2.27751e+07
2.2775e+07
2.2775e+07
2.2775e+07
2.2775e+07
2.2775e+07
2.27751e+07
2.27751e+07
2.27752e+07
)
;
    }
    FrontAndBack
    {
        type            empty;
    }
}


// ************************************************************************* //
