/*--------------------------------*- C++ -*----------------------------------*\
| =========                 |                                                 |
| \\      /  F ield         | OpenFOAM: The Open Source CFD Toolbox           |
|  \\    /   O peration     | Version:  2.3.0                                 |
|   \\  /    A nd           | Web:      www.OpenFOAM.org                      |
|    \\/     M anipulation  |                                                 |
\*---------------------------------------------------------------------------*/
FoamFile
{
    version     2.0;
    format      ascii;
    class       surfaceScalarField;
    location    "0.399616";
    object      phi;
}
// * * * * * * * * * * * * * * * * * * * * * * * * * * * * * * * * * * * * * //

dimensions      [0 3 -1 0 0 0 0];

internalField   nonuniform List<scalar> 
49938
(
4.27186e-10
-4.52334e-09
4.59617e-09
-1.38425e-10
-2.32672e-09
3.39234e-09
-6.85591e-10
-2.56794e-09
3.61513e-09
-1.16698e-09
-2.66012e-09
3.64153e-09
-1.67454e-09
-2.62568e-09
3.63326e-09
-2.19778e-09
-2.80444e-09
3.8277e-09
-2.63084e-09
-3.14086e-09
4.07393e-09
-2.89546e-09
-3.47443e-09
4.23906e-09
-2.84136e-09
-3.59211e-09
4.03802e-09
-2.21036e-09
-3.80422e-09
3.67322e-09
-1.46817e-09
-3.69729e-09
3.4551e-09
-7.14569e-10
-3.72824e-09
3.47464e-09
-2.44242e-10
-3.73507e-09
3.76475e-09
-1.66091e-10
-3.47652e-09
3.89837e-09
1.60792e-10
-3.75294e-09
3.92606e-09
4.9292e-10
-3.60783e-09
3.77571e-09
3.50124e-10
-3.0319e-09
3.67471e-09
7.71644e-10
-3.53642e-09
3.61491e-09
2.3597e-09
-3.76823e-09
2.68018e-09
3.45174e-09
-3.59381e-09
3.00177e-09
3.39305e-09
-2.89056e-09
3.44926e-09
2.87653e-09
-2.63882e-09
3.65536e-09
2.18646e-09
-2.40423e-09
3.59431e-09
1.51948e-09
-2.28747e-09
3.45446e-09
9.19959e-10
-2.38584e-09
3.48538e-09
2.8502e-10
-2.35588e-09
3.49083e-09
-3.50592e-10
-2.17885e-09
3.31447e-09
-4.3681e-09
4.51752e-09
-2.93958e-10
-6.55637e-09
2.32698e-09
-6.48217e-10
-3.5664e-09
1.59393e-09
-9.06581e-10
-3.96718e-09
1.65759e-09
-1.33444e-09
-3.93084e-09
1.69857e-09
-1.88997e-09
-3.83374e-09
1.76358e-09
-2.64312e-09
-3.96455e-09
1.91324e-09
-3.40583e-09
-4.26112e-09
1.88298e-09
-3.89941e-09
-4.45763e-09
1.47677e-09
-3.86677e-09
-4.44039e-09
8.15633e-10
-2.7086e-09
-4.16262e-09
-7.99784e-10
-1.61158e-09
-3.82664e-09
-9.67702e-10
-6.4477e-10
-3.87313e-09
-8.21939e-10
-8.70093e-11
-4.12789e-09
-1.64967e-10
-1.84837e-10
-4.11415e-09
7.35435e-10
1.64901e-10
-4.37294e-09
2.70243e-10
6.58464e-10
-4.14917e-09
4.77513e-11
4.06782e-10
-3.5847e-09
8.04457e-10
7.40443e-10
-3.9493e-09
7.91968e-11
2.7684e-09
-3.62855e-09
-2.16765e-09
4.62136e-09
-3.2021e-09
-2.24469e-09
4.38287e-09
-3.12168e-09
4.69609e-10
3.55852e-09
-3.31172e-09
1.49725e-09
2.56397e-09
-3.24069e-09
1.831e-09
1.74391e-09
-3.26184e-09
1.79442e-09
1.14357e-09
-3.50492e-09
1.71942e-09
7.75795e-10
-3.65168e-09
1.66357e-09
3.59129e-10
-3.34909e-09
1.5869e-09
-6.34557e-09
2.33659e-09
-2.39405e-10
-6.28334e-09
-3.36401e-11
-6.79039e-10
-3.22609e-09
9.93147e-11
-8.79304e-10
-3.84255e-09
7.56197e-11
-1.20697e-09
-3.61673e-09
1.35369e-11
-1.6512e-09
-3.35612e-09
-3.33947e-11
-2.35528e-09
-3.25257e-09
-7.9099e-12
-3.17011e-09
-3.32208e-09
-1.24228e-10
-3.82052e-09
-3.31799e-09
-4.8923e-10
-3.73937e-09
-3.0616e-09
-1.45994e-09
-2.41905e-09
-2.51129e-09
-2.97165e-09
-1.54139e-09
-2.40409e-09
-2.30022e-09
-9.58584e-10
-2.35699e-09
-2.09896e-09
-3.39069e-10
-2.31857e-09
-2.42885e-09
-1.60361e-10
-2.11054e-09
-2.18233e-09
2.23221e-10
-2.42264e-09
-2.33389e-09
7.59073e-10
-2.28452e-09
-2.40051e-09
1.28764e-09
-1.77247e-09
-2.34082e-09
2.07332e-09
-2.55869e-09
-2.1763e-09
3.08677e-09
-3.068e-09
-1.574e-09
4.079e-09
-2.57442e-09
-1.61991e-09
3.69522e-09
-2.04196e-09
-6.95941e-10
2.98704e-09
-2.04803e-09
-5.55523e-10
2.09451e-09
-2.25795e-09
-9.02107e-11
1.43563e-09
-2.60187e-09
-1.08954e-12
1.01306e-09
-3.07518e-09
-7.18312e-12
7.59468e-10
-3.45222e-09
5.41188e-11
2.82301e-10
-2.96234e-09
9.03992e-11
-6.06642e-09
3.1353e-12
2.55837e-11
-5.84168e-09
-4.67252e-10
-4.90968e-10
-2.61856e-09
-9.09905e-11
-6.79787e-10
-3.74458e-09
9.0842e-11
-8.64392e-10
-3.44842e-09
1.62809e-11
-1.02073e-09
-3.07926e-09
-1.20541e-10
-1.30279e-09
-2.83258e-09
-1.37935e-10
-1.82918e-09
-2.87555e-09
7.98462e-11
-2.44375e-09
-3.24146e-09
5.38045e-10
-2.90352e-09
-3.57809e-09
9.76259e-10
-2.14659e-09
-2.74723e-09
-5.20994e-10
-1.33927e-09
-2.16509e-09
-1.04632e-09
-1.06347e-09
-1.71829e-09
-9.14501e-10
-6.91267e-10
-1.34525e-09
-1.34552e-09
-7.62496e-12
-8.93687e-10
-1.90049e-09
2.94602e-10
-1.1509e-09
-1.57396e-09
6.39721e-10
-1.19553e-09
-1.43411e-09
1.83482e-09
-9.70303e-10
-1.99726e-09
2.84737e-09
-1.90288e-09
-1.66835e-09
3.12341e-09
-3.03662e-09
-3.0743e-10
3.01759e-09
-3.43223e-09
9.63628e-10
1.60931e-09
-2.91446e-09
2.28079e-09
1.1501e-09
-1.84687e-09
2.58041e-10
1.004e-09
-1.87153e-09
-2.40332e-10
8.59858e-10
-2.30509e-09
-1.52645e-10
6.83265e-10
-2.89803e-09
-5.60845e-13
4.97966e-10
-3.34928e-09
8.23457e-11
-1.01986e-11
-2.35744e-09
-9.67451e-11
-5.67337e-09
-4.0326e-10
1.26214e-10
-4.98095e-09
-9.86956e-10
-3.69411e-10
-2.29168e-09
1.6875e-10
-4.51635e-10
-3.73553e-09
7.31703e-11
-4.44287e-10
-3.52313e-09
6.73601e-11
-3.08504e-10
-3.21379e-09
-1.25636e-12
-1.30467e-10
-2.97735e-09
-3.3263e-11
-1.08048e-10
-3.04611e-09
1.48145e-10
-6.07166e-10
-3.85718e-09
1.11483e-09
-1.15615e-09
-4.10438e-09
1.07527e-09
-1.19055e-09
-2.99754e-09
2.84703e-10
-8.56466e-10
-2.15894e-09
-3.40235e-10
-7.09882e-10
-1.60479e-09
-2.60084e-10
-5.0805e-10
-1.20976e-09
-3.37324e-10
3.22318e-11
-8.15237e-10
-6.18732e-10
2.18201e-10
-9.41976e-10
-3.94898e-10
4.06799e-10
-1.02406e-09
-3.60067e-10
1.2056e-09
-1.13791e-09
-6.31188e-10
2.00043e-09
-2.12552e-09
-5.72205e-10
2.05798e-09
-3.05861e-09
-3.55541e-11
1.63141e-09
-4.03107e-09
1.02541e-09
-6.3758e-11
-4.46998e-09
3.25069e-09
-3.12305e-10
-2.73585e-09
1.13753e-09
4.98848e-12
-2.46098e-09
2.72152e-10
2.34962e-10
-2.69392e-09
1.58854e-10
3.22169e-10
-3.1278e-09
1.42556e-10
2.87458e-10
-3.46404e-09
1.49465e-10
-1.66431e-10
-2.09793e-09
1.94383e-10
-4.90209e-09
-9.3772e-10
3.15142e-10
-4.05823e-09
-1.23786e-09
-2.71889e-10
-2.1059e-09
4.01248e-10
-1.93665e-10
-3.65244e-09
-1.61315e-10
-2.80642e-11
-3.59862e-09
-9.01146e-11
2.51476e-10
-3.39263e-09
-1.00693e-10
5.49651e-10
-3.23528e-09
-4.02477e-11
8.1936e-10
-3.27037e-09
-4.54488e-11
6.13153e-10
-3.74897e-09
9.8001e-11
4.12029e-10
-3.49226e-09
-4.10999e-10
-1.41844e-10
-2.82267e-09
3.79007e-10
-2.43552e-10
-2.07044e-09
1.32065e-11
-2.27817e-10
-1.52934e-09
-9.11798e-11
-1.62986e-10
-1.24184e-09
-3.27523e-11
5.29918e-11
-9.10329e-10
-1.20886e-10
1.22345e-10
-1.03295e-09
2.16246e-11
1.91192e-10
-1.06003e-09
-3.28716e-11
5.55658e-10
-1.35969e-09
-1.42689e-10
8.44028e-10
-2.4528e-09
3.89187e-11
4.57625e-10
-2.86409e-09
1.91888e-10
-2.32211e-10
-3.6768e-09
3.35564e-10
-9.50877e-10
-4.11605e-09
3.64733e-10
-9.15916e-10
-3.33067e-09
5.59867e-10
-6.1324e-10
-3.00219e-09
2.38532e-10
-2.18756e-10
-3.11979e-09
3.13817e-11
2.6499e-11
-3.38074e-09
7.68188e-12
1.07366e-10
-3.53082e-09
-1.40915e-11
-3.86347e-10
-1.99281e-09
3.88595e-10
-4.11212e-09
-1.17632e-09
5.18005e-11
-2.99699e-09
-1.11304e-09
-4.89714e-10
-1.70073e-09
1.36345e-10
-2.04697e-10
-2.83163e-09
-1.10583e-09
1.10019e-10
-2.92101e-09
-9.92322e-10
5.38434e-10
-2.74652e-09
-1.07453e-09
9.80624e-10
-2.57647e-09
-1.101e-09
1.40505e-09
-2.56259e-09
-1.13221e-09
1.56527e-09
-2.5955e-09
-1.31369e-09
1.3277e-09
-2.36831e-09
-8.86376e-10
5.57562e-10
-2.13232e-09
7.97868e-11
2.65595e-10
-1.80967e-09
3.12037e-11
1.04184e-10
-1.37561e-09
7.67589e-12
3.51969e-11
-1.24931e-09
7.6458e-11
4.73662e-11
-9.29284e-10
6.78509e-12
2.02985e-11
-1.081e-09
7.51181e-11
-4.93683e-11
-9.86676e-10
-3.69258e-12
3.19491e-11
-1.40032e-09
-4.06907e-11
3.27009e-11
-2.41947e-09
-3.4088e-11
-5.93554e-10
-2.34903e-09
1.11193e-10
-1.33385e-09
-2.7558e-09
-1.80703e-10
-1.33235e-09
-2.9981e-09
-1.11944e-09
-1.24087e-09
-2.96984e-09
-4.52318e-10
-8.51255e-10
-2.6989e-09
-6.92903e-10
-3.67589e-10
-2.78802e-09
-8.15437e-10
1.77209e-11
-2.95106e-09
-8.14986e-10
3.0592e-10
-2.90107e-09
-9.17943e-10
-1.62545e-10
-1.6971e-09
1.72757e-10
-3.07408e-09
-1.20059e-09
-1.10815e-10
-2.05598e-09
-8.3019e-10
-4.47232e-10
-1.00134e-09
-3.62969e-10
-2.66408e-10
-1.43109e-09
-1.58137e-09
3.36769e-10
-1.19885e-09
-2.32534e-09
9.02071e-10
-1.03083e-09
-2.28099e-09
1.514e-09
-8.77619e-10
-2.31079e-09
1.93234e-09
-9.8297e-10
-1.99796e-09
1.9601e-09
-1.17644e-09
-1.44682e-09
1.56235e-09
-1.45771e-09
-5.1285e-10
9.43703e-10
-1.49857e-09
-1.51048e-11
6.18032e-10
-1.62481e-09
1.40804e-10
3.55351e-10
-1.24764e-09
1.34713e-10
2.03051e-10
-1.27877e-09
1.81761e-10
6.92143e-11
-9.26343e-10
1.30895e-10
-3.21805e-11
-1.18019e-09
2.00584e-10
-2.89743e-10
-8.82748e-10
1.53635e-10
-4.65003e-10
-1.32447e-09
9.94166e-11
-5.59091e-10
-2.14222e-09
-1.83164e-10
-1.26803e-09
-1.80718e-09
1.67084e-10
-1.96912e-09
-1.92449e-09
-1.30213e-10
-1.99928e-09
-1.67868e-09
-1.28926e-09
-1.73629e-09
-1.56579e-09
-1.66704e-09
-1.14431e-09
-1.36275e-09
-1.92812e-09
-5.49014e-10
-1.45629e-09
-1.92702e-09
7.08535e-11
-1.54717e-09
-2.02375e-09
3.68206e-10
-1.60789e-09
-1.59053e-09
7.26928e-11
-1.07867e-09
-3.22922e-10
-2.16135e-09
-8.40032e-10
-1.98378e-10
-8.90811e-10
-9.66793e-10
2.63657e-10
-1.02387e-10
-1.36099e-09
2.6013e-10
-4.17663e-10
-1.0099e-09
7.00971e-10
-3.96604e-12
-1.63573e-09
1.10884e-09
9.65735e-11
-1.53528e-09
1.45265e-09
-1.67364e-11
-1.20469e-09
1.64123e-09
-2.76201e-10
-8.9535e-10
1.64025e-09
-6.0019e-10
-5.75272e-10
1.53472e-09
-1.10136e-09
-2.50819e-10
1.08674e-09
-1.11222e-09
6.16274e-11
8.04818e-10
-1.37583e-09
3.29458e-11
4.63438e-10
-1.03871e-09
1.32445e-10
2.97921e-10
-1.176e-09
6.27472e-11
4.587e-11
-7.89863e-10
1.15572e-10
-8.98587e-11
-1.12006e-09
7.55963e-11
-4.02672e-10
-6.22475e-10
5.25402e-11
-8.92165e-10
-9.57835e-10
1.22856e-10
-8.53617e-10
-1.14503e-09
-1.03573e-09
-1.46073e-09
-1.177e-09
-2.30577e-11
-1.75891e-09
-1.37617e-09
-2.50155e-10
-1.93483e-09
-8.89769e-10
-6.12992e-10
-1.74632e-09
-5.08646e-10
-1.24565e-09
-1.32254e-09
-1.91467e-10
-1.59507e-09
-7.89973e-10
-6.80921e-11
-1.92077e-09
-2.2113e-10
-1.23844e-10
-1.99217e-09
-1.90063e-10
-5.11468e-10
-1.12749e-09
1.76801e-10
-2.15381e-10
-1.23015e-09
-1.02927e-09
-9.55282e-10
-2.40558e-10
2.05497e-10
-8.55751e-10
6.99303e-10
9.41454e-10
-1.9837e-09
7.33255e-10
4.30899e-10
-8.82514e-10
8.06012e-10
4.3815e-10
-5.14873e-10
9.68235e-10
3.49157e-10
-4.14807e-10
1.15608e-09
1.63026e-10
-3.67609e-10
1.33089e-09
-1.15492e-10
-3.35518e-10
1.46084e-09
-5.88742e-10
-1.41396e-10
1.76351e-09
-1.26651e-09
-1.37517e-10
1.37309e-09
-1.43658e-09
7.1479e-10
9.33348e-10
-1.76626e-09
8.30167e-10
6.11814e-10
-1.37265e-09
6.55482e-10
3.26196e-10
-1.66987e-09
7.79484e-10
1.28406e-10
-1.30398e-09
7.11902e-10
-9.57272e-11
-1.68913e-09
7.93206e-10
-1.92997e-10
-1.38565e-09
8.60444e-10
-4.26321e-10
-1.38303e-09
6.58517e-10
-1.89362e-09
-2.18311e-09
2.50538e-09
-2.09061e-09
-1.65427e-09
6.74254e-10
-1.71215e-09
-1.59369e-09
-1.60948e-10
-1.56038e-09
-7.69685e-10
-2.71847e-10
-1.37274e-09
-2.84127e-10
-4.12159e-10
-1.1464e-09
9.24453e-11
-5.10251e-10
-9.12981e-10
3.40564e-10
-6.42078e-10
-7.48653e-10
4.55707e-10
-7.43879e-10
-7.03226e-10
3.94236e-10
-9.51131e-10
2.52715e-10
8.85482e-10
-2.0568e-09
1.22782e-10
-8.99335e-10
-3.50492e-11
5.44832e-10
-3.04285e-10
4.91365e-10
9.66031e-10
-5.50991e-10
6.14403e-10
6.60804e-10
-3.52943e-10
6.77813e-10
5.33964e-10
-1.59224e-10
7.55598e-10
3.99509e-10
-1.28137e-10
8.22551e-10
2.27341e-10
-1.31268e-10
8.20599e-10
3.24858e-12
-1.16789e-10
9.54863e-10
-3.48123e-10
-3.74882e-10
1.55263e-09
-7.72022e-10
-1.09226e-09
1.16899e-09
-1.28887e-09
2.35918e-10
8.65909e-10
-1.70791e-09
2.44739e-10
4.2967e-10
-1.54959e-09
6.13173e-10
2.48012e-10
-1.80253e-09
3.14324e-10
-7.04558e-12
-1.55453e-09
5.05616e-10
-1.81233e-10
-1.82745e-09
3.12507e-10
-4.2781e-10
-1.56391e-09
4.24835e-10
-7.49166e-10
-1.57957e-09
5.179e-10
-1.24341e-09
-1.94533e-09
2.56459e-10
-1.74729e-09
-1.46334e-09
3.12958e-10
-1.0527e-09
-9.14012e-10
-1.37427e-09
-9.32275e-10
-4.44123e-10
-4.45987e-10
-9.35077e-10
-7.95602e-11
-2.01765e-10
-8.5668e-10
2.02127e-10
-1.88078e-10
-7.52427e-10
4.04558e-10
-1.68247e-10
-6.60646e-10
5.64979e-10
-2.01053e-10
-5.38732e-10
6.91129e-10
-4.18808e-10
5.55326e-11
1.03745e-09
-7.46233e-10
5.62015e-10
-3.83701e-10
3.39984e-11
5.35498e-10
-2.46647e-11
3.42799e-10
7.76319e-10
-1.19088e-10
4.6232e-10
6.17207e-10
-7.5924e-11
5.33981e-10
5.04936e-10
-4.2633e-11
5.8568e-10
3.76338e-10
-2.85284e-11
6.24123e-10
2.2811e-10
-3.92125e-11
6.03132e-10
4.01542e-11
-1.59147e-11
6.87561e-10
-2.14712e-10
-2.1784e-10
1.01795e-09
-5.39223e-10
-5.63186e-10
8.88078e-10
-9.98348e-10
-1.60647e-10
6.21467e-10
-1.44745e-09
6.14492e-12
4.25898e-10
-1.28658e-09
-6.74383e-11
1.86953e-10
-1.59401e-09
3.04271e-11
2.7234e-11
-1.33788e-09
-5.69299e-11
-1.96226e-10
-1.62791e-09
2.39184e-11
-4.02986e-10
-1.34321e-09
-1.39333e-11
-5.95541e-10
-1.31516e-09
-7.18525e-11
-1.03006e-09
-1.55444e-09
4.36374e-11
-1.20915e-09
-1.05112e-09
-2.33131e-10
-7.68538e-10
-5.50164e-10
-8.04461e-10
-6.89106e-10
-2.80861e-10
-2.42694e-10
-7.04358e-10
1.16883e-12
-6.54767e-11
-6.58219e-10
2.10322e-10
-5.43344e-11
-5.89189e-10
3.83416e-10
-4.78883e-11
-4.98737e-10
5.33153e-10
-5.86264e-11
-3.66322e-10
6.52062e-10
-9.33479e-11
-3.24017e-11
8.24066e-10
-1.20536e-10
5.64328e-10
-3.47147e-11
5.06368e-11
4.89555e-10
-4.69377e-12
2.53601e-10
6.46096e-10
-7.27422e-11
3.39568e-10
5.47171e-10
-1.59311e-11
4.04334e-10
4.5942e-10
-1.9249e-11
4.38794e-10
3.51759e-10
-9.88163e-12
4.5584e-10
2.30627e-10
-1.95621e-11
4.2492e-10
8.55195e-11
-1.44456e-11
4.87813e-10
-1.03136e-10
-1.74468e-10
8.50295e-10
-3.01087e-10
-6.00618e-10
7.51828e-10
-7.66772e-10
-1.33109e-10
5.65855e-10
-1.24436e-09
-1.71105e-11
3.61467e-10
-1.07906e-09
-3.13146e-12
1.75844e-10
-1.41728e-09
8.89258e-12
9.26439e-13
-1.15939e-09
-3.58093e-12
-1.81227e-10
-1.45265e-09
6.88794e-12
-3.76565e-10
-1.13836e-09
-9.51139e-12
-5.82258e-10
-1.10415e-09
-5.31916e-12
-8.23169e-10
-1.28659e-09
-2.69438e-11
-9.69444e-10
-8.09805e-10
-9.50411e-11
-5.22466e-10
-2.86469e-10
-7.10673e-10
-4.42119e-10
-9.69199e-11
-2.64288e-10
-4.77306e-10
8.24977e-11
-4.61418e-11
-4.71151e-10
2.35443e-10
-3.12761e-11
-4.35112e-10
3.67488e-10
-2.01106e-11
-3.6401e-10
4.88061e-10
-2.60102e-11
-2.70403e-10
5.8222e-10
-2.37659e-11
-4.98951e-11
6.89025e-10
-8.54666e-11
5.21424e-10
-6.99114e-12
5.41785e-11
4.35732e-10
-3.5558e-13
1.81544e-10
5.48572e-10
-2.98414e-11
2.44901e-10
4.86917e-10
-3.10247e-12
2.96234e-10
4.19686e-10
-1.15998e-11
3.18269e-10
3.34427e-10
-4.703e-12
3.25527e-10
2.37931e-10
-1.45623e-11
2.95127e-10
1.27599e-10
-1.168e-11
3.64421e-10
-7.71792e-13
-1.71658e-10
6.30991e-10
-1.65354e-10
-4.02302e-10
5.60736e-10
-6.39374e-10
-5.71435e-11
4.42875e-10
-1.12683e-09
3.26967e-13
2.86048e-10
-9.32644e-10
1.04108e-11
1.49522e-10
-1.298e-09
1.72433e-11
8.56044e-13
-1.01758e-09
6.86288e-12
-1.43274e-10
-1.3223e-09
1.37809e-11
-3.16403e-10
-9.91325e-10
2.60899e-11
-4.76705e-10
-9.38586e-10
-5.26477e-12
-6.49655e-10
-1.12227e-09
8.63616e-12
-7.2935e-10
-6.37587e-10
-9.25223e-11
-3.93674e-10
-1.27806e-10
-4.94339e-10
-3.2767e-10
3.24702e-12
-1.66171e-10
-3.48688e-10
1.3254e-10
-2.90235e-11
-3.4336e-10
2.45003e-10
-1.48891e-11
-3.19214e-10
3.511e-10
-7.75743e-12
-2.62905e-10
4.45329e-10
-1.35764e-11
-1.93981e-10
5.18261e-10
-4.96518e-12
-5.54999e-11
5.85253e-10
-3.47085e-11
4.66746e-10
-8.21288e-13
4.78811e-11
3.88425e-10
-5.74321e-13
1.29288e-10
4.82002e-10
-1.4837e-11
1.74385e-10
4.42226e-10
-4.05629e-13
2.11265e-10
3.91171e-10
-8.36529e-12
2.22639e-10
3.25785e-10
-2.7324e-12
2.25028e-10
2.50299e-10
-1.47568e-11
2.01191e-10
1.6841e-10
-1.69738e-11
2.54589e-10
7.22588e-11
-1.26428e-10
4.58712e-10
-5.67652e-11
-3.12712e-10
4.16811e-10
-5.16885e-10
-8.05886e-11
3.44203e-10
-1.02997e-09
-2.42542e-11
2.23179e-10
-7.87835e-10
-2.37849e-11
1.23743e-10
-1.18311e-09
-1.54517e-11
1.69515e-12
-8.64404e-10
-3.1132e-11
-1.18637e-10
-1.17184e-09
-3.01204e-11
-2.52903e-10
-8.19552e-10
-3.75072e-11
-3.81775e-10
-7.79348e-10
-3.03661e-11
-4.94063e-10
-9.69916e-10
-4.00705e-11
-5.46189e-10
-4.99406e-10
-8.60555e-11
-2.73615e-10
-1.49435e-11
-3.85437e-10
-2.09411e-10
8.43801e-11
-1.45337e-10
-2.3301e-10
1.87317e-10
-3.11776e-11
-2.35339e-10
2.64159e-10
-1.68273e-11
-2.24856e-10
3.46556e-10
-5.93833e-12
-1.85593e-10
4.1616e-10
-1.00942e-11
-1.37373e-10
4.71497e-10
-1.45694e-12
-4.95487e-11
5.14405e-10
-1.69765e-11
4.18006e-10
-8.09353e-13
3.81953e-11
3.50864e-10
-6.33907e-13
9.11205e-11
4.36984e-10
-7.90672e-12
1.21847e-10
4.11221e-10
2.78369e-13
1.45737e-10
3.72961e-10
-5.67957e-12
1.47766e-10
3.25198e-10
-1.44248e-12
1.45036e-10
2.65088e-10
-1.20582e-11
1.25242e-10
2.05262e-10
-1.70572e-11
2.40321e-10
1.15992e-10
-1.58813e-10
4.60218e-10
4.0989e-12
-2.80761e-10
2.91034e-10
-5.5989e-10
2.12189e-10
3.25866e-10
-1.05637e-09
-8.43053e-12
1.32639e-10
-8.94043e-10
2.99434e-10
1.55329e-10
-1.21599e-09
1.01892e-11
-1.26556e-11
-9.94885e-10
2.98466e-10
-3.33401e-11
-1.12122e-09
-2.99384e-11
-2.06626e-10
-9.40937e-10
2.9467e-10
-3.91133e-10
-8.76439e-10
2.81598e-10
-3.81741e-10
-9.27389e-10
-5.19196e-11
-5.41892e-10
-5.28122e-10
1.88868e-10
-2.64767e-10
6.07584e-11
-3.52827e-10
-1.38119e-10
1.21847e-10
-1.64115e-10
-1.56402e-10
2.25168e-10
-1.95674e-11
-1.57797e-10
2.7823e-10
-1.26756e-11
-1.55839e-10
3.46521e-10
-1.92404e-12
-1.29538e-10
3.96473e-10
-6.61339e-12
-9.67725e-11
4.3861e-10
1.21549e-13
-3.9856e-11
4.66302e-10
-8.81336e-12
3.78702e-10
-5.5164e-13
2.87618e-11
3.23084e-10
-9.82156e-13
6.33591e-11
4.07312e-10
-4.92571e-12
8.26432e-11
3.91405e-10
5.31936e-13
9.57436e-11
3.64828e-10
-4.96771e-12
8.85911e-11
3.31435e-10
9.1608e-13
7.44399e-11
2.88634e-10
-9.39526e-12
4.23456e-11
2.42464e-10
-5.10838e-12
-6.00043e-12
1.68474e-10
-4.13565e-12
-2.01006e-11
4.0672e-11
-2.24729e-11
1.30651e-10
-4.9725e-10
-2.13391e-10
7.59986e-11
-1.0262e-09
2.44834e-11
1.4391e-10
-7.10289e-10
-2.51665e-10
7.25237e-11
-1.16872e-09
2.41149e-11
1.29657e-10
-7.9136e-10
-2.60659e-10
-2.33973e-10
-1.06226e-09
3.04669e-10
-1.22517e-10
-7.9601e-10
-2.56384e-10
-9.87367e-12
-7.27198e-10
-2.61884e-10
-3.13587e-10
-9.17797e-10
2.94121e-10
-1.13854e-10
-4.84186e-10
-2.4367e-10
-4.59857e-11
1.07776e-10
-1.14885e-10
-5.3296e-11
1.63006e-10
-3.38489e-11
-8.3154e-11
2.65008e-10
-9.98273e-12
-9.45679e-11
3.00349e-10
-1.07053e-11
-1.02473e-10
3.53222e-10
1.20459e-12
-8.75121e-11
3.8712e-10
-5.60837e-12
-6.71128e-11
4.17492e-10
7.18967e-13
-3.00365e-11
4.34565e-10
-5.33925e-12
3.49499e-10
-8.33391e-13
2.13402e-11
3.02002e-10
-2.57833e-13
4.46273e-11
3.86795e-10
-2.76971e-12
5.60165e-11
3.78895e-10
1.12072e-12
6.10928e-11
3.63257e-10
-3.50505e-12
4.73737e-11
3.44234e-10
9.20295e-13
2.87228e-11
3.15208e-10
-7.92281e-12
-6.28771e-12
2.81976e-10
-4.50138e-12
-4.53817e-11
2.0144e-10
6.12793e-12
-8.3373e-11
5.98937e-11
1.87696e-11
-2.1374e-11
-5.93367e-10
3.41178e-11
2.95231e-11
-1.08427e-09
7.17506e-12
3.8707e-11
-7.3153e-10
1.20564e-11
2.12078e-11
-1.17271e-09
2.14908e-11
-3.88387e-12
-7.82374e-10
1.61064e-11
-3.25176e-11
-1.10953e-09
7.59049e-11
-5.92427e-11
-7.8625e-10
1.69651e-11
-6.62466e-11
-7.38067e-10
1.78734e-11
-2.39157e-11
-1.01711e-09
5.69782e-11
3.25276e-11
-5.61899e-10
2.12705e-11
-5.68218e-12
1.33187e-10
1.27989e-11
-5.35827e-12
1.97894e-10
-3.5212e-11
-3.25423e-11
2.969e-10
-4.7076e-12
-4.95491e-11
3.28488e-10
-1.11327e-11
-6.39573e-11
3.66476e-10
1.15373e-12
-5.79826e-11
3.86305e-10
-5.15956e-12
-4.65518e-11
4.04791e-10
1.26972e-12
-2.20659e-11
4.13293e-10
-3.21411e-12
3.27725e-10
-2.92168e-13
1.66342e-11
2.86574e-10
-1.20603e-12
3.33217e-11
3.7247e-10
-2.36271e-12
3.98917e-11
3.71476e-10
8.49424e-13
3.97079e-11
3.66397e-10
-2.95602e-12
2.09854e-11
3.60461e-10
2.49544e-12
-8.66979e-12
3.48865e-10
-4.0018e-12
-4.21494e-11
3.30259e-10
-1.48032e-11
-3.11535e-11
2.6868e-10
-7.82356e-11
-1.36902e-10
6.72843e-11
9.83581e-11
-1.6203e-10
-8.47127e-10
2.78889e-10
-1.47474e-11
-1.28161e-09
5.00579e-11
-4.71936e-11
-1.01366e-09
3.14573e-10
-2.91052e-11
-1.28384e-09
9.30429e-11
-1.31202e-10
-1.01654e-09
3.36264e-10
1.23536e-10
-1.19959e-09
-1.64681e-10
-2.11743e-11
-9.82642e-10
3.41103e-10
-1.39504e-10
-9.53127e-10
3.3339e-10
2.39492e-10
-1.18932e-09
-2.06782e-10
1.65681e-10
-7.83333e-10
2.95245e-10
5.31317e-12
1.4708e-10
1.46474e-10
3.98449e-11
2.74892e-10
-1.1153e-10
1.19614e-11
3.48538e-10
-2.37542e-11
-1.99092e-11
3.67576e-10
-7.2175e-12
-4.04491e-11
3.81874e-10
5.14242e-12
-4.08413e-11
3.90088e-10
-3.39027e-12
-3.45055e-11
3.96735e-10
1.72045e-12
-1.70987e-11
3.98505e-10
-2.61891e-12
3.11541e-10
-9.1405e-13
1.47053e-11
2.71855e-10
1.31282e-14
2.91832e-11
3.5924e-10
-1.2472e-12
3.42235e-11
3.64796e-10
1.63927e-12
3.16675e-11
3.72114e-10
-3.16126e-12
4.51492e-12
3.8758e-10
3.29801e-14
-5.43512e-11
4.2396e-10
-1.62286e-11
-2.16623e-10
5.15514e-10
-2.2983e-11
-5.53514e-10
5.85795e-10
1.97758e-11
-9.11962e-10
2.94395e-10
1.31337e-10
-4.18538e-10
-6.6852e-10
-6.72032e-10
-2.36321e-10
-1.05197e-09
-4.11854e-10
-1.7046e-11
-7.08777e-10
-5.24154e-10
-6.91365e-11
-1.00631e-09
-2.25438e-10
1.68751e-11
-6.77753e-10
-4.248e-10
-7.90731e-11
-9.19865e-10
-1.83774e-10
5.53655e-11
-6.63593e-10
-4.53488e-10
2.66458e-10
-6.70628e-10
-4.93591e-10
4.58428e-10
-9.69106e-10
-4.12184e-10
9.29057e-10
-6.70505e-10
-5.83457e-10
5.03804e-10
2.68092e-10
3.0424e-10
2.38132e-10
6.76557e-10
-1.35992e-10
7.75058e-11
5.6773e-10
-5.85667e-11
6.31106e-12
4.65477e-10
-2.67062e-11
-2.72726e-11
4.17722e-10
-2.26462e-12
-3.28868e-11
4.00458e-10
-4.75581e-12
-2.92781e-11
3.91377e-10
1.74919e-12
-1.47888e-11
3.85615e-10
-1.59923e-12
2.96814e-10
-6.26359e-14
1.5512e-11
2.5886e-10
-2.51659e-12
3.13081e-11
3.44967e-10
-1.52386e-12
3.87967e-11
3.54002e-10
3.30556e-12
4.18193e-11
3.72874e-10
-3.78289e-12
2.54932e-11
4.07275e-10
-3.36834e-12
-2.84565e-11
4.97511e-10
-1.96012e-11
-1.89863e-10
6.67687e-10
9.23334e-12
-5.87796e-10
9.91656e-10
-7.92776e-12
-1.23022e-09
6.03415e-10
3.33408e-10
-9.06022e-10
-7.9708e-12
-9.84752e-10
-5.61929e-10
-4.83713e-11
-1.3477e-09
-2.83079e-10
1.37364e-10
-1.12499e-09
-1.49747e-10
6.23351e-11
-1.20198e-09
-5.20449e-12
1.79025e-10
-1.00132e-09
9.52036e-11
9.20382e-11
-1.11231e-09
2.85378e-10
1.55898e-10
-1.00967e-09
5.64831e-10
1.34629e-10
-1.08471e-09
9.18101e-10
-2.39359e-11
-1.29844e-09
1.236e-09
-2.23616e-11
-9.66046e-10
5.92902e-10
5.74041e-10
3.37153e-10
1.75443e-10
1.05483e-09
3.91889e-11
1.99636e-11
7.14494e-10
8.7154e-12
-2.72626e-11
5.40123e-10
-2.74194e-11
-4.24645e-11
4.38274e-10
-5.35009e-12
-3.91276e-11
4.02269e-10
-5.14791e-12
-3.20356e-11
3.80498e-10
3.78672e-12
-1.58882e-11
3.71028e-10
-1.56006e-12
2.8325e-10
-2.32358e-12
1.927e-11
2.39823e-10
-2.32891e-13
4.28174e-11
3.23035e-10
-1.61546e-12
6.63882e-11
3.27197e-10
3.23397e-12
1.03142e-10
3.36824e-10
-7.03904e-13
1.62385e-10
3.41061e-10
6.97148e-12
2.90447e-10
3.73306e-10
-3.85742e-12
5.21784e-10
3.82988e-10
5.33621e-11
6.49196e-10
3.43501e-10
5.20743e-10
3.50525e-10
-6.63519e-11
9.68438e-10
-5.80727e-11
-4.67843e-10
8.68471e-10
-1.17925e-10
-4.18087e-10
4.29568e-10
-7.75668e-11
-3.76293e-10
4.73298e-10
-3.90801e-11
-3.50126e-10
3.73974e-10
-3.84086e-12
-3.12528e-10
4.56314e-10
2.39761e-11
-3.35084e-10
3.99306e-10
7.26034e-11
-3.33863e-10
4.41134e-10
1.16191e-10
-3.90099e-10
4.8114e-10
6.60286e-11
-4.13628e-10
4.39854e-10
-3.36497e-10
-4.76527e-10
8.5669e-10
-6.80626e-10
-9.19973e-11
1.01017e-09
-5.52328e-10
3.60974e-10
5.65556e-10
-3.10175e-10
4.08986e-10
6.33546e-11
-1.71512e-10
4.04805e-10
-3.34527e-12
-1.08369e-10
3.67165e-10
7.96682e-12
-6.8844e-11
3.63882e-10
-1.13833e-12
-4.45967e-11
3.52341e-10
3.9104e-12
-1.9949e-11
3.48396e-10
-2.01628e-12
2.63447e-10
-1.46576e-13
1.80124e-11
2.26693e-10
-4.88271e-12
4.06119e-11
3.05448e-10
-5.0117e-12
6.36673e-11
3.07945e-10
-3.80337e-12
9.62945e-11
3.12923e-10
-8.7263e-12
1.43161e-10
3.09601e-10
-1.54059e-11
2.15762e-10
3.24654e-10
-2.39493e-11
3.25109e-10
3.11521e-10
-3.788e-11
3.06175e-10
2.13488e-10
1.48948e-10
1.46663e-10
-1.18005e-10
2.11165e-10
3.00587e-11
-3.50136e-10
-1.10305e-12
-2.39152e-11
-3.4067e-10
-2.34432e-11
-1.82164e-11
-3.0643e-10
-7.55613e-11
-1.2059e-11
-2.74071e-10
-8.22116e-11
-1.47939e-12
-2.44424e-10
-7.86833e-11
-3.75246e-13
-2.58973e-10
-7.7216e-11
1.41608e-11
-2.57549e-10
-9.08501e-11
1.23753e-11
-3.06314e-10
-8.19988e-11
-3.97313e-11
-3.37148e-10
-2.43736e-11
-1.60479e-10
-3.48729e-10
-7.05041e-12
-3.22674e-10
-1.25831e-10
1.96029e-10
-3.45504e-10
2.26129e-10
1.57675e-10
-2.30373e-10
3.33354e-10
-3.94994e-11
-1.51748e-10
3.50959e-10
-2.47786e-11
-1.01769e-10
3.33379e-10
-1.61932e-11
-6.6705e-11
3.37831e-10
-9.01301e-12
-4.27191e-11
3.31929e-10
-3.57395e-12
-1.88153e-11
3.29801e-10
-5.30857e-12
2.4951e-10
-4.87816e-12
1.94451e-11
2.08039e-10
-7.9125e-13
4.43387e-11
2.81226e-10
-6.71559e-13
7.0979e-11
2.78685e-10
2.61958e-12
1.09393e-10
2.73281e-10
1.22871e-12
1.62834e-10
2.56008e-10
1.51404e-13
2.48391e-10
2.3841e-10
6.87184e-13
3.85651e-10
1.87159e-10
-1.28976e-11
4.83168e-10
8.51891e-11
3.07822e-11
3.6557e-10
-1.06192e-10
1.05784e-10
1.46208e-10
-2.81925e-10
1.51152e-10
7.53601e-11
-2.59118e-10
-1.07042e-11
4.16314e-11
-2.40646e-10
-3.20556e-11
1.75659e-11
-2.1322e-10
-3.67857e-11
-2.23594e-12
-1.97219e-10
-2.74039e-11
-3.00536e-11
-2.05116e-10
-2.6039e-11
-4.64403e-11
-2.03886e-10
-3.72769e-11
-8.20164e-11
-2.40276e-10
-3.04627e-11
-1.52662e-10
-2.52582e-10
-1.39208e-11
-3.69488e-10
-2.76959e-10
1.45057e-10
-4.99097e-10
-1.0128e-10
1.05058e-10
-4.03138e-10
9.41991e-11
3.5971e-11
-2.62146e-10
2.02976e-10
-1.06142e-11
-1.70952e-10
2.59745e-10
1.94386e-14
-1.14888e-10
2.77265e-10
5.00867e-14
-7.4111e-11
2.96094e-10
9.59387e-13
-4.65099e-11
3.01324e-10
3.00343e-12
-2.02988e-11
3.04421e-10
-8.31315e-13
2.29935e-10
-7.23212e-13
1.53983e-11
1.97771e-10
-5.12948e-12
3.54216e-11
2.66176e-10
-4.97405e-12
5.54139e-11
2.62365e-10
-3.6726e-12
8.24235e-11
2.54864e-10
-8.59265e-12
1.14191e-10
2.36411e-10
-1.21714e-11
1.56981e-10
2.16302e-10
-2.0682e-11
1.95515e-10
1.70188e-10
-2.15632e-11
1.88451e-10
9.54427e-11
-3.19005e-12
1.42696e-10
-2.49988e-11
-3.54384e-11
1.23561e-10
-1.10259e-10
-1.52531e-10
8.89694e-11
-1.19613e-10
-1.04913e-10
5.23032e-11
-1.25347e-10
-7.8633e-11
2.17775e-11
-1.20719e-10
-6.19756e-11
-1.72598e-12
-1.17981e-10
-5.57344e-11
-3.08179e-11
-1.21359e-10
-5.46648e-11
-5.60153e-11
-1.15113e-10
-6.35754e-11
-9.71893e-11
-1.23399e-10
-7.57032e-11
-1.30654e-10
-1.13333e-10
-1.05784e-10
-1.50424e-10
-1.03961e-10
-1.53229e-10
-1.96201e-10
-2.00186e-11
-3.54839e-11
-2.05209e-10
1.06575e-10
-3.36864e-12
-1.66092e-10
1.84999e-10
-2.114e-11
-1.20058e-10
2.35405e-10
-2.16934e-11
-8.68201e-11
2.56141e-10
-1.21133e-11
-5.80385e-11
2.7631e-10
-8.99735e-12
-3.72665e-11
2.83977e-10
-3.42509e-12
-1.61444e-11
2.88434e-10
-5.13465e-12
2.18904e-10
-5.11345e-12
1.34407e-11
1.8426e-10
7.01068e-14
3.08442e-11
2.487e-10
7.30373e-14
4.81302e-11
2.42766e-10
2.31321e-12
7.09013e-11
2.31756e-10
3.36343e-13
9.62713e-11
2.09964e-10
1.07762e-12
1.30345e-10
1.84755e-10
-2.52649e-12
1.68814e-10
1.40913e-10
-9.19414e-12
2.10224e-10
8.62188e-11
-3.2186e-11
2.10354e-10
2.86198e-11
-5.37481e-11
1.40041e-10
-3.88097e-11
-1.13673e-12
8.89577e-11
-7.48998e-11
6.37008e-12
5.29272e-11
-9.78516e-11
8.53525e-12
2.49758e-11
-1.08298e-10
1.553e-11
-1.63155e-12
-1.13094e-10
2.17207e-11
-3.02106e-11
-1.15122e-10
2.23416e-11
-5.63359e-11
-1.03333e-10
1.43457e-11
-9.35204e-11
-9.52809e-11
9.06686e-12
-1.44892e-10
-6.72476e-11
5.28665e-12
-2.15381e-10
-2.84187e-11
-5.05285e-12
-2.16394e-10
3.68584e-11
-5.5864e-11
-1.75385e-10
9.76473e-11
-3.20806e-11
-1.36216e-10
1.55449e-10
-9.61976e-12
-1.00251e-10
2.02526e-10
-3.08656e-12
-7.40897e-11
2.28712e-10
1.26707e-12
-5.00662e-11
2.52224e-10
6.19948e-14
-3.22336e-11
2.63608e-10
2.5363e-12
-1.40037e-11
2.70229e-10
-2.44777e-14
2.04796e-10
1.03843e-13
8.92109e-12
1.79748e-10
-4.40917e-12
2.07509e-11
2.4106e-10
-4.18982e-12
3.13668e-11
2.3599e-10
-3.83926e-12
4.41812e-11
2.26703e-10
-7.7612e-12
5.4621e-11
2.09742e-10
-1.02184e-11
6.71342e-11
1.90858e-10
-1.86163e-11
7.24057e-11
1.63266e-10
-2.76248e-11
6.77902e-11
1.26347e-10
-3.5513e-11
5.29825e-11
8.41869e-11
-4.07594e-11
5.68204e-11
2.58901e-11
-6.85377e-11
5.40486e-11
-9.97161e-12
-6.21564e-11
3.66068e-11
-3.52928e-11
-4.5117e-11
1.71685e-11
-5.09873e-11
-3.78721e-11
-9.34986e-13
-5.83666e-11
-3.6624e-11
-2.1114e-11
-5.92646e-11
-3.56781e-11
-3.846e-11
-4.72827e-11
-3.87047e-11
-5.73947e-11
-3.25128e-11
-4.38334e-11
-5.94199e-11
-2.9347e-12
-6.22877e-11
-5.61361e-11
3.60091e-11
-6.77115e-11
-7.11826e-11
9.51188e-11
-4.32139e-11
-7.59658e-11
1.38965e-10
-3.6535e-11
-7.03634e-11
1.78202e-10
-2.83552e-11
-5.68704e-11
2.08251e-10
-1.92176e-11
-4.6127e-11
2.28099e-10
-1.01296e-11
-3.2555e-11
2.46664e-10
-8.01189e-12
-2.16264e-11
2.56382e-10
-3.70207e-12
-9.27743e-12
2.62147e-10
-4.26751e-12
1.99913e-10
-4.39407e-12
5.58891e-12
1.85919e-12
1.29465e-11
1.56184e-12
2.01779e-11
2.20095e-12
2.91127e-11
1.56978e-12
3.83618e-11
1.90193e-12
5.04727e-11
1.24637e-12
6.28765e-11
1.01479e-12
7.47057e-11
1.67784e-12
7.99749e-11
3.27067e-14
6.39904e-11
-1.18668e-12
4.37429e-11
1.8242e-12
2.60246e-11
1.07718e-11
1.32857e-11
1.34721e-11
-4.64514e-13
2.05732e-11
-1.39855e-11
2.02847e-11
-2.70283e-11
1.32429e-11
-4.49834e-11
1.0391e-11
-6.48984e-11
1.13734e-12
-8.05057e-11
3.81383e-13
-7.56195e-11
3.83113e-13
-6.38647e-11
1.57529e-12
-5.14323e-11
9.15684e-13
-3.90385e-11
1.08027e-12
-2.97332e-11
1.96222e-12
-2.05506e-11
1.49154e-12
-1.32335e-11
2.27599e-12
-5.69821e-12
1.53908e-12
1.88359e-12
4.93626e-10
-5.46248e-09
1.0065e-08
-1.44952e-10
-2.28652e-09
6.81745e-09
-8.15649e-10
-2.45094e-09
7.23677e-09
-1.36497e-09
-2.59303e-09
7.28388e-09
-1.97181e-09
-2.58558e-09
7.32569e-09
-2.56583e-09
-2.82273e-09
7.74445e-09
-3.04594e-09
-3.25524e-09
8.30928e-09
-3.31129e-09
-3.62298e-09
8.6274e-09
-3.21811e-09
-3.72211e-09
8.16694e-09
-2.53183e-09
-3.90758e-09
7.39451e-09
-1.7035e-09
-3.79778e-09
6.92453e-09
-8.5793e-10
-3.83557e-09
6.96462e-09
-3.21294e-10
-3.83997e-09