/*--------------------------------*- C++ -*----------------------------------*\
| =========                 |                                                 |
| \\      /  F ield         | OpenFOAM: The Open Source CFD Toolbox           |
|  \\    /   O peration     | Version:  2.3.0                                 |
|   \\  /    A nd           | Web:      www.OpenFOAM.org                      |
|    \\/     M anipulation  |                                                 |
\*---------------------------------------------------------------------------*/
FoamFile
{
    version     2.0;
    format      ascii;
    class       volScalarField;
    location    "87";
    object      p;
}
// * * * * * * * * * * * * * * * * * * * * * * * * * * * * * * * * * * * * * //

dimensions      [1 -1 -2 0 0 0 0];

internalField   nonuniform List<scalar> 
1875
(
107095
107100
107101
107099
107096
107092
107086
107081
107075
107069
107065
107061
107058
107056
107056
107057
107058
107061
107063
107066
107069
107071
107073
107073
107077
106953
106954
106952
106949
106945
106941
106936
106932
106927
106923
106920
106917
106916
106915
106916
106917
106919
106921
106924
106927
106929
106932
106935
106937
106940
106854
106855
106851
106847
106842
106838
106833
106829
106825
106822
106820
106818
106817
106818
106819
106821
106823
106825
106828
106831
106834
106836
106838
106839
106840
106735
106730
106726
106722
106718
106713
106709
106705
106702
106699
106697
106697
106698
106699
106702
106705
106709
106713
106717
106720
106723
106725
106727
106728
106729
106616
106610
106607
106605
106601
106597
106594
106591
106588
106587
106586
106586
106588
106590
106594
106598
106603
106607
106612
106615
106618
106619
106621
106621
106621
106501
106494
106492
106490
106488
106485
106482
106480
106478
106477
106478
106479
106481
106485
106489
106494
106499
106504
106508
106511
106513
106515
106516
106516
106515
106393
106384
106383
106382
106380
106378
106376
106375
106374
106374
106376
106378
106381
106385
106390
106394
106399
106403
106406
106408
106410
106411
106411
106412
106410
106289
106279
106279
106278
106277
106276
106275
106275
106275
106276
106278
106280
106284
106287
106291
106295
106299
106302
106304
106305
106306
106307
106307
106306
106305
106186
106177
106177
106177
106177
106177
106177
106177
106177
106179
106180
106183
106186
106189
106192
106195
106197
106199
106201
106201
106202
106202
106201
106201
106199
106084
106076
106077
106077
106078
106078
106078
106079
106079
106080
106081
106083
106085
106088
106090
106092
106094
106095
106095
106096
106095
106095
106095
106094
106093
105982
105975
105976
105976
105977
105977
105977
105977
105977
105978
105979
105980
105982
105984
105985
105986
105987
105988
105988
105989
105988
105988
105987
105986
105985
105878
105872
105872
105873
105873
105873
105873
105873
105873
105873
105874
105874
105876
105877
105878
105879
105879
105880
105880
105880
105880
105880
105879
105878
105876
105772
105767
105767
105767
105767
105767
105766
105766
105766
105766
105766
105767
105767
105768
105769
105769
105770
105771
105771
105771
105772
105771
105771
105770
105768
105665
105660
105660
105660
105660
105659
105659
105658
105658
105657
105657
105657
105658
105658
105659
105659
105660
105661
105662
105663
105663
105664
105664
105664
105662
105558
105554
105554
105553
105553
105552
105551
105550
105549
105548
105548
105547
105548
105548
105549
105550
105551
105552
105553
105554
105555
105556
105557
105558
105556
105450
105448
105447
105447
105446
105444
105443
105442
105440
105439
105438
105438
105438
105439
105439
105440
105441
105442
105444
105445
105446
105448
105450
105452
105452
105343
105343
105342
105341
105340
105338
105336
105334
105333
105331
105330
105330
105330
105330
105331
105331
105332
105333
105334
105336
105337
105339
105341
105344
105347
105238
105239
105238
105236
105235
105233
105231
105229
105227
105225
105224
105223
105223
105223
105223
105224
105225
105226
105227
105228
105229
105230
105231
105233
105237
105133
105136
105135
105133
105131
105129
105127
105124
105122
105120
105119
105118
105117
105117
105117
105118
105119
105119
105120
105121
105122
105123
105123
105123
105127
105029
105033
105032
105030
105028
105026
105024
105022
105019
105017
105015
105014
105013
105013
105013
105013
105014
105015
105015
105016
105017
105017
105017
105017
105020
104926
104930
104929
104928
104926
104924
104921
104919
104917
104914
104912
104911
104910
104909
104909
104910
104910
104911
104911
104912
104912
104913
104913
104912
104915
104822
104826
104826
104825
104823
104821
104819
104817
104814
104812
104810
104808
104807
104806
104806
104807
104807
104808
104808
104808
104809
104809
104809
104809
104811
104717
104721
104722
104721
104720
104718
104716
104714
104712
104710
104708
104706
104705
104704
104704
104704
104704
104704
104705
104705
104706
104706
104706
104706
104709
104610
104614
104615
104616
104615
104614
104612
104610
104608
104607
104606
104604
104603
104602
104602
104601
104601
104601
104602
104602
104603
104603
104603
104603
104606
104505
104507
104508
104509
104509
104509
104507
104506
104504
104503
104502
104501
104500
104500
104499
104499
104498
104498
104499
104499
104499
104499
104499
104499
104503
104398
104400
104401
104401
104402
104402
104401
104400
104399
104397
104397
104396
104396
104396
104396
104396
104395
104395
104395
104395
104396
104396
104396
104396
104399
104291
104292
104292
104293
104293
104293
104293
104293
104292
104291
104291
104291
104291
104291
104291
104292
104292
104292
104291
104291
104292
104292
104292
104292
104294
104184
104184
104185
104185
104185
104185
104185
104185
104185
104185
104185
104185
104185
104186
104187
104187
104188
104188
104187
104187
104187
104187
104187
104187
104189
104079
104078
104077
104077
104077
104077
104077
104078
104078
104078
104078
104079
104080
104081
104082
104082
104083
104083
104083
104083
104083
104083
104082
104082
104084
103975
103973
103971
103971
103971
103971
103971
103971
103971
103972
103973
103974
103975
103976
103977
103978
103978
103979
103979
103979
103978
103978
103977
103978
103979
103871
103867
103866
103866
103866
103865
103865
103865
103866
103867
103868
103869
103870
103871
103872
103873
103874
103874
103874
103874
103874
103874
103874
103874
103874
103767
103762
103762
103762
103761
103761
103760
103761
103761
103762
103764
103765
103766
103767
103768
103769
103769
103770
103770
103770
103770
103770
103770
103770
103770
103661
103658
103658
103657
103656
103656
103656
103656
103657
103659
103660
103661
103662
103663
103664
103665
103665
103666
103666
103666
103666
103665
103666
103666
103665
103556
103553
103554
103553
103552
103552
103552
103553
103554
103556
103557
103558
103559
103560
103560
103561
103561
103561
103562
103562
103561
103561
103562
103562
103561
103453
103450
103450
103449
103448
103448
103449
103450
103452
103453
103454
103455
103455
103456
103456
103457
103457
103457
103458
103458
103457
103457
103457
103458
103456
103349
103346
103346
103345
103345
103346
103347
103348
103349
103350
103351
103352
103352
103353
103353
103353
103353
103354
103354
103354
103353
103353
103353
103353
103352
103246
103242
103242
103242
103242
103243
103244
103246
103247
103247
103248
103248
103249
103249
103249
103250
103250
103250
103250
103250
103249
103249
103249
103249
103249
103142
103139
103139
103139
103140
103141
103142
103143
103144
103145
103145
103145
103146
103146
103146
103146
103146
103146
103146
103146
103145
103145
103145
103144
103145
103040
103037
103037
103037
103038
103039
103040
103041
103041
103042
103042
103042
103043
103043
103043
103043
103043
103043
103042
103042
103042
103041
103041
103039
103041
102937
102935
102935
102935
102936
102937
102938
102938
102939
102939
102939
102939
102939
102939
102939
102939
102939
102939
102939
102939
102938
102938
102938
102937
102938
102835
102833
102833
102834
102834
102835
102835
102836
102836
102836
102836
102836
102836
102836
102836
102836
102836
102836
102836
102835
102835
102835
102835
102835
102835
102733
102731
102731
102731
102732
102732
102733
102733
102733
102733
102733
102733
102733
102733
102733
102733
102733
102733
102733
102732
102732
102732
102732
102732
102732
102630
102629
102629
102629
102629
102630
102630
102630
102630
102630
102631
102631
102630
102630
102630
102630
102630
102630
102629
102629
102629
102629
102629
102629
102629
102527
102526
102527
102527
102527
102527
102527
102528
102528
102528
102528
102528
102528
102527
102527
102527
102527
102527
102526
102526
102526
102526
102526
102526
102526
102424
102424
102424
102424
102424
102424
102425
102425
102425
102425
102425
102425
102425
102424
102424
102424
102424
102424
102423
102423
102423
102423
102423
102423
102424
102322
102321
102321
102322
102322
102322
102322
102322
102322
102322
102322
102322
102322
102322
102321
102321
102321
102321
102321
102320
102320
102320
102320
102320
102321
102219
102219
102219
102219
102219
102219
102219
102219
102219
102219
102219
102219
102219
102219
102219
102218
102218
102218
102218
102218
102218
102218
102218
102217
102218
102116
102116
102116
102116
102116
102116
102116
102116
102116
102116
102116
102116
102116
102116
102116
102115
102115
102115
102115
102115
102115
102115
102115
102115
102116
102013
102013
102013
102013
102013
102013
102014
102014
102014
102014
102013
102013
102013
102013
102013
102013
102012
102012
102012
102012
102012
102012
102012
102012
102013
101910
101910
101910
101911
101911
101911
101911
101911
101911
101911
101911
101911
101910
101910
101910
101910
101910
101909
101909
101909
101909
101909
101909
101909
101910
101808
101808
101808
101808
101808
101808
101808
101808
101808
101808
101808
101808
101808
101808
101807
101807
101807
101807
101806
101806
101806
101806
101806
101806
101807
101705
101705
101705
101705
101705
101705
101705
101705
101705
101705
101705
101705
101705
101705
101705
101704
101704
101704
101704
101704
101704
101704
101704
101704
101705
101602
101602
101602
101602
101602
101602
101603
101603
101603
101602
101602
101602
101602
101602
101602
101602
101602
101601
101601
101601
101601
101601
101601
101601
101602
101499
101499
101499
101500
101500
101500
101500
101500
101500
101500
101500
101500
101499
101499
101499
101499
101499
101499
101498
101498
101498
101498
101498
101498
101499
101396
101397
101397
101397
101397
101397
101397
101397
101397
101397
101397
101397
101397
101397
101396
101396
101396
101396
101396
101396
101395
101395
101395
101395
101396
101294
101294
101294
101294
101294
101294
101294
101294
101294
101294
101294
101294
101294
101294
101293
101293
101293
101293
101293
101293
101293
101293
101293
101293
101294
101191
101191
101191
101191
101191
101191
101191
101191
101191
101191
101191
101191
101191
101191
101191
101191
101191
101190
101190
101190
101190
101190
101190
101190
101191
101088
101088
101088
101088
101088
101088
101088
101089
101089
101089
101088
101088
101088
101088
101088
101088
101088
101088
101088
101087
101087
101087
101087
101087
101088
100985
100986
100986
100986
100986
100986
100986
100986
100986
100986
100986
100986
100985
100985
100985
100985
100985
100985
100985
100985
100985
100985
100985
100985
100986
100883
100883
100883
100883
100883
100883
100883
100883
100883
100883
100883
100883
100883
100883
100883
100883
100882
100882
100882
100882
100882
100882
100882
100882
100883
100780
100780
100780
100780
100780
100780
100780
100780
100780
100780
100780
100780
100780
100780
100780
100780
100780
100779
100779
100779
100779
100779
100779
100779
100780
100677
100678
100677
100677
100678
100678
100678
100678
100678
100678
100677
100677
100677
100677
100677
100677
100677
100677
100676
100676
100676
100676
100677
100677
100678
100574
100575
100575
100575
100575
100575
100575
100575
100575
100575
100575
100575
100575
100575
100574
100574
100574
100574
100574
100573
100574
100574
100574
100574
100575
100472
100472
100472
100472
100472
100472
100472
100472
100473
100473
100473
100473
100472
100472
100472
100472
100472
100471
100471
100471
100471
100471
100472
100472
100473
100370
100370
100370
100370
100370
100370
100370
100370
100370
100370
100370
100370
100370
100370
100370
100370
100370
100369
100369
100369
100369
100369
100369
100369
100371
100267
100266
100267
100267
100268
100268
100268
100268
100269
100269
100269
100269
100268
100268
100268
100268
100267
100267
100267
100266
100266
100266
100266
100266
100267
100151
100153
100154
100155
100155
100156
100156
100156
100156
100156
100156
100156
100156
100155
100155
100154
100153
100152
100152
100151
100150
100150
100149
100148
100146
100035
100041
100044
100045
100046
100046
100046
100046
100046
100046
100046
100045
100045
100044
100044
100043
100042
100041
100040
100039
100039
100038
100037
100034
100028
100003
100005
100006
100007
100007
100007
100007
100007
100007
100007
100007
100007
100006
100006
100006
100006
100006
100006
100006
100006
100006
100006
100005
100004
100003
100001
100001
100001
100001
100001
100001
100001
100001
100001
100001
100001
100001
100001
100001
100001
100001
100001
100001
100001
100001
100001
100001
100001
100001
100001
100001
100001
100001
100001
100001
100001
100001
100001
100001
100001
100001
100001
100001
100001
100001
100001
100001
100001
100001
100001
100001
100001
100001
100001
100001
100001
100001
100001
100001
100001
100001
100001
100001
100001
100001
100001
100001
100001
100001
100001
100001
100001
100001
100001
100000
100000
100000
100000
100000
100000
100000
100000
100000
100000
100000
100000
100000
100000
100000
100000
100000
100000
100000
100000
100000
100000
100000
100000
100000
100000
100000
100000
100000
100000
100000
100000
100000
100000
100000
100000
100000
100000
100000
100000
100000
100000
100000
100000
100000
100000
100000
100000
100000
100000
100000
100000
100000
100000
100000
100000
100000
100000
100000
100000
100000
100000
100000
100000
100000
100000
100000
100000
100000
100000
100000
100000
100000
100000
100000
100000
100000
100000
100000
100000
100000
)
;

boundaryField
{
    inlet
    {
        type            fixedFluxPressure;
        gradient        nonuniform List<scalar> 
25
(
1469.84
1173.97
1044.07
1023.67
1027.22
1042.86
1064.18
1086.39
1105.68
1120.4
1130.34
1135.55
1131.16
1119.02
1101.48
1085.55
1064.54
1041.75
1017.84
992.387
978.426
1003.58
1123.59
1314.87
1395.01
)
;
        value           nonuniform List<scalar> 
25
(
107105
107108
107108
107106
107103
107099
107094
107088
107082
107077
107072
107069
107066
107064
107063
107064
107065
107068
107070
107073
107076
107078
107080
107082
107086
)
;
    }
    outlet
    {
        type            fixedValue;
        value           uniform 100000;
    }
    walls
    {
        type            fixedFluxPressure;
        gradient        uniform 0;
        value           nonuniform List<scalar> 
150
(
107095
106953
106854
106735
106616
106501
106393
106289
106186
106084
105982
105878
105772
105665
105558
105450
105343
105238
105133
105029
104926
104822
104717
104610
104505
104398
104291
104184
104079
103975
103871
103767
103661
103556
103453
103349
103246
103142
103040
102937
102835
102733
102630
102527
102424
102322
102219
102116
102013
101910
101808
101705
101602
101499
101396
101294
101191
101088
100985
100883
100780
100677
100574
100472
100370
100267
100151
100035
100003
100001
100001
100001
100000
100000
100000
107077
106940
106840
106729
106621
106515
106410
106305
106199
106093
105985
105876
105768
105662
105556
105452
105347
105237
105127
105020
104915
104811
104709
104606
104503
104399
104294
104189
104084
103979
103874
103770
103665
103561
103456
103352
103249
103145
103041
102938
102835
102732
102629
102526
102424
102321
102218
102116
102013
101910
101807
101705
101602
101499
101396
101294
101191
101088
100986
100883
100780
100678
100575
100473
100371
100267
100146
100028
100003
100001
100001
100000
100000
100000
100000
)
;
    }
    defaultFaces
    {
        type            empty;
    }
}


// ************************************************************************* //
