/*--------------------------------*- C++ -*----------------------------------*\
| =========                 |                                                 |
| \\      /  F ield         | OpenFOAM: The Open Source CFD Toolbox           |
|  \\    /   O peration     | Version:  2.3.0                                 |
|   \\  /    A nd           | Web:      www.OpenFOAM.org                      |
|    \\/     M anipulation  |                                                 |
\*---------------------------------------------------------------------------*/
FoamFile
{
    version     2.0;
    format      ascii;
    class       volVectorField;
    location    "31";
    object      U.water;
}
// * * * * * * * * * * * * * * * * * * * * * * * * * * * * * * * * * * * * * //

dimensions      [0 1 -1 0 0 0 0];

internalField   nonuniform List<vector> 
1875
(
(0.0275984 -0.134662 0)
(0.0647568 -0.137262 0)
(0.108156 -0.133343 0)
(0.145746 -0.125961 0)
(0.176964 -0.11676 0)
(0.199916 -0.106203 0)
(0.214761 -0.0957083 0)
(0.215233 -0.0833401 0)
(0.201434 -0.0737861 0)
(0.169841 -0.0662444 0)
(0.13146 -0.0707091 0)
(0.0938676 -0.0936021 0)
(0.0713301 -0.123031 0)
(0.0584265 -0.145873 0)
(0.0475588 -0.163645 0)
(0.0390865 -0.177026 0)
(0.0308263 -0.187497 0)
(0.0248689 -0.19418 0)
(0.0172124 -0.201037 0)
(0.0123701 -0.199002 0)
(0.0025663 -0.173508 0)
(-0.00691107 -0.191749 0)
(-0.0134325 -0.217546 0)
(-0.0178395 -0.162518 0)
(-0.01234 -0.102415 0)
(0.0254305 -0.107015 0)
(0.054265 -0.101598 0)
(0.0853271 -0.0866636 0)
(0.110608 -0.0651156 0)
(0.13089 -0.0386316 0)
(0.145544 -0.00607707 0)
(0.15382 0.0373639 0)
(0.149468 0.0838709 0)
(0.137752 0.128401 0)
(0.119518 0.15588 0)
(0.10024 0.16264 0)
(0.0833707 0.157133 0)
(0.0700242 0.154502 0)
(0.0575913 0.160978 0)
(0.0440906 0.171062 0)
(0.0310179 0.179912 0)
(0.0210161 0.186353 0)
(0.0178842 0.190345 0)
(0.0177728 0.194181 0)
(0.0162337 0.192831 0)
(0.0144079 0.175504 0)
(0.0191444 0.185828 0)
(-0.0130245 0.205066 0)
(-0.04898 0.118627 0)
(-0.00486323 -0.0110114 0)
(0.01237 -0.211641 0)
(0.0300045 -0.197264 0)
(0.0438846 -0.171986 0)
(0.05061 -0.142146 0)
(0.0508351 -0.109385 0)
(0.0450897 -0.0723348 0)
(0.035568 -0.0272193 0)
(0.0243044 0.0307801 0)
(0.00994327 0.0862624 0)
(-0.00520393 0.112148 0)
(-0.0181314 0.100774 0)
(-0.0314552 0.0648181 0)
(-0.0384838 0.0238114 0)
(-0.0455911 0.000555836 0)
(-0.0498843 -0.0172862 0)
(-0.0523566 -0.0434524 0)
(-0.0529923 -0.082137 0)
(-0.0509947 -0.114765 0)
(-0.0476694 -0.122065 0)
(-0.0383313 -0.113063 0)
(-0.0308183 -0.0964866 0)
(-0.00654776 -0.0469116 0)
(0.0100328 0.034668 0)
(0.0298341 -0.0897307 0)
(0.0272392 -0.133296 0)
(0.000902548 -0.227221 0)
(0.00476612 -0.205581 0)
(-0.000150932 -0.166115 0)
(-0.00841438 -0.119019 0)
(-0.0201206 -0.0673008 0)
(-0.0363118 -0.0102985 0)
(-0.0565752 0.0531665 0)
(-0.0739673 0.118049 0)
(-0.0808518 0.157456 0)
(-0.079091 0.164821 0)
(-0.0686882 0.142911 0)
(-0.059637 0.114333 0)
(-0.0586108 0.103524 0)
(-0.0607183 0.100876 0)
(-0.0639656 0.100644 0)
(-0.0673691 0.102268 0)
(-0.0742697 0.108341 0)
(-0.0873865 0.11566 0)
(-0.0998665 0.107512 0)
(-0.104972 0.0831972 0)
(-0.101744 0.0405026 0)
(-0.0883058 0.0186168 0)
(-0.0377318 0.0221573 0)
(-0.0129533 0.0236587 0)
(0.00357475 0.0245875 0)
(-0.0146927 -0.218507 0)
(-0.021035 -0.18905 0)
(-0.0437246 -0.142978 0)
(-0.0653185 -0.0924319 0)
(-0.0863342 -0.0378301 0)
(-0.106211 0.0211427 0)
(-0.122863 0.0799043 0)
(-0.130102 0.118914 0)
(-0.128283 0.132011 0)
(-0.11845 0.125326 0)
(-0.11563 0.104429 0)
(-0.120287 0.088791 0)
(-0.13092 0.0802789 0)
(-0.143649 0.0715292 0)
(-0.155692 0.0564816 0)
(-0.165237 0.037453 0)
(-0.168619 0.0168372 0)
(-0.163353 -0.00663283 0)
(-0.150415 -0.0349482 0)
(-0.132168 -0.0635918 0)
(-0.113871 -0.085889 0)
(-0.0965288 -0.104525 0)
(-0.0720633 -0.112095 0)
(-0.0437134 -0.112569 0)
(-0.0166301 -0.10303 0)
(-0.0189487 -0.175498 0)
(-0.0298893 -0.140764 0)
(-0.0565222 -0.0924396 0)
(-0.0791385 -0.0427656 0)
(-0.0999374 0.00915078 0)
(-0.116892 0.0593757 0)
(-0.126948 0.101086 0)
(-0.127752 0.121741 0)
(-0.12508 0.126858 0)
(-0.122474 0.125702 0)
(-0.125062 0.120789 0)
(-0.134429 0.121085 0)
(-0.145878 0.121251 0)
(-0.158282 0.116934 0)
(-0.170482 0.105996 0)
(-0.179229 0.0878743 0)
(-0.183642 0.0622618 0)
(-0.182572 0.0318756 0)
(-0.175982 -0.0038916 0)
(-0.163463 -0.0418282 0)
(-0.14544 -0.0777655 0)
(-0.122661 -0.108848 0)
(-0.0952357 -0.132002 0)
(-0.0598102 -0.143772 0)
(-0.0306954 -0.142617 0)
(-0.0193767 -0.132044 0)
(-0.0312636 -0.0943655 0)
(-0.0555009 -0.048939 0)
(-0.0748711 -0.00394204 0)
(-0.0917947 0.0417178 0)
(-0.104562 0.0821259 0)
(-0.111314 0.1109 0)
(-0.113323 0.123477 0)
(-0.113406 0.128036 0)
(-0.115936 0.132609 0)
(-0.123021 0.13923 0)
(-0.132237 0.1431 0)
(-0.142401 0.142554 0)
(-0.152847 0.135281 0)
(-0.16124 0.115864 0)
(-0.166628 0.0847426 0)
(-0.168183 0.0447704 0)
(-0.165249 -0.00104724 0)
(-0.157247 -0.0482167 0)
(-0.145475 -0.0955823 0)
(-0.130095 -0.140902 0)
(-0.110836 -0.182358 0)
(-0.0868499 -0.217975 0)
(-0.0554832 -0.244168 0)
(-0.0286676 -0.253704 0)
(-0.0167166 -0.0861284 0)
(-0.0267908 -0.0485139 0)
(-0.0459317 -0.00734133 0)
(-0.0611233 0.0322513 0)
(-0.0739287 0.0707711 0)
(-0.0831245 0.10187 0)
(-0.0879961 0.121591 0)
(-0.0902198 0.130462 0)
(-0.0928328 0.137152 0)
(-0.0970206 0.145886 0)
(-0.101653 0.154383 0)
(-0.106675 0.158886 0)
(-0.111901 0.159326 0)
(-0.115718 0.149593 0)
(-0.115841 0.125742 0)
(-0.112669 0.0920103 0)
(-0.107514 0.04904 0)
(-0.101628 -0.00117265 0)
(-0.0964162 -0.0571001 0)
(-0.0891234 -0.111458 0)
(-0.0794823 -0.163571 0)
(-0.0677489 -0.212766 0)
(-0.0538924 -0.257793 0)
(-0.0357522 -0.296363 0)
(-0.0137773 -0.317835 0)
(-0.0118466 -0.05155 0)
(-0.0182164 -0.0158954 0)
(-0.0306667 0.0214515 0)
(-0.040288 0.0563732 0)
(-0.0478946 0.0894108 0)
(-0.0529097 0.114763 0)
(-0.0553095 0.12989 0)
(-0.0563684 0.137448 0)
(-0.0573376 0.144428 0)
(-0.0579682 0.152315 0)
(-0.0571797 0.158605 0)
(-0.0559025 0.161755 0)
(-0.053962 0.160597 0)
(-0.050246 0.145922 0)
(-0.0442923 0.118125 0)
(-0.0372427 0.0801926 0)
(-0.0295192 0.0355004 0)
(-0.0220898 -0.0150047 0)
(-0.0162989 -0.0687815 0)
(-0.013036 -0.126415 0)
(-0.0116021 -0.182387 0)
(-0.010928 -0.234873 0)
(-0.0107921 -0.282972 0)
(-0.0109835 -0.32418 0)
(-0.00216231 -0.348021 0)
(-0.00574576 -0.0307893 0)
(-0.00838989 0.00313574 0)
(-0.0137425 0.0375795 0)
(-0.0170973 0.0685218 0)
(-0.0188423 0.0972211 0)
(-0.0188939 0.118655 0)
(-0.0176584 0.13096 0)
(-0.0159368 0.136891 0)
(-0.013726 0.141505 0)
(-0.0102761 0.145942 0)
(-0.00516188 0.149149 0)
(0.00117642 0.150933 0)
(0.00840838 0.148305 0)
(0.0160165 0.132602 0)
(0.0237808 0.104605 0)
(0.0310374 0.0680557 0)
(0.0374405 0.0246906 0)
(0.0426739 -0.0226817 0)
(0.0461775 -0.0730953 0)
(0.0469128 -0.124138 0)
(0.0437087 -0.175347 0)
(0.0369205 -0.225837 0)
(0.0269715 -0.27372 0)
(0.0135299 -0.319656 0)
(0.00691811 -0.35116 0)
(-0.000467092 -0.0242924 0)
(0.000443507 0.0079442 0)
(0.00222995 0.039341 0)
(0.00501642 0.0669795 0)
(0.0089338 0.0925994 0)
(0.0138587 0.112004 0)
(0.0190946 0.123748 0)
(0.024069 0.129268 0)
(0.0291049 0.131621 0)
(0.0350258 0.132577 0)
(0.0422062 0.132105 0)
(0.0507435 0.131221 0)
(0.0606239 0.128151 0)
(0.0701805 0.114876 0)
(0.0779074 0.0905908 0)
(0.083579 0.0575248 0)
(0.0870878 0.0183929 0)
(0.0882003 -0.0251549 0)
(0.0867236 -0.0705789 0)
(0.0823685 -0.116691 0)
(0.0749158 -0.16169 0)
(0.0639635 -0.205356 0)
(0.0496197 -0.246941 0)
(0.0295948 -0.287958 0)
(0.0191766 -0.320343 0)
(0.00415391 -0.0300307 0)
(0.00805163 -0.00109319 0)
(0.0162713 0.028047 0)
(0.024061 0.0535048 0)
(0.0324337 0.0768761 0)
(0.0414136 0.0954504 0)
(0.0502818 0.107891 0)
(0.0585028 0.114545 0)
(0.066108 0.11684 0)
(0.0735674 0.116292 0)
(0.0813242 0.113636 0)
(0.0897404 0.110111 0)
(0.0993779 0.106005 0)
(0.109035 0.0967141 0)
(0.116469 0.0787434 0)
(0.120744 0.0526705 0)
(0.121687 0.0201941 0)
(0.119203 -0.0163448 0)
(0.113235 -0.055333 0)
(0.103822 -0.0948532 0)
(0.0910485 -0.134074 0)
(0.0753698 -0.17259 0)
(0.0573283 -0.209054 0)
(0.0345551 -0.244663 0)
(0.0222181 -0.274552 0)
(0.00751744 -0.0472872 0)
(0.0135764 -0.0223796 0)
(0.026746 0.0059658 0)
(0.0385222 0.0309846 0)
(0.0501242 0.0531782 0)
(0.0618709 0.0714662 0)
(0.0732993 0.0849403 0)
(0.0839363 0.093502 0)
(0.0935696 0.0976498 0)
(0.102227 0.0983646 0)
(0.110094 0.0961639 0)
(0.117457 0.0919967 0)
(0.125102 0.0869308 0)
(0.133048 0.0797804 0)
(0.139477 0.0679117 0)
(0.142558 0.0498179 0)
(0.141698 0.0261525 0)
(0.136893 -0.00202921 0)
(0.128193 -0.0329017 0)
(0.115688 -0.0652179 0)
(0.0997647 -0.0981888 0)
(0.081051 -0.131674 0)
(0.0603025 -0.163953 0)
(0.0355616 -0.195908 0)
(0.0231244 -0.223584 0)
(0.00916383 -0.0703192 0)
(0.0159903 -0.0505637 0)
(0.0321483 -0.0237733 0)
(0.0471072 0.00166329 0)
(0.0613208 0.0241047 0)
(0.0750926 0.0429749 0)
(0.0881771 0.0578989 0)
(0.100199 0.068714 0)
(0.110904 0.0755905 0)
(0.120139 0.0791772 0)
(0.127861 0.0797045 0)
(0.13425 0.0775019 0)
(0.139684 0.0728476 0)
(0.144477 0.0672392 0)
(0.148344 0.0608307 0)
(0.149923 0.0506907 0)
(0.148108 0.0354036 0)
(0.142226 0.0159322 0)
(0.132275 -0.0066324 0)
(0.118497 -0.03136 0)
(0.101346 -0.0580746 0)
(0.0815337 -0.0867438 0)
(0.059901 -0.115217 0)
(0.0347435 -0.144323 0)
(0.0221578 -0.170645 0)
(0.00928526 -0.0946791 0)
(0.0160684 -0.0816298 0)
(0.0337193 -0.0584558 0)
(0.0514945 -0.0329562 0)
(0.068436 -0.00952362 0)
(0.0843147 0.0110332 0)
(0.0988238 0.0284247 0)
(0.111605 0.0424218 0)
(0.122418 0.0529557 0)
(0.131172 0.0604983 0)
(0.137955 0.0650356 0)
(0.142763 0.0662824 0)
(0.145658 0.0661056 0)
(0.14704 0.0641473 0)
(0.147392 0.0598021 0)
(0.146968 0.0539497 0)
(0.144258 0.0459229 0)
(0.138062 0.0348871 0)
(0.127903 0.0205164 0)
(0.114069 0.00307344 0)
(0.0970936 -0.0176512 0)
(0.0776399 -0.04184 0)
(0.0565705 -0.0670316 0)
(0.0324473 -0.094151 0)
(0.0204802 -0.120099 0)
(0.0103298 -0.119311 0)
(0.0175314 -0.114232 0)
(0.0362589 -0.0975979 0)
(0.0567463 -0.0736423 0)
(0.0767063 -0.0487619 0)
(0.0949869 -0.0250473 0)
(0.110959 -0.00326243 0)
(0.124201 0.0159118 0)
(0.134517 0.0319369 0)
(0.142013 0.0447598 0)
(0.146813 0.0541681 0)
(0.148897 0.0609789 0)
(0.148595 0.0642261 0)
(0.146776 0.0645251 0)
(0.143946 0.063141 0)
(0.14007 0.0609625 0)
(0.135058 0.0583674 0)
(0.128067 0.0542329 0)
(0.118152 0.0472263 0)
(0.105053 0.036358 0)
(0.089131 0.0210487 0)
(0.0709882 0.000902888 0)
(0.0514359 -0.0215126 0)
(0.0292763 -0.0472696 0)
(0.0184351 -0.0733388 0)
(0.0152667 -0.149893 0)
(0.0246817 -0.15114 0)
(0.0447816 -0.140668 0)
(0.0661693 -0.119579 0)
(0.087355 -0.0931911 0)
(0.106878 -0.0649928 0)
(0.123654 -0.0369557 0)
(0.137031 -0.0105882 0)
(0.146574 0.0128895 0)
(0.152316 0.0329554 0)
(0.154469 0.0499212 0)
(0.153463 0.063211 0)
(0.150058 0.0715186 0)
(0.144995 0.0752845 0)
(0.138505 0.076501 0)
(0.13106 0.0763431 0)
(0.123211 0.0757087 0)
(0.114816 0.0749612 0)
(0.105027 0.0728835 0)
(0.0929985 0.0672379 0)
(0.0786434 0.0564228 0)
(0.0624154 0.0397375 0)
(0.0449999 0.0195499 0)
(0.0254326 -0.00533571 0)
(0.0160575 -0.0318149 0)
(0.0198855 -0.195507 0)
(0.0329711 -0.195759 0)
(0.0532382 -0.185002 0)
(0.0720771 -0.164183 0)
(0.0906251 -0.136162 0)
(0.108218 -0.103813 0)
(0.123817 -0.0694321 0)
(0.136511 -0.0349136 0)
(0.145585 -0.002194 0)
(0.150129 0.0266699 0)
(0.150275 0.051122 0)
(0.146993 0.0695905 0)
(0.141137 0.0826864 0)
(0.133675 0.0909549 0)
(0.125418 0.0951117 0)
(0.116669 0.0964727 0)
(0.107655 0.0966933 0)
(0.0985909 0.0970619 0)
(0.0891723 0.0973769 0)
(0.0785255 0.0952777 0)
(0.0661585 0.0877886 0)
(0.0522963 0.0738279 0)
(0.0375155 0.0552727 0)
(0.02104 0.0308099 0)
(0.0134529 0.00364934 0)
(0.0155795 -0.249327 0)
(0.0303103 -0.241769 0)
(0.0463989 -0.224381 0)
(0.0603064 -0.200328 0)
(0.0738444 -0.170208 0)
(0.0870018 -0.135122 0)
(0.0991545 -0.0965651 0)
(0.109571 -0.0561732 0)
(0.117282 -0.0159849 0)
(0.12141 0.021452 0)
(0.121997 0.0537631 0)
(0.119654 0.0797957 0)
(0.114452 0.0980873 0)
(0.107406 0.108455 0)
(0.099883 0.113676 0)
(0.0922902 0.11603 0)
(0.0845262 0.116925 0)
(0.0766653 0.117747 0)
(0.0687787 0.119047 0)
(0.0603552 0.11904 0)
(0.0507784 0.113941 0)
(0.0400397 0.101932 0)
(0.0286199 0.0844894 0)
(0.0159424 0.0601381 0)
(0.0104325 0.0320364 0)
(0.00644366 -0.283525 0)
(0.0163275 -0.271 0)
(0.0237431 -0.250472 0)
(0.0309426 -0.224701 0)
(0.0383109 -0.193297 0)
(0.0454128 -0.156485 0)
(0.0518402 -0.115387 0)
(0.0571093 -0.0715615 0)
(0.0608386 -0.0262255 0)
(0.0636899 0.0177896 0)
(0.0661186 0.0548208 0)
(0.0674508 0.0852785 0)
(0.0670651 0.107686 0)
(0.06438 0.121096 0)
(0.0605147 0.127199 0)
(0.0565128 0.130061 0)
(0.0523213 0.131697 0)
(0.0477403 0.13306 0)
(0.04293 0.134925 0)
(0.0377906 0.136097 0)
(0.0318655 0.132673 0)
(0.0250759 0.122093 0)
(0.0177902 0.105523 0)
(0.00975543 0.0811926 0)
(0.00667151 0.0522617 0)
(0.00101783 -0.295469 0)
(0.0012993 -0.280372 0)
(-0.00159133 -0.259827 0)
(-0.00263341 -0.234833 0)
(-0.00332054 -0.203057 0)
(-0.00416376 -0.164811 0)
(-0.00499426 -0.12151 0)
(-0.00530817 -0.0750639 0)
(-0.00400818 -0.0280891 0)
(-0.000585611 0.0140786 0)
(0.00378779 0.0513654 0)
(0.00798083 0.0826084 0)
(0.0115322 0.107064 0)
(0.0137667 0.123113 0)
(0.0149517 0.13034 0)
(0.0156112 0.133934 0)
(0.0157996 0.136785 0)
(0.015316 0.139469 0)
(0.0142665 0.14229 0)
(0.0127957 0.144408 0)
(0.0109582 0.142221 0)
(0.00863173 0.132684 0)
(0.00598541 0.116462 0)
(0.00307701 0.0915418 0)
(0.00264214 0.0621939 0)
(-0.00685862 -0.292709 0)
(-0.0126412 -0.272369 0)
(-0.0232184 -0.251593 0)
(-0.031873 -0.227219 0)
(-0.0400729 -0.195261 0)
(-0.0474279 -0.157227 0)
(-0.0527978 -0.115376 0)
(-0.0552067 -0.0727963 0)
(-0.0542795 -0.0315073 0)
(-0.0511527 0.00764132 0)
(-0.0468856 0.0430307 0)
(-0.0419456 0.0737729 0)
(-0.0366874 0.0980801 0)
(-0.0314387 0.114841 0)
(-0.0264993 0.123132 0)
(-0.0222471 0.128061 0)
(-0.0187262 0.132613 0)
(-0.0158925 0.137017 0)
(-0.0136131 0.141196 0)
(-0.0116365 0.143975 0)
(-0.00958436 0.142162 0)
(-0.0075624 0.132881 0)
(-0.00550685 0.11686 0)
(-0.00329804 0.0916688 0)
(-0.00123688 0.0619375 0)
(-0.0126086 -0.269232 0)
(-0.0207209 -0.248291 0)
(-0.0352888 -0.229228 0)
(-0.0481617 -0.20631 0)
(-0.0601222 -0.176313 0)
(-0.07006 -0.142303 0)
(-0.0769622 -0.106348 0)
(-0.0808874 -0.069514 0)
(-0.0824088 -0.0326401 0)
(-0.0818156 0.00271037 0)
(-0.0794697 0.0353548 0)
(-0.0756635 0.0635994 0)
(-0.0706918 0.0862082 0)
(-0.0647183 0.101833 0)
(-0.0583781 0.110366 0)
(-0.0526319 0.116654 0)
(-0.047553 0.122718 0)
(-0.0428848 0.128337 0)
(-0.0383758 0.133132 0)
(-0.0336943 0.135839 0)
(-0.0285013 0.133421 0)
(-0.0228472 0.123723 0)
(-0.0166656 0.107266 0)
(-0.00920162 0.0821205 0)
(-0.00465393 0.0531954 0)
(-0.0139668 -0.239054 0)
(-0.0221251 -0.219258 0)
(-0.0377921 -0.200565 0)
(-0.0520542 -0.179209 0)
(-0.0650679 -0.152372 0)
(-0.0760581 -0.122746 0)
(-0.0848212 -0.0914835 0)
(-0.0913762 -0.0593377 0)
(-0.0956838 -0.0272887 0)
(-0.0977675 0.00358843 0)
(-0.0977202 0.0318672 0)
(-0.0956866 0.0563333 0)
(-0.0918197 0.0755582 0)
(-0.0863905 0.0886273 0)
(-0.0805466 0.096889 0)
(-0.0751962 0.104098 0)
(-0.0700854 0.110908 0)
(-0.0648521 0.116692 0)
(-0.0591758 0.120943 0)
(-0.0526703 0.122277 0)
(-0.0450537 0.118005 0)
(-0.0364065 0.106574 0)
(-0.0265091 0.0879166 0)
(-0.0144669 0.0610572 0)
(-0.00783464 0.034311 0)
(-0.0134336 -0.206732 0)
(-0.02123 -0.187423 0)
(-0.036828 -0.16901 0)
(-0.0509501 -0.1495 0)
(-0.0639972 -0.125654 0)
(-0.0755896 -0.0995806 0)
(-0.0855867 -0.0722971 0)
(-0.0937999 -0.0445654 0)
(-0.100018 -0.0171914 0)
(-0.104108 0.00879807 0)
(-0.106063 0.0322738 0)
(-0.10591 0.0519267 0)
(-0.103696 0.0670482 0)
(-0.0999366 0.0778019 0)
(-0.0956811 0.0863377 0)
(-0.0914081 0.0936854 0)
(-0.0868584 0.0998219 0)
(-0.0816032 0.104217 0)
(-0.0751664 0.106236 0)
(-0.0671696 0.104609 0)
(-0.0574449 0.0970898 0)
(-0.0460808 0.0825127 0)
(-0.0328517 0.0607857 0)
(-0.0174477 0.0331668 0)
(-0.00955266 0.00972806 0)
(-0.0124587 -0.175851 0)
(-0.019804 -0.156502 0)
(-0.0346824 -0.138216 0)
(-0.048157 -0.12024 0)
(-0.0608354 -0.0986688 0)
(-0.0724496 -0.0753442 0)
(-0.0828292 -0.0511937 0)
(-0.0917741 -0.0270923 0)
(-0.0990366 -0.00381054 0)
(-0.104419 0.017844 0)
(-0.107778 0.0369382 0)
(-0.109068 0.0525083 0)
(-0.108623 0.0639261 0)
(-0.107033 0.0722036 0)
(-0.104788 0.0786494 0)
(-0.101862 0.0846522 0)
(-0.0978206 0.0893594 0)
(-0.0922869 0.090916 0)
(-0.0849482 0.0891176 0)
(-0.0755112 0.083084 0)
(-0.0639619 0.0711087 0)
(-0.0504243 0.0524969 0)
(-0.0349386 0.0276625 0)
(-0.0180418 0.000655774 0)
(-0.0101061 -0.0177944 0)
(-0.0114109 -0.146852 0)
(-0.0181163 -0.127037 0)
(-0.0318715 -0.108962 0)
(-0.0444178 -0.092223 0)
(-0.0563843 -0.0724869 0)
(-0.0675336 -0.0513256 0)
(-0.0777118 -0.0297044 0)
(-0.0867289 -0.00859739 0)
(-0.0943592 0.0111907 0)
(-0.100342 0.0289003 0)
(-0.104418 0.0437664 0)
(-0.106583 0.0555031 0)
(-0.107299 0.0644307 0)
(-0.107408 0.071124 0)
(-0.106922 0.0758776 0)
(-0.105111 0.0789765 0)
(-0.101156 0.0788282 0)
(-0.0949958 0.0758774 0)
(-0.0866138 0.0691718 0)
(-0.0759083 0.0580481 0)
(-0.0630262 0.0414503 0)
(-0.0482255 0.0191655 0)
(-0.0321102 -0.00717511 0)
(-0.0161332 -0.0312389 0)
(-0.00901802 -0.0447613 0)
(-0.0102335 -0.120651 0)
(-0.016145 -0.100488 0)
(-0.0284452 -0.0823245 0)
(-0.0397499 -0.0663929 0)
(-0.0506404 -0.0480425 0)
(-0.0608768 -0.0285979 0)
(-0.0703101 -0.00902225 0)
(-0.0787957 0.00965386 0)
(-0.0861533 0.0265552 0)
(-0.0921481 0.040887 0)
(-0.0966595 0.0521768 0)
(-0.0999174 0.0605641 0)
(-0.102192 0.0671692 0)
(-0.103283 0.0717229 0)
(-0.103057 0.0736052 0)
(-0.100803 0.0725222 0)
(-0.0963835 0.0672412 0)
(-0.0896672 0.0588534 0)
(-0.0805023 0.0468475 0)
(-0.0690039 0.0307905 0)
(-0.0554324 0.0102423 0)
(-0.0403561 -0.0142913 0)
(-0.0251263 -0.0395991 0)
(-0.0118101 -0.0585589 0)
(-0.00628306 -0.0666844 0)
(-0.00885841 -0.0974271 0)
(-0.0139189 -0.0768238 0)
(-0.0245497 -0.0587071 0)
(-0.0343576 -0.0433823 0)
(-0.0438468 -0.0261863 0)
(-0.0527473 -0.00820646 0)
(-0.0609418 0.00968007 0)
(-0.0683539 0.0264468 0)
(-0.074877 0.0411662 0)
(-0.0804399 0.0531097 0)
(-0.0851527 0.0621946 0)
(-0.0892442 0.068826 0)
(-0.0923336 0.0723703 0)
(-0.0938271 0.0730264 0)
(-0.093726 0.0709595 0)
(-0.0913716 0.0644202 0)
(-0.0869699 0.0545169 0)
(-0.080238 0.0408125 0)
(-0.0710635 0.0234968 0)
(-0.0595879 0.00282594 0)
(-0.0461961 -0.0208731 0)
(-0.0318613 -0.0458261 0)
(-0.0183675 -0.0675773 0)
(-0.00764317 -0.0797904 0)
(-0.0035604 -0.0816233 0)
(-0.00736534 -0.0778104 0)
(-0.0114621 -0.0569354 0)
(-0.0202273 -0.0387114 0)
(-0.0283716 -0.0237922 0)
(-0.0362239 -0.00767065 0)
(-0.0434705 0.00895337 0)
(-0.0500655 0.025382 0)
(-0.056005 0.0406773 0)
(-0.0613043 0.0538996 0)
(-0.0661166 0.0645312 0)
(-0.0706775 0.072413 0)
(-0.074916 0.0770534 0)
(-0.0782726 0.0781804 0)
(-0.0806948 0.0757135 0)
(-0.0814553 0.0687769 0)
(-0.0802793 0.0578926 0)
(-0.0769892 0.0428655 0)
(-0.0713851 0.0238598 0)
(-0.0634362 0.00144199 0)
(-0.0532524 -0.0235384 0)
(-0.0413352 -0.0497047 0)
(-0.0288851 -0.0740061 0)
(-0.0175011 -0.0915462 0)
(-0.00843136 -0.0975585 0)
(-0.00430727 -0.0921977 0)
(-0.00573611 -0.0619059 0)
(-0.00882938 -0.0408012 0)
(-0.0156183 -0.0225922 0)
(-0.0219627 -0.00799241 0)
(-0.0280237 0.00702048 0)
(-0.0334378 0.0223136 0)
(-0.0382195 0.0374566 0)
(-0.0424552 0.0516402 0)
(-0.046321 0.0640863 0)
(-0.0501172 0.0743793 0)
(-0.0540758 0.0819907 0)
(-0.0579839 0.0859874 0)
(-0.0617361 0.0857009 0)
(-0.0648838 0.0804896 0)
(-0.0669443 0.0702195 0)
(-0.0675313 0.0549807 0)
(-0.0663212 0.0351379 0)
(-0.0630807 0.0111692 0)
(-0.0576369 -0.0160762 0)
(-0.0500044 -0.0451338 0)
(-0.0407037 -0.0735553 0)
(-0.0308025 -0.0975758 0)
(-0.0213658 -0.112759 0)
(-0.0127087 -0.11635 0)
(-0.0074982 -0.109735 0)
(-0.00393386 -0.0501788 0)
(-0.00597365 -0.0289727 0)
(-0.0106797 -0.0106622 0)
(-0.0151709 0.00370204 0)
(-0.0194241 0.0176384 0)
(-0.0229834 0.0315631 0)
(-0.0258479 0.0454916 0)
(-0.0282103 0.0588634 0)
(-0.0303752 0.0711113 0)
(-0.0326983 0.0817489 0)
(-0.0354316 0.089849 0)
(-0.0384408 0.0939425 0)
(-0.041834 0.0933334 0)
(-0.0452003 0.087039 0)
(-0.0482362 0.0747815 0)
(-0.0505434 0.0567174 0)
(-0.0517436 0.0332931 0)
(-0.051471 0.00513155 0)
(-0.0493714 -0.0266795 0)
(-0.0451951 -0.05992 0)
(-0.0391942 -0.0912326 0)
(-0.0321297 -0.116589 0)
(-0.0245093 -0.13246 0)
(-0.0159361 -0.136945 0)
(-0.00935587 -0.13314 0)
(-0.00205539 -0.0429547 0)
(-0.00296714 -0.0214695 0)
(-0.0055049 -0.00292449 0)
(-0.00814093 0.011411 0)
(-0.0106781 0.0243201 0)
(-0.0124954 0.0366923 0)
(-0.0134693 0.0492287 0)
(-0.013825 0.0617544 0)
(-0.0139062 0.0739221 0)
(-0.0140623 0.0851773 0)
(-0.0145951 0.0943358 0)
(-0.0157376 0.0996318 0)
(-0.0176627 0.100072 0)
(-0.020307 0.094454 0)
(-0.0234137 0.082088 0)
(-0.0267158 0.0630217 0)
(-0.0298644 0.0376656 0)
(-0.0324399 0.00660779 0)
(-0.0339524 -0.0289695 0)
(-0.0338456 -0.0665091 0)
(-0.031881 -0.101615 0)
(-0.0283606 -0.130083 0)
(-0.0235689 -0.149422 0)
(-0.0166916 -0.158609 0)
(-0.00873516 -0.159972 0)
(-0.000395432 -0.040555 0)
(-0.000268065 -0.0189757 0)
(-0.000664297 0.000253228 0)
(-0.0014013 0.0150263 0)
(-0.00226056 0.0272068 0)
(-0.00255496 0.0379379 0)
(-0.00189878 0.0487061 0)
(-0.00035167 0.0599015 0)
(0.00176711 0.0714195 0)
(0.0041462 0.0827913 0)
(0.00645694 0.0929317 0)
(0.0082661 0.10024 0)
(0.00915635 0.10294 0)
(0.00886351 0.0995758 0)
(0.00724664 0.0891964 0)
(0.00437709 0.0715366 0)
(0.000486473 0.0466919 0)
(-0.00411054 0.0149837 0)
(-0.0089057 -0.022654 0)
(-0.0131179 -0.0635433 0)
(-0.0158935 -0.102696 0)
(-0.0168385 -0.135233 0)
(-0.0161584 -0.159031 0)
(-0.0133996 -0.174405 0)
(-0.00414132 -0.1842 0)
(0.00112034 -0.0412188 0)
(0.00217952 -0.0198665 0)
(0.00390922 -0.000662236 0)
(0.00506497 0.0146296 0)
(0.00578517 0.0265593 0)
(0.00670773 0.0359675 0)
(0.00843963 0.0446307 0)
(0.0112731 0.0538341 0)
(0.0150997 0.0638353 0)
(0.0196287 0.0743621 0)
(0.024542 0.0845494 0)
(0.0294239 0.0930807 0)
(0.0337259 0.0982317 0)
(0.0369612 0.0982747 0)
(0.0384043 0.092252 0)
(0.0378493 0.0786371 0)
(0.0350492 0.0572924 0)
(0.0300905 0.0281685 0)
(0.0232067 -0.00846085 0)
(0.0150962 -0.0505614 0)
(0.00722559 -0.0928544 0)
(0.00105049 -0.129491 0)
(-0.00324481 -0.157704 0)
(-0.00606923 -0.178944 0)
(0.00114043 -0.194103 0)
(0.00248957 -0.046145 0)
(0.00471456 -0.0254578 0)
(0.00850156 -0.00581211 0)
(0.0113728 0.0105083 0)
(0.0135615 0.0229921 0)
(0.0154533 0.0317711 0)
(0.0177142 0.0387016 0)
(0.0209355 0.04541 0)
(0.0254083 0.0530181 0)
(0.0310508 0.0616413 0)
(0.0375537 0.0707158 0)
(0.0445293 0.0792489 0)
(0.0514602 0.0858464 0)
(0.0576926 0.0889506 0)
(0.0625622 0.0871603 0)
(0.0652046 0.0795054 0)
(0.0651747 0.0645344 0)
(0.0620061 0.0416088 0)
(0.0554103 0.0101643 0)
(0.0455118 -0.0292252 0)
(0.0336673 -0.0725296 0)
(0.0224031 -0.112655 0)
(0.0129234 -0.14486 0)
(0.00431638 -0.171313 0)
(0.00806849 -0.191178 0)
(0.00360624 -0.0549953 0)
(0.00665146 -0.0354972 0)
(0.0119707 -0.014743 0)
(0.0163133 0.00293611 0)
(0.0200175 0.01668 0)
(0.0230657 0.0259733 0)
(0.0258277 0.0320729 0)
(0.029016 0.0368143 0)
(0.033209 0.0416506 0)
(0.038717 0.0475761 0)
(0.0454667 0.0545427 0)
(0.053115 0.061931 0)
(0.0611855 0.0687462 0)
(0.0690372 0.0737697 0)
(0.075912 0.0756924 0)
(0.0810554 0.0732503 0)
(0.0836436 0.06504 0)
(0.0830544 0.0502037 0)
(0.0785733 0.027259 0)
(0.0697455 -0.00495204 0)
(0.0568526 -0.0448425 0)
(0.0421163 -0.0861682 0)
(0.0279969 -0.121153 0)
(0.0144665 -0.150953 0)
(0.0132654 -0.172399 0)
(0.00424564 -0.0652114 0)
(0.00766049 -0.0470058 0)
(0.0137618 -0.0260244 0)
(0.0192373 -0.00751748 0)
(0.0244173 0.00727521 0)
(0.0290178 0.0179247 0)
(0.0328275 0.0245895 0)
(0.0362517 0.0285898 0)
(0.039969 0.0315862 0)
(0.0445443 0.0348491 0)
(0.0503011 0.0392263 0)
(0.0571936 0.0446753 0)
(0.0648674 0.0506627 0)
(0.0727843 0.0563767 0)
(0.0802208 0.0608115 0)
(0.086357 0.0627365 0)
(0.090287 0.0605457 0)
(0.0911093 0.0533767 0)
(0.088479 0.0394509 0)
(0.081696 0.0164529 0)
(0.0702599 -0.0157547 0)
(0.0548745 -0.0538408 0)
(0.0380513 -0.0895107 0)
(0.0209011 -0.12097 0)
(0.0159413 -0.143428 0)
(0.00431691 -0.0764171 0)
(0.00791014 -0.0595947 0)
(0.014299 -0.0390533 0)
(0.0207201 -0.0206184 0)
(0.0273374 -0.00542301 0)
(0.0337011 0.00649452 0)
(0.0392277 0.0148963 0)
(0.0436673 0.0199526 0)
(0.0473812 0.0227845 0)
(0.051026 0.0248425 0)
(0.0551792 0.0271732 0)
(0.0601948 0.0305704 0)
(0.0660943 0.0351516 0)
(0.0726041 0.0406619 0)
(0.0791608 0.0465256 0)
(0.0849277 0.051878 0)
(0.0890624 0.0558866 0)
(0.0904682 0.0547356 0)
(0.0888354 0.0483618 0)
(0.0832923 0.0342214 0)
(0.0734174 0.0107376 0)
(0.0593179 -0.0206743 0)
(0.0423331 -0.054083 0)
(0.0236373 -0.085724 0)
(0.0170397 -0.108808 0)
(0.00399993 -0.0874771 0)
(0.0075582 -0.0723741 0)
(0.0144024 -0.0534229 0)
(0.021992 -0.0363126 0)
(0.0301698 -0.0215738 0)
(0.0383368 -0.00886717 0)
(0.0457984 0.00154746 0)
(0.0519404 0.00925439 0)
(0.0565134 0.0141464 0)
(0.0598441 0.0170497 0)
(0.0626014 0.0191514 0)
(0.0654266 0.0214306 0)
(0.0687816 0.0246178 0)
(0.0727043 0.0290395 0)
(0.0769081 0.035174 0)
(0.0808804 0.0426549 0)
(0.0839774 0.0497865 0)
(0.085453 0.0553838 0)
(0.0838497 0.0560928 0)
(0.0793753 0.0503107 0)
(0.0706839 0.0350324 0)
(0.0581127 0.0106402 0)
(0.0424226 -0.0184681 0)
(0.0239789 -0.0488296 0)
(0.0167264 -0.0724022 0)
(0.0038317 -0.0980637 0)
(0.00740194 -0.0860022 0)
(0.015785 -0.0701084 0)
(0.0252537 -0.0551797 0)
(0.0351747 -0.0413112 0)
(0.0449437 -0.0280232 0)
(0.0539518 -0.0155764 0)
(0.0615717 -0.0047095 0)
(0.0673155 0.00397759 0)
(0.0710031 0.0101223 0)
(0.0729716 0.014184 0)
(0.0739265 0.0171783 0)
(0.0745601 0.0202183 0)
(0.0753366 0.0246703 0)
(0.0764349 0.0307704 0)
(0.0777744 0.0386232 0)
(0.0789281 0.0477529 0)
(0.0791026 0.0567787 0)
(0.0773917 0.0634483 0)
(0.0727881 0.0641275 0)
(0.0654146 0.0564537 0)
(0.054244 0.0389271 0)
(0.0401479 0.0149938 0)
(0.0229086 -0.0130218 0)
(0.0156689 -0.0369777 0)
(0.00483514 -0.110487 0)
(0.00908947 -0.103361 0)
(0.0203062 -0.0915529 0)
(0.0323887 -0.0783587 0)
(0.0441152 -0.0644472 0)
(0.0549247 -0.0498136 0)
(0.0645097 -0.0348463 0)
(0.0725217 -0.0203499 0)
(0.0786222 -0.00735288 0)
(0.0825346 0.00345946 0)
(0.0841495 0.011547 0)
(0.0837791 0.0173382 0)
(0.0821256 0.0217793 0)
(0.0800373 0.0264323 0)
(0.0781618 0.0322698 0)
(0.0766531 0.0400887 0)
(0.0753427 0.0502063 0)
(0.0737544 0.0616627 0)
(0.0711922 0.0720894 0)
(0.0666738 0.0780975 0)
(0.0598249 0.0759235 0)
(0.0500669 0.0645078 0)
(0.0373458 0.0455838 0)
(0.0213625 0.0201661 0)
(0.0146013 -0.00436953 0)
(0.00883147 -0.128409 0)
(0.0155094 -0.127181 0)
(0.0294853 -0.119138 0)
(0.0435969 -0.105978 0)
(0.0563848 -0.089894 0)
(0.0672705 -0.0721337 0)
(0.076212 -0.05368 0)
(0.0832637 -0.0353623 0)
(0.0883232 -0.0181376 0)
(0.0913053 -0.00267741 0)
(0.0921799 0.0103178 0)
(0.090982 0.0203237 0)
(0.0880314 0.0275933 0)
(0.0840166 0.0331415 0)
(0.0797137 0.0390614 0)
(0.0756038 0.0468054 0)
(0.0718139 0.0569683 0)
(0.0683078 0.0690916 0)
(0.0646769 0.0814515 0)
(0.0601335 0.0909035 0)
(0.0536705 0.0934269 0)
(0.0450622 0.0872777 0)
(0.0337708 0.073522 0)
(0.0194194 0.051023 0)
(0.0135857 0.0253583 0)
(0.0142858 -0.159405 0)
(0.0248337 -0.158757 0)
(0.0403314 -0.150321 0)
(0.0541704 -0.13469 0)
(0.0660548 -0.114517 0)
(0.0756488 -0.092032 0)
(0.0829025 -0.0688149 0)
(0.0880396 -0.0458926 0)
(0.0912963 -0.0240882 0)
(0.0927936 -0.00449523 0)
(0.0926809 0.0123094 0)
(0.091016 0.0257901 0)
(0.0877913 0.0361371 0)
(0.083151 0.0439469 0)
(0.0777097 0.0507127 0)
(0.0721336 0.0583885 0)
(0.0667343 0.0681163 0)
(0.0616546 0.0799133 0)
(0.0568487 0.0927337 0)
(0.0518487 0.104047 0)
(0.0457161 0.11001 0)
(0.037859 0.107755 0)
(0.0282465 0.0981637 0)
(0.0164278 0.0779744 0)
(0.0120194 0.0516248 0)
(0.0147624 -0.199651 0)
(0.0301098 -0.194057 0)
(0.0449641 -0.179885 0)
(0.0561979 -0.159096 0)
(0.0652584 -0.134144 0)
(0.072533 -0.10692 0)
(0.0779957 -0.0790812 0)
(0.0815786 -0.0520361 0)
(0.0832998 -0.0266771 0)
(0.0835867 -0.00417451 0)
(0.0830225 0.0151267 0)
(0.0815408 0.0314093 0)
(0.0788415 0.0445541 0)
(0.0748401 0.0547551 0)
(0.0697316 0.0629502 0)
(0.0641266 0.071188 0)
(0.0584546 0.0810043 0)
(0.0528441 0.0926038 0)
(0.0473985 0.105288 0)
(0.0420325 0.117232 0)
(0.0361365 0.125189 0)
(0.0291813 0.125602 0)
(0.0213887 0.118426 0)
(0.0124294 0.0996412 0)
(0.0093509 0.0732345 0)
(0.0077211 -0.236925 0)
(0.026302 -0.224749 0)
(0.0375313 -0.202907 0)
(0.0450746 -0.176497 0)
(0.0510329 -0.147571 0)
(0.0559414 -0.117095 0)
(0.0597457 -0.0860941 0)
(0.0622149 -0.0559235 0)
(0.0633757 -0.0277279 0)
(0.0636298 -0.00319195 0)
(0.0633144 0.0178296 0)
(0.0624696 0.0360012 0)
(0.0608933 0.0513178 0)
(0.0583484 0.0637832 0)
(0.0547376 0.0738349 0)
(0.0503448 0.0830151 0)
(0.0455865 0.0932748 0)
(0.0406308 0.105091 0)
(0.0355746 0.117846 0)
(0.030498 0.130014 0)
(0.0251842 0.138923 0)
(0.0194519 0.140494 0)
(0.0136997 0.134092 0)
(0.00768246 0.115524 0)
(0.00576828 0.088649 0)
(0.00113702 -0.258487 0)
(0.0154973 -0.243604 0)
(0.0209551 -0.217164 0)
(0.0247858 -0.187471 0)
(0.028212 -0.156256 0)
(0.031049 -0.123842 0)
(0.0331851 -0.0909141 0)
(0.0344872 -0.0586278 0)
(0.035422 -0.0287239 0)
(0.0362807 -0.00283917 0)
(0.0367866 0.01924 0)
(0.0369563 0.0384031 0)
(0.0367121 0.0549881 0)
(0.0358542 0.0690665 0)
(0.0341932 0.0809051 0)
(0.0316915 0.0915324 0)
(0.0285359 0.102761 0)
(0.0249569 0.115199 0)
(0.0211292 0.128274 0)
(0.0171802 0.140604 0)
(0.0131486 0.149641 0)
(0.00917681 0.151084 0)
(0.0058067 0.143905 0)
(0.00292494 0.124221 0)
(0.00239692 0.0966387 0)
(-0.00162659 -0.266016 0)
(0.00424098 -0.25056 0)
(0.00361861 -0.222636 0)
(0.00379565 -0.192345 0)
(0.00437225 -0.160272 0)
(0.0046215 -0.126746 0)
(0.00463303 -0.0927806 0)
(0.00481742 -0.0596754 0)
(0.00562166 -0.0300469 0)
(0.00687113 -0.00420123 0)
(0.00812256 0.0182142 0)
(0.00927868 0.037871 0)
(0.0102212 0.0552874 0)
(0.0107843 0.0705654 0)
(0.0108048 0.0838773 0)
(0.0101139 0.0960715 0)
(0.00870778 0.108568 0)
(0.00682458 0.121809 0)
(0.00470091 0.135224 0)
(0.0025051 0.147462 0)
(0.000477836 0.155996 0)
(-0.0010385 0.156368 0)
(-0.00155298 0.147398 0)