/*--------------------------------*- C++ -*----------------------------------*\
| =========                 |                                                 |
| \\      /  F ield         | OpenFOAM: The Open Source CFD Toolbox           |
|  \\    /   O peration     | Version:  2.3.0                                 |
|   \\  /    A nd           | Web:      www.OpenFOAM.org                      |
|    \\/     M anipulation  |                                                 |
\*---------------------------------------------------------------------------*/
FoamFile
{
    version     2.0;
    format      ascii;
    class       surfaceScalarField;
    location    "0.37";
    object      phi.air;
}
// * * * * * * * * * * * * * * * * * * * * * * * * * * * * * * * * * * * * * //

dimensions      [0 3 -1 0 0 0 0];

internalField   nonuniform List<scalar> 
11770
(
1.44414e-05
7.87106e-05
2.25293e-05
8.66388e-05
2.52367e-05
9.08531e-05
1.62947e-05
9.88115e-05
-3.03301e-06
0.000106415
-9.9423e-06
9.89606e-05
-1.35882e-05
9.9023e-05
-2.57756e-05
0.000101459
-2.87808e-05
9.26532e-05
-2.15327e-05
8.60282e-05
-1.44332e-05
8.71408e-05
-1.22507e-05
9.36548e-05
-1.15243e-05
0.00010155
-9.53884e-06
0.000109115
1.26631e-06
0.000108414
9.70099e-06
0.000108151
1.02137e-05
0.000106272
1.17814e-05
9.74876e-05
1.50884e-05
9.12074e-05
2.2159e-05
8.63084e-05
2.99764e-05
8.46833e-05
2.49399e-05
9.24284e-05
1.12904e-05
0.00010133
4.06831e-06
0.000100417
-7.16125e-06
0.000102561
-1.88652e-05
0.000100226
-2.96168e-05
9.99071e-05
-2.04902e-05
8.69055e-05
-1.23527e-05
8.73893e-05
8.08218e-05
1.92539e-05
5.68436e-05
1.29193e-05
8.24771e-05
5.48671e-06
8.72015e-05
-7.38349e-07
9.50947e-05
5.34367e-06
9.62197e-05
2.81143e-06
9.39803e-05
-2.95135e-06
9.42955e-05
-1.46913e-05
0.000100184
-2.42361e-05
8.78685e-05
-1.49259e-05
6.54966e-05
-5.65788e-07
6.30227e-05
1.03271e-05
7.26557e-05
9.70896e-06
9.02455e-05
3.83941e-07
0.000107015
-2.05559e-06
0.000102814
-5.50548e-06
0.000102908
-1.25462e-05
0.000101254
-7.76734e-06
8.10213e-05
4.38128e-06
6.8902e-05
1.74188e-05
6.30726e-05
2.22497e-05
6.81434e-05
6.8997e-06
9.33586e-05
-9.48675e-07
9.98805e-05
-2.66508e-06
9.60221e-05
-5.57069e-07
9.57687e-05
-1.96303e-06
9.46882e-05
-8.28849e-06
9.561e-05
-1.51853e-05
8.27927e-05
-1.91537e-05
8.14487e-05
5.90568e-05
1.23376e-05
4.75233e-05
5.77565e-07
8.9885e-05
-3.60186e-06
9.0888e-05
5.39391e-07
9.24386e-05
4.24702e-06
9.3558e-05
5.47051e-06
9.45012e-05
2.21619e-06
9.77788e-05
-3.07406e-06
0.000105552
-8.43848e-06
9.33204e-05
2.11028e-06
5.85576e-05
1.53471e-05
5.51425e-05
3.00646e-05
6.61071e-05
2.51595e-05
9.95073e-05
7.63512e-06
0.000120199
-3.68782e-06
0.000108906
-1.65457e-05
0.000111521
-3.24154e-05
0.000116631
-2.5089e-05
8.23012e-05
-1.16442e-05
6.24501e-05
1.60189e-06
5.50195e-05
7.20336e-06
6.5336e-05
1.00921e-07
0.000100699
-4.72387e-06
0.000103876
-6.36179e-06
9.69399e-05
-3.41844e-06
9.38354e-05
9.57564e-08
9.2604e-05
5.86306e-06
9.18345e-05
-2.64736e-06
8.89884e-05
-1.44619e-05
8.83997e-05
4.79472e-05
-5.31092e-06
5.04876e-05
-6.54559e-06
8.89936e-05
-2.9876e-06
8.66717e-05
1.17738e-06
8.77997e-05
4.21654e-06
9.00876e-05
6.41738e-06
9.21578e-05
8.26033e-06
9.61155e-05
9.69987e-06
0.000103664
6.95821e-06
9.35361e-05
1.50523e-05
5.05295e-05
2.43702e-05
4.84807e-05
3.14098e-05
6.2532e-05
1.50019e-05
0.000108697
8.04324e-06
0.000119873
-2.80642e-06
0.000111465
-1.36724e-05
0.000114018
-2.16796e-05
0.000117268
-3.32568e-05
9.05498e-05
-2.15438e-05
5.47831e-05
-1.11932e-05
4.65568e-05
-7.32356e-06
6.02791e-05
-1.15835e-05
0.000102268
-9.37587e-06
0.000101539
-6.71736e-06
9.45623e-05
-3.70572e-06
9.08872e-05
-7.21377e-08
8.8809e-05
4.06252e-06
8.71399e-05
6.23486e-06
8.59773e-05
4.04048e-06
8.80485e-05
4.95513e-05
-1.26675e-05
5.78753e-05
-5.80175e-06
8.10135e-05
-1.35744e-06
8.10343e-05
2.18488e-06
8.31999e-05
5.06469e-06
8.65587e-05
7.22711e-06
8.87606e-05
9.91272e-06
9.22603e-05
1.22289e-05
0.000100196
1.59544e-05
8.85663e-05
2.31335e-05
4.42503e-05
3.05971e-05
4.54172e-05
1.30476e-05
7.80435e-05
1.82914e-06
0.000115704
3.69745e-06
0.000118148
-1.57892e-06
0.000115487
-4.69848e-06
0.000116316
-6.62944e-06
0.000118054
-3.10165e-05
0.000107554
-2.68455e-05
5.44218e-05
-1.99639e-05
4.29908e-05
-1.45254e-05
5.45259e-05
-1.35725e-05
9.93446e-05
-1.0378e-05
9.72951e-05
-7.1546e-06
9.04629e-05
-4.5701e-06
8.74033e-05
-1.72221e-06
8.53593e-05
1.10492e-06
8.30861e-05
5.18302e-06
8.08086e-05
1.23205e-05
8.0008e-05
5.63482e-05
-3.4801e-06
5.89327e-05
-1.02375e-06
7.66224e-05
1.67792e-06
7.686e-05
3.78096e-06
7.95817e-05
5.92241e-06
8.35448e-05
7.41636e-06
8.57414e-05
8.19538e-06
8.93881e-05
9.55026e-06
9.69085e-05
2.26898e-05
7.61643e-05
2.85024e-05
4.05417e-05
3.09291e-05
4.62937e-05
7.97303e-07
0.000101206
3.88454e-07
0.000116661
9.06883e-07
0.000117329
-7.1984e-07
0.000116686
-1.73854e-06
0.000116968
-1.54625e-06
0.000117687
-1.11998e-05
0.000115347
-3.15207e-05
7.34819e-05
-2.79634e-05
4.3545e-05
-1.82712e-05
4.59892e-05
-9.4534e-06
8.97671e-05
-8.42086e-06
9.42065e-05
-7.15718e-06
8.71642e-05
-5.69938e-06
8.44021e-05
-3.86122e-06
8.21659e-05
-2.45389e-06
7.99975e-05
5.11965e-07
7.67879e-05
3.11145e-06
7.56237e-05
5.70792e-05
7.72601e-06
5.20964e-05
4.87318e-06
7.64818e-05
5.19878e-06
7.46844e-05
5.43312e-06
7.75597e-05
6.37493e-06
8.13592e-05
6.4655e-06
8.38683e-05
5.34249e-06
8.78606e-05
6.51335e-06
9.2773e-05
2.79494e-05
5.81559e-05
2.96185e-05
4.31105e-05
1.40734e-05
6.24883e-05
2.79735e-08
0.000112954
-4.30312e-08
0.000116335
1.01163e-07
0.000116532
-3.24608e-07
0.000116344
-6.18083e-07
0.000116502
-2.49506e-07
0.000116723
-5.10276e-07
0.000115808
-3.26282e-05
9.81045e-05
-3.25297e-05
4.69287e-05
-2.19985e-05
3.95961e-05
-4.10536e-06
7.36243e-05
-5.15349e-06
9.24061e-05
-6.40171e-06
8.57708e-05
-6.26079e-06
8.24799e-05
-6.22246e-06
8.03902e-05
-5.61669e-06
7.76431e-05
-4.88316e-06
7.45055e-05
-8.00663e-06
7.56992e-05
5.01571e-05
1.28493e-05
4.07658e-05
9.15354e-06
7.66647e-05
7.88137e-06
7.38174e-05
7.13342e-06
7.62149e-05
6.70489e-06
7.98699e-05
5.52348e-06
8.30112e-05
-1.57955e-07
8.93216e-05
7.19136e-06
8.39788e-05
2.8923e-05
4.19761e-05
2.99027e-05
4.63173e-05
-5.62739e-07
8.58993e-05
-1.09475e-06
0.000113388
-5.92536e-07
0.000115128
-2.12953e-07
0.000115307
-1.11894e-07
0.000115316
3.34116e-08
0.000115463
2.71445e-07
0.000115669
1.76006e-07
0.000115317
-1.6137e-05
0.000110639
-2.98264e-05
6.02355e-05
-2.44178e-05
4.08634e-05
-2.58986e-07
5.4514e-05
-2.30986e-06
9.06555e-05
-5.96558e-06
8.6077e-05
-7.07835e-06
8.18995e-05
-7.51914e-06
7.91352e-05
-7.89509e-06
7.60486e-05
-8.33707e-06
7.29062e-05
-1.32081e-05
7.65029e-05
3.86101e-05
1.13076e-05
3.00872e-05
1.3189e-05
7.16681e-05
1.07903e-05
7.40831e-05
8.12621e-06
7.67743e-05
5.26114e-06
8.08816e-05
2.53533e-07
8.63395e-05
-6.98278e-06
9.32733e-05
1.00944e-05
6.99116e-05
2.23276e-05
3.47894e-05
2.05638e-05
4.7927e-05
-1.2631e-06
0.000100701
-1.01045e-06
0.000112208
-6.57384e-07
0.000113804
-3.36068e-07
0.000113826
1.40302e-07
0.000113658
4.26536e-07
0.000113984
4.72154e-07
0.00011452
9.4419e-09
0.000114798
-2.56442e-06
0.000112058
-2.66934e-05
7.72702e-05
-2.13189e-05
3.95733e-05
-3.32463e-06
4.18269e-05
3.39666e-06
8.32734e-05
-3.56585e-06
8.98836e-05
-6.92594e-06
8.33118e-05
-8.68659e-06
7.87982e-05
-1.01556e-05
7.55029e-05
-1.19152e-05
7.23443e-05
-1.09522e-05
7.16337e-05
2.82244e-05
5.50194e-06
2.38903e-05
1.83226e-05
5.87952e-05
1.34003e-05
7.6558e-05
9.59797e-06
7.85322e-05
5.9599e-06
8.14045e-05
-3.54126e-07
8.95792e-05
-2.66823e-07
9.26818e-05
1.55505e-05
5.85015e-05
1.76523e-05
3.59757e-05
1.39891e-05
5.06244e-05
4.17251e-06
0.000107625
7.2937e-07
0.000114105
-5.19012e-07
0.000113527
-3.14362e-07
0.000112032
3.56522e-07
0.000111311
1.0218e-06
0.000111698
4.84346e-07
0.000113437
-1.50995e-06
0.000115329
-5.96552e-06
0.000114803
-2.21608e-05
8.81152e-05
-1.75327e-05
3.68985e-05
-1.43429e-05
4.10208e-05
2.62767e-06
7.08865e-05
-1.92754e-06
9.24712e-05
-7.2123e-06
8.49561e-05
-9.86366e-06
7.84222e-05
-1.32275e-05
7.679e-05
-1.67197e-05
7.3437e-05
-4.55281e-06
5.87544e-05
2.27692e-05
3.68685e-07
2.25503e-05
1.89524e-05
4.20272e-05
1.67249e-05
7.59252e-05
1.10533e-05
8.12597e-05
5.43184e-06
8.4232e-05
-2.25986e-07
9.23557e-05
1.41945e-05
8.05239e-05
2.37277e-05
5.0845e-05
1.84679e-05
4.08432e-05
1.73528e-05
5.55582e-05
8.37263e-06
0.000116195
1.04686e-06
0.000119309
-1.43165e-06
0.000113901
-1.06805e-06
0.000109407
9.4853e-07
0.000107101
2.35443e-06
0.000108005
2.02824e-06
0.000111605
-2.34846e-06
0.000117549
-1.29748e-05
0.000123067
-2.1757e-05
9.92516e-05
-2.293e-05
4.27002e-05
-2.8174e-05
4.49519e-05
-9.70703e-06
5.69536e-05
-7.95308e-08
8.31946e-05
-5.37848e-06
8.74962e-05
-1.06726e-05
8.09593e-05
-1.58846e-05
7.90249e-05
-1.76281e-05
7.28119e-05
3.10855e-07
4.20965e-05
2.18062e-05
-2.23391e-06
2.43933e-05
1.04132e-05
2.99437e-05
1.90155e-05
6.66655e-05
1.21612e-05
8.46385e-05
5.82532e-06
8.74005e-05
8.89996e-06
8.8092e-05
2.92951e-05
6.46391e-05
3.30165e-05
5.06029e-05
2.36395e-05
4.83126e-05
1.74223e-05
6.79683e-05
5.00311e-06
0.000130504
-3.65672e-06
0.00012535
-5.80774e-06
0.000113229
-2.96191e-06
0.00010377
1.6262e-06
9.95836e-05
6.15544e-06
0.000100657
7.52528e-06
0.000107339
3.70893e-06
0.000118674
-7.74294e-06
0.000132091
-2.14638e-05
0.000116323
-2.82296e-05
5.5382e-05
-3.75787e-05
5.34371e-05
-2.99445e-05
5.39497e-05
-7.97832e-06
6.68944e-05
-5.25813e-06
8.33579e-05
-1.05148e-05
8.26729e-05
-1.62518e-05
8.09587e-05
-1.10147e-05
6.56571e-05
1.92814e-06
2.94694e-05
2.32802e-05
-3.53408e-06
2.80613e-05
-4.14713e-07
2.67827e-05
1.57952e-05
5.28433e-05
1.27366e-05
8.5998e-05
1.09644e-05
8.7317e-05
2.54568e-05
7.60986e-05
3.87885e-05
5.81863e-05
3.54597e-05
5.57368e-05
2.49573e-05
5.80388e-05
5.93911e-06
9.28364e-05
-8.47289e-06
0.000146808
-1.57424e-05
0.000129405
-1.47267e-05
0.000109305
-7.2396e-06
9.41291e-05
3.03854e-06
8.75398e-05
1.26176e-05
8.91582e-05
1.91132e-05
9.85787e-05
1.78662e-05
0.000116633
1.01772e-05
0.00013708
-1.12942e-05
0.000139342
-2.84431e-05
7.95028e-05
-3.88286e-05
6.36367e-05
-4.24896e-05
5.9466e-05
-2.62191e-05
5.96341e-05
-1.20077e-05
7.18549e-05
-1.19317e-05
8.11594e-05
-1.36973e-05
8.10412e-05
-1.42931e-06
5.35472e-05
3.42076e-06
2.50782e-05
2.67662e-05
-4.56857e-06
3.29638e-05
-6.25058e-06
2.901e-05
5.95423e-06
4.40339e-05
1.30164e-05
8.15308e-05
2.3035e-05
7.98582e-05
4.07282e-05
6.59554e-05
4.31682e-05
6.13211e-05
3.4079e-05
6.7698e-05
1.39541e-05
7.8027e-05
-2.04604e-05
0.000129255
-3.03108e-05
0.000157556
-3.21677e-05
0.000128889
-2.36928e-05
0.000100634
-1.0436e-05
8.20689e-05
3.5978e-06
7.52843e-05
1.76454e-05
7.67831e-05
3.0486e-05
8.65515e-05
3.75492e-05
0.000108842
3.43865e-05
0.000137521
1.83722e-05
0.000156712
-1.77703e-05
0.000118821
-3.57223e-05
8.07462e-05
-4.55457e-05
7.13913e-05
-4.34702e-05
6.25033e-05
-2.61771e-05
6.30496e-05
-1.51184e-05
7.372e-05
-9.10431e-06
7.75918e-05
5.82363e-06
4.28836e-05
5.40911e-06
2.66861e-05
3.24167e-05
-4.11757e-06
3.78698e-05
-6.66055e-06
3.20804e-05
-8.57768e-07
4.06291e-05
1.58522e-05
6.92403e-05
3.52893e-05
6.65573e-05
4.66965e-05
6.17657e-05
4.32251e-05
6.89408e-05
2.4328e-05
8.51229e-05
-1.96187e-05
0.000122498
-5.07422e-05
0.000160146
-4.89318e-05
0.000154595
-3.65124e-05
0.000117335
-1.96302e-05
8.70015e-05
-7.33953e-06
7.38369e-05
2.3763e-06
7.00958e-05
1.27223e-05
7.09162e-05
2.66549e-05
7.64694e-05
4.4873e-05
9.36313e-05
5.6064e-05
0.000126833
5.51637e-05
0.000156485
1.69428e-05
0.000154582
-2.32288e-05
0.000120978
-4.49274e-05
9.10154e-05
-4.88532e-05
6.99641e-05
-3.8336e-05
5.8755e-05
-2.0615e-05
6.22675e-05
-3.94944e-06
6.51368e-05
7.64619e-06
3.6854e-05
5.5869e-06
2.96183e-05
3.78274e-05
-2.24283e-06
4.05344e-05
-2.83487e-06
3.30168e-05
1.60461e-06
3.66302e-05
2.13074e-05
5.18166e-05
3.87647e-05
5.42686e-05
4.35248e-05
5.98146e-05
3.48886e-05
7.64986e-05
-9.06373e-06
0.000124666
-5.59652e-05
0.000164826
-6.32942e-05
0.000166376
-4.29417e-05
0.000136908
-2.02524e-05
9.91913e-05
-6.96745e-06
7.87984e-05
-1.74026e-06
7.27886e-05
1.03658e-06
7.10872e-05
4.3596e-06
7.14781e-05
1.14182e-05
7.39146e-05
2.82764e-05
8.20252e-05
5.3352e-05
0.000106133
7.00628e-05
0.000141046
5.67863e-05
0.000165825
1.11605e-05
0.000161666
-3.38386e-05
0.000128752
-4.59536e-05
8.07577e-05
-4.1054e-05
5.62999e-05
-2.48825e-05
4.97567e-05
-3.5923e-06
4.77186e-05
2.43765e-06
3.24529e-05
3.35242e-06
2.97164e-05
4.06339e-05
-1.32435e-08
4.04914e-05
2.37017e-06
3.08629e-05
8.94219e-06
2.95663e-05
2.42296e-05
3.67031e-05
3.51682e-05
4.41151e-05
3.67482e-05
5.82954e-05
7.53645e-06
0.000103499
-3.71171e-05
0.000160421
-5.76312e-05
0.000183326
-4.56139e-05
0.000158383
-1.68073e-05
0.000117446
-2.75578e-06
9.15813e-05
6.93089e-08
7.94937e-05
6.43197e-07
7.57223e-05
6.65664e-07
7.44327e-05
1.04723e-06
7.4613e-05
2.04887e-06
7.63304e-05
6.94303e-06
8.10816e-05
2.53075e-05
9.50932e-05
5.21371e-05
0.000122684
6.07818e-05
0.000161073
3.8523e-05
0.000181038
-3.66168e-06
0.000162998
-4.09649e-05
0.000111133
-3.74243e-05
5.27876e-05
-2.65985e-05
3.94244e-05
-1.0958e-05
3.29352e-05
-4.29409e-06
2.59347e-05
-2.95831e-08
2.5782e-05
3.90633e-05
1.96102e-06
3.78209e-05
6.63677e-06
2.65402e-05
1.46932e-05
2.12336e-05
2.43818e-05
2.6453e-05
3.05789e-05
3.9655e-05
1.91882e-05
6.76198e-05
-1.54689e-05
0.00012849
-2.75454e-05
0.000174263
-2.88388e-05
0.000187507
-1.50338e-05
0.000154833
-1.41917e-06
0.000114094
1.24588e-06
9.64295e-05
7.02908e-07
8.63668e-05
5.34259e-07
8.17227e-05
8.79958e-07
8.03242e-05
9.92773e-07
8.03848e-05
1.18697e-06
8.24251e-05
7.66793e-07
8.76684e-05
6.25976e-06
9.82625e-05
1.9964e-05
0.000119266
3.08755e-05
0.000158986
2.95929e-05
0.000184247
1.78391e-05
0.000175461
-1.62469e-05
0.000135429
-3.31519e-05
6.86114e-05
-2.76259e-05
3.45312e-05
-1.83428e-05
2.35206e-05
-1.0347e-05
1.84522e-05
-2.98112e-06
1.90773e-05
3.2951e-05
4.78132e-06
3.16674e-05
8.14287e-06
2.41565e-05
1.92374e-05
1.375e-05
3.04692e-05
1.88415e-05
3.08265e-05
3.74248e-05
-1.36673e-05
0.000107714
-1.4497e-05
0.000130883
6.82982e-07
0.000163981
1.4397e-05
0.000180304
7.31725e-06
0.000165559
-2.71233e-06
0.000129842
-2.21096e-06
0.000106577
-1.26108e-06
9.83917e-05
3.32169e-07
9.44877e-05
6.45412e-07
9.38102e-05
1.89326e-06
9.35556e-05
2.88486e-06
9.48451e-05
5.12187e-06
9.84336e-05
3.60495e-06
0.000107973
-6.71793e-06
0.000133835
-1.40715e-05
0.000167071
1.69838e-06
0.000173906
1.54178e-05
0.000165403
1.73087e-05
0.000136793
-3.68922e-05
0.000112587
-3.37434e-05
3.05596e-05
-2.53932e-05
1.717e-05
-1.53859e-05
1.17295e-05
-5.69327e-06
1.19158e-05
2.4739e-05
1.08809e-05
2.46726e-05
5.63855e-06
3.35048e-05
2.2475e-05
6.10977e-06
3.82316e-05
7.50248e-06
2.95502e-05
4.5555e-05
-1.96978e-05
0.000133205
-1.35516e-06
0.000119304
2.49227e-05
0.000142794
3.46382e-05
0.000161999
3.17656e-05
0.000151516
1.75119e-05
0.000128434
9.00578e-06
0.000105825
4.57062e-06
9.63284e-05
2.43652e-06
9.2077e-05
1.50592e-07
9.1784e-05
-1.69871e-06
9.12247e-05
-4.58402e-06
9.24546e-05
-9.04528e-06
9.58992e-05
-2.07128e-05
0.000108538
-3.1794e-05
0.000129717
-3.42336e-05
0.000152371
-2.19491e-05
0.000155082
4.28743e-06
0.00014374
1.59062e-05
0.00012965
-3.28647e-05
0.000139231
-4.05464e-05
3.52493e-05
-3.21145e-05
6.61907e-06
-1.90105e-05
3.60418e-06
-7.76896e-06
6.38317e-06
1.66768e-05
7.61142e-06
2.26982e-05
5.17313e-06
3.84825e-05
1.82281e-05
-6.01149e-06
4.18474e-05
-1.02885e-05
1.67636e-05
5.52188e-05
7.83373e-06
0.000130637
9.60721e-06
0.000112664
2.30641e-05
0.000123042
3.67043e-05
0.000137473
4.74247e-05
0.000130061
4.71143e-05
0.000116383
3.37151e-05
0.000103228
2.1525e-05
9.17108e-05
9.44998e-06
8.58712e-05
-2.0198e-07
8.3321e-05
-1.12707e-05
8.37374e-05
-2.25656e-05
8.63117e-05
-3.70647e-05
9.35731e-05
-4.81212e-05
0.000105048
-4.71102e-05
0.000117502
-3.34767e-05
0.000130266
-2.40986e-05
0.000135354
-8.746e-06
0.000124249
-9.3121e-06
0.000124711
-1.24796e-05
0.000136501
-3.99893e-05
5.54203e-05
-3.29206e-05
-8.46555e-06
-1.52665e-05
-9.54893e-06
-8.95123e-06
-1.19032e-06
9.40419e-06
2.74212e-06
1.78742e-05
7.65032e-06
3.39858e-05
2.47111e-05
-1.15847e-05
3.63399e-05
-2.08971e-05
1.50763e-05
6.44948e-05
2.41975e-05
0.00011943
1.38571e-05
0.000115892
1.36718e-05
0.000118465
2.70836e-05
0.000123581
3.63538e-05
0.000121003
3.83041e-05
0.000114256
3.40154e-05
0.000106421
2.39182e-05
9.89988e-05
1.19649e-05
9.42286e-05
-1.03656e-06
9.21245e-05
-1.36075e-05
9.24208e-05
-2.58112e-05
9.5019e-05
-3.46391e-05
0.000100342
-3.80588e-05
0.000107728
-3.56061e-05
0.000115061
-2.64284e-05
0.000121251
-1.48887e-05
0.000123482
-1.59143e-05
0.000120751
-1.7602e-05
0.000121999
-5.34111e-06
0.00012296
-4.03464e-05
7.61184e-05
-2.58567e-05
-1.27671e-05
-1.44394e-05
-2.31496e-05
-5.79818e-06
-7.39594e-07
3.1665e-06
4.18247e-06
1.34246e-05
1.19441e-05
2.62751e-05
1.84566e-05
-1.43637e-05
2.05152e-05
-2.54386e-05
1.73233e-05
6.37538e-05
1.89029e-05
0.00011578
1.62291e-05
0.000117727
1.7025e-05
0.000117435
2.23848e-05
0.000118115
2.65209e-05
0.00011678
2.70668e-05
0.000113591
2.39847e-05
0.000109405
1.7463e-05
0.000105351
8.82007e-06
0.000102666
-6.42174e-07
0.000101361
-1.00816e-05
0.000101624
-1.84761e-05
0.000103221
-2.45346e-05
0.000106262
-2.71503e-05
0.000110203
-2.63852e-05
0.00011417
-2.24921e-05
0.000117203
-1.76635e-05
0.000118598
-1.5762e-05
0.000118961
-1.46917e-05
0.000120365
-1.0489e-05
0.000116942
-2.53194e-05
8.36395e-05
-2.6314e-05
-1.29792e-05
-7.50343e-06
-2.77175e-05
-5.65166e-06
-1.86849e-07
-2.12701e-06
3.18294e-06
1.01462e-05
7.00203e-06
2.21421e-05
5.93406e-06
-1.34649e-05
8.3529e-06
-2.8717e-05
1.96469e-05
5.2487e-05
1.77212e-05
0.00011588
1.67256e-05
0.000117634
1.71294e-05
0.00011643
1.89083e-05
0.000116111
1.99893e-05
0.000115493
1.94125e-05
0.00011401
1.67905e-05
0.000111828
1.21641e-05
0.000109783
6.25011e-06
0.000108343
-3.73919e-07
0.000107741
-6.86968e-06
0.000107885
-1.27247e-05
0.00010887
-1.7116e-05
0.00011045
-1.96191e-05
0.000112541
-2.01852e-05
0.000114527
-1.9151e-05
0.000115953
-1.74895e-05
0.000116661
-1.6495e-05
0.000117389
-1.6963e-05
0.000119692
-1.81558e-05
0.000116641
-9.796e-06
7.55034e-05
-1.52908e-05
-1.20621e-05
-7.52906e-06
-2.95954e-05
-4.36943e-06
-2.67289e-06
-6.35357e-06
1.2364e-06
8.60714e-06
2.49287e-06
2.02411e-05
-4.6301e-07
-1.0623e-05
-6.48818e-07
-2.86251e-05
1.86054e-05
3.57173e-05
1.66729e-05
0.000115866
1.57959e-05
0.000117457
1.55885e-05
0.000116041
1.58279e-05
0.000115586
1.56046e-05
0.000115476
1.45413e-05
0.000114835
1.22762e-05
0.000113868
8.86936e-06
0.000112927
4.57431e-06
0.000112378
-8.88262e-08
0.00011214
-4.78997e-06
0.000112333
-9.00142e-06
0.00011283
-1.23965e-05
0.000113621
-1.46801e-05
0.000114589
-1.58957e-05
0.000115527
-1.62636e-05
0.000116039
-1.61207e-05
0.000116212
-1.63266e-05
0.000116894
-1.75614e-05
0.000119707
-2.04494e-05
0.000118014
-2.54359e-06
6.00614e-05
-2.44495e-06
-1.34822e-05
-6.18136e-06
-2.67786e-05
-2.57479e-06
-5.60738e-06
-8.76138e-06
2.78518e-09
8.15562e-06
-4.79189e-08
1.90233e-05
-4.88736e-06
-6.54747e-06
-6.73576e-06
-2.67516e-05
1.45483e-05
1.74011e-05
1.38157e-05
0.000114468
1.3593e-05
0.000116593
1.34378e-05
0.00011566
1.31903e-05
0.00011551
1.25846e-05
0.000115803
1.14144e-05
0.000115746
9.46791e-06
0.000115524
6.78729e-06
0.000115329
3.59864e-06
0.000115276
1.04942e-07
0.000115358
-3.34715e-06
0.00011551
-6.56639e-06
0.000115787
-9.26471e-06
0.000116046
-1.13349e-05
0.000116411
-1.27772e-05
0.000116693
-1.37268e-05
0.000116693
-1.43473e-05
0.000116514
-1.50662e-05
0.000116975
-1.63275e-05
0.000119787
-1.77684e-05
0.000117734
1.71074e-06
4.2675e-05
3.73962e-06
-1.61118e-05
-1.60505e-06
-2.18165e-05
-4.58961e-07
-6.37988e-06
-9.1192e-06
-6.50527e-07
8.23233e-06
-1.13162e-06
1.7981e-05
-7.55084e-06
-1.53371e-06
-1.06139e-05
-2.41504e-05
8.22838e-06
1.04556e-06
1.04299e-05
0.000110535
1.09133e-05
0.000114868
1.13434e-05
0.000114699
1.12137e-05
0.000115293
1.05824e-05
0.00011612
9.39036e-06
0.000116611
7.72353e-06
0.000116884
5.53133e-06
0.0001172
3.00937e-06
0.000117501
3.33187e-07
0.000117738
-2.36119e-06
0.000117929
-4.87952e-06
0.000118017
-7.12815e-06
0.000118014
-8.984e-06
0.000117969
-1.04031e-05
0.000117826
-1.15593e-05
0.000117515
-1.23902e-05
0.000117006
-1.29655e-05
0.000116985
-1.3676e-05
0.00011927
-1.37468e-05
0.000115891
4.55799e-06
2.57006e-05
7.55229e-06
-1.92755e-05
1.51252e-06
-1.65162e-05
1.11686e-06
-6.20309e-06
-8.01475e-06
-1.0902e-06
8.60096e-06
-2.07146e-06
1.69301e-05
-9.08407e-06
3.4516e-06
-1.27248e-05
-2.13815e-05
1.67833e-06
-1.14002e-05
7.64958e-06
0.000103513
9.59533e-06
0.000111759
1.03052e-05
0.000113468
1.02143e-05
0.000115018
9.45242e-06
0.000116485
8.27301e-06
0.000117437
6.67855e-06
0.000118115
4.82508e-06
0.000118719
2.71321e-06
0.000119283
5.5569e-07
0.000119603
-1.62404e-06
0.000119807
-3.70286e-06
0.000119801
-5.64279e-06
0.000119635
-7.2767e-06
0.000119293
-8.69428e-06
0.000118903
-9.8663e-06
0.000118323
-1.0637e-05
0.000117381
-1.09319e-05
0.000116747
-1.16227e-05
0.000118588
-9.87158e-06
0.000112234
7.11244e-06
9.8627e-06
8.99271e-06
-2.1331e-05
4.15048e-06
-1.21399e-05
2.18743e-06
-4.82518e-06
-5.96331e-06
-1.09431e-06
8.74725e-06
-3.62153e-06
1.64932e-05
-9.1978e-06
7.0428e-06
-1.34174e-05
-1.84803e-05
-4.62253e-06
-1.86802e-05
1.05872e-05
8.97374e-05
1.08736e-05
0.000110259
1.07739e-05
0.000113039
1.02276e-05
0.000115162
9.13185e-06
0.000117158
7.76246e-06
0.000118389
6.1725e-06
0.000119322
4.41855e-06
0.000120095
2.63251e-06
0.000120737
7.53988e-07
0.000121161
-1.03424e-06
0.000121295
-2.87231e-06
0.000121308
-4.53427e-06
0.000120969
-6.13602e-06
0.000120531
-7.56095e-06
0.000119978
-8.82418e-06
0.000119166
-9.7615e-06
0.000117906
-1.02901e-05
0.000116668
-1.01465e-05
0.000117023
-5.72934e-06
0.000106093
9.20396e-06
-4.2093e-06
9.68303e-06
-2.20684e-05
6.44289e-06
-9.04042e-06
2.86009e-06
-2.24528e-06
-3.32741e-06
-1.51142e-07
7.85507e-06
-4.64315e-06
1.68971e-05
-8.23415e-06
8.76774e-06
-1.4016e-05
-1.46494e-05
-1.02417e-05
-2.11541e-05
1.77022e-05
6.70019e-05
1.47504e-05
0.000111803
1.25205e-05
0.000114751
1.0914e-05
0.000116354
9.31046e-06
0.000118275
7.62608e-06
0.000119628
5.94858e-06
0.000120574
4.25951e-06
0.000121398
2.5936e-06
0.00012204
9.93616e-07
0.000122437
-6.29218e-07
0.000122585
-2.17436e-06
0.000122526
-3.75782e-06
0.00012218
-5.31034e-06
0.000121711
-6.8416e-06
0.000121102
-8.39118e-06
0.000120289
-9.97131e-06
0.000119011
-1.18177e-05
0.0001178
-1.38921e-05
0.000117628
2.06516e-08
9.28526e-05
1.09474e-05
-1.45764e-05
1.05761e-05
-2.1974e-05
7.35976e-06
-6.26873e-06
2.90629e-06
6.97934e-07
-7.75245e-07
1.19666e-06
4.97991e-06
-4.08099e-06
1.64433e-05
-6.13882e-06
8.64788e-06
-1.30742e-05
-1.02417e-05
-1.1563e-05
-2.18501e-05
2.31693e-05
3.88802e-05
1.81865e-05
0.000114959
1.42443e-05
0.000118099
1.1635e-05
0.000118487
9.55595e-06
0.000119876
7.5787e-06
0.000121101
5.8146e-06
0.000121901
4.15828e-06
0.000122635
2.6077e-06
0.000123223
1.15023e-06
0.000123541
-2.63542e-07
0.000123667
-1.65562e-06
0.000123559
-3.10381e-06
0.000123254
-4.61063e-06
0.0001228
-6.22018e-06
0.000122292
-8.09002e-06
0.000121682
-1.04713e-05
0.000120902
-1.40662e-05
0.000120548
-1.91306e-05
0.000120986
6.40295e-06
7.15926e-05
1.26187e-05
-2.01338e-05
1.12014e-05
-2.09347e-05
7.54269e-06
-3.37797e-06
2.61891e-06
3.64963e-06
1.37133e-06
-3.42902e-07
4.41289e-06
-4.31639e-07
1.05193e-05
-1.55616e-06
7.44219e-06
-8.84197e-06
-6.24881e-06
-9.00984e-06
-2.18998e-05
2.21106e-05
1.30133e-05
1.9249e-05
0.000116555
1.4952e-05
0.000121791
1.18129e-05
0.000121089
9.45384e-06
0.000121714
7.40577e-06
0.000122627
5.5738e-06
0.000123244
4.00846e-06
0.000123782
2.56991e-06
0.000124262
1.26586e-06
0.000124493
3.09479e-08
0.000124543
-1.19231e-06
0.000124421
-2.47882e-06
0.000124128
-3.82848e-06
0.00012373
-5.3939e-06
0.000123372
-7.20211e-06
0.000123011
-9.64779e-06
0.000122817
-1.34207e-05
0.000123362
-1.9122e-05
0.000124468
9.6111e-06
4.77171e-05
1.33903e-05
-2.31366e-05
1.15262e-05
-1.96498e-05
7.666e-06
-5.52359e-07
2.10201e-06
6.72694e-06
2.90681e-06
-5.92465e-07
4.52864e-06
2.72424e-06
3.35175e-06
2.70863e-06
4.16104e-06
-3.29154e-06
-3.57617e-06
-5.40187e-06
-2.12056e-05
1.63367e-05
-5.75733e-06
1.79744e-05
0.000114534
1.41148e-05
0.00012483
1.11204e-05
0.00012346
8.87875e-06
0.000123435
6.85176e-06
0.00012408
5.18434e-06
0.000124425
3.70064e-06
0.000124803
2.45179e-06
0.000125119
1.30489e-06
0.000125257
2.68882e-07
0.000125216
-7.82691e-07
0.000125071
-1.8246e-06
0.000124757
-2.98378e-06
0.000124413
-4.2358e-06
0.000124129
-5.66904e-06
0.000123916
-7.41693e-06
0.000124086
-1.01286e-05
0.000124985
-1.32074e-05
0.00012526
1.00119e-05
2.7708e-05
1.25002e-05
-2.49369e-05
1.03978e-05
-1.8385e-05
6.92274e-06
1.48171e-06
1.35526e-06
9.16647e-06
3.56966e-06
-2.40877e-07
4.63995e-06
2.62895e-06
-3.00386e-07
3.9291e-06
-1.97536e-06
1.02765e-06
-4.53973e-06
-2.75007e-06
-1.93981e-05
9.76531e-06
-1.67462e-05
1.50611e-05
0.000108946
1.19788e-05
0.000126875
9.60497e-06
0.000125153
7.70363e-06
0.000124718
6.01317e-06
0.000125211
4.51268e-06
0.000125387
3.28797e-06
0.000125577
2.19316e-06
0.000125782
1.27964e-06
0.000125791
3.94629e-07
0.000125697
-4.01422e-07
0.000125468
-1.25153e-06
0.000125144
-2.06325e-06
0.000124748
-2.96001e-06
0.000124469
-3.70704e-06
0.000124141
-4.43684e-06
0.00012429
-5.61858e-06
0.000125021
-6.02434e-06
0.000123686
9.78807e-06
1.36073e-05
1.12338e-05
-2.59012e-05
8.71956e-06
-1.70632e-05
6.2544e-06
2.23711e-06
9.08191e-07
1.08742e-05
3.58543e-06
1.00395e-06
5.11891e-06
2.1375e-06
-1.96569e-06
4.67755e-06
-6.40391e-06
3.37593e-06
-8.59651e-06
-1.26301e-06
-1.75873e-05
4.65496e-06
-2.1576e-05
1.14717e-05
0.000101892
9.49853e-06
0.00012746
7.76177e-06
0.000126124
6.27607e-06
0.000125587
4.86714e-06
0.000126012
3.73427e-06
0.000126006
2.69537e-06
0.00012612
1.87247e-06
0.000126186
1.10352e-06
0.000126133
4.68069e-07
0.000125931
-1.75131e-07
0.000125662
-7.31617e-07
0.000125239
-1.30278e-06
0.000124785
-1.73278e-06
0.000124338
-1.92953e-06
0.00012376
-1.75525e-06
0.00012356
-2.05342e-06
0.000124037
-5.13348e-07
0.000120626
9.44312e-06
4.83393e-06
9.74727e-06
-2.58071e-05
6.39398e-06
-1.51467e-05
5.29069e-06
1.75815e-06
1.56766e-06
1.10231e-05
3.84503e-06
1.44675e-06
4.22173e-06
3.49868e-06
-3.31563e-06
5.15881e-06
-8.96433e-06
5.24368e-06
-1.20975e-05
5.69532e-07
-1.7436e-05
1.7348e-06
-2.18255e-05
8.81772e-06
9.50213e-05
6.64421e-06
0.000127937
5.62032e-06
0.000126375
4.5318e-06
0.000125949
3.6672e-06
0.000126311
2.76795e-06
0.000126348
2.0727e-06
0.000126343
1.4058e-06
0.000126382
8.94872e-07
0.000126219
3.73691e-07
0.000125996
-4.15014e-08
0.000125621
-4.57324e-07
0.000125132
-7.14617e-07
0.000124509
-8.932e-07
0.000123889
-5.81579e-07
0.00012288
-1.40401e-07
0.000122411
4.01612e-07
0.000122171
2.47375e-06
0.000117212
9.08842e-06
-7.16135e-07
8.32843e-06
-2.47309e-05
4.22179e-06
-1.27206e-05
3.56755e-06
9.03597e-07
2.81939e-06
8.83155e-06
4.93518e-06
1.95992e-06
2.07429e-06
5.20987e-06
-5.92321e-06
6.64481e-06
-1.11984e-05
6.95152e-06
-1.40629e-05
2.48871e-06
-1.72711e-05
6.52852e-07
-1.88419e-05
5.13974e-06
9.08337e-05
3.74705e-06
0.000127413
3.23588e-06
0.000125972
2.83645e-06
0.000125689
2.30244e-06
0.00012623
1.86094e-06
0.000126251
1.34843e-06
0.000126329
9.63509e-07
0.000126295
5.35846e-07
0.000126159
2.10042e-07
0.000125854
-1.33747e-07
0.000125443
-3.43639e-07
0.000124815
-5.36792e-07
0.000124092
-4.03065e-07
0.000123137
2.75637e-08
0.000121784
8.2657e-07
0.00012083
1.41972e-06
0.000120083
4.07065e-06
0.000113422
8.85834e-06
-4.35251e-06
7.21784e-06
-2.28111e-05
3.1726e-06
-1.04995e-05
2.26439e-06
-4.83469e-09
2.67148e-06
5.24482e-06
5.78637e-06
2.68892e-06
-1.29593e-06
7.20196e-06
-9.77955e-06
9.17462e-06
-1.38065e-05
8.90193e-06
-1.53991e-05
5.06862e-06
-1.64637e-05
-2.03565e-07
-1.20607e-05
-4.0825e-08
9.04109e-05
3.72199e-07
0.000124961
9.7891e-07
0.000124333
1.06676e-06
0.000124913
1.1758e-06
0.000125532
9.61439e-07
0.000125856
7.79752e-07
0.000125977
4.62062e-07
0.00012607
1.87444e-07
0.000125924
-1.11976e-07
0.000125609
-3.35896e-07
0.000125128
-5.62859e-07
0.000124437
-6.16836e-07
0.000123515
-5.20741e-07
0.000122346
-2.86117e-08
0.000120575
7.76405e-07
0.000119073
1.72021e-06
0.000117618
4.97655e-06
0.000109085
8.70289e-06
-6.70405e-06
6.26272e-06
-2.02792e-05
2.86307e-06
-9.07005e-06
1.69326e-06
-1.42161e-06
1.29853e-06
2.49113e-06
5.54581e-06
4.19238e-06
-6.0178e-06
9.80094e-06
-1.32035e-05
1.2066e-05
-1.56817e-05
1.07797e-05
-1.65451e-05
8.12144e-06
-1.63738e-05
-1.70717e-06
-9.06553e-07
-5.73742e-06
9.30802e-05
-2.69802e-06
0.000120007
-1.26471e-06
0.000121577
-1.16856e-07
0.000123082
3.25422e-07
0.000124434
4.71558e-07
0.000125088
2.91221e-07
0.000125537
8.5852e-08
0.000125711
-1.99486e-07
0.000125617
-4.71359e-07
0.000125307
-7.67881e-07
0.000124799
-9.66014e-07
0.00012401
-1.13599e-06
0.000122961
-1.0413e-06
0.000121544
-8.70834e-07
0.000119515
-2.14156e-07
0.00011739
8.77592e-07
0.000114908
5.4957e-06
0.000103963
8.5123e-06
-8.06091e-06
5.35347e-06
-1.7338e-05
2.37639e-06
-8.34952e-06
7.96259e-07
-2.90951e-06
3.22541e-07
8.00911e-07
5.06033e-06
8.39152e-06
-8.17264e-06
1.21342e-05
-1.16243e-05
1.33958e-05
-1.50577e-05
1.10441e-05
-1.734e-05
1.01302e-05
-1.73194e-05
-2.65871e-06
1.22804e-05
-7.56064e-06
9.54354e-05
-3.66018e-06
0.000114108
-1.29166e-06
0.000117808
-1.61908e-07
0.000121193
4.2581e-07
0.000123164
3.3306e-07
0.000124446
1.70044e-07
0.000125056
-1.7589e-07
0.000125391
-5.09614e-07
0.000125328
-9.42284e-07
0.000125069
-1.28832e-06
0.000124486
-1.65583e-06
0.000123651
-1.92884e-06
0.000122476
-2.07239e-06
0.000120874
-2.28094e-06
0.000118739
-2.40264e-06
0.00011629
-2.32846e-06
0.000113218
6.10966e-06
9.62847e-05
8.12819e-06
-7.97427e-06
4.50833e-06
-1.43167e-05
1.37691e-06
-7.99056e-06
8.95633e-09
-3.99199e-06
-1.457e-07
-1.72584e-07
4.65381e-06
7.03821e-06
-6.87555e-06
7.87716e-06
-1.2194e-05
9.42852e-06
-1.49929e-05
7.61716e-06
-1.66397e-05
8.21504e-06
-1.1759e-05
-3.34194e-06
2.13806e-05
-2.63575e-06
9.13599e-05
8.36446e-07
0.000108786
8.7761e-07
0.000116215
1.62562e-06
0.000119625
1.23366e-06
0.00012272
9.16771e-07
0.000123987
2.80091e-07
0.000124923
-2.26735e-07
0.000125204
-8.68315e-07
0.000125228
-1.37798e-06
0.000124875