/*--------------------------------*- C++ -*----------------------------------*\
| =========                 |                                                 |
| \\      /  F ield         | OpenFOAM: The Open Source CFD Toolbox           |
|  \\    /   O peration     | Version:  2.3.0                                 |
|   \\  /    A nd           | Web:      www.OpenFOAM.org                      |
|    \\/     M anipulation  |                                                 |
\*---------------------------------------------------------------------------*/
FoamFile
{
    version     2.0;
    format      ascii;
    class       volVectorField;
    location    "0.37";
    object      U.air;
}
// * * * * * * * * * * * * * * * * * * * * * * * * * * * * * * * * * * * * * //

dimensions      [0 1 -1 0 0 0 0];

internalField   nonuniform List<vector> 
6000
(
(0.0722559 0.236417 0)
(0.191478 0.204206 0)
(0.242671 0.185263 0)
(0.211701 0.201135 0)
(0.0643368 0.312885 0)
(-0.0590049 0.206787 0)
(-0.129777 0.160353 0)
(-0.212516 0.186265 0)
(-0.270116 0.161055 0)
(-0.25358 0.170027 0)
(-0.177914 0.191681 0)
(-0.129393 0.198412 0)
(-0.110319 0.194642 0)
(-0.094248 0.217362 0)
(-0.0359774 0.19453 0)
(0.0442704 0.197333 0)
(0.0904085 0.205738 0)
(0.104178 0.17977 0)
(0.130758 0.194888 0)
(0.18635 0.182111 0)
(0.261128 0.153434 0)
(0.272575 0.148295 0)
(0.200392 0.232478 0)
(0.0903391 0.25085 0)
(-0.0282165 0.269273 0)
(-0.13951 0.253191 0)
(-0.245585 0.208816 0)
(-0.250585 0.200962 0)
(-0.170567 0.21655 0)
(-0.0621233 0.247343 0)
(0.10005 0.752526 0)
(0.170299 0.934103 0)
(0.092869 1.00381 0)
(0.0172801 1.10515 0)
(0.0224832 1.12208 0)
(0.0496858 1.0868 0)
(-0.00366593 1.08987 0)
(-0.0913749 1.1379 0)
(-0.200003 1.05057 0)
(-0.197659 0.901369 0)
(-0.0741071 0.891604 0)
(0.0564342 0.991682 0)
(0.109126 1.11618 0)
(0.06145 1.1972 0)
(-0.00438421 1.15723 0)
(-0.0488383 1.16413 0)
(-0.102834 1.17451 0)
(-0.10744 1.06297 0)
(-0.024137 0.954751 0)
(0.109119 0.889878 0)
(0.200235 0.910416 0)
(0.149382 1.07984 0)
(0.033411 1.10508 0)
(-0.0180489 1.05658 0)
(-0.0213073 1.09338 0)
(-0.0136686 1.09087 0)
(-0.049626 1.12438 0)
(-0.117802 0.931169 0)
(-0.179931 0.930984 0)
(-0.0999527 0.778339 0)
(0.0432963 0.499068 0)
(0.0769951 0.855819 0)
(-0.0211343 0.890826 0)
(-0.0210868 0.934261 0)
(0.0308525 0.941192 0)
(0.0513486 0.949712 0)
(0.0365434 0.976569 0)
(-0.00584531 1.0403 0)
(-0.0634715 0.880551 0)
(-0.0297708 0.585433 0)
(0.0898226 0.550988 0)
(0.234891 0.651754 0)
(0.287542 0.90885 0)
(0.168023 1.09476 0)
(0.0173098 1.02192 0)
(-0.0976493 1.03204 0)
(-0.255548 1.04611 0)
(-0.296433 0.781353 0)
(-0.190174 0.61342 0)
(-0.0500653 0.552205 0)
(0.044835 0.631816 0)
(0.0407049 0.947587 0)
(-0.0232607 1.0368 0)
(-0.0548375 0.998141 0)
(-0.0518209 0.953491 0)
(-0.0212129 0.937091 0)
(0.0343332 0.919347 0)
(0.0221893 0.875976 0)
(-0.101949 0.834824 0)
(-0.0562418 0.51193 0)
(-0.0518631 0.465174 0)
(-0.0532193 0.897437 0)
(-0.0556448 0.885588 0)
(-0.00410591 0.889527 0)
(0.0259618 0.913656 0)
(0.0558388 0.918865 0)
(0.0695447 0.967825 0)
(0.0944131 1.03725 0)
(0.0815393 0.934412 0)
(0.11753 0.54525 0)
(0.207384 0.518919 0)
(0.276136 0.639414 0)
(0.235051 1.02311 0)
(0.116916 1.24949 0)
(0.0268983 1.14928 0)
(-0.0824875 1.17347 0)
(-0.1822 1.19599 0)
(-0.270586 0.828485 0)
(-0.279879 0.587048 0)
(-0.171809 0.508302 0)
(-0.0979253 0.628123 0)
(-0.0935375 1.01145 0)
(-0.108401 1.02669 0)
(-0.0773575 0.949861 0)
(-0.0536788 0.919108 0)
(-0.018336 0.892836 0)
(0.017008 0.89134 0)
(0.0578263 0.867995 0)
(0.0456887 0.897541 0)
(0.041304 0.46073 0)
(-0.0910262 0.540733 0)
(-0.0883716 0.850421 0)
(-0.044681 0.833524 0)
(0.0131689 0.85411 0)
(0.0341664 0.877111 0)
(0.057733 0.904897 0)
(0.0886249 0.928724 0)
(0.115345 1.01613 0)
(0.143671 0.913915 0)
(0.208035 0.470834 0)
(0.282449 0.464271 0)
(0.212011 0.666106 0)
(0.0671294 1.14897 0)
(0.0237643 1.19706 0)
(0.0124523 1.14286 0)
(-0.0318092 1.16478 0)
(-0.0472208 1.18654 0)
(-0.185575 1.00477 0)
(-0.283791 0.539344 0)
(-0.248857 0.442598 0)
(-0.1821 0.572953 0)
(-0.142414 1.01083 0)
(-0.124523 0.981592 0)
(-0.0883475 0.919795 0)
(-0.0547338 0.881978 0)
(-0.0315124 0.872504 0)
(-0.00820307 0.841465 0)
(0.0362418 0.837296 0)
(0.0856211 0.836634 0)
(0.0852689 0.530452 0)
(-0.0436105 0.604653 0)
(-0.013241 0.788215 0)
(-0.00463324 0.790036 0)
(0.0361612 0.807194 0)
(0.047775 0.851376 0)
(0.0615913 0.8663 0)
(0.0808821 0.90827 0)
(0.0895226 0.983415 0)
(0.168217 0.832048 0)
(0.271466 0.423703 0)
(0.302487 0.458308 0)
(0.150486 0.90703 0)
(-0.0121203 1.16594 0)
(0.0067151 1.17012 0)
(0.00212758 1.16285 0)
(-0.0128875 1.15833 0)
(-0.0107246 1.1821 0)
(-0.0556008 1.12504 0)
(-0.20509 0.606672 0)
(-0.314143 0.430816 0)
(-0.245023 0.506323 0)
(-0.142721 0.953544 0)
(-0.0913821 0.959157 0)
(-0.0792065 0.877557 0)
(-0.0591839 0.857305 0)
(-0.0514869 0.825916 0)
(-0.0326431 0.817449 0)
(-0.00723726 0.783372 0)
(0.0111523 0.781993 0)
(0.0409474 0.586659 0)
(0.011551 0.560689 0)
(0.0754824 0.760375 0)
(0.0471771 0.751938 0)
(0.0573726 0.787969 0)
(0.0611875 0.818987 0)
(0.0595163 0.846503 0)
(0.0593923 0.876879 0)
(0.0539672 0.941974 0)
(0.184428 0.671418 0)
(0.303253 0.414547 0)
(0.210685 0.524311 0)
(0.0629984 1.08809 0)
(-0.00895911 1.16526 0)
(0.000535066 1.17672 0)
(-0.000865075 1.16218 0)
(-0.00490546 1.17444 0)
(-0.00376009 1.16787 0)
(0.014472 1.16235 0)
(-0.156898 0.862586 0)
(-0.32527 0.453754 0)
(-0.290621 0.425445 0)
(-0.134937 0.824592 0)
(-0.0393873 0.925779 0)
(-0.0557475 0.864948 0)
(-0.0595326 0.83004 0)
(-0.0669023 0.817725 0)
(-0.0613114 0.786102 0)
(-0.0487909 0.75629 0)
(-0.0797015 0.745298 0)
(-0.00581834 0.541537 0)
(0.0436221 0.460723 0)
(0.117978 0.763619 0)
(0.0898831 0.744088 0)
(0.0687144 0.765556 0)
(0.079267 0.807055 0)
(0.0566568 0.827009 0)
(0.0236018 0.871224 0)
(0.0289918 0.895667 0)
(0.205569 0.49473 0)
(0.291302 0.452378 0)
(0.138134 0.725804 0)
(-0.0236607 1.13078 0)
(-0.0104473 1.1631 0)
(-0.00425367 1.15641 0)
(-0.00161069 1.16411 0)
(-0.000260145 1.15766 0)
(0.00163654 1.16742 0)
(0.0126743 1.15645 0)
(-0.0779657 1.06476 0)
(-0.21428 0.520656 0)
(-0.282134 0.402873 0)
(-0.137581 0.635537 0)
(-0.00214164 0.910237 0)
(-0.0408591 0.846576 0)
(-0.0622082 0.824825 0)
(-0.0817609 0.796757 0)
(-0.0736941 0.770666 0)
(-0.0822411 0.732834 0)
(-0.119802 0.76013 0)
(-0.0358904 0.438447 0)
(0.0306337 0.348637 0)
(0.128958 0.748691 0)
(0.126621 0.738812 0)
(0.0868243 0.768686 0)
(0.0783246 0.803003 0)
(0.0306483 0.852146 0)
(-0.0417002 0.929046 0)
(0.0151286 0.777032 0)
(0.182698 0.371178 0)
(0.196209 0.461659 0)
(0.0982689 0.958672 0)
(-0.0221108 1.1339 0)
(-0.0100104 1.13883 0)
(-0.0052122 1.1465 0)
(-0.000984289 1.14079 0)
(0.0030948 1.14823 0)
(0.00504611 1.1475 0)
(0.00544538 1.1499 0)
(-0.00718683 1.1124 0)
(-0.136326 0.675822 0)
(-0.233845 0.398737 0)
(-0.141052 0.465802 0)
(0.00721296 0.886274 0)
(0.00197957 0.883011 0)
(-0.0580463 0.819738 0)
(-0.085337 0.790787 0)
(-0.0868639 0.755911 0)
(-0.115932 0.728593 0)
(-0.124287 0.746429 0)
(-0.0182101 0.32776 0)
(-0.000645314 0.265862 0)
(0.125888 0.665594 0)
(0.160697 0.751899 0)
(0.1146 0.773881 0)
(0.0693379 0.810344 0)
(0.0481353 0.867859 0)
(-0.017934 0.933445 0)
(0.0833761 0.630198 0)
(0.181271 0.350273 0)
(0.134883 0.495728 0)
(0.0970913 1.04394 0)
(0.0216148 1.12579 0)
(-0.000640736 1.13573 0)
(-0.00509072 1.12367 0)
(7.76414e-05 1.12412 0)
(0.00734811 1.12327 0)
(0.00844634 1.13915 0)
(-0.00256145 1.14536 0)
(-0.0359545 1.13602 0)
(-0.140078 0.850678 0)
(-0.184054 0.378542 0)
(-0.181388 0.411643 0)
(-0.0469023 0.776436 0)
(0.00470585 0.910874 0)
(-0.0626469 0.837773 0)
(-0.0776669 0.782631 0)
(-0.115751 0.764594 0)
(-0.149776 0.727791 0)
(-0.113706 0.665915 0)
(0.0122077 0.251054 0)
(-0.0286449 0.229553 0)
(0.0948487 0.497931 0)
(0.17946 0.765117 0)
(0.141264 0.797801 0)
(0.0830492 0.829429 0)
(0.0243104 0.926184 0)
(0.0639491 0.891834 0)
(0.193098 0.54622 0)
(0.236148 0.385328 0)
(0.17605 0.527349 0)
(0.116777 1.12009 0)
(0.0443508 1.1668 0)
(-0.00558888 1.13413 0)
(-0.0137689 1.10691 0)
(-0.000968154 1.08722 0)
(0.017202 1.09794 0)
(0.0237248 1.12059 0)
(0.00188706 1.1659 0)
(-0.0754301 1.1839 0)
(-0.142845 0.93564 0)
(-0.255092 0.391149 0)
(-0.264942 0.43028 0)
(-0.194552 0.637371 0)
(-0.0455572 0.915417 0)
(-0.0239324 0.874249 0)
(-0.084981 0.800971 0)
(-0.132221 0.77471 0)
(-0.167202 0.735044 0)
(-0.0866322 0.496154 0)
(0.034166 0.221001 0)
(-0.0348183 0.236587 0)
(0.0342793 0.34918 0)
(0.14353 0.732838 0)
(0.160329 0.832207 0)
(0.0880971 0.860725 0)
(0.0700147 0.917968 0)
(0.20475 0.715649 0)
(0.315317 0.510248 0)
(0.295377 0.448031 0)
(0.241663 0.612931 0)
(0.0734316 1.22399 0)
(0.00404565 1.21888 0)
(-0.0501152 1.13495 0)
(-0.0453957 1.06315 0)
(-0.00703489 1.03297 0)
(0.0396187 1.04049 0)
(0.0703401 1.09415 0)
(0.0595796 1.17753 0)
(-0.0156435 1.27547 0)
(-0.102539 1.06325 0)
(-0.30318 0.489303 0)
(-0.332042 0.493348 0)
(-0.345383 0.551209 0)
(-0.199929 0.747431 0)
(-0.0627654 0.874544 0)
(-0.0758993 0.816615 0)
(-0.137487 0.800803 0)
(-0.13042 0.696213 0)
(-0.0444292 0.350269 0)
(0.0367181 0.227951 0)
(-0.0297949 0.2672 0)
(-0.0285424 0.281563 0)
(0.0650297 0.597159 0)
(0.146167 0.877127 0)
(0.112991 0.896488 0)
(0.192355 0.833119 0)
(0.340264 0.609669 0)
(0.370914 0.530106 0)
(0.316426 0.533612 0)
(0.201741 0.791678 0)
(-0.0641802 1.38101 0)
(-0.124307 1.27516 0)
(-0.154604 1.11501 0)
(-0.111295 1.00056 0)
(-0.0213509 0.948694 0)
(0.0789003 0.962418 0)
(0.16023 1.03822 0)
(0.187514 1.17774 0)
(0.146109 1.34389 0)
(0.0484078 1.266 0)
(-0.26394 0.665336 0)
(-0.3438 0.587161 0)
(-0.403874 0.564492 0)
(-0.363013 0.62205 0)
(-0.206139 0.785696 0)
(-0.109738 0.849548 0)
(-0.134854 0.834388 0)
(-0.0639451 0.606668 0)
(0.0155368 0.270744 0)
(0.0294534 0.254642 0)
(-0.0259811 0.308202 0)
(-0.0622407 0.282511 0)
(-0.013372 0.479914 0)
(0.087773 0.854391 0)
(0.184056 0.853026 0)
(0.343545 0.702452 0)
(0.429316 0.593781 0)
(0.388271 0.614119 0)
(0.276412 0.661848 0)
(-0.022064 1.08861 0)
(-0.297238 1.52722 0)
(-0.315286 1.3051 0)
(-0.280946 1.07531 0)
(-0.16904 0.899785 0)
(-0.0337692 0.829038 0)
(0.10508 0.845579 0)
(0.238985 0.946903 0)
(0.343014 1.15416 0)
(0.364048 1.38485 0)
(0.317566 1.49539 0)
(-0.0305653 0.961823 0)
(-0.294642 0.704473 0)
(-0.407747 0.64819 0)
(-0.451559 0.604158 0)
(-0.374997 0.665551 0)
(-0.206727 0.781187 0)
(-0.121085 0.807373 0)
(-0.0046661 0.485754 0)
(0.0672328 0.260773 0)
(0.0289637 0.298508 0)
(-0.0206423 0.354839 0)
(-0.0588673 0.307495 0)
(-0.0547963 0.42053 0)
(0.0645526 0.742172 0)
(0.272209 0.716899 0)
(0.432197 0.628081 0)
(0.452609 0.650424 0)
(0.357389 0.74699 0)
(0.0776896 0.947207 0)
(-0.409925 1.46341 0)
(-0.514908 1.58538 0)
(-0.426849 1.25712 0)
(-0.273633 0.942847 0)
(-0.12961 0.773696 0)
(-0.0236701 0.719185 0)
(0.0730054 0.730997 0)
(0.190083 0.811073 0)
(0.351658 1.02224 0)
(0.509286 1.35182 0)
(0.575516 1.58211 0)
(0.409669 1.37407 0)
(-0.0803757 0.953501 0)
(-0.364314 0.786971 0)
(-0.470041 0.661347 0)
(-0.45422 0.600548 0)
(-0.312769 0.667144 0)
(-0.117155 0.703722 0)
(0.0381301 0.390445 0)
(0.0702613 0.283926 0)
(0.0237816 0.352392 0)
(-0.011075 0.392814 0)
(-0.0292634 0.326829 0)
(-0.0249904 0.38361 0)
(0.111617 0.588134 0)
(0.322826 0.590784 0)
(0.420457 0.604718 0)
(0.399077 0.718385 0)
(0.199933 0.980496 0)
(-0.372692 1.46906 0)
(-0.626416 1.66712 0)
(-0.537798 1.48981 0)
(-0.302222 1.08209 0)
(-0.126206 0.818422 0)
(-0.0400134 0.726576 0)
(-0.00287138 0.700692 0)
(0.025632 0.706446 0)
(0.0740741 0.744065 0)
(0.186121 0.866706 0)
(0.398769 1.16839 0)
(0.624027 1.52324 0)
(0.669796 1.646 0)
(0.375347 1.44107 0)
(-0.172386 1.03972 0)
(-0.410867 0.738598 0)
(-0.443813 0.573849 0)
(-0.355734 0.547183 0)
(-0.130039 0.54604 0)
(0.0092086 0.34277 0)
(0.0309622 0.297399 0)
(0.00570973 0.395467 0)
(-0.000258495 0.406617 0)
(0.00942011 0.320624 0)
(0.0438651 0.327198 0)
(0.171648 0.433031 0)
(0.307859 0.488382 0)
(0.365106 0.588318 0)
(0.272906 0.853854 0)
(-0.154908 1.46286 0)
(-0.519835 1.78177 0)
(-0.519332 1.66838 0)
(-0.301852 1.26644 0)
(-0.0864855 0.942631 0)
(-0.00846571 0.789418 0)
(0.00511501 0.744027 0)
(0.00681034 0.730737 0)
(0.00800483 0.732997 0)
(0.0133225 0.752266 0)
(0.0394213 0.810941 0)
(0.14889 0.994371 0)
(0.379429 1.32235 0)
(0.573381 1.6779 0)
(0.536156 1.75406 0)
(0.19054 1.49678 0)
(-0.28145 0.897951 0)
(-0.395806 0.54579 0)
(-0.33165 0.442885 0)
(-0.187144 0.39442 0)
(-0.0659929 0.290239 0)
(-0.0217543 0.278084 0)
(-0.0146578 0.398889 0)
(0.0109017 0.39296 0)
(0.0439215 0.286663 0)
(0.103398 0.255094 0)
(0.199676 0.318904 0)
(0.282066 0.422442 0)
(0.253192 0.632781 0)
(0.0559565 1.16084 0)
(-0.257051 1.71851 0)
(-0.310236 1.8854 0)
(-0.202624 1.57807 0)
(-0.0715507 1.15916 0)
(0.00200834 0.950675 0)
(0.011395 0.842134 0)
(0.00681838 0.798604 0)
(0.00701525 0.784601 0)
(0.00889143 0.785642 0)
(0.0101182 0.805977 0)
(0.00735047 0.856595 0)
(0.0312823 0.977002 0)
(0.121712 1.21063 0)
(0.239779 1.61212 0)
(0.334802 1.85537 0)
(0.268752 1.73412 0)
(-0.0169176 1.26454 0)
(-0.261718 0.598205 0)
(-0.309507 0.372181 0)
(-0.232593 0.285282 0)
(-0.140372 0.223072 0)
(-0.0694873 0.226051 0)
(-0.0351252 0.362053 0)
(0.0329867 0.354402 0)
(0.0715185 0.261024 0)
(0.134691 0.182384 0)
(0.253158 0.232393 0)
(0.312212 0.38367 0)
(0.104941 0.827432 0)
(-0.170398 1.37503 0)
(-0.0949117 1.73837 0)
(0.0894107 1.84689 0)
(0.120232 1.54495 0)
(0.0237882 1.21622 0)
(-0.0231512 1.04586 0)
(-0.018619 0.955544 0)
(-0.00466907 0.91684 0)
(0.00516343 0.903325 0)
(0.0127931 0.905489 0)
(0.0239383 0.918491 0)
(0.0403761 0.964138 0)
(0.0425732 1.0523 0)
(-0.0143979 1.24589 0)
(-0.122512 1.5643 0)
(-0.0663175 1.80685 0)
(0.107756 1.74479 0)
(0.205431 1.42069 0)
(-0.124735 0.829001 0)
(-0.359128 0.323915 0)
(-0.298898 0.205971 0)
(-0.202904 0.154157 0)
(-0.109679 0.159756 0)
(-0.0630277 0.303319 0)
(0.0722096 0.326241 0)
(0.091931 0.301134 0)
(0.1371 0.106831 0)
(0.297097 0.142933 0)
(0.353012 0.417717 0)
(0.0567018 1.16362 0)
(-0.155362 1.27186 0)
(0.107059 1.53739 0)
(0.313018 1.62358 0)
(0.350701 1.52843 0)
(0.244026 1.18095 0)
(0.130235 0.920785 0)
(0.0663609 0.845004 0)
(0.0340329 0.810988 0)
(0.0125378 0.815453 0)
(-0.00742249 0.805549 0)
(-0.0304188 0.815032 0)
(-0.0665162 0.834573 0)
(-0.144086 0.944508 0)
(-0.263239 1.2372 0)
(-0.353106 1.56111 0)
(-0.28998 1.5713 0)
(-0.0735679 1.55765 0)
(0.161372 1.337 0)
(-0.0952197 1.26254 0)
(-0.395931 0.310261 0)
(-0.355384 0.119381 0)
(-0.25344 0.0790256 0)
(-0.136685 0.0957685 0)
(-0.0939002 0.224593 0)
(0.0579625 0.184466 0)
(0.0547504 0.342188 0)
(0.109601 -0.00764659 0)
(0.286847 0.0187936 0)
(0.308512 0.462992 0)
(0.141903 1.4165 0)
(0.0617328 1.10288 0)
(0.152966 1.28846 0)
(0.310507 1.62767 0)
(0.427312 1.53934 0)
(0.481399 1.38257 0)
(0.408916 1.19799 0)
(0.27455 1.05916 0)
(0.152153 0.975235 0)
(0.0462631 0.953565 0)
(-0.0552731 0.952249 0)
(-0.166427 0.992128 0)
(-0.296172 1.07454 0)
(-0.434996 1.2382 0)
(-0.480458 1.36889 0)
(-0.414098 1.54216 0)
(-0.295123 1.54783 0)
(-0.156848 1.31338 0)
(-0.0624395 1.25266 0)
(-0.0991493 1.46906 0)
(-0.299893 0.427115 0)
(-0.356394 -0.00832285 0)
(-0.236935 -0.0280076 0)
(-0.129683 0.0204018 0)
(-0.0672722 0.101606 0)
(0.0012044 0.20636 0)
(0.0723396 0.360994 0)
(0.132909 -0.0620849 0)
(0.300384 -0.196779 0)
(0.268152 0.642015 0)
(0.19778 1.27652 0)
(0.186138 1.211 0)
(0.133693 1.27769 0)
(0.201628 1.29946 0)
(0.322562 1.27115 0)
(0.378693 1.15309 0)
(0.36841 1.07179 0)
(0.290461 0.982755 0)
(0.180826 0.954981 0)
(0.054636 0.925974 0)
(-0.0735917 0.937812 0)
(-0.19721 0.945297 0)
(-0.305769 1.00514 0)
(-0.367999 1.06441 0)
(-0.376802 1.17943 0)
(-0.311464 1.25026 0)
(-0.207804 1.31605 0)
(-0.150965 1.27157 0)
(-0.166511 1.29575 0)
(-0.0847609 1.30075 0)
(-0.23241 0.663052 0)
(-0.334426 -0.0617871 0)
(-0.195333 -0.162743 0)
(-0.106575 0.0109661 0)
(-0.0186119 0.0579297 0)
(0.00333888 0.157713 0)
(0.0971649 0.300501 0)
(0.145321 -0.163665 0)
(0.175376 -0.227922 0)
(0.197747 0.667795 0)
(0.189589 1.16971 0)
(0.178244 1.17816 0)
(0.165503 1.16484 0)
(0.198396 1.20632 0)
(0.245674 1.16795 0)
(0.272813 1.14131 0)
(0.256732 1.06445 0)
(0.211004 1.02767 0)
(0.13214 0.976896 0)
(0.0414034 0.973383 0)
(-0.0537751 0.963998 0)
(-0.14464 0.997315 0)
(-0.216952 1.02274 0)
(-0.263005 1.09344 0)
(-0.269571 1.12827 0)
(-0.248267 1.19333 0)
(-0.199481 1.18454 0)
(-0.169756 1.19973 0)
(-0.152145 1.19644 0)
(-0.11881 1.20953 0)
(-0.203721 0.853392 0)
(-0.233938 -0.179575 0)
(-0.170303 -0.220493 0)
(-0.0650794 -0.0313729 0)
(-0.025386 0.00572542 0)
(-0.00239972 0.115827 0)
(0.0663764 0.240413 0)
(0.0590226 -0.136796 0)
(0.0537891 -0.271903 0)
(0.136046 0.596922 0)
(0.196753 1.16967 0)
(0.173611 1.16498 0)
(0.174968 1.17923 0)
(0.179772 1.1582 0)
(0.196882 1.16987 0)
(0.197583 1.12689 0)
(0.183452 1.11393 0)
(0.145639 1.06548 0)
(0.0933 1.05985 0)
(0.0295883 1.03657 0)
(-0.0366251 1.05228 0)
(-0.0984049 1.05084 0)
(-0.151218 1.08899 0)
(-0.18458 1.1028 0)
(-0.201834 1.15202 0)
(-0.197102 1.15248 0)
(-0.184709 1.18412 0)
(-0.173624 1.16588 0)
(-0.171043 1.21212 0)
(-0.175349 1.16353 0)
(-0.152157 0.825257 0)
(-0.106893 -0.113127 0)
(-0.103263 -0.333469 0)
(-0.0703307 -0.0111154 0)
(-0.0175804 -0.0428948 0)
(-0.0138849 0.0921491 0)
(0.0322945 0.212384 0)
(0.00679433 -0.122563 0)
(-0.0202706 -0.288066 0)
(0.068947 0.441207 0)
(0.188816 1.15703 0)
(0.169762 1.18983 0)
(0.160282 1.14966 0)
(0.159237 1.1698 0)
(0.156592 1.14419 0)
(0.152239 1.15277 0)
(0.134436 1.11973 0)
(0.10705 1.12154 0)
(0.0675346 1.09649 0)
(0.0227639 1.1067 0)
(-0.0244325 1.09417 0)
(-0.0696888 1.1163 0)
(-0.107326 1.11245 0)
(-0.13692 1.14483 0)
(-0.153003 1.1401 0)
(-0.162502 1.16812 0)
(-0.161688 1.15435 0)
(-0.16963 1.18582 0)
(-0.172108 1.18542 0)
(-0.197752 1.18242 0)
(-0.10847 0.674786 0)
(-0.00269737 -0.127609 0)
(-0.0323328 -0.279571 0)
(-0.0558737 -0.0423783 0)
(-0.00515577 -0.0758637 0)
(-0.0217975 0.0825776 0)
(0.0140533 0.191551 0)
(-0.0263605 -0.0874956 0)
(-0.0657174 -0.277829 0)
(0.0148955 0.25437 0)
(0.155965 1.15123 0)
(0.144873 1.15791 0)
(0.139719 1.16969 0)
(0.13328 1.14385 0)
(0.129665 1.16363 0)
(0.119874 1.14219 0)
(0.105539 1.15399 0)
(0.0815076 1.13351 0)
(0.0525886 1.14562 0)
(0.0186455 1.1307 0)
(-0.0163377 1.14647 0)
(-0.0496665 1.13588 0)
(-0.0799451 1.15622 0)
(-0.103043 1.14585 0)
(-0.121608 1.16892 0)
(-0.132184 1.15247 0)
(-0.141904 1.17474 0)
(-0.151884 1.15641 0)
(-0.164318 1.20844 0)
(-0.17947 1.175 0)
(-0.0682288 0.500831 0)
(0.0462505 -0.14808 0)
(0.0189932 -0.244744 0)
(-0.0226093 -0.0607745 0)
(0.00770686 -0.09129 0)
(-0.0305634 0.0802105 0)
(0.00718355 0.188623 0)
(-0.0456191 -0.0438148 0)
(-0.0943093 -0.256857 0)
(-0.0319513 0.0836718 0)
(0.103181 1.12141 0)
(0.115586 1.15929 0)
(0.114143 1.13956 0)
(0.114231 1.16538 0)
(0.108494 1.14995 0)
(0.101012 1.17153 0)
(0.0856094 1.15289 0)
(0.0669684 1.16861 0)
(0.0429353 1.1571 0)
(0.0169528 1.17198 0)
(-0.0101275 1.16054 0)
(-0.0365529 1.17561 0)
(-0.0600985 1.16272 0)
(-0.0812292 1.17857 0)
(-0.0965773 1.16229 0)
(-0.111217 1.18296 0)
(-0.119092 1.15613 0)
(-0.132324 1.18177 0)
(-0.140857 1.18124 0)
(-0.147039 1.16723 0)
(-0.032293 0.335928 0)
(0.0731085 -0.178598 0)
(0.0518693 -0.19322 0)
(0.00233997 -0.0661296 0)
(0.016951 -0.0870594 0)
(-0.03866 0.0812818 0)
(0.00132165 0.167947 0)
(-0.0582932 0.00758622 0)
(-0.110023 -0.227422 0)
(-0.0685785 -0.0604165 0)
(0.0499474 1.06171 0)
(0.0943729 1.12823 0)
(0.10351 1.15302 0)
(0.102233 1.14135 0)
(0.0995353 1.17486 0)
(0.0887589 1.16289 0)
(0.0755976 1.18469 0)
(0.0575722 1.17143 0)
(0.0381627 1.18959 0)
(0.0164781 1.18077 0)
(-0.00541308 1.19394 0)
(-0.0266714 1.18256 0)
(-0.0471976 1.19425 0)
(-0.0643839 1.17708 0)
(-0.0806122 1.19436 0)
(-0.0930849 1.16984 0)
(-0.103089 1.18292 0)
(-0.110589 1.15587 0)
(-0.122681 1.19867 0)
(-0.11688 1.13779 0)
(0.00291947 0.173342 0)
(0.0878179 -0.204679 0)
(0.0722683 -0.140896 0)
(0.0212006 -0.0535863 0)
(0.0253517 -0.0712744 0)
(-0.04599 0.0829962 0)
(-0.00332051 0.166638 0)
(-0.0669838 0.0539982 0)
(-0.112399 -0.201224 0)
(-0.101469 -0.156283 0)
(0.0192002 0.998925 0)
(0.120658 1.1199 0)
(0.110974 1.12317 0)
(0.105582 1.16204 0)
(0.0969277 1.15955 0)
(0.0854606 1.18797 0)
(0.0697834 1.18025 0)
(0.053558 1.20312 0)
(0.0353743 1.19224 0)
(0.0170999 1.2089 0)
(-0.00138743 1.19768 0)
(-0.0198107 1.21114 0)
(-0.0369362 1.1944 0)
(-0.0538633 1.20908 0)
(-0.0683533 1.18628 0)
(-0.0831912 1.19726 0)
(-0.0920055 1.16593 0)
(-0.104249 1.17885 0)
(-0.111671 1.17135 0)
(-0.0867736 1.08489 0)
(0.0352814 0.0227606 0)
(0.098375 -0.217591 0)
(0.086104 -0.106813 0)
(0.0355504 -0.0389494 0)
(0.0312169 -0.0476089 0)
(-0.0507098 0.0789166 0)
(-9.18545e-05 0.159987 0)
(-0.0672938 0.0776958 0)
(-0.111371 -0.1673 0)
(-0.127713 -0.201094 0)
(0.0145603 0.805378 0)
(0.186921 1.10542 0)
(0.139388 1.14748 0)
(0.11613 1.14904 0)
(0.102071 1.18608 0)
(0.0849027 1.18179 0)
(0.0684672 1.20697 0)
(0.0511711 1.20092 0)
(0.0346569 1.22228 0)
(0.0179713 1.21029 0)
(0.00172224 1.22762 0)
(-0.0140048 1.21128 0)
(-0.0300203 1.22511 0)
(-0.0452261 1.20392 0)
(-0.0612727 1.21382 0)
(-0.0760363 1.18709 0)
(-0.0921183 1.19448 0)
(-0.112538 1.15957 0)
(-0.140948 1.18251 0)
(-0.0691128 1.03237 0)
(0.0742408 -0.0993348 0)
(0.10916 -0.220813 0)
(0.0943314 -0.0775244 0)
(0.039686 -0.00683248 0)
(0.03401 -0.021506 0)
(-0.057053 0.0538684 0)
(0.0122115 0.162297 0)
(-0.0538628 0.0868156 0)
(-0.0968741 -0.124649 0)
(-0.127734 -0.213726 0)
(0.0243963 0.520289 0)
(0.241861 1.13693 0)
(0.162751 1.15076 0)
(0.128929 1.1813 0)
(0.105528 1.18387 0)
(0.0865885 1.21094 0)
(0.0669869 1.20454 0)
(0.0502755 1.2269 0)
(0.0339547 1.22008 0)
(0.0189061 1.23821 0)
(0.00435043 1.22581 0)
(-0.00981459 1.23915 0)
(-0.0238498 1.22046 0)
(-0.0388091 1.23005 0)
(-0.0539336 1.20814 0)
(-0.0718866 1.21899 0)
(-0.0913181 1.18857 0)
(-0.129365 1.20388 0)
(-0.185624 1.18404 0)
(-0.051933 0.837789 0)
(0.11249 -0.175728 0)
(0.119719 -0.216002 0)
(0.0968947 -0.0499579 0)
(0.0382462 0.0191084 0)
(0.0358425 0.00176537 0)
(-0.0885433 0.0492995 0)
(0.0231639 0.138583 0)
(-0.0103263 0.0813747 0)
(-0.0508959 -0.084409 0)
(-0.091193 -0.219469 0)
(0.0299347 0.232676 0)
(0.238912 1.1596 0)
(0.173536 1.21299 0)
(0.132618 1.18484 0)
(0.106291 1.21401 0)
(0.0845582 1.20961 0)
(0.0653767 1.23247 0)
(0.0479399 1.22477 0)
(0.0331388 1.24358 0)
(0.0191711 1.23421 0)
(0.00634643 1.24684 0)
(-0.0059344 1.23358 0)
(-0.0186522 1.24357 0)
(-0.0314189 1.22492 0)
(-0.0465814 1.23631 0)
(-0.0620762 1.21385 0)
(-0.0839369 1.22916 0)
(-0.121848 1.20687 0)
(-0.188645 1.23798 0)
(-0.0260593 0.577043 0)
(0.125362 -0.218054 0)
(0.125816 -0.202862 0)
(0.0987784 -0.0203901 0)
(0.0349044 0.0506798 0)
(0.0356573 0.0200372 0)
(-0.0406232 0.0566319 0)
(0.0164497 0.0654549 0)
(0.0284047 0.0522493 0)
(-0.00188504 -0.0480194 0)
(-0.0421412 -0.216157 0)
(0.0262222 0.0159398 0)
(0.192342 1.16619 0)
(0.161497 1.2183 0)
(0.128153 1.23482 0)
(0.0986831 1.21452 0)
(0.0794836 1.24193 0)
(0.060189 1.23089 0)
(0.0447053 1.24927 0)
(0.0307806 1.24049 0)
(0.0187846 1.25442 0)
(0.00773182 1.24259 0)
(-0.00282305 1.25335 0)
(-0.0131977 1.23758 0)
(-0.0243477 1.24772 0)
(-0.0361949 1.22944 0)
(-0.0493259 1.24405 0)
(-0.0637462 1.22383 0)
(-0.0979181 1.25489 0)
(-0.136395 1.24245 0)
(0.00563622 0.357402 0)
(0.116291 -0.242704 0)
(0.115335 -0.192695 0)
(0.0883546 0.00322179 0)
(0.0265867 0.0770101 0)
(0.0343954 0.0309826 0)
(-0.00757084 0.0513137 0)
(0.00479353 0.0255367 0)
(0.0324164 0.0105912 0)
(0.0297934 -0.046185 0)
(-0.00556225 -0.205201 0)
(0.0180668 -0.121877 0)
(0.128261 1.1088 0)
(0.141131 1.27209 0)
(0.108563 1.23286 0)
(0.086939 1.25028 0)
(0.0686131 1.23853 0)
(0.0529979 1.25576 0)
(0.0389891 1.24536 0)
(0.0275081 1.26022 0)
(0.0172677 1.24932 0)
(0.00816765 1.26007 0)
(-0.000256501 1.24659 0)
(-0.00862186 1.25562 0)
(-0.0167248 1.23876 0)
(-0.0258132 1.25038 0)
(-0.0326032 1.23121 0)
(-0.0405057 1.25225 0)
(-0.0602165 1.2367 0)
(-0.0700874 1.24507 0)
(0.0348789 0.196373 0)
(0.105156 -0.255336 0)
(0.0995186 -0.178441 0)
(0.0759838 0.0181826 0)
(0.0211274 0.0989201 0)
(0.0345601 0.0339572 0)
(0.00503108 0.0487829 0)
(0.0123745 -0.00930852 0)
(0.0248837 -0.0307656 0)
(0.0476366 -0.0656454 0)
(0.0167846 -0.187704 0)
(0.0109155 -0.194761 0)
(0.0714396 1.05115 0)
(0.115352 1.25947 0)
(0.0881472 1.26451 0)
(0.0700304 1.24373 0)
(0.0559762 1.26327 0)
(0.0429724 1.25023 0)
(0.0322967 1.2643 0)
(0.0227757 1.2541 0)
(0.0147805 1.26479 0)
(0.0076636 1.25265 0)
(0.00114753 1.26099 0)
(-0.00483552 1.24572 0)
(-0.0105921 1.25397 0)
(-0.0157693 1.23671 0)
(-0.017987 1.24718 0)
(-0.0184732 1.22901 0)
(-0.0282515 1.25507 0)
(-0.015793 1.21722 0)
(0.0554177 0.0869942 0)
(0.0939696 -0.259742 0)
(0.0793988 -0.162831 0)
(0.0581554 0.0210006 0)
(0.0215176 0.110852 0)
(0.0397011 0.0346036 0)
(0.00684785 0.0470505 0)
(0.0245979 -0.0262858 0)
(0.0377546 -0.0765491 0)
(0.0499086 -0.0939927 0)
(0.0411481 -0.178041 0)
(0.0181843 -0.221302 0)
(0.0324175 0.981774 0)
(0.0916932 1.28382 0)
(0.0616569 1.25241 0)
(0.051621 1.26284 0)
(0.040888 1.25421 0)
(0.0322288 1.26818 0)
(0.0241429 1.25662 0)
(0.017358 1.26771 0)
(0.0113828 1.25666 0)
(0.00611854 1.26439 0)
(0.00140328 1.25089 0)
(-0.00286051 1.25721 0)
(-0.0062015 1.24015 0)
(-0.00891209 1.24751 0)
(-0.00689425 1.22566 0)
(-0.00377637 1.23836 0)
(-0.00678103 1.22139 0)
(0.019279 1.1908 0)
(0.0672843 0.0181708 0)
(0.0830037 -0.253555 0)
(0.0608675 -0.140374 0)
(0.03722 0.0124475 0)
(0.021538 0.10045 0)
(0.0476501 0.0416713 0)
(0.00953936 0.0324624 0)
(0.0367824 -0.0451686 0)
(0.0569882 -0.100477 0)
(0.0643961 -0.129533 0)
(0.0569264 -0.168706 0)
(0.0374719 -0.203218 0)
(-0.00206714 0.924851 0)
(0.0591955 1.2691 0)
(0.0375915 1.26818 0)
(0.0307704 1.25137 0)
(0.0253565 1.26709 0)
(0.0208339 1.25625 0)
(0.016039 1.26768 0)
(0.0114514 1.25844 0)
(0.00739964 1.26682 0)
(0.00359667 1.25434 0)
(0.000110577 1.25998 0)
(-0.00266245 1.24427 0)
(-0.00496504 1.24839 0)
(-0.00502268 1.2288 0)
(-0.00244084 1.2304 0)
(0.0037866 1.20785 0)
(0.00236479 1.21909 0)
(0.0383025 1.15148 0)
(0.0734489 -0.0265924 0)
(0.0747889 -0.238317 0)
(0.0489691 -0.116904 0)
(0.025324 0.00338698 0)
(0.0163996 0.0666259 0)
(0.041308 0.0563376 0)
(0.0144732 0.0047874 0)
(0.0507053 -0.0771132 0)
(0.0814444 -0.124407 0)
(0.0867808 -0.147739 0)
(0.0781029 -0.167328 0)
(0.0581457 -0.158918 0)
(-0.0352412 0.892957 0)
(0.0119136 1.265 0)
(0.00986296 1.24532 0)
(0.0106483 1.25628 0)
(0.0104688 1.25242 0)
(0.0109582 1.26518 0)
(0.00870001 1.25681 0)
(0.00617587 1.26663 0)
(0.0032019 1.2557 0)
(0.000243959 1.26142 0)
(-0.00247998 1.24832 0)
(-0.00480803 1.25141 0)
(-0.00646584 1.23274 0)
(-0.00578575 1.23494 0)
(-0.0038707 1.20521 0)
(0.00321668 1.206 0)
(0.00315366 1.18278 0)
(0.0473384 1.11274 0)
(0.0761229 -0.0560007 0)
(0.0674213 -0.216727 0)
(0.0418256 -0.0981827 0)
(0.0202788 -0.00851465 0)
(0.0124134 0.040674 0)
(0.0211577 0.0619371 0)
(0.0296797 -0.0281978 0)
(0.0710707 -0.110605 0)
(0.109448 -0.146658 0)
(0.110744 -0.160137 0)
(0.101918 -0.162891 0)
(0.073771 -0.0731225 0)
(-0.0761955 0.903041 0)
(-0.0394463 1.22447 0)
(-0.0121628 1.23103 0)
(-0.00637273 1.23608 0)
(0.00128327 1.25371 0)
(0.00435268 1.25104 0)
(0.00403003 1.26293 0)
(0.00197733 1.25414 0)
(-0.000528115 1.26168 0)
(-0.00349227 1.25078 0)
(-0.00644023 1.25388 0)
(-0.00883219 1.23818 0)
(-0.0113671 1.23871 0)
(-0.0102357 1.21373 0)
(-0.012137 1.20692 0)
(-0.00421384 1.17747 0)
(-0.00850904 1.16702 0)
(0.0462262 1.06237 0)
(0.0763824 -0.0745636 0)
(0.060342 -0.189851 0)
(0.0342131 -0.0877197 0)
(0.0126394 -0.0199448 0)
(0.00718594 0.0202703 0)
(0.00713693 0.0561282 0)
(0.0760011 -0.0436129 0)
(0.102044 -0.12185 0)
(0.125157 -0.153945 0)
(0.119133 -0.169392 0)
(0.11836 -0.167051 0)
(0.0671164 0.0498243 0)
(-0.0810819 0.944413 0)
(-0.0571783 1.16565 0)
(-0.0158149 1.19817 0)
(-0.0064016 1.22492 0)
(0.00106976 1.23723 0)
(0.00438916 1.24948 0)
(0.00279778 1.24905 0)
(2.57768e-05 1.25855 0)
(-0.00347782 1.2502 0)
(-0.00739054 1.25419 0)
(-0.0112722 1.24309 0)
(-0.0150586 1.24157 0)
(-0.0184486 1.22262 0)
(-0.0196595 1.21442 0)
(-0.0245076 1.18456 0)
(-0.0234613 1.17146 0)
(-0.0388968 1.1364 0)
(0.0332431 1.02049 0)
(0.0743332 -0.0806246 0)
(0.0533617 -0.159444 0)
(0.0235184 -0.0824462 0)
(0.00592874 -0.0311891 0)
(0.00151109 0.00528368 0)
(0.000878533 0.0497908 0)
(0.0469194 -0.102951 0)
(0.0770972 -0.127739 0)
(0.0838475 -0.149515 0)
(0.084835 -0.16711 0)
(0.117179 -0.142643 0)
(-0.00198118 0.175247 0)
(-0.029628 0.960222 0)
(-0.0096972 1.13044 0)
(0.0166837 1.16621 0)
(0.0133875 1.20548 0)
(0.0145626 1.22779 0)
(0.0109691 1.23977 0)
(0.00632619 1.25007 0)
(0.000267319 1.24981 0)
(-0.00538657 1.25319 0)
(-0.0113724 1.24768 0)
(-0.0169904 1.24569 0)
(-0.0226368 1.23098 0)
(-0.0280705 1.22416 0)
(-0.0314757 1.20132 0)
(-0.0408375 1.18759 0)
(-0.0442658 1.15369 0)
(-0.0717486 1.13308 0)
(0.0229001 0.909658 0)
(0.0671154 -0.0722654 0)
(0.044199 -0.130607 0)
(0.0133443 -0.0778235 0)
(0.000349491 -0.0414232 0)
(-0.00254425 -0.00385226 0)
(-0.00147941 0.045337 0)
(-0.00874715 -0.0681673 0)
(0.00800106 -0.088851 0)
(0.0362992 -0.14253 0)
(0.0390857 -0.144567 0)
(0.0160494 -0.0898093 0)
(-0.0155221 0.228946 0)
(0.0592965 0.893498 0)
(0.0861016 1.0709 0)
(0.0793067 1.17377 0)
(0.0531073 1.19402 0)
(0.0372932 1.23029 0)
(0.0244971 1.24012 0)
(0.0127856 1.2473 0)
(0.00246868 1.25237 0)
(-0.00675145 1.25208 0)
(-0.0150292 1.2501 0)
(-0.0232958 1.23946 0)
(-0.0316272 1.23491 0)
(-0.0387609 1.21615 0)
(-0.0464826 1.20443 0)
(-0.055644 1.17558 0)
(-0.0635415 1.15682 0)
(-0.0833194 1.11496 0)
(0.0220704 0.79162 0)
(0.0527892 -0.0521788 0)
(0.0325479 -0.104123 0)
(0.00782099 -0.0740825 0)
(-0.00295972 -0.0482857 0)
(-0.00485732 -0.0102384 0)
(-0.00191714 0.0420212 0)
(-0.0127699 -0.032418 0)
(-0.0225924 -0.0917179 0)
(-0.0296939 -0.108794 0)
(-0.0413575 -0.0973747 0)
(-0.11109 -0.0204865 0)
(-0.0831192 0.138135 0)
(0.0935169 0.745786 0)
(0.200793 1.1049 0)
(0.133551 1.16324 0)
(0.0979064 1.22798 0)
(0.0633228 1.2301 0)
(0.0393289 1.25272 0)
(0.020916 1.25256 0)
(0.00514834 1.25606 0)
(-0.00756993 1.25369 0)
(-0.0190212 1.24672 0)
(-0.0300707 1.24447 0)