/*--------------------------------*- C++ -*----------------------------------*\
| =========                 |                                                 |
| \\      /  F ield         | OpenFOAM: The Open Source CFD Toolbox           |
|  \\    /   O peration     | Version:  2.3.0                                 |
|   \\  /    A nd           | Web:      www.OpenFOAM.org                      |
|    \\/     M anipulation  |                                                 |
\*---------------------------------------------------------------------------*/
FoamFile
{
    version     2.0;
    format      ascii;
    class       volVectorField;
    location    "0.37";
    object      U.airMean;
}
// * * * * * * * * * * * * * * * * * * * * * * * * * * * * * * * * * * * * * //

dimensions      [0 1 -1 0 0 0 0];

internalField   nonuniform List<vector> 
6000
(
(-0.000280855 0.252828 0)
(0.0287986 0.234465 0)
(0.0625283 0.246867 0)
(0.0792477 0.240989 0)
(0.0849602 0.240816 0)
(0.0693983 0.243969 0)
(0.0488039 0.231508 0)
(0.0425902 0.222923 0)
(0.0490999 0.221891 0)
(0.0594329 0.224046 0)
(0.0663156 0.22774 0)
(0.0642269 0.229539 0)
(0.049444 0.23092 0)
(0.0270262 0.231745 0)
(0.00518235 0.234327 0)
(-0.0160554 0.233807 0)
(-0.0373266 0.232042 0)
(-0.058531 0.229532 0)
(-0.0696924 0.229147 0)
(-0.0695828 0.226642 0)
(-0.0615024 0.223014 0)
(-0.0512384 0.220466 0)
(-0.0470854 0.22364 0)
(-0.0559164 0.234109 0)
(-0.0786187 0.24635 0)
(-0.0943253 0.240966 0)
(-0.0865886 0.241926 0)
(-0.0650435 0.249281 0)
(-0.0279666 0.237814 0)
(0.000591994 0.254133 0)
(0.0212791 0.920876 0)
(0.046768 0.912623 0)
(0.0921171 0.916919 0)
(0.124545 0.939213 0)
(0.139752 0.971562 0)
(0.131954 0.99543 0)
(0.105344 0.996982 0)
(0.0752198 0.980932 0)
(0.0593096 0.963613 0)
(0.0595387 0.960418 0)
(0.0636236 0.967623 0)
(0.0588822 0.983867 0)
(0.0423908 1.00522 0)
(0.0187554 1.01079 0)
(0.00168712 1.00696 0)
(-0.011672 1.00606 0)
(-0.0305599 1.01081 0)
(-0.052159 0.999217 0)
(-0.0655305 0.979252 0)
(-0.0670581 0.965327 0)
(-0.0633191 0.959893 0)
(-0.0651528 0.967239 0)
(-0.0835225 0.984226 0)
(-0.114549 0.997379 0)
(-0.139296 0.995874 0)
(-0.144904 0.968879 0)
(-0.129666 0.936837 0)
(-0.0965835 0.908622 0)
(-0.049212 0.909861 0)
(-0.0216561 0.92149 0)
(0.0086119 0.779235 0)
(0.0509142 0.734201 0)
(0.0945297 0.744535 0)
(0.127023 0.772044 0)
(0.150725 0.821409 0)
(0.147967 0.878302 0)
(0.118848 0.894181 0)
(0.0839948 0.863476 0)
(0.0659653 0.824611 0)
(0.0656321 0.813287 0)
(0.0660174 0.827626 0)
(0.0556064 0.857681 0)
(0.03618 0.885871 0)
(0.0179521 0.894063 0)
(0.00308439 0.886005 0)
(-0.0119711 0.888497 0)
(-0.0283173 0.89248 0)
(-0.0471434 0.878336 0)
(-0.0635575 0.847995 0)
(-0.0706856 0.823562 0)
(-0.0693754 0.812636 0)
(-0.0717569 0.829989 0)
(-0.0922493 0.867595 0)
(-0.126668 0.896558 0)
(-0.153182 0.873682 0)
(-0.151841 0.819088 0)
(-0.126178 0.768128 0)
(-0.0948291 0.743218 0)
(-0.0545396 0.733039 0)
(-0.0107663 0.77796 0)
(0.0257023 0.742966 0)
(0.0810919 0.717128 0)
(0.107415 0.736921 0)
(0.135626 0.770108 0)
(0.15237 0.827478 0)
(0.153777 0.895286 0)
(0.127326 0.933963 0)
(0.0888477 0.898879 0)
(0.0642297 0.84913 0)
(0.0566934 0.828268 0)
(0.0498756 0.845258 0)
(0.0338766 0.87754 0)
(0.0181143 0.899031 0)
(0.0102111 0.896031 0)
(0.00205964 0.892205 0)
(-0.00839286 0.891566 0)
(-0.0163668 0.899445 0)
(-0.0271138 0.89232 0)
(-0.0439935 0.868164 0)
(-0.0563368 0.83905 0)
(-0.0617927 0.82892 0)
(-0.070731 0.856434 0)
(-0.0974942 0.904829 0)
(-0.134336 0.93103 0)
(-0.155965 0.889977 0)
(-0.152165 0.820586 0)
(-0.133511 0.767255 0)
(-0.106081 0.733929 0)
(-0.0820592 0.718109 0)
(-0.0264294 0.738683 0)
(0.031878 0.675392 0)
(0.0976911 0.678408 0)
(0.127894 0.701316 0)
(0.158956 0.748389 0)
(0.167685 0.820359 0)
(0.162538 0.915818 0)
(0.131232 0.975095 0)
(0.0903949 0.936221 0)
(0.060037 0.869668 0)
(0.0455138 0.838438 0)
(0.0317313 0.858474 0)
(0.0143117 0.893813 0)
(0.00460939 0.901016 0)
(0.00296925 0.898663 0)
(-3.86785e-05 0.89312 0)
(-0.00414856 0.895763 0)
(-0.00664381 0.898575 0)
(-0.0108525 0.902554 0)
(-0.0234991 0.88182 0)
(-0.0394853 0.850845 0)
(-0.0512763 0.83877 0)
(-0.066796 0.878532 0)
(-0.0985635 0.941635 0)
(-0.137882 0.969773 0)
(-0.164366 0.903436 0)
(-0.16715 0.814499 0)
(-0.15834 0.743429 0)
(-0.128924 0.700194 0)
(-0.0977306 0.678362 0)
(-0.0320696 0.67069 0)
(0.03431 0.595977 0)
(0.108252 0.619103 0)
(0.154927 0.652293 0)
(0.190077 0.711759 0)
(0.182325 0.807788 0)
(0.16178 0.923837 0)
(0.128662 1.00211 0)
(0.0952986 0.971828 0)
(0.0662551 0.89943 0)
(0.0432818 0.860807 0)
(0.0191841 0.883833 0)
(0.000591347 0.906568 0)
(-0.00304515 0.905622 0)
(-0.00190711 0.899146 0)
(-0.00137526 0.897769 0)
(-0.00109742 0.896971 0)
(-0.000405839 0.90251 0)
(0.000440085 0.906071 0)
(-0.00748565 0.900179 0)
(-0.0277753 0.872959 0)
(-0.0495262 0.860945 0)
(-0.0722815 0.908784 0)
(-0.102865 0.978042 0)
(-0.136774 0.99441 0)
(-0.165623 0.909501 0)
(-0.186854 0.79942 0)
(-0.190761 0.709566 0)
(-0.161388 0.650177 0)
(-0.110672 0.6175 0)
(-0.0360054 0.590072 0)
(0.0372633 0.515322 0)
(0.123913 0.539601 0)
(0.186725 0.594051 0)
(0.213686 0.682756 0)
(0.193664 0.808829 0)
(0.160695 0.940173 0)
(0.126548 1.01639 0)
(0.0997859 0.990134 0)
(0.0749172 0.921233 0)
(0.0414565 0.886879 0)
(0.00921998 0.907029 0)
(-0.00878813 0.910125 0)
(-0.00845973 0.899748 0)
(-0.0056602 0.894292 0)
(-0.0022082 0.890567 0)
(0.00131045 0.89199 0)
(0.00473264 0.895261 0)
(0.00785026 0.903462 0)
(0.00383047 0.908786 0)
(-0.0172041 0.896499 0)
(-0.0489323 0.885969 0)
(-0.0805517 0.93077 0)
(-0.106745 0.998148 0)
(-0.134977 1.0077 0)
(-0.167615 0.924368 0)
(-0.204622 0.802526 0)
(-0.221063 0.680992 0)
(-0.194557 0.59343 0)
(-0.127386 0.532918 0)
(-0.0375961 0.507948 0)
(0.0442313 0.42602 0)
(0.133512 0.448464 0)
(0.20299 0.534101 0)
(0.220443 0.670635 0)
(0.193505 0.809909 0)
(0.162015 0.958517 0)
(0.134507 1.02746 0)
(0.111916 1.00776 0)
(0.0870958 0.949725 0)
(0.0405936 0.922009 0)
(0.00300346 0.928464 0)
(-0.0111225 0.90942 0)
(-0.0110576 0.894689 0)
(-0.00760509 0.886034 0)
(-0.00274522 0.88284 0)
(0.00249837 0.883309 0)
(0.00730038 0.88832 0)
(0.0104874 0.897452 0)
(0.00897788 0.913184 0)
(-0.00989342 0.920201 0)
(-0.0497804 0.920099 0)
(-0.0925467 0.957813 0)
(-0.116293 1.01438 0)
(-0.140521 1.02194 0)
(-0.170448 0.94046 0)
(-0.209382 0.808999 0)
(-0.234778 0.663977 0)
(-0.209827 0.531051 0)
(-0.134226 0.437358 0)
(-0.0428953 0.41851 0)
(0.0422433 0.335941 0)
(0.121827 0.362664 0)
(0.186246 0.473097 0)
(0.198591 0.669621 0)
(0.176513 0.81694 0)
(0.147914 0.968253 0)
(0.138976 1.04331 0)
(0.11952 1.01632 0)
(0.0917588 0.982684 0)
(0.044805 0.963381 0)
(0.00894674 0.942232 0)
(-0.00390954 0.909292 0)
(-0.00725577 0.888848 0)
(-0.00613741 0.878077 0)
(-0.00255182 0.873644 0)
(0.00167124 0.874315 0)
(0.00501116 0.880158 0)
(0.00584354 0.892365 0)
(0.00180092 0.913869 0)
(-0.0155821 0.940798 0)
(-0.054728 0.961481 0)
(-0.0978861 0.984816 0)
(-0.122266 1.02782 0)
(-0.139557 1.03109 0)
(-0.158905 0.959949 0)
(-0.191417 0.813217 0)
(-0.217083 0.655943 0)
(-0.190546 0.460839 0)
(-0.119832 0.350574 0)
(-0.0393853 0.331118 0)
(0.033267 0.270054 0)
(0.0980271 0.295747 0)
(0.14804 0.431525 0)
(0.158816 0.671698 0)
(0.14372 0.818201 0)
(0.139751 0.973232 0)
(0.137227 1.04816 0)
(0.120449 1.0406 0)
(0.0877133 1.01185 0)
(0.0498545 0.994998 0)
(0.021874 0.955995 0)
(0.00724303 0.915268 0)
(-3.75178e-05 0.888827 0)
(-0.00217027 0.874586 0)
(-0.00177235 0.868212 0)
(-0.000573017 0.869238 0)
(-0.000453548 0.876734 0)
(-0.00340396 0.893189 0)
(-0.011491 0.920548 0)
(-0.0293174 0.960334 0)
(-0.0581111 0.990433 0)
(-0.0942272 1.01513 0)
(-0.119916 1.04068 0)
(-0.134437 1.04669 0)
(-0.140188 0.965363 0)
(-0.154265 0.82765 0)
(-0.171151 0.652709 0)
(-0.150151 0.406193 0)
(-0.0969922 0.284199 0)
(-0.0311482 0.267378 0)
(0.0239689 0.222878 0)
(0.0716312 0.243356 0)
(0.107565 0.402516 0)
(0.121572 0.664541 0)
(0.115609 0.82668 0)
(0.122675 0.96355 0)
(0.132572 1.06163 0)
(0.116435 1.0636 0)
(0.0851814 1.04289 0)
(0.0511146 1.01548 0)
(0.0299717 0.969976 0)
(0.0145703 0.921444 0)
(0.00607845 0.891118 0)
(0.00154218 0.873484 0)
(-0.000737912 0.86652 0)
(-0.00245593 0.867129 0)
(-0.00527877 0.876666 0)
(-0.0104768 0.895486 0)
(-0.0208819 0.928793 0)
(-0.0370048 0.974406 0)
(-0.0613943 1.0131 0)
(-0.0933973 1.03952 0)
(-0.121396 1.06566 0)
(-0.13066 1.04777 0)
(-0.121229 0.96855 0)
(-0.115545 0.829038 0)
(-0.122693 0.643467 0)
(-0.108093 0.370722 0)
(-0.0722361 0.230634 0)
(-0.0229648 0.220772 0)
(0.0155908 0.190455 0)
(0.0456234 0.2093 0)
(0.0711612 0.376346 0)
(0.0944491 0.654484 0)
(0.0953209 0.816923 0)
(0.108818 0.955558 0)
(0.117819 1.06024 0)
(0.104544 1.09566 0)
(0.0750985 1.06932 0)
(0.0478828 1.03887 0)
(0.0304839 0.984269 0)
(0.0182082 0.93166 0)
(0.00973403 0.895613 0)
(0.00440181 0.876598 0)
(0.000314855 0.867794 0)
(-0.00340861 0.869331 0)
(-0.00768421 0.879354 0)
(-0.0138361 0.902062 0)
(-0.0232173 0.938978 0)
(-0.0366376 0.993649 0)
(-0.0568637 1.03438 0)
(-0.085264 1.07117 0)
(-0.111598 1.08515 0)
(-0.124147 1.05341 0)
(-0.109056 0.95024 0)
(-0.0928878 0.825597 0)
(-0.0884725 0.632117 0)
(-0.0720133 0.347442 0)
(-0.0475974 0.191589 0)
(-0.0153269 0.187722 0)
(0.00823981 0.171244 0)
(0.024545 0.193282 0)
(0.0411867 0.345326 0)
(0.0765972 0.636469 0)
(0.0829089 0.811662 0)
(0.0933103 0.938975 0)
(0.0999044 1.06767 0)
(0.0851494 1.11514 0)
(0.0618228 1.09925 0)
(0.0398881 1.05505 0)
(0.0292512 0.999487 0)
(0.0211014 0.940357 0)
(0.0143177 0.904535 0)
(0.00793358 0.883146 0)
(0.00173755 0.875291 0)
(-0.004519 0.875781 0)
(-0.0106641 0.887346 0)
(-0.0166077 0.909528 0)
(-0.0238326 0.951163 0)
(-0.0311868 1.00734 0)
(-0.0458529 1.05853 0)
(-0.068252 1.0945 0)
(-0.0942106 1.11417 0)
(-0.108344 1.04976 0)
(-0.100048 0.94104 0)
(-0.0820036 0.807788 0)
(-0.0721595 0.615376 0)
(-0.0449079 0.32459 0)
(-0.0285702 0.167598 0)
(-0.00960848 0.168225 0)
(0.00225566 0.164136 0)
(0.0108725 0.193607 0)
(0.0194322 0.313692 0)
(0.0618283 0.613372 0)
(0.0752253 0.795682 0)
(0.0809751 0.935706 0)
(0.0803574 1.06349 0)
(0.0680798 1.13758 0)
(0.0488046 1.11571 0)
(0.0337831 1.07028 0)
(0.0302653 1.00485 0)
(0.027409 0.950233 0)
(0.0214467 0.912472 0)
(0.0133615 0.894462 0)
(0.00338522 0.885686 0)
(-0.00687013 0.887397 0)
(-0.0160202 0.896149 0)
(-0.0230753 0.919285 0)
(-0.0272893 0.957236 0)
(-0.029125 1.01795 0)
(-0.0333789 1.07133 0)
(-0.0523379 1.12063 0)
(-0.0741545 1.12914 0)
(-0.0910861 1.0583 0)
(-0.0874495 0.923975 0)
(-0.0769724 0.795157 0)
(-0.0642714 0.592771 0)
(-0.028402 0.299171 0)
(-0.0149522 0.159276 0)
(-0.00536352 0.158595 0)
(0.00150614 0.16375 0)
(0.00207116 0.201466 0)
(0.00277506 0.287554 0)
(0.050249 0.577999 0)
(0.0771484 0.786504 0)
(0.0682973 0.927229 0)
(0.0643892 1.06825 0)
(0.0566601 1.1414 0)
(0.0454083 1.13447 0)
(0.0378836 1.07179 0)
(0.0397619 1.0094 0)
(0.0382154 0.954727 0)
(0.0311042 0.924868 0)
(0.0190821 0.907477 0)
(0.00502691 0.901944 0)
(-0.00942758 0.901432 0)
(-0.022798 0.910213 0)
(-0.0329368 0.926927 0)
(-0.0381306 0.963829 0)
(-0.036441 1.01573 0)
(-0.0347031 1.0822 0)
(-0.0436573 1.13287 0)
(-0.0602405 1.14661 0)
(-0.0708705 1.05238 0)
(-0.0747744 0.922134 0)
(-0.0719291 0.775149 0)
(-0.0588041 0.56958 0)
(-0.0179005 0.27185 0)
(-0.00694608 0.158155 0)
(-0.00273885 0.157306 0)
(0.00159968 0.168453 0)
(-0.00625883 0.217552 0)
(-0.0136458 0.270073 0)
(0.0350806 0.521726 0)
(0.0776743 0.779185 0)
(0.0589487 0.940437 0)
(0.0501047 1.05646 0)
(0.0531693 1.14551 0)
(0.0537034 1.13366 0)
(0.0551171 1.07484 0)
(0.055464 1.0077 0)
(0.0505845 0.965725 0)
(0.0384105 0.937705 0)
(0.0229812 0.925848 0)
(0.00607948 0.91856 0)
(-0.0108813 0.919968 0)
(-0.0271213 0.925087 0)
(-0.0416924 0.941378 0)
(-0.0511866 0.967556 0)
(-0.0541726 1.01709 0)
(-0.0515122 1.07749 0)
(-0.0515639 1.14264 0)
(-0.0496596 1.14067 0)
(-0.0523193 1.05528 0)
(-0.0589854 0.917842 0)
(-0.0714585 0.765689 0)
(-0.0534873 0.541818 0)
(-0.00941315 0.248349 0)
(-0.00527495 0.16383 0)
(-0.0016877 0.160134 0)
(-0.00706761 0.173585 0)
(-0.0154961 0.236031 0)
(-0.0265703 0.262347 0)
(0.0152624 0.447338 0)
(0.0686457 0.777815 0)
(0.0474308 0.94365 0)
(0.0424511 1.05396 0)
(0.0545383 1.12473 0)
(0.071821 1.13132 0)
(0.0746529 1.06814 0)
(0.0702775 1.01653 0)
(0.0574349 0.976324 0)
(0.0417328 0.956409 0)
(0.0242261 0.942036 0)
(0.00657842 0.937844 0)
(-0.0111754 0.936342 0)
(-0.0287305 0.943753 0)
(-0.0453859 0.95494 0)
(-0.0604861 0.981088 0)
(-0.070716 1.01676 0)
(-0.0743087 1.07821 0)
(-0.0677041 1.12744 0)
(-0.0500937 1.13027 0)
(-0.0371276 1.04084 0)
(-0.0462197 0.934303 0)
(-0.0697413 0.759599 0)
(-0.0420859 0.499266 0)
(0.000724279 0.231336 0)
(-0.00367871 0.176292 0)
(-0.00664942 0.161111 0)
(-0.0198282 0.192759 0)
(-0.0220586 0.252549 0)
(-0.0306203 0.260127 0)
(0.00204664 0.379974 0)
(0.0511478 0.768182 0)
(0.0395759 0.955411 0)
(0.0366897 1.03283 0)
(0.0617111 1.1048 0)
(0.0846678 1.11009 0)
(0.0893178 1.07281 0)
(0.0773171 1.02373 0)
(0.0603679 0.994637 0)
(0.042278 0.970816 0)
(0.0245926 0.96061 0)
(0.00664946 0.95311 0)
(-0.0112209 0.954594 0)
(-0.0289402 0.95849 0)
(-0.046846 0.973349 0)
(-0.0640415 0.992328 0)
(-0.0807923 1.02932 0)
(-0.0893372 1.06977 0)
(-0.0822028 1.11464 0)
(-0.0541086 1.09515 0)
(-0.0308649 1.03459 0)
(-0.0331669 0.937079 0)
(-0.0619406 0.765291 0)
(-0.0226516 0.440834 0)
(0.0114886 0.225931 0)
(0.000732635 0.197446 0)
(-0.00435033 0.158003 0)
(-0.0226119 0.213933 0)
(-0.0233379 0.261801 0)
(-0.0300461 0.25644 0)
(-0.00302198 0.328812 0)
(0.0357878 0.754436 0)
(0.0351713 0.950958 0)
(0.0382438 1.02033 0)
(0.0620388 1.06987 0)
(0.0859549 1.09635 0)
(0.0906087 1.06698 0)
(0.0800753 1.03866 0)
(0.0618522 1.00483 0)
(0.0434614 0.987747 0)
(0.0247062 0.972906 0)
(0.00667081 0.969001 0)
(-0.0113419 0.96697 0)
(-0.0296699 0.974711 0)
(-0.0480012 0.984648 0)
(-0.0670224 1.0083 0)
(-0.0831378 1.03381 0)
(-0.0928592 1.07126 0)
(-0.0823605 1.08469 0)
(-0.0567234 1.07081 0)
(-0.0307013 1.00792 0)
(-0.0284398 0.947669 0)
(-0.0462108 0.76392 0)
(-0.00436175 0.382573 0)
(0.0185406 0.226309 0)
(0.00900301 0.213332 0)
(0.00935647 0.163188 0)
(-0.0192723 0.236336 0)
(-0.0239533 0.274875 0)
(-0.027297 0.2494 0)
(-0.00522595 0.293815 0)
(0.026303 0.73601 0)
(0.0421825 0.953235 0)
(0.0417554 0.997644 0)
(0.0554933 1.05303 0)
(0.0704712 1.07151 0)
(0.0790538 1.07018 0)
(0.0743519 1.0437 0)
(0.0612781 1.02184 0)
(0.0432339 0.998855 0)
(0.0249267 0.989064 0)
(0.00651088 0.979994 0)
(-0.0116641 0.982384 0)
(-0.0299998 0.985894 0)
(-0.0488441 1.00175 0)
(-0.0659539 1.01802 0)
(-0.0786123 1.04599 0)
(-0.0804875 1.06187 0)
(-0.0706417 1.06872 0)
(-0.0522597 1.03941 0)
(-0.0369356 0.997241 0)
(-0.0290587 0.939254 0)
(-0.0279461 0.756065 0)
(0.00843119 0.335196 0)
(0.0253019 0.228415 0)
(0.0161412 0.223563 0)
(0.0195723 0.17854 0)
(-0.0179502 0.251933 0)
(-0.0157355 0.281837 0)
(-0.0163596 0.243101 0)
(-0.00620646 0.278456 0)
(0.0192557 0.704612 0)
(0.0499889 0.941158 0)
(0.043502 1.00089 0)
(0.044186 1.03692 0)
(0.0523012 1.06296 0)
(0.05837 1.05728 0)
(0.0588168 1.04862 0)
(0.0511866 1.02907 0)
(0.0379741 1.01538 0)
(0.0221516 1.00148 0)
(0.00568611 0.996795 0)
(-0.010939 0.995303 0)
(-0.0275482 1.00306 0)
(-0.0433163 1.01272 0)
(-0.0562123 1.02994 0)
(-0.0628547 1.04232 0)
(-0.0622425 1.05612 0)
(-0.0546731 1.04988 0)
(-0.0470067 1.03169 0)
(-0.0391335 0.984641 0)
(-0.0349138 0.927302 0)
(-0.014841 0.737625 0)
(0.0179152 0.30235 0)
(0.03217 0.227267 0)
(0.024927 0.231033 0)
(0.0247943 0.200285 0)
(-0.0121306 0.265645 0)
(-0.00145723 0.276619 0)
(-0.00500421 0.247829 0)
(-0.00932017 0.276092 0)
(0.00781987 0.660288 0)
(0.0445358 0.941764 0)
(0.0338935 0.995208 0)
(0.0334679 1.0355 0)
(0.0364362 1.0495 0)
(0.0403193 1.05691 0)
(0.0399418 1.04633 0)
(0.0354078 1.03674 0)
(0.0268244 1.02131 0)
(0.0158624 1.01251 0)
(0.00379662 1.00499 0)
(-0.00857716 1.00639 0)
(-0.0207919 1.01086 0)
(-0.0319545 1.02311 0)
(-0.0405837 1.03298 0)
(-0.045679 1.0465 0)
(-0.0459089 1.04803 0)
(-0.0432109 1.04558 0)
(-0.0399405 1.01914 0)
(-0.0378754 0.983487 0)
(-0.0436494 0.914998 0)
(-0.00842362 0.702396 0)
(0.0234603 0.28744 0)
(0.0299033 0.223083 0)
(0.0274375 0.241113 0)
(0.0215295 0.225433 0)
(-0.00207566 0.26535 0)
(0.0055431 0.2711 0)
(-0.00413351 0.263066 0)
(-0.01954 0.292321 0)
(-0.0125771 0.62098 0)
(0.0224118 0.938771 0)
(0.0191717 0.999392 0)
(0.0196348 1.02795 0)
(0.0227806 1.05049 0)
(0.0250728 1.05246 0)
(0.0254766 1.05216 0)
(0.022733 1.0405 0)
(0.0175667 1.03199 0)
(0.0103824 1.0211 0)
(0.00223233 1.01689 0)
(-0.00628174 1.01595 0)
(-0.0147091 1.02277 0)
(-0.0223034 1.03025 0)
(-0.0282914 1.04211 0)
(-0.0317902 1.04696 0)
(-0.0332216 1.05152 0)
(-0.032064 1.03948 0)
(-0.0323707 1.02155 0)
(-0.0321072 0.97911 0)
(-0.0449962 0.918573 0)
(-0.000147965 0.648346 0)
(0.0216974 0.290937 0)
(0.0153745 0.222837 0)
(0.0163553 0.240797 0)
(0.0189281 0.244961 0)
(-0.000223184 0.260939 0)
(0.00421081 0.274626 0)
(-0.01511 0.280408 0)
(-0.0294871 0.310809 0)
(-0.0324339 0.588671 0)
(-0.00161289 0.935603 0)
(0.00265362 0.991833 0)
(0.00577265 1.02914 0)
(0.0093986 1.04408 0)
(0.0131177 1.05482 0)
(0.0143705 1.05077 0)
(0.0137419 1.04678 0)
(0.0108841 1.0363 0)
(0.00653892 1.02959 0)
(0.00125773 1.02381 0)
(-0.0043784 1.02512 0)
(-0.0099912 1.02923 0)
(-0.015045 1.03861 0)
(-0.0188216 1.04482 0)
(-0.0212553 1.0526 0)
(-0.0217915 1.04922 0)
(-0.0215658 1.04303 0)
(-0.0214586 1.01687 0)
(-0.0224109 0.984738 0)
(-0.0286648 0.917753 0)
(0.0156785 0.596581 0)
(0.0263518 0.312198 0)
(0.0091009 0.234831 0)
(0.00596427 0.237533 0)
(0.0109843 0.2602 0)
(-0.00081809 0.256331 0)
(0.00341881 0.286022 0)
(-0.0217129 0.297912 0)
(-0.0391477 0.329988 0)
(-0.0493453 0.566064 0)
(-0.0211511 0.924262 0)
(-0.0112779 0.988758 0)
(-0.00703126 1.01979 0)
(-0.00134559 1.04348 0)
(0.0035117 1.0498 0)
(0.00649061 1.05287 0)
(0.0073437 1.04677 0)
(0.00643552 1.04162 0)
(0.00405757 1.0334 0)
(0.000854416 1.03012 0)
(-0.00274422 1.02983 0)
(-0.00634021 1.03592 0)
(-0.00938534 1.04159 0)
(-0.0115979 1.0502 0)
(-0.0124162 1.05178 0)
(-0.0122393 1.05235 0)
(-0.0104632 1.03855 0)
(-0.00926683 1.01931 0)
(-0.00814675 0.979853 0)
(-0.00276498 0.910958 0)
(0.0330299 0.55655 0)
(0.0340698 0.336796 0)
(0.01576 0.252009 0)
(0.00382885 0.233812 0)
(0.005977 0.266066 0)
(-0.0029183 0.247557 0)
(0.008594 0.295679 0)
(-0.0252743 0.319348 0)
(-0.0485855 0.352412 0)
(-0.0607056 0.549714 0)
(-0.0362091 0.911845 0)
(-0.0226689 0.976454 0)
(-0.0162827 1.01561 0)
(-0.00941099 1.03554 0)
(-0.00298321 1.04812 0)
(0.00114354 1.04944 0)
(0.00333137 1.04889 0)
(0.00365885 1.04228 0)
(0.00272599 1.03781 0)
(0.00092243 1.03301 0)
(-0.00124885 1.03484 0)
(-0.00337785 1.03838 0)
(-0.00503222 1.04616 0)
(-0.00580048 1.05024 0)
(-0.00554338 1.05476 0)
(-0.0038637 1.04923 0)
(-0.000848275 1.03935 0)
(0.00280329 1.0126 0)
(0.00511825 0.97844 0)
(0.0200481 0.895172 0)
(0.0474651 0.531798 0)
(0.0438929 0.357352 0)
(0.0295145 0.271252 0)
(0.00615287 0.24492 0)
(0.00480687 0.272753 0)
(-0.00663328 0.24071 0)
(0.00725693 0.302333 0)
(-0.0245602 0.346795 0)
(-0.0556738 0.375063 0)
(-0.0688132 0.539332 0)
(-0.0473528 0.895553 0)
(-0.0298344 0.968382 0)
(-0.0221264 1.004 0)
(-0.0137283 1.03093 0)
(-0.00662932 1.04175 0)
(-0.00158855 1.04858 0)
(0.001183 1.04677 0)
(0.00239695 1.04442 0)
(0.00230233 1.03874 0)
(0.00142666 1.03667 0)
(0.00015499 1.03669 0)
(-0.000987993 1.0417 0)
(-0.00163984 1.0466 0)
(-0.00148976 1.05248 0)
(-0.000173966 1.05224 0)
(0.00227864 1.04957 0)
(0.00673027 1.03359 0)
(0.0112504 1.00994 0)
(0.0151292 0.969156 0)
(0.0368425 0.874609 0)
(0.0590241 0.517056 0)
(0.0539639 0.373237 0)
(0.0363505 0.290442 0)
(0.00741798 0.260268 0)
(0.00545901 0.275115 0)
(-0.0101804 0.238977 0)
(0.0035244 0.305628 0)
(-0.0268947 0.380044 0)
(-0.0578327 0.402851 0)
(-0.0738025 0.532123 0)
(-0.053549 0.878646 0)
(-0.0330374 0.953722 0)
(-0.0233995 0.995812 0)
(-0.0146431 1.02173 0)
(-0.00728296 1.0381 0)
(-0.00215738 1.04415 0)
(0.000853161 1.04696 0)
(0.00231647 1.04368 0)
(0.00267292 1.04083 0)
(0.00222748 1.0378 0)
(0.00150346 1.03916 0)
(0.000953014 1.04264 0)
(0.000903045 1.04849 0)
(0.00167018 1.05117 0)
(0.00337602 1.05258 0)
(0.00649173 1.04481 0)
(0.0109532 1.03151 0)
(0.0158218 1.00123 0)
(0.0189321 0.962767 0)
(0.0481022 0.848727 0)
(0.0707366 0.508266 0)
(0.0646274 0.39095 0)
(0.0418194 0.311022 0)
(0.00583973 0.278119 0)
(0.00787759 0.275376 0)
(-0.00611361 0.241178 0)
(-0.00224067 0.310577 0)
(-0.03 0.403482 0)
(-0.0561528 0.432966 0)
(-0.0752483 0.527302 0)
(-0.054617 0.857589 0)
(-0.0307786 0.940646 0)
(-0.0205601 0.98374 0)
(-0.0119298 1.01602 0)
(-0.00553585 1.03138 0)
(-0.00067807 1.04234 0)
(0.00190803 1.04483 0)
(0.00326601 1.0446 0)
(0.00357053 1.0413 0)
(0.00327814 1.03968 0)
(0.00278421 1.04033 0)
(0.00250654 1.04467 0)
(0.00276006 1.0483 0)
(0.00374588 1.05219 0)
(0.00563069 1.04981 0)
(0.00867294 1.04357 0)
(0.0128019 1.02579 0)
(0.0161555 0.997693 0)
(0.0177424 0.953731 0)
(0.0545862 0.814287 0)
(0.0789829 0.503309 0)
(0.0719919 0.409732 0)
(0.0461332 0.337721 0)
(0.00767865 0.293859 0)
(0.0108679 0.277275 0)
(-0.00518031 0.242795 0)
(-0.00753836 0.326177 0)
(-0.0369193 0.425733 0)
(-0.0557288 0.463221 0)
(-0.0750684 0.525692 0)
(-0.0522367 0.832471 0)
(-0.0227134 0.925502 0)
(-0.0133198 0.975562 0)
(-0.00651695 1.00792 0)
(-0.00151292 1.02835 0)
(0.00220297 1.03891 0)
(0.00404098 1.04468 0)
(0.00481883 1.04453 0)
(0.00484227 1.04262 0)
(0.00442356 1.04084 0)
(0.00393214 1.04245 0)
(0.00372351 1.04505 0)
(0.00405722 1.04955 0)
(0.00512525 1.05076 0)
(0.00688381 1.04946 0)
(0.00991322 1.03961 0)
(0.0130891 1.02411 0)
(0.0155684 0.990969 0)
(0.0156067 0.947993 0)
(0.0568158 0.772067 0)
(0.0810358 0.502279 0)
(0.0725275 0.430632 0)
(0.048355 0.364258 0)
(0.0105207 0.31189 0)
(0.0107941 0.282237 0)
(-0.010755 0.249074 0)
(-0.0147067 0.346868 0)
(-0.0422337 0.442632 0)
(-0.0566609 0.489819 0)
(-0.0743376 0.528124 0)
(-0.0479042 0.796652 0)
(-0.00901043 0.914618 0)
(-0.00325924 0.966768 0)
(0.00124651 1.00444 0)
(0.00385356 1.02474 0)
(0.00594463 1.03862 0)
(0.00667168 1.04417 0)
(0.00663264 1.04558 0)
(0.00616981 1.04391 0)
(0.00549306 1.04281 0)
(0.00485352 1.04346 0)
(0.00462847 1.04642 0)
(0.00498058 1.04923 0)
(0.00602334 1.051 0)
(0.00777749 1.04718 0)
(0.0105725 1.03858 0)
(0.0135782 1.01989 0)
(0.015447 0.989519 0)
(0.0168882 0.941149 0)
(0.0576726 0.727649 0)
(0.076474 0.506656 0)
(0.065882 0.45062 0)
(0.0442427 0.386271 0)
(0.0122502 0.330743 0)
(0.008372 0.286885 0)
(-0.0141841 0.264248 0)
(-0.0225771 0.365364 0)
(-0.0449958 0.453398 0)
(-0.0554157 0.511424 0)
(-0.0710072 0.534395 0)
(-0.0446095 0.747247 0)
(0.00440397 0.903961 0)
(0.00726767 0.963506 0)
(0.00937044 1.00153 0)
(0.00975116 1.02553 0)
(0.00974175 1.03834 0)
(0.00916184 1.04592 0)
(0.00823384 1.04698 0)
(0.0072497 1.04614 0)
(0.00626128 1.04455 0)
(0.00550106 1.04509 0)
(0.00523664 1.04726 0)
(0.0055981 1.05004 0)
(0.00669192 1.05011 0)
(0.00842897 1.04686 0)
(0.0113142 1.03571 0)
(0.0142655 1.01807 0)
(0.0173451 0.984409 0)
(0.0220741 0.934447 0)
(0.0583084 0.690904 0)
(0.0690536 0.517444 0)
(0.0583342 0.471606 0)
(0.0385064 0.407608 0)
(0.011251 0.350596 0)
(0.00840066 0.292145 0)
(-0.0148329 0.286334 0)
(-0.0334987 0.383131 0)
(-0.0498964 0.460787 0)
(-0.0530214 0.525042 0)
(-0.0648132 0.543688 0)
(-0.0434472 0.69231 0)
(0.0113309 0.892919 0)
(0.0171262 0.960179 0)
(0.0172865 1.00314 0)
(0.0148707 1.02711 0)
(0.0127099 1.04149 0)
(0.0108027 1.04787 0)
(0.00915295 1.04992 0)
(0.00772933 1.04828 0)
(0.00658106 1.04694 0)
(0.00577006 1.04687 0)
(0.00553585 1.04869 0)
(0.00598377 1.0503 0)
(0.00714888 1.05031 0)
(0.00904096 1.04513 0)
(0.0119669 1.03457 0)
(0.0152593 1.01422 0)
(0.0193208 0.980463 0)
(0.0282425 0.924648 0)
(0.0576655 0.666073 0)
(0.060897 0.531872 0)
(0.0503927 0.490322 0)
(0.0322768 0.425588 0)
(0.0093889 0.366515 0)
(0.00872478 0.297412 0)
(-0.0167724 0.318044 0)
(-0.0400043 0.400697 0)
(-0.0531812 0.463362 0)
(-0.0536574 0.531924 0)
(-0.0536131 0.555438 0)
(-0.0441279 0.648015 0)
(0.0121729 0.871399 0)
(0.0273063 0.961208 0)
(0.023598 1.00642 0)
(0.0181387 1.03237 0)
(0.0139095 1.04525 0)
(0.0109913 1.05184 0)
(0.00886014 1.0525 0)
(0.00737528 1.05119 0)
(0.00625066 1.04917 0)
(0.00558362 1.04896 0)
(0.0055164 1.04978 0)
(0.00617238 1.05095 0)
(0.00754346 1.04972 0)
(0.00960751 1.04445 0)
(0.0127027 1.03206 0)
(0.0161611 1.01102 0)
(0.0208859 0.974995 0)
(0.0333387 0.912811 0)
(0.0551875 0.651662 0)
(0.0524604 0.548455 0)
(0.0414497 0.506583 0)
(0.0266299 0.439606 0)
(0.00824841 0.379332 0)
(0.00891704 0.303251 0)
(-0.0164352 0.356248 0)
(-0.0437184 0.420703 0)
(-0.0570432 0.474337 0)
(-0.0513879 0.527231 0)
(-0.0402452 0.564315 0)
(-0.0334167 0.620463 0)
(0.00551242 0.834644 0)
(0.0343284 0.964109 0)
(0.0260771 1.01448 0)
(0.0177688 1.03889 0)
(0.0123958 1.05091 0)
(0.00909896 1.05536 0)
(0.00715364 1.05601 0)
(0.00592144 1.05353 0)
(0.00521142 1.0516 0)
(0.00491517 1.05049 0)
(0.0052149 1.05087 0)
(0.00623611 1.05116 0)
(0.00789057 1.04948 0)
(0.0102906 1.04297 0)
(0.0134296 1.03055 0)
(0.0173911 1.0068 0)
(0.0216622 0.970498 0)
(0.0370143 0.900053 0)
(0.0510279 0.647357 0)
(0.0434847 0.56649 0)
(0.0316239 0.520692 0)
(0.0204841 0.44826 0)
(0.00805227 0.389601 0)
(0.00863357 0.309902 0)
(-0.0152269 0.39211 0)
(-0.0455087 0.445586 0)
(-0.0568398 0.481527 0)
(-0.041564 0.516798 0)
(-0.0231926 0.566314 0)
(-0.0182801 0.614122 0)
(0.00114115 0.798106 0)
(0.0249603 0.966356 0)
(0.0202658 1.0235 0)
(0.0120668 1.04645 0)
(0.00723361 1.05578 0)
(0.00494475 1.05939 0)
(0.00379675 1.0584 0)
(0.00343616 1.05586 0)
(0.00346195 1.0532 0)
(0.00381699 1.05168 0)
(0.00469754 1.05153 0)
(0.00621889 1.05117 0)
(0.00829743 1.04877 0)
(0.0111321 1.04176 0)
(0.0144547 1.02819 0)
(0.0188688 1.00376 0)
(0.0225601 0.96642 0)
(0.0396459 0.887027 0)
(0.0460615 0.652001 0)
(0.033928 0.585939 0)
(0.0216834 0.533 0)
(0.0144014 0.453621 0)
(0.00716006 0.397083 0)
(0.00719702 0.318586 0)
(-0.0145145 0.419799 0)
(-0.0395485 0.467772 0)
(-0.0360921 0.472442 0)
(-0.0197714 0.510361 0)
(-0.00730929 0.565225 0)
(-0.00576314 0.620189 0)
(-0.00648405 0.786678 0)
(0.0030561 0.965291 0)
(0.00542078 1.03071 0)
(0.00086747 1.05211 0)
(-0.0012279 1.0598 0)
(-0.00134201 1.06163 0)
(-0.000820787 1.06021 0)
(7.56118e-05 1.05703 0)
(0.00115349 1.05401 0)
(0.00241815 1.05244 0)
(0.00402749 1.05171 0)
(0.00620078 1.0508 0)
(0.0088391 1.0479 0)
(0.0123117 1.04011 0)
(0.0158091 1.02612 0)
(0.0210839 1 0)
(0.0240941 0.96252 0)
(0.0416699 0.875802 0)
(0.0414091 0.664272 0)
(0.024944 0.607753 0)
(0.0124582 0.542639 0)
(0.0083613 0.458103 0)
(0.00597464 0.401818 0)
(0.00532357 0.327101 0)
(-0.01921 0.44184 0)
(-0.027021 0.480256 0)
(-0.0178313 0.46519 0)
(-0.00518036 0.509468 0)
(-0.0025391 0.569826 0)
(-0.00645633 0.634234 0)
(-0.0219676 0.791584 0)
(-0.0237055 0.963142 0)
(-0.0157307 1.03334 0)
(-0.0138515 1.05418 0)
(-0.011667 1.06091 0)
(-0.00885488 1.06201 0)
(-0.00619691 1.06053 0)
(-0.00374339 1.05701 0)
(-0.00142197 1.0544 0)
(0.000865925 1.05214 0)
(0.00337198 1.05137 0)
(0.00624523 1.04991 0)
(0.00962499 1.04643 0)
(0.0137647 1.03827 0)
(0.0178337 1.02335 0)
(0.0237658 0.996592 0)
(0.0268786 0.958889 0)
(0.0441316 0.866478 0)
(0.0385416 0.682422 0)
(0.0183666 0.631372 0)
(0.00463425 0.55148 0)
(0.000956602 0.461905 0)
(0.0019785 0.40368 0)
(0.004118 0.33367 0)
(-0.0231708 0.463416 0)
(-0.0219887 0.472223 0)
(-0.00575625 0.45641 0)
(-6.9012e-05 0.51333 0)
(-0.00722397 0.578813 0)
(-0.0197646 0.654138 0)
(-0.0425382 0.807713 0)
(-0.0496525 0.961172 0)
(-0.0367286 1.02977 0)
(-0.0290665 1.05146 0)
(-0.0222225 1.05872 0)
(-0.0164304 1.06042 0)
(-0.0115636 1.05901 0)
(-0.00752921 1.05624 0)
(-0.00395629 1.05312 0)
(-0.000601068 1.05155 0)
(0.00278917 1.04984 0)
(0.0064743 1.04847 0)
(0.0106384 1.04416 0)
(0.0155746 1.03576 0)
(0.020399 1.02001 0)
(0.0271797 0.99288 0)
(0.0312102 0.954522 0)
(0.0476744 0.85988 0)
(0.0387063 0.704523 0)
(0.0168701 0.656639 0)
(0.00131408 0.561723 0)
(-0.0054667 0.467392 0)
(-0.00418059 0.403239 0)
(0.00184711 0.337668 0)
(-0.0221196 0.488058 0)
(-0.0157297 0.460721 0)
(-0.00297326 0.45002 0)
(-0.00430661 0.521352 0)
(-0.0171474 0.593276 0)
(-0.039663 0.676401 0)
(-0.0629053 0.825501 0)
(-0.0687705 0.955507 0)
(-0.0532989 1.02136 0)
(-0.041298 1.0444 0)
(-0.0310814 1.05377 0)
(-0.0228577 1.05631 0)
(-0.0161718 1.05644 0)
(-0.0108066 1.05382 0)
(-0.00612081 1.05174 0)
(-0.00180763 1.04956 0)
(0.00243752 1.04855 0)
(0.00688905 1.04596 0)
(0.0118955 1.04169 0)
(0.017561 1.03225 0)
(0.0234223 1.01628 0)
(0.0308914 0.988451 0)
(0.0365141 0.949761 0)
(0.051687 0.855595 0)
(0.041602 0.728138 0)
(0.0203213 0.67999 0)
(0.00211126 0.576324 0)
(-0.00672801 0.475005 0)
(-0.00814148 0.402707 0)
(-0.00250234 0.33651 0)
(-0.013321 0.505062 0)
(-0.00309146 0.45553 0)
(-0.00648847 0.448686 0)
(-0.0123995 0.533979 0)
(-0.0327653 0.612049 0)
(-0.0595326 0.700998 0)
(-0.0784737 0.838164 0)
(-0.0780915 0.949789 0)
(-0.0630049 1.00918 0)
(-0.048917 1.03495 0)
(-0.036966 1.04629 0)
(-0.0273819 1.05117 0)
(-0.0195489 1.05199 0)
(-0.0132065 1.05115 0)
(-0.00771119 1.049 0)
(-0.00259542 1.04769 0)
(0.00238744 1.04588 0)
(0.00753798 1.04384 0)
(0.0133422 1.0381 0)
(0.0196666 1.02894 0)
(0.0266196 1.01129 0)
(0.0345217 0.984372 0)
(0.04217 0.943012 0)
(0.0547888 0.853295 0)
(0.0463193 0.750988 0)
(0.0259318 0.701967 0)
(0.00677474 0.594541 0)
(-0.00600094 0.483339 0)
(-0.0108243 0.406438 0)
(-0.00407903 0.331361 0)
(-0.00135795 0.506984 0)
(0.015175 0.459477 0)
(-0.00572488 0.457458 0)
(-0.0276547 0.550121 0)
(-0.0528938 0.637114 0)
(-0.0778372 0.721821 0)
(-0.0861922 0.84148 0)
(-0.0783259 0.941837 0)
(-0.0651001 0.997061 0)
(-0.0515322 1.02454 0)
(-0.0396762 1.03872 0)
(-0.0298244 1.04475 0)
(-0.0215624 1.04798 0)
(-0.0146965 1.04724 0)
(-0.00863324 1.0463 0)
(-0.00292 1.04458 0)
(0.00266399 1.04348 0)
(0.00844239 1.04044 0)
(0.0149249 1.03473 0)
(0.021852 1.02435 0)
(0.0297456 1.00663 0)
(0.0380343 0.978732 0)
(0.0471218 0.936927 0)
(0.0568644 0.85286 0)
(0.0501286 0.770693 0)
(0.0308046 0.723209 0)
(0.0125579 0.615101 0)
(-0.00740406 0.494344 0)
(-0.0150971 0.411816 0)
(-0.00555326 0.326028 0)
(0.00456472 0.489358 0)