/*--------------------------------*- C++ -*----------------------------------*\
| =========                 |                                                 |
| \\      /  F ield         | OpenFOAM: The Open Source CFD Toolbox           |
|  \\    /   O peration     | Version:  2.3.0                                 |
|   \\  /    A nd           | Web:      www.OpenFOAM.org                      |
|    \\/     M anipulation  |                                                 |
\*---------------------------------------------------------------------------*/
FoamFile
{
    version     2.0;
    format      ascii;
    class       surfaceScalarField;
    location    "1.11";
    object      phi.particles;
}
// * * * * * * * * * * * * * * * * * * * * * * * * * * * * * * * * * * * * * //

dimensions      [0 3 -1 0 0 0 0];

internalField   nonuniform List<scalar> 
11770
(
-1.43164e-06
-1.6443e-05
-1.38871e-06
-1.44242e-05
-1.15034e-06
-9.4416e-06
-4.87851e-06
-6.27974e-06
-7.26337e-06
-8.76078e-06
-5.85893e-06
-8.19497e-06
-5.64147e-06
-8.03117e-06
-6.97376e-06
-9.82887e-06
-7.28248e-06
-6.30864e-06
-4.78192e-06
-4.59957e-06
-2.44473e-06
-2.93302e-06
3.17533e-07
-3.71482e-06
-7.61487e-07
-7.12603e-06
-6.67742e-06
-7.48968e-06
-1.0046e-05
-4.91784e-06
-1.0633e-05
-2.42324e-06
-1.02768e-05
-9.5546e-07
-1.01735e-05
-2.06912e-06
-1.00281e-05
-2.37247e-06
-9.0253e-06
-2.77549e-06
-7.609e-06
-2.76369e-06
-6.0976e-06
-2.2297e-06
-4.43871e-06
-1.31139e-06
-1.02518e-06
-2.08631e-06
3.15602e-07
-3.77375e-06
-1.93388e-06
-9.59011e-06
-3.6048e-06
-1.23172e-05
-2.81253e-06
-1.16367e-05
-1.06932e-06
-1.04923e-05
-8.18934e-06
4.47286e-06
-3.65014e-06
9.16133e-06
-6.73557e-06
1.03485e-05
-1.564e-06
4.77699e-06
8.51675e-06
-4.83501e-06
1.12789e-05
-1.02166e-05
1.06261e-05
-1.0736e-05
1.01075e-05
-8.68095e-06
9.26369e-06
-6.36864e-06
8.10496e-06
-5.31228e-06
4.5386e-06
-6.37505e-06
5.4212e-06
-8.2814e-06
2.59586e-06
-9.38635e-06
7.87735e-07
-1.06724e-05
-6.66783e-07
-1.17268e-05
-1.00181e-06
-1.2094e-05
6.16294e-07
-1.18167e-05
3.09744e-06
-1.12157e-05
3.93101e-06
-1.0132e-05
3.07214e-06
-8.49403e-06
-3.07521e-08
-6.79421e-06
-1.84147e-06
-5.53609e-06
-8.58857e-07
-4.53842e-06
1.0414e-06
-3.4289e-06
1.38214e-06
-2.78645e-06
6.93109e-06
-3.27608e-06
9.10194e-06
-3.5806e-06
7.03877e-06
-3.21714e-06
6.32177e-06
-2.97131e-06
5.46837e-06
4.64212e-06
4.60848e-06
-6.4781e-06
1.13929e-05
-1.13917e-05
1.35058e-05
-9.36923e-06
7.90511e-06
3.74661e-06
-5.40183e-06
1.35929e-05
-1.25145e-05
8.40618e-06
-1.08243e-05
4.01272e-06
-6.72429e-06
3.70697e-06
-3.22097e-06
1.14629e-06
-3.67537e-06
-3.0122e-06
-6.96525e-06
-6.39951e-06
-1.08154e-05
-1.42042e-05
-1.20253e-05
-1.77054e-05
-1.17385e-05
-1.82092e-05
-1.23398e-05
-1.99318e-05
-1.32841e-05
-2.03924e-05
-1.25857e-05
-1.95907e-05
-1.00794e-05
-1.92732e-05
-6.65659e-06
-2.1199e-05
-4.45871e-06
-2.32755e-05
-3.58132e-06
-2.36466e-05
-3.39401e-06
-2.20549e-05
-4.16183e-06
-1.91217e-05
-6.94944e-06
-1.43159e-05
-8.00987e-06
-5.31687e-06
-6.04255e-06
2.86028e-06
-2.3064e-06
1.57327e-06
6.76621e-07
4.05872e-07
1.29482e-06
5.78585e-10
-6.57325e-07
5.65149e-06
-6.76232e-06
1.16049e-05
-1.33739e-05
1.27194e-05
-1.2623e-05
8.60782e-06
-2.97145e-06
-2.57319e-06
1.25011e-05
-9.6298e-06
7.03279e-06
-8.84787e-06
-1.49773e-06
-5.50885e-06
-3.24265e-06
-3.61863e-06
-4.7028e-06
-6.4523e-06
-9.82088e-06
-1.11877e-05
-1.66787e-05
-1.38948e-05
-2.75222e-05
-1.3776e-05
-3.25891e-05
-1.30808e-05
-3.40591e-05
-1.21255e-05
-3.46642e-05
-1.10439e-05
-3.41897e-05
-9.37197e-06
-3.39833e-05
-6.67829e-06
-3.3628e-05
-4.29852e-06
-3.4508e-05
-2.61752e-06
-3.50517e-05
-1.52321e-06
-3.46031e-05
-1.18404e-06
-3.26296e-05
-2.02109e-06
-2.89918e-05
-6.0544e-06
-2.24213e-05
-1.00358e-05
-1.29641e-05
-7.47654e-06
-6.14209e-06
-1.73777e-06
-6.01576e-06
2.60124e-06
-5.70027e-06
3.7238e-06
-3.33654e-06
-2.54081e-06
6.94315e-06
-1.01416e-05
1.2048e-05
-1.69932e-05
1.08874e-05
-1.72332e-05
8.18014e-06
-1.03153e-05
3.60007e-06
3.58097e-06
-1.82261e-06
-1.39109e-06
-5.25849e-06
-1.08458e-05
-6.69424e-06
-1.26296e-05
-8.99885e-06
-1.36734e-05
-1.34656e-05
-1.88446e-05
-1.54888e-05
-2.29752e-05
-1.4759e-05
-2.91591e-05
-1.34124e-05
-3.48106e-05
-1.23871e-05
-3.67973e-05
-1.09466e-05
-3.71182e-05
-8.80233e-06
-3.65546e-05
-6.78993e-06
-3.66398e-05
-5.15913e-06
-3.71874e-05
-3.91008e-06
-3.70429e-05
-2.7275e-06
-3.67474e-05
-1.53274e-06
-3.55483e-05
-1.06088e-06
-3.31987e-05
-2.19149e-06
-2.91344e-05
-3.9895e-06
-2.41074e-05
-5.55702e-06
-1.92353e-05
-4.43022e-06
-1.53231e-05
-1.44935e-06
-1.44041e-05
1.78441e-06
-1.39519e-05
3.75516e-06
-1.14694e-05
-9.44895e-06
5.72827e-06
-1.4895e-05
9.23764e-06
-2.08868e-05
5.28654e-06
-2.06877e-05
5.17389e-06
-1.55244e-05
6.78867e-06
-8.1907e-06
2.55521e-06
-1.41746e-05
-3.47998e-06
-2.09253e-05
-9.82244e-06
-2.09541e-05
-1.51145e-05
-2.11851e-05
-1.71315e-05
-2.3054e-05
-1.55944e-05
-2.342e-05
-1.30142e-05
-2.50545e-05
-1.0394e-05
-3.04082e-05
-7.93437e-06
-3.42704e-05
-5.67405e-06
-3.52512e-05
-3.43891e-06
-3.42287e-05
-2.64412e-06
-3.40174e-05
-2.90383e-06
-3.45366e-05
-2.62616e-06
-3.3889e-05
-2.25248e-06
-3.27977e-05
-2.28709e-06
-3.13e-05
-2.52657e-06
-2.87053e-05
-3.13856e-06
-2.53264e-05
-2.61095e-06
-2.264e-05
-8.73122e-07
-2.0685e-05
9.18115e-07
-1.91902e-05
1.41293e-06
-1.91688e-05
1.70882e-06
-1.92832e-05
1.84232e-06
-1.89203e-05
-1.79987e-05
3.81306e-06
-1.79088e-05
5.1225e-06
-2.27881e-05
-1.00567e-06
-2.09387e-05
-6.06095e-07
-1.83803e-05
2.82094e-06
-1.54248e-05
1.33668e-07
-2.08972e-05
-4.95733e-06
-2.417e-05
-1.20743e-05
-2.34083e-05
-1.70232e-05
-2.33252e-05
-1.7114e-05
-2.40503e-05
-1.41658e-05
-2.41715e-05
-1.06968e-05
-2.36426e-05
-7.96883e-06
-2.57745e-05
-5.35384e-06
-2.96915e-05
-2.63264e-06
-3.22582e-05
-9.08478e-07
-3.11036e-05
-6.4662e-07
-3.08266e-05
-1.19097e-06
-3.07636e-05
-1.31116e-06
-2.9457e-05
-8.31622e-07
-2.7857e-05
-8.3968e-07
-2.62422e-05
-1.86434e-06
-2.43378e-05
-1.79979e-06
-2.24071e-05
-1.61654e-07
-2.02329e-05
2.13659e-06
-1.85899e-05
3.95519e-06
-1.81359e-05
3.65673e-06
-1.94192e-05
1.08508e-06
-2.06802e-05
-7.15707e-07
-2.13433e-05
-2.14114e-05
2.16848e-06
-1.88944e-05
1.17471e-06
-2.23302e-05
-5.59478e-06
-1.86729e-05
-5.30809e-06
-1.87423e-05
-2.4711e-06
-1.82765e-05
-4.0278e-06
-2.0893e-05
-8.54579e-06
-2.16861e-05
-1.42098e-05
-2.09072e-05
-1.70898e-05
-2.2177e-05
-1.56365e-05
-2.44826e-05
-1.17816e-05
-2.57726e-05
-8.74768e-06
-2.48237e-05
-6.67205e-06
-2.41334e-05
-3.46984e-06
-2.53403e-05
-8.61199e-07
-2.82333e-05
-4.63345e-07
-2.7335e-05
-1.43917e-06
-2.7275e-05
-1.75614e-06
-2.71062e-05
-7.37144e-07
-2.57978e-05
2.39893e-07
-2.41751e-05
8.75883e-07
-2.22156e-05
1.14456e-06
-2.03284e-05
1.13404e-06
-1.83742e-05
1.66833e-06
-1.60804e-05
3.30723e-06
-1.44713e-05
4.47962e-06
-1.43291e-05
3.55704e-06
-1.61902e-05
-4.54893e-07
-1.88419e-05
-1.67809e-06
-1.87331e-05
-2.08557e-05
1.05795e-06
-1.87247e-05
-1.99725e-06
-2.0273e-05
-9.08373e-06
-1.5547e-05
-8.26899e-06
-1.71362e-05
-6.02418e-06
-1.73996e-05
-7.39158e-06
-1.74387e-05
-1.1721e-05
-1.69591e-05
-1.61575e-05
-1.70751e-05
-1.7173e-05
-1.96317e-05
-1.46878e-05
-2.39589e-05
-1.05009e-05
-2.62818e-05
-7.07295e-06
-2.60185e-05
-5.06601e-06
-2.44838e-05
-1.9544e-06
-2.38768e-05
1.01138e-06
-2.45736e-05
1.05294e-06
-2.34852e-05
-1.56803e-08
-2.36944e-05
-1.12138e-06
-2.30501e-05
-8.50313e-07
-2.13205e-05
6.19882e-07
-1.93168e-05
1.90852e-06
-1.71758e-05
2.52513e-06
-1.48546e-05
2.78178e-06
-1.25395e-05
3.17956e-06
-1.03314e-05
3.64128e-06
-8.74603e-06
3.07834e-06
-8.54769e-06
7.54157e-07
-1.07258e-05
-1.99351e-06
-1.44482e-05
-1.381e-06
-1.40828e-05
-1.75478e-05
2.28016e-07
-1.71004e-05
-4.37512e-06
-1.73169e-05
-1.2229e-05
-1.25477e-05
-1.13027e-05
-1.42332e-05
-9.69464e-06
-1.40428e-05
-1.20687e-05
-1.24347e-05
-1.5417e-05
-1.19364e-05
-1.68233e-05
-1.33074e-05
-1.51056e-05
-1.73735e-05
-1.2039e-05
-2.18625e-05
-9.64913e-06
-2.39354e-05
-6.81993e-06
-2.47333e-05
-3.93929e-06
-2.41698e-05
-2.08654e-07
-2.32487e-05
2.85904e-06
-2.15412e-05
3.19471e-06
-2.03564e-05
2.53881e-06
-2.02435e-05
2.03718e-06
-1.87141e-05
2.31735e-06
-1.60561e-05
3.20184e-06
-1.33104e-05
4.42408e-06
-1.09208e-05
5.38981e-06
-8.744e-06
5.72331e-06
-6.53332e-06
5.51472e-06
-4.21876e-06
4.55146e-06
-2.84739e-06
2.1902e-06
-2.82263e-06
-1.13853e-06
-4.46242e-06
-2.74798e-06
-8.24184e-06
-2.51008e-06
-9.10785e-06
-9.49089e-06
-2.71564e-06
-1.30491e-05
-1.12534e-05
-1.34045e-05
-1.94766e-05
-1.06581e-05
-1.7572e-05
-1.20441e-05
-1.67341e-05
-1.12656e-05
-1.75462e-05
-9.58197e-06
-1.77871e-05
-9.83088e-06
-1.63132e-05
-1.12807e-05
-1.27811e-05
-1.50969e-05
-9.61469e-06
-1.79193e-05
-7.5907e-06
-1.95108e-05
-5.37107e-06
-2.1082e-05
-3.23146e-06
-2.09781e-05
8.65194e-07
-2.00073e-05
4.25082e-06
-1.76914e-05
4.73209e-06
-1.6974e-05
4.38023e-06
-1.62778e-05
4.04903e-06
-1.40511e-05
4.40754e-06
-1.10707e-05
5.71093e-06
-7.95795e-06
7.47637e-06
-5.16239e-06
8.32295e-06
-2.50473e-06
6.93914e-06
-6.50924e-07
4.52789e-06
2.72258e-07
2.80435e-06
5.20534e-07
1.65454e-06
2.37301e-07
1.07447e-07
-7.39483e-07
-2.54866e-06
-2.50043e-06
-4.56193e-06
-4.30313e-06
-1.02873e-06
-5.00277e-06
-8.10287e-06
-1.70811e-05
-8.5427e-06
-2.50731e-05
-9.15301e-06
-2.24345e-05
-1.09862e-05
-2.09561e-05
-9.88601e-06
-1.95333e-05
-9.0426e-06
-1.75485e-05
-9.77332e-06
-1.40987e-05
-1.06168e-05
-9.78011e-06
-1.22738e-05
-7.52637e-06
-1.35298e-05
-6.30476e-06
-1.54978e-05
-4.27141e-06
-1.69501e-05
-1.50639e-06
-1.65007e-05
2.53745e-06
-1.53955e-05
5.62514e-06
-1.36658e-05
6.49702e-06
-1.30257e-05
6.89534e-06
-1.16203e-05
7.09697e-06
-9.48715e-06
7.48267e-06
-6.17262e-06
8.42416e-06
-2.41499e-06
8.11599e-06
3.52877e-07
5.89318e-06
2.08917e-06
3.58175e-06
2.86299e-06
2.31599e-06
2.93428e-06
1.72721e-06
2.61377e-06
1.36683e-06
2.03879e-06
9.96908e-07
1.188e-06
-4.74357e-08
8.70208e-08
-3.31203e-06
-9.91737e-07
-1.6243e-07
-5.11086e-06
-5.16338e-06
-1.97085e-05
-4.07017e-06
-2.69218e-05
-7.18053e-06
-2.41687e-05
-1.00487e-05
-2.17572e-05
-8.84237e-06
-1.91751e-05
-8.78962e-06
-1.58637e-05
-9.19977e-06
-1.09128e-05
-9.36462e-06
-5.83002e-06
-9.8136e-06
-3.54662e-06
-1.06352e-05
-2.64641e-06
-1.18696e-05
-1.48004e-06
-1.23866e-05
1.54581e-06
-1.17368e-05
5.53149e-06
-1.05131e-05
7.86047e-06
-8.89388e-06
8.9543e-06
-8.10474e-06
9.73355e-06
-6.66687e-06
9.95434e-06
-4.5688e-06
9.38943e-06
-1.03714e-06
7.76344e-06
2.17937e-06
5.63626e-06
3.8801e-06
4.12029e-06
4.60453e-06
3.23644e-06
4.82571e-06
2.52317e-06
4.62785e-06
1.90859e-06
4.11945e-06
1.39711e-06
3.39776e-06
1.03319e-06
2.50416e-06
8.78369e-07
1.44238e-06
-7.75242e-08
2.36217e-07
-1.46239e-06
-6.19996e-06
-3.02857e-06
-2.17297e-05
-1.40445e-07
-2.70236e-05
-4.69374e-06
-2.38783e-05
-8.56502e-06
-2.0716e-05
-6.71349e-06
-1.6538e-05
-6.91793e-06
-1.09175e-05
-6.54294e-06
-4.9963e-06
-6.90248e-06
5.65822e-07
-7.32081e-06
3.51215e-06
-7.97379e-06
4.15773e-06
-7.72963e-06
4.55811e-06
-6.13523e-06
6.43382e-06
-4.29334e-06
8.49329e-06
-3.4872e-06
9.69587e-06
-2.79421e-06
1.0771e-05
-2.4506e-06
1.13524e-05
-1.68013e-06
1.02522e-05
1.33795e-07
8.17992e-06
2.98911e-06
6.5746e-06
4.73586e-06
5.57604e-06
5.66808e-06
4.77299e-06
6.10271e-06
4.00772e-06
6.16931e-06
3.18943e-06
5.92567e-06
2.36239e-06
5.39409e-06
1.61218e-06
4.60857e-06
1.0179e-06
3.62477e-06
6.48666e-07
2.51298e-06
3.45839e-07
1.2522e-06
-9.72998e-08
-6.40172e-06
-5.86797e-07
-2.18639e-05
3.6879e-06
-2.60264e-05
-1.20328e-06
-2.17081e-05
-5.48751e-06
-1.67891e-05
-2.17386e-06
-1.02837e-05
-2.68057e-06
-2.98045e-06
-2.25122e-06
3.32722e-06
-3.37117e-06
8.68774e-06
-3.80632e-06
1.14225e-05
-3.37666e-06
1.15242e-05
-1.7569e-06
1.00066e-05
2.01427e-06
8.61833e-06
3.71679e-06
8.73724e-06
3.20723e-06
1.00715e-05
2.44617e-06
1.11792e-05
1.97472e-06
1.07623e-05
2.1881e-06
9.25492e-06
3.42098e-06
8.01764e-06
4.91114e-06
7.25451e-06
5.96219e-06
6.60861e-06
6.66867e-06
5.89509e-06
7.09633e-06
5.04096e-06
7.25276e-06
4.05744e-06
7.10617e-06
3.01474e-06
6.62035e-06
2.01598e-06
5.79845e-06
1.19891e-06
4.68971e-06
5.89566e-07
3.39912e-06
1.60868e-07
2.0578e-06
6.55246e-07
-7.46261e-06
3.8237e-06
-2.1324e-05
6.79086e-06
-2.2701e-05
1.99658e-06
-1.61456e-05
-9.57808e-07
-8.8175e-06
4.00566e-06
-1.53003e-06
3.0756e-06
5.18982e-06
2.23278e-06
1.1329e-05
9.32243e-07
1.58383e-05
1.49198e-06
1.71136e-05
3.56944e-06
1.37434e-05
7.16997e-06
9.78827e-06
9.47377e-06
8.72242e-06
8.55771e-06
9.21473e-06
6.90614e-06
1.00108e-05
5.43205e-06
1.03891e-05
4.42788e-06
1.00844e-05
4.18519e-06
9.41101e-06
4.77983e-06
8.86645e-06
5.70644e-06
8.41252e-06
6.57835e-06
7.90415e-06
7.31496e-06
7.22635e-06
7.88035e-06
6.31786e-06
8.21388e-06
5.19583e-06
8.25267e-06
3.92269e-06
7.89215e-06
2.60041e-06
7.0774e-06
1.51732e-06
5.76145e-06
7.99761e-07
4.16791e-06
2.58956e-07
2.57798e-06
9.08527e-07
-1.68264e-05
1.00459e-05
-2.17572e-05
1.19855e-05
-1.6339e-05
6.9988e-06
-8.15863e-06
6.72328e-06
-6.82738e-07
1.08692e-05
7.31364e-06
9.04186e-06
1.41448e-05
6.70004e-06
1.93087e-05
6.37879e-06
2.0654e-05
8.78902e-06
1.66183e-05
1.26165e-05
1.15144e-05
1.3881e-05
9.87724e-06
1.27482e-05
9.56527e-06
1.0885e-05
9.66149e-06
8.8698e-06
9.99114e-06
7.08023e-06
1.02834e-05
5.77186e-06
1.03085e-05
5.19109e-06
1.01242e-05
5.39343e-06
9.90346e-06
6.07358e-06
9.66106e-06
6.91187e-06
9.30425e-06
7.74694e-06
8.7365e-06
8.50447e-06
7.9086e-06
9.11411e-06
6.72718e-06
9.43468e-06
5.20166e-06
9.31703e-06
3.40456e-06
8.61558e-06
1.90088e-06
7.01294e-06
9.22931e-07
4.9154e-06
3.43969e-07
2.87457e-06
1.02452e-06
-1.59944e-05
1.80142e-05
-1.7641e-05
2.28622e-05
-9.42778e-06
1.95406e-05
1.25734e-06
2.11651e-05
9.47242e-06
1.8189e-05
1.726e-05
1.38615e-05
2.27388e-05
1.18283e-05
2.35717e-05
1.37151e-05
1.89034e-05
1.72875e-05
1.34688e-05
1.74897e-05
1.18663e-05
1.63926e-05
1.13477e-05
1.4579e-05
1.10042e-05
1.24528e-05
1.0798e-05
1.02791e-05
1.07524e-05
8.27664e-06
1.0801e-05
6.73419e-06
1.08523e-05
5.8839e-06
1.08657e-05
5.79346e-06
1.08615e-05
6.27261e-06
1.08319e-05
7.06518e-06
1.07078e-05
7.99416e-06
1.04162e-05
8.98073e-06
9.81652e-06
9.88589e-06
8.72791e-06
1.05222e-05
7.05915e-06
1.082e-05
4.84909e-06
1.05263e-05
2.81391e-06
8.67003e-06
8.15279e-07
5.75484e-06
3.52939e-07
3.28384e-06
9.59802e-07
-8.13671e-06
2.6545e-05
-8.27753e-06
3.5309e-05
-3.25412e-07
3.39756e-05
1.12375e-05
3.2957e-05
2.1051e-05
2.20119e-05
2.61556e-05
1.73285e-05
2.63163e-05
1.74828e-05
2.17363e-05
1.99412e-05
1.64025e-05
2.03291e-05
1.49294e-05
1.96776e-05
1.42061e-05
1.80166e-05
1.34945e-05
1.58772e-05
1.2781e-05
1.36039e-05
1.21422e-05
1.13137e-05
1.1669e-05
9.17098e-06
1.13916e-05
7.49048e-06
1.13053e-05
6.43925e-06
1.13685e-05
6.11791e-06
1.15242e-05
6.41307e-06
1.17326e-05
7.11277e-06
1.19407e-05
8.08319e-06
1.20436e-05
9.25935e-06
1.18716e-05
1.03989e-05
1.12424e-05
1.11313e-05
9.74999e-06
1.18493e-05
7.70376e-06
1.2414e-05
4.9826e-06
9.95071e-06
9.49359e-07
-1.85431e-06
-7.14006e-09
3.02151e-06
9.43647e-07
-1.16674e-06
3.31503e-05
1.2069e-06
4.27375e-05
8.63808e-06
4.09035e-05
2.04773e-05
3.11817e-05
2.71464e-05
2.05883e-05
2.74603e-05
1.8827e-05
2.40554e-05
1.96779e-05
1.98347e-05
2.20979e-05
1.84363e-05
2.25123e-05
1.75874e-05
2.12822e-05
1.6688e-05
1.92653e-05
1.56862e-05
1.69632e-05
1.45967e-05
1.45574e-05
1.34728e-05
1.2091e-05
1.24596e-05
9.73974e-06
1.17155e-05
7.89163e-06
1.13557e-05
6.76172e-06
1.13696e-05
6.37349e-06
1.163e-05
6.53787e-06
1.20824e-05
7.12638e-06
1.26707e-05
8.01958e-06
1.32878e-05
9.23289e-06
1.38612e-05
1.01177e-05
1.40047e-05
9.29522e-06
1.15738e-05
3.91256e-07
9.48378e-06
-2.81062e-06
4.16478e-06
-8.42491e-06
-8.69736e-07
-2.27965e-05
-9.65044e-07
-3.93763e-06
2.42058e-07
3.20924e-06
3.29147e-05
9.30844e-06
4.08162e-05
1.73569e-05
3.50833e-05
2.54168e-05
1.96939e-05
2.72465e-05
1.60435e-05
2.52844e-05
1.77266e-05
2.31085e-05
2.12352e-05
2.20158e-05
2.37109e-05
2.09987e-05
2.38615e-05
2.00359e-05
2.24464e-05
1.90614e-05
2.02448e-05
1.78471e-05
1.77603e-05
1.63267e-05
1.52769e-05
1.45736e-05
1.24739e-05
1.27845e-05
9.49543e-06
1.14855e-05
7.84123e-06
1.07548e-05
6.57324e-06
1.06089e-05
6.35672e-06
1.09357e-05
6.66636e-06
1.1544e-05
7.15965e-06
1.24691e-05
7.81277e-06
1.37098e-05
8.67076e-06
1.57791e-05
7.06842e-06
1.32055e-05
-2.67528e-06
7.06326e-06
-1.76307e-05
1.53121e-06
-2.11972e-05
-2.09289e-06
-2.43821e-05
-3.67009e-06
-3.00351e-05
-4.24567e-06
-1.7278e-05
-4.44545e-06
5.13286e-06
1.9854e-05
1.45045e-05
2.2376e-05
2.21835e-05
1.38443e-05
2.42449e-05
7.70067e-07
2.44044e-05
1.12954e-05
2.45419e-05
1.55988e-05
2.4112e-05
2.03664e-05
2.36033e-05
2.41329e-05
2.30811e-05
2.51976e-05
2.24345e-05
2.37104e-05
2.16078e-05
2.11189e-05
2.02355e-05
1.80292e-05
1.80573e-05
1.53712e-05
1.52223e-05
1.32046e-05
1.24758e-05
9.17886e-06
1.01927e-05
6.71922e-06
9.23993e-06
6.02673e-06
9.03336e-06
6.13079e-06
9.36326e-06
6.80046e-06
9.96315e-06
7.29766e-06
1.09471e-05
7.42983e-06
1.32069e-05
7.32951e-06
1.09319e-05
2.34768e-06
5.14102e-06
-9.90903e-06
3.09819e-06
-1.44006e-05
5.87779e-07
-1.6203e-05
-1.52188e-06
-1.67049e-05
3.5481e-07
-1.91418e-05
-1.81286e-06
-2.14985e-05
-1.90623e-05
5.10073e-06
-9.01748e-06
1.27807e-05
-1.20567e-05
1.83796e-05
-1.98461e-05
2.19519e-05
-2.76784e-05
2.09889e-05
-1.87846e-05
2.28943e-05
4.65134e-06
2.38283e-05
1.74181e-05
2.48476e-05
2.36817e-05
2.57161e-05
2.55025e-05
2.56916e-05
2.40242e-05
2.47474e-05
2.15762e-05
2.27702e-05
1.64372e-05
2.00987e-05
9.78154e-06
1.597e-05
3.33359e-06
9.455e-06
-4.82462e-06
7.44474e-06
7.46397e-06
6.30536e-06
4.34483e-06
6.59047e-06
5.83429e-06
7.20143e-06
7.17039e-06
7.71582e-06
7.58397e-06
8.24041e-06
7.16986e-06
9.4918e-06
5.70339e-06
3.77546e-06
1.86237e-06
2.37633e-07
-6.62657e-06
3.37574e-06
-1.26858e-06
2.66108e-06
-1.85509e-06
-1.53099e-07
-3.1116e-06
2.45406e-06
-4.89104e-06
5.19909e-06
-1.50882e-05
-2.3719e-05
4.2301e-06
-3.32703e-05
8.83429e-06
-3.67149e-05
1.31711e-05
-3.99151e-05
1.97148e-05
-4.1662e-05
2.42146e-05
-4.31706e-05
2.13935e-05
-2.65402e-05
2.43773e-05
-3.92404e-06
2.70475e-05
-8.4139e-07
2.98886e-05
-1.8981e-06
3.00102e-05
-6.32062e-06
2.70755e-05
-7.95577e-06
2.18281e-05
-1.10433e-05
1.59468e-05
-1.61514e-05
9.94209e-06
-2.03101e-05
5.88776e-06
-2.49461e-05
6.04491e-07
-4.44139e-06
2.26436e-06
2.27532e-06
3.29292e-06
5.58644e-06
4.6712e-06
7.89683e-06
5.47757e-06
7.84922e-06
5.74491e-06
6.99749e-06
5.71742e-06
5.55267e-06
2.17378e-06
2.40847e-06
-2.58723e-07
-2.65533e-06
1.97966e-06
6.73791e-06
1.95049e-06
1.25488e-05
5.39579e-07
1.17036e-05
3.55566e-06
6.48848e-06
6.26392e-06
-1.10828e-05
-1.62016e-05
4.07522e-06
-3.79789e-05
8.93458e-06
-4.04882e-05
1.38474e-05
-4.21683e-05
2.18476e-05
-4.32302e-05
3.13106e-05
-4.55527e-05
3.24668e-05
-4.51814e-05
3.14574e-05
-3.82707e-05
3.2041e-05
-3.73777e-05
2.92658e-05
-3.90797e-05
2.38633e-05
-4.09876e-05
1.69171e-05
-3.46754e-05
1.04757e-05
-3.02309e-05
6.2575e-06
-2.96686e-05
5.56768e-06
-2.99064e-05
-1.84465e-06
-3.27702e-05
-1.02716e-05
-1.42124e-05
-3.12133e-06
-8.93552e-07
-3.8579e-07
5.84635e-06
1.91139e-06
7.83606e-06
3.59969e-06
7.5826e-06
4.48943e-06
7.26911e-06
4.13041e-06
5.70825e-06
4.53816e-06
2.66676e-06
3.09945e-07
-4.08833e-06
-4.32194e-06
3.18279e-06
-3.36453e-06
1.55029e-05
-1.1289e-07
1.62181e-05
4.33674e-06
5.20424e-06
5.65434e-06
-1.15053e-05
-1.22256e-05
4.28177e-06
-3.68968e-05
9.29317e-06
-3.98315e-05
1.45047e-05
-4.18695e-05
2.27391e-05
-4.36989e-05
2.86421e-05
-4.73463e-05
2.76527e-05
-4.78471e-05
2.53253e-05
-4.73132e-05
2.40682e-05
-4.63438e-05
2.13629e-05
-4.60242e-05
1.63103e-05
-4.22906e-05
1.0603e-05
-3.17267e-05
5.45908e-06
-2.89526e-05
3.73417e-06
-3.00338e-05
7.81583e-06
-3.29575e-05
1.74003e-06
-3.8962e-05
-1.18016e-05
-3.11709e-05
-8.43564e-06
-5.67887e-06
-4.20594e-06
1.68932e-06
1.07958e-07
5.54134e-07
2.68123e-06
1.56874e-06
3.87335e-06
3.1352e-06
3.74026e-06
2.82597e-06
2.05514e-07
-1.62815e-06
-9.34231e-06
-3.01184e-05
-1.1286e-05
-2.38498e-05
-5.95987e-06
-1.16881e-05
-3.88606e-07
-9.15138e-06
3.21427e-06
-1.77e-05
2.48945e-06
-2.54836e-05
-2.03577e-05
4.30102e-06
-3.64659e-05
9.15102e-06
-3.99178e-05
1.45517e-05
-4.27498e-05
2.09085e-05
-4.62012e-05
2.2403e-05
-4.94053e-05
1.99086e-05
-4.86857e-05
1.86448e-05
-4.75228e-05
1.74413e-05
-4.60753e-05
1.50214e-05
-4.46677e-05
1.13295e-05
-3.71789e-05
6.27858e-06
-2.94023e-05
2.32849e-06
-2.92166e-05
3.61589e-06
-3.25828e-05
1.05264e-05
-3.86578e-05
1.49463e-05
-4.67534e-05
2.37018e-07
-4.92124e-05
-1.12829e-05
-3.44393e-05
-5.4188e-06
-3.02438e-05
-4.45544e-07
-3.50212e-05
9.03057e-07
-3.63934e-05
2.06574e-06
-3.58414e-05
5.61197e-06
-3.58104e-05
3.28327e-06
-3.9601e-05
-2.89327e-06
-6.07177e-05
-2.37168e-06
-5.39269e-05
1.38306e-06
-4.61372e-05
5.67596e-06
-4.37129e-05
5.56071e-06
-4.67837e-05
1.02867e-07
-4.82408e-05
-4.00095e-05
3.87268e-06
-3.743e-05
8.16888e-06
-4.17525e-05
1.33383e-05
-4.52373e-05
1.75193e-05
-4.95675e-05
1.40507e-05
-5.00241e-05
1.05457e-05
-4.72047e-05
1.22266e-05
-4.66394e-05
1.15872e-05
-4.53424e-05
1.02037e-05
-4.13144e-05
6.98353e-06
-3.24141e-05
1.92675e-06
-2.93466e-05
7.95718e-07
-3.11528e-05
5.05237e-06
-3.60592e-05
9.17355e-06
-4.43083e-05
7.27174e-06
-5.1782e-05
2.85137e-06
-5.5549e-05
9.42928e-07
-5.77629e-05
3.72543e-08
-5.9421e-05
-6.18326e-07
-6.22055e-05
-1.05016e-06
-6.39545e-05
-1.42003e-06
-6.53758e-05
-1.56239e-06
-6.6195e-05
-1.40899e-06
-6.58656e-05
4.1717e-08
-6.37605e-05
2.29988e-06
-6.03611e-05
4.30857e-06
-5.70778e-05
5.8636e-06
-5.63722e-05
5.84277e-06
-5.64338e-05
2.75586e-06
-5.71039e-05
-5.53384e-05
3.08975e-06
-3.93677e-05
6.98997e-06
-4.4147e-05
1.12597e-05
-4.75551e-05
1.32138e-05
-5.09202e-05
7.9679e-06
-4.91892e-05
4.62138e-06
-4.50501e-05
5.65907e-06
-4.49323e-05
5.61502e-06
-4.22946e-05
5.62273e-06
-3.59489e-05
2.62692e-06
-3.03947e-05
-7.90909e-07
-3.03963e-05
3.54841e-07
-3.39341e-05
4.04924e-06
-3.93085e-05
3.89685e-06
-4.7637e-05
4.09518e-08
-5.31552e-05
-2.09579e-06
-5.61496e-05
-2.51722e-06
-5.69607e-05
-2.49877e-06
-5.81982e-05
-2.6563e-06
-5.99576e-05
-2.37617e-06
-6.13158e-05
-2.67541e-06
-6.28588e-05
-3.30588e-06
-6.39617e-05
-3.47818e-06
-6.37484e-05
-2.14463e-06
-6.19911e-05
7.29731e-07
-5.8734e-05
3.14915e-06
-5.54528e-05
4.14354e-06
-5.38589e-05
3.891e-06
-5.3236e-05
2.57021e-06
-5.35064e-05
-5.29153e-05
2.43194e-06
-4.06569e-05
5.56017e-06
-4.55397e-05
8.65181e-06
-4.86374e-05
7.67718e-06
-5.03646e-05
1.79605e-06
-4.53971e-05
-6.22933e-07
-4.24266e-05
3.93827e-07
-4.21439e-05
1.40265e-06
-3.73965e-05
3.27384e-07
-3.25117e-05
-2.50932e-06
-3.0876e-05
-3.25e-06
-3.23506e-05
-1.19886e-06
-3.61887e-05
7.58835e-07
-4.14885e-05
-6.23867e-07
-4.84248e-05
-3.66232e-06
-5.25921e-05
-4.9741e-06
-5.34965e-05
-4.61637e-06
-5.44463e-05
-3.66934e-06
-5.53732e-05
-3.02978e-06
-5.64234e-05
-3.09359e-06
-5.81028e-05
-3.83681e-06
-5.97279e-05
-4.5872e-06
-6.09118e-05
-4.7586e-06
-6.09512e-05
-3.80949e-06
-5.94276e-05
-1.53838e-06
-5.57001e-05
6.84608e-07
-5.1981e-05
2.55235e-06
-4.90489e-05
3.40673e-06
-4.81915e-05
2.30618e-06
-4.80705e-05
-4.83683e-05
1.79327e-06
-4.10798e-05
4.05617e-06
-4.58201e-05
5.74213e-06
-4.82114e-05
3.68924e-07
-4.80316e-05
-6.15224e-06
-3.96838e-05
-5.72897e-06
-3.92456e-05
-4.02023e-06
-3.83692e-05
-3.75586e-06
-3.40799e-05
-5.29675e-06
-3.21793e-05
-6.58247e-06
-3.23968e-05
-5.39682e-06
-3.44476e-05
-2.81154e-06
-3.70336e-05
-1.59012e-06
-4.18659e-05
-2.90877e-06
-4.72108e-05
-5.08034e-06
-5.01138e-05
-5.77951e-06
-5.07674e-05
-5.70684e-06
-5.16892e-05
-5.28614e-06
-5.29932e-05
-4.50746e-06
-5.40452e-05
-4.29835e-06
-5.51307e-05
-5.21676e-06
-5.65676e-05
-6.44165e-06
-5.78811e-05
-7.07961e-06
-5.81051e-05
-6.43421e-06
-5.69592e-05
-4.08193e-06
-5.38116e-05
-1.2833e-06
-4.98606e-05
7.44439e-07
-4.62931e-05
1.46246e-06
-4.49026e-05
1.37922e-06
-4.42078e-05
-4.54581e-05
1.04041e-06
-4.06161e-05
2.5329e-06
-4.51506e-05
2.79861e-06
-4.6803e-05
-4.87008e-06
-4.40486e-05
-1.18905e-05
-3.5391e-05
-9.63005e-06
-3.64256e-05
-8.4759e-06
-3.55643e-05
-9.25434e-06
-3.31454e-05
-1.02496e-05
-3.28809e-05
-9.59672e-06
-3.35231e-05
-7.21335e-06
-3.53586e-05
-4.64297e-06
-3.67383e-05
-3.24675e-06
-4.0582e-05
-3.85632e-06
-4.47687e-05
-5.50492e-06
-4.69255e-05
-6.47086e-06
-4.76308e-05
-6.3215e-06
-4.84523e-05
-5.92543e-06
-4.97096e-05
-5.776e-06
-5.13014e-05
-5.71646e-06
-5.27416e-05
-6.62591e-06
-5.38463e-05
-7.91858e-06
-5.50654e-05
-8.48245e-06
-5.5472e-05
-7.87144e-06
-5.46396e-05
-5.51104e-06
-5.16338e-05
-2.52872e-06
-4.75956e-05
-3.07803e-07
-4.34531e-05
7.16955e-07
-4.12013e-05
8.66712e-07
-4.0264e-05
-4.20383e-05
4.6119e-07
-3.95505e-05
1.08484e-06
-4.39722e-05
-3.67582e-07
-4.4808e-05
-8.22141e-06
-3.96435e-05
-1.48418e-05
-3.25317e-05
-1.3374e-05
-3.43588e-05
-1.31559e-05
-3.39615e-05
-1.39258e-05
-3.27593e-05
-1.37374e-05
-3.26099e-05
-1.13416e-05
-3.35537e-05
-8.25166e-06
-3.40538e-05
-5.65119e-06
-3.54286e-05
-4.02664e-06
-3.83054e-05
-4.45412e-06
-4.16642e-05
-6.04021e-06
-4.32468e-05
-6.61221e-06
-4.39776e-05
-6.64623e-06
-4.51307e-05
-6.61418e-06
-4.64708e-05
-6.5723e-06
-4.7902e-05
-7.00738e-06
-4.94155e-05
-8.02489e-06
-5.04815e-05
-9.45351e-06
-5.15207e-05
-1.02842e-05
-5.21266e-05
-9.93191e-06
-5.16908e-05
-7.67956e-06
-4.9264e-05
-4.30086e-06
-4.52705e-05
-1.59495e-06
-4.08365e-05
-3.33825e-07
-3.72558e-05
1.78299e-07
-3.61956e-05
-3.87898e-05
-1.87858e-07
-3.82989e-05
-4.00677e-07
-4.24503e-05
-3.51503e-06
-4.22435e-05
-1.23853e-05
-3.54042e-05
-1.81434e-05
-3.00386e-05
-1.68862e-05
-3.26168e-05
-1.70703e-05
-3.25327e-05
-1.70106e-05
-3.14252e-05
-1.4937e-05
-3.11333e-05
-1.14003e-05
-3.22487e-05
-8.0128e-06
-3.19275e-05
-5.46905e-06
-3.29748e-05
-3.96153e-06
-3.56796e-05
-4.42242e-06
-3.82155e-05
-5.93041e-06
-3.93713e-05
-6.88945e-06
-4.0189e-05
-7.0163e-06
-4.1365e-05
-7.41979e-06
-4.29627e-05
-7.91407e-06
-4.47417e-05
-8.3069e-06
-4.61925e-05
-9.3798e-06
-4.71489e-05
-1.07628e-05
-4.80752e-05
-1.165e-05
-4.87998e-05
-1.13484e-05
-4.86424e-05
-9.28777e-06
-4.68212e-05
-5.89767e-06
-4.30316e-05
-2.87872e-06
-3.8401e-05
-1.15254e-06
-3.39442e-05
-3.11716e-07
-3.25278e-05
-3.54336e-05
-6.98075e-07
-3.69236e-05
-1.46904e-06
-4.06769e-05
-6.15714e-06
-3.93159e-05
-1.5946e-05
-3.12795e-05
-2.11069e-05
-2.7686e-05
-2.02952e-05
-3.05021e-05
-1.89703e-05
-3.08146e-05
-1.70322e-05
-2.94128e-05
-1.42774e-05
-2.91914e-05
-1.0586e-05
-2.96911e-05
-6.93433e-06
-2.9594e-05
-4.92898e-06
-3.01596e-05
-4.0728e-06
-3.26169e-05
-4.83429e-06
-3.46063e-05
-6.32149e-06
-3.54699e-05
-6.96452e-06
-3.59191e-05
-7.30331e-06
-3.73777e-05
-7.85161e-06
-3.92471e-05
-8.67747e-06
-4.11626e-05
-9.63303e-06
-4.29657e-05
-1.06796e-05
-4.37744e-05
-1.20278e-05
-4.45098e-05
-1.29006e-05
-4.54252e-05
-1.27607e-05
-4.54863e-05
-1.09725e-05
-4.41417e-05
-7.56487e-06
-4.07612e-05
-4.14266e-06
-3.59483e-05
-2.07268e-06
-3.10019e-05
-1.12295e-06
-2.88787e-05
-3.16739e-05
-1.31217e-06
-3.5445e-05
-2.29961e-06
-3.87072e-05
-7.98241e-06
-3.61446e-05
-1.89658e-05
-2.67992e-05
-2.30269e-05
-2.49953e-05
-2.14924e-05
-2.78186e-05
-1.82274e-05
-2.86041e-05
-1.53438e-05
-2.67157e-05
-1.24227e-05
-2.7142e-05
-8.94754e-06
-2.66466e-05
-5.96692e-06
-2.62785e-05
-4.02838e-06
-2.75754e-05
-3.66444e-06
-2.93145e-05
-5.117e-06
-3.06929e-05
-6.85191e-06
-3.12359e-05
-7.54061e-06
-3.18359e-05
-7.89808e-06
-3.32263e-05
-8.58296e-06
-3.52188e-05
-9.52243e-06
-3.73106e-05
-1.06824e-05
-3.92042e-05
-1.18025e-05
-4.0113e-05
-1.29432e-05
-4.06855e-05
-1.38627e-05
-4.18256e-05
-1.39158e-05
-4.22069e-05
-1.23465e-05
-4.15035e-05
-9.09766e-06
-3.86068e-05
-5.57773e-06
-3.38237e-05
-3.19671e-06
-2.80848e-05
-1.97544e-06
-2.53341e-05
-2.76325e-05
-2.10817e-06
-3.37929e-05
-3.86922e-06
-3.64998e-05
-1.05716e-05
-3.27036e-05
-2.13105e-05
-2.22681e-05
-2.34975e-05
-2.20909e-05
-2.0494e-05
-2.51413e-05
-1.64464e-05
-2.54994e-05
-1.37738e-05
-2.41325e-05
-1.05821e-05
-2.41559e-05
-7.00262e-06
-2.35003e-05
-4.37664e-06
-2.33222e-05
-2.83613e-06
-2.45654e-05
-3.18321e-06
-2.58179e-05
-5.33879e-06
-2.65753e-05
-7.52059e-06
-2.69325e-05
-8.54416e-06
-2.75729e-05
-8.97324e-06
-2.90481e-05
-9.46085e-06
-3.09263e-05
-1.04182e-05
-3.32465e-05
-1.16565e-05
-3.53226e-05
-1.27738e-05
-3.6328e-05
-1.36809e-05
-3.67879e-05
-1.441e-05
-3.79679e-05
-1.46649e-05
-3.86651e-05
-1.36245e-05
-3.83875e-05
-1.07314e-05
-3.61623e-05
-7.10195e-06
-3.16205e-05
-4.28442e-06
-2.54154e-05
-2.53428e-06
-2.18065e-05
-2.3384e-05
-2.47025e-06
-3.1812e-05
-5.45715e-06
-3.36859e-05
-1.3453e-05
-2.87406e-05
-2.30076e-05
-1.83632e-05
-2.28019e-05
-1.93679e-05
-1.8233e-05
-2.23082e-05
-1.43221e-05
-2.18391e-05
-1.16919e-05
-2.18441e-05
-8.27643e-06
-2.06483e-05
-4.89563e-06
-2.03997e-05
-2.53898e-06
-2.06203e-05
-1.47373e-06
-2.13232e-05
-2.73111e-06
-2.1967e-05
-5.62468e-06
-2.22304e-05
-8.21488e-06
-2.24329e-05
-9.60302e-06
-2.31469e-05
-1.03142e-05
-2.46633e-05
-1.08232e-05
-2.66854e-05
-1.14975e-05
-2.89386e-05
-1.25502e-05
-3.10703e-05
-1.35365e-05
-3.22522e-05
-1.41864e-05
-3.27329e-05
-1.4767e-05
-3.38406e-05
-1.51911e-05
-3.49413e-05
-1.46148e-05
-3.49957e-05
-1.22631e-05
-3.34084e-05
-8.65383e-06
-2.92431e-05
-5.38024e-06
-2.2988e-05
-3.10671e-06
-1.85091e-05
-1.9262e-05
-1.90596e-06
-2.96939e-05
-5.63077e-06
-3.03966e-05
-1.47225e-05
-2.36131e-05
-2.25903e-05
-1.4859e-05
-2.10351e-05
-1.65638e-05
-1.607e-05
-1.89055e-05
-1.27053e-05
-1.88017e-05
-9.37539e-06
-1.84952e-05
-5.58954e-06
-1.77331e-05
-2.76075e-06
-1.74884e-05
-5.07026e-07
-1.75873e-05
-2.00567e-07
-1.77205e-05
-2.42493e-06
-1.77469e-05
-5.99019e-06
-1.76835e-05
-9.04614e-06
-1.78094e-05
-1.08881e-05
-1.85874e-05
-1.1855e-05
-2.01638e-05
-1.23699e-05
-2.22296e-05
-1.27895e-05
-2.44715e-05
-1.3458e-05
-2.65012e-05
-1.41326e-05
-2.77967e-05
-1.44803e-05
-2.8506e-05
-1.48098e-05
-2.95293e-05
-1.53109e-05
-3.09479e-05
-1.52624e-05
-3.12924e-05
-1.36174e-05
-3.034e-05
-1.01566e-05
-2.67202e-05
-6.50309e-06
-2.05713e-05
-3.83628e-06
-1.5428e-05
-1.53257e-05
-3.20435e-06
-2.65134e-05
-9.47941e-06
-2.61566e-05
-1.95409e-05
-1.79413e-05
-2.32585e-05
-1.18888e-05
-1.88947e-05
-1.36136e-05
-1.34591e-05
-1.50064e-05
-1.02338e-05
-1.64022e-05
-6.65962e-06
-1.48782e-05
-3.01179e-06
-1.48433e-05
-2.68706e-07
-1.45221e-05
1.32947e-06
-1.41287e-05
7.08009e-07
-1.35998e-05
-2.31221e-06