/*--------------------------------*- C++ -*----------------------------------*\
| =========                 |                                                 |
| \\      /  F ield         | OpenFOAM: The Open Source CFD Toolbox           |
|  \\    /   O peration     | Version:  2.3.0                                 |
|   \\  /    A nd           | Web:      www.OpenFOAM.org                      |
|    \\/     M anipulation  |                                                 |
\*---------------------------------------------------------------------------*/
FoamFile
{
    version     2.0;
    format      ascii;
    class       surfaceScalarField;
    location    "0.199823";
    object      phi;
}
// * * * * * * * * * * * * * * * * * * * * * * * * * * * * * * * * * * * * * //

dimensions      [0 3 -1 0 0 0 0];

internalField   nonuniform List<scalar> 
49938
(
1.88057e-10
-9.1493e-10
1.22696e-09
-3.59734e-11
-1.22833e-09
1.95244e-09
-1.25683e-10
-1.35051e-09
1.9403e-09
-1.89091e-10
-1.37575e-09
1.93924e-09
-2.43944e-10
-1.34829e-09
1.90322e-09
-2.94499e-10
-1.30346e-09
1.85409e-09
-3.33713e-10
-1.24606e-09
1.78535e-09
-3.52699e-10
-1.19291e-09
1.71196e-09
-3.50631e-10
-1.14182e-09
1.63982e-09
-3.14032e-10
-1.1125e-09
1.57597e-09
-2.57916e-10
-1.07139e-09
1.51534e-09
-1.86183e-10
-1.03735e-09
1.46568e-09
-1.03194e-10
-1.01514e-09
1.43221e-09
-2.19656e-11
-9.92606e-10
1.41144e-09
6.38247e-11
-9.9591e-10
1.41018e-09
1.47957e-10
-1.01306e-09
1.42899e-09
2.22398e-10
-1.03662e-09
1.46224e-09
3.05945e-10
-1.09523e-09
1.51174e-09
3.62075e-10
-1.12187e-09
1.56581e-09
3.73211e-10
-1.14109e-09
1.63002e-09
3.56191e-10
-1.18586e-09
1.70295e-09
3.14881e-10
-1.23721e-09
1.77859e-09
2.5986e-10
-1.29674e-09
1.85183e-09
2.00791e-10
-1.34404e-09
1.90318e-09
1.33925e-10
-1.37359e-09
1.94054e-09
4.14855e-11
-1.3502e-09
1.94272e-09
-1.85555e-10
-1.22977e-09
1.9569e-09
-9.15325e-10
1.22985e-09
-7.8767e-11
-2.97082e-09
2.13467e-09
-1.34652e-10
-3.0908e-09
1.91837e-09
-1.29887e-10
-3.1303e-09
1.77503e-09
-1.52066e-10
-3.08053e-09
1.72696e-09
-1.83373e-10
-3.00302e-09
1.68605e-09
-2.18081e-10
-2.90259e-09
1.63384e-09
-2.46588e-10
-2.77948e-09
1.56193e-09
-2.68614e-10
-2.62437e-09
1.4535e-09
-2.78384e-10
-2.47335e-09
1.34131e-09
-2.45041e-10
-2.31856e-09
1.17272e-09
-2.01257e-10
-2.17408e-09
1.05892e-09
-1.45749e-10
-2.0561e-09
9.63251e-10
-7.76048e-11
-1.9734e-09
8.90128e-10
-1.8858e-11
-1.92727e-09
8.75923e-10
4.89024e-11
-1.92003e-09
8.56364e-10
1.14256e-10
-1.95585e-09
8.77442e-10
1.63336e-10
-2.02647e-09
9.40781e-10
2.45871e-10
-2.13753e-09
9.59777e-10
2.97327e-10
-2.27947e-09
1.10616e-09
2.92231e-10
-2.44318e-09
1.3072e-09
2.67011e-10
-2.60486e-09
1.44422e-09
2.33157e-10
-2.76837e-09
1.56503e-09
1.94995e-10
-2.90036e-09
1.64179e-09
1.6043e-10
-3.00607e-09
1.6966e-09
1.35599e-10
-3.08519e-09
1.73644e-09
1.37786e-10
-3.13434e-09
1.78196e-09
8.16309e-11
-3.09541e-09
1.92181e-09
-2.97728e-09
2.1436e-09
-3.33107e-11
-7.46586e-10
-2.19092e-09
1.42993e-11
-6.78624e-10
-2.45979e-09
-3.03954e-11
-7.02932e-10
-2.38267e-09
-6.41276e-11
-6.99671e-10
-2.34713e-09
-8.55045e-11
-6.83743e-10
-2.2979e-09
-9.36587e-11
-6.61361e-10
-2.23308e-09
-9.98525e-11
-6.36134e-10
-2.13715e-09
-9.61897e-11
-6.17015e-10
-2.01102e-09
-8.41904e-11
-5.88203e-10
-1.89715e-09
-7.97129e-11
-5.6825e-10
-1.75479e-09
-6.83531e-11
-5.40585e-10
-1.64486e-09
-5.3426e-11
-5.16942e-10
-1.55409e-09
-3.69184e-11
-5.01051e-10
-1.48886e-09
-1.40211e-11
-4.85876e-10
-1.46429e-09
6.07612e-12
-4.85034e-10
-1.45509e-09
2.91303e-11
-4.96022e-10
-1.48288e-09
5.2346e-11
-5.10251e-10
-1.53943e-09
6.95315e-11
-5.54287e-10
-1.60043e-09
8.49732e-11
-5.74297e-10
-1.72062e-09
1.0089e-10
-5.85977e-10
-1.87312e-09
1.08868e-10
-6.11352e-10
-2.00148e-09
1.04125e-10
-6.28658e-10
-2.13497e-09
9.51069e-11
-6.53072e-10
-2.23827e-09
7.18564e-11
-6.76822e-10
-2.306e-09
3.60182e-11
-6.94976e-10
-2.35438e-09
-1.03653e-11
-7.00522e-10
-2.38743e-09
3.56061e-11
-6.76722e-10
-2.46466e-09
-7.45892e-10
-2.19578e-09
-9.19961e-11
9.2849e-11
-7.47439e-10
-4.21196e-11
1.6198e-10
-8.9048e-10
-4.37948e-11
1.44712e-10
-8.4597e-10
-5.15118e-11
1.40741e-10
-8.32695e-10
-5.99404e-11
1.35652e-10
-8.10966e-10
-6.31941e-11
1.27695e-10
-7.85802e-10
-6.34299e-11
1.13378e-10
-7.49277e-10
-5.99504e-11
8.56155e-11
-7.06109e-10
-5.3193e-11
5.01724e-11
-6.45133e-10
-4.91768e-11
-3.62459e-12
-5.68641e-10
-4.2455e-11
-3.59608e-11
-5.11346e-10
-3.51461e-11
-6.05847e-11
-4.63666e-10
-2.32784e-11
-8.25843e-11
-4.30335e-10
-1.10856e-11
-7.92774e-11
-4.18792e-10
5.54146e-13
-8.54676e-11
-4.11206e-10
1.13724e-11
-8.53755e-11
-4.21465e-10
1.60276e-11
-6.77844e-11
-4.47122e-10
3.97375e-11
-1.06155e-10
-4.71842e-10
5.60888e-11
-5.17548e-11
-5.38893e-10
6.63009e-11
3.34147e-11
-6.29603e-10
7.25248e-11
8.2423e-11
-6.99999e-10
7.18e-11
1.19917e-10
-7.4785e-10
6.79516e-11
1.36851e-10
-7.86075e-10
5.813e-11
1.45477e-10
-8.12478e-10
4.87858e-11
1.49621e-10
-8.35254e-10
4.51234e-11
1.52648e-10
-8.49508e-10
9.34179e-11
1.69133e-10
-8.94149e-10
9.94557e-11
-7.5193e-10
-4.43674e-11
2.05305e-10
-6.80885e-11
-3.20851e-11
2.63773e-10
-1.14076e-10
-4.55791e-11
2.56181e-10
-9.7975e-11
-5.78086e-11
2.52024e-10
-9.90539e-11
-7.25629e-11
2.42693e-10
-9.22864e-11
-8.53885e-11
2.2724e-10
-8.67188e-11
-9.99175e-11
2.04695e-10
-7.67874e-11
-1.10698e-10
1.67708e-10
-7.13113e-11
-1.14511e-10
1.2105e-10
-6.70652e-11
-1.00637e-10
4.63067e-11
-6.38054e-11
-8.22608e-11
-2.97929e-12
-5.13576e-11
-6.43231e-11
-2.6109e-11
-5.24134e-11
-3.93843e-11
-5.16696e-11
-5.58535e-11
-2.10034e-11
-4.31103e-11
-5.45481e-11
1.51844e-12
-5.36022e-11
-5.43873e-11
2.56293e-11
-4.72134e-11
-6.2273e-11
3.29217e-11
-2.52735e-11
-4.98034e-11
1.01514e-10
-1.00689e-10
-7.40586e-11
1.46887e-10
-2.46183e-11
-7.25092e-11
1.37104e-10
1.12141e-10
-6.89427e-11
1.22216e-10
1.72702e-10
-7.53916e-11
1.00324e-10
2.20017e-10
-7.82076e-11
8.32152e-11
2.42907e-10
-8.89462e-11
6.49949e-11
2.57866e-10
-9.41682e-11
5.04502e-11
2.65315e-10
-1.01149e-10
3.50304e-11
2.67886e-10
-9.98173e-11
4.58956e-11
2.7422e-10
-1.15952e-10
2.14621e-10
-6.92692e-11
-2.90975e-11
2.41016e-10
-6.61325e-12
-3.44257e-11
2.88311e-10
-1.92099e-11
-4.98932e-11
2.85846e-10
-1.41975e-11
-6.45653e-11
2.83041e-10
-1.63446e-11
-8.33102e-11
2.75773e-10
-1.4335e-11
-1.02122e-10
2.61478e-10
-1.54262e-11
-1.2434e-10
2.40196e-10
-1.32838e-11
-1.4278e-10
1.98255e-10
-1.21079e-11
-1.53856e-10
1.35917e-10
-3.79078e-12
-1.2686e-10
2.78805e-11
-8.5691e-12
-9.7066e-11
-3.14201e-11
-1.35342e-12
-7.3761e-11
-5.36428e-11
4.22891e-12
-2.9596e-11
-1.04489e-10
8.6543e-12
-1.48079e-11
-7.48316e-11
1.69333e-11
1.57721e-11
-1.0394e-10
1.97578e-11
1.9855e-11
-6.62755e-11
1.49791e-11
-4.51781e-12
-1.94152e-11
1.85144e-11
1.38617e-10
-1.91158e-10
-5.26658e-11
2.20097e-10
-3.76248e-11
-6.84741e-11
1.85778e-10
1.60818e-10
-1.4358e-11
1.54426e-10
2.22614e-10
-1.85598e-11
1.17554e-10
2.69755e-10
-1.28666e-11
9.22335e-11
2.84515e-10
-1.62872e-11
6.91172e-11
2.94998e-10
-1.40159e-11
5.24215e-11
2.98315e-10
-1.63043e-11
3.56866e-11
2.98755e-10
-1.41341e-11
2.96523e-11
2.99641e-10
-1.93867e-11
2.51018e-10
-6.74472e-12
-2.18782e-11
2.64154e-10
-1.26022e-12
-3.68573e-11
3.10568e-10
-7.27733e-12
-5.723e-11
3.12751e-10
-6.53158e-12
-7.95205e-11
3.15048e-10
-9.71618e-12
-1.09625e-10
3.16652e-10
-1.07755e-11
-1.44169e-10
3.13968e-10
-1.79451e-11
-1.93441e-10
3.08002e-10
-1.85345e-11
-2.42873e-10
2.83406e-10
-3.57177e-11
-2.75912e-10
2.2654e-10
-5.75846e-11
-2.18976e-10
3.354e-11
-6.25952e-11
-1.47519e-10
-6.18954e-11
-4.09825e-11
-1.11762e-10
-5.12442e-11
-3.81552e-11
-5.31124e-11
-1.27295e-10
-3.58429e-11
-3.02439e-11
-5.81542e-11
-3.9546e-11
9.50077e-12
-1.0933e-10
-3.43542e-11
2.67335e-11
-3.65456e-11
-4.69627e-11
2.55118e-11
1.60373e-11
-3.42309e-11
3.00018e-10
-2.60336e-10
-2.05327e-10
4.21919e-10
-1.09945e-11
-1.48531e-10
3.14833e-10
3.3889e-10
-7.09861e-11
2.36512e-10
3.57871e-10
-5.69361e-11
1.6297e-10
3.6919e-10
-2.58932e-11
1.18868e-10
3.52909e-10
-2.42924e-11
8.31828e-11
3.4433e-10
-1.36461e-11
5.88825e-11
3.34752e-10
-1.21359e-11
3.74309e-11
3.28154e-10
-7.94805e-12
2.21213e-11
3.23395e-10
-8.44424e-12
2.75167e-10
-2.02842e-12
-1.73681e-11
2.81212e-10
3.10151e-13
-3.39792e-11
3.31235e-10
-4.05633e-12
-5.31443e-11
3.36039e-10
-4.12366e-12
-7.39762e-11
3.41061e-10
-5.18145e-12
-1.02122e-10
3.49051e-10
-4.25222e-12
-1.37534e-10
3.58131e-10
-8.75038e-12
-1.95536e-10
3.83976e-10
-1.79729e-11
-2.82887e-10
3.96779e-10
-2.60221e-11
-3.58179e-10
3.67624e-10
-6.57914e-11
-2.83905e-10
6.49185e-11
-1.05653e-10
-1.62984e-10
-1.21979e-10
-6.08367e-11
-1.23693e-10
-1.38696e-11
-7.66657e-11
-2.72001e-11
-2.54782e-10
3.09936e-11
1.20713e-11
-1.08543e-11
-8.65713e-11
9.8161e-11
-2.40341e-10
4.49208e-11
5.53157e-11
6.5581e-11
-5.92813e-11
4.8434e-11
1.19553e-10
-9.66338e-11
4.75718e-10
-2.20101e-10
-4.6752e-10
5.66171e-10
1.07328e-10
-2.08774e-10
3.23324e-10
5.71305e-10
1.04308e-11
2.11709e-10
5.10461e-10
-4.09749e-11
1.30067e-10
4.5934e-10
-8.50799e-12
9.42461e-11
3.98087e-10
-9.35756e-12
6.65411e-11
3.74047e-10
-2.01242e-12
4.81431e-11
3.57586e-10
-4.43577e-12
3.07212e-11
3.48679e-10
-3.10295e-12
1.58845e-11
3.41806e-10
-3.57428e-12
2.90183e-10
8.68931e-13
-1.48001e-11
2.96267e-10
-2.5523e-13
-3.18528e-11
3.52706e-10
-4.41885e-12
-5.21707e-11
3.62294e-10
-5.93673e-12
-7.68002e-11
3.76346e-10
-1.06553e-11
-1.15694e-10
4.03002e-10
-1.50577e-11
-1.72365e-10
4.46818e-10
-3.20169e-11
-2.82743e-10
5.33038e-10
-3.86827e-11
-4.36578e-10
6.33701e-10
-8.30876e-11
-6.58506e-10
6.60128e-10
-7.05759e-11
-5.64575e-10
2.22111e-10
-2.51123e-10
-2.83631e-10
-8.26948e-11
-3.20229e-10
-2.38169e-10
2.9347e-10
-3.52802e-10
-5.63823e-11
-1.53114e-10
-2.83454e-10
-2.74254e-12
3.65277e-10
-4.29771e-10
1.51937e-10
-1.35624e-10
-2.59396e-10
1.39485e-10
5.85592e-10
-5.0756e-10
1.96481e-10
6.26229e-10
-5.63673e-10
1.00092e-09
2.28748e-10
-1.25329e-09
9.61504e-10
3.30415e-10
-1.83671e-10
4.24062e-10
7.92414e-10
3.16334e-10
2.20336e-10
6.70552e-10
4.36349e-11
1.25601e-10
5.59933e-10
-5.8584e-12
8.96981e-11
4.60861e-10
-2.68706e-11
6.19888e-11
4.15981e-10
-1.42246e-11
4.42075e-11
3.87534e-10
-1.21671e-11
2.74036e-11
3.72164e-10
-6.68091e-12
1.29145e-11
3.61474e-10
-5.17853e-12
3.03852e-10
-7.54656e-13
-1.09895e-11
3.07505e-10
-2.48004e-13
-2.4181e-11
3.70128e-10
-4.23019e-12
-3.84889e-11
3.82473e-10
-5.87078e-12
-5.20436e-11
3.99841e-10
-9.93985e-12
-6.93061e-11
4.33977e-10
-1.37124e-11
-8.45891e-11
4.79098e-10
-1.69963e-11
-1.17661e-10
5.59662e-10
6.44855e-12
-1.78971e-10
6.03593e-10
9.14186e-11
-3.22908e-10
4.73025e-10
3.31039e-10
-3.18885e-10
-1.61234e-10
3.79322e-10
-2.37926e-10
-4.85063e-10
3.2141e-10
-1.03096e-10
-8.9059e-11
2.477e-10
-3.44633e-11
-5.02489e-10
2.80742e-10
1.37214e-10
-6.88933e-11
2.62493e-10
2.31939e-10
-5.12833e-10
2.82485e-10
4.9263e-10
-4.40142e-11
3.68915e-10
9.46484e-10
-6.47195e-11
2.37095e-10
-4.07546e-11
-9.60741e-10
2.17673e-09
-1.12188e-10
-2.54152e-10
6.56e-10
-9.19019e-11
2.44106e-10
5.28021e-10
-3.39974e-11
5.45204e-10
6.74435e-11
1.94403e-11
5.04428e-10
2.06754e-12
3.21332e-11
4.61981e-10
-1.38126e-11
3.07952e-11
4.26447e-10
-9.12779e-12
2.60563e-11
3.99331e-10
-7.0582e-12
1.70435e-11
3.84707e-10
-3.53057e-12
7.89307e-12
3.73805e-10
-3.1812e-12
3.11078e-10
6.6758e-13
-5.26954e-12
3.11616e-10
1.15831e-12
-1.1013e-11
3.78094e-10
-2.22195e-12
-1.4507e-11
3.87508e-10
-1.541e-12
-9.46848e-12
3.99106e-10
-4.30398e-12
8.23686e-12
4.18677e-10
-2.40534e-12
5.05749e-11
4.39638e-10
-2.87879e-12
1.13521e-10
4.53587e-10
4.31281e-11
1.18593e-10
4.02827e-10
1.95694e-10
6.56407e-12
1.36208e-10
4.48847e-10
-3.20383e-11
-3.47074e-10
2.24443e-10
-9.31463e-11
-7.12971e-10
2.89015e-10
-1.98112e-12
-3.07505e-10
1.27281e-10
-7.52886e-11
-7.12919e-10
2.83737e-10
3.64754e-11
-2.80732e-10
1.00074e-10
-5.60445e-11
-6.98691e-10
2.78378e-10
8.39696e-11
-2.79486e-10
9.54572e-11
2.4478e-10
-2.87568e-10
6.20384e-11
-6.31673e-11
-8.9431e-10
2.41515e-10
-1.03576e-10
-3.53845e-10
1.40102e-10
-7.44869e-11
1.15831e-10
9.91856e-11
-8.72489e-11
4.14755e-10
1.43211e-10
-4.70629e-11
4.42449e-10
2.17925e-11
-1.15695e-11
4.35285e-10
-8.79804e-12
3.2492e-12
4.15948e-10
-4.31971e-12
9.22675e-12
3.99316e-10
-5.9622e-12
7.33562e-12
3.88999e-10
-2.40084e-12
3.55465e-12
3.80378e-10
-2.79164e-12
3.13862e-10
7.70396e-13
-2.64404e-12
3.13992e-10
2.68274e-13
-5.28213e-12
3.83717e-10
-2.98516e-12
-6.13613e-12
3.91106e-10
-2.74437e-12
6.77953e-14
3.9919e-10
-6.28795e-12
1.42359e-11
4.09969e-10
-5.46069e-12
4.86684e-11
4.20074e-10
-1.48679e-11
8.33338e-11
4.1429e-10
4.63222e-12
4.13813e-11
3.67558e-10
7.72214e-11
-5.53501e-11
1.54001e-10
7.89378e-11
-1.60713e-11
-3.22975e-10
-6.33779e-11
-6.04251e-11
-6.71756e-10
3.13892e-12
1.11286e-11
-3.03934e-10
-7.51244e-11
-2.75794e-11
-6.7099e-10
-3.22079e-12
5.25538e-11
-2.90297e-10
-7.05682e-11
1.00065e-11
-6.58001e-10
1.85687e-12
8.45665e-11
-3.00736e-10
-5.33098e-11
1.56605e-10
-3.16591e-10
-4.30152e-11
-5.08656e-11
-7.60882e-10
7.40426e-11
-2.36778e-11
-3.47346e-10
-3.3687e-11
-8.39802e-11
1.31535e-10
4.45989e-11
-1.00436e-10
3.50448e-10
8.07633e-11
-6.13954e-11
3.92234e-10
1.11746e-11
-2.40704e-11
4.08678e-10
-1.07173e-11
-8.70991e-12
4.01763e-10
-1.17576e-12
-2.61888e-13
3.95404e-10
-4.53593e-12
1.4506e-12
3.8927e-10
-1.98347e-12
8.18958e-13
3.83323e-10
-2.31319e-12
3.13928e-10
7.53245e-13
1.59365e-13
3.12789e-10
1.04332e-12
2.79575e-13
3.84662e-10
-1.0657e-12
2.83151e-12
3.89138e-10
-5.84217e-13
1.1424e-11
3.9298e-10
-2.3822e-12
2.32386e-11
3.95188e-10
2.96711e-12
5.2573e-11
3.95829e-10
-5.09005e-12
7.63434e-11
3.792e-10
1.13195e-11
7.03942e-11
3.40015e-10
3.34919e-11
-7.48682e-12
1.85442e-10
4.64409e-11
-1.48834e-11
-3.14674e-10
-9.03712e-13
-3.19722e-11
-6.71527e-10
1.68596e-11
-7.52797e-12
-3.34436e-10
6.05773e-12
-1.39812e-11
-6.7788e-10
1.33434e-11
2.0318e-11
-3.29325e-10
4.72897e-12
1.10313e-11
-6.60964e-10
1.22498e-11
3.6882e-11
-3.31608e-10
5.02107e-12
5.17742e-11
-3.36189e-10
4.70532e-12
-2.52746e-11
-6.9726e-10
1.34262e-11
-4.2291e-11
-3.26708e-10
-3.62196e-12
-6.41429e-11
1.92626e-10
-3.92398e-11
-6.9346e-11
3.3698e-10
1.86709e-11
-5.03781e-11
3.70441e-10
2.82424e-12
-2.40459e-11
3.90039e-10
-7.69396e-12
-1.38244e-11
3.90102e-10
1.43952e-12
-4.95084e-12
3.89895e-10
-3.36464e-12
-2.28748e-12
3.87066e-10
-4.59334e-13
-1.03635e-12
3.83432e-10
-1.36059e-12
3.11955e-10
9.36362e-13
9.15069e-13
3.11485e-10
3.89488e-13
2.03509e-12
3.84969e-10
-1.42682e-12
3.80466e-12
3.88047e-10
-6.78192e-13
1.04676e-11
3.89745e-10
-3.42827e-12
1.60104e-11
3.88774e-10
8.70849e-13
3.44461e-11
3.86147e-10
-8.75303e-12
4.10471e-11
3.70003e-10
2.59584e-12
4.01387e-11
3.44108e-10
-3.18402e-12
-5.91346e-12
2.36044e-10
-4.55056e-12
-2.21602e-11
-2.94707e-10
-3.72065e-12
-1.88211e-11
-6.7129e-10
-3.57629e-12
-1.52102e-11
-3.38042e-10
-5.47058e-15
2.64564e-12
-6.88157e-10
-7.57878e-12
1.6176e-11
-3.40792e-10
-2.06368e-12
3.00524e-11
-6.70183e-10
-4.65768e-12
3.6274e-11
-3.37531e-10
-2.98011e-13
2.68111e-11
-3.34669e-10
7.94316e-12
-1.41542e-11
-6.71467e-10
1.51726e-11
-3.73529e-11
-2.99467e-10
-4.04241e-12
-4.70831e-11
2.43689e-10
-4.13323e-11
-3.96443e-11
3.38597e-10
-9.05582e-12
-3.37962e-11
3.64382e-10
2.11163e-13
-1.69857e-11
3.80195e-10
-6.96654e-12
-1.22416e-11
3.83976e-10
1.38205e-12
-5.3901e-12
3.86025e-10
-2.98169e-12
-3.45056e-12
3.85278e-10
-1.51696e-13
-1.52872e-12
3.82866e-10
-1.35505e-12
3.09841e-10
5.85296e-13
1.35878e-12
3.09659e-10
4.67084e-13
2.98035e-12
3.84377e-10
-1.02889e-12
3.89701e-12
3.86882e-10
2.47988e-13
8.56137e-12
3.87565e-10
-2.48436e-12
9.07405e-12
3.85959e-10
2.30285e-12
1.89022e-11
3.82156e-10
-5.8376e-12
1.33893e-11
3.69711e-10
5.80547e-12
9.90167e-12
3.49679e-10
-2.08393e-12
-4.44363e-11
2.63685e-10
2.66971e-11
-5.16649e-11
-2.74993e-10
-1.24855e-11
-3.54898e-11
-6.72348e-10
-1.51172e-11
-2.70282e-11
-3.29222e-10
-1.72819e-11
1.72842e-12
-6.95335e-10
-2.15789e-11
1.79095e-11
-3.37354e-10
-1.96187e-11
2.67162e-11
-6.50354e-10
-2.86355e-11
3.93284e-11
-3.2922e-10
-2.0923e-11
4.04602e-11
-3.14784e-10
-2.10166e-11
1.77274e-11
-6.31418e-10
-1.73164e-11
8.92268e-12
-2.72224e-10
-1.84376e-11
-1.55012e-11
2.74157e-10
-6.0446e-12
-1.30349e-11
3.44482e-10
-8.3517e-12
-1.81752e-11
3.66596e-10
2.92621e-12
-9.05229e-12
3.76946e-10
-5.87343e-12
-9.0954e-12
3.82113e-10
1.90582e-12
-4.50069e-12
3.83959e-10
-2.52885e-12
-3.62371e-12
3.83998e-10
4.04005e-13
-1.64612e-12
3.81899e-10
-1.0108e-12
3.07698e-10
4.9673e-13
1.52254e-12
3.08124e-10
1.18863e-14
3.1547e-12
3.8353e-10
-7.85641e-13
3.17549e-12
3.86222e-10
6.39524e-13
5.84118e-12
3.86854e-10
-1.95426e-12
3.40411e-12
3.86345e-10
2.05078e-12
8.59485e-12
3.82021e-10
-5.0559e-12
2.82898e-12
3.73857e-10
1.61982e-12
4.78245e-11
3.4146e-10
-3.67758e-11
5.77929e-11
2.66155e-10
-1.24387e-11
-7.762e-11
-3.48546e-10
2.08966e-10
2.15233e-12
-7.35364e-10
-1.6756e-11
-7.30619e-11
-4.96937e-10
2.42929e-10
4.31251e-11
-7.92901e-10
-1.86201e-11
-7.51087e-12
-5.23034e-10
2.36316e-10
1.01599e-10
-6.93515e-10
-6.59494e-11
4.23646e-11
-4.95891e-10
2.25905e-10
-2.88786e-11
-4.68293e-10
2.24752e-10
3.34331e-11
-6.31225e-10
-6.25043e-11
-9.60139e-11
-3.39241e-10
1.96463e-10
-5.57872e-11
2.76765e-10
-4.28342e-11
-3.55655e-12
3.32754e-10
-4.05023e-11
-8.54658e-12
3.71048e-10
5.38672e-13
-3.17111e-12
3.76579e-10
-5.0083e-12
-5.94737e-12
3.82768e-10
2.12122e-12
-3.32647e-12
3.83234e-10
-1.89526e-12
-3.37986e-12
3.83306e-10
7.4514e-13
-1.62635e-12
3.80853e-10
-7.07527e-13
3.0601e-10
6.24271e-14
1.46983e-12
3.06702e-10
-4.7408e-14
3.21546e-12
3.82931e-10
-1.14678e-12
2.53112e-12
3.86402e-10
5.04563e-13
2.87625e-12
3.88588e-10
-2.07939e-12
-3.4514e-12
3.91206e-10
1.46676e-12
-7.86457e-12
3.89514e-10
-3.07948e-12
-3.40274e-11
3.91168e-10
8.85189e-12
-9.48199e-11
3.66408e-10
3.58437e-11
-2.79882e-10
2.90555e-10
1.60663e-10
-1.24364e-10
-3.03622e-10
-2.00443e-10
-1.51386e-10
-7.30862e-10
2.25204e-11
-9.34777e-12
-3.97011e-10
-2.41965e-10
-1.05083e-11
-8.04546e-10
1.28055e-11
1.48081e-10
-4.28085e-10
-2.53539e-10
-1.25005e-10
-6.73926e-10
2.53497e-10
7.31529e-11
-4.37225e-10
-2.56823e-10
2.79261e-10
-4.231e-10
-2.51301e-10
2.84494e-11
-6.3174e-10
2.51326e-10
2.00557e-10
-2.94505e-10
-2.16843e-10
8.08255e-11
2.92911e-10
1.03585e-10
3.39129e-11
3.55465e-10
2.42019e-11
8.22111e-12
3.88254e-10
8.48569e-12
4.30302e-12
3.83771e-10
-3.27369e-12
-2.45594e-12
3.87876e-10
1.65135e-12
-2.31866e-12
3.84993e-10
-1.89672e-12
-3.14851e-12
3.83488e-10
6.47716e-13
-1.42363e-12
3.8022e-10
-1.09195e-12
3.04548e-10
3.83138e-14
2.11127e-12
3.04547e-10
4.34281e-14
4.55255e-12
3.80809e-10
-3.19474e-13
4.01275e-12
3.8547e-10
1.47147e-12
4.1454e-12
3.89858e-10
-1.40256e-12
-3.9418e-12
3.95714e-10
3.57924e-12
-9.86471e-12
3.98053e-10
-2.61637e-12
-3.71032e-11
4.07211e-10
1.11949e-11
-7.9748e-11
3.76272e-10
3.27814e-11
-2.57279e-10
3.17699e-10
1.50387e-10
-2.13955e-10
-3.83813e-10
3.68677e-11
-1.36816e-10
-8.1593e-10
7.92923e-12
-7.70973e-11
-4.66136e-10
9.40644e-12
-4.16015e-11
-8.52842e-10
1.27995e-11
4.09461e-12
-4.87315e-10
1.35333e-11
3.84332e-11
-7.81101e-10
7.28368e-11
8.78467e-11
-5.03876e-10
1.72379e-11
1.34624e-10
-4.77468e-10
7.59061e-12
2.08525e-10
-7.67339e-10
6.16973e-11
2.59011e-10
-3.87496e-10
4.2505e-11
6.97609e-11
3.08689e-10
1.73472e-10
3.95339e-11
3.63323e-10
2.23687e-11
1.12259e-11
4.03643e-10
1.29189e-11
5.88636e-12
3.93112e-10
-4.00206e-12
-2.95623e-12
3.92654e-10
4.06493e-12
-3.36068e-12
3.86764e-10
-1.36616e-12
-4.17707e-12
3.82762e-10
1.54193e-12
-1.91709e-12
3.78265e-10
-3.04403e-13
3.02518e-10
1.12857e-13
3.03519e-12
3.02163e-10
-6.50695e-13
6.74135e-12
3.78139e-10
-1.0353e-12
6.86595e-12
3.84589e-10
7.56305e-13
7.27072e-12
3.92676e-10
-3.22293e-12
-8.49233e-13
4.02919e-10
9.14786e-13
-9.87821e-12
4.1571e-10
-8.62721e-12
-4.07346e-11
4.29154e-10
8.91356e-12
-4.92826e-11
4.0469e-10
-1.98704e-11
-2.35928e-10
3.41268e-10
1.63077e-10
-2.96907e-10
-6.07763e-10
2.84928e-10
-1.22813e-10
-1.05553e-09
6.55056e-11
-1.3517e-10
-7.643e-10
3.10522e-10
-6.44346e-11
-1.02503e-09
1.01454e-10
-1.21656e-10
-7.55623e-10
3.25529e-10
1.73592e-10
-9.47843e-10
-1.28506e-10
9.46105e-11
-7.49701e-10
3.24806e-10
3.47678e-11
-7.39711e-10
3.22086e-10
4.10205e-10
-9.81122e-10
-1.61654e-10
2.99955e-10
-5.90437e-10
3.1319e-10
4.88766e-11
3.38552e-10
2.21215e-10
4.64022e-11
3.91529e-10
-2.57317e-11
1.23132e-11
4.2439e-10
1.33417e-11
2.85835e-12
4.11037e-10
-8.46979e-12
-5.89931e-12
3.99752e-10
1.65925e-12
-5.99253e-12
3.8992e-10
-3.0626e-12
-6.26625e-12
3.82093e-10
9.4275e-13
-2.80472e-12
3.75804e-10
-1.00085e-12
3.00392e-10
-6.79371e-13
5.34086e-12
2.97063e-10
-2.41021e-13
1.17345e-11
3.71754e-10
-9.42793e-15
1.45267e-11
3.79324e-10
2.47336e-12
1.81715e-11
3.91309e-10
-2.27721e-12
9.83463e-12
4.06704e-10
4.55184e-12
-1.06203e-11
4.3989e-10
-3.72551e-12
-6.62523e-11
4.87907e-10
-3.12085e-12
-2.67163e-10
5.8581e-10
1.97909e-11
-8.2768e-10
5.81634e-10
3.2015e-10
-4.76679e-10
-4.37468e-10
-5.21295e-10
-2.61601e-10
-9.16552e-10
-3.54055e-10
-2.83311e-11
-5.40052e-10
-4.57518e-10
-8.39544e-11
-7.95206e-10
-1.74202e-10
2.52368e-11
-4.8307e-10
-3.81743e-10
-6.41907e-11
-7.12111e-10
-1.46304e-10
7.2736e-11
-4.87883e-10
-3.98745e-10
2.92358e-10
-5.25058e-10
-4.34275e-10
5.1004e-10
-8.48135e-10
-3.50669e-10
8.45421e-10
-4.2512e-10
-5.00698e-10
2.44525e-10
5.53296e-10
3.86152e-10
7.03702e-11
5.98184e-10
-3.24993e-11
1.66742e-11
4.87222e-10
-9.13625e-12
-6.5654e-12
4.39551e-10
-5.27421e-12
-1.61634e-11
4.04713e-10
4.63688e-12
-1.32158e-11
3.89569e-10
-2.59652e-12
-1.10773e-11
3.77326e-10
2.62859e-12
-5.01308e-12
3.69822e-10
-8.23756e-14
2.95619e-10
-2.39459e-13
7.40556e-12
2.9194e-10
-2.28267e-12
1.68629e-11
3.6398e-10
-1.68299e-12
2.39273e-11
3.71353e-10
9.06595e-13
3.28734e-11
3.85831e-10
-3.46818e-12
3.18132e-11
4.05045e-10
2.71886e-12
2.30532e-11
4.62364e-10
-1.37143e-11
-1.90171e-12
5.37699e-10
-2.48376e-11
-1.74447e-10
8.12424e-10
-5.40689e-11
-6.99595e-10
8.83897e-10
2.22885e-10
-6.06317e-10
9.56305e-11
-6.26376e-10
-3.03892e-10
-7.51487e-11
-1.14383e-09
-1.07068e-10
9.07107e-11
-8.27587e-10
-5.24453e-11
7.28073e-11
-9.22636e-10
1.86873e-12
1.72291e-10
-7.09675e-10
1.43368e-11
1.00727e-10
-8.25307e-10
1.14566e-10
1.45279e-10
-7.33392e-10
3.19175e-10
8.11956e-11
-8.10862e-10
6.20476e-10
-5.91757e-11
-1.09026e-09
7.03759e-10
9.24777e-11
-6.0088e-10
1.70737e-10
8.71232e-10
2.15087e-10
3.44281e-12
8.2421e-10
-5.87323e-11
-1.98541e-11
5.36885e-10
-2.6366e-11
-2.90426e-11
4.64111e-10
-1.53716e-11
-3.14265e-11
4.03699e-10
3.39809e-12
-2.27733e-11
3.84717e-10
-3.8019e-12
-1.63101e-11
3.69679e-10
1.18426e-12
-7.11533e-12
3.62323e-10
-1.69537e-12
2.90721e-10
-2.21735e-12
1.11615e-11
2.81852e-10
-1.07301e-12
2.59431e-11
3.4893e-10
2.68409e-13
4.22843e-11
3.52308e-10
2.70325e-12
7.00113e-11
3.58597e-10
-4.93381e-13
1.0918e-10
3.60358e-10
5.51878e-12
1.94254e-10
3.78606e-10
-1.31486e-12
3.5668e-10
3.66392e-10
8.88085e-12
6.89097e-10
3.98251e-10
8.17569e-11
8.34623e-10
1.67013e-10
5.71357e-10
1.73512e-10
-5.88575e-10
1.34532e-09
2.60792e-11
-4.3539e-10
5.07675e-10
3.86983e-11
-3.92713e-10
4.70805e-10
1.8747e-11
-3.49035e-10
4.41794e-10
1.48045e-12
-3.08041e-10
4.97598e-10
-2.70424e-11
-3.33173e-10
4.62423e-10
-3.75231e-11
-3.24763e-10
4.80523e-10
-2.29689e-11
-3.99408e-10
4.66049e-10
-1.71118e-10
-4.28128e-10
5.17101e-10
-8.29032e-10
-5.89199e-10
1.33959e-09
-6.96817e-10
1.59669e-10
5.79348e-10
-3.57739e-10
4.01512e-10
8.36192e-11
-1.94627e-10
3.64936e-10
8.83706e-12
-1.07887e-10
3.7875e-10
-1.37936e-12
-6.93231e-11
3.59207e-10
5.92863e-12
-4.14719e-11
3.57503e-10
-6.36974e-13
-2.55062e-11
3.50906e-10
2.80725e-12
-1.09237e-11
3.4749e-10
2.50166e-13
2.80839e-10
-1.04157e-12
1.10351e-11
2.74101e-10
-3.28412e-12
2.54305e-11
3.3646e-10
-1.92556e-12
4.08129e-11
3.3839e-10
-1.46377e-12
6.40867e-11
3.41098e-10
-5.77495e-12
9.37633e-11
3.39072e-10
-8.39105e-12
1.48137e-10
3.45601e-10
-2.1369e-11
2.13201e-10
3.28184e-10
-2.6856e-11
3.18793e-10
3.21437e-10
-2.87787e-11
3.11503e-10
1.54801e-10
1.95025e-11
1.23958e-10
-2.24422e-10
-1.76608e-10
8.07504e-11
-1.66851e-10
-2.25332e-10
3.05447e-11
-1.55084e-10
-1.87424e-10
8.91918e-12
-1.33762e-10
-1.93648e-10
2.11846e-12
-1.18502e-10
-1.82737e-10
-1.67771e-11
-1.28469e-10
-1.85808e-10
-2.62751e-11
-1.24351e-10
-1.90914e-10
-8.05324e-11
-1.57856e-10
-1.87295e-10
-1.20199e-10
-1.64102e-10
-2.24359e-10
-3.11016e-10
-2.25889e-10
-1.72495e-10
-3.19962e-10
1.50301e-10
1.83137e-11
-2.12325e-10
3.22015e-10
-2.81398e-11
-1.48111e-10
3.27188e-10
-2.64657e-11
-9.27612e-11
3.45278e-10
-2.18784e-11
-6.35716e-11
3.381e-10
-8.08237e-12
-4.02034e-11
3.40121e-10
-5.98639e-12
-2.50748e-11
3.3719e-10
-1.41308e-12
-1.08494e-11
3.35195e-10
-1.93016e-12
2.73253e-10
-3.26376e-12
1.21376e-11
2.63627e-10
-1.66383e-12
2.78167e-11
3.20468e-10
3.129e-13
4.56859e-11
3.18862e-10
1.65849e-12
7.08808e-11
3.14277e-10
1.62703e-12
1.02646e-10
3.02814e-10
4.49265e-12
1.60959e-10
2.90483e-10
-3.19483e-12
2.26784e-10
2.50825e-10
1.1535e-11
3.80218e-10
2.00586e-10
-3.25821e-11
4.83891e-10
8.71282e-11
-3.60008e-11
2.41264e-10
-1.3674e-10
1.54945e-10
1.41416e-10
-1.16842e-10
4.98392e-11
8.43232e-11
-1.39049e-10
4.10575e-11
3.91805e-11
-1.35796e-10
4.71767e-11
1.65738e-12
-1.31667e-10
5.06878e-11
-4.41102e-11
-1.37913e-10
5.52108e-11
-8.07225e-11
-1.29333e-10
4.15945e-11
-1.41629e-10
-1.40861e-10
4.39115e-11
-2.39451e-10
-1.1476e-10
4.8481e-11
-4.82745e-10
-1.38087e-10
1.55492e-10
-3.81044e-10
8.55767e-11
-3.69767e-11
-2.26218e-10
2.00322e-10
-3.31326e-11
-1.61029e-10
2.49814e-10
1.21852e-11
-1.02048e-10
2.89917e-10
-3.62001e-12
-7.05415e-11
3.01873e-10
4.72123e-12
-4.52981e-11
3.13306e-10
1.57219e-12
-2.7569e-11
3.1776e-10
1.70137e-12
-1.20117e-11
3.19309e-10
3.28719e-13
2.62882e-10
-1.64063e-12
1.00287e-11
2.56526e-10
-2.92833e-12
2.27093e-11
3.09213e-10
-1.42539e-12
3.65947e-11
3.06939e-10
-1.96198e-12
5.34288e-11
3.0049e-10
-3.04702e-12
7.33399e-11
2.90291e-10
-7.38762e-12
9.96761e-11
2.75414e-10
-1.12674e-11
1.19657e-10
2.52814e-10
-2.19705e-11
1.35467e-10
2.19179e-10
-3.44036e-11
1.17638e-10
1.68544e-10
-6.35862e-11
9.4704e-11
2.98367e-11
-1.43643e-10
8.89244e-11
2.24629e-11
-1.33526e-10
5.40763e-11
-7.32814e-13
-1.03468e-10
2.46111e-11
-1.18125e-11
-9.45181e-11
1.11124e-12
-1.57619e-11
-9.24054e-11
-2.93357e-11
-1.90498e-11
-8.84159e-11
-5.07525e-11
-8.96716e-12
-9.89491e-11
-8.94813e-11
-2.24188e-12
-9.98902e-11
-9.27082e-11
2.32073e-11
-1.34741e-10
-1.17177e-10
2.89977e-11
-1.42616e-10
-1.35297e-10
1.67619e-10
-6.39219e-11
-1.19025e-10
2.18865e-10
-3.4816e-11
-9.95444e-11
2.52034e-10
-2.17004e-11
-7.2924e-11
2.7476e-10
-1.14634e-11
-5.31583e-11
2.89435e-10
-7.32822e-12
-3.63193e-11
2.99561e-10
-3.09449e-12
-2.25198e-11
3.05927e-10
-1.96678e-12
-9.93749e-12
3.08146e-10
-1.41999e-12
2.55865e-10
-2.92063e-12
8.708e-12
2.4891e-10
-1.09162e-12
1.96166e-11
2.97872e-10
4.32106e-13
3.19528e-11
2.93862e-10
7.40763e-13
4.62835e-11
2.83923e-10
2.23554e-12
6.50265e-11
2.70453e-10
1.0942e-12
8.71969e-11
2.47314e-10
5.92947e-12
1.17942e-10
2.21124e-10
9.44903e-13
1.49592e-10
1.72662e-10
1.4868e-11
1.85231e-10
1.2575e-10
7.15437e-12
1.42515e-10
5.70908e-11
1.54621e-11
1.10187e-10
3.01663e-11
2.46244e-11
6.42965e-11
-1.08644e-11
5.60225e-11
3.17123e-11
-2.87224e-11
4.9494e-11
5.2477e-13
-3.8342e-11
5.37677e-11
-3.17527e-11
-4.01132e-11
5.33408e-11
-6.3248e-11
-2.71761e-11
4.97042e-11
-1.1008e-10
-1.1972e-11
5.65623e-11
-1.41542e-10
3.02946e-11
2.43747e-11
-1.8517e-10
5.62169e-11
1.64091e-11
-1.49756e-10
1.24877e-10
7.32763e-12
-1.17768e-10
1.72036e-10
1.48416e-11
-8.70891e-11
2.20323e-10
1.03275e-12
-6.47882e-11
2.46551e-10
5.90823e-12
-4.60968e-11
2.69599e-10
1.14477e-12
-3.17789e-11
2.83006e-10
2.23767e-12
-1.94883e-11
2.92898e-10
7.38946e-13
-8.64858e-12
2.96864e-10
4.42229e-13
2.48301e-10
-1.08433e-12
5.92789e-12
2.45042e-10
-2.06016e-12
1.33416e-11
2.91853e-10
-1.39468e-12
2.12535e-11
2.87983e-10
-2.03277e-12
2.90868e-11
2.78309e-10
-2.21944e-12
3.86138e-11
2.6697e-10
-6.04358e-12
4.65106e-11
2.47092e-10
-7.67437e-12
5.5497e-11
2.28649e-10
-1.65115e-11
5.42159e-11
1.94278e-10
-2.03355e-11
4.94007e-11
1.69019e-10
-3.84537e-11
3.45819e-11
1.15588e-10
-4.36788e-11
2.56692e-11
8.70147e-11
-4.79357e-11
1.5243e-11
4.78975e-11
-4.83357e-11
7.06107e-12
2.92696e-11
-4.98101e-11
2.58344e-13
2.23019e-11
-5.38412e-11
-8.11847e-12
2.14519e-11
-5.31882e-11
-1.4402e-11
2.98989e-11
-5.07915e-11
-2.56659e-11
4.68793e-11
-4.75874e-11
-3.39949e-11
8.69282e-11
-4.83046e-11
-4.90608e-11
1.14759e-10
-4.34757e-11
-5.39401e-11
1.68381e-10
-3.8625e-11
-5.5242e-11
1.93645e-10
-2.03076e-11
-4.6348e-11
2.27918e-10
-1.64895e-11
-3.84178e-11
2.46337e-10
-7.71659e-12
-2.89249e-11
2.66156e-10
-6.05042e-12
-2.11204e-11
2.77428e-10
-2.22685e-12
-1.32441e-11
2.87065e-10
-2.04319e-12
-5.88477e-12
2.90894e-10
-1.38895e-12
2.4447e-10
-2.05395e-12
3.02126e-12
4.36029e-13
6.75172e-12
7.47771e-13
1.09118e-11
7.71952e-13
1.53112e-11
1.44568e-12
2.11413e-11
1.02258e-12
2.70592e-11
3.04877e-12
3.58641e-11
2.82893e-12
4.34014e-11
8.35244e-12
5.31284e-11
1.07524e-11
4.82509e-11
2.41092e-11
4.43498e-11
2.44368e-11
3.16754e-11
2.9125e-11
1.74572e-11
2.97848e-11
1.99751e-13
3.5927e-11
-1.72831e-11
3.61567e-11
-3.13364e-11
2.96871e-11
-4.43101e-11
2.92149e-11
-4.8093e-11
2.44451e-11
-5.31247e-11
2.42769e-11
-4.34105e-11
1.08602e-11
-3.58151e-11
8.42109e-12
-2.70048e-11
2.88609e-12
-2.10694e-11
3.07242e-12
-1.5244e-11
1.0383e-12
-1.08559e-11
1.45407e-12
-6.70991e-12
7.72486e-13
-3.00281e-12
7.52505e-13
4.38137e-13
2.42034e-10
-7.33509e-10
2.21852e-09
-4.20364e-11
-7.0547e-10
3.44207e-09
-1.76329e-10
-8.27566e-10
3.40224e-09
-2.62997e-10
-8.61533e-10
3.38752e-09
-3.39499e-10
-8.44322e-10
3.32412e-09
-4.08624e-10
-8.07933e-10
3.23123e-09
-4.61788e-10
-7.63218e-10
3.10181e-09
-4.88352e-10
-7.1715e-10
2.95576e-09
-4.85922e-10
-6.72968e-10
2.81043e-09
-4.3765e-10
-6.47355e-10
2.67513e-09
-3.61017e-10
-6.07265e-10
2.54604e-09
-2.61742e-10
-5.71428e-10
2.4379e-09
-1.45977e-10
-5.45002e-10
2.36151e-09
-3.08887e-11
-5.18155e-10
2.31457e-09
9.0316e-11
-5.2094e-10
2.30998e-09
2.08265e-10
-5.41189e-10
2.35229e-09
3.12774e-10
-5.69033e-10
2.42683e-09
4.26394e-10
-6.32453e-10
2.53064e-09
5.0186e-10