/*--------------------------------*- C++ -*----------------------------------*\
| =========                 |                                                 |
| \\      /  F ield         | OpenFOAM: The Open Source CFD Toolbox           |
|  \\    /   O peration     | Version:  2.3.0                                 |
|   \\  /    A nd           | Web:      www.OpenFOAM.org                      |
|    \\/     M anipulation  |                                                 |
\*---------------------------------------------------------------------------*/
FoamFile
{
    version     2.0;
    format      ascii;
    class       volVectorField;
    location    "0.199823";
    object      U.air;
}
// * * * * * * * * * * * * * * * * * * * * * * * * * * * * * * * * * * * * * //

dimensions      [0 1 -1 0 0 0 0];

internalField   nonuniform List<vector> 
18816
(
(0.0016837 -0.0114751 0.00104743)
(0.00094683 -0.0123304 0.0015989)
(-0.00112571 -0.0129992 0.00158198)
(-0.00157599 -0.0133684 0.00159693)
(-0.00220772 -0.0133815 0.0015802)
(-0.0027352 -0.0133102 0.00155488)
(-0.00320765 -0.0131796 0.00151738)
(-0.00350488 -0.0130388 0.00147321)
(-0.00360665 -0.01293 0.00142998)
(-0.00341305 -0.0128733 0.00139014)
(-0.00292168 -0.0127199 0.00134981)
(-0.00227289 -0.0125649 0.00131489)
(-0.00147303 -0.012437 0.00128949)
(-0.000635521 -0.012315 0.00127373)
(0.000207387 -0.0123232 0.00127233)
(0.00108647 -0.012412 0.00128651)
(0.00187413 -0.0125479 0.00131266)
(0.00268818 -0.0128326 0.00134816)
(0.00344721 -0.0129454 0.00138534)
(0.00378083 -0.0129533 0.00142482)
(0.00373066 -0.0130233 0.00146773)
(0.00343015 -0.0131445 0.00151294)
(0.00292063 -0.0132765 0.00155339)
(0.00234703 -0.0133567 0.00157999)
(0.00167682 -0.0133519 0.0015975)
(0.00119013 -0.0129907 0.00158319)
(-0.000911166 -0.0123256 0.00160107)
(-0.00167 -0.0114716 0.00104942)
(-0.000543666 -0.0133207 0.00165027)
(-0.00118905 -0.0186215 0.0013954)
(-0.00130372 -0.019973 0.00135746)
(-0.0014207 -0.0198507 0.00133576)
(-0.00169722 -0.0191924 0.00130985)
(-0.00204726 -0.0182582 0.0012709)
(-0.00237448 -0.0170808 0.00120783)
(-0.00263135 -0.0157832 0.00111361)
(-0.00282103 -0.0145128 0.00103988)
(-0.00269545 -0.0134204 0.000929439)
(-0.00228195 -0.0123043 0.000852166)
(-0.00177734 -0.0113984 0.000784433)
(-0.00113336 -0.0107891 0.000731685)
(-0.00048709 -0.0103697 0.000718202)
(0.000147602 -0.0103682 0.000705438)
(0.000842524 -0.0107071 0.00072236)
(0.00140005 -0.011271 0.000769941)
(0.00207785 -0.0123146 0.000789967)
(0.00282217 -0.0132825 0.000889146)
(0.00305264 -0.0143446 0.00101899)
(0.00286686 -0.015626 0.00110844)
(0.00255963 -0.0169614 0.00121026)
(0.00218425 -0.0182042 0.00127513)
(0.00180153 -0.019185 0.00131643)
(0.00149545 -0.0198671 0.0013418)
(0.00135018 -0.0200004 0.00136276)
(0.00121931 -0.018666 0.00139784)
(0.000559781 -0.0133547 0.00165657)
(-0.000280567 -0.0193843 -0.00129548)
(4.70761e-06 -0.0187008 -0.00148509)
(3.91581e-05 -0.018807 -0.00149366)
(-0.000532324 -0.0185139 -0.00147815)
(-0.000786941 -0.018042 -0.00145093)
(-0.000941408 -0.0174413 -0.00141034)
(-0.00102052 -0.0167542 -0.00133405)
(-0.00105513 -0.0159008 -0.00120894)
(-0.000967346 -0.0149268 -0.00113039)
(-0.000882402 -0.0139537 -0.00103361)
(-0.000790223 -0.013 -0.000962014)
(-0.000649355 -0.0122154 -0.00090346)
(-0.000473221 -0.0116631 -0.000861002)
(-0.000259418 -0.0113267 -0.000845773)
(-4.24573e-05 -0.0112736 -0.000839032)
(0.000199996 -0.0115119 -0.000856428)
(0.000428342 -0.0119781 -0.000891861)
(0.000646396 -0.0127912 -0.000930297)
(0.000861001 -0.0137163 -0.00101035)
(0.00101382 -0.014736 -0.00111362)
(0.00114025 -0.0157616 -0.00120274)
(0.00113142 -0.0166521 -0.0013312)
(0.00104864 -0.0173748 -0.00140007)
(0.000879302 -0.0180088 -0.0014433)
(0.000602699 -0.0185087 -0.00147522)
(1.08121e-05 -0.0188216 -0.00149994)
(2.59951e-05 -0.0187247 -0.0014898)
(0.000291432 -0.019425 -0.00129985)
(-0.000604065 0.00166512 -0.000162275)
(-0.000757546 0.00197461 -0.000395842)
(-0.000334327 0.00159658 -0.000391548)
(-0.000511437 0.00154196 -0.000382691)
(-0.000587819 0.00156837 -0.000365196)
(-0.000661028 0.00161609 -0.000345662)
(-0.000688525 0.00162891 -0.000320618)
(-0.00067938 0.00155442 -0.000289555)
(-0.000628512 0.00140224 -0.000250187)
(-0.000576386 0.00111531 -0.000196401)
(-0.000498745 0.000977862 -0.000158699)
(-0.000432012 0.000883212 -0.000128387)
(-0.000310747 0.00079941 -0.000111599)
(-0.000172577 0.000845741 -0.000118863)
(-6.01838e-05 0.000821954 -0.000124872)
(0.000107553 0.000754012 -0.000116476)
(0.000138 0.000809968 -0.000129768)
(0.000291413 0.000532866 -0.000128103)
(0.000586835 0.000800321 -0.000169223)
(0.000689217 0.00129347 -0.000236156)
(0.000770308 0.00154409 -0.000282033)
(0.000787253 0.00168483 -0.000315717)
(0.000751033 0.00168138 -0.000342614)
(0.000666348 0.00163142 -0.000363163)
(0.000572797 0.00159601 -0.000381754)
(0.000377323 0.00164583 -0.000391513)
(0.000780837 0.00201874 -0.000397468)
(0.000610442 0.00170071 -0.000164231)
(-0.000276184 0.0022933 -1.90476e-05)
(-0.000412571 0.00308072 -4.99874e-05)
(-0.000362639 0.00298319 -3.84161e-05)
(-0.000538292 0.00294556 -3.99759e-05)
(-0.000676997 0.00285296 -3.64225e-05)
(-0.00082202 0.00270443 -3.49833e-05)
(-0.000973823 0.00247846 -3.07864e-05)
(-0.00110585 0.00211799 -3.00545e-05)
(-0.00121166 0.00169801 -2.91989e-05)
(-0.00116238 0.00108389 -3.02819e-05)
(-0.000941306 0.000701057 -2.4535e-05)
(-0.000785917 0.000419806 -2.56045e-05)
(-0.000529469 0.000139153 -3.04046e-05)
(-0.00029352 0.000212639 -3.15237e-05)
(-0.000135291 0.00012009 -3.29591e-05)
(0.000226381 0.000220023 -3.61458e-05)
(0.000251916 0.000469408 -2.72348e-05)
(0.00062849 -0.000156303 -3.96249e-05)
(0.00143448 0.000523166 -3.35746e-05)
(0.00153917 0.00153061 -2.91671e-05)
(0.00135055 0.0021078 -3.29155e-05)
(0.0011659 0.00257429 -3.14726e-05)
(0.000948878 0.00282237 -3.63976e-05)
(0.00076855 0.00297625 -3.73744e-05)
(0.000599777 0.00305674 -4.10273e-05)
(0.000403134 0.00308256 -3.91915e-05)
(0.000435807 0.00317077 -5.07951e-05)
(0.000283662 0.00237304 -1.9093e-05)
(-0.000164879 0.00232598 3.03715e-06)
(-0.000336077 0.00285761 -7.37398e-06)
(-0.000418668 0.00279543 -3.83834e-06)
(-0.000584319 0.00274704 -5.54334e-06)
(-0.000758301 0.00264509 -3.73849e-06)
(-0.000946179 0.0024693 -4.17993e-06)
(-0.00117141 0.00222061 -1.71164e-06)
(-0.00137172 0.00177963 -4.30506e-07)
(-0.00158798 0.00117773 6.29797e-06)
(-0.00151633 0.000234261 3.23255e-06)
(-0.00110256 -0.000276489 5.09749e-06)
(-0.000935372 -0.000539875 1.13436e-05)
(-0.000502362 -0.000861125 1.11114e-05)
(-0.000195949 -0.000775885 1.84283e-05)
(-5.43406e-05 -0.000922202 1.84197e-05)
(0.000431015 -0.000923166 1.54139e-05)
(-0.000193088 -0.000659989 2.18035e-05)
(0.000431312 -0.00158194 -1.3393e-05)
(0.00216344 -0.000543776 -1.9787e-05)
(0.00216767 0.00116844 7.05865e-06)
(0.00171974 0.0018663 -2.14387e-06)
(0.001397 0.00240514 4.38184e-07)
(0.00105844 0.0026386 -3.91244e-06)
(0.000825131 0.00280134 -2.8204e-06)
(0.0006191 0.00287968 -5.06319e-06)
(0.000438524 0.00291099 -3.40054e-06)
(0.000345708 0.00296044 -7.17064e-06)
(0.000167652 0.00241449 3.31058e-06)
(-0.00011039 0.00253599 2.65624e-06)
(-0.000300722 0.00299544 -1.67289e-06)
(-0.000472351 0.00299504 -7.51802e-07)
(-0.000684204 0.00299083 -2.88699e-06)
(-0.000955221 0.00296127 -3.13437e-06)
(-0.00126496 0.00287991 -8.19181e-06)
(-0.00170749 0.00273369 -7.68083e-06)
(-0.00220066 0.00242291 -1.91008e-05)
(-0.00276722 0.00188461 -2.64512e-05)
(-0.00268979 0.000656541 -3.41195e-05)
(-0.00174606 1.13842e-05 -2.60471e-05)
(-0.00135597 -6.32495e-05 -2.35809e-05)
(-0.000803973 -0.000657876 -3.7212e-05)
(-0.000376361 -0.000120097 -2.99375e-05)
(-0.000218449 -0.000500956 -3.55383e-05)
(0.000534585 0.000292145 -4.19604e-05)
(-0.000269034 0.000760746 -1.72026e-05)
(0.00130038 -0.00147166 -0.000129858)
(0.00427556 0.000232255 -6.32427e-05)
(0.00391823 0.00248264 -2.57804e-05)
(0.00268433 0.00288474 -3.37471e-05)
(0.00201029 0.0031878 -1.13955e-05)
(0.00137993 0.00319312 -1.26345e-05)
(0.0010179 0.00319964 -4.77228e-06)
(0.000707225 0.00316579 -4.41815e-06)
(0.000484112 0.00313345 -1.50764e-06)
(0.000304855 0.00311116 -2.28211e-06)
(0.000111736 0.0026345 2.48758e-06)
(-8.11561e-05 0.0027362 2.80599e-06)
(-0.000260519 0.00321195 1.55712e-07)
(-0.000441741 0.00324829 6.20207e-07)
(-0.000634763 0.00328347 2.69717e-07)
(-0.000889936 0.0033257 1.87709e-06)
(-0.00118095 0.0033182 9.99783e-07)
(-0.00163951 0.0033329 5.14213e-07)
(-0.00232871 0.00305735 3.8835e-06)
(-0.00348223 0.00244755 4.04182e-07)
(-0.00355213 -0.000300448 -2.53698e-05)
(-0.00208274 -0.00178269 -4.97893e-06)
(-0.00148457 -0.00149413 -4.39731e-06)
(-0.000727531 -0.00267958 2.52672e-05)
(-5.8172e-05 -0.00170292 -3.89403e-06)
(0.000436516 -0.00254254 3.11867e-05)
(0.00143259 -0.00173536 5.20355e-06)
(-0.000701974 -0.00112969 2.04339e-05)
(0.00238129 -0.0049707 -0.00022218)
(0.006443 -0.000732783 -6.07344e-05)
(0.00457203 0.00400166 5.24762e-05)
(0.00242017 0.00400513 -8.40005e-06)
(0.00168819 0.00401009 7.56626e-06)
(0.00106842 0.00372104 1.82444e-08)
(0.000818884 0.00358774 3.31792e-06)
(0.000571198 0.0034592 8.43864e-07)
(0.000403604 0.00338116 1.38098e-06)
(0.000237674 0.00332081 5.66445e-07)
(7.47119e-05 0.00282718 3.18408e-06)
(-6.57267e-05 0.00289231 2.07135e-06)
(-0.000232434 0.00341825 -2.30979e-07)
(-0.000423784 0.0034844 -5.9028e-07)
(-0.000628052 0.0035671 -3.30009e-06)
(-0.000955296 0.00371152 -4.22443e-06)
(-0.00135764 0.00396079 -1.51469e-05)
(-0.00221003 0.00452592 -1.57855e-05)
(-0.00339843 0.00527715 -5.23791e-05)
(-0.00590651 0.00549957 -1.80798e-05)
(-0.00687288 0.00247803 -0.000137896)
(-0.00392987 0.00077478 -0.000282675)
(-0.0026078 0.00224112 -0.00017885)
(-0.00143707 -0.00049326 -0.000330795)
(-0.000290916 0.00268836 -0.000172477)
(0.00055895 -0.00032729 -0.000314581)
(0.00226222 0.00463381 -0.000277507)
(-0.000269218 0.00530031 -0.000168097)
(0.00606285 0.00362272 -0.00121528)
(0.0118656 0.00383748 -0.000178625)
(0.00724678 0.00782014 0.000157267)
(0.00236046 0.00635888 -1.77025e-05)
(0.00175071 0.00525766 1.05345e-06)
(0.000977916 0.00430266 -1.43675e-05)
(0.00078042 0.00393163 -3.75909e-06)
(0.000519081 0.00371317 -4.52244e-06)
(0.000368188 0.00359593 -1.1128e-06)
(0.000202207 0.00350984 -7.75801e-07)
(5.7891e-05 0.00296807 1.63836e-06)
(-4.74437e-05 0.00303741 1.65101e-06)
(-0.000175513 0.00363671 -2.89538e-07)
(-0.000323038 0.00375963 -7.5661e-07)
(-0.000446932 0.00394444 -3.05836e-06)
(-0.000624354 0.004311 -3.91038e-06)
(-0.000733341 0.00485437 -7.36099e-06)
(-0.00102725 0.00588602 7.36753e-06)
(-0.00123192 0.00683888 4.49657e-05)
(-0.002937 0.00665153 0.000198177)
(-0.00331341 0.000544354 0.000270486)
(-0.00306713 -0.00367211 0.000258509)
(-0.00160809 0.00183385 0.000217997)
(-0.000741288 -0.00415894 0.000240812)
(0.000278705 0.00245509 0.000241262)
(0.00225954 -0.00398584 0.000228233)
(0.00241947 0.00382972 0.00025949)
(0.00897825 0.00392931 0.000235336)
(0.00603344 -0.00354905 0.0020568)
(-0.00435531 0.000910311 0.000445591)
(0.000747913 0.00620776 0.000398583)
(-0.00146701 0.00655104 2.56681e-05)
(0.00041119 0.00561459 1.26368e-05)
(0.000178351 0.004781 -6.25385e-06)
(0.000385857 0.00431039 1.00966e-07)
(0.000282266 0.00398511 -1.40232e-06)
(0.000234088 0.00381171 6.8692e-07)
(0.000126096 0.00369173 3.05451e-07)
(3.44569e-05 0.00308544 2.00184e-06)
(-2.34156e-05 0.00311185 2.08793e-06)
(-8.29398e-05 0.00376051 4.58131e-07)
(-0.000154824 0.00387611 1.23504e-06)
(-0.0001244 0.00403084 -6.81059e-07)
(-0.00010757 0.00432338 1.67526e-06)
(0.000299095 0.00467833 -5.53232e-07)
(0.000633038 0.00520242 2.60966e-05)
(0.00166582 0.0050826 9.98153e-05)
(0.000273272 0.00280038 0.000287628)
(-2.52423e-05 -0.00365637 0.000172156)
(-0.00100854 -0.00596457 0.000264066)
(-0.000224312 -0.00339501 9.61534e-05)
(-0.000455655 -0.00588307 0.000276088)
(-0.00020758 -0.00337868 7.2426e-05)
(0.000255145 -0.00600998 0.000262798)
(-0.000765758 -0.00390548 6.11516e-05)
(0.00261749 -0.00421826 5.25963e-05)
(0.00124514 -0.0111542 0.000208754)
(-0.00184539 -0.00481405 8.44234e-05)
(-0.000205992 0.000387677 7.58868e-05)
(-0.00123751 0.00468004 6.24751e-05)
(-0.0005028 0.0047308 7.64021e-06)
(-0.000318451 0.00452108 -6.66211e-06)
(5.43599e-05 0.00424199 -6.05985e-07)
(6.24616e-05 0.00401123 -2.44462e-06)
(0.000111696 0.00388213 4.31881e-07)
(5.57576e-05 0.0037807 -1.19085e-07)
(1.64033e-05 0.00313252 1.47623e-06)
(-1.29845e-05 0.00314074 8.5558e-07)
(-3.9636e-05 0.00382194 -6.46314e-07)
(-8.58728e-05 0.00390454 -3.27044e-07)
(-2.66642e-05 0.00399878 -3.51146e-06)
(-1.08972e-05 0.00413487 -2.9936e-06)
(0.000320597 0.00426057 -1.16473e-05)
(0.000558086 0.00419198 -5.50862e-06)
(0.00106948 0.00358672 1.78864e-05)
(-0.000482712 0.000792615 3.6364e-05)
(-0.000237707 -0.00210516 -9.67858e-05)
(-0.000500198 -0.00720536 -5.2746e-06)
(-0.000163921 -0.00170406 -9.87205e-05)
(-9.58686e-05 -0.00720632 -7.47737e-06)
(2.37702e-05 -0.00139344 -9.16743e-05)
(0.000504214 -0.0069728 -5.34548e-06)
(-2.0001e-05 -0.00118789 -8.18077e-05)
(0.00184026 -0.00120992 -7.89453e-05)
(0.000515546 -0.00762595 3.77287e-05)
(-0.000832363 -0.00184993 -6.80568e-05)
(4.4643e-05 0.00142863 4.24132e-05)
(-0.00139446 0.00369823 2.85252e-05)
(-0.00066326 0.00412505 4.20213e-06)
(-0.000447719 0.00421039 -8.05917e-06)
(-7.62402e-05 0.00409213 4.99628e-07)
(-4.62615e-05 0.00398331 -2.13439e-06)
(3.88451e-05 0.00390151 1.69011e-07)
(1.09514e-05 0.00382821 -2.83288e-07)
(5.45155e-06 0.00314755 1.08677e-06)
(-1.99151e-06 0.00314696 1.22009e-06)
(4.56717e-06 0.00385633 2.62339e-07)
(-1.37124e-05 0.00391682 6.89987e-07)
(7.52842e-05 0.00397876 -7.25871e-07)
(0.000100668 0.00404423 3.31942e-06)
(0.000400681 0.00409989 -3.39895e-06)
(0.000550454 0.00399345 7.85161e-06)
(0.00101166 0.00358071 1.39872e-05)
(0.000181565 0.00186273 2.94311e-05)
(-0.00021566 -0.00496002 -6.11513e-06)
(-0.000278732 -0.0066135 1.22359e-05)
(-0.00019512 -0.00492354 2.7662e-06)
(-0.000122532 -0.00661193 1.09482e-05)
(3.4528e-06 -0.00486079 4.22461e-06)
(0.000235986 -0.00650256 8.76352e-06)
(9.44728e-05 -0.00510617 5.54991e-06)
(0.000684246 -0.00530719 -4.82872e-06)
(0.000162069 -0.00741661 -5.03953e-07)
(-0.000467281 -0.00534915 -7.34055e-06)
(-0.000382552 0.00149728 -1.99525e-05)
(-0.000861863 0.00342236 5.04857e-06)
(-0.000525024 0.00379053 8.74606e-07)
(-0.000392457 0.0039945 -5.6768e-06)
(-0.000123739 0.00396328 1.81889e-06)
(-9.9597e-05 0.00393571 -1.68983e-06)
(-8.77108e-06 0.00389073 5.89492e-07)
(-1.90848e-05 0.003843 -2.43185e-08)
(-1.75105e-06 0.00313781 9.32272e-07)
(1.1036e-06 0.00313045 4.7081e-07)
(1.81556e-05 0.00385627 -3.26729e-07)
(5.06733e-06 0.00389155 1.98051e-07)
(8.0705e-05 0.00391546 -2.17022e-06)
(7.61295e-05 0.00391106 1.01375e-06)
(0.000281007 0.00389077 -6.89844e-06)
(0.00030835 0.0037011 1.01253e-06)
(0.00055603 0.00338294 -6.0902e-06)
(0.000147827 0.00214729 -1.02675e-05)
(-0.000249232 -0.00116318 -4.17791e-06)
(-0.000224175 -0.00665684 -1.86063e-06)
(-0.000192882 -0.00161211 2.42277e-06)
(-8.65944e-05 -0.00679598 -2.20505e-06)
(0.000108598 -0.00160093 1.74067e-06)
(0.000236458 -0.00661148 -1.0684e-06)
(0.000350809 -0.00147381 3.07558e-06)
(0.000390639 -0.00142547 5.28874e-06)
(9.90208e-05 -0.00664635 4.91009e-06)
(-0.000294446 -0.00115225 -4.84454e-06)
(-0.000414903 0.002324 -1.42543e-05)
(-0.000503698 0.00335827 -6.77283e-06)
(-0.000318292 0.00365393 6.4365e-07)
(-0.000275551 0.00384087 -5.31684e-06)
(-9.79673e-05 0.0038669 1.45763e-06)
(-9.74685e-05 0.00388277 -1.92128e-06)
(-2.19393e-05 0.00386705 4.8679e-07)
(-2.85002e-05 0.00383845 -3.64687e-07)
(-3.85382e-06 0.0031163 5.03708e-07)
(3.25358e-06 0.00311463 4.70924e-07)
(2.64017e-05 0.00385607 -2.90568e-07)
(1.45662e-05 0.00388259 7.13248e-07)
(7.62769e-05 0.00389402 -1.60535e-06)
(4.34094e-05 0.0038784 2.29414e-06)
(0.000177059 0.00384828 -4.48411e-06)
(0.000103867 0.00370547 4.70492e-06)
(0.000230533 0.00351175 -3.97193e-06)
(-0.000151017 0.00251849 4.30257e-06)
(-0.000634999 -0.00440179 7.25939e-07)
(-0.000421606 -0.00665191 -9.00836e-06)
(-0.000345978 -0.00466276 6.88846e-06)
(-0.000153318 -0.00679418 -1.24692e-05)
(0.000155535 -0.00470039 7.78059e-06)
(0.000201259 -0.00658497 -1.6266e-05)
(0.00035038 -0.00474763 4.67358e-06)
(0.000452464 -0.00472068 1.92875e-06)
(0.000308336 -0.00658861 -1.1827e-05)
(0.000144933 -0.00446368 -1.82885e-06)
(-1.8935e-05 0.00259889 -4.63615e-06)
(-0.000199971 0.00345964 -6.97492e-06)
(-0.000116004 0.00366123 2.72539e-06)
(-0.000165296 0.00379098 -4.44036e-06)
(-5.27978e-05 0.00383413 1.90729e-06)
(-8.18336e-05 0.003856 -1.75127e-06)
(-2.27134e-05 0.00385302 7.43463e-07)
(-3.14815e-05 0.00383192 -3.78041e-07)
(-4.4335e-06 0.00309541 3.89874e-07)
(4.23397e-06 0.00309611 1.19235e-07)
(2.94875e-05 0.00384599 -3.72693e-07)
(1.52713e-05 0.00387112 8.46263e-07)
(6.28326e-05 0.00387545 -1.39747e-06)
(7.18458e-06 0.00386298 2.02676e-06)
(9.2679e-05 0.00381754 -3.48191e-06)
(-1.52609e-07 0.00371485 2.70779e-06)
(0.000102797 0.00345952 -1.50873e-05)
(0.000992866 0.00275577 -1.39248e-05)
(-0.000410502 -0.00224151 0.000221939)
(-0.00034187 -0.00704505 -5.42307e-06)
(-0.000340576 -0.00340687 0.000257499)
(-0.000210484 -0.00743231 -1.11729e-05)
(0.000299804 -0.00356627 0.000255448)
(0.00020741 -0.00660923 -1.87565e-05)
(0.00114305 -0.00331206 0.000237034)
(-0.000320146 -0.00302603 0.000239614)
(0.00021675 -0.00611704 -1.72161e-05)
(-0.000105446 -0.00214118 0.000216662)
(-0.00117567 0.00284542 -2.70961e-05)
(-0.000111361 0.00339322 -1.65114e-05)
(-1.04964e-05 0.0036887 2.16361e-06)
(-8.68423e-05 0.00376682 -3.35561e-06)
(-9.65915e-06 0.0038273 2.07138e-06)
(-6.48673e-05 0.00384027 -1.42106e-06)
(-1.83551e-05 0.00384262 8.8139e-07)
(-3.16898e-05 0.00382036 -3.86953e-07)
(-4.65939e-06 0.00307607 9.34872e-08)
(3.86365e-06 0.00308293 5.86308e-08)
(3.0515e-05 0.0038413 -8.29016e-07)
(1.50614e-05 0.00387236 5.73686e-07)
(5.22341e-05 0.00388572 -1.68747e-06)
(-3.41591e-05 0.00389447 1.43108e-06)
(6.78961e-06 0.00386327 -3.26916e-06)
(-0.000257784 0.00382007 6.83629e-06)
(-0.000258249 0.00351523 7.76906e-06)
(-0.0022563 0.00273219 8.5968e-05)
(-0.00210328 -0.00293747 -0.000248014)
(-0.00140615 -0.00733316 1.06183e-05)
(-0.000600042 -0.00424596 -0.000262252)
(-0.000358158 -0.00808849 1.52797e-06)
(0.00104477 -0.00456135 -0.000271054)
(0.000350378 -0.00754516 0.000262985)
(-0.00152833 -0.00439119 -0.000267936)
(0.00293425 -0.00420324 -0.000255242)
(0.00114302 -0.00694634 0.000264994)
(0.000648734 -0.00285446 -0.000243622)
(0.0019946 0.00286849 7.06002e-05)
(0.000220888 0.00341696 2.69538e-06)
(0.000268045 0.00379158 6.97472e-06)
(-4.657e-06 0.00380719 -3.43285e-06)
(3.96746e-05 0.00386046 1.55945e-06)
(-5.18981e-05 0.00385011 -1.61502e-06)
(-1.37632e-05 0.00384384 6.24148e-07)
(-3.09174e-05 0.00381508 -8.43636e-07)
(-3.26621e-06 0.00306243 5.17836e-08)
(6.21518e-06 0.00306462 2.81446e-08)
(4.12942e-05 0.00382626 -3.79342e-07)
(3.04485e-05 0.0038644 1.20088e-06)
(7.29981e-05 0.00389374 -1.18521e-06)
(-3.6233e-05 0.0039333 3.35198e-06)
(9.13155e-06 0.00392739 -1.93345e-06)
(-0.000310299 0.00399565 1.03041e-05)
(-0.000238686 0.00373549 7.02411e-06)
(-0.00181171 0.00300825 5.14779e-05)
(-0.00278286 -0.00404871 1.99013e-05)
(-0.0016581 -0.00729151 3.17348e-06)
(-0.00104286 -0.00473764 1.27088e-05)
(-0.000585701 -0.00795638 1.09836e-06)
(-0.000185901 -0.00506381 8.60464e-06)
(0.000194079 -0.00546808 -2.72511e-05)
(0.000685824 -0.00534995 1.30793e-05)
(0.00109422 -0.00516806 -1.86505e-06)
(0.00152392 -0.00518513 -1.59219e-05)
(0.00286936 -0.0039683 2.93596e-05)
(0.00171276 0.00290705 7.78818e-05)
(0.000182917 0.00362089 5.46424e-07)
(0.000357323 0.00396859 1.18934e-05)
(-8.64056e-06 0.00387599 -3.13773e-06)
(5.49948e-05 0.00390327 3.73056e-06)
(-7.03009e-05 0.00386154 -1.24397e-06)
(-2.40943e-05 0.00383743 1.23189e-06)
(-3.972e-05 0.0038011 -4.18189e-07)
(-5.05025e-06 0.0030445 3.86667e-08)
(9.42646e-06 0.00304441 -6.5128e-07)
(5.78968e-05 0.00380713 -1.21043e-06)
(5.63284e-05 0.00386436 4.33563e-07)
(0.000110479 0.00392871 -2.95588e-06)
(-2.1163e-05 0.00401335 1.33838e-06)
(5.70474e-05 0.00408462 -6.41929e-06)
(-0.000376856 0.00418228 9.50648e-06)
(-0.000171764 0.00386033 -1.48334e-05)
(-0.00120816 0.00337953 8.20715e-05)
(-0.00333861 -0.00479346 0.000181588)
(-0.00202783 -0.00982717 -1.65663e-05)
(-0.00115834 -0.00607621 0.000176882)
(-0.000823942 -0.00983391 -6.15736e-06)
(-0.00128086 -0.00613507 0.000168348)
(8.71072e-05 -0.0102591 -0.000262392)
(0.00223225 -0.00617527 0.000147216)
(-0.000452215 -0.00590524 0.000173003)
(0.00207637 -0.0103066 -0.000269779)
(0.00472683 -0.00488173 0.000197381)
(0.00134701 0.0033441 0.000101151)
(0.000119622 0.00370182 -1.92294e-05)
(0.000458561 0.00413251 1.30767e-05)
(-5.86168e-05 0.00403349 -6.66588e-06)
(4.68389e-05 0.00398249 1.94807e-06)
(-0.000106747 0.0039002 -2.94044e-06)
(-4.81217e-05 0.00383942 5.73741e-07)
(-5.55932e-05 0.00378394 -1.22363e-06)
(-8.35527e-06 0.003027 -6.50818e-07)
(2.0316e-05 0.00300384 -3.50982e-07)
(9.38594e-05 0.00375746 -4.25803e-07)
(0.000120248 0.00382736 1.50547e-06)
(0.000204788 0.00392241 -2.19424e-06)
(9.26638e-05 0.004039 4.29552e-06)
(0.000177722 0.00421382 -1.89559e-06)
(-0.0005067 0.00444304 6.95676e-06)
(-0.000486782 0.0043396 -6.45103e-06)
(-0.00638604 0.00372376 0.000146178)
(-0.0074877 -0.00466833 -0.000664595)
(-0.00345327 -0.00957731 -0.000467362)
(-0.000897385 -0.00628438 -0.000646386)
(-0.000491583 -0.00932051 -0.000346146)
(-0.000267837 -0.0062585 -0.000595452)
(2.13286e-05 -0.00811863 -0.000325027)
(-0.000600241 -0.00606973 -0.000612145)
(0.00194729 -0.00599839 -0.000620655)
(0.00353979 -0.00836904 -0.000473366)
(0.00786841 -0.00435776 -0.000644103)
(0.0063199 0.00355442 0.000182365)
(0.000256033 0.00432752 -3.80656e-05)
(0.000667721 0.00441836 6.30816e-06)
(-0.000164557 0.00418709 -3.4752e-06)
(-5.21415e-05 0.00401317 4.49718e-06)
(-0.000196929 0.00390087 -2.57577e-06)
(-0.000108997 0.00380625 1.639e-06)
(-9.01862e-05 0.00373767 -5.09886e-07)
(-1.88189e-05 0.00298956 -3.37811e-07)
(2.90495e-05 0.00295846 -1.9284e-06)
(0.000127078 0.00369648 -1.98796e-06)
(0.000191391 0.00377847 -2.29256e-09)
(0.000319339 0.00392714 -4.02607e-06)
(0.000273152 0.00413346 1.29966e-06)
(0.000459612 0.00468565 -1.35602e-05)
(-0.000164509 0.00549833 -1.4204e-05)
(0.000360495 0.00798757 -9.44271e-05)
(-0.00488211 0.00885435 -6.55403e-05)
(-0.00777951 -0.00357246 -0.000727151)
(-0.00448088 -0.00749021 -0.00117889)
(-0.00154105 -0.00409745 -0.00100964)
(-0.0007572 -0.00512325 -0.00108378)
(-0.000137465 -0.00292808 -0.000920019)
(4.29113e-05 -0.00457326 -0.000996168)
(0.000360518 -0.00326993 -0.000928067)
(0.0018822 -0.00410457 -0.000991919)
(0.00456925 -0.00720946 -0.00113776)
(0.00789213 -0.00358749 -0.000702817)
(0.00488408 0.0086063 -7.25209e-05)
(-0.000424834 0.00815316 -9.69173e-05)
(0.000236746 0.00549677 -1.39743e-05)
(-0.000456402 0.0047005 -1.48113e-05)
(-0.000242216 0.00411944 1.95217e-06)
(-0.000312291 0.00391526 -4.35471e-06)
(-0.000182116 0.00376182 1.76176e-07)
(-0.000123675 0.00368027 -2.01762e-06)
(-2.78016e-05 0.00294697 -1.88124e-06)
(4.62847e-05 0.00287764 -1.19938e-06)
(0.000183934 0.00357473 -3.15804e-07)
(0.000324321 0.00363113 1.26566e-06)
(0.000552323 0.00374583 -4.41293e-07)
(0.000827548 0.00386436 5.01653e-06)
(0.00146193 0.0042749 3.32283e-06)
(0.0025052 0.00460674 2.20043e-05)
(0.0049726 0.00642838 9.31359e-05)
(0.00861762 0.00566999 0.000359563)
(0.00606264 0.00159123 0.00112654)
(-0.000776761 0.00225857 0.000653641)
(0.000835769 0.00240303 0.000679061)
(0.000127251 0.00284665 0.000663993)
(0.000205751 0.00302829 0.000714897)
(-0.000193421 0.00293865 0.000690093)
(-0.000265281 0.00286923 0.000699669)
(-0.000717823 0.00227744 0.000678483)
(0.000732811 0.00232848 0.000661275)
(-0.00597369 0.00156414 0.00112295)
(-0.00864866 0.00559504 0.000366285)
(-0.00502286 0.00650158 9.29308e-05)
(-0.00250369 0.00459301 2.26718e-05)
(-0.00145916 0.00428754 3.18743e-06)
(-0.000815553 0.00385314 5.36763e-06)
(-0.000546258 0.00373657 -5.54273e-07)
(-0.000318124 0.00361739 1.34719e-06)
(-0.00018087 0.00356086 -3.34159e-07)
(-4.53819e-05 0.0028682 -1.17499e-06)
(4.65945e-05 0.00278638 -2.92916e-06)
(0.000178805 0.00343223 -2.29179e-06)
(0.000322456 0.0034567 -2.10237e-06)
(0.000509984 0.00349588 -5.87944e-06)
(0.000750916 0.0034766 -7.68546e-06)
(0.00116919 0.00358098 -1.9361e-05)
(0.00172992 0.00333913 -2.55951e-05)
(0.00253306 0.00306978 -4.91745e-05)
(0.00373171 2.37105e-05 -5.27176e-05)
(0.00224133 -0.00762959 -0.000177096)
(0.000692722 -0.00626778 -0.00021508)
(0.000657582 -0.00581722 -0.000202612)
(5.1541e-05 -0.00548136 -0.000212239)
(0.00012159 -0.00517258 -0.000227467)
(-0.000114187 -0.00535741 -0.00021294)
(-0.000118794 -0.0052938 -0.000229121)
(-0.000572054 -0.00584228 -0.000202055)
(-0.0007116 -0.00622425 -0.000216849)
(-0.00218744 -0.00763256 -0.00017379)
(-0.0037506 -5.2278e-05 -5.33483e-05)
(-0.00253571 0.00307762 -4.96747e-05)
(-0.00172165 0.00332782 -2.5112e-05)
(-0.0011669 0.00357839 -1.98831e-05)
(-0.000741817 0.00346741 -7.40279e-06)
(-0.000505426 0.00348659 -6.04811e-06)
(-0.00031774 0.00344521 -2.04973e-06)
(-0.000176231 0.00342024 -2.29577e-06)
(-4.59581e-05 0.00277878 -2.91312e-06)
(5.25507e-05 0.00269427 -1.7371e-06)
(0.000192952 0.0032889 -2.33833e-07)
(0.000361047 0.0032913 4.11316e-07)
(0.000561004 0.00328295 3.89668e-07)
(0.000842161 0.0032165 2.88622e-06)
(0.0012606 0.00317783 -1.37329e-06)
(0.00190631 0.00287623 1.02457e-05)
(0.00273136 0.00261337 -4.33441e-06)
(0.00493477 0.00168954 -3.52137e-06)
(0.00398149 0.000498324 0.000144723)
(0.00151069 0.000747592 5.90856e-05)
(0.0011447 0.000591561 7.06867e-05)
(0.000560144 0.000743499 7.26647e-05)
(0.000234115 0.000847812 7.42168e-05)
(-0.000227011 0.000765674 7.88597e-05)
(-0.000580129 0.000824701 6.73197e-05)
(-0.00111661 0.000559433 7.28706e-05)
(-0.00151253 0.000774839 5.77519e-05)
(-0.00395633 0.000479401 0.000145153)
(-0.00493843 0.00167444 -3.69653e-06)
(-0.00273412 0.00261473 -4.71022e-06)
(-0.00190197 0.00286718 1.07578e-05)
(-0.00125938 0.00317442 -1.69341e-06)
(-0.000836808 0.00320806 3.05502e-06)
(-0.000557881 0.00327451 3.59116e-07)
(-0.000358048 0.00328122 4.45287e-07)
(-0.000191109 0.00327821 -2.2027e-07)
(-5.21713e-05 0.00268787 -1.71973e-06)
(4.36677e-05 0.00260374 -2.70308e-06)
(0.00015793 0.00314735 -1.71644e-06)
(0.000296634 0.00312485 -2.45734e-06)
(0.000431759 0.0030619 -3.42678e-06)
(0.000638348 0.00294361 -7.16656e-06)
(0.000821109 0.0027844 -1.03027e-05)
(0.00115385 0.00245188 -1.95107e-05)
(0.00121399 0.00192739 -3.03501e-05)
(0.00145877 0.000895191 -5.2141e-05)
(0.00097895 -0.00160136 -9.72135e-05)
(0.000909918 -0.00157053 -8.66091e-05)
(0.000762376 -0.00177614 -7.08455e-05)
(0.000352308 -0.00184379 -6.94251e-05)
(0.000155406 -0.00186636 -6.92025e-05)
(-0.000152236 -0.0018886 -6.61558e-05)
(-0.00037646 -0.00182323 -7.28538e-05)
(-0.000728348 -0.00178304 -6.81499e-05)
(-0.000918129 -0.00156402 -8.77956e-05)
(-0.000957996 -0.00160744 -9.62556e-05)
(-0.00146003 0.000880965 -5.23567e-05)
(-0.00120995 0.00192417 -3.06609e-05)
(-0.00114979 0.00244412 -1.9305e-05)
(-0.00081904 0.0027789 -1.04476e-05)
(-0.000634835 0.00293576 -7.10923e-06)
(-0.000429205 0.00305345 -3.45632e-06)
(-0.000294491 0.0031155 -2.45591e-06)
(-0.000156515 0.00313748 -1.70733e-06)
(-4.34172e-05 0.00259808 -2.69628e-06)
(3.80314e-05 0.00252867 -1.23425e-06)
(0.0001364 0.00303354 -9.4233e-09)
(0.000258077 0.00300189 3.04408e-08)
(0.000374339 0.00291924 1.01679e-06)
(0.000561293 0.00280366 5.1471e-07)
(0.000722024 0.00261265 4.0656e-06)
(0.0010517 0.00239084 2.10134e-06)
(0.00126994 0.00202489 1.36254e-05)
(0.00178935 0.00171705 1.2587e-05)
(0.00172475 0.00135737 2.63213e-05)
(0.00123503 0.00115704 2.52448e-05)
(0.000896507 0.000871584 4.35336e-05)
(0.000444657 0.000707825 4.01113e-05)
(0.000171789 0.000632783 4.41081e-05)
(-0.000165938 0.000597655 4.39416e-05)
(-0.000440507 0.000740274 4.02719e-05)
(-0.00089011 0.000855494 4.38583e-05)
(-0.00123131 0.0011643 2.50097e-05)
(-0.00171728 0.00134857 2.68465e-05)
(-0.00179218 0.00171074 1.27617e-05)
(-0.00127006 0.00202119 1.36367e-05)
(-0.00104991 0.00238384 2.18336e-06)
(-0.000720568 0.00260638 4.05859e-06)
(-0.00055916 0.0027961 5.4437e-07)
(-0.000372599 0.00291105 1.02485e-06)
(-0.000256693 0.00299314 3.61068e-08)
(-0.00013544 0.00302434 -1.64869e-09)
(-3.78848e-05 0.0025236 -1.22713e-06)
(2.52905e-05 0.00247398 -1.86159e-06)
(9.35234e-05 0.0029492 -1.37898e-06)
(0.000174689 0.00290826 -2.04615e-06)
(0.000243372 0.00280683 -2.22365e-06)
(0.000345634 0.00267869 -5.23607e-06)
(0.000410809 0.00245435 -6.39535e-06)
(0.000530802 0.00222267 -1.30966e-05)
(0.000545467 0.00177667 -1.63625e-05)
(0.000556713 0.00135304 -2.9653e-05)
(0.000429203 0.000512987 -3.55296e-05)
(0.000283288 0.000114064 -3.90046e-05)
(0.000210233 -0.00033295 -3.88051e-05)
(9.57166e-05 -0.000494273 -3.86263e-05)
(4.346e-05 -0.000583959 -4.02644e-05)
(-4.29622e-05 -0.000589589 -3.9631e-05)
(-0.000100891 -0.000490996 -3.94691e-05)
(-0.000202272 -0.000340406 -3.81917e-05)
(-0.00028314 0.000112431 -3.93541e-05)
(-0.000422489 0.000503525 -3.53659e-05)
(-0.000554552 0.00134544 -2.9762e-05)
(-0.000542814 0.00177087 -1.63594e-05)
(-0.00052878 0.00221589 -1.30801e-05)
(-0.000409111 0.00244755 -6.4199e-06)
(-0.000343859 0.00267125 -5.23603e-06)
(-0.00024192 0.00279876 -2.22468e-06)
(-0.000173613 0.00289983 -2.05071e-06)
(-9.28076e-05 0.00294039 -1.37208e-06)
(-2.51789e-05 0.00246918 -1.85692e-06)
(1.29306e-05 0.00242577 5.79939e-08)
(4.73765e-05 0.00288308 4.0214e-07)
(8.83993e-05 0.00284066 3.85281e-07)
(0.000126604 0.00273711 9.13968e-07)
(0.000183307 0.00261713 7.45628e-07)
(0.000232254 0.00240483 2.43583e-06)
(0.000317974 0.00220524 2.64015e-06)
(0.000385944 0.00184312 7.35038e-06)
(0.000497355 0.00158318 9.78872e-06)
(0.000522573 0.00112987 2.0701e-05)
(0.000461076 0.0008839 2.20091e-05)
(0.000393744 0.000590556 2.72283e-05)
(0.000245811 0.000446427 2.68015e-05)
(9.51052e-05 0.000364848 3.02959e-05)
(-9.20747e-05 0.000355815 3.0433e-05)
(-0.000243467 0.000453378 2.67849e-05)
(-0.000391655 0.000583393 2.72882e-05)