/*--------------------------------*- C++ -*----------------------------------*\
| =========                 |                                                 |
| \\      /  F ield         | OpenFOAM: The Open Source CFD Toolbox           |
|  \\    /   O peration     | Version:  2.3.0                                 |
|   \\  /    A nd           | Web:      www.OpenFOAM.org                      |
|    \\/     M anipulation  |                                                 |
\*---------------------------------------------------------------------------*/
FoamFile
{
    version     2.0;
    format      ascii;
    class       volVectorField;
    location    "0.199823";
    object      Ur;
}
// * * * * * * * * * * * * * * * * * * * * * * * * * * * * * * * * * * * * * //

dimensions      [0 1 -1 0 0 0 0];

internalField   nonuniform List<vector> 
18816
(
(6.09643e-05 0.00516958 -4.77087e-05)
(4.50341e-05 0.00384287 -2.18081e-05)
(-2.85393e-05 0.00334862 -1.78523e-05)
(-3.15932e-05 0.00324817 -1.83308e-05)
(-4.34687e-05 0.00324368 -1.84544e-05)
(-5.37867e-05 0.00328084 -1.92675e-05)
(-6.49476e-05 0.00331945 -1.96174e-05)
(-7.29502e-05 0.00337081 -1.98496e-05)
(-7.67927e-05 0.0034117 -2.01037e-05)
(-7.40881e-05 0.00341002 -1.91603e-05)
(-6.47875e-05 0.00345769 -1.90782e-05)
(-5.16176e-05 0.00349699 -1.8672e-05)
(-3.41086e-05 0.00352318 -1.80902e-05)
(-1.50778e-05 0.00356646 -1.81612e-05)
(4.51717e-06 0.0035551 -1.78452e-05)
(2.47213e-05 0.00352052 -1.78321e-05)
(4.17481e-05 0.00348586 -1.83869e-05)
(5.82262e-05 0.00338229 -1.77505e-05)
(7.40841e-05 0.00336971 -1.86257e-05)
(8.07075e-05 0.00339118 -1.98728e-05)
(7.85416e-05 0.00337156 -1.99798e-05)
(7.04711e-05 0.00333131 -1.98621e-05)
(5.84042e-05 0.00329256 -1.94537e-05)
(4.67794e-05 0.00325321 -1.86115e-05)
(3.39967e-05 0.00325575 -1.84434e-05)
(3.01305e-05 0.00335441 -1.79056e-05)
(-4.42237e-05 0.00384563 -2.17579e-05)
(-6.07147e-05 0.00517714 -4.77712e-05)
(7.95993e-06 0.00402291 -9.75979e-06)
(-1.21616e-05 0.00316733 4.72507e-06)
(-3.41884e-05 0.00294133 -7.54558e-06)
(-2.69495e-05 0.00289372 -7.3306e-06)
(-2.66828e-05 0.00289225 -8.81679e-06)
(-3.19094e-05 0.00290538 -1.20947e-05)
(-3.82178e-05 0.00292423 -1.3447e-05)
(-4.49811e-05 0.00294545 -1.18961e-05)
(-5.44266e-05 0.00294329 -1.39159e-05)
(-5.16312e-05 0.0029151 -1.5886e-05)
(-4.02482e-05 0.00291066 -1.63795e-05)
(-2.8608e-05 0.00290599 -1.63309e-05)
(-1.60674e-05 0.00290059 -1.60415e-05)
(-5.37307e-06 0.00291195 -1.55811e-05)
(4.4092e-06 0.0029044 -1.56012e-05)
(1.53345e-05 0.00289598 -1.59047e-05)
(2.42046e-05 0.00289552 -1.62395e-05)
(3.89025e-05 0.00286579 -1.68434e-05)
(5.80222e-05 0.00288901 -1.64528e-05)
(6.43426e-05 0.00292968 -1.44996e-05)
(5.42281e-05 0.00294372 -1.21379e-05)
(4.41429e-05 0.00292915 -1.34133e-05)
(3.60407e-05 0.00291416 -1.22548e-05)
(3.15788e-05 0.00290002 -9.04862e-06)
(3.21872e-05 0.00289796 -7.24622e-06)
(3.78285e-05 0.00294023 -7.07564e-06)
(1.34098e-05 0.00316426 5.28998e-06)
(-7.9046e-06 0.00402418 -9.35289e-06)
(5.33677e-05 0.00224883 4.75659e-05)
(4.7515e-05 0.00212274 5.32097e-05)
(-1.43391e-05 0.00210027 6.09836e-05)
(-2.11296e-05 0.00213079 5.74849e-05)
(-2.75264e-05 0.00215679 5.74002e-05)
(-3.74208e-05 0.00218941 5.98323e-05)
(-4.82174e-05 0.00221819 5.99127e-05)
(-4.75081e-05 0.00228394 4.8747e-05)
(-5.38349e-05 0.00229953 4.7309e-05)
(-5.23846e-05 0.00232117 4.30987e-05)
(-4.14294e-05 0.00233158 3.95994e-05)
(-2.9583e-05 0.00233843 3.64638e-05)
(-1.60386e-05 0.00234185 3.3941e-05)
(-5.16607e-06 0.00234073 3.31298e-05)
(4.58892e-06 0.00234203 3.27097e-05)
(1.64661e-05 0.00234276 3.37678e-05)
(2.49208e-05 0.00234076 3.60171e-05)
(3.98809e-05 0.00234363 3.72462e-05)
(6.09041e-05 0.00233225 4.14992e-05)
(6.60371e-05 0.00230625 4.67467e-05)
(5.87584e-05 0.00228487 4.8623e-05)
(5.76291e-05 0.00221631 5.96314e-05)
(4.41312e-05 0.00217359 6.04574e-05)
(3.30316e-05 0.00213889 5.73899e-05)
(2.505e-05 0.00211623 5.72498e-05)
(1.67739e-05 0.00209337 6.08509e-05)
(-4.68116e-05 0.00211611 5.31719e-05)
(-5.3405e-05 0.00224322 4.76347e-05)
(2.9535e-05 0.00180172 0.000102558)
(1.8569e-05 0.00179397 6.94713e-05)
(-9.5883e-06 0.00179524 6.90622e-05)
(-1.96766e-05 0.00179584 7.00266e-05)
(-2.93298e-05 0.00179328 7.15716e-05)
(-3.74231e-05 0.00178727 7.36757e-05)
(-4.59169e-05 0.00178235 7.57411e-05)
(-5.14282e-05 0.0017786 8.06492e-05)
(-5.37839e-05 0.00177767 8.36404e-05)
(-4.97776e-05 0.00178116 8.7509e-05)
(-4.00229e-05 0.00178827 8.85239e-05)
(-2.9149e-05 0.0017906 8.83522e-05)
(-1.6409e-05 0.0017909 8.85371e-05)
(-5.00274e-06 0.00179196 8.79213e-05)
(5.72325e-06 0.00179203 8.88278e-05)
(1.74864e-05 0.00179169 8.85453e-05)
(2.81962e-05 0.00179138 8.88179e-05)
(4.05171e-05 0.00179055 9.19593e-05)
(5.55353e-05 0.00178796 8.99823e-05)
(6.18476e-05 0.00177511 8.46255e-05)
(5.98203e-05 0.00177701 8.07725e-05)
(5.3587e-05 0.00177977 7.52325e-05)
(4.38925e-05 0.00178468 7.2303e-05)
(3.40582e-05 0.00179061 7.00016e-05)
(2.29473e-05 0.00179307 6.86199e-05)
(1.17739e-05 0.00179218 6.80065e-05)
(-1.73722e-05 0.00179141 6.85071e-05)
(-2.92418e-05 0.00179774 0.000101721)
(9.14081e-06 0.000680309 1.30923e-06)
(4.88226e-06 0.000723438 1.6903e-06)
(-1.06829e-05 0.000707843 1.82639e-06)
(-1.65212e-05 0.000701274 2.04269e-06)
(-2.54326e-05 0.000693482 1.97586e-06)
(-3.30396e-05 0.000683572 1.87614e-06)
(-4.00821e-05 0.000671194 1.69602e-06)
(-4.45133e-05 0.000657232 1.59126e-06)
(-4.7261e-05 0.000645643 1.52128e-06)
(-4.49469e-05 0.000636422 1.26359e-06)
(-3.78674e-05 0.00063946 1.03675e-06)
(-2.82826e-05 0.000636201 1.14115e-06)
(-1.61572e-05 0.000632029 8.82253e-07)
(-4.71958e-06 0.000633095 9.97937e-07)
(8.14292e-06 0.000632645 1.09871e-06)
(2.01903e-05 0.000633294 9.27011e-07)
(3.38113e-05 0.000634402 1.44801e-06)
(4.32338e-05 0.000633597 1.24732e-06)
(4.93842e-05 0.000641807 1.4611e-06)
(5.14727e-05 0.000636426 1.54798e-06)
(4.91147e-05 0.00065451 1.61714e-06)
(4.44562e-05 0.000669028 1.6516e-06)
(3.73627e-05 0.000681274 1.81944e-06)
(2.92042e-05 0.000691621 1.92202e-06)
(1.96114e-05 0.000699565 2.00618e-06)
(1.28658e-05 0.00070608 1.81983e-06)
(-3.76036e-06 0.000721819 1.68235e-06)
(-8.85752e-06 0.000675749 1.38951e-06)
(2.43869e-06 4.75929e-05 -2.08449e-07)
(-1.82108e-06 7.8319e-05 3.94275e-08)
(-9.93963e-06 7.05242e-05 -2.11143e-07)
(-1.45373e-05 6.6126e-05 -1.07355e-07)
(-2.11067e-05 6.17801e-05 -8.14467e-08)
(-2.67556e-05 5.66706e-05 -1.73568e-08)
(-3.21094e-05 5.03909e-05 5.83734e-08)
(-3.53302e-05 4.35297e-05 6.4255e-08)
(-3.7176e-05 3.88463e-05 1.52619e-07)
(-3.60153e-05 3.46593e-05 1.61493e-07)
(-3.11428e-05 3.81992e-05 1.60437e-07)
(-2.37786e-05 3.71978e-05 -3.16198e-08)
(-1.44386e-05 3.68078e-05 -4.42791e-09)
(-4.60098e-06 3.69479e-05 -5.39585e-08)
(7.87177e-06 3.57251e-05 -8.36944e-08)
(1.75564e-05 3.63924e-05 -6.78971e-08)
(3.48948e-05 3.46349e-05 -4.58641e-08)
(4.15937e-05 3.70772e-05 6.59729e-07)
(3.59801e-05 3.84462e-05 7.21529e-07)
(3.49555e-05 3.13689e-05 5.99026e-07)
(3.51506e-05 3.91631e-05 2.02643e-07)
(3.34896e-05 4.61345e-05 8.43892e-08)
(2.94895e-05 5.21338e-05 1.63458e-08)
(2.39578e-05 5.71295e-05 -6.261e-08)
(1.72298e-05 6.11585e-05 -8.37188e-08)
(1.19669e-05 6.51389e-05 -1.82369e-07)
(2.98645e-06 7.29033e-05 6.30493e-08)
(-2.07437e-06 4.00942e-05 -1.41599e-07)
(-1.20195e-07 2.51777e-06 -4.73183e-08)
(-3.98157e-06 2.90624e-06 4.92876e-08)
(-9.28334e-06 2.79439e-06 -1.491e-08)
(-1.34502e-05 2.32662e-06 2.53029e-08)
(-1.83591e-05 2.95553e-06 1.31659e-08)
(-2.27353e-05 3.98824e-06 3.21645e-08)
(-2.65067e-05 6.20554e-06 3.14341e-08)
(-2.85799e-05 8.09418e-06 1.17698e-07)
(-3.07193e-05 1.25172e-05 2.33669e-07)
(-3.02487e-05 1.55803e-05 -5.62448e-09)
(-2.68817e-05 2.03459e-05 7.65766e-08)
(-2.13696e-05 2.19095e-05 4.97779e-08)
(-1.21553e-05 2.51445e-05 -1.19482e-07)
(-4.4986e-06 2.43721e-05 4.69862e-08)
(7.08017e-06 2.47447e-05 -1.48179e-07)
(1.48515e-05 1.94333e-05 -4.94564e-08)
(3.03766e-05 1.3575e-05 2.95767e-08)
(3.14997e-05 2.44583e-05 2.17707e-07)
(2.38736e-05 1.78262e-05 5.16518e-07)
(2.46308e-05 2.87045e-06 3.23884e-07)
(2.62452e-05 -6.31649e-08 2.69465e-07)
(2.60423e-05 -2.73881e-06 1.45907e-07)
(2.4086e-05 -4.4162e-06 6.31968e-08)
(2.03933e-05 -5.69398e-06 2.68654e-08)
(1.56074e-05 -6.57745e-06 3.68723e-08)
(1.10358e-05 -6.44923e-06 2.86093e-09)
(5.02565e-06 -6.44572e-06 7.76101e-08)
(4.11478e-07 -7.46835e-06 -6.87209e-09)
(-9.6832e-07 8.27053e-08 -2.13809e-08)
(-4.60734e-06 -2.2099e-06 4.58169e-08)
(-8.9003e-06 -1.64815e-06 1.86397e-08)
(-1.28223e-05 -1.24538e-06 3.53541e-08)
(-1.72477e-05 -2.4043e-08 4.35215e-08)
(-2.09224e-05 1.27554e-06 8.54172e-08)
(-2.43524e-05 2.67574e-06 2.09938e-07)
(-2.43543e-05 4.11215e-06 1.85003e-07)
(-2.61975e-05 7.99721e-06 1.74244e-07)
(-2.67062e-05 1.21198e-05 -4.32089e-07)
(-2.26095e-05 1.72561e-05 -6.28058e-07)
(-1.98371e-05 1.49408e-05 -3.60063e-07)
(-1.19141e-05 2.00367e-05 -6.81676e-07)
(-5.75815e-06 1.62847e-05 -1.11309e-07)
(1.99845e-06 1.7567e-05 -9.11348e-07)
(9.54874e-06 1.36204e-05 -7.31049e-08)
(1.56128e-05 8.39196e-06 2.63178e-07)
(1.59667e-05 2.66456e-05 -2.37891e-06)
(2.24319e-05 1.93511e-05 -8.80933e-07)
(2.18115e-05 -3.15213e-06 -7.21983e-07)
(2.53608e-05 -8.93835e-06 2.2083e-07)
(2.52092e-05 -9.1881e-06 1.32214e-07)
(2.3558e-05 -9.47504e-06 8.55531e-08)
(1.94227e-05 -1.00974e-05 3.1312e-08)
(1.49649e-05 -1.10391e-05 2.82317e-08)
(1.05311e-05 -1.1547e-05 4.47789e-09)
(5.66254e-06 -1.22204e-05 3.80939e-08)
(1.29943e-06 -1.02317e-05 -1.9969e-08)
(-1.23539e-06 2.78958e-06 4.26104e-09)
(-4.5698e-06 8.19148e-07 4.48109e-08)
(-8.19104e-06 1.3613e-06 4.00549e-08)
(-1.17413e-05 1.95928e-06 5.81248e-08)
(-1.58106e-05 2.72767e-06 1.05212e-07)
(-1.95929e-05 2.54222e-06 1.01896e-07)
(-2.44704e-05 1.85054e-06 1.73248e-07)
(-2.91156e-05 3.13062e-06 -3.63164e-07)
(-2.8314e-05 1.58757e-05 -6.64684e-07)
(-3.24825e-05 2.80275e-05 -1.58254e-06)
(-2.37147e-05 3.0625e-05 -9.40655e-07)
(-2.09604e-05 2.21047e-05 -8.96652e-07)
(-1.53171e-05 2.70764e-05 -8.30811e-07)
(-7.22589e-06 1.86024e-05 -7.28474e-07)
(-1.29132e-06 2.93474e-05 -4.47934e-07)
(4.22595e-06 1.46644e-05 -7.51921e-07)
(7.83923e-06 1.24808e-05 -7.92654e-07)
(7.08726e-06 4.79149e-05 -3.26286e-06)
(3.73493e-05 4.0693e-05 -2.7974e-06)
(3.50018e-05 1.71554e-05 -1.74097e-06)
(3.74071e-05 -4.90245e-06 -1.05213e-06)
(3.20664e-05 -8.02661e-06 -9.31793e-08)
(2.52351e-05 -5.78001e-06 1.72302e-08)
(1.92096e-05 -5.76188e-06 4.18223e-08)
(1.42012e-05 -6.74388e-06 2.71617e-08)
(9.77982e-06 -7.58498e-06 1.3752e-08)
(5.58056e-06 -8.30355e-06 2.23305e-08)
(1.55926e-06 -6.69833e-06 -1.50839e-08)
(-1.22496e-06 4.91782e-06 2.99852e-08)
(-4.31475e-06 3.16469e-06 5.77561e-08)
(-7.63871e-06 3.55882e-06 5.83159e-08)
(-1.09709e-05 4.13554e-06 6.35008e-08)
(-1.49483e-05 5.36354e-06 6.35074e-08)
(-1.84978e-05 6.27011e-06 -8.66862e-08)
(-2.32143e-05 9.25129e-06 -1.57868e-07)
(-2.64131e-05 1.33926e-05 -6.49216e-07)
(-3.3553e-05 3.31698e-05 -1.51707e-07)
(-4.9441e-05 3.43118e-05 6.74383e-07)
(-3.30161e-05 3.78228e-05 -1.14861e-06)
(-2.57848e-05 3.23549e-05 -3.12379e-07)
(-1.48877e-05 3.52322e-05 -7.67093e-07)
(-7.54711e-06 2.95072e-05 -9.57772e-07)
(4.05867e-06 3.4682e-05 -7.45268e-07)
(8.02168e-06 2.89561e-05 -3.59599e-07)
(1.37051e-05 2.94151e-05 -2.1604e-06)
(2.78185e-05 4.6763e-05 1.1719e-07)
(6.46584e-05 3.54451e-05 -7.75362e-08)
(3.67378e-05 3.86723e-05 -7.31994e-07)
(3.88436e-05 1.35096e-05 -3.4486e-07)
(2.73073e-05 7.55612e-06 -3.93487e-07)
(2.31958e-05 2.02276e-06 -1.42533e-07)
(1.72591e-05 -1.03194e-07 4.75405e-08)
(1.28185e-05 -2.20682e-06 1.99661e-08)
(8.85744e-06 -3.51076e-06 1.48375e-08)
(5.18267e-06 -4.3239e-06 2.01138e-08)
(1.51529e-06 -3.03423e-06 -1.31604e-08)
(-1.14317e-06 6.30394e-06 3.66834e-08)
(-4.03152e-06 4.63881e-06 5.54668e-08)
(-7.03841e-06 5.01513e-06 5.67212e-08)
(-9.85708e-06 5.80656e-06 5.57615e-08)
(-1.36615e-05 6.85976e-06 1.01142e-07)
(-1.59881e-05 9.02895e-06 1.6159e-07)
(-2.23852e-05 1.39434e-05 -6.79158e-08)
(-1.26827e-05 2.3242e-05 -8.46829e-07)
(-3.02647e-05 3.94046e-05 2.25756e-06)
(-3.92281e-05 3.00585e-05 1.70585e-07)
(-2.85277e-05 3.19927e-05 -1.36595e-07)
(-1.85391e-05 3.1575e-05 -1.11349e-06)
(-1.14311e-05 3.45386e-05 -7.73762e-07)
(-4.12106e-06 3.14012e-05 -1.14277e-06)
(2.04254e-06 3.58358e-05 -7.48601e-07)
(8.39532e-06 2.99528e-05 -1.22937e-06)
(1.86119e-05 3.21538e-05 -8.90698e-07)
(2.6174e-05 2.89846e-05 -2.34078e-07)
(4.00139e-05 2.77331e-05 -7.77345e-08)
(3.64903e-05 5.91782e-05 3.538e-06)
(1.41088e-05 1.98632e-05 -1.06131e-07)
(2.17772e-05 1.3795e-05 6.88e-08)
(1.65831e-05 6.17258e-06 1.15802e-07)
(1.39916e-05 3.07973e-06 6.31889e-08)
(1.06192e-05 1.10541e-06 2.55051e-08)
(7.53551e-06 -3.08431e-07 2.49244e-08)
(4.51494e-06 -1.10279e-06 2.16256e-08)
(1.33391e-06 9.08733e-08 -5.01171e-09)
(-1.00097e-06 7.09895e-06 4.31296e-08)
(-3.64813e-06 5.54991e-06 5.35162e-08)
(-6.32433e-06 5.95235e-06 5.12964e-08)
(-8.98799e-06 6.9081e-06 1.56316e-08)
(-1.22291e-05 7.82271e-06 6.03632e-08)
(-1.46251e-05 1.01824e-05 2.72861e-08)
(-1.84442e-05 1.44039e-05 -1.0227e-07)
(-1.37646e-05 3.03578e-05 -1.58361e-07)
(-2.01053e-05 3.26649e-05 8.60388e-07)
(-2.33508e-05 2.42596e-05 2.16792e-07)
(-1.99988e-05 3.03275e-05 1.86721e-07)
(-1.32358e-05 3.38334e-05 1.6761e-08)
(-8.51764e-06 3.57585e-05 -4.69759e-08)
(-3.11217e-06 3.73134e-05 4.30326e-08)
(2.10586e-06 3.69306e-05 -1.38477e-07)
(8.46499e-06 3.83078e-05 2.28792e-07)
(1.24824e-05 3.54646e-05 2.09386e-07)
(2.0819e-05 3.20643e-05 -2.99732e-09)
(2.14777e-05 2.84475e-05 9.68312e-07)
(2.17247e-05 2.75813e-05 7.74627e-07)
(1.64794e-05 2.51067e-05 -3.81692e-07)
(1.93948e-05 1.30596e-05 -5.97425e-08)
(1.5021e-05 8.29335e-06 2.46229e-08)
(1.22985e-05 5.47556e-06 -4.05348e-08)
(9.27265e-06 3.67528e-06 -4.36948e-09)
(6.50265e-06 2.22332e-06 3.0523e-08)
(3.93113e-06 1.4527e-06 1.25782e-08)
(1.12998e-06 2.62367e-06 -4.97854e-09)
(-8.52355e-07 7.55161e-06 4.51007e-08)
(-3.24139e-06 6.10046e-06 2.80491e-08)
(-5.51443e-06 6.58629e-06 2.9311e-08)
(-7.84237e-06 7.74713e-06 7.36422e-08)
(-1.03427e-05 8.97358e-06 2.93752e-08)
(-1.20279e-05 1.16329e-05 7.80817e-09)
(-1.51413e-05 1.5039e-05 2.9116e-08)
(-1.20696e-05 2.45858e-05 7.97607e-08)
(-1.51624e-05 2.85229e-05 8.58143e-07)
(-1.96631e-05 2.02915e-05 2.84742e-07)
(-1.71952e-05 2.56314e-05 5.99277e-08)
(-1.21807e-05 2.48533e-05 -6.81172e-08)
(-7.80999e-06 2.93779e-05 -1.85146e-08)
(-2.8249e-06 2.69553e-05 -1.11105e-08)
(1.54172e-06 3.02032e-05 -5.85371e-08)
(6.1448e-06 2.68406e-05 -7.04334e-09)
(1.13817e-05 2.63514e-05 -3.27644e-08)
(1.56743e-05 2.50757e-05 -3.45347e-09)
(2.09354e-05 2.04634e-05 2.76926e-07)
(1.58432e-05 3.02001e-05 1.00263e-06)
(1.08919e-05 2.46368e-05 2.62694e-07)
(1.29654e-05 1.53945e-05 8.2383e-08)
(1.07453e-05 1.09418e-05 1.72119e-08)
(9.31117e-06 7.8634e-06 1.64539e-08)
(7.2757e-06 5.87857e-06 2.73055e-08)
(5.17721e-06 4.38226e-06 5.88232e-09)
(3.21678e-06 3.56377e-06 2.5388e-08)
(8.97272e-07 4.67494e-06 -9.42382e-10)
(-6.8568e-07 7.77072e-06 3.75959e-08)
(-2.73908e-06 6.47035e-06 5.00151e-08)
(-4.52785e-06 7.04073e-06 2.51322e-08)
(-6.49882e-06 8.26286e-06 5.06435e-08)
(-8.1423e-06 9.57851e-06 9.41179e-09)
(-9.34834e-06 1.22633e-05 1.79879e-08)
(-1.0675e-05 1.46215e-05 3.84423e-08)
(-9.89498e-06 2.12321e-05 1.45523e-07)
(-1.08073e-05 2.51408e-05 6.27161e-07)
(-1.59082e-05 1.48169e-05 2.20331e-07)
(-1.32649e-05 2.15363e-05 -5.04731e-09)
(-1.01039e-05 2.0514e-05 8.08912e-08)
(-6.19324e-06 2.48148e-05 -5.12197e-08)
(-2.19434e-06 2.32328e-05 8.26907e-08)
(1.25234e-06 2.59814e-05 -6.26748e-08)
(5.78289e-06 2.29543e-05 3.55536e-08)
(8.92344e-06 2.21406e-05 1.34904e-07)
(1.25075e-05 2.17744e-05 2e-08)
(1.43075e-05 1.6839e-05 3.19377e-07)
(1.08826e-05 2.26889e-05 6.16686e-07)
(8.00357e-06 1.99958e-05 1.25939e-07)
(9.23823e-06 1.42913e-05 2.13662e-08)
(7.96409e-06 1.15905e-05 2.16215e-10)
(7.01861e-06 8.94759e-06 3.62474e-09)
(5.68571e-06 7.28941e-06 1.05869e-08)
(4.03232e-06 5.89782e-06 -7.89189e-09)
(2.55747e-06 5.14411e-06 1.39766e-08)
(6.80184e-07 6.22949e-06 2.04283e-10)
(-5.12012e-07 7.73514e-06 3.45722e-08)
(-2.22133e-06 6.50535e-06 4.73839e-08)
(-3.56033e-06 7.08676e-06 1.08969e-08)
(-5.2119e-06 8.2615e-06 5.08661e-08)
(-6.15181e-06 9.57545e-06 4.02771e-09)
(-7.03924e-06 1.18249e-05 2.52352e-08)
(-7.47758e-06 1.39408e-05 1.19097e-08)
(-7.19675e-06 1.80784e-05 1.07735e-07)
(-8.4711e-06 2.17909e-05 3.69292e-07)
(-1.21084e-05 1.49839e-05 2.23775e-07)
(-1.12006e-05 1.87263e-05 3.18997e-08)
(-8.98669e-06 1.76938e-05 8.70628e-08)
(-5.81371e-06 2.06865e-05 -5.76587e-08)
(-1.7943e-06 1.92294e-05 7.94974e-08)
(1.18112e-06 2.15876e-05 1.52822e-07)
(3.95759e-06 1.92636e-05 9.18574e-08)
(8.27949e-06 1.82409e-05 1.25172e-07)
(1.01231e-05 1.86605e-05 2.22738e-07)
(1.12442e-05 1.52156e-05 2.31022e-07)
(8.1071e-06 2.06977e-05 5.00762e-07)
(5.26419e-06 1.8232e-05 1.48179e-07)
(5.77147e-06 1.41526e-05 1.87512e-08)
(5.40392e-06 1.20075e-05 1.85758e-08)
(4.81695e-06 9.6807e-06 4.22555e-09)
(4.13498e-06 8.23103e-06 2.35573e-08)
(2.87726e-06 6.94449e-06 -1.28036e-08)
(1.91158e-06 6.22805e-06 2.35091e-08)
(4.60091e-07 7.32525e-06 1.53744e-09)
(-3.61815e-07 7.60996e-06 2.5212e-08)
(-1.74472e-06 6.50624e-06 3.2717e-08)
(-2.64314e-06 7.06611e-06 9.07728e-09)
(-3.94143e-06 8.09558e-06 4.51585e-08)
(-4.3449e-06 9.43837e-06 -1.14525e-08)
(-4.95784e-06 1.13628e-05 3.7948e-08)
(-4.69467e-06 1.33401e-05 -7.99377e-10)
(-4.63761e-06 1.6108e-05 1.87911e-07)
(-8.97142e-06 1.92896e-05 4.10873e-07)
(-1.07517e-05 1.20392e-05 -6.58241e-08)
(-1.11282e-05 1.71396e-05 -6.81064e-08)
(-8.71806e-06 1.38028e-05 -1.97206e-07)
(-5.90849e-06 1.74299e-05 -1.42226e-07)
(-2.10653e-06 1.46416e-05 -2.09158e-07)
(8.73996e-07 1.80914e-05 1.32801e-07)
(4.16751e-06 1.43876e-05 -2.26153e-07)
(7.73143e-06 1.41503e-05 -2.41325e-07)
(9.90234e-06 1.66927e-05 1.42883e-07)
(9.61531e-06 1.19595e-05 -2.65176e-08)
(8.49338e-06 1.80576e-05 3.84691e-07)
(3.47596e-06 1.65338e-05 1.81405e-07)
(3.36495e-06 1.35496e-05 2.83299e-09)
(3.43638e-06 1.19889e-05 1.57409e-08)
(3.03399e-06 9.98419e-06 -1.27377e-08)
(2.83247e-06 8.66905e-06 1.80912e-08)
(1.89623e-06 7.48261e-06 6.54931e-09)
(1.36749e-06 6.98275e-06 1.04475e-08)
(2.78958e-07 8.04185e-06 -2.17226e-09)
(-2.10455e-07 7.47802e-06 1.60983e-08)
(-1.2747e-06 6.27682e-06 3.32017e-08)
(-1.80639e-06 6.66448e-06 1.52014e-08)
(-2.78194e-06 7.54874e-06 3.62817e-08)
(-2.80166e-06 8.80679e-06 6.27752e-09)
(-3.0327e-06 1.05287e-05 5.90157e-09)
(-2.61253e-06 1.25765e-05 5.10021e-09)
(-2.53238e-06 1.53872e-05 -9.56799e-08)
(-3.22174e-06 2.06645e-05 5.69799e-08)
(-9.50037e-06 1.21427e-05 -3.72082e-08)
(-8.93233e-06 1.69843e-05 -2.7547e-08)
(-8.87055e-06 1.25847e-05 -8.29732e-08)
(-6.17991e-06 1.5893e-05 -1.2696e-07)
(-3.37337e-06 1.21306e-05 -9.61432e-08)
(9.10195e-07 1.41079e-05 -3.58986e-07)
(5.43449e-06 1.24375e-05 -1.35879e-09)
(6.81953e-06 1.24381e-05 -2.77695e-08)
(8.4218e-06 1.54363e-05 -3.50251e-07)
(9.51848e-06 1.193e-05 -5.34529e-09)
(3.66623e-06 1.91667e-05 1.19482e-07)
(1.88108e-06 1.64533e-05 -8.19491e-09)
(1.09028e-06 1.32122e-05 -1.02341e-08)
(1.66811e-06 1.17185e-05 8.84231e-09)
(1.38664e-06 9.7428e-06 -6.03562e-09)
(1.68212e-06 8.61118e-06 2.53199e-08)
(1.01231e-06 7.57311e-06 -3.52115e-10)
(8.75644e-07 7.27492e-06 1.78273e-08)
(1.07143e-07 8.45397e-06 -3.20847e-09)
(-1.64634e-07 7.21338e-06 2.60149e-08)
(-9.73977e-07 5.95297e-06 2.49713e-08)
(-1.12152e-06 6.28628e-06 5.72876e-09)
(-1.79777e-06 7.04419e-06 3.03795e-08)
(-1.51428e-06 8.11607e-06 -2.3547e-09)
(-1.36222e-06 9.28824e-06 4.17686e-08)
(-8.1288e-07 1.10518e-05 3.36933e-08)
(-1.03345e-07 1.47831e-05 -8.69906e-08)
(-8.69256e-07 2.15213e-05 2.02985e-07)
(-6.35229e-06 1.51122e-05 -2.63372e-07)
(-7.90631e-06 1.79509e-05 -2.36368e-07)
(-9.06362e-06 1.20524e-05 -2.30152e-07)
(-6.59995e-06 1.36118e-05 -2.89744e-07)
(-4.89914e-06 9.65123e-06 -2.65749e-07)
(8.98953e-07 1.08153e-05 -6.69361e-07)
(5.78219e-06 1.05694e-05 -2.86226e-07)
(7.94024e-06 1.1601e-05 -1.81051e-07)
(8.35633e-06 1.60177e-05 -4.4409e-07)
(7.88656e-06 1.42068e-05 -3.17647e-07)
(2.75019e-06 2.13193e-05 2.54703e-07)
(3.40234e-07 1.625e-05 1.18269e-08)
(-7.25049e-07 1.19719e-05 2.91763e-08)
(9.16955e-08 1.05963e-05 5.50101e-08)
(4.01783e-08 9.2409e-06 -1.07479e-08)
(7.43347e-07 8.34394e-06 2.26959e-08)
(2.98924e-07 7.57618e-06 -6.79704e-09)
(5.74141e-07 7.28503e-06 1.51085e-08)
(2.72953e-08 8.57255e-06 7.41469e-09)
(-7.05288e-08 6.72696e-06 2.35294e-08)
(-6.90829e-07 5.55821e-06 2.10538e-08)
(-6.12337e-07 5.80016e-06 5.03234e-09)
(-9.25916e-07 6.33322e-06 1.4727e-08)
(-4.06446e-07 7.0557e-06 1.61932e-08)
(-6.92154e-08 8.01443e-06 2.30707e-08)
(1.38184e-06 1.09652e-05 -6.78581e-08)
(1.17713e-06 1.35075e-05 2.17341e-08)
(-4.29873e-07 2.76162e-05 -9.49587e-08)
(-8.93275e-06 1.72899e-05 -7.58077e-08)
(-1.10471e-05 2.19948e-05 4.69383e-07)
(-1.24684e-05 1.00198e-05 2.60596e-07)
(-9.01791e-06 1.41491e-05 2.15625e-07)
(-5.35227e-06 4.66792e-06 1.36926e-07)
(1.59609e-06 1.03553e-05 3.81091e-07)
(7.19741e-06 5.9688e-06 1.96603e-08)
(1.1774e-05 9.26277e-06 -1.24709e-07)
(1.08105e-05 2.14894e-05 6.8358e-07)
(9.5203e-06 1.56347e-05 -1.63375e-07)
(2.50115e-06 2.51047e-05 -9.46776e-08)
(-4.36497e-07 1.63769e-05 1.94035e-07)
(-3.18624e-06 1.2567e-05 -4.6911e-08)
(-1.07674e-06 9.55417e-06 1.59211e-08)
(-1.01941e-06 8.37821e-06 5.48665e-09)
(-3.71749e-08 7.77043e-06 9.34241e-09)
(-1.73805e-07 7.26498e-06 -4.40918e-09)
(3.14839e-07 7.08162e-06 1.29166e-08)
(-6.95762e-08 8.3574e-06 7.49593e-09)
(6.40549e-10 6.3754e-06 1.28611e-08)
(-4.90405e-07 5.11116e-06 2.02067e-08)
(-1.7263e-07 5.14763e-06 3.46986e-09)
(-3.99982e-07 5.29255e-06 3.40705e-08)
(3.7883e-07 5.73216e-06 1.14362e-08)
(2.3278e-06 6.17213e-06 -2.15746e-08)
(4.81844e-06 7.99655e-06 5.57559e-08)
(1.51941e-05 1.09092e-05 -1.39811e-07)
(1.69568e-05 1.8713e-05 1.4829e-06)
(-4.76735e-06 1.61174e-05 1.04437e-06)
(-3.39269e-06 1.26856e-05 2.56586e-06)
(-6.30694e-06 5.00698e-06 1.56131e-06)
(-5.56842e-06 1.44322e-06 1.72942e-06)
(-2.37549e-06 -4.53558e-06 7.02943e-07)
(1.5525e-06 -4.68954e-06 1.70501e-06)
(2.84451e-06 -1.87829e-06 1.01055e-06)
(7.05268e-06 5.18767e-06 1.44804e-06)
(2.49378e-06 1.23522e-05 2.72974e-06)
(4.18297e-06 1.67019e-05 7.03606e-07)
(-1.55475e-05 1.88583e-05 9.2586e-07)
(-1.26608e-05 1.10691e-05 4.34607e-07)
(-7.88847e-06 8.72443e-06 1.45821e-07)
(-3.76654e-06 7.34345e-06 2.80294e-08)
(-1.90539e-06 6.98553e-06 1.05866e-08)
(-5.16122e-07 6.74236e-06 3.05773e-08)
(-5.6828e-07 6.67425e-06 -3.38645e-09)
(1.4083e-07 6.70868e-06 1.5972e-08)
(-1.38691e-07 8.10993e-06 2.17168e-09)
(-2.20697e-09 6.02518e-06 1.82238e-08)
(-5.13595e-07 4.69995e-06 1.95581e-08)
(-2.88597e-07 4.64214e-06 -7.45568e-09)
(-5.16882e-07 4.36493e-06 3.2554e-09)
(4.26043e-07 3.77035e-06 -1.62788e-09)
(2.20417e-06 2.71876e-06 -1.19298e-08)
(4.16786e-06 -2.7521e-06 1.02419e-07)
(1.23341e-05 -7.47819e-06 -2.8406e-07)
(3.58665e-05 1.66044e-05 7.41502e-07)
(3.48805e-05 3.09532e-05 4.28218e-06)
(2.14762e-05 1.44495e-05 2.43937e-06)
(2.12292e-05 1.1908e-05 4.63917e-06)
(6.86408e-06 1.95523e-05 4.79683e-06)
(2.66916e-06 2.13444e-05 6.05463e-06)
(-3.49081e-06 1.95488e-05 5.22183e-06)
(-9.32347e-06 2.00801e-05 5.83431e-06)
(-1.92953e-05 1.28831e-05 4.24981e-06)
(-2.2652e-05 1.5027e-05 2.70763e-06)
(-3.44608e-05 3.26591e-05 4.03864e-06)
(-3.69745e-05 2.14955e-05 8.23942e-07)
(-1.10607e-05 -9.80614e-06 -3.68759e-07)
(-5.6014e-06 -2.56054e-06 1.95587e-07)
(-3.11736e-06 3.1374e-06 7.07704e-09)
(-1.67536e-06 4.85005e-06 -9.93423e-09)
(-1.78047e-07 5.65458e-06 5.20428e-09)
(-3.44488e-07 6.14814e-06 -1.55657e-08)
(2.25598e-07 6.28299e-06 1.74122e-08)
(-1.19285e-07 7.76705e-06 1.03137e-08)
(-2.6219e-08 5.91149e-06 8.78605e-09)
(-6.04654e-07 4.57051e-06 1.72001e-08)
(-5.2568e-07 4.48188e-06 -4.7987e-09)
(-1.37944e-06 4.01754e-06 3.43947e-08)
(-1.38692e-06 3.13942e-06 1.65623e-08)
(-3.38239e-06 1.67264e-06 6.71562e-08)
(-6.25264e-06 -4.60069e-06 9.08644e-08)
(-1.4929e-05 -9.96142e-06 -1.42522e-06)
(2.12827e-05 -2.02961e-06 -3.7628e-06)
(3.66921e-05 -8.66843e-06 1.50263e-06)
(2.1102e-05 -5.99369e-06 -1.27532e-06)
(9.71264e-06 -1.80479e-06 -6.26619e-07)
(9.03224e-06 -2.1019e-06 1.27355e-07)
(1.3895e-06 9.08836e-06 5.17956e-07)
(-1.49755e-06 1.97841e-06 2.92484e-07)
(-8.96942e-06 8.80789e-06 1.44884e-07)
(-1.15107e-05 2.31236e-06 -5.16923e-07)
(-2.19236e-05 -5.85661e-06 -1.41751e-06)
(-3.86628e-05 -6.23417e-06 1.57011e-06)
(-2.146e-05 -7.35517e-07 -3.84243e-06)
(1.59669e-05 -1.03668e-05 -1.50127e-06)
(6.02254e-06 -3.99562e-06 1.2836e-07)
(2.78006e-06 2.16335e-06 6.66831e-08)
(6.69576e-07 4.26359e-06 7.15955e-09)
(8.63037e-07 5.24672e-06 3.77023e-08)
(4.98159e-08 5.95054e-06 -1.01281e-08)
(3.62984e-07 6.09271e-06 1.68558e-08)
(-7.27445e-08 7.60685e-06 3.4156e-09)
(-3.46479e-08 5.81749e-06 1.89275e-08)
(-5.32874e-07 4.486e-06 2.11251e-08)
(-5.57982e-07 4.47047e-06 2.68583e-09)
(-1.51693e-06 4.14854e-06 3.77616e-08)
(-2.07644e-06 4.13175e-06 2.92141e-08)
(-4.75832e-06 3.31959e-06 1.39483e-08)
(-8.20218e-06 3.67819e-06 2.01046e-07)
(-2.10673e-05 5.61653e-06 -6.29755e-07)
(-5.60866e-06 1.97504e-05 -2.17227e-06)
(2.29076e-06 8.06641e-06 -1.60899e-06)
(1.11794e-06 1.54036e-05 -7.94027e-07)
(-2.53038e-06 1.61977e-05 -7.40947e-07)
(-2.41002e-06 1.45938e-05 -8.90825e-07)
(-1.97332e-06 1.10749e-05 -9.55167e-07)
(4.66821e-07 1.38709e-05 -1.1026e-06)
(5.67385e-07 1.09985e-05 -8.20721e-07)
(2.91603e-06 1.58982e-05 -6.89729e-07)
(-1.48222e-06 1.58539e-05 -7.74285e-07)
(-3.00597e-06 9.11914e-06 -1.57727e-06)
(5.59212e-06 2.15221e-05 -2.17688e-06)
(2.11886e-05 6.15343e-06 -6.75627e-07)
(8.06182e-06 4.44842e-06 2.29068e-07)
(4.31919e-06 4.12279e-06 7.60126e-09)
(1.58479e-06 5.26976e-06 2.68954e-08)
(1.13845e-06 5.3643e-06 4.13929e-08)
(2.00673e-07 5.86158e-06 -3.14381e-10)
(3.44171e-07 5.93409e-06 2.21017e-08)
(-4.47452e-08 7.41739e-06 1.59538e-08)
(-9.03604e-08 5.85642e-06 8.6352e-09)
(-6.1036e-07 4.60593e-06 9.2309e-09)
(-7.24881e-07 4.68484e-06 -1.37507e-08)
(-1.76117e-06 4.46472e-06 3.20101e-08)
(-1.72096e-06 5.01393e-06 -2.30404e-08)
(-4.3549e-06 4.81167e-06 1.11897e-07)
(-4.83159e-06 7.41192e-06 5.02479e-08)
(-9.93862e-06 8.60492e-06 2.55586e-07)
(-5.78947e-06 2.11992e-05 8.78091e-08)
(-2.83418e-08 2.48742e-05 6.15134e-08)
(9.81437e-07 2.15305e-05 2.48938e-07)
(5.5838e-07 2.10865e-05 7.30155e-07)
(-1.75316e-07 2.06305e-05 4.82917e-07)
(-4.08521e-07 2.19515e-05 6.58063e-07)
(-1.31561e-07 2.16044e-05 6.24044e-07)
(3.92595e-08 2.17549e-05 5.79506e-07)
(-1.78051e-06 2.19004e-05 6.84102e-07)
(-1.37771e-06 2.20669e-05 2.59406e-07)
(-6.16955e-07 2.57968e-05 6.16376e-08)
(5.606e-06 2.22119e-05 1.22822e-07)
(9.67487e-06 9.38554e-06 2.57111e-07)
(4.59012e-06 8.23999e-06 3.23378e-08)
(4.13266e-06 5.67542e-06 1.23136e-07)
(1.35611e-06 6.10116e-06 -2.70659e-08)
(1.50305e-06 5.61373e-06 3.53423e-08)
(4.73651e-07 5.97738e-06 -1.46298e-08)
(4.68706e-07 5.94799e-06 1.06219e-08)
(3.11185e-08 7.33366e-06 7.40003e-09)
(-7.47659e-08 5.89001e-06 1.88849e-08)
(-4.24141e-07 4.73357e-06 1.70954e-08)
(-5.82124e-07 4.82983e-06 3.28018e-09)
(-1.23285e-06 4.59951e-06 3.79754e-08)
(-1.36357e-06 5.3346e-06 -1.60943e-09)
(-2.97789e-06 4.50211e-06 1.03163e-07)
(-3.53478e-06 6.99826e-06 -2.38817e-08)
(-4.14956e-06 6.63437e-06 1.30615e-07)
(-7.23744e-06 1.2055e-05 2.35407e-07)
(-4.02633e-06 1.35168e-05 2.03323e-07)
(-4.88044e-06 1.17857e-05 5.22726e-08)
(-3.89464e-06 8.97416e-06 -2.6414e-07)
(-1.84369e-06 8.84683e-06 -2.89165e-07)
(-1.03565e-06 7.85177e-06 -3.06463e-07)
(3.63473e-07 8.45195e-06 -2.86294e-07)
(1.22087e-06 8.43617e-06 -3.1709e-07)
(3.37284e-06 9.41865e-06 -2.67037e-07)
(4.59289e-06 1.2033e-05 7.45511e-08)
(3.60689e-06 1.41294e-05 1.95008e-07)
(7.13861e-06 1.27627e-05 2.4095e-07)
(3.91341e-06 7.36981e-06 1.47736e-07)
(3.35772e-06 7.89471e-06 -2.66243e-08)
(2.81046e-06 5.33908e-06 1.07592e-07)
(1.13833e-06 6.35888e-06 -3.80079e-09)
(1.06349e-06 5.67363e-06 4.10953e-08)
(4.14243e-07 6.00973e-06 3.51055e-09)
(3.19998e-07 5.95681e-06 1.92007e-08)
(3.06087e-08 7.22979e-06 1.90409e-08)
(-1.15184e-07 6.01283e-06 4.78025e-09)
(-4.38642e-07 4.97748e-06 -1.19622e-09)
(-7.27679e-07 5.06084e-06 -1.04492e-08)
(-1.22339e-06 5.04198e-06 2.14464e-09)
(-1.63355e-06 5.65814e-06 -1.99912e-08)
(-2.49456e-06 5.60833e-06 1.69623e-08)
(-3.30322e-06 7.33476e-06 -2.06468e-08)
(-3.44914e-06 7.8965e-06 7.83501e-08)
(-4.71782e-06 1.10318e-05 6.72918e-08)
(-3.44025e-06 1.2498e-05 2.31974e-07)
(-2.34449e-06 1.33457e-05 7.85808e-08)
(-1.32107e-06 1.52809e-05 1.81523e-07)
(-1.04798e-06 1.57573e-05 2.08124e-07)
(-7.62083e-07 1.63041e-05 1.72723e-07)
(4.21084e-07 1.65412e-05 1.39744e-07)
(7.42499e-07 1.59513e-05 2.5068e-07)
(8.72674e-07 1.58719e-05 1.72254e-07)
(2.00403e-06 1.38242e-05 6.43216e-08)
(3.11633e-06 1.32139e-05 2.25488e-07)
(4.59897e-06 1.17458e-05 6.73669e-08)
(3.26593e-06 8.58599e-06 6.44009e-08)
(3.20336e-06 8.17255e-06 -2.26278e-08)
(2.39819e-06 6.44414e-06 1.94864e-08)
(1.50755e-06 6.61459e-06 -2.09933e-08)
(1.12255e-06 6.03671e-06 4.21294e-09)
(6.24983e-07 6.12902e-06 -9.46479e-09)
(3.69053e-07 6.0829e-06 3.42735e-10)
(8.55255e-08 7.21993e-06 5.26825e-09)
(-7.01208e-08 6.0814e-06 1.28015e-08)
(-2.69996e-07 5.14442e-06 8.70509e-09)
(-4.82314e-07 5.1828e-06 7.97125e-09)
(-6.8628e-07 5.25901e-06 2.06613e-08)
(-8.75691e-07 5.62358e-06 2.0171e-08)
(-1.13538e-06 5.73746e-06 6.28612e-08)
(-1.40136e-06 6.51883e-06 4.16959e-08)
(-1.22543e-06 6.83704e-06 1.0164e-07)
(-1.11277e-06 8.22057e-06 1.07281e-07)
(-6.09049e-07 8.98224e-06 1.615e-07)
(-1.40449e-06 9.69542e-06 8.94606e-08)
(-1.67953e-06 9.72877e-06 6.42098e-08)
(-1.25082e-06 9.80382e-06 -2.58806e-08)
(-5.64564e-07 1.0003e-05 -4.52653e-08)
(2.97764e-07 1.01762e-05 -4.34494e-08)
(1.02529e-06 9.87603e-06 -2.43638e-08)
(1.4112e-06 1.01432e-05 5.6248e-08)
(1.28907e-06 1.0123e-05 9.02819e-08)
(4.30488e-07 9.65088e-06 1.56295e-07)
(1.04295e-06 8.92483e-06 1.08948e-07)
(1.13018e-06 7.58911e-06 1.01406e-07)
(1.34599e-06 7.34132e-06 4.01739e-08)
(1.08529e-06 6.56728e-06 6.4045e-08)
(8.12442e-07 6.52672e-06 1.98046e-08)
(6.3218e-07 6.19108e-06 2.17206e-08)
(4.25694e-07 6.16518e-06 8.31592e-09)
(2.28267e-07 6.15922e-06 9.56884e-09)
(5.20734e-08 7.18677e-06 1.30088e-08)