/*--------------------------------*- C++ -*----------------------------------*\
| =========                 |                                                 |
| \\      /  F ield         | OpenFOAM: The Open Source CFD Toolbox           |
|  \\    /   O peration     | Version:  2.3.0                                 |
|   \\  /    A nd           | Web:      www.OpenFOAM.org                      |
|    \\/     M anipulation  |                                                 |
\*---------------------------------------------------------------------------*/
FoamFile
{
    version     2.0;
    format      ascii;
    class       volVectorField;
    location    "0.500149";
    object      Ur;
}
// * * * * * * * * * * * * * * * * * * * * * * * * * * * * * * * * * * * * * //

dimensions      [0 1 -1 0 0 0 0];

internalField   nonuniform List<vector> 
18816
(
(3.38843e-05 0.00241679 3.92532e-05)
(-2.1377e-05 0.00177993 -1.7423e-05)
(-9.01339e-05 0.00177183 -1.40143e-05)
(-9.50797e-05 0.00179874 -1.74128e-05)
(-8.49153e-05 0.00182113 -1.81527e-05)
(-0.000119347 0.00181479 -6.69628e-06)
(-0.000263987 0.00229597 9.70667e-06)
(-0.00026742 0.0026634 -8.55401e-07)
(-0.000230861 0.00270576 -1.32281e-05)
(-4.75516e-05 0.00229449 -8.00967e-06)
(0.000129565 0.00193216 -1.17107e-05)
(0.000107392 0.0017462 -2.51388e-05)
(-1.06278e-05 0.00168844 -3.53886e-05)
(-0.000129582 0.00179574 -3.47074e-05)
(-0.000163769 0.00177823 -2.57159e-05)
(6.41964e-05 0.00178447 -1.7964e-05)
(0.000213474 0.00176595 -2.14422e-05)
(0.000146226 0.00180266 -3.36845e-05)
(8.44605e-05 0.00172064 -3.31849e-05)
(2.15886e-05 0.00178078 -3.09073e-05)
(1.43147e-05 0.00182632 -3.38394e-05)
(1.0188e-05 0.00184867 -3.18009e-05)
(1.05967e-07 0.00189096 -2.89669e-05)
(-2.72143e-05 0.00189477 -3.0797e-05)
(2.11957e-05 0.00184865 -2.58181e-05)
(7.76326e-05 0.00183842 -1.65903e-05)
(3.64678e-05 0.0018642 -1.77866e-05)
(-3.17053e-05 0.00225701 2.99565e-05)
(-4.59138e-05 0.00183856 4.53199e-05)
(-0.00010545 0.00177778 9.47142e-07)
(-0.000122326 0.0018019 -3.80212e-06)
(-0.000105797 0.00190497 -4.815e-06)
(-5.08461e-05 0.0018932 3.699e-06)
(-3.62875e-05 0.00183536 1.91969e-05)
(-0.000151043 0.00228025 5.43732e-06)
(-0.000184214 0.00271169 -2.50105e-05)
(-0.000253453 0.00291336 -4.43941e-05)
(-0.000101229 0.0026543 -4.00729e-05)
(9.00375e-05 0.00222817 -1.37962e-05)
(0.000102325 0.00186603 -5.84487e-06)
(-1.68434e-05 0.00163804 -7.93442e-07)
(-0.000134765 0.00175328 -4.99083e-06)
(-0.00020775 0.00195186 -2.03026e-05)
(3.33246e-05 0.0021447 -3.54651e-05)
(0.000196454 0.00181819 -1.22513e-06)
(0.000237609 0.00169081 2.2065e-06)
(0.000119432 0.00163507 7.77656e-06)
(-3.64404e-05 0.00177914 7.84111e-06)
(-5.47926e-05 0.00189728 2.08016e-06)
(8.41348e-05 0.00200349 -7.12354e-06)
(9.01976e-05 0.00203522 -3.50257e-06)
(-2.0089e-05 0.00209454 -3.57642e-06)
(-5.90174e-05 0.0021372 -7.63836e-06)
(3.76114e-05 0.00207528 -4.05537e-06)
(7.73224e-05 0.00194883 -2.68559e-06)
(3.81476e-05 0.0018448 3.76921e-05)
(-4.82965e-05 0.00166441 1.12971e-05)
(-0.000112325 0.00167874 -1.30517e-06)
(-0.000109624 0.00172075 2.69295e-06)
(-1.59176e-05 0.00187868 1.01725e-05)
(0.000107964 0.00197198 2.06382e-05)
(5.30671e-05 0.00219231 -1.26685e-05)
(2.04049e-05 0.0025274 -9.08743e-06)
(-9.1609e-05 0.0026412 -2.15833e-05)
(-0.000147601 0.00254788 -1.89922e-05)
(-0.000145366 0.00244701 -1.18298e-05)
(-2.48897e-05 0.00217623 -3.42491e-06)
(-8.05101e-05 0.00179727 1.71621e-06)
(-0.00010306 0.00161165 1.22888e-05)
(-7.61841e-05 0.00160027 2.22298e-05)
(-0.000112129 0.00200073 -1.00477e-05)
(-4.93825e-05 0.00220209 -1.60711e-05)
(0.000120894 0.00201069 -2.48288e-06)
(0.000248953 0.00168545 1.38682e-05)
(0.000320972 0.00169377 2.16582e-05)
(0.000176112 0.00187686 2.14817e-05)
(-3.66253e-05 0.00205276 2.58317e-05)
(-3.18232e-05 0.00224893 1.10171e-05)
(-2.37212e-05 0.00224466 2.02518e-06)
(-8.93516e-05 0.0021416 1.01148e-05)
(-0.000259157 0.00216879 1.1865e-05)
(-6.41303e-05 0.0019719 5.24706e-06)
(4.34429e-05 0.00177538 5.53688e-06)
(3.25125e-05 0.00174074 9.78441e-06)
(-2.05521e-05 0.00179422 1.78157e-06)
(-4.12489e-05 0.0017716 -6.75367e-06)
(-1.87503e-05 0.00184678 -1.5411e-05)
(5.59736e-05 0.0020166 -2.21558e-06)
(0.000235133 0.00228506 1.02198e-05)
(0.000391975 0.00259479 -6.86526e-06)
(0.000159218 0.00273086 -1.06757e-05)
(-0.000133296 0.00272675 -7.67113e-06)
(-0.000290233 0.00259442 -1.08008e-05)
(-0.000331909 0.00240643 -1.70998e-05)
(-0.000339381 0.0022045 -1.5982e-05)
(-0.000304181 0.00195734 -1.78593e-05)
(-0.000210193 0.00189718 -1.76597e-05)
(-5.18848e-05 0.00188594 -1.12057e-05)
(6.2526e-05 0.0021182 -1.04361e-05)
(-1.6083e-05 0.0022556 -2.81267e-06)
(0.000118383 0.00242776 -2.48458e-05)
(0.000399919 0.00229627 -3.23937e-05)
(0.000517128 0.00219971 -3.61705e-05)
(0.000380718 0.00219311 -2.26495e-05)
(0.000243546 0.00235331 -1.39985e-05)
(2.91132e-05 0.00256963 -6.20172e-06)
(-0.000270771 0.00262193 -9.07639e-06)
(-0.000528846 0.00256581 5.37748e-06)
(-0.00031586 0.00231411 1.23981e-05)
(-8.06575e-05 0.00200689 1.60777e-06)
(-1.33172e-05 0.00190941 -6.29384e-06)
(3.21106e-06 0.00189773 -3.46074e-06)
(4.7122e-06 0.00185871 3.03657e-06)
(2.37575e-05 0.00178125 -4.58764e-06)
(7.09841e-05 0.00180078 -1.66678e-05)
(0.000143334 0.00198589 -1.51548e-05)
(0.000254806 0.00210758 9.02516e-07)
(0.00038647 0.00231036 1.46411e-06)
(0.000231929 0.00245701 -1.2162e-05)
(-0.000209116 0.00248007 -8.42589e-06)
(-0.000453811 0.00239553 2.96159e-07)
(-0.000552203 0.00233313 1.30871e-05)
(-0.000465924 0.00194672 2.01647e-05)
(-0.000335324 0.00198255 6.54533e-06)
(-0.000215499 0.00230335 -3.71739e-06)
(-4.64736e-05 0.00231457 -8.04395e-06)
(6.48665e-05 0.00200084 1.08704e-05)
(1.11934e-05 0.00177437 3.27051e-05)
(9.68372e-05 0.002408 -1.40361e-06)
(0.000401447 0.00243511 -2.08019e-05)
(0.000571102 0.00235834 -1.70053e-05)
(0.000537519 0.00237103 -1.16118e-05)
(0.000378187 0.0023967 -7.35294e-06)
(4.65089e-05 0.00250394 -5.6655e-06)
(-0.000426419 0.00250013 -5.01085e-06)
(-0.000435954 0.00230651 9.67187e-06)
(-0.000257695 0.00212128 2.95959e-06)
(-0.000142753 0.00198192 -1.19483e-05)
(-7.25384e-05 0.00193234 -1.26205e-05)
(-1.65534e-05 0.00195222 1.37431e-06)
(3.20022e-05 0.00188047 -4.23397e-06)
(7.40177e-05 0.00184327 1.22955e-06)
(0.000108492 0.00169577 -7.10614e-06)
(0.000171741 0.00185061 -1.30946e-05)
(0.00022633 0.00192941 -1.05927e-05)
(0.00028117 0.0019719 -1.43354e-05)
(0.000166114 0.00201869 -1.86089e-05)
(-0.00013208 0.0020255 -9.28931e-06)
(-0.000420991 0.00204458 8.85814e-06)
(-0.000488667 0.00204799 4.69451e-05)
(-0.000400093 0.00133792 0.000175039)
(-0.000182456 0.00120109 0.00057538)
(-0.000146417 0.00179027 0.000238174)
(-4.07777e-05 0.00181542 9.91237e-05)
(1.18344e-05 0.00114115 0.00030764)
(-1.66228e-05 0.000668009 2.91963e-05)
(0.000125676 0.0018549 0.00032172)
(0.000458634 0.00239934 0.000421372)
(0.000721559 0.00205805 0.000161226)
(0.000554942 0.00217119 2.78794e-05)
(0.00027843 0.002085 -7.35609e-06)
(-1.10264e-05 0.00209322 -1.9149e-05)
(-0.000244876 0.00203167 -1.40849e-05)
(-0.000296549 0.00201307 -7.63136e-06)
(-0.000244637 0.00197559 -1.01926e-05)
(-0.000172722 0.00189096 -1.94094e-05)
(-0.000113941 0.00194814 -1.20601e-05)
(-4.18119e-05 0.00195535 -2.79547e-06)
(5.13962e-05 0.00188169 -8.15046e-06)
(9.22879e-05 0.00185194 -6.84886e-06)
(0.000103441 0.00149307 -5.19847e-06)
(0.000160861 0.00160309 -6.15825e-06)
(0.000182535 0.00166497 -4.83527e-06)
(0.000204049 0.00169465 -1.64001e-05)
(0.000112868 0.00175397 -2.34136e-05)
(-6.91217e-05 0.00171452 -5.75729e-06)
(-0.000268033 0.0017691 1.39731e-05)
(-0.000400598 0.00184749 2.46342e-05)
(-0.000294228 0.00144503 6.52437e-05)
(-9.1593e-05 0.000399126 -6.6898e-06)
(2.5508e-05 0.000599377 3.92793e-08)
(-3.86586e-06 0.000614544 5.90531e-06)
(-3.00397e-05 0.000307974 9.75823e-07)
(-4.89019e-05 8.44514e-05 1.56648e-06)
(5.67704e-05 0.000681488 -6.29263e-06)
(0.000291488 0.00158403 7.66534e-05)
(0.000464678 0.00197927 3.53558e-05)
(0.00031689 0.00182836 2.0561e-05)
(0.000149263 0.00176756 1.94729e-06)
(-2.42476e-06 0.00180366 -1.03325e-05)
(-0.000155135 0.00180392 -2.08157e-05)
(-0.000199437 0.00178523 -1.60804e-05)
(-0.000193897 0.00175527 -8.7606e-06)
(-0.00014274 0.00172192 -1.46667e-05)
(-0.000120433 0.00193623 -1.12913e-05)
(-6.14551e-05 0.00193721 -5.98858e-06)
(6.86077e-05 0.00188539 -1.16503e-05)
(7.49447e-05 0.0018416 -6.00792e-06)
(7.53488e-05 0.00146053 3.77476e-06)
(0.000115152 0.00145236 -6.8452e-06)
(0.000135099 0.00147498 -8.41503e-06)
(0.000158393 0.00152868 -1.7676e-05)
(0.000124613 0.0015808 -2.24385e-05)
(-2.74348e-06 0.00159007 -6.93297e-06)
(-0.000153847 0.00164791 3.34306e-07)
(-0.000175603 0.00179212 2.19531e-06)
(-0.00014925 0.00194753 1.05582e-05)
(-6.06752e-05 0.000191256 -1.25459e-05)
(1.64531e-05 6.32921e-05 -2.72988e-06)
(6.18285e-06 4.44329e-05 8.83623e-07)
(-2.16058e-05 6.09038e-05 9.73203e-07)
(-3.28256e-05 7.15538e-05 -1.57098e-06)
(3.74122e-05 0.000207886 -9.33286e-06)
(0.000177979 0.00188023 8.48416e-06)
(0.00024273 0.00178765 1.32595e-05)
(0.000165674 0.0016795 6.32766e-06)
(3.52323e-05 0.00164802 -5.50004e-06)
(-4.32558e-05 0.00163903 -1.97318e-05)
(-0.000106994 0.00162126 -2.0955e-05)
(-0.000129738 0.00156748 -1.38495e-05)
(-0.000136712 0.00152728 -7.28776e-06)
(-9.79623e-05 0.00150388 -6.68105e-06)
(-0.000105594 0.0019173 -1.26618e-05)
(-8.01737e-05 0.00192511 -9.69506e-06)
(7.56138e-05 0.00188975 -1.30878e-05)
(4.0256e-05 0.00179262 -4.37341e-06)
(9.14505e-06 0.00156292 -1.99211e-06)
(4.99876e-05 0.00151803 -1.21129e-05)
(8.87635e-05 0.0015031 -1.35014e-05)
(0.000127007 0.0015168 -1.09012e-05)
(0.000180366 0.00158092 -1.20802e-05)
(3.22438e-05 0.00151203 -1.63228e-05)
(1.58742e-06 0.00172298 -2.97524e-05)
(4.17368e-05 0.00206043 -2.10318e-05)
(-3.21395e-05 0.00216609 -1.50386e-05)
(-1.55861e-05 0.000224551 -2.76091e-05)
(1.68277e-05 7.94628e-05 -3.13633e-06)
(7.82128e-06 5.22235e-05 -1.37457e-06)
(-1.073e-05 6.47313e-05 -1.22975e-06)
(-1.85709e-05 8.3429e-05 -2.37665e-06)
(-2.73395e-05 0.000244226 -2.00603e-05)
(3.69407e-05 0.00227606 -6.67342e-06)
(6.39596e-05 0.0020432 -1.77019e-05)
(6.89369e-05 0.00172982 -1.66831e-05)
(-1.71995e-05 0.00160022 -1.24599e-05)
(-0.000103293 0.00158491 -1.03483e-05)
(-0.00010133 0.00151221 -1.72127e-05)
(-7.97137e-05 0.00145889 -1.79996e-05)
(-7.27409e-05 0.00141273 -1.20946e-05)
(-3.67397e-05 0.00142612 1.20463e-06)
(-5.17231e-05 0.00186039 -4.9698e-06)
(-8.52186e-05 0.00191577 -1.2239e-05)
(7.27123e-05 0.0019086 -1.51231e-05)
(2.24971e-05 0.00170822 2.4222e-06)
(-5.83602e-05 0.00172788 1.30687e-08)
(-1.55701e-05 0.00170941 -1.26776e-05)
(3.8247e-05 0.00169532 -1.94433e-05)
(9.1656e-05 0.0015757 -2.64468e-05)
(0.000142472 0.00153355 -3.65999e-05)
(0.000211718 0.00146998 -3.36065e-05)
(0.000436141 0.00167683 -3.09439e-05)
(0.000316633 0.00210454 5.7559e-06)
(2.7847e-05 0.00167471 -4.09004e-05)
(6.05686e-06 0.000190936 -3.26087e-06)
(7.68225e-06 0.000125424 -3.10888e-06)
(4.52714e-06 0.000109189 -3.16587e-06)
(-3.35257e-06 0.000118806 -2.82651e-06)
(-1.33284e-05 0.000115074 -2.31694e-06)
(5.65921e-05 0.000217245 -3.74251e-06)
(-5.70479e-05 0.00201857 -3.13226e-05)
(-0.000392587 0.00214719 2.3529e-06)
(-0.000361959 0.00165778 -3.51224e-05)
(-0.000140253 0.00149031 -3.67972e-05)
(-0.000137677 0.00153031 -3.23807e-05)
(-0.000100456 0.00158047 -1.52722e-05)
(-5.48284e-05 0.001626 -1.1797e-05)
(-2.43877e-05 0.00161704 -9.39859e-06)
(2.89374e-05 0.00162848 3.39498e-07)
(-1.93893e-05 0.00174757 6.23799e-08)
(-7.73965e-05 0.00191482 -1.48595e-05)
(5.01929e-05 0.00193187 -1.49779e-05)
(1.27402e-05 0.00163515 1.92502e-05)
(-8.27724e-05 0.00180779 3.67436e-06)
(-0.000102577 0.00177899 -1.46413e-05)
(-6.49027e-05 0.00174879 -2.98878e-05)
(5.06569e-05 0.00171496 -3.23883e-05)
(5.68615e-05 0.00164936 -4.5247e-05)
(0.000156572 0.00165234 -2.53965e-05)
(0.000661232 0.00144887 -1.48284e-05)
(0.000492793 0.00138528 1.06725e-05)
(1.91334e-05 0.000628775 -2.15168e-05)
(1.5244e-05 0.000153677 -1.66133e-06)
(5.07842e-06 0.000145987 -3.97663e-07)
(1.42453e-06 0.000137474 -2.02187e-06)
(-5.24615e-06 0.000143675 -4.10504e-07)
(-1.71915e-05 0.000132668 -2.11704e-06)
(-2.8457e-05 0.000160863 -2.36874e-06)
(-4.49737e-05 0.000896482 -8.20407e-05)
(-0.000475553 0.00144598 8.29838e-06)
(-0.000572708 0.00169421 -7.90567e-06)
(-0.000112688 0.00160453 -2.29025e-05)
(-5.0351e-05 0.00159109 -4.77068e-05)
(-4.27183e-05 0.00163471 -3.15357e-05)
(2.14011e-05 0.00168888 -2.4979e-05)
(5.30178e-05 0.00172802 -1.43995e-05)
(7.03576e-05 0.001762 3.17261e-06)
(-8.09459e-06 0.00160461 1.64479e-05)
(-5.59366e-05 0.00191941 -1.54168e-05)
(1.92062e-05 0.00197398 -1.33129e-05)
(-9.02524e-06 0.00179296 1.76313e-05)
(-8.23362e-05 0.0018654 1.18213e-06)
(-0.000106141 0.00188987 -1.96793e-05)
(-2.98126e-05 0.00185769 -5.9162e-05)
(0.000139224 0.00148522 -8.36822e-05)
(0.000361503 0.00116856 -0.000111911)
(0.000262275 0.00139048 0.000498596)
(0.000205425 0.000932567 0.000472201)
(9.1851e-05 0.000543091 2.97687e-05)
(8.77818e-06 0.000204853 1.91485e-06)
(2.63119e-06 0.000148874 9.26056e-07)
(-4.80188e-06 0.000151247 7.50531e-07)
(-1.4606e-06 0.000141692 6.96299e-07)
(-3.82362e-06 0.000150376 6.36829e-07)
(-4.29755e-06 0.000139287 7.12017e-07)
(-1.1283e-05 0.00014691 9.84156e-07)
(-2.77359e-05 0.000346876 2.55186e-06)
(-0.000236475 0.000628643 0.000112216)
(-0.000365974 0.00143094 0.000341683)
(-0.000260835 0.00135583 7.06727e-05)
(-0.000204533 0.00122294 -0.000125815)
(-7.78076e-05 0.00164351 -6.86153e-05)
(2.73456e-05 0.00179571 -4.72209e-05)
(9.5169e-05 0.00184178 -1.95288e-05)
(8.0441e-05 0.00183515 1.82392e-06)
(9.09953e-06 0.00173126 2.06118e-05)
(-2.22568e-05 0.00194508 -1.33509e-05)
(-1.69658e-05 0.00204355 -1.59972e-05)
(-3.23059e-05 0.00187898 8.23592e-06)
(-4.13954e-05 0.00195926 -7.90885e-06)
(-2.91506e-05 0.00205748 -2.86652e-05)
(0.000241016 0.0019823 -0.00011822)
(0.000162467 0.000894428 -1.15999e-05)
(2.63358e-05 0.000800852 1.14073e-05)
(-7.63379e-07 0.000744113 4.25391e-06)
(-9.24714e-06 0.000421813 3.60854e-06)
(-2.23188e-05 0.000199459 8.0404e-07)
(-1.33751e-05 0.000169554 9.73888e-07)
(-9.12428e-06 0.000147167 7.15274e-07)
(-8.2016e-06 0.000145692 6.77019e-07)
(-4.4585e-06 0.000140007 6.61922e-07)
(-3.06793e-06 0.000144342 6.58629e-07)
(6.56287e-07 0.000139734 6.3732e-07)
(-1.48832e-06 0.000145968 6.44413e-07)
(8.07667e-07 0.000170684 7.12786e-07)
(2.01464e-06 0.00025625 8.63734e-07)
(-9.17459e-06 0.000710139 4.97736e-06)
(-1.40968e-05 0.000737674 1.36059e-05)
(-6.38053e-05 0.000789881 1.96139e-05)
(-0.000601769 0.000979698 -0.000159869)
(-0.000152006 0.00191321 -0.000108322)
(4.68431e-05 0.00199015 -2.83553e-05)
(4.93209e-05 0.00192045 -7.16169e-06)
(3.10591e-05 0.00183917 8.07475e-06)
(1.63622e-05 0.00200059 -1.60019e-05)
(-4.40483e-05 0.00216052 -1.87371e-05)
(-1.95833e-05 0.00200117 -8.59115e-06)
(2.39181e-05 0.00212124 -1.7389e-05)
(0.000103624 0.00225107 -4.83969e-05)
(0.000828188 0.00165835 -0.000272614)
(-3.54984e-05 0.000451431 6.14179e-06)
(-4.24425e-05 0.000298669 3.63536e-06)
(-3.59517e-05 0.00024584 2.17122e-06)
(-3.61623e-05 0.0002237 2.54015e-06)
(-3.14038e-05 0.000183001 5.08418e-08)
(-1.98842e-05 0.000160483 5.79744e-07)
(-1.15201e-05 0.000141436 3.5902e-07)
(-1.04085e-05 0.000142069 3.24765e-07)
(-5.25627e-06 0.00013419 3.67689e-07)
(-2.44682e-06 0.000140181 3.06972e-07)
(3.25913e-06 0.000134055 2.95833e-07)
(2.37489e-06 0.000139394 5.47553e-07)
(1.52721e-05 0.000157459 6.92968e-07)
(1.78868e-05 0.000180232 6.67873e-07)
(2.64778e-05 0.000226199 2.52319e-06)
(1.88312e-05 0.00025318 2.67093e-06)
(1.75954e-05 0.000320185 5.17333e-06)
(3.71865e-06 0.000729801 7.07687e-06)
(-0.000681719 0.00162805 -0.000253274)
(-7.4096e-05 0.00219359 -4.80463e-05)
(-9.31426e-06 0.00207232 -1.62129e-05)
(2.67549e-05 0.00196693 -5.49047e-06)
(4.33465e-05 0.00210736 -1.84044e-05)
(-6.20299e-05 0.00226927 -2.78061e-05)
(1.57939e-05 0.00225381 -1.82317e-05)
(0.00011253 0.00234771 -3.42342e-05)
(0.000388792 0.00208038 -0.000127974)
(-8.58633e-05 0.000841017 5.33407e-07)
(-0.000129818 0.000298029 3.86805e-06)
(-8.78096e-05 0.000232495 1.40264e-06)
(-5.83203e-05 0.000206332 1.76117e-06)
(-6.01984e-05 0.00019556 3.25076e-06)
(-5.87866e-05 0.000168338 3.43372e-07)
(-4.08635e-05 0.000147104 6.39138e-07)
(-2.4281e-05 0.000133002 4.56085e-07)
(-1.67153e-05 0.000133236 2.80199e-07)
(-7.80227e-06 0.000127512 3.3623e-07)
(-3.33603e-07 0.000131985 3.51217e-07)
(9.23754e-06 0.000129157 2.14015e-07)
(1.35333e-05 0.000131612 4.63743e-07)
(2.85609e-05 0.00014802 5.46382e-07)
(4.33619e-05 0.00016854 -1.10351e-07)
(4.45174e-05 0.000199916 2.88079e-06)
(4.8685e-05 0.000212773 1.73412e-06)
(7.48448e-05 0.000245414 2.01307e-06)
(0.000106654 0.000325734 6.07359e-06)
(5.32089e-06 0.000898286 -1.08669e-05)
(-0.00031496 0.00204217 -0.000113457)
(-8.66842e-05 0.0022976 -3.11903e-05)
(-6.26457e-06 0.00217313 -1.36718e-05)
(5.81955e-05 0.00227671 -2.6244e-05)
(-9.13783e-05 0.00202748 -5.62343e-05)
(7.39199e-05 0.00220462 -7.295e-05)
(0.000348682 0.00247072 -0.000185752)
(-0.000172198 0.000797672 7.9639e-06)
(-0.00024083 0.000215173 6.26084e-06)
(-0.000170403 0.000184727 1.69156e-06)
(-0.000109554 0.000171756 1.06905e-06)
(-7.35875e-05 0.000163254 1.48012e-06)
(-6.70508e-05 0.000161566 2.9318e-06)
(-5.75909e-05 0.000140193 -4.30761e-07)
(-3.65944e-05 0.000127594 3.17417e-08)
(-2.14278e-05 0.000117349 -1.70438e-07)
(-1.64503e-05 0.000123549 1.9325e-08)
(-8.02166e-06 0.00011596 -2.34315e-07)
(-1.31907e-06 0.000121103 -1.8415e-07)
(9.73074e-06 0.000119769 -3.11119e-07)
(1.14617e-05 0.000118555 -2.59021e-08)
(2.84597e-05 0.000128894 -4.86661e-08)
(4.7184e-05 0.000144007 -2.04217e-07)
(5.77822e-05 0.000168146 2.91873e-06)
(6.48638e-05 0.000170678 1.21342e-06)
(0.000103115 0.000183166 1.25182e-06)
(0.000159427 0.000202784 2.1303e-06)
(0.000218021 0.000256909 8.10013e-06)
(3.67454e-05 0.000955837 -1.52977e-05)
(-0.000262286 0.0022979 -0.000137642)
(-5.10923e-05 0.00220865 -5.39196e-05)
(0.000102024 0.00208473 -5.88247e-05)
(7.73443e-05 0.000550486 6.60128e-06)
(5.22908e-05 0.000838571 -2.666e-05)
(-0.000167843 0.00053097 1.64197e-05)
(-0.000244744 3.86086e-05 8.28227e-06)
(-0.000211517 7.37165e-05 2.62787e-06)
(-0.00015623 0.000101149 1.04416e-06)
(-0.000106638 0.000113693 6.41992e-07)
(-7.19065e-05 0.000117677 1.32026e-06)
(-6.80603e-05 0.000120988 2.73045e-06)
(-6.22413e-05 0.00011975 1.04336e-06)
(-3.93685e-05 0.000116707 2.4401e-07)
(-2.58453e-05 0.000111484 7.99705e-07)
(-1.69964e-05 0.000116986 1.26301e-07)
(-8.308e-06 0.000109851 7.63163e-07)
(5.08141e-07 0.00011453 -4.99157e-07)
(1.15415e-05 0.000114956 6.07005e-07)
(1.7562e-05 0.000115558 7.17046e-07)
(2.935e-05 0.000115763 -2.71454e-07)
(5.26348e-05 0.000122533 1.0235e-06)
(5.76404e-05 0.000127713 2.4504e-06)
(6.62383e-05 0.000127413 1.02519e-06)
(0.000103508 0.000124211 7.67436e-07)
(0.000153157 0.00011563 1.24671e-06)
(0.000211393 9.4494e-05 3.48697e-06)
(0.000246938 9.84434e-05 1.09335e-05)
(0.000142411 0.000634708 1.41537e-05)
(-0.000102178 0.00153558 -0.000125049)
(-7.9537e-05 0.000666647 6.08986e-06)
(2.41868e-05 -6.07321e-05 9.73518e-07)
(-1.14312e-05 -0.000108778 4.60316e-06)
(-0.000115206 -0.000115585 3.74985e-06)
(-0.000162474 -5.00793e-05 2.21935e-06)
(-0.000155499 1.02274e-05 8.58848e-07)
(-0.000124766 4.8905e-05 4.05863e-07)
(-9.13762e-05 7.09396e-05 3.1519e-07)
(-6.46642e-05 8.26642e-05 9.81733e-07)
(-6.54889e-05 8.78147e-05 2.48735e-06)
(-6.25138e-05 9.13488e-05 7.06079e-07)
(-4.0617e-05 9.60234e-05 1.60001e-07)
(-2.63757e-05 9.71905e-05 1.29531e-07)
(-1.56095e-05 0.00010344 8.41876e-08)
(-5.34942e-06 0.000101889 6.62524e-08)
(1.00709e-06 0.000105178 3.03272e-07)
(6.83309e-06 0.000100233 2.06015e-07)
(2.08168e-05 9.96952e-05 -6.12139e-08)
(3.13989e-05 9.98313e-05 2.7941e-07)
(5.18981e-05 9.68431e-05 7.5376e-07)
(5.62845e-05 9.61682e-05 2.06235e-06)
(6.04754e-05 9.14496e-05 7.82563e-07)
(8.89171e-05 8.04065e-05 3.60289e-07)
(0.000122894 5.85808e-05 4.67867e-07)
(0.00015599 2.01453e-05 1.15521e-06)
(0.000164563 -3.94725e-05 2.78601e-06)
(0.000115454 -0.000103926 5.34772e-06)
(1.24486e-06 1.68073e-05 7.20197e-06)
(-3.1506e-05 -3.58971e-05 1.44938e-06)
(4.2333e-06 -8.83275e-05 2.92508e-07)
(-2.40791e-05 -0.00011723 1.68966e-06)
(-8.21245e-05 -0.000101898 1.64951e-06)
(-0.000110887 -5.937e-05 7.54402e-07)
(-0.000110345 -1.49859e-05 3.88778e-07)
(-9.36776e-05 1.74373e-05 3.7606e-07)
(-7.16649e-05 3.95214e-05 4.36486e-07)
(-5.47901e-05 4.98116e-05 1.21852e-06)
(-5.29691e-05 5.63289e-05 1.66079e-06)
(-4.43683e-05 6.46351e-05 -3.66915e-07)
(-3.05929e-05 7.70627e-05 2.21282e-07)
(-1.77295e-05 8.1161e-05 -2.66118e-07)
(-1.04566e-05 9.01348e-05 3.23719e-07)
(-2.56602e-06 8.94166e-05 -2.4092e-07)
(6.61311e-07 9.64851e-05 9.28249e-07)
(4.49788e-06 8.92691e-05 -3.9591e-07)
(1.51322e-05 8.37852e-05 -3.20995e-07)
(2.6003e-05 8.29171e-05 7.57804e-07)
(3.67451e-05 6.95359e-05 -3.32735e-07)
(4.61936e-05 6.37201e-05 1.82244e-06)
(4.964e-05 5.77885e-05 1.14501e-06)
(6.948e-05 4.74559e-05 5.58941e-07)
(9.10949e-05 2.53211e-05 3.94461e-07)
(0.000109765 -8.35204e-06 4.62728e-07)
(0.000111004 -5.36774e-05 9.11752e-07)
(8.06244e-05 -9.83184e-05 1.91889e-06)
(1.87613e-05 -0.000111036 1.7655e-06)
(-7.29059e-06 -7.79492e-05 3.16536e-07)
(-3.83598e-06 -8.61991e-05 5.92345e-08)
(-2.56923e-05 -9.66825e-05 4.97653e-07)
(-5.75241e-05 -8.35177e-05 3.34478e-07)
(-7.50323e-05 -5.55319e-05 1.99252e-07)
(-7.82261e-05 -2.57973e-05 1.9634e-07)
(-6.95971e-05 -1.81887e-06 2.25046e-07)
(-5.6587e-05 1.59887e-05 4.8077e-07)
(-4.52651e-05 2.80044e-05 4.89293e-07)
(-3.09832e-05 3.91086e-05 -2.55087e-07)
(-2.14227e-05 5.82487e-05 8.13772e-07)
(-1.73222e-05 7.1555e-05 3.76394e-07)
(-9.75537e-06 7.62407e-05 1.10642e-06)
(-4.66257e-06 8.54208e-05 8.77845e-07)
(-1.8706e-06 8.49752e-05 1.57669e-06)
(-2.07045e-07 8.74847e-05 9.39789e-07)
(5.56751e-06 8.30436e-05 1.56628e-06)
(2.82176e-06 7.90204e-05 1.38283e-06)
(8.64172e-06 7.31119e-05 7.31768e-07)
(1.40265e-05 6.40172e-05 7.50555e-07)
(2.3172e-05 4.55488e-05 -7.19399e-07)
(4.11824e-05 3.58233e-05 5.64982e-08)
(5.31713e-05 2.19787e-05 5.67946e-07)
(6.64745e-05 4.72743e-06 2.74177e-07)
(7.61999e-05 -2.02557e-05 2.20296e-07)
(7.40057e-05 -5.08943e-05 2.27409e-07)
(5.63462e-05 -7.99147e-05 4.53705e-07)
(2.28952e-05 -9.19928e-05 6.53462e-07)
(2.06681e-06 -7.91209e-05 8.64295e-08)
(-5.50151e-06 -7.44791e-05 8.23956e-09)
(-2.19414e-05 -7.58684e-05 1.53582e-07)
(-4.10036e-05 -6.5838e-05 1.01348e-07)
(-5.27339e-05 -4.85339e-05 1.17676e-07)
(-5.67923e-05 -2.90696e-05 7.0897e-08)
(-5.29948e-05 -1.27904e-05 -1.38219e-08)
(-4.64231e-05 -1.36116e-06 2.39448e-07)
(-3.64553e-05 1.06606e-05 -4.07131e-07)
(-1.23482e-05 2.87264e-05 -1.80421e-08)
(-6.23701e-06 3.32607e-05 3.24239e-06)
(-4.21979e-06 4.01729e-05 4.22864e-06)
(-1.71896e-06 4.78865e-05 5.4106e-06)
(-2.40994e-06 5.04518e-05 5.46029e-06)
(-6.60664e-07 5.42463e-05 6.30655e-06)
(-5.47834e-07 5.26698e-05 5.71e-06)
(1.99821e-06 5.4103e-05 6.15415e-06)
(-3.04668e-06 4.99396e-05 5.56916e-06)
(3.29971e-06 4.33337e-05 3.41989e-06)
(-2.30266e-07 3.7673e-05 3.70739e-06)
(6.1423e-06 3.62541e-05 -1.55603e-07)
(3.11291e-05 1.75256e-05 -4.54467e-07)
(4.32365e-05 3.96769e-06 8.92341e-08)
(5.02183e-05 -7.31822e-06 3.10887e-09)
(5.44221e-05 -2.40119e-05 4.60688e-08)
(5.09626e-05 -4.33955e-05 1.01043e-07)
(3.96006e-05 -6.1602e-05 9.65303e-08)
(2.02543e-05 -7.14372e-05 1.50532e-07)
(4.64219e-06 -6.85619e-05 -1.45464e-08)
(-5.12623e-06 -6.2619e-05 1.40691e-08)
(-1.76038e-05 -6.09711e-05 7.1797e-08)
(-3.02577e-05 -5.35477e-05 2.17399e-08)
(-3.8678e-05 -4.21874e-05 1.43797e-08)
(-4.21677e-05 -2.87051e-05 9.15498e-09)
(-4.13362e-05 -1.61785e-05 9.30894e-08)
(-3.86373e-05 -7.24876e-06 -1.69239e-08)
(-3.22192e-05 4.31192e-06 1.1358e-07)
(-2.67053e-05 1.17732e-05 3.34792e-07)
(-1.76227e-05 3.23675e-06 2.48462e-07)
(-1.3805e-05 4.42682e-06 -4.92724e-08)
(-9.13635e-06 -2.57518e-07 1.25431e-07)
(-6.16137e-06 1.72231e-06 2.44961e-08)
(-2.37842e-06 -2.93209e-06 -3.63541e-08)
(3.92383e-07 8.52082e-08 -7.30988e-09)
(3.78976e-06 -2.06521e-06 -1.20783e-08)
(6.27858e-06 -4.77548e-07 1.06535e-07)
(1.04572e-05 6.0845e-06 2.40409e-07)
(1.31453e-05 5.52167e-06 3.00712e-07)
(2.26947e-05 1.56278e-05 6.77551e-07)
(2.77506e-05 9.67642e-06 1.86457e-07)
(3.49369e-05 -1.67358e-06 -3.10668e-08)
(3.81697e-05 -1.0764e-05 1.08485e-07)
(3.9499e-05 -2.32695e-05 1.71491e-08)
(3.67158e-05 -3.69634e-05 -1.94087e-08)
(2.88475e-05 -4.83339e-05 4.95874e-09)
(1.64358e-05 -5.56117e-05 5.3622e-08)
(4.63517e-06 -5.65619e-05 -3.67491e-09)
(-4.20427e-06 -5.2775e-05 1.15017e-08)
(-1.36242e-05 -5.02813e-05 3.68535e-08)
(-2.25692e-05 -4.45602e-05 1.14976e-08)
(-2.88465e-05 -3.6378e-05 -3.78462e-08)
(-3.19126e-05 -2.71705e-05 -9.91938e-08)
(-3.21691e-05 -1.78501e-05 -5.18579e-08)
(-2.91557e-05 -9.37738e-06 -2.39676e-07)
(-2.41197e-05 -1.39059e-06 -3.71245e-08)
(-1.8376e-05 4.80456e-06 1.28304e-07)
(-1.27056e-05 5.45345e-06 -4.33559e-08)
(-1.00091e-05 7.95726e-06 1.97796e-08)
(-7.25088e-06 1.02166e-05 -5.61888e-08)
(-4.73156e-06 1.17714e-05 -3.73093e-08)
(-1.77736e-06 1.29155e-05 -7.35566e-08)
(4.29261e-07 1.27442e-05 -4.48963e-08)
(3.33258e-06 1.26143e-05 -6.83896e-08)
(4.74197e-06 1.12442e-05 -4.54366e-08)
(7.04043e-06 9.49323e-06 3.94929e-08)
(9.0202e-06 7.35371e-06 -6.79209e-08)
(1.45125e-05 7.5602e-06 1.01581e-07)
(2.04354e-05 2.54941e-06 -4.26375e-08)
(2.57201e-05 -4.94804e-06 -2.24587e-07)
(2.90676e-05 -1.30227e-05 -5.43962e-08)
(2.93569e-05 -2.19127e-05 -1.17766e-07)
(2.68966e-05 -3.07086e-05 -5.61566e-08)
(2.11974e-05 -3.88376e-05 -2.47136e-09)
(1.26966e-05 -4.44065e-05 2.60373e-08)
(3.84993e-06 -4.64798e-05 2.63361e-09)
(-3.24433e-06 -4.50656e-05 9.4451e-09)
(-1.01449e-05 -4.2509e-05 1.9233e-08)
(-1.63997e-05 -3.80269e-05 5.89012e-09)
(-2.09003e-05 -3.16521e-05 -8.24675e-09)
(-2.36557e-05 -2.42275e-05 2.36672e-09)
(-2.46081e-05 -1.68789e-05 -4.33161e-08)
(-2.34799e-05 -9.55577e-06 -7.35438e-08)
(-2.00451e-05 -3.50822e-06 -1.74237e-07)
(-1.35838e-05 1.26386e-06 -2.8331e-07)
(-9.67982e-06 4.0954e-06 5.26665e-08)
(-8.90577e-06 6.82614e-06 -7.33071e-08)
(-6.08201e-06 8.38654e-06 -4.70278e-08)
(-4.08544e-06 9.83495e-06 -4.87335e-08)
(-1.55513e-06 1.01153e-05 -3.36363e-08)
(5.5666e-07 1.04387e-05 -3.16428e-08)
(2.81526e-06 1.00849e-05 -3.28165e-08)
(4.3996e-06 9.20173e-06 -3.29119e-08)
(6.69908e-06 8.19637e-06 -6.54237e-08)
(6.89605e-06 6.20588e-06 6.02465e-08)
(1.04884e-05 4.17823e-06 -3.02495e-07)
(1.70245e-05 -9.65887e-08 -1.74563e-07)
(2.06051e-05 -5.59602e-06 -8.2964e-08)
(2.2142e-05 -1.22161e-05 -7.34075e-08)
(2.15428e-05 -1.90179e-05 4.68484e-09)
(1.91853e-05 -2.60472e-05 -1.64768e-08)
(1.51921e-05 -3.21744e-05 6.41074e-11)
(9.39429e-06 -3.64639e-05 1.11505e-08)
(2.98406e-06 -3.8695e-05 9.5974e-09)
(-2.37183e-06 -3.92817e-05 3.01428e-09)
(-7.32139e-06 -3.68961e-05 9.91042e-09)
(-1.1698e-05 -3.33339e-05 2.45782e-09)
(-1.49606e-05 -2.83432e-05 -4.97647e-09)
(-1.70177e-05 -2.24679e-05 4.29787e-09)
(-1.80303e-05 -1.60249e-05 -1.1097e-08)
(-1.74076e-05 -1.0155e-05 -3.96441e-08)
(-1.5148e-05 -4.1393e-06 -8.26624e-08)
(-1.22684e-05 1.23316e-06 -5.02516e-08)
(-9.57706e-06 2.44769e-06 -8.97887e-08)
(-6.88851e-06 5.71209e-06 -5.88153e-08)
(-4.77848e-06 7.40713e-06 -6.24211e-09)
(-3.07643e-06 8.69614e-06 3.75245e-09)
(-1.18092e-06 9.30091e-06 1.1463e-08)
(4.16121e-07 9.40212e-06 1.4021e-08)
(2.1439e-06 9.09008e-06 1.38395e-08)
(3.46118e-06 8.13869e-06 3.10696e-09)
(5.20996e-06 6.89416e-06 -5.09189e-08)
(7.61553e-06 4.12931e-06 -9.68233e-08)
(1.01461e-05 3.59448e-06 -6.57525e-08)
(1.28972e-05 -1.07596e-06 -9.93597e-08)
(1.5306e-05 -6.40845e-06 -6.32645e-08)
(1.61864e-05 -1.15427e-05 -1.34231e-08)
(1.53566e-05 -1.74868e-05 7.87449e-09)
(1.36016e-05 -2.28917e-05 -9.15067e-09)
(1.07346e-05 -2.75727e-05 -5.08428e-10)
(6.72463e-06 -3.09144e-05 9.64841e-09)
(2.1549e-06 -3.30096e-05 6.94178e-09)
(-1.61749e-06 -3.50222e-05 1.52232e-10)
(-4.93407e-06 -3.28125e-05 3.46088e-09)
(-7.82351e-06 -2.98632e-05 2.71273e-10)
(-1.0028e-05 -2.57677e-05 -2.20467e-11)
(-1.14914e-05 -2.08885e-05 5.36557e-09)
(-1.22237e-05 -1.55155e-05 1.52674e-08)
(-1.19493e-05 -1.0456e-05 -4.61035e-09)
(-1.11667e-05 -5.62107e-06 -9.77758e-09)
(-8.48097e-06 -1.05148e-06 -9.66683e-08)
(-5.93537e-06 2.32229e-06 -1.43955e-08)
(-4.90764e-06 4.5971e-06 4.90973e-08)
(-3.64627e-06 6.12944e-06 4.23906e-08)
(-2.32537e-06 7.21399e-06 2.70974e-08)
(-8.82291e-07 7.69292e-06 2.51681e-08)
(3.97887e-07 7.82243e-06 2.92686e-08)
(1.6892e-06 7.54281e-06 3.59207e-08)
(2.76141e-06 6.79866e-06 4.82127e-08)
(3.75267e-06 5.76034e-06 4.99181e-08)
(4.5527e-06 4.05175e-06 -1.47668e-08)
(7.02929e-06 1.24771e-06 -9.54478e-08)
(9.7171e-06 -2.70438e-06 -1.08385e-08)
(1.04951e-05 -6.86673e-06 -3.39906e-09)
(1.08985e-05 -1.13135e-05 1.53288e-08)
(1.03102e-05 -1.61348e-05 7.22026e-09)
(9.06633e-06 -2.05399e-05 -8.3715e-10)
(7.12212e-06 -2.42942e-05 1.30259e-09)
(4.50992e-06 -2.70069e-05 2.8277e-09)
(1.47165e-06 -2.89332e-05 7.15298e-09)
(-9.45388e-07 -3.23064e-05 2.81816e-09)
(-2.90668e-06 -3.02477e-05 5.38514e-09)
(-4.59355e-06 -2.76899e-05 4.08504e-09)
(-5.91701e-06 -2.41429e-05 4.4826e-09)
(-6.81345e-06 -1.98646e-05 6.61886e-09)
(-7.28759e-06 -1.51854e-05 5.42873e-09)
(-7.06058e-06 -1.04386e-05 -4.47584e-09)
(-6.78961e-06 -5.90887e-06 -4.41754e-09)
(-5.69011e-06 -1.72582e-06 1.32272e-08)
(-4.83398e-06 7.51647e-07 3.8246e-08)
(-3.59405e-06 3.10071e-06 -1.46026e-08)
(-2.28314e-06 4.56039e-06 5.69554e-09)
(-1.41463e-06 5.733e-06 -6.60414e-09)
(-5.13529e-07 6.41283e-06 -7.8619e-09)
(2.27147e-07 6.50298e-06 -5.58232e-09)
(1.03981e-06 6.01471e-06 -1.20277e-09)
(1.81958e-06 5.1598e-06 7.96058e-09)
(2.94706e-06 4.04842e-06 7.54679e-09)
(4.02255e-06 2.27489e-06 7.11288e-08)
(4.83782e-06 4.12664e-07 9.71718e-09)
(5.95063e-06 -3.10471e-06 -7.39439e-09)
(6.26469e-06 -7.01143e-06 -4.73885e-09)
(6.53933e-06 -1.11529e-05 5.3437e-09)
(6.15136e-06 -1.52855e-05 7.10804e-09)
(5.37062e-06 -1.91105e-05 4.4926e-09)
(4.19282e-06 -2.23081e-05 3.44179e-09)
(2.65652e-06 -2.46221e-05 7.1168e-09)
(8.47227e-07 -2.64124e-05 7.93649e-09)
(-3.19783e-07 -3.08349e-05 4.31434e-12)
(-1.00189e-06 -2.88232e-05 8.65329e-10)