/*--------------------------------*- C++ -*----------------------------------*\
| =========                 |                                                 |
| \\      /  F ield         | OpenFOAM: The Open Source CFD Toolbox           |
|  \\    /   O peration     | Version:  2.3.0                                 |
|   \\  /    A nd           | Web:      www.OpenFOAM.org                      |
|    \\/     M anipulation  |                                                 |
\*---------------------------------------------------------------------------*/
FoamFile
{
    version     2.0;
    format      ascii;
    class       volScalarField;
    location    "50";
    object      nut.air;
}
// * * * * * * * * * * * * * * * * * * * * * * * * * * * * * * * * * * * * * //

dimensions      [0 2 -1 0 0 0 0];

internalField   nonuniform List<scalar> 
1875
(
2.05574e-05
2.1472e-05
2.30037e-05
2.44741e-05
2.5832e-05
2.70406e-05
2.81036e-05
2.90396e-05
2.98539e-05
3.05631e-05
3.11908e-05
3.17327e-05
3.21759e-05
3.25253e-05
3.26277e-05
3.2614e-05
3.23588e-05
3.16916e-05
3.06417e-05
2.91975e-05
2.73764e-05
2.51315e-05
2.23051e-05
1.8596e-05
1.40416e-05
2.21404e-05
2.51943e-05
2.77441e-05
2.95908e-05
3.09087e-05
3.18248e-05
3.2443e-05
3.28203e-05
3.30478e-05
3.31774e-05
3.3217e-05
3.32668e-05
3.33238e-05
3.33548e-05
3.34018e-05
3.34518e-05
3.33103e-05
3.28562e-05
3.21816e-05
3.08477e-05
2.9005e-05
2.65663e-05
2.33452e-05
1.91919e-05
1.4585e-05
2.70706e-05
3.07881e-05
3.36516e-05
3.55966e-05
3.68158e-05
3.74716e-05
3.77234e-05
3.76932e-05
3.74677e-05
3.71089e-05
3.66596e-05
3.62159e-05
3.58137e-05
3.53788e-05
3.49278e-05
3.44542e-05
3.3955e-05
3.33347e-05
3.25942e-05
3.14278e-05
2.97279e-05
2.7505e-05
2.46702e-05
2.14171e-05
1.84392e-05
3.34966e-05
3.81531e-05
4.07894e-05
4.19829e-05
4.23338e-05
4.21477e-05
4.16652e-05
4.10432e-05
4.03332e-05
3.9591e-05
3.88377e-05
3.80849e-05
3.73392e-05
3.65807e-05
3.58248e-05
3.50904e-05
3.43314e-05
3.35385e-05
3.26065e-05
3.13492e-05
2.96793e-05
2.7668e-05
2.52625e-05
2.26415e-05
2.02507e-05
4.83476e-05
4.58238e-05
4.62193e-05
4.58763e-05
4.51336e-05
4.42041e-05
4.32056e-05
4.21994e-05
4.1219e-05
4.02782e-05
3.93655e-05
3.84693e-05
3.75842e-05
3.67057e-05
3.58397e-05
3.50084e-05
3.41588e-05
3.32182e-05
3.21501e-05
3.08686e-05
2.93116e-05
2.74581e-05
2.53551e-05
2.31858e-05
2.11806e-05
7.11007e-05
5.09481e-05
4.95907e-05
4.81033e-05
4.65154e-05
4.49178e-05
4.34031e-05
4.20238e-05
4.07951e-05
3.97055e-05
3.8725e-05
3.78089e-05
3.69215e-05
3.60395e-05
3.51477e-05
3.42133e-05
3.32429e-05
3.22946e-05
3.12302e-05
2.9996e-05
2.85846e-05
2.69569e-05
2.51668e-05
2.32757e-05
2.14216e-05
7.52704e-05
5.29594e-05
5.08886e-05
4.86807e-05
4.64873e-05
4.4414e-05
4.2546e-05
4.09104e-05
3.95166e-05
3.83351e-05
3.73103e-05
3.63864e-05
3.55169e-05
3.46654e-05
3.38135e-05
3.29646e-05
3.21098e-05
3.12436e-05
3.02342e-05
2.91208e-05
2.78838e-05
2.64762e-05
2.49617e-05
2.34004e-05
2.18719e-05
7.77547e-05
5.41627e-05
5.13601e-05
4.85853e-05
4.59286e-05
4.34699e-05
4.12522e-05
3.93775e-05
3.78164e-05
3.65496e-05
3.55007e-05
3.4605e-05
3.3814e-05
3.3073e-05
3.23805e-05
3.16981e-05
3.10298e-05
3.02617e-05
2.93869e-05
2.84118e-05
2.73249e-05
2.61129e-05
2.48178e-05
2.34465e-05
2.20221e-05
7.38883e-05
5.46404e-05
5.13856e-05
4.82077e-05
4.52028e-05
4.23431e-05
3.98524e-05
3.77725e-05
3.6076e-05
3.47468e-05
3.37919e-05
3.29954e-05
3.23333e-05
3.17705e-05
3.12491e-05
3.07614e-05
3.0182e-05
2.94977e-05
2.87219e-05
2.78685e-05
2.69078e-05
2.58278e-05
2.46575e-05
2.33672e-05
2.19291e-05
6.16582e-05
5.50902e-05
5.13769e-05
4.7836e-05
4.44725e-05
4.13027e-05
3.85592e-05
3.62746e-05
3.45094e-05
3.32792e-05
3.24386e-05
3.18675e-05
3.1418e-05
3.10137e-05
3.06212e-05
3.01805e-05
2.96666e-05
2.90886e-05
2.84248e-05
2.76449e-05
2.67254e-05
2.56823e-05
2.44952e-05
2.3126e-05
2.1552e-05
5.97538e-05
5.56301e-05
5.14336e-05
4.75914e-05
4.3979e-05
4.06346e-05
3.77878e-05
3.55246e-05
3.38403e-05
3.27209e-05
3.20064e-05
3.15302e-05
3.11952e-05
3.09373e-05
3.06667e-05
3.03547e-05
2.99531e-05
2.94331e-05
2.87774e-05
2.79671e-05
2.70013e-05
2.58665e-05
2.45305e-05
2.29222e-05
2.09513e-05
6.10538e-05
5.62313e-05
5.16073e-05
4.75621e-05
4.3885e-05
4.05421e-05
3.77471e-05
3.55871e-05
3.40693e-05
3.31185e-05
3.25766e-05
3.2284e-05
3.21243e-05
3.20071e-05
3.18512e-05
3.16089e-05
3.12384e-05
3.07112e-05
3.00182e-05
2.9137e-05
2.80565e-05
2.67695e-05
2.52476e-05
2.343e-05
2.12972e-05
6.0989e-05
5.60804e-05
5.15391e-05
4.75781e-05
4.4032e-05
4.08366e-05
3.82052e-05
3.6222e-05
3.48951e-05
3.41493e-05
3.38307e-05
3.37741e-05
3.3834e-05
3.38974e-05
3.38766e-05
3.37194e-05
3.34018e-05
3.28835e-05
3.21476e-05
3.11839e-05
2.99858e-05
2.85497e-05
2.68857e-05
2.4959e-05
2.29128e-05
5.77922e-05
5.44471e-05
5.08639e-05
4.75045e-05
4.43962e-05
4.15553e-05
3.92207e-05
3.74942e-05
3.64057e-05
3.58792e-05
3.57619e-05
3.58851e-05
3.61038e-05
3.63056e-05
3.63932e-05
3.63504e-05
3.61168e-05
3.56602e-05
3.49562e-05
3.39837e-05
3.27283e-05
3.11778e-05
2.9318e-05
2.7115e-05
2.48278e-05
5.48136e-05
5.27218e-05
5.01574e-05
4.75154e-05
4.49326e-05
4.25477e-05
4.05521e-05
3.90822e-05
3.81961e-05
3.78351e-05
3.78572e-05
3.81096e-05
3.84591e-05
3.87867e-05
3.90058e-05
3.9108e-05
3.90194e-05
3.87017e-05
3.81156e-05
3.72309e-05
3.60012e-05
3.43829e-05
3.23338e-05
2.97733e-05
2.69108e-05
5.37761e-05
5.2021e-05
4.99542e-05
4.78328e-05
4.57064e-05
4.3724e-05
4.20462e-05
4.08092e-05
4.00848e-05
3.98241e-05
3.99121e-05
4.02236e-05
4.06489e-05
4.10818e-05
4.14391e-05
4.16971e-05
4.18011e-05
4.17032e-05
4.1368e-05
4.0738e-05
3.97591e-05
3.83294e-05
3.63205e-05
3.35534e-05
2.99697e-05
5.29684e-05
5.16024e-05
4.99986e-05
4.83147e-05
4.66164e-05
4.49955e-05
4.35878e-05
4.25254e-05
4.18992e-05
4.16805e-05
4.1791e-05
4.2125e-05
4.25825e-05
4.30761e-05
4.35401e-05
4.39302e-05
4.42121e-05
4.43569e-05
4.43348e-05
4.40995e-05
4.35818e-05
4.26841e-05
4.12296e-05
3.89683e-05
3.54255e-05
5.22929e-05
5.12999e-05
5.01492e-05
4.88996e-05
4.75675e-05
4.62649e-05
4.50986e-05
4.4182e-05
4.36018e-05
4.33761e-05
4.34577e-05
4.37651e-05
4.42135e-05
4.47262e-05
4.52413e-05
4.57127e-05
4.61094e-05
4.64157e-05
4.66238e-05
4.67163e-05
4.6652e-05
4.63688e-05
4.577e-05
4.47569e-05
4.28941e-05
5.19287e-05
5.10696e-05
5.01784e-05
4.92456e-05
4.82774e-05
4.72847e-05
4.63431e-05
4.55718e-05
4.50491e-05
4.48165e-05
4.48607e-05
4.51278e-05
4.55462e-05
4.60476e-05
4.65732e-05
4.70748e-05
4.75262e-05
4.79123e-05
4.82243e-05
4.84443e-05
4.85575e-05
4.85502e-05
4.83864e-05
4.81049e-05
4.79495e-05
5.05526e-05
5.00316e-05
4.95074e-05
4.89038e-05
4.82928e-05
4.76689e-05
4.70232e-05
4.64551e-05
4.60499e-05
4.58647e-05
4.59078e-05
4.61571e-05
4.65572e-05
4.70467e-05
4.75681e-05
4.80735e-05
4.85285e-05
4.8917e-05
4.92248e-05
4.94373e-05
4.95386e-05
4.95043e-05
4.92819e-05
4.89418e-05
4.8739e-05
4.75927e-05
4.762e-05
4.76604e-05
4.76035e-05
4.74352e-05
4.71824e-05
4.69013e-05
4.66328e-05
4.64392e-05
4.63908e-05
4.65093e-05
4.67904e-05
4.72052e-05
4.77083e-05
4.82366e-05
4.87403e-05
4.91765e-05
4.95192e-05
4.97496e-05
4.98526e-05
4.98133e-05
4.96064e-05
4.92383e-05
4.8747e-05
4.82821e-05
4.28747e-05
4.37499e-05
4.45098e-05
4.51373e-05
4.56161e-05
4.59238e-05
4.60678e-05
4.61227e-05
4.6198e-05
4.63481e-05
4.66065e-05
4.69758e-05
4.74681e-05
4.80248e-05
4.85861e-05
4.9094e-05
4.95077e-05
4.97785e-05
4.9889e-05
4.98215e-05
4.95536e-05
4.90987e-05
4.84336e-05
4.75858e-05
4.66869e-05
3.7852e-05
3.96309e-05
4.11058e-05
4.23311e-05
4.33175e-05
4.41076e-05
4.47178e-05
4.5169e-05
4.55351e-05
4.58657e-05
4.63032e-05
4.68354e-05
4.74337e-05
4.80635e-05
4.86661e-05
4.91796e-05
4.95564e-05
4.97391e-05
4.96992e-05
4.94182e-05
4.88951e-05
4.81213e-05
4.70967e-05
4.58337e-05
4.44944e-05
3.43235e-05
3.67805e-05
3.88226e-05
4.04457e-05
4.17454e-05
4.27578e-05
4.35837e-05
4.42724e-05
4.48557e-05
4.54169e-05
4.59725e-05
4.65873e-05
4.72628e-05
4.79485e-05
4.85693e-05
4.9054e-05
4.9364e-05
4.9431e-05
4.92101e-05
4.86991e-05
4.78869e-05
4.67801e-05
4.53933e-05
4.37454e-05
4.20166e-05
3.278e-05
3.58396e-05
3.83106e-05
4.02088e-05
4.16116e-05
4.26505e-05
4.34403e-05
4.40931e-05
4.46868e-05
4.52694e-05
4.58684e-05
4.64998e-05
4.71572e-05
4.78103e-05
4.83843e-05
4.87895e-05
4.89703e-05
4.88739e-05
4.84418e-05
4.76694e-05
4.65538e-05
4.51126e-05
4.33787e-05
4.13759e-05
3.9299e-05
3.3748e-05
3.70511e-05
3.96625e-05
4.16251e-05
4.29666e-05
4.3847e-05
4.44106e-05
4.48218e-05
4.51916e-05
4.55904e-05
4.6058e-05
4.65941e-05
4.71665e-05
4.77108e-05
4.81504e-05
4.83986e-05
4.83896e-05
4.80785e-05
4.74003e-05
4.63483e-05
4.49305e-05
4.31775e-05
4.11325e-05
3.88315e-05
3.64445e-05
3.63884e-05
3.97663e-05
4.23959e-05
4.43053e-05
4.54875e-05
4.60845e-05
4.62983e-05
4.63378e-05
4.6361e-05
4.64618e-05
4.66741e-05
4.69849e-05
4.73412e-05
4.76716e-05
4.78889e-05
4.79144e-05
4.76673e-05
4.70771e-05
4.61134e-05
4.4774e-05
4.30675e-05
4.10285e-05
3.87242e-05
3.62042e-05
3.36045e-05
4.06353e-05
4.39896e-05
4.6411e-05
4.80016e-05
4.88283e-05
4.90485e-05
4.88418e-05
4.84321e-05
4.80116e-05
4.77026e-05
4.75525e-05
4.75372e-05
4.75909e-05
4.7629e-05
4.75589e-05
4.72877e-05
4.67333e-05
4.5848e-05
4.46035e-05
4.29967e-05
4.10433e-05
3.87844e-05
3.63017e-05
3.36576e-05
3.09641e-05
4.66834e-05
4.97739e-05
5.16448e-05
5.25664e-05
5.27513e-05
5.23727e-05
5.161e-05
5.06738e-05
4.97689e-05
4.90165e-05
4.84529e-05
4.80588e-05
4.77585e-05
4.7456e-05
4.70706e-05
4.64817e-05
4.56294e-05
4.44655e-05
4.29684e-05
4.11392e-05
3.8994e-05
3.65852e-05
3.40054e-05
3.13069e-05
2.86149e-05
5.58763e-05
5.76047e-05
5.81169e-05
5.78236e-05
5.69957e-05
5.57867e-05
5.43421e-05
5.28297e-05
5.1407e-05
5.01837e-05
4.91959e-05
4.84107e-05
4.77511e-05
4.71266e-05
4.64214e-05
4.55416e-05
4.44259e-05
4.30402e-05
4.13671e-05
3.94028e-05
3.71582e-05
3.46795e-05
3.20498e-05
2.93303e-05
2.66037e-05
6.78411e-05
6.66937e-05
6.49936e-05
6.30855e-05
6.10604e-05
5.89519e-05
5.68041e-05
5.47013e-05
5.27712e-05
5.11018e-05
4.97156e-05
4.85795e-05
4.75974e-05
4.66592e-05
4.56799e-05
4.45714e-05
4.32877e-05
4.17914e-05
4.00593e-05
3.80845e-05
3.5888e-05
3.34967e-05
3.09471e-05
2.81713e-05
2.53396e-05
7.90101e-05
7.40813e-05
7.05724e-05
6.74074e-05
6.44461e-05
6.16052e-05
5.88489e-05
5.62383e-05
5.38719e-05
5.18111e-05
5.00714e-05
4.86056e-05
4.7333e-05
4.61671e-05
4.50063e-05
4.37968e-05
4.24783e-05
4.10061e-05
3.9352e-05
3.7502e-05
3.54173e-05
3.30777e-05
3.04559e-05
2.75448e-05
2.44277e-05
8.46462e-05
7.83699e-05
7.42624e-05
7.05473e-05
6.70755e-05
6.37452e-05
6.05484e-05
5.75434e-05
5.48198e-05
5.24269e-05
5.03816e-05
4.86535e-05
4.7198e-05
4.5911e-05
4.47016e-05
4.351e-05
4.22748e-05
4.09437e-05
3.94717e-05
3.78054e-05
3.58933e-05
3.36838e-05
3.11279e-05
2.82455e-05
2.5091e-05
8.80663e-05
8.15315e-05
7.70592e-05
7.30218e-05
6.92316e-05
6.55845e-05
6.2083e-05
5.87988e-05
5.58109e-05
5.31654e-05
5.08932e-05
4.89887e-05
4.74135e-05
4.60964e-05
4.49585e-05
4.3896e-05
4.28436e-05
4.17402e-05
4.05287e-05
3.91148e-05
3.74393e-05
3.54143e-05
3.29726e-05
3.01117e-05
2.68964e-05
9.041e-05
8.38342e-05
7.91605e-05
7.49739e-05
7.10392e-05
6.72388e-05
6.35865e-05
6.01549e-05
5.7012e-05
5.42044e-05
5.17845e-05
4.97885e-05
4.81818e-05
4.68899e-05
4.58323e-05
4.49352e-05
4.41157e-05
4.32921e-05
4.23655e-05
4.12304e-05
3.9814e-05
3.80092e-05
3.5744e-05
3.29978e-05
2.97249e-05
9.14145e-05
8.49025e-05
8.02622e-05
7.61764e-05
7.23396e-05
6.86162e-05
6.50236e-05
6.16176e-05
5.8454e-05
5.55929e-05
5.31075e-05
5.10471e-05
4.94102e-05
4.81695e-05
4.72474e-05
4.65428e-05
4.5954e-05
4.53815e-05
4.47248e-05
4.38863e-05
4.2793e-05
4.13685e-05
3.95465e-05
3.72077e-05
3.4118e-05
8.83035e-05
8.34538e-05
7.95597e-05
7.6063e-05
7.27121e-05
6.93982e-05
6.61452e-05
6.29894e-05
5.99873e-05
5.72206e-05
5.47836e-05
5.27585e-05
5.11659e-05
4.9981e-05
4.91373e-05
4.85414e-05
4.80949e-05
4.77008e-05
4.72653e-05
4.67138e-05
4.59997e-05
4.50806e-05
4.39312e-05
4.24564e-05
4.03716e-05
8.20783e-05
7.92747e-05
7.66744e-05
7.42083e-05
7.17266e-05
6.91739e-05
6.65697e-05
6.39191e-05
6.12989e-05
5.88041e-05
5.65456e-05
5.46263e-05
5.30995e-05
5.19641e-05
5.11694e-05
5.06355e-05
5.02671e-05
4.99718e-05
4.96673e-05
4.92954e-05
4.88222e-05
4.82581e-05
4.76279e-05
4.69379e-05
4.61149e-05
7.40899e-05
7.27667e-05
7.16248e-05
7.04829e-05
6.91841e-05
6.76551e-05
6.59118e-05
6.40083e-05
6.19891e-05
5.99481e-05
5.8027e-05
5.63359e-05
5.49513e-05
5.38981e-05
5.31496e-05
5.26372e-05
5.2283e-05
5.20103e-05
5.17494e-05
5.14523e-05
5.1099e-05
5.06895e-05
5.02429e-05
4.9805e-05
4.93136e-05
6.29132e-05
6.36348e-05
6.43235e-05
6.48087e-05
6.49511e-05
6.46989e-05
6.40394e-05
6.30266e-05
6.17422e-05
6.03124e-05
5.8869e-05
5.75267e-05
5.63773e-05
5.54615e-05
5.47815e-05
5.42996e-05
5.39557e-05
5.36861e-05
5.34334e-05
5.31588e-05
5.28507e-05
5.25096e-05
5.21339e-05
5.1777e-05
5.13797e-05
4.99339e-05
5.32732e-05
5.59406e-05
5.8032e-05
5.95599e-05
6.05344e-05
6.0987e-05
6.09583e-05
6.05228e-05
5.97569e-05
5.88785e-05
5.79861e-05
5.71572e-05
5.64613e-05
5.59161e-05
5.55064e-05
5.51927e-05
5.49297e-05
5.46768e-05
5.4408e-05
5.41219e-05
5.38323e-05
5.35506e-05
5.33646e-05
5.32497e-05
4.13405e-05
4.56044e-05
4.9058e-05
5.19009e-05
5.42504e-05
5.60526e-05
5.73354e-05
5.8123e-05
5.8462e-05
5.84828e-05
5.81901e-05
5.77364e-05
5.72712e-05
5.6843e-05
5.64843e-05
5.61902e-05
5.59378e-05
5.56982e-05
5.54482e-05
5.51759e-05
5.48911e-05
5.4624e-05
5.44068e-05
5.43552e-05
5.45261e-05
3.68598e-05
4.06602e-05
4.4134e-05
4.71953e-05
4.98406e-05
5.20125e-05
5.37646e-05
5.50907e-05
5.59937e-05
5.65186e-05
5.67904e-05
5.68425e-05
5.67505e-05
5.66301e-05
5.64986e-05
5.63563e-05
5.61932e-05
5.59945e-05
5.5752e-05
5.54676e-05
5.51596e-05
5.48632e-05
5.4623e-05
5.4564e-05
5.47546e-05
3.36391e-05
3.75824e-05
4.11297e-05
4.42304e-05
4.68907e-05
4.91087e-05
5.09478e-05
5.24535e-05
5.36516e-05
5.45248e-05
5.51277e-05
5.5551e-05
5.58391e-05
5.59965e-05
5.6075e-05
5.60888e-05
5.60228e-05
5.58697e-05
5.56355e-05
5.53343e-05
5.49911e-05
5.46572e-05
5.43836e-05
5.42851e-05
5.44413e-05
3.26575e-05
3.67228e-05
4.03493e-05
4.3396e-05
4.58484e-05
4.78412e-05
4.94573e-05
5.08077e-05
5.19398e-05
5.28906e-05
5.36646e-05
5.43061e-05
5.48016e-05
5.51657e-05
5.54043e-05
5.55149e-05
5.55122e-05
5.53937e-05
5.51614e-05
5.48422e-05
5.44693e-05
5.40942e-05
5.3773e-05
5.36211e-05
5.37431e-05
3.36545e-05
3.78293e-05
4.1403e-05
4.42185e-05
4.63963e-05
4.80569e-05
4.92842e-05
5.02869e-05
5.11644e-05
5.1965e-05
5.26892e-05
5.33295e-05
5.38766e-05
5.43166e-05
5.4629e-05
5.48002e-05
5.48138e-05
5.46877e-05
5.44281e-05
5.40645e-05
5.3634e-05
5.31968e-05
5.28099e-05
5.25889e-05
5.26599e-05
3.72738e-05
4.12011e-05
4.43009e-05
4.6564e-05
4.81503e-05
4.92605e-05
5.00237e-05
5.05959e-05
5.10944e-05
5.15955e-05
5.21201e-05
5.26464e-05
5.31246e-05
5.35209e-05
5.38038e-05
5.39495e-05
5.3939e-05
5.37683e-05
5.34469e-05
5.30107e-05
5.25043e-05
5.19869e-05
5.15106e-05
5.11827e-05
5.1145e-05
4.35405e-05
4.63247e-05
4.82954e-05
4.95871e-05
5.04095e-05
5.08755e-05
5.10955e-05
5.11955e-05
5.13112e-05
5.15148e-05
5.17971e-05
5.21377e-05
5.2475e-05
5.27537e-05
5.29316e-05
5.29763e-05
5.28645e-05
5.2599e-05
5.21981e-05
5.16925e-05
5.1118e-05
5.05208e-05
4.99417e-05
4.94633e-05
4.92112e-05
5.04871e-05
5.14625e-05
5.20562e-05
5.24055e-05
5.24696e-05
5.23339e-05
5.2082e-05
5.18029e-05
5.15839e-05
5.14816e-05
5.15157e-05
5.16453e-05
5.17994e-05
5.19103e-05
5.1931e-05
5.1835e-05
5.16115e-05
5.12605e-05
5.07912e-05
5.02271e-05
4.9596e-05
4.89368e-05
4.82829e-05
4.77121e-05
4.73601e-05
5.58318e-05
5.51819e-05
5.48688e-05
5.44488e-05
5.3905e-05
5.32852e-05
5.26379e-05
5.20518e-05
5.15877e-05
5.12685e-05
5.10904e-05
5.1007e-05
5.09672e-05
5.09138e-05
5.07966e-05
5.05884e-05
5.02744e-05
4.98495e-05
4.93251e-05
4.87207e-05
4.80558e-05
4.73529e-05
4.66239e-05
4.5903e-05
4.52675e-05
5.89653e-05
5.76947e-05
5.67242e-05
5.57374e-05
5.47155e-05
5.3688e-05
5.2775e-05
5.19784e-05
5.13277e-05
5.08258e-05
5.04759e-05
5.02366e-05
5.00459e-05
4.98517e-05
4.96129e-05
4.93056e-05
4.89182e-05
4.84498e-05
4.79093e-05
4.73112e-05
4.66698e-05
4.5998e-05
4.5306e-05
4.46216e-05
4.40244e-05
6.21153e-05
5.98157e-05
5.80493e-05
5.64638e-05
5.49909e-05
5.36803e-05
5.25477e-05
5.15796e-05
5.07846e-05
5.01742e-05
4.97099e-05
4.93538e-05
4.90507e-05
4.87555e-05
4.84364e-05
4.80737e-05
4.76586e-05
4.71908e-05
4.66766e-05
4.61267e-05
4.55502e-05
4.49556e-05
4.43565e-05
4.38097e-05
4.34063e-05
6.44001e-05
6.10791e-05
5.86285e-05
5.66051e-05
5.48342e-05
5.33219e-05
5.20378e-05
5.09544e-05
5.00932e-05
4.94283e-05
4.89011e-05
4.84749e-05
4.81074e-05
4.77616e-05
4.74119e-05
4.7042e-05
4.66441e-05
4.62158e-05
4.57604e-05
4.5282e-05
4.47814e-05
4.42597e-05
4.37124e-05
4.31509e-05
4.26818e-05
6.46975e-05
6.11235e-05
5.8395e-05
5.6201e-05
5.43418e-05
5.27709e-05
5.14568e-05
5.03618e-05
4.94844e-05
4.87824e-05
4.82245e-05
4.77741e-05
4.73915e-05
4.70448e-05
4.67118e-05
4.63767e-05
4.60298e-05
4.56662e-05
4.5284e-05
4.48813e-05
4.4455e-05
4.3998e-05
4.35033e-05
4.30141e-05
4.26869e-05
6.21169e-05
5.96413e-05
5.73325e-05
5.53981e-05
5.37026e-05
5.22417e-05
5.09983e-05
4.99555e-05
4.90984e-05
4.84103e-05
4.78715e-05
4.74442e-05
4.70929e-05
4.67887e-05
4.65089e-05
4.6236e-05
4.59564e-05
4.56592e-05
4.53364e-05
4.4983e-05
4.45941e-05
4.41654e-05
4.36885e-05
4.3235e-05
4.29435e-05
6.01338e-05
5.82167e-05
5.63553e-05
5.47176e-05
5.32414e-05
5.19371e-05
5.08093e-05
4.98584e-05
4.90817e-05
4.84748e-05
4.80093e-05
4.76534e-05
4.73752e-05
4.71464e-05
4.69414e-05
4.67372e-05
4.65151e-05
4.62631e-05
4.59682e-05
4.56184e-05
4.52083e-05
4.47337e-05
4.42075e-05
4.37282e-05
4.34126e-05
5.92051e-05
5.75248e-05
5.59034e-05
5.44702e-05
5.31781e-05
5.20342e-05
5.10487e-05
5.02298e-05
4.95728e-05
4.90654e-05
4.86938e-05
4.84317e-05
4.82495e-05
4.81172e-05
4.80057e-05
4.78869e-05
4.77334e-05
4.75162e-05
4.72119e-05
4.68084e-05
4.62978e-05
4.56863e-05
4.49963e-05
4.43684e-05
4.39237e-05
5.91571e-05
5.75457e-05
5.60461e-05
5.47508e-05
5.36023e-05
5.25903e-05
5.17302e-05
5.10406e-05
5.05221e-05
5.01674e-05
4.99527e-05
4.9847e-05
4.98154e-05
4.98216e-05
4.98277e-05
4.97955e-05
4.96875e-05
4.947e-05
4.91156e-05
4.86049e-05
4.79248e-05
4.7089e-05
4.61165e-05
4.51592e-05
4.43787e-05
5.94324e-05
5.79469e-05
5.65935e-05
5.54451e-05
5.44491e-05
5.36092e-05
5.29405e-05
5.24465e-05
5.21228e-05
5.19572e-05
5.19212e-05
5.19812e-05
5.21011e-05
5.22405e-05
5.23563e-05
5.24046e-05
5.23417e-05
5.21272e-05
5.17171e-05
5.10806e-05
5.02131e-05
4.91036e-05
4.77537e-05
4.62672e-05
4.48221e-05
5.97675e-05
5.86427e-05
5.75593e-05
5.66355e-05
5.58537e-05
5.52234e-05
5.47534e-05
5.44535e-05
5.43233e-05
5.43436e-05
5.44866e-05
5.47168e-05
5.49933e-05
5.52713e-05
5.55039e-05
5.56432e-05
5.56426e-05
5.54509e-05
5.50293e-05
5.43367e-05
5.33373e-05
5.20116e-05
5.03325e-05
4.83238e-05
4.60857e-05
6.08432e-05
5.99773e-05
5.91406e-05
5.84297e-05
5.78438e-05
5.74057e-05
5.71321e-05
5.70306e-05
5.70949e-05
5.73029e-05
5.76235e-05
5.80182e-05
5.84433e-05
5.88514e-05
5.91932e-05
5.94203e-05
5.94886e-05
5.9359e-05
5.89971e-05
5.83577e-05
5.73913e-05
5.6065e-05
5.43467e-05
5.22008e-05
4.96206e-05
6.29026e-05
6.20841e-05
6.13793e-05
6.08413e-05
6.04409e-05
6.01977e-05
6.01194e-05
6.02085e-05
6.04523e-05
6.08255e-05
6.1294e-05
6.18177e-05
6.23523e-05
6.28508e-05
6.32674e-05
6.35605e-05
6.36947e-05
6.36512e-05
6.34003e-05
6.29135e-05
6.21614e-05
6.1106e-05
5.97038e-05
5.78735e-05
5.5554e-05
6.49295e-05
6.45209e-05
6.40812e-05
6.37481e-05
6.35404e-05
6.34848e-05
6.35924e-05
6.38576e-05
6.42596e-05
6.47669e-05
6.53421e-05
6.59437e-05
6.65276e-05
6.70496e-05
6.74711e-05
6.77655e-05
6.79186e-05
6.79232e-05
6.7786e-05
6.75149e-05
6.71133e-05
6.65711e-05
6.58266e-05
6.47442e-05
6.31343e-05
6.89468e-05
6.79808e-05
6.7263e-05
6.68823e-05
6.67878e-05
6.69166e-05
6.72282e-05
6.76848e-05
6.82459e-05
6.88692e-05
6.95118e-05
7.01307e-05
7.06827e-05
7.11291e-05
7.14404e-05
7.16047e-05
7.16311e-05
7.15444e-05
7.13934e-05
7.12529e-05
7.12136e-05
7.13689e-05
7.17768e-05
7.23873e-05
7.28675e-05
7.31784e-05
7.07109e-05
6.94455e-05
6.90806e-05
6.92509e-05
6.97387e-05
7.04061e-05
7.11649e-05
7.19518e-05
7.27164e-05
7.34151e-05
7.40076e-05
7.44567e-05
7.47305e-05
7.48062e-05
7.46778e-05
7.43603e-05
7.38923e-05
7.33506e-05
7.28679e-05
7.26583e-05
7.30542e-05
7.45667e-05
7.7934e-05
8.36968e-05
7.0929e-05
6.75454e-05
6.72967e-05
6.82632e-05
6.96323e-05
7.10946e-05
7.25176e-05
7.38376e-05
7.50185e-05
7.60346e-05
7.68633e-05
7.74809e-05
7.7863e-05
7.79833e-05
7.78183e-05
7.73477e-05
7.65601e-05
7.54581e-05
7.4069e-05
7.2469e-05
7.08318e-05
6.94922e-05
6.9212e-05
7.18887e-05
8.22387e-05
4.4653e-05
5.34682e-05
6.0231e-05
6.51768e-05
6.89314e-05
7.1904e-05
7.43365e-05
7.63516e-05
7.80204e-05
7.9383e-05
8.04563e-05
8.12448e-05
8.17424e-05
8.19242e-05
8.17505e-05
8.11746e-05
8.01479e-05
7.86211e-05
7.65353e-05
7.38078e-05
7.02909e-05
6.57433e-05
5.95958e-05
5.10437e-05
4.00829e-05
3.991e-05
5.10563e-05
5.94721e-05
6.56588e-05
7.03581e-05
7.40524e-05
7.70396e-05
7.95008e-05
8.15709e-05
8.32702e-05
8.46479e-05
8.57205e-05
8.64789e-05
8.68937e-05
8.69167e-05
8.64894e-05
8.55492e-05
8.40289e-05
8.18514e-05
7.89198e-05
7.50951e-05
7.01733e-05
6.38328e-05
5.5549e-05
4.49363e-05
0.000103346
8.09273e-05
7.66258e-05
7.64005e-05
7.80267e-05
8.02757e-05
8.26097e-05
8.48428e-05
8.68701e-05
8.86501e-05
9.02013e-05
9.15128e-05
9.25578e-05
9.32877e-05
9.36331e-05
9.35108e-05
9.28417e-05
9.15586e-05
8.96139e-05
8.70121e-05
8.39568e-05
8.12652e-05
8.11782e-05
8.82408e-05
0.000117121
0.000487877
0.000156194
0.000115164
9.5792e-05
8.9331e-05
8.84794e-05
8.92991e-05
9.09235e-05
9.28895e-05
9.48738e-05
9.67258e-05
9.8492e-05
0.000100066
0.000101349
0.000102218
0.000102417
0.000101713
9.99769e-05
9.72686e-05
9.3499e-05
8.92954e-05
8.69937e-05
9.16268e-05
0.000128929
0.000497134
0.000332106
0.000165965
0.000122085
9.96086e-05
9.07251e-05
8.2272e-05
7.78296e-05
7.47119e-05
7.45016e-05
7.48885e-05
7.60593e-05
7.8198e-05
8.16011e-05
8.58963e-05
9.01832e-05
9.45481e-05
9.89772e-05
0.000103291
0.00010575
0.000106582
0.000104257
9.76299e-05
0.000106106
0.000210402
0.000816536
0.000222408
0.000108459
6.34859e-05
3.37714e-05
1.808e-05
1.10704e-05
8.1945e-06
6.13024e-06
6.79043e-06
7.2287e-06
8.35934e-06
1.01961e-05
1.38689e-05
1.95952e-05
2.68754e-05
3.26818e-05
3.99712e-05
5.11312e-05
6.45628e-05
7.72052e-05
9.26723e-05
9.48029e-05
0.000103772
0.000183249
0.000466656
0.000103981
6.84057e-05
2.35837e-05
5.27126e-06
2.58357e-07
6.30279e-08
3.66739e-08
2.86005e-08
2.92043e-08
3.07576e-08
3.36145e-08
4.25265e-08
6.76443e-08
4.51025e-07
1.78136e-06
3.92444e-06
7.56973e-06
1.5394e-05
2.90501e-05
3.91619e-05
5.94933e-05
8.36977e-05
9.63611e-05
0.000146752
0.000231738
7.10766e-05
2.87458e-05
5.62771e-06
2.91034e-07
2.7622e-08
1.83227e-08
1.6769e-08
1.55346e-08
1.51425e-08
1.49061e-08
1.49333e-08
1.53281e-08
1.48291e-08
1.41259e-08
3.6894e-08
1.56661e-07
6.55293e-07
2.39554e-06
7.01091e-06
1.28721e-05
2.46653e-05
5.20098e-05
7.10327e-05
0.000126
0.000174645
3.97424e-05
1.42787e-05
2.78862e-06
2.71997e-07
1.73156e-08
1.68609e-08
1.77438e-08
1.83202e-08
1.85211e-08
1.85217e-08
1.82802e-08
1.7664e-08
1.71756e-08
1.49307e-08
1.45766e-08
2.5675e-08
1.29493e-07
5.81635e-07
1.72297e-06
3.96583e-06
9.39404e-06
2.45579e-05
5.03681e-05
8.69903e-05
9.959e-05
)
;

boundaryField
{
    inlet
    {
        type            calculated;
        value           nonuniform List<scalar> 
25
(
2.01933e-08
2.01938e-08
2.01938e-08
2.01935e-08
2.0193e-08
2.01923e-08
2.01914e-08
2.01905e-08
2.01896e-08
2.01887e-08
2.01879e-08
2.01872e-08
2.01867e-08
2.01863e-08
2.01862e-08
2.01862e-08
2.01864e-08
2.01868e-08
2.01873e-08
2.01878e-08
2.01882e-08
2.01887e-08
2.01891e-08
2.01894e-08
2.01901e-08
)
;
    }
    outlet
    {
        type            calculated;
        value           nonuniform List<scalar> 
25
(
3.97562e-05
1.42837e-05
2.78866e-06
1.88546e-08
1.88546e-08
1.88546e-08
1.88546e-08
1.88546e-08
1.88546e-08
1.88546e-08
1.88546e-08
1.88546e-08
1.88546e-08
1.88546e-08
1.88546e-08
1.88546e-08
1.88546e-08
5.81617e-07
1.72293e-06
3.96567e-06
9.39215e-06
2.45375e-05
5.03496e-05
8.69759e-05
9.95842e-05
)
;
    }
    walls
    {
        type            nutkWallFunction;
        Cmu             0.09;
        kappa           0.41;
        E               9.8;
        value           uniform 1e-08;
    }
    defaultFaces
    {
        type            empty;
    }
}


// ************************************************************************* //
