/*--------------------------------*- C++ -*----------------------------------*\
| =========                 |                                                 |
| \\      /  F ield         | OpenFOAM: The Open Source CFD Toolbox           |
|  \\    /   O peration     | Version:  2.3.0                                 |
|   \\  /    A nd           | Web:      www.OpenFOAM.org                      |
|    \\/     M anipulation  |                                                 |
\*---------------------------------------------------------------------------*/
FoamFile
{
    version     2.0;
    format      ascii;
    class       volVectorField;
    location    "4.69999";
    object      U;
}
// * * * * * * * * * * * * * * * * * * * * * * * * * * * * * * * * * * * * * //

dimensions      [0 1 -1 0 0 0 0];

internalField   nonuniform List<vector> 
10000
(
(-0.209668 -0.989722 -0.561719)
(0.0179513 -0.988114 -0.531116)
(0.0594156 -0.920287 -0.511289)
(0.149874 -0.601952 -0.336774)
(0.156494 -0.36833 -0.166114)
(0.156753 -0.244689 -0.328671)
(0.134461 -0.135722 -0.276354)
(0.0230784 -0.0969527 -0.388792)
(-0.00456219 -0.112602 -0.327116)
(-0.0174895 -0.188988 -0.375928)
(0.0782856 -0.182551 -0.183987)
(-0.169771 -0.112958 -0.222832)
(-0.285548 -0.225902 -0.146151)
(-0.319816 -0.212633 -0.149662)
(-0.339479 -0.326298 -0.217884)
(-0.321371 -0.432733 -0.258402)
(-0.103838 -0.612261 -0.318235)
(-0.131387 -0.749084 -0.548583)
(-0.068433 -1.07793 -0.617306)
(0.247832 -1.12565 -0.692613)
(0.00412113 -1.09651 -0.0840031)
(-0.0112243 -1.06845 -0.073135)
(-0.0120643 -1.03344 -0.0651851)
(0.00843577 -0.53106 -0.0165623)
(-0.000209362 -0.289043 -0.0906574)
(-0.00187561 -0.030489 -0.889455)
(0.00320062 -0.044452 -0.549121)
(-0.000890482 -0.0663903 -0.525445)
(-0.00346091 -0.0954183 -0.414876)
(-0.0427232 -0.172595 -0.414392)
(-0.337732 0.109599 -0.609719)
(-0.027789 0.000471996 -1.41421)
(0.000811899 -0.0568335 -0.241512)
(-0.0653962 -0.0723651 -0.246645)
(-0.204489 -0.110796 -0.299289)
(-0.176162 -0.251104 -0.22673)
(0.0137366 -0.331748 0.0352417)
(0.0261977 -0.361804 0.0370003)
(0.0129952 -1.0222 -0.0143361)
(-0.0260737 -1.13695 -0.0971192)
(-0.00545696 -1.09282 -0.0268653)
(-0.00390219 -1.04826 -0.0227888)
(-0.00426865 -1.00242 -0.0251369)
(-0.00456533 -0.489551 -0.0156647)
(-0.00685048 -0.279227 -0.0937682)
(-0.00128783 -0.121945 -0.205105)
(0.00163514 -0.0844763 -0.292388)
(0.0011369 -0.0740692 -0.332697)
(0.00265839 -0.0800038 -0.304386)
(-0.00341907 -0.066103 -0.340569)
(-0.0175979 -0.120683 -0.262397)
(0.00511825 -0.118692 -0.256311)
(0.00210571 -0.085217 -0.228488)
(-0.000538925 -0.0581028 -0.223705)
(-0.00204153 -0.0800758 -0.171331)
(-0.00544491 -0.283996 -0.0961924)
(0.0178253 -0.712953 -0.0422202)
(0.00532368 -0.193804 0.0436513)
(0.0115291 -0.782839 0.0537598)
(-0.00866717 -1.01972 -0.0050929)
(0.00420616 -0.990756 0.00053819)
(0.00552724 -0.933385 -0.000341965)
(0.000591623 -0.825742 0.00229215)
(-0.0111712 -0.427014 -0.000438299)
(-0.00430574 -0.24318 -0.10862)
(-0.00373973 -0.102374 -0.238655)
(-0.000231487 -0.0760969 -0.323915)
(0.000179907 -0.0696546 -0.356705)
(-5.73285e-05 -0.0791747 -0.312577)
(0.00125367 -0.086502 -0.296272)
(0.000552689 -0.0666595 -0.359555)
(-0.00162957 -0.0698844 -0.348228)
(-0.00127378 -0.0791573 -0.321267)
(-2.21166e-05 -0.0808692 -0.309275)
(0.00443937 -0.117025 -0.213722)
(0.00302196 -0.274295 -0.0999986)
(0.0108667 -0.627089 -0.0159725)
(-0.0119332 -0.469477 -0.00628137)
(0.0204446 -0.783676 0.047017)
(-0.00615251 -0.760959 0.0236375)
(0.00923833 -0.988731 0.00377261)
(0.0125101 -0.917026 0.00453904)
(-0.000993338 -0.807828 0.00844195)
(-0.0114151 -0.457075 -0.00222853)
(0.00179451 -0.233992 -0.112739)
(-0.00372144 -0.115151 -0.214482)
(-0.000532471 -0.0870416 -0.282796)
(0.000273011 -0.0762195 -0.32237)
(0.000546851 -0.083321 -0.295553)
(-3.90568e-05 -0.0817495 -0.296453)
(-0.000327787 -0.0781979 -0.316177)
(1.58884e-05 -0.0865062 -0.28517)
(2.09923e-06 -0.084125 -0.28948)
(0.000506856 -0.0799355 -0.30648)
(0.00293218 -0.10839 -0.222983)
(0.00436985 -0.271527 -0.101783)
(-0.0042301 -0.539076 -0.000399406)
(-0.0106572 -0.705302 -0.00206666)
(-0.00422672 -0.97194 0.0171319)
(0.0122141 -0.80553 0.0112828)
(0.00312851 -0.984679 0.0032621)
(0.0117429 -0.872481 0.0140965)
(-0.00623538 -0.884982 -0.00169744)
(-0.0219017 -0.494615 -0.00951208)
(0.00297787 -0.225167 -0.116671)
(-0.00331027 -0.109837 -0.221076)
(-0.000786569 -0.0898745 -0.271359)
(-9.64958e-05 -0.0788416 -0.312449)
(0.000278335 -0.0850358 -0.289391)
(0.000244501 -0.0866776 -0.287378)
(0.000113884 -0.0774708 -0.315932)
(-0.000159568 -0.0848936 -0.288531)
(-0.000437958 -0.0863778 -0.284129)
(0.00052484 -0.0883721 -0.277617)
(0.00283351 -0.113443 -0.216523)
(0.00788002 -0.258295 -0.102832)
(0.0088597 -0.394264 0.0110262)
(0.00897232 -0.632804 0.0215983)
(-0.00809943 -1.08009 -0.0167108)
(-0.0204713 -1.03779 -0.0595821)
(0.00837044 -0.983489 0.00148961)
(0.0155196 -0.834078 0.0251003)
(-0.00438289 -0.785952 -0.000276364)
(-0.0111645 -0.594026 -0.00865389)
(0.00736582 -0.223164 -0.116813)
(-0.00226886 -0.113418 -0.217497)
(-0.000637913 -0.0945386 -0.255799)
(-0.000304138 -0.085746 -0.281263)
(0.000472855 -0.0898822 -0.268693)
(9.20998e-05 -0.0875592 -0.273296)
(-0.000193009 -0.0812324 -0.298386)
(-4.15772e-05 -0.0902947 -0.269667)
(0.000184771 -0.0906736 -0.267002)
(0.00040609 -0.0912915 -0.263382)
(0.00130538 -0.112951 -0.21392)
(0.00349048 -0.249931 -0.100143)
(0.0031527 -0.4735 -0.0101133)
(0.00496123 -0.808694 0.0241053)
(-0.0127609 -1.06803 0.0248943)
(0.0254743 -1.15932 0.0143523)
(0.0170511 -0.979248 0.00266184)
(0.0164588 -0.732525 0.0374791)
(0.00387359 -0.757162 0.014924)
(0.00242349 -0.591411 -0.00127437)
(0.0012553 -0.208013 -0.105714)
(0.000469452 -0.106515 -0.210352)
(8.28422e-05 -0.0935047 -0.24482)
(-0.000151982 -0.0878479 -0.260237)
(-5.69566e-05 -0.0912434 -0.251894)
(1.1328e-05 -0.0895833 -0.259185)
(-0.000113547 -0.0826119 -0.281188)
(-0.000208614 -0.0910685 -0.253989)
(9.62427e-05 -0.0925235 -0.250836)
(-0.000150574 -0.0933019 -0.248222)
(-0.00132112 -0.117404 -0.191929)
(0.00317208 -0.221662 -0.0892089)
(0.00874947 -0.564127 -0.0455401)
(0.0130702 -0.925627 -0.0499438)
(0.00292997 -1.14994 -0.0598065)
(0.0344089 -1.25806 -0.068722)
(0.018383 -1.02208 0.00178628)
(0.0277131 -0.579341 0.0642882)
(0.00861855 -0.808742 -1.47246e-05)
(-0.00844489 -0.53708 0.00026553)
(-0.00754695 -0.163733 -0.0531973)
(-0.00125822 -0.0796766 -0.153543)
(0.000738387 -0.0692961 -0.174466)
(-0.000245955 -0.0643525 -0.184147)
(-0.000876746 -0.0665456 -0.173703)
(0.000670536 -0.0646479 -0.180234)
(-0.000475799 -0.0612246 -0.196829)
(-0.00143215 -0.0672846 -0.173378)
(0.000226857 -0.0685933 -0.171412)
(-0.00019286 -0.067503 -0.179856)
(0.00554636 -0.0816827 -0.139235)
(-0.0248184 -0.188002 -0.0179244)
(-0.0287723 -0.598109 0.011743)
(-0.0178104 -0.941154 0.00263064)
(-0.0170522 -1.16437 0.0187769)
(-0.0195089 -1.30238 0.0160063)
(0.0172174 -1.04552 -0.0107742)
(0.0209186 -0.425706 0.0871366)
(-0.00152456 -0.652616 0.0139196)
(-0.00468446 -0.500301 0.0141938)
(-0.0042235 -0.0719044 0.0117184)
(0.000300958 -0.0296567 0.00495852)
(0.000523384 -0.0252951 0.00517495)
(0.000203894 -0.0146315 0.00511011)
(0.0001322 -0.0209066 0.00545211)
(-0.000142144 -0.0201904 0.00530552)
(2.3836e-05 -0.0134713 0.00489517)
(7.33146e-05 -0.0255447 0.00514282)
(-0.000177535 -0.0292831 0.00508959)
(0.00048017 -0.0298846 0.00543399)
(0.00593529 -0.0325476 0.00670168)
(-0.0140323 -0.0602977 0.0172661)
(-0.0163918 -0.599205 -0.00474544)
(-0.0272727 -0.96116 -0.00262458)
(-0.0171917 -1.18533 0.0102406)
(0.00259254 -1.34631 0.0113335)
(0.0116068 -1.23479 -0.0479606)
(0.00422025 -0.185435 0.146015)
(-0.0100556 -0.531298 0.0352376)
(-0.00156395 -0.449463 0.0270548)
(-0.00197799 -0.0892762 0.00325054)
(-0.00107083 -0.0534136 -0.00213501)
(3.86501e-05 -0.030158 -0.00113267)
(8.48431e-05 -0.0244127 -0.00049796)
(-3.58953e-05 -0.023354 -0.000265052)
(9.41129e-05 -0.0228428 -0.000137535)
(2.97611e-05 -0.0232539 -0.00018511)
(4.97086e-05 -0.0261428 0.000554721)
(0.000375931 -0.0286482 0.00080652)
(0.0017763 -0.0301374 0.0018529)
(-0.000155051 -0.0109661 0.0026042)
(-0.00575774 -0.0329127 0.00217835)
(-0.00381924 -0.587556 0.00456219)
(-0.0129099 -0.97043 -0.0191934)
(-0.00899112 -1.21271 -0.0285192)
(0.0177613 -1.36295 -0.0085208)
(-0.00352986 -1.43649 -0.0588897)
(-0.00273885 -0.0294151 0.176361)
(-0.0180369 -0.500819 0.0278525)
(-0.0016448 -0.431416 0.0204969)
(-0.00208383 -0.0631056 0.00457357)
(-0.00200303 -0.0622788 -0.00075214)
(-0.000522976 -0.0464189 -0.00404139)
(2.11823e-05 -0.0257754 -0.000740783)
(-0.000136545 -0.03209 -0.00215877)
(0.000218178 -0.0303059 -0.00176912)
(-2.44333e-05 -0.0214185 -0.000100741)
(-4.49706e-05 -0.0295521 -0.00066758)
(0.00107049 -0.0332476 -8.57161e-05)
(0.00162818 -0.0204792 0.00186332)
(-0.00143824 -0.00703031 0.000246283)
(-0.000399009 -0.0369861 -0.00201224)
(-0.012434 -0.58595 -0.0161382)
(-0.0252336 -0.980354 0.00166021)
(-0.0021307 -1.24947 0.0130077)
(0.0339006 -1.40424 -0.0117074)
(-0.0315667 -1.52351 0.00817791)
(-0.00296433 -0.0573036 0.0250209)
(-0.00703615 -0.550444 0.000142451)
(0.00308822 -0.413739 0.00941159)
(-0.000104492 -0.0506008 0.00213788)
(-0.00115127 -0.0528719 0.000623222)
(-0.000997444 -0.0671713 -0.00216183)
(-0.000507538 -0.0329991 -0.00165833)
(-6.81283e-05 -0.0415983 -0.0032495)
(0.000181447 -0.0372421 -0.00206196)
(0.00010288 -0.0240101 -0.000632118)
(0.000664245 -0.0318744 -0.000834613)
(0.002199 -0.0270057 0.00195014)
(0.000267867 -0.00661426 0.0013708)
(-0.000805788 -0.00464014 0.000430362)
(0.00135018 -0.0351572 -0.0012431)
(-0.0129953 -0.576572 -0.00567093)
(-0.0203365 -0.970078 0.0125293)
(-0.000266607 -1.2694 -0.010855)
(0.0246641 -1.43403 -0.0144672)
(-0.0237325 -1.6016 0.0171663)
(-0.0129623 -0.621285 -0.149342)
(0.00901492 -0.874204 -0.0558228)
(0.00466526 -0.411652 0.00403947)
(0.004436 -0.040382 0.000999736)
(-0.000373804 -0.0471021 0.00053352)
(-0.000595661 -0.0580264 -3.39169e-05)
(-0.000796196 -0.0452862 -0.00215134)
(-7.94652e-05 -0.0645374 -0.00471701)
(5.54015e-05 -0.0505649 -0.0028363)
(0.000319979 -0.0290257 -0.00080543)
(0.00142774 -0.03995 -0.000218567)
(0.00132124 -0.0125072 0.00204118)
(-0.000389079 -0.00344353 0.000285705)
(-0.000214599 -0.00342032 -3.50681e-05)
(-0.00186979 -0.035086 0.000477386)
(0.000894146 -0.571442 0.00707665)
(-0.00972482 -0.990118 -0.0221525)
(-0.00996584 -1.29183 -0.0172824)
(0.000912979 -1.45241 0.00149028)
(-0.00399133 -1.60982 -0.0230908)
(-0.011565 -1.06068 -0.0957852)
(0.00602509 -1.10337 -0.0396863)
(-0.00510615 -0.489144 -0.00378281)
(0.00489429 -0.0355138 0.00104749)
(0.000305422 -0.0512438 -0.000249052)
(0.000535485 -0.0577264 0.000305567)
(0.000328755 -0.0573167 -0.000679263)
(0.000113437 -0.0875163 -0.000244597)
(-0.000672162 -0.0649939 -0.000957394)
(0.000522895 -0.0346314 -0.000400507)
(0.00173704 -0.0326901 0.00234464)
(0.000124994 -0.00560441 0.000704925)
(-0.000241167 -0.0020905 0.000149531)
(-1.58744e-05 -0.00312999 -0.000344841)
(-0.00444385 -0.0336794 -5.67032e-05)
(-0.00162584 -0.555406 0.0117201)
(-0.00410551 -1.00374 0.00760777)
(0.0101103 -1.3186 -0.0180796)
(-0.00347116 -1.48335 -0.0305164)
(0.000565776 -1.61779 -0.0114474)
(-0.00400166 -1.10867 -0.0204468)
(0.000687495 -1.1444 -0.0103172)
(-0.00643757 -0.527631 -0.0105466)
(0.00106665 -0.0372448 -0.000551393)
(0.000954588 -0.0528265 -0.0007)
(0.000668755 -0.0561708 0.000314062)
(0.000648047 -0.045714 0.000560159)
(4.63599e-05 -0.0558905 0.00220846)
(-0.000669509 -0.0528093 0.000448181)
(0.00111132 -0.034296 0.00047627)
(0.0010114 -0.0152425 0.00244042)
(-0.00035779 -0.00318267 0.000226844)
(-4.06445e-05 -0.00159668 0.000129685)
(0.000358172 -0.00289101 6.49935e-05)
(0.000258379 -0.0333882 -0.000512004)
(-0.0047708 -0.551548 -0.0198972)
(-0.0114128 -0.989886 0.000810692)
(0.0152758 -1.31013 0.0233962)
(0.0262393 -1.49029 -0.0149647)
(0.000484896 -1.61503 -0.00248817)
(0.0002862 -1.10551 -0.00563224)
(0.000348729 -1.14767 -0.00686669)
(0.000661332 -0.596199 -0.0100553)
(-0.00175538 -0.0527741 -0.00504742)
(0.00147778 -0.0525036 0.000544733)
(-6.36594e-05 -0.0552734 0.000411036)
(-1.20558e-05 -0.0444133 0.000728279)
(-0.000133173 -0.0565148 0.000418693)
(5.16834e-05 -0.0539601 0.000187901)
(0.0011784 -0.0300812 0.0009876)
(0.000387659 -0.00740084 0.000873237)
(-0.000194834 -0.00213772 0.000103585)
(5.09006e-05 -0.00135057 9.93321e-05)
(0.000533585 -0.00267852 0.000397397)
(0.00340895 -0.0312592 0.00154819)
(0.00876879 -0.558458 -0.00314968)
(0.015481 -1.00173 -0.0341894)
(0.0210738 -1.30593 -0.0293993)
(6.44708e-05 -1.48441 -0.0308425)
(0.000298444 -1.6146 -0.00197868)
(0.000262147 -1.10692 -0.001238)
(7.33092e-05 -1.14496 -0.00451821)
(0.00226126 -0.603194 -0.00385325)
(0.00129391 -0.093055 -0.00308944)
(0.000731055 -0.0482029 -8.60724e-05)
(0.000261887 -0.0512328 0.00243247)
(-3.27475e-05 -0.0396071 0.001087)
(0.00034793 -0.0529187 0.00227956)
(-0.000335774 -0.0514216 0.00223061)
(0.000279886 -0.0247377 0.000697569)
(0.000221109 -0.00491958 0.000421964)
(-7.16858e-05 -0.00170707 9.56682e-05)
(6.38566e-05 -0.00117099 0.000112542)
(0.000541579 -0.00210569 0.000255656)
(0.00131616 -0.0282711 0.00261016)
(0.0121451 -0.546493 0.00915917)
(0.0490122 -0.997631 -0.00385677)
(0.0593423 -1.26672 0.0104678)
(-0.0500087 -1.3537 0.124725)
(-0.000456078 -1.6141 -0.00277543)
(-0.000261403 -1.10707 -0.001048)
(-0.000566488 -1.14204 -0.00297975)
(-0.000933291 -0.591127 -0.00541473)
(-0.00256273 -0.0853837 -0.00413132)
(-0.0003278 -0.060209 -0.00508836)
(0.000760026 -0.0408353 0.0018767)
(-8.93413e-05 -0.0386879 2.41422e-06)
(0.000201929 -0.0443261 0.000668449)
(-0.000102104 -0.0409526 0.00198784)
(-0.000208027 -0.0245548 -0.000761918)
(0.00018245 -0.00298609 0.000219083)
(-7.25521e-06 -0.0011138 7.39612e-05)
(0.000151184 -0.000789807 9.90467e-05)
(0.000718283 -0.00113772 0.000533625)
(0.00677883 -0.0213013 0.00268631)
(0.0203698 -0.557205 0.0437341)
(0.0779483 -0.956671 0.130345)
(0.0866678 -1.09715 0.318759)
(0.0389805 -1.0629 0.44732)
(-1.71455e-06 -1.61246 -0.000679716)
(-0.000292566 -1.1021 -0.000939619)
(-0.00012262 -1.14181 -0.00163172)
(-0.000235739 -0.579447 -0.00335612)
(-0.00669179 -0.146106 -0.00510942)
(-0.00108929 -0.110207 -0.00388384)
(-0.000610383 -0.0479662 -0.000106448)
(7.5447e-05 -0.0438026 -0.000441297)
(-0.000199443 -0.0636553 -0.00131286)
(6.49152e-05 -0.0461182 -5.73872e-05)
(-0.000643775 -0.0354237 -0.00100521)
(-0.000534632 -0.00320394 6.25406e-05)
(-1.05694e-05 -0.00107138 7.98839e-05)
(0.000311377 -0.000795387 0.000118332)
(0.00150859 -0.00158585 0.00118224)
(0.0175967 -0.0198304 0.00542595)
(0.0576269 -0.51348 0.114477)
(0.128028 -0.833138 0.255554)
(0.0984158 -0.882943 0.348458)
(0.0995436 -0.693243 0.407628)
(-0.224536 -0.979436 -0.493777)
(0.0203651 -0.977616 -0.461755)
(0.0667394 -0.904734 -0.437922)
(0.159518 -0.601463 -0.297288)
(0.166157 -0.366814 -0.141224)
(0.161955 -0.242888 -0.314869)
(0.136185 -0.131693 -0.260592)
(0.0229795 -0.0942794 -0.375507)
(-0.00411101 -0.109337 -0.316197)
(-0.0107302 -0.185223 -0.356437)
(0.082284 -0.182031 -0.174993)
(-0.181638 -0.107406 -0.200964)
(-0.284988 -0.215706 -0.127846)
(-0.316459 -0.201923 -0.133452)
(-0.343991 -0.317853 -0.19804)
(-0.329956 -0.42939 -0.241097)
(-0.111918 -0.624941 -0.285452)
(-0.139085 -0.759003 -0.501368)
(-0.0725776 -1.08071 -0.549998)
(0.263102 -1.12355 -0.623496)
(0.00214264 -1.09014 -0.0782859)
(-0.0107471 -1.06222 -0.0693876)
(-0.0101317 -1.02029 -0.0609937)
(0.0107788 -0.536892 -0.0210937)
(0.0029262 -0.273948 -0.0940827)
(-0.00117214 -0.027937 -0.895256)
(0.00314034 -0.0411747 -0.551629)
(-0.000784608 -0.0625503 -0.526465)
(-0.00305939 -0.0892751 -0.414591)
(-0.0356822 -0.180426 -0.403186)
(-0.344104 0.110257 -0.611865)
(-0.0458134 0.0130895 -1.42835)
(0.00270194 -0.0313292 -0.244829)
(-0.0607036 -0.0648021 -0.243353)
(-0.214845 -0.105998 -0.305079)
(-0.213412 -0.242877 -0.244832)
(0.0156069 -0.488742 0.0318544)
(0.029862 -0.472423 0.0187221)
(0.0145882 -1.04095 -0.0170054)
(-0.0214926 -1.1461 -0.0992261)
(-0.00470005 -1.10103 -0.0226123)
(-0.00506775 -1.06047 -0.0200687)
(-0.00605852 -1.01892 -0.026569)
(-0.00403831 -0.506972 -0.0197101)
(-0.00463391 -0.26576 -0.0960446)
(-0.00121447 -0.117553 -0.202274)
(0.00162653 -0.0794029 -0.290959)
(0.00111435 -0.0693259 -0.332579)
(0.00274919 -0.0748664 -0.304986)
(-0.00317627 -0.0612751 -0.343869)
(-0.0182049 -0.111488 -0.254847)
(0.00489857 -0.113321 -0.253917)
(0.00208106 -0.0793153 -0.227398)
(-0.000520678 -0.0521203 -0.223347)
(-0.00230469 -0.067448 -0.170774)
(-0.00588208 -0.272509 -0.0961649)
(0.0165196 -0.714553 -0.0333322)
(0.00498888 -0.312602 0.0450466)
(0.0140915 -0.884166 0.0514489)
(-0.00985854 -1.05429 -0.0123509)
(0.00481045 -1.0227 0.00224569)
(0.00563785 -0.974356 4.88233e-05)
(0.000377637 -0.878035 1.63425e-05)
(-0.0111194 -0.44281 -0.00158436)
(-0.00369834 -0.230854 -0.1111)
(-0.00350109 -0.0953452 -0.239271)
(-0.000216604 -0.0710569 -0.323989)
(0.000180861 -0.0650965 -0.35661)
(-5.41552e-05 -0.0740338 -0.312469)
(0.0012605 -0.0813159 -0.295532)
(0.000515014 -0.0622802 -0.361452)
(-0.00159119 -0.065032 -0.349718)
(-0.00132003 -0.0738749 -0.321408)
(-2.29301e-05 -0.0757395 -0.308465)
(0.00434957 -0.109781 -0.212424)
(0.00276701 -0.264024 -0.100894)
(0.0108298 -0.636433 -0.0218116)
(-0.0127599 -0.507125 0.0130086)
(0.0217932 -0.886399 0.0534094)
(-0.00548976 -0.826 0.0231721)
(0.00933711 -1.01939 0.00384557)
(0.012958 -0.957692 0.00435925)
(-0.000782456 -0.852449 0.00747031)
(-0.0113522 -0.469038 0.000709441)
(0.00166843 -0.222883 -0.113972)
(-0.00378723 -0.107991 -0.213979)
(-0.000522951 -0.0814292 -0.282315)
(0.000262879 -0.0712904 -0.321971)
(0.000544396 -0.0779405 -0.295249)
(-3.81623e-05 -0.0763821 -0.296404)
(-0.000327663 -0.0732399 -0.315651)
(1.87036e-05 -0.0810641 -0.284445)
(-4.28155e-06 -0.0786996 -0.289147)
(0.000523088 -0.074654 -0.306258)
(0.00269422 -0.101162 -0.223351)
(0.00418638 -0.260546 -0.102233)
(-0.0036738 -0.573502 -0.00736698)
(-0.00876138 -0.742274 0.009375)
(-0.00466609 -1.02483 0.0207809)
(0.0125714 -0.841422 0.0147583)
(0.00275336 -1.0135 0.00318764)
(0.0124404 -0.912775 0.0130277)
(-0.00651956 -0.891054 0.000329468)
(-0.0226098 -0.504203 -0.00425291)
(0.00335123 -0.215453 -0.118008)
(-0.00345232 -0.102519 -0.22097)
(-0.00077247 -0.084048 -0.271155)
(-9.56767e-05 -0.0737229 -0.312035)
(0.000276046 -0.0795357 -0.289087)
(0.000241203 -0.0810924 -0.287083)
(0.000113382 -0.0724336 -0.315766)
(-0.00015668 -0.0793806 -0.288321)
(-0.000438674 -0.080782 -0.283843)
(0.000552768 -0.0826296 -0.277224)
(0.00284047 -0.106187 -0.216694)
(0.00720404 -0.246382 -0.104122)
(0.00856231 -0.449644 0.00815359)
(0.012419 -0.714052 0.0375513)
(-0.00725113 -1.08883 0.000547393)
(-0.0213995 -1.04231 -0.0305226)
(0.00777959 -1.00963 0.000799531)
(0.0164268 -0.881213 0.021238)
(-0.00372438 -0.815583 0.000139633)
(-0.0119695 -0.599403 -0.00347061)
(0.00659303 -0.214826 -0.118032)
(-0.00224136 -0.105668 -0.217239)
(-0.000658201 -0.0882309 -0.255727)
(-0.000297946 -0.0800334 -0.280877)
(0.000471042 -0.0839102 -0.26841)
(9.18381e-05 -0.0817443 -0.273124)
(-0.000190297 -0.0758554 -0.29813)
(-3.8496e-05 -0.084315 -0.269384)
(0.000185756 -0.0846512 -0.266724)
(0.000407241 -0.0851989 -0.263199)
(0.00148853 -0.105299 -0.213913)
(0.00335169 -0.240163 -0.101837)
(0.0036792 -0.482056 -0.00573162)
(0.00489176 -0.828974 0.029739)
(-0.0125972 -1.08018 0.0256714)
(0.0253678 -1.167 0.0175748)
(0.0159669 -1.00417 -0.00136732)
(0.0177366 -0.786008 0.0294923)
(0.00510132 -0.798091 0.0152391)
(0.00291336 -0.611777 0.000513877)
(-0.00055889 -0.200239 -0.108295)
(0.000544459 -0.0992396 -0.212118)
(-5.73732e-05 -0.0873022 -0.246193)
(-0.000145335 -0.0819516 -0.261455)
(-4.39816e-05 -0.0852446 -0.253207)
(-3.157e-06 -0.0836908 -0.260476)
(-0.000105236 -0.0770708 -0.282315)
(-0.0001719 -0.0851141 -0.255288)
(9.77213e-05 -0.0864728 -0.252083)
(-4.4162e-05 -0.0871437 -0.249502)
(-0.00157367 -0.109666 -0.193896)
(0.00825362 -0.215963 -0.0922151)
(0.010132 -0.565276 -0.0291592)
(0.0135458 -0.926079 -0.0356055)
(0.00308325 -1.15002 -0.0493317)
(0.0339422 -1.25865 -0.0576227)
(0.0174608 -1.0274 -0.00203317)
(0.0313372 -0.653295 0.0536027)
(0.0103638 -0.832399 -0.0015741)
(-0.00764993 -0.558754 -0.00044316)
(-0.00815202 -0.159816 -0.0590953)
(-0.00136689 -0.0723867 -0.156706)
(0.000629933 -0.0634516 -0.176912)
(-0.000267305 -0.0587258 -0.18688)
(-0.000892468 -0.0613344 -0.176286)
(0.000670339 -0.0595411 -0.18275)
(-0.000470964 -0.0559329 -0.199449)
(-0.00142259 -0.0620976 -0.175718)
(0.000259843 -0.0631563 -0.173673)
(-0.000152167 -0.0618269 -0.1823)
(0.00685032 -0.0744965 -0.141116)
(-0.0238096 -0.18664 -0.0192289)
(-0.0290896 -0.601797 0.0124294)
(-0.0179105 -0.94469 0.0030316)
(-0.0175173 -1.17058 0.0252122)
(-0.0184873 -1.30959 0.0268239)
(0.0167844 -1.05334 -0.00315059)
(0.0238639 -0.509013 0.073826)
(0.000508448 -0.686186 0.00632994)
(-0.00455778 -0.525673 0.0117736)
(-0.0063783 -0.0970116 0.00875823)
(0.000415247 -0.0327205 0.00389977)
(0.000534137 -0.0289054 0.00395848)
(0.000198793 -0.0172894 0.00386871)
(0.000132705 -0.0243138 0.00413634)
(-0.000135099 -0.0237093 0.00402438)
(2.78124e-05 -0.0163447 0.00370002)
(7.3768e-05 -0.0292409 0.00397835)
(-0.000187654 -0.033247 0.00392582)
(0.000526317 -0.0342362 0.00412172)
(0.00653671 -0.0353772 0.00589913)
(-0.0128851 -0.0577797 0.0151726)
(-0.0159458 -0.599154 -0.00255887)
(-0.027189 -0.961205 -0.00711126)
(-0.0172042 -1.18701 -0.00177479)
(0.0033898 -1.34878 -0.000151072)
(0.0110785 -1.23016 -0.0328642)
(0.00468794 -0.292442 0.131156)
(-0.00798725 -0.577322 0.0295283)
(-0.000767308 -0.479371 0.0245516)
(-0.00178661 -0.0957933 0.00267799)
(-0.000988592 -0.0490712 -0.00114791)
(3.07641e-05 -0.0277634 -0.00057845)
(7.78901e-05 -0.022481 -0.000208166)
(-3.16017e-05 -0.0215165 8.2561e-06)
(8.53893e-05 -0.0210473 9.90264e-05)
(2.32601e-05 -0.0214211 5.8314e-06)
(2.71248e-05 -0.0249928 0.000538689)
(0.000372786 -0.0276136 0.000724258)
(0.00187023 -0.0296017 0.00177452)
(-0.000125504 -0.0100059 0.00236596)
(-0.00529568 -0.0300891 0.0016057)
(-0.00291611 -0.588456 0.00444731)
(-0.0128332 -0.970478 -0.00878468)
(-0.00899655 -1.2128 -0.0189826)
(0.0177941 -1.36325 -0.0131881)
(-0.00549794 -1.43929 -0.0112514)
(-0.00586767 -0.120202 0.170558)
(-0.0157258 -0.541682 0.0262236)
(-0.00112242 -0.457111 0.0186384)
(-0.00175014 -0.0650105 0.00307568)
(-0.00182444 -0.0573227 -0.000642754)
(-0.000488543 -0.0437169 -0.00287523)
(1.64049e-05 -0.0237034 -0.00046816)
(-0.000131394 -0.0302764 -0.0015758)
(0.000204823 -0.0285999 -0.00130978)
(-2.73391e-05 -0.0197065 -6.37339e-05)
(-3.91808e-05 -0.0279015 -0.000597124)
(0.00104497 -0.031277 -0.000141868)
(0.00155334 -0.0196321 0.00144498)
(-0.00130064 -0.00659199 0.000184743)
(-0.000361258 -0.0349542 -0.00187231)
(-0.0119461 -0.585979 -0.0182742)
(-0.0259983 -0.982352 0.00824505)
(-0.00172142 -1.25168 0.0127596)
(0.0336104 -1.40438 -0.0109146)
(-0.0332293 -1.54065 0.0100042)
(-0.00728322 -0.134461 0.0467482)
(-0.00606992 -0.574517 0.00893367)
(0.00314381 -0.434138 0.0079444)
(0.000294725 -0.049642 0.00151208)
(-0.00114126 -0.0561507 0.000186825)
(-0.000921997 -0.0633224 -0.00159164)
(-0.000464948 -0.030323 -0.00103733)
(-6.58141e-05 -0.0392153 -0.00220192)
(0.00016708 -0.0351281 -0.00140517)
(9.29304e-05 -0.0220781 -0.000400372)
(0.000640707 -0.0300175 -0.000577506)
(0.00211842 -0.0263943 0.00156866)
(0.000290134 -0.00624267 0.00110239)
(-0.000707992 -0.00435678 0.000308273)
(0.00136943 -0.0332221 -0.000838956)
(-0.0126614 -0.576953 -0.000344878)
(-0.0202226 -0.970975 0.00198128)
(-0.00037928 -1.26961 -0.0211379)
(0.0246506 -1.43422 -0.0118134)
(-0.0270922 -1.60073 -0.0246862)
(-0.0130446 -0.659671 -0.110938)
(0.0101373 -0.876243 -0.0378285)
(0.0036782 -0.431827 0.00399654)
(0.00459589 -0.0389618 0.000723001)
(-0.000353701 -0.0484231 0.000485883)
(-0.000558467 -0.0615389 -0.000210699)
(-0.000724491 -0.0415716 -0.00133271)
(-7.67513e-05 -0.0607111 -0.00316473)
(4.86804e-05 -0.0476472 -0.0019169)
(0.000312229 -0.0266724 -0.000501635)
(0.00138775 -0.0376123 2.61486e-06)
(0.00124592 -0.0118804 0.00164105)
(-0.000323998 -0.00323194 0.000226056)
(-0.000199843 -0.00321717 -3.86457e-05)
(-0.00183923 -0.0329755 0.000406534)
(0.00145917 -0.572284 0.0105168)
(-0.00979234 -0.990331 -0.0182624)
(-0.00997839 -1.29214 -0.0159303)
(-0.00061896 -1.45527 0.00250531)
(-0.00343056 -1.60947 -0.0213461)
(-0.0112243 -1.08628 -0.075056)
(0.00675186 -1.10031 -0.0277202)
(-0.00493636 -0.491035 -0.00160539)
(0.00470698 -0.0340323 0.000655477)
(0.000282448 -0.0472223 3.67705e-05)
(0.000571292 -0.0609597 0.000236765)
(0.000298554 -0.0526906 -0.000502944)
(0.000109637 -0.0825354 -0.000358306)
(-0.00061631 -0.0613024 -0.00072215)
(0.000518981 -0.0318271 -0.000198916)
(0.00166147 -0.031684 0.00188068)
(0.000161543 -0.00527289 0.000561693)
(-0.000208413 -0.00197152 0.000115985)
(-1.46891e-05 -0.00293833 -0.000242124)
(-0.00423667 -0.0318528 -0.000187686)
(-0.00164892 -0.555424 0.00573192)
(-0.00365143 -1.00559 0.00744633)
(0.0102958 -1.31912 -0.00655758)
(-0.00357943 -1.48371 -0.0315759)
(0.000689414 -1.6181 -0.0113316)
(-0.00355711 -1.13319 -0.0185797)
(0.000749994 -1.14023 -0.00812109)
(-0.00632342 -0.535769 -0.00589612)
(0.000944065 -0.0342965 -0.000341371)
(0.000875742 -0.0486422 -0.000466973)
(0.00065187 -0.059042 0.000229064)
(0.00062897 -0.0468519 0.000219262)
(5.28674e-05 -0.0596763 0.00129327)
(-0.000632338 -0.0548595 0.000132306)
(0.00109371 -0.0329531 0.000412126)
(0.000968098 -0.0144782 0.00191483)
(-0.000290554 -0.0029969 0.000177279)
(-3.4604e-05 -0.00150666 9.96605e-05)
(0.000360194 -0.00272725 7.79395e-05)
(0.000354511 -0.0315748 -0.000156196)
(-0.00469807 -0.551543 -0.0184274)
(-0.0114178 -0.990105 -0.00831054)
(0.0155488 -1.31253 0.0221299)
(0.0259941 -1.4909 -0.0150139)
(0.000123552 -1.61598 -0.00260913)
(0.000772225 -1.12697 -0.00580671)
(0.000485125 -1.1444 -0.00677634)
(0.000928831 -0.62341 -0.00652509)
(-0.00168786 -0.0484558 -0.00317614)
(0.0013774 -0.0529908 0.000323513)
(-7.39113e-05 -0.0581256 0.000274319)
(-1.11034e-05 -0.0452709 0.000510135)
(-0.000134883 -0.0595581 0.00029064)
(6.95163e-05 -0.0561676 6.44657e-05)
(0.00111835 -0.0284058 0.000758342)
(0.000384172 -0.0069723 0.000684655)
(-0.000167222 -0.0020178 7.99841e-05)
(4.27546e-05 -0.00127498 7.52224e-05)
(0.000479786 -0.00251996 0.000293563)
(0.00331878 -0.0296402 0.00147837)
(0.00932809 -0.559714 0.00111309)
(0.0153586 -1.00222 -0.0263177)
(0.0208449 -1.30679 -0.0334382)
(-0.000243068 -1.48576 -0.0238488)
(-0.000291846 -1.61551 -0.002005)
(0.00046154 -1.12285 -0.00127915)
(8.82714e-05 -1.14332 -0.00486996)
(0.00217074 -0.638876 -0.00393442)
(0.00108684 -0.0855206 -0.00183278)
(0.000646202 -0.0445274 0.000107948)
(0.000244431 -0.0542619 0.00191881)
(-2.92715e-05 -0.0396159 0.000729068)
(0.000365054 -0.0563002 0.00183396)
(-0.00034322 -0.0542556 0.00173797)
(0.000290405 -0.0230123 0.000422324)
(0.000222112 -0.00463899 0.000330564)
(-6.10954e-05 -0.00161231 7.54467e-05)
(5.67755e-05 -0.00110568 8.54913e-05)
(0.000463202 -0.00198136 0.000192127)
(0.00107428 -0.0267771 0.00208146)
(0.011809 -0.548249 0.00740472)
(0.0485172 -1.00352 0.00125662)
(0.0561265 -1.2794 0.0158251)
(-0.0464511 -1.38074 0.125219)
(-0.000548459 -1.61397 -0.00290647)
(-0.000514688 -1.12129 -0.00120695)
(-0.000723409 -1.14054 -0.00305887)
(-0.000673098 -0.632412 -0.00638283)
(-0.00231481 -0.0781313 -0.00232124)
(-0.00031292 -0.0550428 -0.00304559)
(0.000655811 -0.040931 0.00156113)
(-7.85094e-05 -0.0355908 7.0509e-05)
(0.000172969 -0.0444026 0.000869737)
(-0.000116281 -0.0411492 0.00162009)
(-0.000191327 -0.0224233 -0.000568556)
(0.000153501 -0.00274345 0.000171904)
(-4.59138e-06 -0.00102585 5.82097e-05)
(0.000128851 -0.000727699 7.18942e-05)
(0.000605003 -0.0010581 0.000363292)
(0.00551191 -0.0197231 0.00198744)
(0.0167609 -0.561758 0.0405153)
(0.071459 -0.972109 0.120287)
(0.081214 -1.13872 0.300536)
(0.0397082 -1.13162 0.418811)
(3.60784e-06 -1.61269 -0.000717979)
(-0.00033399 -1.11733 -0.0011215)
(-6.12267e-05 -1.13997 -0.00165473)
(-0.000541934 -0.625204 -0.00357278)
(-0.00635798 -0.130116 -0.00257185)
(-0.000997241 -0.0999363 -0.00214716)
(-0.000558881 -0.0441241 8.81639e-06)
(6.79531e-05 -0.0402482 -0.000280089)
(-0.000187872 -0.0585085 -0.000746668)
(7.27754e-05 -0.0424244 4.23917e-05)
(-0.000588042 -0.0322626 -0.000636821)
(-0.000511148 -0.00294107 3.66593e-06)
(-1.07531e-05 -0.000983207 4.16252e-05)
(0.00026197 -0.000727082 6.60623e-05)
(0.00125983 -0.0014151 0.000760043)
(0.0140163 -0.0181199 0.00372819)
(0.0506608 -0.513355 0.101272)
(0.125574 -0.844479 0.233898)
(0.102016 -0.929447 0.321876)
(0.117769 -0.801867 0.372238)
(-0.239483 -0.968797 -0.441045)
(0.0223838 -0.968277 -0.412989)
(0.0724271 -0.891907 -0.391304)
(0.169186 -0.601471 -0.266638)
(0.178786 -0.365154 -0.122307)
(0.165386 -0.241341 -0.308496)
(0.139844 -0.128487 -0.255449)
(0.0252358 -0.0927802 -0.368827)
(-0.00414694 -0.108271 -0.310861)
(-0.00949226 -0.184311 -0.349847)
(0.0652947 -0.175027 -0.168021)
(-0.178375 -0.109951 -0.194182)
(-0.268464 -0.19703 -0.124904)
(-0.313497 -0.187812 -0.129066)
(-0.346815 -0.308485 -0.18739)
(-0.339278 -0.424246 -0.227824)
(-0.120576 -0.632934 -0.258175)
(-0.145066 -0.76584 -0.46962)
(-0.0754711 -1.08529 -0.502199)
(0.279276 -1.12248 -0.566475)
(-0.00136148 -1.08578 -0.0745097)
(-0.0100325 -1.05954 -0.0658764)
(-0.00862178 -1.01036 -0.0582408)
(0.0136103 -0.548443 -0.0236502)
(0.00670375 -0.260345 -0.0964009)
(-0.000496633 -0.0267047 -0.897216)
(0.00296392 -0.0396638 -0.55228)
(-0.000722535 -0.060836 -0.526846)
(-0.00308728 -0.0863731 -0.415166)
(-0.0266056 -0.182776 -0.401061)
(-0.350527 0.110678 -0.615457)
(-0.0627399 0.0176014 -1.43271)
(0.00401934 -0.00453662 -0.246932)
(-0.0585836 -0.0564349 -0.24183)
(-0.216008 -0.100215 -0.305559)
(-0.230952 -0.233444 -0.252153)
(0.0161574 -0.592214 0.027331)
(0.0258332 -0.559832 0.0062875)
(0.0170287 -1.07205 -0.0229356)
(-0.0158907 -1.16352 -0.0994404)
(-0.00506268 -1.11338 -0.0293194)
(-0.00586921 -1.07498 -0.0285531)