/*--------------------------------*- C++ -*----------------------------------*\
| =========                 |                                                 |
| \\      /  F ield         | OpenFOAM: The Open Source CFD Toolbox           |
|  \\    /   O peration     | Version:  2.3.0                                 |
|   \\  /    A nd           | Web:      www.OpenFOAM.org                      |
|    \\/     M anipulation  |                                                 |
\*---------------------------------------------------------------------------*/
FoamFile
{
    version     2.0;
    format      ascii;
    class       volScalarField;
    location    "0.84";
    object      rho;
}
// * * * * * * * * * * * * * * * * * * * * * * * * * * * * * * * * * * * * * //

dimensions      [1 -3 0 0 0 0 0];

internalField   nonuniform List<scalar> 
6000
(
1097.54
1128.54
1128.69
1128.69
1128.69
1128.54
1128.54
1128.38
1128.36
1128.17
1128.16
1127.98
1127.96
1099.78
1148.31
1154.72
1154.76
1105.7
1129.52
1136.9
1138.81
1138.89
1138.84
1138.71
1133.79
961.287
977.071
978.864
978.863
1078.91
1069.16
1118.26
1128.52
1128.82
1123.89
1120.93
1128.37
1065.6
929.226
847.438
851.149
916.992
935.554
777.015
928.425
1125.38
1154.7
1105.68
1106.08
1106.08
1120.71
1139
1138.89
1107.08
889.191
733.548
756.89
798.311
741.119
1000.31
1128.7
1128.55
1128.85
1128.62
1021.83
893.422
839.171
763.267
711.109
716.057
708.845
716.459
711.477
716.854
719.34
1026.32
1156.52
1154.63
1156.69
1154.59
1156.62
1154.5
1078.12
898.421
735.159
741.107
728.083
740.952
733.205
958.212
1128.56
1128.71
1128.48
1011.12
786.994
713.802
715.246
709.292
715.653
707.106
716.056
707.78
716.458
707.352
716.852
915.994
1154.63
1157.6
1154.59
1090.59
1008.76
891.921
785.34
735.603
741.182
729.248
740.951
726.763
740.951
1007.24
980.315
1128.44
1029.99
781.536
714.519
714.835
710.74
715.245
707.398
715.652
706.54
716.056
706.371
716.457
715.137
903.185
1157.68
1154.59
911.9
782.755
744.555
741.457
737.697
741.286
731.561
741.12
727.502
740.951
733.48
1100.51
680.587
884.148
791.222
720.539
714.422
712.402
714.835
709.387
715.245
706.472
715.652
705.808
716.056
706.831
716.456
1015.44
1154.59
1066.1
741.784
740.772
741.619
740.757
741.445
736.778
741.273
729.31
741.106
727.097
741.109
1145.03
604.411
660.509
673.964
714.004
714.157
714.421
710.842
714.835
707.398
715.245
706.029
715.652
705.172
716.056
759.645
1154.52
1156.37
773.86
740.839
741.782
741.357
768.459
740.744
741.445
734.873
741.273
728.266
741.106
733.74
1145.94
604.502
623.678
650.654
714.152
715.857
712.816
714.835
710.341
715.245
707.53
715.652
705.568
716.055
706.509
814.135
1155.45
963.592
740.966
741.935
773.25
855.262
899.658
804.3
740.056
741.445
732.23
741.273
728.077
741.276
1145.65
604.964
627.918
670.471
712.207
717.483
714.835
711.841
715.245
709.13
715.652
708.06
716.055
705.568
716.455
825.405
1154.47
815.52
742.082
749.947
913.337
1036.38
1045.61
945.046
787.519
739.09
741.445
731.36
741.273
734.689
1146.09
605.044
647.998
734.512
738.321
723.015
713.643
715.245
711.63
715.652
709.561
716.055
707.945
716.455
707.16
785.496
1112.09
780.562
741.408
826.965
1070.15
1165.32
1122.95
1061.5
931.475
752.604
736.964
741.444
731.718
741.446
1127.87
605.411
692.059
837.293
811.201
750.018
715.245
712.638
715.651
711.392
716.055
710.281
716.455
708.001
716.851
720.325
936.087
783.607
744.618
941.015
1139.21
1214.3
1164.51
1141.06
1097.77
891.983
741.618
738.101
741.444
739.788
1038.04
608.771
769.673
953.686
925.837
820.22
714.87
715.651
713.916
716.055
712.036
716.454
710.514
716.851
708.977
717.244
815.217
798.283
804.951
1015.98
1142.93
1226.81
1217.13
1229.25
1232.62
1136.83
879.337
743.042
739.591
745.994
1023.93
690.35
894.531
1072.13
1068.89
946.787
737.347
714.871
716.055
714.828
716.454
712.706
716.851
710.179
717.244
715.194
781.606
901.434
959.49
1025.22
1128.22
1235.99
1288.1
1310.29
1317.88
1294.21
1157.87
923.863
842.424
900.421
1120.82
877.456
1066.2
1200.97
1211.59
1122.94
844.579
726.011
723.416
724.791
715.47
716.851
712.64
717.243
710.309
717.633
828.107
1135.36
1148.41
1058.88
1101.73
1244.03
1329.38
1338.11
1337.6
1337.99
1326.55
1218.77
1096.3
1195.79
1231.44
1102
1245.39
1304.6
1306.66
1272.3
1079.72
845.34
801.714
805.981
760.519
716.052
717.243
712.314
717.633
717.493
919.345
1300.15
1289.23
1185.18
1127.12
1236.26
1338.03
1337.59
1337.96
1312.66
1278.75
1223.45
1180.98
1221.57
1231.43
1272.84
1341.29
1357.52
1355.08
1344.78
1288.27
1102.23
988.088
955.695
892.981
797.863
716.284
717.633
712.32
723.37
1020.56
1315.22
1334.98
1314.13
1248.96
1242.97
1337.48
1294
984.141
836.723
827.881
838.658
857.988
862.819
1050.74
1349.8
1374.1
1374.3
1368.93
1365.33
1358.62
1308.26
1217.95
1133.72
1069.1
978.639
815.693
716.313
718.018
734.114
1122.33
1313.42
1337.05
1346.67
1335.78
1288.22
1224.73
796.325
508.841
446.502
438.762
446.433
467.036
503.579
617.027
1377.52
1382.4
1373.11
1361.3
1353.8
1356.22
1356.07
1331.56
1274.43
1212.17
1160.96
1046.78
798.66
716.867
794.656
1209.35
1326.16
1338.46
1346.66
1346.87
1328.08
1098.51
576.629
438.423
413.897
410.732
410.834
410.732
460.236
585.401
1388.03
1384.63
1367.2
1352.76
1332.96
1327.78
1347.55
1348.03
1328.92
1287.77
1264.32
1254.05
1032.14
792.495
940.041
1278.73
1343.97
1346.66
1347.43
1346.66
1336.39
1071.78
629.995
500.315
465.302
444.26
440.255
443.473
511.734
688.145
1388.07
1387.22
1370.33
1360.26
1340.36
1316.17
1324.3
1347.95
1343.15
1325.05
1322.15
1334.35
1269.96
1009.28
1143.77
1321.82
1346.64
1348.38
1346.69
1348.79
1345.09
1106.86
741.251
618.437
569.802
537.65
528.561
532.126
605.737
803.907
1384.5
1372.76
1367.75
1364.52
1353.34
1316.41
1312.95
1343.82
1354.45
1354.17
1360.79
1369.81
1349.46
1233.52
1293.99
1338.89
1347.65
1346.65
1352.25
1346.69
1346.88
1159.8
874.251
758.372
700.045
663.717
650.936
651.839
722.337
891.427
1160.09
1287.11
1342.27
1348.74
1352.95
1320.51
1312.95
1347.13
1368.09
1375.34
1378.1
1377.8
1346.38
1281.26
1310.96
1314.47
1176.41
1312.34
1346.52
1352.25
1346.6
1210.61
1010.53
911.48
847.539
807.704
791.017
789.455
850.198
983.374
538.346
767.487
1151.06
1321.94
1349.38
1327.95
1317.07
1356.38
1377.66
1378.38
1377.93
1358.72
1169.74
1083.06
1126.07
990.517
720.409
774.019
1151.64
1346.37
1348.55
1256.3
1143.74
1066.78
1006.13
964.733
944.146
939.832
983.15
1079.99
274.625
314.769
503.084
815.433
1150.78
1328.44
1328.7
1363.42
1378.19
1377.99
1355.55
1236.82
841.985
668.535
678.351
612.463
590.715
599.96
622.209
1061.26
1290.73
1283.08
1242.17
1193.72
1148.89
1114.04
1092.29
1084.4
1102.89
1165.33
271.429
271.429
275.282
347.038
524.265
933.226
1342.88
1355.28
1377.98
1378.53
1347.06
1237.26
687.511
593.497
599.959
593.174
599.959
586.797
599.959
850.056
1225.4
1284.72
1276
1259.68
1237.79
1217.74
1201.13
1190.77
1188.08
1224.2
271.429
271.429
282.557
316.516
371.204
484.146
883.773
1302.57
1377.94
1372.35
1367.8
1331.69
682.175
599.959
593.328
599.959
590.942
599.959
586.797
792.756
1213.93
1285.04
1283.2
1275.62
1266.74
1258.89
1250.31
1241.48
1234.48
1256.64
279.924
296.943
329.34
374.682
456.911
554.543
644.229
885.524
1137.06
1185.49
1363.18
1332.91
761.579
596.774
599.959
593.559
599.959
588.303
599.959
730.251
1189.05
1284.72
1284.76
1277.44
1270.61
1265.86
1260.89
1255.85
1255.05
1274
346.165
369.093
405.559
477.564
610.034
733.848
773.012
770.33
733.245
668.755
1098.03
1323.09
902.582
599.959
594.866
599.958
593.308
599.958
589.68
666.372
1132.83
1285.05
1281.12
1274.81
1270.8
1267.18
1263.45
1260.78
1265.76
1285.06
483.828
476.55
504.09
606.014
771.198
873.394
881.2
799.08
565.205
523.857
613.126
1101.63
990.116
654.972
599.958
594.586
599.958
592.189
599.958
631.997
1075.74
1256.25
1270.19
1270.15
1270.98
1268.89
1266.21
1265.99
1274.46
1293.47
668.71
600.083
625.64
747.224
886.341
904.037
882.634
735.104
526.578
530.368
522.042
726.752
965.409
750.932
599.404
599.958
594.964
599.958
595.01
628.866
1058.6
1243.99
1270.11
1273.58
1275.05
1272.65
1270.36
1272.32
1282.45
1300.43
869.826
736.011
763.601
860.221
904.041
902.799
776.956
602.058
530.368
524.637
530.27
522.24
810.864
811.232
651.367
598.634
599.958
596.264
599.958
670.716
1065.46
1268.02
1284.46
1284.45
1281.69
1276.32
1274.48
1278.01
1288.99
1306.3
1067.88
896.393
896.483
914.634
894.397
791.132
648.241
536.088
527.91
530.27
520.988
530.191
580.644
811.393
747.548
606.501
598.537
599.958
626.447
796.022
1095.89
1274.39
1284.45
1284.46
1282.13
1275.76
1276.01
1281.81
1293.95
1311.78
1238.64
1078
1017.8
937.063
830
720.538
626.24
546.756
530.27
527.198
530.191
512.57
530.194
792.09
878.318
684.897
612.266
648.728
772.544
970.733
1137.49
1214.61
1242.49
1260.97
1267.33
1269.6
1274.99
1284.33
1298.54
1318.02
1319.89
1237.69
1143.88
997.908
849.095
762.799
683.695
604.726
548.368
530.191
523.245
530.102
511.547
767.482
989.66
845.661
735.567
798.224
981.367
1112.83
1156.7
1161.39
1170.98
1207.2
1247.58
1263.11
1275.04
1288.03
1304.82
1326.25
1359.79
1322.33
1263.88
1136.31
971.56
865.223
799.159
702.169
630.392
543.769
530.102
510.756
530.104
685.764
1083.1
1065.49
960.75
1000.39
1146.72
1202.72
1185.25
1162.3
1165.77
1204.16
1247.65
1266.88
1281.63
1296.5
1314.95
1337.2
1379.8
1361.21
1331.24
1271.93
1156.12
1003.12
916.063
810.05
754.465
622.309
527.023
530.102
509.753
547.304
1177.8
1242.51
1159.61
1162.47
1224.76
1245.78
1226.75
1199.18
1203.16
1237.21
1268.38
1285.08
1298.34
1311.92
1329.9
1350.46
1389.77
1381.45
1365.06
1336.91
1283.44
1168.48
1005.36
934.483
885.503
740.225
534.765
509.72
530.192
518.172
1144.32
1297.47
1238.73
1238.72
1251.83
1265.62
1264.37
1257.33
1264.67
1284.56
1300.21
1311.44
1321.13
1332.58
1348.29
1364.71
1393.05
1391.55
1383.7
1367.5
1340.01
1282.08
1129.23
1063.66
1004.78
865.105
557.658
530.192
509.759
530.322
884.437
1297.45
1267.85
1266.04
1269.95
1282.24
1290.62
1296.57
1305.53
1317.17
1327.24
1335.8
1343.92
1354.32
1366.96
1378.25
1393.08
1393.07
1392.8
1384.4
1367.62
1339.18
1269.84
1161.99
1115.35
978.224
572.42
513.595
530.316
514.463
583.744
1201.35
1302.51
1296.71
1293.73
1302.7
1311.78
1319.92
1328.74
1338.29
1347.26
1355.15
1363.26
1373.28
1382.29
1388.27
1393.03
1393.01
1393.06
1392.38
1381.62
1364.66
1332.59
1257.27
1217.85
1056.18
542.186
530.316
514.352
530.375
524.865
888.304
1309.77
1330.12
1322.83
1328.01
1334.76
1341.09
1347.61
1354.75
1362.09
1369.13
1377.1
1385.75
1390.89
1391.14
1382.77
1379.87
1392.81
1392.88
1386.42
1374.84
1355.75
1316.4
1267.69
1089.36
530.403
521.288
530.375
518.035
530.402
679.331
1211.53
1340.35
1347.21
1352.63
1357.75
1362.08
1365.42
1368.49
1371.96
1376.62
1383.56
1388.56
1388.69
1391.12
1063.69
1111.76
1366.13
1389
1384.15
1375.73
1363.22
1338.1
1293.13
1112.92
557.107
530.402
520.383
530.402
525.891
659.824
1177.38
1341.27
1361.67
1368.68
1374.44
1377.73
1378.93
1378.57
1376.88
1376.48
1381.21
1386.75
1348.72
1387.66
742.187
738.086
1139.68
1354.9
1372.26
1369.89
1362.09
1345.29
1309.84
1165.58
758.708
528.354
530.402
521.491
530.447
752.286
1201.91
1334.97
1361.4
1371.92
1381.04
1382.68
1382.76
1382.73
1379.13
1370.85
1368.27
1362.15
1041.55
1183.14
730.472
702.69
771.809
1185.52
1339.34
1358.82
1357.86
1342.69
1292.94
1171.04
1117.66
622.509
526.058
530.446
528.874
989.601
1268.44
1321.77
1345.84
1365.65
1379.05
1367.16
1382.59
1382.72
1380.42
1365.69
1345.97
1153.62
896.185
973.769
830.354
702.08
702.691
823.08
1244.85
1344.46
1350.82
1335.52
1280.26
1227.85
1313.01
841.818
530.448
527.787
543.206
1164.68
1301.53
1315.02
1325.44
1351.17
1361.17
1242.78
1345.3
1373.54
1374.88
1364.56
1254.69
943.775
896.197
1082.96
1009.24
747.981
728.797
730.891
921.242
1240.43
1340.31
1338.07
1324.88
1321.95
1347.69
1046.35
554.166
536.428
678.157
1137.88
1281.32
1305.06
1330.23
1349.26
1121.6
775.456
919.33
1210.64
1334.11
1303.53
1110.83
999.391
1068.68
1277.46
1232.48
940.148
885.283
835.945
848.376
939.286
1043.1
1248.19
1350.99
1351.55
1350.91
1066.95
665.547
630.813
955.57
1204.07
1297.47
1305.32
1297.52
1004.33
690.05
683.924
684.949
951.624
1124.35
1130.73
1127.24
1209.74
1294.21
1355.84
1335.13
1237.53
1129.41
1044.65
976.501
915.62
915.525
951.145
1340.48
1351.11
1351.28
1060.42
843.7
823.123
1236.75
1316.46
1317.03
1196.16
888.008
664.714
662.755
692.472
809.1
965.858
1099.95
1202.99
1280.72
1337.53
1364.91
1379.41
1350.64
1347.59
1306.95
1246.31
1171.6
1056.15
943.7
943.577
1137.1
1351.13
1235.61
1023.54
980.465
974.028
1319.36
1319.79
1234.44
871.889
696.102
674.958
741.522
887.317
1040.72
1163.97
1257.08
1319.12
1353.56
1371.46
1379.81
1381.13
1313.62
1354.32
1354.26
1333.34
1297.55
1227.89
1096.79
1021.25
1073.75
1162.27
807.212
826.471
936.964
930.748
1185.5
1243.95
1060.07
903.172
831.898
828.985
941.3
1111.87
1236.46
1298.55
1337.41
1360.84
1373.7
1379.39
1379.72
1375.76
1302.55
1348.5
1356.67
1355.94
1344.5
1316.81
1252.07
1190
1115.54
860.33
520.027
527.814
708.964
716.242
780.509
892.295
1010.1
1074.88
1061.44
1061.39
1145.75
1256.03
1316.18
1344.59
1363.6
1374.4
1379.2
1379.18
1374.02
1365.18
1302.52
1324.26
1356.54
1356.77
1356.59
1348.98
1318.57
1278.91
1085.2
623.167
508.549
520.022
514.39
525.542
531.483
613.862
936.987
1191.98
1231.48
1236.67
1268.29
1318.14
1345.87
1363.4
1374.27
1378.48
1378.47
1374.38
1363.62
1354.96
1312.43
1227.69
1327.82
1341.47
1356.68
1356.58
1345.52
1285.62
844.957
515.314
520.022
506.494
520.022
515.188
520.022
525.563
824.634
1175.19
1283.52
1306.62
1321.72
1344.81
1361.32
1372.95
1378.3
1378.25
1366.52
1356.5
1348.62
1349.89
1305.3
1017.2
1124.54
1158.97
1272.79
1351.27
1351.04
1224.59
577.135
520.022
512.106
520.022
510.677
520.022
518.507
520.022
725.499
1133.84
1274.69
1329.78
1346.52
1359.1
1370.25
1378
1377.95
1355.42
1317.52
1217.06
1275.85
1350.97
1161.72
948.519
953.12
966.077
1026.35
1190.72
1313.43
863.716
520.023
517.399
520.022
510.922
520.022
516.449
520.022
519.967
665.488
1070.25
1285.3
1343.46
1358.71
1361.86
1372.23
1377.94
1357.23
1229.28
1020.74
950.971
1007.48
1289.98
1040.68
948.152
947.778
947.428
955.88
1012.06
1081.53
658.524
519.708
520.022
515.504
520.022
513.214
520.022
519.542
528.642
651.049
946.694
1324.76
1348.58
1348.68
1325.84
1345.7
1361.69
1239.59
975.401
896.885
896.98
896.887
1132.62
1079.78
947.802
947.428
947.054
950.281
954.839
867.652
648.035
546.227
519.578
520.021
514.051
520.021
517.489
520.021
546.662
641.596
870.803
1221.77
1242.8
1158.41
935.665
1069.39
1152.51
1035.99
963.538
962.224
988.904
946.87
1101.39
1181.53
958.676
963.738
946.679
946.305
944.278
836.834
664.641
610.372
525.991
515.939
520.021
514.52
520.021
526.623
569.329
638.069
769.281
795.622
694.512
622.539
526.111
616.283
833.752
982.866
1030.44
1055.08
1073.34
1012.79
1144.89
1293.63
1119.87
1049.55
981.536
960.062
939.604
870.487
711.477
684.933
548.593
520.021
515.944
520.021
517.83
538.712
587.454
620.406
627.094
520.023
517.641
520.021
518.766
520.021
708.164
967.413
1057.65
1078.71
1083.73
1048.27
1192.44
1360.49
1296.92
1199.85
1089.89
1023.88
975.775
912.179
800.827
745.211
560.633
516.587
520.021
516.165
520.021
549.984
591.684
600.015
552.682
514.873
520.02
519.68
520.02
519.587
684.564
909.801
1029.2
1062.37
1093.79
1118.3
1264.39
1389.14
1366.43
1324.97
1248.44
1144.1
1055.89
979.523
922.823
784.123
540.32
520.021
517.155
520.021
518.274
558.466
592.662
593.229
518.739
520.02
519.552
543.086
540.588
587.707
713.604
881.967
1015.33
1096.79
1167.27
1246.39
1331.26
1396.52
1389.94
1373.65
1342.24
1283.52
1183
1093.24
1056.41
823.524
525.566
518.2
520.021
517.483
520.021
561.738
594.575
595.28
520.021
515.936
527.988
600.615
637.253
720.71
826.495
972.158
1111.89
1210.82
1279.75
1333.7
1371.4
1395.37
1395.36
1390.16
1376.57
1351.44
1306.78
1243.3
1169.64
926.182
593.272
520.021
518.458
520.021
519.172
560.916
595.499
595.816
515.087
520.02
566.588
684.776
778.454
884.492
1005.29
1149.9
1251.17
1307.79
1346.09
1373.02
1390.9
1385.63
1394.13
1394.14
1388.43
1376.22
1353.91
1317.22
1265.62
1061.2
845.751
586.007
520.021
519.089
520.021
555.711
588.268
586.757
520.02
518.792
634.44
812.483
941.29
1069.14
1206.14
1286.03
1328.84
1356.49
1377.16
1391.34
1399.54
1368.1
1382.45
1392.5
1391.11
1384.91
1372.78
1348.11
1291.98
1129.02
1122.33
808.391
566.256
520.021
519.846
545.605
560.255
525.921
516.548
530.851
748.884
979.782
1139.96
1250.84
1311.55
1343.79
1364.53
1380.55
1392.82
1399.76
1402.42
1354.66
1351.88
1381.69
1387.28
1385.78
1380.16
1366.33
1331.35
1235.95
1159.59
1064.28
726.41
546.7
520.742
534.325
525.83
518.257
520.02
601.168
929.454
1175.27
1284.66
1326.69
1352.35
1368.99
1381.97
1393.22
1400.36
1402.27
1402.3
1340.32
1224.76
1351.3
1374.38
1379.95
1380.03
1374.64
1356.14
1304.78
1160.19
1177.81
1002.95
666.34
535.798
527.706
517.92
520.019
520.643
740.733
1130.43
1297.26
1333.8
1355.22
1368.88
1379.31
1390.33
1399.15
1401.1
1400.96
1392.59
907.438
751.794
1196.99
1338.64
1366.15
1373.63
1374.68
1362.79
1294.63
1160.13
1177.41
1225.87
911.785
590.578
527.125
520.019
519.19
577.272
947.909
1239.18
1328.89
1354.26
1367
1372.76
1380.97
1393.62
1400.16
1400.05
1362.97
1363.88
630.731
584.373
718.636
1076.32
1328.15
1359.67
1371.23
1361.59
1276.34
1160.11
1188.44
1276.09
1104.88
646.971
531.046
514.675
526.582
738.946
1183.55
1252.24
1323.46
1361.17
1367.87
1366.7
1377.27
1395.18
1396.3
1356.69
1145.74
1241.83
834.597
584.538
584.372
681.674
969.019
1313.52
1358.76
1353.82
1276.9
1226.96
1289.44
1294.62
1081.87
650.297
537.552
520.019
564.66
968.299
1301.64
1268.08
1301.63
1357.57
1367.7
1348.99
1371.46
1391.33
1351.91
1057.58
581.637
730.379
1163.39
771.268
721.484
680.887
686.126
961.537
1314.79
1341.59
1307.7
1310.99
1331.73
1294.51
944.687
636.828
540.744
512.779
602.138
1149.05
1330.75
1314.19
1312.16
1352.04
1357.58
1322.39
1356.15
1358.22
1043.11
541.757
380.612
523.307
1290.09
1114.09
994.927
854.767
740.832
758.813
1100.09
1303.44
1324.4
1331.53
1331.12
1096.17
758.07
598.901
534.738
520.018
602.18
1265.47
1343.27
1347.51
1345.73
1366.26
1369.78
1304.23
1303.43
1092.53
598.769
408.301
380.386
606.69
1334.06
1304.86
1241.27
1106.09
948.267
847.628
986.129
1249.52
1322.1
1329.76
1260.05
805.729
614.831
548.15
520.907
513.242
587.316
1330.9
1358.31
1369.88
1374.05
1383.59
1387.15
1344.43
1226.65
750.903
546.468
488.431
411.724
703.403
1317.62
1336.74
1321.24
1275.03
1177.36
1047.88
1117.31
1275.34
1320.65
1298.23
1038.66
659.055
552.965
520.018
519.399
520.018
608.933
1295
1374.39
1390.93
1390.96
1391.16
1391.55
1372.41
1175.43
828.038
738.584
628.264
501.481
766.074
1237.18
1336.81
1338.96
1329.43
1305.55
1234.71
1264.72
1330.91
1347.74
1313.33
875.585
635.121
549.987
525.861
522.338
519.956
740.408
1292.22
1382.81
1391.19
1391.18
1392.89
1391.22
1391.76
1278.04
1009.31
975.341
797.525
619.21
853.092
1201.07
1324.64
1339.35
1339.37
1339.89
1322.11
1331.6
1352.08
1352.54
1330.56
872.421
662.679
599.975
609.658
624.316
690.508
948.067
1300.32
1331.74
1251.01
1387.98
1391.14
1393.79
1391.15
1375.59
1187.48
1164.02
976.228
762.588
973.655
1201.15
1229.56
1306.93
1304.42
1350.8
1351.21
1352.1
1352.57
1351.88
1204.45
960.542
806.603
781.204
834.264
888.09
1003.09
1088.33
1092.99
860.81
683.09
1154.29
1381.01
1391.06
1393.78
1390.87
1333.61
1257.83
1091.8
922.022
1096.28
1201.1
875.931
938.622
1000.76
1304.77
1352.08
1352.57
1351.92
1220.07
931.016
1009.95
1010.46
1015.13
1018.72
1017.36
1018.66
913.98
583.59
365.003
318.906
521.318
1082.26
1367.46
1390.78
1393.48
1370.21
1218.58
1098.68
1014.65
1183.18
1230.7
752.993
759.827
753.821
1048.87
1352.24
1351.95
1258.99
663.132
537.697
879.608
984.901
990.418
945.298
837.943
685.263
460.613
289.709
263.029
262.036
277.653
420.898
824.775
1311.4
1375.65
1255.55
966.764
935.453
962.886
1227.36
1101.45
759.835
752.595
759.823
801.966
1239.01
1248.31
757.46
317.739
299.544
481.344
620.637
624.477
524.962
411.926
334.107
272.117
262.851
261.097
263.029
262.03
263.21
339.393
691.173
1033.8
1008.34
901.272
906.259
900.058
1270.41
905.453
753.524
759.823
754.056
759.824
1025.35
921.976
419.68
263.029
261.77
277.713
306.186
303.995
275.351
262.497
261.141
262.672
260.779
262.851
260.962
263.029
261.814
263.208
410.078
780.949
910.967
906.258
897.77
906.278
1250.11
895.159
759.824
758.311
759.823
759.559
943.946
775.599
331.99
261.488
262.85
261.298
262.672
260.916
262.497
259.711
262.497
261.333
262.672
260.505
262.85
261.165
263.029
261.228
345.539
732.273
928.452
903.379
906.258
897.291
1019.33
1140.75
824.969
833.063
762.222
827.492
997.525
747.827
297.651
262.85
260.833
262.676
260.946
262.502
259.878
262.318
259.653
262.5
260.449
262.672
260.482
262.85
261.039
263.029
303.428
743.942
1010.81
906.258
904.055
906.258
944.164
1274.82
1128.98
1087.96
940.673
1015.38
1142.39
724.204
271.637
260.784
262.672
260.575
262.507
260.156
262.326
258.595
262.318
260.943
262.497
260.322
262.672
260.725
262.85
260.378
269.285
699.768
1087.43
961.19
906.258
905.923
1242.88
1314.24
1297.6
1268.7
1160.51
1181.24
1214.3
599.401
262.12
262.672
260.146
262.505
260.256
262.334
259.131
262.107
258.562
262.318
260.444
262.497
260.419
262.672
260.71
262.85
261.908
516.56
1123.49
1151.42
1089.93
1232.35
1342.48
1235.46
1311.61
1311.72
1287.86
1269.33
1218.29
455.66
262.672
260.125
262.497
259.912
262.344
259.616
262.122
257.01
262.107
260.884
262.318
260.403
262.497
260.558
262.672
259.926
262.85
356.223
1016.57
1271.76
1263.67
1331.37
1342.71
1095.32
1241.05
1311.62
1309.43
1291.17
962.315
364.632
260.969
262.497
259.492
262.328
259.843
262.139
257.914
261.902
257.321
262.127
260.762
262.318
260.542
262.497
260.604
262.672
261.305
306.018
614.895
1279.58
1324.41
1339.21
1339.3
1063.4
919.619
1213.5
1309.02
1258.54
600.459
295.48
262.497
259.326
262.318
259.553
262.153
258.779
261.925
255.284
261.902
260.691
262.107
260.478
262.318
260.696
262.497
259.744
262.672
289.474
398.555
910.123
1305.14
1340.52
1340.9
1075.8
810.931
949.505
1216.84
885.158
375.827
262.509
259.866
262.318
259.085
262.116
259.279
261.94
256.27
261.695
256.406
261.902
261.029
262.107
260.556
262.318
260.804
262.497
261.025
288.412
363.043
516.687
859.492
1054.62
1210.43
1115.75
809.612
811.196
946.713
548.323
295.126
261.051
262.318
258.791
262.107
259.16
261.931
257.554
261.695
253.597
261.695
260.713
261.902
260.755
262.107
260.86
262.318
260.074
262.497
291.24
377.224
439.526
504.976
534.218
876.208
1278.47
808.316
798.732
797.916
436.133
272.523
262.318
259.104
262.107
258.763
261.91
258.475
261.715
254.359
261.487
255.73
261.695
261.553
261.901
260.82
262.107
260.966
262.318
261.157
295.52
407.416
456.115
474.761
475.009
703.958
1366.07
1242.06
981.958
782.135
389.85
264.765
260.403
262.107
258.365
261.901
258.692
261.701
255.97
261.487
251.899
261.487
261.151
266.562
261.709
262.107
260.981
262.318
260.477
262.497
304.421
429.496
467.402
507.232
473.464
679.996
1366.31
1349.95
1211.53
804.104
364.325
262.239
262.107
258.435
261.901
258.417
261.695
257.457
261.487
252.522
261.282
255.107
281.483
296.111
264.852
261.582
262.318
261.425
262.496
261.888
324.493
451.065
470.642
520.185
475.405
671.138
1366.14
1361.27
1311.38
832.521
337.602
262.107
259.726
261.901
257.945
261.695
258.06
261.487
254.455
261.282
250.233
261.282
316.228
347.059
290.214
262.318
261.699
262.496
261.51
262.671
351.062
465.874
486.902
531.836
473.978
667.052
1358.03
1364.41
1336.61
734.494
308.042
261.689
261.901
257.819
261.695
257.967
261.487
256.472
261.282
251.193
261.09
252.971
348.848
405.077
337.754
272.39
262.496
262.131
262.671
263.322
387.54
483.319
499.364
532.026
475.786
680.229
1363.92
1364.23
1272.42
506.998
279.357
261.901
259.169
261.695
257.506
261.487
257.396
261.282
253.538
261.089
249.278
261.09
363.322
459.769
411.298
316.676
265.591
262.671
262.719
298.368
438.425
506.831
520.659
543.777
475.509
672.349
1188.22
1340.59
862.098
355.599
269.26
261.113
261.695
257.355
261.487
257.462
261.282
255.872
261.089
250.679
260.889
249.79
347.18
500.033
510.26
406.272
311.586
284.097
297.483
377.923
495.026
535.771
551.608
587.473
537.111
782.346
1025.97
992.59
653.253
340.761
266.144
261.694
258.641
261.487
257.099
261.282
256.908
261.089
253.359
260.889
249.468
260.889
275.888
524.01
621.112
530.674
413.529
362.271
389.346
483.374
547.679
592.152
624.26
688.948
809.797
1250.7
978.329
874.431
671.923
361.082
264.274
260.444
261.487
256.772
261.282
256.811
261.089
255.407
260.889
250.74
260.685
249.663
260.889
507.414
711.348
700.621
577.525
490.852
507.866
592.306
627.137
705.523
815.452
1035.86
1312.73
1405.85
964.068
848.541
710.357
391.493
263.473
261.694
258.011
261.486
256.535
261.287
256.307
261.089
253.027
260.889
249.666
260.889
251.707
382.79
747.089
883.099
800.935
664.14
630.194
706.759
780.567
944.774
1193.35
1359.37
1409.1
1414.77
948.206
807.254
739.32
428.304
266.615
260.364
261.694
256.412
261.486
256.417
261.282
255.276
261.089
250.659
260.889
249.973
261.089
257.197
607.653
966.315
1027.34
870.517
768.96
861.341
1038.68
1277.41
1378.06
1413.93
1414.8
1414.94
932.199
780.134
762.622
474.916
278.834
261.901
257.631
261.694
256.227
261.494
256.084
261.282
253.336
261.089
249.922
261.089
252.471
261.282
351.433
884.954
1123.95
1049.29
941.433
1096.83
1303.66
1384.29
1413.08
1414.74
1414.89
1414.65
918.154
780.753
780.63
528.709
302.782
260.706
261.901
255.921
261.694
256.155
261.486
255.447
261.282
251.264
261.089
251.107
261.282
257.211
261.486
559.51
1123.34
1149.44
1146.55
1309.94
1380.98
1409.79
1414.65
1414.84
1414.1
1369.22
910.061
780.665
792.577
586.449
334.551
262.106
257.646
261.901
255.977
261.713
256.021
261.486
253.953
261.282
251.054
261.282
254.615
261.486
259.86
373.761
994.929
1204.57
1305.75
1371
1404.76
1414.48
1414.78
1413.89
1359.1
1232.42
905.992
781.633
800.341
642.451
371.907
261.531
262.106
255.401
261.901
255.953
261.705
255.745
261.486
252.091
261.281
252.632
261.486
258.559
261.694
343
946.096
1274.58
1349.77
1393.17
1413.44
1414.71
1413.66
1336.82
833.939
387.883
906.227
780.917
811.099
695.434
417.423
262.317
258.273
262.106
255.706
261.932
255.96
261.696
254.583
261.486
252.069
261.486
256.243
261.694
260.284
348.173
958.098
1304.17
1368.59
1403.81
1413.92
1413.66
1332.2
705.869
290.33
224.3
924.102
782.288
828.29
743.281
479.263
269.566
262.317
254.968
262.106
255.785
261.92
256.01
261.694
252.606
261.486
253.969
261.694
258.911
261.901
343.95
956.346
1316.45
1380.22
1409.49
1413.14
1369.44
928.254
382.558
224.299
224.298
977.388
782.168
855.323
789.846
564.784
298.068
259.665
262.317
255.491
262.126
255.915
261.904
255.077
261.694
252.655
261.694
256.963
261.9
260.987
336.595
885.014
1330.27
1386.25
1406.85
1395.91
1294.1
677.72
314.356
243.93
224.298
1119.02
854.65
902.015
841.473
662.007
345.303
262.495
255.137
262.317
255.586
262.114
256.207
261.9
252.901
261.694
254.708
261.9
259.333
262.106
330.95
791.678
1344.59
1386.18
1394.2
1366.04
1152.25
593.92
355.819
285.318
250.455
1292.91
1082.25
987.686
908.544
750.462
404.361
261.217
262.495
255.571
262.32
255.8
262.107
255.424
261.9
253.085
261.9
257.329
262.106
261.909
338.042
716.369
1351.14
1381.58
1375.91
1353.67
1031.17
586.754
406.472
325.732
291.567
1367.17
1303.34
1170.54
1014.99
834.099
475.353
262.67
255.763
262.495
255.556
262.322
256.344
262.106
252.994
261.9
255.133
262.106
260.007
271.957
395.271
705.941
1269.37
1371.74
1359.17
1326.44
981.186
639.53
462.47
369.872
336.31
1384.31
1371.68
1320.57
1181.92
950.925
567.047
262.575
262.67
255.974
262.495
255.75
262.317
255.633
262.106
253.283
262.106
257.954
262.317
297.677
482.522
788.707
1196.57
1350.3
1339.49
1256.56
988.498
724.87
530.167
424.418
386.056
1384.44
1384.31
1373.91
1311.54
1112.22
691.272
273.341
257.308
262.67
255.594
262.495
256.466
262.317
253.039
262.106
255.737
262.317
261.196
330.525
560.802
883.914
1188.79
1305.86
1311.08
1236.45
1051.23
812.274
613.43
491.521
446.3
1384.41
1384.46
1384.27
1366.65
1258.66
846.65
291.553
262.849
256.601
262.67
255.9
262.495
255.788
262.317
253.432
262.317
259.063
262.495
364.259
618.359
949.793
1226.41
1291.06
1297.33
1253.12
1103.86
902.479
710.895
576.775
522.189
1375.07
1384.24
1384.44
1384.04
1332.37
1021.65
316.205
259.103
262.849
255.9
262.67
256.599
262.495
252.921
262.317
256.549
262.495
263.514
400.981
659.115
984.671
1241.66
1297.2
1297.27
1257.07
1140.57
986.029
816.955
682.489
619.995
908.015
1351.21
1383.96
1384.35
1370.31
1173.46
350.603
263.027
257.586
262.848
255.895
262.67
255.735
262.495
253.848
262.495
260.483
282.044
447.124
699.96
1005.75
1244.49
1297.14
1297.21
1256.17
1165.36
1055.94
924.345
803.172
739.782
248.869
690.504
1315.64
1383.71
1383.97
1265.92
408.193
261.258
263.027
256.334
262.848
256.703
262.67
252.631
262.495
257.54
262.67
319.565
514.516
769.793
1041.24
1241.47
1297.08
1289.55
1248.27
1180.61
1109.27
1022.22
926.942
871.57
85.5798
199.265
784.71
1342.73
1383.23
1302.52
505.585
263.206
258.952
263.027
256.242
262.848
255.635
262.67
254.315
262.67
262.142
378.358
619.881
889.456
1114.28
1244.7
1282.37
1265.1
1238.38
1194.79
1148.85
1099.79
1036.09
998.899
85.6188
102.73
311.387
1003.45
1350.89
1256.41
665.714
281.327
263.206
257.126
263.027
256.651
262.848
252.664
262.67
259.112
278.164
468.563
766.772
1036.63
1201.7
1259.22
1260.3
1251.94
1235.21
1212.65
1182.82
1156.35
1113.61
1099.6
85.6636
101.863
176.975
561.322
1171.84
1265.17
886.508
359.073
260.998
263.206
256.359
263.027
255.711
262.848
255.224
262.848
322.259
589.971
924.685
1157.36
1254.31
1274.1
1274.05
1267.87
1252.78
1235.67
1215.1
1197.61
1158.38
1161.19
85.7101
118.817
177.51
357.689
939.633
1265.3
1085.05
496.757
263.384
258.687
263.206
256.607
263.027
252.742
262.848
261.434
389.161
718.581
1046.7
1224.36
1276.76
1285.29
1286.87
1284.12
1275.11
1260.86
1243.36
1227.1
1183.86
1193
87.6249
146.842
212.981
317.134
747.588
1263.92
1228.02
659.134
263.071
263.384
256.886
263.205
255.639
263.027
257.064
263.027
467.048
829.249
1124.45
1254.94
1284.32
1289.76
1290.73
1290.66
1285.88
1276.31
1262.36
1246.84
1200.37
1213.1
100.101
182.026
263.109
359
649.677
1188.59
1250.48
831.221
293.792
260.996
263.384
256.668
263.205
253.225
263.027
279.862
547.437
912.207
1169.3
1266.54
1284.54
1287.94
1290.25
1289.48
1286.98
1280.92
1270.3
1257.06
1212.28
1231.65
130.784
227.838
319.285
427.211
611.659
1121.95
1251.55