/*--------------------------------*- C++ -*----------------------------------*\
| =========                 |                                                 |
| \\      /  F ield         | OpenFOAM: The Open Source CFD Toolbox           |
|  \\    /   O peration     | Version:  2.3.0                                 |
|   \\  /    A nd           | Web:      www.OpenFOAM.org                      |
|    \\/     M anipulation  |                                                 |
\*---------------------------------------------------------------------------*/
FoamFile
{
    version     2.0;
    format      ascii;
    class       volVectorField;
    location    "0.84";
    object      U.airMean;
}
// * * * * * * * * * * * * * * * * * * * * * * * * * * * * * * * * * * * * * //

dimensions      [0 1 -1 0 0 0 0];

internalField   nonuniform List<vector> 
6000
(
(0.000772614 0.253843 0)
(0.0331897 0.220559 0)
(0.0633576 0.227599 0)
(0.0753781 0.22647 0)
(0.068685 0.224773 0)
(0.0495286 0.221946 0)
(0.0406894 0.20354 0)
(0.0386814 0.194141 0)
(0.0287379 0.193717 0)
(0.0148684 0.199079 0)
(0.00625007 0.197698 0)
(-0.00188497 0.186759 0)
(-0.00987666 0.19091 0)
(-0.028031 0.21027 0)
(-0.0455636 0.210807 0)
(-0.0394634 0.200945 0)
(-0.0181679 0.188758 0)
(-0.00522721 0.193883 0)
(-0.0103491 0.21096 0)
(-0.0171381 0.208022 0)
(-0.019339 0.203858 0)
(-0.0173949 0.209125 0)
(-0.0069659 0.201206 0)
(0.00372527 0.19562 0)
(0.00344087 0.201959 0)
(-0.0140279 0.211909 0)
(-0.0282985 0.222542 0)
(-0.0322828 0.236715 0)
(-0.0308235 0.225515 0)
(-0.00604402 0.247838 0)
(0.0265907 0.933062 0)
(0.0573644 0.939261 0)
(0.082242 0.955817 0)
(0.0837047 0.984657 0)
(0.0796575 1.00719 0)
(0.0826725 1.00973 0)
(0.0804369 1.00124 0)
(0.0527724 1.02113 0)
(0.0200696 1.02651 0)
(0.00132749 1.00592 0)
(0.00584947 1.00075 0)
(0.00510748 1.01586 0)
(-0.00518151 1.01331 0)
(-0.0140567 1.01933 0)
(-0.0222026 1.00841 0)
(-0.0237756 0.975473 0)
(-0.0199645 0.976991 0)
(-0.0210708 1.00974 0)
(-0.0221779 1.00249 0)
(-0.0261999 1.00682 0)
(-0.0266263 1.00523 0)
(-0.0315098 0.991421 0)
(-0.031905 0.988274 0)
(-0.0388985 1.0012 0)
(-0.0531056 1.01759 0)
(-0.067537 1.02111 0)
(-0.0654931 0.996104 0)
(-0.0539828 0.966568 0)
(-0.0380923 0.973778 0)
(-0.0207948 0.917444 0)
(0.00602283 0.767244 0)
(0.0382355 0.751522 0)
(0.0528854 0.782782 0)
(0.0548703 0.824932 0)
(0.0634897 0.833004 0)
(0.0761256 0.844279 0)
(0.071862 0.853984 0)
(0.0424286 0.880842 0)
(0.0177363 0.871727 0)
(0.00815768 0.828116 0)
(0.0159725 0.822674 0)
(0.0233002 0.836232 0)
(0.0238005 0.849036 0)
(0.0113373 0.86736 0)
(-0.00513673 0.856758 0)
(-0.0229544 0.816923 0)
(-0.0417507 0.80684 0)
(-0.0393257 0.827477 0)
(-0.036416 0.837102 0)
(-0.0394198 0.826269 0)
(-0.0364874 0.814936 0)
(-0.0419834 0.821806 0)
(-0.0541719 0.816907 0)
(-0.0660857 0.840244 0)
(-0.0728271 0.852368 0)
(-0.060577 0.837118 0)
(-0.0350477 0.820675 0)
(-0.0221598 0.80087 0)
(-0.0221509 0.809701 0)
(-0.000691446 0.763843 0)
(-0.000442144 0.76617 0)
(0.0146433 0.760054 0)
(0.0164099 0.801164 0)
(0.0317523 0.832905 0)
(0.0499156 0.835286 0)
(0.0635664 0.848125 0)
(0.0586143 0.883202 0)
(0.0379937 0.915154 0)
(0.0236962 0.901532 0)
(0.0180564 0.849629 0)
(0.0235812 0.835072 0)
(0.0328761 0.85429 0)
(0.0368723 0.874095 0)
(0.0204664 0.892639 0)
(-0.00570258 0.879331 0)
(-0.0291441 0.851557 0)
(-0.0452882 0.829945 0)
(-0.0478123 0.844449 0)
(-0.0490549 0.855681 0)
(-0.0464209 0.846141 0)
(-0.0489257 0.849357 0)
(-0.0585183 0.856558 0)
(-0.0699616 0.847619 0)
(-0.0781972 0.863918 0)
(-0.0695426 0.857667 0)
(-0.0451083 0.832872 0)
(-0.0175285 0.82189 0)
(0.000880831 0.817828 0)
(-0.0099504 0.836606 0)
(-0.00161995 0.765382 0)
(0.0023703 0.75867 0)
(-0.00519742 0.742572 0)
(0.0041714 0.780952 0)
(0.0255975 0.804656 0)
(0.0443514 0.816457 0)
(0.05104 0.846969 0)
(0.0413949 0.898816 0)
(0.0256766 0.931079 0)
(0.0170263 0.907663 0)
(0.0144753 0.845383 0)
(0.0185636 0.82693 0)
(0.0271258 0.83896 0)
(0.0202653 0.873627 0)
(-0.00130768 0.910326 0)
(-0.0225932 0.901614 0)
(-0.0276387 0.869054 0)
(-0.029416 0.834629 0)
(-0.0420767 0.853581 0)
(-0.0508185 0.84921 0)
(-0.0473276 0.835086 0)
(-0.0492407 0.843802 0)
(-0.0547118 0.855974 0)
(-0.0630652 0.852543 0)
(-0.0697717 0.863099 0)
(-0.0622741 0.840787 0)
(-0.0448741 0.808253 0)
(-0.0233027 0.794198 0)
(-0.00546336 0.797821 0)
(-0.00732496 0.83765 0)
(0.000338627 0.750372 0)
(0.00446529 0.75058 0)
(0.00556636 0.733632 0)
(0.0121125 0.760771 0)
(0.0381422 0.775779 0)
(0.0427871 0.800379 0)
(0.0393069 0.845921 0)
(0.0277045 0.906668 0)
(0.0153712 0.937573 0)
(0.00778492 0.911256 0)
(0.00512605 0.850267 0)
(0.00456983 0.825423 0)
(-0.00559702 0.84215 0)
(-0.027232 0.898125 0)
(-0.0376579 0.920606 0)
(-0.0320569 0.896939 0)
(-0.0130624 0.856868 0)
(-0.00486439 0.849567 0)
(-0.023487 0.87611 0)
(-0.0401447 0.85184 0)
(-0.0450416 0.83619 0)
(-0.049732 0.851116 0)
(-0.053975 0.863057 0)
(-0.0592563 0.865055 0)
(-0.065356 0.862559 0)
(-0.0629679 0.828128 0)
(-0.0549453 0.786114 0)
(-0.0459041 0.765573 0)
(-0.0318102 0.775992 0)
(-0.0221211 0.820625 0)
(-0.00251044 0.73324 0)
(0.00947502 0.727673 0)
(0.0241083 0.716283 0)
(0.0411842 0.730343 0)
(0.0519068 0.759814 0)
(0.0510666 0.794006 0)
(0.0361402 0.84882 0)
(0.0263807 0.913575 0)
(0.0155481 0.944408 0)
(0.000743966 0.91677 0)
(-0.0103376 0.849143 0)
(-0.0236689 0.829236 0)
(-0.0510364 0.858473 0)
(-0.0693317 0.898521 0)
(-0.0492258 0.898995 0)
(-0.028121 0.8804 0)
(-0.0100275 0.839933 0)
(1.2877e-05 0.852147 0)
(-0.0154827 0.89555 0)
(-0.0336285 0.856257 0)
(-0.0451453 0.841674 0)
(-0.049986 0.854707 0)
(-0.0599142 0.866151 0)
(-0.0683015 0.867375 0)
(-0.0740219 0.85603 0)
(-0.0721763 0.814054 0)
(-0.0745019 0.765824 0)
(-0.07597 0.738424 0)
(-0.0678766 0.743993 0)
(-0.047369 0.779606 0)
(-0.00865014 0.702447 0)
(0.0198543 0.692272 0)
(0.0460205 0.688185 0)
(0.0605551 0.706611 0)
(0.0639677 0.750125 0)
(0.0487074 0.797721 0)
(0.0387092 0.853137 0)
(0.0299197 0.912178 0)
(0.0255437 0.951688 0)
(0.00488563 0.929359 0)
(-0.0261552 0.859363 0)
(-0.055979 0.844219 0)
(-0.079787 0.87371 0)
(-0.0770017 0.877548 0)
(-0.0459471 0.871808 0)
(-0.0229822 0.868864 0)
(-0.00814243 0.830434 0)
(-0.00979803 0.863741 0)
(-0.0231088 0.906386 0)
(-0.0375228 0.869458 0)
(-0.0495646 0.842994 0)
(-0.0610231 0.862914 0)
(-0.0798686 0.872717 0)
(-0.0896616 0.869417 0)
(-0.0920773 0.845257 0)
(-0.0901559 0.800928 0)
(-0.0964888 0.751348 0)
(-0.104047 0.721013 0)
(-0.0969623 0.710101 0)
(-0.0654655 0.72757 0)
(-0.0158818 0.658323 0)
(0.0225051 0.646535 0)
(0.0545413 0.657132 0)
(0.0663296 0.682869 0)
(0.0585138 0.750965 0)
(0.0429178 0.801626 0)
(0.0282977 0.86178 0)
(0.0302548 0.911023 0)
(0.0293711 0.955353 0)
(0.012537 0.952976 0)
(-0.038974 0.889763 0)
(-0.0765725 0.856059 0)
(-0.0774948 0.868256 0)
(-0.0613008 0.847812 0)
(-0.0358324 0.848487 0)
(-0.0184344 0.85052 0)
(-0.0128082 0.827974 0)
(-0.02644 0.874021 0)
(-0.0408648 0.913928 0)
(-0.045132 0.86853 0)
(-0.061202 0.848794 0)
(-0.0873493 0.876596 0)
(-0.108158 0.88181 0)
(-0.112967 0.868559 0)
(-0.114613 0.835201 0)
(-0.109094 0.791458 0)
(-0.113778 0.740193 0)
(-0.121614 0.705643 0)
(-0.109907 0.669012 0)
(-0.074761 0.671818 0)
(-0.0182895 0.605334 0)
(0.0199772 0.60362 0)
(0.05386 0.628311 0)
(0.0619648 0.670712 0)
(0.0493642 0.754628 0)
(0.032203 0.805315 0)
(0.0255891 0.865013 0)
(0.0297945 0.907088 0)
(0.0287554 0.953171 0)
(0.0180945 0.982648 0)
(-0.0379142 0.93321 0)
(-0.0708059 0.857724 0)
(-0.0569764 0.845693 0)
(-0.0387971 0.82818 0)
(-0.0263586 0.83382 0)
(-0.0218617 0.845881 0)
(-0.030652 0.838404 0)
(-0.0516127 0.889494 0)
(-0.057965 0.915433 0)
(-0.0601537 0.86864 0)
(-0.0842258 0.87176 0)
(-0.120699 0.896278 0)
(-0.136551 0.886099 0)
(-0.137873 0.866241 0)
(-0.133212 0.829772 0)
(-0.125335 0.780028 0)
(-0.123281 0.732683 0)
(-0.126833 0.693352 0)
(-0.111725 0.632522 0)
(-0.0789362 0.621572 0)
(-0.0192895 0.553734 0)
(0.015925 0.564651 0)
(0.0497568 0.600227 0)
(0.0550406 0.660198 0)
(0.0425316 0.758744 0)
(0.0241025 0.812367 0)
(0.0183316 0.868381 0)
(0.0241538 0.919323 0)
(0.0283144 0.949471 0)
(0.0303804 1.01154 0)
(-0.0119024 0.975098 0)
(-0.0459988 0.857263 0)
(-0.0369622 0.819128 0)
(-0.0243569 0.817701 0)
(-0.0256359 0.831314 0)
(-0.0339258 0.849627 0)
(-0.0535146 0.859424 0)
(-0.076101 0.896882 0)
(-0.075311 0.911887 0)
(-0.0827428 0.871974 0)
(-0.113737 0.902681 0)
(-0.147902 0.91048 0)
(-0.159035 0.889116 0)
(-0.150983 0.863719 0)
(-0.142414 0.82208 0)
(-0.134318 0.771679 0)
(-0.130644 0.725355 0)
(-0.131133 0.678665 0)
(-0.116104 0.602314 0)
(-0.0848565 0.572081 0)
(-0.0201102 0.503145 0)
(0.0130156 0.529704 0)
(0.0431106 0.576773 0)
(0.0470705 0.651533 0)
(0.041298 0.76118 0)
(0.0212525 0.817478 0)
(0.0153856 0.869566 0)
(0.0180409 0.921977 0)
(0.0320239 0.940941 0)
(0.0415717 1.02194 0)
(0.0273859 1.01672 0)
(-0.0142651 0.872395 0)
(-0.0250782 0.805409 0)
(-0.0212971 0.819666 0)
(-0.0313413 0.837645 0)
(-0.0489708 0.864694 0)
(-0.07346 0.880978 0)
(-0.0936955 0.907904 0)
(-0.091875 0.905184 0)
(-0.104526 0.894841 0)
(-0.137822 0.934964 0)
(-0.158861 0.922279 0)
(-0.156293 0.886821 0)
(-0.149225 0.854841 0)
(-0.146964 0.815982 0)
(-0.143362 0.765327 0)
(-0.142655 0.721725 0)
(-0.143745 0.666664 0)
(-0.124153 0.575582 0)
(-0.0904975 0.520983 0)
(-0.0193769 0.450709 0)
(0.00933469 0.499419 0)
(0.0363114 0.56079 0)
(0.0418045 0.635579 0)
(0.0470543 0.762122 0)
(0.0270096 0.824795 0)
(0.0160366 0.871949 0)
(0.0179494 0.92072 0)
(0.0305677 0.938749 0)
(0.0409423 1.01499 0)
(0.0550235 1.04203 0)
(0.0177238 0.912536 0)
(-0.0194001 0.807146 0)
(-0.0274655 0.826446 0)
(-0.0402018 0.853806 0)
(-0.0630895 0.884194 0)
(-0.0894996 0.907949 0)
(-0.104217 0.915999 0)
(-0.106732 0.90842 0)
(-0.120674 0.92634 0)
(-0.147678 0.953002 0)
(-0.147917 0.924562 0)
(-0.139632 0.87893 0)
(-0.142071 0.85509 0)
(-0.151021 0.816309 0)
(-0.157215 0.767636 0)
(-0.162432 0.720494 0)
(-0.162516 0.654007 0)
(-0.130634 0.542207 0)
(-0.0892158 0.469764 0)
(-0.0176743 0.399125 0)
(0.00496719 0.475814 0)
(0.0304737 0.546601 0)
(0.0401616 0.615776 0)
(0.0534811 0.757361 0)
(0.0391571 0.833945 0)
(0.0219119 0.878814 0)
(0.0198925 0.917484 0)
(0.0237047 0.944076 0)
(0.0391396 0.997268 0)
(0.0623968 1.04877 0)
(0.0425832 0.95864 0)
(-0.0125971 0.836308 0)
(-0.0373477 0.836944 0)
(-0.0521238 0.871144 0)
(-0.0763423 0.911784 0)
(-0.0999324 0.930579 0)
(-0.111831 0.923327 0)
(-0.111966 0.916877 0)
(-0.127665 0.952993 0)
(-0.137504 0.958551 0)
(-0.128126 0.918325 0)
(-0.12304 0.876848 0)
(-0.136467 0.86654 0)
(-0.160013 0.827112 0)
(-0.176926 0.774201 0)
(-0.188174 0.722477 0)
(-0.177368 0.633462 0)
(-0.126813 0.496963 0)
(-0.0753746 0.42138 0)
(-0.0162314 0.3531 0)
(0.00104062 0.460274 0)
(0.0208973 0.527851 0)
(0.0373521 0.591984 0)
(0.0599005 0.745222 0)
(0.0584551 0.838893 0)
(0.0353116 0.889617 0)
(0.0240174 0.918223 0)
(0.0175449 0.944405 0)
(0.0372812 0.986262 0)
(0.0562472 1.03869 0)
(0.0573198 0.993318 0)
(0.000472597 0.885966 0)
(-0.0426607 0.852449 0)
(-0.0603635 0.891514 0)
(-0.0834419 0.937613 0)
(-0.10305 0.95071 0)
(-0.107955 0.925654 0)
(-0.108005 0.931275 0)
(-0.119503 0.965211 0)
(-0.120531 0.957146 0)
(-0.10953 0.908442 0)
(-0.111933 0.881501 0)
(-0.136318 0.883122 0)
(-0.170784 0.844605 0)
(-0.199638 0.786735 0)
(-0.208051 0.715123 0)
(-0.175967 0.591603 0)
(-0.109012 0.440109 0)
(-0.0561448 0.37777 0)
(-0.00893557 0.320739 0)
(-0.00263201 0.454798 0)
(0.00766577 0.508923 0)
(0.0292637 0.564049 0)
(0.0630245 0.715657 0)
(0.0780816 0.843511 0)
(0.0549142 0.904474 0)
(0.0330576 0.930421 0)
(0.0196244 0.946584 0)
(0.0310417 0.976592 0)
(0.0533375 1.02969 0)
(0.0592109 1.00914 0)
(0.0155958 0.951919 0)
(-0.0350674 0.876885 0)
(-0.0606156 0.913013 0)
(-0.0805177 0.964798 0)
(-0.0989582 0.960794 0)
(-0.0986229 0.929589 0)
(-0.099131 0.941361 0)
(-0.104945 0.972161 0)
(-0.102621 0.94994 0)
(-0.0939334 0.901616 0)
(-0.105367 0.893063 0)
(-0.136115 0.907041 0)
(-0.174259 0.871483 0)
(-0.208994 0.802522 0)
(-0.204266 0.689017 0)
(-0.150775 0.533739 0)
(-0.0828908 0.386215 0)
(-0.0404205 0.344072 0)
(-0.00460722 0.306766 0)
(-0.00881611 0.456163 0)
(-0.00508918 0.49367 0)
(0.0175457 0.528236 0)
(0.05975 0.670703 0)
(0.0904675 0.839469 0)
(0.0718091 0.915779 0)
(0.0489233 0.947574 0)
(0.0303706 0.952981 0)
(0.0265236 0.971938 0)
(0.045839 1.01393 0)
(0.0587639 1.02133 0)
(0.0272514 0.995511 0)
(-0.0132589 0.917119 0)
(-0.0532263 0.936576 0)
(-0.0696973 0.9872 0)
(-0.0867712 0.973617 0)
(-0.0863224 0.930252 0)
(-0.0859799 0.949702 0)
(-0.0869729 0.97208 0)
(-0.0829258 0.940792 0)
(-0.0802983 0.900772 0)
(-0.0989306 0.909058 0)
(-0.132486 0.93161 0)
(-0.168271 0.897353 0)
(-0.193779 0.816419 0)
(-0.171563 0.643031 0)
(-0.116 0.474883 0)
(-0.0601473 0.345936 0)
(-0.031761 0.322334 0)
(-0.00865058 0.294676 0)
(-0.0149004 0.467167 0)
(-0.0122015 0.481591 0)
(0.00774461 0.492259 0)
(0.0527642 0.617705 0)
(0.091763 0.829818 0)
(0.0851656 0.920767 0)
(0.0684613 0.959826 0)
(0.0458334 0.968905 0)
(0.0267957 0.973362 0)
(0.0393714 0.998316 0)
(0.0509451 1.0263 0)
(0.040628 1.01936 0)
(0.00244401 0.96403 0)
(-0.0369489 0.963132 0)
(-0.054103 1.00883 0)
(-0.0697732 0.986203 0)
(-0.0741555 0.933561 0)
(-0.0717205 0.951509 0)
(-0.0660702 0.968078 0)
(-0.0637956 0.934117 0)
(-0.0654672 0.905425 0)
(-0.088044 0.927962 0)
(-0.118769 0.957084 0)
(-0.150092 0.919379 0)
(-0.155094 0.801808 0)
(-0.13247 0.606394 0)
(-0.0845433 0.421576 0)
(-0.0428252 0.321104 0)
(-0.0262801 0.313052 0)
(-0.00957857 0.279416 0)
(-0.0150251 0.47987 0)
(-0.013112 0.470684 0)
(0.00306237 0.460561 0)
(0.0458905 0.565523 0)
(0.086789 0.807802 0)
(0.0938184 0.919165 0)
(0.0853148 0.965645 0)
(0.0644065 0.992647 0)
(0.0416919 0.980286 0)
(0.035605 0.991835 0)
(0.0471374 1.02697 0)
(0.0452842 1.04414 0)
(0.00962929 1.00773 0)
(-0.0189262 0.991489 0)
(-0.0352706 1.02652 0)
(-0.051671 1.00137 0)
(-0.0609571 0.940465 0)
(-0.0583737 0.942952 0)
(-0.0444664 0.964292 0)
(-0.0442229 0.929064 0)
(-0.0499696 0.913644 0)
(-0.068004 0.944953 0)
(-0.093517 0.974942 0)
(-0.117306 0.935543 0)
(-0.112046 0.778246 0)
(-0.0962588 0.584211 0)
(-0.0605632 0.377839 0)
(-0.0305932 0.304961 0)
(-0.0208324 0.308805 0)
(-0.00657908 0.268813 0)
(-0.0100743 0.492402 0)
(-0.00965571 0.464008 0)
(0.00517357 0.432537 0)
(0.0439045 0.51823 0)
(0.0846878 0.779425 0)
(0.101943 0.912265 0)
(0.0943983 0.965246 0)
(0.0835001 1.00777 0)
(0.054577 1.0005 0)
(0.0400348 0.991954 0)
(0.0441757 1.02304 0)
(0.0517136 1.06279 0)
(0.0228854 1.03912 0)
(-0.00353441 1.01451 0)
(-0.0121747 1.043 0)
(-0.0332222 1.01911 0)
(-0.0500678 0.95036 0)
(-0.0460913 0.927308 0)
(-0.0268984 0.957222 0)
(-0.025631 0.928236 0)
(-0.0319371 0.919594 0)
(-0.0447594 0.954945 0)
(-0.061351 0.987176 0)
(-0.075652 0.947895 0)
(-0.0746069 0.753117 0)
(-0.0647319 0.572095 0)
(-0.0433328 0.34728 0)
(-0.0239959 0.291312 0)
(-0.0174433 0.303021 0)
(0.00112235 0.256289 0)
(-0.0029217 0.497051 0)
(0.00255098 0.457888 0)
(0.0166893 0.407425 0)
(0.0490723 0.48099 0)
(0.0873105 0.740445 0)
(0.109214 0.906315 0)
(0.101816 0.96218 0)
(0.0960479 1.01541 0)
(0.0735099 1.02329 0)
(0.052493 1.00124 0)
(0.0467366 1.01652 0)
(0.0586658 1.0743 0)
(0.0475163 1.07393 0)
(0.0161557 1.02807 0)
(0.00565617 1.05852 0)
(-0.0141059 1.04059 0)
(-0.0383666 0.964968 0)
(-0.0359255 0.910067 0)
(-0.015313 0.946352 0)
(-0.00851913 0.926744 0)
(-0.0144644 0.922719 0)
(-0.0204992 0.958906 0)
(-0.0319932 0.991109 0)
(-0.0347176 0.951505 0)
(-0.0488223 0.742851 0)
(-0.0463043 0.563638 0)
(-0.0331443 0.329791 0)
(-0.0218898 0.28015 0)
(-0.0146276 0.291348 0)
(0.00865985 0.25089 0)
(0.00621407 0.49017 0)
(0.0207221 0.448344 0)
(0.030903 0.388894 0)
(0.0587283 0.44926 0)
(0.0932808 0.699198 0)
(0.11601 0.903547 0)
(0.107342 0.95875 0)
(0.108185 1.01692 0)
(0.0926356 1.03903 0)
(0.0701522 1.02163 0)
(0.053715 1.01735 0)
(0.063232 1.0668 0)
(0.074651 1.09658 0)
(0.0432163 1.05687 0)
(0.0226456 1.06731 0)
(0.00403319 1.06316 0)
(-0.0234421 0.98116 0)
(-0.0254165 0.894513 0)
(-0.00915912 0.929832 0)
(0.0044704 0.923001 0)
(0.00188788 0.920894 0)
(-0.00190996 0.958568 0)
(-0.00833824 0.990201 0)
(-0.00847228 0.954827 0)
(-0.0376169 0.748023 0)
(-0.0411995 0.554135 0)
(-0.034287 0.32138 0)
(-0.0247912 0.267322 0)
(-0.00978557 0.277378 0)
(0.00985616 0.249896 0)
(0.0143495 0.468621 0)
(0.0352815 0.44013 0)
(0.0411171 0.375426 0)
(0.0633308 0.423177 0)
(0.0974555 0.6601 0)
(0.12344 0.897802 0)
(0.115519 0.958772 0)
(0.11925 1.01304 0)
(0.114638 1.04917 0)
(0.0945292 1.04573 0)
(0.0678668 1.02819 0)
(0.0686117 1.05293 0)
(0.0861712 1.10163 0)
(0.0755787 1.09266 0)
(0.0418822 1.08251 0)
(0.0212265 1.08508 0)
(-0.00625531 1.00206 0)
(-0.0158251 0.888748 0)
(-0.00472435 0.912499 0)
(0.0151742 0.913115 0)
(0.0150568 0.918514 0)
(0.0110051 0.956551 0)
(0.0033648 0.987557 0)
(0.00256002 0.96036 0)
(-0.0337628 0.76815 0)
(-0.0400155 0.544892 0)
(-0.0412376 0.31672 0)
(-0.0310949 0.25001 0)
(-0.0099443 0.256108 0)
(0.00783223 0.252142 0)
(0.0148234 0.43883 0)
(0.0418183 0.430941 0)
(0.0421316 0.370178 0)
(0.0610392 0.396171 0)
(0.0972344 0.619152 0)
(0.130796 0.887601 0)
(0.129526 0.955215 0)
(0.129814 1.00674 0)
(0.132372 1.05316 0)
(0.118912 1.06597 0)
(0.0888525 1.05253 0)
(0.0762641 1.04308 0)
(0.083645 1.09605 0)
(0.0897914 1.10841 0)
(0.0714317 1.11665 0)
(0.0408286 1.10577 0)
(0.0139549 1.02666 0)
(-0.00392733 0.890009 0)
(0.00167448 0.892843 0)
(0.0225432 0.902994 0)
(0.0251391 0.914703 0)
(0.0173064 0.959641 0)
(0.00495515 0.987995 0)
(0.000209763 0.96642 0)
(-0.0288111 0.788597 0)
(-0.0347974 0.539323 0)
(-0.0401722 0.318777 0)
(-0.0296954 0.234331 0)
(-0.0128921 0.241252 0)
(0.00194697 0.252523 0)
(0.0122187 0.410699 0)
(0.0406065 0.423492 0)
(0.0386465 0.367538 0)
(0.0522749 0.374186 0)
(0.0891315 0.572693 0)
(0.136078 0.87 0)
(0.146246 0.953209 0)
(0.144207 1.00215 0)
(0.148241 1.0521 0)
(0.138473 1.0841 0)
(0.112171 1.07791 0)
(0.0839379 1.05734 0)
(0.0785049 1.08459 0)
(0.0897748 1.11201 0)
(0.0894556 1.13447 0)
(0.0645194 1.13335 0)
(0.0324123 1.05786 0)
(0.0101147 0.899119 0)
(0.0106261 0.878615 0)
(0.0250989 0.889578 0)
(0.0270028 0.915861 0)
(0.0192431 0.965667 0)
(0.000589764 0.99868 0)
(-0.0038596 0.967747 0)
(-0.022133 0.80188 0)
(-0.0238349 0.538574 0)
(-0.0292325 0.320157 0)
(-0.0219569 0.225882 0)
(-0.0145754 0.229306 0)
(-0.00150758 0.248287 0)
(0.00710393 0.386889 0)
(0.0367717 0.416536 0)
(0.0330385 0.368848 0)
(0.0409798 0.359542 0)
(0.0761738 0.521467 0)
(0.133082 0.837369 0)
(0.163585 0.94845 0)
(0.161583 1.00076 0)
(0.160627 1.05168 0)
(0.15109 1.09828 0)
(0.127805 1.10429 0)
(0.0953487 1.08553 0)
(0.0777516 1.08223 0)
(0.0818429 1.1055 0)
(0.090955 1.14298 0)
(0.0823546 1.16296 0)
(0.0464277 1.0943 0)
(0.0237557 0.914157 0)
(0.0203005 0.871412 0)
(0.023008 0.886446 0)
(0.0201068 0.915654 0)
(0.0109023 0.97666 0)
(-0.00692519 1.01052 0)
(-0.0050241 0.96684 0)
(-0.0139821 0.811482 0)
(-0.0105811 0.533313 0)
(-0.0131634 0.323355 0)
(-0.0103544 0.225645 0)
(-0.0129757 0.226335 0)
(-0.00251934 0.242339 0)
(0.000316955 0.371068 0)
(0.0293838 0.40964 0)
(0.0278961 0.370859 0)
(0.0307751 0.351256 0)
(0.0583558 0.476534 0)
(0.119781 0.787742 0)
(0.165766 0.932099 0)
(0.170284 1.00092 0)
(0.162358 1.05433 0)
(0.153922 1.1108 0)
(0.134613 1.12544 0)
(0.106767 1.11364 0)
(0.0781066 1.09677 0)
(0.0701554 1.10043 0)
(0.0789804 1.14194 0)
(0.0831794 1.17776 0)
(0.0528832 1.13718 0)
(0.0311264 0.92937 0)
(0.0273099 0.875499 0)
(0.0189657 0.888347 0)
(0.00762738 0.92624 0)
(-0.00703942 0.986715 0)
(-0.0186204 1.01911 0)
(0.000112121 0.957642 0)
(-0.0017827 0.81826 0)
(0.00180329 0.525366 0)
(0.00185727 0.324857 0)
(-0.000876811 0.231695 0)
(-0.00971667 0.225407 0)
(-0.00236847 0.235654 0)
(-0.00409228 0.361133 0)
(0.023866 0.398623 0)
(0.0220823 0.374561 0)
(0.0222912 0.349173 0)
(0.0405285 0.438616 0)
(0.0993815 0.730997 0)
(0.149797 0.909555 0)
(0.15986 1.00026 0)
(0.149816 1.06022 0)
(0.143476 1.11763 0)
(0.13251 1.14411 0)
(0.113002 1.13765 0)
(0.0804584 1.12478 0)
(0.0614076 1.10374 0)
(0.0596598 1.13733 0)
(0.0678712 1.18689 0)
(0.0500045 1.17055 0)
(0.031556 0.947374 0)
(0.0296104 0.885821 0)
(0.0148045 0.902362 0)
(-0.00664249 0.943544 0)
(-0.0276757 1.00323 0)
(-0.0246684 1.00898 0)
(0.000141648 0.936914 0)
(0.00628691 0.825426 0)
(0.0115699 0.514489 0)
(0.0144128 0.328577 0)
(0.00826295 0.240159 0)
(-0.00647092 0.229083 0)
(0.000195774 0.229874 0)
(-0.000303857 0.351716 0)
(0.0227985 0.392233 0)
(0.0153077 0.375531 0)
(0.0154247 0.352317 0)
(0.0264086 0.407896 0)
(0.0807106 0.675297 0)
(0.129868 0.885108 0)
(0.139663 0.997241 0)
(0.129051 1.06374 0)
(0.123312 1.11567 0)
(0.121346 1.15088 0)
(0.110066 1.15985 0)
(0.0826046 1.14983 0)
(0.0537511 1.12421 0)
(0.0388529 1.1339 0)
(0.041742 1.19362 0)
(0.0379259 1.19381 0)
(0.0286861 0.963297 0)
(0.0294569 0.903076 0)
(0.0120739 0.921034 0)
(-0.0159785 0.973499 0)
(-0.0327945 1.01086 0)
(-0.0195192 0.990037 0)
(-0.00761839 0.92323 0)
(0.00334439 0.820673 0)
(0.0174751 0.498415 0)
(0.0238194 0.331574 0)
(0.0169496 0.252656 0)
(-0.000461228 0.232995 0)
(0.00452491 0.227935 0)
(0.00367046 0.33531 0)
(0.0254099 0.395865 0)
(0.0105163 0.378154 0)
(0.0116811 0.356873 0)
(0.0173328 0.382207 0)
(0.0668775 0.618474 0)
(0.115135 0.863034 0)
(0.121309 0.99623 0)
(0.110507 1.0667 0)
(0.104975 1.11201 0)
(0.106052 1.15097 0)
(0.0998711 1.17153 0)
(0.0814656 1.17387 0)
(0.0501254 1.15379 0)
(0.0259882 1.14307 0)
(0.0202504 1.19571 0)
(0.0234407 1.20151 0)
(0.0281877 0.976565 0)
(0.0329902 0.917589 0)
(0.0137175 0.948248 0)
(-0.0148453 0.996378 0)
(-0.0248064 1.01422 0)
(-0.0164253 0.972687 0)
(-0.01661 0.925463 0)
(-0.00716239 0.803752 0)
(0.0199933 0.475892 0)
(0.0287062 0.335111 0)
(0.0244586 0.263619 0)
(0.00563335 0.241157 0)
(0.00680866 0.232341 0)
(-0.000733635 0.3162 0)
(0.0230867 0.404602 0)
(0.00711318 0.376583 0)
(0.00847992 0.360806 0)
(0.0111131 0.363185 0)
(0.0552583 0.557419 0)
(0.105668 0.841257 0)
(0.112731 0.99449 0)
(0.101544 1.0701 0)
(0.0947759 1.1088 0)
(0.0942678 1.15023 0)
(0.0886216 1.18139 0)
(0.0748508 1.19235 0)
(0.0449025 1.18264 0)
(0.0180129 1.1608 0)
(0.00156316 1.20035 0)
(0.00582675 1.20421 0)
(0.0232356 0.976477 0)
(0.0337052 0.934553 0)
(0.0201528 0.97547 0)
(-0.00886572 1.02005 0)
(-0.0155927 1.01197 0)
(-0.0206842 0.968465 0)
(-0.0272717 0.931945 0)
(-0.0148018 0.771416 0)
(0.0183209 0.45215 0)
(0.0301813 0.334707 0)
(0.0286688 0.273105 0)
(0.00949176 0.251497 0)
(0.00716414 0.238092 0)
(-0.00561975 0.303619 0)
(0.0134862 0.410502 0)
(-0.000344993 0.369936 0)
(0.00506501 0.360995 0)
(0.00774624 0.348727 0)
(0.0463391 0.498201 0)
(0.0983997 0.816563 0)
(0.110334 0.99298 0)
(0.0987246 1.06935 0)
(0.0913996 1.10836 0)
(0.0880613 1.15016 0)
(0.0825699 1.18499 0)
(0.0706047 1.21023 0)
(0.0471258 1.20753 0)
(0.0163956 1.18792 0)
(-0.0093202 1.20852 0)
(-0.00463024 1.20098 0)
(0.0221616 0.973603 0)
(0.0316475 0.943167 0)
(0.0191337 1.00629 0)
(-0.00709772 1.03598 0)
(-0.0143603 1.01465 0)
(-0.0271828 0.969435 0)
(-0.0387047 0.937585 0)
(-0.0176414 0.731988 0)
(0.0162316 0.429787 0)
(0.0311594 0.332004 0)
(0.0314195 0.28323 0)
(0.010894 0.266917 0)
(0.00711021 0.245555 0)
(-0.00959451 0.29838 0)
(-3.79224e-05 0.416273 0)
(-0.00945885 0.364213 0)
(1.45102e-06 0.356806 0)
(0.00524409 0.33728 0)
(0.0359906 0.442713 0)
(0.0859839 0.783762 0)
(0.103039 0.988118 0)
(0.0961333 1.0683 0)
(0.0906521 1.10967 0)
(0.0861577 1.15259 0)
(0.0795037 1.19175 0)
(0.0701933 1.21982 0)
(0.0508266 1.23152 0)
(0.0202376 1.21722 0)
(-0.0115774 1.22426 0)
(-0.00526009 1.19122 0)
(0.0222366 0.962729 0)
(0.0204702 0.956349 0)
(0.00696871 1.03156 0)
(-0.0187263 1.04757 0)
(-0.023196 1.01463 0)
(-0.0351235 0.97668 0)
(-0.0459829 0.937797 0)
(-0.0171828 0.685109 0)
(0.0171816 0.410856 0)
(0.0345689 0.326313 0)
(0.0338031 0.293835 0)
(0.0112374 0.283016 0)
(0.00656762 0.251636 0)
(-0.0126815 0.30551 0)
(-0.0123313 0.417685 0)
(-0.0175136 0.355853 0)
(-0.00658572 0.348808 0)
(0.00313868 0.329461 0)
(0.0245343 0.396965 0)
(0.0692796 0.750427 0)
(0.0910781 0.981759 0)
(0.0906384 1.06111 0)
(0.0904884 1.11074 0)
(0.086705 1.15713 0)
(0.0791724 1.19605 0)
(0.0703732 1.23305 0)
(0.0553496 1.2499 0)
(0.0250751 1.25079 0)
(-0.00555441 1.23933 0)
(0.000838847 1.18013 0)
(0.0188777 0.96529 0)
(0.0084121 0.971486 0)
(-0.00830777 1.06271 0)
(-0.0344938 1.05643 0)
(-0.0369766 1.01737 0)
(-0.0420156 0.98259 0)
(-0.0469428 0.934026 0)
(-0.0131156 0.63784 0)
(0.0241182 0.393159 0)
(0.0420266 0.321537 0)
(0.0373413 0.305296 0)
(0.0115939 0.30501 0)
(0.00562163 0.258303 0)
(-0.0115285 0.319731 0)
(-0.0164435 0.423989 0)
(-0.0242479 0.353068 0)
(-0.0126654 0.338206 0)
(-0.000299595 0.324742 0)
(0.0163954 0.363058 0)
(0.0497883 0.714148 0)
(0.0797554 0.969965 0)
(0.0837422 1.05044 0)
(0.0883797 1.10802 0)
(0.0872372 1.16117 0)
(0.0800947 1.2033 0)
(0.0719354 1.23967 0)
(0.0588516 1.26992 0)
(0.0332464 1.27898 0)
(0.00566004 1.25904 0)
(0.00608481 1.17489 0)
(0.0133354 0.974533 0)
(-0.00583633 0.990077 0)
(-0.0267963 1.09129 0)
(-0.0506183 1.06483 0)
(-0.053887 1.01392 0)
(-0.0509508 0.984372 0)
(-0.0473261 0.921977 0)
(-0.00405494 0.590265 0)
(0.037889 0.372431 0)
(0.0521575 0.322039 0)
(0.0415293 0.319873 0)
(0.0144997 0.327332 0)
(0.00690638 0.263061 0)
(-0.0098295 0.330592 0)
(-0.0145932 0.434133 0)
(-0.0264602 0.353882 0)
(-0.0150536 0.328193 0)
(-0.0023819 0.320164 0)
(0.0109888 0.342083 0)
(0.0332315 0.677493 0)
(0.0666419 0.954899 0)
(0.0779126 1.04042 0)
(0.0810143 1.09968 0)
(0.0842155 1.16612 0)
(0.0786351 1.20746 0)
(0.0724037 1.25016 0)
(0.0622505 1.28232 0)
(0.0404491 1.30561 0)
(0.0198566 1.27312 0)
(0.0121528 1.18078 0)
(0.00828707 0.992096 0)
(-0.0176078 1.01132 0)
(-0.0399911 1.1207 0)
(-0.0614573 1.06919 0)
(-0.0670192 1.01393 0)
(-0.0661387 0.980485 0)
(-0.0437212 0.895619 0)
(0.0142403 0.539577 0)
(0.0567683 0.354486 0)
(0.0605187 0.329723 0)
(0.0461571 0.334592 0)
(0.0204347 0.351477 0)
(0.0134489 0.27323 0)
(-0.0118049 0.336422 0)
(-0.0101617 0.439451 0)
(-0.0170266 0.350647 0)
(-0.012946 0.321507 0)
(-0.00496475 0.315795 0)
(0.00663027 0.331737 0)
(0.0206708 0.647969 0)
(0.0572329 0.928517 0)
(0.0729334 1.03273 0)
(0.0731377 1.09174 0)
(0.0763091 1.16503 0)
(0.0745728 1.21187 0)
(0.0710022 1.25302 0)
(0.0641692 1.29681 0)
(0.0475245 1.32431 0)
(0.0322053 1.2867 0)
(0.0206666 1.19601 0)
(0.00631016 1.01851 0)
(-0.0257111 1.03461 0)
(-0.0459816 1.15089 0)
(-0.067887 1.08055 0)
(-0.0789767 1.01799 0)
(-0.0758916 0.969331 0)
(-0.0286514 0.849858 0)
(0.0424357 0.48561 0)
(0.0737449 0.34828 0)
(0.0640889 0.342452 0)
(0.0485036 0.349386 0)
(0.0267019 0.367464 0)
(0.0192824 0.288595 0)
(-0.018195 0.342268 0)
(-0.00788944 0.4331 0)
(-0.00779343 0.352253 0)
(-0.01058 0.320565 0)
(-0.0105851 0.313934 0)
(-0.00144194 0.326686 0)
(0.0121354 0.62036 0)
(0.0524061 0.900768 0)
(0.0698946 1.0281 0)
(0.0657284 1.0866 0)
(0.0655384 1.16328 0)
(0.0671742 1.20981 0)
(0.06589 1.25635 0)
(0.0629787 1.30125 0)
(0.0523862 1.34314 0)
(0.0426777 1.29386 0)
(0.0288339 1.21844 0)
(0.00805285 1.055 0)
(-0.0299124 1.06017 0)
(-0.0495613 1.17746 0)
(-0.0725554 1.09949 0)
(-0.0880603 1.02156 0)
(-0.0724059 0.943889 0)
(0.0017481 0.783054 0)
(0.0708541 0.44031 0)
(0.0814426 0.357649 0)
(0.0625885 0.358598 0)
(0.0473987 0.359993 0)
(0.0248347 0.379556 0)
(0.0225026 0.306036 0)
(-0.023284 0.353087 0)
(-0.0108366 0.415581 0)
(-0.00245308 0.349075 0)
(-0.00736733 0.328008 0)
(-0.0175916 0.316209 0)
(-0.0157685 0.324055 0)
(-0.000520498 0.586667 0)
(0.0482003 0.868506 0)
(0.0671387 1.0224 0)
(0.0603382 1.08771 0)
(0.0556703 1.15863 0)
(0.0593246 1.20992 0)
(0.0575169 1.25312 0)
(0.0580395 1.30629 0)
(0.0551216 1.34742 0)
(0.0505262 1.30543 0)
(0.0365579 1.23582 0)
(0.0086919 1.09946 0)
(-0.0325217 1.08904 0)
(-0.0558531 1.19886 0)
(-0.0766838 1.12554 0)
(-0.0917879 1.01752 0)
(-0.0536347 0.89657 0)
(0.0357203 0.706444 0)
(0.0864623 0.417344 0)
(0.0792823 0.376124 0)
(0.0564832 0.374364 0)
(0.0379166 0.373194 0)
(0.013685 0.383088 0)
(0.0221452 0.320442 0)
(-0.0210788 0.367638 0)
(-0.00697069 0.396668 0)
(-0.00157628 0.33921 0)
(-0.00534553 0.337687 0)
(-0.0220922 0.326034 0)
(-0.0311323 0.327186 0)
(-0.0171006 0.544366 0)
(0.0397925 0.832249 0)
(0.0651165 1.01921 0)
(0.0537846 1.08656 0)
(0.0491288 1.15676 0)
(0.0506237 1.20652 0)
(0.0505353 1.25365 0)
(0.051267 1.30182 0)
(0.0544267 1.35107 0)
(0.0533531 1.31217 0)
(0.0404773 1.25659 0)
(0.00665751 1.14904 0)
(-0.0385682 1.12262 0)
(-0.0642491 1.21637 0)
(-0.078355 1.15277 0)
(-0.0825327 0.999992 0)
(-0.0247909 0.828776 0)
(0.0559052 0.641121 0)
(0.0854678 0.412989 0)
(0.069557 0.396533 0)
(0.0439332 0.393244 0)
(0.0238105 0.384056 0)
(0.000246616 0.385177 0)
(0.0174579 0.324867 0)
(-0.0102994 0.372837 0)
(0.00823095 0.388577 0)
(-0.00119197 0.333717 0)
(-0.00647099 0.348205 0)
(-0.0258144 0.342259 0)
(-0.0414884 0.33707 0)
(-0.0307782 0.500251 0)
(0.0251761 0.785047 0)
(0.0589574 1.01263 0)
(0.0497255 1.09163 0)
(0.0442567 1.15103 0)
(0.0457467 1.20712 0)
(0.0458257 1.25059 0)
(0.0452041 1.3012 0)
(0.0496677 1.34584 0)
(0.049666 1.32512 0)
(0.0370831 1.27266 0)
(-0.00260858 1.2056 0)
(-0.0474798 1.15833 0)
(-0.0713234 1.2272 0)
(-0.0719072 1.1675 0)
(-0.0611912 0.9655 0)
(-0.0043029 0.7656 0)
(0.0561403 0.59508 0)
(0.0718788 0.418141 0)
(0.0536432 0.417859 0)
(0.0251809 0.412468 0)
(0.00837013 0.391977 0)
(-0.0127882 0.383796 0)
(0.0134611 0.318798 0)
(0.000541386 0.361723 0)
(0.0256543 0.389837 0)
(0.0055241 0.340405 0)
(-0.00930609 0.358449 0)
(-0.027306 0.361601 0)
(-0.0440123 0.348678 0)
(-0.0337011 0.462496 0)
(0.00998532 0.737903 0)
(0.0478291 1.0011 0)
(0.0460849 1.09264 0)
(0.0414687 1.14855 0)
(0.0455035 1.20366 0)
(0.0447847 1.25446 0)
(0.0428608 1.29603 0)
(0.0429611 1.34905 0)
(0.0411608 1.33164 0)
(0.0253298 1.29889 0)
(-0.0143079 1.25626 0)
(-0.0535372 1.19334 0)
(-0.0730686 1.22398 0)
(-0.0591869 1.1672 0)
(-0.0406601 0.930104 0)
(-0.00212245 0.720537 0)
(0.0395395 0.561914 0)
(0.0498526 0.425918 0)
(0.0295693 0.440036 0)
(0.00566097 0.429245 0)
(-0.00777724 0.394062 0)
(-0.0250149 0.382591 0)
(0.00950003 0.306385 0)
(0.00371925 0.338845 0)
(0.0325492 0.393097 0)
(0.00945274 0.353956 0)