/*--------------------------------*- C++ -*----------------------------------*\
| =========                 |                                                 |
| \\      /  F ield         | OpenFOAM: The Open Source CFD Toolbox           |
|  \\    /   O peration     | Version:  2.3.0                                 |
|   \\  /    A nd           | Web:      www.OpenFOAM.org                      |
|    \\/     M anipulation  |                                                 |
\*---------------------------------------------------------------------------*/
FoamFile
{
    version     2.0;
    format      ascii;
    class       volVectorField;
    location    "0.84";
    object      Ur;
}
// * * * * * * * * * * * * * * * * * * * * * * * * * * * * * * * * * * * * * //

dimensions      [0 1 -1 0 0 0 0];

internalField   nonuniform List<vector> 
6000
(
(0.0234917 -0.529946 0)
(0.00190406 -0.508179 0)
(-0.06277 -0.521152 0)
(-0.100323 -0.537105 0)
(-0.0686269 -0.588268 0)
(-0.0257968 -0.664325 0)
(-0.0878595 -0.711609 0)
(-0.156795 -0.740434 0)
(-0.109088 -0.790744 0)
(-0.0334544 -0.821043 0)
(0.00320095 -0.800158 0)
(0.00525799 -0.747474 0)
(-0.080671 -0.706161 0)
(-0.0170641 -0.72221 0)
(0.222223 -0.608263 0)
(0.290391 -0.504379 0)
(0.17438 -0.477904 0)
(0.081609 -0.532984 0)
(0.0304415 -0.533905 0)
(-0.0289278 -0.546957 0)
(-0.0816703 -0.552459 0)
(-0.149777 -0.553072 0)
(-0.231215 -0.552109 0)
(-0.304443 -0.546131 0)
(-0.258564 -0.581907 0)
(-0.0390713 -0.738364 0)
(0.100601 -0.764667 0)
(-0.0383916 -0.764256 0)
(-0.0209036 -0.708476 0)
(0.0587873 -0.478586 0)
(-0.0103989 -0.912605 0)
(-0.0469991 -0.866868 0)
(-0.10313 -0.883617 0)
(-0.174333 -0.933939 0)
(-0.202203 -1.0518 0)
(-0.156246 -1.16458 0)
(-0.118455 -1.17825 0)
(-0.0910974 -1.22612 0)
(-0.0330083 -1.39076 0)
(0.0227658 -1.5193 0)
(0.0435803 -1.4783 0)
(0.0512422 -1.32012 0)
(0.057057 -1.26229 0)
(0.113556 -1.49163 0)
(0.287116 -1.19567 0)
(0.346457 -0.860209 0)
(0.216947 -0.765095 0)
(0.083275 -0.821069 0)
(-0.00621752 -0.832164 0)
(-0.0715622 -0.862304 0)
(-0.119372 -0.886787 0)
(-0.168602 -0.896656 0)
(-0.218864 -0.918854 0)
(-0.227329 -0.948948 0)
(-0.132152 -1.15274 0)
(0.0192957 -1.45673 0)
(0.0571977 -1.46983 0)
(0.00476042 -1.4107 0)
(0.0586187 -1.41991 0)
(0.0626139 -0.815513 0)
(-0.0261697 -0.859231 0)
(-0.0812616 -0.815372 0)
(-0.161802 -0.828423 0)
(-0.240862 -0.905455 0)
(-0.231395 -1.08799 0)
(-0.136772 -1.21939 0)
(-0.0332626 -1.21577 0)
(0.0581227 -1.29317 0)
(0.111416 -1.37849 0)
(0.112424 -1.37143 0)
(0.101561 -1.35586 0)
(0.105163 -1.29524 0)
(0.12879 -1.2993 0)
(0.124386 -1.3745 0)
(0.235155 -1.31604 0)
(0.315453 -0.790346 0)
(0.233757 -0.620276 0)
(0.0762259 -0.677223 0)
(-0.0359364 -0.757455 0)
(-0.111703 -0.834418 0)
(-0.160789 -0.869057 0)
(-0.172432 -0.876753 0)
(-0.136767 -0.917793 0)
(-0.0370311 -1.05871 0)
(0.0554136 -1.30312 0)
(0.0563419 -1.31835 0)
(0.0291703 -1.33372 0)
(0.047548 -1.29895 0)
(0.0993762 -1.28136 0)
(0.0476018 -0.671517 0)
(0.0163054 -0.957453 0)
(-0.0401356 -0.816839 0)
(-0.156567 -0.814687 0)
(-0.150651 -0.960782 0)
(-0.0441605 -1.2373 0)
(0.0443079 -1.30981 0)
(0.102703 -1.25425 0)
(0.150229 -1.266 0)
(0.155342 -1.27692 0)
(0.137586 -1.29055 0)
(0.12622 -1.27241 0)
(0.118051 -1.26888 0)
(0.100444 -1.26449 0)
(0.0853637 -1.30308 0)
(0.132413 -1.25909 0)
(0.193173 -0.784433 0)
(0.122341 -0.543421 0)
(-0.0538118 -0.645814 0)
(-0.141434 -0.826423 0)
(-0.124483 -0.938199 0)
(-0.0981423 -0.982212 0)
(-0.0499026 -1.04627 0)
(0.0402066 -1.14112 0)
(0.141307 -1.23412 0)
(0.149685 -1.29521 0)
(0.0908159 -1.29985 0)
(0.0560814 -1.27267 0)
(0.0710123 -1.27407 0)
(0.118914 -1.2377 0)
(0.0598898 -0.559376 0)
(0.052409 -1.02062 0)
(0.0414258 -0.746462 0)
(0.00710441 -0.800347 0)
(0.0958587 -1.08286 0)
(0.159274 -1.21311 0)
(0.134749 -1.20933 0)
(0.121252 -1.20129 0)
(0.128392 -1.2123 0)
(0.133174 -1.25377 0)
(0.128265 -1.263 0)
(0.127837 -1.28553 0)
(0.11786 -1.27362 0)
(0.096768 -1.28447 0)
(0.0838045 -1.26694 0)
(0.126236 -1.21838 0)
(0.078229 -0.712831 0)
(-0.0294901 -0.479418 0)
(-0.146235 -0.596788 0)
(-0.159531 -0.937025 0)
(-0.0536438 -1.07343 0)
(0.014414 -1.07605 0)
(0.0631685 -1.06195 0)
(0.0921113 -1.10697 0)
(0.109815 -1.1709 0)
(0.113245 -1.256 0)
(0.0938499 -1.27298 0)
(0.0759182 -1.28859 0)
(0.0832194 -1.25788 0)
(0.129796 -1.25555 0)
(0.0602514 -0.463113 0)
(0.027391 -1.14142 0)
(0.0978667 -0.764158 0)
(0.215773 -0.894029 0)
(0.254715 -1.05613 0)
(0.19131 -1.11421 0)
(0.133392 -1.14276 0)
(0.106935 -1.15943 0)
(0.10081 -1.19412 0)
(0.101033 -1.22086 0)
(0.106106 -1.25795 0)
(0.112963 -1.26572 0)
(0.113042 -1.28779 0)
(0.105785 -1.27697 0)
(0.112915 -1.27217 0)
(0.130287 -1.17462 0)
(-0.00933826 -0.55671 0)
(-0.13618 -0.456483 0)
(-0.101658 -0.640021 0)
(0.00865435 -1.0292 0)
(0.0708221 -0.999497 0)
(0.0718 -0.951223 0)
(0.0381189 -0.939976 0)
(0.0130931 -1.0121 0)
(0.0187094 -1.10441 0)
(0.0393431 -1.18019 0)
(0.0624209 -1.25675 0)
(0.0750731 -1.26309 0)
(0.0884268 -1.285 0)
(0.121139 -1.25089 0)
(0.0533802 -0.413943 0)
(0.0016615 -1.08477 0)
(0.108359 -0.891564 0)
(0.244636 -0.943221 0)
(0.229305 -0.954306 0)
(0.146409 -1.01771 0)
(0.0946156 -1.07162 0)
(0.0681172 -1.11564 0)
(0.0581557 -1.15177 0)
(0.0609597 -1.20399 0)
(0.0731097 -1.22874 0)
(0.0889017 -1.26631 0)
(0.1 -1.27464 0)
(0.110345 -1.29658 0)
(0.138433 -1.27312 0)
(0.102371 -1.09371 0)
(-0.0736024 -0.43933 0)
(-0.136357 -0.471579 0)
(0.00403994 -0.881464 0)
(0.146165 -0.996801 0)
(0.15281 -0.91804 0)
(0.105477 -0.839659 0)
(-0.00149733 -0.79787 0)
(-0.0827599 -0.921448 0)
(-0.0907754 -1.03514 0)
(-0.052002 -1.13284 0)
(0.0007546 -1.19803 0)
(0.0452836 -1.26151 0)
(0.0827189 -1.26511 0)
(0.118265 -1.26483 0)
(0.0497775 -0.402453 0)
(0.0244353 -1.03388 0)
(0.0974601 -0.928172 0)
(0.151284 -0.904964 0)
(0.125418 -0.867001 0)
(0.0664071 -0.933359 0)
(0.0284125 -1.01045 0)
(0.00928592 -1.06117 0)
(0.000757172 -1.11861 0)
(0.00906065 -1.16216 0)
(0.0301059 -1.21013 0)
(0.0541878 -1.23625 0)
(0.0774348 -1.27609 0)
(0.0969616 -1.28318 0)
(0.123732 -1.29571 0)
(0.0446803 -1.0277 0)
(-0.103548 -0.413938 0)
(-0.079424 -0.603181 0)
(0.108555 -0.961308 0)
(0.207187 -0.96902 0)
(0.197536 -0.813578 0)
(0.0906046 -0.651879 0)
(-0.0266706 -0.610674 0)
(-0.129911 -0.7787 0)
(-0.185018 -0.972679 0)
(-0.149637 -1.07423 0)
(-0.0801505 -1.16323 0)
(-0.00386699 -1.218 0)
(0.0630542 -1.2659 0)
(0.107534 -1.25555 0)
(0.0471282 -0.405361 0)
(0.0424131 -1.02638 0)
(0.0958435 -0.925997 0)
(0.072257 -0.823253 0)
(0.0222563 -0.800946 0)
(-0.0181009 -0.872012 0)
(-0.0523405 -0.955522 0)
(-0.0610318 -1.02026 0)
(-0.0640873 -1.07142 0)
(-0.0459362 -1.12802 0)
(-0.0198663 -1.16077 0)
(0.00887976 -1.20733 0)
(0.0412748 -1.23683 0)
(0.0699683 -1.27607 0)
(0.0728007 -1.27756 0)
(0.00723186 -1.00941 0)
(-0.060233 -0.415469 0)
(-0.00878237 -0.784284 0)
(0.149022 -0.990015 0)
(0.211999 -0.937227 0)
(0.144141 -0.638594 0)
(0.0408312 -0.487942 0)
(-0.0211839 -0.490465 0)
(-0.0833126 -0.612127 0)
(-0.192053 -0.847616 0)
(-0.227826 -1.02245 0)
(-0.161621 -1.1007 0)
(-0.0675617 -1.18431 0)
(0.0219216 -1.22096 0)
(0.0794556 -1.24802 0)
(0.0383236 -0.415351 0)
(0.0562618 -1.02502 0)
(0.0990129 -0.87988 0)
(0.0297327 -0.690534 0)
(-0.0526125 -0.715204 0)
(-0.108842 -0.818381 0)
(-0.134378 -0.923541 0)
(-0.132184 -0.983314 0)
(-0.125474 -1.03371 0)
(-0.099645 -1.07532 0)
(-0.0693151 -1.12162 0)
(-0.0386439 -1.15039 0)
(-0.00439998 -1.19495 0)
(0.0292088 -1.22276 0)
(0.0211695 -1.25297 0)
(-0.018763 -1.03347 0)
(0.00670209 -0.464974 0)
(0.0710503 -0.863728 0)
(0.138583 -0.989054 0)
(0.133013 -0.816039 0)
(0.0547415 -0.501212 0)
(0.00686287 -0.405365 0)
(-0.00428991 -0.444421 0)
(-0.0131282 -0.504894 0)
(-0.0973188 -0.641937 0)
(-0.232917 -0.918111 0)
(-0.240414 -1.03772 0)
(-0.141193 -1.10488 0)
(-0.032275 -1.17735 0)
(0.0320365 -1.17946 0)
(0.0171162 -0.431085 0)
(0.0622605 -1.01977 0)
(0.0821326 -0.786699 0)
(0.00164141 -0.543665 0)
(-0.084037 -0.596963 0)
(-0.170844 -0.746309 0)
(-0.207633 -0.899572 0)
(-0.190274 -0.957613 0)
(-0.176045 -0.987684 0)
(-0.150358 -1.03358 0)
(-0.114647 -1.06772 0)
(-0.0802625 -1.10926 0)
(-0.0425078 -1.13286 0)
(-0.00467159 -1.16987 0)
(0.00511117 -1.17125 0)
(-0.0130146 -1.07538 0)
(0.0578087 -0.601313 0)
(0.12091 -0.839711 0)
(0.0815111 -0.928796 0)
(0.0144873 -0.669846 0)
(-0.0146603 -0.447252 0)
(-0.00733025 -0.377577 0)
(0.00916187 -0.422715 0)
(0.0270904 -0.445236 0)
(0.00471101 -0.483453 0)
(-0.11607 -0.686305 0)
(-0.255988 -0.937314 0)
(-0.210935 -1.0233 0)
(-0.0715778 -1.0671 0)
(0.00236978 -1.05699 0)
(0.00297176 -0.454002 0)
(0.0398079 -1.01571 0)
(0.0296867 -0.672818 0)
(-0.0224586 -0.435026 0)
(-0.0741608 -0.473399 0)
(-0.172914 -0.62974 0)
(-0.253145 -0.870032 0)
(-0.228755 -0.922275 0)
(-0.215532 -0.949028 0)
(-0.196686 -0.980052 0)
(-0.161425 -1.025 0)
(-0.119521 -1.06153 0)
(-0.072212 -1.10175 0)
(-0.0206781 -1.11751 0)
(0.0221357 -1.12932 0)
(0.0435829 -1.06358 0)
(0.111235 -0.737922 0)
(0.110367 -0.746928 0)
(-0.0282286 -0.781276 0)
(-0.101112 -0.588647 0)
(-0.0683525 -0.452528 0)
(-0.0248703 -0.377868 0)
(0.00417285 -0.398416 0)
(0.0291311 -0.409434 0)
(0.05124 -0.422478 0)
(0.0195787 -0.509619 0)
(-0.114431 -0.73978 0)
(-0.199747 -0.959402 0)
(-0.0817809 -1.00511 0)
(-0.01321 -0.955797 0)
(-0.0145841 -0.463311 0)
(-0.00791391 -0.930986 0)
(-0.0340204 -0.571298 0)
(-0.0382471 -0.380482 0)
(-0.0391535 -0.384823 0)
(-0.107398 -0.490394 0)
(-0.238079 -0.788136 0)
(-0.255242 -0.883928 0)
(-0.244951 -0.902593 0)
(-0.239366 -0.921393 0)
(-0.213084 -0.967139 0)
(-0.171322 -1.02714 0)
(-0.109569 -1.07113 0)
(-0.0383999 -1.113 0)
(0.0375388 -1.11625 0)
(0.114255 -1.07741 0)
(0.170072 -0.79973 0)
(0.066913 -0.555863 0)
(-0.143777 -0.581846 0)
(-0.194955 -0.581198 0)
(-0.12118 -0.493368 0)
(-0.0560755 -0.390641 0)
(-0.0256489 -0.376096 0)
(-0.00590259 -0.398713 0)
(0.0354656 -0.439238 0)
(0.0878594 -0.504195 0)
(0.0588789 -0.639641 0)
(-0.0462362 -0.872099 0)
(-0.0368277 -0.996004 0)
(-0.0301631 -0.848522 0)
(-0.0352342 -0.508869 0)
(-0.0327739 -0.797979 0)
(-0.0640431 -0.509113 0)
(-0.0395543 -0.372839 0)
(0.00195114 -0.355131 0)
(-0.00446304 -0.388728 0)
(-0.120389 -0.630378 0)
(-0.235454 -0.818878 0)
(-0.246133 -0.846155 0)
(-0.269677 -0.85615 0)
(-0.277243 -0.919695 0)
(-0.239668 -0.98754 0)
(-0.167477 -1.05871 0)
(-0.0710031 -1.10461 0)
(0.0359766 -1.14052 0)
(0.155856 -1.10086 0)
(0.173767 -0.770699 0)
(-0.0010102 -0.390346 0)
(-0.171804 -0.430979 0)
(-0.230959 -0.542508 0)
(-0.176104 -0.54185 0)
(-0.104906 -0.417724 0)
(-0.0743959 -0.375216 0)
(-0.0632578 -0.429071 0)
(-0.0291523 -0.524673 0)
(0.0464361 -0.60276 0)
(0.115496 -0.713352 0)
(0.0895464 -0.907837 0)
(0.0282989 -1.06693 0)
(-0.0188468 -0.878098 0)
(-0.0271292 -0.68844 0)
(-0.0317887 -0.704914 0)
(-0.0604037 -0.492558 0)
(-0.0277283 -0.404111 0)
(0.0364132 -0.381126 0)
(0.0819878 -0.378124 0)
(0.0296335 -0.48727 0)
(-0.117043 -0.694248 0)
(-0.191446 -0.754432 0)
(-0.22813 -0.756778 0)
(-0.274259 -0.840872 0)
(-0.296108 -0.956927 0)
(-0.242237 -1.04465 0)
(-0.127509 -1.12666 0)
(0.0125736 -1.16792 0)
(0.141728 -1.147 0)
(0.0713223 -0.692271 0)
(-0.0605957 -0.323023 0)
(-0.129182 -0.348572 0)
(-0.192064 -0.440678 0)
(-0.209589 -0.524322 0)
(-0.165506 -0.458523 0)
(-0.145704 -0.401242 0)
(-0.171723 -0.497189 0)
(-0.13021 -0.664069 0)
(-0.0192551 -0.772456 0)
(0.0732016 -0.875726 0)
(0.114766 -1.08811 0)
(0.0536473 -1.23965 0)
(0.0324802 -1.1168 0)
(0.0345585 -0.917452 0)
(-0.0256037 -0.644203 0)
(-0.040803 -0.508645 0)
(-0.00286998 -0.451494 0)
(0.0573394 -0.432107 0)
(0.120331 -0.428966 0)
(0.127176 -0.47108 0)
(0.0359372 -0.581205 0)
(-0.0746219 -0.645226 0)
(-0.119337 -0.661616 0)
(-0.159089 -0.721315 0)
(-0.237984 -0.847144 0)
(-0.295122 -1.02217 0)
(-0.208954 -1.14459 0)
(-0.0412883 -1.23036 0)
(0.0870974 -1.19322 0)
(-0.0305645 -0.58909 0)
(-0.122129 -0.312845 0)
(-0.117135 -0.325258 0)
(-0.141195 -0.361837 0)
(-0.196312 -0.430079 0)
(-0.221127 -0.452788 0)
(-0.234122 -0.417365 0)
(-0.246418 -0.57212 0)
(-0.190757 -0.83232 0)
(-0.0488099 -1.04091 0)
(0.0571813 -1.12302 0)
(0.0994323 -1.26054 0)
(0.0646591 -1.33833 0)
(0.0467985 -1.28757 0)
(0.0287394 -0.948239 0)
(-0.0104301 -0.605196 0)
(-0.00847026 -0.529153 0)
(0.0246886 -0.495677 0)
(0.0690663 -0.483732 0)
(0.118161 -0.487049 0)
(0.156003 -0.512029 0)
(0.126862 -0.561963 0)
(0.0428416 -0.590555 0)
(-0.00618543 -0.610653 0)
(-0.021602 -0.641026 0)
(-0.0738877 -0.699049 0)
(-0.212699 -0.880514 0)
(-0.277768 -1.14732 0)
(-0.114238 -1.28322 0)
(0.0113585 -1.20869 0)
(-0.104372 -0.503392 0)
(-0.171176 -0.335457 0)
(-0.135434 -0.338987 0)
(-0.12858 -0.336318 0)
(-0.164528 -0.341668 0)
(-0.224523 -0.357692 0)
(-0.3094 -0.377157 0)
(-0.382919 -0.76369 0)
(-0.259043 -1.19104 0)
(-0.0796054 -1.29401 0)
(0.0221296 -1.35411 0)
(0.0799195 -1.42123 0)
(0.0986205 -1.44351 0)
(0.0821183 -1.3804 0)
(0.027092 -1.00724 0)
(0.00407903 -0.589482 0)
(0.0212736 -0.552126 0)
(0.0513885 -0.535236 0)
(0.0828011 -0.526255 0)
(0.113565 -0.5326 0)
(0.145294 -0.551665 0)
(0.150324 -0.574853 0)
(0.120242 -0.583985 0)
(0.0844266 -0.597093 0)
(0.0719876 -0.622616 0)
(0.0698398 -0.632884 0)
(-0.025856 -0.688929 0)
(-0.217839 -1.03782 0)
(-0.177042 -1.35021 0)
(-0.0860424 -1.16513 0)
(-0.18034 -0.488558 0)
(-0.20307 -0.389645 0)
(-0.137821 -0.3716 0)
(-0.105797 -0.338378 0)
(-0.120368 -0.295901 0)
(-0.155073 -0.254957 0)
(-0.212166 -0.305634 0)
(-0.290282 -0.845554 0)
(-0.131238 -1.09315 0)
(-0.054229 -1.14848 0)
(0.00177941 -1.16936 0)
(0.0466312 -1.18698 0)
(0.0800614 -1.1972 0)
(0.0880884 -1.07321 0)
(0.0367931 -0.757093 0)
(0.0156682 -0.606216 0)
(0.0508317 -0.586759 0)
(0.0869916 -0.574438 0)
(0.110564 -0.55818 0)
(0.118601 -0.560878 0)
(0.1301 -0.583863 0)
(0.149467 -0.583411 0)
(0.149266 -0.579468 0)
(0.129238 -0.592968 0)
(0.119299 -0.623986 0)
(0.134914 -0.630279 0)
(0.117935 -0.621714 0)
(-0.040213 -0.860893 0)
(-0.172672 -1.36931 0)
(-0.202978 -1.09292 0)
(-0.255751 -0.573217 0)
(-0.197163 -0.490299 0)
(-0.0983369 -0.435032 0)
(-0.0533021 -0.372203 0)
(-0.0483336 -0.302627 0)
(-0.0442204 -0.219926 0)
(-0.058321 -0.290633 0)
(-0.0985609 -0.797528 0)
(-0.0407278 -1.03657 0)
(-0.0122579 -1.08244 0)
(0.0112499 -1.10578 0)
(0.0367623 -1.10605 0)
(0.0578103 -1.09772 0)
(0.0662405 -0.980664 0)
(0.0256112 -0.59057 0)
(0.0261781 -0.678057 0)
(0.0842118 -0.642311 0)
(0.131782 -0.615859 0)
(0.149582 -0.585248 0)
(0.135704 -0.573243 0)
(0.12507 -0.594915 0)
(0.142532 -0.590037 0)
(0.150077 -0.566701 0)
(0.137615 -0.575165 0)
(0.123453 -0.606093 0)
(0.124034 -0.622913 0)
(0.144683 -0.639406 0)
(0.0864852 -0.805098 0)
(-0.0993343 -1.29859 0)
(-0.267825 -1.05842 0)
(-0.282914 -0.724956 0)
(-0.146077 -0.659907 0)
(-0.0176221 -0.565698 0)
(0.0302504 -0.462939 0)
(0.0463423 -0.361383 0)
(0.0703196 -0.258193 0)
(0.069527 -0.350594 0)
(0.054022 -0.780619 0)
(0.0699383 -0.970925 0)
(0.059196 -1.02613 0)
(0.0496938 -1.06181 0)
(0.0400263 -1.0633 0)
(0.0298474 -1.04993 0)
(0.00921558 -0.878213 0)
(-0.0023271 -0.518968 0)
(0.0626767 -0.776465 0)
(0.154752 -0.700334 0)
(0.191551 -0.649939 0)
(0.199198 -0.607588 0)
(0.175851 -0.579096 0)
(0.142386 -0.59331 0)
(0.139699 -0.588418 0)
(0.141225 -0.544405 0)
(0.122806 -0.541159 0)
(0.0947929 -0.563556 0)
(0.0687038 -0.591822 0)
(0.0607649 -0.650238 0)
(0.0631344 -0.839391 0)
(-0.0627429 -1.2254 0)
(-0.240204 -1.04401 0)
(-0.254744 -0.860872 0)
(-0.0783071 -0.894297 0)
(0.105746 -0.775577 0)
(0.157608 -0.623275 0)
(0.167809 -0.473781 0)
(0.184005 -0.350252 0)
(0.185289 -0.445088 0)
(0.177133 -0.763211 0)
(0.165412 -0.885254 0)
(0.127833 -0.927653 0)
(0.0866793 -0.9532 0)
(0.0451717 -0.953688 0)
(0.00321108 -0.941496 0)
(-0.0308603 -0.792033 0)
(-0.018965 -0.500701 0)
(0.0769048 -0.952955 0)
(0.19035 -0.802816 0)
(0.243939 -0.650289 0)
(0.253082 -0.600998 0)
(0.225618 -0.576007 0)
(0.177355 -0.579068 0)
(0.148742 -0.566121 0)
(0.132292 -0.511882 0)
(0.0996825 -0.495934 0)
(0.0567017 -0.510149 0)
(0.0006311 -0.548351 0)
(-0.0668123 -0.631415 0)
(-0.0766108 -0.908977 0)
(-0.0906586 -1.21311 0)
(-0.180646 -1.04442 0)
(-0.22426 -0.968593 0)
(-0.0949622 -1.1664 0)
(0.168574 -0.994023 0)
(0.323065 -0.804772 0)
(0.329793 -0.611365 0)
(0.308781 -0.469543 0)
(0.294435 -0.544039 0)
(0.273285 -0.7346 0)
(0.2297 -0.798029 0)
(0.170149 -0.829146 0)
(0.110262 -0.848 0)
(0.0530505 -0.847035 0)
(-0.00258353 -0.837418 0)
(-0.0394769 -0.720201 0)
(-0.0223341 -0.498498 0)
(0.108354 -1.52873 0)
(0.228182 -1.09249 0)
(0.232173 -0.70975 0)
(0.23947 -0.632925 0)
(0.251327 -0.57268 0)
(0.218379 -0.539414 0)
(0.164047 -0.513001 0)
(0.12501 -0.464212 0)
(0.0834575 -0.445929 0)
(0.0241295 -0.458811 0)
(-0.0619301 -0.495176 0)
(-0.19177 -0.583391 0)
(-0.232774 -1.02086 0)
(-0.152816 -1.27527 0)
(-0.127854 -1.10009 0)
(-0.10454 -1.17673 0)
(-0.0288096 -1.62528 0)
(0.153124 -1.42805 0)
(0.355375 -0.954398 0)
(0.460773 -0.70087 0)
(0.440553 -0.560525 0)
(0.390524 -0.603001 0)
(0.333195 -0.682097 0)
(0.259931 -0.710253 0)
(0.187727 -0.732356 0)
(0.120445 -0.74744 0)
(0.0589185 -0.749381 0)
(0.000994601 -0.741473 0)
(-0.0346795 -0.66104 0)
(-0.0198859 -0.50205 0)
(-0.00960901 -1.79509 0)
(0.121645 -1.63113 0)
(0.310907 -1.26397 0)
(0.330934 -0.880197 0)
(0.293408 -0.669373 0)
(0.25037 -0.553184 0)
(0.178972 -0.432576 0)
(0.114221 -0.404898 0)
(0.0718803 -0.39765 0)
(0.00827377 -0.41009 0)
(-0.0762744 -0.419278 0)
(-0.232353 -0.51106 0)
(-0.34445 -1.18892 0)
(-0.200713 -1.57762 0)
(-0.0769532 -1.45574 0)
(0.0437061 -1.55598 0)
(0.106267 -1.69288 0)
(0.152163 -1.60917 0)
(0.468903 -1.44588 0)
(0.625832 -0.800879 0)
(0.574994 -0.566404 0)
(0.453673 -0.575017 0)
(0.355909 -0.611547 0)
(0.265418 -0.63222 0)
(0.189466 -0.65067 0)
(0.122853 -0.662712 0)
(0.0634921 -0.666617 0)
(0.00980342 -0.661434 0)
(-0.0229297 -0.616431 0)
(-0.0144601 -0.506863 0)
(-0.0232166 -1.50517 0)
(-0.0166224 -1.46766 0)
(0.0992311 -1.45394 0)
(0.292024 -1.35855 0)
(0.439109 -1.21199 0)
(0.364353 -0.752125 0)
(0.205691 -0.435225 0)
(0.0964214 -0.33307 0)
(0.0559417 -0.359571 0)
(0.0259263 -0.380831 0)
(-0.00717202 -0.350074 0)
(-0.115119 -0.375812 0)
(-0.265382 -1.20344 0)
(-0.115988 -1.54954 0)
(-0.00652263 -1.50146 0)
(0.0583398 -1.52932 0)
(0.0949687 -1.58824 0)
(0.152085 -1.59781 0)
(0.328343 -1.49859 0)
(0.554075 -0.916036 0)
(0.551424 -0.489728 0)
(0.447656 -0.487183 0)
(0.343694 -0.534461 0)
(0.257961 -0.564939 0)
(0.185341 -0.586331 0)
(0.123687 -0.598303 0)
(0.069937 -0.603662 0)
(0.0237493 -0.601579 0)
(-0.00587092 -0.581808 0)
(-0.00700515 -0.508164 0)
(-0.000431006 -1.39399 0)
(-0.00276403 -1.3831 0)
(0.0152435 -1.33748 0)
(0.0672686 -1.26436 0)
(0.129256 -1.2192 0)
(0.253539 -1.13785 0)
(0.240808 -0.752839 0)
(0.0761656 -0.408072 0)
(-0.0105171 -0.35396 0)
(0.0457985 -0.391418 0)
(0.0842963 -0.323919 0)
(0.0295677 -0.271369 0)
(-0.119031 -1.11606 0)
(-0.106482 -1.50335 0)
(0.00758304 -1.53661 0)
(0.0508001 -1.51135 0)
(0.0671761 -1.57184 0)
(0.123415 -1.5745 0)
(0.23254 -1.55206 0)
(0.415012 -1.00927 0)
(0.429013 -0.41588 0)
(0.379154 -0.40743 0)
(0.304377 -0.462517 0)
(0.237198 -0.504789 0)
(0.176572 -0.532938 0)
(0.123221 -0.548418 0)
(0.0769517 -0.556578 0)
(0.0387569 -0.55826 0)
(0.0117052 -0.549862 0)
(0.000780404 -0.500064 0)
(-0.0118742 -1.35409 0)
(-0.0369725 -1.3283 0)
(-0.0588352 -1.26938 0)
(-0.0704973 -1.16816 0)
(-0.121302 -1.04762 0)
(-0.190769 -1.01429 0)
(-0.176482 -1.03255 0)
(-0.11011 -0.857567 0)
(-0.103314 -0.590008 0)
(0.0104171 -0.567903 0)
(0.156714 -0.354732 0)
(0.152638 -0.275395 0)
(-0.0271259 -0.982283 0)
(-0.122818 -1.48379 0)
(0.0208152 -1.53669 0)
(0.0613439 -1.51412 0)
(0.0540879 -1.51015 0)
(0.084158 -1.55897 0)
(0.162004 -1.51222 0)
(0.323409 -1.09895 0)
(0.341074 -0.396329 0)
(0.316147 -0.355771 0)
(0.260104 -0.406876 0)
(0.208997 -0.452672 0)
(0.161019 -0.484907 0)
(0.117235 -0.505054 0)
(0.0790168 -0.517556 0)
(0.0475933 -0.523114 0)
(0.0228446 -0.51721 0)
(0.00597685 -0.48122 0)
(-0.0554398 -1.21248 0)
(-0.130157 -1.22039 0)
(-0.150883 -1.19021 0)
(-0.173585 -1.06191 0)
(-0.248883 -0.898765 0)
(-0.343989 -0.819348 0)
(-0.442278 -0.901172 0)
(-0.459158 -1.03155 0)
(-0.289003 -1.15196 0)
(0.0536661 -1.18025 0)
(0.244877 -0.575801 0)
(0.268562 -0.373082 0)
(0.12922 -0.822654 0)
(-0.0431659 -1.42869 0)
(0.0389215 -1.51551 0)
(0.0848983 -1.49138 0)
(0.0700357 -1.46937 0)
(0.074339 -1.47278 0)
(0.137296 -1.44276 0)
(0.265547 -1.15214 0)
(0.271122 -0.397725 0)
(0.260015 -0.316849 0)
(0.219597 -0.365292 0)
(0.179384 -0.410097 0)
(0.14075 -0.4423 0)
(0.104855 -0.465558 0)
(0.0735772 -0.481738 0)
(0.0475062 -0.490077 0)
(0.0256111 -0.484179 0)
(0.00773731 -0.455879 0)
(-0.092046 -0.996944 0)
(-0.19605 -1.11589 0)
(-0.232789 -1.15228 0)
(-0.273241 -0.972984 0)
(-0.333198 -0.781509 0)
(-0.387426 -0.748773 0)
(-0.426955 -0.826233 0)
(-0.413268 -1.0053 0)
(-0.274227 -1.41743 0)
(0.0213517 -1.48582 0)
(0.348607 -1.19008 0)
(0.409965 -0.589578 0)
(0.322092 -0.736349 0)
(0.139077 -1.27953 0)
(0.0719365 -1.43977 0)
(0.126652 -1.44876 0)
(0.117069 -1.39864 0)
(0.102904 -1.3952 0)
(0.148049 -1.32991 0)
(0.218783 -1.13495 0)
(0.206449 -0.39661 0)
(0.208983 -0.287095 0)
(0.180476 -0.33058 0)
(0.147189 -0.373859 0)
(0.11582 -0.405744 0)
(0.0872452 -0.431393 0)
(0.0626215 -0.449798 0)
(0.0414988 -0.458767 0)
(0.0230385 -0.452459 0)
(0.00721858 -0.429057 0)
(-0.0942876 -0.782792 0)
(-0.219001 -1.02242 0)
(-0.276311 -1.02808 0)
(-0.346576 -0.868463 0)
(-0.402106 -0.742104 0)
(-0.44068 -0.77018 0)
(-0.402003 -0.847931 0)
(-0.269233 -1.08973 0)
(-0.0940361 -1.50797 0)
(0.059547 -1.50576 0)
(0.282221 -1.42912 0)
(0.500632 -1.01448 0)
(0.473257 -0.772003 0)
(0.338955 -1.0832 0)
(0.168259 -1.3312 0)
(0.166861 -1.36064 0)
(0.16668 -1.32486 0)
(0.153073 -1.295 0)
(0.191709 -1.23181 0)
(0.179649 -1.04173 0)
(0.133869 -0.377272 0)
(0.14294 -0.260268 0)
(0.128032 -0.30117 0)
(0.106321 -0.344224 0)
(0.0850533 -0.37701 0)
(0.0656268 -0.404189 0)
(0.0484675 -0.42281 0)
(0.0327441 -0.43047 0)
(0.0185198 -0.42353 0)
(0.00595524 -0.403203 0)
(-0.0702149 -0.586821 0)
(-0.200373 -0.870131 0)
(-0.300899 -0.883226 0)
(-0.393681 -0.795493 0)
(-0.456772 -0.762172 0)
(-0.448131 -0.779401 0)
(-0.363091 -0.927157 0)
(-0.167521 -1.24821 0)
(0.00980931 -1.50499 0)
(0.0923351 -1.54869 0)
(0.251334 -1.53097 0)
(0.503786 -1.43885 0)
(0.542617 -0.977211 0)
(0.492869 -0.956177 0)
(0.306513 -1.13877 0)
(0.206431 -1.25646 0)
(0.215871 -1.23816 0)
(0.219939 -1.1899 0)
(0.232008 -1.09463 0)
(0.140096 -0.877565 0)
(0.0537534 -0.356845 0)
(0.0665018 -0.248641 0)
(0.0685947 -0.289761 0)
(0.0638957 -0.329402 0)
(0.0548741 -0.359894 0)
(0.044814 -0.38546 0)
(0.0346982 -0.401097 0)
(0.0241567 -0.405806 0)
(0.0142012 -0.397725 0)
(0.0047959 -0.378877 0)
(-0.041083 -0.43826 0)
(-0.153359 -0.685027 0)
(-0.287264 -0.729318 0)
(-0.393721 -0.729137 0)
(-0.445272 -0.744384 0)
(-0.423636 -0.810798 0)
(-0.315812 -1.00642 0)
(-0.158107 -1.31127 0)
(-0.0383042 -1.49225 0)
(0.0516706 -1.57482 0)
(0.214021 -1.63842 0)
(0.427672 -1.62414 0)
(0.626791 -1.40786 0)
(0.597664 -0.9482 0)
(0.425813 -0.919853 0)
(0.264975 -1.12616 0)
(0.267645 -1.13998 0)
(0.266318 -1.07615 0)
(0.20516 -0.951957 0)
(0.0331703 -0.686965 0)
(-0.0353481 -0.358367 0)
(-0.00445237 -0.277938 0)
(0.0212049 -0.309437 0)
(0.0324259 -0.334922 0)
(0.0331886 -0.354519 0)
(0.0295334 -0.373319 0)
(0.0239067 -0.383183 0)
(0.0171934 -0.383922 0)
(0.0108218 -0.374222 0)
(0.00396855 -0.355542 0)
(-0.018309 -0.342541 0)
(-0.0922588 -0.502868 0)
(-0.210114 -0.56442 0)
(-0.317584 -0.629529 0)
(-0.366466 -0.708632 0)
(-0.33992 -0.804037 0)
(-0.275931 -0.989152 0)
(-0.223198 -1.27382 0)
(-0.172114 -1.46314 0)
(-0.0700246 -1.61842 0)
(0.115832 -1.72303 0)
(0.338068 -1.8295 0)
(0.576235 -1.72452 0)
(0.622938 -1.05204 0)
(0.477904 -0.745414 0)
(0.315354 -0.949248 0)
(0.27085 -1.05229 0)
(0.22671 -0.976042 0)
(0.06776 -0.775489 0)
(-0.0809112 -0.546092 0)
(-0.113618 -0.384178 0)
(-0.0647779 -0.339768 0)
(-0.0125679 -0.348702 0)
(0.0147753 -0.351236 0)
(0.0211459 -0.353281 0)
(0.0190387 -0.362106 0)
(0.0153463 -0.366101 0)
(0.0113052 -0.363253 0)
(0.00798723 -0.351898 0)
(0.00330122 -0.332809 0)
(-0.00142349 -0.299104 0)
(-0.0315257 -0.373838 0)
(-0.0940053 -0.419067 0)
(-0.160325 -0.503251 0)
(-0.212589 -0.622243 0)
(-0.227462 -0.7375 0)
(-0.234372 -0.907416 0)
(-0.259957 -1.17425 0)
(-0.293149 -1.42253 0)
(-0.247643 -1.64707 0)
(-0.049279 -1.84085 0)
(0.200615 -1.96406 0)
(0.428722 -1.98787 0)
(0.55629 -1.26451 0)
(0.475916 -0.676284 0)
(0.327176 -0.772563 0)
(0.21153 -0.90992 0)
(0.0836863 -0.830926 0)
(-0.0471429 -0.606275 0)
(-0.126381 -0.467892 0)
(-0.133105 -0.40572 0)
(-0.0903718 -0.38768 0)
(-0.0377918 -0.38261 0)
(-0.00382987 -0.364108 0)
(0.00638378 -0.34734 0)
(0.00654442 -0.348209 0)
(0.00570861 -0.348142 0)
(0.00501139 -0.342957 0)
(0.00494203 -0.330314 0)
(0.00251104 -0.311168 0)
(0.00458957 -0.282752 0)
(0.00531446 -0.313508 0)
(-0.00593192 -0.33439 0)
(-0.0286572 -0.39387 0)
(-0.0741164 -0.508084 0)
(-0.130665 -0.645512 0)
(-0.173263 -0.790793 0)
(-0.234323 -1.03557 0)
(-0.317613 -1.29657 0)
(-0.405395 -1.65807 0)
(-0.233965 -1.94352 0)
(0.0272694 -2.15041 0)
(0.224499 -2.15261 0)
(0.462692 -1.59771 0)
(0.420522 -0.637501 0)
(0.26415 -0.608195 0)
(0.125743 -0.730801 0)
(-0.0060878 -0.685 0)
(-0.0816975 -0.511283 0)
(-0.106856 -0.426258 0)
(-0.102819 -0.40399 0)
(-0.0762443 -0.399413 0)
(-0.044105 -0.38726 0)
(-0.0237725 -0.358833 0)
(-0.0141612 -0.336272 0)
(-0.0087046 -0.332901 0)
(-0.00503144 -0.330081 0)
(-0.00165679 -0.323335 0)
(0.00153732 -0.309998 0)
(0.00146075 -0.291949 0)
(0.00760215 -0.283834 0)
(0.0212999 -0.296661 0)
(0.0332763 -0.308251 0)
(0.0358143 -0.338264 0)
(0.00671864 -0.409086 0)
(-0.0543895 -0.53601 0)
(-0.114568 -0.691733 0)
(-0.180389 -0.888997 0)
(-0.271292 -1.10256 0)
(-0.447363 -1.56006 0)
(-0.392441 -2.03078 0)
(-0.125769 -2.23616 0)
(0.0753697 -2.34508 0)
(0.347002 -2.04967 0)
(0.282173 -0.617632 0)
(0.178521 -0.496284 0)
(0.0804169 -0.599283 0)
(-0.0181391 -0.576152 0)
(-0.0633839 -0.467389 0)
(-0.0650452 -0.406429 0)
(-0.05793 -0.390228 0)
(-0.0477755 -0.38896 0)
(-0.0389991 -0.375059 0)
(-0.0341565 -0.346725 0)
(-0.027773 -0.325889 0)
(-0.0197739 -0.318733 0)
(-0.0130186 -0.313113 0)
(-0.00676592 -0.304976 0)
(-0.00155718 -0.291869 0)
(0.000270088 -0.276349 0)
(0.00953823 -0.295266 0)
(0.0281057 -0.300217 0)
(0.0455804 -0.306733 0)
(0.0582574 -0.322421 0)
(0.052122 -0.356917 0)
(0.00620792 -0.435516 0)
(-0.0600508 -0.60399 0)
(-0.12627 -0.73786 0)
(-0.230382 -0.898676 0)
(-0.387427 -1.35219 0)
(-0.464404 -2.11392 0)
(-0.256947 -2.36578 0)
(-0.0374354 -2.39896 0)
(0.113807 -2.29416 0)
(0.132018 -0.764879 0)
(0.140626 -0.442482 0)
(0.0757372 -0.506845 0)
(0.00669038 -0.489672 0)
(-0.0282566 -0.432887 0)
(-0.0304053 -0.390178 0)
(-0.0263936 -0.373561 0)
(-0.0261771 -0.369151 0)
(-0.0307506 -0.356338 0)
(-0.0332662 -0.334138 0)
(-0.0294132 -0.316489 0)
(-0.0223214 -0.305982 0)
(-0.0153588 -0.297571 0)
(-0.00892179 -0.288149 0)
(-0.00370209 -0.276446 0)
(-0.000763941 -0.264553 0)
(0.0106041 -0.31581 0)
(0.0323162 -0.31485 0)
(0.0521506 -0.314647 0)
(0.0667393 -0.320696 0)
(0.0722084 -0.337071 0)
(0.0523867 -0.376697 0)
(-0.00569604 -0.496675 0)
(-0.0925797 -0.605318 0)
(-0.17869 -0.719195 0)
(-0.306948 -1.11147 0)
(-0.465371 -2.12301 0)
(-0.294719 -2.35163 0)
(-0.148723 -2.45947 0)
(-0.135944 -2.33346 0)
(0.0494264 -1.18081 0)
(0.14621 -0.443206 0)
(0.0833423 -0.420759 0)
(0.02785 -0.41238 0)
(-0.0044424 -0.390881 0)
(-0.0141236 -0.367494 0)
(-0.0160126 -0.35594 0)
(-0.0190086 -0.350553 0)
(-0.0241242 -0.339553 0)
(-0.0262843 -0.322223 0)
(-0.023565 -0.306256 0)
(-0.0185058 -0.293694 0)
(-0.0133417 -0.283236 0)
(-0.00891324 -0.273275 0)
(-0.00502323 -0.263935 0)
(-0.00154801 -0.256137 0)
(0.0130089 -0.348793 0)
(0.0385471 -0.342534 0)
(0.0601373 -0.328846 0)
(0.0744087 -0.325167 0)
(0.0812657 -0.331245 0)
(0.0752191 -0.350481 0)
(0.0269251 -0.40951 0)
(-0.0521496 -0.498801 0)
(-0.126946 -0.562834 0)
(-0.234003 -0.88327 0)
(-0.370813 -2.0479 0)
(-0.244189 -2.3131 0)
(-0.192771 -2.33693 0)
(-0.203189 -2.29021 0)
(-0.0312051 -1.71128 0)
(0.111032 -0.550352 0)
(0.0952384 -0.344644 0)
(0.0308404 -0.341317 0)
(-0.000767172 -0.345812 0)
(-0.0132198 -0.340713 0)
(-0.0171707 -0.337066 0)
(-0.0185184 -0.333397 0)
(-0.0195381 -0.324434 0)
(-0.0190065 -0.310398 0)
(-0.0162085 -0.295612 0)
(-0.0126137 -0.282468 0)
(-0.00992407 -0.270989 0)
(-0.00828 -0.261197 0)
(-0.00596891 -0.255333 0)
(-0.00217341 -0.251504 0)
(0.0173031 -0.398295 0)
(0.0547488 -0.390751 0)
(0.0786798 -0.350112 0)
(0.0857859 -0.330906 0)
(0.0890517 -0.328889 0)
(0.0830614 -0.33691 0)
(0.0547611 -0.362057 0)
(-0.00303467 -0.407701 0)
(-0.0763622 -0.436459 0)
(-0.152519 -0.698059 0)
(-0.249287 -1.94656 0)
(-0.180986 -2.13653 0)
(-0.170736 -2.20307 0)
(-0.138907 -2.14135 0)
(-0.0730498 -1.84731 0)
(0.0937594 -0.831675 0)
(0.0985201 -0.307568 0)
(0.0184699 -0.287662 0)
(-0.011076 -0.308154 0)
(-0.0216031 -0.316997 0)
(-0.0227979 -0.320787 0)
(-0.0198185 -0.320067 0)
(-0.0160371 -0.313018 0)
(-0.0123972 -0.301324 0)
(-0.0088509 -0.287594 0)
(-0.0063425 -0.274291 0)
(-0.00609468 -0.262203 0)
(-0.00805499 -0.252673 0)
(-0.0071579 -0.253776 0)
(-0.00247178 -0.253868 0)
(0.0220442 -0.450243 0)
(0.0865936 -0.445119 0)
(0.120871 -0.362627 0)
(0.108134 -0.333055 0)
(0.100988 -0.324601 0)
(0.0928285 -0.325806 0)
(0.074414 -0.334017 0)
(0.035551 -0.350434 0)
(-0.0127855 -0.356379 0)
(-0.048321 -0.556419 0)
(-0.158528 -1.71246 0)
(-0.183554 -1.97728 0)
(-0.149078 -2.03333 0)
(-0.0674673 -2.04689 0)
(0.00393302 -1.82843 0)
(0.116116 -1.0828 0)
(0.0549141 -0.323594 0)
(-0.0178957 -0.25818 0)
(-0.0336025 -0.285062 0)
(-0.0359236 -0.302809 0)
(-0.0306147 -0.31262 0)
(-0.0208301 -0.314675 0)
(-0.0114176 -0.30776 0)
(-0.00465371 -0.296879 0)
(-0.000148556 -0.283721 0)
(0.00115541 -0.270179 0)
(-0.000904824 -0.257347 0)
(-0.0103375 -0.250687 0)
(-0.0130941 -0.264771 0)
(-0.00415892 -0.263962 0)
(0.0260157 -0.616445 0)
(0.0922991 -0.614082 0)
(0.13043 -0.364356 0)
(0.129434 -0.32334 0)
(0.115867 -0.316416 0)
(0.104508 -0.31731 0)
(0.0925667 -0.320922 0)
(0.0763662 -0.325328 0)
(0.0661516 -0.323598 0)