/*--------------------------------*- C++ -*----------------------------------*\
| =========                 |                                                 |
| \\      /  F ield         | OpenFOAM: The Open Source CFD Toolbox           |
|  \\    /   O peration     | Version:  2.3.0                                 |
|   \\  /    A nd           | Web:      www.OpenFOAM.org                      |
|    \\/     M anipulation  |                                                 |
\*---------------------------------------------------------------------------*/
FoamFile
{
    version     2.0;
    format      ascii;
    class       volScalarField;
    location    "0.68";
    object      nut.particles;
}
// * * * * * * * * * * * * * * * * * * * * * * * * * * * * * * * * * * * * * //

dimensions      [0 2 -1 0 0 0 0];

internalField   nonuniform List<scalar> 
6000
(
1.44764e-05
1.23045e-05
9.99815e-06
7.83773e-06
7.09386e-06
6.95718e-06
6.75674e-06
7.42781e-06
6.93089e-06
6.824e-06
8.15036e-06
8.93198e-06
7.9342e-06
7.1971e-06
8.30943e-06
1.29251e-05
1.47922e-05
1.11597e-05
9.68976e-06
8.52899e-06
7.32781e-06
6.53904e-06
7.09449e-06
7.25037e-06
7.05825e-06
6.55973e-06
6.3811e-06
5.61851e-06
6.48617e-06
1.21161e-05
1.85301e-06
2.23676e-06
2.13217e-06
1.91252e-06
1.64617e-06
1.59578e-06
1.59077e-06
1.95181e-06
1.97465e-06
2.01347e-06
2.16819e-06
2.14758e-06
1.87321e-06
1.77525e-06
2.0806e-06
2.43773e-06
3.18565e-06
2.88111e-06
2.44372e-06
2.0844e-06
1.77347e-06
1.75257e-06
2.12213e-06
2.34847e-06
2.2836e-06
1.89971e-06
1.7913e-06
1.89769e-06
2.38931e-06
3.0244e-06
1.5625e-06
7.90441e-07
6.84112e-07
6.42745e-07
8.58898e-07
7.78321e-07
4.27644e-07
2.60584e-07
9.22159e-08
1.17163e-07
2.82439e-07
4.21203e-07
9.37936e-07
1.31281e-06
2.01591e-06
1.79451e-06
2.33446e-06
3.05546e-06
1.29306e-06
6.82736e-07
1.19112e-06
8.12202e-07
7.23525e-07
1.244e-06
2.93069e-06
5.42392e-06
5.27795e-06
5.18997e-06
4.04011e-06
3.47811e-06
5.28001e-06
1.32889e-06
1.01607e-06
1.19208e-06
1.17616e-06
7.77748e-07
6.24719e-07
5.19067e-07
5.7018e-07
6.25715e-07
6.99834e-07
1.70631e-06
2.13393e-06
5.21667e-06
7.39775e-06
5.43356e-06
2.76253e-06
2.98549e-06
8.82714e-07
5.49417e-07
1.40731e-06
1.77957e-06
3.1866e-06
5.39269e-06
7.45234e-06
7.63491e-06
8.01909e-06
8.03856e-06
6.84289e-06
7.19019e-06
1.99064e-05
2.8276e-06
2.21369e-06
4.41671e-06
7.7999e-06
2.84396e-06
3.03754e-06
1.62783e-06
1.47608e-06
4.20304e-06
3.77843e-05
5.21786e-05
1.60707e-05
8.18257e-06
1.44083e-05
9.71106e-06
6.77501e-06
7.71852e-06
8.588e-06
1.01554e-05
1.07597e-05
1.0119e-05
1.03423e-05
1.20304e-05
1.41641e-05
1.51898e-05
1.62767e-05
1.90498e-05
2.01318e-05
1.85789e-05
8.85385e-05
1.95564e-05
5.79492e-06
5.2447e-05
5.60318e-05
5.36797e-05
5.39131e-05
5.46078e-05
5.37227e-05
6.64908e-05
6.27667e-05
7.30625e-05
6.59679e-06
2.11896e-06
9.01219e-06
2.11429e-05
1.87718e-05
1.83796e-05
1.83355e-05
1.73175e-05
1.41886e-05
1.29735e-05
1.32241e-05
1.38086e-05
1.37616e-05
1.3427e-05
9.09134e-06
6.63857e-06
8.5521e-06
1.77655e-05
9.31671e-05
7.69138e-05
7.44557e-05
6.97414e-05
6.45963e-05
6.17239e-05
6.32087e-05
6.36265e-05
6.99493e-05
6.69189e-05
7.41056e-05
6.44052e-06
6.50009e-07
1.22851e-06
2.98837e-06
8.20842e-06
1.40757e-05
1.65252e-05
1.41075e-05
9.50165e-06
7.62866e-06
7.27318e-06
5.9548e-06
4.37219e-06
2.6308e-06
1.17924e-06
3.73791e-07
1.91038e-07
3.36076e-07
1.95991e-06
9.77515e-05
9.56409e-05
9.78989e-05
8.58894e-05
7.10616e-05
6.36947e-05
6.21247e-05
6.75908e-05
7.05188e-05
1.29324e-05
2.32623e-06
6.63134e-08
2.41079e-07
9.75975e-07
1.57743e-06
1.46892e-06
1.40116e-06
1.48073e-06
1.07827e-06
4.82969e-07
4.93185e-07
5.15015e-07
2.08097e-07
9.64138e-08
9.95482e-08
7.47256e-08
4.94301e-08
3.93491e-08
3.49714e-08
4.91179e-07
0.000108618
2.24568e-05
8.11782e-06
1.04332e-05
7.87209e-05
6.58466e-05
5.18351e-05
5.72675e-06
2.22658e-06
1.3829e-07
7.56685e-08
9.60443e-08
8.03644e-08
2.83562e-07
3.94727e-07
1.54431e-07
2.81459e-07
2.90011e-07
2.08884e-07
2.2225e-07
1.54346e-07
7.25745e-08
1.16304e-07
1.07717e-07
1.56458e-07
1.40496e-07
7.60751e-08
4.69679e-08
4.5145e-08
4.09285e-07
4.87231e-06
1.5716e-06
3.4865e-07
3.71569e-07
4.38877e-06
1.4135e-05
3.25198e-06
2.08195e-07
1.08607e-07
9.11517e-08
1.05353e-07
9.91796e-08
9.957e-08
5.46855e-08
5.07635e-08
1.49349e-07
2.05334e-07
1.88978e-07
2.3464e-07
1.83801e-07
9.27181e-08
1.30075e-07
1.24582e-07
1.61114e-07
2.99609e-07
2.40244e-07
1.21664e-07
6.2911e-08
4.4957e-08
3.70802e-07
3.79049e-07
2.46178e-08
2.72605e-08
2.05459e-08
4.67206e-07
5.93364e-06
5.32401e-06
5.12363e-07
1.91801e-07
1.15022e-07
1.53938e-07
1.0864e-07
1.50766e-07
1.28326e-07
1.49917e-07
1.45848e-07
1.3488e-07
1.92851e-07
2.0842e-07
1.08239e-07
1.07832e-07
1.42506e-07
1.32086e-07
3.05659e-07
5.65659e-07
4.51053e-07
2.04374e-07
9.58353e-08
5.79158e-08
3.07566e-07
1.61904e-07
2.58382e-08
3.09852e-08
2.99686e-08
6.17292e-08
3.11327e-06
8.73176e-06
1.67307e-06
3.64078e-07
1.73811e-07
2.94024e-07
1.09486e-07
1.54464e-07
1.68087e-07
1.6222e-07
1.39824e-07
1.54756e-07
2.01385e-07
1.23807e-07
8.78659e-08
1.52904e-07
1.52743e-07
2.6633e-07
5.80394e-07
9.82668e-07
8.62833e-07
4.13768e-07
1.92881e-07
9.94277e-08
2.80257e-07
1.33213e-07
2.86917e-08
3.33882e-08
3.78197e-08
3.63124e-08
1.10442e-06
1.00447e-05
7.17902e-06
8.84577e-07
3.67722e-07
5.1909e-07
1.2297e-07
1.48792e-07
1.38339e-07
1.5992e-07
1.50572e-07
1.71026e-07
1.39164e-07
8.603e-08
1.4462e-07
1.5634e-07
2.38675e-07
4.81189e-07
8.16238e-07
1.27537e-06
1.44917e-06
8.73339e-07
4.25536e-07
2.15425e-07
3.36635e-07
1.11266e-07
3.14192e-08
3.91584e-08
4.66337e-08
4.07225e-08
2.72475e-07
6.05871e-06
8.4708e-05
3.30999e-06
1.1796e-06
5.31214e-07
1.7099e-07
1.39569e-07
1.43304e-07
1.44862e-07
1.36611e-07
1.34748e-07
1.07736e-07
1.20063e-07
1.55506e-07
2.33382e-07
5.0531e-07
8.14638e-07
1.14893e-06
1.50443e-06
1.72473e-06
1.48424e-06
8.99839e-07
4.88405e-07
6.38678e-07
9.63707e-08
3.8723e-08
5.00093e-08
5.54837e-08
6.06688e-08
9.88673e-08
2.3786e-06
8.44734e-05
0.000116611
4.3851e-06
1.05679e-06
2.19282e-07
1.4222e-07
1.44723e-07
1.53487e-07
1.32591e-07
1.29344e-07
1.0242e-07
1.4174e-07
2.18684e-07
4.52504e-07
7.6881e-07
1.01667e-06
2.72101e-05
9.38e-05
0.000125613
6.26293e-05
1.50735e-06
9.4084e-07
1.43836e-06
9.3352e-08
5.1684e-08
6.61822e-08
7.18136e-08
8.96108e-08
8.61753e-08
1.3658e-06
9.51187e-06
0.000343016
1.17876e-05
3.52933e-06
3.93028e-07
1.60151e-07
1.31826e-07
1.41593e-07
1.59344e-07
1.32402e-07
1.26539e-07
1.85601e-07
3.59183e-07
6.37235e-07
1.87845e-05
0.000244986
0.000546063
0.000799403
0.000889684
0.000782523
0.000480721
0.000125692
9.27562e-05
9.93769e-08
7.24593e-08
8.80832e-08
1.05408e-07
1.14579e-07
1.20877e-07
7.41527e-07
8.96484e-06
0.000345134
8.24185e-05
7.14003e-06
1.69013e-06
2.22546e-07
1.54303e-07
1.43959e-07
1.85241e-07
1.59864e-07
1.3355e-07
2.75505e-07
4.94208e-07
4.00934e-05
0.000498953
0.00114179
0.00180048
0.00231421
0.00256747
0.00260133
0.00257243
0.00273794
0.00429999
1.07067e-07
1.02578e-07
1.25791e-07
1.54748e-07
1.58404e-07
1.98013e-07
4.28095e-07
6.46497e-06
0.000223258
1.04714e-05
3.4138e-06
4.58572e-06
9.98198e-07
2.28427e-07
1.59233e-07
2.07827e-07
1.92235e-07
1.8349e-07
3.74118e-07
1.28788e-05
0.000621641
0.00167583
0.00294414
0.00414918
0.00500139
0.00545684
0.00573569
0.00620692
0.00739931
0.0097249
1.1975e-07
1.46917e-07
1.92542e-07
2.30755e-07
2.37731e-07
2.92073e-07
3.58997e-07
3.28067e-06
1.23864e-05
5.61117e-06
3.25519e-06
1.16181e-05
2.3148e-06
3.05525e-07
2.13531e-07
2.19505e-07
2.19229e-07
2.83526e-07
5.18674e-07
0.000516599
0.0019801
0.00406858
0.00644978
0.00839398
0.00939026
0.00964466
0.00973803
0.0101533
0.0110657
0.0114653
1.62596e-07
2.09229e-07
3.13654e-07
3.49593e-07
3.50489e-07
4.09834e-07
4.68053e-07
1.80328e-06
5.1004e-06
9.22864e-05
0.00017494
0.000520093
5.29694e-06
4.77494e-07
2.75025e-07
2.33902e-07
3.19474e-07
5.64694e-07
0.00017664
0.00178081
0.00464965
0.00849274
0.0119376
0.0140002
0.0145385
0.0141912
0.0136858
0.0131104
0.0125795
0.0114876
2.51963e-07
3.31072e-07
5.09834e-07
5.1944e-07
5.18254e-07
5.88537e-07
7.80477e-07
1.75704e-06
4.31342e-06
0.000683896
0.000690843
0.000693413
8.38899e-06
5.64056e-07
3.30666e-07
2.79226e-07
6.98492e-07
1.24391e-06
0.00105588
0.00418935
0.00911657
0.0139526
0.0163759
0.016473
0.0164143
0.0164421
0.016362
0.0149262
0.0121338
0.00829587
4.07146e-07
5.99583e-07
8.1873e-07
8.00942e-07
8.26275e-07
9.89829e-07
1.28391e-06
2.24049e-06
0.00016653
0.000716262
0.000575354
0.00069308
8.47729e-06
6.99061e-07
2.52783e-07
3.46203e-07
1.82709e-06
0.00011773
0.00271888
0.00802229
0.013877
0.0163926
0.0166277
0.0164289
0.016651
0.0164285
0.0164851
0.0161534
0.0109561
0.00402087
7.04863e-07
1.13971e-06
1.29278e-06
1.21348e-06
1.31738e-06
1.59534e-06
1.90885e-06
5.41433e-05
0.000928526
0.000721232
0.000195035
0.000688413
5.44249e-06
6.18097e-07
1.89253e-07
5.38541e-07
2.53841e-06
0.000269528
0.00521726
0.0124402
0.0163456
0.0166018
0.0163794
0.0162999
0.0163733
0.0166587
0.0164179
0.0164611
0.010612
0.00136455
1.39807e-06
1.81962e-06
1.80423e-06
1.73628e-06
1.86615e-06
2.19524e-06
0.000230439
0.00124473
0.00105448
0.00026963
0.000177445
0.000199762
2.43003e-06
5.92691e-07
1.362e-07
7.69168e-07
2.23696e-06
0.000254032
0.00827502
0.0158597
0.0159978
0.0155837
0.00964952
3.21752e-05
0.00875
0.0162719
0.016671
0.0163859
0.0107541
0.000299516
2.16743e-06
2.28199e-06
2.27767e-06
1.46878e-05
0.000214456
0.00112715
0.00281634
0.0030911
0.00157832
0.000393216
0.000340253
4.157e-06
7.69965e-07
5.66662e-07
5.17809e-07
9.77438e-07
1.76427e-06
0.00012509
0.0109718
0.0158116
0.00964825
0.00330885
2.25599e-05
7.17992e-06
2.26586e-05
0.00437071
0.0162516
0.0166232
0.0111498
3.87783e-05
2.91274e-06
2.62803e-06
7.72926e-05
0.000773108
0.00264178
0.00526084
0.00676221
0.00552478
0.00264553
0.00109477
0.000907185
2.38939e-05
7.50977e-07
1.31103e-07
1.21639e-06
9.82304e-07
1.23804e-06
1.30818e-05
0.0115527
0.0118774
0.0028755
0.000296571
9.47374e-06
1.92527e-06
4.41702e-06
2.2224e-05
0.00684062
0.0162859
0.0120859
1.11026e-05
4.57069e-06
3.00275e-06
0.00084489
0.00372386
0.00694886
0.00708728
0.00695768
0.00380283
0.0021296
0.00185169
0.00183542
0.000444697
5.55402e-06
4.9268e-06
2.40541e-06
1.04538e-06
9.48446e-07
8.8972e-06
0.0103252
0.00764682
0.00111036
1.50549e-05
2.78834e-06
4.69182e-07
9.63379e-07
9.01481e-06
0.00135857
0.0164906
0.013536
1.38669e-05
8.41041e-05
0.000200584
0.00271924
0.00695224
0.00717849
0.00697618
0.00523758
3.36158e-05
0.000320521
0.00183268
0.00182257
0.00180553
9.33986e-05
1.92777e-05
3.75999e-06
1.07109e-06
8.41213e-07
1.47391e-05
0.00806637
0.00469819
0.000522101
7.59416e-06
1.61426e-06
1.42192e-07
6.02935e-08
2.15809e-06
6.2562e-05
0.00814774
0.0121654
1.28324e-05
3.33914e-05
1.16448e-05
0.00306517
0.00713305
0.0069819
0.00562367
1.85795e-05
5.71861e-06
1.1912e-05
2.50956e-05
2.95254e-05
2.38998e-05
1.49321e-05
7.7463e-06
2.67303e-06
1.3536e-06
1.1072e-06
1.28166e-05
0.00399898
0.00211082
1.77903e-05
2.45835e-06
5.43938e-07
6.02739e-08
6.74269e-08
5.51487e-07
8.89645e-06
0.00251
0.00825561
1.08312e-05
8.60457e-06
3.96602e-06
0.00178471
0.00695827
0.00670551
2.14736e-05
2.7623e-06
5.93138e-07
1.40849e-06
3.03604e-06
3.78746e-06
2.935e-06
1.83492e-06
1.82815e-06
1.80867e-06
1.66768e-06
1.12298e-06
7.52391e-06
0.00199774
0.000168557
4.21595e-06
9.33988e-07
1.09701e-07
5.7682e-08
8.55177e-08
5.78783e-08
1.73056e-06
2.15081e-05
0.00344372
1.20719e-05
5.34063e-06
6.88449e-07
0.000489782
0.0062805
3.39003e-05
4.02539e-06
4.30314e-08
7.99978e-08
5.91376e-08
2.95679e-08
7.7245e-08
1.09705e-07
2.33258e-07
5.00903e-07
1.02378e-06
8.99507e-07
5.92526e-07
3.64988e-06
0.000818812
9.40717e-06
1.07994e-06
1.74048e-07
6.60564e-08
9.20088e-08
8.42146e-08
7.37935e-08
4.17987e-08
5.66458e-06
0.00093864
1.11869e-05
5.31112e-06
7.01216e-07
5.76861e-06
0.000357876
9.81e-06
8.57894e-08
1.04164e-07
1.05933e-07
6.84346e-08
7.17903e-08
5.66601e-08
6.49466e-08
6.27188e-08
1.37419e-07
3.00492e-07
3.01405e-07
2.34388e-07
2.06321e-06
1.72911e-05
3.0302e-06
3.49569e-07
8.77254e-08
7.84864e-08
1.1463e-07
7.98858e-08
7.52738e-08
6.44041e-08
8.23851e-07
1.13881e-05
0.000176658
6.02538e-06
8.23729e-07
1.79295e-06
9.19886e-06
3.97815e-07
1.06177e-07
1.26924e-07
1.1488e-07
7.38093e-08
6.64675e-08
6.97052e-08
6.64929e-08
6.13725e-08
3.88232e-08
8.00193e-08
7.47511e-08
3.44006e-07
7.15602e-06
8.62175e-06
6.62251e-07
1.57459e-07
7.25852e-08
1.12606e-07
1.19557e-07
8.01447e-08
8.09874e-08
9.15732e-08
5.03658e-07
6.57517e-06
0.000683931
6.40097e-06
8.184e-07
1.97413e-06
1.82279e-06
4.59568e-07
1.17553e-07
1.36734e-07
1.16939e-07
7.45877e-08
6.4103e-08
7.00419e-08
7.0269e-08
6.39244e-08
5.40216e-08
3.96933e-08
6.86733e-08
4.52326e-07
1.09037e-05
6.4362e-06
2.19664e-07
1.61942e-07
1.1893e-07
1.44865e-07
1.01718e-07
7.69973e-08
7.98149e-08
1.59421e-07
4.63965e-07
3.50878e-06
2.22749e-05
6.56297e-06
9.22703e-07
2.21675e-06
1.9112e-06
5.91748e-07
1.50342e-07
1.31204e-07
1.11752e-07
8.99581e-08
6.74463e-08
7.31351e-08
7.5154e-08
7.18453e-08
6.22583e-08
5.7084e-08
7.88051e-08
5.3929e-07
1.16571e-05
5.17309e-06
1.78186e-07
1.74568e-07
1.27506e-07
1.26006e-07
7.48493e-08
8.2708e-08
1.18678e-07
2.66022e-07
6.38807e-07
8.55193e-07
8.31376e-06
6.61801e-06
1.07079e-06
2.26599e-06
2.03404e-06
7.87925e-07
2.22929e-07
1.19226e-07
1.16286e-07
1.05091e-07
7.40812e-08
7.16631e-08
8.60677e-08
7.74945e-08
7.24353e-08
7.44035e-08
1.18446e-07
5.90439e-07
1.2312e-05
6.53698e-06
1.94783e-07
1.54577e-07
1.26224e-07
9.00791e-08
8.37968e-08
1.10343e-07
2.31339e-07
4.33255e-07
8.71874e-07
7.48703e-07
5.34054e-06
6.5206e-06
1.19257e-06
2.31371e-06
2.13583e-06
1.02628e-06
3.30884e-07
1.4155e-07
1.29325e-07
1.22372e-07
7.57123e-08
8.53672e-08
9.0902e-08
8.19389e-08
7.32212e-08
8.02426e-08
1.14666e-07
6.02643e-07
1.25991e-05
9.45534e-06
1.96104e-07
1.66349e-07
1.37197e-07
9.06699e-08
1.09542e-07
2.10124e-07
4.052e-07
6.44382e-07
1.09408e-06
6.78801e-07
5.01231e-06
6.24172e-06
1.21777e-06
2.21248e-06
2.13531e-06
1.29184e-06
4.35971e-07
2.06801e-07
1.38063e-07
1.28067e-07
8.75146e-08
9.00929e-08
1.00353e-07
8.32358e-08
8.1472e-08
8.39371e-08
1.25169e-07
3.90494e-07
8.95961e-06
1.17092e-05
2.92953e-07
1.90713e-07
1.40839e-07
1.04299e-07
1.99726e-07
3.98482e-07
5.64172e-07
9.04614e-07
1.21425e-06
6.99589e-07
4.78671e-06
5.75939e-06
1.20288e-06
2.05278e-06
2.12361e-06
1.51814e-06
5.75128e-07
2.7876e-07
1.67117e-07
1.38228e-07
8.65688e-08
9.44942e-08
1.09169e-07
8.94709e-08
9.15183e-08
9.58973e-08
1.06724e-07
2.85257e-07
5.20226e-06
1.41457e-05
5.56273e-07
1.79993e-07
1.67424e-07
2.00834e-07
3.98288e-07
5.49593e-07
7.57226e-07
9.88804e-07
1.2936e-06
1.04724e-06
5.13008e-06
9.52296e-06
1.55497e-06
1.89239e-06
1.98042e-06
1.6438e-06
7.75075e-07
3.60766e-07
2.36883e-07
1.33709e-07
1.02196e-07
9.52754e-08
1.16406e-07
9.96053e-08
9.08136e-08
9.9846e-08
9.89118e-08
1.92212e-07
2.53699e-06
1.49801e-05
1.09693e-06
1.76173e-07
2.30386e-07
4.65897e-07
6.48584e-07
6.59685e-07
8.08542e-07
1.05544e-06
1.62198e-06
2.00193e-06
0.000385605
0.00105679
2.65042e-06
2.00125e-06
1.7723e-06
1.59902e-06
1.00659e-06
5.75174e-07
3.57139e-07
1.64946e-07
1.16163e-07
8.92964e-08
1.17171e-07
1.13434e-07
7.70927e-08
1.11028e-07
1.17223e-07
1.64541e-07
1.14528e-06
1.23585e-05
1.75444e-06
2.58881e-07
4.65002e-07
9.35694e-07
7.51096e-07
1.57945e-05
1.0264e-05
3.56732e-06
2.31897e-05
0.000572871
0.00471671
0.0073316
0.00128422
1.22603e-05
2.00227e-06
1.42615e-06
1.12806e-06
1.18412e-06
6.16251e-07
2.39783e-07
1.50304e-07
1.1446e-07
1.1682e-07
1.09228e-07
9.46627e-08
1.11289e-07
1.69773e-07
1.55578e-07
5.48604e-07
7.93942e-06
1.99188e-06
3.73201e-07
1.53176e-06
1.24706e-06
3.52492e-05
9.17793e-05
0.000118717
0.000272361
0.00142027
0.00555966
0.0112959
0.0115456
0.00762845
0.00195085
0.000182991
2.83015e-05
1.98528e-05
3.90539e-05
1.92607e-06
3.46477e-07
2.2556e-07
1.81751e-07
1.42758e-07
1.17548e-07
1.19403e-07
1.36947e-07
1.74793e-07
1.71229e-07
3.06446e-07
4.41124e-06
1.61346e-06
5.16125e-07
3.48883e-06
5.77721e-05
0.000126808
0.000306917
0.00066355
0.00207233
0.00634805
0.0113024
0.0113494
0.0115921
0.0115372
0.00702891
0.00208422
0.000484438
0.000281522
0.000300844
1.23318e-05
8.32444e-07
3.7755e-07
3.4054e-07
2.63896e-07
1.83042e-07
1.69484e-07
1.79342e-07
2.07137e-07
1.69703e-07
2.90515e-07
2.73102e-06
1.11064e-06
7.81471e-07
4.50998e-06
0.000135112
0.000323898
0.000899253
0.00234363
0.00601143
0.0112418
0.0113374
0.00813492
0.0115879
0.0115828
0.0104788
0.0052193
0.00173123
0.000724973
0.000396082
4.03087e-06
2.13736e-06
8.80374e-07
7.69725e-07
6.16166e-07
4.48237e-07
3.31795e-07
2.39452e-07
2.03519e-07
1.80425e-07
2.92578e-07
1.98987e-06
9.25261e-07
1.27307e-06
4.04148e-06
0.000240755
0.000758114
0.00219682
0.00522539
0.00971943
0.0113097
0.0109291
0.00315206
0.0113036
0.0115832
0.0115539
0.00796168
0.00330913
0.00107137
0.000180303
1.86966e-06
2.26732e-06
1.4116e-06
1.27716e-06
1.20618e-06
9.04083e-07
6.06734e-07
3.99825e-07
1.74218e-07
1.64305e-07
3.83633e-07
1.67421e-06
9.95735e-07
1.99643e-06
3.51821e-06
0.000456767
0.00161922
0.00411509
0.00781449
0.0107237
0.0111306
0.00136812
0.0015303
0.00409899
0.0115259
0.0115716
0.0101551
0.00501089
0.00138813
7.7002e-05
1.08695e-06
1.61114e-06
1.61086e-06
1.59494e-06
1.61002e-06
1.30467e-06
9.75201e-07
6.94018e-07
1.74865e-07
1.69137e-07
5.27178e-07
1.44923e-06
1.25889e-06
2.77847e-06
2.94647e-06
0.00068225
0.00250982
0.00554293
0.00770162
0.00566531
0.00224248
6.75134e-06
0.00044771
0.00117744
0.00648675
0.0114917
0.0115055
0.00695247
0.00199045
8.33188e-05
9.41961e-07
1.62394e-06
4.10278e-06
4.5149e-05
3.14886e-05
1.71577e-06
1.25408e-06
8.85895e-07
1.54722e-07
1.76284e-07
6.77244e-07
1.10309e-06
1.4443e-06
3.36064e-06
2.80184e-06
0.000234813
0.00250681
0.00552605
0.00502863
0.000418286
7.73916e-06
2.21946e-07
8.64894e-06
1.51485e-05
2.56352e-05
0.00615643
0.0114106
0.00875377
0.00299581
0.000208349
1.04323e-06
3.05991e-05
0.000217936
0.000269885
8.77442e-05
1.58953e-06
1.55801e-06
8.26144e-07
1.06734e-07
2.39979e-07
6.56492e-07
7.2413e-07
1.31721e-06
3.83203e-06
3.61975e-06
2.30324e-06
0.0007412
0.0033558
0.0013478
6.04679e-06
3.92238e-07
7.3925e-07
4.67423e-06
5.02989e-06
3.77903e-06
7.3366e-05
0.00624674
0.00807427
0.003884
0.000576838
8.72001e-05
8.28714e-05
0.00026466
0.000265378
2.19219e-06
2.5186e-06
1.62992e-06
3.61347e-07
9.83364e-08
2.82594e-07
4.5879e-07
4.24286e-07
8.48903e-07
5.18108e-06
4.16506e-06
2.00097e-06
3.00214e-06
0.000508537
9.81738e-06
2.08659e-07
7.16548e-07
1.58426e-06
0.00135368
1.5985e-06
5.55605e-07
4.88336e-06
0.00190712
0.00492792
0.00352812
0.000813182
0.000129177
8.6519e-05
0.000129517
7.11751e-05
3.4686e-06
1.46936e-06
4.47563e-07
1.37317e-07
1.03441e-07
2.15631e-07
2.06427e-07
2.85286e-07
1.01168e-06
9.40317e-06
3.27024e-06
2.10154e-06
1.14161e-06
4.38543e-06
6.35347e-07
8.16515e-07
1.74445e-06
0.00121815
0.0204059
2.89354e-06
1.36489e-06
6.52572e-06
0.00188018
0.0033611
0.00263379
0.000639601
9.30123e-05
9.05552e-05
0.000204142
0.000857223
3.0847e-06
5.21726e-07
1.69971e-07
1.28835e-07
1.14817e-07
1.0217e-07
8.59923e-08
2.61705e-07
2.41863e-06
1.72199e-05
4.07595e-06
2.83298e-06
1.43916e-06
7.82439e-07
5.88086e-07
1.66783e-06
0.0017283
0.0188035
0.0234265
1.68459e-05
4.51051e-05
0.00104795
0.00283379
0.00339638
0.00237672
0.000630549
0.000100587
0.000124481
0.0011581
0.00115782
2.76852e-06
3.17652e-07
1.60153e-07
1.3778e-07
1.08509e-07
6.91411e-08
7.27743e-08
2.9172e-07
6.40314e-06
0.000394098
1.55895e-05
3.3747e-05
2.08963e-05
1.42521e-06
1.17803e-06
0.00102965
0.0143779
0.0234455
0.0234288
0.00110222
0.0022194
0.00472
0.00479708
0.00431454
0.00312989
0.00154289
0.000724474
0.00093396
0.0016551
5.86262e-05
2.24126e-06
1.75578e-07
1.68723e-07
1.17519e-07
8.41632e-08
9.0489e-08
1.40122e-07
4.03848e-07
1.6108e-05
0.00312966
0.0010667
0.000825407
0.000633932
0.00029659
0.000386221
0.0066819
0.0233583
0.0236732
0.0116433
0.00188112
0.00192361
0.00334773
0.00477304
0.00479414
0.00474041
0.00504302
0.00468395
0.00479192
0.00163613
1.24905e-05
1.95717e-06
2.23768e-07
1.83376e-07
1.25372e-07
1.30934e-07
1.62611e-07
2.29375e-07
8.74813e-07
0.000611561
0.0103504
0.00883461
0.00708089
0.00493538
0.00258785
0.00325526
0.0129084
0.0236827
0.0236856
0.00200904
0.000200513
1.1477e-05
1.38491e-05
2.78438e-05
0.00203753
0.00636529
0.0135896
0.0165839
0.0166168
0.0024462
7.97266e-06
9.73158e-07
2.67092e-07
2.06348e-07
1.88221e-07
2.13356e-07
2.5094e-07
3.40229e-07
2.70653e-06
0.000261184
0.0178498
0.0236296
0.0237976
0.0198855
0.0118593
0.0108393
0.0185873
0.0239223
0.0231886
1.23982e-05
7.98211e-06
7.9711e-07
1.7253e-06
6.32439e-06
2.40309e-05
0.0088767
0.0183556
0.0192525
0.017586
0.00143611
8.08033e-06
7.51671e-07
5.71197e-07
3.88059e-07
3.75649e-07
4.66517e-07
8.735e-07
1.30964e-06
6.26789e-06
0.000710655
0.00791472
0.0237999
0.0238899
0.0245499
0.0237386
0.0219287
0.023602
0.0239593
0.00954882
7.1549e-06
2.9137e-06
2.38331e-07
1.84166e-07
1.2223e-06
1.23162e-05
0.00766503
0.019161
0.0173502
4.26885e-05
3.15393e-05
2.63367e-05
1.45797e-05
8.36751e-06
6.29232e-06
5.97861e-06
9.61002e-06
1.78601e-05
2.68342e-05
0.00030046
0.000312406
2.41481e-05
0.00016051
0.0245996
0.0239128
0.024782
0.0238523
0.0239722
0.0235811
0.00616283
8.9431e-06
3.31935e-06
2.89511e-07
2.29726e-07
1.84113e-07
4.431e-06
3.73171e-05
0.0165554
2.92802e-05
3.67766e-06
1.1663e-05
3.2288e-05
3.48613e-05
3.36845e-05
3.65441e-05
4.10939e-05
4.61956e-05
5.02368e-05
5.07579e-05
4.04977e-05
1.80821e-05
4.36892e-06
3.64066e-06
0.00111022
0.0256897
0.0239028
0.0249301
0.0236709
0.0121265
0.00476843
1.17156e-05
4.45699e-06
3.3363e-07
3.15439e-07
2.82226e-07
6.03002e-07
1.14171e-05
2.80423e-05
6.07706e-06
5.26388e-07
1.14639e-06
4.13219e-06
7.06066e-06
9.85843e-06
1.27106e-05
1.50372e-05
1.52779e-05
1.14376e-05
7.57744e-06
4.18748e-06
1.93225e-06
7.56414e-07
1.11719e-06
1.01384e-05
0.0200637
0.0261998
0.023814
0.0149412
0.00180491
0.00218905
3.67568e-05
5.08058e-06
5.22263e-07
7.20228e-07
6.00948e-07
9.9532e-07
1.62082e-06
1.06287e-05
1.35702e-06
2.33322e-07
4.1054e-08
4.34544e-07
7.03002e-07
9.75796e-07
1.20948e-06
1.36691e-06
1.29233e-06
8.41093e-07
5.39924e-07
3.722e-07
2.82453e-07
3.99672e-07
8.29551e-07
3.04779e-06
0.00314322
0.0236611
0.0254167
0.000184565
1.1416e-05
2.16721e-05
0.000215675
6.32639e-06
8.85527e-07
1.8478e-06
1.47096e-06
1.38004e-06
1.46508e-06
2.47798e-06
1.43496e-06
2.33999e-07
2.71939e-08
5.48932e-08
4.98892e-08
7.76119e-08
1.52937e-07
1.95304e-07
1.27438e-07
2.42123e-08
8.53434e-09
3.06319e-08
7.13371e-08
2.33456e-07
2.32506e-07
1.37971e-06
2.59009e-05
0.0252433
0.00499046
6.78038e-06
2.42572e-06
3.55172e-06
1.64713e-05
9.28532e-06
1.89942e-06
3.47685e-06
1.94542e-06
1.28881e-06
8.08455e-07
3.18804e-06
1.37289e-06
2.95695e-07
6.91978e-08
8.6488e-08
5.7504e-08
5.60729e-08
1.07805e-07
9.78638e-08
3.97473e-08
1.34104e-08
1.43404e-08
2.5109e-08
3.78595e-08
9.47031e-08
1.46145e-07
6.07828e-07
6.57305e-06
0.00658002
1.76778e-05
1.44262e-06
1.0724e-07
3.05996e-07
6.14236e-06
1.23895e-05
1.46615e-06
3.51019e-06
9.00646e-07
8.12716e-07
4.27059e-07
2.47171e-06
1.0208e-06
3.31701e-07
1.27799e-07
1.24205e-07
1.09151e-07
1.02028e-07
1.04474e-07
5.56991e-08
1.64827e-08
1.24465e-08
1.65788e-08
2.65729e-08
3.17278e-08
6.24204e-08
1.42248e-07
4.42224e-07
1.43716e-06
2.26946e-05
4.21834e-06
1.72832e-07
1.55727e-07
1.73389e-07
4.44543e-06
1.08465e-05
7.1665e-07
9.28538e-07
4.72707e-07
5.95291e-07
2.48781e-07
1.88097e-06
7.30989e-07
3.09569e-07
1.23047e-07
1.10223e-07
1.09527e-07
9.87682e-08
6.3616e-08
2.98852e-08
6.97029e-09
1.41796e-08
1.75657e-08
2.78295e-08
3.35743e-08
5.19114e-08
1.10617e-07
3.65159e-07
1.43656e-06
5.72698e-06
2.57442e-07
2.11314e-07
1.00105e-07
2.04579e-07
4.23073e-06
5.66683e-06
4.74495e-07
4.66881e-07
4.2906e-07
4.76953e-07
2.60563e-07
1.65099e-06
5.17919e-07
2.45642e-07
9.32901e-08
6.423e-08
7.42637e-08
5.83744e-08
3.74275e-08
6.47671e-09
1.5637e-08
1.31407e-08
1.79068e-08
2.85585e-08
3.63217e-08
4.22357e-08
8.25868e-08
2.85307e-07
1.42132e-06
3.53265e-06
2.89809e-07
2.26676e-07
1.39672e-07
1.7735e-07
4.04359e-06
3.50254e-06
5.64264e-07
5.39391e-07
5.87584e-07
6.18169e-07
4.57784e-07
1.90859e-06
3.71543e-07
1.67837e-07
6.20085e-08
3.41537e-08
3.9028e-08
3.29307e-08
1.46865e-08
7.92609e-09
1.84069e-08
1.33727e-08
1.73665e-08
2.8308e-08
3.49734e-08
3.99255e-08
7.68583e-08
2.01733e-07
1.23767e-06
4.10662e-06
3.81545e-07
2.25954e-07
1.08581e-07
1.94506e-07
3.75706e-06
4.30041e-06
6.51972e-07
4.55707e-07
5.62301e-07
7.56509e-07
9.6096e-07
2.71306e-06
3.33243e-07
8.02011e-08
3.71788e-08
1.44171e-08
1.94059e-08
1.44771e-08
6.12891e-09
1.21932e-08
1.7301e-08
1.42504e-08
1.78856e-08
2.49039e-08
3.35969e-08
4.13786e-08
7.25787e-08
1.41086e-07
1.05601e-06
3.96203e-06
4.29511e-07
2.36475e-07
1.31476e-07
1.9906e-07
3.36727e-06
6.84303e-05
1.20553e-06
5.4418e-07
4.52453e-07
7.51729e-07
1.6404e-06
3.59635e-06
3.49864e-07
3.61587e-08
2.16832e-08
1.06877e-08
9.05639e-09
8.65548e-09
9.1398e-09
1.42707e-08
1.75435e-08
1.45387e-08
2.25273e-08
1.9897e-08
3.13159e-08
4.56537e-08
6.43201e-08
1.12762e-07
8.61405e-07
4.01782e-06
4.49391e-07
2.50056e-07
1.29284e-07
2.17365e-07
3.14519e-06
0.00714171
3.79645e-06
1.42312e-06
6.40077e-07
7.3714e-07
2.11177e-06
4.28732e-06
3.49107e-07
2.60829e-08
2.31487e-08
1.19586e-08
1.08067e-08
8.82098e-09
9.99971e-09
1.68289e-08
1.57366e-08
2.63426e-08
4.14069e-08
1.66359e-08
2.9514e-08
5.34555e-08
6.61155e-08
8.1335e-08
7.16605e-07
3.83707e-06
4.44369e-07
2.48605e-07
1.61315e-07
2.34484e-07
3.00379e-06
0.0194579
0.00569143
3.05995e-06
1.3401e-06
8.2405e-07
2.52148e-06
4.75281e-06
3.37087e-07
2.27993e-08
1.97552e-08
1.26896e-08
1.15677e-08
9.55407e-09
1.38893e-08
1.94662e-08
1.5274e-08
8.97083e-08
9.14771e-08
1.81237e-08
2.3702e-08
6.46417e-08
7.81545e-08
6.25869e-08
6.5262e-07
3.94992e-06
4.74984e-07
2.59255e-07
1.71745e-07
2.66733e-07
2.83103e-06
0.0197446
0.0194467
0.00354687
2.46106e-06
1.25124e-06
3.31624e-06
4.7954e-06
3.02536e-07
1.83042e-08
2.3013e-08
1.84843e-08
1.71388e-08
1.45602e-08
2.20905e-08
1.6429e-08
3.98974e-08
1.80794e-07
1.28964e-07
2.94431e-08
2.23558e-08
7.41484e-08
1.02565e-07
5.73859e-08
6.56454e-07
3.84613e-06
4.84822e-07
2.86634e-07
2.10407e-07
3.04411e-07
2.86399e-06
0.019626
0.0202469
0.0151323
0.000511464
2.15339e-06
4.52435e-06
4.7115e-06
2.75847e-07
1.89815e-08
2.89449e-08
2.40338e-08
2.19961e-08
1.88036e-08
1.80464e-08
1.60735e-08
1.25573e-07
2.09482e-07
7.74573e-08
4.09564e-08
2.64732e-08
7.70411e-08
1.1552e-07
6.8697e-08
7.12746e-07
3.42878e-06
5.10863e-07
2.93482e-07
2.50788e-07
3.65596e-07
3.30969e-06
0.00459287
0.0197822
0.020206
0.00380893
3.86015e-06
4.45091e-06
3.9543e-06
3.46309e-07
2.19519e-08
2.66945e-08
1.7764e-08
1.86633e-08
1.52063e-08
1.28093e-08
3.985e-08
2.20037e-07
1.58671e-07
4.08277e-08
3.54632e-08
3.39496e-08
6.59969e-08
1.13805e-07
9.38285e-08
7.68309e-07
2.44435e-06
5.63251e-07
3.43539e-07
3.86306e-07
5.31247e-07
5.9158e-06
0.00315431
0.0207143
0.0199542
0.0102082
0.000111412
4.33159e-06
2.69507e-06
3.13011e-07
1.89754e-08
1.54571e-08
1.17532e-08
9.64593e-09
1.08743e-08
1.91527e-08
1.15426e-07
2.06933e-07
1.12828e-07
6.97037e-08
4.71084e-08
3.85723e-08
6.39049e-08
9.61824e-08
1.17262e-07
7.65933e-07
1.93211e-06
6.92226e-07
5.40154e-07
8.3807e-07
1.92635e-06
0.00104837
0.00224007
0.0198464
0.0209534
0.0155702
0.000883981
1.26362e-05
2.17921e-06
3.19865e-07
1.52413e-08
1.27047e-08
1.82475e-08
1.01616e-08
1.03936e-08
5.54643e-08
1.94564e-07
1.32994e-07
7.95843e-08
9.04056e-08
9.82261e-08
6.64164e-08
6.38316e-08
7.98456e-08
1.34424e-07
7.86686e-07
1.75242e-06
8.90796e-07
1.00321e-06
2.07216e-06
0.000698764
0.017709
0.00202149
0.0207294
0.0200678
0.0183963
0.00155531
8.50906e-05
1.96342e-06
3.91049e-07
1.17331e-08
2.79357e-08
4.84249e-08
2.01426e-08
3.1587e-08
1.4672e-07
1.71979e-07
7.39964e-08
4.95746e-08
6.81215e-08
1.0181e-07
1.17808e-07
5.63631e-08
4.9569e-08
1.44351e-07
7.96799e-07
2.1506e-06
1.26523e-06
2.01339e-06
0.000510284
0.0152685
0.0180814
0.00197282
0.0198747
0.0210353
0.0198638
0.00225021
0.0001583
1.41081e-06
3.8734e-07
1.31223e-08
6.19922e-08
1.23108e-07
9.19776e-08
1.02143e-07
1.63439e-07
8.34688e-08
3.79538e-08
2.83475e-08
3.34459e-08
5.74547e-08
1.17611e-07
6.7855e-08
3.35094e-08
1.46971e-07
8.21173e-07
2.80891e-06
2.03521e-06
8.09143e-05
0.0100016
0.0180204
0.0181667
0.00161722
0.0204651
0.0201111
0.0206052
0.00275853
3.24902e-05
8.87257e-07
2.24286e-07
1.9814e-08
4.45127e-08
1.29217e-07
1.4442e-07
1.33564e-07
8.82105e-08
3.69409e-08
1.33198e-08
2.20487e-08
2.13069e-08
2.75361e-08
6.49296e-08
1.12461e-07
2.6224e-08
1.5904e-07
8.58634e-07
3.15821e-06
3.31192e-06
0.00244495
0.0177438
0.018297
0.00906656
1.79034e-05
0.00867473
0.0209172
0.0198861
0.00236134
8.08058e-06
7.70936e-07
1.33074e-07
2.50374e-08
4.01914e-08
5.98934e-08
9.148e-08
8.321e-08
4.09825e-08
6.78711e-09
1.64583e-08
1.65768e-08
1.2715e-08
1.68953e-08
2.46198e-08
9.71486e-08
2.29017e-08
1.86616e-07
8.97361e-07
3.37043e-06
5.19802e-05
0.00629545
0.018327
0.0178095
0.00205425
7.67431e-06
0.000169131
0.0195988
0.0208339
0.00199784
5.54738e-06
6.68145e-07
7.75951e-08
4.61033e-08
4.21094e-08
3.08989e-08
3.08059e-08
3.85291e-08
1.17858e-08
1.00581e-08
1.6642e-08
1.36674e-08
1.2397e-08
1.30857e-08
9.32858e-09
6.69529e-08
1.87478e-08
1.77023e-07
7.3881e-07
3.9023e-06
0.000227098
0.00908367
0.0177318
0.0184412
0.00070552
5.39893e-06
7.0347e-06
0.00677538
0.0194582
0.00212002
3.57445e-06
4.00976e-07
4.88181e-08
5.16703e-08
3.83596e-08
2.33627e-08
9.13821e-09
1.00129e-08
6.27715e-09
1.50297e-08
1.59868e-08
1.45829e-08
1.48585e-08
1.39134e-08
1.0902e-08
5.18777e-08
5.09842e-08
1.40076e-07
5.77817e-07
4.20548e-06
0.000419154
0.0114341
0.0184978
0.0175508
0.000611543
6.15065e-06
3.42891e-06
0.00330402
0.0122604
0.00111681
1.56076e-06
6.95195e-08
2.8237e-08
2.49437e-08
2.56428e-08
2.01417e-08
4.88415e-09
3.11292e-09
1.16342e-08
1.67521e-08
1.55404e-08
1.67251e-08
1.64716e-08
1.69315e-08
1.72538e-08
2.95307e-08
1.20142e-07
7.23451e-08
5.03436e-07
5.41319e-06
0.000812945
0.014009
0.017619
0.0122434
0.000621341
6.21256e-06
1.46016e-06
0.00157985
0.00694722
1.47791e-05
3.32013e-07
4.46638e-08
2.47816e-08
1.25349e-08
1.91197e-08
2.10162e-08
1.18884e-08
9.53913e-09