/*--------------------------------*- C++ -*----------------------------------*\
| =========                 |                                                 |
| \\      /  F ield         | OpenFOAM: The Open Source CFD Toolbox           |
|  \\    /   O peration     | Version:  2.3.0                                 |
|   \\  /    A nd           | Web:      www.OpenFOAM.org                      |
|    \\/     M anipulation  |                                                 |
\*---------------------------------------------------------------------------*/
FoamFile
{
    version     2.0;
    format      ascii;
    class       volScalarField;
    location    "2.09995";
    object      Ct2;
}
// * * * * * * * * * * * * * * * * * * * * * * * * * * * * * * * * * * * * * //

dimensions      [0 0 0 0 0 0 0];

internalField   nonuniform List<scalar> 
1000
(
1
1
1
1
1
1
1
1
1
1
1
1
1
1
1
1
1
1
1
1
6.08033
7.08618
7.48422
7.1368
4.83771
1.71967
1.19537
1
1.00004
1
1
1.00184
1.42131
2.38069
5.81504
7.06709
7.06826
5.71975
3.80419
1.79987
8.95912
8.95906
8.68752
7.5899
6.13007
4.78521
1.55215
1.11559
1.35056
1.34065
1.31663
1.69914
6.21297
8.72123
8.91883
8.93615
8.95782
8.95867
8.95389
8.93558
8.95945
8.95933
8.18271
4.85344
3.93296
3.97492
2.41089
1.24157
1.32733
1.49605
1.58919
5.13801
8.164
8.25422
8.03302
8.39065
8.95529
8.95945
8.95945
8.95945
8.95946
8.95933
7.57974
2.45413
2.40017
3.0612
2.37634
1.2396
1.27894
1.47241
1.62357
6.44096
7.34972
5.80575
4.8837
5.46158
8.93482
8.95946
8.95946
8.95946
8.95948
8.9594
6.93319
1.39928
1.53648
2.43597
2.18527
1.2431
1.26575
1.4145
1.47276
5.85958
5.89425
3.10312
2.2019
2.5238
8.85902
8.95947
8.95947
8.95947
8.95949
8.95946
6.23953
1.11428
1.29566
2.03162
1.78148
1.23174
1.21199
1.35151
1.3766
4.74845
5.29753
2.19185
1.30059
1.52838
8.70861
8.95949
8.95949
8.95949
8.9595
8.95949
5.64492
1.08588
1.27984
1.68597
1.44601
1.17817
1.05089
1.25922
1.32298
2.83117
4.83238
2.01603
1.11957
1.25878
8.53019
8.9595
8.9595
8.9595
8.95951
8.95951
5.38644
1.11691
1.26396
1.4485
1.30306
1.06761
1.00006
1.03383
1.25061
1.81895
4.03423
2.19467
1.21865
1.1649
8.39754
8.95951
8.95951
8.95951
8.95952
8.95952
7.34544
1.11888
1.21804
1.26152
1.1818
1.0004
1
1
1.002
1.28155
1.93272
1.8928
1.26187
1.11684
8.3458
8.95952
8.95952
8.95952
1.03904
1.09137
1.12517
1.11217
1.02006
1.00001
1
1
1
1
1
1
1
1.00094
1.03866
1.07565
1.04817
1.01068
1.0007
1
8.64056
8.7401
8.53776
7.90581
7.05652
4.3468
1.24105
1
1
1
1
1.17492
3.14859
6.42422
8.30999
8.5459
8.61261
8.47071
8.11819
7.7972
8.95944
8.95934
8.45086
6.52256
5.32769
4.4445
2.19208
1
1.01419
1.00011
1.00017
2.97047
8.02594
8.43664
8.61382
8.84318
8.93965
8.95943
8.9594
8.95936
8.95945
8.95933
7.88998
4.15454
3.02346
3.29601
2.17759
1
1.00762
1.00073
1.15059
5.84279
7.15094
6.7014
6.52812
8.00642
8.93487
8.95945
8.95945
8.95945
8.95946
8.95933
7.23468
2.07619
1.93751
2.38422
1.98849
1
1.00089
1.00094
1.19025
4.98978
5.07716
3.63012
3.19124
4.71648
8.90164
8.95946
8.95946
8.95946
8.95948
8.9594
6.46158
1.30217
1.37203
1.86882
1.75763
1
1.00004
1.00136
1.15547
3.82738
3.4874
1.93279
1.58595
1.99303
8.8145
8.95947
8.95947
8.95947
8.95949
8.95945
5.6131
1.10209
1.209
1.62486
1.37235
1
1
1.00078
1.04591
2.75372
2.72666
1.39299
1.1711
1.29395
8.64315
8.95949
8.95949
8.95949
8.9595
8.95949
4.96411
1.06401
1.18471
1.42079
1.19492
1
1
1.00002
1.0002
1.34618
2.42056
1.2972
1.08909
1.14904
8.41087
8.9595
8.9595
8.9595
8.95951
8.95951
4.71524
1.06479
1.16954
1.2796
1.09007
1
1
1
1
1.18769
2.00061
1.36657
1.11597
1.10673
8.2055
8.95951
8.95951
8.95951
8.95952
8.95952
6.90136
1.03432
1.12422
1.15912
1.00013
1
1
1
1
1.00886
1.31495
1.34497
1.15009
1.0826
7.98985
8.95952
8.95952
8.95952
1.12317
1.14952
1.15393
1.14686
1.07393
1.00197
1
1
1
1
1
1
1.00001
1.02279
1.10218
1.12223
1.11234
1.07687
1.05452
1.03839
8.87733
8.8798
8.53834
7.57578
6.6569
5.12559
1.2356
1
1
1
1
1.16071
5.47187
6.85032
7.33924
8.12116
8.60596
8.76616
8.71079
8.69418
8.95944
8.95931
8.10688
5.65246
4.03841
3.73637
2.04201
1
1
1
1
2.20289
4.54977
4.32302
4.4656
7.26526
8.65256
8.95943
8.95944
8.95944
8.95945
8.9593
7.49593
3.44638
2.28885
2.42597
1.82314
1
1
1
1.00003
2.453
2.80959
2.38975
2.63195
5.71134
8.58507
8.95944
8.95945
8.95945
8.95946
8.95932
6.7983
1.83253
1.59518
1.80457
1.5682
1
1
1
1.05688
2.00576
1.768
1.53885
1.56069
3.26403
8.5799
8.95946
8.95946
8.95946
8.95948
8.95941
6.00303
1.25672
1.27895
1.49852
1.4075
1
1
1
1.02853
1.64909
1.41208
1.22713
1.19968
1.63032
8.63874
8.95947
8.95947
8.95947
8.95949
8.95943
5.15623
1.10046
1.16416
1.35815
1.22936
1
1
1
1.00001
1.43184
1.3179
1.1359
1.09123
1.20466
8.62546
8.95949
8.95949
8.95949
8.9595
8.95948
4.54915
1.05395
1.14098
1.25475
1.11383
1
1
1
1
1.16982
1.31329
1.12847
1.0687
1.11772
8.48253
8.9595
8.9595
8.9595
8.95951
8.95951
4.33022
1.04536
1.12887
1.1863
1.00277
1
1
1
1
1.03915
1.28505
1.15047
1.08072
1.08503
8.20894
8.95951
8.95951
8.95951
8.95952
8.95952
6.72922
1.01223
1.08064
1.08434
1
1
1
1
1
1
1.16968
1.16852
1.10448
1.07156
8.00293
8.95952
8.95952
8.95952
1.03903
1.0916
1.12526
1.11224
1.02009
1.00001
1
1
1
1
1
1
1
1.00094
1.0388
1.07572
1.04842
1.01071
1.00071
1
8.64104
8.74072
8.53824
7.90716
7.05822
4.35179
1.23865
1
1
1
1
1.17796
3.17409
6.42858
8.31271
8.54622
8.61345
8.47283
8.11964
7.79743
8.95944
8.95934
8.45112
6.5296
5.33233
4.44562
2.17262
1
1.01678
1.00024
1.00031
3.06304
8.02146
8.43345
8.61235
8.84279
8.9392
8.95943
8.9594
8.95937
8.95945
8.95933
7.89108
4.16271
3.0241
3.29542
2.17423
1
1.01037
1.00139
1.15593
5.88371
7.14747
6.69564
6.52594
8.00915
8.93476
8.95945
8.95945
8.95945
8.95946
8.95933
7.23578
2.07781
1.93699
2.38411
1.98592
1
1.00166
1.00161
1.19041
5.00781
5.07547
3.62436
3.1884
4.72099
8.90136
8.95946
8.95946
8.95946
8.95948
8.9594
6.46178
1.30231
1.37204
1.86956
1.7553
1
1.0001
1.00236
1.15489
3.83425
3.48617
1.92997
1.58429
1.9938
8.81389
8.95947
8.95947
8.95947
8.95949
8.95945
5.61295
1.10199
1.2089
1.62542
1.37125
1
1
1.00145
1.04683
2.75643
2.72672
1.39265
1.17103
1.29412
8.64226
8.95949
8.95949
8.95949
8.9595
8.95949
4.96334
1.06398
1.18471
1.42136
1.19469
1
1
1.00004
1.00028
1.35017
2.42758
1.29864
1.08914
1.14918
8.40988
8.9595
8.9595
8.9595
8.95951
8.95951
4.71464
1.06481
1.16967
1.28037
1.09099
1
1
1
1
1.18987
2.01665
1.36955
1.11631
1.10685
8.20492
8.95951
8.95951
8.95951
8.95952
8.95952
6.90128
1.03433
1.12433
1.15943
1.00014
1
1
1
1
1.01106
1.32077
1.34785
1.1507
1.08284
7.99397
8.95952
8.95952
8.95952
1
1
1
1
1
1
1
1
1
1
1
1
1
1
1
1
1
1
1
1
6.09839
7.09393
7.49064
7.14304
4.84527
1.72205
1.19338
1
1.00003
1
1
1.00153
1.4212
2.39584
5.83448
7.0822
7.08726
5.73612
3.81591
1.80726
8.95912
8.95907
8.68851
7.5954
6.13811
4.79145
1.55053
1.09003
1.35583
1.35547
1.32921
1.70102
6.20572
8.72477
8.91882
8.93617
8.95783
8.95868
8.95396
8.93591
8.95945
8.95933
8.18471
4.86315
3.93608
3.97788
2.40352
1.23151
1.33371
1.51696
1.61574
5.21423
8.16364
8.25447
8.03253
8.39163
8.95526
8.95945
8.95945
8.95945
8.95946
8.95933
7.58191
2.45639
2.40207
3.06249
2.36945
1.2375
1.28486
1.49782
1.64478
6.48927
7.35025
5.8036
4.88242
5.46388
8.9347
8.95946
8.95946
8.95946
8.95948
8.9594
6.93408
1.39988
1.53704
2.43654
2.18144
1.24097
1.26943
1.43615
1.48828
5.91235
5.89544
3.1032
2.20194
2.52413
8.8587
8.95947
8.95947
8.95947
8.95949
8.95946
6.23973
1.11386
1.29588
2.03154
1.77707
1.22993
1.21762
1.36471
1.38725
4.84332
5.30307
2.1885
1.3003
1.52867
8.70814
8.95949
8.95949
8.95949
8.9595
8.95949
5.64414
1.08582
1.27994
1.6861
1.44528
1.17712
1.05342
1.26221
1.33055
2.93083
4.86022
2.01586
1.11951
1.25923
8.52988
8.9595
8.9595
8.9595
8.95951
8.95951
5.38611
1.11678
1.26399
1.44867
1.30316
1.06749
1.00005
1.03477
1.25414
1.86166
4.08964
2.20007
1.21903
1.16513
8.39756
8.95951
8.95951
8.95951
8.95952
8.95952
7.34566
1.11869
1.21799
1.26156
1.18251
1.00043
1
1
1.00213
1.28327
1.95877
1.89856
1.26289
1.1172
8.34634
8.95952
8.95952
8.95952
)
;

boundaryField
{
    aeration
    {
        type            calculated;
        value           uniform 1;
    }
    xsides
    {
        type            calculated;
        value           nonuniform List<scalar> 
100
(
1
6.45388
8.95915
8.95945
8.95946
8.95948
8.95949
8.9595
8.95951
8.95952
1.0203
8.52691
8.95944
8.95945
8.95946
8.95948
8.95949
8.9595
8.95951
8.95952
1.07193
8.8401
8.95944
8.95945
8.95946
8.95948
8.95949
8.9595
8.95951
8.95952
1.02029
8.52754
8.95944
8.95945
8.95946
8.95948
8.95949
8.9595
8.95951
8.95952
1
6.47088
8.95915
8.95945
8.95946
8.95948
8.95949
8.9595
8.95951
8.95952
1
2.00661
8.94012
8.95945
8.95946
8.95947
8.95949
8.9595
8.95951
8.95952
1
7.32278
8.95934
8.95945
8.95946
8.95947
8.95949
8.9595
8.95951
8.95952
1.02127
8.5492
8.95944
8.95945
8.95946
8.95947
8.95949
8.9595
8.95951
8.95952
1
7.32323
8.95934
8.95945
8.95946
8.95947
8.95949
8.9595
8.95951
8.95952
1
2.01651
8.94039
8.95945
8.95946
8.95947
8.95949
8.9595
8.95951
8.95952
)
;
    }
    zsides
    {
        type            calculated;
        value           nonuniform List<scalar> 
400
(
1
6.45388
8.95915
8.95945
8.95946
8.95948
8.95949
8.9595
8.95951
8.95952
1
7.26514
8.95909
8.95933
8.95934
8.9594
8.95946
8.95949
8.95951
8.95952
1
7.59608
8.70823
8.23431
7.65984
7.02423
6.33603
5.75424
5.46933
7.37564
1
7.26564
7.69273
5.08944
2.67315
1.54537
1.29293
1.25443
1.25385
1.2228
1
4.97224
6.32031
4.20374
2.67627
1.72113
1.42377
1.40805
1.38935
1.33581
1
1.72754
5.00908
4.24221
3.32106
2.65083
2.2114
1.82306
1.558
1.35558
1
1
1.51229
2.53986
2.51195
2.31508
1.88069
1.5206
1.3778
1.25285
1
1
1.05499
1.23673
1.27692
1.2867
1.28222
1.22755
1.09146
1.00059
1
1
1.12851
1.25424
1.30305
1.31404
1.26808
1.06951
1.00009
1
1
1
1
1.07785
1.34138
1.39923
1.38976
1.3323
1.04927
1
1
1
1
1
1.47826
1.47701
1.39206
1.35612
1.3186
1.00288
1
1
1
1.00025
6.41585
5.96789
4.8895
2.95082
1.89912
1.34965
1
1
5.15031
8.20159
7.45462
6.08688
5.53871
5.08665
4.24383
2.06629
1
1.04458
8.7354
8.29896
5.98173
3.38201
2.48743
2.35828
2.54898
2.16388
1
5.96859
8.92157
8.08867
5.0662
2.41296
1.57813
1.42173
1.54086
1.56092
1
7.21007
8.93772
8.42195
5.59841
2.66445
1.65304
1.41409
1.34761
1.33088
1
7.21894
8.95795
8.95554
8.93606
8.86325
8.7166
8.54141
8.40892
8.35999
1
6.02257
8.95874
8.95945
8.95946
8.95947
8.95949
8.9595
8.95951
8.95952
1
4.29983
8.95458
8.95945
8.95946
8.95947
8.95949
8.9595
8.95951
8.95952
1
2.00661
8.94012
8.95945
8.95946
8.95947
8.95949
8.9595
8.95951
8.95952
1
6.47088
8.95915
8.95945
8.95946
8.95948
8.95949
8.9595
8.95951
8.95952
1
7.27203
8.95909
8.95933
8.95934
8.9594
8.95946
8.95949
8.95951
8.95952
1
7.6021
8.70916
8.23621
7.66197
7.02548
6.33577
5.75357
5.46902
7.37591
1
7.27157
7.69794
5.09914
2.67578
1.54573
1.29297
1.25445
1.25379
1.22258
1
4.97974
6.32811
4.20712
2.67849
1.72191
1.42412
1.40822
1.38946
1.33578
1
1.73049
5.01533
4.24498
3.32218
2.65135
2.2113
1.82325
1.55837
1.35562
1
1
1.51056
2.53252
2.50494
2.3112
1.87591
1.51975
1.37805
1.25376
1
1
1.04337
1.22815
1.27449
1.2842
1.28005
1.22623
1.09135
1.00064
1
1
1.12951
1.25699
1.30619
1.31797
1.2749
1.07298
1.00008
1
1
1
1
1.04552
1.35592
1.41747
1.40176
1.33575
1.05065
1
1
1
1
1
1.49359
1.48985
1.40173
1.36329
1.32239
1.00307
1
1
1
1.00026
6.46381
6.01956
4.98382
3.05309
1.94403
1.35133
1
1
5.19171
8.20194
7.4553
6.08813
5.54415
5.11417
4.29986
2.09453
1
1.10244
8.73864
8.2992
5.97973
3.38239
2.48383
2.35845
2.55586
2.17163
1
5.9873
8.92156
8.08827
5.06517
2.41352
1.57822
1.42225
1.54225
1.56406
1
7.22474
8.93774
8.4229
5.60081
2.66509
1.6535
1.41429
1.34786
1.33139
1
7.23594
8.95795
8.95552
8.93595
8.86294
8.71617
8.54111
8.40889
8.36043
1
6.03796
8.95875
8.95945
8.95946
8.95947
8.95949
8.9595
8.95951
8.95952
1
4.31164
8.95463
8.95945
8.95946
8.95947
8.95949
8.9595
8.95951
8.95952
1
2.01651
8.94039
8.95945
8.95946
8.95947
8.95949
8.9595
8.95951
8.95952
)
;
    }
    outlet
    {
        type            calculated;
        value           nonuniform List<scalar> 
100
(
8.95953
8.95953
8.95953
8.95953
8.95953
8.95953
8.95953
8.95953
8.95953
8.95953
8.95953
8.95953
8.95953
8.95953
8.95953
1.11888
1.03433
1.01223
1.03433
1.1187
1.21805
1.12423
1.08064
1.12434
1.218
1.26153
1.15913
1.08435
1.15944
1.26157
1.1818
1.00013
1
1.00014
1.18252
1.0004
1
1
1
1.00043
1
1
1
1
1
1
1
1
1
1
1.002
1
1
1
1.00213
1.28156
1.00886
1
1.01106
1.28328
1.93273
1.31496
1.16969
1.32078
1.95879
1.89282
1.34498
1.16853
1.34786
1.89858
1.26188
1.1501
1.10449
1.15071
1.26291
8.95953
8.95953
8.95953
8.95953
8.95953
8.95953
8.95953
8.95953
8.95953
8.95953
8.95953
8.95953
8.95953
8.95953
8.95953
8.95953
8.95953
8.95953
8.95953
8.95953
8.95953
8.95953
8.95953
8.95953
8.95953
)
;
    }
}


// ************************************************************************* //
