/*--------------------------------*- C++ -*----------------------------------*\
| =========                 |                                                 |
| \\      /  F ield         | OpenFOAM: The Open Source CFD Toolbox           |
|  \\    /   O peration     | Version:  2.3.0                                 |
|   \\  /    A nd           | Web:      www.OpenFOAM.org                      |
|    \\/     M anipulation  |                                                 |
\*---------------------------------------------------------------------------*/
FoamFile
{
    version     2.0;
    format      ascii;
    class       volScalarField;
    location    "2.09995";
    object      epsilon.water;
}
// * * * * * * * * * * * * * * * * * * * * * * * * * * * * * * * * * * * * * //

dimensions      [0 2 -3 0 0 0 0];

internalField   nonuniform List<scalar> 
1000
(
0.00863251
0.0210753
0.0423544
0.108597
0.0953247
0.0763668
0.0727938
0.0538496
0.0162937
0.0246429
0.0335749
0.0359425
0.0387733
0.0445114
0.0507648
0.06273
0.071577
0.039821
0.0217659
0.00922052
0.00153576
0.00447305
0.0100944
0.0146275
0.0185986
0.0224515
0.0329441
0.0295802
0.0196947
0.018153
0.020379
0.0222048
0.0309087
0.0231469
0.0216558
0.0168001
0.0118839
0.00671448
0.00302718
0.00106861
0.00393097
0.00969796
0.0147356
0.0165406
0.0166286
0.0164253
0.0173726
0.017987
0.0124685
0.0149293
0.016334
0.019774
0.023813
0.0251977
0.0257865
0.0230445
0.0176145
0.0125832
0.00594851
0.0012817
0.00590731
0.0146455
0.0171514
0.0164993
0.0154485
0.0153742
0.0162072
0.0277802
0.0158724
0.0123434
0.0129119
0.019248
0.023074
0.02682
0.0268732
0.0267462
0.0220922
0.01825
0.00953024
0.002885
0.00699603
0.0180682
0.0186215
0.0153142
0.012166
0.0151189
0.0229465
0.0584201
0.0321171
0.0119967
0.0116359
0.0161504
0.0224268
0.0238339
0.0247814
0.0283523
0.0250957
0.0224048
0.0143508
0.00421522
0.00723831
0.0194389
0.0180119
0.0112068
0.0111574
0.0163422
0.0267827
0.0891856
0.0727609
0.0206395
0.0178884
0.0191614
0.0200494
0.0153823
0.0146794
0.0215897
0.0235871
0.0245113
0.0169251
0.00485806
0.0062699
0.019665
0.0165636
0.00483446
0.012652
0.0177233
0.0363439
0.130215
0.135726
0.0398296
0.0281178
0.0217345
0.0170035
0.011094
0.00457832
0.015308
0.0205455
0.023067
0.0185111
0.00480225
0.00431451
0.0164768
0.0128405
0.00571999
0.013082
0.0223724
0.0582407
0.16658
0.173771
0.0810264
0.0454037
0.0292815
0.0172048
0.00850417
0.00208806
0.0107094
0.0159496
0.0183003
0.016292
0.00368413
0.00209855
0.0108079
0.00959805
0.0114512
0.0152321
0.0337959
0.0927219
0.193202
0.183888
0.140529
0.0821207
0.0465461
0.0234911
0.00926491
0.00327483
0.00896688
0.0117344
0.0102043
0.0106112
0.00198384
0.000473286
0.00229501
0.00340971
0.0210757
0.0219759
0.050738
0.119228
0.189094
0.155308
0.171433
0.169841
0.111085
0.0442834
0.0147089
0.00535343
0.00606882
0.0038069
0.00214922
0.00234769
0.000480088
0.00380639
0.00787705
0.0114313
0.0241776
0.0209081
0.0149246
0.00911666
0.00832567
0.00523402
0.00520833
0.00670159
0.00847257
0.0124904
0.0154006
0.0182621
0.0180097
0.0178729
0.0110341
0.00804543
0.00435875
0.00163258
0.00425269
0.00557748
0.00609378
0.00578641
0.0060737
0.00529728
0.00578464
0.00246886
0.003009
0.00622145
0.00533574
0.00663775
0.00721759
0.00842949
0.00827511
0.00687512
0.00514655
0.00289572
0.000931438
0.00215027
0.00502231
0.00645299
0.0068505
0.00663291
0.00641117
0.0052168
0.00616178
0.00242124
0.00562274
0.00816408
0.00475464
0.00759473
0.0093949
0.0098487
0.00968365
0.00950636
0.00822865
0.00510194
0.00137796
0.00220998
0.00492387
0.00595099
0.00667135
0.00641363
0.00641626
0.00600102
0.00658326
0.00328168
0.00606649
0.00736666
0.0057641
0.00868827
0.00932248
0.00935575
0.00885497
0.00873504
0.00873613
0.00600643
0.00164514
0.00173657
0.00467249
0.0055208
0.00648266
0.00593076
0.0061942
0.00696989
0.0087774
0.00514123
0.00530187
0.00666225
0.00668961
0.0085977
0.00861256
0.00828827
0.0075789
0.00681474
0.00714529
0.0060348
0.00157949
0.00122798
0.00405751
0.00450683
0.00559505
0.00549122
0.00616907
0.00759888
0.0134493
0.00936763
0.00471066
0.00653501
0.00713944
0.00813618
0.00696971
0.00645594
0.00647874
0.00510392
0.00559284
0.0048647
0.00114472
0.00075954
0.00291278
0.00375995
0.00461492
0.00563817
0.0064657
0.00953727
0.0212076
0.0231076
0.00623797
0.00665612
0.00703251
0.00725225
0.00595881
0.00438577
0.00617894
0.00332984
0.00390613
0.00390082
0.000780491
0.000433809
0.00210837
0.00286263
0.00587408
0.00599801
0.00783883
0.0144731
0.0350703
0.0408075
0.0159632
0.00794177
0.00847897
0.00740777
0.00550429
0.00293974
0.00649018
0.00214976
0.00205524
0.00228514
0.000404407
0.000182922
0.000878519
0.001836
0.00854445
0.00713247
0.0117773
0.0261898
0.0507328
0.0549296
0.0416535
0.0161973
0.0125525
0.00898414
0.00600816
0.00342864
0.00700001
0.00135942
0.00104867
0.000933226
0.000236683
0.000166108
0.000274774
0.000605614
0.0127275
0.0105313
0.0197886
0.0398913
0.0587879
0.0516586
0.0522694
0.0461615
0.0315981
0.0167975
0.00934171
0.00530007
0.00596662
0.000434558
0.000348195
0.000285005
0.000169433
0.00256935
0.00446375
0.00599576
0.0111291
0.0124988
0.011729
0.00848668
0.0162041
0.0197995
0.00790921
0.0174503
0.00852155
0.0117827
0.0127859
0.012435
0.0107177
0.00908293
0.00624677
0.00497935
0.00307325
0.00102089
0.00152387
0.00230774
0.00331481
0.00325853
0.0034242
0.00419702
0.0118178
0.0113993
0.00609025
0.0107224
0.00487059
0.00418526
0.00455138
0.00493436
0.00467198
0.00411891
0.00331252
0.00183879
0.000773844
0.000998597
0.00147111
0.00217362
0.00372743
0.00402547
0.00392691
0.00375284
0.00747587
0.00609687
0.00485982
0.00594977
0.00397787
0.00474326
0.00532375
0.0050925
0.00443552
0.00436652
0.00394431
0.00236967
0.000828006
0.000656868
0.00104582
0.00184622
0.0037929
0.0041065
0.0041926
0.00414394
0.00611673
0.00545525
0.00450224
0.0047587
0.00417205
0.00509408
0.0051981
0.00442487
0.0030474
0.00249874
0.00251243
0.00229562
0.0007227
0.000459091
0.000856618
0.0018016
0.00422388
0.00427124
0.00422226
0.00431447
0.00507574
0.00415285
0.00430522
0.00464902
0.00458417
0.00519766
0.00507682
0.00441985
0.0028055
0.00163407
0.00155884
0.0016052
0.000493534
0.000295793
0.000604382
0.0017809
0.00435592
0.00417453
0.00414067
0.00450464
0.00508639
0.0038573
0.00412361
0.00453571
0.00465126
0.00517623
0.00488767
0.00451414
0.00343803
0.00113544
0.00089125
0.00110947
0.000319988
0.000224518
0.000419002
0.00187735
0.00451962
0.00415856
0.00422807
0.00509518
0.00586208
0.00535697
0.00412057
0.00405008
0.00454942
0.00490926
0.0045365
0.00408289
0.00473589
0.000932891
0.00044947
0.000608985
0.000241435
0.000169051
0.000310065
0.00178762
0.0058638
0.00438672
0.00482405
0.00661555
0.00923275
0.0118154
0.0061835
0.00417001
0.0048296
0.00508278
0.0045307
0.00317535
0.00578988
0.000869564
0.000260372
0.000315733
0.000167151
0.000159705
0.000188929
0.00124309
0.00784382
0.00517816
0.00665283
0.010791
0.0190431
0.0267502
0.0193411
0.00635278
0.00576627
0.00581084
0.00492951
0.00345445
0.00663678
0.000726141
0.000184765
0.000187021
0.000164043
0.000155517
0.00015384
0.000495876
0.0108841
0.00772616
0.0121952
0.0214939
0.0299797
0.0288292
0.0278196
0.0199678
0.0121233
0.00935357
0.00736951
0.00514857
0.00607335
0.000349555
0.000153531
0.000152127
0.000154651
0.00380556
0.00787504
0.01142
0.0241476
0.0209003
0.0149374
0.00912826
0.00830953
0.00521786
0.00519338
0.00695857
0.00847526
0.0124684
0.0154326
0.0182391
0.0179752
0.0177994
0.0109991
0.00805142
0.00435875
0.00163238
0.00424246
0.00556911
0.00608944
0.00578322
0.00607299
0.0053072
0.00585662
0.00243082
0.00300423
0.00612736
0.00532724
0.00657626
0.00727052
0.00841534
0.00826662
0.00684009
0.00513418
0.00289505
0.000930812
0.00214975
0.00501538
0.00644912
0.00685235
0.00663368
0.00640796
0.00521901
0.00614909
0.00238815
0.00548142
0.00810965
0.00475844
0.00753645
0.00940016
0.00985456
0.00968323
0.00947563
0.0082113
0.00509131
0.00137766
0.00220983
0.00491993
0.00594941
0.00667576
0.00641229
0.00641389
0.00600222
0.0066032
0.00324743
0.00596951
0.00733517
0.00578476
0.00868975
0.00933484
0.00938115
0.00885812
0.00872131
0.00871391
0.00598903
0.00164404
0.0017369
0.00466604
0.00552071
0.00648736
0.00592904
0.00619467
0.00697649
0.00887911
0.0050862
0.0052202
0.00666084
0.0067067
0.00861186
0.00862602
0.00831126
0.0075927
0.00680441
0.00711416
0.00599091
0.00157749
0.00122758
0.00404998
0.00450834
0.00560425
0.00549224
0.00617201
0.00759921
0.0135664
0.00931427
0.00459168
0.00649537
0.00715713
0.00815234
0.00698231
0.00647122
0.006494
0.0051256
0.00557958
0.00482499
0.00114235
0.000759667
0.00291192
0.00376623
0.00461084
0.00563866
0.00646864
0.0095344
0.0212672
0.0231511
0.00606867
0.00661319
0.00703564
0.0072653
0.00596735
0.00439273
0.00619042
0.00335112
0.00389582
0.00386179
0.000782083
0.000433888
0.00211112
0.0028654
0.00587672
0.00599916
0.00784318
0.0144811
0.0351621
0.0409431
0.0159131
0.00784758
0.00845668
0.00742199
0.00551258
0.00294014
0.00648621
0.00215407
0.00205979
0.0022815
0.000402969
0.000182915
0.000882314
0.00183584
0.00855772
0.00713644
0.0118044
0.0262686
0.050789
0.0548475
0.0417006
0.0160835
0.0125193
0.00899902
0.00601837
0.00343046
0.00699353
0.00135615
0.00105233
0.000940451
0.000237052
0.000166111
0.000276429
0.000606906
0.012735
0.010537
0.0197729
0.0397848
0.0584121
0.0512175
0.0519836
0.0460675
0.0315569
0.0168127
0.00936628
0.00530319
0.00596863
0.000442597
0.000349147
0.000289974
0.00016941
0.00862534
0.021036
0.042265
0.108401
0.095215
0.076316
0.0733553
0.0514021
0.0189966
0.0231363
0.0318178
0.037903
0.0363147
0.04827
0.050552
0.0624053
0.0712008
0.0396123
0.0217574
0.0092167
0.00153461
0.00447088
0.0101035
0.0146234
0.0185991
0.0223921
0.0331296
0.0291628
0.019644
0.0171502
0.0214418
0.0226448
0.0298143
0.0244148
0.0216387
0.016767
0.0118765
0.00669313
0.00303693
0.00106332
0.00393139
0.00968543
0.0147397
0.0165403
0.0166204
0.0164227
0.0173963
0.0182514
0.012574
0.014868
0.0172651
0.0209272
0.022881
0.0253012
0.0257957
0.0230626
0.0175963
0.0125612
0.00595015
0.00128254
0.00590734
0.0146365
0.0171537
0.0164981
0.0154352
0.0153819
0.0161906
0.0285
0.0156021
0.0125904
0.0131755
0.0197327
0.0229144
0.0268437
0.0269054
0.0267739
0.0220709
0.0182212
0.00952043
0.00288431
0.0069965
0.0180619
0.0186225
0.0153158
0.0121554
0.0151321
0.0229434
0.0593576
0.0312534
0.0118062
0.0116109
0.0162991
0.0224352
0.0238631
0.0248165
0.0283832
0.025075
0.0223684
0.0142906
0.00421493
0.00723852
0.0194316
0.0179869
0.0112417
0.0111535
0.0163533
0.0267577
0.0897271
0.0708544
0.019876
0.0174578
0.019205
0.0200655
0.0154038
0.0146995
0.0216021
0.0235816
0.0244849
0.0168275
0.00485868
0.00627
0.0196608
0.0166033
0.0048123
0.0126458
0.0177313
0.0363505
0.130437
0.134481
0.0385025
0.0272631
0.021692
0.0170274
0.0111126
0.0045884
0.0153178
0.0205549
0.0230539
0.0183749
0.0048019
0.0043146
0.016472
0.0128417
0.00572334
0.0130817
0.0223841
0.0582177
0.166629
0.173225
0.0800386
0.0439457
0.0289649
0.01721
0.00851704
0.0020892
0.0107029
0.0159439
0.0183006
0.0162026
0.00368252
0.00209866
0.0108082
0.0096015
0.0114758
0.0152404
0.0338398
0.0926918
0.192804
0.183614
0.140255
0.0807635
0.0458505
0.0234212
0.00927093
0.0032765
0.00895248
0.0117063
0.0102052
0.0105783
0.00198409
0.000473392
0.00229515
0.00340349
0.0210844
0.0219937
0.0506732
0.118723
0.187753
0.153617
0.17054
0.169298
0.11009
0.0440396
0.0147091
0.00534909
0.00607476
0.00383858
0.00214997
0.00237108
0.00047956
)
;

boundaryField
{
    aeration
    {
        type            fixedValue;
        value           uniform 0.00015;
    }
    xsides
    {
        type            epsilonWallFunction;
        value           nonuniform List<scalar> 
100
(
0.0107219
0.00353841
0.00729154
0.00925818
0.00999687
0.00909136
0.00755909
0.00494188
0.00252629
0.000537109
0.00153865
0.00052892
0.000722891
0.000689563
0.000548606
0.000367826
0.00026116
0.000145307
0.000101176
6.92035e-05
0.00113922
0.000301982
0.000336686
0.000262077
0.000191185
0.000141994
0.00011235
8.8622e-05
7.79587e-05
6.83989e-05
0.00153833
0.000528776
0.000722191
0.000688861
0.000548647
0.000367556
0.000261159
0.00014526
0.000101165
6.91992e-05
0.0107123
0.00353972
0.00729183
0.00925817
0.00999775
0.00909155
0.00755936
0.00494199
0.00252648
0.000537061
0.0116075
0.00189442
0.00325804
0.00558023
0.00681162
0.00706692
0.00592668
0.00442383
0.00226267
0.000687235
0.00177108
0.000266573
0.000491713
0.000569482
0.000508232
0.000384735
0.000231025
0.000167255
9.27829e-05
7.01135e-05
0.00136073
0.000193637
0.000270475
0.000271468
0.000190046
0.000152673
0.000107539
9.24019e-05
7.45163e-05
6.88965e-05
0.00177125
0.000266527
0.000490702
0.000567899
0.000506138
0.000382717
0.000230122
0.000167256
9.27096e-05
7.01085e-05
0.0116024
0.00189103
0.0032604
0.00558005
0.00681149
0.00706712
0.00592552
0.00442266
0.0022627
0.000687013
)
;
        Cmu             0.09;
        kappa           0.41;
        E               9.8;
        value           nonuniform List<scalar> 
100
(
0.0107219
0.00353841
0.00729154
0.00925818
0.00999687
0.00909136
0.00755909
0.00494188
0.00252629
0.000537109
0.00153865
0.00052892
0.000722891
0.000689563
0.000548606
0.000367826
0.00026116
0.000145307
0.000101176
6.92035e-05
0.00113922
0.000301982
0.000336686
0.000262077
0.000191185
0.000141994
0.00011235
8.8622e-05
7.79587e-05
6.83989e-05
0.00153833
0.000528776
0.000722191
0.000688861
0.000548647
0.000367556
0.000261159
0.00014526
0.000101165
6.91992e-05
0.0107123
0.00353972
0.00729183
0.00925817
0.00999775
0.00909155
0.00755936
0.00494199
0.00252648
0.000537061
0.0116075
0.00189442
0.00325804
0.00558023
0.00681162
0.00706692
0.00592668
0.00442383
0.00226267
0.000687235
0.00177108
0.000266573
0.000491713
0.000569482
0.000508232
0.000384735
0.000231025
0.000167255
9.27829e-05
7.01135e-05
0.00136073
0.000193637
0.000270475
0.000271468
0.000190046
0.000152673
0.000107539
9.24019e-05
7.45163e-05
6.88965e-05
0.00177125
0.000266527
0.000490702
0.000567899
0.000506138
0.000382717
0.000230122
0.000167256
9.27096e-05
7.01085e-05
0.0116024
0.00189103
0.0032604
0.00558005
0.00681149
0.00706712
0.00592552
0.00442266
0.0022627
0.000687013
)
;
    }
    zsides
    {
        type            epsilonWallFunction;
        value           nonuniform List<scalar> 
400
(
0.0107219
0.00353841
0.00729154
0.00925818
0.00999687
0.00909136
0.00755909
0.00494188
0.00252629
0.000537109
0.0367598
0.0115835
0.0229238
0.0317114
0.0358599
0.0362959
0.0304894
0.0224632
0.0125121
0.00304392
0.0645283
0.0251872
0.0377181
0.041728
0.0429335
0.0355804
0.0290005
0.0214991
0.0134211
0.00400637
0.192173
0.0383812
0.0458809
0.04619
0.0426542
0.0341431
0.0291204
0.0383376
0.0523119
0.0782731
3.48083e-17
0.0348244
0.046782
0.0458878
0.0402593
0.0373467
0.0394167
0.0420006
0.0502149
0.0741456
5.28064e-20
0.0226314
0.0434455
0.0450196
0.0444729
0.045606
0.0485216
0.0600124
0.0962438
0.149409
5.28064e-20
5.24033e-20
0.0109875
0.0308002
0.0483415
0.0589318
0.0793979
0.133599
0.244575
0.326144
5.28064e-20
5.28064e-20
0.00232327
0.0245924
0.087765
0.149522
0.252178
0.370532
0.476764
0.497056
5.28064e-20
5.27955e-20
7.36135e-05
0.00609492
0.0405632
0.128733
0.299456
0.429438
0.485988
0.418337
5.28064e-20
5.28063e-20
5.20898e-20
1.34995e-08
0.00241372
0.0163654
0.0615825
0.199404
0.387137
0.444346
5.28064e-20
5.28064e-20
5.20823e-20
5.23362e-20
0.00262462
0.0175441
0.0315921
0.0653408
0.188092
0.425759
5.28064e-20
5.28034e-20
5.23589e-20
6.95867e-19
0.0126026
0.0345968
0.0426455
0.0561496
0.0914209
0.26773
5.28064e-20
5.22517e-20
0.000146866
0.0458707
0.0598198
0.0568203
0.0517312
0.052422
0.0624661
0.122223
5.28064e-20
1.25235e-08
0.0588709
0.0688222
0.0636603
0.048578
0.0414299
0.0376212
0.0404351
0.063006
5.28064e-20
0.0506321
0.0668898
0.0669824
0.0611483
0.0416702
0.0285657
0.0258963
0.0297479
0.0432303
1.15006e-16
0.0489299
0.0582851
0.0610638
0.0616155
0.0447711
0.0380473
0.0416781
0.0519828
0.052636
0.136555
0.0332497
0.0470947
0.050888
0.0517506
0.042988
0.031717
0.0220569
0.0146212
0.00466423
0.0666722
0.0213163
0.0365365
0.0439476
0.0475282
0.0444162
0.0353078
0.0241378
0.0123236
0.001749
0.0403615
0.0108097
0.0188411
0.026095
0.0319655
0.0339296
0.0302567
0.0228602
0.012354
0.00310657
0.0116075
0.00189442
0.00325804
0.00558023
0.00681162
0.00706692
0.00592668
0.00442383
0.00226267
0.000687235
0.0107123
0.00353972
0.00729183
0.00925817
0.00999775
0.00909155
0.00755936
0.00494199
0.00252648
0.000537061
0.0366886
0.0115657
0.0228542
0.031661
0.0358274
0.036272
0.0304856
0.0224538
0.012513
0.00304428
0.0644132
0.025223
0.0377534
0.0417577
0.0429695
0.0356234
0.0290089
0.0215105
0.0134273
0.00399998
0.191852
0.0383818
0.0459095
0.0462252
0.0427035
0.0341961
0.0291494
0.0384142
0.0525142
0.0783711
3.47492e-17
0.0348323
0.0467865
0.0458797
0.0402418
0.0373579
0.0394239
0.0420227
0.0502798
0.0742356
5.28064e-20
0.0226798
0.0434608
0.0450217
0.0444903
0.0456298
0.0485464
0.0600722
0.0965333
0.149185
5.28064e-20
5.24079e-20
0.0109812
0.0308092
0.0483649
0.0588995
0.0793194
0.133447
0.244935
0.324472
5.28064e-20
5.28064e-20
0.00255382
0.0256662
0.0890284
0.150035
0.252111
0.370384
0.476229
0.492151
5.28064e-20
5.27977e-20
4.93708e-05
0.00567388
0.0382175
0.125799
0.297778
0.429258
0.484426
0.41257
5.28064e-20
5.28062e-20
5.21051e-20
1.11404e-09
0.00211704
0.0152083
0.05841
0.198957
0.386777
0.440933
5.28064e-20
5.28064e-20
5.20836e-20
5.23348e-20
0.00252342
0.0166765
0.030232
0.0628186
0.185629
0.424651
5.28064e-20
5.28036e-20
5.23566e-20
6.81467e-19
0.0126369
0.0347194
0.0426883
0.0557025
0.0901945
0.265581
5.28064e-20
5.22513e-20
0.000186461
0.0460245
0.0599231
0.0569055
0.051846
0.0525229
0.0624639
0.121933
5.28064e-20
1.40284e-07
0.0588462
0.0688998
0.0637807
0.0487108
0.0415304
0.037739
0.0405762
0.0633235
5.28064e-20
0.0505534
0.0669329
0.0671423
0.0613209
0.041837
0.0287185
0.0260154
0.0298758
0.0435132
7.98517e-17
0.0489827
0.058338
0.0611844
0.0617545
0.0448745
0.0381187
0.0415414
0.0518554
0.05267
0.135771
0.0330806
0.0470004
0.0508091
0.0516941
0.043003
0.0317831
0.0220535
0.0145625
0.00469891
0.0663543
0.0212276
0.0364136
0.0438236
0.0474094
0.0443815
0.0352952
0.0241355
0.0123274
0.00174846
0.0403412
0.0108545
0.0188532
0.0260692
0.0318348
0.03375
0.0300502
0.0227679
0.0123142
0.00312272
0.0116024
0.00189103
0.0032604
0.00558005
0.00681149
0.00706712
0.00592552
0.00442266
0.0022627
0.000687013
)
;
        Cmu             0.09;
        kappa           0.41;
        E               9.8;
        value           nonuniform List<scalar> 
400
(
0.0107219
0.00353841
0.00729154
0.00925818
0.00999687
0.00909136
0.00755909
0.00494188
0.00252629
0.000537109
0.0367598
0.0115835
0.0229238
0.0317114
0.0358599
0.0362959
0.0304894
0.0224632
0.0125121
0.00304392
0.0645283
0.0251872
0.0377181
0.041728
0.0429335
0.0355804
0.0290005
0.0214991
0.0134211
0.00400637
0.192173
0.0383812
0.0458809
0.04619
0.0426542
0.0341431
0.0291204
0.0383376
0.0523119
0.0782731
3.48083e-17
0.0348244
0.046782
0.0458878
0.0402593
0.0373467
0.0394167
0.0420006
0.0502149
0.0741456
5.28064e-20
0.0226314
0.0434455
0.0450196
0.0444729
0.045606
0.0485216
0.0600124
0.0962438
0.149409
5.28064e-20
5.24033e-20
0.0109875
0.0308002
0.0483415
0.0589318
0.0793979
0.133599
0.244575
0.326144
5.28064e-20
5.28064e-20
0.00232327
0.0245924
0.087765
0.149522
0.252178
0.370532
0.476764
0.497056
5.28064e-20
5.27955e-20
7.36135e-05
0.00609492
0.0405632
0.128733
0.299456
0.429438
0.485988
0.418337
5.28064e-20
5.28063e-20
5.20898e-20
1.34995e-08
0.00241372
0.0163654
0.0615825
0.199404
0.387137
0.444346
5.28064e-20
5.28064e-20
5.20823e-20
5.23362e-20
0.00262462
0.0175441
0.0315921
0.0653408
0.188092
0.425759
5.28064e-20
5.28034e-20
5.23589e-20
6.95867e-19
0.0126026
0.0345968
0.0426455
0.0561496
0.0914209
0.26773
5.28064e-20
5.22517e-20
0.000146866
0.0458707
0.0598198
0.0568203
0.0517312
0.052422
0.0624661
0.122223
5.28064e-20
1.25235e-08
0.0588709
0.0688222
0.0636603
0.048578
0.0414299
0.0376212
0.0404351
0.063006
5.28064e-20
0.0506321
0.0668898
0.0669824
0.0611483
0.0416702
0.0285657
0.0258963
0.0297479
0.0432303
1.15006e-16
0.0489299
0.0582851
0.0610638
0.0616155
0.0447711
0.0380473
0.0416781
0.0519828
0.052636
0.136555
0.0332497
0.0470947
0.050888
0.0517506
0.042988
0.031717
0.0220569
0.0146212
0.00466423
0.0666722
0.0213163
0.0365365
0.0439476
0.0475282
0.0444162
0.0353078
0.0241378
0.0123236
0.001749
0.0403615
0.0108097
0.0188411
0.026095
0.0319655
0.0339296
0.0302567
0.0228602
0.012354
0.00310657
0.0116075
0.00189442
0.00325804
0.00558023
0.00681162
0.00706692
0.00592668
0.00442383
0.00226267
0.000687235
0.0107123
0.00353972
0.00729183
0.00925817
0.00999775
0.00909155
0.00755936
0.00494199
0.00252648
0.000537061
0.0366886
0.0115657
0.0228542
0.031661
0.0358274
0.036272
0.0304856
0.0224538
0.012513
0.00304428
0.0644132
0.025223
0.0377534
0.0417577
0.0429695
0.0356234
0.0290089
0.0215105
0.0134273
0.00399998
0.191852
0.0383818
0.0459095
0.0462252
0.0427035
0.0341961
0.0291494
0.0384142
0.0525142
0.0783711
3.47492e-17
0.0348323
0.0467865
0.0458797
0.0402418
0.0373579
0.0394239
0.0420227
0.0502798
0.0742356
5.28064e-20
0.0226798
0.0434608
0.0450217
0.0444903
0.0456298
0.0485464
0.0600722
0.0965333
0.149185
5.28064e-20
5.24079e-20
0.0109812
0.0308092
0.0483649
0.0588995
0.0793194
0.133447
0.244935
0.324472
5.28064e-20
5.28064e-20
0.00255382
0.0256662
0.0890284
0.150035
0.252111
0.370384
0.476229
0.492151
5.28064e-20
5.27977e-20
4.93708e-05
0.00567388
0.0382175
0.125799
0.297778
0.429258
0.484426
0.41257
5.28064e-20
5.28062e-20
5.21051e-20
1.11404e-09
0.00211704
0.0152083
0.05841
0.198957
0.386777
0.440933
5.28064e-20
5.28064e-20
5.20836e-20
5.23348e-20
0.00252342
0.0166765
0.030232
0.0628186
0.185629
0.424651
5.28064e-20
5.28036e-20
5.23566e-20
6.81467e-19
0.0126369
0.0347194
0.0426883
0.0557025
0.0901945
0.265581
5.28064e-20
5.22513e-20
0.000186461
0.0460245
0.0599231
0.0569055
0.051846
0.0525229
0.0624639
0.121933
5.28064e-20
1.40284e-07
0.0588462
0.0688998
0.0637807
0.0487108
0.0415304
0.037739
0.0405762
0.0633235
5.28064e-20
0.0505534
0.0669329
0.0671423
0.0613209
0.041837
0.0287185
0.0260154
0.0298758
0.0435132
7.98517e-17
0.0489827
0.058338
0.0611844
0.0617545
0.0448745
0.0381187
0.0415414
0.0518554
0.05267
0.135771
0.0330806
0.0470004
0.0508091
0.0516941
0.043003
0.0317831
0.0220535
0.0145625
0.00469891
0.0663543
0.0212276
0.0364136
0.0438236
0.0474094
0.0443815
0.0352952
0.0241355
0.0123274
0.00174846
0.0403412
0.0108545
0.0188532
0.0260692
0.0318348
0.03375
0.0300502
0.0227679
0.0123142
0.00312272
0.0116024
0.00189103
0.0032604
0.00558005
0.00681149
0.00706712
0.00592552
0.00442266
0.0022627
0.000687013
)
;
    }
    outlet
    {
        type            inletOutlet;
        phi             phi.water;
        inletValue      uniform 0.00015;
        value           nonuniform List<scalar> 
100
(
0.00015
0.00015
0.00015
0.00015
0.00015
0.00015
0.00015
0.00015
0.00015
0.00015
0.00015
0.00015
0.00015
0.00015
0.00015
0.0210757
0.0127275
0.0108841
0.012735
0.0210844
0.0219759
0.0105313
0.00772616
0.010537
0.0219937
0.050738
0.0197886
0.0121952
0.0197729
0.0506732
0.119228
0.0398913
0.0214939
0.0397848
0.118723
0.189094
0.0587879
0.0299797
0.0584121
0.187753
0.155308
0.0516586
0.0288292
0.0512175
0.153617
0.171433
0.0522694
0.0278196
0.0519836
0.17054
0.169841
0.0461615
0.0199678
0.0460675
0.169298
0.111085
0.0315981
0.0121233
0.0315569
0.11009
0.0442834
0.0167975
0.00935357
0.0168127
0.0440396
0.0147089
0.00934171
0.00736951
0.00936628
0.0147091
0.00535343
0.00530007
0.00514857
0.00530319
0.00534909
0.00015
0.00015
0.00015
0.00015
0.00015
0.00015
0.00015
0.00015
0.00015
0.00015
0.00015
0.00015
0.00015
0.00015
0.00015
0.00015
0.00015
0.00015
0.00015
0.00015
0.00015
0.00015
0.00015
0.00015
0.00015
)
;
    }
}


// ************************************************************************* //
