/*--------------------------------*- C++ -*----------------------------------*\
| =========                 |                                                 |
| \\      /  F ield         | OpenFOAM: The Open Source CFD Toolbox           |
|  \\    /   O peration     | Version:  2.3.0                                 |
|   \\  /    A nd           | Web:      www.OpenFOAM.org                      |
|    \\/     M anipulation  |                                                 |
\*---------------------------------------------------------------------------*/
FoamFile
{
    version     2.0;
    format      ascii;
    class       volVectorField;
    location    "2.09995";
    object      U.air;
}
// * * * * * * * * * * * * * * * * * * * * * * * * * * * * * * * * * * * * * //

dimensions      [0 1 -1 0 0 0 0];

internalField   nonuniform List<vector> 
1000
(
(0.0110743 0.0165081 -0.00399317)
(0.0327327 0.0112303 -0.00454454)
(0.0699234 0.0111801 -0.000765797)
(0.106167 0.0192977 -0.00212952)
(0.107427 0.0358876 -0.00307898)
(0.0930225 0.0325144 -0.00288709)
(0.0639501 -0.00726659 -0.000800954)
(0.0342547 -0.00961602 0.0030516)
(-0.010001 -0.0205196 0.00318598)
(-0.0213385 -0.0389438 0.00324283)
(-0.0492924 -0.024861 0.00291124)
(-0.0737706 -0.0132306 -0.000946672)
(-0.0955875 0.00418228 -0.00220593)
(-0.115334 0.0413954 -0.00280735)
(-0.121528 0.0469748 -0.00275925)
(-0.107635 0.0330868 -0.00562952)
(-0.0689917 0.0152354 -0.00367982)
(-0.0406782 0.0181759 -0.00101198)
(-0.0179193 0.0143792 -0.00280768)
(-0.00512773 0.0136059 -0.00266087)
(0.0149616 -0.00208916 -0.000992258)
(0.0404252 -0.00963609 -0.000449004)
(0.0682546 -0.0192225 -0.000217373)
(0.0848606 -0.0119474 0.000329777)
(0.0915142 0.0109123 -0.000976184)
(0.0810696 0.029674 0.000160006)
(0.0531769 0.044839 -0.00245345)
(0.0554975 0.0339845 -0.00311626)
(0.0146553 0.0145943 0.0025326)
(-0.0835027 0.00957744 0.00068159)
(-0.10292 0.028592 -0.00527694)
(-0.0955526 0.0466882 -0.00705567)
(-0.0964571 0.0392392 0.000339564)
(-0.114802 0.0255639 -0.00138932)
(-0.110491 -0.00478044 -0.000995695)
(-0.0937155 -0.018099 0.000930693)
(-0.0706156 -0.0187857 -0.000308726)
(-0.0423434 -0.0147767 -0.000254792)
(-0.0203281 -0.00612892 0.000263968)
(-0.00376758 0.0075106 -0.000588646)
(0.0161943 -0.0432449 -0.000642177)
(0.0438085 -0.0551327 -6.61316e-05)
(0.0703744 -0.0530005 0.000336295)
(0.0880611 -0.0273927 0.000897289)
(0.0869383 0.0133614 0.000654535)
(0.0740758 0.0387275 0.000459786)
(0.0395511 0.0648889 -0.000202996)
(0.0316972 0.0720002 -0.00244149)
(-0.00943488 0.0518317 0.00295882)
(-0.0769321 0.0416711 -0.000873977)
(-0.0820772 0.0558646 -0.00570544)
(-0.079521 0.0624471 -0.00253653)
(-0.103344 0.0449707 -0.000641972)
(-0.12609 0.0247613 -0.000686023)
(-0.123288 -0.0141492 0.000155007)
(-0.114163 -0.0403603 8.28968e-05)
(-0.0869426 -0.0535095 -0.000759223)
(-0.0583377 -0.0501246 -0.000850696)
(-0.0302651 -0.0316327 -0.000545907)
(-0.00908233 -0.00906293 -0.000652634)
(0.0132949 -0.0705815 0.000146102)
(0.0442836 -0.0801728 0.000293645)
(0.0654078 -0.0678848 0.000806589)
(0.0772817 -0.0313967 0.00166103)
(0.0727047 0.0215002 0.000908079)
(0.057465 0.0542213 0.000703545)
(0.0243738 0.087529 0.00166578)
(0.00829181 0.119855 -0.000621991)
(-0.0206964 0.0906731 0.003294)
(-0.0650979 0.0773958 -0.00212997)
(-0.0616903 0.0852035 -0.00545586)
(-0.0669266 0.0821372 -0.000580026)
(-0.101024 0.0632844 0.000444161)
(-0.119944 0.0328928 0.000194372)
(-0.123391 -0.0153751 0.00204728)
(-0.118742 -0.056179 0.00140052)
(-0.0953054 -0.0754633 0.000314944)
(-0.0667669 -0.0767973 -3.53409e-05)
(-0.0362007 -0.0523915 -3.87028e-05)
(-0.0142176 -0.0301711 -0.000289264)
(0.0129559 -0.102329 0.000280529)
(0.0375339 -0.108522 0.000199244)
(0.0520016 -0.0891008 0.00144076)
(0.061297 -0.0326339 0.00207716)
(0.0459133 0.0313271 0.000651706)
(0.0299845 0.0726253 0.000238464)
(0.0063562 0.112398 0.00158274)
(-0.00309285 0.144602 0.000889029)
(-0.0206269 0.124789 0.00378312)
(-0.0509318 0.108371 -0.00192183)
(-0.0410012 0.113746 -0.00486727)
(-0.0555064 0.0963847 0.000618566)
(-0.0832469 0.0706532 0.000783167)
(-0.0980591 0.0361894 0.00119875)
(-0.105086 -0.020509 0.00269815)
(-0.109159 -0.077269 0.00269183)
(-0.0919489 -0.107184 0.000865585)
(-0.0657614 -0.112601 0.000317923)
(-0.0360682 -0.0838054 0.000352189)
(-0.0137441 -0.0549691 -1.83342e-05)
(0.0094065 -0.11903 0.000406887)
(0.0288476 -0.121591 0.00076529)
(0.0365985 -0.0974705 0.00179528)
(0.0412325 -0.0192232 0.00175682)
(0.0148703 0.0472681 0.000131662)
(0.00912015 0.0812309 7.54635e-05)
(-0.0007545 0.116125 0.000871959)
(-0.00532681 0.159407 0.00132928)
(-0.013272 0.14852 0.00350319)
(-0.0347786 0.126836 0.00124045)
(-0.0187857 0.134888 -0.00443461)
(-0.0272498 0.114869 0.00148179)
(-0.044308 0.085449 0.00117607)
(-0.0507153 0.0481548 0.00104728)
(-0.0623197 -0.0106625 0.0025078)
(-0.0791777 -0.0742945 0.00332056)
(-0.0716324 -0.120596 0.00181912)
(-0.0573781 -0.13307 0.000431895)
(-0.0304083 -0.107357 0.000671089)
(-0.0120656 -0.0753727 0.000273994)
(0.00654072 -0.134112 0.000432168)
(0.017633 -0.136933 0.000883338)
(0.0201617 -0.101899 0.0010983)
(0.0112307 -0.00145719 0.000715702)
(-0.00663883 0.0503724 0.000115897)
(0.00225477 0.0812602 0.00051423)
(-0.0081625 0.121779 0.00143657)
(-0.0181598 0.166813 0.00102822)
(-0.00487816 0.154059 0.00171426)
(-0.0146181 0.133909 0.0034848)
(0.00211482 0.144998 -0.00235496)
(-0.00407712 0.124276 0.000490754)
(-0.0137696 0.0836542 0.000658031)
(-0.0101847 0.0503699 0.000427238)
(-0.0105016 0.00712972 0.000399522)
(-0.0361641 -0.0554823 0.000896167)
(-0.0435113 -0.133855 0.00222048)
(-0.0388085 -0.150801 0.00068636)
(-0.0237557 -0.124607 0.000590336)
(-0.00831869 -0.0902975 0.000356804)
(0.00319278 -0.140701 0.000588628)
(0.00801867 -0.141428 0.000740659)
(0.00770768 -0.0944007 0.000392013)
(-0.00394137 0.0116151 0.000515902)
(-0.0155976 0.0456825 0.000298195)
(-0.0123748 0.08289 0.00122442)
(-0.0244658 0.130827 0.00151385)
(-0.0239777 0.161748 0.0010552)
(-0.00313092 0.143589 0.000471528)
(0.0083268 0.125528 0.00220078)
(0.0235965 0.141693 0.0011987)
(0.0231488 0.132646 0.00166035)
(-0.000682029 0.0826985 0.000118507)
(-0.00384597 0.0388377 0.000234454)
(0.00114979 0.00183731 -4.85638e-05)
(-0.0147416 -0.0397337 -0.000179511)
(-0.0233023 -0.132109 0.00159756)
(-0.0229278 -0.159034 0.000833135)
(-0.0136193 -0.134738 0.000526559)
(-0.00581848 -0.100227 0.000394471)
(0.00161509 -0.144614 0.000577115)
(0.00345736 -0.144747 0.000424753)
(0.00181816 -0.0907758 0.000347742)
(-0.00824738 0.02662 0.000373235)
(-0.0200483 0.0471703 0.000242949)
(-0.0235506 0.0876399 0.000977314)
(-0.0272837 0.130223 0.000856311)
(-0.0198241 0.152685 0.000675675)
(0.00674633 0.120669 -0.000228162)
(0.0277349 0.115502 0.000395356)
(0.0347645 0.129034 0.00173148)
(0.0379621 0.14164 0.00208892)
(0.0189078 0.0998669 0.00190118)
(-0.000569758 0.0411924 0.000994982)
(0.0103862 0.00367156 2.89045e-06)
(-0.00808167 -0.0282043 -8.60515e-05)
(-0.00862328 -0.133787 0.000865535)
(-0.00902302 -0.166278 0.000646427)
(-0.00600101 -0.13975 0.000325376)
(-0.00226606 -0.104438 0.00037283)
(0.000143952 -0.146728 0.000299697)
(0.000446182 -0.145915 9.46873e-05)
(-0.000517346 -0.0889681 8.77083e-05)
(-0.0073929 0.0418154 0.000143838)
(-0.0155669 0.0536118 6.11812e-05)
(-0.0204756 0.0894056 0.000381281)
(-0.0190412 0.121919 0.000545039)
(-0.00591821 0.127058 0.000219915)
(0.00818834 0.0895966 -0.000463089)
(0.0257774 0.100258 -0.000132318)
(0.0279866 0.125998 0.000897652)
(0.0321882 0.145673 0.00156)
(0.0245783 0.110406 0.0014639)
(0.0121414 0.0483838 0.000775042)
(0.0148169 0.00723072 9.74111e-05)
(0.0048253 -0.0187068 0.000471451)
(-0.00143931 -0.131937 1.58373e-06)
(-0.00143748 -0.16992 -0.000216164)
(-0.000993955 -0.142952 0.000123872)
(-0.000691362 -0.107131 0.000418536)
(0.012812 -0.0167788 -0.00436297)
(0.0353963 -0.0209697 -0.00413396)
(0.0692077 -0.0257368 -0.00308667)
(0.10856 -0.0145112 -0.00130286)
(0.123091 0.00844988 0.000238214)
(0.106973 0.0250606 -0.00146237)
(0.0649256 0.0136182 0.000638872)
(0.0286934 0.0150554 0.00689683)
(-0.0158392 0.00536391 0.00733056)
(-0.0181845 -0.0261617 0.00668498)
(-0.0310763 -0.00523808 0.00648525)
(-0.0580846 0.0192424 0.000902904)
(-0.107569 0.0245023 -0.00233444)
(-0.132088 0.0255811 -0.00149609)
(-0.136305 0.00255623 -0.000781379)
(-0.106658 -0.0171245 -0.00180869)
(-0.0687552 -0.00895119 -0.00207876)
(-0.0398004 -0.0115615 -0.00249445)
(-0.017247 -0.0113724 -0.00259462)
(-0.00389096 -0.0124826 -0.0032271)
(0.0164469 -0.0262252 0.000620919)
(0.0450171 -0.0391991 3.93367e-05)
(0.0731352 -0.0425783 -0.000220594)
(0.0914228 -0.0263443 0.000533299)
(0.0980235 0.00110571 0.000626853)
(0.0899498 0.0172808 0.0015149)
(0.0691782 0.0456437 -0.00115994)
(0.026348 0.0721157 0.00102065)
(-0.00228841 0.0275702 0.00585685)
(-0.0413405 0.0233801 0.0054288)
(-0.0740428 0.0422568 -0.00149996)
(-0.0959014 0.0518168 -0.0049432)
(-0.12306 0.0220783 0.0022251)
(-0.126411 0.00882901 0.00179598)
(-0.119849 -0.0168348 0.00119301)
(-0.102547 -0.0341037 0.000374504)
(-0.0777812 -0.0358794 -0.000411069)
(-0.0482729 -0.0310678 -0.000147139)
(-0.0250331 -0.0221487 0.000151227)
(-0.00383635 -0.00901679 -0.000293647)
(0.0162098 -0.0794361 0.000164155)
(0.0462868 -0.0895451 -5.88063e-07)
(0.0718484 -0.0785918 -7.90732e-05)
(0.0928444 -0.0415814 0.000479387)
(0.0933564 0.00766774 0.000574186)
(0.0811467 0.0346966 0.000882302)
(0.0596898 0.0582243 0.00182463)
(0.0189921 0.122779 -0.00345259)
(-0.00699091 0.0835279 0.003956)
(-0.0427623 0.0686988 0.00227856)
(-0.0677674 0.0891006 -0.00566837)
(-0.106999 0.0571647 0.00056855)
(-0.126058 0.0339329 0.002996)
(-0.134851 0.0171575 0.00123034)
(-0.133709 -0.0304101 -7.89966e-05)
(-0.121473 -0.063469 -0.000350466)
(-0.0927796 -0.0815698 -0.0009275)
(-0.0633337 -0.0773697 -0.00113767)
(-0.0333169 -0.0565647 -0.000861178)
(-0.0116714 -0.0342309 -0.00039724)
(0.0135695 -0.107637 -3.63231e-06)
(0.0445472 -0.113494 -0.000193767)
(0.0645777 -0.0934119 -2.8767e-05)
(0.0804313 -0.0430013 0.000793543)
(0.0774416 0.0186136 0.000441786)
(0.0628091 0.0534676 0.000810752)
(0.0394171 0.0849647 0.00189816)
(0.00613131 0.160295 -0.0039993)
(-0.0077615 0.12877 0.000243003)
(-0.0368205 0.10827 0.000109104)
(-0.0581222 0.117756 -0.00550879)
(-0.0993537 0.0755084 0.00257794)
(-0.112215 0.0589869 0.00210282)
(-0.129497 0.0265576 0.000591263)
(-0.131749 -0.0322806 0.000750078)
(-0.122708 -0.0814721 0.000531817)
(-0.0977412 -0.108265 -0.000400963)
(-0.0695193 -0.111322 -0.00062799)
(-0.0377349 -0.082631 -0.000393206)
(-0.0149153 -0.0639065 -0.000198173)
(0.0131754 -0.141101 -0.000307175)
(0.0358197 -0.142086 -0.000402826)
(0.0498994 -0.11406 9.19091e-05)
(0.0644932 -0.0395844 0.000978707)
(0.0497313 0.0309188 0.000281852)
(0.0340543 0.0746044 0.000510276)
(0.0152215 0.116072 0.00102106)
(0.00042621 0.176978 -0.0023695)
(-0.00846214 0.162455 -0.00200565)
(-0.0286986 0.13741 -0.00121772)
(-0.0368149 0.142845 -0.00490163)
(-0.0840579 0.0929599 0.00261542)
(-0.0910323 0.0691172 0.00133789)
(-0.106419 0.034985 0.000437382)
(-0.111262 -0.0294914 0.00121269)
(-0.11048 -0.097746 0.00114919)
(-0.0898638 -0.14002 -0.000405258)
(-0.0654901 -0.150521 -0.000660389)
(-0.0356738 -0.118497 -0.000185152)
(-0.012979 -0.0918379 -0.000189901)
(0.00879097 -0.157808 -0.000383437)
(0.026018 -0.157326 -0.000431281)
(0.0353207 -0.119879 0.000231795)
(0.0443985 -0.0210337 0.000811641)
(0.0178331 0.0489406 0.000168729)
(0.0121269 0.0849752 0.00034329)
(0.00527725 0.122019 0.000399254)
(-0.00465194 0.193025 -0.00238205)
(-0.00538295 0.178093 -0.00221012)
(-0.0158488 0.150056 -0.00158688)
(-0.00632997 0.164628 -0.00473333)
(-0.0485276 0.118508 0.0015123)
(-0.0482469 0.088643 0.00130588)
(-0.0565646 0.0525436 0.000322888)
(-0.0681592 -0.0107052 0.000882499)
(-0.080631 -0.084398 0.00195341)
(-0.0662233 -0.153862 -9.0531e-06)
(-0.0546274 -0.171839 -0.000870322)
(-0.0290323 -0.141341 -0.000517384)
(-0.0108439 -0.113264 -0.000308702)
(0.00552217 -0.173563 -0.000410866)
(0.0161416 -0.174125 -0.000459334)
(0.0193055 -0.120195 0.000218833)
(0.0117473 -0.000371043 0.000240836)
(-0.0055282 0.0539175 0.000372273)
(0.00470002 0.0859811 0.00038941)
(-0.00436851 0.132242 0.000563293)
(-0.0213177 0.195688 -0.00270721)
(-0.00263447 0.176835 -0.00166905)
(-5.47377e-05 0.15217 -0.00242329)
(0.022005 0.171165 -0.00468707)
(-0.0187523 0.133249 0.000218098)
(-0.0177587 0.088901 0.00067527)
(-0.0129143 0.0575746 0.000203997)
(-0.0124378 0.0127606 -9.20033e-05)
(-0.0384722 -0.05553 0.00102296)
(-0.0409239 -0.164423 0.00056981)
(-0.033822 -0.197113 -0.00063398)
(-0.0217297 -0.162187 -0.000668248)
(-0.00691349 -0.129845 -0.000379829)
(0.00246034 -0.180649 -0.000484142)
(0.00686677 -0.17948 -0.000361881)
(0.00754668 -0.110922 -1.88495e-05)
(-0.00404581 0.0135027 0.000133549)
(-0.0159913 0.0508934 0.000126686)
(-0.0113492 0.0903988 0.000417212)
(-0.0254197 0.147737 -0.000493411)
(-0.0255874 0.186201 -0.00138887)
(-5.57892e-05 0.155499 -0.000996539)
(0.0162667 0.138998 -0.00119718)
(0.0364404 0.161569 -0.00333854)
(0.0214431 0.155866 0.00121832)
(-0.00451003 0.0895216 0.000397975)
(-0.00516543 0.0458742 6.58114e-05)
(0.000560296 0.00531014 -0.000145871)
(-0.0156735 -0.0380856 0.000299777)
(-0.0211629 -0.155191 0.000305961)
(-0.019492 -0.20593 -0.000392481)
(-0.0115252 -0.17268 -0.000552469)
(-0.00477629 -0.138675 -0.000362595)
(0.0011781 -0.185065 -0.00036345)
(0.00327632 -0.183829 -0.000270337)
(0.00140207 -0.108076 -0.000150922)
(-0.00854649 0.029974 0.000146905)
(-0.0212991 0.0540576 -5.95409e-05)
(-0.024588 0.0988933 0.000126898)
(-0.0286751 0.146987 -0.000624453)
(-0.0174495 0.169669 -0.000432371)
(0.0102294 0.130196 -0.000144714)
(0.0311502 0.127303 -0.000129165)
(0.0378962 0.148342 -0.000941137)
(0.0395332 0.176676 -0.000614016)
(0.0157119 0.111928 0.000690556)
(-0.00147999 0.0484924 0.000167006)
(0.0105467 0.00668342 -3.60005e-05)
(-0.00857374 -0.0269565 0.000270417)
(-0.00759504 -0.154453 2.88201e-05)
(-0.00807694 -0.214858 -0.000302986)
(-0.00539175 -0.180569 -0.000338809)
(-0.00182629 -0.144203 -0.000329883)
(0.000207201 -0.19045 -0.000171208)
(0.000369713 -0.187688 -6.6117e-05)
(-0.000762241 -0.105902 8.86344e-05)
(-0.00768703 0.0469392 0.00010789)
(-0.016386 0.0615796 -6.99316e-05)
(-0.0216142 0.101415 -7.00176e-05)
(-0.0188793 0.137307 -3.83847e-05)
(-0.00325155 0.140939 0.000106762)
(0.00928941 0.0973249 7.44388e-05)
(0.0274983 0.113938 7.00622e-05)
(0.0274974 0.148232 -0.000218007)
(0.0326658 0.180829 -0.000793163)
(0.0250037 0.130862 0.000267255)
(0.0128335 0.0579012 -1.8674e-05)
(0.0155235 0.0113204 -0.000139648)
(0.00493815 -0.016814 -0.000172563)
(-0.00135277 -0.15048 0.000157521)
(-0.00113682 -0.222142 0.000197424)
(-0.000827571 -0.185909 -4.2001e-05)
(-0.000506158 -0.147712 -0.000197649)
(0.0135944 -0.0357018 -1.21375e-05)
(0.0367447 -0.0369527 -1.94786e-05)
(0.069107 -0.0412107 -1.84672e-05)
(0.10703 -0.0311075 -5.59396e-06)
(0.126456 -0.00547627 -1.58579e-06)
(0.111057 0.0203064 -1.05933e-05)
(0.0664831 0.024183 -1.13099e-05)
(0.0377965 0.025292 0.00024073)
(-0.0137552 0.0228341 -0.000167924)
(-0.00870776 0.00681848 0.000273829)
(-0.0128515 0.019123 0.000249429)
(-0.0608168 0.024648 -8.86757e-05)
(-0.111631 0.0336166 -0.000102184)
(-0.138939 0.0135438 -1.3479e-05)
(-0.136594 -0.0118742 -8.83293e-06)
(-0.105299 -0.0292023 -7.43512e-06)
(-0.068629 -0.0216818 -3.585e-05)
(-0.0397436 -0.0245688 -1.33416e-05)
(-0.0171809 -0.0243719 -1.0871e-05)
(-0.00362639 -0.0268651 -5.20871e-06)
(0.0170235 -0.0604931 1.16138e-05)
(0.046428 -0.0640568 9.43038e-06)
(0.073604 -0.0604517 6.31094e-06)
(0.0935992 -0.0359383 7.84719e-06)
(0.0994422 -0.00400206 -1.29362e-06)
(0.0920298 0.0130789 2.51784e-06)
(0.0684937 0.0398044 -3.38892e-05)
(0.0281966 0.139598 0.00014219)
(-0.0109962 0.113459 0.000169736)
(-0.0109094 0.0767531 9.24469e-05)
(-0.0276945 0.113643 -0.00029859)
(-0.0988683 0.0518024 -3.07519e-05)
(-0.127221 0.0166067 7.24067e-05)
(-0.129057 0.00274868 -9.29737e-06)
(-0.123504 -0.0244575 2.45518e-05)
(-0.106597 -0.0453657 -4.17433e-06)
(-0.080492 -0.0480041 1.83599e-05)
(-0.051106 -0.0427096 1.15872e-05)
(-0.0274458 -0.0351562 4.33587e-06)
(-0.00560185 -0.0329477 2.64011e-06)
(0.0156152 -0.106691 4.7721e-06)
(0.0457958 -0.111589 9.21445e-06)
(0.0700845 -0.0955166 8.36381e-06)
(0.0934534 -0.0505371 2.20965e-06)
(0.094842 0.00416385 3.28393e-07)
(0.0842367 0.0320394 1.15277e-05)
(0.0604532 0.0557327 5.18143e-06)
(0.0182336 0.177987 -9.26209e-05)
(-0.00510869 0.166736 0.000178853)
(-0.0179049 0.110411 -0.000280492)
(-0.0374392 0.13588 -0.00014283)
(-0.111615 0.0551211 1.1772e-05)
(-0.130126 0.0300843 1.13344e-05)
(-0.13801 0.0123602 -4.55509e-06)
(-0.136995 -0.0400134 7.53104e-06)
(-0.122924 -0.0780712 -2.62129e-06)
(-0.0938919 -0.100581 1.34525e-05)
(-0.0647308 -0.0964965 3.27606e-06)
(-0.0342156 -0.0754878 1.12749e-06)
(-0.0135281 -0.0635974 6.35852e-06)
(0.0142506 -0.129697 1.41491e-06)
(0.0424635 -0.133348 1.4396e-06)
(0.0613735 -0.108939 8.00417e-07)
(0.0803146 -0.0491677 -4.94472e-06)
(0.0783638 0.0171001 2.27995e-06)
(0.0647429 0.0526329 1.17809e-05)
(0.0428175 0.0835369 1.09363e-05)
(0.0072011 0.201715 -0.000128899)
(-0.00330889 0.190382 -4.81957e-05)
(-0.0198475 0.131439 5.55913e-05)
(-0.0371845 0.145908 8.85078e-05)
(-0.103558 0.0739391 6.37123e-06)
(-0.116111 0.0569247 -2.20541e-05)
(-0.13226 0.0239238 3.59741e-06)
(-0.134382 -0.0402058 -5.50777e-07)
(-0.122095 -0.0955076 -4.18383e-06)
(-0.0962745 -0.128199 3.74216e-06)
(-0.0689481 -0.134119 3.06366e-06)
(-0.0372305 -0.103299 5.37451e-06)
(-0.013835 -0.0895012 4.1577e-06)
(0.0130247 -0.160346 -1.08275e-06)
(0.0331884 -0.159453 2.67885e-07)
(0.0478593 -0.126374 -3.79464e-07)
(0.0652778 -0.0419131 -4.49701e-06)
(0.0508218 0.0308704 5.42577e-06)
(0.0355799 0.0749623 1.94893e-06)
(0.0188483 0.115369 5.3449e-06)
(0.00249487 0.209921 -4.90099e-05)
(-0.00104536 0.201889 -7.35958e-05)
(-0.0132005 0.147902 3.44567e-05)
(-0.0256275 0.157299 0.000105521)
(-0.0888621 0.093333 2.38341e-05)
(-0.0943218 0.0688571 -2.64757e-05)
(-0.108758 0.0372882 4.91313e-06)
(-0.113807 -0.0295882 -3.07837e-07)
(-0.108588 -0.105806 -1.01717e-06)
(-0.0853092 -0.15583 6.65022e-06)
(-0.0638008 -0.170213 1.41065e-05)
(-0.0340502 -0.138678 1.26886e-05)
(-0.0120207 -0.115059 -3.99175e-06)
(0.00761958 -0.174837 -1.23393e-07)
(0.0246765 -0.173981 9.91654e-07)
(0.0341313 -0.128907 -1.77263e-06)
(0.0454501 -0.0210191 -5.5755e-07)
(0.0190775 0.0493857 2.52049e-06)
(0.0136172 0.0857776 -2.69612e-06)
(0.00854945 0.12282 1.41142e-05)
(-0.00480903 0.217437 -1.5493e-05)
(0.000171571 0.200957 -4.9731e-05)
(-0.000654989 0.157563 -2.04171e-05)
(0.00433081 0.173928 7.33988e-05)
(-0.0538927 0.122303 1.45753e-05)
(-0.0497873 0.0911321 -1.48425e-05)
(-0.0584376 0.0580007 8.54771e-07)
(-0.0714689 -0.00654637 3.99139e-06)
(-0.0815432 -0.0856775 3.12832e-06)
(-0.0630134 -0.167334 1.92453e-06)
(-0.0506462 -0.189874 1.43444e-06)
(-0.0278175 -0.157553 2.01994e-05)
(-0.00985724 -0.132225 -3.74198e-06)
(0.0059566 -0.188991 5.35516e-08)
(0.0146969 -0.187969 -5.87923e-07)
(0.0187567 -0.125344 -1.63011e-06)
(0.0119246 0.000117956 2.72958e-06)
(-0.00491122 0.055202 1.59832e-06)
(0.00600194 0.0873491 -8.37023e-08)
(-0.00232303 0.136232 1.03025e-05)
(-0.0217054 0.214033 1.91682e-06)
(0.00132241 0.190836 -2.82909e-05)
(0.0130193 0.157635 -3.13744e-05)
(0.0314418 0.177669 3.7395e-05)
(-0.022177 0.138522 2.09296e-05)
(-0.0201193 0.0923311 -6.30175e-06)
(-0.0143405 0.0631689 -5.83289e-06)
(-0.0140815 0.0186266 3.77336e-07)
(-0.0394574 -0.0539642 -1.57632e-06)
(-0.0399305 -0.172443 -1.54902e-06)
(-0.0323077 -0.212862 -5.82781e-06)
(-0.0201019 -0.178322 1.07299e-05)
(-0.00642501 -0.147339 4.11862e-06)
(0.00193148 -0.195095 9.58489e-08)
(0.00654882 -0.192189 -5.83686e-07)
(0.0072615 -0.115096 -1.22887e-06)
(-0.00406351 0.0143686 9.0489e-07)
(-0.0159294 0.0532748 9.05055e-07)
(-0.0105911 0.093484 -6.39644e-08)
(-0.025234 0.1558 -9.14127e-06)
(-0.0246642 0.198754 -1.20905e-05)
(0.00522903 0.154085 -1.20831e-05)
(0.0234703 0.143853 -2.11666e-05)
(0.0399769 0.170851 -3.07566e-05)
(0.0223173 0.170108 4.43935e-06)
(-0.00673036 0.094085 -7.31741e-06)
(-0.0060165 0.0511513 -8.99889e-06)
(-3.34989e-06 0.00861449 -3.36766e-06)
(-0.0159259 -0.0367152 -2.65029e-06)
(-0.0205796 -0.159374 6.73739e-08)
(-0.0180639 -0.219216 -4.10902e-06)
(-0.010811 -0.186464 -2.47606e-06)
(-0.00430598 -0.154483 4.00528e-06)
(0.0012967 -0.198931 -2.87776e-07)
(0.00309222 -0.195623 -7.97866e-08)
(0.00111234 -0.111769 -1.94171e-06)
(-0.00863819 0.0314076 -1.46451e-06)
(-0.0216367 0.0573358 -1.08675e-06)
(-0.0246217 0.104633 -2.62208e-06)
(-0.0285427 0.155643 -7.87799e-06)
(-0.0126609 0.176112 -9.77772e-06)
(0.0134448 0.132807 -1.00451e-05)
(0.033014 0.133378 -2.67994e-06)
(0.037275 0.162758 -1.92993e-05)
(0.0388294 0.201054 1.52461e-05)
(0.013373 0.119081 -1.45162e-05)
(-0.00203618 0.0536465 -1.13475e-05)
(0.0104927 0.0091248 -4.14772e-06)
(-0.00872348 -0.026116 -2.79979e-06)
(-0.00726863 -0.157318 1.71315e-06)
(-0.00790946 -0.226778 -2.77596e-06)
(-0.00521849 -0.193965 -3.73472e-06)
(-0.00169726 -0.160016 1.05974e-06)
(0.000135805 -0.204957 6.98914e-08)
(0.000354604 -0.1999 1.51433e-07)
(-0.000795166 -0.109092 -3.93885e-07)
(-0.00773988 0.0491782 -1.95106e-06)
(-0.0165127 0.0653438 -1.16909e-06)
(-0.0217368 0.107467 -3.93571e-06)
(-0.0177762 0.145242 -4.31196e-06)
(-0.000835271 0.148445 4.4386e-06)
(0.00977887 0.100678 7.66347e-06)
(0.0278541 0.122857 9.0057e-06)
(0.0245427 0.165279 1.70519e-07)
(0.0301468 0.206504 7.72913e-06)
(0.0241844 0.143439 -5.16942e-06)
(0.0130617 0.064176 -8.29815e-06)
(0.0158253 0.0143466 -6.96565e-06)
(0.00493543 -0.0157208 -2.02978e-06)
(-0.00137117 -0.153051 1.73776e-07)
(-0.00109442 -0.233974 -3.22253e-07)
(-0.000726386 -0.199756 -5.46653e-08)
(-0.000449872 -0.164057 1.09371e-07)
(0.0128197 -0.0167552 0.00434378)
(0.0353853 -0.0209402 0.00410793)
(0.0692206 -0.0257484 0.00306246)
(0.108539 -0.0145329 0.00129083)
(0.12312 0.00843479 -0.000240028)
(0.10698 0.0251505 0.00143268)
(0.0645239 0.0139024 -0.000717388)
(0.0284524 0.0144818 -0.00699012)
(-0.015655 0.00420444 -0.00718139)
(-0.0179562 -0.0246271 -0.00658869)
(-0.0295443 -0.00289481 -0.00630713)
(-0.0572231 0.0214402 -0.000817463)
(-0.108127 0.0236522 0.00228422)
(-0.131984 0.025397 0.00141854)
(-0.136245 0.00260737 0.000786327)
(-0.106656 -0.0170906 0.00179388)
(-0.0687742 -0.00901549 0.00202731)
(-0.0397853 -0.0116126 0.00247422)
(-0.0172379 -0.0113133 0.00257907)
(-0.0038962 -0.0124714 0.00321767)
(0.0164426 -0.0262919 -0.000613431)
(0.0450265 -0.0393188 -2.81387e-05)
(0.07315 -0.0426642 0.000230496)
(0.0914129 -0.026368 -0.000524106)
(0.0980499 0.00108705 -0.00062908)
(0.0899342 0.0172662 -0.0015029)
(0.0690092 0.0458328 0.00108267)
(0.0264697 0.0731397 -0.000764802)
(-0.00156281 0.0268725 -0.00569256)
(-0.0397382 0.0245629 -0.00562411)
(-0.0716653 0.0424775 0.000869457)
(-0.097155 0.0518038 0.00499473)
(-0.122957 0.0216892 -0.00217757)
(-0.126466 0.00886865 -0.00182478)
(-0.119866 -0.0168969 -0.00116493)
(-0.102523 -0.0341085 -0.000374812)
(-0.0778437 -0.0360792 0.00044516)
(-0.0482631 -0.0311161 0.000169196)
(-0.0250578 -0.0221918 -0.000151582)
(-0.00382732 -0.00904436 0.000294976)
(0.0162108 -0.0794486 -0.000157628)
(0.0462852 -0.0895803 1.36692e-05)
(0.0718465 -0.0786105 9.22758e-05)
(0.0928474 -0.0415613 -0.000475517)
(0.0933318 0.00764173 -0.000575835)
(0.0812104 0.034664 -0.000859468)
(0.0595243 0.0582292 -0.00182874)
(0.0190367 0.124006 0.00347581)
(-0.00637214 0.0837846 -0.00397312)
(-0.0431138 0.0678148 -0.00254502)
(-0.0681252 0.087978 0.00555439)
(-0.107323 0.0571349 -0.000575763)
(-0.126018 0.0338989 -0.00299406)
(-0.134864 0.0171051 -0.00124084)
(-0.133709 -0.0303873 8.66653e-05)
(-0.121466 -0.0634569 0.000354273)
(-0.092795 -0.0816376 0.000949561)
(-0.0633302 -0.0774064 0.0011439)
(-0.0333155 -0.0566059 0.000864287)
(-0.0116809 -0.0342501 0.000403495)
(0.0135675 -0.107626 5.80027e-06)
(0.0445501 -0.1135 0.000193889)
(0.064572 -0.0934137 3.16162e-05)
(0.0804375 -0.0429849 -0.000800644)
(0.0774078 0.0185739 -0.000438131)
(0.0628329 0.0535086 -0.000793927)
(0.0394425 0.0847968 -0.00188738)
(0.00621181 0.16062 0.00386069)
(-0.00711894 0.128754 -0.000373341)
(-0.0371162 0.108019 -0.000141939)
(-0.0585099 0.117448 0.00560729)
(-0.0993539 0.0755285 -0.00256818)
(-0.112139 0.0591336 -0.00213082)
(-0.129533 0.0264777 -0.000582197)
(-0.131725 -0.0322444 -0.000753692)
(-0.122712 -0.0814657 -0.000533415)
(-0.097735 -0.108305 0.000410623)
(-0.069514 -0.111368 0.000629254)
(-0.0377374 -0.0827026 0.000404982)
(-0.014909 -0.0638951 0.000202999)
(0.0131762 -0.141096 0.000306136)
(0.0358179 -0.142093 0.000402731)
(0.0498962 -0.114069 -9.14274e-05)
(0.0644921 -0.0395893 -0.000985653)
(0.0497052 0.0308964 -0.000273471)
(0.0340795 0.0746486 -0.000507229)
(0.0152174 0.115965 -0.00101754)
(0.000489951 0.177033 0.00229033)
(-0.00809722 0.162366 0.00190074)
(-0.0289197 0.13743 0.00118679)
(-0.0370243 0.14286 0.00499217)
(-0.08402 0.0929713 -0.00257003)
(-0.0909816 0.0691999 -0.00137606)
(-0.106461 0.0349682 -0.000428736)
(-0.111251 -0.0294914 -0.00121333)
(-0.110505 -0.0977268 -0.00114884)
(-0.0898591 -0.140048 0.00041294)
(-0.0654915 -0.150586 0.00067074)
(-0.035649 -0.118634 0.000217529)
(-0.0129938 -0.0917979 0.000185949)
(0.00877094 -0.157807 0.000383257)
(0.0260329 -0.15734 0.000433486)
(0.0353204 -0.119885 -0.000233056)
(0.0443965 -0.021041 -0.00081251)
(0.017822 0.0489267 -0.00016489)
(0.0121336 0.0850058 -0.00034721)
(0.00528652 0.121939 -0.000383328)
(-0.00457703 0.192975 0.00234387)
(-0.00527083 0.178025 0.00216788)
(-0.0160645 0.150124 0.00156848)
(-0.00653973 0.16472 0.0047675)
(-0.0484805 0.11851 -0.00148556)
(-0.0482541 0.0886536 -0.00132674)
(-0.056598 0.0525399 -0.000322854)
(-0.0681736 -0.0107013 -0.000875732)
(-0.0806449 -0.0843781 -0.00194734)
(-0.066238 -0.153823 4.24096e-06)
(-0.0546264 -0.171832 0.000870798)
(-0.0290158 -0.141466 0.00056065)
(-0.0108503 -0.113266 0.000305522)
(0.00552572 -0.173559 0.000411073)
(0.0161362 -0.174133 0.00045958)
(0.0193017 -0.12021 -0.000219719)
(0.0117509 -0.00037374 -0.000236296)
(-0.00552906 0.0539104 -0.000370161)
(0.00470224 0.0859901 -0.000389101)
(-0.00435126 0.132227 -0.000548573)
(-0.0212474 0.195644 0.00270603)
(-0.00259494 0.176793 0.00163443)
(-0.000225413 0.152224 0.0024362)
(0.0218143 0.171274 0.00476119)
(-0.0187202 0.133285 -0.000181807)
(-0.0177215 0.0889343 -0.000681582)
(-0.0129356 0.0575885 -0.000211856)
(-0.012455 0.0127517 9.46732e-05)
(-0.0384784 -0.0555207 -0.00102108)
(-0.0409468 -0.164387 -0.000573223)
(-0.0338239 -0.197115 0.000621616)
(-0.0217046 -0.162324 0.000686677)
(-0.00691326 -0.129856 0.000386507)
(0.0024602 -0.180645 0.000484192)
(0.00686774 -0.179488 0.00036122)
(0.0075467 -0.110938 1.63403e-05)
(-0.00404131 0.013504 -0.000131623)
(-0.0159897 0.0508927 -0.000124825)
(-0.0113467 0.0904066 -0.000415156)
(-0.0254098 0.147703 0.000485351)
(-0.0255644 0.18611 0.00137434)
(-3.41264e-05 0.15541 0.000972075)
(0.016216 0.138983 0.00117717)
(0.0364075 0.161624 0.0033781)
(0.0213236 0.155675 -0.00121011)
(-0.00444156 0.0895163 -0.000412011)
(-0.00515732 0.0458738 -7.83975e-05)
(0.000555744 0.00529869 0.000142479)
(-0.0156707 -0.0380899 -0.000300765)
(-0.0211721 -0.155149 -0.000302331)
(-0.0194922 -0.205927 0.000381794)
(-0.0115105 -0.172822 0.000557982)
(-0.00477442 -0.138651 0.000371275)
(0.00117724 -0.18506 0.000363142)
(0.00327595 -0.18383 0.000269472)
(0.00140217 -0.108097 0.000146532)
(-0.00854726 0.0299743 -0.00014913)
(-0.0213008 0.0540597 5.82813e-05)
(-0.0246005 0.0988868 -0.000135555)
(-0.0286959 0.146906 0.000607084)
(-0.0174472 0.169527 0.000403862)
(0.0102226 0.130101 0.000113593)
(0.0311652 0.127283 0.000112874)
(0.0379287 0.148341 0.000936469)
(0.0394694 0.176397 0.000615157)
(0.0157633 0.111862 -0.000713021)
(-0.00146267 0.0484752 -0.000183813)
(0.0105487 0.00665849 3.05274e-05)
(-0.00857246 -0.0269643 -0.000274967)
(-0.00759536 -0.154395 -3.01841e-05)
(-0.00807749 -0.214842 0.000296527)
(-0.00539293 -0.180739 0.000342714)
(-0.00182526 -0.144183 0.000332196)
(0.000207286 -0.190445 0.000171188)
(0.00036953 -0.187683 6.39762e-05)
(-0.000762829 -0.105928 -8.99458e-05)
(-0.00768834 0.0469266 -0.00011119)
(-0.0163873 0.0615844 6.86035e-05)
(-0.0216258 0.101395 6.12435e-05)
(-0.0189019 0.137215 2.54056e-05)
(-0.00327055 0.140821 -0.000108783)
(0.00927199 0.09722 -7.85476e-05)
(0.0275125 0.113936 -5.9689e-05)
(0.0275138 0.148249 0.000214235)
(0.0326773 0.180626 0.000796425)
(0.0250108 0.130717 -0.000274405)
(0.0128352 0.0578236 5.07199e-06)
(0.015516 0.0112562 0.000132412)
(0.00493886 -0.0168463 0.000169109)
(-0.00135467 -0.150412 -0.000158376)
(-0.00113673 -0.222123 -0.000199457)
(-0.000827764 -0.1861 3.9478e-05)
(-0.000505873 -0.14769 0.000198554)
(0.0110934 0.0164774 0.00398272)
(0.032707 0.0112416 0.00453697)
(0.069916 0.0110861 0.000756134)
(0.106164 0.0192208 0.00212569)
(0.107395 0.0358986 0.00305822)
(0.0929276 0.0325753 0.00288538)
(0.0639087 -0.00748682 0.000889828)
(0.0345968 -0.0102218 -0.00302959)
(-0.00976576 -0.0206209 -0.00316141)
(-0.0209716 -0.0386617 -0.00321273)
(-0.0483532 -0.0241534 -0.00289235)
(-0.072457 -0.0121971 0.000971255)
(-0.0948591 0.00371883 0.00203427)
(-0.115205 0.0412573 0.0026997)
(-0.121489 0.0469037 0.00273643)
(-0.107588 0.0330758 0.00564617)
(-0.0689853 0.0151072 0.00364834)
(-0.0406419 0.0179694 0.000989819)
(-0.0178844 0.014424 0.00280413)
(-0.0051405 0.0135908 0.00265545)
(0.0149604 -0.00216399 0.00099561)
(0.0404294 -0.00971421 0.000446604)
(0.0682751 -0.0193181 0.00022526)
(0.0848419 -0.0119902 -0.000323737)
(0.0915514 0.0109031 0.000975508)
(0.0810216 0.0295805 -0.000176016)
(0.0531676 0.0450083 0.00249774)
(0.055717 0.0340344 0.00313787)
(0.0155699 0.0148185 -0.0025824)
(-0.0828917 0.0097385 -0.00070005)
(-0.102373 0.0286945 0.00528719)
(-0.095365 0.0471171 0.00687965)
(-0.0962896 0.0393314 -0.000443941)
(-0.114809 0.025264 0.00143314)
(-0.110526 -0.00476606 0.00100027)
(-0.093692 -0.0181383 -0.000933953)
(-0.0706603 -0.0189455 0.000311248)
(-0.0423074 -0.0147806 0.000294784)