/*--------------------------------*- C++ -*----------------------------------*\
| =========                 |                                                 |
| \\      /  F ield         | OpenFOAM: The Open Source CFD Toolbox           |
|  \\    /   O peration     | Version:  2.3.0                                 |
|   \\  /    A nd           | Web:      www.OpenFOAM.org                      |
|    \\/     M anipulation  |                                                 |
\*---------------------------------------------------------------------------*/
FoamFile
{
    version     2.0;
    format      ascii;
    class       volVectorField;
    location    "0.252";
    object      U;
}
// * * * * * * * * * * * * * * * * * * * * * * * * * * * * * * * * * * * * * //

dimensions      [0 1 -1 0 0 0 0];

internalField   nonuniform List<vector> 
545
(
(0.454612 0.0864994 4.22637e-29)
(0.403981 0.00700115 3.80625e-30)
(0.362293 0.00337934 -1.91041e-31)
(0.332898 0.00329638 0)
(0.301687 0.00855053 -8.55879e-31)
(0.460368 0.0266065 8.52691e-29)
(0.416293 0.0219689 1.06406e-29)
(0.36249 0.0213311 1.06209e-30)
(0.329926 0.0187213 0)
(0.298138 0.0211708 -1.24738e-30)
(0.466112 0.0432233 1.3216e-30)
(0.414886 0.0383098 5.74591e-31)
(0.358079 0.0340808 4.43339e-31)
(0.324532 0.0288639 0)
(0.292006 0.0316453 -4.32506e-31)
(0.464074 0.0608553 -1.65547e-28)
(0.399177 0.0527069 -3.40243e-30)
(0.349821 0.0465212 -2.82702e-31)
(0.315803 0.0387138 0)
(0.282544 0.0401537 -2.42907e-29)
(0.469087 0.00372467 -3.25207e-28)
(0.371667 0.0753072 1.2721e-30)
(0.339668 0.0632077 2.14641e-30)
(0.301933 0.0561804 7.87911e-30)
(0.263627 0.076568 -4.03507e-29)
(0.271397 0.00721415 0)
(0.257295 0.00157975 0)
(0.257772 -1.55157e-05 0)
(0.258473 -0.000498501 0)
(0.259491 -0.000259816 0)
(0.259749 -0.000156526 0)
(0.260009 -1.81681e-05 0)
(0.259932 -4.06034e-05 0)
(0.260054 2.3664e-05 0)
(0.259946 -2.82339e-05 0)
(0.260054 2.78675e-05 0)
(0.259947 -2.78048e-05 0)
(0.260052 2.84082e-05 0)
(0.259949 -2.83448e-05 0)
(0.26005 2.87927e-05 0)
(0.259951 -2.87578e-05 0)
(0.260047 2.91162e-05 0)
(0.259953 -2.91683e-05 0)
(0.260045 2.95155e-05 0)
(0.259955 -2.95371e-05 0)
(0.260043 2.98161e-05 0)
(0.259957 -2.98399e-05 0)
(0.26004 3.01221e-05 0)
(0.25996 -3.01889e-05 0)
(0.260037 3.04178e-05 0)
(0.259962 -3.04676e-05 0)
(0.260035 3.06522e-05 0)
(0.259965 -3.06962e-05 0)
(0.260032 3.09007e-05 0)
(0.259968 -3.08817e-05 0)
(0.260029 3.10832e-05 0)
(0.259971 -3.10744e-05 0)
(0.260026 3.12175e-05 0)
(0.259974 -3.12196e-05 0)
(0.260022 3.13669e-05 0)
(0.259977 -3.14505e-05 0)
(0.260019 3.15332e-05 0)
(0.25998 -3.15044e-05 0)
(0.260016 3.16042e-05 0)
(0.259983 -3.14939e-05 0)
(0.260012 3.15427e-05 0)
(0.259986 -3.13008e-05 0)
(0.260009 3.11985e-05 0)
(0.25999 -3.05036e-05 0)
(0.260003 2.95574e-05 0)
(0.26935 0.0150301 0)
(0.257336 0.00335919 0)
(0.258235 -3.91502e-05 0)
(0.258959 -0.000545567 0)
(0.259512 -0.000388205 0)
(0.259904 -0.000133186 0)
(0.259899 -8.11436e-05 0)
(0.260045 1.13547e-05 0)
(0.259942 -3.15014e-05 0)
(0.260055 2.68619e-05 0)
(0.259946 -2.7898e-05 0)
(0.260053 2.83964e-05 0)
(0.259948 -2.83624e-05 0)
(0.260051 2.87054e-05 0)
(0.25995 -2.88224e-05 0)
(0.260049 2.91102e-05 0)
(0.259952 -2.92944e-05 0)
(0.260047 2.94593e-05 0)
(0.259955 -2.96069e-05 0)
(0.260045 2.98186e-05 0)
(0.259957 -3.0003e-05 0)
(0.260042 3.01877e-05 0)
(0.259959 -3.03213e-05 0)
(0.26004 3.04258e-05 0)
(0.259962 -3.05907e-05 0)
(0.260037 3.07087e-05 0)
(0.259965 -3.0898e-05 0)
(0.260035 3.101e-05 0)
(0.259968 -3.1115e-05 0)
(0.260032 3.12846e-05 0)
(0.259971 -3.13411e-05 0)
(0.260029 3.14705e-05 0)
(0.259974 -3.15801e-05 0)
(0.260026 3.16748e-05 0)
(0.259977 -3.17179e-05 0)
(0.260023 3.16749e-05 0)
(0.25998 -3.17692e-05 0)
(0.26002 3.18687e-05 0)
(0.259984 -3.18395e-05 0)
(0.260017 3.19499e-05 0)
(0.259987 -3.18293e-05 0)
(0.260013 3.18511e-05 0)
(0.25999 -3.15215e-05 0)
(0.260009 3.1227e-05 0)
(0.259993 -3.00321e-05 0)
(0.26624 0.0240747 0)
(0.256696 0.00464213 0)
(0.259256 -0.000238738 0)
(0.259487 -0.000885932 0)
(0.259937 -0.000491777 0)
(0.259897 -0.000251716 0)
(0.260047 -4.94443e-05 0)
(0.259939 -4.98214e-05 0)
(0.260054 2.1607e-05 0)
(0.259945 -2.93057e-05 0)
(0.260054 2.82114e-05 0)
(0.259947 -2.8237e-05 0)
(0.260052 2.87519e-05 0)
(0.259949 -2.88615e-05 0)
(0.26005 2.91794e-05 0)
(0.259951 -2.92672e-05 0)
(0.260048 2.94781e-05 0)
(0.259953 -2.97279e-05 0)
(0.260046 2.99852e-05 0)
(0.259956 -3.0103e-05 0)
(0.260043 3.02653e-05 0)
(0.259958 -3.04053e-05 0)
(0.260041 3.06067e-05 0)
(0.259961 -3.08299e-05 0)
(0.260038 3.09414e-05 0)
(0.259963 -3.10862e-05 0)
(0.260036 3.11343e-05 0)
(0.259966 -3.13124e-05 0)
(0.260033 3.14478e-05 0)
(0.259969 -3.1474e-05 0)
(0.26003 3.16433e-05 0)
(0.259972 -3.16952e-05 0)
(0.260027 3.17462e-05 0)
(0.259975 -3.1805e-05 0)
(0.260024 3.19365e-05 0)
(0.259978 -3.22269e-05 0)
(0.260021 3.22145e-05 0)
(0.259981 -3.21829e-05 0)
(0.260018 3.22916e-05 0)
(0.259985 -3.21532e-05 0)
(0.260014 3.22566e-05 0)
(0.259988 -3.20195e-05 0)
(0.260011 3.20126e-05 0)
(0.259992 -3.15856e-05 0)
(0.260007 3.16897e-05 0)
(0.261986 0.0307863 0)
(0.25696 0.00466646 0)
(0.260533 -0.00069357 0)
(0.260471 -0.000921076 0)
(0.260195 -0.000547286 0)
(0.260147 -0.000188936 0)
(0.259973 -9.8238e-05 0)
(0.260063 6.64826e-06 0)
(0.259945 -3.3353e-05 0)
(0.260054 2.64264e-05 0)
(0.259946 -2.81404e-05 0)
(0.260053 2.8559e-05 0)
(0.259948 -2.85962e-05 0)
(0.260051 2.88809e-05 0)
(0.25995 -2.89948e-05 0)
(0.260049 2.93688e-05 0)
(0.259952 -2.95653e-05 0)
(0.260047 2.96865e-05 0)
(0.259955 -2.97885e-05 0)
(0.260045 3.00694e-05 0)
(0.259957 -3.02737e-05 0)
(0.260042 3.04867e-05 0)
(0.259959 -3.0593e-05 0)
(0.26004 3.06407e-05 0)
(0.259962 -3.08375e-05 0)
(0.260037 3.10181e-05 0)
(0.259965 -3.12732e-05 0)
(0.260034 3.13264e-05 0)
(0.259968 -3.14436e-05 0)
(0.260031 3.16739e-05 0)
(0.25997 -3.17049e-05 0)
(0.260029 3.18553e-05 0)
(0.259974 -3.20316e-05 0)
(0.260026 3.21592e-05 0)
(0.259977 -3.21371e-05 0)
(0.260022 3.18732e-05 0)
(0.25998 -3.20486e-05 0)
(0.260019 3.22171e-05 0)
(0.259983 -3.21725e-05 0)
(0.260016 3.23938e-05 0)
(0.259986 -3.22719e-05 0)
(0.260013 3.24113e-05 0)
(0.25999 -3.2185e-05 0)
(0.260009 3.22296e-05 0)
(0.259992 -3.08361e-05 0)
(0.259411 0.0515912 0)
(0.259946 0.00422453 0)
(0.262622 -0.000707037 0)
(0.261244 -0.000825544 0)
(0.260626 -0.000374466 0)
(0.26012 -0.000183566 0)
(0.260111 -1.81794e-05 0)
(0.259957 -3.95399e-05 0)
(0.260058 2.4683e-05 0)
(0.259945 -2.94112e-05 0)
(0.260053 2.86652e-05 0)
(0.259947 -2.87845e-05 0)
(0.260052 2.91058e-05 0)
(0.259949 -2.93707e-05 0)
(0.26005 2.96609e-05 0)
(0.259951 -2.97215e-05 0)
(0.260048 2.99283e-05 0)
(0.259953 -3.02575e-05 0)
(0.260046 3.0555e-05 0)
(0.259956 -3.06482e-05 0)
(0.260043 3.0801e-05 0)
(0.259958 -3.09371e-05 0)
(0.260041 3.11647e-05 0)
(0.259961 -3.14749e-05 0)
(0.260038 3.15771e-05 0)
(0.259963 -3.16592e-05 0)
(0.260036 3.16706e-05 0)
(0.259966 -3.18999e-05 0)
(0.260033 3.20455e-05 0)
(0.259969 -3.20315e-05 0)
(0.26003 3.22055e-05 0)
(0.259972 -3.22896e-05 0)
(0.260027 3.22512e-05 0)
(0.259975 -3.23217e-05 0)
(0.260024 3.25653e-05 0)
(0.259978 -3.30485e-05 0)
(0.260021 3.29941e-05 0)
(0.259981 -3.29058e-05 0)
(0.260018 3.30465e-05 0)
(0.259985 -3.2852e-05 0)
(0.260015 3.29637e-05 0)
(0.259988 -3.28595e-05 0)
(0.260011 3.29309e-05 0)
(0.259992 -3.23048e-05 0)
(0.260006 3.41858e-05 0)
(0.268816 -2.66294e-05 0)
(0.262088 2.64427e-05 0)
(0.264306 -2.69391e-05 0)
(0.262014 2.72581e-05 0)
(0.260651 -2.76721e-05 0)
(0.260248 2.78962e-05 0)
(0.259991 -2.81906e-05 0)
(0.26007 2.84282e-05 0)
(0.259947 -2.87239e-05 0)
(0.260054 2.89977e-05 0)
(0.259946 -2.92815e-05 0)
(0.260053 2.95467e-05 0)
(0.259948 -2.98103e-05 0)
(0.260051 3.00464e-05 0)
(0.25995 -3.02978e-05 0)
(0.260049 3.05033e-05 0)
(0.259952 -3.07426e-05 0)
(0.260046 3.09583e-05 0)
(0.259954 -3.11795e-05 0)
(0.260044 3.1377e-05 0)
(0.259957 -3.15798e-05 0)
(0.260042 3.17529e-05 0)
(0.259959 -3.192e-05 0)
(0.260039 3.21002e-05 0)
(0.259961 -3.22888e-05 0)
(0.260037 3.24364e-05 0)
(0.259964 -3.25945e-05 0)
(0.260033 3.27306e-05 0)
(0.259967 -3.28741e-05 0)
(0.260031 3.29842e-05 0)
(0.25997 -3.30898e-05 0)
(0.260028 3.31982e-05 0)
(0.259972 -3.33241e-05 0)
(0.260025 3.34147e-05 0)
(0.259976 -3.35189e-05 0)
(0.260021 3.3585e-05 0)
(0.259978 -3.36759e-05 0)
(0.260018 3.37297e-05 0)
(0.259982 -3.37825e-05 0)
(0.260016 3.38309e-05 0)
(0.259986 -3.38647e-05 0)
(0.260013 3.39485e-05 0)
(0.259988 -3.3893e-05 0)
(0.260008 3.49185e-05 0)
(0.259994 -3.287e-05 0)
(0.469086 -0.0037738 0)
(0.371667 -0.0752579 2.50279e-31)
(0.339668 -0.0632574 -2.00064e-30)
(0.301934 -0.0561304 -7.87917e-30)
(0.263627 -0.0766186 0)
(0.464074 -0.0608061 0)
(0.399176 -0.0527562 0)
(0.349822 -0.0464716 0)
(0.315802 -0.0387639 -2.46219e-30)
(0.282545 -0.0401029 0)
(0.466112 -0.0432723 0)
(0.414886 -0.0382605 0)
(0.358078 -0.0341305 0)
(0.324532 -0.028814 -1.39183e-30)
(0.292005 -0.0316957 0)
(0.460368 -0.0265573 0)
(0.416292 -0.0220183 0)
(0.36249 -0.0212814 0)
(0.329925 -0.0187715 5.93267e-31)
(0.298138 -0.0211202 0)
(0.454612 -0.0865484 0)
(0.403981 -0.00695186 0)
(0.362293 -0.00342889 0)
(0.332899 -0.00324632 9.08689e-32)
(0.301687 -0.00860118 0)
(0.259413 -0.0515401 0)
(0.259946 -0.00427701 0)
(0.262622 0.000759838 0)
(0.261244 0.000772405 0)
(0.260626 0.000428438 0)
(0.26012 0.000129003 0)
(0.260111 7.34097e-05 0)
(0.259957 -1.63373e-05 0)
(0.260058 3.16333e-05 0)
(0.259945 -2.74786e-05 0)
(0.260053 2.8731e-05 0)
(0.259947 -2.91296e-05 0)
(0.260052 2.93297e-05 0)
(0.259949 -2.95299e-05 0)
(0.26005 2.97473e-05 0)
(0.259951 -3.01386e-05 0)
(0.260048 3.03565e-05 0)
(0.259953 -3.04477e-05 0)
(0.260046 3.05707e-05 0)
(0.259956 -3.08761e-05 0)
(0.260043 3.11152e-05 0)
(0.259958 -3.13705e-05 0)
(0.260041 3.14859e-05 0)
(0.259961 -3.14674e-05 0)
(0.260038 3.16934e-05 0)
(0.259963 -3.19285e-05 0)
(0.260036 3.2212e-05 0)
(0.259966 -3.22633e-05 0)
(0.260033 3.23997e-05 0)
(0.259969 -3.26919e-05 0)
(0.26003 3.27582e-05 0)
(0.259972 -3.28433e-05 0)
(0.260027 3.30604e-05 0)
(0.259975 -3.31767e-05 0)
(0.260024 3.31132e-05 0)
(0.259978 -3.27867e-05 0)
(0.260021 3.29917e-05 0)
(0.259981 -3.32071e-05 0)
(0.260018 3.32438e-05 0)
(0.259985 -3.35373e-05 0)
(0.260015 3.35507e-05 0)
(0.259988 -3.36719e-05 0)
(0.260012 3.38093e-05 0)
(0.259992 -3.38165e-05 0)
(0.260013 3.26197e-05 0)
(0.261986 -0.0308372 0)
(0.25696 -0.00461492 0)
(0.260533 0.000641208 0)
(0.260472 0.000974145 0)
(0.260195 0.000493591 0)
(0.260147 0.000243158 0)
(0.259973 4.34922e-05 0)
(0.260063 4.85643e-05 0)
(0.259945 -2.24988e-05 0)
(0.260054 2.99226e-05 0)
(0.259946 -2.87495e-05 0)
(0.260053 2.88673e-05 0)
(0.259948 -2.92949e-05 0)
(0.260051 2.9518e-05 0)
(0.25995 -2.98419e-05 0)
(0.260049 2.99167e-05 0)
(0.259952 -3.0163e-05 0)
(0.260047 3.04771e-05 0)
(0.259955 -3.07837e-05 0)
(0.260045 3.08993e-05 0)
(0.259957 -3.10693e-05 0)
(0.260042 3.12055e-05 0)
(0.259959 -3.14403e-05 0)
(0.26004 3.17529e-05 0)
(0.259962 -3.18856e-05 0)
(0.260037 3.20122e-05 0)
(0.259965 -3.20466e-05 0)
(0.260034 3.22758e-05 0)
(0.259968 -3.24098e-05 0)
(0.260031 3.24113e-05 0)
(0.25997 -3.2587e-05 0)
(0.260028 3.2674e-05 0)
(0.259974 -3.27062e-05 0)
(0.260026 3.27807e-05 0)
(0.259977 -3.29686e-05 0)
(0.260022 3.33992e-05 0)
(0.25998 -3.33592e-05 0)
(0.260019 3.33297e-05 0)
(0.259983 -3.34533e-05 0)
(0.260016 3.3337e-05 0)
(0.259986 -3.35149e-05 0)
(0.260013 3.35193e-05 0)
(0.25999 -3.38191e-05 0)
(0.26001 3.37809e-05 0)
(0.259993 -3.51415e-05 0)
(0.26624 -0.0240232 0)
(0.256695 -0.00469426 0)
(0.259257 0.000291297 0)
(0.259487 0.000832783 0)
(0.259937 0.000545511 0)
(0.259897 0.000197347 0)
(0.260047 0.000104454 0)
(0.259939 -5.80967e-06 0)
(0.260054 3.44649e-05 0)
(0.259945 -2.73655e-05 0)
(0.260054 2.8978e-05 0)
(0.259947 -2.9454e-05 0)
(0.260052 2.94566e-05 0)
(0.259949 -2.98138e-05 0)
(0.26005 2.99768e-05 0)
(0.259951 -3.03392e-05 0)
(0.260048 3.05645e-05 0)
(0.259953 -3.07421e-05 0)
(0.260046 3.08979e-05 0)
(0.259956 -3.11775e-05 0)
(0.260043 3.13947e-05 0)
(0.259958 -3.1626e-05 0)
(0.260041 3.17753e-05 0)
(0.259961 -3.18784e-05 0)
(0.260038 3.20946e-05 0)
(0.259963 -3.22621e-05 0)
(0.260036 3.25077e-05 0)
(0.259966 -3.26063e-05 0)
(0.260033 3.27347e-05 0)
(0.259969 -3.29572e-05 0)
(0.26003 3.30234e-05 0)
(0.259972 -3.31713e-05 0)
(0.260027 3.33234e-05 0)
(0.259975 -3.34549e-05 0)
(0.260024 3.34994e-05 0)
(0.259978 -3.33664e-05 0)
(0.260021 3.35242e-05 0)
(0.259981 -3.36775e-05 0)
(0.260018 3.37007e-05 0)
(0.259985 -3.39234e-05 0)
(0.260014 3.39244e-05 0)
(0.259988 -3.41965e-05 0)
(0.260011 3.42601e-05 0)
(0.259991 -3.5001e-05 0)
(0.260008 3.43768e-05 0)
(0.269349 -0.0150811 0)
(0.257336 -0.00330744 0)
(0.258235 -1.32869e-05 0)
(0.25896 0.000598776 0)
(0.259512 0.000334473 0)
(0.259904 0.000187544 0)
(0.259899 2.62948e-05 0)
(0.260045 4.39967e-05 0)
(0.259942 -2.45136e-05 0)
(0.260055 2.96156e-05 0)
(0.259947 -2.91202e-05 0)
(0.260053 2.91578e-05 0)
(0.259948 -2.96532e-05 0)
(0.260051 2.98263e-05 0)
(0.25995 -3.01499e-05 0)
(0.260049 3.03282e-05 0)
(0.259952 -3.05743e-05 0)
(0.260047 3.08428e-05 0)
(0.259955 -3.11023e-05 0)
(0.260045 3.12885e-05 0)
(0.259957 -3.14838e-05 0)
(0.260042 3.1662e-05 0)
(0.25996 -3.18725e-05 0)
(0.26004 3.21126e-05 0)
(0.259962 -3.22674e-05 0)
(0.260037 3.24599e-05 0)
(0.259965 -3.25614e-05 0)
(0.260035 3.27322e-05 0)
(0.259968 -3.28848e-05 0)
(0.260032 3.29634e-05 0)
(0.259971 -3.31243e-05 0)
(0.260029 3.32187e-05 0)
(0.259974 -3.33033e-05 0)
(0.260026 3.34051e-05 0)
(0.259977 -3.35285e-05 0)
(0.260023 3.37381e-05 0)
(0.25998 -3.37765e-05 0)
(0.26002 3.3821e-05 0)
(0.259984 -3.39429e-05 0)
(0.260017 3.39445e-05 0)
(0.259987 -3.41242e-05 0)
(0.260013 3.41888e-05 0)
(0.25999 -3.45469e-05 0)
(0.26001 3.47982e-05 0)
(0.259991 -3.62985e-05 0)
(0.271398 -0.0071627 0)
(0.257294 -0.00163163 0)
(0.257772 6.79809e-05 0)
(0.258473 0.000445589 0)
(0.259491 0.000313503 0)
(0.259749 0.000102376 0)
(0.260009 7.30625e-05 0)
(0.259933 -1.49095e-05 0)
(0.260055 3.21879e-05 0)
(0.259946 -2.83189e-05 0)
(0.260054 2.91529e-05 0)
(0.259947 -2.97111e-05 0)
(0.260052 2.96561e-05 0)
(0.259949 -3.014e-05 0)
(0.26005 3.02168e-05 0)
(0.259951 -3.06515e-05 0)
(0.260047 3.07731e-05 0)
(0.259953 -3.11182e-05 0)
(0.260045 3.12016e-05 0)
(0.259955 -3.15637e-05 0)
(0.260042 3.16726e-05 0)
(0.259957 -3.20026e-05 0)
(0.26004 3.20802e-05 0)
(0.25996 -3.2341e-05 0)
(0.260037 3.24475e-05 0)
(0.259962 -3.2696e-05 0)
(0.260035 3.28166e-05 0)
(0.259965 -3.30366e-05 0)
(0.260032 3.31066e-05 0)
(0.259968 -3.33503e-05 0)
(0.260029 3.33964e-05 0)
(0.259971 -3.35975e-05 0)
(0.260026 3.36803e-05 0)
(0.259974 -3.38465e-05 0)
(0.260022 3.38967e-05 0)
(0.259977 -3.39467e-05 0)
(0.260019 3.40332e-05 0)
(0.25998 -3.41573e-05 0)
(0.260016 3.41985e-05 0)
(0.259983 -3.43637e-05 0)
(0.260013 3.44127e-05 0)
(0.259986 -3.46816e-05 0)
(0.260009 3.48618e-05 0)
(0.259989 -3.55969e-05 0)
(0.260004 3.68021e-05 0)
)
;

boundaryField
{
    AirInlet
    {
        type            fixedValue;
        value           uniform (0.1 0 0);
    }
    WaterInlet
    {
        type            fixedValue;
        value           uniform (0.5 0 0);
    }
    ChannelWall
    {
        type            fixedValue;
        value           uniform (0 0 0);
    }
    Outlet
    {
        type            pressureInletOutletVelocity;
        value           nonuniform List<vector> 
11
(
(0.260003 2.95574e-05 0)
(0.259993 -3.00321e-05 0)
(0.260007 3.16897e-05 0)
(0.259992 -3.08361e-05 0)
(0.260006 3.41858e-05 0)
(0.259994 -3.287e-05 0)
(0.260013 3.26197e-05 0)
(0.259993 -3.51415e-05 0)
(0.260008 3.43768e-05 0)
(0.259991 -3.62985e-05 0)
(0.260004 3.68021e-05 0)
)
;
    }
    FrontAndBack
    {
        type            empty;
    }
}


// ************************************************************************* //
