/*--------------------------------*- C++ -*----------------------------------*\
| =========                 |                                                 |
| \\      /  F ield         | OpenFOAM: The Open Source CFD Toolbox           |
|  \\    /   O peration     | Version:  2.3.0                                 |
|   \\  /    A nd           | Web:      www.OpenFOAM.org                      |
|    \\/     M anipulation  |                                                 |
\*---------------------------------------------------------------------------*/
FoamFile
{
    version     2.0;
    format      ascii;
    class       volScalarField;
    location    "1.50226";
    object      alpha.water;
}
// * * * * * * * * * * * * * * * * * * * * * * * * * * * * * * * * * * * * * //

dimensions      [0 0 0 0 0 0 0];

internalField   nonuniform List<scalar> 
1000
(
0.922887
0.88854
0.8002
0.752293
0.800046
0.858114
0.854531
0.791757
0.815052
0.880152
0.87094
0.794668
0.856321
0.885316
0.843134
0.783826
0.757886
0.848717
0.924943
0.950914
0.970614
0.940817
0.908337
0.914951
0.933174
0.93318
0.920368
0.858709
0.84573
0.910638
0.90657
0.885472
0.934379
0.948423
0.936011
0.927266
0.917067
0.931392
0.967516
0.991354
0.979254
0.903241
0.916333
0.944909
0.953156
0.942543
0.908406
0.824349
0.833241
0.908644
0.904081
0.89314
0.930088
0.952037
0.955227
0.958325
0.935939
0.920906
0.930274
0.994772
0.99044
0.898157
0.960184
0.967594
0.962335
0.95013
0.906582
0.831286
0.857068
0.930129
0.933785
0.909838
0.924832
0.97072
0.974276
0.976739
0.978949
0.971539
0.963805
0.996829
0.996954
0.970495
0.984644
0.969948
0.934701
0.931038
0.879708
0.849255
0.889212
0.946215
0.942858
0.908101
0.887311
0.958935
0.966197
0.972712
0.989906
0.99584
0.995931
0.999905
0.999958
0.99935
0.991834
0.932099
0.858229
0.879337
0.870589
0.883815
0.93091
0.960887
0.95046
0.902275
0.853064
0.925153
0.935271
0.908914
0.954896
0.996391
0.999959
1
1
0.999882
0.98468
0.901623
0.85331
0.842934
0.884303
0.911734
0.957685
0.967295
0.943236
0.884809
0.856199
0.882082
0.891539
0.848275
0.902387
0.989286
0.999962
1
1
0.999867
0.989583
0.927191
0.875158
0.852619
0.915138
0.924972
0.97927
0.963694
0.912063
0.854864
0.892353
0.878968
0.853926
0.83379
0.882649
0.985692
0.999938
1
1
0.999998
0.999493
0.983961
0.933395
0.896894
0.969165
0.995061
0.997815
0.917646
0.858178
0.828154
0.917836
0.880141
0.83329
0.836766
0.918248
0.994644
0.999984
1
1
1
1
0.999934
0.99656
0.985387
0.999566
0.999996
0.999505
0.943256
0.85533
0.82876
0.968043
0.87204
0.838684
0.912109
0.996645
0.99997
1
1
0.883669
0.857352
0.766762
0.695639
0.720831
0.798197
0.788595
0.733436
0.77816
0.852554
0.841762
0.732397
0.772689
0.845634
0.792369
0.720569
0.701206
0.814776
0.893382
0.920263
0.914594
0.873786
0.831616
0.839048
0.853137
0.848476
0.843502
0.769123
0.800391
0.854446
0.842509
0.827186
0.867679
0.874714
0.836365
0.847295
0.845617
0.862494
0.928092
0.969047
0.948328
0.868194
0.856313
0.884462
0.880855
0.849676
0.813155
0.729383
0.749647
0.818777
0.813669
0.816913
0.854745
0.84301
0.850113
0.875608
0.86503
0.851477
0.929115
0.987004
0.978838
0.855988
0.91406
0.92512
0.920697
0.883871
0.823883
0.728241
0.761949
0.830242
0.827742
0.803841
0.838224
0.863979
0.902594
0.933482
0.93832
0.927621
0.903327
0.992316
0.99257
0.931636
0.954456
0.942366
0.919009
0.880745
0.831628
0.754806
0.80165
0.820592
0.836663
0.79866
0.820499
0.889817
0.945076
0.963842
0.968514
0.986142
0.992553
0.999799
0.999906
0.997508
0.965091
0.889358
0.886836
0.86658
0.833691
0.813197
0.803563
0.845396
0.852927
0.798233
0.794237
0.881467
0.93216
0.920228
0.914415
0.98485
0.999808
0.999999
0.999999
0.999135
0.938243
0.813269
0.845584
0.84707
0.827981
0.814515
0.851409
0.903454
0.867066
0.794759
0.785859
0.864128
0.914922
0.892093
0.850074
0.967933
0.99976
1
1
0.999316
0.960065
0.815012
0.795313
0.809406
0.798717
0.796797
0.926659
0.922113
0.859812
0.78865
0.793111
0.846559
0.894433
0.86715
0.831126
0.963118
0.999724
1
1
0.999985
0.995914
0.917167
0.802986
0.796793
0.84228
0.941269
0.985366
0.894638
0.842017
0.780044
0.792007
0.835129
0.872068
0.827371
0.858158
0.987349
0.999958
1
1
1
0.999996
0.998397
0.946933
0.899761
0.983364
0.999666
0.992524
0.865407
0.814166
0.768963
0.808907
0.81919
0.831445
0.81176
0.976227
0.999921
1
1
0.830488
0.810412
0.714474
0.590448
0.595811
0.65378
0.645836
0.605542
0.657038
0.793493
0.773622
0.615292
0.653917
0.761447
0.669984
0.603656
0.595728
0.717755
0.804725
0.84354
0.833601
0.822134
0.77777
0.697577
0.710988
0.699207
0.694118
0.638684
0.650284
0.80295
0.754969
0.708886
0.752748
0.759985
0.710388
0.693297
0.704955
0.815615
0.893716
0.938568
0.921206
0.830512
0.759849
0.754527
0.7478
0.734031
0.714827
0.63735
0.6477
0.792404
0.745754
0.70445
0.749819
0.757325
0.732654
0.733655
0.745947
0.796986
0.891602
0.981585
0.968689
0.802907
0.876479
0.848338
0.795739
0.758992
0.733723
0.641602
0.652866
0.775161
0.753807
0.696971
0.745251
0.76165
0.77705
0.857487
0.905308
0.898318
0.873407
0.989698
0.988563
0.900651
0.938915
0.931681
0.862418
0.779797
0.745132
0.65263
0.672203
0.762132
0.762992
0.696986
0.738311
0.78171
0.870449
0.949574
0.969376
0.982545
0.990964
0.999718
0.999861
0.996478
0.959094
0.914901
0.842564
0.775585
0.754103
0.677502
0.698437
0.776379
0.776378
0.695194
0.724332
0.77981
0.867535
0.925819
0.916777
0.982628
0.999764
0.999999
0.999999
0.998993
0.931108
0.804647
0.802319
0.768362
0.753996
0.704247
0.782755
0.8695
0.807931
0.688628
0.70594
0.771745
0.845778
0.897326
0.848412
0.966232
0.999743
1
0.999999
0.999073
0.951527
0.792175
0.768312
0.762514
0.755573
0.742743
0.898468
0.904246
0.803847
0.672959
0.699617
0.76048
0.819463
0.861996
0.831396
0.962252
0.999719
1
1
0.999976
0.994199
0.894862
0.776637
0.766953
0.801291
0.879047
0.975926
0.887044
0.786586
0.668744
0.701175
0.75603
0.804558
0.813986
0.845889
0.986553
0.999958
1
1
1
0.999992
0.9971
0.91843
0.863762
0.963698
0.996584
0.99018
0.853643
0.761973
0.668665
0.730921
0.760433
0.788002
0.795159
0.968175
0.999902
1
1
0.883761
0.857506
0.77053
0.685595
0.713228
0.790867
0.785974
0.738404
0.784169
0.852461
0.841885
0.724788
0.779953
0.84896
0.797084
0.720613
0.696012
0.815612
0.893456
0.920295
0.914498
0.873588
0.832652
0.840448
0.854778
0.852922
0.844377
0.763078
0.805197
0.857534
0.843612
0.826272
0.869251
0.868866
0.827557
0.844927
0.846742
0.863007
0.928182
0.968924
0.948301
0.86823
0.85694
0.883774
0.880496
0.85363
0.816411
0.729956
0.746412
0.818725
0.812949
0.816732
0.854588
0.837653
0.84955
0.876424
0.865172
0.851791
0.929209
0.986968
0.978841
0.856172
0.915932
0.923991
0.918869
0.88439
0.827354
0.729362
0.759181
0.828779
0.826784
0.804727
0.836285
0.861768
0.904474
0.933569
0.938259
0.927544
0.903089
0.992299
0.992571
0.93162
0.954385
0.942349
0.917871
0.880955
0.835593
0.755731
0.800247
0.819633
0.835902
0.799839
0.818171
0.89004
0.945692
0.963785
0.96848
0.986142
0.992546
0.999799
0.999906
0.997505
0.965053
0.88911
0.886254
0.867841
0.836262
0.812686
0.802434
0.844872
0.852466
0.799127
0.79217
0.881395
0.932548
0.920213
0.914376
0.984859
0.999808
0.999999
0.999999
0.999135
0.938159
0.812616
0.845524
0.848844
0.829413
0.813358
0.850755
0.90332
0.866983
0.795518
0.785657
0.863664
0.914967
0.892
0.849937
0.967935
0.99976
1
1
0.999316
0.960043
0.814831
0.795157
0.810319
0.798595
0.796204
0.926476
0.922047
0.859816
0.789347
0.793161
0.845666
0.893991
0.866768
0.830954
0.963115
0.999724
1
1
0.999985
0.995914
0.917121
0.802863
0.796871
0.842175
0.941248
0.985349
0.894651
0.842124
0.780565
0.791644
0.834073
0.871306
0.826851
0.858004
0.987359
0.999958
1
1
1
0.999996
0.9984
0.946957
0.899716
0.983361
0.999667
0.992509
0.865381
0.814315
0.769289
0.808542
0.818566
0.830774
0.811472
0.97622
0.999921
1
1
0.922903
0.888582
0.80113
0.749941
0.797634
0.857129
0.854529
0.791388
0.814765
0.880041
0.871037
0.792349
0.856334
0.88429
0.840885
0.782385
0.756744
0.848693
0.924965
0.95092
0.970555
0.94073
0.908427
0.914938
0.933184
0.933896
0.92108
0.857633
0.845124
0.910378
0.906472
0.884581
0.933726
0.947097
0.934595
0.927396
0.91704
0.93165
0.967568
0.991328
0.979215
0.903102
0.91673
0.945357
0.953325
0.943715
0.910588
0.824039
0.831351
0.908063
0.903824
0.892665
0.929221
0.95103
0.955212
0.958388
0.936108
0.921129
0.930443
0.994772
0.990437
0.898335
0.960666
0.967551
0.962371
0.950413
0.907658
0.830588
0.856109
0.929759
0.933598
0.909713
0.924643
0.970854
0.974375
0.976742
0.978951
0.971547
0.963808
0.996837
0.996954
0.970494
0.984593
0.969832
0.934939
0.93069
0.879476
0.848573
0.888782
0.945977
0.942638
0.908105
0.887302
0.959154
0.96623
0.972581
0.989903
0.995837
0.995924
0.999905
0.999958
0.999349
0.991813
0.931909
0.857826
0.878142
0.870641
0.88374
0.93059
0.960721
0.950277
0.902279
0.853368
0.925505
0.935433
0.90885
0.954896
0.996392
0.999958
1
1
0.999882
0.984647
0.901408
0.853042
0.842439
0.884366
0.911603
0.957437
0.967218
0.943107
0.884808
0.856752
0.882483
0.891788
0.848299
0.902387
0.989286
0.999962
1
1
0.999868
0.989593
0.927147
0.874996
0.85238
0.914813
0.924615
0.97922
0.963684
0.911987
0.854801
0.893021
0.879195
0.854034
0.833785
0.88265
0.985691
0.999938
1
1
0.999998
0.999495
0.983963
0.933353
0.896842
0.969101
0.995056
0.997812
0.917463
0.857866
0.827729
0.917733
0.880179
0.83328
0.836755
0.918192
0.99464
0.999984
1
1
1
1
0.999934
0.996564
0.985387
0.999566
0.999996
0.999504
0.943101
0.854881
0.828227
0.967941
0.871959
0.838669
0.912148
0.996645
0.99997
1
1
)
;

boundaryField
{
    aeration
    {
        type            calculated;
        value           uniform 0.5;
    }
    xsides
    {
        type            calculated;
        value           nonuniform List<scalar> 
100
(
0.922887
0.970614
0.979254
0.99044
0.996954
0.999958
1
1
1
1
0.883669
0.914594
0.948328
0.978838
0.99257
0.999906
0.999999
1
1
1
0.830488
0.833601
0.921206
0.968689
0.988563
0.999861
0.999999
0.999999
1
1
0.883761
0.914498
0.948301
0.978841
0.992571
0.999906
0.999999
1
1
1
0.922903
0.970555
0.979215
0.990437
0.996954
0.999958
1
1
1
1
0.950914
0.991354
0.994772
0.996829
0.999905
1
1
1
1
1
0.920263
0.969047
0.987004
0.992316
0.999799
0.999999
1
1
1
1
0.84354
0.938568
0.981585
0.989698
0.999718
0.999999
1
1
1
1
0.920295
0.968924
0.986968
0.992299
0.999799
0.999999
1
1
1
1
0.95092
0.991328
0.994772
0.996837
0.999905
1
1
1
1
1
)
;
    }
    zsides
    {
        type            calculated;
        value           nonuniform List<scalar> 
400
(
0.922887
0.970614
0.979254
0.99044
0.996954
0.999958
1
1
1
1
0.88854
0.940817
0.903241
0.898157
0.970495
0.99935
0.999882
0.999867
0.999998
1
0.8002
0.908337
0.916333
0.960184
0.984644
0.991834
0.98468
0.989583
0.999493
1
0.752293
0.914951
0.944909
0.967594
0.969948
0.932099
0.901623
0.927191
0.983961
0.999934
0.800046
0.933174
0.953156
0.962335
0.934701
0.858229
0.85331
0.875158
0.933395
0.99656
0.858114
0.93318
0.942543
0.95013
0.931038
0.879337
0.842934
0.852619
0.896894
0.985387
0.854531
0.920368
0.908406
0.906582
0.879708
0.870589
0.884303
0.915138
0.969165
0.999566
0.791757
0.858709
0.824349
0.831286
0.849255
0.883815
0.911734
0.924972
0.995061
0.999996
0.815052
0.84573
0.833241
0.857068
0.889212
0.93091
0.957685
0.97927
0.997815
0.999505
0.880152
0.910638
0.908644
0.930129
0.946215
0.960887
0.967295
0.963694
0.917646
0.943256
0.87094
0.90657
0.904081
0.933785
0.942858
0.95046
0.943236
0.912063
0.858178
0.85533
0.794668
0.885472
0.89314
0.909838
0.908101
0.902275
0.884809
0.854864
0.828154
0.82876
0.856321
0.934379
0.930088
0.924832
0.887311
0.853064
0.856199
0.892353
0.917836
0.968043
0.885316
0.948423
0.952037
0.97072
0.958935
0.925153
0.882082
0.878968
0.880141
0.87204
0.843134
0.936011
0.955227
0.974276
0.966197
0.935271
0.891539
0.853926
0.83329
0.838684
0.783826
0.927266
0.958325
0.976739
0.972712
0.908914
0.848275
0.83379
0.836766
0.912109
0.757886
0.917067
0.935939
0.978949
0.989906
0.954896
0.902387
0.882649
0.918248
0.996645
0.848717
0.931392
0.920906
0.971539
0.99584
0.996391
0.989286
0.985692
0.994644
0.99997
0.924943
0.967516
0.930274
0.963805
0.995931
0.999959
0.999962
0.999938
0.999984
1
0.950914
0.991354
0.994772
0.996829
0.999905
1
1
1
1
1
0.922903
0.970555
0.979215
0.990437
0.996954
0.999958
1
1
1
1
0.888582
0.94073
0.903102
0.898335
0.970494
0.999349
0.999882
0.999868
0.999998
1
0.80113
0.908427
0.91673
0.960666
0.984593
0.991813
0.984647
0.989593
0.999495
1
0.749941
0.914938
0.945357
0.967551
0.969832
0.931909
0.901408
0.927147
0.983963
0.999934
0.797634
0.933184
0.953325
0.962371
0.934939
0.857826
0.853042
0.874996
0.933353
0.996564
0.857129
0.933896
0.943715
0.950413
0.93069
0.878142
0.842439
0.85238
0.896842
0.985387
0.854529
0.92108
0.910588
0.907658
0.879476
0.870641
0.884366
0.914813
0.969101
0.999566
0.791388
0.857633
0.824039
0.830588
0.848573
0.88374
0.911603
0.924615
0.995056
0.999996
0.814765
0.845124
0.831351
0.856109
0.888782
0.93059
0.957437
0.97922
0.997812
0.999504
0.880041
0.910378
0.908063
0.929759
0.945977
0.960721
0.967218
0.963684
0.917463
0.943101
0.871037
0.906472
0.903824
0.933598
0.942638
0.950277
0.943107
0.911987
0.857866
0.854881
0.792349
0.884581
0.892665
0.909713
0.908105
0.902279
0.884808
0.854801
0.827729
0.828227
0.856334
0.933726
0.929221
0.924643
0.887302
0.853368
0.856752
0.893021
0.917733
0.967941
0.88429
0.947097
0.95103
0.970854
0.959154
0.925505
0.882483
0.879195
0.880179
0.871959
0.840885
0.934595
0.955212
0.974375
0.96623
0.935433
0.891788
0.854034
0.83328
0.838669
0.782385
0.927396
0.958388
0.976742
0.972581
0.90885
0.848299
0.833785
0.836755
0.912148
0.756744
0.91704
0.936108
0.978951
0.989903
0.954896
0.902387
0.88265
0.918192
0.996645
0.848693
0.93165
0.921129
0.971547
0.995837
0.996392
0.989286
0.985691
0.99464
0.99997
0.924965
0.967568
0.930443
0.963808
0.995924
0.999958
0.999962
0.999938
0.999984
1
0.95092
0.991328
0.994772
0.996837
0.999905
1
1
1
1
1
)
;
    }
    outlet
    {
        type            calculated;
        value           nonuniform List<scalar> 
100
(
1
1
1
1
1
1
1
1
1
1
1
1
1
1
1
1
1
1
1
1
0.99656
0.946933
0.91843
0.946957
0.996564
0.985387
0.899761
0.863762
0.899716
0.985387
0.999566
0.983364
0.963698
0.983361
0.999566
1
1
0.996584
1
1
1
1
1
1
1
0.943256
0.865407
0.853643
0.865381
0.943101
0.85533
0.814166
0.761973
0.814315
0.854881
0.82876
0.768963
0.668665
0.769289
0.828227
0.968043
0.808907
0.730921
0.808542
0.967941
0.87204
0.81919
0.760433
0.818566
0.871959
0.838684
0.831445
0.788002
0.830774
0.838669
0.912109
0.81176
0.795159
0.811472
0.912148
1
1
1
1
1
1
1
1
1
1
1
1
1
1
1
1
1
1
1
1
)
;
    }
}


// ************************************************************************* //
