/*--------------------------------*- C++ -*----------------------------------*\
| =========                 |                                                 |
| \\      /  F ield         | OpenFOAM: The Open Source CFD Toolbox           |
|  \\    /   O peration     | Version:  2.3.0                                 |
|   \\  /    A nd           | Web:      www.OpenFOAM.org                      |
|    \\/     M anipulation  |                                                 |
\*---------------------------------------------------------------------------*/
FoamFile
{
    version     2.0;
    format      ascii;
    class       volScalarField;
    location    "1.58";
    object      alpha.particlesMean;
}
// * * * * * * * * * * * * * * * * * * * * * * * * * * * * * * * * * * * * * //

dimensions      [0 0 0 0 0 0 0];

internalField   nonuniform List<scalar> 
6000
(
0.416761
0.426105
0.425579
0.423095
0.420514
0.4109
0.412839
0.411626
0.414614
0.414015
0.413135
0.415845
0.41103
0.410106
0.417875
0.421266
0.422296
0.418978
0.418768
0.423153
0.424906
0.421503
0.420336
0.426022
0.428566
0.428994
0.427179
0.418153
0.417333
0.416608
0.394317
0.39435
0.394352
0.388498
0.381156
0.37991
0.38089
0.379623
0.377265
0.382546
0.384331
0.381251
0.380284
0.378013
0.383378
0.393883
0.393331
0.388057
0.388166
0.387497
0.390086
0.39211
0.393274
0.395685
0.391003
0.39076
0.389704
0.389129
0.388058
0.396684
0.400013
0.401476
0.398635
0.387137
0.385849
0.38836
0.387196
0.380442
0.379126
0.387469
0.388192
0.382393
0.380256
0.380102
0.38689
0.395667
0.395738
0.39145
0.38926
0.391093
0.392661
0.392411
0.392311
0.386895
0.384544
0.392972
0.397964
0.394098
0.388551
0.399623
0.402434
0.400292
0.392117
0.382977
0.387453
0.389023
0.384804
0.380081
0.378811
0.386865
0.38888
0.378997
0.376048
0.377535
0.3817
0.387093
0.389448
0.385687
0.384985
0.38803
0.387655
0.38537
0.379553
0.370632
0.376351
0.385966
0.397596
0.391953
0.382193
0.397794
0.398065
0.396906
0.383812
0.382325
0.388036
0.387173
0.380045
0.376942
0.377291
0.384652
0.384795
0.372369
0.364889
0.361784
0.368017
0.376788
0.384779
0.379547
0.381747
0.383483
0.382191
0.377547
0.368678
0.365412
0.370991
0.380828
0.394431
0.38958
0.375574
0.390601
0.392944
0.391011
0.380608
0.382787
0.387445
0.383952
0.374895
0.373101
0.373719
0.377421
0.377455
0.363526
0.351948
0.352966
0.361961
0.377067
0.383572
0.378537
0.378008
0.378344
0.374246
0.367718
0.363716
0.361305
0.367276
0.377637
0.393583
0.385681
0.369234
0.384051
0.387847
0.384503
0.380436
0.37916
0.383148
0.380719
0.370485
0.368942
0.366413
0.370578
0.368475
0.354932
0.348595
0.355693
0.367143
0.38404
0.387183
0.373934
0.375145
0.374716
0.371709
0.366589
0.361674
0.359313
0.366611
0.378264
0.38999
0.383474
0.363079
0.379193
0.382232
0.384529
0.378064
0.373406
0.377045
0.377664
0.368496
0.363565
0.361174
0.364556
0.360216
0.348845
0.351999
0.360269
0.374545
0.390591
0.382461
0.375557
0.377891
0.378616
0.375479
0.369301
0.362097
0.362675
0.371846
0.379179
0.384245
0.376886
0.357605
0.376248
0.384106
0.385741
0.374937
0.367399
0.373123
0.375431
0.370053
0.362179
0.356286
0.356432
0.352441
0.348457
0.355521
0.365261
0.383648
0.392748
0.380401
0.377471
0.380723
0.383574
0.38089
0.374647
0.368919
0.371165
0.376529
0.381797
0.379432
0.369672
0.355428
0.376608
0.386894
0.384413
0.37035
0.362786
0.370187
0.37516
0.373923
0.362002
0.353554
0.348842
0.34923
0.351805
0.359804
0.36947
0.387467
0.39043
0.378763
0.378038
0.383203
0.387127
0.385452
0.382562
0.378883
0.379782
0.38312
0.38219
0.375104
0.365087
0.357112
0.377936
0.388087
0.380734
0.364775
0.360329
0.36641
0.373645
0.373857
0.364714
0.352446
0.343866
0.350201
0.359758
0.361876
0.371114
0.386158
0.384661
0.379258
0.381026
0.388732
0.389648
0.390695
0.390097
0.387109
0.388791
0.387921
0.382756
0.371341
0.365301
0.362468
0.380863
0.389252
0.376832
0.357629
0.357108
0.361672
0.367621
0.370708
0.368203
0.353274
0.33952
0.351883
0.363819
0.363092
0.36876
0.379732
0.380593
0.380249
0.386325
0.391048
0.390871
0.394318
0.395291
0.39565
0.395911
0.392964
0.382724
0.371624
0.367945
0.371391
0.389045
0.390098
0.372434
0.353075
0.352839
0.354522
0.360396
0.366715
0.37243
0.353101
0.339177
0.348431
0.365887
0.362824
0.365316
0.37381
0.378414
0.383434
0.389826
0.38858
0.391454
0.398016
0.401619
0.403297
0.402972
0.396788
0.386549
0.374837
0.374779
0.382475
0.40175
0.390247
0.368914
0.352101
0.348408
0.349535
0.35436
0.362511
0.369628
0.355469
0.341798
0.345755
0.361327
0.364428
0.363849
0.37123
0.379815
0.387455
0.389911
0.385802
0.392965
0.403051
0.408866
0.409102
0.406715
0.400044
0.38949
0.382168
0.386785
0.39875
0.420215
0.391645
0.368255
0.352879
0.345668
0.345663
0.350134
0.357016
0.365253
0.357253
0.346851
0.343563
0.354904
0.36447
0.363838
0.372236
0.382043
0.390895
0.387768
0.385062
0.394273
0.409278
0.414504
0.410162
0.404301
0.396725
0.389545
0.388348
0.400683
0.414888
0.439511
0.394594
0.367911
0.356455
0.345647
0.343909
0.345454
0.351744
0.360396
0.356723
0.348425
0.343767
0.345103
0.361853
0.363603
0.373358
0.384718
0.391182
0.386334
0.384569
0.395611
0.409298
0.409671
0.398498
0.386178
0.381029
0.381246
0.388976
0.406037
0.423113
0.449929
0.396518
0.367209
0.362977
0.351649
0.343969
0.343668
0.34406
0.356382
0.356351
0.348419
0.342271
0.340373
0.353507
0.362539
0.373742
0.385977
0.391315
0.386413
0.386999
0.397185
0.408304
0.404647
0.382443
0.368684
0.3653
0.375183
0.386671
0.406477
0.42222
0.448194
0.391794
0.369138
0.37206
0.362301
0.348316
0.345939
0.343538
0.350808
0.35806
0.348399
0.340791
0.337465
0.345958
0.36016
0.37214
0.385655
0.393165
0.391774
0.39436
0.404485
0.411666
0.402416
0.376148
0.363985
0.363894
0.376854
0.39117
0.407269
0.418701
0.445437
0.382952
0.373972
0.381059
0.376675
0.356928
0.351471
0.348296
0.347725
0.355665
0.351103
0.340273
0.336653
0.339992
0.355773
0.370243
0.384452
0.397956
0.401394
0.405037
0.412652
0.415878
0.402408
0.375258
0.362318
0.364484
0.378165
0.397227
0.40898
0.416362
0.445538
0.380945
0.379629
0.389893
0.387485
0.363662
0.355815
0.352897
0.350043
0.351271
0.35187
0.342627
0.335489
0.338692
0.35248
0.368146
0.382044
0.400673
0.411976
0.413431
0.416855
0.418167
0.402677
0.375945
0.361428
0.366758
0.377306
0.399174
0.408379
0.412283
0.445969
0.384306
0.384441
0.396268
0.395591
0.369935
0.359139
0.356303
0.353626
0.347963
0.349987
0.34421
0.335416
0.337166
0.351403
0.366452
0.378532
0.398419
0.41799
0.416238
0.420156
0.418439
0.402618
0.378036
0.362528
0.367821
0.376409
0.39937
0.405539
0.410991
0.444166
0.388043
0.389157
0.400677
0.401102
0.376763
0.362341
0.359627
0.354401
0.34577
0.34538
0.34533
0.336001
0.336138
0.348099
0.366701
0.374629
0.391161
0.416307
0.418452
0.421151
0.41774
0.403392
0.381697
0.364144
0.367304
0.375876
0.400079
0.406224
0.413643
0.446519
0.390321
0.392871
0.404652
0.406456
0.383776
0.366123
0.361139
0.353105
0.340899
0.341252
0.343317
0.3387
0.335002
0.34547
0.363606
0.368072
0.379931
0.413329
0.419363
0.420047
0.41622
0.404376
0.385599
0.367051
0.366164
0.377135
0.402478
0.411233
0.420129
0.450759
0.391463
0.393807
0.406551
0.413906
0.392489
0.370373
0.361824
0.349985
0.336525
0.336342
0.339672
0.340582
0.336903
0.344656
0.356243
0.357833
0.373926
0.409054
0.417345
0.417182
0.413673
0.40208
0.387439
0.37085
0.367428
0.379987
0.404275
0.418825
0.428626
0.454059
0.391771
0.392062
0.408208
0.422687
0.402635
0.373895
0.360351
0.347376
0.332878
0.332373
0.335707
0.340274
0.339845
0.344512
0.349523
0.34998
0.371723
0.402986
0.413336
0.413083
0.407672
0.395873
0.381976
0.371013
0.369251
0.384114
0.40724
0.425161
0.435327
0.455714
0.391869
0.390503
0.410498
0.429835
0.412521
0.376591
0.357976
0.343251
0.330921
0.328358
0.333362
0.338677
0.342406
0.345079
0.344486
0.348783
0.368159
0.395368
0.405214
0.401748
0.395417
0.382245
0.369636
0.361876
0.367304
0.387761
0.410784
0.426388
0.436274
0.457615
0.392953
0.392211
0.414127
0.434785
0.419606
0.37908
0.355089
0.34009
0.328018
0.326592
0.332012
0.338682
0.342362
0.345338
0.342912
0.350256
0.361721
0.384512
0.387409
0.382415
0.377405
0.367356
0.356865
0.35375
0.360818
0.385543
0.408699
0.420477
0.426206
0.453833
0.395016
0.397824
0.418914
0.436789
0.423236
0.380669
0.353101
0.336075
0.326611
0.324703
0.331495
0.33814
0.341874
0.343333
0.343952
0.348819
0.35448
0.372004
0.37416
0.370493
0.367275
0.359642
0.353853
0.354209
0.357321
0.383357
0.404761
0.413264
0.415437
0.437019
0.39898
0.40365
0.422664
0.437042
0.42451
0.380894
0.349914
0.332399
0.322791
0.323305
0.329855
0.336948
0.339893
0.339709
0.344366
0.347181
0.349176
0.363818
0.369989
0.366114
0.362826
0.359547
0.357886
0.359113
0.359857
0.386863
0.404794
0.412508
0.415476
0.43055
0.406148
0.405862
0.423004
0.435912
0.424338
0.380241
0.346086
0.326409
0.318958
0.321173
0.327688
0.335308
0.337114
0.337198
0.343633
0.347616
0.348925
0.36431
0.371905
0.366308
0.364147
0.363893
0.365443
0.362841
0.364968
0.393789
0.407967
0.41473
0.417602
0.427742
0.416569
0.406213
0.422443
0.432423
0.42152
0.380002
0.340336
0.320881
0.314774
0.319445
0.32505
0.331661
0.333878
0.334625
0.342044
0.34862
0.352716
0.371135
0.375953
0.368822
0.367409
0.370556
0.371202
0.366851
0.372628
0.401732
0.411985
0.417138
0.418435
0.425298
0.427515
0.409295
0.423154
0.426926
0.41706
0.378825
0.335778
0.315843
0.312705
0.317061
0.323555
0.328345
0.329213
0.3326
0.341489
0.351314
0.359073
0.380406
0.383449
0.372867
0.371813
0.375827
0.375915
0.37142
0.381056
0.408761
0.415371
0.418769
0.416841
0.423198
0.435902
0.414831
0.424915
0.42138
0.41221
0.379624
0.332814
0.313207
0.310499
0.315556
0.322251
0.326752
0.327875
0.332797
0.342949
0.354772
0.367511
0.390892
0.389619
0.377016
0.375953
0.379872
0.379276
0.375158
0.388221
0.412525
0.417542
0.418635
0.413935
0.421761
0.438652
0.421135
0.42749
0.418614
0.407471
0.379875
0.33163
0.311176
0.310458
0.314146
0.321788
0.327713
0.330216
0.336417
0.3454
0.359619
0.375724
0.397898
0.393019
0.379252
0.379745
0.383036
0.38138
0.376883
0.392415
0.414799
0.417872
0.416966
0.409128
0.420804
0.438833
0.424701
0.428597
0.418032
0.403076
0.381761
0.331452
0.310709
0.31094
0.314635
0.321641
0.329158
0.336627
0.342575
0.350306
0.363777
0.383228
0.402502
0.395278
0.381594
0.383204
0.385646
0.381114
0.376314
0.39736
0.418583
0.421349
0.417144
0.406524
0.418884
0.438462
0.423293
0.425659
0.417036
0.400868
0.383379
0.336543
0.311802
0.311986
0.315699
0.321084
0.330638
0.342655
0.350292
0.355822
0.368437
0.387219
0.405308
0.397132
0.38327
0.386173
0.385654
0.378913
0.377664
0.404984
0.425916
0.424401
0.417161
0.404784
0.416387
0.435809
0.417554
0.420764
0.415131
0.398401
0.385585
0.340941
0.316403
0.313386
0.316737
0.320676
0.331414
0.347163
0.354666
0.362164
0.372033
0.389144
0.405285
0.398726
0.384307
0.387111
0.383711
0.376846
0.381713
0.414394
0.431023
0.424913
0.415694
0.402334
0.41394
0.430644
0.414048
0.41461
0.408315
0.395877
0.387192
0.346864
0.321106
0.315477
0.317504
0.319752
0.333787
0.348095
0.356383
0.365763
0.376833
0.389318
0.403772
0.39916
0.384404
0.385267
0.381295
0.378262
0.388634
0.422987
0.432009
0.423428
0.413419
0.399548
0.411816
0.425365
0.415055
0.40852
0.399913
0.393075
0.389629
0.353955
0.326858
0.317478
0.317883
0.319988
0.335274
0.348883
0.355126
0.36706
0.379591
0.390716
0.400471
0.398313
0.384188
0.382163
0.380111
0.383289
0.397433
0.428023
0.429915
0.420279
0.409357
0.398415
0.409567
0.425081
0.41866
0.406402
0.391858
0.39039
0.390187
0.3624
0.333049
0.320491
0.318892
0.321575
0.338384
0.349222
0.356112
0.36586
0.38087
0.391893
0.397001
0.396245
0.38349
0.378809
0.381737
0.390791
0.405796
0.428405
0.425599
0.414475
0.405773
0.39768
0.407862
0.426249
0.419727
0.403514
0.387058
0.387155
0.389775
0.370485
0.341182
0.324117
0.320168
0.325255
0.341951
0.352013
0.357985
0.368539
0.38099
0.393371
0.393792
0.394158
0.383026
0.377695
0.386109
0.399381
0.411991
0.426936
0.420264
0.410326
0.404086
0.396687
0.408863
0.428097
0.416021
0.398508
0.385151
0.383931
0.388292
0.377854
0.34957
0.328563
0.322528
0.328467
0.347146
0.355694
0.3632
0.372563
0.384534
0.393489
0.392212
0.392429
0.384691
0.378638
0.390683
0.406686
0.415682
0.426145
0.417138
0.408025
0.402554
0.394231
0.411189
0.430108
0.409894
0.392397
0.382805
0.381461
0.38866
0.383075
0.357919
0.333531
0.324371
0.332247
0.351383
0.361389
0.368331
0.378513
0.387722
0.395469
0.39156
0.392166
0.387154
0.380451
0.393858
0.410484
0.418642
0.425894
0.415352
0.407824
0.402576
0.394813
0.413449
0.430438
0.401971
0.386018
0.380296
0.381135
0.38902
0.387052
0.362166
0.338066
0.32537
0.335476
0.35558
0.364739
0.373021
0.38149
0.391046
0.396243
0.392815
0.392871
0.390472
0.383582
0.396489
0.411099
0.420569
0.424513
0.414934
0.408118
0.4028
0.396647
0.414985
0.423832
0.39233
0.380982
0.378828
0.381016
0.387536
0.388114
0.362727
0.341102
0.325859
0.338278
0.358793
0.366912
0.373925
0.383859
0.392237
0.398286
0.394303
0.395032
0.394812
0.390785
0.39826
0.409871
0.422138
0.42332
0.414303
0.408877
0.404714
0.399298
0.417254
0.415916
0.384109
0.377738
0.37832
0.38121
0.385025
0.385533
0.361342
0.343029
0.328732
0.339906
0.361567
0.366528
0.375419
0.384748
0.394147
0.398244
0.396497
0.397654
0.400806
0.398319
0.399512
0.408427
0.423776
0.423353
0.416599
0.412778
0.409231
0.403436
0.422647
0.410784
0.381356
0.377692
0.379849
0.381678
0.383327
0.382442
0.360491
0.346153
0.333885
0.342619
0.362249
0.367725
0.375613
0.38718
0.394181
0.398759
0.397683
0.400826
0.40347
0.403642
0.401345
0.409403
0.427463
0.425994
0.421541
0.41822
0.415178
0.411674
0.428356
0.405988
0.382732
0.380531
0.381731
0.384496
0.383961
0.382381
0.362366
0.351311
0.341294
0.345787
0.363831
0.370536
0.380386
0.388155
0.396179
0.399528
0.400235
0.401162
0.40472
0.406536
0.404942
0.41391
0.433631
0.4309
0.428068
0.425876
0.423076
0.418592
0.432435
0.40516
0.385382
0.383169
0.383716
0.387985
0.388056
0.385653
0.367322
0.357662
0.348126
0.348846
0.364909
0.377728
0.385797
0.393443
0.399797
0.402897
0.40134
0.402142
0.406512
0.410123
0.408449
0.420394
0.441027
0.436486
0.435681
0.433878
0.427935
0.422157
0.434574
0.409084
0.391043
0.387176
0.3865
0.39163
0.393705
0.391586
0.373349
0.363004
0.353993
0.350493
0.365323
0.380187
0.389213
0.395633
0.403347
0.404679
0.404434
0.404676
0.411008
0.412985
0.412503
0.427273
0.44706
0.44245
0.442104
0.437156
0.431823
0.424063
0.434745
0.414953
0.401281
0.396769
0.395625
0.3967
0.400226
0.40001
0.37955
0.366442
0.356715
0.353915
0.362902
0.373267
0.385186
0.395685
0.403028
0.407658
0.407661
0.410281
0.416119
0.417745
0.415875
0.432674
0.451323
0.447339
0.443486
0.440069
0.436944
0.427516
0.434219
0.423241
0.406401
0.407033
0.406845
0.405238
0.407412
0.408115
0.386047
0.365939
0.355289
0.355642
0.3594
0.365026
0.380902
0.389681
0.400138
0.406153
0.410943
0.41843
0.422737
0.422668
0.419804
0.432726
0.452002
0.44847
0.44571
0.443165
0.440442
0.431122
0.433908
0.431672
0.408027
0.408947
0.413856
0.414441
0.415374
0.415174
0.390048
0.359224
0.349342
0.352095
0.353292
0.362559
0.374095
0.38783
0.397727
0.406035
0.415369
0.426495
0.428107
0.427325
0.422377
0.428563
0.450923
0.450722
0.447765
0.445559
0.443055
0.433229
0.433502
0.434791
0.408287
0.4057
0.411479
0.418352
0.422309
0.420429
0.388121
0.34862
0.341093
0.343731
0.350716
0.360106
0.37026
0.380657
0.394005
0.408838
0.423757
0.428295
0.432367
0.429307
0.424301
0.424193
0.445989
0.45164
0.44943
0.447248
0.444551
0.432873
0.432659
0.434952
0.402503
0.39928
0.405805
0.414664
0.423913
0.420981
0.377558
0.341986
0.336583
0.340658
0.346095
0.355995
0.363213
0.372813
0.386104
0.409693
0.427886
0.431668
0.433987
0.431396
0.423679
0.421559
0.436303
0.450344
0.450779
0.449211
0.445157
0.431051
0.431122
0.430297
0.392565
0.39341
0.400688
0.410504
0.420564
0.412577
0.365134
0.340886
0.339216
0.338098
0.337306
0.340755
0.346917
0.359404
0.380469
0.404142
0.423494
0.433928
0.436474
0.431827
0.422853
0.418712
0.427764
0.44523
0.45209
0.450536
0.444696
0.429973
0.43017
0.419404
0.387277
0.38964
0.397413
0.405332
0.416261
0.40046
0.358623
0.34227
0.340485
0.334304
0.328013
0.326376
0.327123
0.338889
0.36627
0.395181
0.411208
0.431583
0.436853
0.427686
0.414536
0.414019
0.421082
0.437589
0.451406
0.450592
0.443761
0.42848
0.430849
0.417311
0.385193
0.386582
0.393657
0.401104
0.410897
0.392964
0.358445
0.343858
0.33709
0.329116
0.324897
0.322736
0.326288
0.335089
0.352914
0.376197
0.394005
0.412257
0.424891
0.412584
0.404087
0.404222
0.414248
0.428716
0.449043
0.450591
0.44151
0.428299
0.431678
0.422655
0.384411
0.385716
0.391803
0.399946
0.409887
0.389563
0.361934
0.345229
0.33134
0.326421
0.324228
0.3263
0.32846
0.337344
0.348304
0.360452
0.374641
0.390406
0.412572
0.405511
0.394416
0.394321
0.404571
0.420224
0.444028
0.448957
0.438461
0.427983
0.432086
0.430957
0.388472
0.387246
0.393041
0.400915
0.408252
0.389287
0.365867
0.346945
0.328322
0.325659
0.32774
0.328642
0.331418
0.337737
0.345852
0.351679
0.366341
0.381209
0.405209
0.402288
0.388154
0.387875
0.399001
0.412256
0.436171
0.445511
0.433969
0.427397
0.433278
0.436551
0.395811
0.395763
0.396603
0.401741
0.406392
0.391685
0.368241
0.34959
0.328323
0.327297
0.328259
0.330521
0.331982
0.338722
0.344175
0.349046
0.362522
0.377571
0.39874
0.400229
0.38674
0.38595
0.396591
0.407362
0.429689
0.439166
0.426315
0.422581
0.436173
0.438908
0.405216
0.40769
0.403885
0.403511
0.406391
0.395168
0.372433
0.352395
0.332035
0.327395
0.329741
0.330616
0.333187
0.33887
0.345293
0.349369
0.359829
0.373471
0.394982
0.397156
0.387281
0.386144
0.396467
0.40611
0.425416
0.426208
0.411561
0.404547
0.431481
0.436315
0.411594
0.415619
0.411204
0.405317
0.407194
0.399465
0.377402
0.357966
0.338351
0.331602
0.331284
0.332367
0.333716
0.340379
0.34674
0.352326
0.358851
0.368992
0.388539
0.393886
0.388652
0.389408
0.39874
0.408322
0.422716
0.414745
0.406232
0.399818
0.419602
0.424144
0.411478
0.414411
0.41317
0.40659
0.409477
0.404672
0.382734
0.365544
0.34886
0.339086
0.339272
0.337193
0.337444
0.342063
0.349604
0.35488
0.360228
0.36825
0.380236
0.390966
0.394223
0.394928
0.405401
0.415226
0.426607
0.415086
0.408685
0.400365
0.414776
0.409645
0.404217
0.408999
0.412347
0.409176
0.41353
0.411166
0.388539
0.37442
0.361874
0.348829
0.346349
0.347276
0.34512
0.346785
0.351421
0.357174
0.360777
0.368101
0.375219
0.392196
0.402088
0.403597
0.412427
0.425016
0.432914
0.416911
0.410529
0.401815
0.412959
0.403145
0.396932
0.405026
0.412951
0.41257
0.417497
0.416828
0.394426
0.38209
0.372958
0.359191
0.354222
0.353164
0.355497
0.354294
0.355605
0.359063
0.361886
0.368942
0.382777
0.398487
0.411106
0.411252
0.417999
0.433832
0.435121
0.416789
0.411987
0.401417
0.410695
0.403663
0.394899
0.403352
0.413355
0.416504
0.421879
0.42113
0.398764
0.388859
0.379652
0.369968
0.363226
0.359781
0.360519
0.362417
0.362311
0.364801
0.366714
0.378721
0.397567
0.408765
0.415854
0.417286
0.421206
0.43907
0.433098
0.416787
0.411559
0.400993
0.408755
0.408108
0.39519
0.401238
0.412811
0.419289
0.427579
0.424594
0.402105
0.392682
0.385436
0.377461
0.37223
0.366233
0.365633
0.366925
0.369672
0.371296
0.374597
0.38904
0.412094
0.417266
0.419619
0.419126
0.422139
0.439701
0.432082
0.415616
0.409792
0.399359
0.407788
0.417666
0.398783
0.399635
0.409387
0.420857
0.43269
0.428252
0.404518
0.396235
0.389217
0.384611
0.37824
0.373443
0.370893
0.372374
0.375152
0.377497
0.381823
0.399028
0.420803
0.425118
0.421077
0.419935
0.421031
0.441102
0.430897
0.414768
0.407446
0.398272
0.405924
0.433803
0.407731
0.404584
0.408461
0.41872
0.435141
0.430608
0.407042
0.397359
0.39318
0.389223
0.383934
0.378148
0.376184
0.376507
0.379611
0.382281
0.389525
0.407218
0.425369
0.4284
0.422962
0.419974
0.420374
0.443151
0.430294
0.413198
0.405313
0.39577
0.403657
0.446647
0.424254
0.417934
0.416315
0.419261
0.433297
0.430567
0.408783
0.398858
0.395766
0.392873
0.387842
0.382415
0.378111
0.380058
0.382098
0.387467
0.395923
0.413183
0.427311
0.429858
0.424464
0.421749
0.421229
0.444114
0.428662
0.411758
0.403318
0.393146
0.402861
0.453372
0.440909
0.435442
0.430244
0.428484
0.434544
0.427507
0.409622
0.400956
0.398968
0.393924
0.388502
0.382303
0.378048
0.380761
0.384275
0.390998
0.401074
0.415275
0.428576
0.429719
0.426664
0.422893
0.423303
0.444318
0.42726
0.410793
0.401092
0.38994
0.403806
0.457788
0.451559
0.451139
0.447611
0.44259
0.439908
0.427547
0.410409
0.401937
0.39743
0.391963
0.386029
0.379818
0.374671
0.379675
0.384296
0.391989
0.403959
0.416005
0.425712
0.42914
0.42735
0.424764
0.426053
0.444461
0.426518
0.410123
0.39855
0.386893
0.405844
0.460066
0.458783
0.461274
0.461201
0.45661
0.447919
0.432202
0.413496
0.401721
0.391518
0.385298
0.382098
0.374758
0.371963
0.377149
0.384426
0.391948
0.404954
0.415767
0.423839
0.429006
0.428281
0.42539
0.428435
0.443715
0.428528
0.412435
0.399396
0.386147
0.407869
0.459549
0.462548
0.467401
0.468189
0.466192
0.457357
0.437603
0.417177
0.400963
0.382786
0.378139
0.374064
0.370166
0.370123
0.377721
0.3847
0.394184
0.407809
0.417706
0.424064
0.429806
0.426511
0.425412
0.429616
0.443693
0.433256
0.421371
0.409917
0.394466
0.413661
0.459753
0.464454
0.471533
0.472171
0.472141
0.463778
0.44099
0.418701
0.392217
0.375358
0.370939
0.368926
0.365854
0.370185
0.377598
0.385443
0.394644
0.409545
0.418497
0.424049
0.427674
0.422884
0.422328
0.430217
0.444639
0.439183
0.433565
0.428242
0.411071
0.41703
0.460254
0.465559
0.474747
0.475858
0.475674
0.46465
0.437963
0.408434
0.38067
0.36749
0.365551
0.363242
0.364377
0.368691
0.378042
0.385753
0.395476
0.407934
0.416841
0.421271
0.42257
0.414815
0.417872
0.43078
0.447106
0.445405
0.446062
0.445785
0.425438
0.418383
0.459998
0.461086
0.473739
0.474907
0.477552
0.463692
0.428869
0.396912
0.373705
0.362327
0.360589
0.361469
0.362627
0.368784
0.377724
0.388018
0.396519
0.406637
0.412917
0.417908
0.412964
0.402076
0.408902
0.428934
0.449302
0.452403
0.456393
0.453021
0.432149
0.421501
0.459083
0.454763
0.469711
0.473793
0.475493
0.461747
0.423091
0.389873
0.366953
0.358331
0.359257
0.360734
0.365033
0.370841
0.381117
0.391386
0.399223
0.405788
0.410606
0.41095
0.401002
0.386922
0.396575
0.422511
0.447043
0.455768
0.457219
0.448383
0.432416
0.42549
0.450746
0.44933
0.468462
0.473894
0.473938
0.453987
0.41809
0.385352
0.363384
0.358934
0.360048
0.365049
0.369642
0.376731
0.385395
0.395083
0.400605
0.40691
0.409551
0.404961
0.393647
0.379664
0.383739
0.410954
0.440022
0.450637
0.448737
0.440083
0.426711
0.428173
0.442428
0.448185
0.469552
0.475865
0.472936
0.447932
0.409782
0.381364
0.368214
0.363494
0.365558
0.370299
0.376103
0.381906
0.389752
0.394698
0.401713
0.407676
0.410469
0.40269
0.38839
0.375607
0.375973
0.400673
0.434499
0.444658
0.442229
0.433761
0.422358
0.42892
0.445658
0.449272
0.469205
0.478018
0.473622
0.443966
0.404228
0.381812
0.372847
0.371917
0.372721
0.376645
0.379853
0.386024
0.391501
0.393782
0.399882
0.406992
0.407671
0.398051
0.382084
0.373402
0.374708
0.393468
0.432545
0.445615
0.440894
0.43108
0.423384
0.427133
0.459016
0.4513
0.46745
0.47884
0.476367
0.441927
0.406486
0.383819
0.37814
0.377047
0.380218
0.382536
0.385355
0.38911
0.393239
0.392652
0.397884
0.403109
0.401435
0.390225
0.379622
0.374464
0.378174
0.388599
0.424955
0.445403
0.440875
0.43056
0.423991
0.42687
0.467942
0.456824
0.468351
0.479025
0.47766
0.444612
0.413436
0.390966
0.383356
0.382323
0.38398
0.38737
0.390282
0.394897
0.395768
0.393758
0.396717
0.398108
0.392678
0.387244
0.380839
0.376597
0.378375
0.383904
0.411544
0.437554
0.437703
0.430053
0.422798
0.432323
0.467412
0.462615
0.47353
0.481083
0.476727
0.446123
0.418016
0.400316
0.390392
0.386103
0.387591
0.390179
0.395434
0.398782
0.39909
0.395485
0.396456
0.392756
0.388852
0.38742
0.379813
0.373913
0.377692
0.380908
0.397418
0.427969
0.428887
0.428523
0.428381
0.433668
0.461677
0.462255
0.476789
0.486882
0.474245
0.445952
0.418124
0.405504
0.395436
0.389163
0.389044
0.392871
0.397688
0.401163
0.399839
0.397447
0.394494
0.39158
0.38787
0.384392
0.375273
0.370842
0.374607
0.378117
0.385062
0.417942
0.422981
0.422772
0.425407
0.430563
0.455804
0.461091
0.478097
0.490973
0.473939
0.442273
0.418596
0.406797
0.39784
0.388805
0.389103
0.393064
0.398465
0.399989
0.399861
0.396566
0.393401
0.390396
0.384261
0.378182
0.370466
0.366133
0.370738
0.374369
0.37843
0.401524
0.416743
0.413681
0.414788
0.423094
0.452871
0.460388
0.479578
0.491938
0.473739
0.437831
0.418144
0.407731
0.396031
0.387718
0.387505
0.393037
0.397046
0.398763
0.396957
0.394688
0.392899
0.386067
0.377089
0.371198
0.36453
0.361844
0.365778
0.37054
0.373891
0.387511
0.405428
0.403284
0.403563
0.414925
0.452537
0.461178
0.481367
0.492482
0.469794
0.433471
0.416392
0.4054
0.394188
0.387151
0.3884
0.39264
0.397023
0.39788
0.397436
0.397092
0.396821
0.38446
0.374137
0.368324
0.361588
0.356776
0.359545
0.36416
0.36835
0.37742
0.387987
0.388482
0.386118
0.40276
0.456587
0.463378
0.482771
0.492747
0.462325
0.428987
0.412219
0.403039
0.391888
0.387831
0.388517
0.392233
0.394446
0.398218
0.40062
0.404018
0.399896
0.384613
0.374747
0.364261
0.354336
0.34899
0.349888
0.355505
0.361614
0.371805
0.373785
0.369925
0.365873
0.388063
0.46414
0.465623
0.483984
0.49023
0.455384
0.423205
0.408897
0.400208
0.391582
0.387399
0.38922
0.392235
0.396223
0.399863
0.403324
0.40019
0.391005
0.378373
0.366081
0.35503
0.348817
0.343361
0.343765
0.34903
0.358108
0.369389
0.367937
0.359171
0.357046
0.379615
0.468555
0.474976
0.485804
0.481063
0.448414
0.419888
0.406268
0.397982
0.391406
0.389271
0.390717
0.395311
0.397826
0.399411
0.396785
0.392139
0.382042
0.370062
0.359974
0.353083
0.349013
0.345246
0.34289
0.34839
0.358214
0.368115
0.364849
0.354664
0.352516
0.376333
0.466728
0.479088
0.486931
0.47085
0.43965
0.418366
0.405946
0.396983
0.392507
0.39027
0.392462
0.396367
0.398472
0.394707
0.391771
0.38583
0.374772
0.365606
0.359867
0.355022
0.351534
0.348108
0.34573
0.349939
0.358616
0.367193
0.363624
0.354253
0.350618
0.376139
0.46265
0.477659
0.487391
0.463246
0.433193
0.418219
0.406541
0.39831
0.393295
0.392041
0.391994
0.396264
0.394868
0.391944
0.388215
0.38148
0.370464
0.364782
0.361709
0.357514
0.354236
0.350918
0.347944
0.351512
0.359433
0.367112
0.364212
0.356713
0.351551
0.381369
0.460509
0.474886
0.482328
0.453723
0.427845
0.417461
0.407761
0.400172
0.396005
0.39286
0.391795
0.392659
0.390752
0.389883
0.387912
0.377883
0.369646
0.366454
0.36436
0.360668
0.358503
0.354889
0.351835
0.353676
0.362515
0.369196
0.36661
0.361325
0.357079
0.395985
0.460806
0.471573
0.472228
0.442192
0.423847
0.416708
0.408116
0.402692
0.397171
0.394339
0.390762
0.387597
0.385326
0.388126
0.385321
0.376124
0.369577
0.369253
0.368848
0.366194
0.364545
0.360845
0.356953
0.357452
0.367744
0.374273
0.372642
0.371049
0.371288
0.414369
0.456985
0.462106
0.460778
0.433935
0.422048
0.415652
0.408654
0.403122
0.398555
0.394886
0.389793
0.380311
0.378045
0.381819
0.379476
0.371686
0.371316
0.373789
0.375578
0.373826
0.371944
0.367598
0.363749
0.363467
0.375577
0.38367
0.384834
0.386647
0.389941
0.435722
0.450013
0.451764
0.449488
0.429095
0.420272
0.41467
0.408964
0.404417
0.398932
0.395618
0.385929
0.375245
0.370599
0.372839
0.368827
0.366543
0.373313
0.38008
0.38348
0.3827
0.380191
0.375315
0.371849
0.372336
0.386066
0.397624
0.40154
0.403842
0.411786
0.455929
0.442817
0.44022
0.439059
0.426376
0.419693
0.413857
0.410096
0.4053
0.400634
0.395551
0.384204
0.373291
0.370246
0.366183
0.360652
0.362333
0.377317
0.388996
0.392935
0.393243
0.390085
0.384291
0.381478
0.383958
0.399882
0.414808
0.41938
0.423096
0.430783
0.459338
0.433601
0.42648
0.43365
0.425409
0.419049
0.411627
0.409586
0.407097
0.401833
0.395328
0.386963
0.379299
0.374612
0.367895
0.357711
0.360732
0.379132
0.397588
0.405567
0.405802
0.401965
0.395032
0.392707
0.398612
0.416061
0.432348
0.436922
0.433388
0.432788
0.455698
0.426138
0.419418
0.430986
0.424198
0.416638
0.409141
0.408484
0.40682
0.404324
0.401233
0.396638
0.387086
0.382032
0.37117
0.360051
0.356805
0.372276
0.394069
0.410156
0.417163
0.41428
0.40732
0.405855
0.4147
0.432371
0.447383
0.443625
0.433309
0.430198
0.449019
0.420469
0.414995
0.426771
0.422914
0.41571
0.409368
0.40812
0.407477
0.407401
0.408193
0.404182
0.394467
0.385503
0.373777
0.360971
0.35625
0.362535
0.386539
0.407144
0.420871
0.424781
0.420114
0.420609
0.431046
0.447473
0.453119
0.444107
0.430396
0.425165
0.435192
0.414193
0.410619
0.423354
0.423544
0.417125
0.410784
0.408922
0.40864
0.409089
0.408784
0.407218
0.397329
0.387466
0.375205
0.364825
0.356925
0.356687
0.374593
0.400728
0.420345
0.430698
0.431719
0.435555
0.445802
0.455647
0.454283
0.442396
0.424669
0.411038
0.415609
0.408839
0.407486
0.420745
0.424345
0.418869
0.412148
0.410717
0.41087
0.40831
0.407606
0.404144
0.396958
0.387444
0.378487
0.36815
0.359796
0.3551
0.363805
0.392631
0.41766
0.433304
0.440215
0.448694
0.455907
0.458389
0.45313
0.437414
0.411209
0.389548
0.390892
0.40485
0.403152
0.417548
0.423896
0.420078
0.413569
0.413456
0.410959
0.407906
0.404354
0.400343
0.393205
0.386916
0.37953
0.372149
0.362581
0.35823
0.36158
0.385109
0.414543
0.434705
0.444251
0.456899
0.460767
0.456951
0.44568
0.422949
0.386747
0.360292
0.36879
0.40107
0.39801
0.413577
0.422149
0.420789
0.413735
0.413161
0.411336
0.40691
0.401149
0.395339
0.389736
0.384528
0.3802
0.374438
0.367763
0.362928
0.365421
0.381383
0.412147
0.434474
0.445855
0.458073
0.460638
0.452424
0.434816
0.404807
0.360964
0.348932
0.365032
0.398008
0.394569
0.410182
0.420488
0.421131
0.412263
0.411136
0.410462
0.406427
0.398403
0.393151
0.387735
0.384432
0.380205
0.37632
0.370851
0.367748
0.369588
0.380833
0.408923
0.432478
0.44429
0.452623
0.457086
0.448219
0.426049
0.389485
0.3558
0.349605
0.362481
0.396573
0.393235
0.410743
0.421111
0.424009
0.414071
0.412192
0.412888
0.40672
0.399223
0.393577
0.389154
0.383897
0.378353
0.373921
0.371861
0.369548
0.372159
0.380663
0.403252
0.429176
0.440819
0.445321
0.449771
0.445693
0.424694
0.385914
0.359509
0.352811
0.361501
0.397028
0.394179
0.414408
0.425159
0.430042
0.420464
0.41775
0.416439
0.409253
0.400393
0.395261
0.389414
0.381439
0.373243
0.370534
0.368856
0.369499
0.372497
0.37885
0.394837
0.42629
0.439297
0.442187
0.443453
0.441487
0.427016
0.390799
0.366154
0.357871
0.362933
0.402377
0.39853
0.419116