/*--------------------------------*- C++ -*----------------------------------*\
| =========                 |                                                 |
| \\      /  F ield         | OpenFOAM: The Open Source CFD Toolbox           |
|  \\    /   O peration     | Version:  2.3.0                                 |
|   \\  /    A nd           | Web:      www.OpenFOAM.org                      |
|    \\/     M anipulation  |                                                 |
\*---------------------------------------------------------------------------*/
FoamFile
{
    version     2.0;
    format      ascii;
    class       volVectorField;
    location    "1.58";
    object      U.air;
}
// * * * * * * * * * * * * * * * * * * * * * * * * * * * * * * * * * * * * * //

dimensions      [0 1 -1 0 0 0 0];

internalField   nonuniform List<vector> 
6000
(
(-0.00908383 0.196605 0)
(0.0284285 0.110423 0)
(0.0902042 0.111461 0)
(0.130906 0.114979 0)
(0.152525 0.110904 0)
(0.139112 0.125333 0)
(0.0437979 0.198941 0)
(-0.122049 0.250662 0)
(-0.203626 0.208363 0)
(-0.0638156 0.119711 0)
(0.0980088 0.144978 0)
(0.0122136 0.20346 0)
(-0.199684 0.20387 0)
(-0.344804 0.176093 0)
(-0.421859 0.17645 0)
(-0.459667 0.196958 0)
(-0.448682 0.210936 0)
(-0.372464 0.203503 0)
(-0.247633 0.207639 0)
(-0.112489 0.210264 0)
(0.0218051 0.20737 0)
(0.126579 0.171947 0)
(0.187297 0.148118 0)
(0.222288 0.171157 0)
(0.214808 0.209647 0)
(0.14974 0.250159 0)
(0.0571363 0.246188 0)
(-0.00283343 0.234336 0)
(-0.00166817 0.243028 0)
(0.0270073 0.351537 0)
(0.0648492 0.870577 0)
(0.162006 0.866438 0)
(0.250608 0.923618 0)
(0.27795 0.97811 0)
(0.266492 1.02266 0)
(0.223169 1.08149 0)
(0.173828 1.17213 0)
(0.107045 1.20594 0)
(-0.0104676 1.06146 0)
(-0.0449366 0.814273 0)
(-0.0223655 1.01838 0)
(-0.163275 1.32259 0)
(-0.464986 1.29293 0)
(-0.64511 1.14903 0)
(-0.663046 1.01147 0)
(-0.600549 0.937198 0)
(-0.489378 0.827904 0)
(-0.375983 0.76703 0)
(-0.245355 0.722206 0)
(-0.12173 0.738413 0)
(0.00755424 0.745047 0)
(0.107237 0.837158 0)
(0.194056 0.895318 0)
(0.285559 0.914368 0)
(0.331842 0.955629 0)
(0.338193 1.0117 0)
(0.351146 1.04776 0)
(0.33862 1.0941 0)
(0.259159 1.16113 0)
(0.0851475 1.27405 0)
(0.0343968 0.665476 0)
(0.142437 0.543756 0)
(0.296835 0.633976 0)
(0.34385 0.743977 0)
(0.326441 0.796027 0)
(0.291873 0.859159 0)
(0.278356 0.942915 0)
(0.260008 1.04017 0)
(0.15789 1.09482 0)
(-0.0114881 0.690042 0)
(-0.0984348 0.838491 0)
(-0.178376 1.33814 0)
(-0.444046 1.29702 0)
(-0.538284 0.957678 0)
(-0.462265 0.72516 0)
(-0.326311 0.654625 0)
(-0.20494 0.56858 0)
(-0.127585 0.534465 0)
(-0.0723759 0.515448 0)
(-0.0292925 0.525342 0)
(0.0180863 0.541075 0)
(0.0861858 0.570125 0)
(0.185571 0.57933 0)
(0.30307 0.634419 0)
(0.372429 0.774901 0)
(0.421514 0.827745 0)
(0.509904 0.816758 0)
(0.600652 0.91941 0)
(0.53071 1.16079 0)
(0.199002 1.38939 0)
(0.065097 0.590242 0)
(0.11202 0.437601 0)
(0.196417 0.535507 0)
(0.332916 0.720542 0)
(0.371415 0.837261 0)
(0.372426 0.894123 0)
(0.369517 0.979215 0)
(0.342922 1.09417 0)
(0.315011 1.18971 0)
(0.140263 0.934423 0)
(-0.110898 0.921258 0)
(-0.124513 1.46358 0)
(-0.19511 1.46097 0)
(-0.231966 0.993668 0)
(-0.254046 0.7213 0)
(-0.158712 0.650037 0)
(-0.0510084 0.637664 0)
(-0.0058048 0.648915 0)
(0.0064591 0.649517 0)
(0.0125338 0.642154 0)
(0.0229842 0.634424 0)
(0.0652259 0.613579 0)
(0.128197 0.596414 0)
(0.23227 0.6124 0)
(0.331992 0.751531 0)
(0.440095 0.797834 0)
(0.561112 0.79249 0)
(0.659684 0.941977 0)
(0.552824 1.35439 0)
(0.207283 1.68235 0)
(0.0347398 0.570944 0)
(0.0356091 0.462982 0)
(0.0693665 0.474062 0)
(0.135755 0.61216 0)
(0.281122 0.764722 0)
(0.3717 0.844952 0)
(0.411556 0.969513 0)
(0.392744 1.10204 0)
(0.389047 1.22899 0)
(0.302734 1.21806 0)
(0.0256708 1.0786 0)
(-0.0371056 1.43259 0)
(0.0881497 1.38286 0)
(0.143593 1.05461 0)
(-0.00403139 0.721542 0)
(-0.0533228 0.555243 0)
(-0.00324867 0.566998 0)
(0.0392522 0.616814 0)
(0.0346399 0.640913 0)
(0.0262672 0.647629 0)
(0.0143312 0.65779 0)
(0.0317895 0.603589 0)
(0.105056 0.520093 0)
(0.199605 0.531446 0)
(0.300284 0.673736 0)
(0.409507 0.721164 0)
(0.526514 0.721196 0)
(0.531466 0.929032 0)
(0.331411 1.56865 0)
(0.056621 1.88812 0)
(0.0239404 0.570897 0)
(0.00687228 0.512599 0)
(-0.0394149 0.515064 0)
(-0.00420065 0.56658 0)
(0.0807148 0.662431 0)
(0.220945 0.742185 0)
(0.346216 0.91949 0)
(0.387076 1.11003 0)
(0.35972 1.22094 0)
(0.335558 1.30171 0)
(0.201148 1.30103 0)
(0.124247 1.39907 0)
(0.233326 1.26464 0)
(0.34371 1.07164 0)
(0.280552 0.898037 0)
(0.146681 0.604383 0)
(0.065936 0.526777 0)
(0.0580003 0.58645 0)
(0.0724647 0.619971 0)
(0.0841953 0.607419 0)
(0.0498415 0.641589 0)
(0.0196705 0.578456 0)
(0.0708523 0.443012 0)
(0.174855 0.473189 0)
(0.258171 0.607057 0)
(0.346403 0.655183 0)
(0.421069 0.664281 0)
(0.27636 1.04258 0)
(0.00985908 1.76559 0)
(-0.0490779 1.81535 0)
(-0.000229733 0.581985 0)
(-0.0336627 0.570515 0)
(-0.0899122 0.571642 0)
(-0.1236 0.588336 0)
(-0.0694907 0.626281 0)
(0.0240229 0.656459 0)
(0.168529 0.758772 0)
(0.31585 1.05763 0)
(0.318721 1.24423 0)
(0.311411 1.32523 0)
(0.249596 1.37509 0)
(0.238522 1.36384 0)
(0.280447 1.1937 0)
(0.316669 1.01528 0)
(0.289681 0.907836 0)
(0.187306 0.721334 0)
(0.0574491 0.590291 0)
(0.040491 0.552654 0)
(0.107678 0.574169 0)
(0.158454 0.608445 0)
(0.133093 0.696813 0)
(0.0833686 0.624642 0)
(0.0862825 0.340374 0)
(0.144037 0.425496 0)
(0.181104 0.567445 0)
(0.246976 0.620665 0)
(0.212216 0.656699 0)
(-0.00612056 1.33458 0)
(-0.174855 1.71903 0)
(-0.0712697 1.70086 0)
(-0.01721 0.620093 0)
(-0.0715914 0.637998 0)
(-0.137032 0.63451 0)
(-0.184878 0.621297 0)
(-0.191815 0.612243 0)
(-0.13133 0.610133 0)
(-0.0193402 0.634474 0)
(0.155598 0.908291 0)
(0.260147 1.2272 0)
(0.295121 1.33602 0)
(0.273787 1.38616 0)
(0.28949 1.35656 0)
(0.299167 1.15607 0)
(0.292677 1.03819 0)
(0.223477 0.940907 0)
(0.105085 0.809809 0)
(0.016817 0.576849 0)
(0.0582134 0.42748 0)
(0.166276 0.423469 0)
(0.258809 0.49244 0)
(0.291619 0.651564 0)
(0.262209 0.676992 0)
(0.186901 0.355219 0)
(0.10799 0.454577 0)
(0.0750922 0.590239 0)
(0.121551 0.58655 0)
(0.0110746 0.802204 0)
(-0.226692 1.51531 0)
(-0.213039 1.59587 0)
(-0.0933285 1.56027 0)
(-0.0303869 0.681461 0)
(-0.110028 0.715465 0)
(-0.198374 0.6975 0)
(-0.251819 0.655497 0)
(-0.270135 0.616014 0)
(-0.255115 0.575376 0)
(-0.186119 0.567046 0)
(-0.00839291 0.706379 0)
(0.167586 1.13278 0)
(0.256117 1.30979 0)
(0.28874 1.38898 0)
(0.315782 1.34436 0)
(0.325945 1.17324 0)
(0.291248 1.06237 0)
(0.218628 0.993066 0)
(0.137064 0.893278 0)
(0.0820776 0.570625 0)
(0.1283 0.341823 0)
(0.224987 0.332005 0)
(0.307153 0.432203 0)
(0.367448 0.612644 0)
(0.354628 0.779509 0)
(0.191415 0.554613 0)
(-0.0294856 0.594059 0)
(-0.0780916 0.634912 0)
(-0.0865892 0.565109 0)
(-0.207883 1.04652 0)
(-0.311572 1.49758 0)
(-0.217157 1.48527 0)
(-0.096637 1.40277 0)
(-0.0630193 0.722895 0)
(-0.180256 0.830653 0)
(-0.294833 0.75101 0)
(-0.332945 0.666259 0)
(-0.335769 0.616852 0)
(-0.329913 0.562141 0)
(-0.295313 0.518211 0)
(-0.162965 0.560717 0)
(0.0378631 0.975526 0)
(0.199835 1.27557 0)
(0.256788 1.33664 0)
(0.322339 1.30533 0)
(0.335741 1.15175 0)
(0.319032 1.09888 0)
(0.285574 0.990677 0)
(0.280285 0.903548 0)
(0.256191 0.580709 0)
(0.244195 0.302855 0)
(0.290091 0.283218 0)
(0.352557 0.410635 0)
(0.435889 0.589296 0)
(0.358826 0.945346 0)
(-0.00269555 0.903134 0)
(-0.300021 0.746549 0)
(-0.290336 0.683172 0)
(-0.330294 0.627836 0)
(-0.391415 1.11889 0)
(-0.331673 1.43944 0)
(-0.193856 1.36542 0)
(-0.0755025 1.25415 0)
(-0.11487 0.759846 0)
(-0.189641 0.802181 0)
(-0.324877 0.799575 0)
(-0.373202 0.699774 0)
(-0.375591 0.596244 0)
(-0.365107 0.546346 0)
(-0.348633 0.492577 0)
(-0.278085 0.468758 0)
(-0.0716582 0.759435 0)
(0.141291 1.21554 0)
(0.225027 1.26498 0)
(0.318875 1.23365 0)
(0.33818 1.13716 0)
(0.355714 1.06707 0)
(0.375733 0.946005 0)
(0.43064 0.863307 0)
(0.450617 0.613447 0)
(0.402038 0.335087 0)
(0.378027 0.26113 0)
(0.4099 0.385042 0)
(0.465879 0.53691 0)
(0.269767 1.17752 0)
(-0.281503 1.30079 0)
(-0.545201 0.805287 0)
(-0.494683 0.724952 0)
(-0.507243 0.708481 0)
(-0.485501 1.08426 0)
(-0.319174 1.30563 0)
(-0.137897 1.23535 0)
(-0.046632 1.16524 0)
(-0.0570213 0.852325 0)
(-0.187823 0.902866 0)
(-0.302424 0.761605 0)
(-0.347898 0.562628 0)
(-0.37378 0.62888 0)
(-0.356666 0.541534 0)
(-0.375545 0.476425 0)
(-0.33667 0.416015 0)
(-0.194125 0.58485 0)
(0.0643232 1.06778 0)
(0.223745 1.19319 0)
(0.30831 1.14944 0)
(0.350332 1.08534 0)
(0.392248 1.00965 0)
(0.44408 0.862112 0)
(0.547898 0.770444 0)
(0.622437 0.603648 0)
(0.598607 0.398766 0)
(0.513258 0.299416 0)
(0.420299 0.36965 0)
(0.276668 0.561034 0)
(0.0337089 1.57155 0)
(-0.292823 1.72149 0)
(-0.497794 0.845463 0)
(-0.581108 0.789132 0)
(-0.576423 0.761058 0)
(-0.507702 0.979992 0)
(-0.307598 1.14087 0)
(-0.124252 1.11887 0)
(-0.0393589 1.11543 0)
(-0.0338181 0.890877 0)
(-0.118377 0.912868 0)
(-0.20484 0.863274 0)
(-0.314826 0.680023 0)
(-0.309975 0.463856 0)
(-0.333244 0.526866 0)
(-0.365008 0.522341 0)
(-0.363649 0.403742 0)
(-0.307089 0.473517 0)
(-0.0220429 0.797595 0)
(0.221681 1.10194 0)
(0.2969 1.04834 0)
(0.355939 1.01797 0)
(0.403978 0.923179 0)
(0.496225 0.750085 0)
(0.630092 0.642689 0)
(0.746752 0.540826 0)
(0.759437 0.446499 0)
(0.649667 0.409375 0)
(0.446517 0.479483 0)
(0.119912 0.814433 0)
(-0.0871842 1.50731 0)
(0.00314046 1.72144 0)
(-0.240611 1.06993 0)
(-0.560355 0.882001 0)
(-0.591857 0.810409 0)
(-0.528818 0.881952 0)
(-0.348313 0.983024 0)
(-0.169862 1.00343 0)
(-0.0602232 1.04089 0)
(-0.0247023 0.851956 0)
(-0.0785711 0.826617 0)
(-0.107443 0.769228 0)
(-0.136431 0.616135 0)
(-0.184345 0.520885 0)
(-0.256203 0.533943 0)
(-0.287323 0.447734 0)
(-0.347682 0.387635 0)
(-0.34569 0.393191 0)
(-0.0927563 0.519166 0)
(0.166311 0.933256 0)
(0.309691 1.00092 0)
(0.352482 0.935252 0)
(0.40663 0.825109 0)
(0.527793 0.627202 0)
(0.671139 0.504518 0)
(0.769158 0.47728 0)
(0.771687 0.492333 0)
(0.643464 0.535532 0)
(0.419773 0.673387 0)
(0.129824 1.10262 0)
(0.0238835 1.45922 0)
(0.163309 1.60738 0)
(0.0867817 1.52718 0)
(-0.288429 1.02747 0)
(-0.547133 0.893036 0)
(-0.550063 0.819773 0)
(-0.411947 0.825999 0)
(-0.231702 0.868101 0)
(-0.0835066 0.915289 0)
(-0.0251901 0.896095 0)
(-0.0673959 0.841517 0)
(-0.0496441 0.741672 0)
(-0.0183315 0.571295 0)
(-0.0163292 0.43546 0)
(-0.0606881 0.513876 0)
(-0.179729 0.581526 0)
(-0.237073 0.399614 0)
(-0.269316 0.283428 0)
(-0.11661 0.347609 0)
(0.0923709 0.66521 0)
(0.316984 0.937963 0)
(0.350193 0.876026 0)
(0.410439 0.736855 0)
(0.553639 0.485874 0)
(0.671591 0.391505 0)
(0.727751 0.436626 0)
(0.6775 0.523538 0)
(0.553277 0.634985 0)
(0.368681 0.843761 0)
(0.203091 1.19115 0)
(0.160127 1.37281 0)
(0.206511 1.52304 0)
(0.258315 1.55085 0)
(0.0475127 1.47789 0)
(-0.327073 1.04175 0)
(-0.503543 0.801194 0)
(-0.412933 0.697306 0)
(-0.255661 0.724843 0)
(-0.0895527 0.760882 0)
(-0.0302695 0.94978 0)
(-0.0581928 0.825492 0)
(-0.0030901 0.696865 0)
(0.0620025 0.541534 0)
(0.0884986 0.440949 0)
(0.0802945 0.498319 0)
(0.0405094 0.563161 0)
(-0.0416369 0.439438 0)
(-0.0941593 0.208109 0)
(-0.0629426 0.255728 0)
(0.0677643 0.451051 0)
(0.261068 0.81895 0)
(0.325531 0.847727 0)
(0.421814 0.63252 0)
(0.561133 0.345807 0)
(0.646935 0.333187 0)
(0.6359 0.433774 0)
(0.55923 0.576465 0)
(0.463843 0.70302 0)
(0.362567 0.957786 0)
(0.269242 1.2269 0)
(0.238355 1.37781 0)
(0.238427 1.44879 0)
(0.258302 1.55012 0)
(0.233143 1.54025 0)
(-0.0299931 1.44169 0)
(-0.278864 0.823066 0)
(-0.360379 0.631774 0)
(-0.221665 0.601121 0)
(-0.076439 0.613264 0)
(-0.0288793 1.02015 0)
(-0.0455527 0.789081 0)
(0.0238422 0.632489 0)
(0.108384 0.486753 0)
(0.171821 0.418272 0)
(0.19503 0.486566 0)
(0.194898 0.5691 0)
(0.161615 0.464979 0)
(0.0946445 0.218954 0)
(0.0581089 0.22078 0)
(0.102066 0.344719 0)
(0.186632 0.705751 0)
(0.275963 0.816698 0)
(0.424287 0.492135 0)
(0.524677 0.254188 0)
(0.555748 0.311182 0)
(0.50946 0.463889 0)
(0.454874 0.599987 0)
(0.415191 0.71924 0)
(0.386768 1.00545 0)
(0.333358 1.27233 0)
(0.283866 1.36344 0)
(0.267179 1.45309 0)
(0.261946 1.51405 0)
(0.263082 1.56068 0)
(0.244545 1.54233 0)
(0.00242886 1.03616 0)
(-0.238256 0.606622 0)
(-0.16447 0.498008 0)
(-0.0480746 0.51105 0)
(-0.0163103 1.06849 0)
(-0.0291134 0.764795 0)
(0.0365457 0.573569 0)
(0.128259 0.420003 0)
(0.188211 0.370604 0)
(0.233773 0.480329 0)
(0.259841 0.592091 0)
(0.263121 0.517747 0)
(0.207787 0.289461 0)
(0.147247 0.246514 0)
(0.130223 0.32584 0)
(0.135043 0.659667 0)
(0.237491 0.72595 0)
(0.420469 0.354303 0)
(0.460005 0.234648 0)
(0.427691 0.324282 0)
(0.369905 0.472701 0)
(0.357981 0.575121 0)
(0.376499 0.690367 0)
(0.410404 1.00623 0)
(0.376246 1.29148 0)
(0.317982 1.4001 0)
(0.272227 1.44111 0)
(0.26231 1.52063 0)
(0.252976 1.53011 0)
(0.300963 1.5367 0)
(0.211079 1.36025 0)
(-0.0513862 0.68659 0)
(-0.0926218 0.409109 0)
(-0.00847646 0.463186 0)
(-0.00189797 1.09668 0)
(0.00875829 0.748761 0)
(0.0762417 0.527935 0)
(0.131522 0.376401 0)
(0.115196 0.344182 0)
(0.141653 0.454381 0)
(0.185571 0.539607 0)
(0.246266 0.487869 0)
(0.223912 0.344501 0)
(0.165203 0.297974 0)
(0.123847 0.340182 0)
(0.0990365 0.662446 0)
(0.208986 0.584101 0)
(0.355646 0.273081 0)
(0.335798 0.264708 0)
(0.268803 0.369801 0)
(0.225049 0.461645 0)
(0.245505 0.523529 0)
(0.294154 0.620608 0)
(0.377472 0.946559 0)
(0.395421 1.33399 0)
(0.322036 1.40901 0)
(0.271955 1.46988 0)
(0.235305 1.49179 0)
(0.222451 1.51219 0)
(0.237304 1.47152 0)
(0.256873 1.40957 0)
(0.110296 0.885335 0)
(0.0150994 0.375865 0)
(-0.0108423 0.418828 0)
(0.0229797 1.10091 0)
(0.0990689 0.741524 0)
(0.128274 0.479495 0)
(0.169436 0.388669 0)
(0.15999 0.375588 0)
(0.158475 0.447708 0)
(0.191849 0.509627 0)
(0.231255 0.488976 0)
(0.208218 0.400799 0)
(0.146099 0.356907 0)
(0.10162 0.370729 0)
(0.0755677 0.681278 0)
(0.190131 0.471973 0)
(0.227141 0.263388 0)
(0.186658 0.328814 0)
(0.106683 0.396698 0)
(0.0888324 0.441252 0)
(0.106615 0.475313 0)
(0.147631 0.537208 0)
(0.247523 0.817661 0)
(0.359163 1.31833 0)
(0.323438 1.44671 0)
(0.264249 1.46979 0)
(0.208181 1.49907 0)
(0.179247 1.48847 0)
(0.162992 1.44763 0)
(0.158497 1.41141 0)
(0.110239 0.961862 0)
(0.0741379 0.430732 0)
(-0.000439637 0.439001 0)
(0.095069 1.10084 0)
(0.156954 0.684492 0)
(0.234297 0.479988 0)
(0.238334 0.422927 0)
(0.204994 0.420343 0)
(0.181124 0.468053 0)
(0.188615 0.50649 0)
(0.200645 0.496759 0)
(0.175733 0.449857 0)
(0.118051 0.415816 0)
(0.0641356 0.411303 0)
(0.0570412 0.690034 0)
(0.140384 0.418281 0)
(0.10988 0.324189 0)
(0.0576497 0.383541 0)
(0.00623803 0.419078 0)
(-0.00854783 0.448819 0)
(-0.0173542 0.475864 0)
(-0.0166551 0.50257 0)
(0.0396733 0.66576 0)
(0.235747 1.21375 0)
(0.297 1.44494 0)
(0.249636 1.50721 0)
(0.174301 1.50799 0)
(0.113223 1.49396 0)
(0.0580607 1.45106 0)
(0.0172941 1.43788 0)
(0.06224 0.927257 0)
(0.0890281 0.486416 0)
(0.0139338 0.452199 0)
(0.121965 0.9852 0)
(0.227237 0.647348 0)
(0.276191 0.50429 0)
(0.260018 0.467223 0)
(0.222357 0.466485 0)
(0.191991 0.490465 0)
(0.17998 0.511018 0)
(0.171409 0.508698 0)
(0.144191 0.488491 0)
(0.0959088 0.471116 0)
(0.0406891 0.478721 0)
(0.0494796 0.680941 0)
(0.0686264 0.43188 0)
(0.0386957 0.383018 0)
(-0.0161738 0.418841 0)
(-0.0421693 0.43984 0)
(-0.0655975 0.472536 0)
(-0.0971378 0.507875 0)
(-0.136213 0.532741 0)
(-0.146082 0.601845 0)
(-0.0120475 0.980143 0)
(0.191082 1.42694 0)
(0.189667 1.54412 0)
(0.107155 1.56927 0)
(0.0184014 1.53908 0)
(-0.0513413 1.50949 0)
(-0.0319316 1.4309 0)
(0.0681476 0.844417 0)
(0.0908637 0.518511 0)
(0.0202455 0.510107 0)
(0.125285 0.888851 0)
(0.230719 0.643517 0)
(0.260636 0.539519 0)
(0.23923 0.50731 0)
(0.209134 0.501666 0)
(0.183611 0.511456 0)
(0.164321 0.52246 0)
(0.144285 0.525284 0)
(0.114177 0.521191 0)
(0.0716433 0.520008 0)
(0.0266729 0.552501 0)
(0.0325149 0.673942 0)
(0.0404232 0.476885 0)
(0.00954205 0.439417 0)
(-0.0297888 0.445331 0)
(-0.0586708 0.462597 0)
(-0.0946568 0.504043 0)
(-0.144238 0.555396 0)
(-0.213795 0.601821 0)
(-0.278956 0.654472 0)
(-0.24514 0.838975 0)
(-0.070377 1.30189 0)
(0.0457461 1.59818 0)
(0.0109037 1.65661 0)
(-0.0429599 1.62202 0)
(-0.051914 1.55108 0)
(0.0533604 1.35535 0)
(0.133245 0.824739 0)
(0.0932271 0.597498 0)
(0.00760783 0.577476 0)
(0.0966863 0.790114 0)
(0.18643 0.638371 0)
(0.204818 0.560496 0)
(0.194943 0.530669 0)
(0.178718 0.523558 0)
(0.161043 0.529194 0)
(0.141836 0.539291 0)
(0.117927 0.547977 0)
(0.0875568 0.553618 0)
(0.0528414 0.562553 0)
(0.0209283 0.606259 0)
(0.0673059 0.678448 0)
(0.036637 0.54078 0)
(0.0259696 0.490156 0)
(-0.0114839 0.473609 0)
(-0.0506369 0.50144 0)
(-0.0976966 0.558561 0)
(-0.161594 0.628257 0)
(-0.246328 0.694584 0)
(-0.346847 0.760131 0)
(-0.401462 0.880739 0)
(-0.337349 1.1997 0)
(-0.191489 1.58033 0)
(-0.104815 1.7096 0)
(-0.0580484 1.62534 0)
(0.0460715 1.51914 0)
(0.186653 1.28086 0)
(0.210054 0.91403 0)
(0.121086 0.724194 0)
(0.0184263 0.644558 0)
(0.0562488 0.700464 0)
(0.122865 0.613785 0)
(0.14486 0.559518 0)
(0.1479 0.537694 0)
(0.142757 0.53421 0)
(0.132456 0.542405 0)
(0.116734 0.557176 0)
(0.0932418 0.573956 0)
(0.063215 0.586055 0)
(0.0350854 0.595165 0)
(0.0232099 0.633699 0)
(0.0787223 0.683224 0)
(0.0662402 0.615485 0)
(0.0599163 0.536503 0)
(0.0257696 0.526382 0)
(-0.0186818 0.576994 0)
(-0.0800633 0.654412 0)
(-0.155998 0.730039 0)
(-0.241962 0.801726 0)
(-0.335412 0.875247 0)
(-0.430112 0.99587 0)
(-0.450375 1.23237 0)
(-0.339618 1.5699 0)
(-0.164276 1.75515 0)
(-0.0325316 1.63691 0)
(0.122336 1.51199 0)
(0.241203 1.3169 0)
(0.224224 1.05626 0)
(0.118411 0.876845 0)
(0.0275479 0.732834 0)
(0.0320122 0.631358 0)
(0.0786379 0.581069 0)
(0.0989574 0.547503 0)
(0.106111 0.535451 0)
(0.106677 0.537287 0)
(0.102485 0.550254 0)
(0.0928012 0.571906 0)
(0.0744714 0.598495 0)
(0.0471898 0.616262 0)
(0.0290614 0.613999 0)
(0.042049 0.639565 0)
(0.0903929 0.677733 0)
(0.106989 0.66075 0)
(0.104667 0.587095 0)
(0.0943053 0.604658 0)
(0.0436223 0.710738 0)
(-0.0575117 0.803671 0)
(-0.157679 0.857723 0)
(-0.231371 0.90535 0)
(-0.287071 0.967088 0)
(-0.323802 1.08209 0)
(-0.327131 1.30129 0)
(-0.272187 1.60727 0)
(-0.125282 1.83028 0)
(-0.00929236 1.73303 0)
(0.068378 1.59151 0)
(0.149463 1.40748 0)
(0.133787 1.22415 0)
(0.057542 1.03962 0)
(0.0200307 0.849498 0)
(0.0192545 0.585663 0)
(0.0505899 0.555344 0)
(0.0638708 0.535667 0)
(0.0688704 0.530573 0)
(0.0705052 0.5363 0)
(0.0703401 0.552668 0)
(0.0682883 0.5797 0)
(0.0609666 0.614661 0)
(0.0388394 0.640786 0)
(0.0299779 0.615788 0)
(0.0600881 0.616333 0)
(0.116562 0.651964 0)
(0.157148 0.686176 0)
(0.182794 0.61989 0)
(0.231568 0.677551 0)
(0.164291 0.87083 0)
(-0.0471536 1.00401 0)
(-0.206265 1.00201 0)
(-0.248791 0.995424 0)
(-0.255768 1.03369 0)
(-0.222401 1.12137 0)
(-0.127688 1.28721 0)
(-0.0292688 1.44918 0)
(0.00790824 1.58111 0)
(-0.00363971 1.5566 0)
(-0.0116014 1.43594 0)
(0.0370114 1.32324 0)
(0.0687444 1.22742 0)
(0.0222094 1.07481 0)
(-0.00412938 0.888981 0)
(0.0110897 0.560623 0)
(0.0292869 0.541382 0)
(0.0338721 0.529789 0)
(0.0330006 0.528423 0)
(0.0312244 0.535494 0)
(0.0309326 0.551839 0)
(0.0338903 0.57924 0)
(0.0413279 0.617281 0)
(0.0326275 0.656318 0)
(0.0254247 0.61897 0)
(0.0637495 0.570566 0)
(0.136252 0.588563 0)
(0.222996 0.659265 0)
(0.31425 0.580943 0)
(0.344267 0.699465 0)
(0.224356 0.979896 0)
(0.0346116 1.0601 0)
(-0.078322 0.944299 0)
(-0.114143 0.869934 0)
(-0.106284 0.869604 0)
(-0.0597598 0.858152 0)
(-0.0103355 0.966904 0)
(0.014076 1.3004 0)
(0.0500772 1.57538 0)
(0.102901 1.58986 0)
(0.123174 1.36448 0)
(0.124564 1.14721 0)
(0.109194 1.09227 0)
(0.051806 0.999383 0)
(0.0083332 0.739866 0)
(0.00510341 0.551673 0)
(0.0109414 0.540487 0)
(0.00591728 0.534483 0)
(-0.00374452 0.535281 0)
(-0.0137717 0.54229 0)
(-0.0209547 0.555935 0)
(-0.0211601 0.577872 0)
(-0.00919316 0.610105 0)
(0.00904397 0.666402 0)
(0.00397643 0.616675 0)
(0.0323851 0.520443 0)
(0.111238 0.504146 0)
(0.209329 0.555938 0)
(0.405448 0.486373 0)
(0.25808 0.699749 0)
(0.184434 1.17251 0)
(0.079676 1.16455 0)
(0.0889729 1.04386 0)
(0.0715406 0.952663 0)
(0.0530122 0.950542 0)
(0.0171995 0.948376 0)
(-0.0266362 1.07652 0)
(-0.0230961 1.22879 0)
(0.0653188 1.32357 0)
(0.190169 1.33409 0)
(0.267116 1.27249 0)
(0.257915 1.20382 0)
(0.201027 1.18516 0)
(0.139214 1.11942 0)
(0.0545586 0.881021 0)
(0.000367559 0.554719 0)
(-0.00525158 0.55159 0)
(-0.019911 0.551354 0)
(-0.0397318 0.555182 0)
(-0.061165 0.563621 0)
(-0.0804024 0.575986 0)
(-0.0913591 0.591328 0)
(-0.0872526 0.610693 0)
(-0.0490248 0.64439 0)
(-0.0490206 0.636511 0)
(-0.0361014 0.494306 0)
(0.00835404 0.435351 0)
(0.0869447 0.429 0)
(0.189472 0.454369 0)
(-0.000193861 0.909394 0)
(-0.104682 1.05042 0)
(-0.0761088 0.957413 0)
(0.000482084 0.862673 0)
(0.0252288 0.820936 0)
(0.031429 0.811592 0)
(0.0212966 0.826579 0)
(0.00941838 0.893896 0)
(0.0368866 0.986454 0)
(0.109383 1.05627 0)
(0.194028 1.08041 0)
(0.248736 1.06591 0)
(0.249476 1.05598 0)
(0.205551 1.05507 0)
(0.149758 1.01745 0)
(0.0587503 0.842346 0)
(-0.00328391 0.564666 0)
(-0.0176518 0.570899 0)
(-0.0409258 0.577355 0)
(-0.0708767 0.585388 0)
(-0.104204 0.596203 0)
(-0.13647 0.608742 0)
(-0.161201 0.619598 0)
(-0.169801 0.627935 0)
(-0.147494 0.640439 0)
(-0.104879 0.652329 0)
(-0.149307 0.479892 0)
(-0.145159 0.387524 0)
(-0.100603 0.379827 0)
(-0.167805 0.574468 0)
(-0.339883 0.990924 0)
(-0.339072 1.0074 0)
(-0.255222 0.867895 0)
(-0.168595 0.791678 0)
(-0.0981732 0.781378 0)
(-0.0476608 0.743733 0)
(-0.00329021 0.775209 0)
(0.0326884 0.846166 0)
(0.0824831 0.925736 0)
(0.145753 0.98883 0)
(0.202978 1.01755 0)
(0.238139 1.02955 0)
(0.237788 1.06095 0)
(0.208487 1.09028 0)
(0.151524 1.05088 0)
(0.0564355 0.920524 0)
(-0.00386634 0.580012 0)
(-0.0229901 0.599925 0)
(-0.0549948 0.617769 0)
(-0.0963843 0.634696 0)
(-0.143236 0.647437 0)
(-0.190805 0.657364 0)
(-0.235303 0.660023 0)
(-0.265074 0.65133 0)
(-0.267224 0.645004 0)
(-0.219856 0.639647 0)
(-0.217492 0.573758 0)
(-0.290694 0.39373 0)
(-0.372398 0.486578 0)
(-0.589092 0.798282 0)
(-0.644521 1.02526 0)
(-0.543312 0.905155 0)
(-0.424294 0.790443 0)
(-0.342921 0.722438 0)
(-0.241302 0.708542 0)
(-0.154539 0.70392 0)
(-0.0746616 0.745678 0)
(0.00628154 0.817894 0)
(0.0801892 0.863282 0)
(0.151942 0.924711 0)
(0.207364 0.968321 0)
(0.237622 1.01067 0)
(0.239907 1.06892 0)
(0.214432 1.12186 0)
(0.166396 1.14818 0)
(0.0601878 1.03677 0)
(0.00342765 0.593113 0)
(-0.0113285 0.634183 0)
(-0.0519932 0.662717 0)
(-0.11259 0.689469 0)
(-0.182563 0.705378 0)
(-0.250878 0.72137 0)
(-0.32444 0.731124 0)
(-0.379758 0.694355 0)
(-0.402352 0.660571 0)
(-0.397704 0.635804 0)
(-0.339341 0.603765 0)
(-0.425488 0.55064 0)
(-0.700306 0.750257 0)
(-0.806301 0.987966 0)
(-0.790575 0.940964 0)
(-0.656473 0.814579 0)
(-0.551129 0.732053 0)
(-0.466743 0.658989 0)
(-0.367648 0.627451 0)
(-0.269684 0.636063 0)
(-0.175987 0.669269 0)
(-0.0726837 0.732736 0)
(0.0308024 0.808127 0)
(0.122616 0.88091 0)
(0.197701 0.94575 0)
(0.243241 1.02177 0)
(0.257094 1.10546 0)
(0.235468 1.18863 0)
(0.178698 1.21519 0)
(0.0640061 1.16469 0)
(0.0140142 0.573551 0)
(0.00375863 0.648392 0)
(-0.0569194 0.69235 0)
(-0.137002 0.71589 0)
(-0.217725 0.736663 0)
(-0.296848 0.762684 0)
(-0.416812 0.805395 0)
(-0.52143 0.751443 0)
(-0.565134 0.707827 0)
(-0.591484 0.658798 0)
(-0.541883 0.653181 0)
(-0.526137 0.8136 0)
(-0.735269 0.961008 0)
(-0.800573 1.05603 0)
(-0.773899 0.866255 0)
(-0.683264 0.746087 0)
(-0.594335 0.678378 0)
(-0.518606 0.599608 0)
(-0.443914 0.556554 0)
(-0.355914 0.568922 0)
(-0.271709 0.593716 0)
(-0.179187 0.64552 0)
(-0.0782 0.715632 0)
(0.0267107 0.793304 0)
(0.126046 0.875648 0)
(0.204473 0.978313 0)
(0.248413 1.10055 0)
(0.23791 1.22758 0)
(0.17552 1.30386 0)
(0.057066 1.29261 0)
(-0.00809721 0.533901 0)
(-0.0428775 0.678815 0)
(-0.127412 0.73775 0)
(-0.202262 0.770193 0)
(-0.287846 0.766247 0)
(-0.366416 0.80134 0)
(-0.487161 0.906897 0)
(-0.618737 0.832164 0)
(-0.725442 0.779411 0)
(-0.787814 0.730491 0)
(-0.778749 0.708569 0)
(-0.618039 0.893128 0)
(-0.64801 1.10361 0)
(-0.681669 1.11343 0)
(-0.691607 0.840505 0)
(-0.657355 0.705482 0)
(-0.589856 0.635972 0)
(-0.527904 0.570706 0)
(-0.482539 0.520774 0)
(-0.424565 0.526385 0)
(-0.356422 0.550383 0)
(-0.283242 0.590805 0)
(-0.199189 0.646408 0)
(-0.10093 0.71002 0)
(0.00828582 0.787095 0)
(0.115662 0.906676 0)
(0.193949 1.07508 0)
(0.198229 1.27169 0)
(0.132553 1.39906 0)
(0.03435 1.39975 0)
(-0.0719304 0.544475 0)
(-0.119587 0.742371 0)
(-0.201523 0.791554 0)
(-0.248437 0.793636 0)
(-0.297814 0.810932 0)
(-0.407841 0.902002 0)
(-0.522457 0.976837 0)
(-0.661935 0.949512 0)
(-0.820195 0.857254 0)
(-0.939112 0.806575 0)
(-0.953766 0.774914 0)
(-0.793025 0.859179 0)
(-0.613197 1.14604 0)
(-0.526528 1.15596 0)
(-0.564228 0.869341 0)
(-0.587757 0.692109 0)
(-0.55962 0.613708 0)
(-0.518842 0.557281 0)
(-0.490068 0.515533 0)
(-0.458156 0.507982 0)
(-0.413375 0.524623 0)
(-0.359021 0.558142 0)
(-0.296067 0.601125 0)
(-0.221879 0.648877 0)
(-0.130703 0.705763 0)
(-0.023825 0.821283 0)
(0.0728388 1.03662 0)
(0.0974984 1.31276 0)
(0.0442916 1.4883 0)
(-0.000508831 1.45833 0)
(-0.109207 0.651279 0)
(-0.168651 0.751904 0)
(-0.23781 0.805165 0)
(-0.279217 0.809526 0)
(-0.319758 0.848458 0)
(-0.400563 0.989931 0)
(-0.505912 1.04982 0)
(-0.671743 1.05599 0)
(-0.880575 1.01065 0)
(-1.01388 0.828907 0)
(-1.05256 0.822096 0)
(-0.962626 0.845908 0)
(-0.711808 1.00723 0)
(-0.482148 1.11152 0)
(-0.451814 0.934594 0)
(-0.518235 0.709859 0)
(-0.528024 0.604692 0)
(-0.509595 0.546025 0)
(-0.487686 0.508957 0)
(-0.466483 0.497462 0)
(-0.437749 0.509931 0)
(-0.397847 0.538744 0)
(-0.34908 0.57881 0)
(-0.297901 0.623438 0)
(-0.243361 0.667567 0)
(-0.179197 0.760518 0)
(-0.1025 0.995078 0)
(-0.0491636 1.33961 0)
(-0.0690225 1.54911 0)
(-0.0312131 1.45129 0)
(-0.0890078 0.778698 0)
(-0.21805 0.804966 0)
(-0.346944 0.837171 0)
(-0.336169 0.839642 0)
(-0.301663 0.898459 0)
(-0.363596 1.09925 0)
(-0.474043 1.15562 0)
(-0.628598 1.15763 0)
(-0.818253 1.15093 0)
(-0.95129 0.863112 0)
(-1.03598 0.831594 0)
(-1.00893 0.840216 0)
(-0.849143 0.877024 0)
(-0.594824 0.994203 0)
(-0.449527 0.935504 0)
(-0.46558 0.737922 0)
(-0.502654 0.608644 0)
(-0.504935 0.536862 0)
(-0.491323 0.496284 0)
(-0.470992 0.482063 0)
(-0.444706 0.489508 0)
(-0.409003 0.514774 0)
(-0.3676 0.55771 0)
(-0.332695 0.616187 0)
(-0.316844 0.677235 0)
(-0.310095 0.765616 0)
(-0.282854 0.972842 0)
(-0.215429 1.34147 0)
(-0.173172 1.56 0)
(-0.0494374 1.38463 0)
(-0.060667 0.839339 0)
(-0.141776 0.907976 0)
(-0.159331 0.917084 0)
(-0.115132 0.970349 0)
(-0.173823 1.05527 0)
(-0.226546 1.26257 0)
(-0.418249 1.28373 0)
(-0.592678 1.2709 0)
(-0.745196 1.22197 0)
(-0.885548 0.955283 0)
(-0.98102 0.817667 0)
(-0.97722 0.814621 0)
(-0.897473 0.813671 0)
(-0.726415 0.846098 0)
(-0.536044 0.870668 0)
(-0.468678 0.739971 0)
(-0.4926 0.608678 0)
(-0.50861 0.527007 0)
(-0.500327 0.478834 0)
(-0.479201 0.459868 0)
(-0.45 0.460692 0)
(-0.412675 0.482698 0)
(-0.372167 0.532324 0)
(-0.34177 0.615722 0)
(-0.347674 0.715956 0)
(-0.388916 0.818789 0)
(-0.404408 1.00659 0)
(-0.347212 1.31539 0)
(-0.24402 1.51353 0)
(-0.0498906 1.29166 0)
(-0.00337539 0.901005 0)
(-0.0487735 0.879818 0)
(-0.0200009 0.9515 0)
(-0.0298351 1.09579 0)
(0.0573939 1.21979 0)
(-0.144838 1.5226 0)
(-0.345636 1.47772 0)
(-0.568585 1.37238 0)
(-0.720792 1.27293 0)
(-0.838839 1.0473 0)
(-0.905632 0.802242 0)
(-0.918679 0.770012 0)
(-0.87535 0.756578 0)
(-0.782215 0.755833 0)
(-0.633945 0.757939 0)
(-0.524119 0.713831 0)
(-0.504093 0.606117 0)
(-0.515854 0.514414 0)
(-0.512619 0.459643 0)
(-0.493894 0.436853 0)
(-0.463091 0.431119 0)
(-0.420248 0.45016 0)
(-0.372241 0.504905 0)
(-0.339346 0.610924 0)
(-0.335769 0.746334 0)
(-0.3859 0.87574 0)
(-0.44847 1.05169 0)
(-0.40504 1.27995 0)
(-0.273721 1.43322 0)
(-0.0596849 1.1982 0)
(0.0936917 0.875137 0)
(0.0549791 0.907038 0)
(0.047341 1.03546 0)
(0.00965256 1.19886 0)
(0.0277519 1.47251 0)
(-0.19289 1.8054 0)
(-0.311952 1.68632 0)
(-0.53886 1.49289 0)
(-0.711783 1.30539 0)
(-0.788722 1.06954 0)
(-0.81955 0.795481 0)
(-0.85142 0.735545 0)
(-0.834166 0.71089 0)
(-0.78059 0.686222 0)
(-0.689247 0.668188 0)
(-0.587082 0.645576 0)
(-0.528557 0.581257 0)
(-0.518823 0.497382 0)
(-0.519219 0.442202 0)
(-0.50536 0.417036 0)
(-0.469378 0.40495 0)
(-0.426971 0.416047 0)
(-0.381822 0.464322 0)
(-0.326544 0.570633 0)
(-0.334357 0.74762 0)
(-0.387607 0.928497 0)
(-0.424227 1.07013 0)
(-0.377303 1.21194 0)
(-0.256444 1.31161 0)
(-0.0693041 1.08419 0)
(0.0470761 0.859706 0)
(0.0526302 0.977368 0)
(0.0508579 1.12602 0)
(-0.0193664 1.30549 0)
(-0.120411 1.65814 0)
(-0.292767 1.96281 0)
(-0.311736 1.8197 0)
(-0.467577 1.62158 0)
(-0.655455 1.36556 0)
(-0.73018 1.04851 0)
(-0.739871 0.806776 0)
(-0.788837 0.724783 0)
(-0.792819 0.679559 0)
(-0.762474 0.636948 0)
(-0.705893 0.601387 0)
(-0.627048 0.574853 0)
(-0.558016 0.535695 0)
(-0.52616 0.471865 0)
(-0.516574 0.424843 0)
(-0.501092 0.39522 0)
(-0.479827 0.37594 0)
(-0.447149 0.382518 0)
(-0.3932 0.427641 0)
(-0.365291 0.55417 0)
(-0.360374 0.77616 0)
(-0.369036 0.949036 0)
(-0.360678 1.04284 0)
(-0.31113 1.1451 0)
(-0.215957 1.19577 0)
(-0.0850526 0.956832 0)
(0.0126894 0.885879 0)
(0.0224425 1.0418 0)
(0.00349973 1.19019 0)
(-0.121594 1.45178 0)
(-0.38592 1.86078 0)
(-0.37306 1.97949 0)
(-0.328207 1.85392 0)
(-0.365363 1.72188 0)
(-0.496676 1.48404 0)
(-0.613313 1.07643 0)
(-0.661988 0.852482 0)
(-0.733073 0.739591 0)
(-0.758109 0.664994 0)
(-0.7447 0.602618 0)
(-0.706545 0.551886 0)
(-0.648384 0.514709 0)
(-0.584895 0.481754 0)
(-0.541215 0.439808 0)
(-0.522007 0.398622 0)
(-0.507347 0.37397 0)
(-0.483277 0.351168 0)
(-0.446751 0.351246 0)
(-0.403338 0.404192 0)
(-0.387088 0.542726 0)
(-0.389534 0.769899 0)
(-0.380898 0.942018 0)
(-0.339365 1.00089 0)
(-0.266691 1.06893 0)
(-0.189465 1.10716 0)
(-0.068938 0.81546 0)
(0.00330331 0.933724 0)
(-0.00924932 1.11105 0)
(-0.12929 1.30099 0)
(-0.356953 1.76484 0)
(-0.488892 1.87324 0)
(-0.376906 1.90072 0)
(-0.277349 1.81514 0)
(-0.204139 1.75291 0)
(-0.234479 1.59583 0)
(-0.435699 1.24476 0)
(-0.607981 0.952633 0)
(-0.701858 0.786095 0)
(-0.743501 0.666023 0)
(-0.737253 0.577398 0)