/*--------------------------------*- C++ -*----------------------------------*\
| =========                 |                                                 |
| \\      /  F ield         | OpenFOAM: The Open Source CFD Toolbox           |
|  \\    /   O peration     | Version:  2.3.0                                 |
|   \\  /    A nd           | Web:      www.OpenFOAM.org                      |
|    \\/     M anipulation  |                                                 |
\*---------------------------------------------------------------------------*/
FoamFile
{
    version     2.0;
    format      ascii;
    class       volScalarField;
    location    "3.09923";
    object      km;
}
// * * * * * * * * * * * * * * * * * * * * * * * * * * * * * * * * * * * * * //

dimensions      [0 2 -2 0 0 0 0];

internalField   nonuniform List<scalar> 
18816
(
0.00598962
0.0146212
0.023749
0.0281262
0.0348726
0.0383429
0.0436711
0.04731
0.0518591
0.0547847
0.0578223
0.0596634
0.0607641
0.0603718
0.0588907
0.0556866
0.0509736
0.0441622
0.0360925
0.0269429
0.0178291
0.0112359
0.0109753
0.0159004
0.0253976
0.0311914
0.0305158
0.0101863
1e-15
0.0616827
0.0552568
0.0548796
0.0545161
0.0555996
0.0574041
0.0582047
0.0586092
0.0583262
0.0583664
0.0579755
0.0559249
0.0534026
0.0503351
0.0463861
0.0418607
0.0366282
0.0313227
0.0263914
0.0221447
0.0196451
0.0197029
0.0196465
0.0231793
0.0293555
0.0400788
1e-15
1e-15
1e-15
1e-15
1e-15
1e-15
1e-15
1e-15
1e-15
1e-15
1e-15
1e-15
0.0473708
0.0453543
0.0422735
0.0395541
0.0363598
0.0331302
0.0296603
0.0259807
0.0221101
0.0176487
0.0139851
0.0130384
0.012624
0.0152692
0.0226309
0.0348898
1e-15
1e-15
1e-15
1e-15
1e-15
1e-15
1e-15
1e-15
1e-15
1e-15
1e-15
1e-15
1e-15
0.0371657
0.0354403
0.0333921
0.0308028
0.0285143
0.0255854
0.0218142
0.0173241
0.013163
0.00917421
0.0077293
0.00784663
0.010397
0.0185048
0.0338922
1e-15
1e-15
0.0732142
1e-15
1e-15
1e-15
1e-15
1e-15
1e-15
1e-15
1e-15
1e-15
1e-15
0.0308463
0.0274762
0.0224364
0.0169524
0.0130804
0.00953694
0.00771159
0.00641551
0.00631734
0.00517917
0.0048404
0.0062519
0.00872174
0.0149283
0.0313886
1e-15
1e-15
0.091775
0.0620478
1e-15
1e-15
1e-15
1e-15
1e-15
1e-15
1e-15
1e-15
1e-15
0.0221214
0.0138096
0.00613769
0.00283379
0.00229533
0.00245037
0.00255196
0.00256858
0.00274478
0.00334052
0.00353588
0.00201599
0.00745819
0.0139957
0.0308111
1e-15
1e-15
0.0919665
0.078279
0.0587782
0.0520304
0.0463495
0.03959
1e-15
1e-15
1e-15
1e-15
1e-15
0.0139007
0.00506845
0.00125238
0.000535486
0.00090768
0.00188244
0.00213277
0.00226266
0.00217211
0.00247175
0.00333151
0.0037837
0.0052225
0.0128602
0.0295475
1e-15
1e-15
0.091453
0.0795151
0.0711978
0.0613354
0.052685
0.0465503
0.0372301
0.0350744
0.0302159
1e-15
1e-15
0.00931749
0.00220444
0.000733806
0.00159506
0.00166842
0.00241896
0.00196785
0.00239589
0.00210665
0.00220838
0.00258307
0.00365786
0.00296938
0.0118721
0.0289277
1e-15
1e-15
0.0911617
0.0793134
0.0708052
0.059893
0.0506269
0.0449681
0.0419653
0.0405424
0.0334801
1e-15
1e-15
0.00718673
0.00138524
0.0016395
0.00210017
0.00188046
0.00175375
0.00143741
0.00233825
0.00208052
0.00217973
0.00229131
0.00276858
0.0045656
0.00944763
0.0282177
1e-15
1e-15
0.0915603
0.0794633
0.0699628
0.0582679
0.0487864
0.0437841
0.0421063
0.0421486
0.0300378
1e-15
1e-15
0.00407529
0.00197325
0.00201317
0.00191441
0.00151879
0.00157442
0.00104128
0.00231447
0.00206722
0.00217182
0.00223939
0.00240091
0.00353798
0.00534025
0.027955
1e-15
1e-15
0.0928312
0.0795367
0.0694655
0.0573847
0.04805
0.0439749
0.0435135
0.0420643
0.023745
1e-15
1e-15
0.00469403
0.00314897
0.00213455
0.00206848
0.00134045
0.00144004
0.00131858
0.00226979
0.00205863
0.00214053
0.00221373
0.00224834
0.00237503
0.00266326
0.0271563
1e-15
1e-15
0.0943226
0.0793841
0.0691612
0.0567509
0.0475941
0.0442472
0.0451055
0.04009
0.0212867
0.0139895
0.0115868
0.00513061
0.00395066
0.00229131
0.00183378
0.00123562
0.00128688
0.00123108
0.00172289
0.00204406
0.00211678
0.00219171
0.00223828
0.00224863
0.00247757
0.0254811
1e-15
1e-15
0.0947142
0.0788343
0.0688208
0.056196
0.0471684
0.0447929
0.0472471
0.0372057
0.0167958
0.0121848
0.0108986
0.00528069
0.00356986
0.00254357
0.00179982
0.00122038
0.00120133
0.00115146
0.00155381
0.0020706
0.00211486
0.0021809
0.00225387
0.00229402
0.00276697
0.0238762
1e-15
1e-15
0.0942876
0.0783415
0.0684914
0.0558662
0.0475309
0.0459323
0.0480379
0.0337773
0.01244
0.00834946
0.0102926
0.00491535
0.00369128
0.00233227
0.00132214
0.00102556
0.00115159
0.00100206
0.00151944
0.00206757
0.00208202
0.00213578
0.00223093
0.00228789
0.00296628
0.0224814
1e-15
1e-15
0.0943891
0.0780133
0.067945
0.0553987
0.0481171
0.0480027
0.0491926
0.0250609
0.00608281
0.00561235
0.00907469
0.00365639
0.00237601
0.00159339
0.00117782
0.0010603
0.00115863
0.00107502
0.00153496
0.00201236
0.00203352
0.00208619
0.00220656
0.00227436
0.00298551
0.0212128
1e-15
1e-15
0.0956013
0.0781061
0.0677078
0.0554124
0.0497299
0.0520902
0.0439704
0.0066399
0.00109153
0.00184409
0.00757526
0.00224544
0.00128222
0.00112731
0.000987563
0.000960685
0.00114364
0.000989886
0.00148655
0.00188846
0.00192048
0.00198602
0.0021303
0.00221428
0.00280088
0.0203431
1e-15
1e-15
0.0962122
0.0785037
0.0675979
0.0563567
0.0539811
0.0548421
0.0284966
0.00131119
0.000793846
0.000896623
0.00117754
0.000956574
0.000831516
0.000986662
0.000926441
0.00104296
0.00124717
0.00110162
0.00143838
0.0017359
0.00180326
0.00188865
0.00205929
0.00215693
0.00253408
0.0196743
1e-15
1e-15
0.0958238
0.0790902
0.0679224
0.0587221
0.0581534
0.0538081
0.0139476
0.00116444
0.000875603
0.000869573
0.000624174
0.000880275
0.000806191
0.0009506
0.000994111
0.0010704
0.00127977
0.00132355
0.00143105
0.00160378
0.00166983
0.00176942
0.00196293
0.00207684
0.0022389
0.0193245
1e-15
1e-15
0.0955582
0.0797958
0.0693556
0.0625592
0.0617909
0.0493528
0.00505217
0.00107782
0.000891772
0.00101771
0.000672408
0.000996104
0.000794563
0.00112283
0.00102851
0.00108614
0.00146514
0.00164036
0.00159251
0.0014928
0.00156831
0.00167681
0.0018879
0.00200314
0.00201
0.0191259
1e-15
1e-15
0.0977919
0.0808393
0.0718373
0.0664391
0.0641097
0.0392454
0.00126496
0.000972433
0.0010101
0.00105637
0.000857767
0.00103945
0.000902252
0.00109635
0.000990819
0.00113397
0.00139979
0.0017526
0.00174574
0.00141034
0.00143661
0.00157251
0.00179612
0.00190421
0.00191283
0.0188476
1e-15
1e-15
0.101359
0.0827102
0.0756875
0.0709008
0.0647859
0.0248921
0.000776144
0.000778314
0.000971288
0.00090923
0.000933361
0.000945978
0.00095153
0.000945103
0.000915699
0.000901175
0.000792499
0.000956712
0.00120072
0.00108501
0.00122326
0.00146405
0.00171347
0.0017683
0.00179851
0.0182049
1e-15
1e-15
0.104312
0.0856584
0.0797088
0.0743178
0.0617966
0.0155338
1e-15
0.000322295
0.000298889
0.000255356
0.000342665
0.000296598
0.00035362
0.000337335
0.00035708
0.000386902
0.000300913
0.000347223
0.000719493
0.000893785
0.00113834
0.00140633
0.00165781
0.00152655
0.00167321
0.0175217
1e-15
1e-15
0.105149
0.0885707
0.0834233
0.0766809
0.054804
0.0065754
1e-15
0.000504594
0.00052284
0.000469085
0.00044078
0.000426932
0.000410632
0.000409015
0.000431627
0.000459614
0.000553829
0.000647531
0.000797555
0.000888339
0.00108574
0.00135668
0.00160985
0.000930048
0.00153225
0.0163282
1e-15
1e-15
0.106302
0.0921504
0.0869108
0.0778307
0.044533
0.00251601
1e-15
0.000416756
0.000305375
0.000235517
0.000176835
0.000152167
0.000122367
0.00011112
0.000148103
0.00021892
0.000358031
0.00046227
0.000667465
0.000822419
0.00104824
0.00132289
0.00156993
1e-15
0.00140848
0.0151718
1e-15
1e-15
0.108184
0.0948284
0.0898759
0.0775747
0.0332393
0.00132815
0.000514078
0.000487077
0.00038968
0.000327848
0.000287682
0.000265012
0.000246164
0.00023986
0.000265233
0.000338544
0.00043966
0.000527223
0.000667476
0.000810182
0.00100723
0.00127016
0.00151948
1e-15
0.00134795
0.0139857
1e-15
1e-15
0.112676
0.0978208
0.0923813
0.0760658
0.0242497
0.00119048
0.000629785
0.000495043
0.000356134
0.000273485
0.000222857
0.000191104
0.000168918
0.000164004
0.000200626
0.000294605
0.000399293
0.000486853
0.000616073
0.00076139
0.000952921
0.00118443
0.00141232
1e-15
0.00126141
0.012962
1e-15
1e-15
0.114958
0.0990602
0.0943139
0.0738392
0.0174407
0.00117387
0.000686986
0.000517762
0.000371958
0.000279577
0.000238511
0.000211572
0.000195565
0.000191883
0.000221995
0.000303592
0.000387493
0.000464194
0.000568133
0.000684037
0.000827647
0.001002
0.00118588
1e-15
0.00113221
0.0123205
1e-15
1e-15
0.116877
0.100168
0.0942645
0.0712145
0.0166556
0.00116051
0.000500153
0.000371375
0.00026707
0.000199439
0.000173161
0.000155347
0.000145953
0.000144578
0.000167622
0.000221568
0.000273824
0.000319834
0.000381068
0.000446546
0.000524237
0.00059237
0.000682164
0.000864177
0.000759217
0.0114276
1e-15
0.0023211
0.00378425
0.00907321
0.0112219
0.0142324
0.0157979
0.0181038
0.0196516
0.021504
0.0226323
0.023708
0.0241712
0.0242916
0.0237667
0.0227546
0.020998
0.018665
0.0155766
0.0121508
0.00846374
0.00502106
0.00317
0.00313124
0.00463481
0.00863087
0.0118267
0.011819
1e-15
1e-15
0.0239496
0.022224
0.0223012
0.0224053
0.0229379
0.0236635
0.0239237
0.0240432
0.0239395
0.0239953
0.024024
0.0232856
0.0222715
0.0210329
0.0194152
0.017496
0.0151889
0.0128929
0.0107111
0.00889234
0.00793222
0.00792571
0.00807215
0.00965227
0.0122394
0.016295
1e-15
0.000498684
0.00446225
0.0038574
0.00367775
0.00346678
0.00334881
0.00319999
0.00302536
0.00291981
0.00296801
0.00506836
0.0206566
0.019606
0.0184027
0.0173453
0.0160422
0.0146647
0.0131452
0.0114753
0.00978054
0.00785979
0.00657077
0.0062388
0.00604609
0.00700725
0.00999506
0.0151085
1e-15
0.000421241
0.000785037
0.000640765
0.000566038
0.00047243
0.000382927
0.000322744
0.00028074
0.000260959
0.000237318
0.000510107
0.00394915
0.0165536
0.0160227
0.0152924
0.0142167
0.0131712
0.0117407
0.00988282
0.00782174
0.00589415
0.00431832
0.00382157
0.00381764
0.00474377
0.00811279
0.0146025
1e-15
1e-15
0.0206841
0.000284059
0.000177309
0.000148411
0.000105962
7.97455e-05
6.54595e-05
6.68209e-05
5.3287e-05
9.89276e-05
0.00201376
0.0142103
0.0129559
0.0108543
0.00843344
0.00658554
0.00469633
0.00369999
0.00316976
0.00305785
0.00268684
0.00262585
0.00314606
0.00401694
0.00662302
0.0134975
1e-15
1e-15
0.0368247
0.0177406
0.000176206
4.74133e-05
1.59546e-05
9.8639e-06
1.08447e-05
1.28813e-05
1.22144e-05
2.51789e-05
0.00109293
0.0104731
0.00670817
0.00313097
0.00160609
0.00131212
0.00137257
0.00142841
0.00145509
0.00154288
0.00179619
0.00199204
0.00177991
0.00357206
0.00625756
0.0132272
1e-15
1e-15
0.0391268
0.031642
0.0179918
0.0160275
0.0142811
0.0109903
6.78421e-05
3.17218e-05
4.95412e-05
2.83252e-05
0.000594884
0.00670934
0.00255192
0.000708026
0.000388055
0.00058384
0.00107572
0.00118582
0.00130647
0.00130577
0.00143895
0.00181884
0.00213086
0.00284189
0.00581
0.0127479
1e-15
1e-15
0.0393604
0.0341011
0.0294486
0.0254401
0.0217448
0.0186978
0.011595
0.0108045
0.0087187
6.63349e-05
0.000250802
0.00448881
0.00118473
0.000518957
0.000863086
0.000899606
0.00117649
0.00105194
0.00130846
0.00126189
0.00132489
0.00148483
0.0019206
0.00202628
0.00544368
0.0125498
1e-15
1e-15
0.0394475
0.0342225
0.0303532
0.0256961
0.0216227
0.0190961
0.0173942
0.0167061
0.0136452
8.59432e-05
6.45206e-05
0.00353106
0.000772968
0.000871362
0.00100781
0.000934356
0.000916684
0.00078419
0.00126588
0.00123783
0.00129305
0.00135444
0.00155904
0.00243018
0.00462289
0.0122708
1e-15
1e-15
0.0398269
0.0341799
0.0300763
0.0250689
0.0208489
0.0186343
0.0179451
0.01809
0.0129676
9.54381e-05
5.6439e-05
0.00201012
0.000970571
0.00103326
0.000958413
0.000769814
0.000994594
0.0006623
0.00127764
0.00122837
0.00127693
0.00131727
0.00139828
0.00181041
0.00312294
0.0121694
1e-15
1e-15
0.0402903
0.0340804
0.0298247
0.0246205
0.0204311
0.0186039
0.0186706
0.0186373
0.00998853
0.000143321
9.85268e-05
0.00202056
0.00152933
0.00124526
0.00108665
0.00080018
0.00096539
0.00074487
0.00121213
0.00121699
0.001248
0.00129354
0.00133631
0.00139061
0.00167512
0.0119085
1e-15
1e-15
0.0404692
0.03395
0.0296666
0.024338
0.0202395
0.018735
0.0194483
0.0179741
0.0094183
0.0048165
0.00424508
0.00246462
0.00182784
0.00131317
0.00100826
0.000799951
0.0009032
0.000745728
0.00100606
0.00121216
0.001233
0.00127358
0.00132675
0.00135153
0.00156477
0.0112565
1e-15
1e-15
0.0404245
0.0337432
0.0295034
0.0240784
0.0200868
0.0190448
0.0204464
0.0167126
0.00772592
0.00548287
0.00495593
0.00257508
0.00174606
0.00137125
0.00102409
0.000828665
0.000873595
0.000795683
0.000957847
0.00121268
0.00121606
0.00125106
0.00132004
0.00136116
0.00168633
0.0105687
1e-15
1e-15
0.0404474
0.0336349
0.0293418
0.0239235
0.0202189
0.0195914
0.0209703
0.015322
0.00567485
0.00393469
0.00473965
0.00239723
0.00167351
0.00122621
0.000829027
0.000704875
0.000838646
0.000713039
0.000943003
0.00117288
0.00117558
0.00120744
0.00129246
0.00134391
0.00173267
0.00997794
1e-15
1e-15
0.0406302
0.0335901
0.0290742
0.0237329
0.0205589
0.0205923
0.0216287
0.011775
0.00288208
0.00261908
0.00423226
0.00183933
0.00120744
0.000942637
0.000808969
0.000753946
0.000849213
0.000785513
0.000931783
0.00110075
0.00112001
0.00116067
0.00126105
0.00132235
0.00172485
0.00941315
1e-15
1e-15
0.0407175
0.0335871
0.0289355
0.0237088
0.0212612
0.022327
0.0196071
0.00340701
0.000670622
0.00108706
0.0034935
0.00125371
0.0007048
0.000763681
0.000673451
0.000644473
0.000828649
0.000701603
0.000877057
0.00100023
0.00103525
0.00109135
0.00120721
0.0012775
0.00162062
0.00900478
1e-15
1e-15
0.0405444
0.0336341
0.0288726
0.0240362
0.0228777
0.0234618
0.0135778
0.000820218
0.00056823
0.000664476
0.000624302
0.000691698
0.000581731
0.000711022
0.000654937
0.000721427
0.000893657
0.000802416
0.000864558
0.000915023
0.000963574
0.00103164
0.00116225
0.00123965
0.00148048
0.0086914
1e-15
1e-15
0.0405027
0.0337103
0.0289518
0.0249168
0.0245487
0.0230304
0.00702949
0.000733998
0.000681577
0.000719697
0.000555197
0.000722624
0.000638607
0.000694212
0.000728939
0.000777181
0.000930312
0.000988976
0.000902399
0.000848155
0.000887866
0.000965898
0.00110862
0.00118962
0.00133173
0.00852294
1e-15
1e-15
0.0410289
0.0338592
0.0294251
0.0264038
0.0260307
0.0214221
0.00295845
0.000630513
0.000648078
0.000803744
0.000500369
0.00079228
0.000580528
0.000853417
0.000714779
0.000752174
0.00106725
0.00117337
0.000991198
0.000798274
0.000829141
0.000917584
0.00106893
0.00114352
0.00122722
0.00843803
1e-15
1e-15
0.0420848
0.0342096
0.030346
0.0278948
0.0269032
0.0177079
0.000760132
0.000544869
0.00076037
0.000844293
0.000705595
0.000854969
0.000735784
0.00087812
0.000750011
0.000807872
0.00101124
0.00120624
0.000982648
0.000715636
0.000737304
0.000861737
0.00102149
0.00107698
0.00117156
0.00832012
1e-15
1e-15
0.0427694
0.0349892
0.031812
0.0296561
0.0272075
0.0113497
0.000410561
0.000479872
0.000790436
0.000840454
0.000910666
0.000914495
0.000934573
0.000903551
0.000858295
0.000801203
0.000614547
0.000538671
0.000541105
0.000546162
0.000651328
0.00082235
0.000988117
0.000976288
0.0010976
0.00806203
1e-15
1e-15
0.0433025
0.03622
0.0333951
0.0311311
0.0264388
0.00743934
7.17022e-05
0.000204229
0.000208188
0.000189699
0.000233161
0.000208517
0.000242626
0.000217785
0.000220494
0.000220005
0.000206844
0.000242598
0.000405511
0.000495527
0.000636621
0.000806163
0.000963942
0.000783239
0.00101496
0.00779782
1e-15
1e-15
0.0437366
0.037402
0.0348887
0.0321571
0.0238706
0.00349575
5.51491e-05
0.000272447
0.000257566
0.000223878
0.000206873
0.000197188
0.000186811
0.000184934
0.000197377
0.000221274
0.000275741
0.000324591
0.00041569
0.000488182
0.000610495
0.000780058
0.000936408
0.000451922
0.000921254
0.00732506
1e-15
1e-15
0.0450311
0.0388525
0.0363366
0.0327953
0.0199192
0.00141921
8.39535e-05
0.000253884
0.000191776
0.000149128
0.00011797
0.000102205
8.60567e-05
7.92456e-05
9.7894e-05
0.000143158
0.000216264
0.000272877
0.000374217
0.00046459
0.000597193
0.000762594
0.000910497
0.000299131
0.000849154
0.00685939
1e-15
1e-15
0.046377
0.0398982
0.0376067
0.0328497
0.0152732
0.000743945
0.000305458
0.000284842
0.000219811
0.000178933
0.00015349
0.000137881
0.00012585
0.000120873
0.000134649
0.000181367
0.000240275
0.000291039
0.000369181
0.000453795
0.000567284
0.000719663
0.000863502
0.000273236
0.000810277
0.00637178
1e-15
1e-15
0.0478963
0.0410487
0.0387113
0.0325298
0.0114211
0.000704451
0.000366599
0.000287768
0.000210824
0.000160541
0.000133107
0.000113946
0.000100837
9.60624e-05
0.000114474
0.000166055
0.000222055
0.000269558
0.000337236
0.000415638
0.000519789
0.000645882
0.000766282
0.000241064
0.000739023
0.00594122
1e-15
1e-15
0.0482428
0.0415352
0.0396578
0.0318713
0.00856065
0.000702855
0.000363693
0.000275552
0.000205752
0.000155079
0.000133025
0.000116967
0.000107057
0.000103196
0.000118007
0.000160161
0.00020135
0.000238551
0.0002874
0.000342092
0.000408596
0.000488863
0.000564537
0.00023748
0.000611725
0.00569247
1e-15
1e-15
0.0486602
0.0420885
0.0397743
0.0309873
0.00833391
0.000587298
0.000176121
0.000142596
0.000115865
9.37762e-05
8.39977e-05
7.66362e-05
7.23466e-05
7.07982e-05
7.86161e-05
9.63764e-05
0.000111584
0.000123642
0.000137891
0.0001508
0.000162738
0.000160046
0.000157185
0.000350653
0.000273443
0.00531231
1e-15
0.00154225
0.00120903
0.00333402
0.00426142
0.00552563
0.00623416
0.00724403
0.00795143
0.0087675
0.00924491
0.00958983
0.00966293
0.00956595
0.00911872
0.00844377
0.00742642
0.00624713
0.00488708
0.00361838
0.00247246
0.00169875
0.00141548
0.00138919
0.00162172
0.00267765
0.00421676
0.0043225
0.000774272
0.00146429
0.00881218
0.008608
0.00885033
0.00913147
0.00950562
0.00998011
0.0102332
0.0104454
0.0105725
0.0108059
0.0110087
0.0107221
0.0102725
0.00968401
0.00888939
0.00793185
0.00679593
0.00572415
0.00472513
0.00399709
0.00367682
0.00367204
0.00376144
0.00445345
0.00562563
0.0072476
0.000746383
0.00101422
0.0029098
0.00264561
0.00256482
0.00250433
0.00246636
0.00238711
0.0023053
0.00228602
0.00251284
0.0041816
0.0100348
0.00957346
0.00901345
0.00852561
0.00790719
0.00724538
0.00651311
0.00569401
0.00492909
0.00409239
0.00364894
0.00352177
0.00336996
0.00370507
0.00495073
0.0072367
1e-15
1e-15
0.00102824
0.000896142
0.000887266
0.000778959
0.000701592
0.000626377
0.000595498
0.000609504
0.000748881
0.00126176
0.00351755
0.00822449
0.00807038
0.00773445
0.00722894
0.00670487
0.00595715
0.00499204
0.00398767
0.00308035
0.00249647
0.00235509
0.00230713
0.00257867
0.00400797
0.00701082
1e-15
1e-15
0.00490953
0.0007231
0.000675897
0.000612413
0.000534786
0.000458956
0.000431658
0.000434015
0.000500934
0.000775246
0.00226291
0.0071519
0.00668273
0.00573873
0.00456442
0.0035538
0.00246405
0.00196007
0.00177049
0.00173493
0.00170934
0.00183838
0.00205866
0.00226812
0.00333869
0.00645425
1e-15
1e-15
0.0147836
0.004263
0.000608598
0.000502955
0.000418627
0.000385289
0.000377458
0.000374236
0.000403884
0.000551787
0.00150239
0.0053306
0.00350707
0.00168504
0.000945699
0.000806399
0.000860694
0.000919111
0.000977481
0.00103842
0.00117558
0.00140669
0.00164079
0.00213588
0.00319441
0.00630164
1e-15
1e-15
0.0176793
0.0129276
0.0049817
0.00456272
0.0041904
0.00276663
0.000401046
0.000391194
0.000415062
0.000431427
0.00090451
0.00345529
0.00134788
0.000429799
0.000300055
0.000410264
0.000685481
0.000752861
0.000877491
0.000912109
0.000989701
0.00117638
0.00147056
0.00197776
0.00303485
0.00611121
1e-15
1e-15
0.0182713
0.0156502
0.0127385
0.0111294
0.00962071
0.00796338
0.00357695
0.00319827
0.00226894
0.000394932
0.000512509
0.00230812
0.000683917
0.00038798
0.000519989
0.000545191
0.000679967
0.000654506
0.000848688
0.000873386
0.000920844
0.00100243
0.00122715
0.00159393
0.00290579
0.00605559
1e-15
1e-15
0.0184252
0.0159499
0.014041
0.0119525
0.010155
0.00897808
0.00781969
0.00737457
0.00587221
0.000363314
0.000333743
0.00187852
0.000473182
0.000535331
0.00056925
0.000556576
0.00065273
0.000540329
0.000831482
0.000848597
0.000887939
0.000931841
0.00104644
0.00151375
0.00266103
0.00593883
1e-15
1e-15
0.0185904
0.0158861
0.0140028
0.0117651
0.00986826
0.00883549
0.00846315
0.00850239
0.00604024
0.000404665
0.000254782
0.00114966
0.000551426
0.000659643
0.000590303
0.000523371
0.000828073
0.00050998
0.000859567
0.000838561
0.000865468
0.000901533
0.000964611
0.00114671
0.0020979
0.00588542
1e-15
1e-15
0.0186553
0.0157745
0.0138854
0.0115396
0.00962382
0.00876862
0.00887319
0.00904253
0.0046956
0.00059218
0.000333311
0.00111451
0.000874612
0.000968363
0.000775456
0.000668568
0.00091494
0.00057477
0.000835711
0.00082772
0.000837609
0.000876653
0.000930587
0.000979698
0.00123207
0.00580705
1e-15
1e-15
0.0185739
0.0156952
0.0137921
0.0114031
0.00954455
0.00883404
0.00922772
0.00879673
0.00491324
0.00201745
0.00181045
0.00142497
0.00098858
0.00100409
0.000789662
0.000726232
0.00088526
0.000629964
0.000781108
0.000823761
0.000820476
0.000851746
0.000916675
0.000953207
0.00114907
0.00554985
1e-15
1e-15
0.0185118
0.0156318
0.0137059
0.0112701
0.00948876
0.0090035
0.00967713
0.0081762
0.00398884
0.00278935
0.00254652
0.00150512
0.00109295
0.00101859
0.000874361
0.000799862
0.000867257
0.000761464
0.000772636
0.000809011
0.000792737
0.000821476
0.000895686
0.000943535
0.00118459
0.00523867
1e-15
1e-15
0.0185575
0.0156203
0.0136214
0.0111931
0.00953836
0.00925851
0.0099676
0.00754024
0.0030101
0.0021338
0.00252829
0.00141817
0.000896856
0.000927577
0.000734043
0.000657596
0.000832599
0.000666627
0.000773137
0.000757849
0.000747191
0.000777976
0.000865442
0.000918057
0.00117027
0.00498317
1e-15
1e-15
0.018581
0.0156186
0.0134845
0.0111185
0.00971656
0.00973213
0.0102906
0.0059932
0.00157094
0.00145362
0.0022486
0.001167
0.000852564
0.000846671
0.000784569
0.000744247
0.000846551
0.000774343
0.000750979
0.000687439
0.000692099
0.000734759
0.000832861
0.000893504
0.00114344
0.00472393
1e-15
1e-15
0.0184459
0.0155744
0.0134085
0.0110988
0.0100267
0.0104822
0.00939756
0.00187626
0.000507593
0.000837323
0.00180809
0.000910951
0.000555467
0.000743918
0.00063166
0.000588987
0.000819656
0.00064902
0.000687766
0.000612398
0.000626802
0.000682974
0.000793016
0.000857899
0.00107245
0.00452536
1e-15
1e-15
0.0183215
0.0155336
0.0133797
0.0112152
0.010632
0.0109146
0.00687989
0.000566956
0.000523689
0.000645766
0.000411235
0.000668394
0.000541469
0.000702892
0.000618354
0.000690162
0.000868562
0.000754673
0.000672653
0.000557677
0.00057918
0.000644507
0.000763426
0.00083071
0.000991836
0.0043739
1e-15
1e-15
0.0184141
0.0155141
0.0133952
0.0115466
0.0113273
0.0106544
0.00375829
0.000512958
0.00067548
0.000720767
0.00056531
0.000724515
0.000637777
0.000655054
0.000714335
0.000763888
0.000891019
0.000940713
0.000690105
0.00051492
0.000531335
0.000606257
0.000731908
0.000795157
0.000910942
0.00429087
1e-15
1e-15
0.0187809
0.0155396
0.0135582
0.0121535
0.0119713
0.00991716
0.00180939
0.000434548
0.000596783
0.000799911
0.000453644
0.000787795
0.000531192
0.000848895
0.000663994
0.000700694
0.00107071
0.00113363
0.000730508
0.00048476
0.000492825
0.000581052
0.000711086
0.000761998
0.000857841
0.0042509
1e-15
1e-15
0.0190954
0.0156666
0.0139176
0.012762
0.0122979
0.00851211
0.000459696
0.000399697
0.000737778
0.000849599
0.000679855
0.000855118
0.000709207
0.000878027
0.000723735
0.0007894
0.00104968
0.0012695
0.000670999
0.000408671
0.00043733
0.000557818
0.000687621
0.000711143
0.000813968
0.00419101
1e-15
1e-15
0.0191209
0.0160086
0.0145235
0.0135158
0.0124429
0.00552304
0.000222759
0.000364167
0.000755757
0.000832274
0.000920578
0.000918247
0.000945187
0.00090261
0.000853032
0.000776415
0.000575042
0.000485888
0.000333187
0.000333333
0.000412672
0.000549045
0.000676196
0.000631501
0.000760448
0.00406195
1e-15
1e-15
0.019228
0.0165712
0.0152105
0.0142436
0.0122619
0.00374643
9.65747e-05
0.000156916
0.000158901
0.000147144
0.000172072
0.000157791
0.000179258
0.00015593
0.000152696
0.000150566
0.000158859
0.000189269
0.000264224
0.000320598
0.0004198
0.000546424
0.00066251
0.000496026
0.000700413
0.00393346
1e-15
1e-15
0.0196117
0.0171005
0.0158996
0.0147778
0.0112813
0.00192748
0.000102366
0.000175253
0.000146864
0.000119013
0.000106101
9.62557e-05
8.98193e-05
8.64974e-05
9.6506e-05
0.000122558
0.000163122
0.000195484
0.00025521
0.000315081
0.000404867
0.00052838
0.00064262
0.000359747
0.000638223
0.00371538
1e-15
1e-15
0.020451
0.0177425
0.0165949
0.0151586
0.00963646
0.000796279
0.000131635
0.00017902
0.000135006
0.000103136
8.3485e-05
7.17178e-05
6.16465e-05
5.73052e-05
7.02001e-05
0.000105382
0.00015074
0.00018774
0.000245492
0.000308236
0.000398612
0.000513802
0.000617122
0.000310074
0.000591619
0.00350151
1e-15
1e-15
0.0210502
0.0181984
0.0172243
0.015255
0.00756736
0.000432727
0.00022174
0.00019028
0.000141617
0.000109718
9.22358e-05
8.04458e-05
7.18671e-05
6.83182e-05
7.89861e-05
0.000113916
0.000153168
0.00018735
0.000236042
0.000293337
0.000368749
0.000471175
0.00056494
0.000294336
0.000553104
0.00328291
1e-15
1e-15
0.021503
0.0187098
0.0177754
0.015224
0.00576273
0.0004372
0.000246281
0.000187384
0.000139956
0.000103942
8.6606e-05
7.35345e-05
6.54073e-05
6.19354e-05
7.39653e-05
0.00010855
0.000142813
0.00017206
0.000211281
0.000258084
0.000321795
0.000401286
0.000465281
0.000259016
0.000476687
0.00309079
1e-15
1e-15
0.0215453
0.0189718
0.0182941
0.0150751
0.0044636
0.000437595
0.000212194
0.000159663
0.000124657
9.38922e-05
8.10777e-05
7.10874e-05
6.50827e-05
6.25043e-05
7.19677e-05
9.65381e-05
0.000118857
0.000138555
0.000163085
0.000191058
0.000225494
0.000269933
0.000282706
0.000228995
0.000336962
0.00299551
1e-15
1e-15
0.0217027
0.0193104
0.0184196
0.0147618
0.00446925
0.000309644
8.20456e-05
7.71924e-05
6.82772e-05
5.83491e-05
5.33954e-05
4.9605e-05
4.7482e-05
4.70038e-05
5.16652e-05
6.02296e-05
6.68861e-05
7.2191e-05
7.86839e-05
8.55979e-05
9.46705e-05
8.37153e-05
8.13385e-05
0.000163296
9.28183e-05
0.00284681
1e-15
0.00154274
0.000960931
0.00166702
0.00197318
0.00244816
0.00274136
0.00315711
0.00345619
0.00377882
0.00393962
0.0040084
0.00395745
0.00382068
0.00352175
0.00316031
0.00270435
0.00228831
0.00189263
0.00160661
0.00138955
0.00126254
0.00121092
0.00117998
0.00118462
0.0012958
0.00162638
0.00163697
0.000888278
0.00160511
0.00347709
0.00360079
0.00385778
0.00412102
0.00437725
0.00467672
0.00484321
0.00499947
0.0051217
0.00530966
0.00543356
0.00527372
0.00503163
0.00471418
0.00429753
0.00381016
0.00327746
0.0028288
0.0024552
0.00224838
0.0021801
0.00217923
0.00216996
0.00238002
0.00284006
0.0034849
0.000884228
0.00126017
0.00180972
0.00166954
0.00163467
0.00161512
0.00159589
0.00155186
0.00152836
0.00158142
0.0018733
0.00304741
0.00531069
0.00509437
0.00481717
0.00458303
0.00427683
0.003966
0.00362663
0.00323922
0.0028984
0.00257133
0.00244506
0.0023987
0.00223424
0.00227564
0.00272402
0.00382324
0.000686284
0.000647457
0.000848202
0.000731407
0.000695998
0.000612552
0.000561418
0.000529126
0.000525483
0.000589522
0.000765203
0.0012422
0.00269501
0.00453278
0.00449958
0.00432929
0.00409067
0.00381035
0.00337806
0.00282033
0.00231227
0.00191927
0.00175621
0.00178511
0.00176213
0.00173627
0.00224158
0.00372468
1e-15
0.000616387
0.00146006
0.000634169
0.000598213
0.000531637
0.000476153
0.000427524
0.000414831
0.000446228
0.000545877
0.000849554
0.00192362
0.0039852
0.00380239
0.00333287
0.00269802
0.00204586
0.00142368
0.00121067
0.00116564
0.00119312
0.00130194
0.00154009
0.00171092
0.00164314
0.00192695
0.00341668
1e-15
0.000538786
0.00596934
0.00124702
0.000561772
0.000496899
0.000438562
0.000401834
0.000390323
0.00039697
0.000453425
0.000631828
0.00132949
0.00295304
0.00198759
0.000976548
0.000596088
0.000544506
0.000609438
0.000676385
0.00074907
0.000797435
0.000890549
0.00112804
0.00153394
0.00164683
0.00189284
0.00331826
1e-15
1e-15
0.00864398
0.00532257
0.00154499
0.0014269
0.0013221
0.000797045
0.000404549
0.000415141
0.000456745
0.000494322
0.000819312
0.00191612
0.000757689
0.000293832
0.000244896
0.000314443
0.000500613
0.000558688
0.000671445
0.000704968
0.0007575
0.000869462
0.00114759
0.00166858
0.00189229
0.00324965
1e-15
1e-15
0.00931883
0.0077654
0.00574227
0.00510916
0.0044954
0.00347203
0.00117648
0.0010233
0.000749155
0.000439461
0.000485528
0.00127627
0.000430236
0.000309828
0.000365942
0.000392584
0.00050428
0.000499526
0.000652358
0.000667713
0.000705965
0.000758018
0.000913594
0.00134848
0.00188391
0.00326024
1e-15
1e-15
0.00943771
0.00816053
0.00708237
0.00609563
0.00526815
0.00463346
0.00372755
0.0033854
0.0026294
0.000405974
0.000363458
0.00110439
0.000325606
0.000402501
0.000425733
0.00044867
0.00061226
0.000464406
0.000664699
0.00064461
0.000668711
0.000708182
0.000796857
0.00108048
0.00185482
0.00323166
1e-15
1e-15
0.00945628
0.00811592
0.00716192
0.00609344
0.00519258
0.00463317
0.00437735
0.00434217
0.00312713
0.000531078
0.000274445
0.000778936
0.000381729
0.000518593
0.000467217
0.000457933
0.000820861
0.000463972
0.000724846
0.000636128
0.00064402
0.000677926
0.000742605
0.00086974
0.00161821
0.0032187
1e-15
1e-15
0.0093974
0.00802576
0.00711306
0.00600265
0.00505062
0.00458065
0.00466635
0.00486553
0.00269572
0.000672156
0.000363523
0.000897713
0.000643661
0.000965976
0.000749214
0.000699593
0.00105317
0.000580411
0.000758575
0.000625939
0.000615466
0.000650712
0.000715225
0.000771725
0.00103998
0.00322284
1e-15
1e-15
0.00930391
0.0079775
0.00705262
0.00592648
0.00501599
0.00461803
0.00483963
0.0047578
0.00354461
0.00122573
0.00119827
0.00108753
0.000722965
0.0010052
0.000789363
0.000766278
0.00102277
0.000641925
0.000761881
0.000621107
0.000593774
0.000620291
0.000694429
0.000743628
0.000963718
0.00312389
1e-15
1e-15
0.00927322
0.00796245
0.00700251
0.00584922
0.00499722
0.004727
0.00504437
0.00444406
0.00247257
0.0017501
0.00161134
0.00114397
0.000931859
0.00102333
0.000967942
0.000923586
0.00100075
0.000868606
0.000761
0.000599136
0.000558334
0.000586559
0.000666062
0.000719613
0.000958161
0.00298224
1e-15
1e-15
0.00928638
0.00796442
0.00695713
0.00580945
0.00501864
0.00486242
0.00520593
0.00413053
0.0021282
0.00146169
0.00180261
0.00110524
0.00067151
0.000970738
0.000765683
0.000696928
0.00096011
0.000699962
0.000775365
0.000552441
0.000512077
0.00054539
0.000636969
0.000692154
0.000915476
0.00287894
1e-15
1e-15
0.00925294
0.00796146
0.00688793
0.00578457
0.00511909