/*--------------------------------*- C++ -*----------------------------------*\
| =========                 |                                                 |
| \\      /  F ield         | OpenFOAM: The Open Source CFD Toolbox           |
|  \\    /   O peration     | Version:  2.3.0                                 |
|   \\  /    A nd           | Web:      www.OpenFOAM.org                      |
|    \\/     M anipulation  |                                                 |
\*---------------------------------------------------------------------------*/
FoamFile
{
    version     2.0;
    format      ascii;
    class       volScalarField;
    location    "1.95";
    object      nut.air;
}
// * * * * * * * * * * * * * * * * * * * * * * * * * * * * * * * * * * * * * //

dimensions      [0 2 -1 0 0 0 0];

internalField   nonuniform List<scalar> 
6000
(
0.000507722
0.00427384
0.00725678
0.00825524
0.00867702
0.00887217
0.00897194
0.00903167
0.00907945
0.00912581
0.00917066
0.00921002
0.00923237
0.00923764
0.00922822
0.00922613
0.00923211
0.00924701
0.00925909
0.0092265
0.00917279
0.0091168
0.00903712
0.00895016
0.00885068
0.00868824
0.00826276
0.00715387
0.00387408
0.000507038
0.000420513
0.00280014
0.00553659
0.00735899
0.0083287
0.0088524
0.00914841
0.0093089
0.00942125
0.00953807
0.009656
0.00972256
0.00975242
0.00978311
0.00980997
0.00984101
0.00989096
0.00986921
0.00976947
0.00966149
0.00953383
0.00937815
0.00920078
0.009005
0.00873084
0.00827188
0.00736099
0.0055464
0.00282658
0.000425048
0.000361701
0.00230463
0.0048129
0.00667729
0.00784705
0.00855563
0.00898436
0.0092787
0.00951983
0.00972351
0.00986244
0.00997782
0.0100814
0.0101656
0.0102235
0.0102561
0.0102233
0.0101363
0.0100088
0.00986389
0.00969736
0.00950022
0.00924298
0.00892338
0.00849888
0.00787434
0.00684191
0.00513429
0.00271777
0.000380991
0.000319143
0.00206525
0.00424131
0.0060783
0.00740117
0.00828338
0.00887002
0.00929744
0.00964875
0.00993642
0.0101558
0.0103149
0.0104532
0.010569
0.0106508
0.0106986
0.0106453
0.0104939
0.0103157
0.0101061
0.00987728
0.00959198
0.00922774
0.00879521
0.00824059
0.00749239
0.00644329
0.00488319
0.00268137
0.000372194
0.00028917
0.00205074
0.00405778
0.0058041
0.00716561
0.00814665
0.00884784
0.00938303
0.00984291
0.0102255
0.0105025
0.0107153
0.0109181
0.0110687
0.0111589
0.011171
0.0111136
0.0109545
0.0107253
0.0104367
0.0100879
0.00968273
0.00919726
0.00863804
0.00797622
0.00716728
0.00611668
0.00459915
0.00252984
0.000357335
0.000277993
0.00218022
0.00414605
0.00584566
0.00720023
0.00822188
0.00898921
0.0096014
0.0101396
0.0106189
0.0109925
0.0112932
0.0115306
0.0117344
0.0118511
0.0117975
0.0116167
0.0114128
0.0111259
0.0107673
0.0103085
0.00978423
0.0091818
0.00848975
0.00771506
0.00682562
0.00570415
0.00418145
0.00226286
0.000332401
0.000279893
0.00235406
0.0044426
0.00613762
0.00745664
0.00846748
0.0092708
0.00996832
0.0106498
0.0112321
0.0116786
0.0120267
0.0123062
0.0125731
0.0126961
0.0125006
0.012167
0.0118953
0.0115459
0.0111098
0.0105686
0.00992743
0.00920314
0.00837945
0.00747291
0.00644864
0.0051889
0.00366828
0.00192519
0.000311653
0.000285742
0.00253622
0.00476997
0.00653489
0.00790492
0.00898443
0.00986719
0.0106484
0.0113381
0.0118936
0.0123537
0.0127302
0.0130661
0.0133982
0.0135063
0.0131961
0.0127278
0.012404
0.011967
0.0114602
0.0108213
0.0100791
0.00924894
0.00832719
0.00728437
0.00610101
0.00469013
0.00315178
0.00162464
0.000291759
0.0002986
0.00285879
0.00533366
0.00717193
0.00856773
0.00967226
0.0105784
0.0113632
0.012033
0.0125915
0.0130474
0.0134196
0.0137631
0.0139418
0.0137966
0.013639
0.0132613
0.012851
0.0123574
0.0117792
0.0110606
0.0102366
0.00932099
0.00831089
0.00719039
0.00588378
0.00437291
0.00274586
0.00128353
0.000264376
0.000324776
0.00325826
0.00585687
0.00772892
0.00917637
0.0103463
0.0113162
0.0120787
0.0127393
0.0132853
0.0137193
0.014052
0.0142883
0.0141734
0.0140495
0.0138461
0.0136558
0.0132625
0.0127304
0.0120876
0.0113077
0.0104219
0.00944327
0.00837023
0.00718803
0.00586421
0.0043718
0.00267277
0.00104707
0.000230915
0.000361369
0.00335832
0.00612866
0.00817382
0.00973263
0.0110047
0.0119903
0.0127137
0.0133577
0.0138856
0.0142797
0.0145481
0.0145886
0.0145015
0.0143451
0.0141147
0.0138881
0.0136111
0.013108
0.0124322
0.0116007
0.0106653
0.00964171
0.00852851
0.00730903
0.00597263
0.00453213
0.00289767
0.00115605
0.00021286
0.00040432
0.00341875
0.00632978
0.00850775
0.0102224
0.0115465
0.0125109
0.0132141
0.0138441
0.0143455
0.0146918
0.0148913
0.014919
0.0147883
0.0145866
0.01436
0.0140603
0.0137306
0.0133489
0.0127793
0.0119751
0.0109986
0.00994586
0.00880825
0.0075644
0.0062335
0.00485025
0.0033164
0.00141287
0.000216609
0.000405708
0.00350427
0.00656968
0.00884165
0.0105461
0.0119412
0.0129146
0.0136097
0.0141993
0.0146706
0.0149956
0.0152135
0.0152176
0.0150332
0.0147944
0.0145292
0.0142113
0.0138308
0.0134044
0.0129551
0.0123145
0.0114359
0.0103699
0.00921719
0.00794575
0.00658754
0.00519126
0.00368552
0.0019112
0.00024179
0.000400575
0.00345812
0.00653146
0.00889356
0.010718
0.0122443
0.0132419
0.0139281
0.01451
0.0149686
0.0152945
0.0155011
0.0154769
0.0152656
0.0150111
0.0147227
0.0143821
0.0139802
0.0135344
0.0130432
0.0124988
0.0118061
0.0108938
0.00974432
0.00843001
0.00700797
0.00553018
0.00391973
0.00209978
0.000265231
0.000391265
0.00336329
0.00642061
0.00883243
0.0107835
0.0124487
0.0135169
0.0142238
0.0148144
0.0152691
0.0155798
0.0157688
0.0157227
0.0155071
0.0152508
0.0149493
0.0145939
0.0141752
0.0137181
0.01322
0.0126571
0.0120377
0.0113098
0.0102943
0.00897023
0.0074582
0.00587308
0.0040941
0.00211823
0.000273956
0.000381369
0.0032406
0.00629027
0.00875191
0.0108107
0.0126047
0.0137603
0.014499
0.0150902
0.01554
0.0158454
0.0160411
0.0159446
0.0157443
0.0154977
0.0151965
0.0148317
0.0143974
0.0139282
0.0134176
0.012866
0.0122634
0.0116063
0.0107205
0.00947213
0.00793375
0.00623735
0.0043076
0.00213445
0.000280083
0.000368145
0.00309226
0.00614933
0.00868592
0.0108538
0.0127607
0.0139984
0.0147674
0.0153603
0.015807
0.0161256
0.0163209
0.0162105
0.0160213
0.0157758
0.0154696
0.0151073
0.0146757
0.0142048
0.01369
0.0131379
0.0125416
0.0119154
0.0111054
0.00992981
0.00840748
0.00664124
0.00459485
0.00224011
0.000290446
0.00035336
0.00288576
0.00600373
0.00864561
0.0109318
0.0129436
0.0142517
0.0150436
0.0156424
0.0160902
0.016445
0.016612
0.0165037
0.0163411
0.0161105
0.0158131
0.015447
0.0150089
0.014536
0.0140146
0.0134626
0.0128813
0.012302
0.0115288
0.0103978
0.00889925
0.0070911
0.00495538
0.00248077
0.000310465
0.000338838
0.00273171
0.00590286
0.00865792
0.0110637
0.0131655
0.0145308
0.0153474
0.0159491
0.0164084
0.0167833
0.0168881
0.0168052
0.0166647
0.0164481
0.0161585
0.0157946
0.0153581
0.0148866
0.0143641
0.0138213
0.0132695
0.0127406
0.011984
0.0108731
0.00939927
0.00758003
0.00539205
0.00280499
0.00032794
0.000329319
0.00268479
0.0058979
0.00876115
0.0112651
0.0134345
0.0148433
0.0156882
0.0162979
0.0167558
0.017092
0.0171624
0.0171282
0.0170115
0.0168101
0.0165318
0.0161701
0.0157411
0.0152739
0.0147599
0.0142371
0.0137236
0.0132339
0.0124602
0.0113388
0.0098745
0.00804792
0.00580742
0.00306671
0.000337608
0.000327852
0.00272349
0.00600249
0.00896454
0.0115487
0.013752
0.0151729
0.0160546
0.0166774
0.0171097
0.0173751
0.0174708
0.0174763
0.0173813
0.0171953
0.0169285
0.0165744
0.0161588
0.0157017
0.0152052
0.0147117
0.0142457
0.013758
0.0129288
0.0117714
0.0102918
0.0084367
0.00611609
0.00321774
0.000343615
0.0003315
0.00286206
0.00625959
0.00929525
0.0119303
0.0141096
0.0154961
0.0164154
0.0170586
0.017451
0.0176766
0.0178121
0.017845
0.0177685
0.0175976
0.0173453
0.017004
0.0166079
0.0161659
0.0156921
0.0152317
0.0148214
0.014268
0.0133603
0.0121589
0.0106446
0.00873944
0.00632985
0.00330851
0.00034777
0.000343997
0.00306436
0.00661283
0.00976382
0.012413
0.0145118
0.0158124
0.0167428
0.0173993
0.0177618
0.0179949
0.0181633
0.0182163
0.0181581
0.0180049
0.0177705
0.0174504
0.0170752
0.0166549
0.0162058
0.015775
0.0153957
0.0147313
0.0137454
0.012498
0.0109388
0.00897529
0.00648527
0.00337116
0.000351202
0.000368499
0.0032998
0.00706282
0.0103396
0.012969
0.0149399
0.016099
0.017
0.0176263
0.0180255
0.0183003
0.0184937
0.0185647
0.0185285
0.0183999
0.0181882
0.0178944
0.0175413
0.0171476
0.0167266
0.0163302
0.0159
0.0151314
0.0140844
0.0127924
0.0111868
0.00916791
0.00660924
0.00342169
0.00035502
0.000402271
0.00362364
0.00763872
0.0109717
0.0135162
0.0152741
0.0163225
0.0171453
0.0177777
0.0182232
0.0185631
0.0187804
0.0188686
0.018855
0.018761
0.0185789
0.0183145
0.0179826
0.0176163
0.0172183
0.0168462
0.016308
0.0154625
0.0143741
0.0130418
0.0113939
0.00932782
0.00671576
0.00347542
0.000357689
0.000440181
0.0040352
0.00830299
0.011591
0.0138674
0.0153705
0.0164798
0.0173191
0.0179604
0.0184403
0.0187917
0.0190188
0.0191226
0.0191219
0.0190626
0.0189223
0.018689
0.0183811
0.0180381
0.0176637
0.0172651
0.016637
0.0157356
0.0146119
0.0132452
0.0115601
0.00945373
0.00680077
0.00352961
0.000350618
0.000472824
0.00446328
0.0088962
0.0119863
0.0139748
0.0154442
0.016598
0.0174698
0.01813
0.0186088
0.018973
0.0192057
0.0193227
0.0193383
0.0192925
0.0191942
0.0189999
0.0187202
0.0183922
0.0180328
0.0175667
0.016861
0.0159395
0.0147936
0.0133997
0.0116816
0.00953431
0.00683165
0.00351228
0.000344119
0.00049631
0.00484198
0.00926709
0.0121573
0.0140342
0.0155121
0.0167032
0.0175901
0.0182594
0.0187705
0.0191174
0.0193477
0.0194743
0.0195055
0.0194692
0.0193891
0.0192369
0.0189869
0.0186727
0.018296
0.017748
0.017007
0.0160722
0.0149172
0.0135048
0.0117584
0.00956779
0.00678302
0.00336327
0.000338532
0.000511893
0.00504288
0.00945053
0.0122302
0.0141083
0.0155961
0.0168069
0.0177183
0.0184029
0.0188807
0.019222
0.0194521
0.0195858
0.0196348
0.0196061
0.0195232
0.0193947
0.019176
0.0188663
0.0184435
0.0178447
0.0170766
0.0161343
0.0149805
0.0135619
0.0117998
0.00958013
0.0067533
0.00328216
0.000339028
0.000523887
0.00512055
0.00952166
0.0123396
0.0142233
0.0157025
0.0169039
0.0178192
0.0184857
0.0189521
0.0192985
0.0195304
0.0196665
0.0197223
0.0197077
0.0196239
0.0194863
0.0192842
0.018958
0.0184909
0.0178719
0.0170908
0.0161421
0.0149878
0.0135687
0.0118034
0.00958289
0.00677995
0.00335714
0.000344856
0.000532138
0.0051666
0.00957786
0.0124667
0.0143908
0.0158454
0.0170082
0.0178928
0.0185453
0.0190182
0.0193734
0.0195999
0.0197256
0.0197762
0.0197639
0.0196859
0.019534
0.0192986
0.0189528
0.0184767
0.0178498
0.017066
0.0161135
0.0149558
0.0135354
0.0117734
0.00956735
0.00680025
0.00342343
0.000350284
0.000544191
0.005209
0.00959874
0.0125563
0.0145543
0.0159841
0.0171067
0.0179867
0.0186208
0.019128
0.0194824
0.0196862
0.0197802
0.0198061
0.019781
0.0196973
0.0195357
0.0192772
0.0189127
0.0184251
0.0177946
0.0170124
0.0160596
0.0148999
0.0134786
0.0117204
0.00952783
0.00678755
0.00344087
0.000351979
0.000566523
0.0051602
0.00947576
0.012541
0.014658
0.0161799
0.0173003
0.0181428
0.0187734
0.0192994
0.0196472
0.0198132
0.0198529
0.0198301
0.0197741
0.0196718
0.0194967
0.019227
0.018851
0.0183545
0.0177231
0.0169429
0.0159905
0.0148291
0.0134065
0.0116512
0.00946937
0.00675037
0.00343252
0.000352239
0.000589364
0.00490841
0.00913486
0.0123781
0.0146837
0.0163495
0.0175266
0.0183496
0.0189679
0.0195007
0.0198657
0.0200085
0.0199744
0.0198787
0.0197684
0.0196357
0.0194437
0.0191644
0.0187827
0.0182818
0.0176491
0.0168684
0.0159146
0.0147507
0.013326
0.0115722
0.00939972
0.0067012
0.00341444
0.000352034
0.000577026
0.00475
0.00890195
0.0121023
0.0144761
0.0162443
0.0175193
0.0184218
0.0191055
0.0196717
0.0200787
0.0202587
0.0201704
0.0199728
0.0197905
0.0196135
0.0193992
0.0191104
0.0187202
0.0182141
0.0175783
0.0167951
0.0158379
0.0146702
0.0132426
0.0114897
0.00932634
0.00664939
0.00339361
0.000351739
0.000539571
0.00452523
0.0086527
0.0118635
0.01427
0.0160598
0.0173977
0.0183967
0.019152
0.0197412
0.0201741
0.0204114
0.0203449
0.020089
0.0198366
0.0196137
0.0193716
0.0190662
0.0186657
0.0181528
0.0175126
0.0167253
0.0157638
0.0145917
0.013161
0.0114101
0.00925644
0.00659852
0.00337392
0.000351629
0.000515709
0.00442779
0.00841489
0.0115348
0.0139286
0.0157509
0.0171344
0.0181855
0.0189914
0.019597
0.020025
0.0202854
0.020323
0.0201168
0.0198695
0.0196199
0.019355
0.0190292
0.0186152
0.0180954
0.0174511
0.0166602
0.0156947
0.0145187
0.0130872
0.0113378
0.00919055
0.00655203
0.00335789
0.000351886
0.000503313
0.0043491
0.00823908
0.0112866
0.0136354
0.0154396
0.0168312
0.0179081
0.0187396
0.019364
0.0198119
0.0200905
0.0201547
0.0200128
0.0198187
0.0195925
0.019313
0.0189784
0.0185609
0.0180395
0.017394
0.0166013
0.0156334
0.0144566
0.0130223
0.0112736
0.00913723
0.0065187
0.00334998
0.000352829
0.000494181
0.00425935
0.00806798
0.0110522
0.0133621
0.015146
0.0165344
0.0176225
0.0184679
0.0191069
0.0195749
0.0198613
0.0199161
0.0198394
0.0197057
0.0195014
0.0192409
0.0189149
0.0185031
0.0179859
0.0173426
0.016551
0.015584
0.0144036
0.0129693
0.0112266
0.00910088
0.00649933
0.00334979
0.000354618
0.000485881
0.00415551
0.00788101
0.0108058
0.0130794
0.0148446
0.0162289
0.0173214
0.018173
0.0188239
0.0193094
0.0195831
0.0196348
0.019611
0.0195267
0.0193693
0.0191446
0.0188416
0.0184449
0.0179363
0.017299
0.0165108
0.0155422
0.0143619
0.0129308
0.0111941
0.00907883
0.00649203
0.00335624
0.000357242
0.000477391
0.00404057
0.00767507
0.0105404
0.0127786
0.0145264
0.0159054
0.0169992
0.0178541
0.0185143
0.0189975
0.0192438
0.01932
0.0193434
0.0193146
0.0192138
0.019034
0.0187623
0.0183865
0.0178914
0.0172602
0.0164738
0.0155059
0.0143285
0.0129021
0.0111736
0.00906975
0.0064957
0.00336836
0.000360752
0.000467982
0.0039151
0.00745024
0.0102558
0.0124594
0.0141899
0.0155611
0.0166528
0.0175072
0.0181675
0.0186344
0.018857
0.0189744
0.0190573
0.0190938
0.0190526
0.0189187
0.0186804
0.0183269
0.0178456
0.0172233
0.0164381
0.0154734
0.0143012
0.0128835
0.0111669
0.00907606
0.00651306
0.00338847
0.000365023
0.0004575
0.00378072
0.00721235
0.00995758
0.0121252
0.0138351
0.0151948
0.0162802
0.0171294
0.0177781
0.0182151
0.0184318
0.0186069
0.0187789
0.0188859
0.0188994
0.0188074
0.0186006
0.0182686
0.017802
0.0171842
0.0164048
0.0154465
0.0142843
0.0128804
0.0111793
0.00910227
0.00654703
0.00341841
0.000369412
0.000446169
0.00364301
0.00696919
0.00965078
0.0117768
0.0134606
0.0148039
0.0158785
0.016718
0.017343
0.0177361
0.0179857
0.0182592
0.0185195
0.0186938
0.0187597
0.0187076
0.0185289
0.0182166
0.0177586
0.0171493
0.0163787
0.015432
0.0142849
0.012899
0.0112159
0.00915162
0.00659671
0.00345138
0.000374803
0.000434249
0.00349728
0.00672149
0.00933463
0.0114107
0.0130604
0.0143819
0.0154411
0.0162668
0.0168615
0.0172159
0.0175571
0.0179347
0.018275
0.0185141
0.0186313
0.0186172
0.0184655
0.0181689
0.0177232
0.0171256
0.0163685
0.0154385
0.0143113
0.0129467
0.0112823
0.00922799
0.00666464
0.0034886
0.000382389
0.000422153
0.00333716
0.00646346
0.00900244
0.011019
0.0126253
0.0139179
0.0149559
0.0157591
0.0163199
0.0166979
0.017152
0.0176353
0.0180508
0.0183514
0.018516
0.0185362
0.0184128
0.0181333
0.0177037
0.017124
0.0163854
0.0154776
0.0143747
0.0130338
0.0113872
0.00933714
0.00675393
0.003539
0.000384852
0.000409619
0.00317166
0.00619084
0.00864432
0.0105904
0.0121448
0.0134004
0.0144094
0.0151821
0.0157088
0.0162351
0.016807
0.0173799
0.0178643
0.018219
0.0184243
0.0184809
0.0183769
0.0181203
0.0177115
0.0171568
0.0164464
0.0155667
0.0144913
0.013177
0.0115466
0.00949294
0.00687465
0.00359323
0.000383565
0.000396317
0.00300149
0.00589884
0.00824957
0.0101138
0.0116107
0.0128215
0.013792
0.0145463
0.0151462
0.0158247
0.0165309
0.0171936
0.0177276
0.0181229
0.0183678
0.0184504
0.0183764
0.0181479
0.0177684
0.0172403
0.0165668
0.0157278
0.0146839
0.0133984
0.0117844
0.00972669
0.00706451
0.00364848
0.000379284
0.000382472
0.00283199
0.00558126
0.00780804
0.00957997
0.0110181
0.0121825
0.0131232
0.0139007
0.0146956
0.0155353
0.0163513
0.0170613
0.0176412
0.0180749
0.0183493
0.0184658
0.0184262
0.0182346
0.0178948
0.0174084
0.0167723
0.0159837
0.0149814
0.0137222
0.0121187
0.0100484
0.00733045
0.00376397
0.000386443
0.000367908
0.0026604
0.00523032
0.00731279
0.00898617
0.010368
0.011501
0.0124487
0.0133903
0.0143883
0.0153561
0.0162353
0.0169935
0.0176108
0.0180774
0.0183865
0.0185419
0.0185466
0.0184049
0.018119
0.0176883
0.0171081
0.0163701
0.0154167
0.0141763
0.0125655
0.010458
0.00766315
0.00397481
0.000407744
0.000351922
0.00247923
0.00484867
0.00677517
0.00835188
0.00968968
0.0108318
0.011904
0.0130712
0.0142158
0.0152658
0.0161985
0.0169942
0.0176449
0.0181424
0.0184925
0.018697
0.0187603
0.0186852
0.018472
0.0181179
0.0176178
0.016952
0.0160373
0.0147949
0.013144
0.0109602
0.00804318
0.00419376
0.000435958
0.000334757
0.00228672
0.00445013
0.00622672
0.00773042
0.00906545
0.0103054
0.0115984
0.0129398
0.0141672
0.0152746
0.0162436
0.0170711
0.0177501
0.0182853
0.0186832
0.0189495
0.0190881
0.0190994
0.018979
0.0187261
0.0183475
0.0178128
0.0169155
0.0156185
0.0138741
0.0115645
0.00847597
0.00442341
0.00046423
0.000316162
0.0020946
0.00405756
0.0057299
0.00723079
0.00864841
0.0100763
0.0115583
0.0129638
0.0142426
0.0153839
0.0163834
0.0172329
0.0179405
0.0185169
0.0189717
0.0193123
0.0195402
0.0196448
0.0196232
0.0194942
0.0192865
0.0189379
0.0180773
0.0166533
0.0147487
0.0122615
0.00895435
0.00466292
0.000493419
0.00029502
0.00189213
0.00372065
0.00540277
0.00702257
0.00860436
0.010171
0.0117002
0.01314
0.0144491
0.015612
0.0166216
0.0174889
0.0182263
0.0188477
0.0193652
0.0197832
0.0200849
0.020268
0.0203394
0.0203252
0.0202819
0.0200963
0.0193192
0.017811
0.015701
0.013
0.00944612
0.0049015
0.000519418
0.000273323
0.001702
0.00355336
0.00541628
0.00717979
0.00885053
0.0104854
0.0120488
0.0134907
0.0147963
0.0159529
0.0169672
0.0178496
0.0186159
0.0192823
0.0198583
0.0203281
0.0206708
0.0208945
0.0210226
0.0210949
0.0211534
0.020935
0.020269
0.0188215
0.0165994
0.0136854
0.00988874
0.00510931
0.000540173
0.000262471
0.00164416
0.00364408
0.00563932
0.00754752
0.0093632
0.0110227
0.0125539
0.013971
0.0152602
0.0164094
0.017424
0.0183186
0.0191108
0.0198144
0.0204254
0.0209136
0.0212705
0.0215247
0.021705
0.0218448
0.0217886
0.0212684
0.0207229
0.0194547
0.0172647
0.0141819
0.0102029
0.00525394
0.000555089
0.000262356
0.00170573
0.00388984
0.00612431
0.00814926
0.00999053
0.0116569
0.01317
0.0145647
0.0158378
0.016976
0.0179884
0.0188925
0.0197041
0.0204291
0.0210494
0.0215404
0.0219134
0.0221986
0.0224277
0.0224834
0.022067
0.0215109
0.0208726
0.0197596
0.0176253
0.0144502
0.0103622
0.00531945
0.000561144
0.000269405
0.00189096
0.00433378
0.0066755
0.00877323
0.0106696
0.0123469
0.0138499
0.015244
0.0165114
0.0176395
0.0186496
0.0195622
0.020387
0.0211205
0.0217411
0.0222379
0.0226339
0.0229572
0.0230985
0.0228183
0.0222599
0.0216267
0.0209439
0.0198682
0.0177936
0.0145786
0.0104108
0.00531908
0.000559025
0.000289223
0.00211559
0.00473669
0.0072129
0.00940949
0.0113647
0.0130711
0.0145924
0.0160042
0.0172669
0.0183829
0.0193944
0.0203186
0.0211559
0.0218957
0.0225214
0.0230403
0.0234691
0.0237037
0.0235326
0.023012
0.0223867
0.0217038
0.0209335
0.0198222
0.017802
0.0146972
0.0104074
0.00527849
0.000556174
0.000314976
0.00250617
0.00530833
0.00787072
0.0101306
0.0121265
0.0138813
0.0154372
0.0168386
0.0180855
0.0191897
0.0202137
0.0211591
0.0220137
0.0227662
0.0234138
0.0239635
0.024301
0.0242231
0.0237402
0.0231786
0.0225252
0.0217865
0.020931
0.019705
0.0176647
0.0145774
0.0103277
0.00511553
0.000569698
0.000348382
0.00303714
0.00604967
0.00868222
0.0109802
0.0130087
0.014798
0.01637
0.0177413
0.0189468
0.0200518
0.0211097
0.0220875
0.0229641
0.0237358
0.0244101
0.0248742
0.0248905
0.0244632
0.0239715
0.0233896
0.0227088
0.0219242
0.0210103
0.0197124
0.017625
0.0145272
0.0103679
0.00523512
0.000571578
0.000381032
0.00351054
0.0068024
0.00957177
0.0119229
0.0139739
0.0157745
0.0173462
0.0187077
0.0198927
0.0210116
0.0221064
0.0231111
0.0240043
0.0247933
0.0254021
0.0255538
0.0251934
0.0247457
0.0242516
0.0236542
0.0229566
0.0221443
0.0212014
0.0198639
0.0177449
0.0146328
0.0105061
0.00540029
0.000582047
0.000406375
0.00380966
0.00740775
0.0103931
0.0128752
0.0149758
0.0167956
0.0183752
0.0197289
0.0209247
0.02209
0.023212
0.0242269
0.0251211
0.0258485
0.0261829
0.0259279
0.0255262
0.0250856
0.0245921
0.0239797
0.0232789
0.0224549
0.0215051
0.0201283
0.017966
0.0148204
0.0106567
0.0054914
0.000593539
0.000424815
0.00399522
0.00787587
0.0110981
0.0137565
0.0159613
0.0178376
0.0194428
0.0208188
0.0220722
0.0232837
0.0244084
0.0254118
0.0262542
0.0267457
0.0266391
0.0263034
0.0259146
0.0254922
0.0249935
0.0243744
0.0236766
0.0228451
0.0218924
0.0204813
0.018256
0.0150571
0.01082
0.00556993
0.000607699
0.000440278
0.00414207
0.00827654
0.0117278
0.014573
0.0169107
0.0188756
0.0205424
0.0219858
0.0233074
0.0245393
0.0256577
0.0266349
0.0273123
0.0274303
0.0271191
0.026751
0.0263842
0.025974
0.0254618
0.024846
0.024134
0.0233037
0.0223762
0.020906
0.0185992
0.0153351
0.0110212
0.00566814
0.000622061
0.000455134
0.00428446
0.00865121
0.0123202
0.0153499
0.0178292
0.0198998
0.0216536
0.0231803
0.0245581
0.0258103
0.0269264
0.0278049
0.0281751
0.027961
0.0276316
0.0272959
0.0269487
0.026543
0.0260124
0.0253904
0.0246747
0.0238708
0.0229369
0.0213741
0.0189707
0.0156477
0.0112863
0.00583321
0.000631812
0.000471164
0.00444327
0.00902108
0.012898
0.016106
0.0187253
0.0209051
0.022752
0.0243585
0.0257879
0.0270636
0.0281431
0.028781
0.0287924
0.0285587
0.0282618
0.0279539
0.0276208
0.0272081
0.0266506
0.0260331
0.0253126
0.0245099
0.0235235
0.0218596
0.019354
0.0159794
0.0115986
0.00605173
0.000627113
0.000487863
0.00464398
0.00942004
0.0134834
0.0168549
0.0196075
0.021895
0.0238299
0.0255017
0.0269777
0.0282771
0.0291878
0.029526
0.0294769
0.0292689
0.0290123
0.0287244
0.0283739
0.0279525
0.0274119
0.0267998
0.0260743
0.0252572
0.0241822
0.0223889
0.0197587
0.0163058
0.0118322
0.00615814
0.000621603
0.00050567
0.0048865
0.00986342
0.0140861
0.0175956
0.0204741
0.0228655
0.0248623
0.0265797
0.0281069
0.0293061
0.0300063
0.0302419
0.0302269
0.0300609
0.029816
0.0295298
0.0292106
0.0288181
0.0283361
0.0277326
0.0269895
0.0261442
0.0249639
0.0230144
0.0202511
0.0166538
0.0120251
0.00621965
0.000621848
0.000523402
0.00514549
0.0103251
0.0146939
0.0183136
0.0212988
0.0237622
0.0258123
0.0275806
0.0290501
0.0300803
0.0306727
0.0309576
0.0309849
0.0308673
0.0306864
0.0304732
0.0302052
0.0298748
0.0294223
0.028811
0.0280201
0.0270806
0.0258672
0.0238164
0.0209038
0.0171193
0.0122856
0.00630502
0.000629993
0.000538386
0.00538361
0.0107494
0.0152542
0.0189628
0.0220138
0.0245374
0.0266685
0.0284456
0.0297849
0.0307135
0.0313554
0.0317214
0.0318358
0.0317938
0.0316693
0.0314879
0.0312557
0.03094
0.0304761
0.0298494
0.0290407
0.0280273
0.0267708
0.0247448
0.0217359
0.0177602
0.0126773
0.00643736
0.000638898
0.000550384
0.00556577
0.0111056
0.0157452
0.0195417
0.022652
0.0252292
0.0274043
0.0291366
0.030387
0.0313129
0.0320412
0.0324981
0.0326684
0.0326708
0.0325849
0.0324525
0.0322654
0.0319633
0.0314703
0.0307958
0.0299123
0.0287718
0.0273575
0.0253804
0.0225559
0.018576
0.013242
0.00665518
0.000661841
0.000561994
0.00570472
0.0114002
0.0161679
0.020055
0.0232271
0.0258447
0.0280126
0.0296709
0.0308905
0.0318713
0.0326776
0.0332105
0.033433
0.0334901
0.0334627
0.0333857
0.0332338
0.0329197
0.0323755
0.0316261
0.0306452
0.0293783
0.0277534
0.0256819
0.0228584
0.0190686
0.0139026
0.00703506
0.000694545
0.000572539
0.0058229
0.011655
0.0165413
0.0205168
0.0237419
0.0263648
0.02845
0.0300585
0.0313281
0.0323898
0.033276
0.0338903
0.0341658
0.0342656
0.0342973
0.0342704
0.0341301
0.0337843
0.03317
0.0323275
0.0312379
0.0298476
0.0280763
0.0258423
0.0228993
0.0190347
0.0139323
0.00714371
0.000740546
0.000583224
0.00593151
0.0118953
0.0168934
0.0209305
0.0241437
0.0266987
0.0287459
0.0304035
0.031768
0.0329091
0.033845
0.0345302
0.0348766
0.0350062
0.0350854
0.0350943
0.0349408
0.0345424
0.0338445
0.032898
0.0316958
0.0301855
0.0282879
0.0259137
0.02287
0.0188844
0.0137301
0.00708619
0.000751577
0.000591911
0.006044
0.0121371
0.0171997
0.0212072
0.0243844
0.0269449
0.0290418
0.0307819
0.0322307
0.033435
0.034413
0.0351352
0.0355332
0.035702
0.0358025
0.0358214
0.0356444
0.0351817
0.0343976
0.0333468
0.0320241
0.030386
0.0283637
0.0258744
0.0227612
0.0187082
0.0135358
0.00703401
0.00074397
0.00060049
0.00615823
0.012335
0.0173722
0.0213692
0.0245781
0.0272014
0.0293823
0.0311946
0.0326998
0.033947
0.0349448
0.0356759
0.0361134
0.0363119
0.036408
0.0364127
0.0362092
0.0356921
0.0348291
0.0336781
0.0322311
0.03045
0.0282971
0.0257134
0.0225626
0.0185083
0.0133888
0.00697916
0.000739106
0.000609441
0.00623923
0.0124257
0.0174662
0.021502
0.0247883
0.0275046
0.0297522
0.0316112
0.0331528
0.0344237
0.0354191
0.0361357
0.0365967
0.0368155
0.0368915
0.0368664
0.0366411
0.0360832
0.0351526
0.0339158
0.0323535
0.0304203
0.0281309
0.025468
0.0222986
0.0183255
0.0133186
0.00697325
0.000735895
0.000616996
0.00626521
0.0124602
0.0175404
0.0216632
0.0250492
0.0278326
0.0301211
0.032009
0.0335673
0.0348377
0.0358186
0.0365268
0.036998
0.0372303
0.037285
0.0372212
0.0369783
0.0363811
0.0353978
0.034104
0.0324568
0.0303973
0.0279591
0.0252285
0.0220571
0.0181971
0.013324
0.00700423
0.00073068
0.00062208
0.00628085
0.0124946
0.0176525
0.0218718
0.0253231
0.028149
0.0304622
0.0323564
0.0339133
0.0351821
0.0361626
0.0368636
0.0373346
0.0375815
0.0376286
0.0375195
0.0372378
0.036603
0.035601
0.0342761
0.0325922
0.0304898
0.0279463
0.0250982
0.021907
0.018125
0.0133374
0.00701055
0.000719049
0.000626457
0.00630961
0.0125715
0.0178069
0.0220884
0.0255776
0.0284226
0.030745
0.0326494
0.0342177
0.0354928
0.0364719
0.037159
0.0376169
0.0378887
0.0379503
0.03781
0.0374893
0.0368126
0.0357887
0.0344498
0.0327616
0.0306785
0.0281401
0.0251925
0.0218876
0.0180752
0.0132587
0.00691296
0.000702979
0.000631791
0.00636045
0.0126795
0.01797
0.0222895
0.0258036
0.0286698
0.0310157
0.0329443
0.0345262
0.035795
0.0367574
0.0374283
0.0378775
0.0381651
0.0382627
0.0381022
0.0377409
0.0370487
0.0359921
0.0346286
0.032942
0.0308944
0.0284258
0.0254763
0.0220306
0.0180629
0.0131137
0.00675025
0.00068983
0.000638612
0.00642165
0.0127944
0.0181298
0.0224884
0.0260423
0.0289484
0.0313236
0.0332696
0.0348541
0.0361066
0.0370599
0.0377392
0.0381749
0.0384293
0.0385324
0.0384185
0.0380613
0.0373363
0.0362127
0.0348095
0.0331038
0.0310632
0.0286389
0.0257477
0.022276
0.0181207
0.0129472
0.00658562
0.000682046
0.000646506
0.00648664
0.0129135
0.0183024
0.0227191
0.0263309
0.0292735
0.0316622
0.0336108
0.0351811
0.0364208
0.0374
0.0381299
0.0385963
0.0388324
0.0388777
0.0387329
0.038344
0.0376135
0.0364573
0.0349976
0.0332384
0.0311539
0.0286939
0.0258529
0.022476
0.0182789
0.0129849
0.00645905
0.000683222
0.000655133
0.00655647
0.0130454
0.0185023
0.0229901
0.0266726
0.0296246
0.0319858
0.0339189
0.0354839
0.0367486
0.0377843
0.0385659
0.0390719
0.0393225
0.0393471
0.0391357
0.0386591
0.0378866
0.0367303
0.0352157
0.0333645
0.031173
0.0287266
0.0259341
0.0225655
0.0183443
0.0130576
0.00650008
0.000713479
0.000664338
0.00663244
0.013193
0.0187255
0.0232843
0.0269973
0.0299248
0.0322754
0.0342172
0.0358016
0.0371428
0.0382584
0.0390988
0.0396506
0.0399215
0.0399243
0.0396614
0.0390971
0.0382142
0.0370211
0.0354722
0.0335398
0.0312983
0.0288476
0.0260251
0.0225774
0.018299
0.013017
0.00659506
0.000731912
0.000674279
0.0067068
0.0133491
0.0189594
0.0235887
0.0272777
0.0301902
0.0325745
0.034537
0.036201
0.0376622
0.0388573
0.0397712
0.0403948
0.0407133
0.0407119
0.0403855
0.0397252
0.0387178
0.0374016
0.0358014
0.0338329
0.0314885
0.02893
0.0260558
0.0225822
0.0182966
0.0130511
0.00673001
0.000734535
0.000684694
0.00678209
0.0135078
0.019187
0.0238545
0.0275356
0.0304741
0.0329024
0.0349338
0.0367439
0.0383081
0.039597
0.0406205
0.0413725
0.0418039
0.0418141
0.041391
0.040604
0.039476
0.0380241
0.0363002
0.0342728
0.0318231
0.0290478
0.0260638
0.0225938
0.018366
0.0132059
0.00688911
0.000736641
0.000695425
0.0068608
0.0136703
0.019408
0.0240939
0.0278004
0.0307903
0.0332763
0.0354564
0.037407
0.0390736
0.0404816
0.0416609
0.0426037
0.0432107
0.0432805
0.0427454
0.0417796
0.0405005
0.0389323
0.0370859
0.0349484
0.0324413
0.0294781
0.0262336
0.0226764
0.0184872
0.013393
0.00701594
0.000732511
0.00070649
0.00694728
0.0138414
0.0196342
0.0243289
0.0280674
0.0311163
0.0337409
0.0361052
0.0381667
0.0399433
0.0414906
0.0428421
0.0439604
0.0446889
0.0448596
0.0443675
0.0432763
0.0418064
0.0400711
0.0380934
0.0358552
0.0332811
0.030272
0.0268149
0.0230124
0.0187174
0.0135265
0.00703408
0.000723012
0.00071774
0.00704438
0.0140224
0.0198704
0.0245621
0.028331
0.0315102
0.0343379
0.0368361
0.0389971
0.0408867
0.0425654
0.0440346
0.0452063
0.0459135
0.0461533
0.0459015
0.0449483
0.0433791
0.0414128
0.0392345
0.0368624
0.0342388
0.0312046
0.0276664
0.0236544
0.0190553
0.0136184
0.00696768
0.00072028
0.000728681
0.00715568
0.0142114
0.0200904
0.0248
0.0286523
0.0320242
0.03502
0.0376161
0.0398701
0.0418589
0.043613
0.0450955
0.0461987
0.0468067
0.0470704
0.0470478
0.0463644
0.0449519
0.0428793
0.040423
0.0378045
0.0351031
0.0320991
0.0285586
0.0243599
0.0194151
0.0136392
0.00677137
0.000721576
0.00073844
0.00728052
0.0144066
0.0202974
0.0250521
0.0290696
0.032636
0.0357444
0.0384273
0.0407593
0.042798
0.0445578
0.0459854
0.0469681
0.0474527
0.047673
0.0477238
0.0472233
0.0459568
0.0439675
0.0414629
0.0387322
0.0358874
0.0327853
0.0291946
0.0248989
0.0196912
0.0135676
0.00656425
0.000739842
0.00074602
0.00737787
0.0145578
0.0204722
0.025343
0.029564
0.033286
0.0364986
0.0392621
0.0416511
0.0436972
0.0454124
0.046747
0.0475732
0.0479092
0.0479615
0.0479497
0.0475678
0.0464957
0.0446892
0.0423052
0.0395691
0.0366019
0.0333329
0.029568
0.0251086
0.0197375
0.0134605
0.00639447
0.000753344
0.000746432
0.00731828
0.0145366
0.0205577
0.0256221
0.0300756
0.0339606
0.037287
0.0401337
0.042561
0.0445844
0.0462218
0.0474011
0.0480256
0.0481847
0.048173
0.0481061
0.0478216
0.0469446
0.0453655
0.043143
0.0404298
0.0373902
0.0340167
0.0301517
0.0256058
0.0202282
0.0140284
0.00695889
0.000786831
0.000748546
0.00688214
0.0140693
0.0204048
0.0258319