/*--------------------------------*- C++ -*----------------------------------*\
| =========                 |                                                 |
| \\      /  F ield         | OpenFOAM: The Open Source CFD Toolbox           |
|  \\    /   O peration     | Version:  2.3.0                                 |
|   \\  /    A nd           | Web:      www.OpenFOAM.org                      |
|    \\/     M anipulation  |                                                 |
\*---------------------------------------------------------------------------*/
FoamFile
{
    version     2.0;
    format      ascii;
    class       volScalarField;
    location    "45";
    object      alpha.airMean;
}
// * * * * * * * * * * * * * * * * * * * * * * * * * * * * * * * * * * * * * //

dimensions      [0 0 0 0 0 0 0];

internalField   nonuniform List<scalar> 
1875
(
0.211151
0.206857
0.207345
0.215569
0.226979
0.239598
0.250938
0.259494
0.265177
0.268416
0.270252
0.270163
0.266345
0.263356
0.26324
0.26409
0.261574
0.255766
0.246361
0.235196
0.224185
0.214204
0.206897
0.204581
0.205897
0.149668
0.150736
0.154746
0.163531
0.175557
0.19004
0.203313
0.213333
0.219567
0.223694
0.224541
0.222589
0.221947
0.222085
0.227302
0.233848
0.236992
0.232219
0.218206
0.200249
0.180967
0.165972
0.155676
0.150538
0.146831
0.137741
0.152708
0.1729
0.187307
0.197266
0.203767
0.206676
0.208347
0.211756
0.217608
0.220688
0.221517
0.222592
0.224584
0.232404
0.241061
0.246867
0.245146
0.236735
0.225574
0.214848
0.199738
0.181543
0.15783
0.140624
0.135467
0.162731
0.194901
0.209424
0.215181
0.217208
0.217641
0.215954
0.216116
0.219726
0.221262
0.223573
0.226559
0.231125
0.238804
0.249949
0.256491
0.258081
0.252103
0.244278
0.23524
0.226868
0.209403
0.171621
0.141145
0.136508
0.169184
0.203645
0.218033
0.224067
0.226489
0.226105
0.22381
0.220824
0.21982
0.219621
0.220901
0.223411
0.225941
0.234035
0.242582
0.251523
0.256374
0.257396
0.252726
0.246102
0.236071
0.21785
0.179487
0.142627
0.137114
0.175439
0.209925
0.2272
0.235927
0.236684
0.233698
0.228145
0.221968
0.2167
0.21364
0.212156
0.212597
0.214944
0.220766
0.22918
0.237061
0.246423
0.252774
0.25628
0.254283
0.245489
0.224637
0.187765
0.145072
0.138193
0.186434
0.21664
0.233942
0.242628
0.241151
0.23579
0.228118
0.218536
0.21073
0.205206
0.202057
0.200486
0.200977
0.20578
0.213008
0.222003
0.232533
0.243435
0.250139
0.254043
0.247988
0.22853
0.197136
0.148992
0.14413
0.198884
0.222057
0.23732
0.245313
0.242757
0.234595
0.223746
0.212261
0.203627
0.197961
0.193578
0.191194
0.191325
0.194015
0.19994
0.208297
0.219576
0.232134
0.24349
0.249767
0.24467
0.226194
0.201871
0.155102
0.152122
0.207315
0.223104
0.235582
0.243914
0.240344
0.230486
0.218718
0.20768
0.198962
0.193051
0.188679
0.185903
0.185209
0.187695
0.191809
0.198864
0.20902
0.222203
0.236872
0.245475
0.239262
0.222845
0.20342
0.159627
0.158335
0.211667
0.221989
0.23092
0.238192
0.235558
0.225981
0.21556
0.205709
0.197346
0.191245
0.186315
0.1838
0.18403
0.185282
0.188996
0.194355
0.203559
0.216365
0.23264
0.240882
0.23472
0.220873
0.204625
0.161958
0.161647
0.213991
0.221443
0.227069
0.232749
0.229248
0.2212
0.211837
0.203693
0.196507
0.191979
0.188716
0.187366
0.186334
0.187116
0.188886
0.194592
0.204342
0.217055
0.231391
0.23864
0.231312
0.221113
0.206628
0.163167
0.163779
0.214672
0.222251
0.225568
0.229623
0.225025
0.21674
0.207965
0.200809
0.196413
0.194531
0.193698
0.192148
0.19109
0.190474
0.192516
0.197754
0.207216
0.220002
0.232986
0.237562
0.231681
0.223143
0.208347
0.163901
0.165724
0.215317
0.225224
0.226057
0.228299
0.223325
0.214427
0.205567
0.199207
0.196348
0.196446
0.196856
0.195712
0.195157
0.194751
0.196046
0.200119
0.209472
0.22292
0.232993
0.236953
0.230878
0.224658
0.20973
0.164819
0.16755
0.215323
0.228682
0.228834
0.228439
0.223366
0.214982
0.206093
0.199452
0.19606
0.196252
0.197532
0.19801
0.198732
0.198203
0.199494
0.202889
0.211905
0.223923
0.232754
0.23476
0.230156
0.225635
0.210788
0.16602
0.169268
0.214569
0.229068
0.231179
0.230234
0.224532
0.216564
0.207956
0.201482
0.197327
0.195869
0.196672
0.197667
0.198519
0.200645
0.202121
0.205764
0.214045
0.224764
0.231892
0.233356
0.23023
0.227468
0.212265
0.165977
0.170755
0.213226
0.227931
0.231778
0.231838
0.226222
0.218303
0.209978
0.203888
0.199943
0.196969
0.195929
0.196209
0.198042
0.200161
0.203999
0.208082
0.215363
0.224537
0.230985
0.23308
0.232141
0.22761
0.212432
0.164981
0.171931
0.211696
0.225296
0.230937
0.231319
0.226088
0.218522
0.211433
0.20572
0.202821
0.199051
0.197098
0.196632
0.197402
0.200541
0.203524
0.208226
0.216208
0.225067
0.230284
0.233543
0.231709
0.227282
0.211539
0.163448
0.172654
0.210065
0.222649
0.229158
0.23001
0.223892
0.217369
0.211531
0.207477
0.204898
0.202141
0.198804
0.197707
0.199007
0.200776
0.204109
0.208612
0.215545
0.223797
0.230121
0.232308
0.230619
0.226893
0.210694
0.16227
0.171697
0.208585
0.221061
0.226374
0.228534
0.223889
0.217692
0.213023
0.210106
0.208589
0.205615
0.202176
0.201514
0.202055
0.203756
0.206315
0.20952
0.214282
0.220831
0.226853
0.229881
0.228825
0.226524
0.21141
0.161818
0.170002
0.207305
0.220255
0.225317
0.228244
0.225831
0.222263
0.21781
0.214554
0.212319
0.210801
0.209611
0.207872
0.206875
0.207318
0.208578
0.209775
0.212742
0.217887
0.222366
0.225754
0.227192
0.225746
0.212356
0.161578
0.16844
0.206053
0.219682
0.226471
0.229219
0.228562
0.225396
0.221798
0.218483
0.216752
0.215652
0.21422
0.212836
0.210793
0.20975
0.209223
0.20985
0.212051
0.215205
0.219283
0.223627
0.226481
0.224815
0.21343
0.161632
0.167101
0.204655
0.218525
0.225931
0.22981
0.229465
0.226803
0.223403
0.220389
0.218271
0.215982
0.214607
0.213697
0.212655
0.210858
0.209806
0.209924
0.21125
0.213951
0.218358
0.22369
0.226321
0.22576
0.214424
0.162349
0.166391
0.203791
0.217245
0.224257
0.228607
0.229228
0.227253
0.223939
0.220144
0.216551
0.2142
0.212951
0.212887
0.211857
0.211041
0.209762
0.20982
0.209974
0.21288
0.217926
0.22437
0.227667
0.227392
0.216093
0.163214
0.16638
0.203047
0.216103
0.221723
0.225999
0.226911
0.226193
0.223154
0.218487
0.214979
0.212798
0.21227
0.211354
0.210724
0.209071
0.208868
0.208775
0.209911
0.212544
0.218926
0.226464
0.230049
0.228537
0.21791
0.164345
0.167325
0.202741
0.214977
0.21947
0.22281
0.223899
0.223562
0.220895
0.217362
0.214123
0.212698
0.211685
0.210485
0.20901
0.208656
0.208912
0.209413
0.210712
0.214538
0.22065
0.227636
0.230326
0.228555
0.218996
0.165463
0.168919
0.202444
0.213455
0.217172
0.220165
0.221184
0.221036
0.219438
0.217184
0.215322
0.213032
0.211171
0.2094
0.208643
0.208989
0.210874
0.211666
0.213131
0.216385
0.221809
0.227473
0.228714
0.227617
0.21825
0.166051
0.17009
0.202436
0.212318
0.216029
0.218108
0.219156
0.218811
0.217864
0.217463
0.215743
0.213579
0.210848
0.209072
0.208513
0.21072
0.213123
0.214751
0.215642
0.217543
0.221511
0.226201
0.227011
0.226377
0.216169
0.166308
0.170844
0.202863
0.212357
0.215319
0.217795
0.21825
0.217243
0.21702
0.216891
0.216075
0.213509
0.211046
0.209823
0.210617
0.212656
0.215409
0.216686
0.217675
0.219236
0.221563
0.224581
0.225189
0.22464
0.213232
0.166492
0.17163
0.204248
0.213207
0.21518
0.217744
0.218107
0.217055
0.216479
0.216404
0.215356
0.21354
0.211644
0.211618
0.213332
0.215194
0.21703
0.219074
0.219951
0.220642
0.221411
0.223111
0.222953
0.222393
0.210103
0.166873
0.172243
0.204975
0.214345
0.215103
0.217015
0.217325
0.216588
0.216154
0.215536
0.214543
0.213687
0.212919
0.213634
0.216019
0.217433
0.218675
0.219474
0.220157
0.221189
0.221676
0.221702
0.221086
0.219387
0.207183
0.167654
0.172336
0.205303
0.214757
0.215533
0.217071
0.217201
0.216331
0.216131
0.215835
0.215337
0.214883
0.214812
0.216087
0.218259
0.219542
0.219288
0.219983
0.219896
0.220723
0.220503
0.220633
0.219351
0.216221
0.204212
0.167835
0.171938
0.205275
0.214775
0.215564
0.218191
0.218362
0.217572
0.216983
0.2172
0.217434
0.216945
0.215831
0.216932
0.21926
0.220435
0.220362
0.219829
0.219437
0.218213
0.218327
0.218773
0.217379
0.21292
0.201696
0.167066
0.171532
0.205281
0.214403
0.215551
0.218449
0.219885
0.219629
0.219204
0.219691
0.219098
0.21707
0.215772
0.217209
0.219601
0.22088
0.219832
0.21926
0.217651
0.217218
0.216932
0.217723
0.215719
0.210445
0.199993
0.166321
0.171824
0.20525
0.214029
0.215272
0.218547
0.220179
0.220815
0.22074
0.220373
0.218668
0.217131
0.21608
0.216824
0.219119
0.219762
0.218888
0.217646
0.217301
0.216984
0.217796
0.217919
0.21516
0.209751
0.199883
0.166652
0.172063
0.205331
0.214114
0.215052
0.217674
0.219511
0.220359
0.221265
0.220193
0.219076
0.217134
0.215698
0.216079
0.217865
0.218772
0.21779
0.217422
0.217162
0.217926
0.219176
0.219639
0.216103
0.21105
0.200866
0.167619
0.171545
0.205203
0.213971
0.214945
0.216205
0.217246
0.219126
0.219988
0.219625
0.218931
0.217553
0.216389
0.216116
0.217611
0.217412
0.217287
0.217023
0.218029
0.219384
0.22087
0.221169
0.21772
0.21264
0.202403
0.169122
0.170232
0.204912
0.213232
0.215008
0.215421
0.215308
0.216966
0.218245
0.219282
0.219965
0.219207
0.216948
0.216159
0.215797
0.216168
0.216005
0.217479
0.219091
0.220874
0.222148
0.222226
0.217835
0.213637
0.20414
0.171432
0.168403
0.204912
0.212308
0.215125
0.216038
0.215464
0.216274
0.218004
0.219397
0.220727
0.219276
0.217479
0.215128
0.215519
0.214903
0.215565
0.217398
0.220042
0.22196
0.223077
0.22187
0.217481
0.213145
0.205618
0.173706
0.166791
0.205612
0.212289
0.215159
0.217395
0.217212
0.217618
0.217649
0.218866
0.219851
0.219556
0.217842
0.215347
0.214837
0.215118
0.2159
0.217884
0.220237
0.222563
0.223051
0.221907
0.21684
0.213482
0.20714
0.175422
0.165962
0.206858
0.213092
0.215515
0.218407
0.218753
0.21862
0.218204
0.218529
0.219042
0.218746
0.218624
0.216629
0.215904
0.215838
0.217171
0.218651
0.220674
0.222709
0.223074
0.221615
0.217215
0.214462
0.20869
0.177215
0.165841
0.20846
0.213765
0.215326
0.21877
0.219046
0.219204
0.218393
0.218716
0.218506
0.218643
0.218569
0.217596
0.217309
0.218208
0.21905
0.220197
0.221552
0.222987
0.222208
0.220547
0.217394
0.215944
0.210026
0.179279
0.166163
0.210196
0.214978
0.21505
0.218083
0.21897
0.219132
0.218741
0.218798
0.218975
0.219193
0.219006
0.218107
0.219369
0.21966
0.22053
0.221002
0.221715
0.22211
0.220729
0.21949
0.217674
0.217497
0.210781
0.179929
0.166875
0.211811
0.216622
0.215149
0.217321
0.218219
0.218988
0.218683
0.219199
0.219503
0.219696
0.218997
0.218774
0.22042
0.220401
0.220483
0.220937
0.221441
0.221079
0.219739
0.219527
0.217816
0.218035
0.210251
0.179196
0.167963
0.213284
0.21816
0.215904
0.217283
0.217611
0.218415
0.218728
0.218861
0.219172
0.219202
0.218953
0.218931
0.220198
0.219639
0.219528
0.219735
0.220326
0.220382
0.219384
0.219156
0.217542
0.217523
0.208262
0.177397
0.168929
0.213869
0.218968
0.217064
0.218055
0.217541
0.218305
0.218376
0.218619
0.21885
0.218785
0.218725
0.219063
0.219961
0.218882
0.21858
0.218648
0.218837
0.219375
0.218815
0.218578
0.216715
0.216579
0.206709
0.175474
0.169624
0.214009
0.219326
0.217795
0.218933
0.217872
0.218346
0.218475
0.218808
0.219043
0.218927
0.218874
0.21907
0.220186
0.219155
0.218169
0.217517
0.217351
0.218075
0.218024
0.217896
0.216423
0.216471
0.205792
0.174736
0.16959
0.214034
0.219208
0.217551
0.218746
0.218028
0.218942
0.219494
0.220051
0.219848
0.21946
0.219196
0.218808
0.219999
0.219549
0.21836
0.217307
0.216522
0.217602
0.217563
0.218111
0.216853
0.217146
0.206706
0.173964
0.169021
0.213152
0.218591
0.216845
0.218176
0.21841
0.220109
0.221098
0.220891
0.220188
0.219851
0.219322
0.218645
0.2198
0.219916
0.218865
0.217207
0.216687
0.218016
0.218321
0.218848
0.217524
0.217757
0.207584
0.172331
0.168452
0.211776
0.217441
0.216043
0.218116
0.219013
0.221276
0.221836
0.221559
0.220364
0.220071
0.219737
0.218556
0.219101
0.219904
0.219352
0.217654
0.217422
0.21859
0.218724
0.219542
0.217536
0.217309
0.208522
0.170267
0.166754
0.210454
0.216584
0.215763
0.218353
0.21947
0.221654
0.222034
0.221457
0.220321
0.219726
0.219598
0.218168
0.218367
0.219364
0.219974
0.219716
0.218573
0.219081
0.219108
0.219954
0.21781
0.217699
0.208873
0.16809
0.165179
0.209326
0.216043
0.216026
0.218273
0.219501
0.221431
0.221168
0.220717
0.219838
0.219737
0.219377
0.217773
0.217922
0.21909
0.220145
0.220421
0.219911
0.21994
0.219472
0.220351
0.218106
0.218224
0.210493
0.166512
0.164347
0.20828
0.216069
0.216596
0.218424
0.218641
0.220542
0.220523
0.220794
0.220476
0.21966
0.218844
0.217149
0.2181
0.219918
0.220749
0.220842
0.220613
0.220126
0.219539
0.220808
0.218494
0.219577
0.211841
0.165856
0.163922
0.207837
0.216689
0.217258
0.218788
0.21863
0.220141
0.220404
0.221291
0.220866
0.219854
0.218867
0.218204
0.220041
0.221166
0.221309
0.221147
0.220434
0.2196
0.218863
0.22063
0.219069
0.220362
0.213892
0.165456
0.166378
0.210784
0.220262
0.2208
0.222536
0.221976
0.223232
0.22337
0.224059
0.223817
0.223618
0.223768
0.223561
0.22497
0.225383
0.22517
0.224367
0.222695
0.221563
0.220998
0.223117
0.222303
0.224462
0.217687
0.168001
0.17105
0.216966
0.225339
0.225438
0.227541
0.22746
0.228591
0.228352
0.228767
0.228961
0.229692
0.23003
0.229561
0.230906
0.230958
0.229846
0.228271
0.226122
0.225567
0.225404
0.227986
0.227567
0.229773
0.223569
0.173075
0.176223
0.223508
0.230131
0.229568
0.232312
0.232946
0.234219
0.233244
0.233584
0.234121
0.235206
0.235091
0.235069
0.235956
0.235336
0.233899
0.231858
0.229829
0.230115
0.230821
0.233888
0.233246
0.2358
0.228758
0.178448
0.18102
0.229891
0.234778
0.233782
0.237558
0.238582
0.239247
0.237959
0.238112
0.238924
0.239731
0.240708
0.240335
0.240562
0.239301
0.237977
0.236406
0.235081
0.235912
0.236756
0.239764
0.238563
0.240229
0.23351
0.183545
0.185656
0.236357
0.240021
0.238689
0.24359
0.244943
0.245023
0.242868
0.243088
0.244073
0.245041
0.245591
0.245388
0.245076
0.244289
0.243517
0.243252
0.241627
0.241904
0.24224
0.244585
0.242781
0.244657
0.237165
0.187934
0.190719
0.242352
0.245428
0.244097
0.249294
0.251187
0.250898
0.248242
0.248204
0.249074
0.24936
0.250211
0.250209
0.251118
0.250211
0.249991
0.249801
0.24812
0.247478
0.247393
0.248495
0.24645
0.248656
0.241673
0.191721
0.196223
0.248211
0.250639
0.248911
0.254113
0.255828
0.256117
0.254073
0.25386
0.254159
0.255122
0.256461
0.25712
0.257088
0.256
0.255712
0.25585
0.253663
0.252989
0.252238
0.252936
0.250564
0.254189
0.246517
0.19484
0.20142
0.253396
0.255369
0.253571
0.258417
0.259799
0.260544
0.259605
0.259807
0.260231
0.261995
0.263682
0.263224
0.262908
0.261488
0.260988
0.260065
0.258544
0.258109
0.257523
0.25793
0.256098
0.258898
0.251282
0.197675
0.205475
0.258257
0.260147
0.257955
0.262517
0.263658
0.264674
0.264498
0.266442
0.26809
0.270262
0.271025
0.270045
0.268603
0.267355
0.26576
0.264296
0.262723
0.262445
0.261588
0.262663
0.261295
0.264303
0.255891
0.200346
0.208951
0.26375
0.265895
0.262716
0.26685
0.267977
0.269539
0.270378
0.272702
0.275202
0.277493
0.278135
0.276388
0.274772
0.272814
0.271417
0.269819
0.267663
0.266905
0.266139
0.267244
0.266221
0.268475
0.260994
0.203251
0.213138
0.269959
0.272661
0.269248
0.272756
0.273888
0.275863
0.276954
0.279415
0.281169
0.282652
0.28294
0.282555
0.280992
0.279316
0.27725
0.276269
0.274341
0.273257
0.271722
0.272198
0.270761
0.272784
0.266442
0.206391
0.218151
0.273944
0.27804
0.276008
0.27935
0.2807
0.282582
0.283555
0.285177
0.285485
0.285948
0.286568
0.287043
0.286735
0.284501
0.282311
0.281169
0.280632
0.280096
0.277876
0.276584
0.274341
0.276772
0.269986
0.209889
0.22221
0.272859
0.277004
0.27608
0.279552
0.280545
0.281795
0.28224
0.283037
0.28277
0.282687
0.282891
0.283803
0.284116
0.282873
0.281018
0.280093
0.279779
0.279602
0.277293
0.275057
0.272297
0.274387
0.269389
0.212676
0.240052
0.277836
0.276148
0.274061
0.274259
0.273836
0.273917
0.273592
0.273217
0.272496
0.271709
0.271197
0.272373
0.274098
0.274987
0.275337
0.276581
0.277662
0.277896
0.276683
0.27448
0.271952
0.272859
0.273385
0.230712
0.451367
0.45462
0.443023
0.439049
0.433945
0.428854
0.423262
0.417151
0.412915
0.411946
0.411579
0.412367
0.414911
0.418423
0.422049
0.42331
0.426418
0.429885
0.430696
0.434012
0.435347
0.438552
0.443388
0.452108
0.446107
0.835699
0.810212
0.797033
0.795389
0.797099
0.799922
0.805745
0.808492
0.8067
0.805089
0.800558
0.799828
0.800355
0.801071
0.801139
0.80185
0.8057
0.806961
0.807802
0.808073
0.808753
0.809459
0.809606
0.821145
0.841641
0.986959
0.981249
0.979058
0.979429
0.980115
0.98073
0.981361
0.981584
0.981577
0.981584
0.981051
0.981116
0.981272
0.981421
0.981596
0.981875
0.982147
0.982271
0.982493
0.982374
0.982103
0.981701
0.981347
0.983561
0.988602
0.999927
0.999758
0.999526
0.999454
0.999474
0.999509
0.99954
0.99956
0.999572
0.999578
0.999573
0.999571
0.999573
0.999577
0.999581
0.999584
0.999584
0.99958
0.999571
0.99955
0.999522
0.999503
0.999562
0.999789
0.999949
1
1
0.999999
0.999997
0.999997
0.999997
0.999997
0.999998
0.999998
0.999998
0.999998
0.999998
0.999998
0.999998
0.999998
0.999998
0.999998
0.999997
0.999997
0.999997
0.999997
0.999997
0.999999
1
1
1
1
1
1
1
1
1
1
1
1
1
1
1
1
1
1
1
1
1
1
1
1
1
1
1
1
1
1
1
1
1
1
1
1
1
1
1
1
1
1
1
1
1
1
1
1
1
1
1
1
1
1
1
1
1
1
1
1
1
1
1
1
1
1
1
1
1
1
1
1
1
1
1
1
1
)
;

boundaryField
{
    inlet
    {
        type            calculated;
        value           uniform 0.5;
    }
    outlet
    {
        type            calculated;
        value           nonuniform List<scalar> 
25
(
1
1
1
1
1
1
1
1
1
1
1
1
1
1
1
1
1
1
1
1
1
1
1
1
1
)
;
    }
    walls
    {
        type            calculated;
        value           nonuniform List<scalar> 
150
(
0.211151
0.149668
0.137741
0.135467
0.136508
0.137114
0.138193
0.14413
0.152122
0.158335
0.161647
0.163779
0.165724
0.16755
0.169268
0.170755
0.171931
0.172654
0.171697
0.170002
0.16844
0.167101
0.166391
0.16638
0.167325
0.168919
0.17009
0.170844
0.17163
0.172243
0.172336
0.171938
0.171532
0.171824
0.172063
0.171545
0.170232
0.168403
0.166791
0.165962
0.165841
0.166163
0.166875
0.167963
0.168929
0.169624
0.16959
0.169021
0.168452
0.166754
0.165179
0.164347
0.163922
0.166378
0.17105
0.176223
0.18102
0.185656
0.190719
0.196223
0.20142
0.205475
0.208951
0.213138
0.218151
0.22221
0.240052
0.451367
0.835699
0.986959
0.999927
1
1
1
1
0.205897
0.146831
0.140624
0.141145
0.142627
0.145072
0.148992
0.155102
0.159627
0.161958
0.163167
0.163901
0.164819
0.16602
0.165977
0.164981
0.163448
0.16227
0.161818
0.161578
0.161632
0.162349
0.163214
0.164345
0.165463
0.166051
0.166308
0.166492
0.166873
0.167654
0.167835
0.167066
0.166321
0.166652
0.167619
0.169122
0.171432
0.173706
0.175422
0.177215
0.179279
0.179929
0.179196
0.177397
0.175474
0.174736
0.173964
0.172331
0.170267
0.16809
0.166512
0.165856
0.165456
0.168001
0.173075
0.178448
0.183545
0.187934
0.191721
0.19484
0.197675
0.200346
0.203251
0.206391
0.209889
0.212676
0.230712
0.446107
0.841641
0.988602
0.999949
1
1
1
1
)
;
    }
    defaultFaces
    {
        type            empty;
    }
}


// ************************************************************************* //
