/*--------------------------------*- C++ -*----------------------------------*\
| =========                 |                                                 |
| \\      /  F ield         | OpenFOAM: The Open Source CFD Toolbox           |
|  \\    /   O peration     | Version:  2.3.0                                 |
|   \\  /    A nd           | Web:      www.OpenFOAM.org                      |
|    \\/     M anipulation  |                                                 |
\*---------------------------------------------------------------------------*/
FoamFile
{
    version     2.0;
    format      ascii;
    class       volScalarField;
    location    "41";
    object      nut.air;
}
// * * * * * * * * * * * * * * * * * * * * * * * * * * * * * * * * * * * * * //

dimensions      [0 2 -1 0 0 0 0];

internalField   nonuniform List<scalar> 
1875
(
1.45836e-05
1.58491e-05
1.73639e-05
1.84372e-05
1.91908e-05
1.96825e-05
1.99761e-05
2.01594e-05
2.0241e-05
2.01964e-05
2.01051e-05
1.97972e-05
1.91159e-05
1.801e-05
1.64706e-05
1.43309e-05
1.15162e-05
9.31231e-06
8.34361e-06
8.56605e-06
9.15493e-06
9.57915e-06
9.53803e-06
9.13844e-06
8.4148e-06
1.72096e-05
1.99946e-05
2.18709e-05
2.28383e-05
2.32018e-05
2.31734e-05
2.28731e-05
2.25271e-05
2.22281e-05
2.18719e-05
2.1559e-05
2.1141e-05
2.04139e-05
1.94093e-05
1.7656e-05
1.56243e-05
1.37385e-05
1.25369e-05
1.23427e-05
1.30892e-05
1.41829e-05
1.5069e-05
1.54116e-05
1.49783e-05
1.36792e-05
2.45518e-05
2.69621e-05
2.77461e-05
2.75999e-05
2.70024e-05
2.62785e-05
2.54951e-05
2.46726e-05
2.37972e-05
2.28858e-05
2.20942e-05
2.13476e-05
2.05102e-05
1.9431e-05
1.79725e-05
1.64698e-05
1.52224e-05
1.47337e-05
1.52285e-05
1.66415e-05
1.83346e-05
1.98572e-05
2.07434e-05
2.07532e-05
1.95222e-05
3.1215e-05
3.07571e-05
3.00602e-05
2.90315e-05
2.78702e-05
2.67454e-05
2.56622e-05
2.46471e-05
2.3641e-05
2.26e-05
2.16046e-05
2.07623e-05
1.98856e-05
1.89648e-05
1.79893e-05
1.69407e-05
1.63951e-05
1.64726e-05
1.74303e-05
1.91469e-05
2.11695e-05
2.30672e-05
2.45374e-05
2.52153e-05
2.45303e-05
3.51777e-05
3.3184e-05
3.12524e-05
2.91493e-05
2.71905e-05
2.55663e-05
2.42997e-05
2.32733e-05
2.23603e-05
2.14852e-05
2.0692e-05
2.00973e-05
1.94683e-05
1.88584e-05
1.82173e-05
1.77263e-05
1.75586e-05
1.78576e-05
1.88469e-05
2.05194e-05
2.26267e-05
2.48481e-05
2.69542e-05
2.87596e-05
2.97569e-05
3.89079e-05
3.46917e-05
3.13869e-05
2.84962e-05
2.60228e-05
2.4083e-05
2.28261e-05
2.19865e-05
2.13169e-05
2.07952e-05
2.04229e-05
2.00679e-05
1.96656e-05
1.92803e-05
1.89607e-05
1.87777e-05
1.87684e-05
1.90114e-05
1.97683e-05
2.12321e-05
2.32777e-05
2.57421e-05
2.84586e-05
3.12835e-05
3.38155e-05
4.0806e-05
3.50229e-05
3.11761e-05
2.78016e-05
2.50249e-05
2.30908e-05
2.2071e-05
2.14173e-05
2.10588e-05
2.09189e-05
2.08473e-05
2.06804e-05
2.05197e-05
2.0378e-05
2.02391e-05
2.01501e-05
2.01622e-05
2.03229e-05
2.08317e-05
2.19923e-05
2.38645e-05
2.63988e-05
2.9435e-05
3.29269e-05
3.64466e-05
3.89038e-05
3.44061e-05
3.05099e-05
2.71934e-05
2.46031e-05
2.29413e-05
2.21714e-05
2.1836e-05
2.16707e-05
2.1704e-05
2.17511e-05
2.18044e-05
2.18082e-05
2.17659e-05
2.17184e-05
2.16858e-05
2.17059e-05
2.18191e-05
2.21942e-05
2.31075e-05
2.47297e-05
2.70937e-05
3.01871e-05
3.40305e-05
3.83554e-05
3.65069e-05
3.29509e-05
2.97138e-05
2.69578e-05
2.48579e-05
2.35625e-05
2.29814e-05
2.28291e-05
2.28919e-05
2.30454e-05
2.31957e-05
2.33056e-05
2.33668e-05
2.33924e-05
2.33917e-05
2.3392e-05
2.34257e-05
2.35394e-05
2.38294e-05
2.4516e-05
2.58392e-05
2.78752e-05
3.0675e-05
3.43141e-05
3.86133e-05
3.39431e-05
3.14843e-05
2.91004e-05
2.7025e-05
2.54028e-05
2.44417e-05
2.40957e-05
2.41116e-05
2.42434e-05
2.44184e-05
2.45889e-05
2.4727e-05
2.48316e-05
2.4906e-05
2.49617e-05
2.50126e-05
2.50895e-05
2.52287e-05
2.54996e-05
2.60555e-05
2.71098e-05
2.87418e-05
3.09999e-05
3.39952e-05
3.75596e-05
3.12008e-05
3.00327e-05
2.8552e-05
2.71394e-05
2.6058e-05
2.54495e-05
2.52538e-05
2.53013e-05
2.54436e-05
2.55972e-05
2.5741e-05
2.58758e-05
2.59976e-05
2.61093e-05
2.62148e-05
2.63265e-05
2.64593e-05
2.66423e-05
2.69175e-05
2.73925e-05
2.82304e-05
2.95254e-05
3.13191e-05
3.37142e-05
3.65861e-05
2.95445e-05
2.90451e-05
2.82203e-05
2.73537e-05
2.6686e-05
2.63311e-05
2.62306e-05
2.62727e-05
2.63736e-05
2.64897e-05
2.66077e-05
2.67165e-05
2.68357e-05
2.69649e-05
2.71105e-05
2.72734e-05
2.74649e-05
2.76931e-05
2.7985e-05
2.84192e-05
2.9117e-05
3.01782e-05
3.16458e-05
3.36249e-05
3.60346e-05
2.92016e-05
2.87195e-05
2.81256e-05
2.75609e-05
2.71565e-05
2.69746e-05
2.69499e-05
2.69963e-05
2.70639e-05
2.71347e-05
2.7209e-05
2.72914e-05
2.73843e-05
2.75125e-05
2.76761e-05
2.78815e-05
2.81202e-05
2.83937e-05
2.87118e-05
2.91409e-05
2.97724e-05
3.07044e-05
3.19976e-05
3.37973e-05
3.61099e-05
2.871e-05
2.84327e-05
2.80691e-05
2.77215e-05
2.74843e-05
2.74086e-05
2.74345e-05
2.7492e-05
2.75464e-05
2.75864e-05
2.7618e-05
2.76614e-05
2.77306e-05
2.78453e-05
2.80123e-05
2.8226e-05
2.84946e-05
2.87993e-05
2.91459e-05
2.95801e-05
3.01737e-05
3.10084e-05
3.2132e-05
3.36338e-05
3.54634e-05
2.83146e-05
2.8236e-05
2.80451e-05
2.7832e-05
2.76795e-05
2.76628e-05
2.77225e-05
2.77953e-05
2.78476e-05
2.78737e-05
2.78816e-05
2.78905e-05
2.79278e-05
2.80156e-05
2.81682e-05
2.83905e-05
2.86692e-05
2.89918e-05
2.93563e-05
2.97945e-05
3.03682e-05
3.114e-05
3.21578e-05
3.35022e-05
3.51455e-05
2.85038e-05
2.82294e-05
2.79972e-05
2.78081e-05
2.76931e-05
2.77037e-05
2.77916e-05
2.78921e-05
2.79661e-05
2.80015e-05
2.80052e-05
2.79969e-05
2.80123e-05
2.80715e-05
2.82066e-05
2.8416e-05
2.86953e-05
2.90238e-05
2.93966e-05
2.98367e-05
3.03992e-05
3.11442e-05
3.21282e-05
3.34432e-05
3.51179e-05
2.74874e-05
2.74375e-05
2.74392e-05
2.73967e-05
2.73685e-05
2.74091e-05
2.75594e-05
2.77415e-05
2.78825e-05
2.7966e-05
2.79965e-05
2.79944e-05
2.79985e-05
2.80434e-05
2.81513e-05
2.83425e-05
2.86081e-05
2.89345e-05
2.93071e-05
2.97447e-05
3.02954e-05
3.09974e-05
3.18894e-05
3.30025e-05
3.42548e-05
2.52103e-05
2.56803e-05
2.61136e-05
2.64405e-05
2.66887e-05
2.68984e-05
2.70984e-05
2.73347e-05
2.7591e-05
2.77689e-05
2.78634e-05
2.78948e-05
2.791e-05
2.7948e-05
2.80396e-05
2.8206e-05
2.84544e-05
2.87651e-05
2.91249e-05
2.95496e-05
3.00866e-05
3.07773e-05
3.16769e-05
3.28513e-05
3.42914e-05
2.27141e-05
2.36071e-05
2.43342e-05
2.49541e-05
2.54798e-05
2.59199e-05
2.63386e-05
2.67509e-05
2.71089e-05
2.74211e-05
2.76224e-05
2.77171e-05
2.77628e-05
2.78095e-05
2.78926e-05
2.804e-05
2.82615e-05
2.85492e-05
2.88885e-05
2.929e-05
2.98004e-05
3.04666e-05
3.13521e-05
3.25466e-05
3.40925e-05
2.08885e-05
2.19646e-05
2.28791e-05
2.36806e-05
2.43412e-05
2.4921e-05
2.54671e-05
2.60052e-05
2.65326e-05
2.6965e-05
2.73097e-05
2.7488e-05
2.75809e-05
2.7644e-05
2.77263e-05
2.78547e-05
2.80521e-05
2.83132e-05
2.86267e-05
2.89936e-05
2.94557e-05
3.00664e-05
3.08851e-05
3.19864e-05
3.33298e-05
1.97984e-05
2.10754e-05
2.21237e-05
2.29927e-05
2.36623e-05
2.42542e-05
2.48401e-05
2.54304e-05
2.60198e-05
2.65469e-05
2.69778e-05
2.72446e-05
2.73849e-05
2.74706e-05
2.75528e-05
2.76693e-05
2.78435e-05
2.808e-05
2.83658e-05
2.86936e-05
2.90962e-05
2.96346e-05
3.03697e-05
3.13797e-05
3.26643e-05
1.95062e-05
2.09203e-05
2.20475e-05
2.29268e-05
2.35638e-05
2.40798e-05
2.45868e-05
2.51123e-05
2.56721e-05
2.62187e-05
2.66874e-05
2.70182e-05
2.71934e-05
2.72936e-05
2.73791e-05
2.74876e-05
2.76452e-05
2.78567e-05
2.81187e-05
2.84099e-05
2.8747e-05
2.91938e-05
2.9812e-05
3.06756e-05
3.1808e-05
1.97134e-05
2.12237e-05
2.23703e-05
2.3205e-05
2.37518e-05
2.41438e-05
2.45224e-05
2.49706e-05
2.54669e-05
2.59822e-05
2.64524e-05
2.68123e-05
2.70027e-05
2.71133e-05
2.71997e-05
2.7307e-05
2.74523e-05
2.76474e-05
2.78915e-05
2.81565e-05
2.84411e-05
2.8805e-05
2.93229e-05
3.00716e-05
3.10471e-05
2.0306e-05
2.18213e-05
2.29126e-05
2.36681e-05
2.41184e-05
2.43842e-05
2.4629e-05
2.49443e-05
2.53535e-05
2.58037e-05
2.62346e-05
2.65947e-05
2.6797e-05
2.69151e-05
2.70091e-05
2.71168e-05
2.72623e-05
2.74511e-05
2.76787e-05
2.7924e-05
2.81693e-05
2.84545e-05
2.88535e-05
2.94665e-05
3.02822e-05
2.12064e-05
2.25665e-05
2.35007e-05
2.41123e-05
2.44469e-05
2.46178e-05
2.47692e-05
2.49773e-05
2.52598e-05
2.56117e-05
2.59827e-05
2.63369e-05
2.65586e-05
2.66942e-05
2.67978e-05
2.69148e-05
2.70644e-05
2.72534e-05
2.7475e-05
2.77073e-05
2.79267e-05
2.81422e-05
2.84453e-05
2.89729e-05
2.97279e-05
2.22355e-05
2.32653e-05
2.39766e-05
2.44225e-05
2.46613e-05
2.47633e-05
2.4851e-05
2.4997e-05
2.51945e-05
2.54545e-05
2.57546e-05
2.60527e-05
2.62981e-05
2.6444e-05
2.65615e-05
2.66885e-05
2.68505e-05
2.70427e-05
2.72707e-05
2.74969e-05
2.76989e-05
2.78609e-05
2.8058e-05
2.84607e-05
2.91309e-05
2.28006e-05
2.36021e-05
2.41737e-05
2.45333e-05
2.47109e-05
2.47905e-05
2.48732e-05
2.49869e-05
2.51407e-05
2.53214e-05
2.55284e-05
2.57648e-05
2.59871e-05
2.6156e-05
2.62879e-05
2.64337e-05
2.66125e-05
2.68166e-05
2.70579e-05
2.72854e-05
2.74747e-05
2.76011e-05
2.76951e-05
2.79458e-05
2.84345e-05
2.30156e-05
2.37088e-05
2.41891e-05
2.44833e-05
2.46475e-05
2.47558e-05
2.4844e-05
2.49367e-05
2.50505e-05
2.51819e-05
2.53159e-05
2.54621e-05
2.5642e-05
2.581e-05
2.59747e-05
2.61457e-05
2.63504e-05
2.65703e-05
2.68333e-05
2.70679e-05
2.7248e-05
2.73436e-05
2.73549e-05
2.7458e-05
2.77502e-05
2.31798e-05
2.37125e-05
2.41057e-05
2.43616e-05
2.45305e-05
2.46475e-05
2.47431e-05
2.48335e-05
2.49256e-05
2.50165e-05
2.50962e-05
2.51823e-05
2.52822e-05
2.54244e-05
2.56114e-05
2.5823e-05
2.60606e-05
2.63027e-05
2.65938e-05
2.68375e-05
2.70095e-05
2.70752e-05
2.70233e-05
2.70078e-05
2.7132e-05
2.30964e-05
2.35646e-05
2.39637e-05
2.42409e-05
2.44142e-05
2.45264e-05
2.4619e-05
2.46983e-05
2.47668e-05
2.48204e-05
2.4861e-05
2.48989e-05
2.49468e-05
2.50441e-05
2.52322e-05
2.54887e-05
2.57625e-05
2.60313e-05
2.63439e-05
2.65898e-05
2.67499e-05
2.67855e-05
2.66809e-05
2.65728e-05
2.65542e-05
2.27324e-05
2.33797e-05
2.38669e-05
2.41716e-05
2.43298e-05
2.44269e-05
2.44959e-05
2.45453e-05
2.4577e-05
2.45906e-05
2.45937e-05
2.45972e-05
2.46257e-05
2.47175e-05
2.4892e-05
2.51633e-05
2.54632e-05
2.57761e-05
2.60849e-05
2.63153e-05
2.64475e-05
2.64523e-05
2.63345e-05
2.62424e-05
2.62518e-05
2.25863e-05
2.33986e-05
2.39315e-05
2.42117e-05
2.43302e-05
2.4374e-05
2.43867e-05
2.43817e-05
2.43613e-05
2.43283e-05
2.42964e-05
2.42847e-05
2.43268e-05
2.44234e-05
2.46065e-05
2.48843e-05
2.52151e-05
2.55467e-05
2.58163e-05
2.59993e-05
2.60662e-05
2.59949e-05
2.58203e-05
2.56669e-05
2.55727e-05
2.27723e-05
2.36634e-05
2.41626e-05
2.43631e-05
2.43968e-05
2.43515e-05
2.42829e-05
2.42045e-05
2.41196e-05
2.40428e-05
2.39876e-05
2.39839e-05
2.40333e-05
2.41621e-05
2.43794e-05
2.4674e-05
2.50058e-05
2.52992e-05
2.55122e-05
2.56151e-05
2.55761e-05
2.54016e-05
2.51488e-05
2.48829e-05
2.4614e-05
2.33263e-05
2.42006e-05
2.45557e-05
2.4596e-05
2.44763e-05
2.43156e-05
2.41523e-05
2.39941e-05
2.38523e-05
2.37367e-05
2.36697e-05
2.36601e-05
2.37389e-05
2.39174e-05
2.41707e-05
2.44751e-05
2.47764e-05
2.50138e-05
2.51436e-05
2.5133e-05
2.4963e-05
2.47101e-05
2.43995e-05
2.40277e-05
2.35686e-05
2.43512e-05
2.49629e-05
2.50233e-05
2.48247e-05
2.45233e-05
2.42329e-05
2.39679e-05
2.37376e-05
2.35401e-05
2.33875e-05
2.32962e-05
2.32989e-05
2.34191e-05
2.36331e-05
2.3914e-05
2.42218e-05
2.44985e-05
2.46709e-05
2.46934e-05
2.454e-05
2.42923e-05
2.39282e-05
2.34978e-05
2.29707e-05
2.2322e-05
2.56809e-05
2.57666e-05
2.54083e-05
2.49425e-05
2.44706e-05
2.40496e-05
2.37007e-05
2.34044e-05
2.31494e-05
2.29531e-05
2.28561e-05
2.28878e-05
2.30302e-05
2.32723e-05
2.35728e-05
2.38751e-05
2.41036e-05
2.41869e-05
2.4091e-05
2.38985e-05
2.35571e-05
2.31326e-05
2.26019e-05
2.19708e-05
2.11464e-05
2.69599e-05
2.6304e-05
2.55078e-05
2.48043e-05
2.42018e-05
2.37165e-05
2.33205e-05
2.29682e-05
2.26673e-05
2.24532e-05
2.23663e-05
2.24037e-05
2.25668e-05
2.28209e-05
2.31161e-05
2.33781e-05
2.35427e-05
2.35593e-05
2.34109e-05
2.3135e-05
2.27563e-05
2.23007e-05
2.16651e-05
2.0898e-05
1.99454e-05
2.72356e-05
2.61527e-05
2.51539e-05
2.4359e-05
2.37307e-05
2.32477e-05
2.283e-05
2.24508e-05
2.21371e-05
2.19247e-05
2.18395e-05
2.18739e-05
2.20188e-05
2.22466e-05
2.25067e-05
2.27403e-05
2.28484e-05
2.27649e-05
2.25746e-05
2.22932e-05
2.18995e-05
2.13754e-05
2.06408e-05
1.97568e-05
1.86756e-05
2.66409e-05
2.54478e-05
2.44343e-05
2.36732e-05
2.31031e-05
2.2673e-05
2.22786e-05
2.19214e-05
2.16272e-05
2.14233e-05
2.13143e-05
2.12978e-05
2.1386e-05
2.15621e-05
2.17656e-05
2.18905e-05
2.19006e-05
2.18114e-05
2.16118e-05
2.13081e-05
2.0906e-05
2.03712e-05
1.96359e-05
1.87446e-05
1.76487e-05
2.56481e-05
2.43847e-05
2.34406e-05
2.27956e-05
2.23569e-05
2.20406e-05
2.17416e-05
2.14577e-05
2.12082e-05
2.10053e-05
2.08386e-05
2.07187e-05
2.06848e-05
2.07256e-05
2.07925e-05
2.08298e-05
2.08128e-05
2.07228e-05
2.05529e-05
2.02822e-05
1.99024e-05
1.94283e-05
1.88109e-05
1.8036e-05
1.70441e-05
2.40753e-05
2.28976e-05
2.21786e-05
2.17654e-05
2.15406e-05
2.14191e-05
2.12874e-05
2.11272e-05
2.09449e-05
2.07551e-05
2.05253e-05
2.02987e-05
2.01261e-05
2.00254e-05
1.99647e-05
1.9921e-05
1.98639e-05
1.97515e-05
1.95699e-05
1.93163e-05
1.899e-05
1.8606e-05
1.81554e-05
1.75931e-05
1.69081e-05
2.17319e-05
2.10503e-05
2.07715e-05
2.07106e-05
2.07668e-05
2.08858e-05
2.09549e-05
2.09436e-05
2.08407e-05
2.06881e-05
2.04466e-05
2.01627e-05
1.9893e-05
1.96592e-05
1.94771e-05
1.93383e-05
1.91908e-05
1.90257e-05
1.88287e-05
1.85961e-05
1.8329e-05
1.80387e-05
1.77371e-05
1.73574e-05
1.67801e-05
1.92124e-05
1.93947e-05
1.9667e-05
1.99524e-05
2.02406e-05
2.05358e-05
2.07717e-05
2.08919e-05
2.08874e-05
2.07845e-05
2.05735e-05
2.02879e-05
1.99707e-05
1.96563e-05
1.9375e-05
1.91374e-05
1.89238e-05
1.87181e-05
1.85074e-05
1.82861e-05
1.80587e-05
1.78369e-05
1.7641e-05
1.74073e-05
1.69962e-05
1.79587e-05
1.87223e-05
1.93257e-05
1.97723e-05
2.0119e-05
2.0428e-05
2.07339e-05
2.09524e-05
2.10499e-05
2.10079e-05
2.08643e-05
2.06194e-05
2.03053e-05
1.99669e-05
1.96215e-05
1.93151e-05
1.90452e-05
1.88042e-05
1.85794e-05
1.83588e-05
1.81438e-05
1.79343e-05
1.77438e-05
1.75696e-05
1.73311e-05
1.80749e-05
1.89413e-05
1.96094e-05
2.00649e-05
2.03705e-05
2.06276e-05
2.08974e-05
2.11452e-05
2.12923e-05
2.13286e-05
2.12466e-05
2.10699e-05
2.07999e-05
2.04805e-05
2.01593e-05
1.9826e-05
1.95403e-05
1.92798e-05
1.90406e-05
1.8804e-05
1.85668e-05
1.83156e-05
1.80395e-05
1.77377e-05
1.73596e-05
1.85544e-05
1.96175e-05
2.03565e-05
2.08007e-05
2.10374e-05
2.11732e-05
2.12971e-05
2.14714e-05
2.16183e-05
2.16905e-05
2.16862e-05
2.15913e-05
2.14175e-05
2.11643e-05
2.08929e-05
2.06309e-05
2.03573e-05
2.01112e-05
1.98698e-05
1.96062e-05
1.93118e-05
1.89606e-05
1.85339e-05
1.79986e-05
1.73704e-05
1.95345e-05
2.06707e-05
2.14195e-05
2.1816e-05
2.19478e-05
2.19472e-05
2.19249e-05
2.19581e-05
2.20324e-05
2.20941e-05
2.21269e-05
2.21254e-05
2.20554e-05
2.19267e-05
2.17393e-05
2.15425e-05
2.13317e-05
2.11068e-05
2.08704e-05
2.05916e-05
2.02515e-05
1.98123e-05
1.92422e-05
1.85158e-05
1.76815e-05
2.0721e-05
2.19776e-05
2.27101e-05
2.30285e-05
2.30567e-05
2.29206e-05
2.27404e-05
2.26127e-05
2.25721e-05
2.25655e-05
2.25908e-05
2.26355e-05
2.26749e-05
2.26751e-05
2.26101e-05
2.25093e-05
2.23797e-05
2.2203e-05
2.19818e-05
2.1706e-05
2.13427e-05
2.0843e-05
2.0137e-05
1.91855e-05
1.8038e-05
2.24693e-05
2.36324e-05
2.41882e-05
2.43442e-05
2.42469e-05
2.39962e-05
2.36963e-05
2.34199e-05
2.32314e-05
2.31463e-05
2.31242e-05
2.31685e-05
2.32571e-05
2.33558e-05
2.34375e-05
2.34608e-05
2.34288e-05
2.33344e-05
2.31622e-05
2.29076e-05
2.25503e-05
2.20251e-05
2.12618e-05
2.01688e-05
1.86758e-05
2.47523e-05
2.54698e-05
2.56989e-05
2.5647e-05
2.54146e-05
2.50784e-05
2.46978e-05
2.4334e-05
2.4045e-05
2.38529e-05
2.37762e-05
2.37977e-05
2.38861e-05
2.40299e-05
2.41935e-05
2.43433e-05
2.44314e-05
2.4435e-05
2.43411e-05
2.41385e-05
2.38232e-05
2.33485e-05
2.26468e-05
2.16441e-05
2.0258e-05
2.68535e-05
2.70233e-05
2.6978e-05
2.67915e-05
2.64832e-05
2.61013e-05
2.57005e-05
2.53191e-05
2.49826e-05
2.47413e-05
2.45978e-05
2.45654e-05
2.46439e-05
2.47894e-05
2.49789e-05
2.51903e-05
2.53748e-05
2.54824e-05
2.54755e-05
2.53463e-05
2.51028e-05
2.47265e-05
2.41247e-05
2.32112e-05
2.19087e-05
2.79279e-05
2.80132e-05
2.79535e-05
2.77721e-05
2.74666e-05
2.70908e-05
2.67004e-05
2.6335e-05
2.60225e-05
2.57731e-05
2.56135e-05
2.55475e-05
2.5574e-05
2.56932e-05
2.58788e-05
2.61018e-05
2.63333e-05
2.65108e-05
2.65792e-05
2.65223e-05
2.63645e-05
2.61067e-05
2.56902e-05
2.50296e-05
2.40047e-05
2.87622e-05
2.89054e-05
2.88928e-05
2.87508e-05
2.84684e-05
2.81159e-05
2.77535e-05
2.74199e-05
2.71379e-05
2.6923e-05
2.67788e-05
2.671e-05
2.67215e-05
2.68081e-05
2.69647e-05
2.71709e-05
2.73935e-05
2.75906e-05
2.76966e-05
2.76885e-05
2.75924e-05
2.7425e-05
2.71607e-05
2.67758e-05
2.62282e-05
2.97678e-05
2.99439e-05
2.9963e-05
2.98474e-05
2.95816e-05
2.92517e-05
2.89193e-05
2.86227e-05
2.83809e-05
2.82047e-05
2.80983e-05
2.80596e-05
2.80758e-05
2.81448e-05
2.82723e-05
2.8444e-05
2.86346e-05
2.8801e-05
2.8897e-05
2.89016e-05
2.88344e-05
2.87117e-05
2.85144e-05
2.8227e-05
2.77994e-05
3.10159e-05
3.12172e-05
3.12519e-05
3.11435e-05
3.0887e-05
3.05759e-05
3.02713e-05
3.0012e-05
2.98145e-05
2.96849e-05
2.96225e-05
2.96205e-05
2.9671e-05
2.97609e-05
2.98712e-05
2.99804e-05
3.0107e-05
3.02106e-05
3.02584e-05
3.02433e-05
3.0179e-05
3.00775e-05
2.9923e-05
2.97179e-05
2.94681e-05
3.26866e-05
3.28295e-05
3.28366e-05
3.27133e-05
3.24647e-05
3.21764e-05
3.19034e-05
3.16798e-05
3.15275e-05
3.14476e-05
3.14333e-05
3.14723e-05
3.15506e-05
3.16492e-05
3.17485e-05
3.18311e-05
3.18697e-05
3.18871e-05
3.18676e-05
3.18048e-05
3.17135e-05
3.16031e-05
3.14587e-05
3.12932e-05
3.11698e-05
3.47869e-05
3.48094e-05
3.47662e-05
3.46251e-05
3.43928e-05
3.41379e-05
3.39068e-05
3.37308e-05
3.36268e-05
3.35977e-05
3.36316e-05
3.371e-05
3.38107e-05
3.39086e-05
3.39812e-05
3.40122e-05
3.39892e-05
3.39125e-05
3.38051e-05
3.36708e-05
3.35178e-05
3.33562e-05
3.31724e-05
3.29893e-05
3.29076e-05
3.72688e-05
3.71747e-05
3.70953e-05
3.69569e-05
3.67579e-05
3.65469e-05
3.63642e-05
3.62477e-05
3.62025e-05
3.62263e-05
3.63042e-05
3.64134e-05
3.65257e-05
3.66128e-05
3.66465e-05
3.66113e-05
3.65107e-05
3.63485e-05
3.61454e-05
3.59141e-05
3.56657e-05
3.54113e-05
3.51405e-05
3.48834e-05
3.47384e-05
4.01789e-05
4.00077e-05
3.99132e-05
3.97964e-05
3.96436e-05
3.94862e-05
3.93626e-05
3.93063e-05
3.9319e-05
3.93937e-05
3.95104e-05
3.96409e-05
3.97514e-05
3.98106e-05
3.97991e-05
3.97048e-05
3.95273e-05
3.92747e-05
3.89654e-05
3.86137e-05
3.82394e-05
3.78445e-05
3.74408e-05
3.70658e-05
3.68325e-05
4.37375e-05
4.34654e-05
4.33232e-05
4.32049e-05
4.30823e-05
4.2973e-05
4.29065e-05
4.29065e-05
4.29755e-05
4.30927e-05
4.32403e-05
4.33899e-05
4.35067e-05
4.35555e-05
4.35146e-05
4.33687e-05
4.31147e-05
4.27587e-05
4.23179e-05
4.18111e-05
4.12579e-05
4.06973e-05
4.01088e-05
3.95558e-05
3.91416e-05
4.80612e-05
4.76209e-05
4.73701e-05
4.72156e-05
4.70984e-05
4.70196e-05
4.69966e-05
4.70447e-05
4.71632e-05
4.73321e-05
4.75258e-05
4.77079e-05
4.78376e-05
4.78844e-05
4.78198e-05
4.7625e-05
4.72921e-05
4.68232e-05
4.6236e-05
4.55566e-05
4.48089e-05
4.40243e-05
4.32205e-05
4.24063e-05
4.17188e-05
5.30974e-05
5.24409e-05
5.20168e-05
5.17906e-05
5.1663e-05
5.1609e-05
5.16277e-05
5.17199e-05
5.18778e-05
5.2098e-05
5.23399e-05
5.25599e-05
5.27153e-05
5.27673e-05
5.26796e-05
5.24333e-05
5.20178e-05
5.14325e-05
5.07007e-05
4.98547e-05
4.8924e-05
4.79252e-05
4.68865e-05
4.58108e-05
4.47902e-05
5.86182e-05
5.7693e-05
5.7085e-05
5.67786e-05
5.66376e-05
5.66119e-05
5.66846e-05
5.68351e-05
5.70561e-05
5.73275e-05
5.76089e-05
5.78587e-05
5.80298e-05
5.80682e-05
5.79425e-05
5.76344e-05
5.71356e-05
5.6445e-05
5.55887e-05
5.46002e-05
5.35092e-05
5.23716e-05
5.11615e-05
4.99194e-05
4.86904e-05
6.44997e-05
6.3176e-05
6.22913e-05
6.18465e-05
6.16824e-05
6.17112e-05
6.1877e-05
6.2138e-05
6.24604e-05
6.27993e-05
6.31181e-05
6.33727e-05
6.35143e-05
6.35e-05
6.33057e-05
6.29178e-05
6.23321e-05
6.15524e-05
6.06063e-05
5.9536e-05
5.83839e-05
5.7195e-05
5.60072e-05
5.48016e-05
5.35957e-05
7.01432e-05
6.81787e-05
6.68649e-05
6.62389e-05
6.6092e-05
6.62557e-05
6.66058e-05
6.70592e-05
6.75387e-05
6.7987e-05
6.83598e-05
6.86124e-05
6.87043e-05
6.86127e-05
6.83194e-05
6.78202e-05
6.71195e-05
6.62295e-05
6.51835e-05
6.40391e-05
6.28699e-05
6.17581e-05
6.08039e-05
6.00624e-05
5.95466e-05
7.48764e-05
7.07968e-05
6.87907e-05
6.82396e-05
6.84998e-05
6.91701e-05
7.00086e-05
7.08676e-05
7.16547e-05
7.23139e-05
7.28011e-05
7.30837e-05
7.31399e-05
7.29583e-05
7.25326e-05
7.18654e-05
7.0967e-05
6.98551e-05
6.85657e-05
6.7168e-05
6.57745e-05
6.45655e-05
6.38002e-05
6.3876e-05
6.52411e-05
6.97251e-05
6.45266e-05
6.44326e-05
6.60453e-05
6.81017e-05
7.01554e-05
7.2027e-05
7.36372e-05
7.49593e-05
7.59837e-05
7.66975e-05
7.7096e-05
7.71766e-05
7.69371e-05
7.63772e-05
7.54961e-05
7.42934e-05
7.27681e-05
7.09269e-05
6.88007e-05
6.64601e-05
6.40568e-05
6.19461e-05
6.1096e-05
6.42265e-05
3.39669e-05
4.64061e-05
5.60917e-05
6.29915e-05
6.80568e-05
7.19389e-05
7.49772e-05
7.73616e-05
7.92152e-05
8.06195e-05
8.15914e-05
8.21503e-05
8.2309e-05
8.20682e-05
8.14254e-05
8.03707e-05
7.88805e-05
7.69182e-05
7.44317e-05
7.1355e-05
6.75433e-05
6.27032e-05
5.62107e-05
4.70761e-05
3.49224e-05
4.0285e-05
5.06792e-05
5.94912e-05
6.64734e-05
7.20095e-05
7.64285e-05
7.99611e-05
8.27681e-05
8.49656e-05
8.6642e-05
8.78292e-05
8.85524e-05
8.88175e-05
8.86178e-05
8.79414e-05
8.67676e-05
8.50671e-05
8.28024e-05
7.99283e-05
7.63869e-05
7.20822e-05
6.6825e-05
6.02647e-05
5.19134e-05
4.19754e-05
0.000106414
8.26598e-05
7.77342e-05
7.78788e-05
8.04641e-05
8.367e-05
8.67316e-05
8.93999e-05
9.16215e-05
9.34033e-05
9.47512e-05
9.56513e-05
9.60798e-05
9.60064e-05
9.54016e-05
9.42363e-05
9.24827e-05
9.01361e-05
8.72592e-05
8.40908e-05
8.1207e-05
7.96407e-05
8.13708e-05
8.80889e-05
0.000115694
0.000569032
0.00013943
0.000104605
9.1099e-05
8.82613e-05
9.00869e-05
9.31097e-05
9.61184e-05
9.88481e-05
0.000101191
0.000103163
0.000104663
0.000105574
0.000105787
0.000105212
0.00010376
0.000101349
9.79315e-05
9.36545e-05
8.96599e-05
9.08201e-05
0.000100724
0.000129781
0.000186402
0.000650885
0.000393969
0.000207486
0.000159645
0.000115375
9.55747e-05
8.86539e-05
8.6473e-05
8.69475e-05
8.81632e-05
9.0595e-05
9.29962e-05
9.52206e-05
9.69408e-05
9.78795e-05
9.78462e-05
9.67898e-05
9.48865e-05
9.26279e-05
9.25535e-05
9.93584e-05
0.000120947
0.000164562
0.000242569
0.000327239
0.000427815
0.000252445
0.000154135
0.000120825
0.00010328
9.20811e-05
8.65956e-05
8.46019e-05
8.54357e-05
8.66202e-05
8.87496e-05
9.05311e-05
9.22285e-05
9.36385e-05
9.45084e-05
9.46673e-05
9.40726e-05
9.30461e-05
9.18465e-05
9.26643e-05
9.84436e-05
0.000115006
0.000143414
0.000188207
0.000295368
0.000468572
0.000414507
0.000155229
0.000102524
9.66103e-05
9.36549e-05
9.16858e-05
9.18146e-05
9.26023e-05
9.33085e-05
9.42917e-05
9.55217e-05
9.69097e-05
9.8159e-05
9.90052e-05
9.9272e-05
9.89254e-05
9.8248e-05
9.73042e-05
9.78621e-05
0.000100855
0.000109564
0.000123811
0.00015571
0.000308059
0.000772692
0.000310053
0.000113364
7.28651e-05
6.90436e-05
6.93131e-05
7.19166e-05
7.76091e-05
8.34339e-05
8.78399e-05
9.03862e-05
9.1642e-05
9.20693e-05
9.19835e-05
9.16346e-05
9.11696e-05
9.06772e-05
9.01361e-05
8.95479e-05
8.93295e-05
8.93752e-05
9.08173e-05
9.52566e-05
0.000117893
0.000225792
0.000509245
)
;

boundaryField
{
    inlet
    {
        type            calculated;
        value           nonuniform List<scalar> 
25
(
2.01932e-08
2.01934e-08
2.01928e-08
2.01919e-08
2.01908e-08
2.01895e-08
2.01883e-08
2.01874e-08
2.01868e-08
2.01864e-08
2.01865e-08
2.01869e-08
2.01875e-08
2.01881e-08
2.01888e-08
2.01893e-08
2.01895e-08
2.01894e-08
2.01894e-08
2.01893e-08
2.01892e-08
2.01893e-08
2.01894e-08
2.01895e-08
2.01895e-08
)
;
    }
    outlet
    {
        type            calculated;
        value           nonuniform List<scalar> 
25
(
0.000310069
0.000113387
7.28882e-05
6.90739e-05
6.93474e-05
7.19504e-05
7.76372e-05
8.34563e-05
8.78599e-05
9.04065e-05
9.1664e-05
9.20943e-05
9.2012e-05
9.16662e-05
9.12036e-05
9.07128e-05
9.01729e-05
8.95857e-05
8.93674e-05
8.94118e-05
9.085e-05
9.52809e-05
0.00011791
0.000225811
0.000509268
)
;
    }
    walls
    {
        type            nutkWallFunction;
        Cmu             0.09;
        kappa           0.41;
        E               9.8;
        value           uniform 1e-08;
    }
    defaultFaces
    {
        type            empty;
    }
}


// ************************************************************************* //
