/*--------------------------------*- C++ -*----------------------------------*\
| =========                 |                                                 |
| \\      /  F ield         | OpenFOAM: The Open Source CFD Toolbox           |
|  \\    /   O peration     | Version:  2.3.0                                 |
|   \\  /    A nd           | Web:      www.OpenFOAM.org                      |
|    \\/     M anipulation  |                                                 |
\*---------------------------------------------------------------------------*/
FoamFile
{
    version     2.0;
    format      ascii;
    class       volScalarField;
    location    "0.6";
    object      alpha.water;
}
// * * * * * * * * * * * * * * * * * * * * * * * * * * * * * * * * * * * * * //

dimensions      [0 0 0 0 0 0 0];

internalField   nonuniform List<scalar> 
2268
(
1
1
1
1
1
1
1
1
1
1
1
1
1
1
1
1
1
1
1
0.99366
0.950752
0.950936
0.988962
1
1
1
1
1
1
1
1
1
1
1
1
1
0.999999
1
1
1
1
1
0.999601
0.973046
0.95256
0.996562
1
1
1
1
1
1
1
1
1
1
1
1
1
1
1
1
1
1
1
1
0.999885
0.952745
0.99656
1
1
1
1
1
1
1
1
1
1
1
1
1
1
1
1
1
1
1
1
1
0.989722
0.998556
1
1
1
1
1
1
1
1
1
1
1
1
1
1
1
1
1
1
1
1
1
1
0.999629
1
1
1
1
1
1
1
1
1
1
1
1
1
1
1
1
1
1
1
1
1
1
0.999484
1
1
0.999999
0.999999
0.999999
1
1
1
1
1
1
1
1
1
1
1
1
1
1
1
1
0.999999
0.999446
0.998718
0.996601
0.996346
0.998701
0.999971
0.99998
0.999988
0.999994
0.999997
0.999999
1
1
1
1
1
1
1
1
1
1
1
1
0.999446
2.19148e-09
7.87683e-10
7.75186e-10
-3.12678e-09
8.4735e-06
0.000326534
0.00223769
0.0227216
0.291281
0.599022
0.730273
0.801558
0.879244
0.943348
0.968671
0.993993
0.960792
0.895507
0.877429
3.31234e-09
8.11104e-10
7.76997e-10
2.78068e-06
0.00012878
0.00879434
0.048733
0.0510389
0.0334201
0.0287723
0.0446465
0.0921427
0.296799
0.701753
0.953969
0.997503
0.999087
0.999087
0.992801
4.21273e-08
7.70105e-09
9.15838e-08
9.52768e-06
0.0037508
0.0173231
0.0172116
0.00343137
0.000428829
2.79552e-05
0.000124192
0.000636625
0.00358735
0.135439
0.677765
0.998349
0.999103
0.999085
0.999085
8.34352e-07
1.94665e-07
5.91856e-06
1.6925e-05
0.00705009
0.0109189
0.000462497
8.21261e-06
3.34247e-06
5.8985e-06
3.09895e-05
0.000186209
0.000824687
0.0115806
0.476637
0.999103
0.999085
0.999085
0.999078
8.80712e-06
3.87964e-06
1.46009e-05
0.000342201
0.00394157
0.00188072
1.05354e-05
3.65072e-06
2.63863e-06
2.93144e-06
1.1631e-05
4.79652e-05
0.000246619
0.00211887
0.354318
0.999089
0.999085
0.9991
0.999045
0.000198277
0.00300909
0.000188621
0.000287224
0.000772117
3.40466e-05
6.12072e-06
2.83338e-06
2.45304e-06
1.8349e-06
1.59901e-06
9.56391e-06
7.4648e-05
0.000567938
0.1869
0.999079
0.999086
0.998681
0.998409
0.116338
0.0492398
0.000195609
7.98967e-05
9.83073e-05
6.53045e-05
1.0139e-05
3.06764e-06
2.30057e-06
1.61336e-06
1.63888e-07
1.00638e-06
1.61831e-05
0.000275396
0.311428
0.97625
0.999075
0.998411
0.924911
0.660548
0.0677453
2.83562e-05
2.35836e-05
3.02873e-05
4.78236e-05
2.00821e-05
2.67502e-06
1.23376e-06
1.58103e-06
1.09846e-07
1.113e-07
1.51135e-06
0.000271374
0.618995
0.990639
0.999045
0.998895
0.864956
0.521904
0.521939
0.533325
0.565898
0.616309
0.673021
0.737342
0.804016
0.86813
0.924755
0.968732
0.994626
1
1
1
1
1
1
1
1
1
1
0.999693
-4.72244e-10
-2.79809e-10
-1.40637e-10
-4.83576e-11
0.00429449
0.0221034
0.0487489
0.0874978
0.142801
0.22105
0.333823
0.495779
0.677771
0.836487
0.959891
1
1
1
1
1
1
1
1
-1.06155e-09
-1.2797e-09
-1.55652e-09
-1.6892e-09
-2.9895e-09
-9.26256e-09
-2.04267e-08
-3.14493e-08
-3.60903e-08
-3.13707e-08
4.30245e-13
9.7274e-05
0.0199396
0.0873659
0.214956
0.458259
0.834445
1
1
1
1
1
0.999999
-9.18233e-10
-1.32821e-09
-2.21392e-09
-2.60815e-09
-5.34617e-09
-1.77301e-08
-3.93856e-08
-6.40187e-08
-8.35325e-08
-9.18688e-08
-4.50238e-08
-2.87113e-12
1.52949e-07
4.56292e-07
9.2142e-07
0.00425362
0.0468543
0.169518
0.427696
0.856449
0.994781
0.997025
0.999997
-5.86717e-10
-8.92346e-10
-1.67315e-09
-2.15593e-09
-4.48132e-09
-1.46019e-08
-3.17555e-08
-5.16307e-08
-6.91403e-08
-8.04307e-08
-8.26595e-08
-4.39149e-08
-1.46917e-09
2.33693e-09
4.79393e-09
2.40022e-08
1.74222e-08
3.18181e-10
0.00248883
0.0400261
0.146221
0.383325
0.7726
-2.8494e-10
-4.18524e-10
-8.52051e-10
-1.17141e-09
-1.97066e-09
-4.99332e-09
-1.00334e-08
-1.60216e-08
-2.17108e-08
-2.61278e-08
-2.92993e-08
-2.98696e-08
-2.24634e-12
-1.0476e-12
7.26952e-12
-1.81513e-10
5.27888e-11
5.62482e-12
9.84747e-14
1.15486e-15
3.12222e-24
-1.8255e-10
0.0145676
-1.14513e-10
-1.53551e-10
-3.21484e-10
-4.65738e-10
-6.01244e-10
-7.28163e-10
-8.44089e-10
-9.47306e-10
-1.03671e-09
-1.11086e-09
-1.31149e-09
-1.98825e-09
-1.55335e-09
-4.17028e-10
1.95702e-13
3.21181e-13
-1.84984e-13
1.58263e-10
3.18897e-11
3.24908e-12
-1.24278e-13
-7.13397e-09
-5.68351e-09
-3.80617e-11
-4.60973e-11
-9.44068e-11
-1.43807e-10
-1.9356e-10
-2.41968e-10
-2.88026e-10
-3.31236e-10
-3.71307e-10
-4.07778e-10
-4.3967e-10
-4.74242e-10
-5.06054e-10
-5.00673e-10
-4.53569e-10
-3.58635e-10
-3.0084e-10
-3.19376e-10
-2.00159e-10
-8.61033e-11
-2.91956e-11
-1.02834e-11
-7.82724e-11
-1.05781e-11
-1.14342e-11
-2.25871e-11
-3.61519e-11
-5.03787e-11
-6.424e-11
-7.73032e-11
-8.94238e-11
-1.00518e-10
-1.1041e-10
-1.18791e-10
-1.25199e-10
-1.30073e-10
-1.3392e-10
-1.34102e-10
-1.27881e-10
-1.15615e-10
-9.91279e-11
-8.03178e-11
-5.67194e-11
-3.18539e-11
-1.26397e-11
-1.88864e-12
-2.55676e-12
-2.46392e-12
-4.64683e-12
-7.91042e-12
-1.14248e-11
-1.46779e-11
-1.74858e-11
-1.9806e-11
-2.16125e-11
-2.28169e-11
-2.32997e-11
-2.2952e-11
-2.1694e-11
-1.94845e-11
-1.63563e-11
-1.20695e-11
-6.23944e-12
1.26783e-12
1.02318e-11
1.95854e-11
2.90798e-11
3.70079e-11
4.39012e-11
-6.03141e-13
-5.2817e-13
-9.52526e-13
-1.71846e-12
-2.56887e-12
-3.24892e-12
-3.69056e-12
-3.88925e-12
-3.85065e-12
-3.53677e-12
-2.90791e-12
-1.97076e-12
-7.34311e-13
7.90475e-13
2.56705e-12
4.69127e-12
7.48853e-12
1.12595e-11
1.58859e-11
2.1068e-11
2.72216e-11
3.64212e-11
5.28322e-11
-1.58733e-13
-1.3304e-13
-2.33147e-13
-4.34456e-13
-6.3393e-13
-7.54365e-13
-7.71472e-13
-6.83041e-13
-5.04607e-13
-2.2428e-13
1.60689e-13
6.24853e-13
1.15467e-12
1.75668e-12
2.42144e-12
3.12865e-12
3.89289e-12
4.81084e-12
5.98883e-12
7.4004e-12
8.87653e-12
1.02314e-11
1.1357e-11
-4.5146e-14
-3.79937e-14
-6.57051e-14
-1.18253e-13
-1.60549e-13
-1.7015e-13
-1.43572e-13
-7.76265e-14
1.81332e-14
1.45337e-13
2.97358e-13
4.64902e-13
6.40734e-13
8.29229e-13
1.04385e-12
1.30004e-12
1.61018e-12
1.98023e-12
2.4192e-12
2.94357e-12
3.58215e-12
4.37746e-12
5.39086e-12
-1.2069e-14
-1.02374e-14
-1.7359e-14
-2.91624e-14
-3.5683e-14
-3.14586e-14
-1.58372e-14
1.18965e-14
4.90652e-14
9.63466e-14
1.49924e-13
2.08833e-13
2.73007e-13
3.45879e-13
4.33941e-13
5.44538e-13
6.85802e-13
8.68339e-13
1.10727e-12
1.42504e-12
1.85181e-12
2.42405e-12
3.20918e-12
-2.7817e-15
-2.338e-15
-3.82922e-15
-5.90866e-15
-6.25009e-15
-3.65272e-15
2.24784e-15
1.19741e-14
2.46875e-14
4.05265e-14
6.06423e-14
8.30572e-14
1.07466e-13
1.35912e-13
1.71847e-13
2.19779e-13
2.86661e-13
3.84312e-13
5.32279e-13
7.61312e-13
1.10904e-12
1.61888e-12
2.40573e-12
-5.28562e-16
-4.32069e-16
-6.71729e-16
-9.23178e-16
-7.35901e-16
1.6379e-16
1.98363e-15
4.98357e-15
9.12879e-15
1.46863e-14
2.15171e-14
2.9365e-14
3.85238e-14
4.96301e-14
6.46601e-14
8.6865e-14
1.22964e-13
1.86143e-13
3.00641e-13
5.07179e-13
8.52093e-13
1.39477e-12
2.35242e-12
-7.7218e-17
-6.01314e-17
-8.59964e-17
-9.48355e-17
-1.04144e-17
2.37296e-16
7.33638e-16
1.58079e-15
2.84929e-15
4.59476e-15
6.79769e-15
9.42378e-15
1.26122e-14
1.69173e-14
2.33704e-14
3.43611e-14
5.59562e-14
1.01568e-13
1.99198e-13
3.99812e-13
7.59141e-13
1.36593e-12
2.60788e-12
-7.65344e-18
-5.46865e-18
-6.35824e-18
-1.63539e-18
2.1426e-17
8.11456e-17
2.04408e-16
4.24363e-16
7.73024e-16
1.27582e-15
1.94455e-15
2.79817e-15
3.91483e-15
5.51988e-15
8.22018e-15
1.3934e-14
2.76135e-14
6.20564e-14
1.47907e-13
3.45489e-13
7.22077e-13
1.40917e-12
3.02016e-12
-3.77956e-19
-1.97445e-19
9.49937e-20
1.62692e-18
6.71955e-18
1.97225e-17
4.76294e-17
9.98919e-17
1.87345e-16
3.20697e-16
5.09867e-16
7.70364e-16
1.14437e-15
1.76278e-15
3.0357e-15
6.22304e-15
1.50912e-14
4.14327e-14
1.16776e-13
3.08026e-13
6.98238e-13
1.46496e-12
3.45306e-12
2.07894e-21
1.50852e-20
9.08891e-20
3.99673e-19
1.37901e-18
3.93859e-18
9.66715e-18
2.09584e-17
4.09597e-17
7.33637e-17
1.22563e-16
1.96365e-16
3.17712e-16
5.67316e-16
1.22929e-15
3.27188e-15
9.88612e-15
3.11107e-14
9.58042e-14
2.73161e-13
6.70159e-13
1.49783e-12
3.77393e-12
3.24397e-22
2.32757e-21
1.43851e-20
6.49968e-20
2.31138e-19
6.83752e-19
1.74713e-18
3.95807e-18
8.09915e-18
1.52169e-17
2.68409e-17
4.64788e-17
8.65814e-17
1.96912e-16
5.73868e-16
1.96746e-15
7.11803e-15
2.53183e-14
8.42598e-14
2.50387e-13
6.3712e-13
1.49123e-12
3.88962e-12
3.85757e-23
2.84066e-22
1.85574e-21
8.8493e-21
3.31737e-20
1.03355e-19
2.77768e-19
6.60697e-19
1.41797e-18
2.80419e-18
5.30501e-18
1.04572e-17
2.49185e-17
7.91721e-17
3.09614e-16
1.30052e-15
5.39303e-15
2.10424e-14
7.44148e-14
2.30639e-13
6.15805e-13
1.50164e-12
3.76215e-12
3.1762e-24
2.53016e-23
1.81286e-22
9.40063e-22
3.8038e-21
1.27077e-20
3.64138e-20
9.19587e-20
2.09538e-19
4.45664e-19
9.54627e-19
2.41235e-18
8.37173e-18
3.76547e-17
1.85981e-16
9.09262e-16
4.18434e-15
1.75471e-14
6.52592e-14
2.1068e-13
5.88138e-13
1.47902e-12
3.51857e-12
1.45685e-25
1.39643e-24
1.16587e-23
6.89015e-23
3.12808e-22
1.15825e-21
3.64386e-21
1.00488e-20
2.51528e-20
6.12451e-20
1.7003e-19
6.56735e-19
3.45244e-18
2.03886e-17
1.19283e-16
6.54636e-16
3.27183e-15
1.45597e-14
5.6617e-14
1.89971e-13
5.50617e-13
1.41129e-12
3.2226e-12
4.28567e-27
5.31103e-26
5.33268e-25
3.67034e-24
1.90403e-23
7.95536e-23
2.80303e-22
8.68362e-22
2.5328e-21
8.15593e-21
3.66164e-20
2.31822e-19
1.67352e-18
1.19246e-17
7.91703e-17
4.76511e-16
2.55093e-15
1.19564e-14
4.84522e-14
1.68501e-13
5.03567e-13
1.30644e-12
2.92004e-12
9.34859e-29
1.47678e-27
1.76865e-26
1.41893e-25
8.48426e-25
4.06287e-24
1.64784e-23
6.10948e-23
2.45152e-22
1.37651e-21
1.10233e-20
1.00073e-19
8.8595e-19
7.23187e-18
5.3121e-17
3.45574e-16
1.9653e-15
9.66361e-15
4.07309e-14
1.46421e-13
4.48801e-13
1.17572e-12
2.61862e-12
1.25171e-30
2.66357e-29
3.91369e-28
3.75226e-27
2.65521e-26
1.51306e-25
7.68035e-25
4.23793e-24
3.31413e-23
3.58574e-22
4.22834e-21
4.74919e-20
4.8486e-19
4.41168e-18
3.53233e-17
2.46293e-16
1.48172e-15
7.62963e-15
3.3407e-14
1.23843e-13
3.87882e-13
1.02594e-12
2.30031e-12
1.08314e-32
3.21367e-31
5.87759e-30
6.88459e-29
6.04245e-28
4.6501e-27
4.05003e-26
4.99572e-25
7.75263e-24
1.22133e-22
1.77496e-21
2.30537e-20
2.63906e-19
2.63777e-18
2.2836e-17
1.69972e-16
1.08007e-15
5.82131e-15
2.64613e-14
1.00987e-13
3.22626e-13
8.62937e-13
1.95555e-12
6.70608e-35
2.94023e-33
6.93241e-32
1.06806e-30
1.42978e-29
2.2812e-28
4.77385e-27
1.08652e-25
2.32538e-24
4.44608e-23
7.46668e-22
1.09226e-20
1.38313e-19
1.50752e-18
1.40625e-17
1.1162e-16
7.49421e-16
4.2312e-15
1.99787e-14
7.85302e-14
2.56288e-13
6.96113e-13
1.59948e-12
3.02722e-37
2.07409e-35
7.49014e-34
2.30591e-32
7.92759e-31
2.85376e-29
9.51834e-28
2.79635e-26
7.13354e-25
1.57219e-23
2.98327e-22
4.85735e-21
6.76169e-20
8.01534e-19
8.05475e-18
6.82764e-17
4.85521e-16
2.88008e-15
1.4175e-14
5.76406e-14
1.93394e-13
5.38158e-13
1.26491e-12
1.69466e-39
2.71144e-37
2.45095e-35
1.74544e-33
1.02071e-31
4.95169e-30
2.01675e-28
6.95473e-27
2.03914e-25
5.08948e-24
1.08072e-22
1.94913e-21
2.9784e-20
3.84374e-19
4.17301e-18
3.79363e-17
2.87277e-16
1.80219e-15
9.31877e-15
3.95854e-14
1.38235e-13
4.00127e-13
9.79428e-13
3.79592e-41
1.3682e-38
2.03956e-36
1.96579e-34
1.41803e-32
8.16038e-31
3.86352e-29
1.52792e-27
5.08382e-26
1.42724e-24
3.38239e-23
6.75973e-22
1.13696e-20
1.60485e-19
1.89422e-18
1.86136e-17
1.51517e-16
1.01644e-15
5.59472e-15
2.52171e-14
9.3376e-14
2.87491e-13
7.53528e-13
2.04326e-42
9.6853e-40
1.76731e-37
2.02247e-35
1.70332e-33
1.13166e-31
6.13401e-30
2.7586e-28
1.0377e-26
3.27604e-25
8.68627e-24
1.93267e-22
3.60179e-21
5.60757e-20
7.26878e-19
7.81277e-18
6.93105e-17
5.05163e-16
3.01429e-15
1.47211e-14
5.92077e-14
1.99351e-13
5.78442e-13
1.08102e-43
5.96975e-41
1.25533e-38
1.64812e-36
1.58789e-34
1.20422e-32
7.43558e-31
3.80065e-29
1.62074e-27
5.7837e-26
1.72803e-24
4.31865e-23
9.01208e-22
1.56649e-20
2.26114e-19
2.7005e-18
2.65767e-17
2.1468e-16
1.41983e-15
7.69838e-15
3.45116e-14
1.30407e-13
4.28464e-13
5.09569e-45
2.87438e-42
6.56069e-40
9.56961e-38
1.03825e-35
8.94011e-34
6.29644e-32
3.67804e-30
1.79266e-28
7.30426e-27
2.48773e-25
7.0744e-24
1.67683e-22
3.30569e-21
5.40588e-20
7.31046e-19
8.14682e-18
7.45718e-17
5.59652e-16
3.45026e-15
1.76285e-14
7.60502e-14
2.84958e-13
2.03346e-46
9.82945e-44
2.25112e-41
3.51324e-39
4.23022e-37
4.13237e-35
3.3433e-33
2.25761e-31
1.2751e-29
6.02237e-28
2.37591e-26
7.81815e-25
2.14234e-23
4.87971e-22
9.21903e-21
1.44094e-19
1.85777e-18
1.97e-17
1.71503e-16
1.22712e-15
7.26367e-15
3.60633e-14
1.53191e-13
5.69979e-48
2.06829e-45
4.37589e-43
7.00418e-41
9.22428e-39
1.02517e-36
9.64888e-35
7.66451e-33
5.11524e-31
2.85768e-29
1.33283e-27
5.18011e-26
1.67523e-24
4.50168e-23
1.00356e-21
1.85228e-20
2.82364e-19
3.54581e-18
3.66061e-17
3.10723e-16
2.17794e-15
1.27326e-14
6.29971e-14
7.91793e-50
2.03566e-47
3.73315e-45
5.90966e-43
8.43786e-41
1.07872e-38
1.20778e-36
1.15986e-34
9.41437e-33
6.40211e-31
3.63038e-29
1.71262e-27
6.71314e-26
2.18464e-24
5.89672e-23
1.31839e-21
2.4372e-20
3.71699e-19
4.66728e-18
4.82202e-17
4.10978e-16
2.9116e-15
1.73644e-14
3.18682e-52
5.65612e-50
8.6977e-48
1.34027e-45
2.09427e-43
3.17495e-41
4.41248e-39
5.37067e-37
5.56155e-35
4.82419e-33
3.48e-31
2.08177e-29
1.03183e-27
4.23655e-26
1.44058e-24
4.05444e-23
9.43447e-22
1.81224e-20
2.86862e-19
3.73802e-18
4.0141e-17
3.56875e-16
2.64817e-15
1.44664e-55
1.75057e-53
2.25045e-51
3.44851e-49
6.2022e-47
1.19888e-44
2.24902e-42
3.78385e-40
5.44536e-38
6.54727e-36
6.5133e-34
5.34438e-32
3.61534e-30
2.01687e-28
9.28055e-27
3.52173e-25
1.10137e-23
2.83547e-22
6.00183e-21
1.04372e-19
1.4925e-18
1.7614e-17
1.72559e-16
6.24655e-61
5.3349e-59
6.01521e-57
1.02846e-54
2.49335e-52
7.35407e-50
2.24484e-47
6.28605e-45
1.50753e-42
3.00149e-40
4.906e-38
6.5659e-36
7.19713e-34
6.46651e-32
4.76452e-30
2.87833e-28
1.4246e-26
5.76874e-25
1.90781e-23
5.1446e-22
1.13102e-20
2.0343e-19
3.01871e-18
4.54397e-73
2.93877e-71
4.2575e-69
1.3392e-66
7.58025e-64
6.12218e-61
5.54913e-58
4.70903e-55
3.39871e-52
2.00945e-49
9.62895e-47
3.73522e-44
1.17434e-41
2.99503e-39
6.19625e-37
1.03895e-34
1.4098e-32
1.54541e-30
1.36628e-28
9.73291e-27
5.59162e-25
2.6036e-23
9.93452e-22
0.999606
0.999606
0.999732
0.999996
1
0.999821
0.99989
0.999999
0.999999
0.999999
0.999999
0.999999
0.999998
0.999998
0.999999
0.999999
0.963538
0.980046
0.989832
0.996515
0.0566456
0.106964
0.178395
0.300622
-3.64274e-09
-1.86173e-09
-8.37814e-10
-1.38334e-10
-2.59967e-09
-6.71739e-09
-9.0851e-09
-6.00773e-09
4.3289e-14
8.01846e-14
-2.63569e-12
-2.30453e-10
4.74908e-11
5.24175e-11
5.95946e-11
5.66157e-11
6.62089e-11
8.60063e-11
1.28069e-10
1.88172e-10
1.18157e-11
1.21963e-11
1.25889e-11
1.36256e-11
5.94572e-12
6.57407e-12
7.29189e-12
8.12123e-12
3.6416e-12
4.13359e-12
4.70053e-12
5.3629e-12
2.83795e-12
3.34286e-12
3.94116e-12
4.65772e-12
2.88304e-12
3.53363e-12
4.3405e-12
5.36054e-12
3.31024e-12
4.23062e-12
5.43671e-12
7.09497e-12
3.95741e-12
5.27862e-12
7.08653e-12
9.70545e-12
4.64619e-12
6.43975e-12
8.96412e-12
1.2358e-11
5.18056e-12
7.40051e-12
1.06035e-11
1.4088e-11
5.4402e-12
7.95107e-12
1.17265e-11
1.5209e-11
5.43794e-12
8.1082e-12
1.23609e-11
1.5536e-11
5.35404e-12
8.17167e-12
1.28371e-11
2.09738e-11
5.28186e-12
8.29792e-12
1.32761e-11
2.30855e-11
5.21497e-12
8.31226e-12
1.31524e-11
2.19105e-11
5.0224e-12
7.88823e-12
1.20398e-11
1.91051e-11
4.59438e-12
6.96843e-12
1.01915e-11
1.54359e-11
3.96381e-12
5.78659e-12
8.12792e-12
1.16682e-11
3.2537e-12
4.61241e-12
6.30207e-12
8.73761e-12
2.60359e-12
3.65648e-12
4.95859e-12
6.76817e-12
2.09154e-12
2.98878e-12
4.1026e-12
5.53701e-12
1.73738e-12
2.6299e-12
3.82618e-12
5.37526e-12
1.50527e-12
2.52873e-12
4.1648e-12
6.733e-12
1.27219e-12
2.34765e-12
4.19629e-12
7.22553e-12
9.58141e-13
1.92115e-12
3.6891e-12
6.73596e-12
5.68556e-13
1.1983e-12
2.36967e-12
4.40673e-12
2.67705e-13
6.17229e-13
1.30811e-12
2.54562e-12
8.85402e-14
2.37487e-13
5.89742e-13
1.35692e-12
1.65486e-14
5.17382e-14
1.46485e-13
3.75462e-13
1.40931e-15
5.47712e-15
1.89351e-14
5.81142e-14
3.72535e-17
2.09397e-16
1.03693e-15
4.45338e-15
3.11552e-20
4.16552e-19
4.83213e-18
4.86951e-17
0.931861
0.0412033
1.05772e-05
1.48003e-05
1.10656e-05
1.38988e-05
2.2213e-05
6.06671e-06
4.04984e-07
3.3322e-07
9.49145e-08
1.00994e-07
1.12131e-07
8.19059e-06
0.794967
0.998951
0.999024
0.998986
0.86497
0.946554
0.0930101
7.8497e-06
6.27404e-06
3.64823e-06
2.6096e-06
4.50146e-06
3.10263e-06
3.07004e-07
8.7833e-08
8.59392e-08
8.75706e-08
1.9172e-07
0.186615
0.925349
0.998624
0.998962
0.99899
0.866847
0.999999
0.570767
4.17791e-06
2.67891e-06
1.53637e-06
7.76279e-07
3.22818e-07
1.86605e-07
9.27668e-08
8.59392e-08
8.56983e-08
8.57484e-08
2.62146e-06
0.583169
0.984533
0.995865
0.998624
0.998955
0.867899
0.999999
0.999998
0.507014
4.14163e-06
1.82333e-06
4.66485e-07
1.54025e-07
9.34853e-08
8.65303e-08
8.57513e-08
8.58286e-08
-1.06884e-07
0.164989
0.870101
0.969914
0.943806
0.930617
0.989052
0.867494
0.99993
0.999939
0.999078
0.692714
0.229688
2.9993e-06
4.84971e-07
1.33454e-07
9.59106e-08
8.67195e-08
8.5786e-08
0.0256172
0.757495
0.907176
0.898827
0.62962
0.728598
0.964707
0.868799
0.699455
0.999931
0.999528
0.999124
0.944203
0.670541
0.289649
0.0164834
4.24243e-07
1.08674e-07
0.0452064
0.705038
0.916612
0.907455
0.533753
0.53756
0.758533
0.963118
0.869526
0.0137378
0.153401
0.496743
0.876783
0.953284
0.953284
0.937417
0.741079
0.473452
0.51872
0.808318
0.921619
0.920411
0.443651
0.449674
0.611526
0.959951
0.960627
0.865236
-3.77152e-09
-5.959e-09
0.00425085
0.109157
0.388364
0.668452
0.844421
0.881991
0.899618
0.917734
0.921619
0.921299
0.410213
0.389676
0.743374
0.839095
0.775778
0.911833
0.912561
-1.98315e-09
-4.58e-11
1.72031e-07
1.33177e-05
0.000346089
0.0418274
0.163485
0.37604
0.550904
0.651574
0.666687
0.436392
0.339728
0.809641
0.85825
0.669761
0.119512
0.260724
0.86649
-1.28088e-11
-7.44858e-12
-4.49396e-09
1.33614e-07
1.7274e-06
2.69977e-05
0.000147675
0.00157229
0.0271995
0.0715501
0.0941863
0.126252
0.714674
0.853055
0.85825
0.230004
0.035044
0.0339293
0.405585
1.922e-10
1.61321e-11
2.33436e-11
1.79212e-09
9.33597e-08
1.50202e-06
1.26133e-05
8.40292e-05
0.000248025
0.000729126
0.0017902
0.0378766
0.389618
0.711093
0.783134
0.26021
0.034926
0.0338509
0.0337653
1.67516e-11
1.43365e-11
1.51268e-11
5.10617e-11
4.33979e-09
1.13713e-07
1.73089e-06
1.92369e-05
0.000112084
0.000302182
0.000893056
0.00949828
0.0186034
0.136884
0.36871
0.411485
0.25273
0.0337653
0.0337653
1.06122e-11
1.36738e-11
1.4821e-11
1.61466e-11
2.2177e-10
4.12275e-09
1.07438e-07
2.70286e-06
4.4716e-05
0.000181527
0.000269682
3.67891e-05
0.000173897
0.000945848
0.189997
0.411508
0.3538
0.0338075
0.0337653
7.47378e-12
1.06917e-11
1.47912e-11
1.6072e-11
2.55881e-11
4.0242e-10
3.51972e-09
1.37125e-06
3.01804e-05
4.44182e-05
2.73026e-05
9.15713e-06
8.73685e-06
2.84187e-05
0.0310624
0.295098
0.368947
0.229415
0.0338075
7.09342e-12
1.0622e-11
1.53875e-11
2.04349e-11
2.24266e-11
4.81583e-11
1.47499e-09
2.34011e-06
1.29705e-05
7.76671e-06
5.37867e-06
1.7263e-06
2.84846e-06
7.39701e-06
2.84482e-05
0.00770329
0.370849
0.393262
0.0758524
8.95115e-12
1.41229e-11
2.16636e-11
2.86831e-11
2.94635e-11
4.47716e-11
2.60495e-08
1.11773e-06
1.2358e-06
1.6518e-06
1.26003e-06
8.39155e-07
1.3489e-06
2.1325e-06
5.67092e-06
0.000514479
0.0949524
0.398951
0.404038
1.33378e-11
1.92666e-11
2.99771e-11
4.82777e-11
4.83117e-11
5.32075e-11
9.16491e-09
1.01773e-07
1.28985e-07
3.8096e-07
3.91264e-07
6.72024e-07
9.24595e-07
1.10564e-06
3.89651e-06
4.99112e-05
0.000624757
0.384672
0.409308
2.04649e-11
2.56524e-11
3.41041e-11
6.9985e-11
6.92949e-11
1.02904e-10
1.46807e-09
1.67758e-09
4.02193e-08
1.06443e-07
2.26355e-07
4.18521e-07
6.62316e-07
1.63486e-05
2.73504e-05
0.000252088
0.00143074
0.0825704
0.409308
3.05828e-11
3.19836e-11
3.77975e-11
1.28782e-10
7.648e-11
8.28629e-11
2.91541e-10
6.14322e-10
9.46938e-09
4.07409e-08
1.36929e-07
1.93978e-07
5.95239e-07
0.000186729
0.00356037
0.00589237
0.0218809
0.0233667
0.408479
5.66549e-11
4.26198e-11
4.44532e-11
3.4089e-10
7.66018e-11
8.95218e-11
2.41393e-10
5.01663e-10
2.14905e-09
1.58406e-08
4.79702e-08
4.70883e-08
4.92857e-07
1.19082e-05
0.0158427
0.0989501
0.140857
0.0342211
0.289249
1.03316e-10
6.17873e-11
4.50901e-11
9.25273e-10
2.05778e-09
1.03194e-09
2.82599e-10
1.0877e-09
6.22635e-09
1.23731e-08
1.2733e-08
1.83004e-08
1.68507e-07
4.85145e-06
0.0235365
0.152055
0.152143
0.128233
0.0332446
1.59426e-10
7.31926e-11
5.86892e-11
2.46655e-09
1.12756e-08
8.4794e-09
9.02145e-10
2.19937e-09
1.6675e-08
1.57699e-08
1.94104e-08
1.31567e-07
1.4947e-07
4.30004e-07
0.0144068
0.149089
0.152143
0.1519
0.0332446
1.39891e-10
1.01188e-10
4.26032e-10
5.54832e-09
1.32552e-08
1.10036e-08
4.92627e-09
2.1099e-09
1.69655e-08
8.09327e-09
6.52985e-09
1.0232e-06
4.48875e-05
0.000174262
0.00163129
0.0267311
0.152143
0.135309
0.0332446
8.19676e-11
2.31157e-10
8.08138e-10
5.93216e-09
1.32551e-08
6.42444e-09
5.66309e-09
1.62496e-09
1.24248e-08
6.52992e-09
6.47346e-09
6.52978e-09
0.000313485
0.000329186
1.47997e-05
1.33805e-05
0.131056
0.133915
0.0332651
4.99158e-11
2.24362e-10
6.60032e-10
4.11776e-09
1.23292e-08
1.4753e-08
4.82527e-09
1.58862e-09
2.3408e-09
8.36414e-09
6.52975e-09
4.26207e-05
0.000325395
0.000329186
1.13297e-05
1.00741e-05
0.0240258
0.187038
0.0335172
3.4838e-11
1.45279e-10
2.91383e-10
1.8018e-09
6.76086e-09
2.67165e-08
1.8942e-08
1.58862e-09
2.44871e-09
1.16197e-08
6.47342e-09
7.33846e-05
0.000321459
0.000125742
1.78388e-06
4.30823e-06
0.0118968
0.187679
0.0365768
2.58187e-11
6.709e-11
2.59224e-10
1.86051e-09
3.86056e-09
2.66158e-08
2.21914e-08
3.02185e-07
2.13475e-08
8.70775e-09
6.58045e-09
5.39422e-05
7.81807e-05
1.81783e-05
1.46295e-06
1.78122e-06
0.07779
0.188645
0.0722711
1.79676e-11
4.23652e-11
3.24738e-10
2.47456e-09
4.52669e-09
1.05428e-08
1.74643e-08
4.77208e-07
2.7947e-08
7.03194e-09
6.80023e-09
2.53672e-06
1.12568e-06
1.35229e-06
1.4602e-06
1.45197e-06
0.171879
0.188851
0.137657
1.27795e-11
2.65297e-11
3.13339e-10
2.26122e-09
4.26176e-09
4.26166e-09
4.81826e-09
4.75034e-07
7.89123e-09
7.30335e-09
7.03171e-09
7.3036e-09
1.01384e-06
1.44751e-06
1.46109e-06
0.0101121
0.188851
0.188851
0.186366
9.60818e-12
1.95578e-11
1.68829e-10
1.03066e-09
3.41141e-10
1.989e-07
5.43117e-09
1.17386e-07
2.75198e-06
3.87512e-06
4.90883e-06
5.89262e-06
3.23885e-06
1.46964e-06
1.46307e-06
0.0408498
0.188807
0.188851
0.098671
7.55627e-12
1.5184e-11
3.7933e-11
1.4311e-10
3.2724e-11
5.45695e-07
4.837e-06
1.35323e-07
5.96953e-06
6.06627e-06
6.09985e-06
6.09751e-06
4.65841e-06
1.50497e-06
1.33545e-06
0.0150022
0.176216
0.188807
0.0975616
7.35597e-12
1.40157e-11
2.80587e-11
2.99855e-11
3.13518e-11
5.71563e-07
8.15215e-06
6.38686e-06
3.00855e-06
3.66006e-06
3.42894e-06
3.23746e-06
1.88901e-06
1.62181e-06
1.17498e-06
1.21023e-06
0.043564
0.188019
0.0973717
1.04536e-11
2.26981e-11
3.99726e-11
7.52677e-11
3.27169e-11
1.43364e-07
8.14843e-06
8.15244e-06
2.15724e-06
1.99535e-06
1.89902e-06
1.83798e-06
1.80465e-06
1.68178e-06
3.99969e-06
1.09139e-06
1.21866e-07
0.183925
0.0973717
1.18363e-11
2.79881e-11
1.62219e-10
3.19865e-10
6.07764e-11
7.23361e-11
1.82661e-06
2.86632e-06
1.90833e-05
2.08069e-06
2.94219e-05
0.000136857
0.000218144
0.000174275
3.70952e-05
1.21866e-07
7.36539e-08
0.0986313
0.106282
1.15109e-11
2.70501e-11
2.31276e-10
6.85932e-10
5.96115e-10
5.15959e-10
6.40463e-10
7.27216e-09
1.78342e-05
0.000268804
0.000448656
0.00047049
0.0004707
0.000468338
6.03291e-05
7.36532e-08
2.66601e-08
0.0108368
0.154196
7.69937e-12
1.78076e-11
1.45762e-10
7.11637e-10
1.20267e-09
1.10297e-09
1.02176e-09
2.23319e-09
8.48347e-09
0.000298602
0.000470359
0.000470716
0.000470641
0.000390819
2.61174e-05
2.59427e-08
3.40381e-09
0.00248675
0.154037
4.59931e-12
1.25677e-11
3.59141e-11
4.49497e-10
1.2614e-09
1.38708e-09
1.12091e-08
2.74824e-09
1.77713e-09
2.69085e-05
0.000173161
0.00043567
0.000352583
8.09899e-05
1.04274e-07
3.17749e-09
3.42243e-10
0.0021137
0.0180487
2.88073e-12
9.14098e-12
2.30433e-11
1.24868e-10
8.71363e-10
1.61691e-09
1.47456e-08
2.70978e-09
2.67938e-10
1.27122e-09
9.02402e-08
2.27282e-05
1.22067e-05
2.15753e-06
2.41372e-07
2.54379e-10
2.55118e-13
-9.62459e-09
-9.50708e-10
8.83383e-13
3.38095e-12
1.09287e-11
2.59809e-11
2.22566e-10
9.82358e-10
8.00881e-09
2.42805e-09
1.79036e-10
7.59647e-11
2.10853e-09
4.21484e-09
9.88638e-10
5.84635e-09
1.01641e-09
7.76452e-10
7.92771e-10
1.95825e-10
3.78795e-12
1.62369e-13
8.03561e-13
3.44486e-12
1.24653e-11
3.79939e-11
2.8704e-10
5.4901e-10
1.3269e-09
1.87472e-10
9.81567e-11
1.06658e-10
9.88338e-11
2.01408e-10
6.03118e-10
9.6736e-10
1.09703e-09
9.04014e-10
2.61258e-10
5.51307e-12
1.68655e-14
1.18476e-13
6.57464e-13
3.05689e-12
1.34655e-11
3.24356e-11
7.69637e-12
3.21128e-10
7.13375e-11
2.17045e-11
2.07306e-11
7.30428e-12
1.52682e-11
2.68324e-10
1.58504e-09
2.01485e-09
1.50752e-09
2.6442e-10
1.44379e-05
4.82691e-16
9.19232e-15
8.10575e-14
4.52964e-13
2.34204e-12
8.61338e-12
7.21698e-12
1.34248e-11
1.78674e-11
1.86496e-11
1.54583e-11
4.81222e-12
3.70354e-12
5.47309e-12
2.00845e-10
3.46296e-10
4.08749e-14
4.35941e-09
2.07837e-05
)
;

boundaryField
{
    leftWall
    {
        type            zeroGradient;
    }
    rightWall
    {
        type            zeroGradient;
    }
    lowerWall
    {
        type            zeroGradient;
    }
    atmosphere
    {
        type            inletOutlet;
        inletValue      uniform 0;
        value           nonuniform List<scalar> 
46
(
0
0
0
0
0
0
0
0
0
0
0
0
0
0
0
0
0
0
0
0
0
0
0
0
0
0
0
4.82691e-16
9.19232e-15
8.10575e-14
4.52964e-13
2.34204e-12
8.61338e-12
7.21698e-12
1.34248e-11
1.78674e-11
1.86496e-11
1.54583e-11
4.81222e-12
3.70354e-12
5.47309e-12
0
0
0
4.35941e-09
2.07837e-05
)
;
    }
    defaultFaces
    {
        type            empty;
    }
}


// ************************************************************************* //
