/*--------------------------------*- C++ -*----------------------------------*\
| =========                 |                                                 |
| \\      /  F ield         | OpenFOAM: The Open Source CFD Toolbox           |
|  \\    /   O peration     | Version:  2.3.0                                 |
|   \\  /    A nd           | Web:      www.OpenFOAM.org                      |
|    \\/     M anipulation  |                                                 |
\*---------------------------------------------------------------------------*/
FoamFile
{
    version     2.0;
    format      ascii;
    class       volScalarField;
    location    "1.49988";
    object      epsilon.water;
}
// * * * * * * * * * * * * * * * * * * * * * * * * * * * * * * * * * * * * * //

dimensions      [0 2 -3 0 0 0 0];

internalField   nonuniform List<scalar> 
18816
(
4.17338
9.22321
2.43496
3.42893
6.74465
10.8708
11.2001
8.87435
5.1735
12.8549
14.8513
20.1951
27.5263
32.7881
36.3489
37.093
36.2313
33.9046
30.1493
25.0782
19.1715
11.2923
5.47733
2.34724
5.16325
11.2726
13.6607
3.42229
3.34152
1.96654
0.213311
0.445936
0.303713
0.264792
7.67374
28.888
43.9845
45.7613
41.9891
41.9662
40.5185
36.2972
34.6452
31.6171
28.6052
25.4114
22.1734
18.8685
15.7006
11.5643
7.7391
4.92173
5.60282
9.24333
16.0639
6.03288
3.1183
0.319659
1.11841
0.786431
0.328181
0.151763
4.5121
23.1953
27.7794
29.0001
31.0576
35.5135
35.0163
29.694
24.9449
18.9306
15.0812
12.9742
11.7389
10.4155
8.79257
6.074
3.18876
0.904023
0.888674
4.68194
12.5033
6.48416
3.01305
0.150343
1.47129
0.726764
0.254529
0.706707
5.08703
23.4368
25.3468
25.1687
28.8302
26.0692
32.4271
21.2275
8.72646
2.09211
0.828825
0.663395
0.694013
0.969553
1.1586
1.07911
0.722253
0.323041
0.196685
1.15635
11.6243
6.69716
2.99192
0.0572708
1.65495
0.671665
0.252763
0.716689
4.90619
22.6386
25.0005
22.9195
27.4753
23.9433
27.5524
9.73938
0.861538
0.170798
0.140927
0.169768
0.214289
0.224617
0.37024
0.534487
0.687256
0.599061
0.32576
0.164059
9.02965
6.78936
2.80919
0.791829
1.73184
0.592927
0.2253
0.267583
4.5145
27.6586
21.4412
22.3649
27.9406
24.191
21.3946
3.04033
0.49959
0.238996
0.12045
0.0533262
0.250798
0.226032
0.340097
0.388584
0.540562
0.825861
0.484956
0.11784
7.85064
6.7645
2.8119
0.883393
1.6084
0.511055
0.247724
0.642616
7.30807
16.6941
20.1796
19.4577
24.5398
19.4508
15.6272
1.24139
0.615711
0.551427
0.515489
0.0820674
0.239015
0.233227
0.332054
0.341964
0.361336
0.742109
0.604504
0.114296
7.08511
6.68273
2.52945
0.874553
1.41179
0.40553
0.225316
0.993662
13.0716
56.2449
68.4561
48.0652
23.4719
18.282
8.5847
0.588162
0.638157
0.847209
1.18299
0.0474702
0.178921
0.200644
0.268977
0.301201
0.305293
0.514627
0.644129
0.125752
7.01575
6.64638
2.57488
1.17161
1.23333
0.328633
0.216361
1.37719
15.0511
60.5484
71.0898
44.2615
22.6689
16.3982
9.62304
0.916969
0.262193
0.998677
1.60822
0.129651
0.142396
0.142812
0.193795
0.252884
0.2739
0.384483
0.657651
0.161297
7.41244
6.55768
2.19147
0.998322
0.96721
0.231382
0.207522
3.11941
19.7913
60.6365
72.7631
36.0843
32.957
25.6916
13.3328
5.99331
2.79644
1.98565
2.17585
0.303753
0.112822
0.0901956
0.158196
0.234248
0.258781
0.305887
0.634147
0.213332
7.86251
6.67454
2.04109
0.426601
0.712717
0.168273
0.16136
4.0129
25.3767
56.6428
62.7488
26.5092
24.2097
20.3412
11.3157
5.5193
2.90756
2.30691
1.62218
0.647181
0.131325
0.0751984
0.150228
0.234699
0.256152
0.259271
0.568258
0.321561
8.45734
6.68557
2.03012
0.176047
0.440461
0.103008
0.102508
3.57897
28.252
48.5988
38.0548
17.0188
18.5597
17.0515
10.3909
7.47626
4.75599
3.97374
1.41414
0.311518
0.110229
0.079391
0.16521
0.25123
0.258243
0.238264
0.455644
0.55982
9.44906
6.80893
1.73808
0.0468794
0.246484
0.066892
0.0444367
1.60164
26.5116
42.0866
29.374
13.5477
14.8431
13.3577
8.61192
7.66793
4.95372
2.46932
0.641844
0.201287
0.11035
0.0947746
0.19504
0.26329
0.266288
0.232666
0.362207
0.934156
11.5563
6.71186
1.71006
0.154697
0.157749
0.0492201
0.0358288
0.562707
17.238
32.8661
26.0936
11.4534
11.6564
10.6093
6.55144
7.07155
3.92965
1.35159
0.264533
0.125091
0.0923234
0.102524
0.223565
0.272703
0.277097
0.231662
0.321518
1.58899
14.6683
7.05063
1.61407
0.487355
0.128658
0.0539384
0.043505
0.221511
6.71337
22.3617
21.2273
10.9833
9.43456
9.48532
5.51196
5.66136
1.5751
0.277306
0.104134
0.0955609
0.0956245
0.119369
0.243652
0.27589
0.284876
0.233482
0.302815
3.12036
17.5597
7.79304
1.56542
1.25767
0.119257
0.0632451
0.0521171
0.0601046
0.552978
6.16806
11.4546
8.51025
6.45579
6.35148
0.381831
0.445219
0.107789
0.066733
0.0616758
0.0832054
0.0775194
0.124159
0.253153
0.271959
0.280734
0.232487
0.292054
4.35537
19.3493
6.86441
1.59317
2.32976
0.113991
0.0706041
0.0516499
0.0466589
0.0424837
0.162702
0.59689
0.815783
0.581537
0.712941
0.018927
0.0177611
0.0349214
0.0369669
0.0617042
0.0892477
0.076724
0.142885
0.256225
0.262006
0.262551
0.224666
0.231191
2.51616
20.3675
8.14761
1.65576
3.6274
0.103218
0.0683173
0.0487564
0.0353101
0.0270891
0.0662863
0.113394
0.11519
0.0618267
0.0324824
0.0264515
0.0157989
0.0310197
0.043636
0.0577874
0.0838943
0.0892746
0.149
0.245778
0.24471
0.233615
0.205748
0.144037
0.370382
20.0963
9.04835
1.66622
2.29985
0.0865554
0.0627264
0.0500462
0.0350817
0.0384793
0.0783929
0.114166
0.0979474
0.0726429
0.0304863
0.0451638
0.0266371
0.0562823
0.0542877
0.0623991
0.111983
0.13333
0.170544
0.224926
0.224785
0.202489
0.183726
0.113868
0.163852
19.7146
9.22969
1.69072
0.0778744
0.0805705
0.0652947
0.0533704
0.0363155
0.0435261
0.0795571
0.126446
0.110662
0.0806606
0.0421039
0.0543274
0.038245
0.0577782
0.0528426
0.0783606
0.118586
0.181931
0.231131
0.216199
0.20985
0.177303
0.162052
0.105412
0.185179
19.5061
10.8084
1.75294
0.0988793
0.0830525
0.0762202
0.0681306
0.0458398
0.040574
0.0513101
0.0847949
0.0922892
0.0421919
0.0178376
0.0257552
0.0260015
0.0301049
0.0246966
0.0406754
0.0566157
0.100575
0.186772
0.184506
0.175743
0.148111
0.143178
0.0998227
0.181418
19.4698
10.9479
1.7835
0.0882246
0.082177
0.0862179
0.0891955
0.0844639
0.0936488
0.128802
0.147303
0.0817228
0.0539712
0.0213936
0.00860931
0.0134425
0.0125279
0.00953727
0.00811081
0.00763287
0.0150864
0.111911
0.150243
0.148429
0.129454
0.12914
0.0933804
0.184812
19.6594
12.4595
1.74726
0.077528
0.0773553
0.0858762
0.0926154
0.0961535
0.112445
0.16018
0.208135
0.198787
0.16964
0.121984
0.0885831
0.0633394
0.0549763
0.0515766
0.0453435
0.0508768
0.0681444
0.127252
0.150025
0.138157
0.118249
0.116235
0.0819421
0.191369
19.5703
13.1124
1.81318
0.0432195
0.0611801
0.0700653
0.0754127
0.0785397
0.0885747
0.11488
0.142518
0.130721
0.100699
0.0661137
0.0440012
0.0312659
0.0201498
0.0123717
0.00854509
0.019225
0.0430741
0.107783
0.135403
0.125671
0.113266
0.108693
0.0510227
0.215323
19.9223
13.176
1.49296
0.0342031
0.0392931
0.0406802
0.0424145
0.0447192
0.0506531
0.0683233
0.087475
0.0827652
0.0602052
0.0362642
0.0216396
0.0201847
0.0173965
0.0145915
0.0161056
0.0262004
0.050641
0.106601
0.132993
0.121467
0.113979
0.111216
0.387232
0.221814
19.9822
14.4272
1.43172
0.109971
0.0241269
0.0167477
0.0152524
0.0127712
0.0140545
0.021492
0.0356718
0.0390608
0.0304522
0.0162959
0.00613551
0.00259485
0.00234717
0.00250344
0.0024953
0.0132894
0.041235
0.0960013
0.120717
0.111772
0.110707
0.114734
0.397701
0.235936
20.8544
15.0444
1.25157
0.269708
0.0708758
0.0315755
0.0191954
0.0133326
0.0110211
0.0101481
0.0132106
0.0166629
0.0136295
0.00719544
0.00277432
0.000656101
0.0011497
0.000717489
0.00227553
0.0118208
0.0371285
0.0861315
0.106218
0.099705
0.102324
0.110033
0.255666
0.229862
21.4134
15.1975
1.20047
0.831672
0.16034
0.0498318
0.0316631
0.0292449
0.0280642
0.0149227
0.00335135
0.00473673
0.00628148
0.00475746
0.00205943
0.000778568
0.00244605
0.00196082
0.000562851
0.00769967
0.0263854
0.0575139
0.0670283
0.065091
0.0694961
0.0763905
0.0644271
0.28239
23.3307
16.149
2.9466
2.04567
0.574172
0.792738
1.57145
2.80181
2.90374
2.17397
0.75397
2.73701
3.65156
5.12515
7.20383
8.45392
9.10951
9.13526
8.7644
8.00336
6.88027
5.45744
3.84452
1.92332
0.816031
0.365971
0.911683
2.48238
3.26733
2.34557
1.65346
0.647175
0.127158
0.19929
0.134559
0.12147
2.01981
6.90786
10.9525
11.4247
10.1661
10.3294
10.0222
9.03717
8.73367
8.07135
7.37264
6.56216
5.7093
4.8025
3.88599
2.75714
1.82151
1.22475
1.44822
2.39861
4.10444
1.6951
1.4891
0.130172
0.387135
0.280519
0.111094
0.019577
0.108912
1.17355
2.16435
2.04798
2.17518
9.58765
9.27725
7.96823
6.94283
5.56615
4.5703
3.97507
3.59506
3.16177
2.61226
1.74878
0.893342
0.332626
0.359927
1.3716
3.49617
1.54527
1.54153
0.0740644
0.488413
0.246437
0.0815563
0.0110153
0.0145361
0.222906
0.506782
0.344857
0.362141
2.07958
8.67249
5.95912
2.6821
0.736163
0.328669
0.271381
0.2895
0.383922
0.421646
0.360952
0.232811
0.124403
0.0902286
0.396543
3.23937
1.80236
1.53809
0.0471121
0.536658
0.223223
0.0775871
0.0106024
0.012466
0.0675405
0.186858
0.0997888
0.106607
0.843496
7.49801
2.82308
0.305414
0.0557176
0.0458428
0.0629393
0.0822166
0.0887796
0.147132
0.197087
0.236331
0.21514
0.121298
0.0914637
2.57689
1.77805
1.49829
0.235735
0.546108
0.198814
0.077347
0.0108558
0.0141648
0.0421351
0.0865814
0.0455448
0.0553245
0.518699
5.88353
0.919628
0.122881
0.0484908
0.0279485
0.0312552
0.0865539
0.0771625
0.116273
0.136919
0.187614
0.270416
0.167021
0.0700491
2.26453
1.86243
1.56188
0.328039
0.489326
0.166602
0.0909142
0.137322
0.704576
0.0444006
0.0688594
0.0461417
0.0367543
0.330946
4.43178
0.397623
0.164038
0.134583
0.110681
0.0344456
0.0823414
0.0717267
0.0956413
0.110746
0.125473
0.242372
0.196037
0.0684562
2.04622
1.81952
1.4189
0.305834
0.405282
0.12919
0.0926564
0.299627
3.00555
9.23024
11.5792
8.19343
0.0488136
0.178539
2.48698
0.211993
0.1981
0.24813
0.300885
0.0271383
0.0587623
0.05446
0.0711456
0.0956312
0.106891
0.17323
0.203548
0.0766523
2.02807
1.81107
1.54796
0.338461
0.341135
0.101702
0.095907
0.443461
4.08701
14.8866
17.8862
10.8986
0.0766465
0.0642227
2.56151
0.388443
0.135436
0.323558
0.429967
0.0554558
0.0454008
0.036054
0.0552295
0.0848552
0.0976976
0.132258
0.20422
0.0912449
2.12042
1.77401
1.38036
0.239135
0.25668
0.0742321
0.108947
1.03296
5.72052
16.1482
18.887
9.43631
6.19551
5.06392
3.77471
1.9495
0.959195
0.65738
0.683524
0.167937
0.0399133
0.0274855
0.0514246
0.0832422
0.0946256
0.106829
0.191984
0.109411
2.25676
1.7673
1.34616
0.0980598
0.18543
0.0562249
0.0863399
1.37407
7.48438
15.6903
17.664
7.14462
6.40011
5.38659
3.34176
1.70355
0.924946
0.689696
0.49399
0.20044
0.0530305
0.027253
0.0536608
0.0870926
0.0944427
0.0927676
0.168297
0.142228
2.41217
1.7638
0.928866
0.0439522
0.115976
0.0405074
0.0647967
1.25196
8.31517
13.7153
11.1089
4.8235
5.06578
4.69825
2.95892
2.1039
1.35378
1.04877
0.385922
0.105922
0.0469442
0.0328158
0.0633988
0.0941105
0.0955137
0.0861459
0.138081
0.212964
2.66634
1.75696
0.820125
0.0242859
0.0734254
0.0329471
0.036256
0.623251
7.80495
11.8213
8.04575
3.81269
4.00857
3.68484
2.43672
2.1653
1.394
0.718266
0.201067
0.0727965
0.0468427
0.0399998
0.0759762
0.0980133
0.0976007
0.0831745
0.113901
0.326857
3.20099
1.76227
0.762719
0.0642262
0.0553626
0.0297685
0.0292565
0.254841
5.37062
9.37287
7.09963
3.15054
3.12854
2.89723
1.85589
1.99621
1.13059
0.374942
0.0858962
0.048905
0.039047
0.0438647
0.0853025
0.100039
0.09922
0.0811692
0.103206
0.538811
3.9948
1.66778
0.570897
0.161504
0.0503891
0.03263
0.0320413
0.113113
2.11573
6.67838
6.03068
2.9889
2.58273
2.5739
1.53083
1.58502
0.460805
0.0912367
0.0401158
0.0396579
0.0396156
0.048937
0.090157
0.099843
0.0994469
0.0792776
0.098521
1.03043
4.75059
1.62535
0.544251
0.384707
0.0514519
0.0367758
0.0362454
0.0396209
0.218408
1.91659
3.4174
2.24725
1.74981
1.79293
0.138235
0.144699
0.0400675
0.0248411
0.0240936
0.0344098
0.0323133
0.0494989
0.0916755
0.0970502
0.0959301
0.0759682
0.0947168
1.38789
5.27997
1.65048
0.422899
0.695882
0.052838
0.0391749
0.0369554
0.0335014
0.0293473
0.0885157
0.219805
0.217423
0.157726
0.202021
0.0145783
0.0100503
0.017944
0.0168345
0.0238635
0.0375368
0.0332102
0.0557723
0.0906007
0.0923558
0.0888098
0.0713399
0.0679267
0.863924
5.61347
1.74327
0.408483
1.06669
0.0512804
0.0383309
0.0355323
0.028918
0.0223122
0.034989
0.0494789
0.0473774
0.0293625
0.0195845
0.0182149
0.0121978
0.0166836
0.0223539
0.0271459
0.03731
0.0423401
0.0602368
0.0850613
0.0855405
0.0791246
0.0647446
0.0400464
0.170677
5.52054
1.78937
0.363178
0.722196
0.0442917
0.0370468
0.0354218
0.0293711
0.0281545
0.0358342
0.0456562
0.0442071
0.0359333
0.0173346
0.0262875
0.0150452
0.0305836
0.0261887
0.0289579
0.0492729
0.0637638
0.0720217
0.0783254
0.0783708
0.0692379
0.0584533
0.0341077
0.0919819
5.3653
2.10066
0.393353
0.045841
0.0401756
0.0381509
0.0364354
0.030072
0.0297184
0.0344444
0.0462371
0.0476907
0.0393734
0.0237445
0.030838
0.0229513
0.0329642
0.0292047
0.0372886
0.0507886
0.0759671
0.0855996
0.0740055
0.0720067
0.0607177
0.0523723
0.0343218
0.0981472
5.27477
2.13043
0.374037
0.0408593
0.0390413
0.0394829
0.0399959
0.034726
0.0307971
0.0297013
0.0399965
0.0411819
0.0286205
0.0188503
0.0226483
0.0232088
0.0249823
0.0217522
0.027255
0.0273528
0.0312874
0.051442
0.0605891
0.0596421
0.0507614
0.0471811
0.0336165
0.0988871
5.24536
2.30635
0.420722
0.0323761
0.0337651
0.0349383
0.0377691
0.0411048
0.0427587
0.0495455
0.063148
0.0444547
0.029113
0.0145522
0.00844595
0.00986091
0.00885604
0.00681798
0.00562188
0.00541061
0.00918844
0.0391032
0.0538772
0.0526189
0.045102
0.0430871
0.0306503
0.0995837
5.28664
2.37016
0.303303
0.0283013
0.0253668
0.0247539
0.0265093
0.0308921
0.0333129
0.0386618
0.054506
0.0587075
0.0482848
0.0339674
0.0249528
0.0188599
0.0154759
0.0134603
0.0118163
0.0129688
0.0188976
0.0416102
0.053067
0.0493656
0.0411711
0.0393594
0.0232563
0.10091
5.27731
2.41023
0.253248
0.0202593
0.0165181
0.0145097
0.0143149
0.015891
0.0169339
0.0194037
0.0261598
0.0276091
0.0222981
0.0142548
0.00881625
0.00708917
0.00522008
0.00362184
0.00274443
0.00553357
0.0141591
0.0377415
0.0484999
0.0444883
0.0396085
0.0379981
0.00581172
0.10766
5.36121
2.53712
0.160978
0.0201566
0.0117582
0.00866068
0.00749932
0.0072877
0.00781266
0.0100149
0.0148696
0.0161578
0.0132913
0.00768845
0.00406437
0.0034422
0.00321149
0.00276953
0.00337174
0.00642135
0.0153902
0.0368613
0.0469715
0.0423412
0.0392089
0.0385366
0.00485198
0.110206
5.42642
2.53058
0.166697
0.0506884
0.0125605
0.00646238
0.00446293
0.00335329
0.0034456
0.00468752
0.00753289
0.00937239
0.00814429
0.004335
0.00198691
0.001336
0.00150567
0.00135805
0.00109081
0.00380992
0.0132834
0.0327035
0.04092
0.037014
0.0364309
0.0376674
0.00427089
0.119897
5.67918
2.73308
0.0814056
0.0947845
0.0263659
0.0116698
0.00678131
0.00489233
0.00418619
0.00353738
0.00403773
0.00461138
0.00347871
0.00172747
0.00101611
0.000717592
0.00111008
0.000805705
0.000852424
0.00312348
0.011142
0.0263378
0.0320247
0.0294368
0.0297493
0.0313937
0.004035
0.123569
5.84699
2.82451
0.0408009
0.251599
0.0544107
0.0156232
0.00870262
0.00746941
0.00692304
0.00373813
0.00146337
0.00147092
0.00137104
0.00095118
0.000697121
0.000865244
0.00152048
0.00124057
0.000428427
0.00176529
0.00539891
0.00949313
0.00994879
0.0097231
0.0102731
0.0108769
0.00301917
0.152874
6.38039
2.88316
0.148865
0.466164
0.151867
0.209734
0.402005
0.805854
0.824547
0.535719
0.134898
0.49187
0.807517
1.21825
1.83448
2.14247
2.27155
2.22695
2.08343
1.80646
1.43473
1.01526
0.597759
0.250633
0.119283
0.0761318
0.151075
0.474052
0.739554
0.216164
0.0811836
0.230872
0.0822664
0.101005
0.065295
0.0551403
0.583299
1.76131
2.69885
2.73479
2.52469
2.73356
2.72653
2.55815
2.52484
2.36856
2.18369
1.93095
1.64529
1.3507
1.05788
0.721444
0.484676
0.359722
0.435535
0.702833
1.19959
0.259177
0.0656483
0.0709041
0.162396
0.114946
0.0426541
0.00902939
0.0356789
0.39075
0.70541
0.669946
0.780016
2.83702
2.81241
2.43687
2.19757
1.86255
1.58338
1.39094
1.25491
1.08869
0.871405
0.56609
0.288685
0.139865
0.157224
0.462759
1.11401
0.215828
0.164612
0.0484812
0.189812
0.0935499
0.0312663
0.00667185
0.0134653
0.0972897
0.181384
0.156172
0.17897
0.828923
2.65121
1.9077
0.929926
0.287929
0.14039
0.119102
0.132955
0.168251
0.173795
0.143642
0.0998199
0.0660527
0.0526914
0.153821
1.0222
0.375553
0.0598861
0.0389598
0.200626
0.0835336
0.0294099
0.0064984
0.0111823
0.0442007
0.0733567
0.0695442
0.0806909
0.364911
2.30109
0.904701
0.111611
0.0211373
0.0176919
0.026276
0.0357467
0.0397293
0.0655637
0.0853129
0.101235
0.0968096
0.059898
0.0535385
0.822286
0.379781
0.132923
0.0861293
0.196865
0.0750866
0.0317876
0.00706286
0.0106616
0.0275392
0.0412905
0.0443977
0.0508352
0.232172
1.79693
0.293214
0.0318724
0.0133871
0.010153
0.0166808
0.0333627
0.0307808
0.0426314
0.0541635
0.0764725
0.10881
0.0742961
0.0443173
0.730264
0.407979
0.184803
0.143857
0.166921
0.0613126
0.0377227
0.0254668
0.0441363
0.0230702
0.0353563
0.0406977
0.0408329
0.158953
1.38467
0.134534
0.047201
0.0374161
0.0279133
0.0187217
0.0330778
0.0266404
0.0296516
0.0408439
0.0519141
0.0945941
0.0810831
0.0441167
0.662625
0.412625
0.146162
0.119858
0.124663
0.0475513
0.0429762
0.0809385
0.518634
1.09625
1.47524
1.19001
0.0383392
0.0913101
0.79105
0.0845723
0.0726552
0.0823653
0.0804957
0.0186132
0.0244006
0.018525
0.0221953
0.0360433
0.045484
0.0694528
0.0818383
0.0486922
0.657211
0.395371
0.274049
0.101428
0.0974307
0.0385175
0.0473899
0.141419
1.04832
3.67911
4.59352
2.89604
0.0481064
0.048659
0.744386
0.175421
0.0783031
0.123158
0.125399
0.0330636
0.0197704
0.0130014
0.019832
0.0347545
0.0431817
0.0547996
0.0798714
0.0546447
0.681933
0.387383
0.0955202
0.0489166
0.0702426
0.032231
0.0614748
0.362426
1.71188
4.6701
5.40884
2.70459
1.14939
0.989069
1.14316
0.725002
0.384606
0.255838
0.248408
0.0997836
0.0191893
0.0115491
0.0215897
0.0371076
0.0430418
0.0454386
0.0725439
0.0607893
0.728475
0.393166
0.17335
0.0237098
0.0516523
0.0274201
0.0521654
0.52523
2.37368
4.82606
5.58505
2.25917
1.91951
1.57494
1.12313
0.606457
0.342759
0.236361
0.169438
0.0812377
0.0301192
0.0136164
0.0252563
0.0408889
0.0434647
0.0408825
0.0628701
0.0710129
0.775
0.40479
0.107371
0.0157055
0.0359125
0.024162
0.0436524
0.493693
2.6914
4.33014
3.76567
1.72751
1.62144
1.58157
0.984867
0.724813
0.448053
0.320866
0.119267
0.0512573
0.0313142
0.0179381
0.0315658
0.0439677
0.0440159
0.0384019
0.052856
0.09323
0.844441
0.401212
0.0144123
0.0131759
0.0281842
0.0228158
0.0297279
0.274807
2.55658
3.69578
2.53716
1.28194
1.28457
1.20529
0.799788
0.706848
0.447941
0.233241
0.0767472
0.0416808
0.0324058
0.0226299
0.0377496
0.0451068
0.0441995
0.0365348
0.0448997
0.131506
0.993526
0.396133
0.000150593
0.0296014
0.0254872
0.0228315
0.02541
0.124546
1.88234
2.98096
2.20142
1.07438
0.995306
0.969585
0.612696
0.660721
0.362262
0.115061
0.037485
0.0320357
0.0273143
0.025614
0.0409529
0.0453039
0.0436857
0.0346884
0.0404258
0.210265
1.21889
0.413885
0.00351169
0.0609541
0.0256435
0.0247539
0.0268168
0.063163
0.759275
2.23077
1.93018
0.95226
0.823828
0.806001
0.479262
0.489996
0.145848
0.0409617
0.0261491
0.0282016
0.0277801
0.0281298
0.0420368
0.044395
0.0423639
0.0326766
0.0377078
0.395059
1.44505
0.397886
0.0236537
0.133525
0.0279523
0.0271236
0.0296619
0.0298042
0.102699
0.687054
1.14427
0.665515
0.525448
0.568178
0.0506819
0.0394897
0.0219993
0.0155409
0.0153065
0.0245235
0.0218584
0.0282394
0.0417664
0.0423141
0.0397168
0.0300738
0.0350996
0.509032
1.63494
0.350644
0.0571677
0.237589
0.0300276
0.0283779
0.0309953
0.0275602
0.0223562
0.0470145
0.0874658
0.0728891
0.0501991
0.0566024
0.0128859
0.00710831
0.0142533
0.0117398
0.0161714
0.026188
0.0230056
0.0310222
0.0401817
0.0396204
0.0362855
0.0274782
0.0240882
0.335542
1.76276
0.452215
0.0347236
0.354789
0.030764
0.0279097
0.0302687
0.0264348
0.0197535
0.0218668
0.0274276
0.0316967
0.0216156
0.0148792
0.0159698
0.0114913
0.0122264
0.017222
0.020201
0.0263703
0.0300935
0.0334963
0.0366345
0.0361745
0.0323208
0.0246806
0.0154414
0.0769198
1.73203
0.483971
0.0386443
0.257309
0.0289783
0.0278805
0.0298798
0.0273332
0.0236602
0.0211178
0.0240765
0.0312525
0.0271147
0.0125016
0.0210333
0.0108144
0.0236176
0.0179904
0.0195742
0.0357188
0.0464488
0.0383866
0.0332475
0.032764
0.0285677
0.022587
0.0144421
0.0447309
1.66123
0.608829
0.0515038
0.0269017
0.0281678
0.0291633
0.0303772
0.0277988
0.0243771
0.0197848
0.0229729
0.0357132
0.0306403
0.0183484
0.0244391
0.0178998
0.0257154
0.0219602
0.0271884
0.0371446
0.0588278
0.0395173
0.0296985
0.0293054
0.025102
0.0206586
0.0151383
0.0474169
1.62388
0.629629
0.0971229
0.0233032
0.0280889
0.0298501
0.0320019
0.0309235
0.0269236
0.0202975
0.0227999
0.0292491
0.024851
0.0209277
0.0218578
0.0223028
0.0226966
0.0205043
0.021566
0.017771
0.0165113
0.0191805
0.0246698
0.0247996
0.0213112
0.0190402
0.0142172
0.0489377
1.61588
0.675645
0.0793586
0.0196813
0.0242159
0.025119
0.0276876
0.0315948
0.0309453
0.02779
0.0285758
0.0241126
0.0157781
0.00951141
0.00662104
0.00697138
0.00621953
0.00490427
0.00386215
0.0033782
0.00533424
0.0164597
0.023551
0.0230022
0.0193834
0.0176072
0.0124074
0.0488456
1.63133
0.701223
0.0748625
0.017906
0.0176195
0.0162617
0.0175283
0.0220191
0.0215849
0.0171406
0.0128374
0.0160029
0.0140254
0.0105345
0.00795422
0.00640969
0.00506364
0.00422868
0.0035926
0.00382618
0.00632345
0.0166144
0.0231721
0.0216072
0.0177022
0.0164613
0.0083121
0.0486593
1.63781
0.739402
0.0248064
0.0145511
0.00999141
0.00735538
0.00727485
0.00998393
0.00962622
0.0067481
0.00552736
0.006101
0.00533983
0.00372175
0.00255681
0.00241622
0.00211149
0.00169854
0.0013384
0.00219321
0.00585439
0.016423
0.0214971
0.0192893
0.0170004
0.0162111
0.00369639
0.0506838
1.66578
0.746009
0.0306758
0.0141695
0.00583503
0.00343169
0.00292013
0.00357984
0.00360696
0.00307592
0.00347345
0.00386801
0.00348779
0.00218295
0.00127941
0.00116105
0.00117179
0.00102869
0.00115262
0.00216306
0.00588754
0.015691
0.0203144
0.0178261
0.0162317
0.0160579
0.00319516
0.0521145
1.69795
0.780235
0.0189368
0.0237324
0.00585952
0.00262011
0.00177752
0.00165803
0.00169575
0.00186686
0.00239669
0.0029088
0.00270211
0.00159172
0.000967236
0.0008788
0.000967278
0.000842564
0.000731317
0.00168908
0.00551162
0.0134781
0.0163949
0.0141604
0.0137255
0.0140503
0.00257224
0.0583009
1.78746
0.78714
0.018258
0.0340694
0.00905403
0.00366112
0.00207535
0.00161292
0.00152636
0.00154496
0.00178106
0.00178043
0.0011779
0.000638688
0.000562938
0.000656695
0.000814059
0.000639498
0.000537636
0.00119089
0.00399943
0.00900471
0.0101738
0.00895775
0.00869851
0.00861014
0.00200847
0.0619966
1.84349
0.816247
0.0170406
0.080201
0.0188756
0.00481404
0.00232914
0.00190849
0.0017966
0.0013339
0.000841102
0.000661858
0.000477011
0.000349724
0.000399303
0.000687437
0.000910517
0.00073447
0.000385434
0.000675916
0.00147893
0.00198549
0.00168155
0.0015476
0.00151379
0.00148597
0.00136613
0.0789135
2.0154
0.816895
0.0644048
0.120996
0.0598794
0.0764775
0.122805
0.255712
0.257464
0.146697
0.055643
0.0963475
0.173251
0.293034
0.463447
0.53287
0.552872
0.51434
0.459032
0.363886
0.261867
0.171707
0.102523
0.0586488
0.0426892
0.0370298
0.0484685
0.0979197
0.163244
0.0806587
0.0548979
0.100594
0.0572144
0.0570709
0.0349973
0.0271395
0.185663
0.498368
0.665578
0.68275
0.685999
0.806476
0.826577
0.806029
0.807057
0.760851
0.703332
0.613427
0.51044
0.40886
0.314595
0.219765
0.162279
0.135104
0.161003
0.235979
0.387951
0.120157
0.0350514
0.0456925
0.0802554
0.052811
0.0202581
0.00669384
0.0160335
0.155958
0.256314
0.262273
0.346081
0.97153
0.971762
0.846388
0.789935
0.714017
0.631296
0.560023
0.504761
0.432179
0.335296
0.219329
0.121627
0.073741
0.0811346
0.182419
0.401255
0.118593
0.0427219
0.0365806
0.0859042
0.0405338
0.0157292
0.00602578
0.0110135
0.0570994
0.0916824
0.083567
0.110872
0.404832
0.929231
0.694229
0.366815
0.124313
0.0670179
0.0584037
0.0678684
0.0831031
0.0851886
0.0711138
0.0555028
0.0424577
0.0352366
0.0709688
0.371255
0.14566
0.0324237
0.0329492
0.086634
0.0364489
0.0150105
0.0058722
0.0106793
0.0338794
0.0470796
0.0429984
0.0581839
0.206864
0.806083
0.323349
0.0426784
0.0100982
0.00902089
0.0128756
0.0181039
0.0210482
0.0325058
0.0423529
0.0522189
0.0517922
0.0361789
0.0347804
0.300102
0.141482
0.0342738
0.046097
0.0787459
0.0339977
0.0167839
0.00613967
0.0108899
0.0246481
0.0306596
0.0298461
0.0397731
0.137321
0.611573
0.0999742
0.0116407
0.00692328
0.00610635
0.0094118
0.0153083
0.0157739
0.0186706
0.0240394
0.0350635
0.0523739
0.0404053
0.0309196
0.268402
0.13779
0.0345388
0.0797442
0.0619802
0.0284104
0.0190907
0.00973118
0.0143342
0.0213312
0.0259773
0.0276191
0.0319286
0.0968184
0.477399
0.0500048
0.0185991
0.0160904
0.0120321
0.0120297
0.0164437
0.0138541
0.0131107
0.0180013
0.0252684
0.0425036
0.0415235
0.031385
0.245244
0.136336
0.0332346
0.0548912
0.0410083
0.0239595
0.0228908
0.0231891
0.0731398
0.115658
0.169271
0.168452
0.030641
0.0591217
0.278243
0.0393457
0.0347226
0.0352007
0.0281191
0.0143094
0.0143553
0.010711
0.0109556
0.0168155
0.0231958
0.0323166
0.0405237
0.0337696
0.242744
0.119075
0.048518
0.0322079
0.0310582
0.0215949
0.0261107
0.0459416
0.232997
0.812571
1.12205
0.813659
0.0392466
0.0472082
0.247287
0.0885253
0.0529193
0.0593289
0.0456618
0.0259769
0.0131445
0.00806848
0.0105401
0.0176755
0.0228131
0.0267948
0.0382928
0.0363027
0.250218
0.114165
0.0262939
0.0149523
0.0240233
0.0214925
0.037997
0.136037
0.535154
1.43276
1.67823
0.868374
0.280499
0.238063
0.395297
0.300231
0.180388
0.118859
0.109961
0.0706117
0.013442
0.00733982
0.0123022
0.0202376
0.0234132
0.0231367
0.0337228
0.0384094
0.26814
0.105835
0.012201
0.0103321
0.0197798
0.0203171
0.0370265
0.231289
0.830277
1.68432
2.0682
0.908428
0.717765
0.565965
0.466946
0.268067
0.162715
0.103757
0.0733337
0.0568875
0.0259697
0.00939953
0.0153613
0.0230303
0.0237997
0.0214954
0.0294665
0.0419523
0.283652
0.107396
0.0108574
0.00918268
0.0167579
0.0197757
0.0332616
0.228426
0.982743
1.55712
1.51095
0.932333
0.651013
0.817508
0.408627
0.380412
0.191173
0.14711
0.0559109
0.0427785
0.030163
0.0129619
0.0197923
0.0243595
0.0239716
0.0202648
0.025411
0.0493788
0.301898
0.0965851
0.00992144
0.00935956
0.0156779
0.0196654
0.0256134
0.1474
0.954608
1.32584
0.953914
0.543539
0.515035
0.491413
0.323914
0.288651
0.185072
0.0999806
0.0470443
0.0397994
0.0339961
0.0168931
0.0231294
0.0246973
0.0234788
0.0189211
0.0219508
0.0635518
0.343724
0.0985461
0.00872424
0.0164134
0.0159054
0.020351
0.0229561
0.0753635
0.76821
1.09326
0.808077
0.548965
0.395855
0.489276
0.255715
0.327388
0.146205
0.0529375
0.0281205
0.0335748
0.0275564
0.0197639
0.0243523
0.0242899
0.0225095
0.0174545
0.0192556
0.0965455
0.412404
0.0742215
0.00854862
0.0275751
0.0170834
0.0218568
0.0239618
0.042546
0.33772
0.863381
0.7295
0.381999
0.326649
0.317988
0.18057
0.1795
0.0621346
0.0317452
0.0272489
0.0309747
0.0300642
0.0217993
0.0245388
0.0233675
0.0210623
0.0158866
0.0172598
0.172965
0.489167
0.0646113
0.00732953
0.0541844
0.0191708
0.0237989
0.0267855
0.0249861
0.0611028
0.30539
0.461267
0.284098
0.185616
0.253098
0.0301096
0.0142707
0.020434
0.0150403
0.0148466
0.0273734
0.0216497
0.0221211
0.0236388
0.0217754
0.0192061
0.0141124
0.0157555
0.218691
0.573183
0.0465226
0.00866385
0.093256
0.0213612
0.0246704
0.0288374
0.0247236
0.0187234
0.0290413
0.0461506
0.0502
0.0305183
0.0206592
0.0135414
0.00633551
0.01627
0.0111262
0.0162167
0.0286059
0.0225817
0.0236631
0.0222583
0.0199958
0.0173337
0.0126204
0.0113794
0.151478
0.634645
0.0716676
0.00825592
0.139722
0.0231342
0.0245169
0.0286413
0.025908
0.0185797
0.0167136
0.0194584
0.0314124
0.0220023
0.0147126
0.0172443
0.012972
0.011406
0.0189612
0.0223092
0.0260666
0.0304828
0.024563
0.0195419
0.0178587
0.0154359
0.0112308
0.00835546
0.0366259
0.622982
0.0832915
0.0108596
0.109309
0.0238806
0.0250638
0.0284596
0.0274254
0.0222148
0.0165831
0.0171536
0.0307529
0.0285269
0.0111973
0.0221643
0.00968218
0.0245037
0.0165169
0.0180878
0.0382301
0.0456851
0.0261928
0.0171243
0.0159254
0.0137896
0.010388
0.00828984
0.022634
0.585953
0.121942
0.0134296
0.0189138
0.0251703
0.0268896
0.0290551
0.0279389
0.0230219
0.0155874
0.0155428
0.0383192
0.0338069
0.0175908
0.0253937
0.016783
0.0258499
0.020538
0.0263851
0.0412379
0.0660268
0.0239512
0.0142465
0.0139891
0.0122208
0.00967
0.0084884
0.0241904
0.564506
0.134985
0.0190847
0.0191444
0.0264059
0.0284591
0.0310286
0.0309426
0.0263624
0.0175503
0.0149595
0.0264684
0.0234741
0.0225759
0.0214677
0.0218194
0.0213204
0.0197711
0.0187213
0.0140922
0.0126861
0.0098566
0.0122355
0.0124263
0.0107066
0.00911205
0.00718237
0.0252681
0.559105
0.141933
0.0203055
0.0183018
0.024143
0.0252822
0.0280121
0.0316599
0.0303282
0.0244573
0.0152346
0.0125659
0.00859929
0.00625093
0.00479985
0.00496937
0.00448049
0.00368782
0.00283588
0.002238
0.00335831
0.00835774
0.0121985
0.0119053
0.00991538
0.00856179
0.00598588
0.0249624
0.56346
0.140213
0.0204037
0.017422
0.019161
0.0182151
0.0197175
0.0240553
0.0231721
0.0173294
0.00625822
0.00475379
0.00420966
0.00373681
0.00315256
0.0028096
0.0022521
0.00189631
0.00158827
0.00169014
0.00304911
0.00825268
0.0120445
0.011077
0.00893859
0.00813314
0.0038829
0.0244363
0.568215
0.145115
0.0120151
0.0148266
0.0117455
0.0092886
0.0095809
0.0131805
0.0125918
0.00769053
0.00280714
0.00212426
0.00185772
0.00149581
0.00125977
0.00132121
0.00129989
0.00115306
0.000919404
0.00128857
0.00320476
0.00860005
0.0111612
0.00966066
0.00840724
0.00800931
0.00243183
0.0251025
0.579407
0.141491
0.0113059
0.012962
0.00557625
0.00339105
0.00326366
0.00504822
0.00493165
0.00273836
0.00170224
0.00155578
0.00138313
0.000963591
0.000685531
0.000694765
0.000732652
0.000661947
0.000683326
0.00117047
0.00301012
0.00780899
0.00994837
0.00836695
0.00739898
0.00734246
0.00203912
0.0259791
0.594003
0.140535
0.00502164
0.013266
0.0032043
0.00151659
0.00123179
0.00152851
0.00156171
0.00134738
0.00128539
0.00133149
0.0012051
0.000796521
0.000597163
0.000608537
0.000650522
0.000585893
0.000601415
0.00111316
0.00291669
0.00627443
0.00705051
0.00567888
0.00533606
0.00521691
0.0014345
0.0298718
0.631708
0.138735
0.00310157
0.0134786
0.0032109
0.00132352
0.000880896
0.000838276
0.000874386
0.000961159
0.00108035
0.000967391
0.000566076
0.000354023
0.000380236
0.000500388
0.000556321
0.000472272
0.000448374
0.000688284
0.0017648
0.0032271
0.00327195