/*--------------------------------*- C++ -*----------------------------------*\
| =========                 |                                                 |
| \\      /  F ield         | OpenFOAM: The Open Source CFD Toolbox           |
|  \\    /   O peration     | Version:  2.3.0                                 |
|   \\  /    A nd           | Web:      www.OpenFOAM.org                      |
|    \\/     M anipulation  |                                                 |
\*---------------------------------------------------------------------------*/
FoamFile
{
    version     2.0;
    format      ascii;
    class       volVectorField;
    location    "2.39859";
    object      U;
}
// * * * * * * * * * * * * * * * * * * * * * * * * * * * * * * * * * * * * * //

dimensions      [0 1 -1 0 0 0 0];

internalField   nonuniform List<vector> 
1000
(
(0.00476488 0.019506 -0.00469109)
(0.0168725 0.0139468 -0.00422625)
(0.0418702 0.0154553 -0.00145558)
(0.0659948 0.00518987 -0.00240465)
(0.0902459 0.0140572 -0.00392279)
(0.0899662 0.0336252 -0.00147906)
(0.0766545 0.041161 -0.00188408)
(0.0535978 0.0357664 -0.00347412)
(0.00849442 0.0220822 -0.00389149)
(-0.0332458 0.0111851 -0.00303763)
(-0.0661681 0.0274441 -0.00330057)
(-0.0937342 0.0432455 -0.00146248)
(-0.103988 0.03643 -0.00130366)
(-0.100203 0.0224766 -0.00234977)
(-0.0716029 0.0181962 -0.0037345)
(-0.0340925 0.0243566 -0.00324876)
(-0.0018018 0.0272407 -0.00233193)
(0.0129602 0.0302387 -0.000868346)
(0.013749 0.0250358 -0.00291543)
(0.00571796 0.0192081 -0.00580944)
(0.00350139 0.0139804 -5.88532e-05)
(0.0211763 -0.00403156 0.000805636)
(0.046782 -0.01834 0.000296095)
(0.0676434 -0.0145733 -1.50101e-05)
(0.0757266 -0.00548284 0.000100713)
(0.0728001 0.00717891 -0.000537205)
(0.057236 0.0241485 -0.000595034)
(0.0345302 0.0664912 0.000376321)
(0.00139789 0.118235 -0.00374802)
(-0.0490568 0.102345 -0.00529225)
(-0.0503928 0.0595828 0.000329422)
(-0.0689708 0.0182312 -0.000529273)
(-0.077045 -0.00108492 -0.00132561)
(-0.0727645 -0.0154392 -0.000172699)
(-0.0576672 -0.0291803 0.000457089)
(-0.0361801 -0.0363376 0.000570206)
(-0.0109371 -0.0294379 0.000672892)
(0.00999266 -0.0110773 0.000782691)
(0.00965154 0.0214266 0.000999028)
(0.000681816 0.052586 0.000932735)
(0.0046664 -0.0108145 -0.000690182)
(0.0374533 -0.0400941 -0.00101164)
(0.0578252 -0.0452982 -0.000799203)
(0.0767594 -0.0295581 -0.000351509)
(0.0802912 -0.00588631 0.000322771)
(0.0725859 0.0174527 -0.000430949)
(0.0465574 0.0302096 0.0001392)
(0.0108104 0.087138 0.000992111)
(-0.0200879 0.151815 -0.000634375)
(-0.0383205 0.120757 -0.00461868)
(-0.0412689 0.0627615 0.00098852)
(-0.0732757 0.0221196 -0.00212024)
(-0.0893027 0.00699833 -0.000924223)
(-0.0863325 -0.0228636 0.00045595)
(-0.0799096 -0.0460116 -0.000136352)
(-0.0621678 -0.0600496 -0.000341124)
(-0.0382847 -0.0519313 -0.000453586)
(-0.010086 -0.0207802 -0.000234704)
(-0.00305409 0.0130348 0.000621114)
(-0.00464239 0.0398388 0.000786208)
(0.00999277 -0.027608 -0.000539457)
(0.043321 -0.0600578 -0.000101008)
(0.0622054 -0.0573893 0.000125321)
(0.0804255 -0.0342836 0.000807914)
(0.0779911 0.0016486 0.000694821)
(0.0685041 0.0387296 0.000242244)
(0.0428648 0.0512105 -0.000308065)
(-0.0054547 0.119517 0.000152975)
(-0.0309022 0.178133 0.00161725)
(-0.0316921 0.131816 -0.00341524)
(-0.0387619 0.0707737 0.000120887)
(-0.0752606 0.0406384 -0.00113956)
(-0.0843671 0.0148606 -1.35359e-05)
(-0.0877518 -0.0253194 0.00135965)
(-0.0830667 -0.0577008 0.000715535)
(-0.0712889 -0.0762264 3.70202e-05)
(-0.0523137 -0.0772205 -0.000298811)
(-0.0225878 -0.0394584 -0.000960666)
(-0.00793115 0.00561141 8.34815e-05)
(-0.00380232 0.018677 9.76913e-05)
(0.0120427 -0.0593491 0.000111939)
(0.044929 -0.0911188 -0.000124691)
(0.0617626 -0.0815966 0.000762331)
(0.0764381 -0.0467171 0.00186793)
(0.0666042 0.00489502 0.00111694)
(0.0586655 0.0530653 0.000194773)
(0.0318477 0.0777704 -0.000782981)
(-0.0154828 0.155728 0.00169929)
(-0.0294729 0.199292 0.00130151)
(-0.0222933 0.146897 -0.000689347)
(-0.0355173 0.0795479 -0.00116721)
(-0.0673285 0.0535302 -0.00023135)
(-0.0678187 0.0154443 0.000900537)
(-0.0722661 -0.0292516 0.00172229)
(-0.0719608 -0.0678571 0.00193889)
(-0.0673577 -0.087761 0.000550028)
(-0.052987 -0.0925859 -7.22118e-05)
(-0.0283094 -0.061686 -0.000853524)
(-0.0117768 -0.00277335 -0.000342356)
(-0.00140402 0.0116085 9.4234e-05)
(0.0127174 -0.0867836 0.000221059)
(0.0404514 -0.110964 0.000420553)
(0.0502522 -0.0967408 0.00215947)
(0.05956 -0.0480112 0.00209136)
(0.045852 0.0123922 0.00139416)
(0.0370669 0.0685011 0.000156657)
(0.0189842 0.0951594 -0.000218098)
(-0.022466 0.182007 0.00475644)
(-0.0333611 0.215549 0.000612871)
(-0.0181185 0.154911 0.00162075)
(-0.0256883 0.0910876 -0.000912115)
(-0.044792 0.0645384 0.000419042)
(-0.0364611 0.0187534 0.000910894)
(-0.0368356 -0.0253328 0.00109984)
(-0.0423464 -0.0657794 0.00194947)
(-0.0486403 -0.0947037 0.00169319)
(-0.0433865 -0.103193 0.000309433)
(-0.0254215 -0.0767635 -0.000529528)
(-0.0124764 -0.0136959 -0.000401008)
(0.00129711 0.00654304 -5.27716e-05)
(0.00999553 -0.104877 0.00025354)
(0.0256591 -0.132837 0.000762231)
(0.030966 -0.108795 0.00213026)
(0.0314844 -0.0381944 0.000483847)
(0.00886046 0.026451 0.000546251)
(0.0129525 0.0810508 0.000440619)
(0.00388539 0.113938 -0.000458362)
(-0.0318527 0.202921 0.00567093)
(-0.0299466 0.225617 0.000486528)
(-0.0165471 0.15716 0.00282011)
(-0.0203412 0.0943349 0.00095372)
(-0.025435 0.0597055 0.000615474)
(-0.0140168 0.0098604 0.000148102)
(-0.0140411 -0.0275323 4.39748e-05)
(-0.0160884 -0.055909 0.000782283)
(-0.027599 -0.0932867 0.00153681)
(-0.0269375 -0.110606 0.000507033)
(-0.0188371 -0.0862052 6.29167e-05)
(-0.00893499 -0.0224998 -0.000174113)
(0.00180026 0.00443952 -0.000102927)
(0.00541153 -0.115389 0.000330912)
(0.0131802 -0.14026 0.000651555)
(0.0125547 -0.101223 0.000923293)
(0.00368237 -0.0243589 -0.000168829)
(-0.0112756 0.0230734 -4.31297e-05)
(0.00244008 0.0790487 0.000553626)
(-0.00805089 0.128034 9.98642e-06)
(-0.0393732 0.210769 0.0040907)
(-0.0285592 0.223764 0.000438133)
(-0.0167151 0.15329 0.0027647)
(-0.0158408 0.0910339 0.0015087)
(-0.014538 0.0523833 0.000438789)
(-0.00515847 0.00292734 -8.28771e-05)
(-0.00784475 -0.0296251 6.97456e-05)
(-0.00538139 -0.0538368 0.000463532)
(-0.0135896 -0.0841072 0.00092934)
(-0.0146268 -0.113179 0.000515754)
(-0.0102953 -0.0892528 4.39483e-05)
(-0.00568358 -0.0274931 0.000103594)
(0.00142582 0.00402271 -0.000157905)
(0.00209971 -0.119924 0.000316854)
(0.00499489 -0.144971 0.000324193)
(0.00282053 -0.0965292 -0.000145804)
(-0.00727448 -0.0156165 0.000401192)
(-0.018314 0.017781 0.000279295)
(-0.00324073 0.0732633 0.000544079)
(-0.022362 0.140775 0.00172963)
(-0.0387123 0.215381 0.0019911)
(-0.0249477 0.220384 0.000467455)
(-0.0198314 0.145175 0.00320546)
(-0.0166526 0.0852835 0.000980383)
(-0.0105454 0.0431876 0.000169582)
(-0.00268368 0.000810222 -0.000170657)
(-0.00467644 -0.0292156 0.000414778)
(-0.00152301 -0.0528374 0.000764767)
(-0.00527493 -0.0808059 0.000383018)
(-0.00534621 -0.115472 0.000334373)
(-0.00431231 -0.0886984 1.83518e-05)
(-0.00237492 -0.0297917 0.000146715)
(0.00103491 0.00506888 -0.000127525)
(0.000419476 -0.121893 0.000404073)
(0.000592857 -0.144917 9.8669e-05)
(-0.000363948 -0.0906736 -0.00022534)
(-0.0115755 0.000382375 0.00020887)
(-0.0163287 0.0159704 0.000322175)
(-0.010971 0.0736941 9.78024e-05)
(-0.0246994 0.154954 0.00143693)
(-0.0335163 0.212695 0.000792458)
(-0.0185427 0.20994 0.000114505)
(-0.0174346 0.130663 0.00223133)
(-0.0124438 0.0738716 0.000909739)
(-0.00498766 0.0313081 0.000323342)
(0.000245486 -0.00205283 2.8637e-06)
(-0.00085299 -0.0310226 0.000963189)
(-0.000312591 -0.0515618 0.000171793)
(-0.000924017 -0.0794514 -7.69223e-05)
(-0.000837568 -0.115452 4.07055e-05)
(-0.000906459 -0.0859009 -0.000384315)
(-0.000427905 -0.0302512 -2.58444e-05)
(0.00035217 0.00589638 -3.83543e-06)
(0.00374301 -0.0329502 -0.00399761)
(0.0164779 -0.0301378 -0.00312101)
(0.0426453 -0.0264492 -0.0019735)
(0.0702756 -0.0196554 -0.000968047)
(0.0892379 -0.0270177 -0.000913144)
(0.0973078 -0.0205601 -0.000577932)
(0.0956443 -0.0135335 -0.00082143)
(0.0798566 0.00728465 -0.00262345)
(0.0141157 0.0183378 -0.00322717)
(-0.0337879 0.00807736 -0.00278605)
(-0.0890735 0.0119452 -0.00258275)
(-0.111366 -0.00282832 -0.000351017)
(-0.109312 -0.0172197 -0.000487012)
(-0.0951872 -0.0209301 -0.000954849)
(-0.0698019 -0.0136422 -0.00126609)
(-0.0320132 -0.00871344 -0.000675493)
(0.00276313 0.00514628 -0.000913719)
(0.0220861 0.00547471 -0.000528028)
(0.0227959 -0.00550868 -0.00249984)
(0.00945373 -0.0274022 -0.00528657)
(0.00141434 -0.0131578 -0.000173244)
(0.0262723 -0.0258702 0.000375144)
(0.0528951 -0.0342199 -0.000107073)
(0.0737661 -0.0253281 -0.000294632)
(0.083505 -0.0127726 0.000433675)
(0.0795257 0.00229333 0.000353655)
(0.0598178 0.00864415 0.00131751)
(0.0460172 0.0193409 0.00229579)
(0.00291983 0.0771369 -0.000544798)
(-0.0339353 0.0604317 -0.00427359)
(-0.0664563 0.021565 0.00303654)
(-0.0758114 0.00665156 0.001232)
(-0.0832274 -0.0071207 0.00119082)
(-0.0798768 -0.0214204 0.000508077)
(-0.0628239 -0.0390949 1.85361e-05)
(-0.0412378 -0.0444301 -0.000134838)
(-0.0139236 -0.0362971 0.000277196)
(0.0103508 -0.0141079 0.000712955)
(0.0110261 0.00267873 0.00114532)
(0.000691074 0.0268862 0.00337296)
(0.00604867 -0.0363203 -0.000413821)
(0.0424358 -0.0698057 -0.00117556)
(0.0628601 -0.069194 -0.00114756)
(0.0820805 -0.0459352 -0.000517993)
(0.086985 -0.0152756 1.02678e-05)
(0.0795688 0.014663 5.43657e-05)
(0.0530341 0.0308539 -9.9443e-05)
(0.0239265 0.0504246 0.00355767)
(-0.0130226 0.13304 0.00181237)
(-0.0313752 0.0923298 -0.00293168)
(-0.0588923 0.0398661 0.00351151)
(-0.0829307 0.0221934 0.000516212)
(-0.0974721 0.00082591 0.000431996)
(-0.093108 -0.0326488 -0.000189397)
(-0.0860159 -0.0611054 -0.000671029)
(-0.0679913 -0.0769656 -0.00101172)
(-0.0429766 -0.0665306 -0.000828968)
(-0.0109354 -0.0236249 -0.000268536)
(-0.00466222 0.00933023 0.000367538)
(-0.00574445 0.0248798 0.00261642)
(0.0110919 -0.0663964 -0.000186099)
(0.0465694 -0.0953223 -0.000355517)
(0.0640616 -0.0862742 -0.000431926)
(0.0843809 -0.0530156 0.00029225)
(0.0832168 -0.0075602 0.000341019)
(0.0755512 0.0360686 9.31696e-05)
(0.0479944 0.0532745 -0.000896792)
(0.00459421 0.100489 0.00310224)
(-0.0227536 0.176831 0.000999689)
(-0.0339656 0.106461 -0.00169726)
(-0.0609775 0.062921 0.00292174)
(-0.0819664 0.0440663 0.000417621)
(-0.0919338 0.00776129 0.000371095)
(-0.0935245 -0.0349209 0.000441447)
(-0.0858731 -0.0753301 7.42752e-05)
(-0.0743924 -0.0976572 -0.000818)
(-0.0559761 -0.0996155 -0.000859705)
(-0.0242909 -0.0497305 -0.000967386)
(-0.00913081 0.00392926 -8.44963e-05)
(-0.00412829 0.0157036 2.381e-05)
(0.0121868 -0.102618 0.000129792)
(0.0463359 -0.128948 -0.000460521)
(0.0592928 -0.113277 1.61417e-05)
(0.0791888 -0.0620429 0.00105227)
(0.0704027 -0.00191877 0.000514878)
(0.0647697 0.0519755 0.000186017)
(0.0359462 0.0814388 -0.000553507)
(-0.00620481 0.14156 0.00174418)
(-0.0229825 0.208229 -0.00112136)
(-0.0349962 0.121427 -0.00020195)
(-0.0571608 0.0797343 0.00230447)
(-0.0719076 0.0555843 0.000655283)
(-0.0736381 0.0119224 0.000485576)
(-0.075949 -0.0350547 0.000773511)
(-0.0722973 -0.0817008 0.00084253)
(-0.0643518 -0.11173 -0.000415837)
(-0.0542206 -0.118798 -0.000966943)
(-0.028739 -0.0810932 -0.00117725)
(-0.0132225 -0.00696177 -0.000274041)
(-0.000965468 0.00809671 -0.000273432)
(0.0121458 -0.12877 -0.000337554)
(0.0357871 -0.152341 -0.000389289)
(0.0473355 -0.125942 0.000706379)
(0.0622847 -0.0551574 0.0012938)
(0.0490798 0.00978843 0.000561973)
(0.0420988 0.0697579 0.000317559)
(0.022145 0.0998797 0.000169377)
(-0.0132708 0.172598 0.000457823)
(-0.0289594 0.230391 -0.00253293)
(-0.0318137 0.134098 0.00045867)
(-0.0458512 0.0954149 0.00144573)
(-0.047877 0.0683023 0.0012641)
(-0.0404644 0.0197635 0.000475167)
(-0.0395087 -0.02546 0.000696049)
(-0.0432632 -0.0713619 0.000921029)
(-0.0461683 -0.118899 0.000455987)
(-0.0385034 -0.135564 -0.000497183)
(-0.0241486 -0.103711 -0.00131699)
(-0.013432 -0.0213046 -0.00041203)
(0.00209246 0.00102934 -0.000274881)
(0.00803978 -0.147758 -0.00034898)
(0.0226817 -0.174157 -0.000258841)
(0.0289776 -0.12996 0.000621397)
(0.0330876 -0.0385347 0.000703413)
(0.00977355 0.0277176 0.000343615)
(0.0159578 0.085593 0.000448005)
(0.00672327 0.118814 0.000205351)
(-0.0241696 0.205423 0.0010966)
(-0.0300224 0.247054 -0.00281573)
(-0.0306689 0.140391 -1.00935e-05)
(-0.0357825 0.0993611 0.000623702)
(-0.0271311 0.0649119 0.00113145)
(-0.015612 0.0124938 6.11406e-05)
(-0.015033 -0.0266245 0.000112405)
(-0.0167649 -0.0589007 0.000103339)
(-0.0255688 -0.112496 0.000163461)
(-0.0240332 -0.144436 -0.000361526)
(-0.0158219 -0.119537 -0.000990885)
(-0.00879345 -0.0341408 -0.000562841)
(0.00239878 -0.00337804 -0.000275139)
(0.00432525 -0.157241 -0.000364266)
(0.0107896 -0.181742 -0.000327739)
(0.0121309 -0.116211 0.000282528)
(0.00385196 -0.0250587 8.33336e-05)
(-0.01167 0.0252244 8.71885e-05)
(0.00393845 0.0852875 0.000167675)
(-0.00469408 0.132981 -0.000225172)
(-0.036763 0.222661 0.00139764)
(-0.0285029 0.248683 -0.00209165)
(-0.0288321 0.139817 -0.000134656)
(-0.0244215 0.0980573 0.000258999)
(-0.0155194 0.0583057 0.00061204)
(-0.00536073 0.00463739 -5.86721e-05)
(-0.00832038 -0.028814 -9.50026e-05)
(-0.00527962 -0.0573892 -0.000499868)
(-0.0121354 -0.104071 -9.36009e-05)
(-0.0118193 -0.150579 -0.000434205)
(-0.00815247 -0.128755 -0.000873094)
(-0.00480887 -0.042234 -0.000449438)
(0.00183676 -0.00565778 -0.000287305)
(0.0017103 -0.162673 -0.000306853)
(0.00437796 -0.187324 -0.000269711)
(0.00220434 -0.112328 8.33133e-05)
(-0.00763478 -0.0156714 1.66529e-05)
(-0.0194087 0.0199201 -7.40814e-05)
(-0.00251947 0.0799823 -0.000134422)
(-0.0206625 0.147182 -0.000149257)
(-0.0396666 0.235893 0.000714584)
(-0.0264364 0.246952 -0.00146021)
(-0.028821 0.136248 9.62503e-05)
(-0.0222966 0.0921608 6.01254e-05)
(-0.011129 0.0483305 0.000244635)
(-0.00271074 0.00177475 -1.25539e-05)
(-0.00504179 -0.0291021 -0.000350464)
(-0.00102451 -0.0584975 -0.000647327)
(-0.00450212 -0.100983 -5.54932e-05)
(-0.00432496 -0.153978 -0.000193622)
(-0.00299691 -0.134658 -0.000583304)
(-0.0017007 -0.0462839 -0.000362954)
(0.00125006 -0.00705544 -0.000241551)
(0.00030298 -0.164599 -0.000207222)
(0.000493025 -0.188056 -5.37104e-05)
(-0.000597376 -0.105917 0.00012135)
(-0.0121342 0.00131725 -0.000105165)
(-0.0173884 0.0179211 -9.42203e-05)
(-0.0114166 0.0811089 -0.000194357)
(-0.025915 0.16743 0.000470089)
(-0.0354661 0.236028 0.000104868)
(-0.0205108 0.238999 -0.00106381)
(-0.0242521 0.129844 8.98369e-05)
(-0.0150197 0.0797209 0.000179395)
(-0.00522117 0.0350107 0.000155568)
(5.69219e-06 -0.00158942 -3.40597e-05)
(-0.000873496 -0.0320763 -0.000253722)
(-6.29957e-06 -0.059169 -0.000204979)
(-0.000825531 -0.0992359 4.96146e-05)
(-0.000720965 -0.155549 -8.01994e-05)
(-0.000824938 -0.137938 -9.49174e-05)
(-0.000555686 -0.0481417 -4.94307e-05)
(0.000406873 -0.00752195 -7.72642e-05)
(0.0033349 -0.0530578 -1.59509e-05)
(0.0176488 -0.0477203 -1.5218e-05)
(0.0431611 -0.0430363 -2.02428e-05)
(0.0716617 -0.0323897 -1.53357e-05)
(0.0889375 -0.036127 -3.79186e-06)
(0.097083 -0.0314642 -1.14598e-05)
(0.0961373 -0.0259748 8.84343e-06)
(0.0854083 -0.0050533 -3.60496e-05)
(0.0255294 0.0191335 5.52508e-05)
(-0.03049 0.0170829 0.000420664)
(-0.0932757 0.00421668 1.05071e-05)
(-0.113013 -0.0135826 -4.22514e-05)
(-0.108568 -0.0274915 1.34062e-05)
(-0.0941111 -0.0289398 -1.49563e-05)
(-0.0693439 -0.0206808 2.57701e-05)
(-0.0316968 -0.0164699 4.77941e-05)
(0.00407829 -0.00411527 -2.68237e-05)
(0.0251979 -0.00440937 2.70401e-06)
(0.025615 -0.0172796 -3.06702e-05)
(0.0099727 -0.0483991 -1.20093e-05)
(0.00168398 -0.0386676 4.00489e-06)
(0.0288149 -0.0424773 2.06047e-05)
(0.0555565 -0.04569 1.27855e-05)
(0.0758644 -0.0324118 1.08109e-05)
(0.0862135 -0.0172994 2.15468e-07)
(0.0814853 0.000497684 -7.16212e-07)
(0.0590631 0.00624185 -4.71908e-05)
(0.0423734 0.00723157 6.01479e-05)
(0.00609278 0.0792738 0.000206138)
(-0.0244253 0.0708571 -0.000116642)
(-0.0663515 0.0118654 -7.84927e-05)
(-0.0755069 0.00489465 -1.21743e-05)
(-0.0853937 -0.00899963 -6.19978e-05)
(-0.0825757 -0.0251176 -6.19488e-05)
(-0.0650917 -0.0446566 2.02485e-05)
(-0.0436212 -0.0487653 -3.1089e-05)
(-0.015583 -0.039982 3.13277e-05)
(0.0102572 -0.0153257 1.08587e-05)
(0.0110775 -0.00459541 6.97175e-06)
(-0.000780094 -0.00831517 -3.11925e-05)
(0.00751615 -0.0672466 1.03812e-05)
(0.0443666 -0.0931523 1.73322e-05)
(0.0637909 -0.0871567 1.93624e-05)
(0.0834396 -0.0568669 1.50923e-05)
(0.0889907 -0.0212476 -8.65584e-07)
(0.0821775 0.0122371 1.50463e-05)
(0.0538248 0.0320063 1.53868e-05)
(0.0253227 0.0388449 0.000132216)
(-0.00975606 0.14458 4.15162e-05)
(-0.0274445 0.0935634 -0.0001578)
(-0.0627235 0.033954 1.09297e-05)
(-0.0841507 0.0226545 1.98317e-05)
(-0.100543 -0.00314136 -3.47481e-05)
(-0.0951197 -0.0384662 1.2457e-05)
(-0.0874032 -0.070667 -1.78391e-05)
(-0.0700026 -0.0865013 -1.28951e-05)
(-0.0447521 -0.0750668 6.05193e-06)
(-0.0112353 -0.0248566 4.34668e-06)
(-0.00570839 0.00689017 8.55198e-06)
(-0.00727309 0.0101575 3.56242e-05)
(0.0113016 -0.0970099 -1.39136e-05)
(0.0462756 -0.120211 3.19526e-05)
(0.0624361 -0.106903 2.29222e-05)
(0.0847424 -0.0647202 7.0744e-06)
(0.0843394 -0.0133562 -4.72127e-06)
(0.0780416 0.033659 -9.35333e-07)
(0.0486092 0.0547652 -4.21132e-05)
(0.0101705 0.0840296 2.84783e-05)
(-0.0183372 0.201605 0.000364239)
(-0.0342388 0.103682 -0.000142606)
(-0.0658007 0.0615117 1.14629e-05)
(-0.0837135 0.0445541 1.76417e-05)
(-0.0946102 0.00379929 -1.23692e-05)
(-0.0948107 -0.0403277 1.74079e-06)
(-0.0850342 -0.0853527 -1.34015e-05)
(-0.073515 -0.110674 -2.49946e-06)
(-0.0561763 -0.112988 -1.0983e-05)
(-0.024796 -0.0553441 -2.77915e-06)
(-0.00979556 0.00201496 3.87176e-06)
(-0.00364301 0.0100994 1.5392e-07)
(0.0119517 -0.128122 -5.57116e-06)
(0.0440858 -0.150502 1.79699e-05)
(0.0560735 -0.130312 8.12674e-06)
(0.0785019 -0.0698884 -3.84404e-06)
(0.0708862 -0.00553767 -2.51925e-06)
(0.0667393 0.0506103 -8.82202e-06)
(0.0363591 0.0832566 -3.66343e-05)
(-0.00266995 0.132311 4.76766e-05)
(-0.0203238 0.243095 0.000188836)
(-0.0366075 0.117982 -6.05648e-05)
(-0.062299 0.0791053 1.44798e-05)
(-0.0731203 0.0565009 1.82422e-05)
(-0.0758419 0.010383 -9.99352e-06)
(-0.0765478 -0.0369793 7.40068e-06)
(-0.0706731 -0.0881146 -1.81329e-05)
(-0.060395 -0.125646 -4.49321e-06)
(-0.0514757 -0.134922 2.09671e-07)
(-0.0283937 -0.0917992 -8.8346e-06)
(-0.0140145 -0.0105898 -1.09594e-06)
(0.000110742 0.00103205 -6.67326e-06)
(0.0113883 -0.148984 2.09982e-05)
(0.0322774 -0.172709 -2.6067e-06)
(0.0446869 -0.138715 -5.61174e-06)
(0.0629039 -0.0568375 -1.56175e-05)
(0.0499268 0.00866203 -6.33424e-06)
(0.0438397 0.0695165 -5.07008e-06)
(0.0229233 0.101379 -3.06158e-05)
(-0.00820883 0.160539 6.49708e-05)
(-0.0262942 0.26598 -0.000376989)
(-0.0348414 0.130464 -5.11156e-05)
(-0.0503816 0.0960956 4.41598e-05)
(-0.0488361 0.0701545 1.00887e-05)
(-0.0424098 0.0208552 -9.47523e-06)
(-0.0406674 -0.024175 1.2403e-05)
(-0.043455 -0.0717732 -8.32328e-06)
(-0.0434797 -0.129912 -3.20385e-06)
(-0.0347404 -0.152096 3.5177e-07)
(-0.0227118 -0.117846 3.80147e-06)
(-0.0137492 -0.0267225 5.39997e-06)
(0.00299149 -0.00705492 5.33822e-06)
(0.00728223 -0.166214 1.21935e-05)
(0.0211388 -0.190782 -1.19213e-05)
(0.0280709 -0.135584 -1.1828e-05)
(0.0334625 -0.038374 -1.18643e-05)
(0.0100972 0.0281713 -5.26166e-07)
(0.0171087 0.0867631 -4.40005e-06)
(0.00756809 0.119969 -2.3324e-05)
(-0.0152973 0.19466 5.48236e-05)
(-0.0261964 0.280538 -0.000283909)
(-0.0349153 0.136595 5.17216e-05)
(-0.0403471 0.100232 1.95726e-05)
(-0.0276074 0.0677723 1.577e-05)
(-0.0165087 0.0146509 -9.86751e-06)
(-0.0153751 -0.025052 2.90353e-06)
(-0.0169293 -0.0587139 -1.33449e-06)
(-0.0243634 -0.117901 -8.2198e-06)
(-0.0228203 -0.158219 -1.56063e-06)
(-0.0140722 -0.135476 5.06257e-06)
(-0.00833219 -0.0408833 7.10698e-06)
(0.00262733 -0.0117236 9.00086e-06)
(0.00398926 -0.174279 2.43509e-06)
(0.00973306 -0.197066 5.44293e-06)
(0.011745 -0.120484 -4.88673e-08)
(0.00386118 -0.0251495 5.69282e-06)
(-0.0117379 0.0262232 1.98145e-06)
(0.00456095 0.0872791 -2.54412e-06)
(-0.00251397 0.13181 -1.51656e-05)
(-0.0291167 0.21957 8.92118e-06)
(-0.0251375 0.280623 -0.00016979)
(-0.0340426 0.135946 6.22568e-05)
(-0.0280381 0.100004 9.27763e-06)
(-0.0157857 0.061564 8.85642e-06)
(-0.00549589 0.00633799 -5.787e-06)
(-0.00843345 -0.0271694 1.38462e-06)
(-0.00519144 -0.0569058 3.83647e-06)
(-0.0112646 -0.109798 -1.04299e-05)
(-0.0104601 -0.163796 -2.35568e-06)
(-0.00742235 -0.144011 -7.60467e-06)
(-0.00436281 -0.0487712 1.93795e-06)
(0.0018571 -0.0135405 1.56583e-06)
(0.00156867 -0.179581 4.62478e-06)
(0.00411409 -0.202169 1.1843e-05)
(0.00186422 -0.11588 6.38543e-06)
(-0.00777001 -0.0154769 1.41931e-06)
(-0.0197571 0.0210471 9.75614e-07)
(-0.00197109 0.0821536 -4.75719e-06)
(-0.0177387 0.1435 -4.88733e-06)
(-0.0377268 0.245993 -2.85994e-05)
(-0.0229647 0.277758 -9.97142e-05)
(-0.0338338 0.132079 4.70824e-05)
(-0.0250663 0.0942934 -3.78297e-06)
(-0.0113192 0.0513159 2.65365e-06)
(-0.0026864 0.00296747 -1.17481e-06)
(-0.00519499 -0.0275515 1.14429e-06)
(-0.000808532 -0.0587203 1.52852e-06)
(-0.00452073 -0.104944 6.28341e-08)
(-0.00406465 -0.165523 1.35996e-06)
(-0.00271737 -0.149396 3.98761e-06)
(-0.0014585 -0.0525911 -3.57002e-06)
(0.00122674 -0.0153798 9.45053e-08)
(0.000266606 -0.181374 1.57485e-06)
(0.00045511 -0.202723 -3.17664e-06)
(-0.000679226 -0.109225 -2.16198e-07)
(-0.012342 0.00201387 -2.4485e-07)
(-0.0177903 0.0189738 -1.70902e-07)
(-0.0113516 0.0839689 -1.07395e-06)
(-0.0251712 0.169187 3.67472e-06)
(-0.0340844 0.251584 -1.53066e-05)
(-0.0169326 0.266613 -3.74291e-05)
(-0.0283888 0.127616 2.76611e-05)
(-0.0163724 0.0818185 -4.59474e-06)
(-0.00528935 0.0375082 -1.06922e-07)
(-0.000147303 -0.000808673 4.46735e-07)
(-0.000839973 -0.0316049 -2.18205e-06)
(1.90502e-05 -0.0596814 -1.02214e-06)
(-0.000810212 -0.103171 -9.93289e-07)
(-0.000662833 -0.166797 -7.41654e-07)
(-0.000680905 -0.152001 9.38592e-07)
(-0.000514623 -0.0546005 -3.74537e-07)
(0.000405104 -0.0158082 5.19249e-07)
(0.00373876 -0.0328975 0.0039703)
(0.0164623 -0.0301159 0.00309873)
(0.0426417 -0.0264433 0.00194778)
(0.0702751 -0.0196736 0.000942094)
(0.089235 -0.0270369 0.000908959)
(0.0972844 -0.020581 0.000549834)
(0.0956472 -0.0135309 0.000839042)
(0.0797518 0.00729202 0.00255619)
(0.0141688 0.0182171 0.0033823)
(-0.0330395 0.0094708 0.00303877)
(-0.0884843 0.0121603 0.00265302)
(-0.111295 -0.00270356 0.00017135)
(-0.109339 -0.0172401 0.000509643)
(-0.0951644 -0.0210018 0.000938212)
(-0.0697735 -0.0136461 0.00129861)
(-0.0320174 -0.00868288 0.000786473)
(0.00275599 0.00506452 0.000861644)
(0.0221054 0.00542576 0.000531699)
(0.0227907 -0.00547002 0.00245264)
(0.00945118 -0.0273518 0.0052722)
(0.00139209 -0.0132617 0.000181833)
(0.0263306 -0.0259931 -0.000349157)
(0.052915 -0.0343123 0.000131571)
(0.0737877 -0.0254185 0.000316763)
(0.0835179 -0.012776 -0.000430543)
(0.0795361 0.0021841 -0.000352792)
(0.0598122 0.00882107 -0.00138184)
(0.0458316 0.0190041 -0.00224409)
(0.00412512 0.0774206 0.000885285)
(-0.0334283 0.0624344 0.00418558)
(-0.0661573 0.0220844 -0.00317063)
(-0.075766 0.0067856 -0.00151955)
(-0.0830113 -0.00655675 -0.000848184)
(-0.0798285 -0.0215277 -0.000389496)
(-0.0627807 -0.0388841 -1.68036e-05)
(-0.0411738 -0.0441961 8.65718e-05)
(-0.0139474 -0.0363366 -0.000226875)
(0.010371 -0.0140858 -0.000696927)
(0.0110135 0.00251943 -0.00113205)
(0.00068618 0.0266917 -0.00341515)
(0.00605341 -0.0363543 0.000424005)
(0.0424498 -0.0698747 0.00119369)
(0.0628724 -0.069268 0.00117712)
(0.0820985 -0.0459922 0.000546062)
(0.0869641 -0.0152754 -5.81691e-06)
(0.0795784 0.0146148 -2.7173e-05)
(0.0531388 0.0309627 -0.000142971)
(0.0239604 0.0495317 -0.00326247)
(-0.0123186 0.132935 -0.00196576)
(-0.0312926 0.0932725 0.00277409)
(-0.0589549 0.0400631 -0.00350914)
(-0.0828125 0.0221063 -0.000535175)
(-0.0975041 0.000918395 -0.000429655)
(-0.0930697 -0.0326773 0.00021332)
(-0.0860063 -0.060947 0.000648569)
(-0.0679859 -0.0768654 0.000994929)
(-0.0429531 -0.0663935 0.000837373)
(-0.0109145 -0.0235733 0.000274442)
(-0.00468588 0.00927011 -0.000356478)
(-0.00575356 0.0246437 -0.00258027)
(0.0110711 -0.0663435 0.000166832)
(0.0466099 -0.0953944 0.000378386)
(0.0640805 -0.0863388 0.000456072)
(0.0844086 -0.0530232 -0.000282233)
(0.083189 -0.00756786 -0.000327407)
(0.0755481 0.0360686 -0.000156063)
(0.0481422 0.0532361 0.000745464)
(0.00427056 0.100692 -0.00265577)
(-0.0218968 0.177274 -0.00133408)
(-0.0340169 0.107181 0.00159194)
(-0.0609582 0.0629539 -0.00294151)
(-0.0819014 0.0440282 -0.000375164)
(-0.0919856 0.00784506 -0.000381241)
(-0.0934836 -0.0349836 -0.000439359)
(-0.0859039 -0.0752353 -0.000105204)
(-0.0744132 -0.0976053 0.000819108)
(-0.0559722 -0.0995559 0.000844466)
(-0.0242884 -0.0496372 0.000962747)
(-0.00913762 0.00392868 8.97323e-05)
(-0.00412548 0.0156704 -1.85788e-05)
(0.0121883 -0.10276 -0.000139635)
(0.0463382 -0.128822 0.000468761)
(0.0593266 -0.113128 -2.22113e-05)
(0.0792282 -0.0619783 -0.00106851)
(0.0704047 -0.00190029 -0.000515974)
(0.0647931 0.0519443 -0.000219476)
(0.0359574 0.0816326 0.000556536)
(-0.0066041 0.141695 -0.00151553)
(-0.0214522 0.210091 0.00106395)
(-0.0352802 0.121471 -4.30499e-05)
(-0.0571697 0.0798367 -0.00227172)
(-0.0718465 0.0555219 -0.000628987)
(-0.0736903 0.011969 -0.000499653)
(-0.0758774 -0.035131 -0.000763289)
(-0.0722992 -0.0816916 -0.000869053)
(-0.064368 -0.11171 0.000412229)
(-0.0542401 -0.118777 0.000968633)
(-0.0287329 -0.0810411 0.00116698)
(-0.0132334 -0.0069769 0.000272513)
(-0.000948727 0.00805551 0.000268847)
(0.0121348 -0.128889 0.000361563)
(0.0358303 -0.152106 0.00037591)
(0.0473779 -0.125782 -0.000734587)
(0.0623266 -0.055096 -0.00132438)
(0.0491038 0.00979923 -0.00057258)
(0.0421201 0.0697457 -0.000331042)
(0.0221 0.100037 -0.00015501)
(-0.0133161 0.172042 -0.000269241)
(-0.0279605 0.231164 0.00268637)
(-0.0318583 0.134357 -0.000665551)
(-0.0459713 0.0954179 -0.00142323)
(-0.0478112 0.0682161 -0.001245)
(-0.0405023 0.0197793 -0.000490102)
(-0.0394724 -0.0254901 -0.000676584)
(-0.0432298 -0.0713987 -0.000932381)
(-0.0461696 -0.118875 -0.000461971)
(-0.0385048 -0.135541 0.000499502)
(-0.0241524 -0.103739 0.00132222)
(-0.0134366 -0.0213253 0.000418692)
(0.00210397 0.000960956 0.000279805)
(0.00802483 -0.147769 0.0003654)
(0.0226883 -0.174053 0.000247869)
(0.0289901 -0.129914 -0.000645574)
(0.0330879 -0.0385587 -0.000721829)
(0.00978065 0.0277104 -0.000344294)
(0.0159636 0.0855891 -0.000455009)
(0.0066701 0.118858 -0.00020982)
(-0.0240926 0.205139 -0.00097842)
(-0.0295687 0.247929 0.00311485)
(-0.030673 0.140558 -0.000231665)
(-0.0361216 0.0992814 -0.00065534)
(-0.0270344 0.0648198 -0.00112139)
(-0.0156285 0.0125045 -7.49988e-05)
(-0.0150318 -0.0266505 -0.000108117)
(-0.0167539 -0.0589623 -0.000105527)
(-0.0255705 -0.112482 -0.000174129)
(-0.0240435 -0.144389 0.000357548)
(-0.0158206 -0.119486 0.000992431)
(-0.00879554 -0.0341208 0.000571233)
(0.00240013 -0.00339965 0.000284839)
(0.00433107 -0.157251 0.000367449)
(0.0108051 -0.181793 0.000353786)
(0.0121079 -0.116213 -0.000279156)
(0.00385051 -0.0250658 -7.50853e-05)
(-0.0116703 0.0252229 -8.3925e-05)
(0.00393958 0.0852938 -0.00016918)
(-0.00471971 0.132989 0.000246659)
(-0.0367647 0.222601 -0.00135474)
(-0.0283422 0.249157 0.00239136)
(-0.0288502 0.139963 -7.09155e-06)
(-0.0246321 0.0980675 -0.000231526)
(-0.0154699 0.0582285 -0.000610169)
(-0.00536474 0.00464256 5.09953e-05)
(-0.00831943 -0.028839 9.54667e-05)
(-0.00527685 -0.0574587 0.00050498)
(-0.0121238 -0.104113 8.83284e-05)
(-0.0118171 -0.150565 0.000431971)
(-0.00815951 -0.128735 0.00086762)
(-0.00481181 -0.0421852 0.000449489)
(0.00183564 -0.00565527 0.000289572)
(0.00171469 -0.162673 0.000315446)
(0.00434642 -0.187729 0.000300141)
(0.00219823 -0.112296 -7.97838e-05)
(-0.00763229 -0.015668 -1.38424e-05)
(-0.0194084 0.0199214 7.52536e-05)
(-0.00252104 0.0799904 0.000130407)
(-0.0207014 0.147163 0.000176551)
(-0.0397309 0.235907 -0.000723798)
(-0.0264634 0.247289 0.0016303)
(-0.028836 0.136385 -0.000216529)
(-0.022381 0.0922538 -1.34248e-05)
(-0.0111172 0.0482884 -0.000245781)
(-0.00271522 0.00177422 1.06989e-05)
(-0.00503891 -0.0291319 0.000351381)
(-0.00102687 -0.0585502 0.000654181)
(-0.00450173 -0.101024 5.28674e-05)
(-0.0043227 -0.153949 0.000195608)
(-0.00299422 -0.134663 0.000587899)
(-0.00170382 -0.0462327 0.000359718)
(0.00124968 -0.00705915 0.00024224)
(0.000301385 -0.164591 0.000209766)
(0.000498279 -0.188715 0.000120825)
(-0.000594023 -0.105864 -0.000123926)
(-0.012132 0.00131802 0.000104566)
(-0.0173879 0.0179303 9.42334e-05)
(-0.0114192 0.0811204 0.000193751)
(-0.0259427 0.167428 -0.000458916)
(-0.0355138 0.236012 -0.000101143)
(-0.0205806 0.23909 0.00114226)
(-0.0242607 0.129941 -0.000135407)
(-0.015029 0.0798417 -0.000159546)
(-0.00522178 0.034994 -0.000157666)
(4.07136e-06 -0.0015921 3.46913e-05)
(-0.000869715 -0.0320954 0.000254217)
(-5.72423e-06 -0.0592154 0.000208562)
(-0.000824189 -0.0992847 -5.2407e-05)
(-0.00072156 -0.155527 7.85023e-05)
(-0.000822704 -0.137928 9.66467e-05)
(-0.000559737 -0.0480901 4.75598e-05)
(0.000406462 -0.00752605 7.78488e-05)
(0.00476891 0.0195359 0.00467498)
(0.0168605 0.0139652 0.00421235)
(0.0418599 0.0154261 0.00144934)
(0.0659877 0.00513576 0.0023863)
(0.0902148 0.0139634 0.00391088)
(0.0899564 0.033519 0.00145773)
(0.076526 0.0411235 0.00188878)
(0.053627 0.0358442 0.00352952)
(0.00881868 0.0220585 0.00388172)
(-0.0323812 0.0118792 0.003208)
(-0.0647655 0.0266972 0.00348551)
(-0.0933221 0.043127 0.00124993)
(-0.103905 0.0361525 0.0012521)
(-0.100137 0.022442 0.00235035)
(-0.0715475 0.0181321 0.00373427)
(-0.0341304 0.0246358 0.0033555)
(-0.001788 0.0269525 0.00227685)
(0.0129953 0.03017 0.000870439)
(0.013762 0.0250589 0.00289105)
(0.00571557 0.0192622 0.0057991)
(0.00347803 0.0138038 6.4836e-05)
(0.0212046 -0.00414746 -0.0007885)
(0.0467851 -0.0184184 -0.000276181)
(0.0676572 -0.0146589 2.92986e-05)
(0.0757546 -0.00548508 -0.000102192)
(0.0727396 0.00702708 0.000517733)