/*--------------------------------*- C++ -*----------------------------------*\
| =========                 |                                                 |
| \\      /  F ield         | OpenFOAM: The Open Source CFD Toolbox           |
|  \\    /   O peration     | Version:  2.3.0                                 |
|   \\  /    A nd           | Web:      www.OpenFOAM.org                      |
|    \\/     M anipulation  |                                                 |
\*---------------------------------------------------------------------------*/
FoamFile
{
    version     2.0;
    format      ascii;
    class       volScalarField;
    location    "0.158";
    object      k;
}
// * * * * * * * * * * * * * * * * * * * * * * * * * * * * * * * * * * * * * //

dimensions      [0 2 -2 0 0 0 0];

internalField   nonuniform List<scalar> 
545
(
127457
121373
111665
103289
97557.5
129925
121653
111368
102778
96599.9
134167
121881
110655
101717
94887
140582
121696
109512
100199
92268.2
150092
120651
108196
98571.1
88578.5
94627.7
93027.4
92518.2
92357.5
92306.7
92290.2
92284.3
92281.8
92280.3
92279.2
92278.2
92277.3
92276.4
92275.6
92274.8
92274
92273.2
92272.5
92271.7
92271.1
92270.4
92269.8
92269.2
92268.6
92268
92267.5
92267
92266.5
92266.1
92265.7
92265.3
92264.9
92264.6
92264.3
92264
92263.7
92263.5
92263.3
92263.1
92263
92262.8
92262.7
92262.7
92262.6
92262.6
93894.8
92803
92447.2
92335.2
92299.7
92288
92283.6
92281.5
92280.2
92279.2
92278.2
92277.3
92276.4
92275.6
92274.7
92273.9
92273.2
92272.4
92271.7
92271
92270.4
92269.7
92269.1
92268.5
92268
92267.5
92267
92266.5
92266.1
92265.6
92265.3
92264.9
92264.6
92264.2
92264
92263.7
92263.5
92263.3
92263.1
92262.9
92262.8
92262.7
92262.6
92262.6
92262.6
92828.3
92427.2
92326.7
92297.5
92287.9
92284.3
92282.4
92281.2
92280.1
92279.1
92278.2
92277.3
92276.4
92275.5
92274.7
92273.9
92273.1
92272.4
92271.7
92271
92270.3
92269.7
92269.1
92268.5
92268
92267.4
92267
92266.5
92266
92265.6
92265.2
92264.9
92264.5
92264.2
92263.9
92263.7
92263.4
92263.2
92263.1
92262.9
92262.8
92262.7
92262.6
92262.6
92262.5
91441.1
91988.6
92191.5
92255.7
92275
92280.3
92281.2
92280.8
92280
92279.1
92278.1
92277.2
92276.4
92275.5
92274.7
92273.9
92273.1
92272.4
92271.7
92271
92270.3
92269.7
92269.1
92268.5
92268
92267.4
92266.9
92266.5
92266
92265.6
92265.2
92264.9
92264.5
92264.2
92263.9
92263.7
92263.4
92263.2
92263
92262.9
92262.8
92262.7
92262.6
92262.5
92262.5
89824
91617.6
92084.3
92223
92264.9
92277.1
92280.2
92280.5
92279.9
92279
92278.1
92277.2
92276.4
92275.5
92274.7
92273.9
92273.1
92272.4
92271.7
92271
92270.3
92269.7
92269.1
92268.5
92267.9
92267.4
92266.9
92266.5
92266
92265.6
92265.2
92264.8
92264.5
92264.2
92263.9
92263.7
92263.4
92263.2
92263
92262.9
92262.8
92262.7
92262.6
92262.5
92262.5
90003.8
91504.7
92040.8
92209.1
92260.6
92275.8
92279.8
92280.3
92279.8
92279
92278.1
92277.2
92276.4
92275.5
92274.7
92273.9
92273.1
92272.4
92271.7
92271
92270.3
92269.7
92269.1
92268.5
92267.9
92267.4
92266.9
92266.5
92266
92265.6
92265.2
92264.8
92264.5
92264.2
92263.9
92263.7
92263.4
92263.2
92263
92262.9
92262.8
92262.7
92262.6
92262.5
92262.5
150092
120651
108196
98571.1
88578.5
140582
121696
109512
100199
92268.2
134167
121881
110655
101717
94887
129925
121653
111368
102778
96599.9
127457
121373
111665
103289
97557.5
89824
91617.6
92084.3
92223
92264.9
92277.1
92280.2
92280.5
92279.9
92279
92278.1
92277.2
92276.4
92275.5
92274.7
92273.9
92273.1
92272.4
92271.7
92271
92270.3
92269.7
92269.1
92268.5
92267.9
92267.4
92266.9
92266.5
92266
92265.6
92265.2
92264.8
92264.5
92264.2
92263.9
92263.7
92263.4
92263.2
92263
92262.9
92262.8
92262.7
92262.6
92262.5
92262.5
91441.1
91988.6
92191.5
92255.7
92275
92280.3
92281.2
92280.8
92280
92279.1
92278.1
92277.2
92276.4
92275.5
92274.7
92273.9
92273.1
92272.4
92271.7
92271
92270.3
92269.7
92269.1
92268.5
92268
92267.4
92266.9
92266.5
92266
92265.6
92265.2
92264.9
92264.5
92264.2
92263.9
92263.7
92263.4
92263.2
92263
92262.9
92262.8
92262.7
92262.6
92262.5
92262.5
92828.3
92427.2
92326.7
92297.5
92287.9
92284.3
92282.4
92281.2
92280.1
92279.1
92278.2
92277.3
92276.4
92275.5
92274.7
92273.9
92273.1
92272.4
92271.7
92271
92270.3
92269.7
92269.1
92268.5
92268
92267.4
92267
92266.5
92266
92265.6
92265.2
92264.9
92264.5
92264.2
92263.9
92263.7
92263.4
92263.2
92263.1
92262.9
92262.8
92262.7
92262.6
92262.6
92262.5
93894.8
92803
92447.2
92335.2
92299.7
92288
92283.6
92281.5
92280.2
92279.2
92278.2
92277.3
92276.4
92275.6
92274.7
92273.9
92273.2
92272.4
92271.7
92271
92270.4
92269.7
92269.1
92268.5
92268
92267.5
92267
92266.5
92266.1
92265.6
92265.3
92264.9
92264.6
92264.2
92264
92263.7
92263.5
92263.3
92263.1
92262.9
92262.8
92262.7
92262.6
92262.6
92262.6
94627.7
93027.4
92518.2
92357.5
92306.7
92290.1
92284.3
92281.8
92280.3
92279.2
92278.2
92277.3
92276.4
92275.6
92274.8
92274
92273.2
92272.4
92271.7
92271
92270.4
92269.8
92269.2
92268.6
92268
92267.5
92267
92266.5
92266.1
92265.7
92265.3
92264.9
92264.6
92264.3
92264
92263.7
92263.5
92263.3
92263.1
92263
92262.8
92262.7
92262.7
92262.6
92262.6
)
;

boundaryField
{
    AirInlet
    {
        type            fixedValue;
        value           uniform 0.1;
    }
    WaterInlet
    {
        type            fixedValue;
        value           uniform 0.1;
    }
    ChannelWall
    {
        type            fixedValue;
        value           uniform 0.1;
    }
    Outlet
    {
        type            inletOutlet;
        inletValue      uniform 0.1;
        value           nonuniform List<scalar> 
11
(
92262.6
92262.6
92262.5
92262.5
92262.5
92262.5
92262.5
92262.5
92262.5
92262.6
92262.6
)
;
    }
    FrontAndBack
    {
        type            empty;
    }
}


// ************************************************************************* //
