/*--------------------------------*- C++ -*----------------------------------*\
| =========                 |                                                 |
| \\      /  F ield         | OpenFOAM: The Open Source CFD Toolbox           |
|  \\    /   O peration     | Version:  2.3.0                                 |
|   \\  /    A nd           | Web:      www.OpenFOAM.org                      |
|    \\/     M anipulation  |                                                 |
\*---------------------------------------------------------------------------*/
FoamFile
{
    version     2.0;
    format      ascii;
    class       volScalarField;
    location    "4.79864";
    object      alpha.air;
}
// * * * * * * * * * * * * * * * * * * * * * * * * * * * * * * * * * * * * * //

dimensions      [0 0 0 0 0 0 0];

internalField   nonuniform List<scalar> 
1000
(
0.430141
0.352309
0.294882
0.234489
0.207943
0.182841
0.155413
0.134206
0.119051
0.11928
0.12016
0.126337
0.147225
0.275409
0.32622
0.216035
0.129213
0.119153
0.125622
0.254143
0.366163
0.204943
0.0761003
0.0159476
0.00795606
0.00549373
0.00310297
0.00176648
0.00107814
0.00204404
0.00419873
0.00634286
0.0100476
0.076334
0.238584
0.179204
0.0260865
0.0410209
0.0452529
0.15648
0.330625
0.103761
0.00674035
0.000178675
2.90316e-05
1.33517e-05
4.34657e-06
5.18537e-06
0.000118321
0.00264099
0.0134772
0.0276887
0.0238714
0.0323846
0.177375
0.158263
0.0528029
0.0622603
0.0719552
0.131925
0.308628
0.0633873
0.00336581
0.000173844
5.44454e-07
1.363e-08
3.02122e-08
1.1057e-06
0.000123893
0.00607967
0.0335762
0.0574828
0.0505596
0.0376457
0.149701
0.148326
0.0850375
0.0782674
0.0873769
0.123062
0.295004
0.0548723
0.00110572
0.000392013
8.5008e-07
4.32937e-09
2.00095e-08
3.00401e-07
0.000140157
0.00834168
0.0463486
0.0687148
0.0447418
0.0527772
0.156646
0.148759
0.115074
0.0979856
0.0967985
0.116214
0.287703
0.0575668
0.000792614
0.000419449
8.41657e-07
1.4661e-09
1.17737e-08
1.33381e-07
0.000175691
0.00854846
0.0459563
0.0673286
0.0614745
0.084437
0.170426
0.163409
0.152434
0.138456
0.105582
0.109688
0.283032
0.0519109
0.0014325
0.00015532
2.82814e-07
7.71759e-10
1.46001e-09
2.42306e-08
2.06108e-05
0.00153357
0.0185099
0.0626833
0.0970175
0.11653
0.16366
0.137725
0.139134
0.137683
0.125789
0.105692
0.280269
0.0227009
0.00170965
2.16968e-05
4.0539e-08
8.61243e-11
1.0777e-10
4.67438e-09
8.51728e-08
2.3018e-05
0.000878527
0.00907454
0.0321552
0.0480327
0.01064
0.00589281
0.0101061
0.0887147
0.118579
0.103747
0.276189
0.00387798
0.00146964
1.14321e-06
9.97981e-09
7.57415e-12
2.3175e-13
2.07772e-11
7.38907e-10
1.10195e-08
2.35112e-06
6.67949e-05
0.000475783
0.0010174
1.84828e-05
8.05505e-06
8.32607e-05
0.0389234
0.103237
0.102048
0.270071
0.00303184
0.000296811
8.33103e-09
3.52782e-10
1.1536e-12
3.07466e-16
9.90881e-18
8.54671e-17
3.22192e-14
7.37136e-12
1.02074e-09
1.15486e-07
3.13638e-07
2.23086e-11
1.45595e-10
2.27656e-07
0.0154437
0.0813213
0.0991821
0.350037
0.229326
0.192933
0.165306
0.15379
0.130131
0.107292
0.0921971
0.0802798
0.0572245
0.056591
0.0627827
0.0723483
0.0957693
0.176014
0.255257
0.130975
0.114959
0.120674
0.242879
0.218171
0.0985514
0.0269833
0.0047933
0.00288644
0.00206234
0.00114991
0.000626169
0.000342625
0.00108741
0.00476566
0.0123956
0.0144943
0.0380433
0.102527
0.150436
0.0348819
0.0410622
0.044171
0.149533
0.178608
0.0496448
0.00144191
2.6792e-05
3.66033e-06
2.20042e-06
6.04984e-07
3.92901e-07
4.27443e-05
0.00237867
0.0153689
0.0302895
0.0291098
0.0307884
0.0814169
0.0975914
0.0541748
0.0526813
0.0573689
0.122562
0.16097
0.0334204
0.00223138
2.3481e-05
5.61323e-08
3.25707e-09
1.03333e-08
7.49267e-08
6.63907e-05
0.00407019
0.0260472
0.0402961
0.0385505
0.0330523
0.0842601
0.0915892
0.0719572
0.0610119
0.0631353
0.115
0.149405
0.0359809
0.000571958
2.51616e-05
5.25111e-08
1.49748e-09
6.41044e-09
4.90002e-08
7.36017e-05
0.00500024
0.0313582
0.0451099
0.0361203
0.0396046
0.085931
0.086936
0.0817182
0.0711012
0.0657399
0.109291
0.149513
0.0471158
0.00024144
8.16998e-06
2.66903e-08
3.27556e-10
1.86913e-09
4.1334e-08
3.63159e-05
0.00275606
0.024946
0.0472865
0.0418597
0.0529404
0.089657
0.0918577
0.0868212
0.0792374
0.0614314
0.104603
0.149436
0.0456978
0.000506008
7.96387e-07
6.8724e-09
1.36779e-10
3.36417e-10
2.52966e-09
2.77236e-06
0.000463915
0.0100311
0.0459244
0.0730347
0.0869172
0.100983
0.0772809
0.0852749
0.0832172
0.0739229
0.0914412
0.146957
0.02043
0.000664597
2.55923e-08
1.07138e-09
4.5813e-12
1.84485e-11
3.17e-10
5.74902e-09
4.69776e-06
0.000281789
0.00282459
0.00905819
0.0138477
0.00353487
0.00172367
0.00272274
0.0380723
0.0695546
0.0825726
0.142374
0.00232274
0.000478051
2.5192e-09
7.41083e-11
7.51213e-13
1.2354e-14
1.66618e-12
6.70815e-11
9.86939e-10
2.3393e-07
7.12002e-06
3.40848e-05
4.85116e-05
2.09772e-06
3.84413e-07
2.92419e-06
0.012835
0.0596601
0.0774623
0.133944
0.00139181
5.05827e-05
1.77258e-10
7.20762e-13
7.3892e-14
2.5247e-19
1.46471e-20
1.77832e-17
1.06055e-14
3.41757e-12
5.27666e-10
1.48996e-09
9.21788e-10
2.83845e-12
6.48378e-12
1.21758e-08
0.00297104
0.0458657
0.0716065
0.323406
0.197397
0.166095
0.146062
0.138139
0.115036
0.0975494
0.0880121
0.0773485
0.0587423
0.050429
0.0544251
0.0624031
0.0768506
0.157895
0.260872
0.132615
0.111715
0.117494
0.239344
0.14692
0.0207366
0.00454143
0.00209751
0.0020082
0.00120648
0.000642639
0.000408856
0.000248249
0.000372965
0.00134323
0.00447135
0.00676159
0.0116261
0.0426702
0.12859
0.0376917
0.0386291
0.0397603
0.149285
0.0958892
0.0110765
0.000513078
4.57955e-06
1.44115e-06
5.78593e-07
1.28177e-07
2.60088e-07
1.44687e-05
0.000501982
0.00418429
0.0125089
0.0165238
0.0173903
0.0291095
0.0694663
0.0462583
0.0478248
0.0488267
0.123904
0.0794294
0.0106391
0.000941562
3.69476e-06
9.74461e-09
2.15258e-09
6.39622e-09
1.52921e-07
1.81985e-05
0.000886529
0.0079421
0.0191978
0.0205613
0.0193994
0.0311916
0.0538123
0.0525242
0.0550173
0.053216
0.11656
0.0692861
0.0172552
0.000208237
3.42495e-06
7.64346e-09
1.09914e-09
4.73732e-09
5.8345e-08
1.55572e-05
0.00110942
0.0104742
0.022836
0.022014
0.0206542
0.035263
0.0543222
0.0638829
0.0605445
0.0549486
0.111368
0.0603168
0.0375991
9.67297e-05
6.80831e-07
3.16983e-09
2.13683e-10
2.36869e-09
1.49493e-08
5.31232e-06
0.000676772
0.00890681
0.0254728
0.0288847
0.0277781
0.0437297
0.0558198
0.0579012
0.0564074
0.0431155
0.102439
0.0527019
0.034522
0.00020838
3.52556e-08
6.83936e-10
4.43583e-11
3.42664e-10
1.33083e-09
4.60857e-07
0.000151014
0.00421796
0.022029
0.0420261
0.0496369
0.0427548
0.0256616
0.0256784
0.0327589
0.0307313
0.0762725
0.0464415
0.0107121
0.000250878
2.37258e-09
1.02347e-10
5.92221e-12
2.70521e-11
2.16304e-10
1.73301e-09
4.77003e-06
0.000565567
0.00384979
0.00407005
0.00479454
0.00390767
0.00211089
0.000630378
0.00398617
0.0167136
0.0594732
0.041783
0.000663671
0.000139906
8.12756e-11
9.05892e-12
1.09832e-12
1.11626e-14
2.17301e-12
1.12706e-10
2.85937e-09
4.9451e-06
0.000317637
0.00154295
0.000787142
3.42855e-05
6.63778e-06
1.66377e-05
0.000710778
0.0101973
0.0480781
0.0370646
0.00031951
9.77755e-06
5.33612e-12
3.44382e-13
1.11146e-13
2.88766e-20
1.92339e-18
2.5633e-15
1.41771e-12
4.19439e-10
1.4126e-07
5.70214e-06
1.74698e-06
6.17905e-10
2.16205e-12
3.19364e-09
0.000489668
0.00770317
0.0380586
0.3204
0.194084
0.184906
0.170553
0.156743
0.129223
0.107958
0.0935239
0.0816491
0.0621039
0.0567147
0.0618591
0.0704318
0.0923817
0.172397
0.260573
0.13809
0.124623
0.128629
0.247322
0.152756
0.00515227
0.00359017
0.00375025
0.0045456
0.00218967
0.00126995
0.000739876
0.000776928
0.00194933
0.00501487
0.0118072
0.0131118
0.0402892
0.100662
0.152461
0.0353222
0.0475098
0.0466378
0.155233
0.103746
0.00136913
0.000134691
1.936e-05
7.40259e-06
3.12131e-06
1.28074e-06
1.50803e-05
0.000313591
0.00402066
0.0126269
0.0271728
0.0250694
0.0278029
0.0833243
0.0989851
0.0532387
0.0641033
0.0586173
0.127675
0.0874334
0.00160503
0.000219688
2.51155e-05
6.5099e-08
1.0519e-08
5.33135e-08
7.59988e-06
0.000427311
0.00675246
0.0195644
0.0352299
0.0346253
0.0307889
0.0856416
0.0915036
0.0705551
0.076469
0.0645199
0.119347
0.0818374
0.00428013
0.000126761
2.69213e-05
5.86541e-08
4.70469e-09
1.27875e-08
2.84399e-06
0.000502595
0.0083967
0.0236504
0.036531
0.0415516
0.0370219
0.0953683
0.0950801
0.0964824
0.087834
0.067399
0.113359
0.0792641
0.0116153
0.00020893
7.97809e-06
2.74252e-08
4.0511e-10
5.04045e-09
1.45837e-06
0.000386449
0.00705278
0.0208766
0.0307409
0.0511868
0.0573584
0.0877129
0.0847718
0.0759912
0.0711553
0.0516595
0.10684
0.0754147
0.00906904
0.000533313
7.52331e-07
6.95966e-09
1.98226e-10
6.35263e-09
1.47517e-07
7.68617e-05
0.00311011
0.0185383
0.0261644
0.0355619
0.0423584
0.0377855
0.0192865
0.0176691
0.0198566
0.0187332
0.0767469
0.0706742
0.00218414
0.000682895
2.41284e-08
1.09817e-09
6.62804e-12
1.24587e-10
1.12599e-09
3.98257e-07
0.00012903
0.00672941
0.0340788
0.0351965
0.0371846
0.0382849
0.0294377
0.0182971
0.0267146
0.0206506
0.0587465
0.0656876
0.000742928
0.000483534
2.53937e-09
7.54892e-11
7.52889e-13
9.16703e-14
1.2729e-11
7.43342e-10
1.40058e-07
0.000130805
0.00510135
0.0202908
0.0185877
0.00156961
0.000679392
0.00171015
0.027427
0.029608
0.0493877
0.0604581
0.00101775
5.12732e-05
1.86781e-10
7.3508e-13
7.40654e-14
3.68015e-19
2.20387e-16
1.35229e-13
4.48271e-11
1.208e-08
1.39077e-05
0.000530189
0.000428714
5.7409e-07
9.12441e-08
2.43008e-06
0.0147559
0.0409798
0.0455728
0.34396
0.206107
0.232608
0.25713
0.239993
0.191665
0.165823
0.146841
0.134009
0.133762
0.131385
0.136035
0.155619
0.281312
0.319519
0.222834
0.136767
0.131756
0.135503
0.259002
0.190926
0.0077972
0.00777841
0.0140406
0.0171994
0.00725708
0.00379041
0.00242091
0.00187743
0.00349586
0.00621853
0.00817789
0.0123273
0.083228
0.239869
0.180084
0.0260492
0.0421269
0.0457759
0.160069
0.140763
0.000954509
0.000103821
0.000108954
6.32334e-05
2.66194e-05
9.14043e-06
2.40839e-05
0.000286113
0.00222418
0.00736152
0.0171237
0.0167638
0.0278176
0.17702
0.158999
0.0521439
0.0644958
0.071931
0.134483
0.122221
0.00126728
0.00014853
0.000255403
5.4783e-07
2.11589e-08
3.11255e-07
6.22453e-06
0.00030431
0.00698617
0.0274725
0.0455498
0.0403443
0.0332693
0.147009
0.148365
0.0848805
0.0826806
0.0862251
0.126195
0.113709
0.00147793
0.00038507
0.000450301
9.05289e-07
5.64464e-09
2.85971e-08
2.16712e-06
0.000485114
0.0143419
0.0497204
0.0565918
0.0441355
0.0475016
0.159588
0.153169
0.12969
0.104433
0.0931042
0.119121
0.114027
0.00153739
0.000975359
0.000436164
8.73597e-07
1.0506e-09
6.4567e-09
1.32658e-06
0.000713368
0.0184436
0.0533761
0.0567335
0.0661107
0.090937
0.159355
0.150969
0.145402
0.128424
0.0955658
0.112986
0.115279
0.00136161
0.00159491
0.000164478
2.9037e-07
7.80545e-10
7.26865e-09
2.16045e-07
0.00017388
0.0076319
0.0420151
0.0564096
0.0561248
0.091321
0.133968
0.126697
0.116367
0.116279
0.108955
0.103211
0.117686
0.00136113
0.00182745
2.33477e-05
4.17409e-08
8.92328e-11
8.44618e-11
9.12592e-10
1.84923e-06
0.000512545
0.0154917
0.0578263
0.0692109
0.0887377
0.103103
0.0868382
0.0904633
0.105221
0.106729
0.0939944
0.119353
0.00176018
0.00153766
1.26007e-06
1.01321e-08
7.61269e-12
4.20991e-13
3.39124e-11
8.59885e-10
7.63131e-07
0.000383128
0.0131117
0.0479983
0.0563742
0.00875308
0.00224418
0.0142087
0.0759888
0.102412
0.089524
0.122834
0.00260448
0.000305426
8.83143e-09
3.62442e-10
1.15568e-12
3.0521e-16
1.50239e-15
9.22536e-13
2.57608e-10
6.13014e-08
9.11208e-05
0.00409315
0.00557529
7.94933e-06
5.80978e-07
0.000116742
0.0396897
0.0888938
0.0847231
)
;

boundaryField
{
    aeration
    {
        type            fixedValue;
        value           uniform 0.5;
    }
    xsides
    {
        type            zeroGradient;
    }
    zsides
    {
        type            zeroGradient;
    }
    outlet
    {
        type            inletOutlet;
        phi             phi.air;
        inletValue      uniform 0;
        value           nonuniform List<scalar> 
100
(
0.270071
0.133944
0.0370646
0.0604581
0.122834
0.00303184
0.00139181
0.00031951
0.00101775
0.00260448
0
0
0
0
0
0
0
0
0
0
0
0
0
0
0
0
0
0
0
0
0
0
0
0
0
0
0
0
0
0
0
0
0
0
0
0
0
0
0
0
0
0
0
0
0
0
0
0
0
0
1.15486e-07
1.48996e-09
5.70214e-06
0.000530189
0.00409315
3.13638e-07
0
0
0
0.00557529
0
0
0
0
0
0
0
0
0
0
0
0
0
0
0
0
0
0
0.0147559
0.0396897
0.0813213
0.0458657
0.00770317
0.0409798
0.0888938
0.0991821
0.0716065
0.0380586
0.0455728
0.0847231
)
;
    }
}


// ************************************************************************* //
