/*--------------------------------*- C++ -*----------------------------------*\
| =========                 |                                                 |
| \\      /  F ield         | OpenFOAM: The Open Source CFD Toolbox           |
|  \\    /   O peration     | Version:  2.3.0                                 |
|   \\  /    A nd           | Web:      www.OpenFOAM.org                      |
|    \\/     M anipulation  |                                                 |
\*---------------------------------------------------------------------------*/
FoamFile
{
    version     2.0;
    format      ascii;
    class       volScalarField;
    location    "4.79864";
    object      k.water;
}
// * * * * * * * * * * * * * * * * * * * * * * * * * * * * * * * * * * * * * //

dimensions      [0 2 -2 0 0 0 0];

internalField   nonuniform List<scalar> 
1000
(
0.00381074
0.00558086
0.00557502
0.00449582
0.00349773
0.00267816
0.0017175
0.00107434
0.000770239
0.000826064
0.00106935
1.40929e-07
1e-15
0.00252341
0.00219305
0.00114333
0.000743941
0.000715111
0.00105858
0.00208003
0.00593998
0.00487566
0.00206013
0.000543556
0.00032541
0.000260615
0.000228308
0.000246912
0.000333359
9.95138e-16
9.93655e-16
9.93402e-16
9.9376e-16
0.00102505
0.00416399
0.00166997
0.000404869
0.000589835
0.000700286
0.00168844
0.00730792
0.00274931
0.000417912
0.000198933
0.000168927
0.000162351
0.000186655
0.00024417
0.000363484
9.94508e-16
9.94054e-16
9.93702e-16
9.94042e-16
0.000403238
0.0044348
0.00251413
0.000504382
0.000746628
0.000975999
0.00157989
0.00810513
0.00193067
0.000307211
0.00019516
0.000170378
0.00016205
0.000185938
0.000246086
0.000365712
3.63942e-11
9.929e-16
9.92964e-16
9.91329e-16
0.00049044
0.00478432
0.00306999
0.000773549
0.000798361
0.00113484
0.0015387
0.00856419
0.00181848
0.000315784
0.000203323
0.000176167
0.000160796
0.000177514
0.000235375
0.00033576
0.00054342
5.41571e-11
9.97245e-16
9.91395e-16
0.0012661
0.00526135
0.00337745
0.00145549
0.00103751
0.00115891
0.00143258
0.00902532
0.0018219
0.000333233
0.000209896
0.000180649
0.000155981
0.000162629
0.000203126
0.00028748
0.000505798
0.00102056
0.00123105
0.00116491
0.00243254
0.00493884
0.00405332
0.003418
0.00236723
0.00115009
0.00124237
0.00924613
0.00175443
0.000323637
0.000209549
0.000176511
0.000143503
0.000145574
0.000182308
0.000235655
0.000278693
0.000490283
0.0012585
0.00185439
0.00239646
0.00289554
0.00256269
0.00330139
0.00349074
0.00260044
0.00131824
0.00919973
0.00143759
0.000244839
0.000200477
0.000166243
0.000133204
0.000127502
0.000148822
0.000188564
0.000197244
0.000193785
0.000283792
0.000569186
0.00076541
0.000296956
0.000274987
0.000437383
0.00249297
0.00286364
0.00165013
0.00902319
0.000926923
0.000187261
0.000167643
0.000142858
0.000120428
0.000116079
0.000129892
0.000143832
0.000144149
0.000117466
9.95658e-05
0.00011754
0.000126446
0.000115747
0.000142706
0.000192975
0.00130887
0.00291981
0.00184938
0.00899207
0.000794774
0.000120601
9.94178e-05
9.40804e-05
8.73513e-05
8.52617e-05
8.84242e-05
9.24828e-05
9.01686e-05
7.38213e-05
5.18164e-05
5.16407e-05
5.82452e-05
7.69447e-05
0.000104547
0.000118853
0.000540779
0.00281039
0.00231572
0.00147757
0.00209681
0.00204522
0.00176257
0.00138846
0.000994233
0.000654825
0.000503467
0.000457231
0.000442937
0.000419072
0.000320404
0.000351855
0.000689409
0.000680021
0.000578044
0.000474154
0.000482436
0.000589784
0.000937477
0.0018435
0.0023468
0.00091217
0.000279064
0.000204102
0.000177338
0.000156149
0.000161464
0.000187741
0.000110884
0.000110439
0.000114748
0.000103711
0.00034308
0.00114903
0.000702626
0.000305223
0.000359659
0.000554137
0.000836173
0.00218082
0.00158804
0.00021946
0.000108585
0.000101321
0.000100665
0.000107537
0.000130668
0.000180737
0.000118803
0.000138973
0.000163626
9.04218e-05
0.000156589
0.00131427
0.00086646
0.00040278
0.000452876
0.000723456
0.000813438
0.00219521
0.00135055
0.000207435
9.43715e-05
8.53476e-05
8.2219e-05
9.17506e-05
0.000114738
0.000163972
0.000166038
0.0002087
0.000222231
8.19721e-05
0.000163659
0.00164686
0.00115662
0.000547824
0.000537683
0.000787253
0.000806002
0.0021726
0.00142319
0.000236069
9.05508e-05
7.88448e-05
7.34443e-05
7.94745e-05
0.000100922
0.000138057
0.000233183
0.000339387
0.000408383
0.000113995
0.000433147
0.00216598
0.00151571
0.000941222
0.000729606
0.000843131
0.000779145
0.00215083
0.00155158
0.000261873
8.74986e-05
7.30856e-05
6.45314e-05
6.5774e-05
7.96805e-05
0.000110025
0.000196956
0.000512359
0.000748352
0.000742326
0.00122143
0.00235233
0.00208059
0.00174982
0.00127153
0.00104012
0.000720153
0.00204425
0.00160614
0.000249947
7.96487e-05
6.58688e-05
5.48177e-05
5.50094e-05
6.65838e-05
8.12187e-05
9.54103e-05
0.000197992
0.000739196
0.00119684
0.0015313
0.00184148
0.00157837
0.00181791
0.00173621
0.00152446
0.000801442
9.21899e-09
0.00135896
0.000149976
6.87218e-05
5.69458e-05
4.56029e-05
4.37465e-05
4.98293e-05
6.24647e-05
6.72618e-05
7.41591e-05
0.000116336
0.000289718
0.000387427
0.000173483
0.00014888
0.000241881
0.00123104
0.00155283
0.00091927
1e-15
0.00085676
8.98361e-05
5.12265e-05
4.61601e-05
4.04586e-05
3.92691e-05
4.26617e-05
4.66571e-05
4.96037e-05
5.18625e-05
5.0939e-05
5.86579e-05
7.3913e-05
8.32505e-05
8.94321e-05
0.000100143
0.000789
0.0015165
0.000980123
1e-15
0.000735228
5.29389e-05
4.00889e-05
3.90339e-05
3.74364e-05
3.65984e-05
3.81757e-05
3.92155e-05
4.01182e-05
4.01864e-05
3.90465e-05
3.8688e-05
4.5941e-05
5.63267e-05
6.21944e-05
5.42809e-05
0.000349218
0.00139996
0.00111156
0.00110161
0.00150744
0.00140084
0.00117397
0.000944694
0.000597025
0.000435302
0.000362958
0.000336374
0.000250075
0.000233372
0.000224316
0.000231184
0.000291347
0.000433564
0.000484643
0.000423099
0.000421622
0.000517073
0.000697399
0.000991105
0.00124847
0.000407173
0.000194468
0.00018254
0.000150319
0.000127555
0.000126857
0.000127642
8.74622e-05
8.63149e-05
9.13103e-05
8.32637e-05
0.000132187
0.000455809
0.000468276
0.000276011
0.000268253
0.000509897
0.000580839
3.20969e-13
0.000958329
0.000153065
8.70248e-05
8.50917e-05
8.36552e-05
8.55893e-05
9.83301e-05
0.000108913
8.50956e-05
0.000109228
0.00014668
0.000105142
0.000111196
0.000532476
0.00050394
0.000357913
0.000312901
0.000643336
0.000555142
9.99506e-16
0.00103028
0.000170195
7.1365e-05
6.59157e-05
6.42509e-05
6.89943e-05
7.97926e-05
8.69841e-05
9.69518e-05
0.00017125
0.000220144
0.000114883
0.00011778
0.000732954
0.000633074
0.000474617
0.000395459
0.000679268
0.000537301
9.96751e-16
0.00120834
0.000215098
6.53614e-05
5.67972e-05
5.47921e-05
5.87649e-05
6.93147e-05
7.32161e-05
0.000104008
0.000236454
0.000366966
0.000240493
0.00027706
0.00136559
0.00107368
0.000889551
0.000550869
0.000716605
0.000525291
9.92777e-16
0.00138024
0.000245717
5.75005e-05
4.74719e-05
4.52129e-05
4.58521e-05
5.19737e-05
5.78203e-05
8.36516e-05
0.000259245
0.000487158
0.000521909
0.000709248
0.00139201
0.00128464
0.00102071
0.000738106
0.000847236
0.000535457
9.91214e-16
0.00146314
0.000229591
4.46043e-05
3.87429e-05
3.56606e-05
3.58742e-05
3.93924e-05
4.53902e-05
4.95934e-05
9.45426e-05
0.000449877
0.000824247
0.00103053
0.0011654
0.000913965
0.000996581
0.000967395
0.000938365
0.000614738
9.91186e-16
0.00124965
0.000124558
3.63391e-05
3.30619e-05
2.9366e-05
2.85291e-05
3.0857e-05
3.50893e-05
4.08048e-05
4.12967e-05
4.72227e-05
0.000113774
0.00014007
6.13713e-05
5.49507e-05
8.09069e-05
0.000492854
0.000905968
0.000657884
9.91647e-16
0.000780226
6.75883e-05
3.27873e-05
3.09307e-05
2.81714e-05
2.74767e-05
2.92907e-05
3.13971e-05
3.34606e-05
3.75923e-05
3.3068e-05
1.8345e-05
3.0902e-05
6.14885e-05
5.93485e-05
4.8363e-05
0.000403319
0.000823349
0.000656539
9.92342e-16
0.000670923
4.47293e-05
3.2982e-05
3.26522e-05
3.11575e-05
3.06155e-05
3.16425e-05
3.24724e-05
3.29959e-05
3.38782e-05
3.68327e-05
3.54005e-05
3.7031e-05
3.86126e-05
3.84999e-05
3.91652e-05
0.000245979
0.000738276
0.00065736
0.00160756
0.00190633
0.00194832
0.00182166
0.00158733
0.00100164
0.000724383
0.000533799
0.000448317
0.000369361
0.000364146
0.000298041
0.000330291
0.000659456
0.00067849
0.000582196
0.000459214
0.000437556
0.000558946
0.000930106
0.00131107
0.000787585
0.00029606
0.000240489
0.000254127
0.00018106
0.00015244
0.000151793
0.000149107
9.43546e-05
0.00010664
0.000119727
0.000104853
0.00036706
0.00116291
0.000705142
0.000295433
0.000236531
0.000524683
0.000823582
0.00100966
0.000746138
0.000164437
0.000106854
0.00010371
0.000100728
0.000105906
0.000124556
0.00012769
7.15465e-05
0.000101265
0.000145751
7.75033e-05
0.000152649
0.0013611
0.000894789
0.000383043
0.000226345
0.000704308
0.00081441
0.000938068
0.000923848
0.000191758
9.32411e-05
8.54518e-05
8.22014e-05
9.0874e-05
0.000110812
0.000110234
5.55537e-05
0.000112124
0.000169978
6.23104e-05
0.000156693
0.00162005
0.00111442
0.000559411
0.000295679
0.000752215
0.000811622
0.00092933
0.00113561
0.000242271
9.08326e-05
7.88987e-05
7.37448e-05
8.10307e-05
0.000102188
9.50116e-05
5.00171e-05
0.000116136
0.000284617
0.000383993
0.00054483
0.00224659
0.00165902
0.00116668
0.000425856
0.000759588
0.000777306
0.000917507
0.00132134
0.000272707
8.81654e-05
7.3143e-05
6.46073e-05
6.6969e-05
8.3989e-05
8.67399e-05
4.90587e-05
0.000116986
0.000316355
0.000342931
0.000523588
0.00119891
0.000973579
0.000649001
0.000443643
0.000711786
0.00073369
0.000878044
0.00140717
0.00025495
7.97175e-05
6.58632e-05
5.48538e-05
5.48348e-05
6.8135e-05
8.61465e-05
6.42348e-05
4.79675e-05
0.000331447
0.000588937
0.000703543
0.000786009
0.000657183
0.000674404
0.000562804
0.000541514
0.000641566
4.03442e-12
0.00122968
0.000160624
6.90782e-05
5.69623e-05
4.56161e-05
4.37198e-05
4.98862e-05
6.36917e-05
7.66327e-05
3.85644e-05
3.59831e-06
5.32598e-05
0.000128015
1.03242e-05
9.44581e-06
4.62887e-05
0.000223801
0.000485525
0.000680418
9.95818e-16
0.000804376
9.49564e-05
5.11835e-05
4.6171e-05
4.04786e-05
3.93704e-05
4.30017e-05
4.67587e-05
4.99789e-05
5.79069e-05
2.38629e-05
8.6791e-07
3.30011e-06
7.16922e-05
8.79263e-05
5.79381e-05
0.000136842
0.000318065
0.000670848
9.93984e-16
0.00071177
5.75924e-05
4.00987e-05
3.90364e-05
3.74295e-05
3.65665e-05
3.81356e-05
3.9312e-05
4.12938e-05
4.09775e-05
4.89726e-05
3.85996e-05
3.73816e-05
4.82126e-05
4.76586e-05
6.50639e-05
0.000286925
0.000362568
0.000717151
0.00322463
0.00334026
0.00406837
0.00449394
0.00413787
0.00282219
0.00194476
0.00126273
0.000871776
0.000765924
0.00105496
9.62872e-07
1e-15
0.00254161
0.00217718
0.00118483
0.000719089
0.000615772
0.00101367
0.00210385
0.00243256
0.000764846
0.000452229
0.000435357
0.000475294
0.000268927
0.000222774
0.000229093
0.000269268
9.94072e-16
9.9342e-16
9.93439e-16
9.93889e-16
0.00109952
0.00422093
0.00168274
0.000387656
0.000326197
0.000623085
0.00172961
0.00239776
0.000710694
0.000258769
0.000193885
0.000171939
0.00016299
0.000183467
0.000232434
0.000285301
9.94966e-16
9.93523e-16
9.94292e-16
9.94266e-16
0.000384192
0.004443
0.00257709
0.000474422
0.000132883
0.000938675
0.001621
0.00249684
0.000882505
0.000284166
0.000194619
0.000169928
0.000161569
0.00018395
0.000237588
0.000287138
9.93308e-16
9.93731e-16
9.9138e-16
9.91847e-16
0.000442103
0.00466406
0.00299084
0.000795361
9.99756e-16
0.00108892
0.00158956
0.00268964
0.00108801
0.000325732
0.000203027
0.000176161
0.000161243
0.000179472
0.000236691
0.000270542
9.93949e-16
9.91441e-16
0.000191087
0.000544501
0.00136787
0.00529046
0.00357835
0.00185463
1e-15
0.00106443
0.00147504
0.00290933
0.00127114
0.00035264
0.000210368
0.000180612
0.000156016
0.000164256
0.000211484
0.000244547
9.94127e-16
9.9194e-16
9.92832e-16
9.95962e-16
9.99986e-16
1e-15
1e-15
1e-15
1e-15
0.000683129
0.00130159
0.00317644
0.00135442
0.000335179
0.000209409
0.000176422
0.000143475
0.000145445
0.000184655
0.000240789
0.000185502
9.91636e-16
9.92891e-16
9.92324e-16
9.99984e-16
1e-15
1e-15
1e-15
1e-15
1e-15
0.00112661
0.00327202
0.00118769
0.000255136
0.000200414
0.000166204
0.000133143
0.000127234
0.000148304
0.000188245
0.000208821
5.63753e-05
9.92784e-16
9.97316e-16
9.99942e-16
1e-15
9.99868e-16
9.9997e-16
1e-15
1e-15
0.00127669
0.00333492
0.000785255
0.000190017
0.000167504
0.000142839
0.000120465
0.000116446
0.000131112
0.00014339
0.000137643
0.000121153
2.88847e-06
9.90869e-16
9.91417e-16
1.00207e-05
1.01967e-10
9.93921e-16
9.9895e-16
1e-15
0.00131613
0.00357985
0.000693375
0.000125118
9.94534e-05
9.40867e-05
8.73163e-05
8.50918e-05
8.79306e-05
9.4821e-05
9.78025e-05
8.03955e-05
6.7395e-05
2.16019e-05
7.92607e-07
6.18132e-05
0.000102765
8.16114e-13
9.91993e-16
0.000550579
0.00159945
)
;

boundaryField
{
    aeration
    {
        type            fixedValue;
        value           uniform 3.75e-05;
    }
    xsides
    {
        type            kqRWallFunction;
        value           nonuniform List<scalar> 
100
(
0.00381074
0.00593998
0.00730792
0.00810513
0.00856419
0.00902532
0.00924613
0.00919973
0.00902319
0.00899207
0.00147757
0.0018435
0.00218082
0.00219521
0.0021726
0.00215083
0.00204425
9.21899e-09
1e-15
1e-15
0.00110161
0.000991105
3.20969e-13
9.99506e-16
9.96751e-16
9.92777e-16
9.91214e-16
9.91186e-16
9.91647e-16
9.92342e-16
0.00160756
0.00131107
0.00100966
0.000938068
0.00092933
0.000917507
0.000878044
4.03442e-12
9.95818e-16
9.93984e-16
0.00322463
0.00243256
0.00239776
0.00249684
0.00268964
0.00290933
0.00317644
0.00327202
0.00333492
0.00357985
0.00208003
0.00168844
0.00157989
0.0015387
0.00143258
0.00124237
0.00131824
0.00165013
0.00184938
0.00231572
0.000937477
0.000836173
0.000813438
0.000806002
0.000779145
0.000720153
0.000801442
0.00091927
0.000980123
0.00111156
0.000697399
0.000580839
0.000555142
0.000537301
0.000525291
0.000535457
0.000614738
0.000657884
0.000656539
0.00065736
0.000930106
0.000823582
0.00081441
0.000811622
0.000777306
0.00073369
0.000641566
0.000680418
0.000670848
0.000717151
0.00210385
0.00172961
0.001621
0.00158956
0.00147504
0.00130159
0.00112661
0.00127669
0.00131613
0.00159945
)
;
    }
    zsides
    {
        type            kqRWallFunction;
        value           nonuniform List<scalar> 
400
(
0.00381074
0.00593998
0.00730792
0.00810513
0.00856419
0.00902532
0.00924613
0.00919973
0.00902319
0.00899207
0.00558086
0.00487566
0.00274931
0.00193067
0.00181848
0.0018219
0.00175443
0.00143759
0.000926923
0.000794774
0.00557502
0.00206013
0.000417912
0.000307211
0.000315784
0.000333233
0.000323637
0.000244839
0.000187261
0.000120601
0.00449582
0.000543556
0.000198933
0.00019516
0.000203323
0.000209896
0.000209549
0.000200477
0.000167643
9.94178e-05
0.00349773
0.00032541
0.000168927
0.000170378
0.000176167
0.000180649
0.000176511
0.000166243
0.000142858
9.40804e-05
0.00267816
0.000260615
0.000162351
0.00016205
0.000160796
0.000155981
0.000143503
0.000133204
0.000120428
8.73513e-05
0.0017175
0.000228308
0.000186655
0.000185938
0.000177514
0.000162629
0.000145574
0.000127502
0.000116079
8.52617e-05
0.00107434
0.000246912
0.00024417
0.000246086
0.000235375
0.000203126
0.000182308
0.000148822
0.000129892
8.84242e-05
0.000770239
0.000333359
0.000363484
0.000365712
0.00033576
0.00028748
0.000235655
0.000188564
0.000143832
9.24828e-05
0.000826064
9.95138e-16
9.94508e-16
3.63942e-11
0.00054342
0.000505798
0.000278693
0.000197244
0.000144149
9.01686e-05
0.00106935
9.93655e-16
9.94054e-16
9.929e-16
5.41571e-11
0.00102056
0.000490283
0.000193785
0.000117466
7.38213e-05
1.40929e-07
9.93402e-16
9.93702e-16
9.92964e-16
9.97245e-16
0.00123105
0.0012585
0.000283792
9.95658e-05
5.18164e-05
1e-15
9.9376e-16
9.94042e-16
9.91329e-16
9.91395e-16
0.00116491
0.00185439
0.000569186
0.00011754
5.16407e-05
0.00252341
0.00102505
0.000403238
0.00049044
0.0012661
0.00243254
0.00239646
0.00076541
0.000126446
5.82452e-05
0.00219305
0.00416399
0.0044348
0.00478432
0.00526135
0.00493884
0.00289554
0.000296956
0.000115747
7.69447e-05
0.00114333
0.00166997
0.00251413
0.00306999
0.00337745
0.00405332
0.00256269
0.000274987
0.000142706
0.000104547
0.000743941
0.000404869
0.000504382
0.000773549
0.00145549
0.003418
0.00330139
0.000437383
0.000192975
0.000118853
0.000715111
0.000589835
0.000746628
0.000798361
0.00103751
0.00236723
0.00349074
0.00249297
0.00130887
0.000540779
0.00105858
0.000700286
0.000975999
0.00113484
0.00115891
0.00115009
0.00260044
0.00286364
0.00291981
0.00281039
0.00208003
0.00168844
0.00157989
0.0015387
0.00143258
0.00124237
0.00131824
0.00165013
0.00184938
0.00231572
0.00322463
0.00243256
0.00239776
0.00249684
0.00268964
0.00290933
0.00317644
0.00327202
0.00333492
0.00357985
0.00334026
0.000764846
0.000710694
0.000882505
0.00108801
0.00127114
0.00135442
0.00118769
0.000785255
0.000693375
0.00406837
0.000452229
0.000258769
0.000284166
0.000325732
0.00035264
0.000335179
0.000255136
0.000190017
0.000125118
0.00449394
0.000435357
0.000193885
0.000194619
0.000203027
0.000210368
0.000209409
0.000200414
0.000167504
9.94534e-05
0.00413787
0.000475294
0.000171939
0.000169928
0.000176161
0.000180612
0.000176422
0.000166204
0.000142839
9.40867e-05
0.00282219
0.000268927
0.00016299
0.000161569
0.000161243
0.000156016
0.000143475
0.000133143
0.000120465
8.73163e-05
0.00194476
0.000222774
0.000183467
0.00018395
0.000179472
0.000164256
0.000145445
0.000127234
0.000116446
8.50918e-05
0.00126273
0.000229093
0.000232434
0.000237588
0.000236691
0.000211484
0.000184655
0.000148304
0.000131112
8.79306e-05
0.000871776
0.000269268
0.000285301
0.000287138
0.000270542
0.000244547
0.000240789
0.000188245
0.00014339
9.4821e-05
0.000765924
9.94072e-16
9.94966e-16
9.93308e-16
9.93949e-16
9.94127e-16
0.000185502
0.000208821
0.000137643
9.78025e-05
0.00105496
9.9342e-16
9.93523e-16
9.93731e-16
9.91441e-16
9.9194e-16
9.91636e-16
5.63753e-05
0.000121153
8.03955e-05
9.62872e-07
9.93439e-16
9.94292e-16
9.9138e-16
0.000191087
9.92832e-16
9.92891e-16
9.92784e-16
2.88847e-06
6.7395e-05
1e-15
9.93889e-16
9.94266e-16
9.91847e-16
0.000544501
9.95962e-16
9.92324e-16
9.97316e-16
9.90869e-16
2.16019e-05
0.00254161
0.00109952
0.000384192
0.000442103
0.00136787
9.99986e-16
9.99984e-16
9.99942e-16
9.91417e-16
7.92607e-07
0.00217718
0.00422093
0.004443
0.00466406
0.00529046
1e-15
1e-15
1e-15
1.00207e-05
6.18132e-05
0.00118483
0.00168274
0.00257709
0.00299084
0.00357835
1e-15
1e-15
9.99868e-16
1.01967e-10
0.000102765
0.000719089
0.000387656
0.000474422
0.000795361
0.00185463
1e-15
1e-15
9.9997e-16
9.93921e-16
8.16114e-13
0.000615772
0.000326197
0.000132883
9.99756e-16
1e-15
1e-15
1e-15
1e-15
9.9895e-16
9.91993e-16
0.00101367
0.000623085
0.000938675
0.00108892
0.00106443
0.000683129
1e-15
1e-15
1e-15
0.000550579
0.00210385
0.00172961
0.001621
0.00158956
0.00147504
0.00130159
0.00112661
0.00127669
0.00131613
0.00159945
)
;
    }
    outlet
    {
        type            inletOutlet;
        phi             phi.water;
        inletValue      uniform 3.75e-05;
        value           nonuniform List<scalar> 
100
(
0.00899207
1e-15
9.92342e-16
9.93984e-16
0.00357985
0.000794774
0.000735228
0.000670923
0.00071177
0.000693375
3.75e-05
3.75e-05
3.75e-05
3.75e-05
3.75e-05
3.75e-05
3.75e-05
3.75e-05
3.75e-05
3.75e-05
3.75e-05
3.75e-05
3.75e-05
3.75e-05
3.75e-05
3.75e-05
3.75e-05
3.75e-05
3.75e-05
3.75e-05
3.75e-05
3.75e-05
3.75e-05
3.75e-05
3.75e-05
3.75e-05
3.75e-05
3.75e-05
3.75e-05
3.75e-05
3.75e-05
3.75e-05
3.75e-05
3.75e-05
3.75e-05
3.75e-05
3.75e-05
3.75e-05
3.75e-05
3.75e-05
3.75e-05
3.75e-05
3.75e-05
3.75e-05
3.75e-05
3.75e-05
3.75e-05
3.75e-05
3.75e-05
3.75e-05
5.16407e-05
3.8688e-05
3.54005e-05
3.85996e-05
2.16019e-05
5.82452e-05
3.75e-05
3.75e-05
3.75e-05
7.92607e-07
3.75e-05
3.75e-05
3.75e-05
3.75e-05
3.75e-05
3.75e-05
3.75e-05
3.75e-05
3.75e-05
3.75e-05
3.75e-05
3.75e-05
3.75e-05
3.75e-05
3.75e-05
3.75e-05
3.75e-05
3.75e-05
0.000286925
9.91993e-16
0.00281039
0.00139996
0.000738276
0.000362568
0.000550579
0.00231572
0.00111156
0.00065736
0.000717151
0.00159945
)
;
    }
}


// ************************************************************************* //
