/*--------------------------------*- C++ -*----------------------------------*\
| =========                 |                                                 |
| \\      /  F ield         | OpenFOAM: The Open Source CFD Toolbox           |
|  \\    /   O peration     | Version:  2.3.0                                 |
|   \\  /    A nd           | Web:      www.OpenFOAM.org                      |
|    \\/     M anipulation  |                                                 |
\*---------------------------------------------------------------------------*/
FoamFile
{
    version     2.0;
    format      ascii;
    class       volScalarField;
    location    "4.79864";
    object      nut.water;
}
// * * * * * * * * * * * * * * * * * * * * * * * * * * * * * * * * * * * * * //

dimensions      [0 2 -1 0 0 0 0];

internalField   nonuniform List<scalar> 
1000
(
8.3487e-06
9.07985e-06
8.92265e-06
8.20438e-06
7.10548e-06
5.88149e-06
4.34368e-06
3.23218e-06
3.07058e-06
2.73693e-06
2.97652e-06
6.70366e-14
4.71881e-30
3.45739e-06
4.09962e-06
3.69666e-06
3.13506e-06
3.31979e-06
3.5589e-06
6.12118e-06
1.03828e-05
9.3842e-06
5.96627e-06
2.96612e-06
2.68122e-06
2.62496e-06
2.71032e-06
2.76797e-06
2.76102e-06
2.13139e-29
1.8557e-29
3.54142e-29
1.38004e-29
1.74363e-06
6.44255e-06
4.66256e-06
3.9762e-06
3.83437e-06
6.13098e-06
6.11491e-06
1.1792e-05
7.98366e-06
2.83735e-06
1.95597e-06
2.0546e-06
2.171e-06
2.13538e-06
2.24918e-06
2.59529e-06
1.44904e-29
1.3232e-29
9.07332e-30
1.12579e-29
7.78639e-07
6.77011e-06
5.48203e-06
4.63717e-06
4.32238e-06
6.30959e-06
6.2107e-06
1.26681e-05
7.82886e-06
3.12594e-06
1.71482e-06
1.69021e-06
1.65182e-06
1.78142e-06
2.01521e-06
2.46271e-06
1.45319e-20
5.55548e-30
4.8597e-30
6.73031e-30
1.13361e-06
7.94827e-06
6.84075e-06
5.0952e-06
5.10843e-06
5.97212e-06
6.28739e-06
1.32033e-05
8.63244e-06
3.4235e-06
1.65848e-06
1.58556e-06
1.51834e-06
1.58823e-06
1.82742e-06
2.21253e-06
2.74614e-06
1.2107e-20
4.08341e-30
3.74422e-30
3.65042e-06
9.49006e-06
7.91435e-06
6.27409e-06
6.27908e-06
6.541e-06
6.35219e-06
1.36958e-05
1.00533e-05
3.69397e-06
1.64085e-06
1.54254e-06
1.41439e-06
1.42805e-06
1.61624e-06
1.95911e-06
2.7757e-06
4.43994e-06
5.65629e-06
5.96826e-06
7.66768e-06
1.01407e-05
9.55649e-06
8.65537e-06
7.32237e-06
1.21747e-05
6.0789e-06
1.39861e-05
1.2581e-05
3.58769e-06
1.61283e-06
1.47042e-06
1.29358e-06
1.30411e-06
1.49072e-06
1.66461e-06
1.64681e-06
2.38984e-06
5.61552e-06
7.70667e-06
8.25827e-06
9.84989e-06
8.80182e-06
7.94384e-06
7.87095e-06
8.0768e-06
6.16811e-06
1.34337e-05
1.34826e-05
2.5116e-06
1.50778e-06
1.35734e-06
1.18178e-06
1.13366e-06
1.24957e-06
1.44604e-06
1.47676e-06
1.44282e-06
1.84973e-06
3.59554e-06
4.29016e-06
3.14167e-06
2.53973e-06
2.95414e-06
6.95543e-06
7.53672e-06
6.28859e-06
1.28658e-05
9.50899e-06
1.72459e-06
1.19658e-06
1.12907e-06
1.04774e-06
1.02673e-06
1.08745e-06
1.1037e-06
1.12562e-06
1.18498e-06
1.30988e-06
1.66487e-06
2.02827e-06
2.13096e-06
1.3888e-06
1.52931e-06
6.15231e-06
7.24819e-06
6.45236e-06
1.25114e-05
7.89729e-06
1.03349e-06
7.03442e-07
7.44495e-07
7.69349e-07
7.68329e-07
7.58166e-07
7.3877e-07
7.28883e-07
7.53761e-07
1.12718e-06
1.54419e-06
2.03274e-06
1.1621e-06
8.43524e-07
7.36154e-07
4.60612e-06
7.06508e-06
7.10552e-06
3.66603e-06
6.0236e-06
5.7545e-06
5.56372e-06
4.81406e-06
3.69807e-06
2.7963e-06
2.47133e-06
2.48319e-06
1.82181e-06
1.64782e-06
1.11844e-06
1.16479e-06
1.80002e-06
2.09776e-06
3.02141e-06
2.98429e-06
3.21352e-06
3.29325e-06
3.49889e-06
3.72656e-06
7.04272e-06
3.90648e-06
2.34092e-06
2.37686e-06
2.42886e-06
2.44546e-06
2.43844e-06
2.28282e-06
9.51933e-07
7.89232e-07
8.39181e-07
6.89925e-07
9.76324e-07
3.08181e-06
3.00071e-06
3.52428e-06
3.3989e-06
6.50052e-06
3.12686e-06
3.31093e-06
6.00402e-06
2.19158e-06
1.77146e-06
1.88993e-06
1.97958e-06
1.89985e-06
1.92329e-06
2.03227e-06
9.55584e-07
9.5249e-07
9.32057e-07
3.98207e-07
5.77925e-07
3.27492e-06
3.04866e-06
3.69201e-06
3.81318e-06
6.03405e-06
3.28576e-06
2.74195e-06
8.52051e-06
2.73608e-06
1.45898e-06
1.44148e-06
1.43914e-06
1.48527e-06
1.56287e-06
1.8077e-06
1.26806e-06
1.16197e-06
1.14011e-06
2.84118e-07
6.97353e-07
4.345e-06
4.07563e-06
4.23816e-06
4.61848e-06
5.91659e-06
3.32229e-06
2.29499e-06
1.03959e-05
3.36022e-06
1.32742e-06
1.25502e-06
1.24724e-06
1.27278e-06
1.36446e-06
1.5039e-06
1.87805e-06
1.86814e-06
2.30538e-06
4.47532e-07
1.90457e-06
6.31222e-06
5.6551e-06
5.77833e-06
5.56086e-06
6.40955e-06
3.36801e-06
1.97808e-06
1.22699e-05
3.85018e-06
1.2269e-06
1.10315e-06
1.07439e-06
1.06687e-06
1.13319e-06
1.27021e-06
1.72554e-06
3.41244e-06
4.86971e-06
4.90376e-06
5.39436e-06
7.53267e-06
7.5252e-06
6.91644e-06
5.82703e-06
9.3793e-06
3.5345e-06
1.67186e-06
1.46116e-05
3.79186e-06
1.07485e-06
9.77874e-07
9.27338e-07
9.2614e-07
9.81513e-07
1.02795e-06
1.04847e-06
1.58291e-06
4.61942e-06
6.85633e-06
7.20919e-06
7.91965e-06
7.00329e-06
6.45443e-06
6.26164e-06
6.75318e-06
4.32539e-06
2.92757e-17
1.21664e-05
2.18173e-06
9.09175e-07
8.4269e-07
7.66583e-07
7.55829e-07
7.83964e-07
8.76844e-07
9.4776e-07
1.02955e-06
1.26819e-06
2.50949e-06
2.90449e-06
1.99456e-06
1.60796e-06
2.03691e-06
5.1297e-06
6.25638e-06
4.10574e-06
2.72192e-31
7.20698e-06
1.29355e-06
7.12192e-07
7.15925e-07
6.98444e-07
6.97514e-07
7.02152e-07
7.23133e-07
7.64863e-07
9.53698e-07
1.0483e-06
1.13096e-06
1.45559e-06
1.48504e-06
1.20753e-06
1.13295e-06
5.13016e-06
5.90833e-06
4.12211e-06
2.49994e-31
5.83249e-06
8.36847e-07
7.59042e-07
7.53896e-07
7.56977e-07
7.45378e-07
7.70478e-07
7.62267e-07
7.72026e-07
8.24347e-07
9.74001e-07
1.21167e-06
1.27901e-06
9.83547e-07
9.05116e-07
8.03503e-07
3.34645e-06
5.53033e-06
3.99016e-06
3.4923e-06
6.356e-06
5.74871e-06
5.27635e-06
4.47669e-06
3.1017e-06
2.45708e-06
2.16005e-06
2.05153e-06
1.19448e-06
1.05857e-06
9.67636e-07
9.64187e-07
1.08624e-06
1.80466e-06
2.95031e-06
3.0527e-06
3.16191e-06
3.54678e-06
3.33194e-06
2.88521e-06
5.7357e-06
2.8396e-06
2.30606e-06
2.41226e-06
2.52238e-06
2.40304e-06
2.33881e-06
2.01737e-06
1.21347e-06
1.07503e-06
1.0061e-06
8.98438e-07
7.10877e-07
1.93893e-06
2.63358e-06
3.5246e-06
3.09995e-06
6.98148e-06
2.34239e-06
2.34882e-25
5.51754e-06
2.22527e-06
1.88692e-06
1.99537e-06
2.04559e-06
1.94759e-06
1.95661e-06
1.70694e-06
1.1457e-06
1.20726e-06
1.37487e-06
9.09922e-07
7.79203e-07
2.12508e-06
2.59607e-06
3.60397e-06
3.16754e-06
6.07609e-06
2.28581e-06
2.03212e-30
8.62514e-06
2.81929e-06
1.56809e-06
1.54959e-06
1.56676e-06
1.55641e-06
1.53208e-06
1.40438e-06
1.19098e-06
1.58137e-06
1.85668e-06
9.29066e-07
8.49238e-07
2.89877e-06
3.16839e-06
4.24975e-06
3.78782e-06
5.93394e-06
2.14115e-06
1.98499e-30
1.13949e-05
3.68476e-06
1.41411e-06
1.32377e-06
1.35712e-06
1.37611e-06
1.37074e-06
1.18352e-06
1.23656e-06
2.09599e-06
3.0988e-06
2.33091e-06
1.7186e-06
5.55906e-06
5.31711e-06
6.37061e-06
4.53564e-06
6.11483e-06
2.18209e-06
1.59129e-30
1.35136e-05
4.23723e-06
1.21467e-06
1.08667e-06
1.14593e-06
1.14395e-06
1.12365e-06
1.02001e-06
1.00111e-06
2.31918e-06
3.98707e-06
4.00606e-06
3.96394e-06
6.00616e-06
6.22618e-06
5.40222e-06
4.42209e-06
7.51464e-06
2.52876e-06
1.50576e-30
1.57122e-05
4.06612e-06
9.35589e-07
9.0222e-07
9.57795e-07
9.65974e-07
9.27553e-07
9.24491e-07
8.20036e-07
8.87014e-07
3.54963e-06
5.89234e-06
6.11156e-06
6.22062e-06
5.14574e-06
4.89985e-06
4.97756e-06
5.50485e-06
3.43015e-06
1.45722e-30
1.33868e-05
2.2132e-06
8.0004e-07
8.01929e-07
8.04433e-07
8.02347e-07
7.93628e-07
8.1487e-07
9.11579e-07
7.72303e-07
4.67638e-07
1.14792e-06
1.23271e-06
4.48444e-07
4.17397e-07
6.18157e-07
2.88253e-06
5.11219e-06
3.41736e-06
1.98014e-30
8.08588e-06
1.27743e-06
7.81267e-07
7.7533e-07
7.76288e-07
7.75633e-07
7.71736e-07
7.79128e-07
8.21046e-07
9.22721e-07
5.74288e-07
1.44329e-07
3.21542e-07
1.24934e-06
1.36436e-06
6.05201e-07
3.37997e-06
4.56907e-06
3.21165e-06
2.21028e-30
6.70646e-06
9.06115e-07
8.16298e-07
8.21051e-07
7.97324e-07
7.88069e-07
8.10348e-07
8.19786e-07
8.19768e-07
8.59017e-07
1.02483e-06
9.99607e-07
8.75978e-07
8.98835e-07
8.62101e-07
8.76834e-07
2.30959e-06
4.18856e-06
2.92487e-06
4.86359e-06
6.63642e-06
6.13413e-06
5.7807e-06
5.12588e-06
3.6267e-06
2.95911e-06
2.45928e-06
2.22204e-06
1.53167e-06
1.41632e-06
1.05281e-06
1.10485e-06
1.70686e-06
2.10654e-06
2.98534e-06
2.89074e-06
2.94584e-06
3.08123e-06
3.43297e-06
4.27614e-06
6.59171e-06
2.65058e-06
2.2682e-06
2.3134e-06
2.43463e-06
2.32408e-06
2.28336e-06
1.81141e-06
8.10589e-07
7.05833e-07
7.81806e-07
6.37531e-07
1.01342e-06
3.13497e-06
3.00474e-06
3.4153e-06
2.24093e-06
6.73374e-06
2.91564e-06
2.6436e-06
8.56994e-06
2.43932e-06
1.73593e-06
1.90534e-06
1.96695e-06
1.87614e-06
1.85503e-06
1.47229e-06
6.15862e-07
6.98369e-07
8.20569e-07
3.24834e-07
5.37685e-07
3.35577e-06
3.12422e-06
3.42607e-06
1.79238e-06
5.89598e-06
3.19396e-06
2.17763e-06
1.26516e-05
3.03486e-06
1.44071e-06
1.44667e-06
1.44604e-06
1.47667e-06
1.52432e-06
1.20839e-06
4.21416e-07
5.92708e-07
8.06733e-07
1.91539e-07
6.61673e-07
4.28935e-06
3.94427e-06
4.34105e-06
2.05275e-06
5.65487e-06
3.27533e-06
1.90891e-06
1.55748e-05
3.98369e-06
1.33887e-06
1.2562e-06
1.25097e-06
1.29501e-06
1.37495e-06
1.02137e-06
3.31292e-07
5.35833e-07
1.81795e-06
3.64139e-06
2.5675e-06
6.52344e-06
6.04955e-06
6.77647e-06
2.56473e-06
5.63909e-06
3.20305e-06
1.70355e-06
1.68956e-05
4.48817e-06
1.24092e-06
1.10465e-06
1.0761e-06
1.08475e-06
1.17273e-06
9.81557e-07
2.95472e-07
5.33905e-07
1.91418e-06
1.87377e-06
2.12631e-06
3.51673e-06
3.57714e-06
2.66897e-06
2.12424e-06
5.80826e-06
3.46231e-06
1.35726e-06
1.88548e-05
4.22217e-06
1.07759e-06
9.78231e-07
9.28326e-07
9.24269e-07
1.00701e-06
1.0533e-06
5.18648e-07
1.17876e-07
1.79623e-06
3.82239e-06
3.56754e-06
2.79177e-06
2.58507e-06
3.14002e-06
2.9225e-06
2.9252e-06
3.15178e-06
2.22892e-23
1.60867e-05
2.54492e-06
9.16066e-07
8.43264e-07
7.6723e-07
7.55422e-07
7.84511e-07
8.88895e-07
9.65684e-07
2.47782e-07
1.22816e-09
1.69347e-07
3.959e-07
4.48324e-09
4.32119e-09
6.06656e-08
5.91138e-07
2.38532e-06
3.2471e-06
1.12977e-30
9.78805e-06
1.44593e-06
7.12182e-07
7.16291e-07
6.9875e-07
6.9857e-07
7.04301e-07
7.29079e-07
7.9e-07
9.65085e-07
1.15598e-07
1.21049e-10
1.15664e-09
5.58105e-07
1.43835e-06
1.90665e-07
3.82077e-07
1.26096e-06
2.99241e-06
9.80232e-31
8.11258e-06
9.70887e-07
7.58995e-07
7.53994e-07
7.5698e-07
7.45192e-07
7.7329e-07
7.52415e-07
7.61018e-07
8.20652e-07
1.22842e-06
5.11796e-07
3.29497e-07
9.81607e-07
7.79911e-07
1.36272e-06
1.20986e-06
1.30803e-06
2.85193e-06
9.0822e-06
7.97177e-06
8.247e-06
8.48169e-06
7.92568e-06
5.97363e-06
4.72429e-06
3.58871e-06
2.98003e-06
2.65255e-06
2.88407e-06
3.23038e-12
4.93702e-30
3.47967e-06
4.11957e-06
3.72305e-06
2.96944e-06
2.92346e-06
3.27789e-06
6.11725e-06
7.79948e-06
7.16856e-06
2.87107e-06
2.81937e-06
2.73093e-06
2.6991e-06
2.56062e-06
2.55163e-06
2.1163e-06
2.59136e-29
1.84204e-29
1.83464e-29
1.2566e-29
1.86168e-06
6.53977e-06
4.66815e-06
3.79779e-06
1.81524e-06
5.7609e-06
6.10571e-06
7.26598e-06
1.21709e-05
2.55803e-06
1.89488e-06
2.07904e-06
2.15028e-06
2.09731e-06
2.13704e-06
1.91006e-06
2.45637e-29
2.23331e-29
1.68106e-29
1.6516e-29
7.52563e-07
6.79683e-06
5.64181e-06
4.18776e-06
2.5359e-07
6.09572e-06
6.25164e-06
7.24097e-06
1.78509e-05
3.05073e-06
1.66826e-06
1.69334e-06
1.65305e-06
1.76265e-06
1.95814e-06
1.81765e-06
2.10493e-29
1.09439e-29
8.8377e-30
9.27249e-30
1.06481e-06
7.82249e-06
6.61127e-06
5.18722e-06
7.89444e-30
5.7055e-06
6.32915e-06
7.56941e-06
2.12711e-05
3.90391e-06
1.65569e-06
1.58497e-06
1.52321e-06
1.61229e-06
1.84571e-06
1.6632e-06
1.64962e-29
4.91332e-30
3.00132e-07
4.54869e-06
4.36735e-06
9.46224e-06
8.35895e-06
7.80197e-06
5.62439e-30
5.62465e-06
6.31564e-06
7.7547e-06
2.32228e-05
4.33917e-06
1.64604e-06
1.54219e-06
1.41469e-06
1.44376e-06
1.67656e-06
1.48214e-06
1.41134e-29
4.45177e-30
4.37133e-30
3.3688e-30
1.58551e-30
4.28598e-31
8.9016e-31
1.25299e-30
2.4505e-30
5.37e-06
6.22227e-06
8.30922e-06
2.52304e-05
4.06103e-06
1.6126e-06
1.46936e-06
1.29326e-06
1.30337e-06
1.51493e-06
1.68595e-06
6.32623e-07
5.7301e-30
2.90525e-30
4.57412e-30
2.18226e-30
6.26893e-31
1.17534e-30
1.52963e-30
2.36765e-30
3.20471e-30
4.91443e-06
7.64923e-06
2.23756e-05
2.80307e-06
1.50852e-06
1.35682e-06
1.18102e-06
1.12969e-06
1.23963e-06
1.44326e-06
1.38589e-06
5.79827e-08
3.58317e-30
1.85681e-30
1.14333e-30
8.12083e-31
1.43821e-30
1.48498e-30
1.7202e-30
2.96103e-30
5.06715e-06
7.41773e-06
1.42818e-05
1.8098e-06
1.19547e-06
1.12879e-06
1.0481e-06
1.03083e-06
1.09954e-06
1.09641e-06
1.0696e-06
1.00289e-06
1.9614e-10
4.76347e-30
2.602e-30
1.18064e-09
4.15967e-18
5.04149e-30
2.57293e-30
3.28879e-30
4.6961e-06
7.58334e-06
1.21524e-05
1.1193e-06
7.0388e-07
7.44486e-07
7.69002e-07
7.66621e-07
7.53695e-07
7.56798e-07
7.89589e-07
8.2214e-07
1.39015e-06
2.21229e-08
1.30607e-11
9.84772e-07
7.89693e-07
4.13789e-23
3.63903e-30
6.42661e-07
5.19824e-06
)
;

boundaryField
{
    aeration
    {
        type            calculated;
        value           uniform 8.4375e-07;
    }
    xsides
    {
        type            nutkWallFunction;
        Cmu             0.09;
        kappa           0.41;
        E               9.8;
        value           nonuniform List<scalar> 
100
(
2.34981e-06
2.92061e-06
3.22805e-06
3.39256e-06
3.48322e-06
3.57162e-06
3.61305e-06
3.60439e-06
3.57122e-06
3.56533e-06
1.44833e-06
1.62657e-06
1.77399e-06
1.77998e-06
1.77056e-06
1.76143e-06
1.71596e-06
0
0
0
1.23699e-06
1.16731e-06
0
0
0
0
0
0
0
0
1.51422e-06
1.35899e-06
1.1793e-06
1.13231e-06
1.12644e-06
1.11844e-06
1.09133e-06
0
0
0
2.16242e-06
1.87584e-06
1.86212e-06
1.90089e-06
1.97393e-06
2.05366e-06
2.1462e-06
2.17825e-06
2.19906e-06
2.27806e-06
1.73137e-06
1.55372e-06
1.50046e-06
1.47971e-06
1.42477e-06
1.32027e-06
1.36296e-06
1.53515e-06
1.62927e-06
1.82934e-06
1.13191e-06
1.0618e-06
1.04541e-06
1.04e-06
1.0202e-06
9.75327e-07
1.03666e-06
1.11964e-06
1.16015e-06
1.24306e-06
9.57466e-07
8.6035e-07
8.37491e-07
8.21267e-07
8.10173e-07
8.19573e-07
8.89648e-07
9.25648e-07
9.24546e-07
9.25219e-07
1.12696e-06
1.05275e-06
1.04612e-06
1.04409e-06
1.01883e-06
9.85804e-07
9.12194e-07
9.43921e-07
9.36203e-07
9.72989e-07
1.74154e-06
1.57342e-06
1.52086e-06
1.50528e-06
1.44702e-06
1.35371e-06
1.2522e-06
1.33975e-06
1.3618e-06
1.5102e-06
)
;
    }
    zsides
    {
        type            nutkWallFunction;
        Cmu             0.09;
        kappa           0.41;
        E               9.8;
        value           nonuniform List<scalar> 
400
(
2.59872e-07
3.82401e-07
4.48132e-07
4.83236e-07
5.02564e-07
5.21395e-07
5.30219e-07
5.28374e-07
5.21309e-07
5.20056e-07
3.63743e-07
3.25004e-07
1.83523e-07
1.12022e-07
1.00944e-07
1.01286e-07
9.44419e-08
6.00761e-08
0
0
3.63434e-07
1.24356e-07
0
0
0
0
0
0
0
0
3.02802e-07
0
0
0
0
0
0
0
0
0
2.38784e-07
0
0
0
0
0
0
0
0
0
1.77841e-07
0
0
0
0
0
0
0
0
0
9.0631e-08
0
0
0
0
0
0
0
0
0
1.47705e-08
0
0
0
0
0
0
0
0
0
0
0
0
0
0
0
0
0
0
0
0
0
0
0
0
0
0
0
0
0
1.4091e-08
0
0
0
0
7.34695e-09
0
0
0
0
0
0
0
0
0
3.52554e-08
3.86859e-08
0
0
0
0
0
0
0
0
2.68052e-08
1.04531e-07
0
0
0
1.65177e-07
7.97546e-09
0
0
3.96283e-08
1.57533e-07
1.54452e-07
0
0
0
1.36565e-07
2.82513e-07
2.99137e-07
3.19758e-07
3.4656e-07
3.286e-07
1.94942e-07
0
0
0
2.39884e-08
8.5656e-08
1.64404e-07
2.0814e-07
2.30394e-07
2.75542e-07
1.68433e-07
0
0
0
0
0
0
0
6.21272e-08
2.33242e-07
2.25001e-07
0
0
0
0
0
0
0
9.70986e-09
1.51937e-07
2.38301e-07
1.62635e-07
4.48697e-08
0
1.26181e-08
0
1.02161e-09
2.28717e-08
2.60245e-08
2.48737e-08
1.71536e-07
1.9248e-07
1.96805e-07
1.88334e-07
1.26212e-07
8.75988e-08
7.59996e-08
7.14775e-08
5.94988e-08
3.66761e-08
4.60053e-08
8.35551e-08
1.04033e-07
1.4746e-07
2.19485e-07
1.57535e-07
1.54563e-07
1.62959e-07
1.78764e-07
1.96002e-07
2.15984e-07
2.22899e-07
2.27387e-07
2.44418e-07
2.27766e-07
0
0
0
1.66238e-08
4.02509e-08
5.03449e-08
2.97463e-08
0
0
2.76496e-07
0
0
0
0
0
0
0
0
0
3.0269e-07
0
0
0
0
0
0
0
0
0
2.80877e-07
0
0
0
0
0
0
0
0
0
1.89256e-07
0
0
0
0
0
0
0
0
0
1.13387e-07
0
0
0
0
0
0
0
0
0
3.92111e-08
0
0
0
0
0
0
0
0
0
0
0
0
0
0
0
0
0
0
0
0
0
0
0
0
0
0
0
0
0
1.21212e-08
0
0
0
0
0
0
0
0
0
0
0
0
0
0
0
0
0
0
0
0
0
0
0
0
0
0
0
0
0
1.66689e-07
1.81739e-08
0
0
5.19417e-08
0
0
0
0
0
1.3513e-07
2.86058e-07
2.99631e-07
3.12763e-07
3.4815e-07
0
0
0
0
0
2.93783e-08
8.70003e-08
1.6962e-07
2.02206e-07
2.44315e-07
0
0
0
0
0
0
0
0
0
1.04555e-07
0
0
0
0
0
0
0
0
0
0
0
0
0
0
0
6.37963e-09
0
0
1.67467e-08
1.34188e-08
0
0
0
0
0
1.2842e-07
9.18854e-08
8.04446e-08
7.70504e-08
6.43512e-08
4.39851e-08
2.17846e-08
4.09349e-08
4.57504e-08
7.81225e-08
)
;
    }
    outlet
    {
        type            calculated;
        value           nonuniform List<scalar> 
100
(
1.25114e-05
2.49994e-31
2.21028e-30
9.80232e-31
7.58334e-06
7.89729e-06
5.83249e-06
6.70646e-06
8.11258e-06
1.21524e-05
8.4375e-07
8.4375e-07
8.4375e-07
8.4375e-07
8.4375e-07
8.4375e-07
8.4375e-07
8.4375e-07
8.4375e-07
8.4375e-07
8.4375e-07
8.4375e-07
8.4375e-07
8.4375e-07
8.4375e-07
8.4375e-07
8.4375e-07
8.4375e-07
8.4375e-07
8.4375e-07
8.4375e-07
8.4375e-07
8.4375e-07
8.4375e-07
8.4375e-07
8.4375e-07
8.4375e-07
8.4375e-07
8.4375e-07
8.4375e-07
8.4375e-07
8.4375e-07
8.4375e-07
8.4375e-07
8.4375e-07
8.4375e-07
8.4375e-07
8.4375e-07
8.4375e-07
8.4375e-07
8.4375e-07
8.4375e-07
8.4375e-07
8.4375e-07
8.4375e-07
8.4375e-07
8.4375e-07
8.4375e-07
8.4375e-07
8.4375e-07
1.54419e-06
1.21167e-06
9.99607e-07
5.11796e-07
2.21229e-08
2.03274e-06
8.4375e-07
8.4375e-07
8.4375e-07
1.30607e-11
8.4375e-07
8.4375e-07
8.4375e-07
8.4375e-07
8.4375e-07
8.4375e-07
8.4375e-07
8.4375e-07
8.4375e-07
8.4375e-07
8.4375e-07
8.4375e-07
8.4375e-07
8.4375e-07
8.4375e-07
8.4375e-07
8.4375e-07
8.4375e-07
1.20986e-06
3.63903e-30
7.06508e-06
5.53033e-06
4.18856e-06
1.30803e-06
6.42661e-07
7.10552e-06
3.99016e-06
2.92487e-06
2.85193e-06
5.19824e-06
)
;
    }
}


// ************************************************************************* //
