/*--------------------------------*- C++ -*----------------------------------*\
| =========                 |                                                 |
| \\      /  F ield         | OpenFOAM: The Open Source CFD Toolbox           |
|  \\    /   O peration     | Version:  2.3.0                                 |
|   \\  /    A nd           | Web:      www.OpenFOAM.org                      |
|    \\/     M anipulation  |                                                 |
\*---------------------------------------------------------------------------*/
FoamFile
{
    version     2.0;
    format      ascii;
    class       volScalarField;
    location    "1.69";
    object      epsilon.air;
}
// * * * * * * * * * * * * * * * * * * * * * * * * * * * * * * * * * * * * * //

dimensions      [0 2 -3 0 0 0 0];

internalField   nonuniform List<scalar> 
6000
(
119.208
17.4893
10.8665
9.87371
9.60027
9.39038
9.28044
9.32802
9.48197
9.67701
9.79101
9.96064
10.5119
11.5352
12.6534
11.9051
11.1765
10.7702
10.4237
10.137
9.89861
9.73063
9.66294
9.73887
9.81577
9.6325
9.74351
10.7721
17.7407
120.08
78.1564
23.727
14.5397
11.9352
11.3382
11.041
10.6765
10.539
10.6783
11.2528
11.8707
12.7641
14.8687
18.3422
21.0368
18.6268
15.9583
14.3621
13.3069
12.6266
12.2807
12.1419
12.2445
12.5968
12.655
11.9303
11.9434
14.1154
23.7058
76.8933
56.7173
20.7981
13.7825
11.5435
10.8222
10.4684
10.3066
10.5227
11.0399
11.8502
12.9361
14.6192
17.8089
21.753
22.0926
20.6901
17.8324
16.1216
15.4341
15.3514
15.4367
15.1464
14.544
13.8883
13.1872
12.7987
13.0827
15.1459
22.1275
57.4778
51.9735
20.8707
14.2034
11.666
10.7218
10.4201
10.3975
10.7696
11.5306
12.6976
14.3196
16.7869
21.0387
24.4984
23.3181
22.255
19.5085
17.8188
17.3343
17.5929
18.0009
17.9164
17.1686
15.9537
14.6509
14.5008
13.9946
15.2912
20.7173
46.9144
44.0085
20.7623
15.3878
12.9013
11.5363
11.0141
11.054
11.5956
12.6122
14.2224
16.4431
19.6194
24.673
26.4974
24.8707
23.4762
21.2376
19.968
19.7289
20.1256
20.4059
20.3777
19.6857
17.9569
16.3359
16.0639
15.2744
15.6684
19.9502
39.8431
32.4485
19.3041
15.3595
14.0362
13.5337
13.0289
12.7083
13.019
14.1357
16.0401
18.8143
22.7259
28.3092
29.5635
27.6541
25.74
24.3102
23.7786
23.8386
24.1258
23.6512
22.9561
21.8449
19.7233
17.9967
17.5892
16.7642
16.3587
19.5695
35.3117
24.2935
16.3284
14.6377
13.937
14.2179
15.0334
15.2588
15.1152
15.7186
17.6687
20.8395
25.476
31.4431
33.4332
31.8993
29.9048
30.0778
30.8402
31.0833
30.8819
29.0101
27.3035
25.2045
21.9853
19.7654
19.4288
18.3061
17.1211
19.2617
33.8777
19.0953
13.496
13.1375
13.1639
13.6135
14.7777
16.076
16.9923
17.4126
18.9963
22.2017
27.1352
33.5695
37.4921
37.1875
35.5768
37.9235
41.7474
42.2527
40.541
36.4886
33.8233
30.9946
25.7476
21.9896
21.4438
19.5105
17.6678
19.0208
33.7945
15.2834
11.0253
11.3208
11.9276
12.6121
13.7123
15.158
16.8775
18.7484
20.0842
22.9774
27.7054
34.0393
39.8154
41.7203
41.1569
44.882
51.6338
54.9198
51.8326
45.4758
41.9733
36.9576
30.0724
24.7368
23.1515
20.3595
17.9785
18.9793
33.5338
13.3025
9.35232
9.79969
10.8534
11.9669
13.0022
14.244
16.0485
18.6428
20.9724
23.5558
27.7286
33.3783
39.2774
43.2175
45.0102
49.9338
58.3005
65.5293
62.2496
54.1386
49.6949
41.6626
33.8316
27.5843
24.6768
21.1264
18.4593
19.0398
32.4075
13.406
8.8264
9.16035
10.2825
11.7228
13.0379
14.1561
15.7433
18.1341
21.0625
24.0476
27.7625
32.5795
37.971
43.3732
48.5325
54.6492
65.3226
76.7029
71.062
60.0172
53.535
45.0198
36.9839
30.1766
26.3942
22.2289
19.32
19.3391
30.9549
14.9581
9.12197
9.23771
10.2404
11.6882
13.364
14.6619
16.1286
18.3289
20.8369
24.0291
28.0226
32.6917
38.2904
45.0966
53.0986
59.0039
70.5482
85.0387
76.9868
62.9665
54.6157
46.8768
39.6186
32.6338
28.5937
23.9203
20.7131
20.3416
31.7136
19.0436
10.1453
9.77978
10.5593
11.8262
13.5969
15.4335
17.1129
19.2695
21.5684
24.3789
28.7866
34.3487
40.9598
49.6832
58.6186
62.8836
73.5123
88.4665
79.6764
64.5962
55.2511
48.0854
41.6093
34.9387
30.9983
26.0917
22.7775
22.6268
36.5454
23.6797
11.6063
10.6962
11.2458
12.3406
13.9198
15.9748
18.167
20.6002
23.2418
26.2111
30.8022
37.9033
46.2788
56.25
64.165
67.299
74.8403
88.3385
80.1913
65.6814
56.1587
49.3552
43.0858
36.6376
32.7036
28.3352
25.3372
26.0337
46.8945
28.2391
13.3955
11.8834
12.1757
13.1841
14.7077
16.7301
19.1215
21.7413
25.1941
29.1588
34.4617
42.0081
51.0631
61.0169
68.9908
71.9364
75.5879
86.4066
80.4654
67.045
57.6247
50.8686
44.5659
37.9052
34.1427
30.8916
28.6438
29.841
55.8996
36.8304
15.9478
13.447
13.4298
14.3768
15.9766
18.1969
20.7623
23.4789
27.7924
32.6574
38.1968
45.4527
53.9879
64.4916
73.6978
76.1564
76.9617
85.1895
82.4493
69.3438
59.9096
53.0733
46.9177
40.0843
36.779
34.2636
32.3671
33.7215
63.3196
43.2736
18.8234
15.5875
15.1944
15.9775
17.5972
19.9365
22.8405
26.0402
31.1483
36.2435
41.101
49.3599
59.1036
70.055
78.3469
78.9557
78.3039
83.5569
86.2232
73.0699
62.6929
55.6729
49.7225
43.0014
39.6835
37.5966
36.8637
40.8209
69.8271
55.5571
23.9416
18.4667
17.3256
17.8818
19.315
21.4803
24.1899
27.923
32.7786
37.7273
42.3479
51.03
62.5565
74.4964
82.2651
80.7721
78.4166
81.8323
89.6973
78.2496
66.0502
57.925
51.1116
44.3574
40.7986
38.4687
38.0444
42.6167
67.1398
54.8007
24.8707
20.1285
19.0003
19.2964
20.4425
22.3084
24.9789
28.4547
32.0758
36.247
41.3037
49.1629
60.4455
73.1883
83.3538
80.9255
77.7704
79.653
86.7187
82.8524
70.4958
59.6789
51.1773
44.358
40.6508
38.579
38.7546
43.4413
70.5145
50.2539
23.1227
18.7878
17.9572
18.5134
19.9393
22.1892
25.3259
28.9052
31.6215
34.4547
38.666
45.2764
55.1738
68.1707
80.837
79.689
76.4792
76.9954
79.7931
81.751
75.7643
63.2362
52.1009
44.3843
40.3632
38.6485
39.5312
44.5433
81.6055
46.2702
20.8727
16.9209
16.2057
16.8654
18.4734
20.9558
24.2023
27.6354
30.1295
32.2778
35.6862
41.3395
50.0761
62.9748
76.5229
76.5469
73.992
73.569
74.0598
74.5412
72.951
64.7037
53.8669
44.981
39.9495
38.3374
40.0809
44.2546
84.987
40.4416
18.5783
15.1023
14.441
14.9727
16.3668
18.5699
21.5399
24.8175
27.4244
29.6584
32.8478
38.0016
46.2138
59.0797
72.1933
72.2277
69.9395
68.6394
67.8059
66.6637
64.6036
60.4032
53.3949
45.9554
40.1725
38.1909
39.6659
43.1608
85.2929
32.9147
16.4828
13.4093
12.7609
13.1237
14.2334
16.0666
18.6748
21.6732
24.344
26.8748
30.1893
35.1711
43.1567
55.7596
67.3051
67.019
64.9717
63.0396
61.4416
59.7155
57.4804
54.2774
50.0491
45.188
40.4366
38.3342
39.115
43.579
90.3802
25.6074
14.2465
11.7775
11.2187
11.48
12.3564
13.9074
16.1713
18.8196
21.4424
24.2057
27.7004
32.6106
40.2146
51.4247
60.2562
60.9811
59.7007
57.8834
56.0405
54.1826
52.0126
49.3438
46.2287
42.9971
39.9197
39.1081
40.712
47.786
109.638
19.3884
11.7667
10.1351
9.81981
10.0468
10.7799
12.1731
14.1412
16.4479
18.9365
21.7613
25.3198
30.121
36.9391
45.8921
52.6875
54.7872
54.693
53.4918
51.806
49.9475
47.9154
45.5884
43.1331
40.9071
39.398
40.2635
44.0286
54.6166
130.629
14.5813
9.4093
8.60004
8.54456
8.7753
9.514
10.8187
12.5478
14.5695
16.88
19.6357
23.107
27.6055
33.4693
40.4132
46.1714
49.2781
50.2275
49.7751
48.4518
46.7182
44.8229
42.8025
40.8303
39.3774
39.16
41.4212
46.664
57.7792
134.238
10.9601
7.4752
7.20746
7.31402
7.70983
8.54139
9.76847
11.2974
13.0899
15.2091
17.7943
21.0314
25.0966
30.0537
35.5409
40.6533
44.4738
46.4593
46.6102
45.7213
44.2448
42.5441
40.8035
39.2708
38.4184
38.977
42.2154
48.0775
57.4179
129.101
7.9341
5.8408
5.94845
6.32771
6.93077
7.81543
8.95321
10.3127
11.9181
13.8446
16.2007
19.1123
22.6755
26.8439
31.3302
35.7605
39.7183
42.7762
44.1683
43.6123
42.4265
40.9809
39.5391
38.4024
38.0068
38.9793
42.6194
48.3768
56.0121
121.288
6.35292
4.81991
5.14654
5.72964
6.43372
7.29744
8.32692
9.54056
10.9828
12.7177
14.8234
17.38
20.4358
23.9381
27.7127
31.5459
35.2851
38.8664
41.8563
42.384
41.3191
40.1234
39.0498
38.2539
38.1381
39.3103
43.0486
48.8644
54.6883
112.795
6.30357
4.54934
4.87251
5.46861
6.14861
6.9338
7.8532
8.93935
10.2326
11.782
13.6422
15.8638
18.472
21.4362
24.6694
28.065
31.5817
35.3185
39.257
41.8637
41.2314
40.0868
39.2577
38.726
38.8211
40.164
44.03
50.0334
54.1761
102.471
7.11599
4.73125
4.91794
5.40248
5.9922
6.68465
7.50422
8.47711
9.63446
11.013
12.652
14.5863
16.8354
19.392
22.2261
25.3079
28.6649
32.4404
36.7705
41.0394
42.0722
40.8539
40.1747
40.0238
40.3093
41.7825
45.84
52.142
54.9059
94.7355
9.23797
5.3105
5.12763
5.43588
5.92207
6.52758
7.25848
8.13094
9.16781
10.3971
11.8491
13.5523
15.529
17.7916
20.3478
23.2153
26.4579
30.2171
34.6569
39.6826
43.3352
42.9602
42.0751
42.1592
42.6184
44.2492
48.6605
55.1558
56.8923
93.5413
11.0043
5.90866
5.38713
5.53697
5.92137
6.44739
7.09961
7.88438
8.81783
9.92227
11.2235
12.7491
14.5264
16.5828
18.95
21.6737
24.83
28.5379
32.9435
38.1366
43.5048
45.975
44.7196
44.6952
45.4484
47.4561
52.4652
59.6379
60.6506
96.9965
12.2829
6.39007
5.6438
5.67677
5.97223
6.4317
7.01523
7.72496
8.57231
9.57615
10.7608
12.1548
13.7911
15.7081
17.9522
20.5832
23.6766
27.3223
31.628
36.7232
42.5847
47.7302
47.7732
47.2129
48.2419
50.9167
57.0312
65.2002
66.1752
106.857
13.271
6.79809
5.89897
5.84251
6.07158
6.46908
6.9961
7.64323
8.42113
9.34706
10.4453
11.7468
13.2897
15.1205
17.2959
19.883
22.9516
26.5625
30.7769
35.6627
41.2198
47.1889
50.1338
49.0478
50.3477
53.7566
61.2165
69.9438
71.3556
120.046
14.1061
7.16931
6.15785
6.03273
6.20933
6.5571
7.03377
7.63223
8.35633
9.22494
10.2636
11.5058
12.9951
14.7859
16.9437
19.5433
22.6541
26.3214
30.5795
35.4206
40.6436
45.9894
50.2279
49.5531
51.0883
55.0751
63.0518
71.0915
74.1457
134.81
14.8742
7.52804
6.42657
6.24767
6.38231
6.69001
7.12665
7.68362
8.3699
9.20078
10.2035
11.4161
12.8877
14.6806
16.8721
19.5491
22.7931
26.6737
31.2488
36.481
41.8697
46.4569
49.5766
49.5492
51.0068
55.0512
62.8059
69.1038
75.3126
145.047
15.6297
7.89036
6.71054
6.4878
6.58853
6.86439
7.27044
7.79758
8.4545
9.26273
10.2522
11.4631
12.9484
14.7805
17.0506
19.8751
23.3877
27.7301
33.065
39.3592
45.5913
49.2438
50.5209
50.6592
52.3074
56.3523
62.8925
67.1232
77.6065
152.523
16.4052
8.26712
7.01401
6.75348
6.82629
7.07725
7.46042
7.96746
8.6096
9.41067
10.4061
11.6409
13.1728
15.0814
17.4775
20.5205
24.4171
29.4305
35.8927
43.7669
51.113
54.1017
53.9819
55.0306
57.6654
61.7691
66.198
69.8807
84.3276
180.838
17.2153
8.66619
7.34022
7.0445
7.093
7.32428
7.69098
8.18601
8.82321
9.63182
10.6548
11.9429
13.5541
15.5752
18.1201
21.3894
25.7039
31.4559
39.2392
48.1801
53.7168
55.7907
57.3103
61.4578
66.6672
71.3015
74.3897
77.8299
92.8293
193.778
18.0765
9.09608
7.69052
7.35877
7.38385
7.59827
7.9525
8.44006
9.07805
9.90234
10.9646
12.329
14.0606
16.2192
18.9119
22.3772
26.9899
33.2875
41.6246
48.8861
50.8995
53.1915
56.6139
62.2764
69.1412
74.8538
77.3272
78.4087
89.0683
175.152
18.9964
9.55678
8.06026
7.68914
7.6907
7.88994
8.23441
8.71645
9.35396
10.1874
11.2787
12.7123
14.5851
16.961
19.8415
23.3492
27.9362
34.3824
42.4521
45.5586
46.8434
49.3073
53.238
58.9191
65.718
71.3176
73.1257
72.638
76.9386
131.479
19.9591
10.0346
8.43844
8.02519
8.00429
8.19126
8.5297
9.00987
9.65008
10.4936
11.6031
13.066
15.0042
17.5413
20.6609
24.1651
28.491
34.5034
39.992
41.9627
43.315
45.5442
48.8945
53.3106
58.3291
62.008
62.5343
60.8202
61.4304
99.9466
20.9583
10.5169
8.81454
8.35971
8.32021
8.50007
8.83822
9.32097
9.96834
10.8241
11.944
13.3965
15.3104
17.8365
21.0295
24.6014
28.5479
33.5587
37.7372
39.5775
40.6664
42.4011
44.8788
47.917
50.9586
52.4622
51.4648
49.2764
48.9301
79.7631
21.9585
10.9806
9.17746
8.68993
8.64103
8.82264
9.16914
9.66278
10.3111
11.1663
12.2585
13.6487
15.4452
17.7884
20.7409
24.1817
27.945
32.5447
36.7341
38.3003
38.9506
40.0018
41.4225
43.2628
44.7559
44.0751
41.6258
39.4977
39.5866
65.8188
22.8655
11.39
9.51642
9.01557
8.96965
9.1601
9.51767
10.0167
10.6483
11.4609
12.4692
13.7474
15.3776
17.4565
20.0372
23.1198
26.7348
31.272
35.8342
37.5833
37.8702
38.2538
38.8493
39.8771
39.995
37.2584
33.8657
31.6645
32.4505
54.2069
23.5981
11.7451
9.8358
9.34126
9.30428
9.49396
9.83371
10.2972
10.8641
11.5676
12.4847
13.67
15.153
16.9946
19.2598
21.9915
25.3368
29.6785
34.6287
36.9278
37.1651
37.0633
37.3468
38.2044
36.639
32.4377
28.4417
26.0141
27.1902
44.4459
24.1648
12.0438
10.1511
9.68365
9.65514
9.82273
10.0991
10.4585
10.9207
11.5568
12.4149
13.4974
14.8382
16.5015
18.5495
21.0341
24.0707
27.9113
32.9619
36.2089
36.5855
36.3987
37.2765
38.3142
34.3998
29.2493
25.1275
22.5899
23.3283
35.8753
24.6117
12.3609
10.5309
10.111
10.1027
10.2597
10.4944
10.7948
11.1993
11.7557
12.5042
13.4448
14.6203
16.0996
17.9472
20.2225
22.9873
26.3854
30.8939
35.2659
35.9976
36.1063
38.299
38.8076
32.7451
27.3639
23.2313
20.6675
20.7481
30.504
25.39
12.8343
11.0425
10.6766
10.7082
10.8833
11.1106
11.3721
11.703
12.1435
12.7321
13.5001
14.4971
15.7814
17.4204
19.4746
21.989
25.0487
28.926
33.9936
36.0059
36.3494
40.2665
38.6536
31.6931
26.1678
22.0375
19.525
19.6977
30.6695
26.5761
13.5013
11.7178
11.4088
11.4905
11.696
11.9311
12.1547
12.3854
12.6739
13.0682
13.6347
14.4346
15.5187
16.9489
18.7861
21.0851
23.9109
27.4678
32.4355
36.4165
37.5651
42.6812
38.44
31.1682
25.3646
21.1471
18.7125
19.2563
33.0978
28.2701
14.4426
12.6272
12.3728
12.5169
12.7667
13.0497
13.2632
13.3479
13.3758
13.5135
13.8491
14.4418
15.3262
16.5596
18.2033
20.3258
23.0245
26.4828
31.1443
36.7914
39.8241
44.6439
38.5291
30.7645
24.6991
20.3933
18.086
19.1829
36.9223
30.6706
15.8269
13.907
13.6975
13.908
14.2023
14.4869
14.6387
14.5283
14.235
14.0765
14.1596
14.5421
15.2503
16.3055
17.7756
19.7495
22.3701
25.8658
30.5844
36.6765
41.8419
44.8884
37.8874
29.8741
23.7885
19.5834
17.4369
18.8419
37.5153
34.1743
17.86
15.6697
15.3966
15.5548
15.8206
15.8417
15.6865
15.426
15.0803
14.7355
14.6091
14.801
15.3424
16.2521
17.5683
19.3964
21.9007
25.3736
30.2014
36.3632
42.591
43.7795
36.0751
28.2833
22.5333
18.637
16.7324
18.2607
36.7197
39.6565
20.475
17.8415
17.3943
17.4293
17.3078
16.7546
16.224
15.8885
15.6182
15.3272
15.1662
15.2567
15.6629
16.4418
17.6406
19.3351
21.666
24.8979
29.4139
35.1767
40.8751
40.3186
32.9054
26.0685
21.0242
17.6259
16.0667
17.763
34.5038
46.3442
23.5229
20.3902
19.7289
18.6037
17.7366
16.9904
16.4689
16.1194
15.8559
15.7364
15.7473
15.8932
16.2993
16.9923
18.075
19.6317
21.768
24.6014
28.3917
33.0737
36.8246
35.0801
29.1112
23.6574
19.5184
16.7162
15.5091
17.0491
30.3699
54.7046
27.0171
23.1794
21.1878
18.923
17.8768
17.2163
16.7396
16.4163
16.2353
16.2217
16.4219
16.8268
17.3523
18.0938
19.1161
20.5447
22.419
24.8186
27.7681
31.1105
32.8401
30.4264
25.8105
21.5943
18.322
16.1293
15.2274
16.0579
27.1314
63.4566
30.6832
25.3405
21.4738
19.1555
18.0506
17.4965
17.137
16.9361
16.9071
17.0863
17.5142
18.1834
19.0244
19.9931
21.1093
22.465
24.0437
25.9198
28.0513
29.9984
30.1126
27.2351
23.5145
20.1735
17.6162
16.0232
15.3931
15.5444
25.6655
71.0845
33.9006
26.2133
21.7264
19.5083
18.4042
17.9359
17.7425
17.7241
17.8993
18.2966
19.0078
20.0923
21.5071
23.0279
24.4435
25.7603
27.17
28.4754
29.6052
30.1598
28.7216
25.6123
22.2527
19.3995
17.3388
16.2652
15.9379
15.8755
26.6958
77.1203
35.6645
26.161
22.0655
20.1211
19.1645
18.7985
18.7493
18.9501
19.3601
19.9893
20.9438
22.4586
24.678
27.2953
29.4389
30.7192
31.8204
33.0093
33.153
31.6007
28.7557
25.116
21.7415
19.0601
17.2188
16.5127
16.5088
16.7609
33.1098
92.1567
36.4878
26.5638
22.8557
21.1761
20.4367
20.2193
20.3681
20.8257
21.5137
22.427
23.6608
25.5022
28.2501
31.7484
35.0666
36.9158
37.5778
38.2081
36.879
33.6584
29.4336
25.2179
21.6731
18.9154
16.9784
16.2927
16.5986
17.9438
37.6736
112.855
39.1993
28.457
24.5167
22.7624
22.1216
22.0785
22.5105
23.3316
24.3933
25.6789
27.324
29.6211
32.8369
36.882
41.1686
44.624
46.3252
44.7775
40.9306
35.83
30.4576
25.7375
21.9277
18.9569
16.7181
15.816
16.2154
17.7645
35.5164
123.114
43.8046
31.3623
26.8224
24.7292
24.0406
24.1311
24.8451
26.1011
27.6141
29.2993
31.4119
34.3697
38.507
43.7926
50.3207
57.881
61.0414
54.8574
46.4267
38.4777
31.7927
26.5391
22.4697
19.3112
16.8888
15.4492
15.2847
16.7868
30.2152
116.202
48.0945
33.4495
28.6699
26.5306
25.844
26.0618
27.052
28.673
30.5615
32.5953
35.0511
38.3976
43.1126
49.6497
58.6626
70.114
75.2174
63.9754
51.2676
40.5538
32.8246
27.228
23.159
20.0942
17.7242
15.9881
15.0206
15.6935
24.6009
92.4886
46.7797
34.8011
30.0555
27.95
27.3123
27.6242
28.6168
30.0573
31.8674
33.958
36.4677
39.7997
44.4548
50.8333
59.1547
69.2969
75.1469
64.7476
51.7074
40.5453
32.8279
27.4311
23.6805
20.7824
18.5001
17.1172
16.133
16.2631
24.4025
71.9892
41.9492
33.2446
29.8671
28.325
27.8119
27.9344
28.5396
29.6593
31.249
33.2365
35.7083
39.0128
43.56
49.4668
56.3366
63.2639
66.8785
58.8131
48.0941
38.6552
31.8045
27.1425
23.6309
20.886
19.1666
18.1971
17.7546
18.9057
29.833
66.1947
37.639
31.4508
29.1293
28.0319
27.5793
27.5466
27.9076
28.7349
30.0821
31.9306
34.3573
37.591
41.7835
46.7284
51.7887
56.0551
58.3731
53.5052
44.0971
36.7159
30.9773
26.6464
23.3825
21.0915
19.7066
19.0315
18.7738
21.0959
36.9902
66.274
34.8454
29.7675
28.126
27.4027
27.077
27.0131
27.242
27.8743
28.9952
30.6505
32.9116
35.8897
39.5661
43.6289
47.4124
50.0326
51.2463
49.3584
42.0644
35.6169
30.5618
26.6939
23.7542
21.5753
20.0501
19.1585
18.9979
21.4319
37.998
67.6934
33.4435
28.33
26.8801
26.3503
26.156
26.1488
26.365
26.9139
27.8919
29.3715
31.4059
34.0432
37.2057
40.5932
43.5813
45.2576
45.6492
44.712
40.0481
34.8403
30.3992
26.9179
24.1714
21.9722
20.2829
19.2023
18.951
21.3485
41.4633
68.6207
32.578
27.1693
25.6742
25.1871
25.0599
25.1149
25.3626
25.8883
26.7798
28.108
29.9002
32.1875
34.8982
37.7523
40.1176
41.2079
41.2023
40.5443
37.7366
33.5208
29.8185
26.6182
23.9978
21.9259
20.3396
19.27
18.885
20.9634
43.0829
68.4012
31.8062
26.1693
24.5771
24.07
23.9628
24.0553
24.3328
24.8538
25.6873
26.8852
28.4509
30.4126
32.7217
35.0778
36.8219
37.4933
37.4203
36.7876
34.9944
31.5184
28.4483
25.6587
23.2909
21.3888
19.9091
18.9003
18.6947
21.1405
42.7975
67.4737
30.9723
25.237
23.5708
23.0305
22.9207
23.0309
23.3283
23.8468
24.6347
25.7195
27.0842
28.7511
30.6743
32.4997
33.637
34.0268
34.0075
33.4988
31.9805
29.4439
26.9546
24.578
22.4799
20.7389
19.3777
18.5078
18.4897
21.2072
43.1733
65.7839
30.056
24.3443
22.6398
22.0721
21.9531
22.0698
22.3768
22.8886
23.6333
24.6171
25.806
27.2055
28.7394
30.0126
30.6703
30.9273
30.9757
30.5963
29.2393
27.455
25.6786
23.8067
21.8925
20.2672
19.0442
18.3242
18.5265
21.5412
40.5569
63.8071
29.1095
23.4874
21.7757
21.1931
21.066
21.1841
21.4954
21.9969
22.699
23.5892
24.6229
25.7793
26.9264
27.6997
28.0696
28.3023
28.4433
28.2281
27.0826
25.6955
24.72
23.3688
21.5992
20.0092
18.9261
18.4344
18.8944
21.8347
39.417
61.8765
28.1601
22.6654
20.9745
20.3924
20.2649
20.3874
20.7026
21.1941
21.8547
22.6547
23.545
24.4786
25.2599
25.6545
25.8856
26.1418
26.3928
26.3177
25.3387
24.1032
23.4421
22.5713
21.2338
19.8082
18.863
18.5447
19.3048
22.8117
45.0345
60.0105
27.2449
21.8936
20.2424
19.6765
19.5606
19.696
20.0197
20.504
21.1243
21.8332
22.5827
23.3062
23.7661
23.9113
24.0752
24.361
24.691
24.599
23.5844
22.4456
21.7513
20.9259
19.9359
19.0552
18.4672
18.3649
19.2913
23.2532
48.7214
58.2678
26.3797
21.1806
19.5844
19.0516
18.9622
19.1228
19.4638
19.9461
20.524
21.1334
21.7404
22.2618
22.463
22.4523
22.5733
22.8787
23.2136
22.9247
21.8421
20.9454
20.1408
19.2863
18.4613
17.8043
17.4487
17.5432
18.6349
23.0123
50.4352
56.8128
25.58
20.5299
19.0054
18.5217
18.4714
18.6686
19.037
19.5213
20.0468
20.5453
21.0112
21.3394
21.3376
21.239
21.328
21.6343
21.8622
21.274
20.2827
19.6019
18.7896
17.9142
17.1572
16.5941
16.2985
16.4601
17.6379
22.0993
49.3093
55.5708
24.8635
19.947
18.5
18.075
18.0758
18.3218
18.7235
19.1995
19.6494
20.0393
20.3731
20.5193
20.3759
20.2238
20.2935
20.5644
20.5371
19.6971
18.9274
18.2794
17.5177
16.7282
16.0402
15.5269
15.2528
15.4027
16.5143
20.6311
45.0543
54.5875
24.232
19.4239
18.0514
17.684
17.7454
18.0528
18.4774
18.9141
19.2738
19.5697
19.7816
19.772
19.5467
19.3715
19.4287
19.5921
19.1988
18.3105
17.708
17.0374
16.2886
15.551
14.9049
14.4228
14.1734
14.3122
15.2872
18.862
40.2286
53.7303
23.6794
18.9475
17.6357
17.3252
17.4595
17.8238
18.2397
18.602
18.8719
19.0841
19.1873
19.069
18.8093
18.6412
18.6726
18.6134
17.8724
17.1482
16.5746
15.8646
15.1267
14.4305
13.8288
13.3696
13.1166
13.2073
14.0188
17.0992
35.9639
52.965
23.1836
18.5001
17.2358
16.9805
17.1913
17.6007
17.9721
18.2312
18.4111
18.544
18.5583
18.3822
18.1284
17.9864
17.947
17.5482
16.6645
16.0907
15.4728
14.7649
14.0605
13.4024
12.8296
12.3807
12.1114
12.144
12.8165
15.5258
32.4258
52.1524
22.7295
18.0875
16.8569
16.6435
16.922
17.3605
17.6626
17.8013
17.8866
17.946
17.8992
17.7091
17.4916
17.3603
17.1486
16.4009
15.6442
15.1079
14.4484
13.7474
13.0604
12.4317
11.8856
11.4489
11.172
11.1689
11.7494
14.182
29.5151
51.1959
22.3185
17.7188
16.5074
16.309
16.6277
17.083
17.3122
17.3352
17.3278
17.3225
17.2421
17.0672
16.8851
16.6965
16.2077
15.3098
14.7442
14.1838
13.4817
12.7752
12.1168
11.5252
11.011
10.5959
10.327
10.3113
10.8327
13.0529
27.108
49.8196
21.8838
17.3814
16.1901
15.976
16.2939
16.7495
16.9296
16.8708
16.7849
16.7253
16.6285
16.472
16.2708
15.9145
15.1424
14.3534
13.8923
13.2436
12.5339
11.8642
11.2493
10.6993
10.2225
9.83779
9.58901
9.57559
10.0594
12.1151
25.127
48.1929
21.5943
17.0947
15.9043
15.6449
15.9111
16.3553
16.529
16.4434
16.3061
16.199
16.0797
15.9006
15.5997
15.0063
14.0948
13.51
12.9816
12.2956
11.6484
11.0405
10.4729
9.96474
9.529
9.18049
8.95842
8.95553
9.41629
11.3467
23.5139
46.256
21.3612
16.8573
15.6572
15.3282
15.4989
15.9154
16.1384
16.0886
15.9304
15.7721
15.5937
15.326
14.8554
14.0356
13.1803
12.6709
12.0235
11.4043
10.8443
10.3115
9.79397
9.32711
8.93366
8.62282
8.42899
8.4399
8.88818
10.7273
22.2441
43.876
21.1626
16.6752
15.4649
15.0488
15.0937
15.4617
15.7894
15.8384
15.6953
15.4714
15.1719
14.7404
14.06
13.1085
12.4256
11.7839
11.1536
10.6043
10.1203
9.66034
9.20563
8.78936
8.44098
8.16418
7.99428
8.01713
8.45744
10.2285
21.2488
40.8148
20.9223
16.5626
15.3631
14.8444
14.74
15.0529
15.5207
15.7386
15.6528
15.341
14.8504
14.185
13.2768
12.3755
11.7403
11.0373
10.4354
9.92517
9.4801
9.08609
8.71008
8.34613
8.04612
7.79743
7.64466
7.67392
8.10154
9.80641
20.3946
37.2889
20.6078
16.5832
15.4088
14.7796
14.5033
14.7639
15.3838
15.8326
15.8498
15.4517
14.695
13.72
12.619
11.9132
11.175
10.4481
9.86627
9.37804
8.95442
8.58256
8.25995
7.97322
7.70657
7.48897
7.35892
7.39283
7.79456
9.40097
19.4217
33.3438
20.2858
16.7319
15.5903
14.8706
14.4756
14.6924
15.4418
16.1841
16.4014
15.8959
14.7821
13.4103
12.3062
11.5726
10.6926
9.97838
9.41478
8.94931
8.55288
8.20816
7.90985
7.65385
7.43445
7.25359
7.14505
7.17764
7.53448
8.96731
18.1676
28.9316
19.8294
17.0792
15.975
15.1342
14.6324
14.841
15.7279
16.913
17.4591
16.8018
15.1313
13.2999
12.2312
11.2201
10.2819
9.58612
9.04695
8.61195
8.24901
7.94083
7.67823
7.45507
7.26637
7.11437
7.02244
7.04951
7.36026
8.64573
17.3952
23.6472
18.7091
17.1591
16.3465
15.5045
14.9968
15.2327
16.3164
18.0615
19.0643
18.1613
15.6846
13.4989
12.1492
10.8688
9.91034
9.22206
8.71445
8.32656
8.0177
7.76491
7.55364
7.37464
7.22157
7.09571
7.01542
7.03515
7.31628
8.56054
17.4254
17.4301
16.114
16.6564
16.5023
15.8442
15.4026
15.7057
17.0279
19.4749
21.1106
19.8274
16.3518
13.8562
12.0336
10.5846
9.58121
8.88576
8.40821
8.07971
7.84737
7.67546
7.53856
7.41724
7.30563
7.20595
7.13571
7.15007
7.42043
8.68708
17.7374
11.6721
12.142
15.0924
16.3637
16.2436
15.8169
16.0807
17.608
20.8268
23.1939
21.3866
17.0424
14.1234
11.9507
10.3845
9.3249
8.62202
8.18065
7.92266
7.78336
7.70976
7.66115
7.61446
7.55845
7.49421
7.43934
7.45149
7.716
9.02336
18.3913
7.47551
8.3924
12.3658
15.6372
16.8244
16.5113
16.4281
17.8993
21.73
24.7778
22.4523
17.5409
14.2754
11.9047
10.2511
9.14525
8.45309
8.06801
7.89834
7.8562
7.8977
7.97129
8.02277
8.03634
8.02148
7.98935
8.00511
8.26586
9.60633
19.3769
4.7459
5.71572
9.56585
14.0591
17.3923
17.7061
16.9505
17.9864
21.9719
25.3656
22.8259
17.716
14.3013
11.8496
10.1364
9.0152
8.3634
8.05705
7.98224
8.08044
8.29797
8.53222
8.72443
8.82103
8.8545
8.86289
8.89363
9.14678
10.5092
20.8544
3.22468
4.22344
7.71304
12.5679
17.5584
19.4268
17.9225
18.1508
21.7903
25.1486
22.588
17.5818
14.1507
11.6924
9.98108
8.89674
8.31425
8.12327
8.18557
8.40291
8.82318
9.34773
9.72685
9.93571
10.0627
10.1609
10.2409
10.4917
11.8758
23.0678
2.99038
3.77763
7.04173
11.8748
17.984
21.6226
19.5305
18.516
21.439
24.3977
21.9048
17.1239
13.7183
11.3501
9.73559
8.73279
8.28089
8.22773
8.38258
8.85795
9.46931
10.0435
10.5563
11.1012
11.582
11.9574
12.1811
12.4613
13.8816
26.274
3.83591
3.867
6.92064
11.6708
18.4132
24.2076
21.9557
19.3409
21.2957
23.3104
20.8298
16.2287
12.9925
10.824
9.35352
8.52336
8.25512
8.30499
8.62519
9.31256
9.93618
10.3391
11.1744
12.3264
13.5406
14.4558
14.9151
15.2646
16.7496
30.7674
4.92047
4.03854
6.98113
11.6363
18.4256
26.7225
25.2581
20.671
21.2284
21.9837
19.4012
15.0223
12.1208
10.1765
8.90279
8.29795
8.2272
8.39607
8.92571
9.80082
10.1694
11.0031
12.4733
14.4205
16.4409
18.0571
18.7994
19.2347
20.7755
36.8775
5.44041
4.1618
6.90968
11.4796
18.1692
27.136
28.6727
22.3417
21.1313
20.6763
17.6308
13.7411
11.2835
9.56761
8.50145
8.10523
8.17075
8.51954
9.41474
9.83394
10.5015
11.9746
14.349
17.5211
20.777
23.0362
24.0371
24.6317
26.4127
45.2345
5.4761
4.11686
6.63527
10.853
17.0649
25.3792
30.3903
24.0053
21.2321
19.5019
15.8042
12.7438
10.6698
9.16577
8.27592
8.0346
8.17462
8.66524
9.43979
9.8264
10.9968
13.2504
16.8829
21.8178
26.3458
28.8542
30.579
32.0877
34.5007
56.8507
5.42659
3.88974
6.16832
10.0164
15.6665
23.2032
29.9233
25.7517
21.6388
18.5225
14.9404
12.358
10.4572
9.08004
8.30126
8.16571
8.39732
8.9922
9.36424
10.1329
11.8545
15.0004
20.0021
26.2117
31.2321
33.8065
38.3904
42.9102
46.4304
73.2868
5.43798
3.65758
5.62402
9.06974
14.163
21.2681
28.8228
27.5948
22.9824
18.6915
15.0367
12.4179
10.5475
9.27238
8.62656
8.61234
8.95423
9.4473
9.81726
11.0782
13.5585
17.6184
23.4772
29.7551
34.2467
39.5993
50.3485
62.0289
66.3479
97.8259
5.61604
3.65476
5.22578
8.14625
12.5324
18.8536
26.6396
28.5495
24.6439
19.2848
15.3267
12.6614
10.9051
9.84661
9.41504
9.51391
9.9237
10.3535
11.2771
13.3084
16.7247
21.6559
27.9123
34.6594
40.9033
50.5885
72.0548
95.9075
87.9294
114.381
6.205
3.94861
5.1642
7.5014
11.0521
16.2317
23.1356
26.9737
23.9745
19.1246
15.4933
13.1092
11.6292
10.8811
10.7163
11.0326
11.7109
12.5896
14.3839
17.4839
22.0548
28.0581
35.2987
44.0111
54.7763
72.8591
112.438
157.017
138.427
147.875
7.65561
4.61154
5.42139
7.28695
10.0567
14.0632
19.4773
24.1357
22.7212
18.9771
15.9067
13.8954
12.8229
12.5081
12.6726
13.5013
14.8483
16.6713
19.6459
24.1609
30.3291
38.2508
48.4086
62.1587
82.0342
114.051
169.735
205.534
182.695
181.551
9.74194
5.56656
6.05677
7.48835
9.67684
12.7139
16.8091
21.2389
22.4436
20.0389
17.385
15.8846
15.1356
14.9204
15.4608
17.136
19.5714
22.8384
27.5508
34.0576
42.7109
54.3052
70.4965
94.2287
126.744
170.786
218.359
231.292
231.747
218.785
11.9438
6.87985
7.03963
8.09909
9.83154
12.2083
15.3275
18.9646
21.7855
21.6744
20.0479
19.0784
18.584
18.4636
19.5281
22.4464
26.5557
31.8681
38.907
48.2287
60.8929
78.6588
103.841
136.307
173.47
205.266
224.779
260.902
252.843
249.087
14.2973
8.49545
8.33074
9.0327
10.4008
12.3621
14.9377
18.0313
21.2146
23.2646
23.1819
22.9211
22.7401
23.0836
25.4406
30.2729
36.6429
44.6217
54.787
68.0852
85.939
109.662
138.958
170.259
189.279
199.995
224.575
277.926
243.368
259.435
18.8299
10.3598
9.80375
10.1163
11.1988
12.9543
15.3062
18.2392
21.598
24.825
26.5608
27.1434
27.6943
29.5695
34.1023
41.2467
50.4323
61.578
75.0598
91.2691
111.116
135.705
159.537
172.642
178.047
188.627
226.791
271.146
217.989
252.899
22.9201
11.801
10.9026
10.9875
12.0086
13.7692
16.1587
19.1968
22.8716
26.9103
30.1986
32.1102
34.4829
38.7436
45.8486
55.4664
66.9188
79.1509
92.7314
108.941
127.028
143.543
154.277
158.17
162.351
183.224
220.554
241.554
186.794
234.326
22.7383
12.1664
11.2485
11.492
12.7218
14.6549
17.2493
20.5887
24.7526
29.6222
34.3792
38.5411
43.4726
50.6422
59.8137
69.5284
79.3506
90.4324
102.678
115.372
126.688
134.965
137.911
140.229
150.644
173.786
196.148
200.085
155.89
210.936
21.6684
12.2426
11.3731
11.8886
13.3639
15.5425
18.4262
22.1699
26.9576
32.7965
39.2856
46.1451
54.4546
63.7917
72.0638
79.0598
86.3204
95.0544
104.764
113.745
119.642
121.486
121.922
125.844
137.749
153.668
161.759
160.131
129.247
188.977
20.3069
12.3679
11.6026
12.3399
14.08
16.4863
19.6366
23.7923
29.2335
36.1365
44.4574
54.2698
64.9921
73.4108
78.9826
84.362
90.247
97.2438
104.139
108.846
109.981
108.79
108.456
112.857
122.219
129.065
129.924
127.249
108.195
170.18
20.2706
12.7785
12.2787
13.0132
14.9178
17.5152
20.8545
25.3661
31.3619
39.2426
49.1392
60.6298
70.8595
77.4826
82.8605
88.254
93.3744
98.0131
101.423
102.119
100.086
97.4308
96.9199
100.75
105.853
107.042
104.588
102.727
92.6139
155.794
21.9178
13.6864
13.2652
14.1551
15.9852
18.7397
22.2711
26.9154
33.3461
41.9034
52.6796
64.1339
73.7638
80.6466
86.8329
91.8808
95.3574
97.2877
97.2829
94.9621
90.9911
87.8556
87.4222
90.1616
91.9477
89.7688
86.3141
85.5519
81.5777
145.572
25.9476
15.0222
14.4083
15.385
17.2638
20.0545
23.9669
28.9257
35.616
44.5216
55.5944
66.677
76.342
84.3477
90.5786
94.3539
95.828
95.308
92.6588
88.2933
83.4062
80.3975
80.172
81.6492
81.1855
77.2573
73.7473
73.8915
73.8727
138.308
30.2012
16.3043
15.396
16.4019
18.4188
21.5219
25.8908
31.4302
38.3795
47.575
58.4556
69.2397
78.7879
87.795
93.5686
95.6376
95.1357
92.472
88.0162
82.5418
77.5062
74.9409
74.7917
75.1549
73.1007
68.4806
65.2577
65.9794
68.4737
133.304
33.275
17.3402
16.1739
17.2091
19.4763
22.9907
27.7497
33.8322
41.4301
50.9954
61.7072
71.8748
81.7861
91.4156
96.2657
96.139
93.4898
89.1361
83.5803
77.7455
73.1313
71.0543
70.6904
69.9745
67.0113
62.3254
59.5112
60.4981
64.632
129.963
35.2275
18.1391
16.8785
17.9851
20.5336
24.3682
29.4966
36.0769
44.3676
54.4122
65.0664
75.2816
86.1061
95.7943
99.3276
96.6248
91.5512
85.705
79.5234
73.8602
69.9161
68.0926
67.1765
65.5975
62.352
57.982
55.5647
56.597
61.8987
127.95
36.2932
18.8296
17.5893
18.8123
21.572
25.6753
31.173
38.2517
47.1735
57.8027
68.8223
79.9046
91.622
101.128
103.22
97.8089
90.1263
82.7149
76.119
70.8931
67.5129
65.5414
63.897
61.8874
58.834
54.9839
52.8769
53.8359
60.0521
126.918
37.2825
19.6062
18.2943
19.6254