/*--------------------------------*- C++ -*----------------------------------*\
| =========                 |                                                 |
| \\      /  F ield         | OpenFOAM: The Open Source CFD Toolbox           |
|  \\    /   O peration     | Version:  2.3.0                                 |
|   \\  /    A nd           | Web:      www.OpenFOAM.org                      |
|    \\/     M anipulation  |                                                 |
\*---------------------------------------------------------------------------*/
FoamFile
{
    version     2.0;
    format      ascii;
    class       surfaceScalarField;
    location    "86";
    object      phi.air;
}
// * * * * * * * * * * * * * * * * * * * * * * * * * * * * * * * * * * * * * //

dimensions      [0 3 -1 0 0 0 0];

internalField   nonuniform List<scalar> 
3650
(
1.31511e-05
0.000118148
5.8343e-05
0.000114343
0.00011678
0.000113874
0.000173546
0.000115867
0.000224916
0.000119255
0.000268926
0.000123484
0.000304599
0.000128159
0.000331725
0.000133093
0.00035041
0.000138243
0.000360738
0.000143635
0.000362964
0.000149273
0.000357985
0.000155058
0.000344796
0.000160949
0.000321922
0.000166839
0.000290752
0.00017224
0.000253424
0.000177153
0.000213429
0.000181083
0.000173955
0.000183489
0.000138079
0.00018394
0.000108422
0.000182701
8.59573e-05
0.000180321
6.94627e-05
0.000177744
4.69296e-05
0.000176199
1.33702e-05
0.000176694
0.000176404
4.75268e-05
8.04314e-05
9.93043e-05
8.20763e-05
0.000148766
8.50215e-05
0.000190796
9.02544e-05
0.000228149
9.67831e-05
0.000260711
0.000104209
0.000288116
0.000112348
0.000309928
0.00012108
0.000325617
0.000130323
0.000334567
0.000140048
0.000335635
0.000150354
0.000327944
0.000161179
0.000314703
0.000172226
0.000296135
0.000183793
0.000272004
0.000195268
0.000243638
0.00020535
0.00021354
0.000212688
0.00018164
0.000216864
0.000148833
0.00021854
0.000116837
0.00021758
8.60143e-05
0.00021503
5.59099e-05
0.000212583
2.80247e-05
0.000212932
7.6833e-06
0.000213728
0.000212443
5.14483e-05
4.79857e-05
0.000104364
5.41831e-05
0.000146425
6.14982e-05
0.000179007
6.99714e-05
0.000205909
7.96562e-05
0.000228136
9.05071e-05
0.000245672
0.000102311
0.0002583
0.000114879
0.000265856
0.000127996
0.000268736
0.000141599
0.000267922
0.000155657
0.00026316
0.000170061
0.000251762
0.000184708
0.000235983
0.000199497
0.000216227
0.000213907
0.000192005
0.000226914
0.000163464
0.000236961
0.000134064
0.000242978
0.000105823
0.000244829
7.95637e-05
0.000242905
5.62549e-05
0.000238616
3.65039e-05
0.000233947
1.97047e-05
0.000230792
8.15914e-06
0.000228599
0.00022546
5.32369e-05
2.76611e-05
8.79649e-05
3.43349e-05
0.000111211
4.30576e-05
0.000132169
5.30478e-05
0.000150143
6.4655e-05
0.000163767
7.77343e-05
0.000172442
9.19955e-05
0.000176008
0.000107169
0.000175263
0.000122977
0.000170717
0.00013923
0.000162519
0.000155866
0.00015136
0.000172826
0.0001383
0.000190028
0.00012347
0.00020721
0.0001072
0.000223694
8.95409e-05
0.000238392
7.09705e-05
0.0002498
5.45044e-05
0.000256401
4.00612e-05
0.000257724
2.8089e-05
0.000254575
1.86347e-05
0.000248759
1.10807e-05
0.000242376
4.46624e-06
0.000236953
9.34136e-07
0.000233053
0.000229188
4.23225e-05
1.58397e-05
5.34435e-05
2.25414e-05
5.91095e-05
3.20845e-05
7.07874e-05
4.34248e-05
8.05446e-05
5.68193e-05
8.51803e-05
7.19025e-05
8.4844e-05
8.82668e-05
8.01471e-05
0.000105532
7.19356e-05
0.000123312
6.09209e-05
0.000141326
4.76665e-05
0.000159458
3.24858e-05
0.000177624
1.6045e-05
0.000195666
-6.72369e-07
0.000213212
-1.60678e-05
0.000229485
-2.78605e-05
0.000243323
-3.43918e-05
0.000253177
-3.63488e-05
0.000257799
-3.45515e-05
0.000257318
-2.99581e-05
0.000252644
-2.4064e-05
0.000245731
-1.79e-05
0.000238532
-1.07601e-05
0.000232431
-3.1925e-06
0.000228163
0.000224475
3.31946e-05
1.29182e-05
2.0808e-05
2.02885e-05
1.18737e-05
3.09938e-05
1.42152e-05
4.34689e-05
1.25105e-05
5.81323e-05
4.81799e-06
7.45614e-05
-6.68171e-06
9.22391e-05
-2.06976e-05
0.000110581
-3.67774e-05
0.000129031
-5.44254e-05
0.000147309
-7.30195e-05
0.000165287
-9.15607e-05
0.000182773
-0.000108811
0.000199513
-0.000122737
0.000215051
-0.000130747
0.000228605
-0.000130836
0.000239102
-0.000123499
0.000245335
-0.00011097
0.00024688
-9.43536e-05
0.000244411
-7.59188e-05
0.000238854
-5.79409e-05
0.000231848
-4.1382e-05
0.000224987
-2.3922e-05
0.00021931
-6.96673e-06
0.000215289
0.000212264
2.6365e-05
2.15442e-05
-5.99143e-06
2.93792e-05
-2.83082e-05
4.09685e-05
-3.76448e-05
5.41423e-05
-5.33867e-05
6.9523e-05
-7.35768e-05
8.65905e-05
-9.57306e-05
0.000104476
-0.000118924
0.000122394
-0.000142308
0.00013979
-0.000164935
0.000156279
-0.000185347
0.000171737
-0.000201811
0.00018631
-0.000212513
0.000199609
-0.000215842
0.00021108
-0.00021085
0.000219998
-0.000197731
0.00022584
-0.000178085
0.000228148
-0.000153579
0.000227055
-0.000126387
0.000223263
-9.94046e-05
0.000217711
-7.45933e-05
0.000211617
-5.21467e-05
0.000206046
-2.92422e-05
0.000201722
-8.08994e-06
0.000198819
0.000196916
1.95555e-05
4.05884e-05
-2.88783e-05
4.83965e-05
-6.25094e-05
6.07314e-05
-8.51809e-05
7.42437e-05
-0.000113533
8.9994e-05
-0.000142951
0.000106929
-0.000172422
0.000123693
-0.000200716
0.000139459
-0.000225857
0.000153662
-0.000246253
0.000166294
-0.000260892
0.000177657
-0.000268424
0.000187193
-0.000267975
0.00019493
-0.000259349
0.000201131
-0.000243067
0.000204881
-0.000220161
0.000206292
-0.000191922
0.000205469
-0.000160789
0.000202724
-0.000129381
0.000198675
-9.99831e-05
0.000194026
-7.3608e-05
0.000189562
-4.99025e-05
0.000185944
-2.65392e-05
0.000183717
-6.71834e-06
0.000183173
0.000183245
7.09707e-06
6.65711e-05
-4.92364e-05
7.52507e-05
-9.01873e-05
8.80865e-05
-0.000122387
0.00010175
-0.000156149
0.000117342
-0.000187978
0.000132921
-0.00021751
0.000147042
-0.000243028
0.000159035
-0.000263404
0.000168906
-0.00027726
0.000176303
-0.000283382
0.000181424
-0.000282032
0.000184723
-0.00027364
0.000186634
-0.000257655
0.00018687
-0.000234727
0.000186068
-0.000206619
0.000184167
-0.000175421
0.000181382
-0.000143728
0.000178021
-0.000113492
0.000174531
-8.60048e-05
0.000171352
-6.16568e-05
0.000168938
-4.00993e-05
0.000167693
-1.99284e-05
0.000168048
-4.46488e-06
0.000170323
0.000172904
-4.26491e-06
9.70087e-05
-6.29704e-05
0.000106849
-0.000106563
0.000119983
-0.000140884
0.000133432
-0.000173079
0.000147902
-0.00020174
0.000160863
-0.000226514
0.000171069
-0.000246498
0.000178016
-0.000260886
0.000181922
-0.000268739
0.000182947
-0.000270186
0.000181588
-0.000264349
0.000178743
-0.000250046
0.000175217
-0.000229335
0.000170907
-0.000204148
0.000166782
-0.000175875
0.000162696
-0.000146666
0.000158857
-0.000118209
0.000155502
-9.16503e-05
0.000152897
-6.7673e-05
0.000151302
-4.6558e-05
0.000150993
-2.83218e-05
0.000152271
-1.24672e-05
0.000155509
-2.01047e-06
0.000161002
0.000166581
-9.87279e-06
0.000128787
-6.55459e-05
0.000139523
-0.000106904
0.000152614
-0.00013808
0.000165103
-0.000165976
0.000177366
-0.000190202
0.000186878
-0.000210856
0.000192557
-0.000227494
0.000194005
-0.00023886
0.000191489
-0.000243022
0.000185991
-0.000239378
0.000179031
-0.000228999
0.00017133
-0.000213302
0.000163568
-0.000193463
0.000156411
-0.000170639
0.000149901
-0.000146275
0.00014431
-0.000121679
0.000139759
-9.77502e-05
0.000136386
-7.51284e-05
0.000134346
-5.42747e-05
0.000133833
-3.56056e-05
0.000135107
-1.96545e-05
0.000138514
-6.69321e-06
0.000144488
9.60966e-07
0.000153486
0.000163045
-9.7526e-06
0.000158445
-5.88572e-05
0.000169899
-9.58134e-05
0.000182559
-0.000122645
0.000193419
-0.000146275
0.000203004
-0.000166685
0.000208969
-0.000184049
0.000210354
-0.000197517
0.000206887
-0.000205454
0.000199198
-0.000207119
0.000188595
-0.00020292
0.000176961
-0.000193684
0.000165489
-0.000180533
0.00015472
-0.000164516
0.000145156
-0.000146682
0.000136943
-0.000127854
0.000130131
-0.000108559
0.000124747
-8.91754e-05
0.000120834
-7.00368e-05
0.000118513
-5.14675e-05
0.000118008
-3.39086e-05
0.00011967
-1.78918e-05
0.000124002
-3.56824e-06
0.000131713
4.98415e-06
0.000143808
0.000157609
-6.61314e-06
0.000183995
-4.86857e-05
0.000195756
-8.14812e-05
0.00020765
-0.000104097
0.00021686
-0.00012361
0.000223957
-0.000140435
0.000226893
-0.000154688
0.000224725
-0.000165088
0.000217266
-0.000170609
0.000205524
-0.00017163
0.000191299
-0.000168782
0.000176456
-0.000162666
0.000162296
-0.000154144
0.000149454
-0.00014393
0.000138203
-0.00013254
0.000128574
-0.000120241
0.000120516
-0.000107093
0.000113965
-9.30794e-05
0.000108964
-7.822e-05
0.000105637
-6.26308e-05
0.000104169
-4.65776e-05
0.000105013
-2.98053e-05
0.000108872
-1.25317e-05
0.000116781
-1.57313e-06
0.000129848
0.000145113
-4.06927e-06
0.000204646
-3.79918e-05
0.000216332
-6.40789e-05
0.000227448
-8.22981e-05
0.000235074
-9.796e-05
0.000240134
-0.00011142
0.000240767
-0.00012264
0.000235973
-0.000130459
0.000225657
-0.000134974
0.000211167
-0.000136884
0.000194599
-0.000136734
0.000177814
-0.000135084
0.000161999
-0.000132328
0.000147734
-0.000128535
0.000135197
-0.000123639
0.000124355
-0.00011759
0.00011511
-0.000110326
0.000107362
-0.000101714
0.000101094
-9.15589e-05
9.63988e-05
-7.97775e-05
9.34221e-05
-6.59215e-05
9.26274e-05
-4.95971e-05
9.46919e-05
-3.12992e-05
0.000100525
-1.47797e-05
0.000110983
0.000122937
-2.32234e-06
0.000219107
-2.53607e-05
0.00023072
-4.2917e-05
0.000241536
-5.62976e-05
0.000248048
-6.80279e-05
0.000251727
-7.80803e-05
0.000250824
-8.65152e-05
0.000244433
-9.27073e-05
0.000232452
-9.75177e-05
0.000216483
-0.000101649
0.000198692
-0.000105319
0.000180855
-0.00010841
0.000164074
-0.000110752
0.00014887
-0.000112112
0.000135383
-0.000112222
0.000123566
-0.000110854
0.000113323
-0.000108076
0.00010461
-0.000104065
9.7278e-05
-9.84902e-05
9.12672e-05
-9.08454e-05
8.67574e-05
-8.07187e-05
8.38799e-05
-6.81381e-05
8.29542e-05
-5.00548e-05
8.44046e-05
-2.41421e-05
8.88104e-05
9.37868e-05
3.494e-07
0.000226562
-1.1334e-05
0.000238061
-2.06995e-05
0.000248824
-2.80203e-05
0.00025506
-3.4738e-05
0.000258197
-4.07511e-05
0.000256733
-4.6676e-05
0.00024991
-5.24586e-05
0.000237627
-5.8557e-05
0.000221385
-6.51904e-05
0.000203339
-7.20903e-05
0.000185175
-7.86178e-05
0.000167949
-8.42966e-05
0.000152162
-8.89007e-05
0.000137956
-9.22959e-05
0.000125315
-9.44246e-05
0.000114195
-9.51073e-05
0.00010456
-9.42746e-05
9.63546e-05
-9.24625e-05
8.94779e-05
-8.99487e-05
8.37447e-05
-8.66298e-05
7.89139e-05
-8.08852e-05
7.49261e-05
-6.5176e-05
7.19074e-05
-3.37834e-05
6.94566e-05
6.7075e-05
2.59279e-06
0.000227063
2.40858e-06
0.000238388
1.85753e-06
0.000249066
1.21369e-06
0.000255657
3.31768e-07
0.000259146
-1.31093e-06
0.000258322
-4.74633e-06
0.000252378
-1.03252e-05
0.000241046
-1.7572e-05
0.000225729
-2.58477e-05
0.000208329
-3.44767e-05
0.00019045
-4.29276e-05
0.000173137
-5.07287e-05
0.000156946
-5.75164e-05
0.000142099
-6.30328e-05
0.000128654
-6.71543e-05
0.000116636
-6.99637e-05
0.000106049
-7.18063e-05
9.69174e-05
-7.33643e-05
8.9096e-05
-7.44969e-05
8.21113e-05
-7.4489e-05
7.56473e-05
-7.27059e-05
6.94401e-05
-6.50066e-05
6.32794e-05
-3.99176e-05
5.65224e-05
5.02056e-05
3.80184e-06
0.000221073
1.58144e-05
0.000231665
2.42476e-05
0.000242436
2.98277e-05
0.000250133
3.48038e-05
0.00025478
3.78672e-05
0.000255504
3.79029e-05
0.000251529
3.36479e-05
0.000242467
2.61197e-05
0.000229243
1.68347e-05
0.000213357
6.87447e-06
0.000196379
-3.06478e-06
0.000179379
-1.2476e-05
0.000163026
-2.09783e-05
0.00014766
-2.82534e-05
0.000133445
-3.41062e-05
0.000120495
-3.86319e-05
0.000108907
-4.2293e-05
9.86932e-05
-4.55529e-05
8.96664e-05
-4.74318e-05
8.1451e-05
-4.65389e-05
7.36115e-05
-4.39191e-05
6.57639e-05
-4.39515e-05
5.75494e-05
-3.566e-05
4.87994e-05
4.1751e-05
3.96365e-06
0.000208961
2.77369e-05
0.000218593
4.48901e-05
0.000229939
5.62983e-05
0.00023914
6.64743e-05
0.000245528
7.42799e-05
0.000248363
7.85609e-05
0.000247122
7.72829e-05
0.000241265
7.07108e-05
0.000231146
6.07817e-05
0.00021796
4.95164e-05
0.000202713
3.81009e-05
0.00018667
2.71198e-05
0.000170594
1.68896e-05
0.000154973
7.64735e-06
0.000140128
-3.71647e-07
0.000126298
-7.04831e-06
0.000113674
-1.23686e-05
0.000102345
-1.60893e-05
9.21609e-05
-1.81807e-05
8.27416e-05
-1.76115e-05
7.36734e-05
-1.41007e-05
6.46829e-05
-1.57467e-05
5.55351e-05
-2.22993e-05
4.54721e-05
3.7884e-05
3.47018e-06
0.000193215
3.48585e-05
0.000201647
6.00177e-05
0.000212825
7.70079e-05
0.000223422
9.17472e-05
0.000231852
0.000103891
0.00023727
0.000112222
0.00023919
0.00011532
0.000237134
0.000112037
0.000230846
0.00010337
0.000220956
9.13505e-05
0.000208823
7.81611e-05
0.000194765
6.52507e-05
0.000179633
5.31297e-05
0.000164212
4.19029e-05
0.000149006
3.17305e-05
0.000134423
2.29303e-05
0.000120789
1.59007e-05
0.000108302
1.12257e-05
9.69259e-05
8.05206e-06
8.63313e-05
6.33953e-06
7.62587e-05
7.36759e-06
6.66514e-05
3.49457e-06
5.73231e-05
-1.08021e-05
4.70001e-05
3.85823e-05
2.56683e-06
0.000176369
3.61432e-05
0.000183108
6.77087e-05
0.000193022
8.99683e-05
0.000204272
0.00010856
0.00021461
0.000124274
0.000222697
0.000136445
0.000227853
0.000143887
0.0002297
0.000145243
0.000228011
0.00014036
0.000222301
0.000129687
0.000213361
0.000115077
0.000202324
9.96614e-05
0.000189319
8.5164e-05
0.000174866
7.18905e-05
0.000159806
5.9822e-05
0.000144763
4.92016e-05
0.000130253
4.03983e-05
0.000116641
3.37414e-05
0.000104069
2.87547e-05
9.24376e-05
2.44517e-05
8.16263e-05
2.14466e-05
7.16935e-05
1.46623e-05
6.26668e-05
-3.34091e-06
5.2837e-05
4.38389e-05
1.1061e-06
0.000160151
3.24204e-05
0.000164608
6.70865e-05
0.000172684
9.40756e-05
0.000183526
0.000116105
0.000195061
0.000134628
0.000205525
0.000149504
0.000213872
0.000160281
0.000219375
0.000166171
0.000221896
0.000165876
0.000221188
0.000159061
0.000216479
0.00014644
0.000208874
0.000129905
0.000198518
0.000112581
0.000185959
9.65302e-05
0.000171773
8.2227e-05
0.000156788
6.97254e-05
0.000141715
5.91648e-05
0.000127161
5.0426e-05
0.00011351
4.33942e-05
0.000100974
3.67812e-05
8.96018e-05
3.0196e-05
7.95254e-05
2.05617e-05
7.09083e-05
2.26422e-06
6.19271e-05
5.25649e-05
-1.50743e-06
0.000146406
2.47819e-05
0.000147707
5.85178e-05
0.000153425
8.8503e-05
0.000162918
0.000113915
0.000174692
0.000134991
0.000186935
0.000151933
0.000198173
0.000164415
0.000207406
0.000172339
0.000213765
0.000175173
0.000217459
0.000172807
0.000218114
0.000165117
0.000214464
0.000152228
0.000207034
0.000135331
0.000196861
0.000117018
0.000184271
9.97761e-05
0.000169899
8.47057e-05
0.000154674
7.20708e-05
0.000139439
6.14558e-05
0.000124868
5.24806e-05
0.000111484
4.40229e-05
9.96123e-05
3.49502e-05
8.94194e-05
2.24054e-05
8.10762e-05
3.7395e-06
7.28897e-05
6.37503e-05
-5.82525e-06
0.00013494
1.46933e-05
0.000132679
4.36933e-05
0.00013562
7.34817e-05
0.000143364
0.000101576
0.000154676
0.000125441
0.000167998
0.000144465
0.000181709
0.000158398
0.000194404
0.000167177
0.000204974
0.000171066
0.000212681
0.000171258
0.0002173
0.000167681
0.000217956
0.00015964
0.000214444
0.000146846
0.000207104
0.000130164
0.000196478
0.000111881
0.000183278
9.44982e-05
0.00016834
7.95163e-05
0.000152734
6.71319e-05
0.000137441
5.6596e-05
0.000123269
4.65844e-05
0.000110841
3.60012e-05
0.000100505
2.15415e-05
9.23001e-05
2.44827e-06
8.46253e-05
7.60878e-05
-4.89073e-06
0.000125845
9.36201e-06
0.000120261
3.0878e-05
0.00012037
5.5871e-05
0.000126262
8.3053e-05
0.000136677
0.000108096
0.000150301
0.000128614
0.000165702
0.000143864
0.000181291
0.000153592
0.000195536
0.000158423
0.000207163
0.000159596
0.000215142
0.000157398
0.000219385
0.00015217
0.000219676
0.000143427
0.000215708
0.000130981
0.00020751
0.000115309
0.000195876
9.81869e-05
0.000181666
8.19077e-05
0.000166042
6.79228e-05
0.000150258
5.6226e-05
0.00013543
4.55571e-05
0.000122434
3.45298e-05
0.000111897
1.97058e-05
0.000103733
1.11452e-06
9.62417e-05
8.82169e-05
8.88838e-07
0.000118117
1.01823e-05
0.000110626
2.51481e-05
0.000108549
4.25673e-05
0.000112667
6.37374e-05
0.000121987
8.60403e-05
0.000135363
0.000105902
0.000151594
0.000121313
0.000169194
0.000131497
0.000186397
0.000136497
0.000201559
0.00013757
0.000212938
0.000136122
0.000220018
0.000132466
0.000223011
0.000126645
0.000221795
0.000118316
0.000216126
0.000107274
0.000206279
9.35972e-05
0.000193264
7.8699e-05
0.000178082
6.45147e-05
0.000162149
5.23166e-05
0.00014688
4.20674e-05
0.000133452
3.16398e-05
0.000122723
1.753e-05
0.000114654
4.96411e-07
0.000107022
9.92237e-05
4.78288e-06
0.000109776
1.08447e-05
0.000102583
2.18472e-05
9.95197e-05
3.32385e-05
0.000102487
4.68451e-05
0.000110873
6.30278e-05
0.000123871
7.93058e-05
0.000140421
9.30024e-05
0.000159212
0.000102599
0.000178485
0.000107667
0.000196304
0.00010859
0.000210591
0.000107544
0.000220178
0.000105125
0.000225082
0.000101494
0.000225573
9.63804e-05
0.000221842
8.97023e-05
0.000213711
8.08209e-05
0.000201984
6.97398e-05
0.000187619
5.76472e-05
0.000171948
4.63314e-05
0.00015654
3.7221e-05
0.000142885
2.82382e-05
0.000132099
1.46023e-05
0.000124404
-4.24478e-08
0.000116314
0.000108534
7.86029e-06
0.000100779
1.08127e-05
9.57314e-05
1.82677e-05
9.30804e-05
2.58437e-05
9.5743e-05
3.35726e-05
0.000103565
4.27574e-05
0.000116231
5.31392e-05
0.000132872
6.29132e-05
0.000152286
7.02656e-05
0.000172754
7.43938e-05
0.000192216
7.52255e-05
0.000208303
7.49312e-05
0.000219489
7.39725e-05
0.000225705
7.22453e-05
0.000227358
6.99465e-05
0.000224789
6.68686e-05
0.000217889
6.2559e-05
0.000207262
5.63238e-05
0.000193826
4.82487e-05
0.000178721
3.96914e-05
0.000163476
3.3024e-05
0.000149774
2.61697e-05
0.000139051
1.04943e-05
0.00013131
-1.37142e-06
0.000123169
0.000115319
1.2903e-05
9.20882e-05
1.38923e-05
9.03772e-05
1.47409e-05
8.97159e-05
1.85944e-05
9.22923e-05
2.24899e-05
9.99064e-05
2.61783e-05
0.00011232
3.02909e-05
0.000128862
3.44543e-05
0.000148437
3.77306e-05
0.000169348
3.97126e-05
0.000189454
4.05938e-05
0.000206254
4.12719e-05
0.000218123
4.16893e-05
0.000225033
4.19245e-05
0.000227275
4.21841e-05
0.000225186
4.21683e-05
0.000219002
4.14832e-05
0.000209258
3.95333e-05
0.000196726
3.57461e-05
0.00018239
3.05682e-05
0.000167633
2.59489e-05
0.000154171
2.09542e-05
0.000143731
8.25692e-06
0.00013612
-1.41171e-06
0.000127883
0.000119914
1.92513e-05
8.49938e-05
1.91283e-05
8.72755e-05
1.0142e-05
8.88262e-05
9.77424e-06
9.16337e-05
1.09997e-05
9.9305e-05
1.0836e-05
0.000111679
9.96357e-06
0.00012811
8.90146e-06
0.000147537
7.88377e-06
0.000168265
7.52345e-06
0.000188095
8.55492e-06
0.000204617
1.00539e-05
0.000216291
1.18831e-05
0.000223148
1.39938e-05
0.000225455
1.63835e-05
0.000223543
1.8746e-05
0.000217756
2.06463e-05
0.000208635
2.16636e-05
0.000196908
2.12505e-05
0.000183447
1.91356e-05
0.000169446
1.59694e-05
0.000156528
1.2569e-05
0.000146592
6.66628e-06
0.000139596
-4.28043e-07
0.000130975
0.000123032
2.27288e-05
8.12415e-05
1.90333e-05
8.64824e-05
5.03728e-06
8.93717e-05
1.18597e-06
9.32839e-05
-2.84011e-07
0.000101255
-3.68692e-06
0.000113823
-8.26721e-06
0.000130227
-1.30721e-05
0.000149295
-1.70819e-05
0.000169274
-1.88064e-05
0.000188012
-1.76975e-05
0.000203397
-1.55521e-05
0.000214205
-1.27112e-05
0.000220502
-9.18615e-06
0.000222449
-5.16227e-06
0.000220364
-1.04037e-06
0.000214729
2.71578e-06
0.000206048
5.70103e-06
0.000194991
7.61849e-06
0.000182361
8.20643e-06
0.000169219
7.23743e-06
0.000157058
5.27999e-06
0.000147698
3.17212e-06
0.000141131
1.63086e-07
0.000132352
0.0001245
2.17855e-05
8.14136e-05
1.1838e-05
8.73251e-05
1.56833e-06
9.23237e-05
-3.96384e-06
9.7026e-05
-8.97596e-06
0.000105436
-1.56914e-05
0.000118227
-2.36033e-05
0.000134477
-3.12735e-05
0.000152859
-3.69003e-05
0.000171584
-3.88013e-05
0.00018868
-3.74094e-05
0.000202367
-3.47039e-05
0.000211851
-3.09615e-05
0.000217187
-2.636e-05
0.000218527
-2.12279e-05
0.000216127
-1.59591e-05
0.000210477
-1.09837e-05
0.000202084
-6.66546e-06
0.000191557
-3.13511e-06
0.00017963
-3.68267e-07
0.000167314
7.52691e-07
0.000156021
-2.50397e-07
0.000147263
-1.97848e-07
0.000140931
1.23225e-06
0.000132448
0.000124614
1.65482e-05
8.37544e-05
4.04431e-06
9.02265e-05
-2.66754e-06
9.67661e-05
-8.7652e-06
0.000102115
-1.68187e-05
0.000111069
-2.66028e-05
0.000124063
-3.69453e-05
0.00013997
-4.57956e-05
0.000157353
-5.1129e-05
0.000174443
-5.21309e-05
0.000189425
-5.03629e-05
0.000201284
-4.72192e-05
0.000209276
-4.28706e-05
0.000213432
-3.76135e-05
0.000214019
-3.18375e-05
0.000211244
-2.59298e-05
0.000205485
-2.02822e-05
0.000197264
-1.51176e-05
0.000187132
-1.03302e-05
0.000175784
-5.90454e-06
0.000164229
-3.6881e-06
0.000153789
-4.35135e-06
0.000145681
-2.55051e-06
0.000139502
2.53813e-06
0.000131443
0.000123817
9.44928e-06
8.72972e-05
-2.49611e-06
9.46458e-05
-7.76848e-06
0.00010174
-1.43674e-05
0.000107913
-2.47654e-05
0.000117467
-3.67254e-05
0.000130539
-4.77025e-05
0.000145893
-5.56493e-05
0.000162001
-5.94189e-05
0.000177213
-5.9429e-05
0.000189986
-5.73496e-05
0.000200027
-5.38883e-05
0.00020653
-4.92915e-05
0.000209564
-4.37958e-05
0.000209329
-3.7771e-05
0.000206075
-3.16641e-05
0.000200157
-2.57793e-05
0.000192028
-2.01505e-05
0.000182194
-1.44961e-05
0.000171345
-9.07145e-06
0.00016052
-6.41195e-06
0.000150924
-7.27409e-06
0.000143473
-4.41683e-06
0.000137357
3.21841e-06
0.000129169
0.000121879
4.73429e-06
9.22123e-05
-7.05571e-06
0.000100086
-1.20609e-05
0.000107443
-1.96708e-05
0.000114262
-3.21815e-05
0.000124249
-4.46768e-05
0.000137174
-5.43165e-05
0.000151694
-6.01086e-05
0.000166265
-6.22482e-05
0.000179528
-6.19437e-05
0.000190621
-5.96916e-05
0.00019857
-5.59906e-05
0.000203616
-5.12475e-05
0.000205598
-4.57259e-05
0.000204602
-3.97849e-05
0.000200895
-3.38021e-05
0.000194794
-2.79454e-05
0.000186696
-2.20637e-05
0.000177082
-1.58904e-05
0.000166673
-1.01405e-05
0.000156537
-7.37249e-06
0.00014775
-8.4124e-06
0.000140909
-5.09421e-06
0.000134865
3.13076e-06
0.000126568
0.000119414
3.46485e-06
9.8263e-05
-9.44927e-06
0.000106335
-1.59791e-05
0.000113625
-2.4887e-05
0.000120904
-3.82682e-05
0.000131061
-4.93199e-05
0.000143588
-5.65745e-05
0.000156975
-6.03069e-05
0.000169854
-6.12507e-05
0.000181217
-6.05071e-05
0.000190774
-5.80887e-05
0.000196894
-5.43642e-05
0.000200673
-4.97106e-05
0.000201696
-4.4408e-05
0.000200037
-3.87869e-05
0.000195905
-3.31254e-05
0.000189607
-2.74429e-05
0.000181496
-2.14821e-05
0.000172051
-1.52176e-05
0.000162043
-9.79694e-06
0.000152543
-7.14403e-06
0.000144511
-7.79066e-06
0.000138238
-4.75745e-06
0.000132413
1.54922e-06
0.000124507
0.000117467
3.65751e-06
0.00010475
-1.14921e-05
0.000112565
-1.98256e-05
0.000119878
-2.95939e-05
0.000127446
-4.18281e-05
0.000137561
-5.03077e-05
0.000149418
-5.5325e-05
0.000161478
-5.77063e-05
0.000172694
-5.81088e-05
0.000182333
-5.65565e-05
0.000189922
-5.38153e-05
0.000195085
-5.02724e-05
0.000197816
-4.58577e-05
0.000198001
-4.09072e-05
0.000195748
-3.57354e-05
0.000191236
-3.0501e-05
0.000184747
-2.51054e-05
0.000176606
-1.93162e-05
0.000167313
-1.34686e-05
0.00015769
-8.86498e-06
0.00014879
-6.27983e-06
0.000141475
-5.33248e-06
0.000135848
-2.97482e-06
0.000130343
-6.62051e-07
0.000123002
0.000116058
3.05309e-06
0.000111261
-1.2256e-05
0.000118754
-2.18359e-05
0.000126104
-3.19446e-05
0.000133705
-4.18305e-05
0.000143535
-4.7836e-05
0.000154443
-5.12097e-05
0.000165117
-5.267e-05
0.000174804
-5.25308e-05
0.000182942
-5.08918e-05
0.000188994
-4.83006e-05
0.000193291
-4.48916e-05
0.000195084
-4.0759e-05
0.000194532
-3.62075e-05
0.00019176
-3.14977e-05
0.000186926
-2.66864e-05
0.000180267
-2.1614e-05
0.000172098
-1.61688e-05
0.000162949
-1.09317e-05
0.000153678
-6.95775e-06
0.000145311
-4.14332e-06
0.000138596
-1.43387e-06
0.000133567
5.35003e-07
0.000128398
-2.75771e-06
0.000121392
0.000114715
1.70648e-06
0.000117788
-1.09795e-05
0.000125219
-2.11985e-05
0.00013227
-3.11356e-05
0.00013967
-3.87737e-05
0.000148932
-4.31212e-05
0.000158722
-4.55485e-05
0.000168063
-4.64513e-05
0.000176392
-4.60562e-05
0.000183257
-4.46005e-05
0.000188313
-4.20958e-05
0.000191472
-3.88625e-05
0.000192491
-3.50687e-05
0.000191332
-3.09642e-05
0.000188133
-2.67302e-05
0.000183031
-2.23568e-05
0.000176234
-1.76824e-05
0.000168052
-1.274e-05
0.000159046
-8.16343e-06
0.000150091
-4.60418e-06
0.000142163
-1.82391e-06
0.000135899
1.25492e-06
0.000131253
3.15914e-06
0.000126483
-4.16328e-06
0.000119473
0.000113198
1.21452e-06
0.00012392
-9.85262e-06
0.000131164
-1.9746e-05
0.000137961
-2.85541e-05
0.000145067
-3.43766e-05
0.000153603
-3.76752e-05
0.000162287
-3.95302e-05
0.000170437
-4.01053e-05
0.000177592
-3.95381e-05
0.000183367
-3.80325e-05
0.00018748
-3.56853e-05
0.00018975
-3.2726e-05
0.000190106
-2.93404e-05
0.000188479
-2.57307e-05
0.000184937
-2.20278e-05
0.000179635
-1.81929e-05
0.000172757
-1.4117e-05
0.000164619
-9.97154e-06
0.000155802
-6.37014e-06
0.000147181
-3.68097e-06
0.000139664
-1.52685e-06
0.000133657
5.05041e-07
0.000129365
1.45523e-06
0.000125157
-2.88823e-06
0.000118955
0.000112299
1.05161e-06
0.000129445
-8.89614e-06
0.000136418
-1.77996e-05
0.00014302
-2.51075e-05
0.000149763
-2.96122e-05
0.000157525
-3.21998e-05
0.000165209
-3.36115e-05
0.000172324
-3.39113e-05
0.000178471
-3.32257e-05
0.000183309
-3.17415e-05
0.000186613
-2.96167e-05
0.000188199
-2.69704e-05
0.000187997
-2.39605e-05
0.000185961
-2.08111e-05
0.000182163
-1.76179e-05
0.000176733
-1.43397e-05
0.000169839
-1.09402e-05
0.000161805
-7.69087e-06
0.000153228
-5.16219e-06
0.000144984
-3.47917e-06
0.000137885
-2.29629e-06
0.000132208
-1.5646e-06
0.000128242
-1.01029e-06
0.000124252
-1.47212e-06
0.000118765
0.000112194
8.89237e-07
0.000134303
-7.92185e-06
0.000141007
-1.56156e-05
0.000147439
-2.15143e-05
0.000153753
-2.50577e-05
0.000160762
-2.71092e-05
0.000167573
-2.81494e-05
0.000173801
-2.82234e-05
0.000179087
-2.74677e-05
0.000183137
-2.60447e-05
0.000185766
-2.4095e-05
0.000186782
-2.17041e-05
0.000186119
-1.90451e-05
0.000183764
-1.6312e-05
0.000179782
-1.35762e-05
0.00017428
-1.0809e-05
0.000167417
-8.04093e-06
0.000159519
-5.5471e-06
0.000151196
-3.65206e-06
0.00014316
-2.46427e-06
0.00013642
-2.21845e-06
0.000131589
-2.32806e-06
0.000127805
-1.86963e-06
0.000123509
-1.77446e-06
0.000117919
0.000111688
7.40826e-07
0.000138471
-6.85992e-06
0.000144933
-1.35981e-05
0.000151231
-1.82962e-05
0.000157068
-2.10036e-05
0.000163392
-2.25806e-05
0.000169451
-2.33063e-05
0.000174924
-2.31972e-05
0.000179482
-2.23885e-05
0.000182873
-2.1013e-05
0.000184917
-1.91998e-05
0.000185468
-1.7042e-05
0.000184455
-1.47072e-05
0.000181861
-1.23524e-05
0.000177755
-1.00295e-05
0.000172227
-7.71946e-06
0.000165427
-5.52979e-06
0.000157711
-3.69202e-06
0.000149651
-2.35387e-06
0.000141861
-1.64905e-06
0.000135433
-1.69238e-06
0.000130839
-1.80895e-06
0.000127138
-1.75107e-06
0.000123187
-2.26049e-06
0.000117546
0.000110851
8.04743e-07
0.00014192
-5.52837e-06
0.000148141
-1.20681e-05
0.000154192
-1.57462e-05
0.000159696
-1.76058e-05
0.000165447
-1.86981e-05
0.000170877
-1.91234e-05
0.000175723
-1.88512e-05
0.000179681
-1.79949e-05
0.000182521
-1.66601e-05
0.000184076
-1.49722e-05
0.000184261
-1.30407e-05
0.000182994
-1.10059e-05
0.000180227
-8.99983e-06
0.000176046
-7.05833e-06
0.000170525
-5.13662e-06
0.000163814
-3.26137e-06
0.000156155
-1.76627e-06
0.000148348
-1.20103e-06
0.000141379
-1.30125e-06
0.000135228
-1.58701e-06
0.000130005
-1.72555e-06
0.000126356
-1.53583e-06
0.000122726
-2.08584e-06
0.000117224
0.000110688
6.7769e-07
0.000144767
-4.63624e-06
0.00015076
-1.02614e-05
0.000156532
-1.31959e-05
0.000161773
-1.45239e-05
0.000167028
-1.52588e-05
0.000171945
-1.54434e-05
0.000176272
-1.50465e-05
0.000179724
-1.41932e-05
0.000182142
-1.29412e-05
0.000183308
-1.14034e-05
0.000183191
-9.67466e-06
0.000181714
-7.91009e-06
0.000178834
-6.21455e-06
0.000174621
-4.64029e-06
0.000169161
-3.10871e-06
0.000162571
-1.56793e-06
0.000155005
-4.58861e-07
0.000147472
-1.04304e-07
0.000140821
-2.74484e-07
0.000134835
-1.12294e-06
0.000129968
-1.82527e-06
0.000126299
-1.65039e-06
0.000122107
-2.31494e-06
0.000116667
0.00011063
1.55656e-07
0.000147227
-4.28641e-06
0.000153038
-7.87736e-06
0.000158654
-1.0321e-05
0.000163527
-1.15434e-05
0.000168339
-1.20843e-05
0.000172747
-1.21187e-05
0.000176618
-1.17105e-05
0.000179726
-1.0845e-05
0.000181678
-9.67584e-06
0.000182621
-8.32889e-06
0.000182281
-6.84262e-06
0.000180641
-5.3315e-06
0.000177662
-3.89093e-06
0.000173443
-2.45006e-06
0.000167913
-1.0517e-06
0.000161452
-1.05612e-07
0.000154585
2.58528e-07
0.000147299
5.24588e-07
0.000140085
4.36781e-07
0.000134255
-2.85902e-07
0.000129966
-8.10217e-07
0.000126322
-1.20686e-06
0.00012207
-2.76515e-06
0.000116636
0.000110363
-1.65829e-07
0.000149263
-3.7897e-06
0.000154888
-6.12744e-06
0.000160363
-8.02993e-06
0.000164871
-9.04429e-06
0.000169327
-9.37736e-06
0.000173295
-9.28292e-06
0.000176803
-8.8352e-06
0.000179608
-7.99902e-06
0.000181206
-7.03526e-06
0.000182055
-5.77592e-06
0.000181385
-4.42105e-06
0.000179624
-3.19848e-06
0.00017674
-2.06975e-06
0.000172543
-8.7988e-07
0.00016699
2.51828e-07
0.000160663
1.00784e-06
0.000154098
1.31077e-06
0.000146977
9.66945e-07
0.000140123
2.39431e-07
0.000134495
-1.207e-07
0.000129821
-1.88684e-07
0.000126164
-8.31191e-07
0.000122196
-2.75216e-06
0.000116795
0.000110495
-2.91895e-07
0.000150862
-3.03319e-06
0.000156319
-4.6904e-06
0.000161533
-5.96923e-06
0.000165758
-6.5934e-06
0.000169929
-6.97205e-06
0.000173952
-7.01125e-06
0.00017717
-6.4452e-06
0.000179319
-5.87702e-06
0.000181089
-4.95827e-06
0.000181338
-3.76918e-06
0.000180568
-2.56223e-06
0.000178728
-1.41097e-06
0.000175814
-3.35246e-07
0.000171653
3.66822e-07
0.000166722
8.90173e-07
0.000160559
1.57164e-06
0.000153404
1.90483e-06
0.000146486
1.30589e-06
0.000140404
4.70027e-07
0.000134816
8.23178e-09
0.000130126
-9.9785e-08
0.000126333
-7.46873e-07
0.000122241
-2.77796e-06
0.000116849
0.000110806
-3.00283e-07
0.000152043
-2.33769e-06
0.000157346
-3.41288e-06
0.000162261
-4.52351e-06
0.000166659
-5.1238e-06
0.000170605
-5.20926e-06
0.000174258
-4.9304e-06
0.000177235
-4.4428e-06
0.000179308
-3.75932e-06
0.000180739
-2.69983e-06
0.000180597
-1.8995e-06
0.000180213
-1.21296e-06
0.000178359
-2.1369e-07
0.000174995
8.02087e-07
0.000170906
1.62783e-06
0.000166221
2.29449e-06
0.000160207
2.38323e-06
0.000153456
2.01825e-06
0.000146713
1.52153e-06
0.00014042