/*--------------------------------*- C++ -*----------------------------------*\
| =========                 |                                                 |
| \\      /  F ield         | OpenFOAM: The Open Source CFD Toolbox           |
|  \\    /   O peration     | Version:  2.3.0                                 |
|   \\  /    A nd           | Web:      www.OpenFOAM.org                      |
|    \\/     M anipulation  |                                                 |
\*---------------------------------------------------------------------------*/
FoamFile
{
    version     2.0;
    format      ascii;
    class       volScalarField;
    location    "86";
    object      rhom;
}
// * * * * * * * * * * * * * * * * * * * * * * * * * * * * * * * * * * * * * //

dimensions      [1 -3 0 0 0 0 0];

internalField   nonuniform List<scalar> 
1875
(
873.261
896.13
909.303
909.006
907.57
905.355
902.63
899.545
896.335
893.209
890.338
888.317
887.417
886.968
887.256
888.786
891.816
896.057
900.8
906.217
910.397
909.4
896.268
873.606
878.419
897.038
912.204
926.872
932.356
934.474
934.05
932.764
930.627
927.635
923.788
918.987
913.02
906.975
901.423
896.997
893.037
893.209
894.854
898.759
904.537
910.398
916.303
918.797
909.993
926.018
932.054
938.853
945.388
947.709
947.914
947.419
946.339
944.827
942.651
939.769
936.264
931.712
924.916
916.47
907.875
899.3
894.042
891.424
894.7
900.996
908.686
915.906
918.796
916.829
927.35
974.778
970.711
963.555
959.972
957.96
955.75
952.963
949.835
946.447
942.718
938.401
933.43
927.805
920.782
912.189
901.952
893.21
890.487
891.728
897.939
907.172
915.578
918.688
917.585
927.35
1001.46
987.73
970.076
965.833
963.202
959.724
955.194
949.639
945.042
940.781
936.198
930.92
924.975
917.683
908.862
898.641
890.543
890.463
892.339
899.257
908.535
916.397
919.314
918.705
927.35
1008.86
988.471
966.404
966.404
962.912
957.287
951.454
945.218
939.478
934.402
929.117
923.118
916.286
908.335
899.865
892.945
890.541
891.327
895.268
903.202
911.793
918.17
920.791
920.596
926.613
1008.86
980.99
958.929
963.474
956.248
947.55
940.354
933.525
927.076
921.077
914.932
908.508
901.985
896.191
892.684
891.775
891.775
895.323
901.443
909.21
916.009
920.64
923.001
922.89
923.814
1008.86
965.247
947.633
952.209
939.486
929.66
921.86
914.764
908.551
903.001
898.22
894.987
893.49
893.069
893.069
893.992
897.17
902.911
909.329
915.42
920.1
923.435
925.627
924.947
920.165
1004.11
945.971
933.005
934.123
918.665
909.945
902.974
897.902
894.947
894.084
893.669
893.669
893.669
894.872
897.079
900.804
905.997
911.578
916.53
920.544
923.602
926.163
928.157
926.308
916.479
993.492
927.893
918.487
916.854
903.948
898.215
894.386
892.835
892.915
892.895
893.778
895.073
897.564
901.063
905.261
910.161
914.885
918.875
922.008
924.437
926.486
928.561
930.269
926.278
913.542
982.25
913.848
908.223
907.399
898.45
895.138
893.322
892.914
892.834
893.865
896.943
900.649
905.168
909.981
914.587
918.729
921.971
924.395
926.202
927.653
929.063
930.64
931.889
926.067
911.204
973.626
905.149
902.509
903.53
896.649
894.246
893.045
892.891
894.261
898.021
903.304
908.752
914.091
918.816
922.684
925.609
927.655
929.023
929.943
930.699
931.506
932.201
932.197
925.535
904.333
968.342
899.717
898.089
901.345
895.769
893.85
893.06
893.922
898.114
904.32
910.874
916.936
922.068
925.987
928.745
930.535
931.583
932.086
932.207
932.197
932.227
932.197
932.254
922.056
883.97
965.334
894.319
891.995
899.681
895.012
893.595
893.321
896.524
903.238
910.764
917.723
923.414
927.567
930.199
931.565
932.103
932.197
932.218
932.197
932.271
932.197
932.361
932.197
912.267
883.819
963.084
891.995
891.995
898.345
894.242
893.158
894.157
899.827
907.944
915.86
922.343
926.586
929.08
930.559
931.503
932.028
932.221
932.196
932.291
932.196
932.366
932.196
926.614
903.547
883.819
962.417
891.995
891.996
897.372
893.695
893.166
895.027
902.403
910.711
917.691
922.749
926.363
928.665
930.066
930.983
931.627
932.087
932.253
932.196
932.319
931.62
928.97
921.777
909.063
893.388
962.733
892.367
891.996
897.137
893.464
893.157
894.657
901.831
910.07
916.985
921.982
925.372
927.516
928.912
929.959
930.822
931.438
931.673
931.003
929.069
925.894
923.002
922.439
927.605
926.214
962.23
895.338
892.47
896.671
893.82
893.165
893.878
899.663
907.709
914.839
920.071
923.534
925.708
927.2
928.478
929.576
930.124
929.641
927.058
924.398
922.222
920.472
919.92
943.047
962.682
959.268
902.588
894.202
896.183
894.569
893.37
893.384
896.443
903.169
910.644
916.685
920.833
923.43
925.139
926.588
927.863
928.406
927.452
924.39
922.592
922.595
922.399
918.992
943.12
981.224
954.013
913.344
898.277
896.628
895.37
894.017
893.459
894.075
897.768
904.155
911.092
916.674
920.432
922.829
924.558
925.981
926.728
926.156
924.53
922.904
923.369
925.434
918.952
935.518
983.787
947.41
924.816
906.378
898.637
896.373
894.948
893.848
893.848
894.457
897.719
903.387
909.707
915.303
919.405
922.183
924.155
925.468
925.494
925.052
923.984
924.343
927.081
919.438
924.139
983.787
939.797
933.894
918.271
904.442
898.601
896.231
894.665
893.987
893.987
894.769
895.718
898.725
905.697
912.548
917.834
921.492
923.99
925.127
925.627
925.497
925.648
927.676
920.698
916.239
979.311
931.773
939.868
930.956
915.113
904.169
898.921
896.153
894.568
894.013
893.463
892.688
893.16
894.876
901.637
909.505
916.105
920.963
924.047
925.653
926.754
927.211
928.173
921.375
912.44
972.757
921.417
942.844
941.074
928.139
914.296
904.917
899.446
896.117
894.476
893.128
893.16
892.631
893.16
894.634
899.959
907.548
915.019
920.962
924.793
927.189
928.404
928.403
921.169
910.78
968.488
903.468
942.876
943.938
938.417
926.801
914.979
905.953
899.727
896.006
893.259
892.73
893.159
892.871
893.159
894.803
899.644
907.142
915.279
921.977
926.524
928.403
928.429
920.776
910.025
966.973
898.741
940.924
944.24
943.668
937.253
926.553
915.393
905.963
899.323
894.081
893.159
892.697
893.159
893.095
893.604
895.657
900.707
908.57
917.144
924.333
928.432
928.403
920.453
909.682
966.805
898.741
937.031
943.938
943.97
941.968
935.346
925.004
913.743
904.282
896.177
892.943
893.159
892.975
893.159
893.506
894.575
897.405
903.277
911.729
920.681
927.986
928.446
919.827
909.531
967.05
898.741
930.388
944.275
943.937
943.103
939.599
931.87
920.916
909.761
899.213
893.158
892.921
893.158
893.133
893.542
894.623
896.501
900.415
907.414
916.649
926.792
928.402
915.803
909.037
967.691
901.814
921.407
943.937
944.052
943.57
940.879
935.057
925.403
913.76
901.664
893.046
893.158
893.095
893.158
893.622
894.792
896.646
899.6
904.959
913.358
925.049
928.434
901.073
907.157
967.691
913.082
915.582
936.342
943.937
943.943
940.703
934.566
924.827
913.1
901.045
893.158
893.107
893.158
893.174
893.807
895.124
897.005
899.783
904.131
911.315
923.091
927.928
898.472
904.225
967.691
931.611
913.717
919.094
942.622
943.937
939.87
932.779
922.48
910.497
899.096
893.138
893.157
893.153
893.303
894.143
895.618
897.537
900.192
904.292
910.729
921.595
927.139
897.343
901.869
967.691
951.321
911.802
907.143
940.483
943.612
937.827
929.131
917.862
905.968
896.662
893.211
893.207
893.245
893.587
894.633
896.225
898.167
900.74
904.709
911.113
921.62
926.024
898.472
902.496
967.342
966.252
909.681
907.135
938.663
941.889
933.881
923.26
911.449
901.082
894.985
893.426
893.374
893.46
894.014
895.243
896.894
898.817
901.358
905.442
912.187
921.732
924.063
897.306
905.124
965.276
973.652
908.319
908.755
937.02
938.474
927.561
915.76
905.027
897.686
894.508
893.752
893.654
893.816
894.57
895.924
897.56
899.431
902.054
906.584
913.923
921.645
921.035
898.471
909.38
961.634
975.242
907.324
912.031
935.087
932.904
919.519
908.566
900.516
896.183
894.648
894.092
894.021
894.28
895.198
896.596
898.155
899.999
902.903
908.172
915.878
921.428
917.109
897.187
914.434
956.987
975.242
906.52
914.678
932.445
925.241
911.868
903.512
898.346
895.908
894.872
894.431
894.419
894.79
895.826
897.186
898.647
900.565
903.978
910.071
917.57
920.984
912.731
898.47
919.168
953.094
975.242
904.563
915.237
928.74
917.198
906.4
900.8
897.521
895.917
895.105
894.871
894.783
895.315
896.395
897.654
899.049
901.18
905.256
911.964
918.655
920.416
909.418
897.047
921.469
952.393
975.118
898.387
914.371
924.074
910.855
903.361
899.607
897.244
896.009
895.388
895.253
895.15
895.809
896.861
898.006
899.405
901.872
906.617
913.58
919.271
920.19
909.372
898.47
919.007
953.22
974.206
895.893
912.382
919.193
906.848
901.944
899.158
897.26
896.186
895.726
895.569
895.505
896.237
897.221
898.279
899.757
902.634
907.936
914.87
919.757
920.253
909.722
897.007
908.745
954.94
973.162
896.403
909.833
914.966
904.612
901.301
898.957
897.315
896.406
896.017
895.851
895.819
896.593
897.498
898.505
900.123
903.414
909.103
915.836
920.08
920.242
909.645
898.469
898.06
956.527
972.455
895.819
907.365
911.756
903.383
900.97
898.857
897.408
896.631
896.272
896.107
896.102
896.895
897.722
898.705
900.484
904.129
910.007
916.412
920.039
920.109
909.256
897.004
898.469
957.749
972.004
896.402
905.304
909.461
902.647
900.762
898.818
897.531
896.849
896.506
896.343
896.369
897.159
897.913
898.885
900.81
904.703
910.614
916.587
919.852
919.834
908.658
898.468
897.945
958.77
971.709
895.819
903.653
907.839
902.188
900.617
898.819
897.673
897.06
896.721
896.564
896.624
897.393
898.076
899.039
901.079
905.117
910.974
916.629
919.586
919.193
907.831
897.057
898.468
959.731
971.524
896.401
901.663
906.665
902.024
900.55
898.837
897.818
897.259
896.925
896.779
896.866
897.596
898.204
899.152
901.302
905.398
911.154
916.677
919.282
918.121
906.741
898.468
897.925
960.852
971.504
895.909
897.874
905.768
902.044
900.557
898.88
897.962
897.452
897.128
896.997
897.094
897.764
898.292
899.224
901.489
905.688
911.345
916.531
918.789
917.071
905.619
897.121
898.467
962.072
971.435
896.401
896.207
905.048
902.008
900.552
898.923
898.1
897.606
897.352
897.206
897.298
897.897
898.361
899.254
901.646
906.113
911.571
916.146
918.148
916.183
904.768
898.467
897.947
963.323
971.328
896.042
896.4
904.451
901.911
900.541
898.959
898.193
897.728
897.572
897.348
897.434
897.999
898.404
899.32
901.844
906.453
911.543
915.805
917.625
915.523
904.358
897.203
898.466
964.673
971.207
896.4
896.266
903.984
901.798
900.586
899.032
898.245
897.902
897.569
897.474
897.523
898.031
898.401
899.52
902.13
906.413
911.416
915.505
917.175
915.461
904.436
898.466
898.011
966.105
971.103
896.173
896.4
903.697
901.762
900.625
899.148
898.425
898.024
897.624
897.656
897.598
898.01
898.437
899.752
902.394
906.444
911.257
915.103
916.735
915.493
904.674
897.319
898.466
967.636
971.008
896.399
896.32
903.387
901.697
900.583
899.25
898.682
898.058
897.85
897.75
897.676
898.095
898.543
899.735
902.449
906.393
911.031
914.77
916.423
915.471
905.072
898.465
898.103
969.331
970.879
896.28
896.399
903.01
901.576
900.649
899.339
898.646
898.215
897.952
897.731
897.675
898.228
898.678
899.816
902.441
906.116
910.643
914.542
916.235
915.376
905.506
897.454
898.465
971.165
970.73
896.398
896.355
902.804
901.472
900.684
899.454
898.731
898.355
897.936
897.816
897.691
898.168
898.754
899.997
902.366
905.846
910.085
914.288
916.129
915.168
905.742
898.465
898.185
972.984
970.623
896.358
896.398
902.543
901.389
900.666
899.495
898.893
898.344
898.049
897.885
897.768
898.235
898.886
900.125
902.174
905.547
909.465
913.936
916.052
914.827
905.717
897.602
898.464
974.644
970.341
896.398
896.379
902.207
901.246
900.734
899.563
898.819
898.427
898.132
897.877
897.803
898.365
899.08
900.21
902.194
905.094
908.835
913.424
915.95
914.383
905.534
898.464
898.25
976.081
969.854
896.422
896.397
901.98
901.138
900.806
899.653
898.886
898.476
898.083
897.946
897.868
898.325
899.205
900.279
902.157
904.729
908.215
912.756
915.77
913.897
905.013
897.734
898.464
977.291
969.325
896.578
896.407
901.664
901.049
900.803
899.702
899.013
898.421
898.164
897.983
897.968
898.398
899.304
900.401
902.004
904.498
907.665
911.987
915.457
913.377
904.078
898.463
898.293
978.312
968.572
896.965
896.471
901.179
900.877
900.872
899.813
898.937
898.478
898.194
897.982
898.006
898.528
899.422
900.499
901.974
904.257
907.209
911.205
914.937
912.801
902.898
897.862
898.463
979.173
967.638
897.72
896.471
900.54
900.706
900.969
899.962
899.009
898.522
898.121
898.047
898.073
898.489
899.41
900.452
901.941
904.003
906.815
910.471
914.163
912.129
901.895
898.463
898.327
979.907
966.843
898.665
896.617
899.347
900.492
900.971
900.034
899.144
898.473
898.17
898.113
898.168
898.55
899.378
900.412
901.804
903.675
906.427
909.808
913.193
911.357
901.473
897.998
898.462
980.594
965.952
899.635
896.854
897.395
900.09
900.971
900.12
899.064
898.538
898.152
898.113
898.242
898.647
899.36
900.371
901.593
903.316
906.032
909.259
912.181
910.551
901.509
898.462
898.365
981.339
964.809
900.727
896.937
896.368
899.622
900.974
900.2
899.117
898.625
898.115
898.114
898.359
898.572
899.288
900.245
901.344
902.997
905.623
908.828
911.256
909.807
901.64
898.147
898.462
982.002
963.732
901.67
897.134
896.395
899.16
900.877
900.13
899.241
898.578
898.173
898.126
898.36
898.602
899.198
900.049
901.054
902.577
905.154
908.345
910.323
909.055
901.871
898.461
898.404
982.007
962.571
902.281
897.252
896.371
898.447
900.434
899.881
899.108
898.455
898.057
898.076
898.164
898.55
899.003
899.698
900.59
901.944
904.362
907.415
909.003
908.017
902.082
898.31
898.461
982.006
961.307
902.341
897.015
896.394
897.607
899.691
899.48
898.843
898.313
897.982
897.982
897.982
898.252
898.596
899.114
899.918
901.186
903.25
906.096
907.507
906.925
902.427
898.461
898.448
982.009
961.301
902.67
897.238
896.791
897.879
899.957
899.922
899.403
898.91
898.549
898.514
898.571
898.784
899.107
899.602
900.388
901.696
903.727
906.555
908.168
907.824
904.465
899.292
899.776
981.695
961.295
904.964
900.213
900.216
900.876
902.821
903.062
902.791
902.448
902.195
902.172
902.294
902.492
902.864
903.428
904.313
905.787
907.773
910.474
911.953
911.953
910.62
905.449
905.846
981.694
958.859
904.87
904.855
904.559
903.85
905.349
905.37
905.37
905.37
905.371
905.371
905.46
905.624
905.949
906.472
907.255
908.404
909.977
911.953
911.953
911.953
911.953
911.728
909.672
974.315
888.784
861.878
864.242
860.645
858.086
859.283
860.443
860.88
860.718
860.345
859.988
859.625
859.152
858.595
857.998
857.403
856.884
856.451
856.399
856.076
854.666
854.287
855.736
853.34
880.543
627.906
655.155
662.001
659.435
658.351
659.81
662.111
663.639
664.241
664.165
663.699
662.76
661.262
659.206
656.62
653.533
649.991
646.025
641.891
638.265
634.417
631.692
631.517
626.793
602.901
520.403
525.522
528.594
529.221
529.495
529.808
530.174
530.471
530.654
530.713
530.657
530.48
530.172
529.74
529.196
528.556
527.841
527.073
526.305
525.634
525.053
524.599
524.145
521.998
518.238
514.558
514.646
514.851
514.94
514.945
514.941
514.94
514.942
514.945
514.946
514.945
514.941
514.933
514.92
514.905
514.886
514.867
514.847
514.829
514.814
514.806
514.801
514.761
514.623
514.556
514.542
514.543
514.546
514.551
514.556
514.561
514.567
514.573
514.576
514.575
514.572
514.568
514.563
514.559
514.556
514.553
514.55
514.548
514.547
514.545
514.544
514.543
514.543
514.541
514.541
514.546
514.552
514.569
514.62
514.665
514.684
514.692
514.694
514.694
514.693
514.691
514.684
514.669
514.647
514.626
514.607
514.592
514.578
514.567
514.557
514.549
514.544
514.542
514.541
514.541
514.557
514.584
514.65
514.701
514.712
514.713
514.714
514.714
514.714
514.714
514.714
514.714
514.712
514.707
514.698
514.687
514.676
514.664
514.644
514.613
514.577
514.556
514.546
514.543
514.542
514.572
514.613
514.68
514.708
514.713
514.714
514.714
514.714
514.714
514.714
514.714
514.714
514.714
514.714
514.713
514.711
514.709
514.706
514.7
514.686
514.653
514.601
514.567
514.551
514.544
)
;

boundaryField
{
    inlet
    {
        type            calculated;
        value           nonuniform List<scalar> 
25
(
770.947
770.947
770.947
770.947
770.947
770.947
770.947
770.947
770.947
770.947
770.947
770.947
770.947
770.947
770.947
770.947
770.947
770.947
770.947
770.947
770.947
770.947
770.947
770.947
770.947
)
;
    }
    outlet
    {
        type            calculated;
        value           nonuniform List<scalar> 
25
(
514.571
514.613
514.679
514.714
514.714
514.714
514.714
514.714
514.714
514.714
514.714
514.714
514.714
514.714
514.713
514.711
514.709
514.707
514.701
514.686
514.653
514.601
514.567
514.551
514.544
)
;
    }
    walls
    {
        type            calculated;
        value           nonuniform List<scalar> 
150
(
873.261
897.038
932.054
974.778
1001.46
1008.86
1008.86
1008.86
1004.11
993.492
982.25
973.626
968.342
965.334
963.084
962.417
962.733
962.23
959.268
954.013
947.41
939.797
931.773
921.417
903.468
898.741
898.741
898.741
901.814
913.082
931.611
951.321
966.252
973.652
975.242
975.242
975.242
975.118
974.206
973.162
972.455
972.004
971.709
971.524
971.504
971.435
971.328
971.207
971.103
971.008
970.879
970.73
970.623
970.341
969.854
969.325
968.572
967.638
966.843
965.952
964.809
963.732
962.571
961.307
961.301
961.295
958.859
888.784
627.906
520.403
514.558
514.542
514.546
514.557
514.572
878.419
926.018
927.35
927.35
927.35
926.613
923.814
920.165
916.479
913.542
911.204
904.333
883.97
883.819
883.819
893.388
926.214
962.682
981.224
983.787
983.787
979.311
972.757
968.488
966.973
966.805
967.05
967.691
967.691
967.691
967.691
967.342
965.276
961.634
956.987
953.094
952.393
953.22
954.94
956.527
957.749
958.77
959.731
960.852
962.072
963.323
964.673
966.105
967.636
969.331
971.165
972.984
974.644
976.081
977.291
978.312
979.173
979.907
980.594
981.339
982.002
982.007
982.006
982.009
981.695
981.694
974.315
880.543
602.901
518.238
514.556
514.541
514.541
514.542
514.544
)
;
    }
    defaultFaces
    {
        type            empty;
    }
}


// ************************************************************************* //
