/*--------------------------------*- C++ -*----------------------------------*\
| =========                 |                                                 |
| \\      /  F ield         | OpenFOAM: The Open Source CFD Toolbox           |
|  \\    /   O peration     | Version:  2.3.0                                 |
|   \\  /    A nd           | Web:      www.OpenFOAM.org                      |
|    \\/     M anipulation  |                                                 |
\*---------------------------------------------------------------------------*/
FoamFile
{
    version     2.0;
    format      ascii;
    class       volVectorField;
    location    "86";
    object      Ur;
}
// * * * * * * * * * * * * * * * * * * * * * * * * * * * * * * * * * * * * * //

dimensions      [0 1 -1 0 0 0 0];

internalField   nonuniform List<vector> 
1875
(
(-0.0159784 0.217958 0)
(-0.0216468 0.21902 0)
(-0.0115084 0.219102 0)
(-0.0021054 0.218368 0)
(0.00514626 0.218652 0)
(0.0102618 0.219569 0)
(0.0127741 0.220406 0)
(0.0128696 0.220639 0)
(0.0109354 0.219964 0)
(0.00739492 0.218421 0)
(0.00246754 0.216064 0)
(-0.00312483 0.213941 0)
(-0.0087138 0.2114 0)
(-0.0149505 0.206962 0)
(-0.0222912 0.200853 0)
(-0.0297992 0.196757 0)
(-0.03609 0.195234 0)
(-0.0399918 0.195538 0)
(-0.0406939 0.195245 0)
(-0.0380791 0.195468 0)
(-0.0320408 0.196357 0)
(-0.0236495 0.196993 0)
(-0.0132573 0.193595 0)
(-0.0174691 0.19194 0)
(-0.0143262 0.193441 0)
(-0.00498651 0.284087 0)
(-0.00449709 0.285465 0)
(0.00884256 0.2884 0)
(0.0148737 0.290336 0)
(0.0197225 0.290005 0)
(0.0234808 0.287936 0)
(0.0261218 0.285059 0)
(0.0274839 0.281991 0)
(0.0275491 0.27927 0)
(0.0261546 0.276969 0)
(0.0231618 0.275084 0)
(0.018022 0.273076 0)
(0.0116865 0.271462 0)
(0.00498737 0.271158 0)
(-0.00195794 0.272078 0)
(-0.008327 0.272118 0)
(-0.012163 0.271243 0)
(-0.0126976 0.269733 0)
(-0.0138429 0.269195 0)
(-0.0138738 0.268996 0)
(-0.0134932 0.268756 0)
(-0.0130396 0.268724 0)
(-0.0145077 0.27116 0)
(-0.0148582 0.271061 0)
(-0.00776808 0.273581 0)
(0.000691671 0.278505 0)
(0.00878204 0.280815 0)
(0.020551 0.281446 0)
(0.026424 0.281332 0)
(0.0306422 0.28071 0)
(0.0338809 0.279832 0)
(0.0362356 0.278719 0)
(0.0375784 0.277438 0)
(0.0376153 0.275882 0)
(0.0362291 0.274189 0)
(0.0339784 0.272425 0)
(0.0309523 0.270602 0)
(0.0260637 0.268855 0)
(0.0199906 0.267037 0)
(0.0142288 0.265326 0)
(0.00851298 0.263417 0)
(0.00213447 0.260787 0)
(-0.00375394 0.257766 0)
(-0.00693166 0.256837 0)
(-0.00865174 0.256666 0)
(-0.00931791 0.257266 0)
(-0.00925235 0.258685 0)
(-0.00762321 0.262749 0)
(-0.00745354 0.263694 0)
(-0.0037836 0.265047 0)
(0.0121353 0.283772 0)
(0.0245709 0.286073 0)
(0.027283 0.284578 0)
(0.030338 0.282492 0)
(0.0338483 0.280693 0)
(0.0364953 0.279106 0)
(0.03773 0.277605 0)
(0.0373707 0.276222 0)
(0.0355911 0.274851 0)
(0.0329214 0.273524 0)
(0.029221 0.272288 0)
(0.0249798 0.271032 0)
(0.0204572 0.269478 0)
(0.0156465 0.267928 0)
(0.010982 0.266188 0)
(0.00658984 0.264265 0)
(0.00191792 0.26251 0)
(-0.00195485 0.261557 0)
(-0.0035356 0.260942 0)
(-0.00412138 0.260887 0)
(-0.00367191 0.261059 0)
(-0.0030531 0.261608 0)
(-0.00240654 0.26142 0)
(-0.0037571 0.262974 0)
(-0.00102639 0.264588 0)
(0.0168153 0.277467 0)
(0.0275662 0.278914 0)
(0.0230057 0.277357 0)
(0.025956 0.275337 0)
(0.0313492 0.273633 0)
(0.0347444 0.272042 0)
(0.0358889 0.270419 0)
(0.0351478 0.268817 0)
(0.0329397 0.267525 0)
(0.029629 0.266412 0)
(0.0254374 0.265384 0)
(0.0204506 0.264356 0)
(0.0147521 0.263467 0)
(0.00860327 0.262652 0)
(0.00243126 0.261766 0)
(-0.002773 0.260636 0)
(-0.00610253 0.260348 0)
(-0.00730582 0.26106 0)
(-0.00699238 0.260538 0)
(-0.00567761 0.260217 0)
(-0.00388528 0.260689 0)
(-0.00235509 0.261144 0)
(-0.00109997 0.261305 0)
(0.00108765 0.263507 0)
(0.00184037 0.265124 0)
(0.0208448 0.268009 0)
(0.0283314 0.269718 0)
(0.0171517 0.268296 0)
(0.0222328 0.266802 0)
(0.0289442 0.265575 0)
(0.0316437 0.26416 0)
(0.0318499 0.262814 0)
(0.030557 0.26165 0)
(0.0279578 0.260684 0)
(0.0240391 0.259927 0)
(0.018876 0.259282 0)
(0.0126857 0.258715 0)
(0.0058045 0.258238 0)
(-0.00119244 0.257848 0)
(-0.00720067 0.257591 0)
(-0.0109986 0.258024 0)
(-0.0121363 0.258695 0)
(-0.0115431 0.259043 0)
(-0.00980713 0.260157 0)
(-0.00710528 0.261368 0)
(-0.00440368 0.262213 0)
(-0.00239734 0.262816 0)
(-0.000918598 0.26321 0)
(0.00383327 0.264181 0)
(0.00429464 0.265365 0)
(0.0269672 0.258378 0)
(0.0304482 0.259739 0)
(0.0128905 0.259184 0)
(0.0194418 0.258724 0)
(0.0248284 0.257402 0)
(0.0257932 0.255847 0)
(0.0251153 0.254713 0)
(0.0228503 0.253945 0)
(0.0190245 0.25338 0)
(0.0137033 0.253077 0)
(0.00727407 0.253032 0)
(0.000431366 0.252945 0)
(-0.00606292 0.252986 0)
(-0.0114252 0.253478 0)
(-0.0149727 0.254802 0)
(-0.0163729 0.256536 0)
(-0.0158983 0.258097 0)
(-0.0140626 0.259764 0)
(-0.0110591 0.26138 0)
(-0.00762157 0.2627 0)
(-0.00467508 0.263554 0)
(-0.00258685 0.264028 0)
(-0.000735218 0.264292 0)
(0.00517814 0.26352 0)
(0.0053421 0.263428 0)
(0.0305914 0.252357 0)
(0.0306577 0.252898 0)
(0.0084289 0.252983 0)
(0.0144532 0.252314 0)
(0.0164039 0.250754 0)
(0.0159295 0.249543 0)
(0.0143996 0.248895 0)
(0.0109179 0.24867 0)
(0.00612215 0.248859 0)
(0.000719394 0.248777 0)
(-0.00500059 0.248209 0)
(-0.0103627 0.249299 0)
(-0.0146856 0.251449 0)
(-0.0174992 0.254155 0)
(-0.0188572 0.256084 0)
(-0.0186273 0.258007 0)
(-0.0169069 0.260017 0)
(-0.0139308 0.261968 0)
(-0.0103733 0.263556 0)
(-0.00698309 0.264591 0)
(-0.00429817 0.265124 0)
(-0.00229726 0.265334 0)
(-0.000185102 0.265392 0)
(0.00549959 0.265184 0)
(0.00503581 0.264422 0)
(0.0286504 0.249776 0)
(0.0254841 0.248844 0)
(0.00268777 0.249106 0)
(0.00649952 0.248277 0)
(0.00606892 0.247032 0)
(0.00563289 0.24659 0)
(0.00405874 0.246605 0)
(0.00107536 0.247021 0)
(-0.00273505 0.246785 0)
(-0.00731831 0.246917 0)
(-0.0111472 0.251088 0)
(-0.0145325 0.254222 0)
(-0.0171836 0.255268 0)
(-0.0194556 0.257305 0)
(-0.0193267 0.259276 0)
(-0.0179205 0.261294 0)
(-0.0151642 0.263234 0)
(-0.0118201 0.264769 0)
(-0.00849461 0.265787 0)
(-0.0056153 0.266288 0)
(-0.00335479 0.266424 0)
(-0.00153792 0.266346 0)
(0.000489097 0.266179 0)
(0.00492398 0.265818 0)
(0.00405185 0.264575 0)
(0.0250391 0.248698 0)
(0.0192243 0.248129 0)
(-0.00322795 0.248409 0)
(-0.00103104 0.247864 0)
(-0.00162245 0.247781 0)
(-0.00113949 0.248337 0)
(-0.00185456 0.24936 0)
(-0.00344246 0.251093 0)
(-0.00648714 0.255516 0)
(-0.00964086 0.260714 0)
(-0.0128926 0.260418 0)
(-0.0170429 0.259096 0)
(-0.0188258 0.26105 0)
(-0.0181327 0.26121 0)
(-0.0170932 0.263111 0)
(-0.0146978 0.264827 0)
(-0.0117366 0.266173 0)
(-0.00867708 0.267033 0)
(-0.00588601 0.26746 0)
(-0.00354733 0.267538 0)
(-0.00168698 0.26739 0)
(-0.000159766 0.267101 0)
(0.00142277 0.266656 0)
(0.0042327 0.265962 0)
(0.00283827 0.264951 0)
(0.021341 0.25002 0)
(0.0147551 0.249985 0)
(-0.00620843 0.250704 0)
(-0.00440407 0.250948 0)
(-0.00437502 0.251848 0)
(-0.00336411 0.252961 0)
(-0.00366373 0.254292 0)
(-0.00537003 0.255707 0)
(-0.0086983 0.255992 0)
(-0.0122861 0.256457 0)
(-0.0146902 0.258547 0)
(-0.0152862 0.260711 0)
(-0.0154667 0.262408 0)
(-0.0145395 0.264851 0)
(-0.0128491 0.266273 0)
(-0.0104202 0.267411 0)
(-0.00779025 0.268163 0)
(-0.00522128 0.268567 0)
(-0.00291032 0.268698 0)
(-0.000952229 0.268621 0)
(0.000634485 0.268398 0)
(0.00186555 0.268069 0)
(0.00281517 0.267613 0)
(0.00421213 0.266859 0)
(0.00236341 0.265929 0)
(0.0185189 0.253072 0)
(0.0129194 0.253433 0)
(-0.00586123 0.254517 0)
(-0.00449255 0.255094 0)
(-0.00422477 0.256082 0)
(-0.00332251 0.257099 0)
(-0.00370671 0.258203 0)
(-0.00541198 0.259284 0)
(-0.00789453 0.260314 0)
(-0.0101542 0.260861 0)
(-0.0116608 0.262378 0)
(-0.0121945 0.264492 0)
(-0.0118673 0.265984 0)
(-0.0106828 0.26722 0)
(-0.00890238 0.26821 0)
(-0.0067693 0.268916 0)
(-0.00451515 0.269356 0)
(-0.00227307 0.269565 0)
(-0.000174748 0.269589 0)
(0.00168635 0.26946 0)
(0.0032458 0.269197 0)
(0.00443215 0.268755 0)
(0.00543378 0.268073 0)
(0.00718139 0.267514 0)
(0.00413262 0.267775 0)
(0.0167822 0.256273 0)
(0.0127589 0.256665 0)
(-0.00443323 0.257741 0)
(-0.00408221 0.258234 0)
(-0.00381725 0.259154 0)
(-0.0031954 0.259999 0)
(-0.00366904 0.260873 0)
(-0.00508382 0.261706 0)
(-0.00668839 0.262785 0)
(-0.00800559 0.263977 0)
(-0.00891785 0.265197 0)
(-0.00914593 0.26641 0)
(-0.00867484 0.267465 0)
(-0.00767224 0.268327 0)
(-0.00632274 0.268972 0)
(-0.00478435 0.269403 0)
(-0.00313883 0.269653 0)
(-0.00142279 0.269702 0)
(0.000308072 0.269552 0)
(0.00199245 0.269278 0)
(0.00348094 0.268886 0)
(0.00480507 0.268335 0)
(0.00683198 0.267731 0)
(0.00932641 0.267276 0)
(0.00580766 0.265915 0)
(0.0144858 0.25878 0)
(0.0115345 0.258236 0)
(-0.00297018 0.258844 0)
(-0.00291535 0.260079 0)
(-0.00311164 0.260977 0)
(-0.00286686 0.261783 0)
(-0.00337077 0.262542 0)
(-0.00429389 0.263394 0)
(-0.00516289 0.264426 0)
(-0.00596556 0.265419 0)
(-0.00657572 0.266343 0)
(-0.0068593 0.267184 0)
(-0.0068769 0.267848 0)
(-0.00665096 0.268299 0)
(-0.00616435 0.268543 0)
(-0.00543837 0.268635 0)
(-0.00453658 0.268476 0)
(-0.00347265 0.268403 0)
(-0.00223509 0.268567 0)
(-0.000879486 0.268465 0)
(0.000529078 0.268156 0)
(0.00240711 0.26793 0)
(0.00471215 0.267964 0)
(0.00842832 0.26696 0)
(0.00607797 0.26744 0)
(0.0105143 0.261039 0)
(0.00892112 0.259895 0)
(-0.00122789 0.260432 0)
(-0.00113143 0.260904 0)
(-0.00186558 0.261692 0)
(-0.00190249 0.262584 0)
(-0.00235445 0.263372 0)
(-0.00285652 0.264226 0)
(-0.0033572 0.265068 0)
(-0.00416587 0.265799 0)
(-0.00516482 0.266376 0)
(-0.00614866 0.266701 0)
(-0.00697958 0.266891 0)
(-0.00759158 0.26705 0)
(-0.00790637 0.267208 0)
(-0.00788301 0.267335 0)
(-0.00740969 0.26753 0)
(-0.00687226 0.267538 0)
(-0.00627504 0.267315 0)
(-0.00529217 0.267175 0)
(-0.00391601 0.267382 0)
(-0.0022509 0.267719 0)
(-0.00126099 0.267256 0)
(0.00564863 0.266252 0)
(0.00557494 0.266676 0)
(0.00630462 0.260634 0)
(0.00599251 0.259142 0)
(0.000139808 0.261361 0)
(0.00022452 0.261891 0)
(-0.000309642 0.262445 0)
(-0.000299306 0.262833 0)
(-0.000513287 0.26355 0)
(-0.0010405 0.264224 0)
(-0.001857 0.264679 0)
(-0.00316469 0.264909 0)
(-0.0048203 0.265018 0)
(-0.00650752 0.265172 0)
(-0.00792817 0.265362 0)
(-0.00901796 0.265574 0)
(-0.00980296 0.265801 0)
(-0.0102742 0.266046 0)
(-0.0105506 0.266477 0)
(-0.0102898 0.26681 0)
(-0.00966124 0.266876 0)
(-0.00926714 0.267324 0)
(-0.00932392 0.267575 0)
(-0.0101581 0.267474 0)
(-0.0108385 0.267076 0)
(-0.00285092 0.266625 0)
(0.0014711 0.264944 0)
(0.00164357 0.263443 0)
(0.00291688 0.261423 0)
(0.000953725 0.261513 0)
(0.00151477 0.261613 0)
(0.00143733 0.261845 0)
(0.00177219 0.262003 0)
(0.00167886 0.262322 0)
(0.000829473 0.263048 0)
(-0.000670426 0.263233 0)
(-0.00257882 0.263279 0)
(-0.00460537 0.263316 0)
(-0.00653212 0.263422 0)
(-0.00822812 0.263617 0)
(-0.00960864 0.263882 0)
(-0.0106383 0.264194 0)
(-0.0112933 0.264542 0)
(-0.0115968 0.264782 0)
(-0.0116442 0.265223 0)
(-0.011802 0.265995 0)
(-0.0124224 0.266364 0)
(-0.0133529 0.26648 0)
(-0.0146877 0.266754 0)
(-0.0171967 0.268321 0)
(-0.0148697 0.269664 0)
(-0.00632868 0.267805 0)
(-0.00238014 0.265192 0)
(-0.000473388 0.262989 0)
(0.00250883 0.261338 0)
(0.0028533 0.26145 0)
(0.00311787 0.261468 0)
(0.00379957 0.262012 0)
(0.00395961 0.261986 0)
(0.00306972 0.261544 0)
(0.0010275 0.261629 0)
(-0.0014279 0.261592 0)
(-0.00381415 0.261528 0)
(-0.00595638 0.261533 0)
(-0.00777718 0.26165 0)
(-0.00924668 0.261886 0)
(-0.0103434 0.262217 0)
(-0.0110285 0.262603 0)
(-0.0113328 0.263 0)
(-0.0114515 0.263341 0)
(-0.0118796 0.263526 0)
(-0.0126651 0.263735 0)
(-0.0129428 0.264258 0)
(-0.0123466 0.265345 0)
(-0.0137581 0.266926 0)
(-0.0193625 0.270134 0)
(-0.0119836 0.269701 0)
(-0.00661185 0.264156 0)
(-0.003646 0.26176 0)
(0.0043604 0.261432 0)
(0.00465778 0.2614 0)
(0.00503658 0.261333 0)
(0.00574593 0.260929 0)
(0.00629451 0.260546 0)
(0.00581151 0.260386 0)
(0.00367262 0.260219 0)
(0.000656203 0.259977 0)
(-0.00236377 0.259862 0)
(-0.00485448 0.259762 0)
(-0.00679064 0.259745 0)
(-0.00826213 0.259858 0)
(-0.00937261 0.260105 0)
(-0.0101627 0.260444 0)
(-0.0106507 0.260803 0)
(-0.0109534 0.261125 0)
(-0.0110483 0.261383 0)
(-0.0110053 0.261986 0)
(-0.010549 0.262831 0)
(-0.00848862 0.263534 0)
(-0.00606485 0.264412 0)
(-0.0139115 0.266579 0)
(-0.0115268 0.26711 0)
(-0.00958516 0.262993 0)
(-0.00641316 0.261851 0)
(0.00540272 0.261926 0)
(0.00647118 0.261831 0)
(0.00687546 0.261628 0)
(0.0075263 0.261105 0)
(0.00813869 0.260724 0)
(0.00794774 0.259397 0)
(0.00658508 0.258537 0)
(0.00373263 0.258984 0)
(0.000281822 0.258643 0)
(-0.00294439 0.258484 0)
(-0.00535795 0.258374 0)
(-0.00697455 0.258306 0)
(-0.00806289 0.258364 0)
(-0.008869 0.258564 0)
(-0.0094303 0.258866 0)
(-0.00974146 0.259258 0)
(-0.00941638 0.259761 0)
(-0.0085333 0.260295 0)
(-0.00762455 0.260968 0)
(-0.00556455 0.261672 0)
(-0.00168663 0.261798 0)
(-0.00920336 0.262413 0)
(-0.0103029 0.263399 0)
(-0.0108424 0.264184 0)
(-0.00873902 0.264163 0)
(0.00508805 0.262959 0)
(0.00795517 0.262449 0)
(0.00852545 0.262204 0)
(0.0090608 0.261695 0)
(0.00940692 0.260763 0)
(0.00980478 0.260766 0)
(0.00884857 0.258806 0)
(0.00709227 0.256187 0)
(0.00412297 0.257557 0)
(0.000350487 0.257889 0)
(-0.00323984 0.257624 0)
(-0.0055746 0.257452 0)
(-0.0068526 0.257334 0)
(-0.00756461 0.257347 0)
(-0.00795363 0.257525 0)
(-0.00800645 0.257839 0)
(-0.00750449 0.258324 0)
(-0.00634613 0.258746 0)
(-0.00502051 0.259182 0)
(-0.00355509 0.259672 0)
(-5.4571e-05 0.25955 0)
(-0.00707804 0.259063 0)
(-0.00961363 0.259993 0)
(-0.0107748 0.264693 0)
(-0.0103491 0.265535 0)
(0.00346414 0.264532 0)
(0.00848801 0.263455 0)
(0.00993249 0.26294 0)
(0.010369 0.262445 0)
(0.0106311 0.261743 0)
(0.0105053 0.260243 0)
(0.0105913 0.261365 0)
(0.00943603 0.260148 0)
(0.00767761 0.254649 0)
(0.00450358 0.255371 0)
(0.000729272 0.256558 0)
(-0.00294437 0.256649 0)
(-0.00530763 0.256659 0)
(-0.00641055 0.256652 0)
(-0.00674587 0.256738 0)
(-0.00651838 0.256944 0)
(-0.00584716 0.257292 0)
(-0.004655 0.257626 0)
(-0.00312224 0.257869 0)
(-0.00212067 0.258098 0)
(0.000239523 0.258089 0)
(-0.00602629 0.257223 0)
(-0.00823742 0.257134 0)
(-0.00988638 0.265714 0)
(-0.011268 0.266916 0)
(0.00095581 0.266646 0)
(0.00731721 0.265315 0)
(0.0103332 0.264177 0)
(0.0113904 0.263427 0)
(0.0116597 0.26269 0)
(0.0113915 0.261861 0)
(0.0108634 0.259593 0)
(0.00993431 0.260671 0)
(0.00885092 0.26072 0)
(0.00710226 0.256501 0)
(0.00460989 0.255051 0)
(0.00161195 0.255623 0)
(-0.00166113 0.255893 0)
(-0.00404192 0.256152 0)
(-0.00516528 0.256338 0)
(-0.00518014 0.256534 0)
(-0.0044654 0.256744 0)
(-0.0033043 0.257035 0)
(-0.00179604 0.257209 0)
(-0.000981841 0.257285 0)
(0.000212427 0.257295 0)
(-0.00660891 0.256582 0)
(-0.00829549 0.255819 0)
(-0.0092612 0.266349 0)
(-0.0121978 0.267644 0)
(-0.00223778 0.268552 0)
(0.00376815 0.267606 0)
(0.00844509 0.266135 0)
(0.0110818 0.264901 0)
(0.0120679 0.263935 0)
(0.0120635 0.263006 0)
(0.0111862 0.261992 0)
(0.0100169 0.260471 0)
(0.00840096 0.262373 0)
(0.00757204 0.260664 0)
(0.00634635 0.256528 0)
(0.00476708 0.255231 0)
(0.0024842 0.255583 0)
(-0.000218355 0.255791 0)
(-0.00237216 0.256146 0)
(-0.0033569 0.256475 0)
(-0.00312999 0.256716 0)
(-0.00212969 0.256914 0)
(-0.000882488 0.25709 0)
(-0.000354354 0.257056 0)
(8.90751e-05 0.257028 0)
(-0.0077559 0.256621 0)
(-0.0089464 0.255771 0)
(-0.00739861 0.264374 0)
(-0.0107334 0.267516 0)
(-0.00409034 0.268572 0)
(4.80157e-05 0.268983 0)
(0.00503569 0.268143 0)
(0.00916423 0.266804 0)
(0.0114455 0.265524 0)
(0.0120932 0.264395 0)
(0.01165 0.263379 0)
(0.0100078 0.261811 0)
(0.00895314 0.260193 0)
(0.00732986 0.261358 0)
(0.00649631 0.261071 0)
(0.00569126 0.257943 0)
(0.00467555 0.256296 0)
(0.00315071 0.256157 0)
(0.00109482 0.256293 0)
(-0.000659974 0.256671 0)
(-0.00142997 0.257029 0)
(-0.00112734 0.257235 0)
(-0.000261665 0.257258 0)
(3.8794e-05 0.25732 0)
(9.0074e-05 0.257346 0)
(-0.00806724 0.257166 0)
(-0.00892882 0.256782 0)
(-0.00455283 0.265102 0)
(-0.00712397 0.267278 0)
(-0.00345564 0.268119 0)
(-0.000942992 0.269175 0)
(0.00225993 0.269298 0)
(0.00627699 0.268394 0)
(0.00946624 0.267078 0)
(0.0110244 0.265757 0)
(0.0111452 0.264555 0)
(0.00993621 0.263478 0)
(0.00822359 0.261572 0)
(0.00668922 0.259881 0)
(0.00572893 0.260111 0)
(0.00513627 0.260247 0)
(0.00479648 0.25866 0)
(0.00442393 0.25758 0)
(0.00351993 0.257139 0)
(0.00202211 0.257231 0)
(0.000622887 0.257566 0)
(-9.83929e-05 0.257861 0)
(0.000221431 0.257916 0)
(0.000473688 0.25798 0)
(0.000274529 0.258143 0)
(-0.00746814 0.258012 0)
(-0.0081473 0.258024 0)
(-0.00228516 0.266037 0)
(-0.00431374 0.267182 0)
(-0.00213 0.267363 0)
(-0.000220557 0.268028 0)
(0.00120229 0.26865 0)
(0.0036974 0.268552 0)
(0.00663669 0.26769 0)
(0.00873256 0.266478 0)
(0.0094653 0.265254 0)
(0.00890813 0.264113 0)
(0.0072867 0.263138 0)
(0.00560071 0.262274 0)
(0.00447894 0.261595 0)
(0.00412608 0.261135 0)
(0.00393446 0.259998 0)
(0.00414815 0.258928 0)
(0.00426334 0.258462 0)
(0.00367089 0.258214 0)
(0.00246587 0.258342 0)
(0.00114229 0.258643 0)
(0.000827122 0.258871 0)
(0.00115246 0.258993 0)
(0.000509023 0.259578 0)
(-0.00670039 0.259165 0)
(-0.00699818 0.259324 0)
(-0.000257553 0.265067 0)
(-0.00193432 0.266157 0)
(-0.00127958 0.266676 0)
(0.000675827 0.266681 0)
(0.00156646 0.266954 0)
(0.0026069 0.267235 0)
(0.00428586 0.267034 0)
(0.00603451 0.266312 0)
(0.00698889 0.265341 0)
(0.00687525 0.26432 0)
(0.00558942 0.263421 0)
(0.0040466 0.262654 0)
(0.00324344 0.261492 0)
(0.00288158 0.261096 0)
(0.00287154 0.26128 0)
(0.00330536 0.260619 0)
(0.00392296 0.259819 0)
(0.00422298 0.259374 0)
(0.00378325 0.259241 0)
(0.00270953 0.259381 0)
(0.00217968 0.259642 0)
(0.00341765 0.259671 0)
(0.00106814 0.260797 0)
(-0.00676412 0.259956 0)
(-0.00588268 0.260284 0)
(0.00233845 0.263411 0)
(0.00225047 0.264384 0)
(0.00035908 0.264794 0)
(0.0010329 0.265125 0)
(0.00225781 0.26507 0)
(0.00285373 0.265307 0)
(0.003365 0.265486 0)
(0.00399807 0.265337 0)
(0.00428859 0.264798 0)
(0.0039617 0.264027 0)
(0.00301872 0.263098 0)
(0.00210868 0.262641 0)
(0.00164644 0.262178 0)
(0.00141392 0.261803 0)
(0.00160225 0.261526 0)
(0.00220815 0.261185 0)
(0.00302432 0.260819 0)
(0.00381041 0.260395 0)
(0.00411069 0.260057 0)
(0.00365844 0.259929 0)
(0.00306334 0.259996 0)
(0.00401909 0.259865 0)
(0.00168656 0.258712 0)
(-0.00511109 0.259912 0)
(-0.0045204 0.260408 0)
(0.00583718 0.262099 0)
(0.00892819 0.262144 0)
(0.00311949 0.264654 0)
(0.000339332 0.263388 0)
(0.0023067 0.26333 0)
(0.00297033 0.26331 0)
(0.00286615 0.26337 0)
(0.00243877 0.26334 0)
(0.00173724 0.263156 0)
(0.000822369 0.262816 0)
(0.000250319 0.262396 0)
(4.97744e-05 0.262167 0)
(-6.69675e-05 0.261933 0)
(1.58653e-05 0.261724 0)
(0.000400541 0.261685 0)
(0.00110836 0.261627 0)
(0.00195788 0.261436 0)
(0.00281961 0.261158 0)
(0.0034407 0.260775 0)
(0.00349167 0.260447 0)
(0.00289024 0.260324 0)
(0.00253224 0.260164 0)
(0.00176889 0.259525 0)
(-0.00226686 0.25989 0)
(-0.00287108 0.260526 0)
(0.00949732 0.2606 0)
(0.0137254 0.262581 0)
(0.00485424 0.261867 0)
(0.000123775 0.261514 0)
(0.00204367 0.261533 0)
(0.00248238 0.261635 0)
(0.00194365 0.261679 0)
(0.000858857 0.261713 0)
(-0.000506884 0.261689 0)
(-0.00168867 0.261589 0)
(-0.00188588 0.261596 0)
(-0.00159036 0.261658 0)
(-0.00145161 0.261659 0)
(-0.00116479 0.26164 0)
(-0.000626634 0.261733 0)
(0.000128896 0.261845 0)
(0.000968071 0.261806 0)
(0.00174633 0.261639 0)
(0.00234378 0.261373 0)
(0.00264449 0.261022 0)
(0.00242528 0.260752 0)
(0.00161526 0.260769 0)
(0.00108344 0.26035 0)
(-0.000651519 0.260117 0)
(-0.00112836 0.261227 0)
(0.0120703 0.26164 0)
(0.0142738 0.26161 0)
(0.00418844 0.258466 0)
(0.00250053 0.260105 0)
(0.00259193 0.260353 0)
(0.00228478 0.260424 0)
(0.00101091 0.26045 0)
(-0.000813432 0.260458 0)
(-0.00265026 0.260455 0)
(-0.00366761 0.260563 0)
(-0.00340667 0.260946 0)
(-0.0028288 0.261282 0)
(-0.00246583 0.261881 0)
(-0.00196825 0.262045 0)
(-0.00132739 0.261858 0)
(-0.000600342 0.261971 0)
(0.000166735 0.261986 0)
(0.000825234 0.261898 0)
(0.00131052 0.261713 0)
(0.00174764 0.261467 0)
(0.00204036 0.261337 0)
(0.00119348 0.261327 0)
(0.000162574 0.261277 0)
(0.000564455 0.259812 0)
(0.00076367 0.260718 0)
(0.012485 0.261861 0)
(0.0121143 0.259314 0)
(0.00350041 0.259202 0)
(0.00426482 0.259508 0)
(0.00313277 0.259644 0)
(0.00171245 0.259628 0)
(-0.00050418 0.259501 0)
(-0.0028513 0.259419 0)
(-0.00454965 0.259523 0)
(-0.00487911 0.260058 0)
(-0.00419525 0.260547 0)
(-0.00354578 0.260879 0)
(-0.00303663 0.261066 0)
(-0.00241015 0.261396 0)
(-0.00176107 0.261815 0)
(-0.00105982 0.261967 0)
(-0.000407129 0.262026 0)
(0.000114801 0.261982 0)
(0.000556988 0.26185 0)
(0.00127494 0.261696 0)
(0.00190485 0.261659 0)
(0.000783868 0.261623 0)
(-0.00066573 0.261217 0)
(0.00163186 0.261955 0)
(0.00252648 0.262272 0)
(0.00991866 0.260091 0)
(0.00915329 0.25952 0)
(0.00277791 0.259227 0)
(0.00456354 0.259131 0)
(0.00281876 0.259132 0)
(0.000220929 0.258928 0)
(-0.00263977 0.258681 0)
(-0.00475707 0.258688 0)
(-0.00567837 0.259058 0)
(-0.00530667 0.258843 0)
(-0.00445438 0.260101 0)
(-0.00381571 0.260779 0)
(-0.00323389 0.261182 0)
(-0.00263647 0.26147 0)
(-0.00199581 0.261734 0)
(-0.00135845 0.261904 0)
(-0.000842449 0.26198 0)
(-0.000445096 0.261962 0)
(3.52136e-05 0.261885 0)
(0.0010374 0.261835 0)
(0.00186385 0.261772 0)
(0.000362826 0.261736 0)
(-0.00154901 0.261741 0)
(0.00212258 0.262642 0)
(0.00340871 0.26314 0)
(0.00822331 0.259373 0)
(0.0071402 0.259091 0)
(0.00223775 0.259114 0)
(0.00428034 0.258763 0)
(0.00163817 0.25864 0)
(-0.00192625 0.258225 0)
(-0.00456185 0.258096 0)
(-0.00578109 0.25838 0)
(-0.0057534 0.258981 0)
(-0.00521172 0.259192 0)
(-0.00452301 0.260381 0)
(-0.00387823 0.260779 0)
(-0.00322747 0.261182 0)
(-0.00262751 0.26138 0)
(-0.00202981 0.26164 0)
(-0.00149935 0.261811 0)
(-0.00111472 0.261895 0)
(-0.000775434 0.261908 0)
(-0.00014969 0.261902 0)
(0.00102802 0.261933 0)
(0.00190666 0.261821 0)
(0.000162808 0.261728 0)
(-0.00189237 0.261494 0)
(0.00218498 0.260892 0)
(0.0035692 0.261069 0)
(0.00815318 0.258501 0)
(0.00696365 0.258947 0)
(0.00168206 0.259014 0)
(0.00308401 0.258513 0)
(-0.000369454 0.258138 0)
(-0.00402743 0.25777 0)
(-0.00565484 0.257945 0)
(-0.00595601 0.258464 0)
(-0.00541666 0.259144 0)
(-0.00475953 0.261651 0)
(-0.0042781 0.26036 0)
(-0.00361496 0.260585 0)
(-0.00299915 0.261008 0)
(-0.00243907 0.261299 0)
(-0.00191314 0.261539 0)
(-0.00150011 0.261696 0)
(-0.00120848 0.261782 0)
(-0.000842719 0.261824 0)
(-3.81745e-05 0.261872 0)
(0.0011151 0.261903 0)
(0.00181143 0.261702 0)
(0.000169933 0.261432 0)
(-0.00156232 0.261808 0)
(0.00158803 0.261996 0)
(0.00254701 0.260723 0)
(0.00871332 0.258198 0)
(0.00705065 0.25886 0)
(0.00042493 0.258658 0)
(0.000980913 0.25827 0)
(-0.00265781 0.25776 0)
(-0.00539175 0.257741 0)
(-0.00593866 0.258179 0)
(-0.00575466 0.258769 0)
(-0.00512814 0.259373 0)
(-0.00472145 0.260716 0)
(-0.00365608 0.260046 0)
(-0.00320176 0.260646 0)
(-0.00265148 0.260888 0)
(-0.00213862 0.261242 0)
(-0.00169532 0.261443 0)
(-0.0013889 0.26158 0)
(-0.00114967 0.261665 0)
(-0.000725538 0.261733 0)
(0.000143377 0.261802 0)
(0.00102569 0.261775 0)
(0.00129638 0.261539 0)
(0.000383152 0.261124 0)
(-0.000312184 0.261376 0)
(0.000712792 0.262329 0)
(0.000776483 0.261106 0)
(0.00847481 0.257929 0)
(0.00665406 0.257656 0)
(-0.00045206 0.258181 0)
(-0.000989733 0.257965 0)
(-0.00426873 0.257657 0)
(-0.00571048 0.257997 0)
(-0.00557362 0.25853 0)
(-0.00514559 0.259076 0)
(-0.00458065 0.259564 0)
(-0.00395976 0.258729 0)
(-0.00327337 0.26039 0)
(-0.00277379 0.260668 0)
(-0.00227417 0.260963 0)
(-0.00180221 0.261188 0)
(-0.00142905 0.261354 0)
(-0.00118235 0.261472 0)
(-0.000937138 0.26156 0)
(-0.000440619 0.261647 0)
(0.000393111 0.261714 0)
(0.00102593 0.261655 0)
(0.00110892 0.261513 0)
(0.00107095 0.261403 0)
(0.00193742 0.261752 0)
(0.000258185 0.262661 0)
(-0.00133756 0.261197 0)
(0.00716463 0.257817 0)
(0.0061162 0.257427 0)
(-0.000237179 0.257989 0)
(-0.00206629 0.257857 0)
(-0.0047557 0.257876 0)
(-0.00526968 0.25836 0)
(-0.00491305 0.258856 0)
(-0.00444627 0.259317 0)
(-0.00389434 0.259724 0)
(-0.0033957 0.260016 0)
(-0.00287447 0.260593 0)
(-0.00233581 0.260889 0)
(-0.00186011 0.260914 0)
(-0.00143291 0.261104 0)
(-0.00110895 0.26124 0)
(-0.000875919 0.26134 0)
(-0.000581199 0.261422 0)
(-1.58569e-05 0.261501 0)
(0.000760249 0.261531 0)
(0.00129877 0.261446 0)
(0.00151724 0.26131 0)
(0.00167348 0.261235 0)
(0.0036695 0.260851 0)
(0.000118817 0.260162 0)
(-0.00302769 0.260897 0)
(0.00618322 0.258021 0)
(0.0055196 0.258092 0)
(-0.000357249 0.258118 0)
(-0.00258862 0.258042 0)
(-0.00458071 0.258279 0)
(-0.00461775 0.258735 0)
(-0.00426375 0.259147 0)
(-0.00384805 0.259526 0)
(-0.00335299 0.259867 0)
(-0.00286603 0.260126 0)
(-0.0023795 0.26032 0)
(-0.00187049 0.260581 0)
(-0.00144154 0.260865 0)
(-0.00105988 0.261011 0)
(-0.000778776 0.261119 0)
(-0.00055378 0.261199 0)
(-0.000231635 0.261266 0)
(0.000318926 0.261317 0)
(0.000944729 0.261301 0)
(0.00126702 0.261185 0)
(0.00142421 0.261096 0)
(0.00147731 0.2609 0)
(0.00254857 0.260691 0)
(-9.83285e-05 0.258995 0)
(-0.00212951 0.259449 0)
(0.00543622 0.25833 0)
(0.00481727 0.258254 0)
(-0.000635825 0.258341 0)
(-0.0026601 0.258348 0)
(-0.00408359 0.258668 0)
(-0.0039559 0.259051 0)
(-0.0036557 0.25939 0)
(-0.0032772 0.259708 0)
(-0.00282219 0.259988 0)
(-0.00235276 0.26025 0)
(-0.00190406 0.260453 0)
(-0.00147843 0.260618 0)
(-0.00107234 0.260812 0)
(-0.000715844 0.260927 0)
(-0.000457289 0.261011 0)
(-0.000232363 0.261075 0)
(9.02285e-05 0.261127 0)
(0.000567993 0.261152 0)
(0.000973161 0.261101 0)
(0.00102185 0.260978 0)
(0.00094629 0.259874 0)
(0.000692979 0.259738 0)
(0.000670736 0.260344 0)
(-0.000243395 0.261661 0)
(-0.000757545 0.26022 0)
(0.00471225 0.258671 0)
(0.00407712 0.258723 0)
(-0.000835586 0.258654 0)
(-0.00248823 0.258702 0)
(-0.00351482 0.259001 0)
(-0.00336493 0.259312 0)
(-0.00311584 0.259593 0)
(-0.00276491 0.259857 0)
(-0.00234763 0.260073 0)
(-0.00191193 0.260325 0)
(-0.00150623 0.260519 0)
(-0.00110684 0.260632 0)
(-0.000719916 0.260757 0)
(-0.000387704 0.260847 0)
(-0.000141573 0.260912 0)
(8.45573e-05 0.260959 0)
(0.000389548 0.260996 0)
(0.000764223 0.260997 0)
(0.00103961 0.261026 0)
(0.00109763 0.26094 0)
(0.000900827 0.260689 0)
(0.000206912 0.260614 0)
(-0.000102578 0.259895 0)
(-0.000642952 0.259872 0)
(-0.000849465 0.262012 0)
(0.00400763 0.259013 0)
(0.00342645 0.258884 0)
(-0.000938516 0.259089 0)
(-0.00233902 0.259067 0)
(-0.00302961 0.259289 0)
(-0.00285598 0.259539 0)
(-0.00264758 0.259772 0)
(-0.00232739 0.259988 0)
(-0.00194543 0.260205 0)
(-0.0015389 0.260485 0)
(-0.00115525 0.260601 0)
(-0.000766724 0.260615 0)
(-0.000401384 0.260712 0)
(-9.3251e-05 0.260777 0)
(0.000138484 0.260819 0)
(0.000364115 0.260843 0)
(0.000635938 0.260841 0)
(0.000890709 0.26083 0)
(0.0010497 0.259879 0)
(0.00107082 0.259677 0)
(0.000774181 0.262449 0)
(0.00017057 0.262305 0)
(-3.06252e-05 0.260251 0)
(-0.00105439 0.259634 0)
(-0.00120751 0.25985 0)
(0.00339097 0.259277 0)
(0.00311243 0.259293 0)
(-0.000975172 0.259468 0)
(-0.00249897 0.259342 0)
(-0.00273896 0.259533 0)
(-0.00248792 0.259734 0)
(-0.00227711 0.259927 0)
(-0.00197687 0.260107 0)
(-0.00161653 0.260265 0)
(-0.00123645 0.260361 0)
(-0.000848094 0.260475 0)
(-0.00048183 0.260607 0)
(-0.000138369 0.260676 0)
(0.00014205 0.260718 0)
(0.000351593 0.260742 0)
(0.000552838 0.260743 0)
(0.000844097 0.260819 0)
(0.00116101 0.260785 0)
(0.00127181 0.260404 0)
(0.000903044 0.260526 0)
(0.000405817 0.25992 0)
(-5.47686e-05 0.259863 0)
(-0.000118754 0.262277 0)
(-0.00102409 0.261884 0)
(-0.00117722 0.259411 0)
(0.00279469 0.259426 0)
(0.00259821 0.259247 0)
(-0.000980863 0.259179 0)
(-0.00238261 0.259464 0)
(-0.00243468 0.259687 0)
(-0.00218014 0.259856 0)
(-0.00196462 0.260023 0)
(-0.00166897 0.260176 0)
(-0.00133216 0.2603 0)
(-0.00098584 0.26038 0)
(-0.000624362 0.260477 0)
(-0.000268954 0.260604 0)
(5.76556e-05 0.260648 0)
(0.000316901 0.26067 0)
(0.000497128 0.260663 0)
(0.000643956 0.260658 0)
(0.000910588 0.259631 0)
(0.00122657 0.259583 0)
(0.00125973 0.262322 0)
(0.000986701 0.26233 0)
(0.000518372 0.25944 0)
(-0.000313397 0.25948 0)
(-0.000449406 0.259691 0)
(-0.00126145 0.259932 0)
(-0.00145407 0.26131 0)
(0.00214225 0.259589 0)
(0.00166342 0.259539 0)
(-0.000896417 0.259273 0)
(-0.00167231 0.259609 0)
(-0.0019834 0.259805 0)
(-0.00183127 0.260009 0)
(-0.00162674 0.260158 0)
(-0.00137644 0.260252 0)
(-0.00107321 0.260489 0)
(-0.000723626 0.260491 0)
(-0.000393651 0.260518 0)
(-9.67494e-05 0.260573 0)
(0.000198369 0.260623 0)
(0.000430736 0.260635 0)
(0.000646119 0.260727 0)
(0.000907621 0.260714 0)
(0.00121285 0.26039 0)
(0.00116436 0.260422 0)
(0.000991092 0.259966 0)
(0.000974921 0.259742 0)
(0.000582385 0.261391 0)
(-7.01999e-05 0.261676 0)
(-8.80528e-05 0.25964 0)
(-0.001616 0.259473 0)
(-0.0019007 0.260306 0)
(0.00160446 0.259828 0)
(0.000981594 0.259703 0)
(-0.000872062 0.25979 0)
(-0.00125427 0.25992 0)
(-0.00166621 0.260087 0)
(-0.00155366 0.259771 0)
(-0.00133881 0.259807 0)
(-0.00110996 0.260479 0)
(-0.000821471 0.259823 0)
(-0.00052429 0.260536 0)
(-0.000268045 0.260684 0)
(7.91716e-05 0.260729 0)
(0.000344301 0.260619 0)
(0.000489921 0.260619 0)
(0.00066774 0.259685 0)
(0.000954554 0.259603 0)
(0.00119898 0.262494 0)
(0.00125085 0.262377 0)
(0.00111111 0.259363 0)
(0.000610555 0.259339 0)
(0.000226241 0.260482 0)
(3.80795e-05 0.259851 0)
(0.000113327 0.261433 0)
(-0.00169149 0.261562 0)
(-0.00203593 0.25989 0)
(0.00114918 0.260048 0)
(0.00061457 0.260037 0)
(-0.000761526 0.260102 0)
(-0.00096703 0.259706 0)
(-0.00118461 0.259728 0)
(-0.00109687 0.259437 0)
(-0.00110058 0.259596 0)
(-0.000947873 0.259833 0)
(-0.000626283 0.259857 0)
(-0.000555262 0.260778 0)
(-0.000213259 0.259961 0)
(0.000127125 0.259774 0)
(0.000405782 0.260785 0)
(0.000636936 0.260754 0)
(0.000832626 0.260226 0)
(0.000817305 0.260292 0)
(0.000878976 0.259957 0)
(0.0011759 0.25985 0)
(0.00104225 0.261538 0)
(0.000453668 0.261505 0)
(7.05158e-05 0.260337 0)
(-6.4449e-05 0.260112 0)
(3.2848e-05 0.260102 0)
(-0.00178607 0.259968 0)