/*--------------------------------*- C++ -*----------------------------------*\
| =========                 |                                                 |
| \\      /  F ield         | OpenFOAM: The Open Source CFD Toolbox           |
|  \\    /   O peration     | Version:  2.3.0                                 |
|   \\  /    A nd           | Web:      www.OpenFOAM.org                      |
|    \\/     M anipulation  |                                                 |
\*---------------------------------------------------------------------------*/
FoamFile
{
    version     2.0;
    format      ascii;
    class       surfaceScalarField;
    location    "0.254";
    object      phi;
}
// * * * * * * * * * * * * * * * * * * * * * * * * * * * * * * * * * * * * * //

dimensions      [0 3 -1 0 0 0 0];

internalField   nonuniform List<scalar> 
1024
(
2.44359e-12
5.6408e-14
2.54304e-12
-9.94506e-14
2.57761e-12
-3.45674e-14
2.61639e-12
-3.87777e-14
4.03173e-14
2.57607e-12
2.57498e-12
-1.85714e-14
2.55785e-12
-8.2325e-14
2.56168e-12
-3.83921e-14
2.58235e-12
-5.94471e-14
6.78835e-14
2.55478e-12
2.59533e-12
-1.13905e-13
2.53626e-12
-2.32487e-14
2.52363e-12
-2.57685e-14
2.53772e-12
-7.35339e-14
9.1945e-14
2.51366e-12
2.52427e-12
-1.38178e-13
2.46627e-12
3.47513e-14
2.4603e-12
-1.97931e-14
2.46278e-12
-7.60201e-14
1.00169e-13
2.45456e-12
2.36182e-12
2.39657e-12
2.37678e-12
2.30076e-12
2.40093e-12
2.37011e-12
2.05959e-13
2.32474e-12
4.53683e-14
2.32343e-12
1.31172e-15
2.33171e-12
-8.27879e-15
2.33675e-12
-5.03989e-15
2.33893e-12
-2.18323e-15
2.33968e-12
-7.44393e-16
2.33992e-12
-2.44583e-16
2.33999e-12
-6.84065e-17
2.34001e-12
-1.92724e-17
2.34001e-12
4.77472e-18
2.34001e-12
-1.16356e-18
2.34e-12
6.35127e-18
2.34e-12
-4.26405e-18
2.34e-12
5.71931e-18
2.34e-12
-5.601e-18
2.34e-12
6.15868e-18
2.34e-12
-5.25613e-18
2.34e-12
5.47599e-18
2.34e-12
-5.98013e-18
2.34e-12
6.53604e-18
2.34e-12
-5.80486e-18
2.34e-12
6.65742e-18
2.34e-12
-7.11091e-18
2.34e-12
7.1999e-18
2.34e-12
-7.31466e-18
2.34e-12
5.79712e-18
2.34e-12
-6.14678e-18
2.34e-12
6.79987e-18
2.34e-12
-6.40887e-18
2.34e-12
7.60922e-18
2.34e-12
-7.1362e-18
2.34e-12
8.02652e-18
2.34e-12
-8.03656e-18
2.34e-12
6.6529e-18
2.34e-12
-8.11064e-18
2.34e-12
5.13826e-18
2.34001e-12
-6.46404e-18
2.34e-12
6.83294e-18
2.34001e-12
-8.20289e-18
2.34e-12
8.82971e-18
2.34001e-12
-7.8121e-18
2.34e-12
1.05282e-17
2.34e-12
-2.85207e-18
4.4554e-17
2.36443e-12
3.96314e-13
2.3254e-12
8.43955e-14
2.32743e-12
-7.23192e-16
2.33354e-12
-1.43831e-14
2.33745e-12
-8.95441e-15
2.33912e-12
-3.84514e-15
2.33972e-12
-1.34988e-15
2.33992e-12
-4.40856e-16
2.33999e-12
-1.38022e-16
2.34e-12
-2.80107e-17
2.34e-12
-4.16971e-18
2.33999e-12
8.98722e-18
2.34e-12
-1.55085e-18
2.33999e-12
4.73432e-18
2.34e-12
-3.36419e-18
2.33999e-12
3.26454e-18
2.34e-12
-3.24762e-18
2.33999e-12
4.68857e-18
2.34e-12
-5.18765e-18
2.33999e-12
4.20477e-18
2.34e-12
-3.97231e-18
2.33999e-12
5.46084e-18
2.34e-12
-4.66389e-18
2.33999e-12
3.93466e-18
2.34e-12
-4.22506e-18
2.33999e-12
4.37291e-18
2.34001e-12
-7.54234e-18
2.33999e-12
7.00082e-18
2.34001e-12
-5.9351e-18
2.33999e-12
7.0302e-18
2.34e-12
-5.03423e-18
2.33999e-12
6.62913e-18
2.34e-12
-4.95633e-18
2.33999e-12
5.54908e-18
2.34e-12
-7.68909e-18
2.33999e-12
5.90612e-18
2.34001e-12
-1.07491e-17
2.33999e-12
9.09038e-18
2.34001e-12
-7.70399e-18
2.33999e-12
6.10167e-18
2.34e-12
-5.10665e-18
2.33999e-12
7.85993e-18
2.34e-12
-5.05804e-18
2.33999e-12
1.13722e-17
-2.40947e-17
2.34367e-12
5.663e-13
2.32842e-12
9.96467e-14
2.33408e-12
-6.38408e-15
2.33773e-12
-1.80262e-14
2.33926e-12
-1.04925e-14
2.33976e-12
-4.33822e-15
2.33991e-12
-1.49961e-15
2.33997e-12
-5.00467e-16
2.33999e-12
-1.59999e-16
2.34e-12
-4.03637e-17
2.34e-12
-1.16771e-18
2.34e-12
4.7608e-18
2.34e-12
3.89813e-18
2.34e-12
-1.19185e-18
2.34e-12
2.81821e-18
2.34e-12
-3.73698e-18
2.34e-12
4.03937e-18
2.34e-12
-2.31484e-18
2.34e-12
1.5751e-18
2.34e-12
-3.1521e-18
2.34e-12
3.57738e-18
2.34e-12
-2.11814e-18
2.34e-12
3.3145e-18
2.34e-12
-4.7772e-18
2.34e-12
4.67507e-18
2.34e-12
-4.09103e-18
2.34e-12
-3.83428e-19
2.34e-12
-7.89347e-19
2.34e-12
2.70443e-18
2.34e-12
-1.52258e-18
2.33999e-12
4.32725e-18
2.34e-12
-2.57927e-18
2.33999e-12
5.41423e-18
2.34e-12
-4.45313e-18
2.33999e-12
1.30038e-18
2.34e-12
-2.76009e-18
2.34e-12
-2.92273e-18
2.34e-12
2.37457e-19
2.33999e-12
2.23345e-18
2.34001e-12
-4.77923e-18
2.33999e-12
6.14326e-18
2.34e-12
-2.8981e-18
2.33999e-12
7.46876e-18
2.34e-12
4.11237e-18
3.87982e-17
2.31988e-12
7.00979e-13
2.3362e-12
8.33316e-14
2.34386e-12
-1.40489e-14
2.34308e-12
-1.7244e-14
2.34148e-12
-8.89571e-15
2.34053e-12
-3.38378e-15
2.34016e-12
-1.13155e-15
2.34003e-12
-3.71587e-16
2.34001e-12
-1.39951e-16
2.33999e-12
-2.17826e-17
2.34e-12
-1.37857e-17
2.33999e-12
1.83864e-17
2.34001e-12
-1.09184e-17
2.33999e-12
1.21303e-17
2.34001e-12
-1.10589e-17
2.33999e-12
1.00025e-17
2.34001e-12
-1.0122e-17
2.33999e-12
1.25764e-17
2.34001e-12
-1.39632e-17
2.33999e-12
1.22532e-17
2.34001e-12
-1.22925e-17
2.33999e-12
1.40791e-17
2.34001e-12
-1.30883e-17
2.33999e-12
1.12841e-17
2.34001e-12
-1.13048e-17
2.33999e-12
1.34576e-17
2.34001e-12
-1.95332e-17
2.33999e-12
1.84354e-17
2.34001e-12
-1.61477e-17
2.33999e-12
1.70281e-17
2.34001e-12
-1.44804e-17
2.33999e-12
1.62945e-17
2.34001e-12
-1.29556e-17
2.33999e-12
1.44923e-17
2.34001e-12
-1.81696e-17
2.33999e-12
1.86983e-17
2.34001e-12
-2.51488e-17
2.33999e-12
2.21786e-17
2.34001e-12
-1.81611e-17
2.33999e-12
1.39635e-17
2.34001e-12
-1.37451e-17
2.33999e-12
1.73215e-17
2.34001e-12
-1.49005e-17
2.34e-12
1.97533e-17
-3.59918e-17
2.31007e-12
7.91837e-13
2.35639e-12
3.70139e-14
2.356e-12
-1.36644e-14
2.34796e-12
-9.19855e-15
2.34311e-12
-4.04995e-15
2.34105e-12
-1.32186e-15
2.34034e-12
-4.19452e-16
2.34009e-12
-1.22542e-16
2.34002e-12
-7.04428e-17
2.34e-12
2.9841e-18
2.34e-12
-1.84825e-17
2.34e-12
2.31399e-17
2.34e-12
-1.75092e-17
2.34e-12
1.54931e-17
2.34e-12
-1.41438e-17
2.34e-12
1.20058e-17
2.34e-12
-1.18583e-17
2.34e-12
1.47752e-17
2.34e-12
-1.69186e-17
2.34e-12
1.54032e-17
2.34e-12
-1.52325e-17
2.34e-12
1.60166e-17
2.34e-12
-1.4685e-17
2.34e-12
1.1891e-17
2.34e-12
-1.16488e-17
2.34e-12
1.68778e-17
2.34e-12
-2.45131e-17
2.34e-12
2.36378e-17
2.34e-12
-2.0283e-17
2.34e-12
1.9477e-17
2.34e-12
-1.72634e-17
2.34e-12
1.71211e-17
2.34e-12
-1.31833e-17
2.34e-12
1.56217e-17
2.34e-12
-2.17921e-17
2.34e-12
2.74872e-17
2.34e-12
-3.26158e-17
2.34e-12
2.82129e-17
2.34e-12
-2.11059e-17
2.34e-12
1.40484e-17
2.34e-12
-1.43793e-17
2.34e-12
1.65255e-17
2.34e-12
-1.61511e-17
2.34e-12
1.82004e-17
1.51155e-17
2.5837e-12
-7.91861e-13
2.65769e-12
-3.69762e-14
2.63039e-12
1.36326e-14
2.61196e-12
9.23456e-15
2.6039e-12
4.01274e-15
2.60121e-12
1.36103e-15
2.60041e-12
3.811e-16
2.60013e-12
1.61075e-16
2.60003e-12
3.07401e-17
2.59999e-12
3.61226e-17
2.6e-12
-2.08916e-17
2.6e-12
1.6895e-17
2.60001e-12
-2.26425e-17
2.6e-12
2.57252e-17
2.60001e-12
-2.75515e-17
2.59999e-12
2.93718e-17
2.60001e-12
-2.96382e-17
2.6e-12
2.71141e-17
2.60001e-12
-2.52865e-17
2.6e-12
2.70285e-17
2.60001e-12
-2.76335e-17
2.6e-12
2.76419e-17
2.60001e-12
-2.93104e-17
2.59999e-12
3.1591e-17
2.60001e-12
-3.17546e-17
2.6e-12
2.69733e-17
2.6e-12
-1.94981e-17
2.6e-12
2.05349e-17
2.6e-12
-2.41117e-17
2.6e-12
2.56417e-17
2.60001e-12
-2.84668e-17
2.6e-12
2.8711e-17
2.60002e-12
-3.25973e-17
2.6e-12
2.93932e-17
2.6e-12
-2.28495e-17
2.60001e-12
1.7371e-17
2.59999e-12
-1.23934e-17
2.6e-12
1.68614e-17
2.60001e-12
-2.40337e-17
2.59999e-12
3.12698e-17
2.60001e-12
-3.23118e-17
2.6e-12
2.97821e-17
2.60001e-12
-3.21721e-17
2.60001e-12
2.12441e-17
-6.94863e-17
2.36182e-12
1.38177e-13
2.39658e-12
-3.47533e-14
2.37678e-12
1.97922e-14
2.30076e-12
7.60212e-14
-1.00169e-13
2.40093e-12
2.52427e-12
1.13905e-13
2.46627e-12
2.32479e-14
2.4603e-12
2.57673e-14
2.46278e-12
7.35326e-14
-9.19474e-14
2.45456e-12
2.59533e-12
1.85719e-14
2.53626e-12
8.23237e-14
2.52363e-12
3.83909e-14
2.53772e-12
5.94466e-14
-6.78844e-14
2.51366e-12
2.57498e-12
-5.64064e-14
2.55785e-12
9.94501e-14
2.56168e-12
3.45668e-14
2.58235e-12
3.87772e-14
-4.03195e-14
2.55478e-12
2.44359e-12
2.54304e-12
2.57761e-12
2.61639e-12
2.57607e-12
2.31006e-12
-7.00987e-13
2.3564e-12
-8.33176e-14
2.35599e-12
1.40384e-14
2.34797e-12
1.7258e-14
2.3431e-12
8.88082e-15
2.34106e-12
3.40041e-15
2.34033e-12
1.11606e-15
2.3401e-12
3.86938e-16
2.34001e-12
1.23702e-16
2.34001e-12
3.72751e-17
2.33999e-12
-1.82008e-18
2.34001e-12
-2.34041e-18
2.33999e-12
-5.11325e-18
2.34001e-12
4.76457e-18
2.33999e-12
-5.92714e-18
2.34001e-12
6.52234e-18
2.33999e-12
-6.4256e-18
2.34001e-12
4.16068e-18
2.33999e-12
-2.91542e-18
2.34001e-12
4.72639e-18
2.33999e-12
-5.00003e-18
2.34001e-12
3.84361e-18
2.33999e-12
-4.87522e-18
2.34001e-12
6.03262e-18
2.33999e-12
-5.91407e-18
2.34001e-12
4.01964e-18
2.33999e-12
2.01786e-18
2.34001e-12
-8.4405e-19
2.33999e-12
-1.5967e-18
2.34001e-12
1.36391e-18
2.33999e-12
-4.4197e-18
2.34001e-12
2.59639e-18
2.33999e-12
-5.68003e-18
2.34001e-12
3.30259e-18
2.33999e-12
7.7984e-19
2.34001e-12
-1.21761e-18
2.33999e-12
7.58283e-18
2.34001e-12
-4.54032e-18
2.33999e-12
4.63432e-19
2.34001e-12
3.90176e-18
2.33999e-12
-5.52996e-18
2.34001e-12
1.89896e-18
2.33999e-12
-5.39731e-18
2.34001e-12
7.2981e-19
1.96289e-17
2.31988e-12
-5.663e-13
2.3362e-12
-9.96417e-14
2.34386e-12
6.38198e-15
2.34308e-12
1.80299e-14
2.34148e-12
1.04884e-14
2.34053e-12
4.34368e-15
2.34015e-12
1.4958e-15
2.34004e-12
5.04079e-16
2.34001e-12
1.55394e-16
2.34e-12
4.42318e-17
2.34e-12
-2.76225e-18
2.34e-12
-5.36577e-19
2.34e-12
-7.90547e-18
2.34e-12
5.71679e-18
2.34e-12
-7.28317e-18
2.34e-12
7.91409e-18
2.34e-12
-8.27178e-18
2.34e-12
6.62462e-18
2.34e-12
-5.92873e-18
2.34e-12
7.49798e-18
2.34e-12
-8.01182e-18
2.34e-12
6.85479e-18
2.34e-12
-8.04875e-18
2.34e-12
9.15227e-18
2.34e-12
-9.06146e-18
2.34e-12
8.6299e-18
2.34e-12
-4.12187e-18
2.34e-12
5.30539e-18
2.34e-12
-7.21635e-18
2.34e-12
6.31388e-18
2.34e-12
-9.29614e-18
2.34e-12
7.51665e-18
2.34e-12
-1.032e-17
2.34e-12
8.96172e-18
2.34e-12
-5.70506e-18
2.33999e-12
7.27118e-18
2.34e-12
-1.60689e-18
2.34e-12
4.30013e-18
2.34e-12
-6.70799e-18
2.34e-12
9.10687e-18
2.34e-12
-1.11293e-17
2.34e-12
7.34787e-18
2.34e-12
-1.1884e-17
2.34e-12
1.46845e-18
-4.3603e-17
2.34367e-12
-3.96311e-13
2.32842e-12
-8.43955e-14
2.33408e-12
7.23381e-16
2.33773e-12
1.43825e-14
2.33926e-12
8.95348e-15
2.33976e-12
3.84731e-15
2.3399e-12
1.34991e-15
2.33997e-12
4.40754e-16
2.33999e-12
1.36942e-16
2.34e-12
2.8429e-17
2.34e-12
3.72585e-18
2.34e-12
-8.28114e-18
2.33999e-12
1.14969e-18
2.34e-12
-4.05399e-18
2.33999e-12
2.76681e-18
2.34e-12
-2.74759e-18
2.33999e-12
2.66265e-18
2.34e-12
-4.10391e-18
2.33999e-12
4.5825e-18
2.34001e-12
-3.63067e-18
2.33999e-12
3.43398e-18
2.34001e-12
-4.8157e-18
2.33999e-12
3.99432e-18
2.34001e-12
-3.38167e-18
2.33999e-12
3.624e-18
2.34001e-12
-3.72013e-18
2.33999e-12
6.92813e-18
2.34001e-12
-6.37042e-18
2.33999e-12
5.3877e-18
2.34001e-12
-6.42071e-18
2.33999e-12
4.39302e-18
2.34001e-12
-5.99429e-18
2.33999e-12
4.21415e-18
2.34001e-12
-4.91439e-18
2.33999e-12
7.04571e-18
2.34001e-12
-5.21576e-18
2.33999e-12
1.00291e-17
2.34001e-12
-8.32531e-18
2.33999e-12
6.98341e-18
2.34001e-12
-5.53347e-18
2.33999e-12
4.09694e-18
2.34001e-12
-7.09073e-18
2.33999e-12
3.8695e-18
2.34e-12
-8.59453e-18
2.76031e-17
2.36443e-12
-2.05958e-13
2.3254e-12
-4.5368e-14
2.32744e-12
-1.31226e-15
2.33354e-12
8.27986e-15
2.33745e-12
5.03983e-15
2.33911e-12
2.18484e-15
2.33972e-12
7.45381e-16
2.33992e-12
2.43127e-16
2.33999e-12
6.70924e-17
2.34e-12
1.85798e-17
2.34e-12
-4.40917e-18
2.33999e-12
1.34178e-18
2.34e-12
-5.88882e-18
2.33999e-12
4.27448e-18
2.34e-12
-5.48389e-18
2.33999e-12
5.37508e-18
2.34e-12
-5.95766e-18
2.33999e-12
5.06199e-18
2.34e-12
-5.27996e-18
2.33999e-12
5.7964e-18
2.34e-12
-6.30959e-18
2.33999e-12
5.64327e-18
2.34e-12
-6.47624e-18
2.33999e-12
6.84296e-18
2.34e-12
-7.00559e-18
2.33999e-12
7.12554e-18
2.34001e-12
-5.59708e-18
2.33999e-12
5.96262e-18
2.34e-12
-6.56447e-18
2.33999e-12
6.23058e-18
2.34e-12
-7.3972e-18
2.33999e-12
6.91272e-18
2.34e-12
-7.84394e-18
2.33999e-12
7.77142e-18
2.34e-12
-6.45302e-18
2.33999e-12
7.91075e-18
2.34001e-12
-4.94283e-18
2.33999e-12
6.24546e-18
2.34e-12
-6.57236e-18
2.33999e-12
7.73588e-18
2.34e-12
-8.44683e-18
2.33999e-12
6.99546e-18
2.34e-12
-9.74786e-18
2.33999e-12
2.12562e-18
-4.62107e-17
2.37011e-12
2.32474e-12
2.32343e-12
2.33171e-12
2.33675e-12
2.33893e-12
2.33968e-12
2.33992e-12
2.33999e-12
2.34001e-12
2.34e-12
2.34001e-12
2.34e-12
2.34e-12
2.34e-12
2.34e-12
2.34e-12
2.34e-12
2.34e-12
2.34e-12
2.34e-12
2.34e-12
2.34e-12
2.34e-12
2.34e-12
2.34e-12
2.34e-12
2.34e-12
2.34e-12
2.34e-12
2.34e-12
2.34e-12
2.34e-12
2.34e-12
2.34e-12
2.34e-12
2.34e-12
2.34001e-12
2.34e-12
2.34001e-12
2.34e-12
2.34001e-12
2.34e-12
2.34e-12
)
;

boundaryField
{
    AirInlet
    {
        type            calculated;
        value           uniform -1e-12;
    }
    WaterInlet
    {
        type            calculated;
        value           nonuniform List<scalar> 10(-2.5e-12 -2.5e-12 -2.5e-12 -2.5e-12 -2.5e-12 -2.5e-12 -2.5e-12 -2.5e-12 -2.5e-12 -2.5e-12);
    }
    ChannelWall
    {
        type            calculated;
        value           uniform 0;
    }
    Outlet
    {
        type            calculated;
        value           nonuniform List<scalar> 
11
(
2.33995e-12
2.34006e-12
2.33994e-12
2.34007e-12
2.33995e-12
2.60009e-12
2.33992e-12
2.34007e-12
2.33993e-12
2.34007e-12
2.33995e-12
)
;
    }
    FrontAndBack
    {
        type            empty;
        value           nonuniform 0();
    }
}


// ************************************************************************* //
