/*--------------------------------*- C++ -*----------------------------------*\
| =========                 |                                                 |
| \\      /  F ield         | OpenFOAM: The Open Source CFD Toolbox           |
|  \\    /   O peration     | Version:  2.3.0                                 |
|   \\  /    A nd           | Web:      www.OpenFOAM.org                      |
|    \\/     M anipulation  |                                                 |
\*---------------------------------------------------------------------------*/
FoamFile
{
    version     2.0;
    format      ascii;
    class       volScalarField;
    location    "1.90001";
    object      epsilonm;
}
// * * * * * * * * * * * * * * * * * * * * * * * * * * * * * * * * * * * * * //

dimensions      [0 2 -3 0 0 0 0];

internalField   nonuniform List<scalar> 
10000
(
19.3925
12.8264
13.0391
4.17982
1.91427
1.08085
0.195006
0.0517286
0.485186
0.557897
0.160623
15.0748
15.0081
0.508873
2.78108
6.85778
19.3799
32.3688
72.6055
97.3475
14.3649
50.6418
10.7695
0.0564625
0.1947
0.0133725
0.000999746
0.000909884
0.000452587
0.00413056
0.0408247
1.37218
0.639773
0.230026
6.81783
2.75665
72.0248
7.6448
158.663
663.272
169.214
224.474
50.0785
1.9239
0.136287
0.0476499
0.00067061
0.000226227
0.00029835
0.000284136
0.00144573
0.0103769
0.00902438
0.00236601
0.00761503
0.459054
30.5072
15.5962
689.438
5823.6
2023.17
136.326
550.706
2.73433
0.161666
0.00244782
0.000174285
0.000153146
0.000171129
0.000186029
0.000173254
0.000187716
0.000192649
0.000183269
0.00210432
0.638408
144.668
41.5936
1237.46
5847.46
810.693
18.4329
291.327
5.98939
0.171496
0.00110882
0.00019642
0.000169405
0.000185854
0.000201634
0.00021439
0.000273166
0.000230392
0.000223646
0.00302555
0.533724
78.7031
211.835
1723.19
3846.36
5.54073
10.602
1709.23
17.0528
0.279174
0.00122215
0.000185297
0.000166044
0.000190607
0.00020787
0.000218697
0.000244469
0.000235409
0.000221208
0.0018704
0.373083
30.0616
1439.34
10345.8
74.1789
11.6662
11.4817
1442.35
19.5998
0.583463
0.00390125
0.000253306
0.000212344
0.000302239
0.000388003
0.000453962
0.000610785
0.0005696
0.000479813
0.00378926
0.338396
11.3376
103.69
8895
92.0258
96.0582
37.524
47.6428
6.31373
0.736
0.011296
0.00176209
0.00138264
0.00243561
0.00326168
0.00363629
0.00522291
0.00489709
0.00411574
0.0150093
0.366447
8.01606
190.565
9551.97
107.787
826.377
518.483
13.0532
4.86765
0.901909
0.0375399
0.0214664
0.0177645
0.0271929
0.0318126
0.0288308
0.043112
0.0411904
0.0361011
0.0731768
0.397568
11.5441
1611.8
12479
99.8866
787.054
638.564
54.572
4.99359
1.28787
0.252616
0.161799
0.123777
0.215484
0.233836
0.1505
0.257116
0.253491
0.219429
0.4008
0.810879
17.2388
1974.93
13028
69.9159
203.832
657.699
358.83
6.82089
1.92988
0.343092
0.176899
0.168261
0.274769
0.287123
0.190754
0.307211
0.300785
0.203138
0.317712
0.811785
14.6108
386.274
21.6414
18.1555
12.375
47.289
2225.87
16.9547
1.88329
0.456605
0.192207
0.216502
0.168163
0.191684
0.255204
0.214286
0.213728
0.213437
0.389867
1.40115
9.47436
41.4438
2.50957
38.3094
7.52566
35.1185
2137.92
20.7069
1.78119
0.368636
0.206774
0.203825
0.164694
0.285997
0.264347
0.351689
0.347053
0.239191
0.872323
2.64755
87.6871
30.2069
3.52349
56.6515
15.9049
250.362
389.338
11.165
1.81949
0.384188
0.246982
0.170486
0.173153
0.182361
0.224092
0.305903
0.295965
0.238805
0.845017
1.4496
110.848
68.0899
6.89007
181.921
47.3614
858.576
7.06997
6.94513
2.16255
0.432646
0.307388
0.199249
0.23194
0.212579
0.16712
0.180174
0.191909
0.23691
0.733085
1.08274
93.1759
781.578
15.9946
849.582
171.351
830.813
5.57032
15.0766
2.25564
0.631048
0.570626
0.238649
0.357106
0.289155
0.188431
0.210335
0.228525
0.245912
0.336292
2.5425
62.7914
1606.36
28.9786
4574.26
927.331
597.565
4.30746
71.4586
2.58171
0.582788
0.841071
0.290068
0.89009
0.383753
0.216882
0.302166
0.336332
0.295706
0.354219
2.96805
72.2835
1437.13
14.0123
2775.86
444.891
223.161
2.32929
378.057
5.09776
0.493013
0.73436
0.456114
0.702303
0.682234
0.234943
0.633528
0.766581
0.363848
0.434334
1.12822
34.5878
1098.7
5.80895
1644.67
104.327
83.3774
0.735049
127.476
5.8558
0.657071
0.504976
0.373341
0.436067
0.444537
0.211074
0.256985
0.324115
0.456767
0.56253
0.605603
14.1695
358.445
0.836417
265.002
12.4987
28.8322
0.0985527
43.7831
4.76577
0.233438
0.177224
0.148795
0.367702
0.159025
0.169146
0.197928
0.178875
0.0939
0.0729137
0.0736141
1.41769
43.3747
0.0342615
36.8951
19.4136
10.9303
12.8004
4.29745
1.98253
1.0724
0.188935
0.0785371
0.217341
0.738021
0.165312
12.303
11.7243
0.529566
2.9637
6.81895
17.0376
33.1493
67.5875
79.4946
11.0168
34.0254
9.33763
0.201747
0.211672
0.0123698
0.000911016
0.000936272
0.000429344
0.00427839
0.0525305
1.98951
0.728379
0.277268
8.50819
2.62179
31.682
7.00469
121.367
310.276
88.9916
121.864
21.1534
2.19779
0.151254
0.0462505
0.000630113
0.000225831
0.000294819
0.000279579
0.00136124
0.0103563
0.0114324
0.00246321
0.00722357
0.376363
22.5796
12.2013
583.551
2367.2
973.149
68.9577
104.104
2.41328
0.165191
0.00210493
0.000171997
0.000152747
0.000170097
0.000184258
0.000171161
0.000180996
0.000186733
0.0001791
0.00168299
0.382869
75.3104
26.1106
1039.63
2706.48
261.952
15.4692
210.915
5.05379
0.168726
0.000905765
0.000193938
0.000168855
0.0001841
0.000198824
0.000210891
0.000264649
0.000225725
0.000217787
0.00215583
0.381613
42.5148
103.08
1263.95
990.788
4.54935
7.24024
814.639
12.2375
0.264058
0.00113347
0.000182478
0.000164939
0.000187001
0.000202043
0.000211655
0.000233262
0.000225152
0.000212718
0.00143094
0.33628
20.1061
481.17
5335.86
52.5647
7.53621
7.53331
621.84
14.2644
0.544721
0.00366472
0.000232304
0.000199223
0.000271193
0.000337447
0.000394271
0.000514697
0.000480853
0.000410889
0.00295829
0.334116
9.57833
77.485
4829.48
58.6815
37.785
18.8214
35.0553
6.07671
0.726177
0.0099697
0.00149196
0.00119432
0.00203677
0.00272538
0.00317172
0.00445049
0.00418207
0.00352408
0.0129089
0.37805
7.36875
101.769
5144.2
69.4456
310.133
159.111
10.8652
4.87182
0.901458
0.032842
0.0186074
0.0161539
0.023713
0.0275867
0.0261955
0.0379769
0.0361116
0.0309649
0.0612534
0.41188
7.94642
621.956
5802.78
61.3931
394.472
323.195
42.0606
4.9711
1.28465
0.26434
0.168452
0.134941
0.217637
0.232798
0.158897
0.251853
0.249869
0.220538
0.371713
0.653639
12.0444
910.511
4265.79
35.3811
169.465
316.64
241.314
6.30427
1.80591
0.347158
0.178127
0.169321
0.261639
0.272757
0.192105
0.290986
0.286221
0.204592
0.323848
0.8842
11.8348
320.673
8.0134
17.633
11.5543
40.0326
1048.91
12.3408
1.80628
0.432022
0.193222
0.209612
0.168868
0.192379
0.245177
0.215122
0.214536
0.21479
0.393445
1.2551
7.57583
39.1271
2.08034
36.381
7.33494
25.6733
1009.71
14.7155
1.77855
0.37251
0.208097
0.198254
0.165234
0.272319
0.2546
0.331699
0.328327
0.240323
0.707769
1.7416
24.7644
28.2701
2.79663
54.3195
14.9353
103.821
214.227
9.15456
1.82396
0.388998
0.249585
0.171322
0.173943
0.183136
0.217909
0.291252
0.281823
0.239937
0.70758
1.30276
52.6357
45.2437
5.01577
162.244
42.0025
397.001
4.43032
6.8457
2.07918
0.438314
0.315222
0.200878
0.233945
0.214183
0.167865
0.180897
0.192722
0.238228
0.632123
0.987068
45.8846
231.049
10.1856
649.548
126.219
389.877
3.86522
13.7621
2.25845
0.5746
0.419672
0.242018
0.360055
0.295064
0.189706
0.211737
0.230111
0.247909
0.339282
1.40123
41.0285
724.817
15.9701
2360.52
425.986
248.113
2.84464
54.9522
2.5506
0.54274
0.635874
0.294403
0.659406
0.337166
0.219108
0.304418
0.338521
0.299374
0.357541
1.80788
31.4102
685.84
6.55977
1265.6
175.588
72.3342
1.42105
209.917
4.50661
0.498924
0.579436
0.401277
0.544227
0.554219
0.237241
0.542673
0.643854
0.370054
0.443993
1.12007
15.7096
484.513
2.39819
679.082
37.1149
23.3678
0.562151
83.8606
5.4049
0.69981
0.437719
0.341404
0.381094
0.392589
0.214038
0.26274
0.336593
0.486177
0.616627
0.751237
6.11863
127.229
0.344389
105.149
4.09816
3.73312
0.0628331
22.1697
4.70294
0.437636
0.185621
0.152977
0.315238
0.165317
0.177427
0.221477
0.245176
0.257213
0.266568
0.267297
0.615176
19.9294
0.0144778
10.3156
18.5944
9.72852
11.8579
4.3531
2.00716
1.05608
0.186034
0.112165
0.179486
0.856927
0.204942
11.4904
9.33767
0.55195
3.09174
6.76193
15.6653
32.6744
60.9782
69.4929
8.44052
20.0556
8.18553
0.323793
0.222491
0.0119816
0.000874643
0.000947215
0.000418504
0.00431969
0.0581395
2.38217
0.930257
0.475737
11.8917
2.82849
15.5584
6.49931
83.6884
155.023
34.6886
65.0718
15.1054
2.31545
0.159587
0.0432968
0.000608406
0.000222379
0.000288226
0.000273085
0.00130862
0.00996752
0.0125033
0.00248005
0.00712215
0.335431
15.3512
9.63025
427.647
972.477
350.414
39.8151
38.3973
2.32488
0.166326
0.00195798
0.000170583
0.000152131
0.000168587
0.000181949
0.000169521
0.000178231
0.000184018
0.000177057
0.00151768
0.287585
38.8246
16.6053
758.485
1226.91
44.2812
12.7532
137.294
4.35563
0.167674
0.00083323
0.000191514
0.000167564
0.000181979
0.000195742
0.000207499
0.000258817
0.000221161
0.000213699
0.00183986
0.317122
22.9466
47.0114
855.668
241.495
4.41702
5.20111
395.113
9.12278
0.258708
0.00109374
0.000180622
0.000163777
0.000184945
0.000199168
0.000208327
0.000228145
0.000220403
0.000208742
0.00126887
0.310589
14.0764
157.22
2824.82
41.9747
5.81393
5.19709
272.953
10.464
0.520606
0.00356112
0.000224352
0.000194192
0.000259532
0.000318567
0.000371377
0.000478715
0.000447777
0.00038513
0.00262571
0.327527
8.38586
54.9611
2689.33
40.4241
20.0161
11.7492
20.0674
5.75607
0.711448
0.00940215
0.00139352
0.00112427
0.00189013
0.00252754
0.00299485
0.0041593
0.00391463
0.00330785
0.0120697
0.388346
6.67795
57.9163
2832.22
42.3053
121.18
64.3367
8.69284
4.88178
0.894407
0.0305031
0.0172002
0.0152583
0.0216075
0.0248885
0.0243598
0.0340729
0.0324918
0.0281062
0.0535451
0.449069
6.12771
238.665
2731.26
35.83
205.314
168.24
29.8129
4.9583
1.32904
0.282979
0.177658
0.146777
0.224842
0.237887
0.169053
0.253876
0.252858
0.22628
0.362963
0.667585
8.73767
426.321
1248.23
20.3443
119.685
163.157
146.877
5.8553
1.75038
0.354803
0.180309
0.171249
0.254787
0.265232
0.194612
0.282431
0.278545
0.207204
0.334757
1.02232
9.334
227.969
3.15745
16.7502
10.4186
31.8894
502.354
9.41895
1.76996
0.420069
0.195112
0.205998
0.170185
0.193751
0.239874
0.216786
0.216116
0.217244
0.402466
1.16813
6.73621
35.6121
1.57036
31.4429
6.9913
18.4091
475.926
10.6734
1.78299
0.379369
0.210503
0.19532
0.166246
0.263535
0.249445
0.318755
0.316182
0.242643
0.61684
1.39659
12.4706
25.7987
2.03579
50.9087
13.513
58.614
75.4616
7.65011
1.83736
0.397411
0.25424
0.172796
0.175374
0.18458
0.21472
0.281724
0.27249
0.242217
0.629069
1.23167
26.7861
33.0525
3.41174
137.503
35.5489
188.718
2.97014
6.69981
2.0359
0.448956
0.330826
0.203713
0.237519
0.217057
0.169182
0.182235
0.194222
0.240778
0.573583
0.984442
25.0309
104.591
6.219
465.503
87.0578
188.073
2.75842
12.1976
2.26549
0.548236
0.379441
0.248131
0.368767
0.306048
0.19193
0.214264
0.232966
0.251535
0.346392
1.05416
23.9824
335.521
8.65587
1251.36
200.376
102.176
1.98031
39.5937
2.5187
0.532192
0.53636
0.30324
0.548352
0.338922
0.223062
0.309322
0.34368
0.306011
0.365086
1.32649
15.6345
337.647
2.94228
589.498
71.101
22.3022
0.950468
117.832
4.01027
0.509499
0.499907
0.375381
0.466502
0.486326
0.241592
0.489823
0.572845
0.381081
0.460465
1.13913
8.14031
217.489
0.998557
292.716
16.7727
3.72499
0.4197
57.6684
5.14485
0.766457
0.407566
0.325064
0.356029
0.368222
0.21927
0.272749
0.357345
0.532038
0.695699
0.978711
2.96347
51.9302
0.154172
61.6949
0.490276
0.123153
0.0355508
10.9319
4.73042
0.675519
0.200402
0.160407
0.291605
0.176447
0.191982
0.262798
0.354017
0.471426
0.524662
0.553931
0.146923
9.91
0.00882349
2.37566
17.9094
9.03629
11.3506
4.42361
2.04044
1.0464
0.182391
0.153362
0.169023
1.1227
0.223462
9.84202
6.98778
0.572941
3.22779
6.72836
15.0144
32.251
56.5217
63.7584
6.88575
11.4289
7.04471
0.43326
0.233973
0.0114835
0.000808408
0.000968276
0.000389809
0.00435503
0.0690956
2.78372
1.19524
0.675231
14.7336
3.06284
9.11436
6.21713
53.4323
90.6791
12.6884
35.2026
11.9853
2.39832
0.167035
0.0410147
0.000579081
0.00022132
0.000285503
0.000270194
0.00124498
0.00972856
0.0137546
0.00246342
0.00705592
0.310891
10.2422
7.97121
276.038
425.817
75.1373
26.4179
24.2837
2.29295
0.166789
0.00167764
0.000169276
0.000151918
0.000167975
0.000180959
0.000168518
0.000174458
0.00017998
0.000174556
0.00119909
0.240972
19.9711
11.6407
491.82
551.412
8.76877
10.377
83.6689
3.84932
0.167451
0.000727346
0.00019031
0.00016711
0.00018104
0.000194328
0.000205825
0.000254181
0.000219012
0.000210729
0.00133339
0.284127
13.1324
24.4805
557.676
80.7579
4.63289
3.9866
193.353
7.19939
0.256745
0.00100855
0.000179091
0.000163267
0.000182973
0.00019592
0.00020428
0.000221848
0.000214788
0.00020407
0.00103648
0.290039
10.3539
59.2867
1534.84
38.2156
4.97941
3.8655
120.716
8.15952
0.50393
0.0033197
0.000212358
0.000186696
0.000242118
0.000290366
0.000335765
0.000423218
0.000396541
0.000345162
0.0020389
0.316685
7.25832
38.2952
1545.22
34.5995
13.227
8.18933
10.3735
5.4714
0.694847
0.00829356
0.00124534
0.00101391
0.00167623
0.0022471
0.00272766
0.00375747
0.00354318
0.00300093
0.0106235
0.392911
6.08721
36.1166
1613.54
26.2205
58.3782
34.7455
6.91057
4.89762
0.881044
0.0262017
0.0147328
0.0137146
0.018531
0.0212955
0.0220221
0.0297264
0.028246
0.0241993
0.0448397
0.496041
5.30097
99.6724
1275.37
21.1699
112.16
91.7829
20.6374
4.96692
1.40306
0.303982
0.188161
0.157765
0.235335
0.24714
0.179274
0.260972
0.260425
0.235003
0.368084
0.774877
6.91317
204.413
300.53
14.1859
76.8939
90.8866
85.8947
5.54771
1.74031
0.364045
0.18285
0.173526
0.252487
0.262656
0.19761
0.279416
0.275863
0.210261
0.347474
1.19717
7.64015
144.655
1.54849
15.9459
9.1974
24.3448
242.063
7.7327
1.76198
0.416681
0.197496
0.204774
0.171859
0.195552
0.237997
0.218985
0.218182
0.220294
0.416137
1.19899
6.27993
31.6989
1.16546
28.1056
6.50075
13.2451
221.775
8.38798
1.79533
0.387295
0.213501
0.19431
0.167529
0.258699
0.247661
0.311474
0.30934
0.245749
0.574305
1.32464
8.86488
23.0921
1.49294
46.7723
11.8196
33.8379
20.3902
6.80134
1.85767
0.40704
0.260025
0.17449
0.177158
0.186409
0.213712
0.276358
0.26707
0.245242
0.591014
1.25039
15.7198
25.4376
2.36295
113.997
29.2428
92.2642
2.21016
6.54634
2.02109
0.46167
0.351161
0.206947
0.24197
0.220585
0.170699
0.183921
0.196105
0.244092
0.544843
1.05442
15.7204
56.6451
3.91446
331.345
58.386
92.7953
2.10975
10.8765
2.27621
0.541339
0.394488
0.255258
0.38247
0.320155
0.194469
0.217421
0.236531
0.256071
0.356328
1.02904
14.9235
162.155
4.76313
680.452
95.7671
39.0147
1.50556
28.8075
2.50066
0.535634
0.500246
0.314353
0.50648
0.357977
0.227627
0.316239
0.351224
0.314313
0.375505
1.1895
9.37879
172.11
1.33716
281.055
27.3047
3.78134
0.709762
68.2518
3.71985
0.521466
0.468292
0.36839
0.438629
0.458211
0.246835
0.46387
0.537766
0.394361
0.479608
1.19062
4.81611
99.4958
0.393384
127.221
3.70736
0.217702
0.285026
41.4355
5.03292
0.837338
0.400812
0.319463
0.350476
0.361858
0.225273
0.283996
0.379691
0.580631
0.776483
1.2208
1.36592
19.5657
0.0523127
22.8531
0.157888
0.0506181
0.0189924
5.6915
4.81286
0.920915
0.217594
0.16905
0.286146
0.189392
0.208855
0.311072
0.477362
0.69428
0.787743
0.8807
0.0882744
2.77036
0.00424423
0.111725
17.3804
8.50176
10.8299
4.51532
2.08185
1.03404
0.179282
0.225443
0.168373
1.42541
0.254776
8.74603
5.04311
0.595282
3.36586
6.69705
14.7316
31.9972
52.8755
59.574
6.18501
6.82378
5.91891
0.534942
0.246556
0.0112412
0.000772035
0.000977494
0.00036714
0.00436278
0.0768133
3.30587
1.55521
0.925378
17.9045
3.30771
6.29668
6.11564
33.3845
60.2788
7.03765
19.9411
9.39482
2.45759
0.17244
0.0383129
0.000552939
0.00021862
0.000278825
0.00026365
0.00117745
0.00861778
0.0141944
0.00239491
0.00706236
0.295323
7.08552
7.06747
158.024
203.75
15.0489
18.7096
16.212
2.27994
0.166589
0.00152586
0.000167798
0.000151519
0.000166647
0.000178832
0.000166842
0.000172379
0.000177397
0.000172577
0.00104428
0.215718
10.7275
9.09663
294.756
248.092
5.99
8.4118
47.8899
3.50027
0.167006
0.000677389
0.000187766
0.000166078
0.000179051
0.000191406
0.00020234
0.000247953
0.000214683
0.000206702
0.00109309
0.261937
8.21056
15.2402
354.12
45.7213
4.94143
3.2386
93.1958
6.01401
0.255869
0.000948724
0.000177172
0.00016227
0.000180888
0.00019311
0.000201064
0.000217176
0.000210388
0.000200391
0.000930588
0.270041
7.78271
29.2693
856.499
37.8798
4.6905
3.08209
52.0787
6.78024
0.491304
0.00314672
0.000206444
0.000183003
0.000233545
0.00027649
0.000318158
0.000395899
0.000371377
0.00032552
0.00175506
0.30038
6.29205
26.5386
912.964
33.4373
9.90823
6.02719
6.04581
5.25947
0.676721
0.0076267
0.00117534
0.000960977
0.00157431
0.00211279
0.00259729
0.00356176
0.00336327
0.00285421
0.0098338
0.392537
5.57943
24.0994
943.514
19.6728
35.1214
21.1578
5.48447
4.91774
0.860294
0.022984
0.0129474
0.0125316
0.015841
0.0180464
0.0198765
0.0255303
0.0242404
0.0210117
0.0369129
0.540945
4.90897
47.3157
572.15
14.1301
64.689
52.6506
14.2464
4.99186
1.46856
0.320098
0.19802
0.165286
0.246459
0.257662
0.186653
0.270129
0.269685
0.244239
0.379874
0.908921
6.06586
101.223
59.6718
11.476
48.5488
53.889
49.4914
5.349
1.75074
0.371326
0.184806
0.175286
0.252675
0.262802
0.199948
0.279478
0.275949
0.212618
0.357237
1.34834
6.63203
87.6114
0.957689
15.0719
7.95158
17.9905
115.991
6.74942
1.76747
0.417533
0.199765
0.204847
0.173468
0.197321
0.238007
0.221153
0.220201
0.223182
0.430937
1.30905
6.02892
27.8149
0.871405
25.2005
5.85097
9.66762
101.17
7.12445
1.80844
0.393308
0.216355
0.19435
0.168749
0.256831
0.247734
0.308426
0.306475
0.248841
0.561391
1.37637
7.35019
20.2951
1.13446
42.1127
9.89904
19.7754
6.14571
6.32012
1.87612
0.41428
0.265589
0.175767
0.17887
0.188169
0.21386
0.27412
0.264599
0.24823
0.578644
1.32463
11.0334
20.3038
1.70552
92.939
23.2696
45.7735
1.7778
6.4007
2.02138
0.471493
0.37153
0.209369
0.246298
0.223974
0.171845
0.18553
0.197895
0.24735
0.535437
1.1623
11.4254
33.8898
2.40011
231.586
37.2035
45.4762
1.71133
9.87411
2.28627
0.543655
0.426764
0.260671
0.397797
0.334282
0.196374
0.220478
0.239979
0.260444
0.366353
1.11605
10.6287
82.4493
2.59102
377.225
44.8394
11.8581
1.23225
21.9621
2.49651
0.54221
0.498812
0.323296
0.502231
0.382718
0.231081
0.323569
0.359357
0.322365
0.385941
1.20832
6.72939
90.4066
0.600215
132.828
7.78934
0.224511
0.545293
42.1214
3.59788
0.530758
0.464096
0.370562
0.438541
0.453756
0.250923
0.455464
0.525501
0.407328
0.496658
1.26573
3.35488
46.0741
0.177861
44.5996
0.347305
0.03422
0.186962
30.6206
5.01176
0.887115
0.40459
0.319575
0.353866
0.364066
0.229779
0.292279
0.395481
0.613879
0.832858
1.39756
0.814551
7.7116
0.0329339
1.64337
0.0318748
0.0186762
0.00824875
3.12197
4.89196
1.12353
0.230786
0.175667
0.289029
0.19932
0.221789
0.348986
0.577474
0.884363
1.01577
1.16778
0.0867075
0.963756
0.00284482
0.0135558
16.9241
8.18971
10.3764
4.63492
2.1273
1.02215
0.176746
0.373861
0.167959
1.84156
0.258175
7.98128
3.78872
0.611309
3.50484
6.66187
14.6294
31.8354
50.5204
56.0016
5.79159
4.37933
4.8513
0.716796
0.261072
0.0109027
0.000710608
0.000987493
0.000333952
0.00435247
0.0864272
3.55574
1.96647
1.13236
21.3427
3.49128
4.96832
6.15765
21.4638
43.5
5.90491
12.4365
7.13317
2.49395
0.176149
0.0358496
0.000527418
0.000217359
0.000275606
0.000260457
0.00111714
0.00757243
0.014294
0.00232431
0.00710485
0.284595
5.3501
6.71189
84.1564
105.08
7.6666
13.4367
10.4771
2.27844
0.165589
0.00126325
0.000166737
0.000151345
0.000166025
0.000177836
0.000166014
0.000169645
0.000174335
0.0001707
0.000790183
0.197215
6.64173
7.79962
172.81
116.731
6.13884
6.85532
25.4908
3.27245
0.166397
0.000603095
0.000186541
0.000165597
0.000178104
0.000190014
0.000200663
0.000244454
0.00021263
0.000204457
0.00079149
0.241286
5.74805
10.8027
222.911
35.8236
5.28211
2.74232
43.1187
5.28119
0.255287
0.000853948
0.000175883
0.000161803
0.000179308
0.000190571
0.000197758
0.000212177
0.000206027
0.000196777
0.00076852
0.248157
6.03598
17.9854
491.624
39.7274
4.87168
2.58268
21.8971
5.9425
0.480673
0.00285335
0.000196796
0.000177044
0.000219672
0.00025409
0.000289046
0.000350923
0.000329819
0.000293006
0.00134071
0.278573
5.53966
18.357
550.751
35.3053
8.0219
4.60983
4.09938
5.11507
0.651344
0.00656489
0.0010723
0.00087787
0.00143292
0.00193256
0.00240303
0.00330311
0.00312514
0.00265272
0.00862412
0.382759
5.15959
16.8507
561.376
18.7217
24.4206
13.7067
4.34269
4.94024
0.829007
0.0198611
0.0112644
0.0112896
0.0136001
0.0155091
0.0181764
0.0224897
0.0213701
0.0186486
0.0315488
0.571147
4.71302
25.1127
241.627
11.8532
40.025
31.7475
9.78495
5.01978
1.67265
1.96419e-06
0.202589
1.96419e-06
0.252285
0.26349
1.96419e-06
0.275591
0.275012
0.249029
0.387872
1.00953
5.54476
53.2389
11.029
10.5688
31.8782
33.489
28.4152
5.21931
1.76204
1.96419e-06
1.96419e-06
1.96419e-06
1.96419e-06
1.96419e-06
1.96419e-06
1.96419e-06
1.96419e-06
1.96419e-06
1.96419e-06
0.887257
6.08282
53.6001
0.674341
13.8295
6.69372
13.0338
55.1079
6.15781
2.09328
1.96419e-06
0.201113
1.96419e-06
0.174445
0.198401
1.96419e-06
0.222483
0.221431
0.22492
0.441198
1.42181
5.91428
24.1218
0.66593
22.2892
5.01557
7.09933
44.9757
6.41071
2.10232
1.96419e-06
0.218102
1.96419e-06
0.169454
0.256875
1.96419e-06
0.308069
0.306154
0.250745
0.562577
1.45602
6.69428
17.6086
0.882538
37.0181
7.8086
11.7003
2.76444
6.01204
2.02929
1.96419e-06
0.269227
1.96419e-06
0.179952
0.189241
1.96419e-06
0.273869
0.264015
0.25004
0.579001
1.40473
8.9883
16.6114
1.233
74.5492
17.1314
22.5436
1.50379
6.25997
2.09929
1.96419e-06
0.385823
1.96419e-06
0.249193
0.226206
1.96419e-06
0.186494
0.198953
0.249403
0.535878
1.2617
9.3993
22.3835
1.51117
157.372
21.1621
20.9107
1.44577
9.11666
2.51506
1.96419e-06
0.455349
1.96419e-06
0.409395
0.344268
1.96419e-06
0.222476
0.242221
0.263245
0.372655
1.21467
8.60111
44.5681
1.32355
208.328
18.717
2.45684
1.05837
17.7098
2.92773
1.96419e-06
0.510136
1.96419e-06
0.512694
0.402863
1.96419e-06
0.32884
0.365233
0.327656
0.392421
1.27179
5.51709
48.9407
0.276093
52.5186
1.1934
0.0118483
0.419722
28.3966
3.31148
1.96419e-06
0.470874
1.96419e-06
0.448501
0.459452
1.96419e-06
0.456364
0.525378
0.415813
0.507376
1.3353
2.74643
22.5711
0.119084
8.69306
0.0569637
0.00451157
0.128971
23.0494
5.24336
1.96419e-06
1.96419e-06
1.96419e-06
1.96419e-06
1.96419e-06
1.96419e-06
1.96419e-06
1.96419e-06
1.96419e-06
1.96419e-06
1.84469
0.711266
3.9156
0.0283936
0.0393467
0.0125469
0.00301241
0.0035541
1.84486
6.01856
2.49469e-05
2.49469e-05
2.49469e-05
2.49469e-05
2.49469e-05
2.49469e-05
2.49469e-05
2.49469e-05
2.49469e-05
2.49469e-05
1.84978
0.118798
0.501821
0.00260125
0.00144177
16.5128
8.02831
9.98136
4.78152
2.17457
1.00955
0.173274
1.34539
0.169237
2.22454
0.219629
6.48618
2.64445
0.629773
3.64606
6.61885
14.61
31.7174
49.0104
53.1722
5.49314
3.12955
3.88694
1.03998
0.278081
0.0107556
0.00067411
0.000991165
0.000308509
0.0042309
0.0946038
3.72123
2.43304
1.34729
24.7771
3.5856
4.29006
6.3324
15.219
31.572
5.62555
8.39819
5.21306
2.50932
0.178817
0.0333693
0.000498979
0.00021436
0.000268163
0.000253413
0.00104619
0.00663202
0.0136888
0.00218568
0.00714054
0.278423
4.43205
6.70929
46.9618
59.3914
6.95704
9.74071
6.5419
2.28463
0.164203
0.00112035
0.000165273
0.000151029
0.000164735
0.000175803
0.000164431
0.000168242
0.000172316
0.000168816
0.000660768
0.17973
4.86679
7.18282
102.939
62.5515
6.51747
5.6319
12.6102
3.1303
0.165233
0.000566865
0.000184011
0.000164553
0.00017613
0.000187174
0.000197225
0.00023828
0.000208461
0.000200493
0.000662503
0.219204
4.51753
8.39673
141.224
32.8986
5.84484
2.37518
18.9033
4.82526
0.254274
0.000785072
0.000173956
0.000160896
0.000177248
0.000187871
0.000194663
0.000207924
0.000202033
0.00019343
0.000686861
0.223934
4.9602
12.4853
290.245
42.3861
5.68851
2.21964
9.47367
5.4246
0.470432
0.00260315
0.000192063
0.000174138
0.000212859
0.000243078
0.000274721
0.000328776
0.000309386
0.000277029
0.00114687
0.252242
4.97483
13.1186
336.853
39.0057
6.99339
3.60491
3.01577
5.02059
0.612383
0.00566541
0.00090996
0.000745678
0.0012082
0.00163667
0.00206173
0.00283798
0.00269287
0.00229268
0.00736829
0.355197
4.83867
12.2568
334.935
23.1219
18.5952
9.33828
3.42893
4.9636
0.784604
0.0185964
0.0106737
0.0106987
0.0128354
0.0147029
0.0174919
0.0215904
0.0205695
0.0180126
0.030302
0.581633
4.63141
14.9267
94.4435
12.0749
26.8711
20.0773
6.60558
5.04418
2.17396
1.96419e-06
1.96419e-06
1.96419e-06
1.96419e-06
1.96419e-06
1.96419e-06
1.96419e-06
1.96419e-06
1.96419e-06
1.96419e-06
1.68399
5.30447
30.4217
2.62517
10.5859
22.2175
21.6003
16.2224
5.13729
2.29847
1.96419e-06
1.96419e-06
1.96419e-06
1.96419e-06
1.96419e-06
1.96419e-06
1.96419e-06
1.96419e-06
1.96419e-06
1.96419e-06
1.61938
5.81637
34.2151
0.586814
12.2868
5.41989
9.38379
26.1439
5.79585
2.56587
1.96419e-06
1.96419e-06
1.96419e-06
1.96419e-06
1.96419e-06
1.96419e-06
1.96419e-06
1.96419e-06
1.96419e-06
1.96419e-06
1.60692
5.8858
20.6759
0.561304
19.0746
3.97323
5.0922
19.5115
5.99101
2.58258
1.96419e-06
1.96419e-06
1.96419e-06
1.96419e-06
1.96419e-06
1.96419e-06
1.96419e-06
1.96419e-06
1.96419e-06
1.96419e-06
1.70171
6.4523
15.2064
0.66262
31.4522
5.61635
6.74343
1.76568
5.80136
2.48963
1.96419e-06
1.96419e-06
1.96419e-06
1.96419e-06
1.96419e-06
1.96419e-06
1.96419e-06
1.96419e-06
1.96419e-06
1.96419e-06
1.76987
8.10451
13.7986
0.86173
58.8772
10.3587
10.6625
1.3096
6.11764
2.47099
1.96419e-06
1.96419e-06
1.96419e-06
1.96419e-06
1.96419e-06
1.96419e-06
1.96419e-06
1.96419e-06
1.96419e-06
1.96419e-06
1.82978
8.45778
16.147
0.956393
99.9586
10.9226
8.44816
1.24986
8.52561
2.71581
1.96419e-06
1.96419e-06
1.96419e-06
1.96419e-06
1.96419e-06
1.96419e-06
1.96419e-06
1.96419e-06
1.96419e-06
1.96419e-06
1.98107
7.62934
26.0706
0.59219
109.112
5.70124
0.336305
0.92385
14.9995
3.01624
1.96419e-06
1.96419e-06
1.96419e-06
1.96419e-06
1.96419e-06
1.96419e-06
1.96419e-06
1.96419e-06
1.96419e-06
1.96419e-06
2.03908
4.92187
27.875
0.176551
13.9988
0.160418
0.00221562
0.336505
20.9308
3.3904
1.96419e-06
1.96419e-06
1.96419e-06
1.96419e-06
1.96419e-06
1.96419e-06
1.96419e-06
1.96419e-06
1.96419e-06
1.96419e-06
2.05781
2.49908
12.5466
0.109062
0.588479
0.0303661
0.00108764
0.0944807
17.6277
4.92955
1.96419e-06
1.96419e-06
1.96419e-06
1.96419e-06
1.96419e-06
1.96419e-06
1.96419e-06
1.96419e-06
1.96419e-06
1.96419e-06
2.07525
0.718448
2.55338
0.0269457
0.00363911
0.00980266
0.000660313
0.0021378
1.17482
5.40577
2.49469e-05
2.49469e-05
2.49469e-05
2.49469e-05
2.49469e-05
2.49469e-05
2.49469e-05
2.49469e-05
2.49469e-05
2.49469e-05
1.98748
0.145433
0.348684
0.0024583
0.000483995
16.1431
7.94767
9.65083
4.94566
2.22223
0.996815
0.169045
4.08054
0.182853
2.38143
0.163891
5.05547
1.96796
0.646962
3.78761
6.56887
14.639
31.6243
47.9725
51.0136
5.21825
2.43632
3.07167
1.41027
0.297021
0.0106327
0.000617821
0.000983146
0.000274631
0.00403546
0.103418
3.73873
2.78153
1.48925
28.1824
3.61608
3.93274
6.63288
11.9379
23.3578
5.47351
5.98847
3.68748
2.50766
0.181036
0.0310769
0.000475285
0.000212891
0.000264479
0.000249899
0.000987687
0.00564125
0.0126811
0.0020827
0.00717719
0.274694
3.94446
6.97485
29.0752
37.9869
7.06455
7.17688
4.0391
2.29484
0.162346
0.000887094
0.00016439
0.000150891
0.000164122
0.000174836
0.000163666
0.000166394
0.000170228
0.000167427
0.000505121
0.161788
4.06102
6.96297
63.9581
40.557
6.95277
4.65213
6.07686
3.04438
0.163546
0.000507091
0.000182774
0.000164059
0.000175171
0.00018579
0.000195541
0.000235194
0.000206402
0.000198527
0.000559292
0.196091
3.89901
6.98935
91.5676
32.7176
6.49404
2.06819
8.13766
4.53599
0.25305
0.000691786
0.000172823
0.000160465
0.000175914
0.000185759
0.000191853
0.00020382
0.000198501
0.000190493
0.000585084
0.198539
4.3364
9.36231
175.533
45.768
6.33133
1.90999
4.65016
5.10039
0.461529
0.00227075
0.000185375
0.00017016
0.000203277
0.000227681
0.000254188
0.000297207
0.00028023
0.000254079
0.000940899
0.224518
4.57399
9.84335
207.793
43.6419
6.72758
2.82854
2.37375
4.95888
0.568278
0.00472234
0.000829563
0.000680623
0.00109744
0.00149131
0.00189499
0.00261184
0.0024827
0.00211668
0.00639072
0.319338
4.61349
9.21197
196.197
29.0534
15.0208
6.59568
2.71015
4.9872
0.727217
0.0165014
0.00970317
0.00965415
0.011648
0.0135055
0.0163428
0.0203469
0.0194493
0.0170718
0.0284964
0.566995
4.62698
10.0085
36.8238
14.8697
19.5187
13.2332
4.40511
5.06283
2.45325
1.96419e-06
1.96419e-06
1.96419e-06
1.96419e-06
1.96419e-06
1.96419e-06
1.96419e-06
1.96419e-06
1.96419e-06
1.96419e-06
2.18583
5.244
18.9377
1.57518
11.8329
16.356
14.3708
9.15391
5.08868
2.58428
1.96419e-06
1.96419e-06
1.96419e-06
1.96419e-06
1.96419e-06
1.96419e-06
1.96419e-06
1.96419e-06
1.96419e-06
1.96419e-06
2.14181
5.71866
22.9712
0.920204
10.9164
4.12059
6.78818
12.547
5.57188
2.77844
1.96419e-06
1.96419e-06
1.96419e-06
1.96419e-06
1.96419e-06
1.96419e-06
1.96419e-06
1.96419e-06
1.96419e-06
1.96419e-06
2.12543
5.91471
17.5233
0.552974
15.3435
2.67899
3.37483
8.4402
5.73212
2.80142
1.96419e-06
1.96419e-06
1.96419e-06
1.96419e-06
1.96419e-06
1.96419e-06
1.96419e-06
1.96419e-06
1.96419e-06
1.96419e-06
2.16596
6.42642
13.1305
0.518756
25.0985
3.00793
3.51694
1.36549
5.64789
2.72589
1.96419e-06
1.96419e-06
1.96419e-06
1.96419e-06
1.96419e-06
1.96419e-06
1.96419e-06
1.96419e-06
1.96419e-06
1.96419e-06
2.21691
7.79776
11.6373
0.5817
41.9745
4.36005
4.50454
1.15553
5.9709
2.683
1.96419e-06
1.96419e-06
1.96419e-06
1.96419e-06
1.96419e-06
1.96419e-06
1.96419e-06
1.96419e-06
1.96419e-06
1.96419e-06
2.27877
8.0907
12.5033
0.593975
58.163
4.15049
2.60808
1.09022
8.03566
2.81569
1.96419e-06
1.96419e-06
1.96419e-06
1.96419e-06
1.96419e-06
1.96419e-06
1.96419e-06
1.96419e-06
1.96419e-06
1.96419e-06
2.37034
7.18907
16.8282
0.298164
46.4805
0.962878
0.0393498
0.809785
13.1496
3.03075
1.96419e-06
1.96419e-06
1.96419e-06
1.96419e-06
1.96419e-06
1.96419e-06
1.96419e-06
1.96419e-06
1.96419e-06
1.96419e-06
2.36293
4.61294
17.2804
0.158179
1.87474
0.0670286
0.00139388
0.281282
16.5738
3.36347
1.96419e-06
1.96419e-06
1.96419e-06
1.96419e-06
1.96419e-06
1.96419e-06
1.96419e-06
1.96419e-06
1.96419e-06
1.96419e-06
2.29103
2.40495
8.10294
0.0999972
0.0309419
0.0321999
0.000654831
0.073813
13.7112
4.5884
1.96419e-06
1.96419e-06
1.96419e-06
1.96419e-06
1.96419e-06
1.96419e-06
1.96419e-06
1.96419e-06