/*--------------------------------*- C++ -*----------------------------------*\
| =========                 |                                                 |
| \\      /  F ield         | OpenFOAM: The Open Source CFD Toolbox           |
|  \\    /   O peration     | Version:  2.3.0                                 |
|   \\  /    A nd           | Web:      www.OpenFOAM.org                      |
|    \\/     M anipulation  |                                                 |
\*---------------------------------------------------------------------------*/
FoamFile
{
    version     2.0;
    format      ascii;
    class       volScalarField;
    location    "0.10187";
    object      k.air;
}
// * * * * * * * * * * * * * * * * * * * * * * * * * * * * * * * * * * * * * //

dimensions      [0 2 -2 0 0 0 0];

internalField   nonuniform List<scalar> 
18816
(
0.000554219
0.000841895
0.000853539
0.000879426
0.000910328
0.000941795
0.000969225
0.00098855
0.000998361
0.000993635
0.000976604
0.000952439
0.000927359
0.000909859
0.000908487
0.000924808
0.000949592
0.000975001
0.00099466
0.00100056
0.000991329
0.000971561
0.000943709
0.000911354
0.000879976
0.000853541
0.000841276
0.000553916
0.000139787
0.000207351
0.000205772
0.000209551
0.000214107
0.000218256
0.000220889
0.000220823
0.000217674
0.000210318
0.00020103
0.000190892
0.000181287
0.000175168
0.000174094
0.0001795
0.000188625
0.000198811
0.000210091
0.000218496
0.00022233
0.000222509
0.000219733
0.00021528
0.000210389
0.00020628
0.000207596
0.000139896
0.000390032
0.000591491
0.000598539
0.000610568
0.000622896
0.000632546
0.000636309
0.000627934
0.000606808
0.000563609
0.000507713
0.000447389
0.000387383
0.000347422
0.000340195
0.000376562
0.000432991
0.000495958
0.000564754
0.000612816
0.000636975
0.000645532
0.000640862
0.0006297
0.000615746
0.00060235
0.000594411
0.000391363
0.000535715
0.000858867
0.000863536
0.000868517
0.000871766
0.000869952
0.000859048
0.000827552
0.000780591
0.000699134
0.000611058
0.000526672
0.000445127
0.000398985
0.000387884
0.000430848
0.000499657
0.000580176
0.000694571
0.000784607
0.000837341
0.000869936
0.000880126
0.000880684
0.000876052
0.000869843
0.000864321
0.0005384
0.000540328
0.000869809
0.000876925
0.000883798
0.00088973
0.000890139
0.000883772
0.000853464
0.000813621
0.000716116
0.000598866
0.000493474
0.000379548
0.000303141
0.000281556
0.00036455
0.000452665
0.000566319
0.000737275
0.000837851
0.000877107
0.00090434
0.000906707
0.000903001
0.000894367
0.000885573
0.000877197
0.000543949
0.000590798
0.000968985
0.000978917
0.000988264
0.000997544
0.00099981
0.000996779
0.000959702
0.000919097
0.000782262
0.000625033
0.000515001
0.000390712
0.000296335
0.000303205
0.000385867
0.000438758
0.000606252
0.000833418
0.000958181
0.000989515
0.00102142
0.00101918
0.00101329
0.00100087
0.000989344
0.000978026
0.000595234
0.000628551
0.00104676
0.00106147
0.00107862
0.00110228
0.00112656
0.00116321
0.00117001
0.00121938
0.00105386
0.000766879
0.00060451
0.000431291
0.000293577
0.000290007
0.000392343
0.000449423
0.000733032
0.00122544
0.00134971
0.00124327
0.00121418
0.00115892
0.00112503
0.00109503
0.00107419
0.00105732
0.000633646
0.000672594
0.00113774
0.0011593
0.00118673
0.00122625
0.00126777
0.00132541
0.00133542
0.00143692
0.00125359
0.000969569
0.000840256
0.000826225
0.000606651
0.000771131
0.000749411
0.000642875
0.00121755
0.00156395
0.00161163
0.00139891
0.00136638
0.00129254
0.00124568
0.0012018
0.00117173
0.00114849
0.000677793
0.000714437
0.00122553
0.00125468
0.0012956
0.00136201
0.00145367
0.00164088
0.0019199
0.0025745
0.00230157
0.00133272
0.00107356
0.000857565
0.000713511
0.000772373
0.00107417
0.00108391
0.00301786
0.00357015
0.00319391
0.00204273
0.00172096
0.00149149
0.00138619
0.00131169
0.00126688
0.00123568
0.000719307
0.000753846
0.00130937
0.00134762
0.00140563
0.00150751
0.0016595
0.00199237
0.00240563
0.00326768
0.00302796
0.00305837
0.00231086
0.00298641
0.00205103
0.00303987
0.00239588
0.0031735
0.00574892
0.00311242
0.0031588
0.00232555
0.00197186
0.001663
0.00151575
0.0014143
0.00135586
0.00131701
0.000757605
0.000786416
0.00137725
0.00141596
0.00147208
0.00156289
0.00168882
0.00191948
0.00218736
0.00246254
0.00214065
0.00332806
0.00186414
0.00335799
0.00172337
0.00340808
0.00167009
0.00211483
0.00401128
0.00199658
0.0022012
0.00209436
0.00188194
0.00167415
0.00155906
0.00147293
0.00141916
0.00138132
0.000788617
0.000811099
0.00142723
0.00146085
0.00150593
0.00156869
0.00165132
0.00173555
0.00188111
0.00161396
0.00172622
0.00357988
0.00171051
0.00363042
0.00172355
0.00363579
0.00165478
0.00184268
0.00358017
0.00159599
0.00161682
0.0018793
0.0017293
0.00164697
0.00156662
0.00150557
0.0014618
0.00142889
0.000812047
0.00082948
0.00146475
0.00149432
0.00153216
0.00158064
0.00164476
0.00169369
0.00178627
0.00163951
0.00325084
0.00373505
0.00332847
0.00374694
0.00333553
0.00374566
0.00332565
0.00332123
0.00379207
0.00327568
0.00157932
0.00177337
0.00167574
0.00163543
0.00157411
0.00152852
0.00149239
0.00146383
0.000829173
0.000841862
0.00148966
0.00151486
0.00154463
0.0015797
0.00162363
0.00164373
0.00169181
0.00154229
0.00148379
0.00360941
0.0016455
0.00365045
0.00166768
0.00363702
0.00160768
0.00155546
0.00359163
0.00144449
0.00153454
0.00167772
0.00163124
0.00161429
0.00157241
0.00153953
0.00151109
0.00148682
0.000840547
0.000849483
0.00150535
0.0015279
0.00155307
0.00158186
0.00161639
0.00163377
0.00167146
0.00159765
0.00319639
0.0037966
0.00331027
0.00380325
0.00331474
0.00378606
0.00329194
0.00327789
0.00378958
0.00319639
0.00157932
0.00166117
0.00162026
0.00160689
0.00157348
0.00154668
0.00152265
0.00150094
0.000847354
0.000853038
0.00151304
0.00153444
0.00155762
0.00158454
0.00161423
0.0016333
0.00164074
0.00158214
0.00109467
0.00365413
0.00137705
0.00369054
0.00141161
0.0035452
0.00135724
0.00119542
0.00350458
0.00105701
0.00157562
0.00163094
0.00161967
0.00160471
0.00157538
0.00155033
0.00152804
0.0015074
0.000850351
0.000853742
0.00151264
0.00153407
0.00155751
0.00158546
0.0016161
0.00164286
0.00164793
0.00163437
0.00130361
0.00366738
0.00148592
0.00378636
0.00154925
0.00320408
0.00143864
0.00153491
0.00314509
0.00110266
0.00160442
0.00163112
0.00162806
0.00160589
0.00157587
0.00154965
0.00152699
0.00150621
0.000850521
0.000850533
0.00150549
0.00152882
0.00155588
0.00159095
0.00163466
0.00168286
0.00172448
0.00179664
0.00317822
0.00387388
0.00329971
0.00393094
0.00320072
0.00176093
0.00317196
0.00316188
0.0017185
0.00297389
0.001761
0.00170527
0.0016677
0.00162368
0.00158107
0.00154749
0.00152116
0.00149838
0.000846995
0.000841296
0.00148831
0.00151425
0.00154626
0.00158984
0.00164826
0.00171581
0.00175572
0.00185593
0.00148921
0.00397056
0.00171057
0.00398043
0.00174991
0.00402817
0.00174855
0.00151383
0.00405523
0.00173539
0.0018315
0.00174436
0.00170288
0.00163794
0.0015803
0.00153778
0.00150635
0.00148089
0.000837597
0.000828709
0.00146143
0.00148861
0.00152438
0.00157624
0.00165572
0.00175777
0.00190763
0.00223962
0.00257853
0.00541946
0.0028664
0.00519686
0.00271514
0.00495137
0.00255848
0.0026632
0.00518338
0.00264567
0.0022447
0.00189632
0.00174726
0.00164558
0.0015672
0.00151597
0.00148074
0.00145395
0.000825003
0.0008118
0.00142509
0.00145306
0.00149391
0.00155813
0.00168503
0.00187124
0.00240899
0.00320315
0.00759288
0.00943804
0.00917794
0.00928115
0.00912447
0.00920084
0.00910563
0.00915181
0.00938217
0.00759551
0.00320735
0.00239604
0.00186301
0.00167488
0.00154974
0.00148565
0.00144533
0.00141761
0.000808084
0.000789753
0.00137532
0.0013965
0.00142452
0.0014747
0.00157556
0.00175367
0.00219421
0.00343203
0.0037427
0.00299965
0.00348136
0.00340594
0.00376441
0.00349936
0.00374284
0.00349719
0.00306003
0.00374576
0.00341979
0.00218145
0.00174627
0.00156593
0.0014669
0.0014166
0.00138901
0.00136799
0.000786083
0.000765208
0.00131955
0.00132994
0.00133672
0.00134994
0.00135712
0.00139438
0.00129664
0.00135968
0.0016211
0.00147079
0.00148882
0.00145189
0.00143265
0.00144277
0.0014532
0.00148621
0.00147213
0.00161645
0.00134841
0.0012874
0.00138704
0.00134904
0.00134265
0.00132931
0.00132271
0.00131242
0.000761616
0.000741
0.00126541
0.0012672
0.00126065
0.00125751
0.00124287
0.0012715
0.0012404
0.00147418
0.0013116
0.000894805
0.000676069
0.000518385
0.000457996
0.000444357
0.000531231
0.000672097
0.000893576
0.00130788
0.00146787
0.00123344
0.00126517
0.00123572
0.00125066
0.00125362
0.00126025
0.00125851
0.000737494
0.000718811
0.00121588
0.00120865
0.00118774
0.0011602
0.00110961
0.001064
0.000931448
0.000836555
0.000608534
0.000526802
0.000535911
0.000518032
0.000505831
0.000506784
0.000517512
0.000534367
0.000525524
0.000604925
0.000830914
0.000925548
0.0010581
0.00110314
0.00115372
0.00118109
0.00120195
0.00120915
0.000715373
0.000700549
0.00117581
0.00116254
0.00113364
0.00109475
0.00103636
0.00097664
0.000872962
0.000812112
0.000673357
0.00056147
0.000463548
0.000380784
0.000333901
0.000331632
0.000381512
0.000461623
0.000559681
0.000670627
0.000808116
0.0008681
0.000971359
0.00103049
0.00108864
0.00112728
0.00115603
0.00116923
0.000697172
0.000687309
0.00114697
0.00112939
0.00109474
0.00104689
0.000979337
0.0009004
0.000786135
0.0006783
0.000521127
0.000406154
0.00032354
0.000283646
0.000271053
0.000271121
0.000283215
0.000322151
0.000404092
0.000518307
0.000674671
0.000781758
0.00089546
0.000973865
0.00104105
0.00108859
0.00112305
0.00114053
0.000683988
0.000679697
0.00113073
0.00111066
0.00107338
0.00102191
0.000951972
0.000869137
0.000760815
0.000655432
0.000527299
0.000434824
0.000359927
0.000313586
0.000290181
0.000289709
0.00031327
0.000358828
0.000433164
0.000524899
0.000652161
0.000756764
0.000864457
0.000946703
0.00101621
0.00106735
0.00110439
0.00112433
0.000676389
0.000254435
0.000223873
0.000226636
0.000231882
0.000237477
0.000242776
0.000246701
0.000248795
0.000248776
0.000245588
0.000240022
0.000233278
0.000226718
0.0002222
0.000221933
0.000226247
0.000232753
0.000239664
0.000245561
0.000248933
0.000249072
0.000246942
0.000242968
0.00023758
0.000231946
0.000226655
0.000223828
0.000254431
8.24313e-05
8.51733e-05
8.52109e-05
8.55986e-05
8.59872e-05
8.62737e-05
8.63556e-05
8.60672e-05
8.52848e-05
8.40016e-05
8.24036e-05
8.07314e-05
7.92855e-05
7.84163e-05
7.83367e-05
7.91521e-05
8.05691e-05
8.22708e-05
8.40545e-05
8.54379e-05
8.62579e-05
8.65516e-05
8.64505e-05
8.61332e-05
8.56967e-05
8.52629e-05
8.52051e-05
8.24488e-05
0.000224055
0.000267137
0.000270207
0.000272766
0.000275523
0.000277944
0.000279454
0.00027866
0.000275132
0.000267692
0.000257389
0.000246177
0.000235458
0.000228534
0.000227806
0.000234402
0.000244848
0.000256759
0.000268578
0.000276491
0.000280209
0.000280876
0.000279131
0.000276428
0.000273407
0.000270625
0.000267463
0.000224194
0.000299134
0.000391347
0.000392895
0.000393774
0.000394032
0.000392495
0.00038806
0.000378525
0.000364497
0.000342525
0.000319636
0.000298749
0.000280802
0.000271198
0.000269721
0.000279135
0.000295288
0.000315157
0.000342238
0.000365478
0.000380506
0.000390233
0.000394511
0.000395751
0.000395193
0.000394066
0.000392351
0.00029965
0.000300388
0.000398734
0.000400538
0.000401536
0.000401908
0.000400295
0.000395768
0.000384541
0.000369152
0.000340747
0.000310768
0.000284963
0.000261293
0.000246635
0.000243755
0.00025957
0.000279633
0.000305786
0.000343841
0.000372843
0.000388526
0.000399399
0.000403317
0.000404366
0.000403531
0.000402182
0.000400131
0.000301069
0.000310909
0.000426699
0.000429355
0.000431205
0.000432638
0.000431897
0.000428548
0.00041585
0.00039984
0.000359279
0.00031745
0.000286816
0.000258463
0.000239835
0.000240465
0.000257674
0.000275844
0.00031232
0.000367243
0.000406503
0.000421725
0.000433624
0.000436008
0.00043592
0.000433828
0.000431468
0.000428538
0.000311735
0.00031848
0.000452502
0.000456539
0.000460535
0.000465472
0.000469608
0.000474239
0.000469019
0.000470065
0.000415054
0.000344794
0.000302301
0.000266203
0.000239215
0.000240413
0.000259879
0.000278071
0.000341093
0.000445469
0.000494031
0.000483274
0.000483887
0.000476009
0.000469988
0.00046387
0.000459156
0.000454659
0.000319394
0.000327085
0.000481921
0.000488265
0.000495784
0.000506378
0.000518134
0.000532697
0.000532752
0.000553024
0.000477662
0.000398902
0.000357678
0.000361118
0.000296401
0.000344597
0.000325509
0.000318739
0.000547595
0.000554366
0.000585527
0.000546338
0.000541614
0.00052416
0.000511003
0.00049926
0.000491059
0.000484305
0.000328002
0.000335108
0.000512243
0.000521299
0.000533354
0.000552189
0.000577608
0.000626272
0.000700453
0.000848708
0.000806473
0.000710978
0.0005305
0.000718955
0.000438753
0.00070119
0.000469432
0.000506078
0.00261336
0.00175266
0.00111121
0.000745704
0.000647232
0.000586603
0.000557795
0.000537052
0.000524072
0.000514544
0.000335959
0.000342466
0.000542351
0.000554713
0.000572828
0.000604137
0.000652838
0.000762132
0.000939092
0.00143778
0.00210288
0.0029036
0.0017126
0.00310352
0.00154948
0.00311198
0.0016315
0.00181785
0.00568084
0.0026132
0.00146384
0.000913892
0.00075877
0.000655423
0.000607211
0.000575388
0.000556914
0.000544255
0.000343101
0.000348463
0.000569271
0.000583276
0.00060341
0.000637141
0.000685565
0.000783029
0.000917354
0.00132414
0.00187626
0.00328407
0.00175783
0.0033734
0.00169884
0.00341829
0.00163925
0.00173786
0.0035436
0.00186929
0.00123153
0.000891143
0.000774061
0.000682612
0.000636748
0.000603979
0.00058427
0.000570373
0.000348819
0.000352914
0.00059083
0.000604343
0.000622324
0.000649404
0.000684646
0.000739065
0.000829739
0.000924336
0.00151922
0.00344244
0.00152611
0.00352004
0.00151773
0.00353499
0.00143155
0.00144462
0.00341735
0.00147011
0.000900016
0.000825129
0.000737213
0.000683694
0.000649062
0.000622345
0.000604672
0.000591296
0.000353058
0.000356163
0.000607894
0.000620664
0.000636932
0.000659897
0.000688884
0.000724321
0.000783165
0.000959628
0.00321767
0.00364017
0.00333141
0.00367678
0.00335322
0.00368297
0.00333022
0.0033007
0.00364801
0.00322449
0.000926388
0.000780427
0.000719621
0.000686567
0.000658316
0.000636014
0.000620201
0.000607648
0.000356101
0.000358305
0.000620096
0.000631837
0.000645854
0.000664586
0.000687001
0.000709881
0.000744712
0.000793025
0.00139065
0.00349171
0.00156583
0.00354187
0.00158558
0.00354343
0.00149482
0.00142627
0.00348137
0.00137317
0.000780219
0.000739503
0.000705748
0.000684246
0.000662499
0.000644381
0.000630751
0.000619256
0.000358068
0.0003596
0.000628103
0.000639058
0.000651599
0.000667815
0.00068673
0.000705279
0.000732257
0.000855924
0.00318368
0.00366908
0.00330225
0.00368819
0.00331442
0.00369083
0.00328918
0.00326855
0.00367282
0.00318582
0.000836989
0.000728198
0.000700984
0.000683773
0.000665337
0.000649663
0.000637474
0.000626746
0.000359235
0.00036018
0.000632105
0.000642598
0.000654364
0.000669429
0.000686654
0.000703162
0.000714533
0.000741145
0.00100387
0.00349323
0.00123623
0.00351695
0.00126582
0.00343297
0.00116067
0.00106765
0.00341086
0.000971125
0.000731002
0.000711099
0.000698804
0.000683562
0.000666589
0.000652055
0.000640581
0.000630298
0.000359727
0.000360214
0.000632064
0.000642571
0.000654319
0.000669535
0.000687072
0.000705807
0.000722541
0.000759234
0.00114553
0.00348186
0.00132837
0.00355827
0.00133829
0.0029687
0.00119881
0.00119275
0.0029409
0.00103178
0.000738454
0.000717497
0.000701008
0.000683781
0.000666519
0.000651807
0.000640311
0.000629985
0.000359671
0.000359298
0.000628889
0.000639798
0.000652287
0.000669156
0.000690268
0.000715544
0.000742593
0.00090676
0.00317361
0.00370019
0.00327783
0.00371694
0.00316494
0.00152585
0.00311041
0.00310883
0.00148336
0.00296058
0.000903963
0.000736507
0.000710536
0.000686715
0.00066591
0.000649519
0.000637264
0.000626513
0.000358683
0.000357437
0.000620826
0.00063238
0.000646022
0.000665334
0.000690322
0.000721399
0.000743982
0.000833476
0.00120619
0.00367066
0.00139773
0.00367637
0.00140725
0.0037174
0.00130719
0.00118925
0.00373024
0.00128853
0.000835546
0.000742558
0.000717098
0.000686915
0.000662044
0.000643144
0.000629664
0.000618282
0.000356816
0.000355077
0.00060875
0.000620476
0.000634979
0.000656729
0.000688887
0.000734682
0.000797271
0.00100914
0.0022304
0.00514352
0.00274529
0.00497053
0.00259988
0.00481433
0.00245764
0.00253789
0.0049901
0.00225104
0.00101582
0.000795018
0.000730947
0.000685458
0.000653469
0.000632082
0.000617724
0.000606168
0.000354446
0.000351936
0.000592681
0.00060382
0.000618315
0.000641836
0.000683135
0.000750377
0.000898136
0.00147454
0.00775473
0.00958564
0.009374
0.00948056
0.00923683
0.00938121
0.00923553
0.00934808
0.00954741
0.00774719
0.00148302
0.000893138
0.000746907
0.000679569
0.00063867
0.000615389
0.000601069
0.000590056
0.000351305
0.000347974
0.00057245
0.000580864
0.000590694
0.000607269
0.000641019
0.000701432
0.000828709
0.00124191
0.00225524
0.00225516
0.00258467
0.00255867
0.00277399
0.00261539
0.00275635
0.00260029
0.00229718
0.0022596
0.00123875
0.000823511
0.000698302
0.0006375
0.000604287
0.000587865
0.00057818
0.000569871
0.000347341
0.000343624
0.000550573
0.000554846
0.000557214
0.000560685
0.000564541
0.000575439
0.000559081
0.000581657
0.000521064
0.000465227
0.000465965
0.000443709
0.000437465
0.000435104
0.000448401
0.000465762
0.000466374
0.000520149
0.000577693
0.000555584
0.000572606
0.000561663
0.000558016
0.000554583
0.000552257
0.000548057
0.000342995
0.000339362
0.000529726
0.000530609
0.000527947
0.000524376
0.000519234
0.000518288
0.000503325
0.000532607
0.000490287
0.000379922
0.000319112
0.00027926
0.000262611
0.000260793
0.000280667
0.000317899
0.000378897
0.000488844
0.000530274
0.000500795
0.000515876
0.00051672
0.000521899
0.000525459
0.000528157
0.000527324
0.000338741
0.000335454
0.000511271
0.000509042
0.000501622
0.000491017
0.000475269
0.000456758
0.000421324
0.000392236
0.000325299
0.00028589
0.000271829
0.000261167
0.000255763
0.000255831
0.000260983
0.000271373
0.000285286
0.000324179
0.000390534
0.00041937
0.000454689
0.000473031
0.000488735
0.000499312
0.000506705
0.00050894
0.000334829
0.000332231
0.000496522
0.000492098
0.000481842
0.000467544
0.000448296
0.000425439
0.000393987
0.000366731
0.000325178
0.000292609
0.000269124
0.00025198
0.0002427
0.000242386
0.000251908
0.000268641
0.000291972
0.00032425
0.000365416
0.000392378
0.000423645
0.000446303
0.000465442
0.000479662
0.000489862
0.000494268
0.000331606
0.000329926
0.000485962
0.000480027
0.00046793
0.000451267
0.000429401
0.00040321
0.000370634
0.000338504
0.000300537
0.000272318
0.00025212
0.000240461
0.000235657
0.000235618
0.000240295
0.000251736
0.000271729
0.00029972
0.000337386
0.00036924
0.00040158
0.000427588
0.000449304
0.000465854
0.000477875
0.000483785
0.000329308
0.000328724
0.000480094
0.000473191
0.000460177
0.000442426
0.000419641
0.000392739
0.000361335
0.000330376
0.000298296
0.000274593
0.000257021
0.000246191
0.000240859
0.000240768
0.000246055
0.000256707
0.000274092
0.000297569
0.000329369
0.000360057
0.000391223
0.00041791
0.000440532
0.000458157
0.000471082
0.000477942
0.000328099
0.000247453
0.00017936
0.000177864
0.000177661
0.000177398
0.000177049
0.000176487
0.000175865
0.000175153
0.000174283
0.000173479
0.000172813
0.000172356
0.000172107
0.0001721
0.000172352
0.000172786
0.00017341
0.000174224
0.000175105
0.000175837
0.000176467
0.000177033
0.000177394
0.000177667
0.000177875
0.000179369
0.000247485
8.86329e-05
7.30187e-05
7.21185e-05
7.16677e-05
7.1135e-05
7.04983e-05
6.97355e-05
6.89295e-05
6.81111e-05
6.73343e-05
6.67707e-05
6.64034e-05
6.62249e-05
6.61747e-05
6.61742e-05
6.6225e-05
6.63856e-05
6.67052e-05
6.72778e-05
6.80662e-05
6.89018e-05
6.97285e-05
7.05079e-05
7.116e-05
7.16946e-05
7.2144e-05
7.30447e-05
8.86687e-05
0.00017741
0.000168015
0.000169614
0.000170733
0.00017218
0.000174071
0.000176508
0.000179155
0.000181729
0.000184295
0.000185684
0.000186309
0.000186362
0.000186042
0.000186141
0.000186434
0.000186566
0.000186558
0.000185027
0.00018227
0.00017946
0.000176649
0.000174101
0.000172132
0.00017064
0.000169488
0.000167896
0.000177324
0.000246031
0.000257803
0.0002578
0.00025773
0.000257447
0.000256725
0.000255378
0.000253125
0.000249988
0.000245675
0.000241298
0.000237497
0.000234601
0.000233068
0.000232977
0.000234426
0.000237152
0.000240892
0.000245654
0.000250034
0.000253265
0.000255557
0.000256905
0.000257611
0.000257867
0.000257921
0.000257914
0.000246177
0.000245927
0.000259495
0.00025951
0.000259453
0.000259169
0.000258387
0.000256867
0.000254104
0.000250437
0.000244973
0.000239386
0.000234731
0.000231191
0.000229364
0.000229341
0.000230929
0.000234201
0.000239162
0.000245286
0.000250646
0.000254359
0.000257143
0.000258637
0.000259392
0.000259642
0.000259681
0.000259648
0.000246106
0.000248177
0.000265296
0.000265455
0.000265559
0.000265498
0.000264915
0.000263636
0.000260775
0.000256888
0.000248807
0.00024014
0.000233756
0.000228867
0.000226074
0.000225975
0.000228173
0.000232146
0.000239799
0.000250063
0.000257732
0.000261442
0.000264215
0.000265386
0.000265863
0.000265852
0.000265692
0.000265518
0.000248386
0.00024965
0.000271004
0.000271413
0.000271948
0.000272457
0.000272587
0.00027233
0.000269965
0.00026834
0.000258408
0.000246145
0.000237885
0.000233387
0.000227111
0.000229071
0.00023052
0.00023456
0.000261626
0.00026633
0.000271543
0.000271318
0.000273137
0.000273168
0.000272912
0.000272313
0.000271717
0.000271256
0.000249874
0.000251119
0.000277457
0.000278345
0.000279647
0.000281419
0.000283357
0.000285973
0.00028709
0.000294334
0.000287967
0.000280021
0.000262073
0.000289726
0.000248921
0.000286725
0.000248538
0.000250724
0.000551208
0.000383199
0.000309103
0.000289274
0.000287113
0.000284245
0.000282054
0.000280101
0.000278708
0.000277777
0.000251331
0.00025227
0.000284386
0.000285876
0.000288219
0.00029178
0.000296725
0.000306577
0.000329785
0.00040757
0.000639305
0.000783196
0.000531022
0.000894452
0.000484454
0.00088972
0.000456999
0.000534407
0.00319243
0.00178872
0.000628059
0.000359076
0.000311186
0.000298046
0.00029252
0.000288709
0.000286245
0.000284703
0.000252461
0.000253133
0.000291491
0.000293736
0.00029751
0.000304042
0.000315312
0.000344194
0.000432711
0.000834412
0.00205342
0.00321795
0.00178934
0.0034436
0.00167808
0.00343605
0.00171441
0.00188414
0.00644627
0.00274582
0.000862361
0.000420934
0.000341877
0.000315705
0.000304635
0.000297966
0.000294112
0.000291802
0.000253268
0.000253639
0.000298304
0.000301172
0.000305892
0.000314057
0.00032691
0.000355821
0.000421594
0.000784901
0.00191898
0.00366993
0.00184585
0.00372311
0.00180811
0.00375674
0.00175725
0.00181972
0.00395433
0.00195975
0.00075864
0.00041476
0.000354138
0.000326667
0.000314179
0.000306111
0.00030141
0.000298534
0.000253714
0.000253851
0.000304163
0.000307216
0.000311921
0.000319404
0.000329553
0.000348096
0.000386655
0.000555531
0.00147976
0.00381382
0.00148719
0.00386002
0.00146947
0.00386665
0.00137411
0.00136964
0.00379681
0.0014479
0.000535157
0.000386039
0.000348117
0.000329707
0.000319544
0.000312066
0.00030738
0.000304327
0.000253885
0.000253891
0.000309049
0.000312127
0.000316714
0.000323597
0.000332448
0.00034555
0.000372237
0.00067026
0.00355274
0.00397168
0.00364101
0.0039861
0.00365063
0.00398732
0.00363362
0.00362214
0.00399034
0.00356061
0.000645058
0.000371908
0.000345149
0.000332308
0.000323541
0.000316711
0.000312181
0.000309114
0.000253891
0.000253831
0.000312739
0.000315727
0.00031999
0.000326102
0.000333521
0.000343347
0.000359026
0.000486536
0.00139168
0.0038406
0.00156113
0.00387195
0.00157228
0.00386769
0.00146883
0.00140695
0.00383074
0.00137839
0.000474786
0.000357668
0.000342766
0.000333218
0.000325921
0.000319886
0.000315673
0.00031271
0.000253804
0.000253779
0.000315257
0.000318131
0.000322135
0.00032768
0.000334294
0.000342448
0.000355221
0.00057211
0.00350682
0.00399786
0.00360711
0.00400632
0.00361396
0.0040021
0.00359216
0.00357838
0.00399752
0.00350587
0.00055386
0.000353979
0.000341844
0.000333924
0.000327413
0.000321937
0.000317983
0.000315133
0.00025374
0.000253768
0.000316524
0.000319296
0.000323123
0.000328326
0.000334537
0.000341647
0.000348313
0.000429107
0.000964328
0.00384788
0.00120243
0.0038672
0.00122613
0.00377474
0.0010935
0.00101783
0.00375422
0.000930874
0.000421155
0.000347656
0.000341036
0.000334115
0.000327966
0.000322839
0.000319057
0.00031631
0.000253723
0.000253751
0.000316573
0.000319326
0.000323119
0.000328298
0.000334553
0.000342151
0.00035233
0.000425475
0.00116536
0.00384575
0.00134902
0.00391767
0.00135192
0.00336969
0.00120313
0.00119218
0.00334368
0.00106293
0.000409938
0.000351287
0.000341413
0.000334094
0.000327896
0.000322788
0.000319032
0.000316298
0.000253689
0.000253566
0.000315673
0.000318423
0.000322269
0.000327655
0.000334435
0.000343137
0.000354727
0.000578051
0.00349237
0.00403817
0.00358601
0.00406046
0.00348733
0.00154205
0.00344307
0.0034423
0.00150487
0.00330521
0.000583932
0.000353793
0.000342404
0.000333925
0.000327172
0.000321864
0.000318055
0.000315326
0.000253492
0.000253516
0.000313275
0.000316006
0.00031994
0.000325684
0.000333155
0.000343032
0.000351457
0.000453937
0.00114655
0.0040373
0.00135565
0.00404077
0.00135879
0.00408318
0.00123025
0.00113079
0.00410027
0.00121376
0.000460258
0.000351976
0.000342378
0.000332639
0.000325156
0.000319494
0.00031558
0.00031288
0.000253462
0.000253548
0.000309792
0.000312399
0.000316362
0.000322509
0.000331418
0.000344916
0.000366571
0.000548836
0.00245589
0.00547495
0.0029332
0.00531638
0.00279531
0.00516408
0.00266538
0.00274721
0.00532958
0.00247053
0.000553921
0.000366471
0.000344253
0.000330865
0.000321945
0.00031589
0.000311947
0.000309376
0.000253493
0.000253539
0.000305239
0.000307423
0.000310952
0.000316915
0.000326901
0.000344217
0.000373535
0.000850165
0.00841809
0.00998776
0.00987126
0.00993121
0.00973286
0.00984582
0.00973472
0.00985482
0.0099768
0.00841166
0.000856414
0.000372627
0.000343512
0.000326289
0.000316333
0.00031045
0.000306954
0.000304794
0.000253485
0.000253438
0.000299803
0.000301205
0.000303532
0.000307332
0.000315002
0.000329792
0.000360498
0.000523604
0.00136276
0.00167855
0.00190984
0.00189558
0.00206922
0.00193779
0.00205066
0.00192214
0.00170116
0.00136709
0.000523604
0.000359386
0.00032914
0.00031436
0.000306773
0.000303034
0.000300737
0.000299357
0.000253383
0.000253281
0.000294074
0.000294418
0.000295007
0.000295777
0.000297367
0.00030016
0.00030427
0.000335304
0.000302849
0.000275457
0.000269972
0.000264413
0.000264599
0.000262849
0.000266593
0.000270013
0.000275761
0.000302816
0.000334597
0.000303496
0.000299615
0.000296851
0.000295299
0.000294547
0.000293961
0.000293631
0.00025322
0.000253062
0.000288655
0.000288154
0.000287463
0.000286364
0.000285359
0.000283977
0.000280617
0.000284683
0.000271396
0.000251232
0.000239562
0.00023228
0.000228898
0.000228938
0.000232195
0.000239316
0.000250986
0.000271108
0.000284201
0.000280119
0.000283525
0.000284913
0.00028592
0.000287023
0.000287726
0.000288238
0.000252999
0.000252803
0.000283925
0.000282741
0.000280982
0.000278436
0.000275152
0.000270798
0.000264447
0.000260729
0.000247701
0.000235419
0.000228635
0.000225131
0.000223813
0.000223821
0.000225095
0.000228525
0.000235267
0.000247491
0.000260418
0.000264094
0.000270422
0.00027475
0.000278029
0.000280579
0.000282334
0.000283518
0.000252731
0.000252537
0.000280137
0.000278492
0.000276072
0.000272711
0.000268459
0.00026313
0.000256603
0.000250139
0.000241266
0.000233939
0.000229124
0.000226073
0.000224567
0.000224546
0.000226035
0.000229036
0.000233813
0.000241079
0.000249891
0.00025631
0.000262811
0.000268106
0.000272342
0.000275695
0.000278107
0.000279745
0.000252458
0.000252366
0.000277427
0.000275508
0.000272695
0.000268879
0.00026409
0.000258354
0.000251785
0.000245169
0.000237936
0.000232057
0.000227871
0.000225338
0.000224343
0.000224339
0.000225299
0.000227794
0.000231942
0.000237779
0.000244961
0.000251533
0.000258063
0.000263775
0.000268539
0.000272338
0.000275141
0.000277054
0.000252283
0.000252281
0.000275742
0.00027368
0.000270643
0.000266575
0.000261532
0.000255638
0.000249176
0.000242698
0.000236482
0.000231543
0.000228017
0.00022582
0.000224781
0.000224768
0.000225789
0.000227954
0.000231445
0.000236341
0.000242511
0.000248946
0.000255372
0.000261231
0.000266249
0.0002703
0.000273323
0.000275378
0.000252193
0.000266473
0.000200837
0.000198662
0.000198031
0.000197329
0.000196539
0.000195616
0.000194709
0.000193817
0.000192959
0.000192349
0.000191989
0.000191862
0.000191898
0.000191902
0.000191874
0.000191969
0.000192264
0.000192884
0.000193754
0.000194666
0.000195587
0.000196521
0.000197326
0.000198039
0.000198674
0.00020085
0.000266508
0.000100987
8.00959e-05
7.89496e-05
7.84259e-05
7.78057e-05
7.70501e-05
7.61091e-05
7.50934e-05
7.40598e-05
7.30181e-05
7.22467e-05
7.17315e-05
7.14531e-05
7.13695e-05
7.13574e-05
7.1438e-05
7.16805e-05
7.21116e-05
7.29054e-05
7.39701e-05
7.50397e-05
7.60844e-05
7.7048e-05
7.7823e-05
7.84517e-05
7.89795e-05
8.01296e-05
0.000101036
0.000172174
0.000148499
0.000149735
0.000150757
0.000152138
0.000154104
0.00015687
0.000160273
0.000164053
0.000168433
0.000171934
0.000174675
0.000176616
0.000177434
0.000177638
0.000176835
0.000175123
0.000172972
0.000169163
0.000164509
0.000160462
0.000156895
0.000154031
0.000152007
0.000150603
0.000149567
0.000148336
0.000172055
0.000251193
0.000233552
0.000233063
0.000232893
0.000232622
0.000232229
0.000231682
0.00023096
0.000230105
0.000229167
0.000228259
0.000227617
0.000227286
0.000227078
0.000227128
0.000227233
0.000227548
0.000228338
0.000229237
0.000230097
0.000230926
0.00023166
0.000232215
0.000232623
0.000232901
0.000233078
0.000233573
0.000251343
0.000250699
0.000232846
0.000232392
0.000232297
0.000232124
0.000231822
0.000231353
0.000230724
0.000230055
0.000229319
0.000228339
0.000227694
0.000227543
0.000227557
0.000227815
0.000227409
0.000227611
0.00022893
0.000229698
0.00023011
0.000230689
0.000231318
0.000231793
0.000232108
0.00023229
0.000232393
0.000232855
0.000250884
0.000253118
0.000234129
0.000233682
0.000233638
0.000233553
0.00023337
0.000233085
0.000232701
0.000232347
0.000231007
0.000228473
0.000227063
0.000226467
0.000226042
0.000226119
0.000225703
0.000226295
0.000229561
0.000232454