/*--------------------------------*- C++ -*----------------------------------*\
| =========                 |                                                 |
| \\      /  F ield         | OpenFOAM: The Open Source CFD Toolbox           |
|  \\    /   O peration     | Version:  2.3.0                                 |
|   \\  /    A nd           | Web:      www.OpenFOAM.org                      |
|    \\/     M anipulation  |                                                 |
\*---------------------------------------------------------------------------*/
FoamFile
{
    version     2.0;
    format      ascii;
    class       volScalarField;
    location    "4.59836";
    object      alpha.water;
}
// * * * * * * * * * * * * * * * * * * * * * * * * * * * * * * * * * * * * * //

dimensions      [0 0 0 0 0 0 0];

internalField   nonuniform List<scalar> 
1000
(
0.564097
0.634665
0.669448
0.727178
0.772688
0.807591
0.842739
0.869957
0.888445
0.893112
0.900631
0.891916
0.834833
0.674958
0.716177
0.839656
0.884822
0.900872
0.898031
0.773117
0.624507
0.7468
0.852411
0.952641
0.984349
0.993404
0.9971
0.998375
0.998797
0.997293
0.99363
0.991153
0.979872
0.832692
0.758102
0.955977
0.988372
0.976037
0.979414
0.865278
0.655716
0.826417
0.944223
0.997977
0.999901
0.99998
0.999994
0.999976
0.999498
0.995453
0.984691
0.972976
0.973826
0.905292
0.790364
0.924331
0.980377
0.964125
0.958082
0.891185
0.671298
0.857774
0.972112
0.999808
0.999999
1
1
0.999987
0.999444
0.994112
0.975477
0.958774
0.966081
0.905863
0.812126
0.885214
0.95151
0.952893
0.939985
0.896479
0.682575
0.889481
0.995984
0.999863
0.999999
1
1
0.999997
0.999724
0.994658
0.971364
0.94851
0.958051
0.898341
0.838573
0.864514
0.90569
0.932023
0.926714
0.899797
0.697433
0.955643
0.999683
0.999396
0.999999
1
1
1
0.999961
0.998334
0.980251
0.935494
0.908931
0.880162
0.849611
0.854546
0.865948
0.897482
0.915212
0.903894
0.713815
0.994434
0.999056
0.999223
0.999999
1
1
1
0.999997
0.999697
0.993514
0.963385
0.919984
0.89263
0.901479
0.892397
0.873094
0.87529
0.891664
0.908759
0.727882
0.997827
0.998279
0.999703
1
1
1
1
1
0.999996
0.99984
0.99874
0.996795
0.995892
0.997363
0.995174
0.933092
0.884894
0.891452
0.913147
0.740483
0.997574
0.99765
0.999969
1
1
1
1
1
1
1
0.999999
0.999997
0.999997
0.999998
0.999981
0.986366
0.914489
0.895542
0.91287
0.752871
0.996567
0.997641
1
1
1
1
1
1
1
1
1
1
1
1
1
0.998178
0.94426
0.907733
0.914348
0.645907
0.761541
0.794753
0.823586
0.844622
0.866469
0.895369
0.918663
0.935258
0.953399
0.950733
0.944123
0.926656
0.87841
0.736796
0.837583
0.88231
0.899337
0.896938
0.778271
0.815558
0.918041
0.919797
0.98659
0.996102
0.997984
0.998978
0.999506
0.999707
0.998414
0.994963
0.990798
0.988126
0.936898
0.834485
0.95312
0.984538
0.972814
0.975806
0.873252
0.876705
0.91901
0.974832
0.999266
0.99999
0.999998
0.999999
0.999997
0.999897
0.997674
0.988909
0.980042
0.979423
0.946983
0.865187
0.932558
0.975816
0.963807
0.958909
0.897417
0.88614
0.904424
0.982079
0.999931
1
1
1
0.999999
0.99989
0.997415
0.984442
0.973207
0.973346
0.944831
0.873263
0.909833
0.953629
0.956384
0.949083
0.903785
0.884003
0.908209
0.997717
0.999944
1
1
1
1
0.999955
0.997855
0.982582
0.967271
0.967992
0.94286
0.894846
0.913362
0.932909
0.948615
0.94499
0.908338
0.882534
0.958968
0.99985
0.999919
1
1
1
1
0.999995
0.999405
0.989862
0.961912
0.947369
0.934312
0.916514
0.92357
0.934593
0.944939
0.94471
0.912075
0.885472
0.995517
0.999804
0.999977
1
1
1
1
1
0.999951
0.998242
0.986663
0.967767
0.960214
0.964946
0.952995
0.934966
0.938589
0.943664
0.92248
0.890443
0.999139
0.999508
0.999998
1
1
1
1
1
1
0.999986
0.999833
0.999556
0.999527
0.999716
0.999072
0.978297
0.943578
0.941752
0.93079
0.895215
0.998953
0.998893
1
1
1
1
1
1
1
1
1
1
1
1
1
0.997873
0.959372
0.941688
0.935023
0.895078
0.998284
0.998933
1
1
1
1
1
1
1
1
1
1
1
1
1
0.9998
0.978274
0.946625
0.940108
0.688341
0.794961
0.822997
0.848628
0.861759
0.883402
0.908911
0.925133
0.942004
0.959189
0.957531
0.951652
0.939365
0.899359
0.743958
0.832192
0.87858
0.896737
0.894286
0.776235
0.911581
0.985836
0.988699
0.997283
0.998238
0.998776
0.999469
0.999746
0.99989
0.999749
0.99898
0.996492
0.995766
0.986363
0.890848
0.953069
0.982482
0.971738
0.975004
0.870317
0.959751
0.984967
0.995681
0.999917
0.999999
0.999999
1
1
0.999991
0.999716
0.997764
0.991493
0.990122
0.983146
0.922382
0.943044
0.975823
0.965584
0.963971
0.897621
0.958411
0.961907
0.993569
0.999993
1
1
1
1
0.999981
0.999665
0.997112
0.988009
0.984884
0.980485
0.928324
0.941087
0.9624
0.961132
0.95822
0.903973
0.954961
0.954802
0.999332
0.999988
1
1
1
1
0.999978
0.999683
0.997409
0.987041
0.976942
0.976118
0.934147
0.941906
0.950145
0.957999
0.955569
0.908404
0.955112
0.98221
0.999964
0.999987
1
1
1
1
0.999996
0.9999
0.999119
0.993975
0.982201
0.970596
0.964533
0.964729
0.961999
0.959289
0.959988
0.912096
0.957382
0.99879
0.999958
0.999998
1
1
1
1
1
0.999982
0.99979
0.999087
0.996621
0.994458
0.996409
0.993406
0.986695
0.97711
0.972644
0.930464
0.960528
0.999799
0.999794
1
1
1
1
1
1
1
0.999998
0.999995
0.999987
0.999983
0.999985
0.999963
0.999412
0.991401
0.981861
0.944523
0.964327
0.999745
0.999571
1
1
1
1
1
1
1
1
1
1
1
1
0.999999
0.999838
0.996588
0.987995
0.955243
0.970744
0.999491
0.999636
1
1
1
1
1
1
1
1
1
1
1
1
1
0.999954
0.995661
0.989747
0.964505
0.660102
0.798703
0.823221
0.826585
0.837109
0.868243
0.897151
0.920654
0.938323
0.955246
0.953113
0.946326
0.929313
0.880805
0.735312
0.833229
0.877085
0.892455
0.890958
0.77389
0.839512
0.987843
0.996757
0.997
0.996812
0.997929
0.998938
0.999377
0.999351
0.997751
0.995397
0.991208
0.988946
0.938663
0.83637
0.952953
0.983465
0.968857
0.973206
0.868964
0.891725
0.998077
0.999734
0.99999
0.999995
0.999996
0.999997
0.99996
0.999411
0.99614
0.991727
0.981261
0.980159
0.947536
0.864543
0.931206
0.975359
0.957769
0.957612
0.894713
0.894642
0.995041
0.999289
0.999986
1
1
0.999999
0.999963
0.999181
0.995495
0.989764
0.97674
0.974654
0.945746
0.873562
0.913793
0.953597
0.948526
0.949025
0.901521
0.897701
0.993781
0.999905
0.999933
1
1
1
0.999979
0.999316
0.99569
0.98928
0.979251
0.953577
0.937154
0.887272
0.905467
0.923278
0.941014
0.945192
0.906549
0.90166
0.998114
0.99988
0.999916
1
1
1
0.999999
0.999877
0.997996
0.991445
0.985312
0.969156
0.950087
0.951725
0.952819
0.947327
0.942902
0.945892
0.910696
0.904317
0.999494
0.999797
0.999977
1
1
1
1
0.99999
0.999435
0.994653
0.988488
0.993453
0.988439
0.992705
0.993824
0.991106
0.981151
0.972288
0.927026
0.904352
0.999437
0.999514
0.999998
1
1
1
1
1
0.999994
0.999884
0.999499
0.99854
0.997186
0.998499
0.996515
0.987246
0.973087
0.97423
0.941022
0.904889
0.999149
0.998914
1
1
1
1
1
1
1
1
1
0.999997
0.999994
0.999997
0.999921
0.991958
0.962796
0.971552
0.950649
0.906443
0.998508
0.998929
1
1
1
1
1
1
1
1
1
1
1
1
1
0.999629
0.957338
0.966898
0.957343
0.595519
0.75641
0.7941
0.770744
0.760466
0.800238
0.835881
0.861742
0.880842
0.890158
0.897848
0.889616
0.832786
0.674758
0.712693
0.838174
0.88241
0.8971
0.895012
0.77152
0.72021
0.974039
0.992864
0.992224
0.990129
0.992016
0.996465
0.997593
0.997681
0.995945
0.993937
0.992213
0.981003
0.83313
0.757465
0.956459
0.988411
0.974987
0.979215
0.862587
0.764268
0.989255
0.999343
0.999941
0.999968
0.999972
0.999979
0.999829
0.998815
0.994128
0.984611
0.974903
0.975342
0.908057
0.79065
0.92406
0.980055
0.960708
0.957563
0.890056
0.781258
0.994582
0.999809
0.999982
1
1
0.999997
0.999925
0.998716
0.990364
0.971974
0.959861
0.966707
0.90819
0.815071
0.887415
0.950053
0.947947
0.939414
0.895554
0.789617
0.99806
0.999959
0.999843
0.999999
1
1
0.999981
0.999178
0.989278
0.965861
0.953143
0.953857
0.89526
0.832562
0.855368
0.895695
0.928083
0.927361
0.898956
0.794133
0.998844
0.999709
0.99938
0.999999
1
1
0.999998
0.999824
0.995764
0.972343
0.943919
0.928492
0.897292
0.880705
0.872248
0.875399
0.901916
0.92008
0.902986
0.796161
0.998655
0.999024
0.999199
0.999999
1
1
1
0.999986
0.99905
0.984494
0.93695
0.900804
0.891145
0.879697
0.884203
0.883707
0.885391
0.91074
0.909673
0.797566
0.998221
0.998231
0.999682
1
1
1
1
1
0.999988
0.999541
0.995896
0.98268
0.962515
0.983893
0.954538
0.908593
0.88687
0.911988
0.916012
0.799546
0.997709
0.997609
0.999966
1
1
1
1
1
1
1
0.999993
0.999956
0.999839
0.999964
0.999358
0.947098
0.894638
0.908448
0.919874
0.799841
0.996702
0.997574
1
1
1
1
1
1
1
1
1
1
1
1
1
0.985605
0.921262
0.913476
0.923163
)
;

boundaryField
{
    aeration
    {
        type            calculated;
        value           uniform 0.5;
    }
    xsides
    {
        type            calculated;
        value           nonuniform List<scalar> 
100
(
0.564097
0.624507
0.655716
0.671298
0.682575
0.697433
0.713815
0.727882
0.740483
0.752871
0.645907
0.815558
0.876705
0.88614
0.884003
0.882534
0.885472
0.890443
0.895215
0.895078
0.688341
0.911581
0.959751
0.958411
0.954961
0.955112
0.957382
0.960528
0.964327
0.970744
0.660102
0.839512
0.891725
0.894642
0.897701
0.90166
0.904317
0.904352
0.904889
0.906443
0.595519
0.72021
0.764268
0.781258
0.789617
0.794133
0.796161
0.797566
0.799546
0.799841
0.773117
0.865278
0.891185
0.896479
0.899797
0.903894
0.908759
0.913147
0.91287
0.914348
0.778271
0.873252
0.897417
0.903785
0.908338
0.912075
0.92248
0.93079
0.935023
0.940108
0.776235
0.870317
0.897621
0.903973
0.908404
0.912096
0.930464
0.944523
0.955243
0.964505
0.77389
0.868964
0.894713
0.901521
0.906549
0.910696
0.927026
0.941022
0.950649
0.957343
0.77152
0.862587
0.890056
0.895554
0.898956
0.902986
0.909673
0.916012
0.919874
0.923163
)
;
    }
    zsides
    {
        type            calculated;
        value           nonuniform List<scalar> 
400
(
0.564097
0.624507
0.655716
0.671298
0.682575
0.697433
0.713815
0.727882
0.740483
0.752871
0.634665
0.7468
0.826417
0.857774
0.889481
0.955643
0.994434
0.997827
0.997574
0.996567
0.669448
0.852411
0.944223
0.972112
0.995984
0.999683
0.999056
0.998279
0.99765
0.997641
0.727178
0.952641
0.997977
0.999808
0.999863
0.999396
0.999223
0.999703
0.999969
1
0.772688
0.984349
0.999901
0.999999
0.999999
0.999999
0.999999
1
1
1
0.807591
0.993404
0.99998
1
1
1
1
1
1
1
0.842739
0.9971
0.999994
1
1
1
1
1
1
1
0.869957
0.998375
0.999976
0.999987
0.999997
1
1
1
1
1
0.888445
0.998797
0.999498
0.999444
0.999724
0.999961
0.999997
1
1
1
0.893112
0.997293
0.995453
0.994112
0.994658
0.998334
0.999697
0.999996
1
1
0.900631
0.99363
0.984691
0.975477
0.971364
0.980251
0.993514
0.99984
1
1
0.891916
0.991153
0.972976
0.958774
0.94851
0.935494
0.963385
0.99874
0.999999
1
0.834833
0.979872
0.973826
0.966081
0.958051
0.908931
0.919984
0.996795
0.999997
1
0.674958
0.832692
0.905292
0.905863
0.898341
0.880162
0.89263
0.995892
0.999997
1
0.716177
0.758102
0.790364
0.812126
0.838573
0.849611
0.901479
0.997363
0.999998
1
0.839656
0.955977
0.924331
0.885214
0.864514
0.854546
0.892397
0.995174
0.999981
1
0.884822
0.988372
0.980377
0.95151
0.90569
0.865948
0.873094
0.933092
0.986366
0.998178
0.900872
0.976037
0.964125
0.952893
0.932023
0.897482
0.87529
0.884894
0.914489
0.94426
0.898031
0.979414
0.958082
0.939985
0.926714
0.915212
0.891664
0.891452
0.895542
0.907733
0.773117
0.865278
0.891185
0.896479
0.899797
0.903894
0.908759
0.913147
0.91287
0.914348
0.595519
0.72021
0.764268
0.781258
0.789617
0.794133
0.796161
0.797566
0.799546
0.799841
0.75641
0.974039
0.989255
0.994582
0.99806
0.998844
0.998655
0.998221
0.997709
0.996702
0.7941
0.992864
0.999343
0.999809
0.999959
0.999709
0.999024
0.998231
0.997609
0.997574
0.770744
0.992224
0.999941
0.999982
0.999843
0.99938
0.999199
0.999682
0.999966
1
0.760466
0.990129
0.999968
1
0.999999
0.999999
0.999999
1
1
1
0.800238
0.992016
0.999972
1
1
1
1
1
1
1
0.835881
0.996465
0.999979
0.999997
1
1
1
1
1
1
0.861742
0.997593
0.999829
0.999925
0.999981
0.999998
1
1
1
1
0.880842
0.997681
0.998815
0.998716
0.999178
0.999824
0.999986
1
1
1
0.890158
0.995945
0.994128
0.990364
0.989278
0.995764
0.99905
0.999988
1
1
0.897848
0.993937
0.984611
0.971974
0.965861
0.972343
0.984494
0.999541
1
1
0.889616
0.992213
0.974903
0.959861
0.953143
0.943919
0.93695
0.995896
0.999993
1
0.832786
0.981003
0.975342
0.966707
0.953857
0.928492
0.900804
0.98268
0.999956
1
0.674758
0.83313
0.908057
0.90819
0.89526
0.897292
0.891145
0.962515
0.999839
1
0.712693
0.757465
0.79065
0.815071
0.832562
0.880705
0.879697
0.983893
0.999964
1
0.838174
0.956459
0.92406
0.887415
0.855368
0.872248
0.884203
0.954538
0.999358
1
0.88241
0.988411
0.980055
0.950053
0.895695
0.875399
0.883707
0.908593
0.947098
0.985605
0.8971
0.974987
0.960708
0.947947
0.928083
0.901916
0.885391
0.88687
0.894638
0.921262
0.895012
0.979215
0.957563
0.939414
0.927361
0.92008
0.91074
0.911988
0.908448
0.913476
0.77152
0.862587
0.890056
0.895554
0.898956
0.902986
0.909673
0.916012
0.919874
0.923163
)
;
    }
    outlet
    {
        type            calculated;
        value           nonuniform List<scalar> 
100
(
0.752871
0.895078
0.970744
0.906443
0.799841
0.996567
0.998284
0.999491
0.998508
0.996702
1
1
1
1
1
1
1
1
1
1
1
1
1
1
1
1
1
1
1
1
1
1
1
1
1
1
1
1
1
1
1
1
1
1
1
1
1
1
1
1
1
1
1
1
1
1
1
1
1
1
1
1
1
1
1
1
1
1
1
1
1
1
1
1
1
1
1
1
1
1
1
1
1
1
1
0.94426
0.978274
0.995661
0.957338
0.921262
0.907733
0.946625
0.989747
0.966898
0.913476
0.914348
0.940108
0.964505
0.957343
0.923163
)
;
    }
}


// ************************************************************************* //
