/*--------------------------------*- C++ -*----------------------------------*\
| =========                 |                                                 |
| \\      /  F ield         | OpenFOAM: The Open Source CFD Toolbox           |
|  \\    /   O peration     | Version:  2.3.0                                 |
|   \\  /    A nd           | Web:      www.OpenFOAM.org                      |
|    \\/     M anipulation  |                                                 |
\*---------------------------------------------------------------------------*/
FoamFile
{
    version     2.0;
    format      ascii;
    class       volScalarField;
    location    "4.59836";
    object      k.water;
}
// * * * * * * * * * * * * * * * * * * * * * * * * * * * * * * * * * * * * * //

dimensions      [0 2 -2 0 0 0 0];

internalField   nonuniform List<scalar> 
1000
(
0.00400654
0.00530901
0.00547049
0.00496585
0.00408041
0.00317404
0.00215935
0.00129699
0.000796928
0.000621578
0.000788233
1.81055e-10
1e-15
0.00230195
0.00209224
0.00111215
0.000734319
0.000664077
0.00102408
0.002034
0.0057451
0.00513696
0.003601
0.0012896
0.00057272
0.000356081
0.00028492
0.000271592
0.000314088
9.94402e-16
9.93432e-16
9.93558e-16
9.94429e-16
0.00239095
0.00294897
0.000491204
0.000341019
0.00052866
0.000716079
0.00166596
0.00694792
0.00419976
0.00132128
0.000272813
0.00020554
0.000198327
0.000217518
0.000282144
0.000368822
9.93565e-16
9.94205e-16
9.93775e-16
9.93908e-16
0.00228811
0.00416301
0.00087745
0.000375873
0.000623995
0.000856506
0.00154651
0.00794378
0.00340549
0.000586154
0.000163489
0.000149684
0.000153709
0.000189605
0.000267291
0.000377579
1.205e-14
9.93963e-16
9.91726e-16
9.35528e-10
0.00271745
0.00445784
0.00166694
0.00050035
0.000660083
0.00104551
0.00153773
0.00842625
0.00208117
0.000226095
0.00013861
0.000130999
0.000128889
0.000158988
0.000234689
0.000374506
0.000460523
1.80989e-11
4.69715e-15
9.91652e-16
0.00340581
0.00404614
0.00252228
0.00105954
0.000787107
0.00113007
0.001507
0.00847848
0.00115281
0.000202476
0.000137194
0.000127042
0.000117119
0.000129033
0.000177732
0.00027482
0.000475426
0.000806206
0.00136918
0.00167363
0.00357721
0.00397449
0.00393585
0.00321829
0.00156691
0.00112598
0.00138536
0.00840177
0.0010001
0.000195717
0.000138113
0.000124829
0.000104868
0.000111965
0.00014999
0.000205995
0.000275006
0.000403001
0.000827328
0.0014772
0.00213138
0.00211832
0.0033612
0.00434628
0.00397686
0.00212139
0.0013842
0.008197
0.000822099
0.000170707
0.000142363
0.000120712
9.14739e-05
8.86478e-05
0.000114054
0.000171786
0.000208723
0.00021368
0.000244629
0.000291982
0.000319304
0.000320457
0.000472444
0.00279399
0.00387836
0.00278099
0.00151226
0.0078359
0.000645526
0.000151703
0.00013656
0.000106704
7.88631e-05
7.41479e-05
9.24125e-05
0.000124235
0.00014613
0.000149943
0.00014077
0.000141906
0.000159013
0.000189594
0.000212534
0.000751681
0.00333301
0.00314771
0.0017042
0.00771298
0.000657498
0.000117387
9.07956e-05
7.76441e-05
6.367e-05
5.97432e-05
6.82116e-05
7.76987e-05
8.2075e-05
7.59881e-05
6.86646e-05
7.40049e-05
9.33524e-05
0.000128997
0.000128748
0.000233187
0.00228128
0.00338421
0.00217508
0.00156769
0.00220775
0.00191996
0.00181604
0.00158945
0.0011785
0.00076802
0.000510399
0.000400976
0.000307483
0.000309742
0.000333962
0.000396038
0.000734487
0.000790085
0.000573594
0.000494607
0.00051745
0.000741711
0.00104004
0.00176624
0.00232569
0.00167272
0.000566368
0.000284426
0.000215002
0.000186918
0.000181366
0.000191966
0.000111477
0.000126718
0.000159218
0.000102519
0.000807922
0.000897906
0.000364105
0.000264641
0.000336576
0.000606982
0.000951067
0.00182646
0.0022303
0.000735722
0.000171528
0.000135883
0.000135493
0.000146454
0.000170092
0.000194366
0.000103785
0.000165845
0.000193786
8.96299e-05
0.000847383
0.00113491
0.000472277
0.000284815
0.0003537
0.000645376
0.000928245
0.00183799
0.00197566
0.000400656
0.000111526
0.000100498
0.000102996
0.000114868
0.000144847
0.000182025
0.000174303
0.000209315
0.000292372
5.78411e-05
0.000983835
0.00150137
0.000773796
0.000377719
0.000392428
0.00070099
0.000934102
0.00178962
0.00137791
0.000191126
9.22058e-05
8.5253e-05
8.49036e-05
9.61047e-05
0.00012321
0.000173589
0.000216184
0.000301215
0.000477248
0.000329546
0.00139824
0.00163806
0.00121135
0.000685654
0.000515802
0.000756858
0.000947306
0.00164312
0.00100779
0.000176812
8.37718e-05
7.4659e-05
7.17475e-05
7.48991e-05
9.09232e-05
0.000119744
0.000198038
0.000387671
0.000851275
0.00129815
0.00203788
0.00217049
0.00202324
0.00159022
0.000920006
0.000873439
0.000927512
0.00143007
0.000957722
0.000159186
7.23849e-05
6.49154e-05
6.1422e-05
6.48939e-05
7.54189e-05
8.61934e-05
0.000106996
0.000154352
0.000391641
0.000964427
0.00148003
0.00155858
0.0021468
0.00229027
0.00200055
0.00144557
0.000928165
5.41784e-11
0.000753256
0.000118766
6.359e-05
5.46069e-05
4.81438e-05
4.71051e-05
5.19646e-05
6.92967e-05
8.26582e-05
8.86493e-05
0.000113124
0.00014599
0.000198752
0.00020647
0.00029262
0.00164953
0.00196671
0.00161193
0.0009563
1e-15
0.00054945
9.21537e-05
4.97363e-05
4.31065e-05
3.72905e-05
3.61644e-05
4.02727e-05
4.70513e-05
5.39633e-05
6.69884e-05
7.7188e-05
8.30538e-05
0.000108211
0.000133884
0.000106757
0.000527822
0.00174455
0.00166279
0.00100536
1e-15
0.000565203
6.55058e-05
3.95082e-05
3.78213e-05
3.36283e-05
3.24127e-05
3.52622e-05
3.85079e-05
4.07748e-05
4.25831e-05
4.63248e-05
5.0308e-05
7.06796e-05
8.17537e-05
5.7959e-05
0.000104531
0.00125047
0.00161269
0.00111624
0.0010662
0.00164409
0.00131339
0.00117578
0.00104209
0.000704781
0.000423369
0.000310981
0.000260447
0.000197017
0.000206756
0.000233841
0.000266055
0.000405266
0.000595791
0.000490191
0.000453936
0.000487504
0.000703559
0.000849476
0.000878747
0.00128726
0.000773049
0.000285011
0.000205235
0.000180822
0.000147307
0.000133593
0.000115813
7.47133e-05
8.74256e-05
0.000111542
8.75719e-05
0.00028846
0.00055103
0.000326818
0.000242063
0.000258762
0.000572053
0.000759174
9.91879e-16
0.00134546
0.0004159
0.000133513
0.000118707
0.000118608
0.000123025
0.000125458
0.00010699
7.97362e-05
0.000130122
0.000164515
0.000101031
0.000338167
0.000590951
0.000379984
0.000255331
0.000241511
0.000580178
0.000744159
9.91757e-16
0.00129337
0.000268756
9.72396e-05
8.99658e-05
9.08619e-05
9.37897e-05
9.84818e-05
9.51412e-05
9.55942e-05
0.000171899
0.000257244
6.59246e-05
0.000454809
0.000744939
0.000521038
0.000339275
0.000265474
0.000592668
0.000748827
9.91468e-16
0.00103951
0.000168471
8.20112e-05
7.57107e-05
7.56114e-05
8.11993e-05
8.76994e-05
9.04853e-05
0.000101125
0.000199476
0.000396048
0.000400541
0.000911413
0.00110993
0.000956542
0.000642896
0.000360769
0.000615557
0.000764912
9.91427e-16
0.000862433
0.000160801
7.1449e-05
6.32986e-05
6.23778e-05
6.3645e-05
7.08492e-05
7.3422e-05
8.66873e-05
0.000180732
0.000505353
0.000978816
0.00134956
0.00143926
0.00128438
0.000935543
0.000566417
0.00066982
0.000780555
9.91581e-16
0.000835235
0.000137723
5.52512e-05
5.04235e-05
5.2099e-05
5.51125e-05
5.86673e-05
5.7327e-05
5.80332e-05
7.46472e-05
0.000170448
0.000560929
0.000897816
0.000903053
0.00126791
0.00137393
0.00112609
0.000972258
0.000768518
9.91968e-16
0.000660522
0.000100017
4.02606e-05
3.71495e-05
3.80802e-05
3.74187e-05
3.6787e-05
4.05381e-05
5.01095e-05
5.57563e-05
5.7633e-05
6.71498e-05
9.49563e-05
0.000104752
0.000108004
0.00075273
0.00103815
0.000977383
0.000767572
9.92526e-16
0.000473632
7.41312e-05
3.31874e-05
3.15081e-05
2.94056e-05
2.88805e-05
3.04759e-05
3.27598e-05
3.48803e-05
3.83012e-05
4.32019e-05
4.45452e-05
5.69375e-05
6.17407e-05
4.851e-05
0.000247645
0.000879503
0.000937524
0.000754846
9.93421e-16
0.000490969
5.48072e-05
3.24736e-05
3.14803e-05
2.87308e-05
2.78773e-05
2.98649e-05
3.21867e-05
3.36556e-05
3.43846e-05
3.71677e-05
3.80951e-05
4.00399e-05
4.04801e-05
3.83709e-05
6.52736e-05
0.000628126
0.000846737
0.000752008
0.0016358
0.00216809
0.00181522
0.00171542
0.00165145
0.00121405
0.000732347
0.000477423
0.000356876
0.000285768
0.00029481
0.000316536
0.000374239
0.000725298
0.000796113
0.00057516
0.000494086
0.000513662
0.000735609
0.00104198
0.00149131
0.000998278
0.000429004
0.000263382
0.000252662
0.00022836
0.000169985
0.000146422
0.000106528
7.98739e-05
0.000114328
0.000150192
9.26458e-05
0.00081576
0.000899004
0.000362956
0.00025807
0.000251007
0.000588169
0.000952975
0.00140777
0.00104241
0.000288418
0.000139308
0.000134112
0.000135472
0.000139917
0.000142175
9.57329e-05
4.55899e-05
0.000127961
0.000173448
7.65889e-05
0.000843428
0.00115694
0.000473106
0.000272053
0.000188692
0.000618929
0.000936457
0.00130914
0.00105052
0.000213457
0.000105362
0.000100617
0.000102868
0.000108982
0.00011101
6.93951e-05
3.76398e-05
0.000115647
0.000227221
3.47378e-05
0.000957829
0.00143977
0.000729018
0.00039828
0.000179427
0.000651662
0.000940863
0.00107203
0.000944741
0.000172191
9.13119e-05
8.52817e-05
8.51274e-05
9.49627e-05
0.000100784
6.83367e-05
3.66622e-05
8.78249e-05
0.000319281
0.000510182
0.00154103
0.00177335
0.00141417
0.000852375
0.000233731
0.000648567
0.000948222
0.000921363
0.000829297
0.000163613
8.32414e-05
7.47093e-05
7.18581e-05
7.60295e-05
9.2319e-05
9.11764e-05
5.66002e-05
5.90486e-05
0.000261166
0.000699279
0.00104012
0.00104726
0.000915159
0.000617725
0.000376699
0.00057033
0.000929919
1.47388e-05
0.000790783
0.000142133
7.21128e-05
6.4941e-05
6.14938e-05
6.56857e-05
8.2725e-05
9.68689e-05
8.17095e-05
4.64362e-05
4.80817e-05
0.000263329
0.00046717
0.000521894
0.00092179
0.000880966
0.000624383
0.000642021
0.000834966
6.22298e-12
0.000669933
0.000116577
6.37265e-05
5.4598e-05
4.81226e-05
4.6761e-05
5.13586e-05
6.84297e-05
9.41564e-05
0.000103201
7.70993e-05
4.66927e-05
7.80522e-05
0.00016298
0.000179902
0.000571642
0.000504998
0.000580531
0.000827817
9.99998e-16
0.000515942
9.26503e-05
4.98424e-05
4.30982e-05
3.73148e-05
3.62796e-05
4.07752e-05
4.66591e-05
5.3679e-05
5.92272e-05
6.38129e-05
4.82428e-05
9.27261e-05
0.000128593
8.98101e-05
0.000369679
0.000345526
0.000461304
0.000776142
9.99995e-16
0.000539735
6.63324e-05
3.95279e-05
3.78185e-05
3.36216e-05
3.23905e-05
3.52047e-05
3.89273e-05
4.32445e-05
4.42148e-05
5.49392e-05
6.14054e-05
5.82499e-05
5.33931e-05
6.07498e-05
0.000191127
0.000200183
0.000384396
0.000813913
0.00375176
0.00398062
0.00357864
0.00392001
0.00412909
0.00327607
0.00222677
0.00134719
0.000825784
0.000564578
0.000809562
5.49154e-10
1e-15
0.00234402
0.00214666
0.00112335
0.000731825
0.00064055
0.00101388
0.0020465
0.00415904
0.00111514
0.000536063
0.00045351
0.000448562
0.000398284
0.00026133
0.00021525
0.000165427
9.93531e-16
9.9335e-16
9.93432e-16
9.9446e-16
0.0023831
0.00293983
0.000488832
0.000328496
0.000389414
0.000679427
0.00169015
0.004465
0.000988108
0.000308752
0.000205723
0.00020059
0.00019776
0.000208861
0.000234469
0.000205169
9.93467e-16
9.94262e-16
9.93968e-16
9.9406e-16
0.00223553
0.00419554
0.00089346
0.000354344
0.000280971
0.00080839
0.00157055
0.00480142
0.00097199
0.00023357
0.000154245
0.000149705
0.000153057
0.000179671
0.000207706
0.000155916
9.93725e-16
9.93668e-16
9.91888e-16
9.92936e-16
0.00259879
0.00438276
0.00157207
0.000527666
1.42501e-05
0.000968242
0.0015612
0.00496461
0.000895676
0.000197837
0.000137786
0.000131017
0.000129038
0.000157542
0.000196452
0.000150747
9.93799e-16
9.9279e-16
0.000362735
0.000798816
0.00349042
0.00414768
0.00287134
0.00132983
9.97734e-16
0.000996016
0.00152409
0.00533664
0.0008058
0.00019002
0.00013664
0.000127103
0.000117332
0.000130713
0.000180043
0.000205234
9.93424e-16
9.93557e-16
9.92088e-16
9.98205e-16
1.36922e-15
1e-15
1e-15
1e-15
9.99999e-16
0.000673273
0.00140867
0.00539429
0.000775572
0.000180053
0.000137775
0.000124824
0.000104952
0.000113343
0.000162987
0.000221178
0.000194934
9.93537e-16
9.93717e-16
1e-15
1e-15
1e-15
1e-15
1e-15
1e-15
2.36049e-07
0.00128525
0.00552387
0.000692076
0.000167358
0.000142197
0.000120708
9.14059e-05
8.79682e-05
0.000112087
0.000170493
0.000230533
0.000238591
0.000119638
9.92755e-16
9.92002e-16
9.93511e-16
9.91492e-16
9.99993e-16
1e-15
9.99938e-16
0.00138584
0.00555665
0.000574382
0.000151404
0.000136392
0.000106708
7.8921e-05
7.44736e-05
9.34467e-05
0.000119045
0.000135394
0.000135407
0.000111804
9.99824e-16
2.62197e-06
7.30784e-08
9.97863e-16
9.92769e-16
1e-15
9.99983e-16
0.0013861
0.00571701
0.000599204
0.000117618
9.07701e-05
7.76561e-05
6.36452e-05
5.96556e-05
6.79751e-05
8.20327e-05
9.54634e-05
8.66259e-05
9.64709e-05
0.000102278
0.000109264
8.98797e-07
1.13212e-12
9.94709e-16
9.99615e-16
0.000526123
0.0016343
)
;

boundaryField
{
    aeration
    {
        type            fixedValue;
        value           uniform 3.75e-05;
    }
    xsides
    {
        type            kqRWallFunction;
        value           nonuniform List<scalar> 
100
(
0.00400654
0.0057451
0.00694792
0.00794378
0.00842625
0.00847848
0.00840177
0.008197
0.0078359
0.00771298
0.00156769
0.00176624
0.00182646
0.00183799
0.00178962
0.00164312
0.00143007
5.41784e-11
1e-15
1e-15
0.0010662
0.000878747
9.91879e-16
9.91757e-16
9.91468e-16
9.91427e-16
9.91581e-16
9.91968e-16
9.92526e-16
9.93421e-16
0.0016358
0.00149131
0.00140777
0.00130914
0.00107203
0.000921363
1.47388e-05
6.22298e-12
9.99998e-16
9.99995e-16
0.00375176
0.00415904
0.004465
0.00480142
0.00496461
0.00533664
0.00539429
0.00552387
0.00555665
0.00571701
0.002034
0.00166596
0.00154651
0.00153773
0.001507
0.00138536
0.0013842
0.00151226
0.0017042
0.00217508
0.00104004
0.000951067
0.000928245
0.000934102
0.000947306
0.000927512
0.000928165
0.0009563
0.00100536
0.00111624
0.000849476
0.000759174
0.000744159
0.000748827
0.000764912
0.000780555
0.000768518
0.000767572
0.000754846
0.000752008
0.00104198
0.000952975
0.000936457
0.000940863
0.000948222
0.000929919
0.000834966
0.000827817
0.000776142
0.000813913
0.0020465
0.00169015
0.00157055
0.0015612
0.00152409
0.00140867
0.00128525
0.00138584
0.0013861
0.0016343
)
;
    }
    zsides
    {
        type            kqRWallFunction;
        value           nonuniform List<scalar> 
400
(
0.00400654
0.0057451
0.00694792
0.00794378
0.00842625
0.00847848
0.00840177
0.008197
0.0078359
0.00771298
0.00530901
0.00513696
0.00419976
0.00340549
0.00208117
0.00115281
0.0010001
0.000822099
0.000645526
0.000657498
0.00547049
0.003601
0.00132128
0.000586154
0.000226095
0.000202476
0.000195717
0.000170707
0.000151703
0.000117387
0.00496585
0.0012896
0.000272813
0.000163489
0.00013861
0.000137194
0.000138113
0.000142363
0.00013656
9.07956e-05
0.00408041
0.00057272
0.00020554
0.000149684
0.000130999
0.000127042
0.000124829
0.000120712
0.000106704
7.76441e-05
0.00317404
0.000356081
0.000198327
0.000153709
0.000128889
0.000117119
0.000104868
9.14739e-05
7.88631e-05
6.367e-05
0.00215935
0.00028492
0.000217518
0.000189605
0.000158988
0.000129033
0.000111965
8.86478e-05
7.41479e-05
5.97432e-05
0.00129699
0.000271592
0.000282144
0.000267291
0.000234689
0.000177732
0.00014999
0.000114054
9.24125e-05
6.82116e-05
0.000796928
0.000314088
0.000368822
0.000377579
0.000374506
0.00027482
0.000205995
0.000171786
0.000124235
7.76987e-05
0.000621578
9.94402e-16
9.93565e-16
1.205e-14
0.000460523
0.000475426
0.000275006
0.000208723
0.00014613
8.2075e-05
0.000788233
9.93432e-16
9.94205e-16
9.93963e-16
1.80989e-11
0.000806206
0.000403001
0.00021368
0.000149943
7.59881e-05
1.81055e-10
9.93558e-16
9.93775e-16
9.91726e-16
4.69715e-15
0.00136918
0.000827328
0.000244629
0.00014077
6.86646e-05
1e-15
9.94429e-16
9.93908e-16
9.35528e-10
9.91652e-16
0.00167363
0.0014772
0.000291982
0.000141906
7.40049e-05
0.00230195
0.00239095
0.00228811
0.00271745
0.00340581
0.00357721
0.00213138
0.000319304
0.000159013
9.33524e-05
0.00209224
0.00294897
0.00416301
0.00445784
0.00404614
0.00397449
0.00211832
0.000320457
0.000189594
0.000128997
0.00111215
0.000491204
0.00087745
0.00166694
0.00252228
0.00393585
0.0033612
0.000472444
0.000212534
0.000128748
0.000734319
0.000341019
0.000375873
0.00050035
0.00105954
0.00321829
0.00434628
0.00279399
0.000751681
0.000233187
0.000664077
0.00052866
0.000623995
0.000660083
0.000787107
0.00156691
0.00397686
0.00387836
0.00333301
0.00228128
0.00102408
0.000716079
0.000856506
0.00104551
0.00113007
0.00112598
0.00212139
0.00278099
0.00314771
0.00338421
0.002034
0.00166596
0.00154651
0.00153773
0.001507
0.00138536
0.0013842
0.00151226
0.0017042
0.00217508
0.00375176
0.00415904
0.004465
0.00480142
0.00496461
0.00533664
0.00539429
0.00552387
0.00555665
0.00571701
0.00398062
0.00111514
0.000988108
0.00097199
0.000895676
0.0008058
0.000775572
0.000692076
0.000574382
0.000599204
0.00357864
0.000536063
0.000308752
0.00023357
0.000197837
0.00019002
0.000180053
0.000167358
0.000151404
0.000117618
0.00392001
0.00045351
0.000205723
0.000154245
0.000137786
0.00013664
0.000137775
0.000142197
0.000136392
9.07701e-05
0.00412909
0.000448562
0.00020059
0.000149705
0.000131017
0.000127103
0.000124824
0.000120708
0.000106708
7.76561e-05
0.00327607
0.000398284
0.00019776
0.000153057
0.000129038
0.000117332
0.000104952
9.14059e-05
7.8921e-05
6.36452e-05
0.00222677
0.00026133
0.000208861
0.000179671
0.000157542
0.000130713
0.000113343
8.79682e-05
7.44736e-05
5.96556e-05
0.00134719
0.00021525
0.000234469
0.000207706
0.000196452
0.000180043
0.000162987
0.000112087
9.34467e-05
6.79751e-05
0.000825784
0.000165427
0.000205169
0.000155916
0.000150747
0.000205234
0.000221178
0.000170493
0.000119045
8.20327e-05
0.000564578
9.93531e-16
9.93467e-16
9.93725e-16
9.93799e-16
9.93424e-16
0.000194934
0.000230533
0.000135394
9.54634e-05
0.000809562
9.9335e-16
9.94262e-16
9.93668e-16
9.9279e-16
9.93557e-16
9.93537e-16
0.000238591
0.000135407
8.66259e-05
5.49154e-10
9.93432e-16
9.93968e-16
9.91888e-16
0.000362735
9.92088e-16
9.93717e-16
0.000119638
0.000111804
9.64709e-05
1e-15
9.9446e-16
9.9406e-16
9.92936e-16
0.000798816
9.98205e-16
1e-15
9.92755e-16
9.99824e-16
0.000102278
0.00234402
0.0023831
0.00223553
0.00259879
0.00349042
1.36922e-15
1e-15
9.92002e-16
2.62197e-06
0.000109264
0.00214666
0.00293983
0.00419554
0.00438276
0.00414768
1e-15
1e-15
9.93511e-16
7.30784e-08
8.98797e-07
0.00112335
0.000488832
0.00089346
0.00157207
0.00287134
1e-15
1e-15
9.91492e-16
9.97863e-16
1.13212e-12
0.000731825
0.000328496
0.000354344
0.000527666
0.00132983
1e-15
1e-15
9.99993e-16
9.92769e-16
9.94709e-16
0.00064055
0.000389414
0.000280971
1.42501e-05
9.97734e-16
9.99999e-16
1e-15
1e-15
1e-15
9.99615e-16
0.00101388
0.000679427
0.00080839
0.000968242
0.000996016
0.000673273
2.36049e-07
9.99938e-16
9.99983e-16
0.000526123
0.0020465
0.00169015
0.00157055
0.0015612
0.00152409
0.00140867
0.00128525
0.00138584
0.0013861
0.0016343
)
;
    }
    outlet
    {
        type            inletOutlet;
        phi             phi.water;
        inletValue      uniform 3.75e-05;
        value           nonuniform List<scalar> 
100
(
0.00771298
1e-15
9.93421e-16
9.99995e-16
0.00571701
0.000657498
0.000565203
0.000490969
0.000539735
0.000599204
3.75e-05
3.75e-05
3.75e-05
3.75e-05
3.75e-05
3.75e-05
3.75e-05
3.75e-05
3.75e-05
3.75e-05
3.75e-05
3.75e-05
3.75e-05
3.75e-05
3.75e-05
3.75e-05
3.75e-05
3.75e-05
3.75e-05
3.75e-05
3.75e-05
3.75e-05
3.75e-05
3.75e-05
3.75e-05
3.75e-05
3.75e-05
3.75e-05
3.75e-05
3.75e-05
3.75e-05
3.75e-05
3.75e-05
3.75e-05
3.75e-05
3.75e-05
3.75e-05
3.75e-05
3.75e-05
3.75e-05
3.75e-05
3.75e-05
3.75e-05
3.75e-05
3.75e-05
3.75e-05
3.75e-05
3.75e-05
3.75e-05
3.75e-05
3.75e-05
3.75e-05
3.75e-05
3.75e-05
3.75e-05
3.75e-05
3.75e-05
3.75e-05
3.75e-05
3.75e-05
3.75e-05
3.75e-05
3.75e-05
3.75e-05
3.75e-05
3.75e-05
3.75e-05
3.75e-05
3.75e-05
3.75e-05
3.75e-05
3.75e-05
3.75e-05
3.75e-05
3.75e-05
0.00228128
0.00125047
0.000628126
0.000200183
9.99615e-16
0.00338421
0.00161269
0.000846737
0.000384396
0.000526123
0.00217508
0.00111624
0.000752008
0.000813913
0.0016343
)
;
    }
}


// ************************************************************************* //
