/*--------------------------------*- C++ -*----------------------------------*\
| =========                 |                                                 |
| \\      /  F ield         | OpenFOAM: The Open Source CFD Toolbox           |
|  \\    /   O peration     | Version:  2.3.0                                 |
|   \\  /    A nd           | Web:      www.OpenFOAM.org                      |
|    \\/     M anipulation  |                                                 |
\*---------------------------------------------------------------------------*/
FoamFile
{
    version     2.0;
    format      ascii;
    class       volScalarField;
    location    "1.40001";
    object      epsilon.air;
}
// * * * * * * * * * * * * * * * * * * * * * * * * * * * * * * * * * * * * * //

dimensions      [0 2 -3 0 0 0 0];

internalField   nonuniform List<scalar> 
10000
(
227.219
273.993
40.713
28.4823
7.92071
1.27269
0.349443
0.137118
0.0715837
0.0340962
0.0532332
0.394332
1.28236
2.55851
6.05163
8.60661
10.977
13.8678
15.2159
47.686
170.025
3401.59
1.60384
132.331
3.36373
0.0452519
0.0242623
0.0209565
0.0136261
0.00816453
0.00248268
0.0110117
0.138096
0.640039
8.29216
12.1423
17.1432
106.712
46.4792
607.004
334.337
19301.2
22.1922
562.562
4.11735
0.178771
0.0235994
0.01775
0.0131067
0.00851827
0.00488451
0.00590574
0.0915086
0.633458
6.61013
9.73061
20.0686
600.333
149.521
3800
523.235
3130.5
3.04398
70.6341
3.02702
0.232149
0.0347894
0.0212228
0.0179567
0.0094753
0.00418135
0.00664187
0.0883395
1.14163
6.16457
9.15712
20.2285
431.345
161.373
4036.12
1004.41
43.5596
0.123188
113.157
3.35914
0.350705
0.120504
0.0487592
0.0436103
0.0255695
0.0125475
0.020751
0.0949621
1.96077
5.46083
8.71666
20.1058
221.763
51.6804
4524.92
1927.53
59.0163
2.02459
246.437
4.93542
0.572279
0.373601
0.385471
0.35427
0.261398
0.0822639
0.0996971
0.221641
2.48895
5.33403
8.92019
22.3
25.194
30.0832
114.441
2349.14
65.3382
35.8325
144.561
7.31019
1.02047
0.875747
1.19356
1.26938
0.826708
0.823428
1.38249
1.94166
3.45029
5.81828
11.5427
80.2008
11.6647
360.282
40.7279
1121.34
60.4766
73.044
241.099
6.82502
1.61087
1.69498
2.56032
2.98654
1.74081
1.80092
3.87044
5.00847
6.36541
8.55298
17.7943
390.372
17.2661
3430.22
129.691
6805.6
142.06
101.124
1175.86
4.25068
2.17262
2.5929
3.58665
4.93816
2.6168
2.41812
8.21994
14.3819
16.4685
18.8224
19.7466
308.057
28.2022
82.0243
849.72
40098
392.516
81.2767
58.046
11.7095
3.73856
4.05834
3.20289
4.03811
3.72887
2.68485
3.69483
4.07262
4.71738
6.07863
11.493
25.4897
138.317
249.206
4092.28
38218.9
527.657
11.0516
15.9543
5.81175
3.11615
3.92285
3.43597
2.95556
2.82158
2.66511
2.48556
2.68782
3.22935
4.47356
9.4409
15.724
809.582
758.522
6065.58
4901.71
1034.78
17.1117
12.4961
5.92073
4.92293
2.57975
3.07652
2.00783
1.91226
2.24586
2.15722
2.56541
3.26126
4.63156
8.85269
12.9673
104.915
3939.17
5469.4
7160.21
4941.35
70.5775
16.9871
9.52086
3.12224
5.13678
3.16301
2.3935
2.17613
2.15423
2.49978
2.73676
3.15445
4.06828
8.58109
19.3404
489.859
3740.37
570.98
509.359
27298.6
149.262
23.1775
29.1015
5.21179
5.36631
3.15529
3.43248
3.46084
1.97782
2.23698
2.57054
3.15381
4.45839
10.258
87.8813
2615.24
89.2847
70.9094
1028.42
25874.3
137.471
23.8331
21.1637
5.45559
5.05158
3.04359
3.41143
3.54555
1.86648
1.86088
2.58006
3.04121
4.22991
10.9682
514.319
57.6519
29.5197
35.7675
4671.12
23049.4
86.0402
22.2985
17.3321
5.14285
4.55246
2.66005
3.59701
3.46059
2.06414
1.97064
2.32124
2.48223
3.8815
11.0476
287.247
8.47221
114.114
135.768
24953.9
15554.2
49.7844
18.2763
13.6987
5.31641
4.33256
2.27484
3.5813
3.37429
2.10006
2.00562
2.13939
2.48385
3.48013
9.0999
126.323
3.07655
540.122
639.796
12488.1
9661.13
26.2196
9.05455
12.4232
4.54637
4.26761
2.54081
3.4759
3.16214
1.80309
2.65005
2.09329
2.34034
4.319
10.454
55.9374
1.23997
361.538
529.35
2816.43
2364.8
2.77179
1.26052
6.69682
2.82456
2.82328
2.29803
2.36771
2.09286
1.49229
2.03875
2.17317
2.39342
3.2621
6.87004
35.3622
0.71599
352.226
509.756
311.074
300.566
0.150538
0.0317625
3.31232
1.55023
2.3256
2.00597
1.98342
1.19541
1.1828
1.27337
1.42144
1.56066
1.75432
5.3377
2.35342
0.0706521
87.8422
127.895
225.287
222.599
42.1205
27.5378
7.89223
1.29872
0.35508
0.134056
0.0675046
0.0314278
0.0521871
0.393852
1.28443
2.55538
5.80545
8.20478
10.4387
13.2556
15.0192
44.183
157.376
2366.14
7.59405
84.9877
3.21742
0.0418885
0.0239818
0.0209148
0.0133138
0.00761453
0.00213119
0.0104009
0.136087
0.612615
8.25657
12.1739
16.747
74.3956
41.369
432.039
267.801
8771.16
26.9644
300.859
3.36852
0.161493
0.0213659
0.0171698
0.0127603
0.00831654
0.00478979
0.00516238
0.0875481
0.54503
6.61379
9.74234
18.1696
283.872
106.712
1991.36
468.615
1482.73
3.4577
81.5459
3.00785
0.197637
0.0279627
0.0191632
0.0163236
0.00865489
0.00350711
0.00480245
0.0841659
0.90633
6.17554
9.16038
18.2813
216.117
93.3401
2125.93
931.494
36.9839
0.198731
87.8005
3.38102
0.293688
0.0831462
0.0371063
0.0351479
0.0188654
0.00924668
0.016484
0.0910331
1.78413
5.45294
8.69651
18.4015
157.904
42.2417
2103.52
1689.21
50.7222
3.03127
137.743
4.63222
0.51138
0.312946
0.283687
0.249081
0.200375
0.0550168
0.0742895
0.179741
2.40773
5.313
8.87718
20.9471
23.7067
17.8389
103.395
2003.38
54.7063
40.0818
129.779
6.70633
0.964958
0.82178
1.11
1.17715
0.781865
0.776371
1.28243
1.77627
3.39387
5.77367
11.2915
64.7834
11.0843
112.025
36.398
970.956
57.42
70.1788
193.253
6.74343
1.59851
1.67062
2.45629
2.82462
1.72429
1.78647
3.65644
4.80701
6.20148
8.39526
16.6055
216.881
12.9978
874.811
91.029
5175.57
124.131
95.0403
568.004
6.36391
2.19471
2.60164
3.50057
4.68872
2.63166
2.4466
7.77686
11.6033
13.8162
16.0547
17.7712
170.453
22.3936
72.7067
544.076
21703.4
304.823
74.9117
54.4751
7.81578
3.22849
3.6023
2.96977
3.6325
3.39225
2.57838
3.48089
3.89202
4.55697
5.86206
10.7202
24.5158
85.6585
217.26
2406.49
20278
447.556
10.0881
15.803
6.67285
3.22063
3.58462
3.16556
2.79179
2.68644
2.5496
2.43072
2.65277
3.19829
4.42151
9.0679
14.8718
305.129
568.442
2837.11
4275.77
929.131
15.1746
12.4908
6.59298
3.99308
2.59444
2.89492
2.01901
1.92129
2.19388
2.16153
2.56977
3.26686
4.64145
8.90116
12.8219
88.0165
1885.19
2633.61
5456.16
3841.23
51.1236
16.9678
9.91628
3.21367
4.57949
2.97228
2.40805
2.18532
2.10826
2.4391
2.68835
3.09268
4.07564
8.02462
17.7294
357.821
1758.69
530.681
427.908
14478.6
90.5056
23.104
21.947
4.33571
4.77545
2.97295
3.22631
3.25697
1.94229
2.1815
2.52031
3.09132
4.34127
9.72971
58.8465
1227.91
74.5212
63.9004
867.402
13610.3
84.0311
23.767
17.868
4.96253
4.52597
2.87557
3.14905
3.33844
1.87246
1.83555
2.5334
2.99044
4.12532
10.4361
227.908
51.1896
21.5394
27.0758
3436.73
11561.9
44.5772
22.2269
14.8947
4.82431
4.07372
2.64549
3.32225
3.26227
2.06557
1.97492
2.28274
2.45629
3.79755
10.7832
166.797
7.34205
67.0883
84.7548
11948.3
7316.06
27.3043
18.2522
11.6731
4.57737
3.87676
2.3138
3.30866
3.18439
2.06079
2.00924
2.14324
2.48861
3.48624
9.0561
82.8537
2.10974
243.811
295.49
5160.13
3982.6
12.0014
9.31106
10.5072
4.05544
3.83862
2.40799
3.23008
2.97993
1.76702
2.54733
2.09969
2.34775
4.05666
8.86798
37.7653
0.76348
173.899
247.627
1013.74
842.175
1.49338
1.51499
7.0246
2.83213
2.62948
2.1582
2.24762
2.01547
1.49844
1.97849
2.10307
2.30473
3.06398
5.86424
19.3682
0.34633
153.625
223.827
93.3376
82.2753
0.0641209
0.038821
3.89774
1.60783
2.12548
1.86826
1.8566
1.20624
1.19132
1.284
1.43692
1.58058
1.78447
4.27441
1.68094
0.0245129
23.2652
34.7852
220.211
184.525
43.0388
26.0848
7.71018
1.29236
0.348026
0.125392
0.0609016
0.0286771
0.0505191
0.385497
1.27145
2.55137
5.68602
8.01847
10.1886
12.7533
14.8412
40.5111
145.817
1504.01
27.6651
48.8319
3.15535
0.0395323
0.0208148
0.0187428
0.0112534
0.00626428
0.00195554
0.00972556
0.131426
0.576864
8.23604
12.2161
16.1745
50.7164
35.1248
292.294
216.114
4003.85
24.2188
144.086
3.04288
0.138048
0.0184113
0.0155717
0.0115676
0.00747373
0.00444104
0.00472176
0.0808576
0.509235
6.62815
9.76978
16.2567
143.248
77.3601
1094.28
405.187
444.322
2.75083
76.6316
3.0039
0.164985
0.0231747
0.0165756
0.0139344
0.00743323
0.00297851
0.00388342
0.0772128
0.773272
6.19542
9.17226
16.3044
117.449
62.1935
1171.39
810.672
35.0437
0.276602
71.8343
3.44865
0.228081
0.0581146
0.0291386
0.0280492
0.0144569
0.00725542
0.0125112
0.085119
1.64448
5.43739
8.6629
16.4119
97.1457
33.7693
1039.81
1312.69
45.3657
4.69783
91.622
4.40427
0.425249
0.24615
0.205148
0.175396
0.147015
0.0385037
0.0569925
0.156856
2.32848
5.27077
8.79933
19.0558
21.4644
12.8413
89.0195
1472.86
48.1816
43.9169
107.83
6.11031
0.878894
0.736474
0.987742
1.04369
0.708411
0.699915
1.13819
1.60041
3.29578
5.68563
10.8756
49.5297
10.4398
26.4886
32.2095
792.422
54.5927
65.1859
147.999
6.34739
1.55713
1.61342
2.27718
2.5671
1.67957
1.73809
3.31971
4.49168
5.92777
8.12579
15.1845
127.33
10.8326
140.418
61.882
3660.92
106.564
85.1365
297.582
6.1005
2.22789
2.60526
3.3497
4.29373
2.64952
2.48581
6.84392
9.6156
11.8265
13.975
16.0988
102.158
17.1361
62.0239
284.573
12128.6
238.088
64.6697
49.4152
7.78155
3.16391
3.37554
2.89909
3.41136
3.21042
2.55219
3.35668
3.78319
4.46102
5.73695
10.3626
23.1824
50.3894
175.306
1175.35
11312.2
377.112
9.24395
15.5632
8.18926
3.43001
3.41073
3.02626
2.70677
2.61581
2.48898
2.40413
2.63788
3.18741
4.40353
8.89878
14.1193
127.519
393.847
1374.88
3366.26
792.86
14.4993
12.5122
7.82696
3.64051
2.62769
2.79933
2.03994
1.93807
2.16777
2.16979
2.57797
3.27741
4.6595
8.99488
12.6071
70.225
932.41
1363.96
3309.65
2800.76
42.0052
17.004
10.934
3.38899
4.23548
2.87252
2.43597
2.20319
2.08542
2.39996
2.65767
3.0531
4.09046
7.77149
15.9775
243.854
879.82
468.645
349.682
7931.07
58.5612
23.0785
18.2452
4.03314
4.41026
2.87839
3.16492
3.12496
1.92446
2.14547
2.48729
3.05098
4.2652
9.25476
38.3769
611.432
58.2765
53.9292
693.638
7367.79
49.6003
23.7125
16.2841
4.60455
4.19967
2.78849
3.02807
3.20411
1.88339
1.84505
2.50388
2.95915
4.05713
9.96128
104.822
43.6505
14.6323
19.0195
2334.67
5947.01
24.7505
22.1491
13.7874
4.56652
3.78023
2.63239
3.14924
3.13313
2.06989
1.98288
2.25809
2.45411
3.74231
10.5032
101.754
6.42086
32.4167
45.3787
5875.47
3514.02
14.5368
18.2391
11.0992
4.25009
3.58805
2.40181
3.13407
3.06068
2.0413
2.01624
2.15032
2.49722
3.49851
9.06738
57.0618
1.59328
104.992
136.588
2183.69
1683.23
5.81418
9.78931
9.72185
3.82566
3.57653
2.36439
3.07438
2.86337
1.74912
2.48174
2.11186
2.36212
3.89189
8.07186
26.7627
0.49851
92.2213
129.696
508.482
391.983
0.790119
1.98823
7.58452
2.85153
2.53069
2.09762
2.18537
1.9766
1.5095
1.94844
2.0676
2.26006
2.96784
5.51281
11.4206
0.164009
70.3613
103.451
17.063
12.3267
0.0483734
0.0613007
4.92978
1.71014
2.02739
1.79934
1.79313
1.22554
1.20626
1.30273
1.46418
1.61568
1.83906
3.94218
0.693759
0.00723598
5.43469
8.35846
216.617
159.069
44.4682
25.6204
7.61561
1.29467
0.347763
0.122555
0.0581643
0.027535
0.0499156
0.3781
1.25092
2.53384
5.64886
7.98312
10.1446
12.4909
14.9728
38.2577
136.66
916.057
46.2328
29.3833
3.17316
0.0393126
0.0171272
0.0161442
0.00953242
0.00559421
0.00175657
0.00939217
0.124581
0.526529
8.20838
12.2705
15.5845
36.0941
29.2807
198.591
177.884
1846.11
18.3926
71.4195
2.9659
0.123201
0.0157941
0.0137609
0.0104458
0.00694889
0.00430514
0.00446694
0.0717091
0.483483
6.64639
9.8177
14.7566
77.6864
57.4686
633.741
347.049
128.42
2.04392
65.2451
3.03062
0.14752
0.0191736
0.0140888
0.0118402
0.00654895
0.00265815
0.00306212
0.067811
0.651705
6.22216
9.20004
14.7397
69.7911
45.7536
680.175
670.919
35.4257
0.383059
60.1337
3.53062
0.177905
0.0395682
0.0224631
0.0214409
0.0113736
0.00586503
0.00931699
0.0772923
1.46561
5.41593
8.62488
14.7683
59.4174
26.72
558.496
924.839
43.5732
8.58065
68.1764
4.24887
0.32895
0.1823
0.135937
0.11385
0.0996959
0.0261198
0.0419875
0.136339
2.2236
5.20988
8.70187
17.2018
19.0362
11.0021
73.483
960.847
45.372
46.196
85.3258
5.62487
0.775548
0.632792
0.850476
0.897603
0.617402
0.605223
0.975689
1.38868
3.16399
5.56246
10.4011
37.8487
9.82609
11.4662
28.9585
636.106
52.1627
58.9267
112.035
5.96823
1.49658
1.53291
2.06998
2.28932
1.61454
1.66116
2.94976
4.13039
5.59346
7.79118
13.909
79.5869
9.68687
31.9011
46.5237
2542.98
92.163
73.1269
170.968
5.84766
2.27988
2.60878
3.19293
3.90129
2.67661
2.53749
5.98804
8.19736
10.3338
12.4221
14.9029
67.2936
13.6204
51.8932
153.326
7061.67
192.954
53.1403
43.8393
9.05522
3.35566
3.31778
2.93819
3.33035
3.14677
2.57946
3.30246
3.7321
4.4167
5.68221
10.29
21.7959
31.2683
134.35
570.374
6756.94
321.647
8.17146
15.2929
10.0237
3.69199
3.35039
2.97866
2.67831
2.59204
2.46819
2.39785
2.63705
3.19008
4.40807
8.86597
13.5841
63.8721
265.885
743.264
2441.57
661.076
14.2556
12.566
9.38931
3.61454
2.67451
2.76504
2.06653
1.9593
2.16032
2.18044
2.58847
3.29096
4.68195
9.11983
12.3866
55.5104
484.282
785.328
1605.35
2006.79
35.3918
17.0683
12.3873
3.59843
4.04925
2.83729
2.47208
2.22673
2.07926
2.37842
2.64135
3.03113
4.10985
7.71814
14.6158
163.258
473.857
391.074
276.821
4505.81
40.0914
23.0868
16.8533
4.03217
4.21268
2.846
3.17405
3.05014
1.91949
2.12514
2.46837
3.02858
4.22197
8.95793
27.4281
324.7
43.3802
43.4821
542.018
4121.21
29.3883
23.6705
15.7819
4.48455
4.02265
2.75876
2.99807
3.12792
1.89628
1.87092
2.48832
2.94337
4.01772
9.67415
56.3273
36.2503
10.0957
13.3414
1546.21
3138.58
14.7144
22.057
13.491
4.48399
3.62455
2.63221
3.05453
3.05936
2.07717
1.99297
2.24456
2.46581
3.70935
10.3044
65.46
5.76296
14.9017
23.8275
2950.35
1724.61
7.83326
18.2131
11.2501
4.17734
3.42662
2.4685
3.03582
2.9901
2.03615
2.02535
2.15922
2.50792
3.51449
9.16015
41.7715
1.29982
47.0227
68.5319
927.082
708.844
2.8089
10.3723
9.61177
3.76671
3.43878
2.37134
2.98902
2.79913
1.74431
2.44615
2.12758
2.38085
3.80218
7.78547
20.0705
0.338605
52.352
74.8804
152.587
111.948
0.398593
2.61772
8.21384
2.88337
2.49902
2.08745
2.16481
1.96527
1.52239
1.93999
2.05689
2.24657
2.94132
5.54067
6.9765
0.0796581
32.6372
48.9423
0.724153
0.574737
0.0754944
0.14474
6.13638
1.82929
1.99888
1.77852
1.77403
1.24801
1.22341
1.32433
1.49566
1.65634
1.9033
4.00517
0.281825
0.0027457
0.943605
1.56812
213.044
139.257
45.6166
25.4352
7.53678
1.29719
0.347689
0.118445
0.0541869
0.0254945
0.0486635
0.37137
1.22717
2.51037
5.63238
7.99687
10.1679
12.2825
15.0139
36.3266
129.958
540.688
49.5668
19.9604
3.26449
0.0389849
0.0137825
0.0138071
0.00809588
0.00484991
0.00158745
0.00878393
0.115976
0.504909
8.17042
12.3425
15.0891
27.2697
24.2103
137.511
149.566
864.421
13.8686
42.3174
3.02137
0.106304
0.0136339
0.0120802
0.00942087
0.00645412
0.00412097
0.00430959
0.0605128
0.467234
6.66586
9.89034
13.6773
46.1409
43.0313
386.412
295.474
58.9665
1.73643
52.9352
3.08925
0.129546
0.0161426
0.0119927
0.0101266
0.00576149
0.00232394
0.00251399
0.0562498
0.562274
6.25386
9.24955
13.5923
45.049
35.261
415.081
527.053
37.8996
0.54839
50.1739
3.59947
0.14487
0.0275317
0.0171137
0.0159036
0.0091325
0.00481802
0.00692297
0.0677906
1.27436
5.39057
8.58891
13.5513
38.4463
21.1031
324.084
629.399
44.3272
15.5517
53.7112
4.12196
0.238647
0.129727
0.085272
0.0710759
0.0646414
0.0177738
0.0298587
0.118065
2.10166
5.13246
8.59781
15.6359
16.7353
9.95372
58.5182
602.176
45.1915
46.9843
66.3943
5.22456
0.657975
0.518277
0.709303
0.75068
0.515859
0.50088
0.809979
1.17016
3.00835
5.41181
9.93789
29.6776
9.30303
9.31588
26.3898
513.675
50.5139
52.2524
84.4216
5.72915
1.41789
1.43368
1.857
2.02391
1.53061
1.55901
2.58965
3.75977
5.23036
7.42286
12.8571
53.3938
8.97416
18.6006
38.9481
1767.39
80.516
60.7802
106.866
6.00305
2.3225
2.60488
3.05962
3.58399
2.7085
2.59538
5.28999
7.18082
9.20954
11.2607
14.0867
48.2631
11.4539
42.0364
102.032
4287.65
161.378
42.5398
38.444
10.508
3.59999
3.35523
3.01297
3.33483
3.15537
2.62211
3.29451
3.71996
4.40647
5.67135
10.3814
20.4911
21.0772
100.172
312.856
4250.07
276.973
6.98934
15.035
11.6008
3.90585
3.35148
2.9804
2.68063
2.59397
2.46922
2.40169
2.64224
3.19751
4.42041
8.8964
13.219
39.2818
180.736
460.718
1700.03
544.715
13.4385
12.655
10.7575
3.69463
2.72249
2.76449
2.09218
1.97973
2.16243
2.19074
2.59871
3.30432
4.70307
9.25132
12.195
44.5757
271.568
502.349
698.223
1434.17
30.9544
17.1047
13.6528
3.76012
3.97276
2.83737
2.50798
2.25039
2.08151
2.36998
2.63548
3.02161
4.12826
7.76475
13.6618
109.582
273.932
305.722
222.817
2650.57
29.5469
23.0608
16.6596
4.11692
4.13153
2.84724
3.20736
3.01785
1.92108
2.1163
2.4599
3.01926
4.20215
8.82175
21.9826
182.938
31.4352
33.9661
411.851
2370.28
17.9331
23.5892
15.8149
4.49983
3.94982
2.75999
3.01328
3.09499
1.9062
1.89731
2.48301
2.93844
3.99845
9.55035
36.5126
29.7619
7.15236
9.3119
992.021
1682.32
8.51623
21.9082
13.5713
4.5128
3.56326
2.64195
3.01515
3.02688
2.08442
2.00284
2.23904
2.48094
3.69155
10.2114
44.845
5.30764
7.62158
13.6459
1469.8
832.249
4.12394
18.1218
11.5594
4.21879
3.35505
2.508
2.99277
2.95918
2.03822
2.03433
2.16785
2.51817
3.52928
9.3087
32.1198
1.12144
22.7301
38.0372
315.398
235.224
1.27351
10.9135
9.74465
3.78905
3.38654
2.39244
2.95423
2.77323
1.74603
2.43293
2.14308
2.39932
3.76533
7.79768
15.5395
0.245239
29.4856
44.9851
9.10547
7.50924
0.381737
3.2943
8.68034
2.91535
2.50274
2.09803
2.1667
1.96813
1.5322
1.94256
2.05906
2.24922
2.94934
5.70224
4.40876
0.0391944
14.3225
22.1828
0.0763561
0.108069
0.142284
0.352594
7.08667
1.92061
2.00541
1.78247
1.77778
1.26518
1.23636
1.34072
1.51961
1.68741
1.95294
4.19605
0.130448
0.00189243
0.137841
0.238183
210.285
125.012
46.5757
25.4414
7.4583
1.29809
0.349573
0.116454
0.0515915
0.0245006
0.0480447
0.36504
1.20179
2.48336
5.58476
7.97284
10.1394
12.1107
15.0548
34.7584
125.33
312.644
47.2342
16.3302
3.39278
0.0394665
0.0111296
0.0119532
0.00698524
0.00429647
0.00143658
0.00837635
0.106235
0.501838
8.11395
12.4355
14.7192
21.9079
20.0118
97.9681
129.906
415.22
13.4515
29.093
3.1474
0.0920559
0.0116575
0.0106183
0.00850667
0.00604632
0.00400283
0.00423386
0.0480577
0.451317
6.68164
9.9915
12.9372
30.5162
32.2696
246.413
252.96
43.9592
1.60875
42.056
3.18235
0.114207
0.0137337
0.0102864
0.0087461
0.00508861
0.00208903
0.00209457
0.0432012
0.498688
6.28815
9.32485
12.7884
31.2214
27.7599
264.565
401.774
42.6718
0.856529
41.7989
3.64771
0.122216
0.0199277
0.0129275
0.0121485
0.0074026
0.00405582
0.00524386
0.0568095
1.07793
5.36336
8.55874
12.6924
26.6154
16.8068
199.582
442.63
47.9478
24.1501
43.685
4.02357
0.171856
0.0905135
0.0514855
0.0434983
0.0408367
0.0122104
0.0203929
0.0999899
1.96049
5.03965
8.49523
14.4168
14.7575
9.19337
45.6772
408.681
47.8162
46.7616
52.1463
4.87827
0.529985
0.40075
0.569113
0.607168
0.410619
0.395066
0.648592
0.95629
2.83523
5.23914
9.52147
24.1724
8.88625
8.65234
24.2946
423.808
49.8389
45.9579
63.7625
5.58756
1.319
1.31746
1.6436
1.77603
1.42649
1.432
2.25162
3.39375
4.85375
7.03557
11.9953
38.6388
8.50763
15.4682
35.4185
1251.95
71.0988
49.691
71.7423
6.32896
2.32593
2.57114
2.94888
3.34654
2.72839
2.64267
4.74611
6.43666
8.34784
10.3768
13.5325
37.1015
10.1638
34.3709
78.9752
2715.67
137.723
34.3125
33.6962
9.1588
3.03799e-05
3.41108
3.03799e-05
3.36614
3.18563
3.03799e-05
3.30555
3.72457
4.40911
5.67392
10.5216
19.3396
16.0855
75.1418
203.295
2760.29
239.529
5.89084
14.8143
9.2564
3.03799e-05
3.03799e-05
3.03799e-05
3.03799e-05
3.03799e-05
3.03799e-05
3.03799e-05
3.03799e-05
3.03799e-05
3.03799e-05
12.8322
12.9664
28.0952
127.246
317.007
1149.52
445.211
12.4605
12.7665
9.27849
3.03799e-05
2.75343
3.03799e-05
2.1081
1.99238
3.03799e-05
2.19696
2.60526
3.31321
4.71537
9.35404
12.0445
36.6676
167.53
345.748
334.719
1026.25
28.6451
17.0366
9.69099
3.03799e-05
3.96131
3.03799e-05
2.53232
2.26622
3.03799e-05
2.36945
2.63543
3.01864
4.13791
7.82705
13.0169
75.3234
169.542
229.93
175.45
1610.6
23.575
22.9111
9.99559
3.03799e-05
4.11854
3.03799e-05
3.23775
3.01268
3.03799e-05
2.1142
2.45753
3.01727
4.19478
8.79525
18.9413
108.979
23.1801
26.333
303.467
1390.22
11.527
23.3996
10.8068
3.03799e-05
3.93784
3.03799e-05
3.03622
3.08952
3.03799e-05
1.91294
2.48354
2.939
3.98924
9.53218
27.4608
24.73
5.0492
6.08086
580.991
892.639
5.29681
21.6469
11.6193
3.03799e-05
3.55454
3.03799e-05
3.00797
3.02056
3.03799e-05
2.00932
2.23796
2.49012
3.68089
10.2067
32.9637
5.00616
4.32597
7.90626
679.315
350.699
2.30357
17.9022
12.287
3.03799e-05
3.33722
3.03799e-05
2.98344
2.95344
3.03799e-05
2.03998
2.17342
2.52462
3.53569
9.45277
25.7033
1.01077
11.0712
21.8909
59.7049
42.4361
0.870801
11.2852
12.7604
3.03799e-05
3.38278
3.03799e-05
2.9499
2.77089
3.03799e-05
2.43386
2.15327
2.41118
3.75863
7.92479
12.3541
0.192269
15.3605
26.1758
0.183038
0.338777
0.491834
3.85853
12.1409
3.03799e-05
3.03799e-05
3.03799e-05
3.03799e-05
3.03799e-05
3.03799e-05
3.03799e-05
3.03799e-05
3.03799e-05
3.03799e-05
7.03304
2.99421
0.0212357
5.24226
8.26828
0.00779133
0.0214139
0.227815
0.618511
11.0423
0.000244047
0.000244047
0.000244047
0.000244047
0.000244047
0.000244047
0.000244047
0.000244047
0.000244047
0.000244047
4.63758
0.123629
0.00182063
0.0360781
0.0627765
207.647
114.27
47.4136
25.5142
7.37054
1.29646
0.351869
0.114436
0.0489255
0.0231145
0.0470773
0.358973
1.1756
2.45365
5.52978
7.92019
10.0811
11.9805
15.1003
33.4703
122.275
182.865
45.7743
14.7518
3.53554
0.0393888
0.0093581
0.0105868
0.00600817
0.00376404
0.00129252
0.00784452
0.0960872
0.49909
8.03347
12.553
14.4731
18.6423
16.661
71.8202
117.662
209.12
17.4462
22.3549
3.29796
0.0775424
0.00983005
0.0094087
0.00776652
0.00569361
0.00386879
0.00419888
0.0356155
0.423649
6.68873
10.1251
12.4635
22.2718
24.2648
161.259
216.966
41.2621
1.54397
33.6532
3.30376
0.0993756
0.011683
0.00887294
0.00762261
0.00448997
0.00185601
0.0017947
0.0301138
0.455294
6.32241
9.42641
12.2555
23.0856
22.0703
173.212
315.77
50.1757
1.38617
35.0996
3.67824
0.105441
0.0151416
0.0101314
0.00990908
0.00603694
0.00348193
0.00409963
0.0446936
0.892581
5.33661
8.54167
12.1139
19.678
13.6267
128.046
336.49
54.5254
32.3256
36.4342
3.92279
0.131128
0.0634606
0.0309254
0.0268737
0.0257314
0.00854936
0.0133999
0.0808416
1.80006
4.93195
8.39621
13.5228
13.1187
8.57548
35.7875
317.417
53.0534
45.9697
42.0426
4.55757
0.401607
0.290373
0.43427
0.470038
0.309698
0.296214
0.497097
0.75769
2.64946
5.04848
9.15596
20.5165
8.57267
8.26309
22.572
359.933
50.588
40.6217
48.843
5.46156
1.16048
1.14828
1.42803
1.53939
1.28313
1.28049
1.93535
3.03644
4.47054
6.63518
11.2756
30.0778
8.20703
13.9999
33.3212
908.898
63.5842
40.8314
51.4007
6.70044
2.26381
2.48027
2.81151
3.12382
2.70463
2.63932
4.27542
5.81777
7.60857
9.6134
13.0327
30.1231
9.38829
29.1017
66.1147
1792.74
118.558
28.788
29.6784
11.7479
3.03799e-05
3.03799e-05
3.03799e-05
3.03799e-05
3.03799e-05
3.03799e-05
3.03799e-05
3.03799e-05
3.03799e-05
3.03799e-05
15.187
18.3677
13.5744
58.5453
150.67
1848.21
206.764
5.13853
14.6492
11.6907
3.03799e-05
3.03799e-05
3.03799e-05
3.03799e-05
3.03799e-05
3.03799e-05
3.03799e-05
3.03799e-05
3.03799e-05
3.03799e-05
12.7675
12.7727
22.2694
94.2354
232.442
752.894
361.216
11.6028
12.8963
11.4386
3.03799e-05
3.03799e-05
3.03799e-05
3.03799e-05
3.03799e-05
3.03799e-05
3.03799e-05
3.03799e-05
3.03799e-05
3.03799e-05
11.3024
11.9326
31.0603
113.741
249.951
185.459
733.77
26.8951
16.8899
11.4755
3.03799e-05
3.03799e-05
3.03799e-05
3.03799e-05
3.03799e-05
3.03799e-05
3.03799e-05
3.03799e-05
3.03799e-05
3.03799e-05
10.0517
12.589
54.2607
112.52
172.282
127.007
1005.66
19.9758
22.6347
11.708
3.03799e-05
3.03799e-05
3.03799e-05
3.03799e-05
3.03799e-05
3.03799e-05
3.03799e-05
3.03799e-05
3.03799e-05
3.03799e-05
9.61861
17.0811
69.4478
18.2091
21.5666
197.45
817.823
8.38394
23.0987
12.3054
3.03799e-05
3.03799e-05
3.03799e-05
3.03799e-05
3.03799e-05
3.03799e-05
3.03799e-05
3.03799e-05
3.03799e-05
3.03799e-05
9.54422
22.693
21.2439
3.71004
3.60208
289.897
436.219
3.87916
21.2658
13.0216
3.03799e-05
3.03799e-05
3.03799e-05
3.03799e-05
3.03799e-05
3.03799e-05
3.03799e-05
3.03799e-05
3.03799e-05
3.03799e-05
9.97566
25.9377
4.82952
2.18059
3.50368
261.045
107.922
1.84975
17.5262
13.7439
3.03799e-05
3.03799e-05
3.03799e-05
3.03799e-05
3.03799e-05
3.03799e-05
3.03799e-05
3.03799e-05
3.03799e-05
3.03799e-05
9.89777
21.2678
0.944939
4.62762
10.8513
5.20274
3.56866
0.979307
11.419
13.9271
3.03799e-05
3.03799e-05
3.03799e-05
3.03799e-05
3.03799e-05
3.03799e-05
3.03799e-05
3.03799e-05
3.03799e-05
3.03799e-05
8.94708
10.086
0.165743
6.45829
12.5331
0.0141189
0.0606372
0.671524
4.18772
12.4741
3.03799e-05
3.03799e-05
3.03799e-05
3.03799e-05
3.03799e-05
3.03799e-05
3.03799e-05
3.03799e-05
3.03799e-05
3.03799e-05
7.15304
2.18725
0.0152028
1.28033
1.95034
0.00290615
0.0123115
0.333155
0.750777
11.9197
0.000244047
0.000244047
0.000244047
0.000244047
0.000244047
0.000244047
0.000244047
0.000244047
0.000244047
0.000244047
4.73949
0.111353
0.00190366
0.0179538
0.0306259
205.106
107.071
48.2769
25.6322
7.27354
1.29203
0.354767
0.113163
0.0466673
0.0221882
0.0463888
0.35314
1.14917
2.4218
5.47153
7.87401
10.0321
11.8886
15.1627
32.4971
121.138
112.41
47.1236
14.09
3.67969
0.0389328
0.00820122
0.0096113
0.00514059
0.00332138
0.00116914
0.00741883
0.0863088
0.495277
7.92357
12.699
14.3417
16.6104
14.0589
54.2071
111.102
115.897
33.7405
18.7224
3.44792
0.0641529
0.00815379
0.00840773
0.00714645
0.00539191
0.00376024
0.00415786
0.0250191
0.384389
6.68223
10.296
12.2004
17.6156
18.4394
108.871
190.53
43.9685
1.57449
27.533
3.44204
0.0859177
0.0098384
0.00767172
0.00667257
0.00395149
0.0016662
0.00155904
0.0193832
0.425413
6.35334
9.55443
11.9403
18.1357
17.6506
116.577
263.444
59.9068
2.97468
29.9336
3.69471
0.0929211
0.0120213
0.00848231
0.00836071
0.00508181
0.00304057
0.00332851
0.0322354
0.728557
5.31299
8.54056
11.7561
15.5209
11.3158
84.489
280.748
64.3037
39.0695
31.1993
3.79976
0.105413
0.0456216
0.0192148
0.0172654
0.0165305
0.00616279
0.00858733
0.0614776
1.62101
4.80935
8.29928
12.9101
11.7951
8.06186
28.7503
282.459
61.3562
44.8774
34.9421
4.26642
0.291322
0.200444
0.311263
0.344093
0.222481
0.212018
0.361008
0.581353
2.45474
4.84295
8.83212
18.1228
8.35818
7.97052
21.1308
312.973
53.0046
36.2712
38.5807
5.30372
0.9654
0.946796
1.20912
1.30835
1.11177
1.1088
1.63864
2.68968
4.085
6.22478
10.6585
24.9386
8.02899
13.1031
31.3063
680.965
57.8975
34.4066
39.2754
6.97204
2.12341
2.32504
2.65054
2.90868
2.6301
2.58083
3.86274
5.28131
6.95306
8.92797
12.5466
25.5547
8.91174
25.634
57.891
1236.7
101.895
25.4265
26.3659
14.0249
3.03799e-05
3.03799e-05
3.03799e-05
3.03799e-05
3.03799e-05
3.03799e-05
3.03799e-05
3.03799e-05
3.03799e-05
3.03799e-05
14.9831
17.5681
12.1514
48.1627
120.915
1281.85
176.978
4.77055
14.5355
13.7308
3.03799e-05
3.03799e-05
3.03799e-05
3.03799e-05
3.03799e-05
3.03799e-05
3.03799e-05
3.03799e-05
3.03799e-05
3.03799e-05
12.6985
12.6213
18.9852
73.5098
176.768
459.396
290.904
10.7986
13.0188
13.1284
3.03799e-05
3.03799e-05
3.03799e-05
3.03799e-05
3.03799e-05
3.03799e-05
3.03799e-05
3.03799e-05
3.03799e-05
3.03799e-05
11.2583
11.8476
27.2154
84.0262
188.733
104.534
519.961
25.6082
16.7188
12.8488
3.03799e-05
3.03799e-05
3.03799e-05
3.03799e-05
3.03799e-05
3.03799e-05
3.03799e-05
3.03799e-05
3.03799e-05
3.03799e-05
10.128
12.3071
41.5655
80.2753
132.682
74.2148
638.087
17.5905
22.2761
13.018
3.03799e-05
3.03799e-05
3.03799e-05
3.03799e-05
3.03799e-05
3.03799e-05
3.03799e-05
3.03799e-05
3.03799e-05
3.03799e-05
9.68326
15.9009
48.1939
15.6432
20.1827
88.6765
465.976
6.61214
22.7159
13.4329
3.03799e-05
3.03799e-05
3.03799e-05
3.03799e-05
3.03799e-05
3.03799e-05
3.03799e-05
3.03799e-05
3.03799e-05
3.03799e-05
9.58944
19.8676
19.1307
3.12928
2.51321
110.217
169.663
3.3057
20.7878
14.0927
3.03799e-05
3.03799e-05
3.03799e-05
3.03799e-05
3.03799e-05
3.03799e-05
3.03799e-05
3.03799e-05
3.03799e-05
3.03799e-05
9.90178
21.6538
4.76664
1.01967
1.01387
63.176
19.2969
1.9023
17.0099
14.9279
3.03799e-05
3.03799e-05
3.03799e-05
3.03799e-05
3.03799e-05
3.03799e-05
3.03799e-05
3.03799e-05
3.03799e-05
3.03799e-05
9.83953
18.1249
0.912678
1.19409
2.9177
0.282
0.289807
1.18183
11.319
14.781
3.03799e-05
3.03799e-05
3.03799e-05
3.03799e-05
3.03799e-05
3.03799e-05
3.03799e-05
3.03799e-05
3.03799e-05
3.03799e-05
8.99187
8.44802
0.152394
1.55413
3.47256
0.00693191
0.0402769
0.838513
4.33823
12.2138
3.03799e-05
3.03799e-05
3.03799e-05
3.03799e-05
3.03799e-05
3.03799e-05
3.03799e-05
3.03799e-05
3.03799e-05
3.03799e-05
7.23294
1.71039
0.0134863
0.170233
0.219175
0.00312407
0.0131776
0.445121
0.822177
12.1422
0.000244047
0.000244047
0.000244047
0.000244047
0.000244047
0.000244047
0.000244047
0.000244047
0.000244047
0.000244047
4.80196
0.104641
0.0019852
0.00648601
0.00710694
202.422
102.919
49.4052
25.7669
7.16553
1.28414
0.358082
0.112239
0.0446286
0.0212043
0.0456017
0.347524
1.12292
2.3883
5.41117
7.82656
9.98511
11.8258
15.2376
31.7701
121.716
75.6391
48.7251
13.8972
3.81192
0.0379391
0.00735094
0.00896065
0.00439753
0.0029164
0.00104866
0.00695015
0.0775763
0.490295
7.78136
12.8782
14.3113
15.2939
12.0756
42.1204
108.499
76.331
53.1501
16.8347
3.57894
0.0520913
0.00670686
0.00756599
0.00660442
0.00513353
0.00364948
0.00409989
0.01801
0.358961
6.65866
10.5106
12.1048
14.8714
14.321
75.4215
173.686
50.3365
1.81651
23.2418
3.58033
0.073658
0.008194
0.00661494
0.00583282
0.00345919
0.00148575
0.00137386
0.0132668
0.402334
6.37605
9.70861
11.8056
15.0685
14.2166
80.1982
234.023
72.5227
7.97288
26.1433
3.69835
0.0836244
0.00985169
0.00731614
0.00719149
0.00442792
0.00268474
0.00279601
0.0209934
0.59255
5.2957
8.56083
11.5812
12.996
9.65555
57.0067
253.618
77.7568
44.2897
27.4901
3.68423
0.088362
0.0338707
0.0127703
0.0118146
0.0110427
0.00460701
0.00559073
0.0447213
1.42632
4.6713
8.20335
12.5332
10.8042
7.62542
23.9704
266.956
73.795
43.5023
29.9756
4.00769
0.209101
0.136748
0.209117
0.236791
0.154897
0.146905
0.246465
0.431256
2.25394
4.62498
8.54034
16.606
8.24164
7.73666
19.9573
280.011
56.6361
32.9451
31.7771
5.07614
0.755055
0.732022
0.987497
1.08046
0.922817
0.923183
1.35952
2.35453
3.7
5.80594
10.1106
21.7475
7.9506
12.5147
29.2396
535.42
54.078
30.2363
31.8602
7.06462
1.91921
2.11665
2.47101
2.69717
2.51076
2.47417
3.49381
4.80212
6.35765
8.29522
12.0597
22.5247
8.61819
23.3584
52.2482
884.329
86.8224
23.2851
23.8193
15.8534
3.03799e-05
3.03799e-05
3.03799e-05
3.03799e-05
3.03799e-05
3.03799e-05
3.03799e-05
3.03799e-05
3.03799e-05
3.03799e-05
14.812
16.8983
11.2741
41.5861
102.098