/*--------------------------------*- C++ -*----------------------------------*\
| =========                 |                                                 |
| \\      /  F ield         | OpenFOAM: The Open Source CFD Toolbox           |
|  \\    /   O peration     | Version:  2.3.0                                 |
|   \\  /    A nd           | Web:      www.OpenFOAM.org                      |
|    \\/     M anipulation  |                                                 |
\*---------------------------------------------------------------------------*/
FoamFile
{
    version     2.0;
    format      ascii;
    class       volScalarField;
    location    "0.16";
    object      alpha.water;
}
// * * * * * * * * * * * * * * * * * * * * * * * * * * * * * * * * * * * * * //

dimensions      [0 0 0 0 0 0 0];

internalField   nonuniform List<scalar> 
545
(
1
1
1
1
1
1
1
1
1
1
1
1
1
1
1
1
1
1
1
1
1
1
1
1
1
1
1
1
1
1
1
1
1
1
1
1
1
1
1
1
1
1
1
1
1
1
1
1
1
1
1
1
1
1
1
1
1
1
1
1
1
1
1
1
1
1
1
1
1
1
1
1
1
1
1
1
1
1
1
1
1
1
1
1
1
1
1
1
1
1
1
1
1
1
1
1
1
1
1
1
1
1
1
1
1
1
1
1
1
1
1
1
1
1
1
1
1
1
1
0.999999
0.999999
0.999999
0.999999
0.999999
0.999999
0.999999
0.999999
0.999999
0.999999
0.999999
0.999999
0.999999
0.999999
0.999999
0.999999
0.999999
0.999999
0.999999
0.999999
0.999999
0.999999
0.999999
0.999999
0.999999
0.999999
0.999999
0.999999
0.999999
0.999999
0.999999
0.999999
0.999999
0.999999
0.999999
0.999999
0.999999
0.999999
0.999999
0.999999
0.999999
1
1
0.999989
0.999974
0.999955
0.99994
0.999934
0.999933
0.999934
0.999936
0.999938
0.999939
0.999939
0.999939
0.999939
0.999939
0.999938
0.999938
0.999938
0.999938
0.999938
0.999938
0.999938
0.999938
0.999938
0.999938
0.999938
0.999938
0.999938
0.999938
0.999938
0.999938
0.999938
0.999938
0.999938
0.999938
0.999938
0.999938
0.999938
0.999938
0.999938
0.999938
0.999938
0.999938
0.999938
1
1
0.998415
0.998452
0.997576
0.996137
0.994383
0.994677
0.994846
0.995099
0.99533
0.995484
0.99555
0.995548
0.995506
0.995452
0.995407
0.995379
0.995367
0.995369
0.995378
0.995387
0.995396
0.995401
0.995403
0.995402
0.9954
0.995397
0.995395
0.995394
0.995394
0.995395
0.995395
0.995396
0.995397
0.995396
0.995395
0.995394
0.995392
0.995389
0.995387
0.995388
0.995389
0.99539
0.995391
0.271336
0.345208
0.450699
0.771774
0.865126
0.520505
0.46045
0.456562
0.458413
0.598517
0.978609
0.769304
0.563852
0.554207
0.551727
0.552927
0.605854
0.963076
0.798634
0.47573
0.491326
0.550624
0.526404
0.526417
0.704693
0.995543
0.866971
0.494424
0.497703
0.494015
0.507609
0.45832
0.519727
0.723615
0.973832
0.995595
0.935971
0.6866
0.216913
0.23374
0.283255
0.26397
0.264315
0.264061
0.759778
1
1
1
1
1
1
1
1
1
1
1
1
1
1
1
1
1
1
1
1
1
1
1
1
1
1
1
0.998415
0.998452
0.997576
0.996136
0.994383
0.994676
0.994846
0.995099
0.995329
0.995482
0.995547
0.995543
0.995501
0.995446
0.995401
0.995372
0.99536
0.99536
0.995368
0.995377
0.995385
0.995389
0.995392
0.995391
0.995388
0.995383
0.995381
0.995377
0.995377
0.995376
0.995376
0.995377
0.995377
0.995375
0.995371
0.995366
0.995362
0.995357
0.995354
0.995352
0.995351
0.995352
0.995354
1
1
0.999989
0.999974
0.999955
0.99994
0.999933
0.999932
0.999934
0.999936
0.999938
0.999939
0.999939
0.999939
0.999939
0.999938
0.999938
0.999938
0.999938
0.999938
0.999938
0.999938
0.999938
0.999938
0.999938
0.999938
0.999938
0.999938
0.999938
0.999938
0.999938
0.999938
0.999938
0.999938
0.999938
0.999938
0.999938
0.999938
0.999938
0.999938
0.999938
0.999938
0.999938
0.999938
0.999938
1
1
1
1
0.999999
0.999999
0.999999
0.999999
0.999999
0.999999
0.999999
0.999999
0.999999
0.999999
0.999999
0.999999
0.999999
0.999999
0.999999
0.999999
0.999999
0.999999
0.999999
0.999999
0.999999
0.999999
0.999999
0.999999
0.999999
0.999999
0.999999
0.999999
0.999999
0.999999
0.999999
0.999999
0.999999
0.999999
0.999999
0.999999
0.999999
0.999999
0.999999
0.999999
0.999999
1
1
1
1
1
1
1
1
1
1
1
1
1
1
1
1
1
1
1
1
1
1
1
1
1
1
1
1
1
1
1
1
1
1
1
1
1
1
1
1
1
1
1
1
1
1
1
1
1
1
1
1
1
1
1
1
1
1
1
1
1
1
1
1
1
1
1
1
1
1
1
1
1
1
1
1
1
1
1
1
1
1
1
1
1
1
1
1
1
1
)
;

boundaryField
{
    AirInlet
    {
        type            fixedValue;
        value           uniform 0;
    }
    WaterInlet
    {
        type            fixedValue;
        value           uniform 1;
    }
    ChannelWall
    {
        type            zeroGradient;
    }
    Outlet
    {
        type            inletOutlet;
        inletValue      uniform 0;
        value           nonuniform List<scalar> 
11
(
1
1
0.999999
0.999938
0.995391
0.759778
0.995354
0.999938
0.999999
1
1
)
;
    }
    FrontAndBack
    {
        type            empty;
    }
}


// ************************************************************************* //
