/*--------------------------------*- C++ -*----------------------------------*\
| =========                 |                                                 |
| \\      /  F ield         | OpenFOAM: The Open Source CFD Toolbox           |
|  \\    /   O peration     | Version:  2.3.0                                 |
|   \\  /    A nd           | Web:      www.OpenFOAM.org                      |
|    \\/     M anipulation  |                                                 |
\*---------------------------------------------------------------------------*/
FoamFile
{
    version     2.0;
    format      ascii;
    class       volScalarField;
    location    "0.95";
    object      k.air;
}
// * * * * * * * * * * * * * * * * * * * * * * * * * * * * * * * * * * * * * //

dimensions      [0 2 -2 0 0 0 0];

internalField   nonuniform List<scalar> 
6000
(
0.816618
0.924486
0.947643
0.949564
0.955839
0.971542
0.99038
1.00255
1.00497
0.995395
0.978649
0.975076
0.985707
0.983623
0.975017
0.982685
0.994822
0.999894
0.998975
1.02075
1.06675
1.12619
1.1995
1.24415
1.17074
1.06929
1.00642
0.967475
0.918527
0.827875
0.60656
0.915478
0.982783
0.990768
1.00053
1.03209
1.07177
1.10835
1.13575
1.11651
1.07874
1.07393
1.06393
1.05825
1.04615
1.04527
1.06473
1.08328
1.10604
1.14193
1.20957
1.33058
1.56922
1.85214
1.80059
1.44506
1.20548
1.04677
0.873377
0.553242
0.499982
0.838899
0.940284
0.978277
1.01695
1.06039
1.08405
1.10127
1.11139
1.0963
1.07843
1.07907
1.07921
1.09879
1.10208
1.10247
1.10897
1.12137
1.16616
1.2293
1.31208
1.43677
1.68659
2.0412
2.10765
1.65282
1.27651
1.03617
0.780737
0.393039
0.452517
0.789916
0.893544
0.94428
0.991482
1.0421
1.07559
1.09381
1.09941
1.08986
1.07269
1.08256
1.09153
1.117
1.12155
1.13477
1.15081
1.15774
1.19742
1.26281
1.35816
1.50828
1.7805
2.02619
2.08957
1.78439
1.34671
1.04918
0.7505
0.339173
0.435689
0.741603
0.839115
0.89162
0.942028
0.998429
1.05207
1.07889
1.08689
1.08648
1.07846
1.09163
1.10728
1.13907
1.15381
1.18323
1.20522
1.20953
1.25168
1.33072
1.45121
1.64894
1.85309
1.95433
1.97478
1.86031
1.43003
1.08947
0.766694
0.332803
0.416165
0.68244
0.784416
0.854511
0.915309
0.966499
1.02031
1.06095
1.07242
1.08454
1.09253
1.11101
1.13858
1.17832
1.20665
1.2494
1.28025
1.29266
1.34957
1.46204
1.62541
1.79134
1.85043
1.93211
1.92782
1.82133
1.50162
1.15628
0.824382
0.358736
0.374594
0.630352
0.762439
0.853813
0.915884
0.961103
1.00317
1.04974
1.07189
1.09263
1.11722
1.14606
1.19013
1.23914
1.27668
1.33195
1.3754
1.40965
1.50926
1.63943
1.73655
1.76903
1.79127
1.85572
1.85431
1.7342
1.5229
1.22866
0.868929
0.386219
0.316161
0.595336
0.768577
0.87253
0.934941
0.977153
1.01403
1.05167
1.08175
1.11812
1.15786
1.20221
1.26484
1.32312
1.36597
1.43134
1.4997
1.57015
1.65319
1.69812
1.69178
1.68963
1.70102
1.71826
1.70519
1.61327
1.4446
1.20592
0.88629
0.392549
0.304456
0.613489
0.81784
0.932376
0.990327
1.02637
1.06394
1.09483
1.12458
1.16884
1.22151
1.28582
1.36979
1.43414
1.47421
1.55108
1.64537
1.67914
1.67285
1.64276
1.62422
1.61884
1.60451
1.58366
1.54268
1.45597
1.30874
1.11711
0.878807
0.392809
0.334931
0.731214
0.971961
1.08315
1.13162
1.15963
1.19097
1.21894
1.24224
1.27806
1.32995
1.40569
1.50078
1.56176
1.58769
1.65036
1.67643
1.6548
1.61866
1.58684
1.57276
1.55807
1.52373
1.47667
1.41349
1.32133
1.19273
1.03547
0.861457
0.384784
0.419379
0.830677
1.05245
1.15917
1.21998
1.26765
1.3147
1.35472
1.3841
1.41729
1.46489
1.53638
1.62142
1.66332
1.66163
1.66518
1.63966
1.61041
1.57705
1.55093
1.53718
1.51741
1.46983
1.40524
1.32587
1.22828
1.10916
0.972036
0.825233
0.373539
0.418007
0.816492
1.01599
1.12569
1.20353
1.28117
1.35919
1.414
1.4514
1.48529
1.53271
1.60121
1.68083
1.70823
1.69237
1.65365
1.62225
1.59054
1.56006
1.5372
1.52322
1.50373
1.44745
1.3684
1.2764
1.17245
1.0567
0.928882
0.794718
0.383104
0.398681
0.764056
0.941788
1.05412
1.14818
1.25164
1.35178
1.41672
1.45769
1.49441
1.54017
1.60013
1.66789
1.69755
1.68836
1.65103
1.61852
1.58754
1.56125
1.54232
1.52976
1.51477
1.45273
1.36189
1.25813
1.14676
1.02872
0.902448
0.775789
0.378508
0.369495
0.703454
0.874203
0.986578
1.09039
1.21323
1.33544
1.41317
1.46053
1.50192
1.55048
1.60851
1.67167
1.7006
1.68831
1.65318
1.62316
1.59652
1.57586
1.56154
1.55015
1.54085
1.47781
1.3754
1.26252
1.14402
1.01988
0.888689
0.757736
0.350289
0.339674
0.647022
0.8121
0.924294
1.03714
1.17579
1.31901
1.41584
1.47338
1.52148
1.57185
1.62814
1.69012
1.72824
1.70806
1.67117
1.64206
1.62005
1.60373
1.58918
1.57115
1.56053
1.5088
1.40262
1.28232
1.15611
1.0251
0.887379
0.731693
0.32211
0.309325
0.584871
0.74638
0.864678
0.990026
1.14169
1.30511
1.42404
1.49405
1.54679
1.598
1.65329
1.71666
1.77561
1.75366
1.71102
1.67811
1.65698
1.6407
1.61699
1.58199
1.56094
1.52675
1.42902
1.31064
1.18304
1.04509
0.897207
0.733791
0.323184
0.272921
0.511457
0.679094
0.814122
0.953815
1.11722
1.29782
1.43389
1.51437
1.57217
1.62386
1.67861
1.74197
1.81087
1.81032
1.76256
1.72602
1.70529
1.67975
1.63423
1.58386
1.54928
1.51987
1.44186
1.33389
1.21622
1.07955
0.922039
0.755366
0.342682
0.232462
0.438205
0.624913
0.781646
0.935452
1.11007
1.30284
1.44817
1.5341
1.59371
1.64464
1.69827
1.75851
1.82366
1.85836
1.8205
1.78163
1.75347
1.7069
1.64634
1.59102
1.54415
1.49851
1.43816
1.33862
1.2364
1.10488
0.948256
0.78502
0.365873
0.197049
0.392368
0.599476
0.772754
0.941054
1.12566
1.32638
1.47984
1.55937
1.61452
1.66053
1.7107
1.76821
1.82933
1.88135
1.88374
1.83961
1.79322
1.73416
1.67264
1.61642
1.56017
1.49357
1.42278
1.33344
1.22553
1.096
0.953364
0.787871
0.365065
0.175234
0.386474
0.604433
0.790322
0.974566
1.16932
1.37585
1.53814
1.60113
1.6427
1.68003
1.7246
1.77839
1.83581
1.89319
1.94694
1.90658
1.84271
1.78355
1.72733
1.66859
1.60269
1.52157
1.43038
1.34038
1.22256
1.08797
0.957879
0.795527
0.368023
0.17131
0.40188
0.635623
0.838735
1.03727
1.2396
1.44979
1.62478
1.66737
1.68878
1.71574
1.75293
1.80145
1.85782
1.922
2.00263
1.98228
1.91007
1.85844
1.8076
1.74224
1.66138
1.56896
1.47737
1.38975
1.26593
1.13256
1.01571
0.871078
0.422009
0.180297
0.449585
0.699487
0.914114
1.12118
1.32837
1.54081
1.73149
1.7623
1.76032
1.77635
1.80625
1.85035
1.90836
1.97591
2.04836
2.04161
1.9813
1.94661
1.90585
1.83566
1.73108
1.62374
1.53399
1.45552
1.35337
1.24286
1.13338
0.976664
0.484625
0.209128
0.525507
0.784842
1.00634
1.2172
1.42657
1.64005
1.84593
1.87937
1.857
1.86477
1.8899
1.93358
1.99409
2.06003
2.10882
2.08916
2.05376
2.04146
2.00701
1.91782
1.79909
1.68298
1.58814
1.50473
1.39734
1.27833
1.14348
0.953857
0.453782
0.256379
0.615125
0.882375
1.10698
1.31872
1.52826
1.74103
1.95454
2.01056
1.97309
1.97912
2.00523
2.05098
2.11304
2.17691
2.20127
2.1557
2.12324
2.11531
2.05074
1.92457
1.79601
1.68079
1.57887
1.4783
1.37163
1.24467
1.09152
0.876298
0.396908
0.30659
0.709951
0.98431
1.21132
1.4238
1.63269
1.84284
2.05557
2.14048
2.09799
2.1114
2.1432
2.19191
2.25246
2.3043
2.29606
2.23632
2.18239
2.12513
2.0174
1.8862
1.75958
1.64302
1.53481
1.42823
1.3143
1.18088
1.02088
0.805694
0.36887
0.355132
0.804109
1.08728
1.31851
1.53301
1.74189
1.94978
2.15993
2.26514
2.22457
2.24784
2.28534
2.33455
2.37846
2.39017
2.3555
2.295
2.21522
2.11402
1.98338
1.84726
1.71945
1.59993
1.4866
1.37541
1.25935
1.12745
0.969415
0.764177
0.358526
0.40136
0.896444
1.19136
1.42893
1.6469
1.8569
2.06369
2.27088
2.38438
2.34646
2.37247
2.413
2.45142
2.45157
2.42469
2.38271
2.3171
2.21601
2.0896
1.9508
1.81363
1.68362
1.56058
1.44313
1.32823
1.21107
1.08204
0.931485
0.739437
0.355961
0.446605
0.988098
1.29728
1.54281
1.76516
1.97648
2.18106
2.38193
2.49389
2.45857
2.48051
2.51755
2.51982
2.47893
2.43892
2.39406
2.31727
2.20109
2.06436
1.92473
1.7883
1.65747
1.5329
1.41318
1.29504
1.17573
1.04815
0.904368
0.722782
0.354755
0.492588
1.08008
1.4055
1.65993
1.88688
2.09877
2.29858
2.48675
2.58517
2.55886
2.57715
2.59612
2.55245
2.50512
2.46367
2.40846
2.31914
2.19502
2.05488
1.91344
1.77645
1.6451
1.51899
1.39731
1.27691
1.15526
1.02719
0.884583
0.707201
0.351735
0.539662
1.1733
1.51603
1.77944
2.0106
2.22244
2.41671
2.58677
2.66451
2.65762
2.67007
2.64338
2.59804
2.5645
2.5219
2.45536
2.35492
2.22472
2.07844
1.92964
1.7868
1.65151
1.52165
1.39546
1.27118
1.1465
1.01549
0.869918
0.690441
0.345514
0.587183
1.26874
1.62873
1.90042
2.13503
2.34822
2.54081
2.68997
2.75402
2.77151
2.74864
2.7047
2.68854
2.66824
2.62655
2.55539
2.44987
2.31431
2.15764
1.99244
1.83374
1.68664
1.54767
1.41289
1.28062
1.14867
1.01188
0.860676
0.673838
0.337387
0.640655
1.36883
1.74336
2.02111
2.26051
2.47956
2.67439
2.80983
2.86922
2.87044
2.8301
2.82378
2.82807
2.81637
2.7787
2.70752
2.59976
2.45988
2.29593
2.1176
1.93752
1.76744
1.61092
1.46205
1.31555
1.16848
1.01928
0.858942
0.659429
0.327842
0.712771
1.47456
1.85655
2.1432
2.39337
2.62067
2.81666
2.9452
2.99793
2.99389
2.98849
3.0009
3.01425
3.01279
2.98364
2.9147
2.80402
2.65619
2.48172
2.29157
2.09607
1.90392
1.72256
1.55331
1.38928
1.22282
1.05064
0.8686
0.649915
0.314356
0.75342
1.56985
1.97092
2.27514
2.5407
2.77533
2.96579
3.09442
3.16659
3.19215
3.21052
3.23389
3.2569
3.26896
3.25176
3.18566
3.06873
2.90768
2.71621
2.50892
2.29611
2.085
1.881
1.68779
1.50324
1.31775
1.12214
0.906735
0.652599
0.307334
0.774657
1.6273
2.07318
2.41482
2.70643
2.95509
3.15279
3.29746
3.39283
3.45098
3.49293
3.53082
3.56797
3.59763
3.59832
3.53011
3.40178
3.2196
3.00259
2.76968
2.53351
2.3004
2.07414
1.85808
1.65106
1.44459
1.22874
0.98722
0.68115
0.310887
0.758233
1.63725
2.15734
2.56211
2.89855
3.18052
3.40372
3.56911
3.68858
3.77391
3.83821
3.89442
3.94934
4.00493
4.02994
3.9606
3.81112
3.59298
3.34057
3.07324
2.80531
2.54429
2.2929
2.05312
1.82273
1.59368
1.35629
1.09282
0.748693
0.329812
0.712369
1.61487
2.23791
2.72656
3.12553
3.45969
3.72595
3.91811
4.05874
4.16201
4.24324
4.31324
4.38535
4.45573
4.48486
4.41106
4.25856
4.02833
3.72466
3.41364
3.10655
2.8105
2.52909
2.26221
2.00655
1.75379
1.49577
1.21181
0.847636
0.373152
0.709127
1.61986
2.32135
2.90367
3.38479
3.79346
4.13033
4.36547
4.50434
4.61512
4.69962
4.7701
4.84035
4.88984
4.85418
4.76726
4.63756
4.44998
4.14741
3.78187
3.42754
3.09038
2.77293
2.47422
2.18978
1.91197
1.63305
1.33913
0.977067
0.453736
0.748357
1.72052
2.47306
3.09486
3.67288
4.18232
4.595
4.86682
5.01635
5.12438
5.2028
5.25256
5.28703
5.29957
5.12567
4.9839
4.87055
4.76572
4.54328
4.17092
3.75596
3.37126
3.01299
2.67809
2.36337
2.0626
1.77352
1.46939
1.10504
0.523987
0.878794
1.96675
2.73434
3.3667
3.97096
4.55538
5.055
5.38304
5.59832
5.7064
5.76021
5.75822
5.73537
5.66024
5.38659
5.19984
5.07201
4.98773
4.86492
4.51089
4.07613
3.63601
3.23599
2.86551
2.52671
2.22056
1.91672
1.59545
1.20797
0.558875
1.03071
2.27216
3.05552
3.70429
4.30629
4.89039
5.42829
5.84316
6.15149
6.37814
6.39222
6.29427
6.19972
5.96002
5.65947
5.44138
5.29383
5.19501
5.09044
4.77728
4.32742
3.86664
3.43175
3.04233
2.70055
2.38023
2.0598
1.71577
1.28963
0.58554
1.15723
2.55064
3.37045
4.0396
4.6557
5.24677
5.81712
6.31814
6.6609
7.00276
7.09236
6.85428
6.70228
6.3005
5.94893
5.69571
5.52082
5.39757
5.26807
4.97627
4.52715
4.06526
3.62794
3.23379
2.87514
2.5367
2.19928
1.83443
1.37578
0.625145
1.26591
2.79262
3.66082
4.35951
5.00077
5.61761
6.22146
6.79088
7.20076
7.48679
7.70782
7.36514
7.12624
6.63921
6.24458
5.95817
5.75801
5.61711
5.47647
5.16459
4.71545
4.26111
3.82636
3.42153
3.04538
2.68872
2.33504
1.95453
1.4782
0.680383
1.36197
3.00731
3.92923
4.66616
5.34147
5.99301
6.63185
7.24754
7.74287
7.95878
8.17363
7.79741
7.4432
6.94652
6.53758
6.23039
6.01291
5.86569
5.71273
5.3603
4.89834
4.44497
4.01182
3.60259
3.21559
2.84393
2.47444
2.07929
1.58809
0.732226
1.44766
3.19937
4.17539
4.95471
5.66976
6.36165
7.04191
7.70501
8.29152
8.47294
8.59927
8.18817
7.72678
7.23602
6.82908
6.51229
6.28545
6.13308
5.94384
5.54554
5.07827
4.62398
4.191
3.77932
3.38597
3.00402
2.62048
2.20847
1.69486
0.777299
1.52227
3.36792
4.39748
5.22155
5.98011
6.71697
7.44357
8.1571
8.82776
9.00902
9.02116
8.58399
8.01667
7.52423
7.12366
6.80347
6.57247
6.40314
6.14339
5.7204
5.25702
4.80308
4.36864
3.95371
3.55466
3.16393
2.76759
2.33757
1.79598
0.820566
1.583
3.50865
4.59147
5.46258
6.26828
7.05489
7.83443
8.6057
9.35216
9.52928
9.44185
8.99861
8.32827
7.82156
7.42191
7.10248
6.86681
6.64972
6.31824
5.89435
5.43849
4.98494
4.54781
4.12796
3.72182
3.32125
2.91148
2.4628
1.89277
0.862877
1.62439
3.61456
4.75318
5.67298
6.53019
7.37355
8.21867
9.06645
9.86665
10.043
9.87186
9.43938
8.66204
8.12691
7.72779
7.41148
7.15451
6.86338
6.49573
6.07637
5.62602
5.17171
4.72989
4.30342
3.88845
3.47649
3.05221
2.58457
1.98706
0.904435
1.67524
3.67767
4.87464
5.84923
6.76195
7.67081
8.59475
9.52849
10.3696
10.585
10.322
9.90067
9.03234
8.45006
8.05462
7.73629
7.43004
7.0821
6.69432
6.27012
5.81966
5.36315
4.91535
4.48064
4.05536
3.63085
3.19128
2.70446
2.08003
0.94553
1.75353
3.78013
4.98293
5.98479
6.96191
7.94331
8.95693
9.98659
10.8656
11.1425
10.7695
10.3913
9.47525
8.81129
8.40862
8.07496
7.7221
7.33192
6.91457
6.47422
6.01792
5.55744
5.10336
4.6597
4.22329
3.78546
3.33008
2.82379
2.17249
0.986402
1.82006
3.91999
5.13001
6.13436
7.12917
8.18898
9.29371
10.4008
11.3311
11.7039
11.2277
10.9274
10.0391
9.27764
8.80516
8.43546
8.03862
7.60242
7.148
6.68581
6.22026
5.75451
5.29397
4.84117
4.39318
3.94154
3.46987
2.94374
2.26523
1.02734
1.87446
4.04693
5.28608
6.3172
7.32223
8.38567
9.52463
10.6588
11.6284
12.108
11.6808
11.4262
10.6574
9.86735
9.29929
8.83692
8.36828
7.88061
7.39055
6.90629
6.42899
5.95647
5.48881
5.02647
4.56645
4.10049
3.61202
3.06552
2.35921
1.06877
1.89223
4.15021
5.42616
6.48417
7.49933
8.53681
9.61971
10.7135
11.6805
12.1862
11.9089
11.6393
11.1736
10.4607
9.83941
9.27915
8.72197
8.17515
7.65088
7.14444
6.65173
6.16832
5.69109
5.21788
4.74492
4.26389
3.75794
3.19043
2.45551
1.11122
1.89488
4.21384
5.51315
6.58392
7.60367
8.62445
9.66068
10.7001
11.6049
11.9598
11.8413
11.613
11.3948
10.9555
10.3644
9.72762
9.09106
8.4965
7.94033
7.41147
6.89876
6.39812
5.90604
5.41866
4.93081
4.43344
3.9091
3.31976
2.55529
1.1553
1.90344
4.23979
5.55075
6.6244
7.64036
8.65349
9.67562
10.6829
11.4598
11.6602
11.6633
11.527
11.3478
11.1847
10.7708
10.128
9.45489
8.83177
8.25931
7.71173
7.17547
6.65164
6.13849
5.63214
5.12634
4.61077
4.06678
3.45465
2.65963
1.2016
1.9015
4.24201
5.55972
6.62991
7.64044
8.64998
9.67075
10.6636
11.2859
11.4248
11.4605
11.3801
11.2423
11.1379
10.9095
10.4023
9.7722
9.17485
8.6157
8.04908
7.48344
6.93
6.39001
5.85991
5.3328
4.79689
4.23186
3.59589
2.76934
1.25062
1.89062
4.21929
5.55593
6.62098
7.6199
8.62011
9.63318
10.5815
11.08
11.2375
11.2919
11.2476
11.1465
11.0425
10.9057
10.551
10.0319
9.52014
8.9997
8.42283
7.8197
7.22897
6.6576
6.10038
5.54944
4.99153
4.40435
3.74364
2.88462
1.30252
1.93078
4.20183
5.52931
6.58499
7.58598
8.54702
9.52961
10.4174
10.8879
11.0852
11.1746
11.1724
11.1046
10.9963
10.9022
10.6749
10.2794
9.87221
9.377
8.79414
8.15963
7.53389
6.93134
6.3469
5.77238
5.19266
4.58324
3.89725
3.0047
1.35678
1.98497
4.25332
5.55578
6.57075
7.49733
8.41928
9.35932
10.2037
10.7157
10.9682
11.1007
11.1484
11.1153
11.0083
10.9271
10.798
10.5122
10.1137
9.63817
9.08151
8.447
7.81028
7.19013
6.58714
5.99493
5.39689
4.76666
4.0551
3.12745
1.41207
1.94777
4.25163
5.51727
6.51876
7.43103
8.2914
9.15518
9.98547
10.555
10.8568
11.0433
11.1456
11.1456
11.0547
10.9672
10.8733
10.649
10.2503
9.81911
9.30464
8.68214
8.04686
7.42304
6.81358
6.21252
5.6015
4.95242
4.21401
3.248
1.46588
1.95202
4.20064
5.43171
6.41294
7.29657
8.12632
8.90991
9.71893
10.3436
10.7063
10.9671
11.1414
11.1787
11.0915
10.9944
10.9027
10.7042
10.3727
9.99829
9.50932
8.89355
8.25977
7.63618
7.02848
6.42681
5.8066
5.14079
4.37391
3.36274
1.51238
1.9583
4.14591
5.34031
6.27682
7.11344
7.90482
8.6452
9.40491
10.0398
10.5046
10.8663
11.1282
11.2231
11.1427
11.0444
10.9735
10.8088
10.521
10.1834
9.6971
9.089
8.45964
7.839
7.2444
6.64578
6.012
5.32676
4.5298
3.44154
1.58611
1.94759
4.09984
5.25486
6.14304
6.92933
7.67835
8.40769
9.12015
9.73829
10.2631
10.7356
11.1011
11.2644
11.2303
11.1643
11.1274
10.9825
10.7042
10.3642
9.86853
9.27171
8.64983
8.03999
7.43498
6.84136
6.19869
5.48889
4.66236
3.57416
1.68104
1.91051
4.04872
5.17428
6.02864
6.78057
7.48474
8.19791
8.88277
9.49359
10.0308
10.5238
10.9507
11.2719
11.3358
11.3334
11.3545
11.2157
10.9198
10.5529
10.0384
9.44892
8.83401
8.21644
7.64358
7.05645
6.40678
5.68163
4.84847
3.76621
1.77123
1.859
3.98518
5.09127
5.92887
6.66674
7.35136
8.02225
8.6846
9.30039
9.8601
10.3694
10.8295
11.2133
11.4563
11.4983
11.5837
11.4572
11.1553
10.7451
10.218
9.63795
9.02511
8.44056
7.84663
7.22996
6.56928
5.83877
4.99747
3.89732
1.85579
1.81854
3.92299
5.01727
5.84766
6.58043
7.26444
7.91271
8.54919
9.16128
9.76329
10.3448
10.871
11.3075
11.6114
11.6799
11.7483
11.676
11.391
10.9459
10.4301
9.84769
9.26459
8.65957
8.03769
7.38244
6.69407
5.95329
5.10871
3.99341
1.88465
1.78627
3.86219
4.95209
5.78409
6.52014
7.21008
7.85997
8.48465
9.11157
9.77266
10.435
11.065
11.6289
12.0399
12.0129
11.9663
11.9316
11.6322
11.1988
10.6742
10.1179
9.51354
8.88053
8.22671
7.53674
6.82305
6.06558
5.20957
4.07911
1.89943
1.74502
3.79588
4.89397
5.73493
6.48137
7.18328
7.84603
8.47875
9.14269
9.86392
10.6217
11.3976
12.1712
12.8014
12.5849
12.3741
12.2569
11.9357
11.4971
10.9451
10.4059
9.7792
9.12149
8.41752
7.69304
6.95232
6.17322
5.29649
4.14224
1.91481
1.69998
3.72404
4.8441
5.69935
6.45949
7.17778
7.85812
8.51645
9.22768
10.0077
10.8584
11.7915
12.8121
13.6718
13.2514
12.9095
12.6505
12.2599
11.8193
11.2866
10.6944
10.0641
9.36117
8.60044
7.83669
7.06536
6.26135
5.36254
4.1855
1.93
1.6708
3.68202
4.80564
5.6733
6.44863
7.18909
7.893
8.58748
9.3385
10.1658
11.0889
12.1398
13.3696
14.3473
13.8477
13.4374
13.0196
12.5618
12.1715
11.6932
11.0554
10.3727
9.57481
8.75631
7.95248
7.15159
6.32513
5.40872
4.21732
1.93763
1.68346
3.69247
4.7924
5.65111
6.44725
7.21781
7.95189
8.68218
9.46139
10.3159
11.2709
12.3741
13.6414
14.531
14.1301
13.819
13.3336
12.8785
12.5463
12.061
11.4147
10.6067
9.72382
8.86149
8.02747
7.20503
6.36339
5.43693
4.23775
1.94281
1.72704
3.72482
4.82472
5.67996
6.4865
7.27509
8.0386
8.79938
9.59565
10.453
11.4029
12.483
13.6259
14.2751
14.0344
13.8992
13.5141
13.092
12.7628
12.2984
11.6029
10.695
9.77908
8.90039
8.05402
7.22251
6.37583
5.44942
4.25492
1.95115
1.77677
3.79675
4.93334
5.79375
6.58942
7.37391
8.16083
8.94549
9.75005
10.5979
11.5073
12.4861
13.4509
13.827
13.7455
13.686
13.4047
13.0318
12.7185
12.3391
11.5763
10.6511
9.74478
8.87493
8.03335
7.20404
6.36176
5.44401
4.27245
1.97612
1.83755
3.91984
5.09972
5.97564
6.74026
7.51133
8.32243
9.12782
9.94493
10.7803
11.6083
12.4556
13.22
13.4155
13.405
13.3489
13.1056
12.8168
12.5844
12.238
11.4395
10.5304
9.64944
8.80143
7.97405
7.15124
6.31332
5.39821
4.25009
2.01867
1.90056
4.10128
5.27973
6.17801
6.93958
7.70656
8.53407
9.35981
10.1784
10.9404
11.6697
12.4046
12.9417
13.0771
13.0904
13.0217
12.8071
12.5947
12.4409
12.0729
11.2623
10.3802
9.52937
8.70626
7.89368
7.07239
6.22223
5.28523
4.18898
2.03739
1.9491
4.26817
5.47782
6.39721
7.18412
7.96059
8.79359
9.60422
10.3353
10.9773
11.6364
12.2547
12.6589
12.7987
12.8243
12.7416
12.5462
12.3887
12.287
11.8648
11.0548
10.2205
9.41265
8.61732
7.81543
6.98589
6.0927
5.08699
3.93409
1.89258
1.98992
4.39211
5.67226
6.62156
7.45165
8.24865
9.03849
9.72514
10.3112
10.8666
11.4585
12.007
12.3738
12.534
12.5776
12.49
12.3113
12.1841
12.0863
11.6006
10.8154
10.0571
9.31788
8.55891
7.76141
6.91708
5.9796
4.88172
3.58391
1.61428
2.03089
4.49376
5.81868
6.81802
7.68648
8.47105
9.14034
9.69778
10.2155
10.7283
11.2454
11.7185
12.0536
12.2353
12.304
12.2283
12.0884
11.9682
11.8181
11.2972
10.59
9.92421
9.25474
8.52942
7.74
6.88225
5.91493
4.75905
3.30198
1.40626
2.06628
4.57137
5.91538
6.93205
7.82255
8.55341
9.12476
9.64508
10.1316
10.5921
11.0282
11.417
11.7106
11.8989
11.9867
11.944
11.8599
11.7485
11.5403
11.036
10.4207
9.7957
9.15618
8.47455
7.72653
6.88719
5.92302
4.78315
3.29094
1.38155
2.0866
4.6145
5.96339
6.98165
7.87628
8.55841
9.09679
9.60455
10.0654
10.4709
10.821
11.1303
11.38
11.5552
11.6458
11.6519
11.6181
11.5381
11.3095
10.853
10.2723
9.66917
9.0494
8.39604
7.69507
6.90699
5.99943
4.92327
3.51839
1.52225
2.08552
4.61186
5.9532
6.97486
7.86039
8.52537
9.06904
9.58203
10.0278
10.3796
10.6407
10.8787
11.09
11.2411
11.3338
11.3853
11.3901
11.3482
11.1321
10.6948
10.1441
9.56188
8.9522
8.30588
7.62377
6.88234
6.04261
5.05345
3.77667
1.73391
2.06544
4.56235
5.88841
6.90684
7.78948
8.45538
9.01862
9.55671
10.0091
10.3204
10.5002
10.6742
10.8621
11.0032
11.1162
11.1991
11.2235
11.2004
10.99
10.5708
10.0434
9.46954
8.85309
8.19924
7.51473
6.79016
5.99155
5.06225
3.87218
1.77343
2.0316
4.47387
5.77629
6.7866
7.65886
8.35398
8.95479
9.49812
9.96382
10.267
10.4005
10.5196
10.7013
10.8629
11.0194
11.1197
11.1567
11.1323
10.9088
10.4869
9.95667
9.35413
8.72238
8.07092
7.39737
6.69048
5.92234
5.03179
3.87392
1.75766
1.967
4.34478
5.63551
6.6434
7.51132
8.24572
8.87152
9.43946
9.87321
10.1739
10.3211
10.4245
10.6075
10.8148
11.0258
11.1362
11.1929
11.154
10.9002
10.4428
9.84144
9.21525
8.57633
7.93235
7.27345
6.58773
5.85411
4.99523
3.85626
1.74556
1.71218
4.13333
5.48236
6.52805
7.42595
8.18892
8.81793
9.35275
9.79182
10.0535
10.2454
10.4043
10.5809
10.8381
11.0965
11.2387
11.3215
11.2733
10.9368
10.3539
9.708
9.05521
8.41591
7.78173
7.13896
6.47863
5.80127
4.98005
3.84752
1.74077
1.68858
3.91401
5.3254
6.459
7.42406
8.24418
8.89266
9.36036
9.71423
9.97685
10.1834
10.4374
10.6121
10.9054
11.2011
11.3845
11.5012
11.4101
10.8915
10.2289
9.55659
8.89673
8.2505
7.61248
6.9794
6.32344
5.66577
4.90882
3.86462
1.80195
1.67676
3.7862
5.16334
6.42746
7.51395
8.43741
9.15026
9.56317
9.75852
9.97592
10.2216
10.5099
10.7019
10.9946
11.2918
11.5118
11.6853
11.3885
10.7927
10.1066
9.41203
8.73132
8.06071
7.39812
6.77233
6.21185
5.60829
4.88703
3.84477
1.80147
1.64885
3.7175
5.07651
6.43855
7.6904
8.76929
9.60685
9.99585
10.0585
10.1255
10.3927
10.6498
10.8358
11.0906
11.3525
11.6377
11.8243
11.4165
10.766
10.0173
9.28669
8.55571
7.90459
7.29179
6.6939
6.09581
5.45985
4.7286
3.72674
1.72732
1.65989
3.6855
5.03222
6.51488
7.93646
9.17257
10.046
10.4337
10.4699
10.4521
10.5855
10.8051
10.9587
11.2001
11.484
11.8592
12.0999
11.6861
10.9216
10.0212
9.21426
8.51865
7.85182
7.19073
6.54106
5.9085
5.26038
4.52417
3.54283
1.63171
1.67664
3.69565
5.04267
6.62922
8.22556
9.45032
10.1622
10.4706
10.5944
10.6499
10.7344
10.8965
11.0934
11.3859
11.7785
12.3309
12.7357
12.2341
11.2704
10.1754
9.23529
8.44387
7.70321
6.99541
6.33154
5.69552
5.04565
4.31521
3.36054
1.53156
1.69729
3.83801
5.25048
6.79896
8.34143
9.41379
9.867
10.1161
10.3235
10.5158
10.7194
10.9565
11.2105
11.5622
12.0639
12.7885
13.3045
12.6306
11.4664
10.1845
9.11325
8.24025
7.47052
6.76318
6.10542
5.47421
4.82915
4.10661
3.1709
1.43502
1.77047
4.13045
5.70345
7.11391
8.38701
9.1563
9.46084
9.7081
9.95813
10.2194
10.5089
10.84
11.2055
11.5839
12.0759
12.7233
13.0103
12.3616
11.1597
9.88883
8.83206
7.96352
7.20717
6.51804
5.87399
5.25127
4.61445
3.90544
2.99462
1.34691
1.88271
4.41561
6.03455
7.27902
8.20966
8.75811
9.07468
9.35222
9.64059
9.94871
10.2775
10.636
11.0297
11.41
11.7831
12.1652
12.2918
11.7281
10.6284
9.4861
8.51176
7.68171
6.95023
6.2803
5.64894
5.03569
4.40941
3.71537
2.83844
1.27346
1.98433
4.60136
6.12809
7.20311
7.91247
8.40213
8.74277
9.04282
9.34958
9.67875
10.032
10.3953
10.7529
11.0658
11.3293
11.5378
11.5947
11.1025
10.1308
9.12142
8.23082
7.44163
6.73182
6.07531
5.45034
4.8414
4.22199
3.54135
2.68863
1.19915
2.04418
4.66908
6.0987
7.03363
7.66521
8.12478
8.46691
8.77046
9.07252
9.39484
9.74353
10.0949
10.419
10.6918
10.9071
11.0707
11.1345
10.6826
9.78289
8.86142
8.03161
7.27132
6.57578
5.92547
5.30267
4.69338
4.07348
3.39778
2.5524
1.12374
2.09061
4.6751
6.01185
6.84029
7.46366
7.90956
8.23759
8.52906
8.81277
9.11444
9.43787
9.76411
10.0635
10.3234
10.541
10.74
10.8664
10.4637
9.59384
8.71703
7.92247
7.17848
6.48995
5.84474
5.22581
4.6193
4.00148
3.32801
2.49339
1.10064
2.18056
4.60019
5.8429
6.63963
7.28977
7.74372
8.04903
8.31529
8.57372
8.84858
9.14333
9.44268
9.72793
9.99118
10.2394
10.4993
10.7157
10.384
9.52868
8.66531
7.88526
7.15135
6.46902
5.83075
5.22242
4.63074
4.02996
3.37094
2.57026
1.20548
2.2035
4.47103
5.62936
6.44517
7.13057
7.61396
7.89766
8.12665
8.35447
8.60203
8.86979
9.14791
9.42603
9.70394
9.99226
10.3193
10.6308
10.3947
9.54938
8.67804
7.89753
7.17076
6.49639
5.86799
5.27391
4.70116
4.12232
3.47541
2.66355
1.25274
2.04661
4.29274
5.41394
6.25005
6.96808
7.49988
7.77642
7.96276
8.15688
8.37652
8.62099
8.88324
9.15999
9.45553
9.78508
10.1748
10.5845
10.4625
9.63134
8.74005
7.94624
7.22091
6.55241
5.93065
5.34438
4.77456
4.17505
3.50538
2.67715
1.19767
1.9402
4.10676
5.21096
6.05643
6.79587
7.38383
7.67653
7.82437
7.9821
8.17399
8.3973
8.64745
8.92469
9.23809
9.60352
10.0463
10.5395
10.5591
9.75623
8.84206
8.02535
7.2915
6.6208
5.99481
5.39521
4.78577
4.14637
3.45786
2.62358
1.17549
1.83475
3.93009
5.02105
5.8677
6.61912
7.25802
7.59082
7.71085
7.83222
7.99529
8.19846
8.43742
8.7152
9.04234
9.43702
9.92227
10.4898
10.6705
9.9164
8.97842
8.13175
7.37774
6.69116
6.04001
5.39272
4.73642
4.0704
3.37055
2.5421
1.14383
1.75226
3.77531
4.8478
5.69008
6.44708
7.12434
7.51422
7.6225
7.70816
7.84187
8.02371
8.25085
8.52629
8.86285
9.27854
9.79816
10.4267
10.788
10.1086
9.14507
8.26403
7.47867
6.75509
6.05123
5.35189
4.66076
3.97439
3.26188
2.40782
1.02988
1.689
3.64501
4.69561
5.52956
6.28737
6.99052
7.4431
7.55759
7.6112
7.71378
7.87246
8.08477
8.35436
8.69411
9.12375
9.66894
10.3476
10.8765
10.3232
9.34012
8.4211
7.59061
6.80935
6.04669
5.30051
4.57882
3.877
3.15169
2.25481
0.906811
1.63074
3.5302
4.56345
5.3879
6.14397
6.86313
7.37526
7.51417
7.54081
7.61131
7.74327
7.93732
8.1964
8.53377
8.96825
9.52672
10.2297
10.889
10.5471
9.5676
8.59979
7.71194
6.86709
6.04538
5.2502
4.50222
3.78765
3.06105
2.27706
0.995365
1.58121
3.43331
4.4495
5.26518
6.01859
6.74687
7.31049
7.48959
7.49746
7.53386
7.63561
7.80706
8.05131
8.3793
8.8098
9.36712
10.0721
10.8076
10.7506
9.81535
8.79403
7.84654
6.93972
6.05668
5.21785
4.43794
3.71591
3.03487
2.27101
0.999693
1.53849
3.34764
4.3507
5.15976
5.91052
6.64492
7.25212
7.48402
7.4803
7.48145
7.54854
7.69326
7.91767
8.23062
8.64769
9.18988
9.87372
10.637
10.8789
10.0559
8.99792
7.99844
7.0365
6.10168
5.21602
4.42361
3.70925
3.01195
2.22158
0.959739
1.49568
3.27069
4.265
5.06926
5.81774
6.55611
7.20136
7.49493
7.4885
7.45175
7.48228
7.5955
7.7963
8.08866
8.48515
9.00077
9.64942
10.3995
10.8754
10.2706
9.22084
8.17554
7.16931
6.1969
5.27484
4.45712
3.7268
3.01936
2.21141
0.942082
1.46366
3.20699
4.19418
4.99398
5.7385
6.4768
7.15354
7.5186
7.5178
7.44418
7.43522
7.51492
7.68843
7.95663
8.32659
8.80894
9.41308
10.1277
10.7483
10.4742
9.47476
8.38216
7.33926
6.34273
5.39775
4.55425
3.79492
3.06655
2.23561
0.944271
1.44963
3.16268
4.14486
4.94011
5.67785
6.4085
7.10158
7.54279
7.564
7.45406
7.40555
7.45248
7.59664
7.83797
8.1785
8.62397
9.18055
9.84186
10.5089
10.6147
9.73814
8.61262
7.54157
6.52683
5.57241
4.69951
3.89992
3.1377
2.28208
0.959482
1.46834
3.15806
4.13297
4.92077
5.64723
6.36449
7.05921
7.56334
7.62196
7.48038
7.39268
7.40856
7.52319
7.73682
8.04614
8.45396
8.96251
9.56749
10.2133
10.5773
9.95941
8.86407
7.7679
6.73452
5.77016
4.87464
4.04289
3.24234
2.3495
0.985567
1.54596
3.22355
4.18097
4.95199
5.66187
6.3606
7.04583
7.5889
7.69259
7.52117
7.39646
7.38307
7.47023
7.65559
7.93368
8.30384
8.76598
9.31398
9.91276
10.3869
10.1504
9.14353
8.00732
6.95144
5.97656
5.0709
4.21652
3.37839
2.44373
1.02178
1.62912
3.33913
4.28914
5.04117
5.73317
6.41216
7.08267
7.64515
7.78091
7.57841
7.417
7.37646
7.4377
7.59502
7.84266
8.17719
8.59627
9.09356
9.64151
10.1378
10.1999
9.36014
8.23035
7.16188
6.17896
5.27103
4.40898
3.54132
2.56128
1.06949
1.55701
3.41057
4.39827
5.16731
5.85548
6.52185
7.18207
7.75568
7.89674
7.6552
7.45812
7.38773
7.42363
7.55357
7.77225
8.07415
8.45585
8.91003
9.41342
9.88629
10.0742
9.48818
8.43926
7.35987
6.36932
5.46443
4.60364
3.71801
2.69903
1.12756
1.53011
3.41955
4.45135
5.26893
5.99926
6.67617
7.34273
7.92924
8.04979
7.7577
7.52138
7.41789
7.42606
7.52892
7.72063
7.99372
8.34401
8.76407
9.22998
9.67003
9.88498
9.53306
8.59949
7.53555
6.54223
5.64122
4.78077
3.89075
2.84828
1.1971
1.54899
3.42643
4.47547
5.33179
6.11704
6.85141
7.55533
8.15839
8.23452
7.88551
7.6072
7.46648
7.4429
7.51992
7.68652
7.93541
8.26148
8.65654
9.09749
9.51396
9.72797
9.46304
8.66924
7.68027
6.69434
5.79316
4.93158
4.04359
2.99034
1.27254
1.57557
3.4417
4.49899
5.37922
6.21156
7.01725
7.79604
8.42167
8.43799
8.03623
7.71434
7.53329
7.47645
7.5266
7.67086
7.90028
8.20923
8.58957
9.01619
9.4204
9.62028
9.3674
8.67735
7.772
6.81699
5.91543
5.05259
4.16449
3.10626
1.34387
1.39195
3.44076
4.52931
5.42288
6.29401
7.16731
8.03186
8.68767
8.64263
8.20344
7.84149
7.61995
7.52877
7.55179
7.67605
7.89094
8.18944
8.56314
8.98693
9.38734
9.56911
9.29796
8.64171
7.80565
6.8973
6.00316
5.14287
4.25384
3.18863
1.39504
1.56455
3.49813
4.51822
5.44765
6.35639
7.29362
8.24066
8.92076
8.83494
8.38246
7.98942
7.7304
7.60513
7.60177
7.70578
7.90875
8.20204
8.57583
9.0035
9.40858
9.56953
9.25434
8.59213
7.79669
6.932
6.05743
5.20383
4.31419
3.23961
1.43153
1.63412
3.54349
4.55686
5.42907
6.38874
7.38738
8.39103
9.08792
9.01446
8.57579
8.16312
7.87011
7.71136
7.68102
7.76685
7.9586
8.2483
8.62511
9.06391
9.47637
9.6083
9.2343
8.54286
7.75948
6.92919
6.08173
5.23957
4.35248
3.27116
1.46137
1.61243
3.51697
4.54
5.40623
6.40242
7.44949
8.45258
9.17297
9.17981
8.79186
8.36882
8.04342
7.85047
7.79233
7.85944
8.04145
8.32926
8.71284
9.16829
9.59252
9.68259
9.23331
8.50022
7.70819
6.89901
6.07767
5.25296
4.37885
3.3031
1.49139
1.56959
3.46665
4.51936
5.38856
6.37556
7.47372
8.45304
9.20106
9.35291
9.04081
8.6108
8.25048
8.02127
7.93327
7.98017
8.15105
8.43753
8.83109
9.31302
9.74993
9.77312
9.2374
8.46707
7.65782
6.85551
6.05748
5.25214
4.39506
3.33397
1.52388
1.51612
3.39216
4.48671
5.39141
6.33058
7.41906
8.42808
9.24392
9.56188
9.3248
8.88103
8.48154
8.21321
8.09438
8.11971
8.27895
8.5646
8.97305
9.48808
9.93644
9.87022
9.2462
8.44132
7.62016
6.81975
6.03442
5.24323
4.39709
3.34764
1.55455
1.46138
3.28809