/*--------------------------------*- C++ -*----------------------------------*\
| =========                 |                                                 |
| \\      /  F ield         | OpenFOAM: The Open Source CFD Toolbox           |
|  \\    /   O peration     | Version:  2.3.0                                 |
|   \\  /    A nd           | Web:      www.OpenFOAM.org                      |
|    \\/     M anipulation  |                                                 |
\*---------------------------------------------------------------------------*/
FoamFile
{
    version     2.0;
    format      ascii;
    class       volVectorField;
    location    "0.95";
    object      U.particles;
}
// * * * * * * * * * * * * * * * * * * * * * * * * * * * * * * * * * * * * * //

dimensions      [0 1 -1 0 0 0 0];

internalField   nonuniform List<vector> 
6000
(
(-0.0346955 -0.385743 0)
(-0.0608642 -0.356639 0)
(-0.0352349 -0.298606 0)
(-0.00440972 -0.283209 0)
(0.0391858 -0.292474 0)
(0.0779821 -0.367435 0)
(0.0616987 -0.398336 0)
(-0.00074821 -0.38483 0)
(-0.0655845 -0.365794 0)
(-0.0637002 -0.388709 0)
(-0.0482557 -0.39389 0)
(-0.0276459 -0.334318 0)
(-0.0677458 -0.275854 0)
(-0.0908008 -0.273225 0)
(-0.0593704 -0.213288 0)
(0.0377729 -0.214943 0)
(0.0984167 -0.239153 0)
(0.139731 -0.330073 0)
(0.135543 -0.457508 0)
(0.145271 -0.444232 0)
(0.155213 -0.370063 0)
(0.207817 -0.289214 0)
(0.260964 -0.236621 0)
(0.277078 -0.221167 0)
(0.221966 -0.192797 0)
(-0.0109285 -0.23624 0)
(-0.0714241 -0.349466 0)
(-0.0363827 -0.37126 0)
(-0.0616253 -0.303632 0)
(-0.0318156 -0.170372 0)
(-0.0219025 -0.0650493 0)
(-0.0475549 0.0142233 0)
(-0.0346734 -0.037512 0)
(-0.0206038 -0.0530845 0)
(0.000533719 -0.0394673 0)
(0.059988 -0.0145892 0)
(0.115879 -0.0494727 0)
(0.0856701 -0.105806 0)
(0.0394946 -0.0782181 0)
(-0.0069046 0.0739039 0)
(-0.0940749 0.102648 0)
(-0.122854 0.0233526 0)
(-0.124218 -0.0021901 0)
(-0.125494 0.031564 0)
(-0.050088 -0.0719546 0)
(-0.0103832 -0.104217 0)
(0.0258085 -0.0676311 0)
(0.0724729 -0.0258949 0)
(0.0969432 0.0159403 0)
(0.154869 0.057107 0)
(0.202804 0.0564779 0)
(0.264206 -0.00737439 0)
(0.344847 0.00759368 0)
(0.359089 0.104669 0)
(0.287428 0.0674001 0)
(0.0591601 0.0545287 0)
(-0.0767616 0.16302 0)
(-0.121422 0.169474 0)
(-0.101247 0.0967683 0)
(-0.0379851 -0.0103046 0)
(-0.0384754 -0.0049746 0)
(-0.0556822 -0.0568108 0)
(-0.0456201 -0.0837446 0)
(-0.0418802 -0.0961249 0)
(-0.0205377 -0.0972104 0)
(0.01894 -0.0837051 0)
(0.0933268 -0.0345115 0)
(0.141027 0.00482748 0)
(0.115127 0.0357828 0)
(0.0399287 0.0811975 0)
(-0.069877 0.0963768 0)
(-0.128158 0.0764906 0)
(-0.151486 0.0504396 0)
(-0.0985172 -0.0435451 0)
(-0.035152 -0.131649 0)
(-0.0212735 -0.145285 0)
(0.00971941 -0.074016 0)
(0.0111362 -0.0382229 0)
(0.0503498 -0.0545477 0)
(0.114983 -0.0735652 0)
(0.187655 -0.0924589 0)
(0.291943 -0.125744 0)
(0.298915 -0.123752 0)
(0.331943 -0.0795279 0)
(0.283905 0.0382577 0)
(0.0808384 0.112048 0)
(-0.0952455 0.113068 0)
(-0.112072 0.0992867 0)
(-0.065914 0.00561825 0)
(-0.00606709 -0.15506 0)
(-0.0449233 0.0669358 0)
(-0.0484936 0.00962311 0)
(-0.0507157 0.000415937 0)
(-0.0491099 -0.0163356 0)
(-0.0414196 -0.0405606 0)
(-0.00826083 -0.0379506 0)
(0.0280126 -0.00509628 0)
(0.127625 0.0461032 0)
(0.135735 0.104011 0)
(0.0748785 0.147695 0)
(-0.0466763 0.144853 0)
(-0.09302 0.155812 0)
(-0.119259 0.124344 0)
(-0.0597061 0.00352796 0)
(-0.0162708 -0.108807 0)
(-0.0193092 -0.125432 0)
(0.00419816 -0.0131889 0)
(0.00750792 0.0421014 0)
(0.0390295 -0.00577439 0)
(0.0903985 -0.0954769 0)
(0.170728 -0.128518 0)
(0.17603 -0.153939 0)
(0.0993684 -0.146001 0)
(0.163747 -0.11042 0)
(0.263641 0.0349427 0)
(0.166839 0.0957434 0)
(-0.0390998 0.104185 0)
(-0.0294832 0.0378794 0)
(-0.0340651 -0.0328727 0)
(0.000848003 -0.195896 0)
(-0.036227 0.160404 0)
(-0.0238014 0.0836382 0)
(-0.0308202 0.0505705 0)
(-0.0319289 0.0217116 0)
(-0.0489021 -0.0239626 0)
(-0.0505108 -0.0313457 0)
(-0.0287298 0.0219114 0)
(0.0597947 0.123102 0)
(0.11158 0.211138 0)
(0.0817409 0.233348 0)
(-0.0172452 0.216185 0)
(-0.0577522 0.223023 0)
(-0.0735184 0.191676 0)
(-0.0284254 0.00551224 0)
(-0.00943314 -0.128909 0)
(-0.00311216 -0.141517 0)
(0.020062 0.00777442 0)
(0.0329697 0.0940802 0)
(0.0307285 -0.0679228 0)
(0.0311075 -0.255729 0)
(0.0381715 -0.29221 0)
(0.00367874 -0.261801 0)
(-0.0734811 -0.229923 0)
(-0.00381058 -0.11865 0)
(0.241374 0.044252 0)
(0.208045 0.0719648 0)
(0.109055 0.0714209 0)
(0.0399027 -0.0195219 0)
(-0.0127103 -0.104206 0)
(0.00256607 -0.256534 0)
(-0.00754601 0.276311 0)
(-0.0010296 0.174909 0)
(-0.0266344 0.10408 0)
(-0.0409035 0.0499983 0)
(-0.0722517 -0.00488543 0)
(-0.088644 -0.0184899 0)
(-0.0936952 0.0433326 0)
(-0.0328251 0.204272 0)
(0.0545886 0.311054 0)
(0.0608037 0.30659 0)
(-0.000252333 0.263668 0)
(-0.0278914 0.260607 0)
(-0.0427136 0.225985 0)
(-0.00962453 -0.022439 0)
(-0.000914146 -0.151431 0)
(0.0262293 -0.172646 0)
(0.0364514 -0.0545535 0)
(0.0665387 0.0798653 0)
(0.0338286 -0.112942 0)
(-0.0254205 -0.316181 0)
(-0.0662245 -0.364519 0)
(-0.0955826 -0.316336 0)
(-0.112652 -0.253069 0)
(-0.0731363 -0.167717 0)
(0.170695 0.0227993 0)
(0.199426 0.0429159 0)
(0.170058 0.011738 0)
(0.0461917 -0.11399 0)
(0.000115356 -0.17232 0)
(0.00684103 -0.296907 0)
(0.0197879 0.389153 0)
(0.0113583 0.250313 0)
(-0.0327742 0.128413 0)
(-0.0608189 0.0409479 0)
(-0.0810613 -0.0190699 0)
(-0.105351 -0.0346812 0)
(-0.124703 0.0214574 0)
(-0.0924806 0.211729 0)
(-0.0134126 0.336034 0)
(0.0246331 0.335777 0)
(0.00103887 0.282144 0)
(-0.0166996 0.267872 0)
(-0.0342331 0.222974 0)
(-0.000761118 -0.0642864 0)
(-0.00129115 -0.193945 0)
(0.0107018 -0.214863 0)
(-0.00774381 -0.150326 0)
(0.0235789 -0.0903993 0)
(-0.0173726 -0.299101 0)
(-0.0771658 -0.426248 0)
(-0.107984 -0.435345 0)
(-0.10586 -0.343875 0)
(-0.0887548 -0.302935 0)
(-0.0699606 -0.241062 0)
(0.0338161 -0.0907439 0)
(0.143336 -0.0228624 0)
(0.121614 -0.0976152 0)
(0.00955722 -0.221505 0)
(0.0109399 -0.206581 0)
(0.0133462 -0.318771 0)
(0.0223461 0.428515 0)
(0.00537839 0.260585 0)
(-0.0407873 0.106649 0)
(-0.064505 -0.0159005 0)
(-0.0697829 -0.0748162 0)
(-0.0886017 -0.0797449 0)
(-0.119205 -0.0483156 0)
(-0.119589 0.126352 0)
(-0.0572235 0.284962 0)
(-0.0152833 0.310997 0)
(-0.0114415 0.274682 0)
(-0.0245141 0.253928 0)
(-0.0407052 0.171276 0)
(0.0115064 -0.11464 0)
(-0.00219956 -0.229523 0)
(-0.028317 -0.247605 0)
(-0.0778765 -0.274896 0)
(-0.0862106 -0.344574 0)
(-0.0919974 -0.425831 0)
(-0.109887 -0.46461 0)
(-0.112534 -0.446916 0)
(-0.0835803 -0.352009 0)
(-0.0635149 -0.314214 0)
(-0.0546148 -0.279999 0)
(-0.0221948 -0.197873 0)
(0.0505246 -0.128567 0)
(0.0475967 -0.189575 0)
(-0.000394647 -0.253083 0)
(0.0287761 -0.208218 0)
(0.0194747 -0.310298 0)
(0.0159272 0.330087 0)
(0.00514986 0.133103 0)
(-0.0198866 -0.0402248 0)
(-0.0336206 -0.172066 0)
(-0.0377535 -0.21578 0)
(-0.046114 -0.194047 0)
(-0.0651907 -0.154611 0)
(-0.106975 -0.0584775 0)
(-0.0838501 0.110446 0)
(-0.0564936 0.19358 0)
(-0.0409497 0.201735 0)
(-0.0456376 0.17913 0)
(-0.0438701 0.0313939 0)
(0.00298445 -0.183041 0)
(-0.0269251 -0.26153 0)
(-0.0694854 -0.280834 0)
(-0.127681 -0.350698 0)
(-0.115054 -0.425535 0)
(-0.104515 -0.450991 0)
(-0.103881 -0.456953 0)
(-0.102504 -0.443878 0)
(-0.0736178 -0.354554 0)
(-0.0477076 -0.319499 0)
(-0.0393808 -0.294111 0)
(-0.023256 -0.257458 0)
(0.0121329 -0.20871 0)
(0.0277106 -0.220308 0)
(0.0163441 -0.246394 0)
(0.0456714 -0.208661 0)
(0.0189725 -0.296521 0)
(0.0215178 -0.0709477 0)
(0.0291855 -0.206997 0)
(0.0310343 -0.310739 0)
(0.0401064 -0.391925 0)
(0.0455776 -0.406288 0)
(0.0349993 -0.372775 0)
(0.0137632 -0.300978 0)
(-0.0371101 -0.253938 0)
(-0.0646277 -0.153289 0)
(-0.0611765 -0.0510837 0)
(-0.0494849 -0.0107584 0)
(-0.0411208 -0.016529 0)
(-0.0163134 -0.135427 0)
(-0.0142736 -0.243626 0)
(-0.076493 -0.294656 0)
(-0.117048 -0.305953 0)
(-0.124617 -0.32975 0)
(-0.0913227 -0.410903 0)
(-0.0840732 -0.44037 0)
(-0.0899779 -0.449893 0)
(-0.0899842 -0.441796 0)
(-0.0626961 -0.351583 0)
(-0.0370332 -0.311373 0)
(-0.0245794 -0.292474 0)
(-0.0133147 -0.278801 0)
(0.0125927 -0.250911 0)
(0.0290344 -0.239195 0)
(0.0394967 -0.246236 0)
(0.0586722 -0.201757 0)
(0.0180385 -0.277049 0)
(0.0262108 -0.347923 0)
(0.041069 -0.388216 0)
(0.0702741 -0.437398 0)
(0.096921 -0.477567 0)
(0.104714 -0.486293 0)
(0.1012 -0.464555 0)
(0.0717469 -0.401129 0)
(0.0423502 -0.384386 0)
(-0.010658 -0.364391 0)
(-0.0219208 -0.305695 0)
(-0.0163761 -0.265279 0)
(-0.00384611 -0.250869 0)
(0.0125013 -0.281072 0)
(-0.0305854 -0.297898 0)
(-0.116814 -0.324511 0)
(-0.138807 -0.319226 0)
(-0.121447 -0.319957 0)
(-0.0721741 -0.376596 0)
(-0.0682987 -0.419474 0)
(-0.077832 -0.432276 0)
(-0.0813637 -0.432192 0)
(-0.0493473 -0.35357 0)
(-0.0302752 -0.303709 0)
(-0.014382 -0.283032 0)
(0.00143812 -0.279847 0)
(0.0190422 -0.264529 0)
(0.0355942 -0.253157 0)
(0.0534297 -0.25079 0)
(0.0670475 -0.188453 0)
(0.013603 -0.267025 0)
(0.0272335 -0.36972 0)
(0.05406 -0.38938 0)
(0.0928542 -0.426801 0)
(0.121911 -0.462535 0)
(0.134767 -0.472108 0)
(0.13781 -0.461657 0)
(0.108882 -0.4137 0)
(0.0873072 -0.406381 0)
(0.0361419 -0.423432 0)
(0.014553 -0.415033 0)
(0.0137825 -0.386136 0)
(0.0195875 -0.357437 0)
(0.0163795 -0.328631 0)
(-0.0490654 -0.318924 0)
(-0.125777 -0.33465 0)
(-0.141219 -0.322624 0)
(-0.1062 -0.328021 0)
(-0.0690937 -0.362371 0)
(-0.0519097 -0.398278 0)
(-0.0568966 -0.417305 0)
(-0.0657788 -0.420045 0)
(-0.0424024 -0.342731 0)
(-0.0195831 -0.289086 0)
(-0.00565626 -0.265001 0)
(0.0143952 -0.264404 0)
(0.0290252 -0.262027 0)
(0.0418813 -0.256235 0)
(0.0702747 -0.2492 0)
(0.0683783 -0.164359 0)
(0.0137612 -0.265241 0)
(0.0329493 -0.343659 0)
(0.0542759 -0.37156 0)
(0.0993422 -0.410403 0)
(0.135362 -0.43607 0)
(0.154323 -0.441764 0)
(0.162466 -0.428092 0)
(0.134626 -0.386082 0)
(0.107577 -0.375852 0)
(0.0651112 -0.403786 0)
(0.0382652 -0.405229 0)
(0.0294829 -0.38242 0)
(0.0280452 -0.34903 0)
(-0.00637339 -0.306526 0)
(-0.0872566 -0.287574 0)
(-0.136467 -0.304408 0)
(-0.139573 -0.319659 0)
(-0.0998524 -0.333122 0)
(-0.0664601 -0.355934 0)
(-0.0510459 -0.381075 0)
(-0.0382185 -0.392832 0)
(-0.0481141 -0.39793 0)
(-0.0304273 -0.323819 0)
(-0.0128795 -0.265371 0)
(0.00198854 -0.23548 0)
(0.0223988 -0.240143 0)
(0.0378694 -0.238156 0)
(0.0493523 -0.242638 0)
(0.0774115 -0.227513 0)
(0.0345154 -0.114365 0)
(0.0124168 -0.279791 0)
(0.0336634 -0.317762 0)
(0.0702334 -0.352712 0)
(0.111452 -0.385158 0)
(0.152756 -0.405783 0)
(0.168222 -0.409808 0)
(0.173175 -0.396993 0)
(0.146173 -0.357164 0)
(0.117083 -0.339063 0)
(0.102737 -0.358984 0)
(0.0636408 -0.375194 0)
(0.0430693 -0.357457 0)
(0.0299239 -0.317518 0)
(-0.0227614 -0.264712 0)
(-0.123558 -0.242278 0)
(-0.162915 -0.280207 0)
(-0.141451 -0.319696 0)
(-0.0918634 -0.328181 0)
(-0.0659009 -0.341267 0)
(-0.0479361 -0.353997 0)
(-0.0195425 -0.371915 0)
(-0.0237516 -0.373281 0)
(-0.0166237 -0.306514 0)
(-0.00543566 -0.235187 0)
(0.00500732 -0.19192 0)
(0.0250058 -0.196795 0)
(0.0396179 -0.198358 0)
(0.0515774 -0.197492 0)
(0.0544869 -0.186765 0)
(-0.0260577 -0.097968 0)
(0.00753795 -0.28091 0)
(0.0383803 -0.291482 0)
(0.0718996 -0.330424 0)
(0.117545 -0.364004 0)
(0.157675 -0.376783 0)
(0.180652 -0.373495 0)
(0.186351 -0.35529 0)
(0.160566 -0.317094 0)
(0.121563 -0.300809 0)
(0.109341 -0.324654 0)
(0.079585 -0.339586 0)
(0.0491876 -0.326387 0)
(0.0345455 -0.286632 0)
(-0.0254434 -0.223666 0)
(-0.119145 -0.200248 0)
(-0.162484 -0.2524 0)
(-0.135525 -0.305402 0)
(-0.0916251 -0.316402 0)
(-0.0757666 -0.32296 0)
(-0.0300685 -0.326546 0)
(-0.000840629 -0.344835 0)
(0.00229707 -0.331752 0)
(-0.00403921 -0.269522 0)
(-0.0022644 -0.19688 0)
(0.00482134 -0.138167 0)
(0.0176794 -0.134843 0)
(0.0309116 -0.140277 0)
(0.0186828 -0.13807 0)
(-0.0204385 -0.123111 0)
(-0.0401277 -0.128038 0)
(0.00212955 -0.262529 0)
(0.0422979 -0.266619 0)
(0.0822672 -0.307332 0)
(0.123799 -0.331015 0)
(0.162394 -0.339655 0)
(0.189842 -0.328459 0)
(0.193904 -0.31123 0)
(0.171637 -0.275385 0)
(0.129031 -0.247612 0)
(0.117209 -0.27129 0)
(0.0904212 -0.302102 0)
(0.0611911 -0.289569 0)
(0.0389337 -0.255962 0)
(-0.017038 -0.188464 0)
(-0.11122 -0.158232 0)
(-0.153186 -0.211195 0)
(-0.129192 -0.271232 0)
(-0.0938439 -0.288006 0)
(-0.0709258 -0.286826 0)
(-0.0185955 -0.286703 0)
(0.00940183 -0.314354 0)
(0.0210684 -0.283699 0)
(0.00743334 -0.220042 0)
(-0.00479715 -0.146955 0)
(-0.00458892 -0.0776655 0)
(-0.0039573 -0.0530715 0)
(-0.00344176 -0.0703083 0)
(-0.0379619 -0.0723175 0)
(-0.0711672 -0.0632575 0)
(-0.0201203 -0.123173 0)
(0.00694309 -0.250174 0)
(0.0476338 -0.245683 0)
(0.0863808 -0.278155 0)
(0.124281 -0.295601 0)
(0.161296 -0.296066 0)
(0.187042 -0.281405 0)
(0.193997 -0.259424 0)
(0.173856 -0.233191 0)
(0.129292 -0.195843 0)
(0.119674 -0.215653 0)
(0.0989454 -0.257592 0)
(0.0754342 -0.253901 0)
(0.046484 -0.220032 0)
(0.0101925 -0.164788 0)
(-0.073236 -0.125227 0)
(-0.113809 -0.152203 0)
(-0.117237 -0.217706 0)
(-0.0846302 -0.253494 0)
(-0.0503776 -0.261949 0)
(0.00129112 -0.25925 0)
(0.0234884 -0.265631 0)
(0.0316864 -0.22197 0)
(0.0100752 -0.149293 0)
(-0.0150826 -0.084135 0)
(-0.020888 -0.0142283 0)
(-0.0249042 0.0370545 0)
(-0.0451522 0.0222549 0)
(-0.0826134 0.0110537 0)
(-0.0826724 0.0204184 0)
(0.00721935 -0.0617786 0)
(0.0162907 -0.228462 0)
(0.0511181 -0.217387 0)
(0.085948 -0.242751 0)
(0.123098 -0.251865 0)
(0.156086 -0.244314 0)
(0.177533 -0.229825 0)
(0.182647 -0.212932 0)
(0.174604 -0.189888 0)
(0.127998 -0.146753 0)
(0.11405 -0.157814 0)
(0.102899 -0.209221 0)
(0.0853094 -0.211207 0)
(0.0589224 -0.178805 0)
(0.0322758 -0.138212 0)
(-0.0170948 -0.0892041 0)
(-0.0503964 -0.0827528 0)
(-0.0776314 -0.161652 0)
(-0.0642475 -0.209661 0)
(-0.0292338 -0.224003 0)
(0.0184029 -0.230281 0)
(0.0351592 -0.201611 0)
(0.033441 -0.142334 0)
(0.007927 -0.0688781 0)
(-0.0289126 -0.00630898 0)
(-0.047957 0.0585771 0)
(-0.0527285 0.141413 0)
(-0.0636947 0.151376 0)
(-0.0838349 0.155441 0)
(-0.0451853 0.143403 0)
(0.0386132 -0.0153555 0)
(0.0224043 -0.202507 0)
(0.0468275 -0.180562 0)
(0.0826903 -0.199871 0)
(0.121097 -0.202569 0)
(0.152506 -0.193326 0)
(0.171666 -0.177494 0)
(0.167674 -0.165111 0)
(0.160268 -0.14878 0)
(0.133027 -0.107253 0)
(0.104005 -0.109756 0)
(0.101444 -0.159607 0)
(0.090576 -0.168772 0)
(0.0742057 -0.138709 0)
(0.057438 -0.10861 0)
(0.0280821 -0.0673843 0)
(0.0201551 -0.0267579 0)
(-0.00879702 -0.101738 0)
(-0.025356 -0.16835 0)
(-0.00187867 -0.195583 0)
(0.031518 -0.1883 0)
(0.0376211 -0.144601 0)
(0.0173298 -0.076652 0)
(-0.00903791 -0.0051705 0)
(-0.0390105 0.0612827 0)
(-0.0693532 0.1218 0)
(-0.086952 0.222262 0)
(-0.0671105 0.283737 0)
(-0.0208126 0.294519 0)
(0.0295871 0.251678 0)
(0.0717008 0.0405233 0)
(0.025892 -0.183454 0)
(0.0421013 -0.141079 0)
(0.0827751 -0.152756 0)
(0.11921 -0.151902 0)
(0.144737 -0.141283 0)
(0.154985 -0.128497 0)
(0.149893 -0.120556 0)
(0.131287 -0.110392 0)
(0.125807 -0.0758763 0)
(0.0886274 -0.0592909 0)
(0.0914989 -0.103934 0)
(0.0929086 -0.125571 0)
(0.0867818 -0.10908 0)
(0.0738226 -0.0646801 0)
(0.0707794 -0.0390753 0)
(0.0786021 -0.0267452 0)
(0.0800498 -0.0746644 0)
(0.0189731 -0.147133 0)
(0.0182466 -0.174281 0)
(0.0262345 -0.160845 0)
(0.0154122 -0.116105 0)
(-0.00859459 -0.050469 0)
(-0.0408787 0.0252442 0)
(-0.0659206 0.0931404 0)
(-0.0870327 0.15369 0)
(-0.098975 0.243148 0)
(-0.0542631 0.334207 0)
(0.0304903 0.323521 0)
(0.0824696 0.274357 0)
(0.0867608 0.0208513 0)
(0.0224297 -0.2072 0)
(0.0387661 -0.0979379 0)
(0.0796374 -0.106505 0)
(0.111393 -0.103695 0)
(0.129518 -0.093672 0)
(0.131639 -0.084552 0)
(0.122355 -0.0806805 0)
(0.0990009 -0.0745337 0)
(0.0985838 -0.0511658 0)
(0.0798612 -0.0120723 0)
(0.0806208 -0.0515548 0)
(0.0888737 -0.091653 0)
(0.0827562 -0.0782234 0)
(0.0887903 -0.0259763 0)
(0.089928 -0.0197867 0)
(0.1096 -0.0125015 0)
(0.143022 -0.050349 0)
(0.0538239 -0.124389 0)
(0.0317562 -0.160124 0)
(0.030023 -0.152904 0)
(0.00424777 -0.109003 0)
(-0.0390183 -0.0389942 0)
(-0.0837258 0.0473815 0)
(-0.108776 0.117915 0)
(-0.113954 0.167566 0)
(-0.0984057 0.222397 0)
(-0.0215945 0.227678 0)
(0.0450463 0.156899 0)
(0.0831843 0.0940399 0)
(0.0586431 -0.180106 0)
(0.011427 -0.317302 0)
(0.0344683 -0.0615783 0)
(0.0727244 -0.0666006 0)
(0.09771 -0.0625249 0)
(0.107555 -0.0536803 0)
(0.103798 -0.0469437 0)
(0.0903565 -0.0446408 0)
(0.0679128 -0.0443389 0)
(0.0616249 -0.0247986 0)
(0.0649492 0.0219366 0)
(0.0655986 -0.00923573 0)
(0.0714195 -0.0495539 0)
(0.0839349 -0.0386254 0)
(0.0808834 0.00158937 0)
(0.0810594 0.00163908 0)
(0.121385 0.0202049 0)
(0.171455 -0.0189617 0)
(0.120126 -0.084517 0)
(0.0698723 -0.157134 0)
(0.0314095 -0.161058 0)
(-0.00903523 -0.110722 0)
(-0.0705451 -0.048976 0)
(-0.135203 0.00945265 0)
(-0.142412 0.0692307 0)
(-0.127447 0.0929602 0)
(-0.0722886 -0.0387908 0)
(-0.0349592 -0.169733 0)
(-0.00827781 -0.214774 0)
(0.0203485 -0.250297 0)
(0.0248413 -0.34585 0)
(0.0110242 -0.402791 0)
(0.0294617 -0.0363984 0)
(0.0616885 -0.0375398 0)
(0.0787667 -0.0321263 0)
(0.0823754 -0.0231464 0)
(0.0757448 -0.0151488 0)
(0.0614789 -0.0116693 0)
(0.0406814 -0.0127776 0)
(0.0274114 0.000417276 0)
(0.0383188 0.0479835 0)
(0.0440396 0.0299537 0)
(0.0571156 -0.00686684 0)
(0.0648395 -0.00351177 0)
(0.0472002 0.0158404 0)
(0.0695667 0.0396581 0)
(0.123079 0.029328 0)
(0.155581 0.0114813 0)
(0.171531 -0.0342478 0)
(0.109908 -0.131461 0)
(-0.00254671 -0.194149 0)
(-0.0965785 -0.223691 0)
(-0.164845 -0.294232 0)
(-0.151302 -0.341459 0)
(-0.11877 -0.321519 0)
(-0.100289 -0.319971 0)
(-0.088345 -0.348959 0)
(-0.0583733 -0.344532 0)
(-0.0321674 -0.343098 0)
(-0.00473189 -0.342993 0)
(0.0153435 -0.355378 0)
(0.014903 -0.391512 0)
(0.0234969 -0.0240456 0)
(0.0479445 -0.0206513 0)
(0.0583399 -0.0121508 0)
(0.0589726 -0.000486446 0)
(0.0524788 0.0107032 0)
(0.039834 0.0177335 0)
(0.0214361 0.0189133 0)
(0.00333066 0.0257974 0)
(0.00423471 0.0786365 0)
(0.0248916 0.0832256 0)
(0.0404562 0.040373 0)
(0.0120063 0.0168254 0)
(0.0396303 0.0410081 0)
(0.0456212 0.0500161 0)
(0.0839291 0.046148 0)
(0.132561 0.0432509 0)
(0.150195 -0.00529741 0)
(0.0121342 -0.13141 0)
(-0.146133 -0.279842 0)
(-0.205475 -0.344994 0)
(-0.200076 -0.362736 0)
(-0.169011 -0.358718 0)
(-0.127112 -0.352164 0)
(-0.0977259 -0.348376 0)
(-0.0843062 -0.349108 0)
(-0.0543717 -0.331131 0)
(-0.0276616 -0.321275 0)
(-0.00138881 -0.312526 0)
(0.0185335 -0.32076 0)
(0.0156867 -0.351653 0)
(0.0172293 -0.0203043 0)
(0.0345773 -0.0115039 0)
(0.0410719 0.00166837 0)
(0.0409804 0.0169858 0)
(0.0353278 0.0314558 0)
(0.0242865 0.0420593 0)
(0.00878119 0.047146 0)
(-0.0112767 0.0525144 0)
(-0.0286729 0.110713 0)
(0.00377206 0.130883 0)
(0.00376521 0.0638682 0)
(-0.0212289 0.06129 0)
(0.00513781 0.0799243 0)
(-0.0120331 0.0835284 0)
(0.0368402 0.0898921 0)
(0.084417 0.0755629 0)
(0.059384 0.00409831 0)
(-0.108058 -0.138126 0)
(-0.218426 -0.249618 0)
(-0.229108 -0.2933 0)
(-0.214041 -0.309544 0)
(-0.179764 -0.310798 0)
(-0.140612 -0.30325 0)
(-0.100272 -0.297095 0)
(-0.0799293 -0.299392 0)
(-0.0562746 -0.285911 0)
(-0.0234996 -0.277588 0)
(0.00172527 -0.269232 0)
(0.0210941 -0.278789 0)
(0.0167453 -0.304524 0)
(0.0118509 -0.0174936 0)
(0.024275 -0.00410189 0)
(0.0289381 0.0134463 0)
(0.028438 0.0319591 0)
(0.0229104 0.0494292 0)
(0.0119346 0.0632542 0)
(-0.00326117 0.0717357 0)
(-0.0252901 0.0777328 0)
(-0.0626409 0.141837 0)
(-0.0441354 0.163244 0)
(-0.0402488 0.114118 0)
(-0.0574567 0.133477 0)
(-0.0658911 0.132886 0)
(-0.048044 0.130198 0)
(-0.010511 0.134657 0)
(0.00748043 0.106303 0)
(-0.0554264 0.0200209 0)
(-0.177644 -0.0921882 0)
(-0.236271 -0.178124 0)
(-0.241825 -0.23672 0)
(-0.228741 -0.262616 0)
(-0.19816 -0.26816 0)
(-0.157479 -0.261865 0)
(-0.110143 -0.25074 0)
(-0.0795835 -0.249911 0)
(-0.0613074 -0.246094 0)
(-0.0231486 -0.23195 0)
(0.00261557 -0.22679 0)
(0.0209612 -0.234516 0)
(0.0162997 -0.254922 0)
(0.00832259 -0.0115964 0)
(0.0173514 0.0046159 0)
(0.0203168 0.024811 0)
(0.0188584 0.0460835 0)
(0.012484 0.0668142 0)
(0.000356898 0.0845579 0)
(-0.0162504 0.0965608 0)
(-0.044555 0.103558 0)
(-0.105259 0.176628 0)
(-0.0986764 0.210262 0)
(-0.0801168 0.189456 0)
(-0.0902516 0.197009 0)
(-0.0999613 0.181435 0)
(-0.075389 0.186159 0)
(-0.0635686 0.187668 0)
(-0.0756977 0.14898 0)
(-0.13953 0.0684841 0)
(-0.211918 -0.0164668 0)
(-0.241947 -0.0896817 0)
(-0.249058 -0.16036 0)
(-0.243176 -0.205046 0)
(-0.21654 -0.222795 0)
(-0.17411 -0.222115 0)
(-0.129913 -0.210779 0)
(-0.0870161 -0.200807 0)
(-0.0676984 -0.203335 0)
(-0.0277421 -0.188204 0)
(-0.000201836 -0.182367 0)
(0.0185927 -0.184219 0)
(0.0149724 -0.201536 0)
(0.00681594 -0.00401031 0)
(0.0118588 0.0138119 0)
(0.0124629 0.0359657 0)
(0.00900736 0.0600428 0)
(0.000611242 0.0847647 0)
(-0.013779 0.107875 0)
(-0.0323725 0.125573 0)
(-0.0702645 0.138169 0)
(-0.154856 0.220103 0)
(-0.149869 0.262543 0)
(-0.109402 0.26515 0)
(-0.102333 0.251552 0)
(-0.112555 0.23925 0)
(-0.105531 0.256001 0)
(-0.119885 0.251729 0)
(-0.145149 0.212566 0)
(-0.189208 0.146261 0)
(-0.229274 0.0768505 0)
(-0.247072 0.00641927 0)
(-0.252894 -0.065875 0)
(-0.249441 -0.130057 0)
(-0.230412 -0.166902 0)
(-0.195568 -0.175855 0)
(-0.148152 -0.169062 0)
(-0.101858 -0.153767 0)
(-0.0746224 -0.155604 0)
(-0.038205 -0.14373 0)
(-0.00678042 -0.135026 0)
(0.0130556 -0.132141 0)
(0.0122488 -0.146395 0)
(0.00516176 0.00251596 0)
(0.00618511 0.0224549 0)
(0.00343787 0.0466803 0)
(-0.00386667 0.0740501 0)
(-0.016509 0.10366 0)
(-0.0341803 0.133202 0)
(-0.0533829 0.159305 0)
(-0.0980869 0.187525 0)
(-0.194836 0.289838 0)
(-0.177448 0.334439 0)
(-0.119601 0.32787 0)
(-0.10911 0.303622 0)
(-0.119901 0.313662 0)
(-0.139046 0.328593 0)
(-0.160156 0.316609 0)
(-0.183498 0.286618 0)
(-0.211098 0.237289 0)
(-0.23636 0.177141 0)
(-0.250531 0.108254 0)
(-0.256517 0.0323562 0)
(-0.255493 -0.0405654 0)
(-0.241951 -0.0982175 0)
(-0.214336 -0.123452 0)
(-0.174193 -0.126092 0)
(-0.124383 -0.114032 0)
(-0.0844992 -0.101099 0)
(-0.0543852 -0.0990939 0)
(-0.0172225 -0.086296 0)
(0.00519052 -0.0801652 0)
(0.0084944 -0.0905088 0)
(0.00286477 0.00771735 0)
(-3.32812e-05 0.0304045 0)
(-0.00741877 0.0571778 0)
(-0.0213116 0.0888275 0)
(-0.0411571 0.12403 0)
(-0.0621857 0.158449 0)
(-0.0791411 0.191537 0)
(-0.124018 0.239489 0)
(-0.212729 0.370024 0)
(-0.16569 0.415361 0)
(-0.101767 0.386233 0)
(-0.113495 0.363189 0)
(-0.132127 0.379939 0)
(-0.150333 0.370948 0)
(-0.164777 0.352506 0)
(-0.180388 0.327612 0)
(-0.199484 0.295619 0)
(-0.221631 0.254854 0)
(-0.240901 0.200881 0)
(-0.253025 0.130623 0)
(-0.255564 0.0536631 0)
(-0.247514 -0.0166295 0)
(-0.227945 -0.0663784 0)
(-0.195974 -0.082469 0)
(-0.152657 -0.0751554 0)
(-0.104163 -0.0504932 0)
(-0.0719376 -0.0551574 0)
(-0.0309764 -0.0393411 0)
(-0.00384641 -0.0287459 0)
(0.00390541 -0.0344328 0)
(0.000190946 0.0124644 0)
(-0.00666741 0.0383091 0)
(-0.020485 0.0684786 0)
(-0.0447326 0.10657 0)
(-0.0713329 0.146502 0)
(-0.0903466 0.180101 0)
(-0.104938 0.215069 0)
(-0.145294 0.282881 0)
(-0.200749 0.412184 0)
(-0.129978 0.44341 0)
(-0.0776376 0.411584 0)
(-0.103256 0.414381 0)
(-0.121075 0.407438 0)
(-0.134584 0.391092 0)
(-0.14917 0.36959 0)
(-0.16471 0.34401 0)
(-0.180545 0.314458 0)
(-0.196375 0.280846 0)
(-0.212172 0.242992 0)
(-0.22914 0.197976 0)
(-0.243217 0.13594 0)
(-0.24396 0.065327 0)
(-0.233257 0.00207747 0)
(-0.213176 -0.0314023 0)
(-0.179786 -0.0363711 0)
(-0.127409 -0.0142249 0)
(-0.0908137 -0.00563596 0)
(-0.0467758 0.00656759 0)
(-0.0133889 0.0232925 0)
(-0.00118908 0.0220628 0)
(-0.0038504 0.0180658 0)
(-0.0149293 0.0478779 0)
(-0.0362422 0.0846079 0)
(-0.074271 0.132562 0)
(-0.0937561 0.168492 0)
(-0.101238 0.194244 0)
(-0.113552 0.22607 0)
(-0.134807 0.296609 0)
(-0.10312 0.389481 0)
(-0.0341669 0.398508 0)
(-0.0568696 0.421082 0)
(-0.0816153 0.427706 0)
(-0.0942566 0.419456 0)
(-0.107818 0.404499 0)
(-0.125555 0.384498 0)
(-0.14478 0.359049 0)
(-0.164049 0.328851 0)
(-0.181586 0.294804 0)
(-0.195396 0.258375 0)
(-0.206541 0.219233 0)
(-0.217037 0.175514 0)
(-0.224633 0.124177 0)
(-0.224586 0.0654855 0)
(-0.213341 0.0149082 0)
(-0.191782 -0.00552163 0)
(-0.152416 0.00154551 0)
(-0.108152 0.0337813 0)
(-0.062334 0.0549182 0)
(-0.024071 0.0804462 0)
(-0.00597767 0.0805938 0)
(-0.0160818 0.0269449 0)
(-0.0347817 0.0636515 0)
(-0.0675852 0.11892 0)
(-0.0920775 0.155927 0)
(-0.0866215 0.176416 0)
(-0.0821653 0.196431 0)
(-0.0778025 0.230401 0)
(-0.031044 0.313325 0)
(-0.00468243 0.356078 0)
(-0.0180441 0.400475 0)
(-0.0379251 0.420249 0)
(-0.0528681 0.429842 0)
(-0.067326 0.427368 0)
(-0.083803 0.417097 0)
(-0.103677 0.399378 0)
(-0.125391 0.374528 0)
(-0.146757 0.343364 0)
(-0.165919 0.307239 0)
(-0.181422 0.26799 0)
(-0.192646 0.227604 0)
(-0.199726 0.186352 0)
(-0.203207 0.143806 0)
(-0.20293 0.0998022 0)
(-0.197874 0.0528815 0)
(-0.18179 0.0171114 0)
(-0.153395 0.00982727 0)
(-0.113907 0.0304652 0)
(-0.0709601 0.082007 0)
(-0.0405408 0.138203 0)
(-0.0128239 0.137423 0)
(-0.0639791 0.0376937 0)
(-0.110586 0.070347 0)
(-0.0971157 0.135579 0)
(-0.0763156 0.154953 0)
(-0.0591537 0.171003 0)
(-0.0413082 0.194732 0)
(-0.0149944 0.24591 0)
(-0.00671978 0.309385 0)
(-0.00970624 0.354813 0)
(-0.0152367 0.392383 0)
(-0.0253427 0.418461 0)
(-0.0355047 0.431678 0)
(-0.0468411 0.434429 0)
(-0.0625016 0.428734 0)
(-0.0834617 0.413807 0)
(-0.10748 0.389649 0)
(-0.131147 0.357495 0)
(-0.15183 0.318586 0)
(-0.167709 0.276281 0)
(-0.178285 0.232811 0)
(-0.183984 0.189882 0)
(-0.185817 0.147813 0)
(-0.183557 0.107634 0)
(-0.177399 0.0674213 0)
(-0.161959 0.0276619 0)
(-0.133674 0.0137027 0)
(-0.103204 0.0280384 0)
(-0.0752836 0.0765223 0)
(-0.0602413 0.162754 0)
(-0.0244868 0.170663 0)
(-0.0153993 -0.137139 0)
(-0.109866 0.0351514 0)
(-0.0818783 0.125133 0)
(-0.056625 0.146721 0)
(-0.0391655 0.1659 0)
(-0.0232547 0.196406 0)
(-0.0139674 0.247282 0)
(-0.0146489 0.301205 0)
(-0.0178827 0.350274 0)
(-0.0205903 0.391783 0)
(-0.0215271 0.417054 0)
(-0.0236343 0.431597 0)
(-0.0291034 0.438701 0)
(-0.0411981 0.438427 0)
(-0.0632715 0.426477 0)
(-0.0909307 0.40362 0)
(-0.11731 0.370547 0)
(-0.13971 0.327667 0)
(-0.155682 0.281279 0)
(-0.165051 0.234594 0)
(-0.168738 0.189424 0)
(-0.168166 0.14683 0)
(-0.164452 0.106374 0)
(-0.157162 0.0669078 0)
(-0.141241 0.0287351 0)
(-0.117386 0.0145272 0)
(-0.0972625 0.0293717 0)
(-0.08445 0.0689621 0)
(-0.0732081 0.144635 0)
(-0.0302369 0.161327 0)
(-0.00419589 -0.127503 0)
(-0.0848209 0.0208072 0)
(-0.0622648 0.113427 0)
(-0.0458339 0.141359 0)
(-0.0344498 0.164398 0)
(-0.0264284 0.196454 0)
(-0.0237293 0.241667 0)
(-0.0267339 0.293529 0)
(-0.0283265 0.344947 0)
(-0.0265555 0.390678 0)
(-0.0191087 0.413344 0)
(-0.0132446 0.42717 0)
(-0.011284 0.438348 0)
(-0.0161969 0.446428 0)
(-0.0370857 0.44293 0)
(-0.0779218 0.419784 0)
(-0.104213 0.382428 0)
(-0.129293 0.333185 0)
(-0.145469 0.281614 0)
(-0.152964 0.231129 0)
(-0.154248 0.183949 0)
(-0.150993 0.140954 0)
(-0.145451 0.100088 0)
(-0.136591 0.0615792 0)
(-0.121518 0.0271192 0)
(-0.104445 0.0129974 0)
(-0.093755 0.0219496 0)
(-0.0904916 0.0556819 0)
(-0.0760367 0.106539 0)
(-0.0208117 0.105283 0)
(0.000380823 -0.1057 0)
(-0.0432169 -0.0037023 0)
(-0.0676982 0.106054 0)
(-0.0444852 0.14035 0)
(-0.0346362 0.161727 0)
(-0.0304304 0.191065 0)
(-0.0326683 0.23486 0)
(-0.037162 0.282139 0)
(-0.0417551 0.33745 0)
(-0.0307502 0.388273 0)
(-0.0158134 0.406093 0)
(-0.0038669 0.416593 0)
(0.00483607 0.430013 0)
(0.0146877 0.446755 0)
(0.033759 0.451781 0)
(-0.051872 0.431977 0)
(-0.100872 0.389192 0)
(-0.128831 0.33323 0)
(-0.137584 0.274514 0)
(-0.14169 0.220501 0)
(-0.139824 0.172112 0)
(-0.134141 0.129469 0)
(-0.126424 0.089758 0)
(-0.116106 0.053646 0)
(-0.101547 0.0225528 0)
(-0.0873292 0.00562862 0)
(-0.0805709 0.0037774 0)
(-0.0803822 0.00225451 0)
(-0.0558058 0.0330886 0)
(-0.0102421 0.0418307 0)
(0.000238102 -0.0773068 0)
(0.0565887 -0.0821025 0)
(-0.0576294 0.114492 0)
(-0.0361168 0.143505 0)
(-0.027766 0.154676 0)
(-0.0278272 0.17628 0)
(-0.0376837 0.227905 0)
(-0.0467379 0.272132 0)
(-0.0597077 0.321924 0)
(-0.0282076 0.379452 0)
(-0.0105068 0.393809 0)
(0.00348704 0.398037 0)
(0.0175239 0.413067 0)
(0.0565661 0.387302 0)
(0.0332829 0.291496 0)
(-0.06286 0.206036 0)
(-0.113284 0.202189 0)
(-0.132888 0.297588 0)
(-0.135326 0.258023 0)
(-0.130335 0.199776 0)
(-0.125469 0.152963 0)
(-0.11712 0.113088 0)
(-0.107418 0.076637 0)
(-0.0959592 0.0428673 0)
(-0.0810013 0.0113888 0)
(-0.0638142 -0.0131846 0)
(-0.0586992 -0.0570579 0)
(-0.0524817 -0.0883658 0)
(-0.0369146 -0.0410045 0)
(0.00317548 -0.0209174 0)
(-0.00157166 -0.0480234 0)
(0.0526123 -0.0606748 0)
(0.0632116 -0.0534997 0)
(-0.0090795 0.132659 0)
(-0.00382749 0.143327 0)
(-0.0113082 0.143919 0)
(-0.037458 0.178863 0)
(-0.0253299 0.206569 0)
(-0.0469619 0.32005 0)
(-0.0202591 0.366623 0)
(-0.00343085 0.379159 0)
(0.0108309 0.375928 0)
(0.0328491 0.374972 0)
(0.00330522 0.194551 0)
(-0.0586271 0.0809056 0)
(-0.102892 0.0296668 0)
(-0.111343 -0.00737609 0)
(-0.108505 -0.00546266 0)
(-0.135962 0.18 0)
(-0.127294 0.172636 0)
(-0.113397 0.126071 0)
(-0.101562 0.0931827 0)
(-0.0892089 0.0613824 0)
(-0.0764582 0.0284634 0)
(-0.0563993 -0.00639867 0)
(-0.0452365 -0.0811263 0)
(-0.0548393 -0.134321 0)
(-0.0443131 -0.108997 0)
(-0.0277454 -0.0776022 0)
(0.00929002 -0.0688507 0)
(-0.00355677 -0.0232187 0)
(0.0352964 -0.0384304 0)
(0.0663286 -0.0661029 0)
(0.0682231 -0.0623814 0)
(0.0427406 0.0560426 0)
(0.0564735 -0.000677421 0)
(0.107933 -0.158758 0)
(0.11812 -0.138509 0)
(0.0908417 0.0571774 0)
(-0.0185026 0.338323 0)
(0.00268595 0.362463 0)
(0.0202969 0.352116 0)
(0.0454431 0.330916 0)
(-0.0879449 0.0853697 0)
(-0.109216 0.0339 0)
(-0.121214 0.0167196 0)
(-0.113539 -0.0222299 0)
(-0.076402 -0.0674004 0)
(-0.0571236 -0.0895299 0)
(-0.120996 0.112675 0)
(-0.108295 0.0993358 0)
(-0.0883815 0.0747282 0)
(-0.0711296 0.0477307 0)
(-0.0552377 0.00992632 0)
(-0.0410911 -0.0685894 0)
(-0.0548347 -0.152522 0)
(-0.0497516 -0.136048 0)
(-0.0396959 -0.11489 0)
(-0.0291058 -0.090929 0)
(0.00492061 -0.0819215 0)
(-0.000574518 -0.00958023 0)
(0.0173088 -0.0239725 0)
(0.0405301 -0.0480383 0)
(0.0620132 -0.0796161 0)
(0.0738536 -0.115367 0)
(0.0763046 -0.148671 0)
(0.0834616 -0.161224 0)
(0.102546 -0.144984 0)