/*--------------------------------*- C++ -*----------------------------------*\
| =========                 |                                                 |
| \\      /  F ield         | OpenFOAM: The Open Source CFD Toolbox           |
|  \\    /   O peration     | Version:  2.3.0                                 |
|   \\  /    A nd           | Web:      www.OpenFOAM.org                      |
|    \\/     M anipulation  |                                                 |
\*---------------------------------------------------------------------------*/
FoamFile
{
    version     2.0;
    format      ascii;
    class       volScalarField;
    location    "0.46";
    object      Theta.particles;
}
// * * * * * * * * * * * * * * * * * * * * * * * * * * * * * * * * * * * * * //

dimensions      [0 2 -2 0 0 0 0];

internalField   nonuniform List<scalar> 
6000
(
4.72875e-05
7.58787e-06
1.07253e-05
4.3784e-05
0.000153361
0.000127087
7.84236e-05
9.34119e-05
0.000164786
0.000215272
0.000288029
0.000364083
0.000531581
0.00086049
0.000531914
0.000822225
0.000690158
0.000386238
0.000284705
0.000205432
0.00015382
9.74492e-05
8.45969e-05
0.000108503
0.000152401
0.000104433
2.66383e-05
8.53036e-06
6.45222e-06
4.94007e-05
7.72067e-06
1.11364e-05
2.39438e-05
4.70304e-05
6.15308e-05
7.26307e-05
7.85733e-05
7.10907e-05
5.50909e-05
2.78302e-05
1.94822e-05
2.30071e-05
3.90836e-05
6.77754e-05
5.25177e-05
6.79816e-05
5.13534e-05
2.60982e-05
1.82805e-05
2.25692e-05
4.40767e-05
6.75234e-05
7.13887e-05
7.32481e-05
6.25101e-05
4.49063e-05
3.22611e-05
1.90338e-05
1.26315e-05
6.37182e-06
9.80788e-05
0.000175352
0.0002602
0.000167109
0.000111482
0.000123217
0.000114956
3.53075e-05
9.30207e-06
7.93889e-06
4.87002e-06
1.05636e-05
1.76726e-05
2.30189e-06
8.34919e-06
1.97911e-06
1.00173e-05
2.01059e-05
7.20597e-06
7.20863e-06
1.29529e-05
2.49359e-05
0.000120717
0.000186662
0.000156179
0.000182498
0.000249018
0.000321011
0.000230677
0.000119519
0.000215405
0.000341653
0.000552283
0.000647937
0.00053004
0.000488065
0.000501332
0.000322853
5.43936e-05
3.42122e-06
2.46387e-06
1.51908e-06
2.4072e-06
2.55272e-06
6.0382e-06
2.67008e-06
2.85331e-06
1.97105e-06
2.48515e-06
3.56697e-06
4.25301e-05
0.000272697
0.000491552
0.000478056
0.000469222
0.00050417
0.000521228
0.000523237
0.000431001
0.000229784
0.000421705
0.000253633
0.000354711
0.000484804
0.000586309
0.000594874
0.000632329
0.000708285
0.000407958
0.00016448
4.52533e-05
1.18592e-05
8.42022e-06
2.0741e-06
3.52112e-06
1.45023e-06
7.63898e-06
1.1741e-05
3.53256e-05
0.000153515
0.000351518
0.000625074
0.000547993
0.000478623
0.000464817
0.000407407
0.000366035
0.000310763
0.000242524
0.00041374
0.000254175
6.81937e-06
6.85652e-06
3.09345e-05
8.1722e-05
0.000131203
0.000153902
0.00025305
0.000315777
0.000231251
7.29551e-05
1.85693e-05
1.56463e-05
5.11452e-06
2.05454e-06
2.82885e-06
1.51729e-05
1.79231e-05
6.10263e-05
0.000182492
0.000241513
0.000211581
0.000123528
0.000103083
8.56889e-05
5.31518e-05
2.20183e-05
3.10303e-06
3.5491e-06
0.000265504
0.000164439
6.12653e-07
1.58663e-07
9.13474e-08
5.10912e-07
4.47655e-06
7.06141e-06
9.32581e-06
3.06932e-05
6.1461e-05
4.82385e-05
2.17788e-05
1.89823e-05
1.28148e-05
3.9424e-06
9.38596e-06
1.96282e-05
1.89058e-05
3.8625e-05
3.33225e-05
1.56193e-05
1.04795e-05
1.39516e-05
9.89185e-06
3.21231e-06
5.43709e-07
1.21014e-07
3.46287e-07
9.20728e-07
0.00018814
0.000150935
7.69192e-07
1.58506e-07
2.7564e-07
4.19424e-07
3.81119e-06
1.66228e-05
1.14464e-05
1.50797e-06
1.20799e-06
1.96311e-05
2.42606e-05
2.37886e-05
2.2377e-05
1.30711e-05
2.03319e-05
2.42938e-05
2.00698e-05
1.88254e-05
1.50118e-06
1.18837e-06
1.16534e-05
2.69808e-05
1.06276e-05
1.20689e-06
4.73798e-07
3.23581e-07
2.85487e-07
1.4492e-06
0.000183902
0.000144755
9.46001e-07
2.85051e-07
2.68081e-07
6.83814e-07
5.45173e-06
5.35068e-05
2.19086e-05
9.54394e-07
2.16193e-06
1.73245e-05
3.28336e-05
4.81754e-05
4.80487e-05
3.34641e-05
4.3726e-05
4.71146e-05
3.08545e-05
2.01277e-05
2.1146e-06
8.55675e-07
1.631e-05
6.64765e-05
1.37751e-05
1.42428e-06
6.80856e-07
3.95057e-07
6.43584e-07
2.28353e-06
0.000189643
0.00013721
1.09814e-06
4.30301e-07
3.43771e-07
5.23248e-07
2.42739e-06
6.24044e-05
5.95344e-05
2.48449e-06
2.3588e-06
2.03177e-05
4.26386e-05
5.58318e-05
6.67717e-05
5.54875e-05
6.42432e-05
5.3338e-05
4.11628e-05
2.82476e-05
2.49102e-06
1.95765e-06
3.21537e-05
8.80769e-05
9.27305e-06
1.76661e-06
6.4325e-07
1.13654e-06
1.11158e-06
3.07498e-06
0.000178522
0.000129372
1.4644e-06
5.54266e-07
4.48069e-07
3.50055e-07
2.06934e-06
3.44623e-05
4.71242e-05
5.23531e-06
1.10889e-06
2.31039e-05
5.75704e-05
4.34308e-05
5.69383e-05
7.29528e-05
5.56693e-05
4.3337e-05
6.35491e-05
3.15153e-05
7.67289e-07
4.77235e-06
4.65875e-05
6.71645e-05
8.36017e-06
1.25721e-06
8.16401e-07
2.02568e-06
1.39782e-06
4.84909e-06
0.000148918
0.000108775
1.59623e-06
6.33816e-07
5.42848e-07
2.92376e-07
1.07002e-06
2.52169e-05
6.08254e-05
1.31486e-05
4.58958e-06
1.53584e-05
5.1713e-05
5.25026e-05
5.07096e-05
8.9464e-05
5.04977e-05
5.32598e-05
5.52276e-05
2.74512e-05
2.54476e-06
1.71952e-05
6.94104e-05
4.70151e-05
4.05511e-06
8.98111e-07
1.3555e-06
1.80042e-06
2.17502e-06
6.50385e-06
0.000109155
9.05383e-05
1.73673e-06
1.03336e-06
4.334e-07
4.41854e-07
6.51396e-07
1.0341e-05
4.05862e-05
2.53362e-05
5.28588e-06
5.47789e-06
3.82144e-05
5.06707e-05
4.92045e-05
5.28192e-05
5.65529e-05
5.83342e-05
5.06645e-05
1.28057e-05
8.07714e-07
1.77755e-05
3.28721e-05
9.72287e-06
1.04559e-06
1.1178e-06
1.77308e-06
1.95919e-06
3.95172e-06
6.58414e-06
6.70153e-05
7.21293e-05
2.00437e-06
1.1023e-06
5.76086e-07
6.45066e-07
6.27243e-07
2.36206e-06
1.1405e-05
1.23218e-05
1.31197e-06
1.23089e-06
2.37092e-05
5.25586e-05
5.11851e-05
4.37122e-05
6.05623e-05
6.07273e-05
4.11078e-05
5.79622e-06
6.47562e-07
3.68818e-06
5.27266e-06
1.61907e-06
7.94996e-07
1.52819e-06
1.07348e-06
2.29818e-06
5.2642e-06
6.75128e-06
3.65131e-05
5.5393e-05
2.31403e-06
1.4102e-06
1.07873e-06
8.89902e-07
8.76733e-07
8.70693e-07
3.53307e-06
3.9921e-06
1.31033e-06
2.10608e-06
1.08192e-05
3.75686e-05
6.9692e-05
6.99657e-05
8.48985e-05
5.08033e-05
2.44899e-05
4.73788e-06
1.71924e-06
2.50044e-06
2.23145e-06
1.09793e-06
1.5794e-06
1.98877e-06
7.22063e-07
2.88955e-06
7.15245e-06
7.62335e-06
1.94649e-05
3.96165e-05
2.49882e-06
1.67207e-06
1.41357e-06
1.46318e-06
1.48527e-06
1.08091e-06
1.95979e-06
3.19648e-06
2.20622e-06
2.62101e-06
8.67965e-06
2.2752e-05
7.7655e-05
0.00011591
0.000117603
4.08828e-05
1.43685e-05
4.68787e-06
2.87266e-06
4.14102e-06
3.2272e-06
1.74012e-06
2.70333e-06
2.63457e-06
1.08644e-06
4.44387e-06
7.46189e-06
5.72335e-06
6.28626e-06
2.41832e-05
2.63404e-06
1.78941e-06
1.70657e-06
2.0048e-06
2.10079e-06
1.7668e-06
2.40406e-06
4.2223e-06
2.84396e-06
2.77174e-06
6.90618e-06
2.12227e-05
9.1188e-05
0.000117387
0.000130892
4.37382e-05
1.02293e-05
4.38411e-06
3.20683e-06
5.24129e-06
5.48241e-06
3.26133e-06
4.20168e-06
4.12689e-06
1.28975e-06
4.77748e-06
6.38935e-06
3.08621e-06
3.24529e-06
1.20049e-05
2.60811e-06
2.04703e-06
1.72228e-06
2.40303e-06
2.71854e-06
2.18531e-06
3.24798e-06
4.83275e-06
3.28202e-06
3.89735e-06
7.21748e-06
2.27012e-05
0.000111345
8.32473e-05
0.000120045
5.73196e-05
1.08053e-05
5.6718e-06
3.36001e-06
4.85094e-06
7.39676e-06
5.83834e-06
5.38334e-06
4.69489e-06
1.50766e-06
3.96216e-06
3.28077e-06
1.78513e-06
5.38569e-06
4.8498e-06
2.56286e-06
2.30457e-06
1.67572e-06
2.70054e-06
2.72518e-06
2.5055e-06
4.6166e-06
6.05476e-06
4.44235e-06
6.24965e-06
9.25505e-06
4.52275e-05
0.000154963
2.07189e-05
6.70612e-05
0.000108368
2.04281e-05
1.03139e-05
5.72317e-06
3.83983e-06
6.62329e-06
8.11031e-06
7.61765e-06
4.51294e-06
1.39591e-06
3.39875e-06
1.81789e-06
1.92352e-06
9.34452e-06
2.07017e-06
1.9044e-06
2.60615e-06
1.76108e-06
2.78233e-06
2.71992e-06
3.66202e-06
7.31578e-06
7.11003e-06
7.65085e-06
1.13031e-05
1.9109e-05
0.000128063
0.000134715
2.24483e-07
3.69189e-06
0.000196173
9.66866e-05
1.59327e-05
1.27887e-05
7.35076e-06
6.53991e-06
1.022e-05
1.06266e-05
4.14231e-06
9.64031e-07
2.37919e-06
4.3736e-06
1.03242e-05
1.40511e-05
1.13773e-06
1.06451e-06
2.28503e-06
1.96943e-06
2.11841e-06
3.80034e-06
5.86457e-06
1.36534e-05
9.03001e-06
1.65502e-05
2.02429e-05
0.000107091
0.000215433
1.30702e-05
1.51567e-06
1.21487e-06
3.47777e-05
0.000198919
9.408e-05
2.29708e-05
2.2179e-05
1.20772e-05
1.57823e-05
1.74574e-05
5.98141e-06
1.26697e-06
2.65652e-06
2.17566e-06
8.0773e-06
2.03661e-05
7.56744e-07
6.78197e-07
1.23949e-06
2.07908e-06
1.60302e-06
4.98266e-06
1.43651e-05
2.00416e-05
2.47163e-05
2.25615e-05
6.0185e-05
0.000163705
3.75784e-05
1.13894e-06
2.06026e-06
2.02887e-06
1.26989e-06
3.72214e-05
0.000136811
8.90553e-05
4.75465e-05
2.78944e-05
2.50362e-05
3.01477e-05
1.24285e-05
2.25504e-06
1.3028e-05
9.11476e-06
8.60655e-06
8.55707e-06
6.73399e-07
6.12949e-07
6.01304e-07
1.46341e-06
1.33077e-06
4.80088e-06
1.86925e-05
1.48883e-05
4.71798e-05
4.59278e-05
0.00010082
4.82615e-05
1.66286e-06
2.56249e-06
2.2928e-06
2.23574e-06
2.31471e-06
1.53325e-06
1.43737e-05
6.60876e-05
7.57355e-05
5.33504e-05
3.14867e-05
6.27073e-05
2.55144e-05
1.20358e-06
7.03233e-06
1.19957e-05
6.65415e-06
9.82274e-06
8.47218e-07
8.06233e-07
4.71855e-07
4.52609e-07
5.48458e-07
5.03906e-06
2.06324e-05
1.17164e-05
1.5187e-05
7.96906e-05
0.000111409
5.29768e-06
3.70974e-06
2.57283e-06
2.12206e-06
1.94929e-06
2.06945e-06
2.83473e-06
1.64996e-06
4.89337e-06
3.02378e-05
4.8844e-05
2.45917e-05
0.000105878
8.69425e-05
1.387e-06
4.08749e-06
6.42116e-06
6.37301e-06
9.84059e-06
8.59299e-07
1.46112e-06
1.37405e-06
3.74584e-07
3.20757e-07
6.06483e-06
1.45882e-05
1.2963e-05
5.36283e-06
4.45819e-05
4.50925e-05
3.52278e-06
2.35383e-06
1.41342e-06
1.04799e-06
8.7124e-07
8.76551e-07
1.32601e-06
2.61541e-06
1.58568e-06
3.09177e-06
2.03721e-05
2.15709e-05
0.000141568
0.000210964
1.18788e-06
1.60548e-06
3.96492e-06
7.91212e-06
5.94124e-06
4.0141e-07
1.81831e-06
5.91834e-06
1.00496e-06
4.60825e-07
3.55368e-06
5.35549e-06
3.46135e-06
3.34022e-06
1.00343e-05
2.53973e-06
1.01104e-06
4.88193e-07
3.54255e-07
9.08274e-07
1.31712e-06
3.78129e-07
5.38625e-08
3.34451e-07
1.54498e-06
4.83335e-06
9.78092e-06
7.82215e-06
0.000195052
0.000325273
5.53936e-07
4.13217e-07
1.08576e-05
1.28778e-05
3.60669e-06
6.61414e-06
0.000982754
3.66855e-05
5.19146e-06
3.66861e-07
6.36821e-07
6.4536e-06
3.00151e-05
1.78077e-05
5.47325e-06
5.17577e-06
3.9858e-06
6.41762e-06
1.98099e-05
2.67594e-05
3.40154e-05
3.185e-05
3.17926e-05
2.12997e-05
9.35573e-06
7.63282e-06
4.12438e-06
4.15281e-06
0.0002366
0.000283105
5.42914e-06
1.05578e-05
5.07725e-05
6.60396e-05
9.82075e-06
0.00100814
0.00132113
0.00166742
0.00106776
4.16658e-06
1.55466e-05
0.000102597
0.0001106
0.000277408
0.000141376
0.000125101
0.000104164
0.000135888
0.000141837
0.000183885
0.000184921
0.000231076
0.000235588
0.000310886
0.000359505
0.000441549
0.000321364
0.000161705
0.000486776
0.0011005
0.00134358
5.26996e-05
4.45856e-05
0.00187938
0.000423025
0.00117559
1.70842e-06
0.000629229
0.00158499
0.00165818
0.000120267
0.000547547
0.00208372
0.00181272
0.00190695
0.00138715
0.0012296
0.00102348
0.00100885
0.000930969
0.00101096
0.00108228
0.00131233
0.00151267
0.0020471
0.00260663
0.00273296
0.00235572
0.00280144
0.0025722
0.00136791
0.00109592
0.00109477
0.000570436
0.00144104
0.000259911
3.50918e-06
1.12384e-06
4.31117e-07
0.00137961
0.00209828
0.00170329
0.00142757
0.00178653
0.00268882
0.00232374
0.00212528
0.0019167
0.00174683
0.00157645
0.00153275
0.00153453
0.00164835
0.00171718
0.00180829
0.00180053
0.00274707
0.00306039
0.00302822
0.000347462
3.23616e-05
0.000597114
0.000295188
7.84058e-06
0.000568798
0.000215073
2.51336e-06
1.72489e-06
2.75642e-06
5.79716e-06
0.000581048
0.000336335
2.97474e-05
2.09861e-05
0.000138513
0.000309151
0.000348727
0.000362502
0.000281083
0.000241294
0.000173015
0.000140694
9.21616e-05
6.86767e-05
3.70365e-05
2.73816e-05
0.000166345
0.000235564
0.000141223
2.4189e-05
7.15275e-06
5.62525e-06
8.11909e-06
6.15988e-06
0.000467702
0.00019195
2.51672e-06
2.0967e-06
3.24195e-06
7.89592e-06
2.10799e-06
4.80929e-06
1.14769e-05
3.74277e-06
5.58368e-07
3.3155e-07
4.03826e-07
6.38512e-07
8.77566e-07
1.0413e-06
1.01946e-06
9.23099e-07
7.95092e-07
7.39869e-07
5.31574e-07
2.52484e-07
3.88236e-07
6.93964e-07
3.92838e-06
2.19519e-05
7.32035e-06
6.26753e-06
8.28205e-06
5.79476e-06
0.000441712
0.000159033
3.0934e-06
2.50151e-06
3.88823e-06
1.08629e-05
2.5136e-06
4.34237e-06
4.14781e-06
1.35112e-06
9.54425e-07
6.60665e-07
7.00392e-07
8.64075e-07
1.01466e-06
1.01452e-06
9.34719e-07
8.38482e-07
6.87823e-07
6.45199e-07
6.1447e-07
3.5158e-07
6.00409e-07
1.20405e-06
3.57416e-06
2.90718e-05
6.94131e-06
7.06338e-06
8.82242e-06
4.95751e-06
0.000412417
0.000120787
2.80385e-06
2.95687e-06
5.7505e-06
1.59716e-05
3.22626e-06
5.90811e-06
1.5867e-06
4.40339e-07
6.93262e-07
5.34593e-07
5.88896e-07
6.84343e-07
7.64413e-07
7.36028e-07
6.70555e-07
5.6142e-07
4.96599e-07
4.61231e-07
4.97249e-07
3.5338e-07
4.03792e-07
1.32885e-06
3.37664e-06
3.62154e-05
6.40755e-06
6.75556e-06
9.28253e-06
4.96073e-06
0.000379114
8.85359e-05
1.83802e-06
4.02762e-06
1.16211e-05
2.40968e-05
4.47332e-06
8.38713e-06
1.11136e-06
2.70509e-07
4.3335e-07
4.63188e-07
4.49643e-07
5.47112e-07
5.68878e-07
5.3929e-07
4.5292e-07
4.10121e-07
3.33401e-07
3.11416e-07
3.7069e-07
3.11078e-07
2.258e-07
1.45996e-06
4.72314e-06
3.86352e-05
5.45729e-06
7.38102e-06
7.64002e-06
4.54551e-06
0.000353723
7.94079e-05
1.87665e-06
8.74996e-06
1.95351e-05
2.08972e-05
9.17514e-06
1.2441e-05
1.19113e-06
1.96795e-07
3.46879e-07
3.71572e-07
3.86218e-07
4.17588e-07
4.4273e-07
3.87854e-07
3.45147e-07
2.87283e-07
2.53401e-07
2.11336e-07
2.32985e-07
2.07996e-07
1.33407e-07
1.23516e-06
5.49032e-06
3.81394e-05
4.21262e-06
8.25556e-06
7.04649e-06
4.0033e-06
0.000326845
7.28659e-05
3.19107e-06
1.03849e-05
1.64032e-05
1.29625e-05
1.15862e-05
1.9243e-05
1.3904e-06
1.53222e-07
3.89774e-07
3.33316e-07
3.17323e-07
3.5115e-07
3.2964e-07
3.00018e-07
2.53539e-07
2.38607e-07
1.94658e-07
1.7611e-07
1.75082e-07
1.39085e-07
7.69868e-08
1.02055e-06
7.12047e-06
3.55035e-05
3.4405e-06
8.11128e-06
6.62321e-06
3.58852e-06
0.000301168
5.41158e-05
4.14591e-06
8.98952e-06
1.19336e-05
8.95524e-06
7.27529e-06
3.20094e-05
1.46918e-06
1.27803e-07
4.39034e-07
3.35428e-07
2.84622e-07
2.76007e-07
2.69761e-07
2.29417e-07
2.16826e-07
1.93355e-07
1.90203e-07
1.55265e-07
1.82189e-07
1.57431e-07
6.94648e-08
7.61765e-07
9.80486e-06
3.43821e-05
3.74314e-06
7.36112e-06
5.1526e-06
3.44723e-06
0.000272543
3.60918e-05
4.29156e-06
6.68198e-06
1.33261e-05
9.80036e-06
3.45792e-06
5.70683e-05
1.4681e-06
1.48675e-07
6.02599e-07
3.65601e-07
2.29302e-07
2.47974e-07
2.13546e-07
2.05181e-07
1.85376e-07
1.93527e-07
1.76401e-07
1.89096e-07
2.32385e-07
2.43984e-07
6.22882e-08
6.99043e-07
1.62222e-05
3.24088e-05
4.08695e-06
7.16594e-06
4.51466e-06
3.64698e-06
0.00023701
2.08883e-05
4.64347e-06
4.75159e-06
1.18079e-05
1.36051e-05
2.11457e-06
5.70763e-05
3.10783e-06
2.47519e-07
7.47509e-07
3.05728e-07
2.23121e-07
2.029e-07
2.11512e-07
1.80382e-07
1.97342e-07
1.89467e-07
2.17151e-07
2.00418e-07
3.34547e-07
3.52947e-07
8.83207e-08
7.95789e-07
3.10208e-05
2.9421e-05
3.93134e-06
5.75606e-06
4.5389e-06
4.66615e-06
0.000190548
9.12531e-06
4.66031e-06
4.92787e-06
8.76646e-06
1.31279e-05
2.77701e-06
3.5032e-05
1.06294e-05
2.48277e-07
6.69374e-07
2.63402e-07
1.92892e-07
2.00137e-07
1.88712e-07
2.10115e-07
1.93181e-07
2.30582e-07
2.22018e-07
2.64493e-07
4.13877e-07
4.4173e-07
1.64735e-07
1.28116e-06
6.3074e-05
1.75505e-05
3.79834e-06
5.77623e-06
4.86756e-06
6.88302e-06
0.000133184
5.13957e-06
3.57153e-06
4.58565e-06
7.1309e-06
1.24659e-05
4.07268e-06
2.57254e-05
1.54514e-05
3.49989e-07
6.26595e-07
2.56305e-07
1.99097e-07
1.96427e-07
2.04365e-07
2.05717e-07
2.28948e-07
2.41187e-07
2.59933e-07
3.07687e-07
5.42619e-07
4.63874e-07
4.37128e-07
3.07558e-06
7.4512e-05
4.44341e-06
3.3353e-06
5.98684e-06
6.34064e-06
1.02976e-05
7.39054e-05
4.94504e-06
2.9659e-06
3.93047e-06
6.05696e-06
1.34057e-05
4.91565e-06
2.23871e-05
1.17757e-05
3.77474e-07
5.22914e-07
2.9489e-07
2.19836e-07
2.27269e-07
2.2312e-07
2.29516e-07
2.48021e-07
2.73246e-07
3.13971e-07
3.72477e-07
6.31241e-07
5.18367e-07
4.85438e-07
1.40196e-05
4.34368e-05
1.08196e-06
3.6135e-06
7.17834e-06
9.65618e-06
1.38178e-05
2.82404e-05
5.3508e-06
3.13817e-06
3.69104e-06
5.97689e-06
1.26045e-05
5.08448e-06
3.13405e-05
1.05753e-05
2.74822e-07
5.73225e-07
2.96809e-07
2.82199e-07
2.55458e-07
2.70388e-07
2.65073e-07
2.86299e-07
3.26584e-07
3.67634e-07
4.33828e-07
6.56805e-07
5.58499e-07
4.66042e-07
1.79322e-05
2.56818e-05
8.25609e-07
5.36522e-06
1.07223e-05
1.26005e-05
1.02053e-05
4.52944e-06
5.3566e-06
3.5676e-06
3.94602e-06
6.06093e-06
1.11718e-05
4.05653e-06
4.0359e-05
1.29523e-05
5.47655e-07
5.50051e-07
3.6072e-07
3.07679e-07
3.09017e-07
3.01696e-07
3.17831e-07
3.27653e-07
3.82536e-07
4.07397e-07
4.85651e-07
6.5081e-07
6.25521e-07
5.0104e-07
1.44889e-05
1.98143e-05
1.34835e-06
8.66468e-06
1.36716e-05
9.10024e-06
3.87462e-06
3.60627e-06
4.78986e-06
3.8585e-06
4.44272e-06
6.13436e-06
1.01258e-05
2.63691e-06
4.97982e-05
1.83373e-05
7.62911e-07
5.99329e-07
3.96632e-07
3.76287e-07
3.47357e-07
3.63636e-07
3.59681e-07
3.92474e-07
4.13175e-07
4.65897e-07
5.15592e-07
6.61835e-07
6.68266e-07
7.64686e-07
1.14255e-05
2.31771e-05
1.90391e-06
1.16127e-05
1.10188e-05
3.667e-06
2.65215e-06
6.43611e-06
4.09316e-06
3.65189e-06
4.59099e-06
5.95599e-06
8.08301e-06
1.8781e-06
5.57292e-05
2.45194e-05
1.04189e-06
5.87762e-07
4.26001e-07
4.15982e-07
4.07688e-07
3.87397e-07
4.07996e-07
4.03772e-07
4.62128e-07
4.73339e-07
5.52007e-07
6.59255e-07
6.94408e-07
1.18064e-06
1.16217e-05
3.65056e-05
3.55825e-06
1.06454e-05
5.85993e-06
1.8491e-06
4.62274e-06
5.3567e-06
4.06796e-06
3.25136e-06
3.93554e-06
5.74458e-06
6.21061e-06
1.198e-06
5.99506e-05
3.83422e-05
1.12631e-06
4.83625e-07
4.20835e-07
4.39727e-07
4.07669e-07
4.11228e-07
4.06159e-07
4.28897e-07
4.61077e-07
5.17394e-07
5.55463e-07
6.67716e-07
7.2467e-07
1.5274e-06
1.79092e-05
4.43816e-05
4.50854e-06
8.07138e-06
2.48139e-06
1.71627e-06
7.34584e-06
6.32667e-06
4.96699e-06
3.13628e-06
3.12513e-06
5.12647e-06
4.94725e-06
9.79059e-07
5.96055e-05
4.94062e-05
1.07686e-06
4.79036e-07
4.73876e-07
4.55302e-07
4.31263e-07
4.48897e-07
4.33029e-07
4.76058e-07
4.94026e-07
5.54917e-07
5.97232e-07
6.32059e-07
8.98245e-07
1.58698e-06
2.69359e-05
4.93164e-05
3.7736e-06
5.05947e-06
1.52024e-06
2.30266e-06
7.29851e-06
1.85055e-05
5.65101e-06
3.38946e-06
2.74275e-06
4.14563e-06
3.84409e-06
8.59129e-07
6.12984e-05
5.551e-05
1.04395e-06
5.86159e-07
5.38885e-07
4.90406e-07
4.69281e-07
4.73141e-07
4.70292e-07
5.08605e-07
5.33953e-07
5.75964e-07
6.00001e-07
6.46366e-07
9.87044e-07
1.74491e-06
3.13976e-05
6.19959e-05
3.04832e-06
2.54065e-06
1.16113e-06
2.63602e-06
3.64201e-06
2.37809e-05
6.54273e-06
3.6848e-06
2.50689e-06
3.00821e-06
2.76328e-06
8.0865e-07
6.51824e-05
6.3065e-05
1.02291e-06
6.64023e-07
6.04739e-07
5.04505e-07
5.13543e-07
4.68705e-07
4.98174e-07
4.80082e-07
5.48913e-07
5.54744e-07
6.00523e-07
6.57943e-07
1.05762e-06
1.72736e-06
4.19095e-05
8.19053e-05
2.08252e-06
1.07695e-06
8.20704e-07
3.12124e-06
2.49551e-06
1.82227e-05
7.50396e-06
3.84621e-06
2.19008e-06
1.8622e-06
1.66961e-06
8.25711e-07
7.18712e-05
7.11191e-05
8.80814e-07
6.61083e-07
5.89815e-07
4.94402e-07
5.06011e-07
4.81338e-07
4.6394e-07
4.72248e-07
4.99039e-07
5.30089e-07
5.47272e-07
6.3373e-07
1.15162e-06
1.54988e-06
6.03184e-05
0.000107156
1.22982e-06
4.94634e-07
6.93257e-07
7.46138e-06
7.18594e-06
1.62202e-05
8.71688e-06
3.74555e-06
1.76937e-06
9.79642e-07
8.8779e-07
8.59691e-07
8.28017e-05
8.39508e-05
6.20298e-07
5.45306e-07
5.02094e-07
3.96371e-07
4.40366e-07
3.93997e-07
3.96705e-07
3.91269e-07
4.13256e-07
4.31677e-07
4.52656e-07
5.78806e-07
1.26515e-06
1.60049e-06
7.57985e-05
0.000129435
1.12121e-06
2.31823e-07
2.37964e-06
9.11627e-06
0.000264127
0.00015393
9.72855e-06
3.49257e-06
1.67257e-06
5.20744e-07
5.31217e-07
7.67965e-07
0.000100562
0.000104151
4.4515e-07
4.72122e-07
3.77462e-07
2.66526e-07
2.89997e-07
2.47102e-07
2.51475e-07
2.67633e-07
2.98981e-07
3.22852e-07
3.71031e-07
6.1438e-07
1.54765e-06
1.62007e-06
2.64785e-05
0.000148256
1.20489e-05
6.26872e-08
2.31402e-06
1.59237e-05
0.00014042
0.000430221
3.78657e-05
7.06343e-06
4.00024e-06
4.08985e-07
3.25566e-07
4.88365e-07
0.000121026
0.000108484
5.01626e-07
5.77953e-07
3.73654e-07
1.97775e-07
1.89538e-07
1.52094e-07
1.6789e-07
2.17298e-07
2.90757e-07
3.34446e-07
4.8158e-07
9.84628e-07
2.03147e-06
1.72721e-06
2.78306e-06
0.000120873
0.000207534
8.84792e-06
8.85167e-06
0.000145966
8.66924e-07
0.000195086
0.000238227
0.000194037
3.58644e-06
2.11679e-06
4.4373e-07
1.62341e-05
0.000135582
3.70169e-05
9.45121e-07
9.98362e-07
7.6416e-07
3.56911e-07
2.84896e-07
2.71592e-07
3.07614e-07
4.19065e-07
6.02317e-07
7.48237e-07
1.25029e-06
2.11983e-06
3.56229e-06
7.75189e-06
3.0853e-05
7.23472e-05
6.17714e-05
0.00012838
8.95255e-05
3.19831e-05
2.82065e-06
0.000152013
0.000278396
6.0019e-05
7.216e-05
3.83554e-05
5.50968e-05
0.000217996
2.83587e-05
9.30899e-06
2.50251e-06
1.33977e-06
1.38625e-06
8.9001e-07
7.43293e-07
7.25793e-07
8.15923e-07
9.78152e-07
1.24317e-06
1.69679e-06
2.72099e-06
4.1162e-06
8.93233e-06
2.23678e-05
3.69493e-05
1.78279e-05
2.89614e-05
5.46874e-05
2.22897e-05
2.52043e-06
3.249e-06
0.000130738
0.00013
1.91417e-06
3.276e-05
3.86056e-05
6.3864e-05
1.4774e-05
1.59208e-05
4.34382e-06
1.17743e-06
8.59452e-07
9.3618e-07
8.74298e-07
9.07862e-07
9.49998e-07
1.03893e-06
1.0456e-06
1.15779e-06
1.73525e-06
2.76935e-06
4.3911e-06
9.02075e-06
1.38777e-05
6.37043e-06
1.28566e-06
1.02372e-05
2.93894e-05
9.62008e-06
3.34844e-06
3.49689e-06
0.000104178
0.0001102
1.89583e-06
3.94631e-06
5.5058e-06
1.80647e-06
5.64605e-06
1.02822e-05
1.56207e-06
1.55776e-07
2.2231e-07
3.71755e-07
4.34843e-07
4.85662e-07
5.05417e-07
5.8904e-07
6.19228e-07
6.39467e-07
8.2357e-07
1.14882e-06
1.55176e-06
1.78901e-06
1.59935e-06
5.611e-07
8.69622e-07
8.65605e-06
3.01612e-05
7.53094e-06
3.44467e-06
3.75882e-06
7.5592e-05
9.00513e-05
1.7868e-06
3.82978e-06
4.63004e-06
3.12078e-06
4.77572e-06
9.26862e-06
1.45793e-06
3.83397e-07
2.79915e-07
3.06255e-07
3.15482e-07
3.41183e-07
3.51553e-07
3.91588e-07
4.19456e-07
4.38188e-07
4.83116e-07
5.21989e-07
4.55706e-07
4.50229e-07
5.92992e-07
5.6553e-07
1.0714e-06
8.10672e-06
2.82092e-05
6.7259e-06
3.42051e-06
4.09233e-06
4.93905e-05
7.16833e-05
1.56854e-06
3.40443e-06
4.30877e-06
3.65656e-06
4.18364e-06
1.01632e-05
1.88919e-06
9.02164e-07
6.45228e-07
5.92606e-07
5.26658e-07
5.24285e-07
5.09696e-07
5.2057e-07
5.33746e-07
5.66001e-07
5.93902e-07
6.29453e-07
5.79899e-07
6.52727e-07
7.78572e-07
7.93447e-07
1.40572e-06
8.4696e-06
2.88193e-05
5.79688e-06
3.31498e-06
4.68795e-06
2.72827e-05
5.5441e-05
1.3706e-06
2.7798e-06
3.43472e-06
3.87247e-06
4.10704e-06
1.25223e-05
3.00397e-06
1.34221e-06
1.01349e-06
9.30105e-07
8.85285e-07
8.58305e-07
8.24144e-07
8.05517e-07
8.18938e-07
8.5963e-07
8.67548e-07
8.62261e-07
8.12938e-07
8.82301e-07
1.0745e-06
1.05404e-06
1.81374e-06
9.23531e-06
3.05816e-05
4.7206e-06
3.18254e-06
4.91872e-06
1.1863e-05
4.12144e-05
1.21912e-06
2.25873e-06
2.6925e-06
3.35066e-06
3.63023e-06
1.31276e-05
5.86402e-06
1.68448e-06
1.39791e-06
1.21454e-06
1.22312e-06
1.17225e-06
1.14558e-06
1.10753e-06
1.12519e-06
1.17404e-06
1.18879e-06
1.1749e-06
1.09569e-06
1.13061e-06
1.39042e-06
1.36142e-06
2.18937e-06
1.01827e-05
3.42334e-05
3.75412e-06
2.70628e-06
3.6341e-06
5.65938e-06
2.93051e-05
1.08188e-06
1.95318e-06
2.32732e-06
2.98809e-06
3.45106e-06
1.31082e-05
8.99624e-06
1.96679e-06
1.84353e-06
1.54499e-06
1.56828e-06
1.50582e-06
1.5102e-06
1.4975e-06
1.52632e-06
1.55993e-06
1.58933e-06
1.59462e-06
1.51537e-06
1.46072e-06
1.63676e-06
1.66374e-06
2.54663e-06
1.17883e-05
3.85513e-05
2.54566e-06
1.64421e-06
2.13745e-06
3.96508e-06
1.98403e-05
9.57999e-07
1.82158e-06
2.25734e-06
2.80076e-06
3.41285e-06
1.57462e-05
1.41276e-05
1.76799e-06
1.97223e-06
1.68771e-06
1.72899e-06
1.67231e-06
1.70637e-06
1.72385e-06
1.75631e-06
1.78002e-06
1.83614e-06
1.89572e-06
1.89934e-06
1.81798e-06
1.79953e-06
1.95065e-06
2.79936e-06
1.20889e-05
3.83558e-05
1.75784e-06
8.09903e-07
1.41125e-06
3.40253e-06
1.26649e-05
8.5158e-07
1.83253e-06
2.45932e-06
2.81696e-06
3.17768e-06
1.76276e-05
2.24856e-05
9.74374e-07
1.16615e-06
1.10595e-06
1.24403e-06
1.23332e-06
1.25933e-06
1.2574e-06
1.27353e-06
1.29891e-06
1.37447e-06
1.49744e-06
1.66834e-06
1.73685e-06
1.78828e-06
2.3143e-06
2.95853e-06
1.1741e-05
2.91346e-05
3.21943e-06
7.70694e-07
1.02437e-06
3.1134e-06
7.36955e-06
7.64238e-07
1.8888e-06
2.82894e-06
2.99544e-06
2.94186e-06
1.71641e-05
2.99538e-05
8.35009e-07
3.1166e-07
3.09087e-07
4.54384e-07
4.6606e-07
4.59596e-07
4.34858e-07
4.30737e-07
4.38644e-07
4.59838e-07
5.28951e-07
7.03888e-07
8.78934e-07
1.29554e-06
2.56021e-06
3.23088e-06
1.01102e-05
1.15342e-05
1.50969e-05
2.06588e-06
8.53411e-07
2.70372e-06
3.65288e-06
6.82993e-07
1.85075e-06
3.0996e-06
3.26767e-06
2.81378e-06
1.66387e-05
3.72681e-05
1.67678e-06
4.35862e-07
3.80656e-07
3.75609e-07
3.67773e-07
3.13e-07
2.52881e-07
2.15996e-07
1.64154e-07
7.13614e-08
2.45797e-08
7.13449e-08
1.97609e-07
8.07447e-07
1.97232e-06
3.59562e-06
9.66232e-06
4.20475e-06
5.60874e-06
1.12213e-05
4.46519e-06
9.54169e-06
1.43964e-06
5.95288e-07
1.69182e-06
2.88119e-06
3.14492e-06
2.48449e-06
1.78713e-05
4.62067e-05
1.94209e-06
1.23255e-06
3.15871e-06
3.4407e-06
3.64382e-06
3.54258e-06
3.33985e-06
3.0606e-06
2.73352e-06
2.11547e-06
1.64872e-06
9.39089e-07
5.18313e-07
1.19082e-06
1.49211e-06
3.09006e-06
8.93292e-06
3.11962e-06
1.62508e-06
2.79081e-06
2.33618e-05
4.1204e-05
4.5644e-07
5.17898e-07
1.34483e-06
2.12363e-06
2.49595e-06
2.0901e-06
1.55878e-05
5.75436e-05
5.9127e-07
6.49317e-07
8.01851e-07
1.48315e-06
1.84964e-06
2.08445e-06
2.03776e-06
1.99069e-06
1.76608e-06
1.41935e-06
1.46514e-06
1.36213e-06
1.42334e-06
1.82289e-06
1.03929e-06
1.98831e-06
8.87372e-06
3.31047e-06
1.54668e-06
1.70576e-06
4.01824e-06
1.73509e-05
1.78272e-07
4.37339e-07
9.5752e-07
1.41432e-06
1.78958e-06
1.90037e-06
1.03473e-05
6.24415e-05
1.12319e-07
5.78451e-07
1.98736e-07
1.48419e-07
1.69474e-07
2.01462e-07
2.10203e-07
1.92766e-07
1.46647e-07
1.15409e-07
2.02954e-07
5.21609e-07
1.01878e-06
1.37638e-06
6.46556e-07
1.02203e-06
1.04305e-05
4.52754e-06
2.01974e-06
1.93517e-06
2.73166e-06
5.92866e-06
1.5476e-07
3.61208e-07
6.75538e-07
9.89477e-07
1.40488e-06
1.8557e-06
5.81313e-06
5.76952e-05
1.90352e-06
1.25719e-06
6.78431e-07
4.80149e-07
4.17525e-07
3.93443e-07
3.90646e-07
3.87979e-07
3.85909e-07
3.99149e-07
5.07175e-07
7.23683e-07
1.01719e-06
1.2497e-06
7.59323e-07
1.2344e-06
1.47943e-05
6.52839e-06
3.37086e-06
2.97039e-06
2.25597e-06
1.94329e-06
1.75423e-07
3.00037e-07
5.08652e-07
7.56481e-07
1.17554e-06
1.80178e-06
3.79784e-06
6.58378e-05
6.56994e-06
2.53471e-06
1.53533e-06
1.30364e-06
1.14935e-06
1.07302e-06
1.04913e-06
1.04681e-06
1.05536e-06
1.08548e-06
1.1615e-06
1.20836e-06
1.46673e-06
1.51595e-06
1.03877e-06
2.64966e-06
1.9108e-05
7.19201e-06
4.9623e-06
3.9956e-06
2.25957e-06
5.8516e-07
1.73996e-07
2.71335e-07
4.34776e-07
6.36669e-07
9.73999e-07
1.44847e-06
2.19652e-06
2.69882e-05
2.91363e-05
2.04409e-06
2.36839e-06
1.91231e-06
1.7576e-06
1.67183e-06
1.63429e-06
1.61431e-06
1.60149e-06
1.62513e-06
1.70707e-06
1.84879e-06
2.05992e-06
1.7233e-06
1.13105e-06
6.28391e-06
1.72061e-05
6.55481e-06
5.52433e-06
4.04678e-06
2.14798e-06
4.6733e-07
3.50835e-07
3.95596e-07
5.25602e-07
7.19289e-07
9.60017e-07
1.11644e-06
1.03742e-06
3.18062e-06
3.5447e-05
1.97704e-06
3.02248e-06
2.3231e-06
2.17548e-06
2.06983e-06
2.02211e-06
1.99959e-06
1.99625e-06
2.03794e-06
2.18055e-06
2.41049e-06
2.16127e-06
1.382e-06
1.24597e-06
9.72577e-06
1.02565e-05
5.49844e-06
4.7173e-06
3.42506e-06
2.00715e-06
7.52059e-07
2.86491e-06
1.47005e-06
1.01862e-06
1.35925e-06
1.51118e-06
1.19225e-06
6.22423e-07
7.17101e-07
2.29146e-05
1.25456e-06
2.54894e-06
2.18684e-06
2.10102e-06
2.02869e-06
1.98098e-06
1.95039e-06
1.9419e-06
1.99799e-06
2.13536e-06
2.01825e-06
1.2636e-06
8.69627e-07
1.80417e-06
5.82947e-06
5.4438e-06
4.13904e-06
3.31268e-06
2.64148e-06
2.02245e-06
1.6853e-06
1.17254e-05
4.07159e-06
2.42317e-06
3.2185e-06
2.93064e-06
1.63173e-06
4.42888e-07
3.99925e-07
9.73591e-06
4.97274e-07
1.45279e-06
1.35577e-06
1.28891e-06
1.24629e-06
1.20727e-06
1.1691e-06
1.15431e-06
1.18891e-06
1.17483e-06
8.94379e-07
7.35186e-07
8.52555e-07
1.38359e-06
3.38342e-06
3.79297e-06
2.55731e-06
1.90986e-06
1.97909e-06
3.22682e-06
5.78562e-06
2.09058e-05
5.89914e-06
6.85141e-06
7.25252e-06
4.45523e-06
9.81283e-07
8.24279e-08
1.23815e-06
8.64371e-06
2.83536e-06
1.47328e-06
9.50255e-07
7.13016e-07
5.83971e-07
5.0923e-07
4.59895e-07
4.43928e-07
4.72178e-07
5.33746e-07
8.13128e-07
1.32116e-06
1.27393e-06
1.18383e-06
2.15319e-06
3.26855e-06
1.43149e-06
9.3243e-07
2.02766e-06
6.45679e-06
1.40246e-05
0.00081316
0.000136823
7.39286e-06
2.61966e-06
6.45227e-07
5.11298e-08
1.59186e-07
4.17213e-06
1.01153e-05
8.10395e-06
2.4582e-06
1.47265e-06
9.12786e-07
5.83672e-07
4.22694e-07
3.39361e-07
3.24505e-07
3.96687e-07
6.92185e-07
1.45417e-06
1.92282e-06
1.95362e-06
2.04616e-06
2.28891e-06
3.84005e-06
1.22193e-06
3.94913e-07
1.68637e-06
9.90451e-06
3.41129e-05
0.000427244
0.00103586
0.000310508
7.29886e-07
4.84567e-07
2.39229e-07
7.85604e-07
7.30231e-06
1.3397e-05
9.70766e-06
3.70885e-06
2.42926e-06
1.41107e-06
8.12425e-07
5.33621e-07
4.00805e-07
3.62092e-07
4.78187e-07
9.34569e-07
1.63304e-06
2.36384e-06
2.90928e-06
3.22802e-06
5.6752e-06
7.62122e-06
2.69048e-06
1.42965e-07
9.39525e-07
9.65174e-06
5.5789e-05
3.44124e-05
0.000225347
0.00132663
0.000641841
7.96531e-06
1.58156e-06
1.51908e-06
7.69531e-06
1.43195e-05
1.04223e-05
5.36455e-06
2.86911e-06
1.55051e-06
8.76582e-07
5.43206e-07
3.68722e-07
3.02864e-07
4.12255e-07
8.99125e-07
1.96578e-06
3.43518e-06
5.08732e-06
5.42317e-06
9.59983e-06
7.75454e-06
1.19553e-05
9.20037e-07
4.27136e-07
0.000130089
0.000355748
2.04188e-05
5.22124e-07
7.86538e-05
0.00123191
0.000989785
0.000105122
5.36499e-06
8.63267e-06
1.35067e-05
1.42813e-05
7.638e-06
3.44352e-06
1.84034e-06
9.26584e-07
5.41165e-07
3.34175e-07
2.49465e-07
4.10829e-07
1.25109e-06
3.15656e-06
5.07719e-06
6.50515e-06
7.90871e-06
6.64495e-06