/*--------------------------------*- C++ -*----------------------------------*\
| =========                 |                                                 |
| \\      /  F ield         | OpenFOAM: The Open Source CFD Toolbox           |
|  \\    /   O peration     | Version:  2.3.0                                 |
|   \\  /    A nd           | Web:      www.OpenFOAM.org                      |
|    \\/     M anipulation  |                                                 |
\*---------------------------------------------------------------------------*/
FoamFile
{
    version     2.0;
    format      ascii;
    class       surfaceScalarField;
    location    "1.3";
    object      phi;
}
// * * * * * * * * * * * * * * * * * * * * * * * * * * * * * * * * * * * * * //

dimensions      [0 3 -1 0 0 0 0];

internalField   nonuniform List<scalar> 
11770
(
-2.28247e-06
5.09551e-05
6.3322e-07
4.57227e-05
1.75976e-06
4.76517e-05
6.96308e-06
4.34362e-05
-1.03757e-06
5.68807e-05
-7.70742e-06
5.55809e-05
-7.67427e-06
4.85842e-05
-7.29684e-06
4.79972e-05
-5.95576e-06
4.67378e-05
-4.04478e-06
4.63585e-05
-2.65221e-06
4.69725e-05
-2.615e-06
4.84918e-05
-1.99093e-06
4.79525e-05
5.79685e-07
4.59772e-05
2.41139e-06
4.67314e-05
2.41538e-06
4.86759e-05
9.01534e-07
5.02907e-05
-2.159e-06
5.19098e-05
-5.70417e-06
5.23956e-05
-8.31028e-06
5.13913e-05
-1.00466e-05
5.04688e-05
-1.40455e-05
5.27503e-05
-2.09823e-05
5.57651e-05
-2.52605e-05
5.30653e-05
-2.23221e-05
4.57057e-05
-1.47047e-05
4.09237e-05
-5.04329e-06
3.87769e-05
-3.72584e-07
4.38325e-05
-3.46227e-07
4.8537e-05
4.81525e-05
5.04902e-06
4.75002e-05
9.96869e-06
4.22057e-05
1.4008e-05
4.49215e-05
1.04739e-05
4.81113e-05
-8.11032e-06
7.67977e-05
-1.9571e-05
6.85306e-05
-1.88598e-05
4.93721e-05
-1.20232e-05
4.26167e-05
-4.63721e-06
4.07281e-05
9.27837e-07
4.21385e-05
3.19766e-06
4.60307e-05
2.3691e-06
5.06439e-05
2.89083e-07
5.12743e-05
-1.24265e-06
4.87006e-05
-1.564e-06
4.8313e-05
-1.41608e-06
4.98415e-05
-1.05218e-06
5.12377e-05
-2.80923e-06
5.49766e-05
-5.17753e-06
5.60606e-05
-8.35114e-06
5.5849e-05
-1.25401e-05
5.59386e-05
-1.85887e-05
6.01384e-05
-2.4662e-05
6.32767e-05
-2.7801e-05
5.76191e-05
-2.50558e-05
4.42522e-05
-1.83285e-05
3.5417e-05
-1.14745e-05
3.3119e-05
-7.31668e-06
4.09674e-05
-6.78596e-06
4.94072e-05
4.28192e-05
6.81674e-06
4.08248e-05
1.57051e-05
3.34519e-05
2.2948e-05
3.78033e-05
4.48484e-06
6.67427e-05
-1.20702e-05
9.36163e-05
-2.43136e-05
8.09743e-05
-1.85144e-05
4.37948e-05
-6.97491e-06
3.12925e-05
-3.511e-08
3.39665e-05
4.16189e-06
3.81319e-05
6.88537e-06
4.35001e-05
8.49506e-06
4.92213e-05
5.27505e-06
5.47e-05
1.90121e-06
5.22917e-05
6.85856e-07
4.97325e-05
-1.20703e-06
5.18923e-05
-5.32081e-06
5.54907e-05
-8.69688e-06
5.84851e-05
-1.09648e-05
5.84648e-05
-1.2782e-05
5.78197e-05
-1.4635e-05
5.79544e-05
-1.70525e-05
6.27259e-05
-1.76717e-05
6.40692e-05
-1.76678e-05
5.779e-05
-1.82259e-05
4.49801e-05
-1.96847e-05
3.70197e-05
-1.86211e-05
3.21973e-05
-1.00526e-05
3.25427e-05
-3.69679e-06
4.31693e-05
3.92202e-05
1.37719e-05
2.71354e-05
1.52459e-05
3.20611e-05
8.54789e-06
4.45854e-05
-6.31079e-06
8.17199e-05
-5.91234e-06
9.33796e-05
-1.29248e-05
8.81152e-05
-1.05341e-05
4.15404e-05
-2.68506e-06
2.35721e-05
1.94892e-06
2.94345e-05
5.34835e-06
3.48444e-05
8.94549e-06
4.00121e-05
1.03582e-05
4.79221e-05
4.90686e-06
6.02849e-05
-4.18556e-06
6.15046e-05
-1.25152e-05
5.81572e-05
-1.86354e-05
5.80991e-05
-2.36483e-05
6.05873e-05
-2.57482e-05
6.06614e-05
-2.72402e-05
6.00224e-05
-2.72081e-05
5.78485e-05
-2.61976e-05
5.70118e-05
-2.08201e-05
5.74341e-05
-1.34469e-05
5.68104e-05
-6.73703e-06
5.12232e-05
-4.19426e-06
4.25561e-05
-4.84191e-06
3.77649e-05
-6.00239e-06
3.34504e-05
-7.03386e-06
3.36695e-05
-4.38764e-06
4.06185e-05
3.49091e-05
1.56347e-05
1.15716e-05
5.47649e-06
4.23039e-05
-6.238e-06
5.63915e-05
-6.42513e-06
8.20166e-05
-3.41372e-06
9.04945e-05
-2.61045e-06
8.7426e-05
-2.9972e-06
4.20281e-05
6.33329e-07
2.00338e-05
3.5205e-06
2.66346e-05
6.72506e-06
3.17311e-05
1.03708e-05
3.64534e-05
7.03818e-06
5.13473e-05
-1.06382e-05
7.80726e-05
-2.3029e-05
7.39931e-05
-3.55134e-05
7.0735e-05
-4.37049e-05
6.63845e-05
-4.45389e-05
6.15179e-05
-4.21656e-05
5.83851e-05
-3.84358e-05
5.63872e-05
-3.429e-05
5.38007e-05
-2.87252e-05
5.15479e-05
-2.05133e-05
4.93333e-05
-9.85623e-06
4.62854e-05
1.39516e-06
4.00937e-05
1.13073e-05
3.27393e-05
1.95112e-05
2.96498e-05
1.94388e-05
3.36104e-05
1.15641e-05
4.16296e-05
3.36741e-06
4.89089e-05
3.8354e-05
7.33486e-06
4.30182e-06
-3.22514e-06
5.29514e-05
-7.17346e-06
6.04304e-05
-4.87311e-06
7.98191e-05
-2.13933e-08
8.57517e-05
2.83859e-06
8.46712e-05
3.83783e-06
4.11125e-05
3.40337e-06
2.05426e-05
3.99397e-06
2.61232e-05
5.5867e-06
3.02168e-05
7.20009e-06
3.49144e-05
-1.82854e-05
7.69256e-05
-4.00227e-05
9.99186e-05
-5.28906e-05
8.69616e-05
-5.68492e-05
7.47906e-05
-5.50344e-05
6.4668e-05
-5.08343e-05
5.74202e-05
-4.57091e-05
5.33685e-05
-4.01452e-05
5.09422e-05
-3.48127e-05
4.85928e-05
-2.83881e-05
4.52456e-05
-2.0654e-05
4.17203e-05
-1.08859e-05
3.66272e-05
3.23409e-07
2.89753e-05
1.60795e-05
1.70666e-05
3.53269e-05
1.04844e-05
4.78356e-05
2.11867e-05
4.28842e-05
4.66672e-05
2.07108e-05
7.11765e-05
5.91541e-05
-3.3501e-06
7.71491e-06
-4.40533e-06
5.40921e-05
-6.86924e-06
6.29838e-05
-2.13997e-06
7.51872e-05
2.81017e-06
8.09016e-05
4.59668e-06
8.29813e-05
7.51368e-06
3.82606e-05
4.6234e-06
2.34974e-05
3.33827e-06
2.74831e-05
2.06841e-06
3.15575e-05
-1.99964e-05
5.70525e-05
-5.34633e-05
0.000110498
-5.99564e-05
0.000106517
-6.79218e-05
9.50278e-05
-6.90897e-05
7.60579e-05
-6.44033e-05
6.00809e-05
-5.70875e-05
5.02069e-05
-4.94798e-05
4.58682e-05
-4.24354e-05
4.40111e-05
-3.56765e-05
4.19464e-05
-2.93252e-05
3.90028e-05
-2.20131e-05
3.45086e-05
-1.4048e-05
2.87498e-05
-6.51462e-07
1.56608e-05
1.57524e-05
7.391e-07
3.03811e-05
-4.07082e-06
4.27421e-05
8.90357e-06
4.17376e-05
4.77562e-05
2.53942e-05
8.76172e-05
8.46486e-05
-7.64198e-06
1.54238e-05
-4.79251e-06
5.13241e-05
-5.38715e-06
6.3664e-05
-1.62787e-07
7.0055e-05
3.51399e-06
7.73196e-05
3.86981e-06
8.27062e-05
7.446e-06
3.47212e-05
3.46124e-06
2.75449e-05
4.23903e-07
3.05929e-05
-7.64424e-06
3.96913e-05
-5.29048e-05
0.000102409
-6.36362e-05
0.000121338
-7.31108e-05
0.000116099
-8.34759e-05
0.000105499
-8.23297e-05
7.50143e-05
-7.36859e-05
5.15351e-05
-6.25716e-05
3.91892e-05
-5.293e-05
3.6323e-05
-4.46667e-05
3.5844e-05
-3.71829e-05
3.45571e-05
-3.02522e-05
3.21639e-05
-2.28591e-05
2.72026e-05
-1.08373e-05
1.68099e-05
4.58962e-06
3.09002e-07
1.43724e-05
-8.97653e-06
2.02862e-05
-9.92031e-06
2.79037e-05
1.35561e-06
2.70366e-05
4.87065e-05
1.50282e-05
9.97245e-05
9.97777e-05
-4.82215e-06
2.03136e-05
-2.83348e-06
4.94126e-05
2.79708e-07
6.06283e-05
2.21424e-06
6.8208e-05
5.22115e-07
7.91027e-05
1.58884e-06
8.16737e-05
2.03472e-06
3.43027e-05
-1.70301e-06
3.13531e-05
-5.94041e-06
3.48986e-05
-3.93616e-05
7.31861e-05
-6.38923e-05
0.000127046
-7.00991e-05
0.000127655
-7.9123e-05
0.000125233
-8.95449e-05
0.000116032
-8.17166e-05
6.72883e-05
-6.96885e-05
3.95995e-05
-6.00212e-05
2.96104e-05
-5.23795e-05
2.87701e-05
-4.49412e-05
2.84943e-05
-3.6323e-05
2.60259e-05
-2.62374e-05
2.21632e-05
-1.40682e-05
1.5114e-05
1.07385e-07
2.7077e-06
8.52598e-06
-8.04567e-06
1.06217e-05
-1.10136e-05
1.06412e-05
-9.88224e-06
1.31388e-05
-1.07877e-06
1.49765e-05
4.69506e-05
8.79271e-06
0.000106008
0.000108671
-1.57385e-06
2.19557e-05
-5.19223e-07
4.84361e-05
4.62735e-06
5.55532e-05
4.59595e-06
6.83212e-05
1.26299e-06
8.25238e-05
2.32331e-06
8.06525e-05
-5.41477e-06
4.20866e-05
-8.00426e-06
3.40131e-05
-2.30503e-05
5.00043e-05
-6.13466e-05
0.000111572
-6.4934e-05
0.000130739
-6.88931e-05
0.00013172
-7.55733e-05
0.00013202
-7.88535e-05
0.000119423
-6.49841e-05
5.35115e-05
-5.51369e-05
2.98347e-05
-4.90177e-05
2.35699e-05
-4.26189e-05
2.24511e-05
-3.45223e-05
2.04777e-05
-2.47214e-05
1.63027e-05
-1.33557e-05
1.08722e-05
-2.13446e-06
3.96237e-06
5.46387e-06
-4.82922e-06
6.98334e-06
-9.50989e-06
5.30684e-06
-9.28402e-06
1.91197e-06
-6.4339e-06
-3.63251e-07
1.25554e-06
5.514e-06
4.11543e-05
6.02469e-06
0.000105598
0.000114795
1.19311e-06
2.08305e-05
3.06599e-06
4.66437e-05
6.56325e-06
5.21328e-05
1.12882e-05
6.3662e-05
1.33864e-05
8.04967e-05
1.08507e-05
8.32574e-05
-8.62063e-06
6.1621e-05
-1.6593e-05
4.20484e-05
-4.85257e-05
8.19916e-05
-6.13298e-05
0.000124458
-6.09377e-05
0.000130446
-6.2937e-05
0.000133822
-6.67625e-05
0.000135949
-5.80428e-05
0.000110805
-4.60084e-05
4.15565e-05
-4.00625e-05
2.396e-05
-3.63361e-05
1.99127e-05
-3.07539e-05
1.69379e-05
-2.31873e-05
1.29794e-05
-1.4641e-05
7.82224e-06
-5.92181e-06
2.21509e-06
1.2455e-06
-3.14739e-06
3.83697e-06
-7.36788e-06
3.06363e-06
-8.68582e-06
2.67011e-07
-6.43717e-06
-4.94297e-06
-1.17297e-06
-1.16377e-05
8.00675e-06
-6.6795e-06
3.62734e-05
2.77803e-06
9.62397e-05
0.000117674
1.89621e-06
1.90007e-05
7.23411e-06
4.13868e-05
1.25423e-05
4.69057e-05
2.04968e-05
5.57758e-05
2.58579e-05
7.51883e-05
1.73784e-05
9.18118e-05
-4.799e-06
8.38854e-05
-3.05174e-05
6.78337e-05
-5.44176e-05
0.000105932
-5.32309e-05
0.000123342
-5.24664e-05
0.000129774
-5.32559e-05
0.000134713
-5.27549e-05
0.00013555
-3.81537e-05
9.62992e-05
-3.01394e-05
3.36119e-05
-2.74965e-05
2.13791e-05
-2.53899e-05
1.7867e-05
-2.17928e-05
1.34006e-05
-1.6434e-05
7.67892e-06
-1.00856e-05
1.53007e-06
-4.28334e-06
-3.5335e-06
-5.23971e-07
-6.85515e-06
5.99111e-07
-8.44115e-06
-3.67968e-07
-7.66992e-06
-3.54698e-06
-3.20924e-06
-9.27127e-06
4.60203e-06
-1.68739e-05
1.56648e-05
-1.82583e-05
3.77295e-05
-5.89149e-06
8.39712e-05
0.00011189
-2.65047e-07
1.93302e-05
8.917e-06
3.22809e-05
1.67843e-05
3.91186e-05
2.47709e-05
4.78691e-05
2.75767e-05
7.24428e-05
1.72556e-05
0.000102217
4.8005e-07
0.000100785
-2.94828e-05
9.78915e-05
-3.87238e-05
0.000115214
-4.10293e-05
0.000125712
-4.19988e-05
0.000130834
-4.15688e-05
0.000134381
-3.92018e-05
0.000133287
-2.24221e-05
7.961e-05
-1.80302e-05
2.9284e-05
-1.77663e-05
2.11719e-05
-1.72995e-05
1.74559e-05
-1.57677e-05
1.19233e-05
-1.2787e-05
4.75135e-06
-8.79768e-06
-2.40764e-06
-4.86515e-06
-7.41582e-06
-2.05284e-06
-9.61836e-06
-9.52294e-07
-9.49331e-06
-1.92892e-06
-6.64497e-06
-6.10872e-06
1.02042e-06
-1.29202e-05
1.14672e-05
-2.01078e-05
2.2912e-05
-2.31065e-05
4.07993e-05
-1.25902e-05
7.35548e-05
9.94174e-05
-2.54499e-06
2.19367e-05
3.30856e-06
2.64943e-05
1.08528e-05
3.16468e-05
2.01448e-05
3.86531e-05
2.2115e-05
7.05465e-05
1.50886e-05
0.000109327
4.69426e-06
0.000111317
-1.2799e-05
0.00011549
-2.22707e-05
0.000124745
-2.78695e-05
0.000131368
-3.14356e-05
0.000134485
-3.20703e-05
0.000135111
-2.57083e-05
0.000127028
-9.50874e-06
6.34959e-05
-8.40773e-06
2.82433e-05
-9.94116e-06
2.27599e-05
-1.11317e-05
1.86998e-05
-1.13981e-05
1.22418e-05
-1.02577e-05
3.66158e-06
-7.81707e-06
-4.79918e-06
-4.77007e-06
-1.04147e-05
-2.08792e-06
-1.22531e-05
-5.12785e-07
-1.10211e-05
-5.45465e-07
-6.5642e-06
-5.87209e-06
6.39754e-06
-1.43078e-05
1.99573e-05
-2.13047e-05
2.99701e-05
-2.30635e-05
4.26328e-05
-1.44226e-05
6.50135e-05
8.5117e-05
-1.09961e-06
2.30932e-05
-9.11044e-07
2.63633e-05
1.69694e-07
3.0628e-05
4.82985e-06
3.40604e-05
1.58599e-05
5.95937e-05
1.80505e-05
0.000107213
1.13335e-05
0.000118148
7.40739e-08
0.000126851
-1.00326e-05
0.000134929
-1.8188e-05
0.000139575
-2.4057e-05
0.000140429
-2.49979e-05
0.000136145
-1.08896e-05
0.000113022
1.93152e-06
5.07543e-05
1.59833e-08
3.02172e-05
-3.24542e-06
2.60754e-05
-6.20352e-06
2.17107e-05
-8.21687e-06
1.43062e-05
-8.50882e-06
4.00265e-06
-6.98693e-06
-6.27366e-06
-4.37348e-06
-1.29819e-05
-1.22888e-06
-1.53519e-05
1.50868e-06
-1.37125e-05
-1.89567e-06
-3.11102e-06
-8.26058e-06
1.28218e-05
-1.52889e-05
2.70528e-05
-1.98593e-05
3.46119e-05
-2.14811e-05
4.43355e-05
-1.51685e-05
5.87976e-05
7.00588e-05
-1.40384e-06
2.45492e-05
-4.76855e-06
2.97817e-05
-8.19823e-06
3.41148e-05
-1.11001e-05
3.70253e-05
1.61342e-08
4.85552e-05
2.04954e-05
8.68155e-05
2.09449e-05
0.000117786
1.19363e-05
0.000135957
1.08632e-06
0.000145875
-1.0142e-05
0.000150869
-1.82459e-05
0.000148608
-1.64393e-05
0.000134436
6.74225e-06
8.99423e-05
1.20382e-05
4.55321e-05
7.70443e-06
3.46094e-05
2.49108e-06
3.1344e-05
-2.43718e-06
2.66922e-05
-6.2335e-06
1.8153e-05
-7.62623e-06
5.443e-06
-6.90322e-06
-6.9513e-06
-4.82571e-06
-1.50151e-05
-1.3105e-06
-1.88232e-05
3.96888e-07
-1.53732e-05
-4.00996e-06
1.35911e-06
-1.04313e-05
1.9318e-05
-1.75524e-05
3.42542e-05
-2.27053e-05
3.98473e-05
-2.39012e-05
4.56166e-05
-1.59761e-05
5.09612e-05
5.4174e-05
-3.56289e-06
2.81644e-05
-9.75561e-06
3.60319e-05
-1.5463e-05
3.98829e-05
-2.11434e-05
4.27717e-05
-1.90509e-05
4.65444e-05
5.07078e-06
6.27957e-05
2.48135e-05
9.81486e-05
2.48815e-05
0.000135999
1.31242e-05
0.000157751
3.6646e-07
0.00016374
-7.36808e-06
0.000156453
4.15277e-06
0.000123034
2.1851e-05
7.23421e-05
2.03911e-05
4.70638e-05
1.42546e-05
4.08075e-05
7.46976e-06
3.8187e-05
5.73345e-07
3.36435e-05
-5.13674e-06
2.39129e-05
-7.58069e-06
7.93241e-06
-7.8528e-06
-6.63622e-06
-7.2843e-06
-1.55416e-05
-6.07131e-06
-1.99941e-05
-1.22914e-05
-9.09906e-06
-1.84747e-05
7.61114e-06
-1.95681e-05
2.04876e-05
-1.8911e-05
3.3678e-05
-1.85359e-05
3.95537e-05
-1.52457e-05
4.24082e-05
-8.87568e-06
4.4674e-05
4.53817e-05
-5.78286e-06
3.4002e-05
-1.62487e-05
4.65627e-05
-2.25267e-05
4.62299e-05
-2.71843e-05
4.75042e-05
-2.9451e-05
4.88938e-05
-1.89543e-05
5.24099e-05
1.12635e-05
6.80688e-05
2.79604e-05
0.000119473
2.29291e-05
0.000162972
1.43163e-05
0.000172563
1.3755e-05
0.000157205
2.68339e-05
0.000110102
3.13225e-05
6.79536e-05
2.64346e-05
5.20275e-05
2.02738e-05
4.70368e-05
1.27396e-05
4.57836e-05
3.8491e-06
4.25915e-05
-4.84152e-06
3.26531e-05
-8.04867e-06
1.11853e-05
-1.02788e-05
-4.36479e-06
-1.19984e-05
-1.37822e-05
-1.71714e-05
-1.47791e-05
-2.58949e-05
-3.18008e-07
-2.89751e-05
1.0759e-05
-2.67681e-05
1.83541e-05
-2.03741e-05
2.73622e-05
-1.58265e-05
3.50869e-05
-1.20634e-05
3.87263e-05
-7.42408e-06
4.01159e-05
3.80388e-05
-1.20675e-05
4.61377e-05
-2.26889e-05
5.72624e-05
-2.76194e-05
5.1238e-05
-2.96911e-05
4.96512e-05
-2.91646e-05
4.84459e-05
-2.66331e-05
4.99686e-05
-1.21862e-05
5.37574e-05
1.00306e-05
9.74611e-05
2.12558e-05
0.00015201
2.58574e-05
0.00016824
3.24303e-05
0.000150865
3.78351e-05
0.000104858
3.52585e-05
7.06305e-05
2.88001e-05
5.8563e-05
2.26142e-05
5.32892e-05
1.44526e-05
5.40103e-05
5.13823e-06
5.1972e-05
-4.14469e-06
4.19975e-05
-1.19484e-05
1.90329e-05
-1.55478e-05
-7.26333e-07
-1.97427e-05
-9.54737e-06
-2.90901e-05
-5.38279e-06
-3.35645e-05
4.21661e-06
-3.36206e-05
1.08814e-05
-3.06869e-05
1.54904e-05
-2.40804e-05
2.08295e-05
-1.65126e-05
2.75963e-05
-1.11044e-05
3.33974e-05
-7.00331e-06
3.60947e-05
3.11145e-05
-1.48117e-05
6.10402e-05
-2.89435e-05
7.14946e-05
-3.6189e-05
5.8575e-05
-3.20638e-05
4.56081e-05
-2.34973e-05
3.99546e-05
-1.47768e-05
4.13253e-05
-1.85601e-05
5.76475e-05
-7.35076e-06
8.64254e-05
1.42912e-05
0.000130636
3.12748e-05
0.000151529
4.50747e-05
0.000137273
4.35724e-05
0.000106503
3.36278e-05
8.06804e-05
2.51093e-05
6.71657e-05
1.31574e-05
6.53227e-05
-2.27714e-06
6.95327e-05
-2.16203e-05
7.14073e-05
-3.6433e-05
5.69033e-05
-3.63363e-05
1.90157e-05
-3.01966e-05
-6.8066e-06
-3.1602e-05
-8.08906e-06
-3.49424e-05
-1.98442e-06
-3.41434e-05
3.47918e-06
-3.19124e-05
8.71449e-06
-2.86949e-05
1.23391e-05
-2.3528e-05
1.5731e-05
-1.66087e-05
2.07483e-05
-1.02275e-05
2.70904e-05
-5.75308e-06
3.16961e-05
2.54352e-05
-2.50063e-05
8.61555e-05
-4.38257e-05
9.04253e-05
-6.03383e-05
7.51993e-05
-5.31212e-05
3.84971e-05
-3.17519e-05
1.86822e-05
-1.51623e-05
2.4829e-05
-1.42016e-05
5.67902e-05
-1.41101e-05
8.64653e-05
5.37806e-06
0.000111325
2.79161e-05
0.000129175
4.21295e-05
0.000123212
4.09448e-05
0.00010781
2.72433e-05
9.44868e-05
7.90558e-06
8.66028e-05
-1.16251e-05
8.49539e-05
-2.75843e-05
8.55932e-05
-4.1183e-05
8.51086e-05
-4.86123e-05
6.44343e-05
-4.13765e-05
1.18688e-05
-3.65196e-05
-1.15908e-05
-3.41592e-05
-1.03847e-05
-3.15754e-05
-4.50667e-06
-2.89176e-05
8.81579e-07
-2.58185e-05
5.67594e-06
-2.2588e-05
9.16979e-06
-1.87467e-05
1.19521e-05
-1.3837e-05
1.59034e-05
-8.4557e-06
2.17769e-05
-4.32476e-06
2.76355e-05
2.11781e-05
-2.61613e-05
0.000112426
-4.63134e-05
0.000110687
-6.26834e-05
9.16788e-05
-6.10953e-05
3.7014e-05
-4.6032e-05
3.7167e-06
-2.62834e-05
5.174e-06
-1.71243e-05
4.7731e-05
-2.00596e-05
8.95125e-05
-1.0757e-05
0.000102148
5.99903e-06
0.000112547
1.35198e-05
0.00011581
1.13735e-05
0.000110066
3.68197e-06
0.000102279
-6.44747e-06
9.68327e-05
-1.62214e-05
9.48277e-05
-2.51875e-05
9.46599e-05
-3.22973e-05
9.23199e-05
-2.98979e-05
6.21329e-05
-2.25117e-05
4.5625e-06
-2.1598e-05
-1.24395e-05
-2.17054e-05
-1.02174e-05
-2.06478e-05
-5.50728e-06
-1.94343e-05
-2.76287e-07
-1.78748e-05
4.17188e-06
-1.61202e-05
7.47087e-06
-1.41162e-05
1.00045e-05
-1.13106e-05
1.3156e-05
-7.30761e-06
1.78355e-05
-3.72299e-06
2.41157e-05
1.75163e-05
-2.15402e-05
0.000134076
-3.96076e-05
0.000128864
-4.65872e-05
9.87674e-05
-3.85802e-05
2.91077e-05
-2.30674e-05
-1.17074e-05
-9.51522e-06
-8.29393e-06
-1.15704e-05
4.98816e-05
-1.52307e-05
9.32775e-05
-1.49099e-05
0.000101935
-9.39215e-06
0.000107139
-3.36358e-06
0.000109888
-2.08471e-06
0.000108891
-5.08069e-06
0.000105377
-1.01258e-05
0.000101979
-1.54075e-05
0.000100211
-1.99996e-05
9.93535e-05
-2.20302e-05
9.44524e-05
-1.38669e-05
5.40639e-05
-8.90015e-06
-3.30493e-07
-8.21868e-06
-1.30607e-05
-8.68058e-06
-9.70053e-06
-9.61765e-06
-4.51809e-06
-1.01602e-05
3.17337e-07
-1.01415e-05
4.20418e-06
-9.76933e-06
7.15001e-06
-9.2612e-06
9.5482e-06
-8.21362e-06
1.21617e-05
-5.77608e-06
1.54537e-05
-1.75384e-06
2.0153e-05
1.58169e-05
-1.66677e-05
0.000150856
-3.06996e-05
0.000143008
-2.68893e-05
9.50655e-05
-1.41823e-05
1.64967e-05
-3.06254e-06
-2.27465e-05
1.06675e-06
-1.23442e-05
-8.6811e-06
5.97256e-05
-1.12256e-05
9.59264e-05
-1.13637e-05
0.000102178
-9.46437e-06
0.000105345
-7.25355e-06
0.000107782
-7.09179e-06
0.000108833
-9.17027e-06
0.000107558
-1.22865e-05
0.000105198
-1.54574e-05
0.000103484
-1.7992e-05
0.00010199
-1.57039e-05
9.22659e-05
-3.32258e-06
4.17732e-05
2.66883e-06
-6.25179e-06
2.86939e-06
-1.32045e-05
8.39695e-07
-7.62023e-06
-1.93923e-06
-1.69045e-06
-3.90477e-06
2.33134e-06
-4.90853e-06
5.25664e-06
-5.32385e-06
7.61442e-06
-5.45047e-06
9.72448e-06
-5.13383e-06
1.18956e-05
-3.8456e-06
1.42172e-05
-5.17017e-07
1.68781e-05
1.53495e-05
-1.52442e-05
0.000166215
-2.27668e-05
0.000150644
-9.5924e-06
8.19976e-05
3.8847e-06
3.11009e-06
7.96177e-06
-2.67485e-05
6.07109e-06
-1.03765e-05
-7.32164e-06
7.32175e-05
-9.24942e-06
9.79584e-05
-9.28494e-06
0.000102319
-8.80148e-06
0.000104966
-9.02559e-06
0.000108111
-1.00878e-05
0.000109999
-1.18939e-05
0.000109469
-1.42904e-05
0.000107698
-1.73312e-05
0.000106628
-1.91843e-05
0.000103946
-1.1645e-05
8.48275e-05
6.7284e-06
2.34855e-05
1.14782e-05
-1.09369e-05
7.73202e-06
-9.40682e-06
3.58528e-06
-3.42522e-06
1.00088e-06
9.41647e-07
-6.8305e-07
4.0628e-06
-1.82086e-06
6.44204e-06
-2.55917e-06
8.40052e-06
-2.96062e-06
1.0174e-05
-2.91651e-06
1.19e-05
-2.22619e-06
1.35758e-05
-3.18733e-07
1.50198e-05
1.50778e-05
-1.42078e-05
0.000180539
-1.26139e-05
0.000149163
4.40383e-06
6.50826e-05
1.42433e-05
-6.6456e-06
1.31049e-05
-2.55379e-05
5.46692e-06
-2.66136e-06
-6.37552e-06
8.51618e-05
-7.92385e-06
9.9611e-05
-8.37107e-06
0.000102871
-9.15539e-06
0.000105855
-1.02694e-05
0.00010933
-1.18269e-05
0.000111662
-1.36764e-05
0.000111422
-1.61613e-05
0.000110287
-1.92217e-05
0.000109792
-1.99581e-05
0.000104786
-2.42609e-06
6.73938e-05
1.55269e-05
5.60958e-06
1.30786e-05
-8.43203e-06
7.72683e-06
-4.00527e-06
4.43297e-06
-8.34069e-08
2.30305e-06
3.11866e-06
8.35095e-07
5.57744e-06
-2.04911e-07
7.52855e-06
-9.20535e-07
9.16255e-06
-1.31823e-06
1.06181e-05
-1.34301e-06
1.19712e-05
-9.50385e-07
1.32297e-05
-1.65734e-07
1.42815e-05
1.49574e-05
-9.85706e-06
0.000190512
1.05146e-06
0.000138366
1.49312e-05
5.1301e-05
1.77745e-05
-9.4099e-06
1.41534e-05
-2.18454e-05
1.63701e-06
9.93502e-06
-5.8037e-06
9.27055e-05
-8.18491e-06
0.000102096
-9.51344e-06
0.000104304
-1.05562e-05
0.000107002
-1.179e-05
0.000110668
-1.29496e-05
0.000112926
-1.47013e-05
0.000113278
-1.72792e-05
0.000112969
-1.95636e-05
0.000112181
-1.46358e-05
9.99621e-05
1.0977e-05
4.18728e-05
1.86896e-05
-2.0364e-06
1.32363e-05
-2.92556e-06
8.91854e-06
3.62148e-07
5.78728e-06
3.09551e-06
3.66491e-06
5.28729e-06
2.2257e-06
7.06203e-06
1.23651e-06
8.56258e-06
5.63065e-07
9.88054e-06
1.39844e-07
1.10858e-05
-5.99987e-08
1.22155e-05
-5.70244e-08
1.32711e-05
6.5687e-08
1.42031e-05
1.50669e-05
2.7559e-06
0.000187872
1.73726e-05
0.000123859
2.337e-05
4.53983e-05
1.88189e-05
-4.78093e-06
1.22797e-05
-1.52346e-05
-1.9302e-06
2.42289e-05
-6.86045e-06
9.7739e-05
-9.01647e-06
0.000104356
-1.03748e-05
0.000105766
-1.2511e-05
0.000109243
-1.43547e-05
0.000112616
-1.56204e-05
0.000114296
-1.69597e-05
0.000114722
-1.91526e-05
0.000115266
-1.88272e-05
0.00011196
-2.76099e-06
8.39979e-05
2.07303e-05
1.84635e-05
1.90771e-05
-3.23133e-07
1.44648e-05
1.73872e-06
1.06991e-05
4.17712e-06
7.82579e-06
6.01578e-06
5.74759e-06
7.41052e-06
4.25481e-06
8.59854e-06
3.16661e-06
9.69373e-06
2.34434e-06
1.07454e-05
1.6877e-06
1.17849e-05
1.1483e-06
1.27975e-05
7.02481e-07
1.37597e-05
3.27105e-07
1.46213e-05
1.54366e-05
1.58499e-05
0.000172138
3.1952e-05
0.000107864
3.04609e-05
4.6983e-05
2.10293e-05
4.73028e-06
1.00415e-05
-4.17227e-06
-3.59225e-06
3.79502e-05
-7.31581e-06
0.000101566
-1.04288e-05
0.000107573
-1.39877e-05
0.000109429
-1.73008e-05
0.00011266
-1.89127e-05
0.000114332
-1.91925e-05
0.00011468
-1.9162e-05
0.000114796
-1.89852e-05
0.000115194
-1.47285e-05
0.000107808
1.04701e-05
5.88959e-05
2.23108e-05
6.69416e-06
1.8713e-05
3.33058e-06
1.50907e-05
5.41227e-06
1.22066e-05
7.10957e-06
9.93455e-06
8.33361e-06
8.10361e-06
9.28527e-06
6.60271e-06
1.01418e-05
5.34497e-06
1.0993e-05
4.24106e-06
1.18905e-05
3.22368e-06
1.28435e-05
2.27616e-06
1.37864e-05
1.37804e-06
1.46995e-05
5.70238e-07
1.54708e-05
1.60486e-05
2.67208e-05
0.00014553
3.98633e-05
9.48261e-05
3.56685e-05
5.12714e-05
2.3185e-05
1.72963e-05
7.66325e-06
1.14281e-05
-4.47157e-06
5.01753e-05
-8.28032e-06
0.000105478
-1.32058e-05
0.000112602
-1.80898e-05
0.000114417
-2.11047e-05
0.000115779
-2.16051e-05
0.000114937
-2.08285e-05
0.000114008
-1.94734e-05
0.000113545
-1.68852e-05
0.000112711
-4.01245e-06
9.50386e-05
2.11799e-05
3.37909e-05
2.20445e-05
5.89337e-06
1.86533e-05
6.77555e-06
1.59629e-05
8.1529e-06
1.38366e-05
9.28323e-06
1.2038e-05
1.01772e-05
1.04259e-05
1.09404e-05
8.92218e-06
1.16874e-05
7.47647e-06
1.24798e-05
6.04103e-06
1.33666e-05
4.63087e-06
1.42942e-05
3.25249e-06
1.52055e-05
1.93971e-06
1.60532e-05
7.48964e-07
1.67027e-05
1.68385e-05
2.76211e-05
0.000118018
3.87949e-05
8.37542e-05
3.52753e-05
5.48842e-05
2.25735e-05
3.00831e-05
5.41833e-06
2.86665e-05
-6.21955e-06
6.19062e-05
-1.05829e-05
0.000109946
-1.55529e-05
0.000117677
-2.02858e-05
0.000119254
-2.28467e-05
0.000118445
-2.31805e-05
0.000115376
-2.16022e-05
0.000112534
-1.89138e-05
0.000110961
-1.30817e-05
0.000106982
8.44401e-06
7.36127e-05
2.47551e-05
1.75569e-05
2.22679e-05
8.43923e-06
1.98088e-05
9.2877e-06
1.78119e-05
1.01995e-05
1.60995e-05
1.10427e-05
1.45217e-05
1.17998e-05
1.29832e-05
1.2522e-05
1.13844e-05
1.33281e-05
9.65252e-06
1.42526e-05
7.81204e-06
1.52476e-05
6.01632e-06
1.61302e-05
4.02428e-06
1.72378e-05
2.24087e-06
1.78771e-05
7.53102e-07
1.8231e-05
1.76317e-05
2.39808e-05
9.41408e-05
3.26233e-05
7.52105e-05
2.88252e-05
5.8775e-05
1.64304e-05
4.25649e-05
7.83266e-07
4.44007e-05
-9.41381e-06
7.21984e-05
-1.30977e-05
0.000113734
-1.70287e-05
0.000121713
-2.11353e-05
0.000123466
-2.38029e-05
0.000121218
-2.4317e-05
0.000115994
-2.20342e-05
0.000110355
-1.70071e-05
0.000106037
-4.97018e-06
9.50477e-05
2.10484e-05
4.76861e-05
2.63362e-05
1.23377e-05
2.39215e-05
1.09105e-05
2.20441e-05
1.1218e-05
2.04354e-05
1.18581e-05
1.89594e-05
1.25661e-05
1.75121e-05
1.32923e-05
1.59843e-05
1.40935e-05
1.4236e-05
1.51187e-05
1.21249e-05
1.64052e-05
9.53502e-06
1.78782e-05
7.28013e-06
1.84246e-05
4.35221e-06
2.02052e-05
2.08212e-06
2.01867e-05
4.44476e-07
1.99083e-05
1.8115e-05
2.01488e-05
7.40899e-05
2.41519e-05
7.13033e-05
1.96016e-05
6.3418e-05
7.40103e-06
5.48546e-05
-5.51901e-06
5.74106e-05
-1.19269e-05
7.87025e-05
-1.41141e-05
0.000116026
-1.79615e-05
0.000125665
-2.21777e-05
0.000127788
-2.55231e-05
0.000124669
-2.6325e-05
0.000116901
-2.1953e-05
0.000106086
-1.2796e-05
9.69821e-05
8.41092e-06
7.394e-05
2.86907e-05
2.74879e-05
2.78567e-05
1.32342e-05
2.62443e-05
1.25793e-05
2.47885e-05
1.27273e-05
2.34837e-05
1.32135e-05
2.22428e-05
1.38552e-05
2.09529e-05
1.46284e-05
1.95193e-05
1.55717e-05
1.77421e-05
1.69392e-05
1.49609e-05
1.92284e-05
1.06099e-05
2.22693e-05
7.11642e-06
2.19563e-05
4.4766e-06
2.28836e-05
1.77253e-06
2.29288e-05
9.70991e-08
2.16215e-05
1.82485e-05
1.42551e-05
5.99276e-05
1.43296e-05
7.13228e-05
9.74685e-06
6.80932e-05
-4.76233e-07
6.51687e-05
-1.00122e-05
6.70379e-05
-1.39137e-05
8.27005e-05
-1.40625e-05
0.000116279
-1.90915e-05
0.0001308
-2.44494e-05
0.000133252
-2.97249e-05
0.00013005
-3.04428e-05
0.000117724
-1.97786e-05
9.55243e-05
-1.05787e-06
7.83608e-05
2.37326e-05
4.92406e-05
3.19321e-05
1.93598e-05
3.01543e-05
1.50723e-05
2.88341e-05
1.3957e-05
2.77309e-05
1.3885e-05
2.67562e-05
1.42399e-05
2.58143e-05
1.48465e-05
2.48144e-05
1.56758e-05
2.36055e-05
1.68265e-05
2.15848e-05
1.90036e-05
1.54166e-05
2.54382e-05
1.0183e-05
2.75434e-05
5.98876e-06
2.61886e-05
4.72589e-06
2.41831e-05
2.75504e-06
2.49366e-05
1.16651e-06
2.32466e-05
1.94494e-05
9.80535e-06
5.02106e-05
8.13888e-06
7.30822e-05
2.46515e-06
7.38592e-05
-5.67438e-06
7.34001e-05
-1.25436e-05
7.39993e-05
-1.57817e-05
8.60347e-05
-1.43061e-05
0.000114907
-1.99253e-05
0.000136526
-2.61823e-05
0.000139616
-3.25154e-05
0.000136491
-2.90269e-05
0.000114341
-9.66703e-06
7.62623e-05
1.49702e-05
5.3814e-05
3.25444e-05
3.17442e-05
3.28565e-05
1.91122e-05
3.21009e-05
1.5889e-05
3.13443e-05
1.4772e-05
3.07154e-05
1.45691e-05
3.01546e-05
1.48534e-05
2.95895e-05
1.54621e-05
2.89715e-05
1.63424e-05
2.79103e-05
1.79336e-05
2.41405e-05
2.28159e-05
1.9813e-05
2.98084e-05
1.85915e-05
2.8805e-05
1.4676e-05
3.0142e-05
7.34513e-06
3.15487e-05
2.67875e-06
2.96384e-05
1.20864e-06
2.47518e-05
2.0692e-05
6.21661e-06
4.40779e-05
4.61017e-06
7.47806e-05
-2.49324e-06
8.10551e-05
-9.74997e-06
8.07493e-05
-1.50565e-05
7.93983e-05
-1.73437e-05
8.8417e-05
-1.53965e-05
0.000113061
-1.98163e-05
0.000141053
-2.49961e-05
0.000144904
-2.52924e-05
0.000136895
-1.30378e-05
0.000102187
6.84536e-06
5.64653e-05
2.52818e-05
3.54527e-05
3.33258e-05
2.37672e-05
3.39294e-05
1.85716e-05
3.38738e-05
1.60057e-05
3.37788e-05
1.4925e-05
3.36919e-05
1.47114e-05
3.36172e-05
1.49813e-05
3.35492e-05
1.55814e-05
3.33817e-05
1.65585e-05
3.27092e-05
1.86504e-05
2.72121e-05
2.83559e-05
2.59256e-05
3.11355e-05
2.0528e-05
3.42414e-05
1.20152e-05
3.86925e-05
7.04014e-06
3.65605e-05
3.9896e-06
3.27251e-05
1.03521e-06
2.77409e-05
2.1761e-05
1.97868e-06
4.21789e-05
1.55828e-06
7.52914e-05
-5.41747e-06
8.81238e-05
-1.15025e-05
8.69272e-05
-1.57748e-05
8.37627e-05
-1.74542e-05
9.01905e-05
-1.78847e-05
0.000113593
-2.01025e-05
0.000143378
-1.81628e-05
0.000143071
-3.26684e-06
0.000122103
1.17077e-05
8.73059e-05
2.13743e-05
4.68718e-05
3.01462e-05
2.67436e-05
3.36162e-05
2.03591e-05
3.49478e-05
1.73012e-05
3.56391e-05
1.53734e-05
3.61534e-05
1.44676e-05
3.66154e-05
1.43043e-05
3.70795e-05
1.45703e-05
3.75248e-05
1.5187e-05
3.77867e-05
1.63435e-05
3.55791e-05
2.09009e-05
3.31712e-05
3.08061e-05
3.0149e-05
3.41986e-05
2.092e-05
4.35115e-05
1.55614e-05
4.4092e-05
1.19247e-05
4.02384e-05
7.89073e-06
3.67992e-05
3.48142e-06
3.21886e-05
2.52775e-05
-3.12585e-06
4.53809e-05
-2.1945e-06
7.4448e-05
-6.10053e-06
9.21227e-05
-1.0127e-05
9.10461e-05
-1.40228e-05
8.77498e-05
-1.67709e-05
9.30313e-05
-2.07726e-05
0.000117694
-2.05726e-05
0.000143285
-3.82055e-06
0.000126423
2.5053e-05
9.33252e-05
3.55696e-05
7.68756e-05
3.22731e-05
5.02389e-05
3.2903e-05
2.61729e-05
3.4547e-05
1.87731e-05
3.61293e-05
1.57763e-05
3.7348e-05
1.42111e-05
3.83565e-05
1.35143e-05
3.9327e-05
1.33876e-05
4.02751e-05
1.36742e-05
4.11266e-05
1.43848e-05
4.12528e-05
1.62622e-05
3.90082e-05
2.31877e-05
3.78755e-05
3.19814e-05
3.19585e-05
4.01586e-05
2.64937e-05
4.90213e-05
2.45402e-05
4.60925e-05
2.01366e-05
4.46896e-05
1.42052e-05
4.27772e-05
6.38582e-06
4.00537e-05
3.17027e-05
-7.21427e-06
5.26693e-05
-6.34659e-06
7.36652e-05
-4.90297e-06
9.07701e-05
-6.08245e-06
9.23163e-05
-9.59994e-06
9.13569e-05
-1.41913e-05
9.77139e-05
-1.9924e-05
0.000123526
-1.77817e-05
0.000141248
1.01263e-05
9.86097e-05
3.70782e-05
6.64554e-05
4.80063e-05
6.60304e-05
4.11953e-05
5.71261e-05
3.59831e-05
3.14457e-05
3.6062e-05
1.87489e-05
3.74219e-05
1.44702e-05
3.89002e-05
1.27863e-05
4.02845e-05
1.21828e-05
4.16402e-05
1.2084e-05
4.28893e-05
1.24755e-05
4.37141e-05
1.36072e-05
4.31701e-05
1.68489e-05
4.16346e-05
2.47644e-05
4.01275e-05
3.35318e-05
3.73524e-05
4.29799e-05
3.8803e-05
4.7623e-05
3.53356e-05
4.96182e-05
3.01831e-05
4.98994e-05
2.33756e-05
4.96369e-05
9.40481e-06
5.40754e-05
4.1145e-05
-8.42368e-06
6.11668e-05
-6.97659e-06
7.22996e-05
-1.64922e-06
8.553e-05
-1.15576e-07
9.08704e-05
-2.77005e-06
9.40988e-05
-7.70236e-06
0.000102736
-1.31972e-05
0.000129121
-5.80424e-06
0.000133959
1.45081e-05
7.83778e-05
2.54644e-05
5.55678e-05
3.96462e-05
5.1922e-05
4.38913e-05
5.29564e-05
3.92159e-05
3.61856e-05
3.78173e-05
2.02009e-05
3.87063e-05
1.3632e-05
4.02038e-05
1.13395e-05
4.18123e-05
1.06249e-05
4.33972e-05
1.05493e-05
4.47705e-05
1.11507e-05
4.54572e-05
1.29656e-05
4.45262e-05
1.78212e-05
4.35973e-05
2.57332e-05
4.47448e-05
3.2426e-05
4.82898e-05
3.9487e-05
4.76166e-05
4.83646e-05
4.50436e-05
5.22592e-05
4.01822e-05
5.48246e-05
3.39166e-05
5.59605e-05
1.98387e-05
6.82144e-05
6.10363e-05
-6.10578e-06
6.73473e-05
-3.34155e-06
6.96129e-05
2.2896e-06
7.9981e-05
4.68783e-06
8.85562e-05
3.23303e-06
9.56388e-05
2.81616e-07
0.000105777
-3.71261e-07
0.000129876
1.01365e-05
0.000123553
1.67702e-05
7.18161e-05
1.81533e-05
5.42473e-05
2.48857e-05
4.52501e-05
3.63227e-05
4.15851e-05
3.87557e-05
3.3815e-05