/*--------------------------------*- C++ -*----------------------------------*\
| =========                 |                                                 |
| \\      /  F ield         | OpenFOAM: The Open Source CFD Toolbox           |
|  \\    /   O peration     | Version:  2.3.0                                 |
|   \\  /    A nd           | Web:      www.OpenFOAM.org                      |
|    \\/     M anipulation  |                                                 |
\*---------------------------------------------------------------------------*/
FoamFile
{
    version     2.0;
    format      ascii;
    class       volVectorField;
    location    "1.1";
    object      U;
}
// * * * * * * * * * * * * * * * * * * * * * * * * * * * * * * * * * * * * * //

dimensions      [0 1 -1 0 0 0 0];

internalField   nonuniform List<vector> 
6000
(
(-0.0467375 0.0471268 0)
(-0.100266 0.0278509 0)
(-0.100807 0.0201086 0)
(-0.0825205 0.0292986 0)
(-0.0943683 -0.0172251 0)
(-0.0340899 -0.0590644 0)
(0.00292422 -0.046291 0)
(-0.0214988 -0.0054846 0)
(-0.0698297 0.0268541 0)
(-0.0727202 0.0434286 0)
(-0.0252548 0.0593064 0)
(-0.0141671 0.0572196 0)
(0.022759 0.0401383 0)
(-0.0206423 0.0715138 0)
(-0.0604179 0.104013 0)
(-0.0765046 0.101749 0)
(-0.0956726 0.0807102 0)
(-0.0999859 0.0370099 0)
(-0.121921 0.0194668 0)
(-0.118857 0.0329466 0)
(-0.111424 0.0564768 0)
(-0.0924477 0.0591548 0)
(-0.0793496 0.0633912 0)
(-0.0457361 0.0658318 0)
(0.00793498 0.0139092 0)
(-0.00343401 -0.0510596 0)
(-0.0417754 -0.0534082 0)
(-0.0527128 -0.0378878 0)
(-0.0300693 -0.0639168 0)
(-0.00853656 -0.0116064 0)
(0.0135328 0.659921 0)
(0.0486523 0.640702 0)
(0.0686456 0.638356 0)
(0.0606363 0.58708 0)
(-0.026687 0.559605 0)
(-0.0887692 0.587187 0)
(-0.0913164 0.675216 0)
(-0.076751 0.687335 0)
(-0.0309012 0.675788 0)
(-0.0125396 0.555719 0)
(-0.00722559 0.576102 0)
(-0.0392042 0.617994 0)
(-0.0689586 0.629563 0)
(-0.0833268 0.610091 0)
(-0.102043 0.617413 0)
(-0.109191 0.630953 0)
(-0.125968 0.647322 0)
(-0.122853 0.673707 0)
(-0.129468 0.679407 0)
(-0.12371 0.645145 0)
(-0.10818 0.615813 0)
(-0.0949312 0.615809 0)
(-0.0868387 0.622075 0)
(-0.0734855 0.562052 0)
(-0.0606701 0.635754 0)
(-0.0775325 0.711408 0)
(-0.103437 0.683167 0)
(-0.0914368 0.660984 0)
(-0.0688301 0.617151 0)
(-0.0404819 0.609506 0)
(0.00677313 0.493824 0)
(0.153499 0.453655 0)
(0.19472 0.458508 0)
(0.156747 0.569034 0)
(-0.0240737 0.589554 0)
(-0.167124 0.480857 0)
(-0.141351 0.438029 0)
(-0.0748443 0.448883 0)
(0.0123476 0.434851 0)
(0.0650202 0.39459 0)
(0.0532399 0.439122 0)
(-0.0206707 0.455725 0)
(-0.0887476 0.453049 0)
(-0.107489 0.41681 0)
(-0.129997 0.44036 0)
(-0.153044 0.433002 0)
(-0.170041 0.39924 0)
(-0.153423 0.38474 0)
(-0.119299 0.366409 0)
(-0.0866491 0.353804 0)
(-0.0715785 0.3284 0)
(-0.0764292 0.331103 0)
(-0.0861773 0.353721 0)
(-0.120722 0.342667 0)
(-0.178892 0.392031 0)
(-0.18371 0.541406 0)
(-0.130516 0.483157 0)
(-0.0584788 0.420385 0)
(-0.0150577 0.38107 0)
(-0.00124983 0.373523 0)
(0.0328052 0.420998 0)
(0.217987 0.31957 0)
(0.288067 0.450357 0)
(0.250132 0.750704 0)
(0.0167575 0.703103 0)
(-0.142044 0.522212 0)
(-0.1295 0.432619 0)
(-0.0625542 0.413332 0)
(0.0381914 0.388738 0)
(0.0626122 0.368871 0)
(0.0225878 0.483762 0)
(-0.0548334 0.660725 0)
(-0.137233 0.639556 0)
(-0.184459 0.592876 0)
(-0.22612 0.643153 0)
(-0.230742 0.636168 0)
(-0.228588 0.537718 0)
(-0.205652 0.491667 0)
(-0.174147 0.468488 0)
(-0.154776 0.491776 0)
(-0.144689 0.491043 0)
(-0.150974 0.501176 0)
(-0.163444 0.52649 0)
(-0.19015 0.49235 0)
(-0.267599 0.478687 0)
(-0.267562 0.487882 0)
(-0.153651 0.389761 0)
(-0.0397724 0.383032 0)
(0.023995 0.41523 0)
(0.0271351 0.43892 0)
(0.0548616 0.29197 0)
(0.209844 0.16199 0)
(0.311278 0.34855 0)
(0.350881 1.0052 0)
(0.171897 1.01108 0)
(0.00957061 0.527471 0)
(-0.0582231 0.350873 0)
(-0.0622019 0.308036 0)
(-0.0257853 0.285347 0)
(-0.0411358 0.410468 0)
(-0.131814 0.72268 0)
(-0.239413 0.840874 0)
(-0.285848 0.738842 0)
(-0.317716 0.670432 0)
(-0.338408 0.64182 0)
(-0.329708 0.621283 0)
(-0.324798 0.571988 0)
(-0.31358 0.521927 0)
(-0.300583 0.497611 0)
(-0.28937 0.506949 0)
(-0.273442 0.52113 0)
(-0.256045 0.543736 0)
(-0.248416 0.58546 0)
(-0.26175 0.630674 0)
(-0.288414 0.613834 0)
(-0.253681 0.439732 0)
(-0.135197 0.245861 0)
(-0.0334135 0.255476 0)
(0.0699499 0.341118 0)
(0.0547397 0.41955 0)
(0.0408067 0.175023 0)
(0.160989 0.0485656 0)
(0.211585 0.238599 0)
(0.295835 1.13826 0)
(0.308502 1.17987 0)
(0.195566 0.772003 0)
(0.0468512 0.486098 0)
(-0.0560184 0.333502 0)
(-0.145692 0.324654 0)
(-0.255946 0.579648 0)
(-0.349073 0.794706 0)
(-0.349469 0.770592 0)
(-0.345403 0.67151 0)
(-0.341991 0.612434 0)
(-0.350808 0.58416 0)
(-0.344365 0.547257 0)
(-0.339351 0.501198 0)
(-0.33961 0.445997 0)
(-0.334316 0.423578 0)
(-0.316994 0.421615 0)
(-0.304631 0.432146 0)
(-0.283608 0.453954 0)
(-0.262115 0.502901 0)
(-0.240198 0.562506 0)
(-0.19982 0.582494 0)
(-0.151737 0.4208 0)
(-0.0579743 0.150826 0)
(0.0124156 0.12571 0)
(0.0831956 0.290965 0)
(0.0502978 0.561186 0)
(0.0192737 0.0962837 0)
(0.111155 -0.0186137 0)
(0.0971631 0.189969 0)
(0.11828 1.0462 0)
(0.208814 1.0601 0)
(0.202705 0.877387 0)
(0.097596 0.740973 0)
(-0.074995 0.571051 0)
(-0.266355 0.533596 0)
(-0.394669 0.67716 0)
(-0.404885 0.75091 0)
(-0.361782 0.743704 0)
(-0.347652 0.671652 0)
(-0.349214 0.612975 0)
(-0.354453 0.572376 0)
(-0.357329 0.547903 0)
(-0.358738 0.497693 0)
(-0.356609 0.441727 0)
(-0.343317 0.412503 0)
(-0.322033 0.410503 0)
(-0.305545 0.421562 0)
(-0.294835 0.445924 0)
(-0.274241 0.471163 0)
(-0.212286 0.484097 0)
(-0.125554 0.483187 0)
(-0.0297737 0.369661 0)
(0.0319208 0.101523 0)
(0.0498648 0.0308195 0)
(0.0304713 0.390231 0)
(-0.00576883 0.699736 0)
(0.000368466 0.0447187 0)
(0.0724055 -0.0472579 0)
(0.0206506 0.229363 0)
(-0.00695279 1.00627 0)
(0.0493443 0.972643 0)
(0.0463907 0.877845 0)
(-0.0166901 0.767493 0)
(-0.146216 0.704843 0)
(-0.305971 0.678159 0)
(-0.393058 0.701082 0)
(-0.390127 0.709944 0)
(-0.350962 0.712618 0)
(-0.341665 0.687084 0)
(-0.348923 0.635693 0)
(-0.358461 0.591077 0)
(-0.382466 0.562975 0)
(-0.404798 0.513042 0)
(-0.394836 0.423758 0)
(-0.352867 0.39155 0)
(-0.318023 0.404101 0)
(-0.296246 0.42692 0)
(-0.275578 0.432031 0)
(-0.240602 0.422125 0)
(-0.17785 0.410514 0)
(-0.07994 0.375656 0)
(0.0343882 0.267597 0)
(0.0707074 0.0958269 0)
(0.0519347 0.0488156 0)
(-0.0343928 0.477931 0)
(-0.0176896 0.584205 0)
(-0.00723012 0.0208892 0)
(0.044747 -0.05222 0)
(-0.0341549 0.298592 0)
(-0.0837512 0.981988 0)
(-0.0573752 0.973659 0)
(-0.0818301 0.895845 0)
(-0.138741 0.846804 0)
(-0.235909 0.796773 0)
(-0.332744 0.760356 0)
(-0.386449 0.714257 0)
(-0.385914 0.68463 0)
(-0.352906 0.669962 0)
(-0.335444 0.668953 0)
(-0.343992 0.652137 0)
(-0.347353 0.614074 0)
(-0.390223 0.599367 0)
(-0.405006 0.511624 0)
(-0.366883 0.38143 0)
(-0.322638 0.333358 0)
(-0.283005 0.359719 0)
(-0.252981 0.397378 0)
(-0.221205 0.40741 0)
(-0.175521 0.378759 0)
(-0.107239 0.328676 0)
(-0.0257173 0.26738 0)
(0.0425397 0.186508 0)
(0.0505461 0.10506 0)
(0.0130518 0.100823 0)
(-0.0231163 0.498959 0)
(0.0153904 0.547544 0)
(-0.00564757 0.00433973 0)
(0.0319407 -0.0363179 0)
(-0.0739978 0.386348 0)
(-0.16437 1.0104 0)
(-0.154184 0.981396 0)
(-0.19063 0.966065 0)
(-0.248459 0.921804 0)
(-0.313206 0.8883 0)
(-0.365135 0.821291 0)
(-0.388526 0.745238 0)
(-0.390372 0.667918 0)
(-0.374604 0.63845 0)
(-0.341121 0.640258 0)
(-0.333805 0.647127 0)
(-0.328476 0.641395 0)
(-0.362279 0.630576 0)
(-0.326266 0.475361 0)
(-0.255795 0.31505 0)
(-0.20754 0.282191 0)
(-0.177774 0.32699 0)
(-0.14686 0.36656 0)
(-0.102554 0.361804 0)
(-0.0474324 0.314929 0)
(0.00356041 0.264125 0)
(0.0332606 0.218317 0)
(0.0352591 0.173873 0)
(0.00476909 0.141116 0)
(-0.0440829 0.158242 0)
(-0.00548943 0.436103 0)
(0.0243889 0.575637 0)
(-0.00108066 -0.000296063 0)
(0.000368933 -0.00221323 0)
(-0.17407 0.530183 0)
(-0.280097 1.01492 0)
(-0.277623 1.01759 0)
(-0.307023 0.994773 0)
(-0.339144 0.979812 0)
(-0.36906 0.927454 0)
(-0.399104 0.859791 0)
(-0.404983 0.751952 0)
(-0.414539 0.666408 0)
(-0.381685 0.610902 0)
(-0.341163 0.605473 0)
(-0.322478 0.621873 0)
(-0.301407 0.64653 0)
(-0.286189 0.601689 0)
(-0.191309 0.395088 0)
(-0.117496 0.256399 0)
(-0.0830108 0.243726 0)
(-0.0579709 0.288438 0)
(-0.0182928 0.314421 0)
(0.0318973 0.301184 0)
(0.0614032 0.264405 0)
(0.0615145 0.23444 0)
(0.0500992 0.214885 0)
(0.0266363 0.193837 0)
(-0.0068683 0.178616 0)
(-0.0556135 0.193904 0)
(-0.0564677 0.327154 0)
(-0.0176266 0.671974 0)
(0.0111501 0.0175449 0)
(-0.0517597 0.0705581 0)
(-0.264956 0.7622 0)
(-0.368382 1.03721 0)
(-0.357926 1.01671 0)
(-0.380977 1.02096 0)
(-0.384825 0.976384 0)
(-0.408983 0.945836 0)
(-0.41572 0.871195 0)
(-0.442719 0.788872 0)
(-0.445414 0.661504 0)
(-0.385661 0.568095 0)
(-0.325208 0.589376 0)
(-0.28536 0.628644 0)
(-0.238135 0.655031 0)
(-0.138974 0.50731 0)
(-0.0311485 0.305526 0)
(0.0165629 0.216411 0)
(0.028888 0.223816 0)
(0.0466787 0.258336 0)
(0.0718627 0.272773 0)
(0.0824417 0.269585 0)
(0.0815852 0.26014 0)
(0.0704816 0.249256 0)
(0.0484722 0.239523 0)
(0.0178063 0.228651 0)
(-0.0204105 0.220344 0)
(-0.0547211 0.22638 0)
(-0.0685779 0.275919 0)
(-0.0956115 0.593486 0)
(0.0147858 0.0443795 0)
(-0.0994964 0.221865 0)
(-0.305792 0.995385 0)
(-0.378149 1.02869 0)
(-0.38616 1.04229 0)
(-0.407837 1.0112 0)
(-0.412101 0.996281 0)
(-0.423107 0.94347 0)
(-0.427136 0.903268 0)
(-0.446035 0.810924 0)
(-0.395245 0.589449 0)
(-0.320987 0.473219 0)
(-0.260414 0.518439 0)
(-0.183697 0.585202 0)
(-0.074964 0.554753 0)
(0.0417888 0.371321 0)
(0.0994859 0.245549 0)
(0.108966 0.208103 0)
(0.102244 0.22343 0)
(0.0964543 0.248937 0)
(0.0968614 0.264088 0)
(0.0972267 0.27112 0)
(0.0895597 0.273237 0)
(0.0730231 0.270805 0)
(0.0484748 0.266877 0)
(0.0175051 0.26242 0)
(-0.018172 0.259565 0)
(-0.055199 0.264698 0)
(-0.082618 0.294741 0)
(-0.0622095 0.407182 0)
(0.00806362 0.0755205 0)
(-0.141795 0.410187 0)
(-0.335366 1.07232 0)
(-0.372212 1.06397 0)
(-0.386306 1.04263 0)
(-0.415754 1.03101 0)
(-0.398444 0.984124 0)
(-0.400137 0.953851 0)
(-0.388045 0.900606 0)
(-0.350281 0.765604 0)
(-0.242015 0.498738 0)
(-0.171343 0.388045 0)
(-0.111281 0.421483 0)
(-0.0139002 0.482197 0)
(0.0896307 0.425397 0)
(0.145722 0.29977 0)
(0.158816 0.234536 0)
(0.145634 0.222482 0)
(0.127952 0.236588 0)
(0.119732 0.254052 0)
(0.11586 0.268506 0)
(0.109895 0.278976 0)
(0.0984722 0.286906 0)
(0.0802545 0.292265 0)
(0.0552473 0.294961 0)
(0.0250609 0.29527 0)
(-0.00685654 0.294251 0)
(-0.0364312 0.297564 0)
(-0.0564433 0.314625 0)
(-0.0357541 0.363681 0)
(-0.0167967 0.114954 0)
(-0.168563 0.652529 0)
(-0.373342 1.14364 0)
(-0.368954 1.06596 0)
(-0.380269 1.08428 0)
(-0.387642 1.02478 0)
(-0.368522 0.983208 0)
(-0.346368 0.926101 0)
(-0.295357 0.872831 0)
(-0.16701 0.65479 0)
(-0.0386102 0.410808 0)
(0.0131863 0.339373 0)
(0.0377782 0.360407 0)
(0.0854537 0.381964 0)
(0.138782 0.337156 0)
(0.167043 0.277378 0)
(0.166382 0.245879 0)
(0.153645 0.240655 0)
(0.142965 0.247289 0)
(0.136881 0.258878 0)
(0.131799 0.272931 0)
(0.124444 0.287777 0)
(0.112351 0.302142 0)
(0.0939872 0.314373 0)
(0.0689244 0.322955 0)
(0.0380763 0.327131 0)
(0.0073608 0.325043 0)
(-0.0170441 0.323536 0)
(-0.0288233 0.323868 0)
(-0.01711 0.32843 0)
(-0.108093 0.18827 0)
(-0.232754 0.923609 0)
(-0.38433 1.14439 0)
(-0.352631 1.11108 0)
(-0.362765 1.0723 0)
(-0.348705 1.01841 0)
(-0.322607 0.957593 0)
(-0.259822 0.896101 0)
(-0.10977 0.742245 0)
(0.0681652 0.507454 0)
(0.123343 0.368555 0)
(0.103744 0.333961 0)
(0.104007 0.335526 0)
(0.122577 0.337872 0)
(0.147677 0.309978 0)
(0.159712 0.275882 0)
(0.159329 0.255518 0)
(0.155204 0.248904 0)
(0.151766 0.251789 0)
(0.149325 0.261881 0)
(0.146425 0.277357 0)
(0.141137 0.296245 0)
(0.131221 0.316417 0)
(0.114599 0.33536 0)
(0.0898188 0.350404 0)
(0.0551527 0.359477 0)
(0.020039 0.353533 0)
(-0.00569245 0.345059 0)
(-0.0158453 0.32761 0)
(-0.00864743 0.308817 0)
(-0.163725 0.359294 0)
(-0.286099 1.10333 0)
(-0.354075 1.13428 0)
(-0.31612 1.09021 0)
(-0.332281 1.0775 0)
(-0.289775 1.00352 0)
(-0.199014 0.909266 0)
(-0.0267676 0.741654 0)
(0.149034 0.547174 0)
(0.198616 0.429274 0)
(0.182449 0.377215 0)
(0.165221 0.352007 0)
(0.149182 0.341997 0)
(0.146378 0.329406 0)
(0.150653 0.303974 0)
(0.153107 0.276338 0)
(0.153584 0.257721 0)
(0.154433 0.249874 0)
(0.156179 0.251534 0)
(0.158274 0.261568 0)
(0.159968 0.278601 0)
(0.159617 0.300996 0)
(0.154444 0.326944 0)
(0.141357 0.354194 0)
(0.118121 0.378813 0)
(0.0800905 0.396234 0)
(0.0380223 0.383997 0)
(-0.000547531 0.370495 0)
(-0.0205811 0.327717 0)
(-0.00919581 0.292349 0)
(-0.114777 0.610711 0)
(-0.254707 1.19077 0)
(-0.271065 1.17887 0)
(-0.262856 1.15545 0)
(-0.220935 1.08503 0)
(-0.0845936 0.906855 0)
(0.0968921 0.727295 0)
(0.233858 0.563624 0)
(0.256448 0.47813 0)
(0.251052 0.434676 0)
(0.230405 0.402383 0)
(0.203322 0.377983 0)
(0.180093 0.357442 0)
(0.16479 0.334247 0)
(0.155793 0.305554 0)
(0.150835 0.277223 0)
(0.149605 0.256897 0)
(0.15187 0.247006 0)
(0.156932 0.247246 0)
(0.163825 0.256686 0)
(0.171631 0.274279 0)
(0.178042 0.299444 0)
(0.179103 0.331996 0)
(0.169729 0.371347 0)
(0.148361 0.411945 0)
(0.118632 0.438518 0)
(0.0886166 0.420115 0)
(0.00595335 0.428042 0)
(-0.0409811 0.315375 0)
(-0.0183824 0.266341 0)
(-0.0667307 0.79257 0)
(-0.155387 1.26553 0)
(-0.140184 1.27274 0)
(-0.0569482 1.16841 0)
(0.0988944 0.92684 0)
(0.236072 0.714982 0)
(0.310855 0.582535 0)
(0.317462 0.523649 0)
(0.308552 0.488935 0)
(0.285557 0.459228 0)
(0.257976 0.430507 0)
(0.229297 0.406484 0)
(0.201376 0.381255 0)
(0.177186 0.351428 0)
(0.158331 0.31748 0)
(0.146495 0.282758 0)
(0.142584 0.257021 0)
(0.145281 0.242612 0)
(0.152855 0.239552 0)
(0.164478 0.246494 0)
(0.179013 0.262779 0)
(0.193184 0.289846 0)
(0.202866 0.329454 0)
(0.20122 0.388601 0)
(0.169325 0.472619 0)
(0.128696 0.477761 0)
(0.136099 0.494486 0)
(-0.000253508 0.602457 0)
(-0.0633538 0.303971 0)
(-0.0254239 0.217357 0)
(-0.0458392 0.900678 0)
(-0.0205125 1.1784 0)
(0.0478833 1.15435 0)
(0.217905 0.968241 0)
(0.330652 0.754738 0)
(0.356211 0.638464 0)
(0.355848 0.564989 0)
(0.352328 0.537378 0)
(0.331854 0.515427 0)
(0.305056 0.488523 0)
(0.278388 0.459116 0)
(0.248558 0.436063 0)
(0.215342 0.409273 0)
(0.183066 0.377044 0)
(0.154096 0.340117 0)
(0.133073 0.29406 0)
(0.125794 0.257175 0)
(0.129858 0.236215 0)
(0.140875 0.228183 0)
(0.156986 0.230611 0)
(0.177928 0.243253 0)
(0.200961 0.269962 0)
(0.227274 0.313394 0)
(0.251833 0.414407 0)
(0.212869 0.464994 0)
(0.108689 0.408289 0)
(0.0304209 0.415959 0)
(-0.0961137 0.778171 0)
(-0.112231 0.30962 0)
(-0.0286517 0.157741 0)
(-0.0110816 0.902312 0)
(0.0849855 1.04905 0)
(0.199974 0.988971 0)
(0.321927 0.78591 0)
(0.320888 0.713666 0)
(0.326773 0.628582 0)
(0.351408 0.565632 0)
(0.358414 0.548881 0)
(0.346867 0.540708 0)
(0.322585 0.516735 0)
(0.298203 0.485481 0)
(0.269379 0.469646 0)
(0.231932 0.442675 0)
(0.193692 0.404739 0)
(0.1502 0.366846 0)
(0.104239 0.30947 0)
(0.090086 0.257405 0)
(0.100378 0.225097 0)
(0.117167 0.212769 0)
(0.137214 0.210395 0)
(0.161699 0.216212 0)
(0.193924 0.237341 0)
(0.268095 0.274982 0)
(0.292785 0.361999 0)
(0.262791 0.704932 0)
(0.10608 0.663247 0)
(-0.0385532 0.735897 0)
(-0.0639101 0.783795 0)
(-0.101239 0.290577 0)
(-0.0862215 0.0696528 0)
(0.032571 0.795318 0)
(0.163443 0.822372 0)
(0.275223 0.754379 0)
(0.281065 0.701749 0)
(0.215734 0.711777 0)
(0.268772 0.639432 0)
(0.319715 0.534903 0)
(0.359974 0.538622 0)
(0.379925 0.553952 0)
(0.366484 0.542012 0)
(0.32062 0.52133 0)
(0.277402 0.543318 0)
(0.256461 0.519664 0)
(0.223822 0.476092 0)
(0.16638 0.468892 0)
(0.0442821 0.364008 0)
(0.0287497 0.238334 0)
(0.0522407 0.203299 0)
(0.0815449 0.192072 0)
(0.103142 0.189579 0)
(0.12455 0.185879 0)
(0.15734 0.184422 0)
(0.255089 0.162912 0)
(0.27083 0.529485 0)
(0.200249 0.717688 0)
(0.0933473 0.725044 0)
(-0.00156678 0.724094 0)
(-0.0262426 0.723824 0)
(-0.0594748 0.512351 0)
(-0.00963472 -0.186654 0)
(0.0357153 0.607747 0)
(0.127353 0.63335 0)
(0.222465 0.760674 0)
(0.29554 0.905977 0)
(0.309401 0.798685 0)
(0.358495 0.421549 0)
(0.357046 0.542326 0)
(0.397671 0.572985 0)
(0.425303 0.609692 0)
(0.442615 0.609996 0)
(0.407299 0.534423 0)
(0.339113 0.453194 0)
(0.255033 0.428536 0)
(0.16396 0.424016 0)
(0.018978 0.52817 0)
(-0.105371 0.39908 0)
(-0.0433644 0.217538 0)
(0.0145 0.166554 0)
(0.0435448 0.169112 0)
(0.0615444 0.174358 0)
(0.070335 0.16544 0)
(0.0757517 0.136238 0)
(0.138817 0.124212 0)
(0.140533 0.537736 0)
(0.204693 0.808586 0)
(0.120238 0.82055 0)
(0.00661004 0.802998 0)
(-0.0855423 0.746347 0)
(0.00176525 0.486802 0)
(0.0518712 -0.122552 0)
(0.0320166 0.792547 0)
(0.116025 0.809101 0)
(0.233246 0.826902 0)
(0.437682 0.842837 0)
(0.697215 0.764265 0)
(0.87259 0.579682 0)
(0.836198 0.379136 0)
(0.749837 0.426219 0)
(0.658367 0.460441 0)
(0.599321 0.578767 0)
(0.507657 0.70193 0)
(0.380605 0.751862 0)
(0.262858 0.719794 0)
(0.109851 0.752585 0)
(-0.0680024 0.875393 0)
(-0.128466 0.511976 0)
(-0.141951 0.0728317 0)
(0.00479893 0.120901 0)
(0.0150636 0.14815 0)
(0.0228991 0.170272 0)
(0.0221597 0.163441 0)
(0.0051428 0.132955 0)
(-0.00833751 0.135907 0)
(-0.036885 0.376916 0)
(0.118563 0.831662 0)
(0.0849375 0.992054 0)
(-0.0241216 0.97474 0)
(-0.0821463 0.834192 0)
(0.0551568 0.290845 0)
(0.0640026 -0.0527217 0)
(0.0384359 0.668185 0)
(0.150628 0.632461 0)
(0.295033 0.560497 0)
(0.510808 0.479202 0)
(0.780783 0.364882 0)
(1.00093 0.357641 0)
(1.06692 0.559806 0)
(1.04264 0.892683 0)
(0.795685 0.830283 0)
(0.610697 0.786597 0)
(0.474568 0.82533 0)
(0.357062 0.792039 0)
(0.257212 0.764371 0)
(0.141097 0.835337 0)
(0.0454918 0.884815 0)
(0.0479832 0.516587 0)
(-0.0660992 0.0408749 0)
(-0.00183477 0.083315 0)
(-0.00585309 0.143226 0)
(-0.00883798 0.173639 0)
(-0.00553189 0.174044 0)
(-0.0190044 0.154682 0)
(-0.0599369 0.178529 0)
(-0.0853356 0.311165 0)
(-0.0872504 0.778673 0)
(-0.0634805 1.01366 0)
(-0.0554133 1.01447 0)
(0.00817377 0.733144 0)
(0.10229 0.203724 0)
(0.0655459 0.0464807 0)
(0.0525156 0.490837 0)
(0.183977 0.443524 0)
(0.315701 0.347768 0)
(0.472765 0.224849 0)
(0.661099 0.0967767 0)
(0.784957 0.16596 0)
(0.817527 0.574188 0)
(0.735932 0.901257 0)
(0.618622 0.834415 0)
(0.521302 0.838002 0)
(0.41905 0.890016 0)
(0.329326 0.835679 0)
(0.248008 0.822296 0)
(0.21674 0.882317 0)
(0.249036 0.883172 0)
(0.314749 0.561703 0)
(0.113604 0.0717558 0)
(0.0137899 0.101306 0)
(-0.0221506 0.164791 0)
(-0.0387195 0.188375 0)
(-0.00895301 0.20415 0)
(-0.0107655 0.201503 0)
(-0.0662562 0.245044 0)
(-0.19822 0.217419 0)
(-0.276767 0.592488 0)
(-0.164069 0.819525 0)
(-0.0425746 0.85335 0)
(0.062502 0.534985 0)
(0.065004 0.213212 0)
(0.00910379 0.148649 0)
(0.0558121 0.345443 0)
(0.186271 0.300872 0)
(0.301921 0.210222 0)
(0.431017 0.0775827 0)
(0.55305 -0.0555676 0)
(0.593927 0.087228 0)
(0.64346 0.836188 0)
(0.482528 0.917301 0)
(0.452988 0.883374 0)
(0.408441 0.905456 0)
(0.364729 0.96281 0)
(0.305564 0.894792 0)
(0.267655 0.862011 0)
(0.321589 0.8408 0)
(0.490658 0.735664 0)
(0.616634 0.5519 0)
(0.510435 0.192689 0)
(0.20968 0.213571 0)
(0.233931 0.18508 0)
(0.20972 0.125722 0)
(0.156593 0.129824 0)
(0.122994 0.18014 0)
(0.0794167 0.310922 0)
(-0.0316256 0.629874 0)
(-0.0943996 0.550309 0)
(-0.0309062 0.554241 0)
(0.0865782 0.566618 0)
(0.15633 0.376634 0)
(0.0907664 0.0989425 0)
(-0.0170772 -0.0202182 0)
(0.0533449 0.2334 0)
(0.170768 0.19982 0)
(0.274641 0.101222 0)
(0.390341 -0.0459176 0)
(0.463167 -0.131772 0)
(0.398326 0.129185 0)
(0.38212 0.898991 0)
(0.32498 0.924271 0)
(0.321975 0.906558 0)
(0.324175 0.975225 0)
(0.303749 0.977366 0)
(0.296868 0.936791 0)
(0.315394 0.845384 0)
(0.429977 0.696728 0)
(0.609824 0.521517 0)
(0.721399 0.460732 0)
(0.789422 0.456938 0)
(0.74858 0.409692 0)
(0.666382 0.348342 0)
(0.571768 0.337653 0)
(0.498962 0.32637 0)
(0.454914 0.351475 0)
(0.429728 0.492213 0)
(0.430289 0.755402 0)
(0.402276 0.879257 0)
(0.341256 0.876108 0)
(0.328098 0.841491 0)
(0.323726 0.759211 0)
(0.232377 0.572795 0)
(0.0652344 0.32032 0)
(0.0437813 0.128212 0)
(0.150459 0.105779 0)
(0.245404 -0.00166295 0)
(0.344797 -0.146881 0)
(0.381047 -0.156647 0)
(0.249907 0.322141 0)
(0.156332 0.869657 0)
(0.188482 0.889246 0)
(0.21869 0.918106 0)
(0.237968 0.954549 0)
(0.250129 0.958291 0)
(0.293173 0.91317 0)
(0.364057 0.7748 0)
(0.488586 0.540554 0)
(0.590467 0.369841 0)
(0.690384 0.374824 0)
(0.796266 0.465312 0)
(0.782525 0.465268 0)
(0.680803 0.361096 0)
(0.613377 0.29887 0)
(0.571247 0.259717 0)
(0.551643 0.263093 0)
(0.565691 0.364538 0)
(0.627252 0.581239 0)
(0.68365 0.775569 0)
(0.656718 0.874331 0)
(0.570585 0.866122 0)
(0.461047 0.786958 0)
(0.31984 0.657732 0)
(0.128177 0.51192 0)
(0.0349487 0.0386399 0)
(0.128167 0.0266282 0)
(0.21267 -0.0927478 0)
(0.291348 -0.229231 0)
(0.302178 -0.129454 0)
(0.220181 0.684522 0)
(0.0702217 0.830368 0)
(0.114613 0.877475 0)
(0.137475 0.907925 0)
(0.159221 0.936701 0)
(0.201093 0.901842 0)
(0.275022 0.843312 0)
(0.367156 0.674977 0)
(0.466793 0.422831 0)
(0.535237 0.292541 0)
(0.605831 0.317484 0)
(0.670269 0.438225 0)
(0.663522 0.460287 0)
(0.615465 0.394181 0)
(0.576641 0.328834 0)
(0.544983 0.266136 0)
(0.533195 0.244313 0)
(0.551035 0.30913 0)
(0.60623 0.483695 0)
(0.665252 0.694015 0)
(0.660327 0.830273 0)
(0.580014 0.852652 0)
(0.46522 0.806105 0)
(0.318306 0.720714 0)
(0.126006 0.642951 0)
(0.0264266 -0.0315778 0)
(0.105528 -0.0454322 0)
(0.169197 -0.16468 0)
(0.214056 -0.286854 0)
(0.174706 -0.0591282 0)
(0.114212 0.747222 0)
(0.0363413 0.828738 0)
(0.0495795 0.861139 0)
(0.0652042 0.897313 0)
(0.0955705 0.873361 0)
(0.151856 0.846515 0)
(0.234517 0.761275 0)
(0.31899 0.58444 0)
(0.390226 0.333969 0)
(0.443738 0.237816 0)
(0.492022 0.290945 0)
(0.534337 0.409718 0)
(0.539611 0.451282 0)
(0.535895 0.424389 0)
(0.519555 0.362524 0)
(0.494266 0.289964 0)
(0.477344 0.249292 0)
(0.481252 0.286812 0)
(0.514451 0.438515 0)
(0.56183 0.672067 0)
(0.567954 0.857379 0)
(0.507605 0.929398 0)
(0.406692 0.917425 0)
(0.271331 0.877357 0)
(0.107576 0.836744 0)
(0.0172166 -0.0887384 0)
(0.0826016 -0.108402 0)
(0.125317 -0.210558 0)
(0.143713 -0.298491 0)
(0.0467405 0.0490585 0)
(0.00339605 0.79744 0)
(-0.0259421 0.834103 0)
(-0.0228704 0.842613 0)
(-0.00887632 0.847186 0)
(0.0295473 0.836568 0)
(0.0842324 0.767194 0)
(0.158885 0.690507 0)
(0.229487 0.520592 0)
(0.283426 0.268241 0)
(0.333095 0.195563 0)
(0.375102 0.258765 0)
(0.411394 0.384391 0)
(0.436932 0.430001 0)
(0.450723 0.416297 0)
(0.451856 0.374573 0)
(0.434435 0.309734 0)
(0.409454 0.259439 0)
(0.399335 0.275867 0)
(0.415111 0.407061 0)
(0.451054 0.648971 0)
(0.463383 0.878941 0)
(0.420413 1.00243 0)
(0.334768 1.02959 0)
(0.216152 1.02061 0)
(0.0849803 1.01175 0)
(0.0118655 -0.130812 0)
(0.0603147 -0.15816 0)
(0.0902322 -0.238687 0)
(0.092108 -0.274562 0)
(-0.0234099 0.175141 0)
(-0.0975999 0.816179 0)
(-0.0993207 0.830834 0)
(-0.0958166 0.830823 0)
(-0.0812384 0.831455 0)
(-0.0463954 0.77749 0)
(0.00437259 0.721026 0)
(0.0526008 0.626345 0)
(0.114825 0.470925 0)
(0.165797 0.19694 0)
(0.219405 0.140829 0)
(0.264232 0.232573 0)
(0.306572 0.341181 0)
(0.343577 0.394216 0)
(0.376264 0.402399 0)
(0.383767 0.377249 0)
(0.370395 0.329342 0)
(0.339075 0.278865 0)
(0.314617 0.278322 0)
(0.317232 0.389244 0)
(0.345936 0.628962 0)
(0.36895 0.88873 0)
(0.346742 1.05947 0)
(0.27794 1.12749 0)
(0.17309 1.14636 0)
(0.0647972 1.13634 0)
(0.00742759 -0.160259 0)
(0.0373699 -0.188759 0)
(0.054767 -0.256532 0)
(0.041861 -0.235461 0)
(-0.0889547 0.341775 0)
(-0.19572 0.812818 0)
(-0.177538 0.8214 0)
(-0.165316 0.832737 0)
(-0.147247 0.791629 0)
(-0.114369 0.750005 0)
(-0.0802309 0.680813 0)
(-0.0518191 0.585213 0)
(0.00873815 0.41362 0)
(0.0724092 0.120024 0)
(0.122478 0.0870576 0)
(0.178657 0.206856 0)
(0.216162 0.294117 0)
(0.259982 0.347808 0)
(0.295338 0.377243 0)
(0.314576 0.38163 0)
(0.302406 0.354371 0)
(0.268008 0.312179 0)
(0.231046 0.296851 0)
(0.222664 0.380348 0)
(0.248417 0.599726 0)
(0.284975 0.877721 0)
(0.286009 1.0917 0)
(0.236824 1.20742 0)
(0.148056 1.24906 0)
(0.0542368 1.2372 0)
(0.00428108 -0.178012 0)
(0.0188675 -0.199705 0)
(0.0255542 -0.262719 0)
(-0.0151481 -0.179741 0)
(-0.136643 0.580661 0)
(-0.25447 0.80596 0)
(-0.239401 0.799641 0)
(-0.216991 0.798388 0)
(-0.196905 0.780279 0)
(-0.177021 0.715049 0)
(-0.155292 0.656786 0)
(-0.134838 0.558279 0)
(-0.0647714 0.322045 0)
(0.0113422 0.0540401 0)
(0.0469687 0.033149 0)
(0.0994176 0.161171 0)
(0.14364 0.245165 0)
(0.182767 0.303759 0)
(0.217641 0.344741 0)
(0.239189 0.372543 0)
(0.233396 0.376039 0)
(0.196619 0.348844 0)
(0.150832 0.324123 0)
(0.131763 0.37517 0)
(0.155521 0.564521 0)
(0.205494 0.846452 0)
(0.233158 1.10376 0)
(0.207312 1.26858 0)
(0.134398 1.33905 0)
(0.0470464 1.32851 0)
(0.00193661 -0.187847 0)
(0.00617947 -0.201453 0)
(0.0153837 -0.25546 0)
(-0.0638137 -0.0907992 0)
(-0.185547 0.737321 0)
(-0.264957 0.826029 0)
(-0.261656 0.791843 0)
(-0.247649 0.794861 0)
(-0.236846 0.749493 0)
(-0.225159 0.710213 0)
(-0.217034 0.640159 0)
(-0.187299 0.531271 0)
(-0.0870626 0.21052 0)
(-0.0231838 0.0063522 0)
(-0.00436532 0.00220401 0)
(0.0329092 0.115741 0)
(0.081323 0.208367 0)
(0.123669 0.276652 0)
(0.149235 0.315243 0)
(0.167462 0.361228 0)
(0.164493 0.397738 0)
(0.129895 0.393921 0)
(0.0781111 0.363363 0)
(0.0482345 0.375424 0)
(0.0668818 0.520502 0)
(0.128461 0.793452 0)
(0.181808 1.08795 0)
(0.182063 1.30931 0)
(0.123962 1.41629 0)
(0.0404372 1.41204 0)
(-0.00193742 -0.187802 0)
(-0.012421 -0.200932 0)
(0.00532472 -0.232713 0)
(-0.11435 0.0508788 0)
(-0.233169 0.8039 0)
(-0.273281 0.823338 0)
(-0.267807 0.802864 0)
(-0.267723 0.776742 0)
(-0.269161 0.746447 0)
(-0.262197 0.695946 0)
(-0.254705 0.632788 0)
(-0.183471 0.437898 0)
(-0.0728151 0.11575 0)
(-0.0398409 -0.0207899 0)
(-0.0399533 -0.0116398 0)
(-0.023412 0.0761291 0)
(0.0137917 0.157599 0)
(0.0567894 0.233766 0)
(0.0909234 0.304167 0)
(0.101435 0.352618 0)
(0.0982704 0.416804 0)
(0.066604 0.437715 0)
(0.0165901 0.408249 0)
(-0.0215418 0.383554 0)
(-0.012 0.47505 0)
(0.0516175 0.721685 0)
(0.126961 1.04454 0)
(0.154218 1.33127 0)
(0.114797 1.48427 0)
(0.0356139 1.49021 0)
(-0.0076264 -0.175252 0)
(-0.0285796 -0.193482 0)
(-0.0224381 -0.198947 0)
(-0.159716 0.227249 0)
(-0.278442 0.833831 0)
(-0.287504 0.845176 0)
(-0.276909 0.797698 0)
(-0.289374 0.77802 0)
(-0.290024 0.739923 0)
(-0.286875 0.69657 0)
(-0.250164 0.595382 0)
(-0.127905 0.305651 0)
(-0.047284 0.0606617 0)
(-0.045768 -0.0218375 0)
(-0.0632105 -0.00665142 0)
(-0.0652629 0.0562014 0)
(-0.0454571 0.122763 0)
(-0.0135661 0.192949 0)
(0.0218043 0.272805 0)
(0.0363634 0.34533 0)
(0.0319291 0.431718 0)
(0.00715568 0.478511 0)
(-0.0359794 0.454919 0)
(-0.0761269 0.404 0)
(-0.0776808 0.438907 0)
(-0.0227654 0.64343 0)
(0.0653707 0.97811 0)
(0.120686 1.32814 0)
(0.103998 1.54053 0)
(0.0322841 1.56307 0)
(-0.0102558 -0.158641 0)
(-0.0167357 -0.187155 0)
(-0.0355163 -0.158561 0)
(-0.179977 0.402311 0)
(-0.306465 0.863109 0)
(-0.297454 0.837056 0)
(-0.295265 0.814911 0)
(-0.308085 0.769701 0)
(-0.304065 0.743269 0)
(-0.284372 0.677792 0)
(-0.180601 0.477138 0)
(-0.0572107 0.198848 0)
(-0.0240111 0.0454513 0)
(-0.0466527 -0.00118009 0)
(-0.0787244 0.0135014 0)
(-0.0972395 0.0550228 0)
(-0.0959574 0.103764 0)
(-0.0786037 0.163004 0)
(-0.050185 0.243587 0)
(-0.0286614 0.351577 0)
(-0.0307707 0.443091 0)
(-0.0473607 0.508596 0)
(-0.0797678 0.496495 0)
(-0.116154 0.430077 0)
(-0.128288 0.416093 0)
(-0.0903202 0.564846 0)
(-0.0025001 0.892828 0)
(0.0798769 1.2986 0)
(0.0917606 1.57762 0)
(0.0292082 1.62856 0)
(-0.0188813 -0.136236 0)
(-0.0239129 -0.166299 0)
(-0.10273 -0.0625741 0)
(-0.232859 0.57936 0)
(-0.324889 0.868785 0)
(-0.305578 0.856221 0)
(-0.308428 0.801682 0)
(-0.315969 0.781872 0)
(-0.299353 0.728959 0)
(-0.220405 0.593825 0)
(-0.0768387 0.330179 0)
(-0.00231267 0.144204 0)
(-0.00678918 0.0599625 0)
(-0.0465259 0.0356153 0)
(-0.0900005 0.0468917 0)
(-0.122431 0.0714912 0)
(-0.138589 0.10227 0)
(-0.138134 0.145954 0)
(-0.122623 0.218159 0)
(-0.0990599 0.333675 0)
(-0.0894516 0.446651 0)
(-0.0976111 0.526129 0)
(-0.116545 0.529567 0)
(-0.145003 0.458418 0)
(-0.165567 0.413736 0)
(-0.146791 0.501121 0)
(-0.0717705 0.797523 0)
(0.0288673 1.23674 0)
(0.0774654 1.59951 0)
(0.0271668 1.69041 0)
(-0.0289908 -0.103591 0)
(-0.0285264 -0.130196 0)
(-0.134525 0.0378311 0)
(-0.25389 0.705423 0)
(-0.327159 0.884801 0)
(-0.304886 0.851777 0)
(-0.317932 0.806683 0)
(-0.306859 0.770409 0)
(-0.243453 0.672236 0)
(-0.0969958 0.435155 0)
(0.0101522 0.233855 0)
(0.0314859 0.135441 0)
(0.00196439 0.0946792 0)
(-0.0478089 0.0836575 0)
(-0.0988196 0.0905484 0)
(-0.141462 0.102446 0)
(-0.172019 0.117885 0)
(-0.188247 0.14496 0)
(-0.188051 0.202186 0)
(-0.170463 0.310832 0)
(-0.148062 0.454057 0)
(-0.138979 0.531711 0)
(-0.146931 0.550085 0)
(-0.16631 0.487216 0)
(-0.190596 0.425777 0)
(-0.186936 0.457789 0)
(-0.134343 0.703239 0)
(-0.0324252 1.14497 0)
(0.0573217 1.58804 0)
(0.0260412 1.74742 0)
(-0.0244195 -0.0703289 0)
(-0.0217827 -0.0957301 0)
(-0.123695 0.147252 0)
(-0.277463 0.81774 0)
(-0.316063 0.895587 0)
(-0.309641 0.845141 0)
(-0.311512 0.803 0)
(-0.257083 0.729846 0)
(-0.112469 0.519235 0)
(0.0176643 0.306423 0)
(0.0606797 0.20085 0)
(0.045722 0.157017 0)
(0.00321558 0.140945 0)
(-0.0499382 0.137179 0)
(-0.10311 0.140066 0)
(-0.150985 0.143374 0)
(-0.191451 0.147798 0)
(-0.221997 0.16045 0)
(-0.238169 0.198936 0)
(-0.233306 0.286883 0)
(-0.205272 0.422514 0)
(-0.175538 0.520864 0)
(-0.171406 0.554978 0)
(-0.184955 0.509216 0)
(-0.204352 0.442669 0)
(-0.212734 0.434843 0)
(-0.184366 0.622267 0)
(-0.0984037 1.0376 0)
(0.0194712 1.52804 0)
(0.0227891 1.79068 0)
(-0.0206659 -0.0335429 0)
(-0.0304494 -0.055312 0)
(-0.163142 0.302478 0)
(-0.311813 0.90265 0)
(-0.312511 0.91543 0)
(-0.30755 0.839558 0)
(-0.267259 0.773903 0)
(-0.12334 0.583338 0)
(0.0223921 0.366309 0)
(0.0825826 0.252415 0)
(0.07954 0.209425 0)
(0.0471305 0.194094 0)
(0.00195774 0.190134 0)
(-0.0479322 0.189723 0)
(-0.0976961 0.190117 0)
(-0.145356 0.189183 0)
(-0.190315 0.187718 0)
(-0.230683 0.190691 0)
(-0.261361 0.211409 0)
(-0.273191 0.272092 0)
(-0.25653 0.384586 0)