/*--------------------------------*- C++ -*----------------------------------*\
| =========                 |                                                 |
| \\      /  F ield         | OpenFOAM: The Open Source CFD Toolbox           |
|  \\    /   O peration     | Version:  2.3.0                                 |
|   \\  /    A nd           | Web:      www.OpenFOAM.org                      |
|    \\/     M anipulation  |                                                 |
\*---------------------------------------------------------------------------*/
FoamFile
{
    version     2.0;
    format      ascii;
    class       volScalarField;
    location    "3.69999";
    object      alpha.water;
}
// * * * * * * * * * * * * * * * * * * * * * * * * * * * * * * * * * * * * * //

dimensions      [0 0 0 0 0 0 0];

internalField   nonuniform List<scalar> 
10000
(
0.992161
0.990963
0.991335
0.991773
0.787266
0.737781
0.683951
0.574344
0.68751
0.772621
0.69559
0.625952
0.516508
0.604826
0.778725
0.986169
0.990782
0.994115
0.994551
0.993577
1
1
1
0.999743
0.791946
0.813225
0.71756
0.81003
0.64464
0.739692
0.688936
0.640493
0.47252
0.58463
0.717369
0.999793
0.999947
1
1
1
1
1
1
0.999998
0.983028
0.778955
0.667597
0.654373
0.667856
0.672523
0.634553
0.690493
0.653508
0.688814
0.847589
0.999892
0.999975
1
1
1
1
1
1
1
0.990873
0.678309
0.665312
0.668274
0.653089
0.672509
0.637386
0.717209
0.700923
0.715227
0.905408
0.999763
0.999994
1
1
1
1
1
1
0.999999
0.991395
0.684886
0.669573
0.656012
0.644539
0.688326
0.702805
0.773424
0.757758
0.784322
0.958869
0.999311
0.999998
1
1
1
1
1
1
0.999998
0.992963
0.683711
0.657892
0.649535
0.657098
0.730661
0.813502
0.872244
0.876484
0.903168
0.984887
0.998698
0.999999
1
1
1
1
1
1
0.999999
0.99701
0.674351
0.689902
0.675164
0.751183
0.8504
0.919343
0.960599
0.954446
0.971701
0.995539
0.998123
1
1
1
1
1
1
1
1
0.999559
0.754158
0.829024
0.826897
0.910938
0.958279
0.985005
0.994685
0.990796
0.994392
0.999101
0.997814
1
1
1
1
1
1
1
1
0.999984
0.998802
0.999341
0.999416
0.999647
0.999661
0.999833
0.999954
0.999898
0.999917
0.999886
0.999111
1
1
1
1
1
1
1
1
1
1
1
1
1
1
1
1
1
1
0.999996
0.999995
1
1
1
1
1
1
1
1
1
1
1
1
1
1
1
1
1
1
1
1
1
1
1
1
1
1
1
1
1
1
1
1
1
1
1
1
1
1
1
1
1
1
1
1
1
1
1
1
1
1
1
1
1
1
1
1
1
1
1
1
1
1
1
1
1
1
1
1
1
1
1
1
1
1
1
1
1
1
1
1
1
1
1
1
1
1
1
1
1
1
1
1
1
1
1
1
1
1
1
1
1
1
1
1
1
1
1
1
1
1
1
1
1
1
1
1
1
1
1
1
1
1
1
1
1
1
1
1
1
1
1
1
1
1
1
1
1
1
1
1
1
1
1
1
1
1
1
1
1
1
1
1
1
1
1
1
1
1
1
1
1
1
1
1
1
1
1
1
1
1
1
1
1
1
1
1
1
1
1
1
1
1
1
1
1
1
1
1
1
1
1
1
1
1
1
1
1
1
1
1
1
1
1
1
0.99206
0.991231
0.991244
0.991485
0.773294
0.733223
0.679354
0.554049
0.688465
0.776077
0.692646
0.616447
0.50999
0.597508
0.770065
0.985048
0.990887
0.99409
0.994581
0.993625
1
1
1
0.999926
0.767656
0.813372
0.718853
0.812786
0.642871
0.750159
0.696244
0.627126
0.42879
0.570129
0.692873
0.99965
0.999957
1
1
1
1
1
1
0.999999
0.982571
0.785701
0.667794
0.653739
0.668623
0.67271
0.634216
0.683915
0.639871
0.684115
0.82958
0.999911
0.99998
1
1
1
1
1
1
1
0.990651
0.677957
0.665429
0.667978
0.654838
0.672337
0.631688
0.707699
0.691627
0.708545
0.887806
0.999942
0.999996
1
1
1
1
1
1
1
0.990973
0.684882
0.670021
0.65529
0.644677
0.685225
0.68036
0.751797
0.736042
0.767418
0.947624
0.999898
0.999999
1
1
1
1
1
1
0.999999
0.992616
0.684383
0.657793
0.649804
0.653794
0.717628
0.791074
0.848809
0.858222
0.890205
0.97961
0.999615
1
1
1
1
1
1
1
0.999999
0.997079
0.673049
0.686482
0.671961
0.739539
0.831828
0.904477
0.950569
0.946327
0.967164
0.993758
0.999008
1
1
1
1
1
1
1
1
0.999614
0.73771
0.818569
0.818339
0.901237
0.949686
0.981188
0.992981
0.988593
0.993276
0.998765
0.998514
1
1
1
1
1
1
1
1
0.999989
0.998655
0.999289
0.999378
0.999601
0.999599
0.9998
0.999944
0.999882
0.999908
0.999851
0.999137
1
1
1
1
1
1
1
1
1
1
1
1
1
1
1
1
1
1
0.999996
0.999996
1
1
1
1
1
1
1
1
1
1
1
1
1
1
1
1
1
1
1
1
1
1
1
1
1
1
1
1
1
1
1
1
1
1
1
1
1
1
1
1
1
1
1
1
1
1
1
1
1
1
1
1
1
1
1
1
1
1
1
1
1
1
1
1
1
1
1
1
1
1
1
1
1
1
1
1
1
1
1
1
1
1
1
1
1
1
1
1
1
1
1
1
1
1
1
1
1
1
1
1
1
1
1
1
1
1
1
1
1
1
1
1
1
1
1
1
1
1
1
1
1
1
1
1
1
1
1
1
1
1
1
1
1
1
1
1
1
1
1
1
1
1
1
1
1
1
1
1
1
1
1
1
1
1
1
1
1
1
1
1
1
1
1
1
1
1
1
1
1
1
1
1
1
1
1
1
1
1
1
1
1
1
1
1
1
1
1
1
1
1
1
1
1
1
1
1
1
1
1
1
1
1
1
1
0.992024
0.991374
0.991198
0.991307
0.765908
0.730901
0.67657
0.5306
0.688042
0.776043
0.689993
0.611725
0.508472
0.595661
0.765538
0.984216
0.990915
0.994049
0.994568
0.993643
1
1
1
0.999991
0.751129
0.813391
0.719538
0.814327
0.641467
0.756342
0.699676
0.618204
0.398675
0.560877
0.677541
0.999453
0.99997
1
1
1
1
1
1
0.999999
0.981881
0.789604
0.667924
0.653417
0.669051
0.673148
0.635456
0.680508
0.630454
0.681747
0.819578
0.999883
0.999982
1
1
1
1
1
1
1
0.990529
0.677755
0.665495
0.667582
0.655885
0.672325
0.63004
0.703881
0.687641
0.705672
0.877557
0.999948
0.999997
1
1
1
1
1
1
1
0.990673
0.684882
0.670277
0.654229
0.644781
0.684081
0.669734
0.741897
0.725386
0.758723
0.9404
0.999958
0.999999
1
1
1
1
1
1
1
0.991855
0.684797
0.65776
0.649975
0.652391
0.711719
0.779003
0.835483
0.847787
0.882513
0.975944
0.999859
1
1
1
1
1
1
1
1
0.996711
0.672529
0.684711
0.670411
0.733575
0.82163
0.895581
0.944147
0.941457
0.964297
0.992432
0.99941
1
1
1
1
1
1
1
1
0.999446
0.728783
0.811905
0.813669
0.895658
0.944362
0.978708
0.991806
0.987165
0.99257
0.998511
0.99884
1
1
1
1
1
1
1
1
0.999992
0.99857
0.999261
0.999355
0.999574
0.999562
0.99978
0.999937
0.999873
0.999903
0.999829
0.999156
1
1
1
1
1
1
1
1
1
1
1
1
1
1
1
1
1
1
0.999996
0.999997
1
1
1
1
1
1
1
1
1
1
1
1
1
1
1
1
1
1
1
1
1
1
1
1
1
1
1
1
1
1
1
1
1
1
1
1
1
1
1
1
1
1
1
1
1
1
1
1
1
1
1
1
1
1
1
1
1
1
1
1
1
1
1
1
1
1
1
1
1
1
1
1
1
1
1
1
1
1
1
1
1
1
1
1
1
1
1
1
1
1
1
1
1
1
1
1
1
1
1
1
1
1
1
1
1
1
1
1
1
1
1
1
1
1
1
1
1
1
1
1
1
1
1
1
1
1
1
1
1
1
1
1
1
1
1
1
1
1
1
1
1
1
1
1
1
1
1
1
1
1
1
1
1
1
1
1
1
1
1
1
1
1
1
1
1
1
1
1
1
1
1
1
1
1
1
1
1
1
1
1
1
1
1
1
1
1
1
1
1
1
1
1
1
1
1
1
1
1
1
1
1
1
1
1
0.992199
0.991588
0.991353
0.991295
0.760186
0.728726
0.673432
0.486317
0.689646
0.776111
0.686929
0.607337
0.506991
0.594956
0.763099
0.98356
0.991113
0.994091
0.994639
0.993765
1
1
1
0.999997
0.731415
0.813398
0.720262
0.816038
0.639821
0.762694
0.702864
0.607818
0.367693
0.551199
0.659855
0.999114
0.999983
1
1
1
1
1
1
1
0.981027
0.794289
0.668116
0.6531
0.6696
0.673925
0.637275
0.676575
0.618715
0.679285
0.808592
0.999844
0.999988
1
1
1
1
1
1
1
0.990414
0.67753
0.665573
0.667254
0.65705
0.672351
0.62885
0.700293
0.683841
0.702831
0.866186
0.999944
0.999997
1
1
1
1
1
1
1
0.99039
0.684873
0.670573
0.653286
0.644886
0.683067
0.659359
0.73247
0.714729
0.749663
0.931965
0.999965
0.999999
1
1
1
1
1
1
1
0.991126
0.685234
0.657739
0.650173
0.651052
0.705932
0.766116
0.820993
0.83618
0.873739
0.971451
0.999957
1
1
1
1
1
1
1
1
0.996166
0.672056
0.682881
0.66881
0.727244
0.810527
0.885414
0.936562
0.93586
0.96089
0.990737
0.999726
1
1
1
1
1
1
1
1
0.999244
0.71901
0.804056
0.808516
0.889318
0.9381
0.975726
0.990349
0.985439
0.991722
0.998177
0.999072
1
1
1
1
1
1
1
1
0.999993
0.998469
0.999227
0.999327
0.999545
0.999516
0.999756
0.999929
0.999861
0.999897
0.999801
0.998965
1
1
1
1
1
1
1
1
1
1
1
1
1
1
1
1
1
1
0.999997
0.999997
1
1
1
1
1
1
1
1
1
1
1
1
1
1
1
1
1
1
1
1
1
1
1
1
1
1
1
1
1
1
1
1
1
1
1
1
1
1
1
1
1
1
1
1
1
1
1
1
1
1
1
1
1
1
1
1
1
1
1
1
1
1
1
1
1
1
1
1
1
1
1
1
1
1
1
1
1
1
1
1
1
1
1
1
1
1
1
1
1
1
1
1
1
1
1
1
1
1
1
1
1
1
1
1
1
1
1
1
1
1
1
1
1
1
1
1
1
1
1
1
1
1
1
1
1
1
1
1
1
1
1
1
1
1
1
1
1
1
1
1
1
1
1
1
1
1
1
1
1
1
1
1
1
1
1
1
1
1
1
1
1
1
1
1
1
1
1
1
1
1
1
1
1
1
1
1
1
1
1
1
1
1
1
1
1
1
1
1
1
1
1
1
1
1
1
1
1
1
1
1
1
1
1
1
0.992288
0.99174
0.991431
0.991277
0.753499
0.726302
0.669724
0.441779
0.696703
0.775451
0.68124
0.600028
0.507054
0.594123
0.759623
0.982672
0.991221
0.994102
0.994666
0.993826
1
1
1
0.999994
0.711698
0.813415
0.720995
0.817594
0.63871
0.76847
0.705167
0.597011
0.338198
0.542769
0.642431
0.99854
0.999993
1
1
1
1
1
1
1
0.979941
0.798574
0.668256
0.652706
0.670103
0.67482
0.63982
0.672588
0.605667
0.677187
0.798294
0.999781
0.999994
1
1
1
1
1
1
1
0.990312
0.677322
0.665652
0.666967
0.658196
0.672543
0.628238
0.697539
0.680995
0.700613
0.855326
0.999921
0.999998
1
1
1
1
1
1
1
0.990181
0.684823
0.670841
0.652325
0.645025
0.682404
0.651058
0.725159
0.705917
0.741884
0.923488
0.999966
1
1
1
1
1
1
1
1
0.990505
0.685646
0.657726
0.650421
0.650049
0.701357
0.754724
0.807848
0.825425
0.865414
0.966695
0.999974
1
1
1
1
1
1
1
1
0.995698
0.671713
0.681341
0.667464
0.721737
0.800562
0.87571
0.928985
0.930483
0.957497
0.988868
0.999915
1
1
1
1
1
1
1
1
0.999075
0.710141
0.796436
0.803824
0.883406
0.931986
0.972715
0.988812
0.98368
0.990867
0.997801
0.999348
1
1
1
1
1
1
1
1
0.999994
0.998383
0.999192
0.999302
0.999522
0.999475
0.999736
0.999921
0.999851
0.999892
0.999775
0.998633
1
1
1
1
1
1
1
1
1
1
1
1
1
1
1
1
1
1
0.999998
0.999997
1
1
1
1
1
1
1
1
1
1
1
1
1
1
1
1
1
1
1
1
1
1
1
1
1
1
1
1
1
1
1
1
1
1
1
1
1
1
1
1
1
1
1
1
1
1
1
1
1
1
1
1
1
1
1
1
1
1
1
1
1
1
1
1
1
1
1
1
1
1
1
1
1
1
1
1
1
1
1
1
1
1
1
1
1
1
1
1
1
1
1
1
1
1
1
1
1
1
1
1
1
1
1
1
1
1
1
1
1
1
1
1
1
1
1
1
1
1
1
1
1
1
1
1
1
1
1
1
1
1
1
1
1
1
1
1
1
1
1
1
1
1
1
1
1
1
1
1
1
1
1
1
1
1
1
1
1
1
1
1
1
1
1
1
1
1
1
1
1
1
1
1
1
1
1
1
1
1
1
1
1
1
1
1
1
1
1
1
1
1
1
1
1
1
1
1
1
1
1
1
1
1
1
1
0.992373
0.991882
0.991508
0.991246
0.747423
0.72393
0.665507
0.412768
0.71522
0.769856
0.675292
0.592637
0.509504
0.593953
0.756592
0.981604
0.991317
0.994119
0.9947
0.993884
1
1
1
0.999992
0.69285
0.813456
0.721722
0.81914
0.638124
0.77388
0.706788
0.584976
0.310544
0.533405
0.62421
0.997585
0.999997
1
1
1
1
1
1
0.999999
0.978707
0.802855
0.668406
0.652276
0.670598
0.675925
0.643035
0.668171
0.590848
0.67502
0.788372
0.999698
0.999997
1
1
1
1
1
1
1
0.99021
0.677129
0.665732
0.666758
0.659354
0.672738
0.62796
0.695224
0.678811
0.698781
0.844651
0.999888
0.999999
1
1
1
1
1
1
1
0.990021
0.684744
0.671108
0.651182
0.645164
0.68195
0.64418
0.719248
0.698334
0.734905
0.914765
0.999954
1
1
1
1
1
1
1
1
0.990046
0.685987
0.657719
0.650735
0.649242
0.69752
0.744173
0.795535
0.815018
0.857204
0.961561
0.999975
1
1
1
1
1
1
1
1
0.995222
0.671443
0.679995
0.66625
0.716642
0.791155
0.866065
0.921199
0.925092
0.953984
0.986785
0.999973
1
1
1
1
1
1
1
1
0.998895
0.701665
0.788844
0.799285
0.877575
0.925821
0.969602
0.987163
0.981832
0.989966
0.997373
0.999727
1
1
1
1
1
1
1
1
0.999993
0.998325
0.999158
0.999285
0.999507
0.999449
0.999723
0.999916
0.999844
0.999889
0.999759
0.998564
1
1
1
1
1
1
1
1
1
1
1
1
1
1
1
1
1
1
1
1
1
1
1
1
1
1
1
1
1
1
1
1
1
1
1
1
1
1
1
1
1
1
1
1
1
1
1
1
1
1
1
1
1
1
1
1
1
1
1
1
1
1
1
1
1
1
1
1
1
1
1
1
1
1
1
1
1
1
1
1
1
1
1
1
1
1
1
1
1
1
1
1
1
1
1
1
1
1
1
1
1
1
1
1
1
1
1
1
1
1
1
1
1
1
1
1
1
1
1
1
1
1
1
1
1
1
1
1
1
1
1
1
1
1
1
1
1
1
1
1
1
1
1
1
1
1
1
1
1
1
1
1
1
1
1
1
1
1
1
1
1
1
1
1
1
1
1
1
1
1
1
1
1
1
1
1
1
1
1
1
1
1
1
1
1
1
1
1
1
1
1
1
1
1
1
1
1
1
1
1
1
1
1
1
1
1
1
1
1
1
1
1
1
1
1
1
1
1
1
1
1
1
1
1
0.992445
0.992005
0.991568
0.991214
0.742093
0.721434
0.660622
0.388056
0.726966
0.756147
0.668702
0.583777
0.520465
0.594436
0.753466
0.980337
0.991393
0.994128
0.994726
0.993932
1
1
1
0.999991
0.674694
0.813602
0.722448
0.820637
0.637763
0.778558
0.707836
0.570455
0.283755
0.521035
0.605311
0.996036
0.999999
1
1
1
1
1
1
0.999999
0.97723
0.806971
0.668534
0.651832
0.671009
0.677215
0.646858
0.663113
0.57441
0.672514
0.779002
0.999584
0.999999
1
1
1
1
1
1
1
0.990128
0.676948
0.665815
0.666653
0.660529
0.672979
0.627892
0.693265
0.677282
0.697358
0.834318
0.999842
0.999999
1
1
1
1
1
1
1
0.989895
0.684626
0.671361
0.649738
0.645318
0.681683
0.638687
0.714624
0.692002
0.728839
0.905971
0.999934
1
1
1
1
1
1
1
1
0.989736
0.68621
0.657716
0.651133
0.648634
0.694433
0.734696
0.784347
0.805236
0.849364
0.956128
0.99997
1
1
1
1
1
1
1
1
0.994784
0.671235
0.678866
0.665201
0.712093
0.782558
0.85674
0.913395
0.919847
0.95045
0.984514
0.99998
1
1
1
1
1
1
1
1
0.998714
0.693818
0.781551
0.795051
0.872029
0.91974
0.966444
0.985425
0.97993
0.989041
0.996884
0.99997
1
1
1
1
1
1
1
1
0.999993
0.998313
0.999136
0.999283
0.999511
0.999457
0.999731
0.999918
0.999845
0.99989
0.999772
0.999888
1
1
1
1
1
1
1
1
1
1
1
1
1
1
1
1
1
1
1
1
1
1
1
1
1
1
1
1
1
1
1
1
1
1
1
1
1
1
1
1
1
1
1
1
1
1
1
1
1
1
1
1
1
1
1
1
1
1
1
1
1
1
1
1
1
1
1
1
1
1
1
1
1
1
1
1
1
1
1
1
1
1
1
1
1
1
1
1
1
1
1
1
1
1
1
1
1
1
1
1
1
1
1
1
1
1
1
1
1
1
1
1
1
1
1
1
1
1
1
1
1
1
1
1
1
1
1
1
1
1
1
1
1
1
1
1
1
1
1
1
1
1
1
1
1
1
1
1
1
1
1
1
1
1
1
1
1
1
1
1
1
1
1
1
1
1
1
1
1
1
1
1
1
1
1
1
1
1
1
1
1
1
1
1
1
1
1
1
1
1
1
1
1
1
1
1
1
1
1
1
1
1
1
1
1
1
1
1
1
1
1
1
1
1
1
1
1
1
1
1
1
1
1
1
0.99251
0.992112
0.991618
0.991182
0.737573
0.71884
0.65548
0.364972
0.634891
0.734277
0.662851
0.575448
0.510207
0.596409
0.750396
0.978929
0.991456
0.994134
0.994753
0.993974
1
1
1
0.999991
0.655466
0.813733
0.723167
0.822073
0.637278
0.782836
0.708316
0.546453
0.257218
0.50768
0.586288
0.99361
0.999999
1
1
1
1
1
1
0.999999
0.975421
0.810976
0.668665
0.651375
0.671333
0.678663
0.651168
0.657177
0.556316
0.669588
0.77019
0.999433
1
1
1
1
1
1
1
1
0.990072
0.676785
0.665898
0.666631
0.661723
0.673217
0.627898
0.691553
0.676332
0.696245
0.82435
0.999785
1
1
1
1
1
1
1
1
0.989825
0.684462
0.671607
0.648048
0.645473
0.681545
0.634347
0.711012
0.686756
0.723564
0.897202
0.999908
1
1
1
1
1
1
1
1
0.989506
0.686303
0.657723
0.651536
0.648174
0.691938
0.726186
0.774248
0.79604
0.841878
0.950448
0.999962
1
1
1
1
1
1
1
1
0.99438
0.671074
0.677907
0.664275
0.70797
0.774664
0.847728
0.905629
0.91474
0.946879
0.982076
0.99998
1
1
1
1
1
1
1
1
0.998534
0.686624
0.774547
0.791087
0.866747
0.913831
0.963294
0.983622
0.977994
0.988096
0.996355
0.999982
1
1
1
1
1
1
1
1
0.999993
0.998301
0.999104
0.999282
0.99951
0.999463
0.999736
0.999918
0.999846
0.999892
0.999779
0.999972
1
1
1
1
1
1
1
1
1
1
1
1
1
1
1
1
1
1
1
1
1
1
1
1
1
1
1
1
1
1
1
1
1
1
1
1
1
1
1
1
1
1
1
1
1
1
1
1
1
1
1
1
1
1
1
1
1
1
1
1
1
1
1
1
1
1
1
1
1
1
1
1
1
1
1
1
1
1
1
1
1
1
1
1
1
1
1
1
1
1
1
1
1
1
1
1
1
1
1
1
1
1
1
1
1
1
1
1
1
1
1
1
1
1
1
1
1
1
1
1
1
1
1
1
1
1
1
1
1
1
1
1
1
1
1
1
1
1
1
1
1
1
1
1
1
1
1
1
1
1
1
1
1
1
1
1
1
1
1
1
1
1
1
1
1
1
1
1
1
1
1
1
1
1
1
1
1
1
1
1
1
1
1
1
1
1
1
1
1
1
1
1
1
1
1
1
1
1
1
1
1
1
1
1
1
1
1
1
1
1
1
1
1
1
1
1
1
1
1
1
1
1
1
1
0.992567
0.992204
0.991658
0.991148
0.733489
0.716092
0.649958
0.343733
0.369673
0.705416
0.656924
0.567929
0.459971
0.599833
0.747022
0.977483
0.991508
0.994138
0.994778
0.99401
1
1
1
0.999992
0.632422
0.813823
0.723871
0.823435
0.635579
0.786617
0.707224
0.494171
0.234715
0.499597
0.567083
0.989972
1
1
1
1
1
1
1
0.999998
0.973111
0.814823
0.668784
0.650893
0.671543
0.680246
0.655825
0.650939
0.535826
0.667058
0.761887
0.999241
1
1
1
1
1
1
1
1
0.990039
0.676647
0.665984
0.666659
0.662927
0.673443
0.628173
0.690004
0.675888
0.695359
0.814797
0.999717
1
1
1
1
1
1
1
1
0.989802
0.684233
0.67184
0.646303
0.645635
0.681499
0.630925
0.708223
0.682498
0.719048
0.888589
0.999878
1
1
1
1
1
1
1
1
0.989334
0.686313
0.657737
0.651865
0.647846
0.689974
0.718665
0.765274
0.787509
0.834836
0.944601
0.999951
1
1
1
1
1
1
1
1
0.994004
0.670967
0.677109
0.663483
0.7043
0.767517
0.839124
0.898003
0.909843
0.943317
0.979502
0.999979
1
1
1
1
1
1
1
1
0.998355
0.680101
0.767895
0.787455
0.861816
0.908178
0.960196
0.981781
0.976051
0.987145
0.995796
0.999984
1
1
1
1
1
1
1
1
0.999993
0.998294
0.999077
0.999282
0.999507
0.999468
0.999741
0.999919
0.999847
0.999893
0.999786
0.999975
1
1
1
1
1
1
1
1
1
1
1
1
1
1
1
1
1
1
1
1
1
1
1
1
1
1
1
1
1
1
1
1
1
1
1
1
1
1
1
1
1
1
1
1
1
1
1
1
1
1
1
1
1
1
1
1
1
1
1
1
1
1
1
1
1
1
1
1
1
1
1
1
1
1
1
1
1
1
1
1
1
1
1
1
1
1
1
1
1
1
1
1
1
1
1
1
1
1
1
1
1
1
1
1
1
1
1
1
1
1
1
1
1
1
1
1
1
1
1
1
1
1
1
1
1
1
1
1
1
1
1
1
1
1
1
1
1
1
1
1
1
1
1
1
1
1
1
1
1
1
1
1
1
1
1
1
1
1
1
1
1
1
1
1
1
1
1
1
1
1
1
1
1
1
1
1
1
1
1
1
1
1
1
1
1
1
1
1
1
1
1
1
1
1
1
1
1
1
1
1
1
1
1
1
1
1
1
1
1
1
1
1
1
1
1
1
1
1
1
1
1
1
1
1
0.992618
0.992286
0.99169
0.991113
0.729494
0.713192
0.644042
0.325697
0.241851
0.685934
0.651212
0.560397
0.449739
0.608153
0.744417
0.976187
0.991552
0.994142
0.994803
0.994042
1
1
1
0.999993
0.603416
0.813943
0.724508
0.824749
0.630474
0.789784
0.703665
0.442579
0.212797
0.494562
0.548115
0.985188
1
1
1
1
1
1
1
0.999998
0.970073
0.818561
0.668907
0.650396
0.671577
0.681947
0.660648
0.646332
0.513303
0.666224
0.753942
0.998997
1
1
1
1
1
1
1
1
0.990019
0.676549
0.666074
0.666851
0.664112
0.673645
0.628479
0.68865
0.675797
0.694606
0.805756
0.999638
1
1
1
1
1
1
1
1
0.989802
0.683915
0.672065
0.644582
0.645795
0.681497
0.628265
0.706075
0.679106
0.715202
0.880238
0.999845
1
1
1
1
1
1
1
1
0.989207
0.685953
0.657759
0.65212
0.647624
0.688438
0.712056
0.757376
0.779638
0.828248
0.938675
0.999937
1
1
1
1
1
1
1
1
0.993648
0.670899
0.676438
0.662799
0.701008
0.761053
0.830952
0.890586
0.90517
0.939768
0.976829
0.999976
1
1
1
1
1
1
1
1
0.998175
0.674183
0.761547
0.784097
0.857215
0.902837
0.957198
0.979933
0.974126
0.986195
0.995216
0.999986
1
1
1
1
1
1
1
1
0.999994
0.998287
0.999051
0.999282
0.999502
0.999472
0.999746
0.999919
0.999848
0.999894
0.999791
0.999976
1
1
1
1
1
1
1
1
1
1
1
1
1
1
1
1
1
1
1
1
1
1
1
1
1
1
1
1
1
1
1
1
1
1
1
1
1
1
1
1
1
1
1
1
1
1
1
1
1
1
1
1
1
1
1
1
1
1
1
1
1
1
1
1
1
1
1
1
1
1
1
1
1
1
1
1
1
1
1
1
1
1
1
1
1
1
1
1
1
1
1
1
1
1
1
1
1
1
1
1
1
1
1
1
1
1
1
1
1
1
1
1
1
1
1
1
1
1
1
1
1
1
1
1
1
1
1
1
1
1
1
1
1
1
1
1
1
1
1
1
1
1
1
1
1
1
1
1
1
1
1
1
1
1
1
1
1
1
1
1
1
1
1
1
1
1
1
1
1
1
1
1
1
1
1
1
1
1
1
1
1
1
1
1
1
1
1
1
1
1
1
1
1
1
1
1
1
1
1
1
1
1
1
1
1
1
1
1
1
1
1
1
1
1
1
1
1
1
1
1
1
1
1
1
0.992662
0.992359
0.991717
0.991069
0.725995
0.710166
0.637663
0.308751
0.220419
0.678334
0.645616
0.548478
0.448546
0.61442
0.743279
0.975192
0.991587
0.994145
0.994828
0.994068
1
1
1
0.999995
0.569574
0.814082
0.725025
0.82598
0.626352
0.792433
0.699726
0.404994
0.191931
0.482132
0.531105
0.979662
1
1
1
1
1
1
1
0.999997
0.966083
0.822211
0.669023
0.6499
0.671087
0.683744
0.665319
0.64161
0.490726
0.66628
0.74626
0.998693
1
1
1
1
1
1
1
1
0.990008
0.676484
0.666171
0.667072
0.665266
0.673823
0.62888
0.687417
0.676619
0.693969
0.797366
0.999547
1
1
1
1
1
1
1
1
0.989818
0.68354
0.672276
0.642882
0.645955
0.681609
0.62621
0.704431
0.676449
0.71196
0.872235
0.999809
1
1
1
1
1
1
1
1
0.989111
0.684724
0.657787
0.652333
0.647494
0.687266
0.706306
0.750507
0.772452
0.822156
0.93276
0.999921
1
1
1
1
1
1
1
1
0.993319
0.670861
0.675881
0.662222
0.698092
0.755261
0.823262
0.883456
0.90076
0.936263
0.974103
0.999972
1
1
1
1
1
1
1
1
0.997993
0.668875
0.755572
0.781081
0.85301
0.89788
0.954356
0.978113
0.972247
0.985255
0.994631
0.999986
1
1
1
1
1
1
1
1
0.999994
0.998281
0.999028
0.999286
0.9995
0.999477
0.99975
0.99992
0.999849
0.999895
0.999797
0.999977
1
1
1
1
1
1
1
1
1
1
1
1
1
1
1
1
1
1
1
1
1
1
1
1
1
1
1
1
1
1
1
1
1
1
1
1
1
1
1
1
1
1
1
1
1
1
1
1
1
1
1
1
1
1
1
1
1
1
1
1
1
1
1
1
1
1
1
1
1
1
1
1
1
1
1
1
1
1
1
1
1
1
1
1
1
1
1
1
1
1
1
1
1
1
1
1
1
1
1
1
1
1
1
1
1
1
1
1
1
1
1
1
1
1
1
1
1
1
1
1
1
1
1
1
1
1
1
1
1
1
1
1
1
1
1
1
1
1
1
1
1
1
1
1
1
1
1
1
1
1
1
1
1
1
1
1
1
1
1
1
1
1
1
1
1
1
1
1
1
1
1
1
1
1
1
1
1
1
1
1
1
1
1
1
1
1
1
1
1
1
1
1
1
1
1
1
1
1
1
1
1
1
1
1
1
1
1
1
1
1
1
1
1
1
1
1
1
1
1
1
1
1
1
1
0.9927
0.992425
0.991736
0.991026
0.723795
0.706885
0.630866
0.292039
0.198949
0.676554
0.640122
0.533333
0.454468
0.622734
0.744935
0.974312
0.991614
0.994147
0.99485
0.99409
1
1
1
0.999994
0.534042
0.814199
0.725393
0.827151
0.623063
0.794553
0.695358
0.365595
0.173509
0.460333
0.517992
0.973401
1
1
1
1
1
1
1
0.999996
0.960935
0.825794
0.669137
0.649396
0.670807
0.6856
0.669533
0.636388
0.476013
0.665179
0.738856
0.99833
1
1
1
1
1
1
1
1
0.990001
0.676427
0.666275
0.667286
0.666385
0.673975
0.62981
0.686289
0.677917
0.693505
0.789726
0.999441
1
1
1
1
1
1
1
1
0.989847
0.68323
0.672477
0.641182
0.646112
0.681717
0.624522
0.703181
0.674477
0.709241
0.864654
0.99977
1
1
1
1
1
1
1
1
0.98903
0.683127
0.65782
0.652529
0.647434
0.686388
0.701337
0.744586
0.765941
0.816568
0.92695
0.999903
1
1
1
1
1
1
1
1
0.993019
0.670953
0.675418
0.66173
0.695505
0.750086
0.816077
0.876668
0.896623
0.93281
0.971368
0.999965
1
1
1
1
1
1
1
1
0.997807
0.664097
0.749968
0.778394
0.849217
0.893352
0.951694
0.976333
0.970416
0.984322
0.994046
0.999987
1
1
1
1
1
1
1
1
0.999995
0.998277
0.999013
0.999299
0.999501
0.999484
0.999756
0.999921
0.99985
0.999897
0.999802
0.999979
1
1
1
1
1
1
1
1
1
1
1
1
1
1
1
1
1
1
1
1
1
1
1
1
1
1
1
1
1
1
1
1
1
1
1
1
1
1
1
1
1
1
1
1
1
1
1
1
1
1
1
1
1
1
1
1
1
1
1
1
1
1
1
1
1
1
1
1
1
1
1
1
1
1
1
1
1
1
1
1
1
1
1
1
1
1
1
1
1
1
1
1
1
1
1
1
1
1
1
1
1
1
1
1
1
1
1
1
1
1
1
1
1
1
1
1
1
1
1
1
1
1
1
1
1
1
1
1
1
1
1
1
1
1
1
1
1
1
1
1
1
1
1
1
1
1
1
1
1
1
1
1
1
1
1
1
1
1
1
1
1
1
1
1
1
1
1
1
1
1
1
1
1
1
1
1
1
1
1
1
1
1
1
1
1
1
1
1
1
1
1
1
1
1
1
1
1
1
1
1
1
1
1
1
1
1
1
1
1
1
1
1
1
1
1
1
1
1
1
1
1
1
1
1
0.992733
0.992484
0.991747
0.990995
0.72884
0.703183
0.623694
0.27626
0.175288
0.693606
0.634118
0.511271
0.473666
0.633398
0.749446
0.972494
0.991636
0.994147
0.994866
0.994107
1
1
1
0.999994
0.495752
0.814273
0.725608
0.828234
0.620498
0.796163
0.690075
0.329444
0.157735
0.436967
0.509978
0.966434
1
1
1
1
1
1
1
0.999996
0.954666
0.829328
0.669244
0.648895
0.670422
0.687468
0.67328
0.630928
0.4637
0.663862
0.732209
0.997909
1
1
1
1
1
1
1
1
0.989996
0.676333
0.666388
0.66752
0.667454
0.674111
0.630942
0.685279
0.679139
0.693156
0.782835
0.999318
1
1
1
1
1
1
1
1
0.989881
0.683051
0.672665
0.639475
0.646267
0.68187
0.623178
0.702241
0.67289
0.706984
0.857564
0.999724
1
1
1
1
1
1
1
1
0.988948
0.681386
0.657853
0.652719
0.647421
0.685749
0.697086
0.73954
0.760094
0.811499
0.921344
0.99988
1
1
1
1
1
1
1
1
0.992754
0.671368
0.675043
0.661322
0.693231
0.74548
0.809417
0.870271
0.892779
0.929435
0.968659
0.999954
1
1
1
1
1
1
1
1
0.997609
0.659589
0.744575
0.775885
0.845662
0.889088
0.949119
0.974551
0.968579
0.983372
0.993452
0.999987
1
1
1
1
1
1
1
1
0.999995
0.998273
0.999053
0.999397
0.999557
0.999501
0.999773
0.999928
0.999862
0.999904
0.999809
0.99998
1
1
1
1
1
1
1
1
0.999949
0.997452
0.996534
0.99352
0.99352
0.99352
0.99352
0.99352
0.99352
0.994681
0.994825
0.998893
1
1
1
1
1
1
1
1
1
1
1
0.999994
0.999875
0.99965
0.99973
0.999743
0.99992
0.999995
1
1
1
1
1
1
1
1
1
1
1
1
1
1
1
1
1
1
1
1
1
1
1
1
1
1
1
1
1
1
1
1
1
1
1
1
1
1
1
1
1
1
1
1
1
1
1
1
1
1
1
1
1
1
1
1
1
1
1
1
1
1
1
1
1
1
1
1
1
1
1
1
1
1
1
1
1
1
1
1
1
1
1
1
1
1
1
1
1
1
1
1
1
1
1
1
1
1
1
1
1
1
1
1
1
1
1
1
1
1
1
1
1
1
1
1
1
1
1
1
1
1
1
1
1
1
1
1
1
1
1
1
1
1
1
1
1
1
1
1
1
1
1
1
1
1
1
1
1
1
1
1
1
1
1
1
1
1
1
1
1
1
1
1
1
1
1
1
1
1
1
1
1
1
1
1
1
1
1
1
1
1
1
1
1
1
0.992758
0.992534
0.991746
0.990946
0.733343
0.699071
0.616347
0.261317
0.152967
0.753612
0.625375
0.50276
0.508301
0.645978
0.758444
0.97025
0.991646
0.994143
0.994874
0.994118
1
1
1
0.999993
0.445938
0.814009
0.725778
0.829246
0.618384
0.797407
0.68417
0.293768
0.143333
0.417867
0.504619
0.957801
1
1
1
1
1
1
1
0.999994
0.947258
0.832742
0.669345
0.648402
0.670081
0.689304
0.676532
0.62528
0.44981
0.662603
0.72641
0.997419
1
1
1
1
1
1
1
1
0.989965
0.6762
0.666509
0.66778
0.668455
0.674237
0.632298
0.684338
0.680445
0.692907
0.77665
0.999176
1
1
1
1
1
1
1
1
0.989911
0.682939
0.672841
0.63776
0.646421
0.682043
0.622125
0.701547
0.671672
0.705127
0.85103
0.999669
1
1
1
1
1
1
1
1
0.988856
0.679444
0.657884
0.652908
0.647487
0.685303
0.693486
0.735286
0.754885
0.806949
0.916034
0.999853
1
1
1
1
1
1
1
1
0.992524
0.671774
0.67474
0.660982
0.691245
0.741434
0.8033
0.864311
0.889263
0.926166
0.966016
0.999938
1
1
1
1
1
1
1
1
0.997386
0.653717
0.738487
0.772789
0.841587
0.884369
0.94634
0.972626
0.966596
0.982357
0.992811
0.999985
1
1
1
1
1
1
1
1
1
0.999293
0.999577
0.999753
0.999837
0.999745
0.999847
0.999956
0.999904
0.999922
0.999829
0.999999
1
1
1
1
1
1
1
1
1
1
1
1
1
0.999843
1
0.999918
0.999806
1
0.99987
1
1
1
1
1
1
1
1
1
1
1
0.999997
1
1
1
0.999831
1
1
0.999987
1
1
1
1
1
1
1
1
1
1
1
1
1
1
1
1
1
1
1
1
1
1
1
1
1
1
1
1
1
1
1
1
1
1
1
1
1
1
1
1
1
1
1
1
1
1
1
1
1
1
1
1
1
1
1
1
1
1
1
1
1
1
1
1
1
1
1
1
1
1
1
1
1
1
1
1
1
1
1
1
1
1
1
1
1
1
1
1
1
1
1
1
1
1
1
1
1
1
1
1
1
1
1
1
1
1
1
1
1
1
1
1
1
1
1
1
1
1
1
1
1
1
1
1
1
1
1
1
1
1
1
1
1
1
1
1
1
1
1
1
1
1
1
1
1
1
1
1
1
1
1
1
1
1
1
1
1
1
1
1
1
1
1
1
1
1
1
1
1
1
1
1
1
1
1
1
1
1
1
1
1
1
1
1
1
1
0.992775
0.992571
0.991737
0.990882
0.72467
0.694751
0.60884
0.249008
0.125453
0.781684
0.614169
0.537546
0.548576
0.661047
0.780444
0.967635
0.991642
0.994137
0.994872
0.994121
1
1
1
0.99999
0.40987
0.81389
0.726093
0.830165
0.616103
0.798397
0.677812
0.255888
0.129367
0.402736
0.500305
0.947243
0.999999
1
1
1
1
1
1
0.999991
0.938335
0.835993
0.669437
0.647927
0.669654
0.691064
0.67925
0.619817
0.433013
0.661449
0.721715
0.996858
1
1
1
1
1
1
1
1
0.989906
0.676068
0.66664
0.66805
0.669387
0.674359
0.633783
0.683459
0.681792
0.692745
0.771114
0.999014
1
1
1
1
1
1
1
1
0.989933
0.682835
0.673003
0.636042
0.646578
0.682235
0.621329
0.701055
0.670763
0.703619
0.845097
0.999601
1
1
1
1
1
1
1
1
0.98875
0.677382
0.657912
0.653098
0.647586
0.68501
0.690467
0.731739
0.750285
0.802914
0.911099
0.999813
1
1
1
1
1
1
1
1
0.992324
0.672295
0.674506
0.660715
0.689553
0.737948
0.797772
0.858855
0.886084
0.923011
0.963489
0.99992
1
1
1
1
1
1
1
1
0.99715
0.647662
0.732361
0.769713
0.837479
0.879609
0.943524
0.970629
0.964584
0.981329
0.992144
0.999983
1
1
1
1
1
1
1
1
1
0.999343
0.999601
0.999768
0.99984
0.999748
0.99985
0.999956
0.999905
0.999923
0.999832
0.999999
1
1
1
1
1
1
1
1
1
1
1
1
1
1
1
1
1
1
1
1
1
1
1
1
1
1
1
1
1
1
1
1
1
1
1
1
1
1
1
1
1
1
1
1
1
1
1
1
1
1
1
1
1
1
1
1
1
1
1
1
1
1
1
1
1
1
1
1
1
1
1
1
1
1
1
1
1
1
1
1
1
1
1
1
1
1
1
1
1
1
1
1
1
1
1
1
1
1
1
1
1
1
1
1
1
1
1
1
1
1
1
1
1
1
1
1
1
1
1
1
1
1
1
1
1
1
1
1
1
1
1
1
1
1
1
1
1
1
1
1
1
1
1
1
1
1
1
1
1
1
1
1
1
1
1
1
1
1
1
1
1
1
1
1
1
1
1
1
1
1
1
1
1
1
1
1
1
1
1
1
1
1
1
1
1
1
1
1
1
1
1
1
1
1
1
1
1
1
1
1
1
1
1
1
1
1
1
1
1
1
1
1
1
1
1
1
1
1
1
1
1
1
1
1
0.992783
0.992598
0.991719
0.990801
0.708039
0.690459
0.600932
0.239854
0.100557
0.431975
0.605583
0.561225
0.578484
0.67832
0.799339
0.964548
0.99163
0.994129
0.994863
0.99412
1
1
1
0.999985
0.373163
0.81375
0.726342
0.831004
0.613235
0.799358
0.671931
0.219829
0.115742
0.390264
0.468956
0.93427
0.999999
1
1
1
1
1
1
0.999986
0.928454
0.839062
0.669522
0.647484
0.66929
0.692724
0.681475
0.615029
0.412419
0.660422
0.718477
0.996219
1
1
1
1
1
1
1
1
0.989846
0.675951
0.666779
0.668325
0.670246
0.674483
0.635342
0.68263
0.683159
0.692656
0.766188
0.998833
1
1
1
1
1
1
1
1
0.989945
0.682741
0.673148
0.634324
0.64674
0.682441
0.620777
0.700735
0.670108
0.702413
0.839772
0.999516
1
1
1
1
1
1
1
1
0.988639
0.675302
0.657939
0.653292
0.647727
0.684839
0.687954
0.728811
0.74627
0.799379
0.906596
0.999748
1
1
1
1
1
1
1
1
0.992146
0.672814
0.67433
0.66051
0.688135
0.735008
0.792862
0.853947
0.883274
0.919999
0.961097
0.999903
1
1
1
1
1
1
1
1
0.996909
0.641842
0.72639
0.766791
0.833568
0.875053
0.940854
0.968662
0.962599
0.98031
0.991489
0.99998
1
1
1
1
1
1
1
1
1
0.999449
0.999657
0.999805
0.999858
0.999759
0.999854
0.999958
0.999907
0.999924
0.999836
0.999999
1
1
1
1
1
1
1
1
1
1
1
1
1
1
1
1
1
1
1
1
1
1
1
1
1
1
1
1
1
1
1
1
1
1
1
1
1
1
1
1
1
1
1
1
1
1
1
1
1
1
1
1
1
1
1
1
1
1
1
1
1
1
1
1
1
1
1
1
1
1
1
1
1
1
1
1
1
1
1
1
1
1
1
1
1
1
1
1
1
1
1
1
1
1
1
1
1
1
1
1
1
1
1
1
1
1
1
1
1
1
1
1
1
1
1
1
1
1
1
1
1
1
1
1
1
1
1
1
1
1
1
1
1
1
1
1
1
1
1
1
1
1
1
1
1
1
1
1
1
1
1
1
1
1
1
1
1
1
1
1
1
1
1
1
1
1
1
1
1
1
1
1
1
1
1
1
1
1
1
1
1
1
1
1
1
1
1
1
1
1
1
1
1
1
1
1
1
1
1
1
1
1
1
1
1
1
1
1
1
1
1
1
1
1
1
1
1
1
1
1
1
1
1
1
0.992781
0.992616
0.991693
0.990708
0.689415
0.686305
0.592757
0.234358
0.0856198
0.182087
0.598211
0.476097
0.593886
0.695042
0.807642
0.961119
0.991614
0.994122
0.994851
0.994115
1
1
1
0.999979
0.332948
0.813578
0.726618
0.831751
0.609703
0.800437
0.666535
0.188117
0.102477
0.377284
0.433706
0.919968
0.999999
1
1
1
1
1
1
0.999977
0.917678
0.841907
0.669596
0.647089
0.668962
0.694162
0.683539
0.611201
0.391312
0.659558
0.715607
0.995529
1
1
1
1
1
1
1
1
0.98978
0.67585
0.666926
0.668597
0.671054
0.674616
0.636918
0.681874
0.684517
0.692625
0.761817
0.998632
1
1
1
1
1
1
1
1
0.989949
0.682691
0.673274
0.632611
0.646909
0.682659
0.620454
0.700559
0.669672
0.70147
0.83502
0.999414
1
1
1
1
1
1
1
1
0.988531
0.673211
0.657964
0.653491
0.647901
0.684762
0.685894
0.726428
0.742821
0.796334
0.902588
0.999659
1
1
1
1
1
1
1
1
0.991987
0.673305
0.674204
0.660363
0.686965
0.73256
0.788562
0.849604
0.88084
0.917151
0.95888
0.999891
1
1
1
1
1
1
1
1
0.99667
0.636614
0.720827
0.764236
0.83008
0.870924
0.93841
0.966766
0.960689
0.979315
0.990854
0.999978
1
1
1
1
1
1
1
1
1
0.999521
0.999695
0.999827
0.999869
0.999766
0.999857
0.999958
0.999909
0.999926
0.99984
0.999999
1
1
1
1
1
1
1
1
1
1
1
1
1
1
1
1
1
1
1
1
1
1
1
1
1
1
1
1
1
1
1
1
1
1
1
1
1
1
1
1
1
1
1
1
1
1
1
1
1
1
1
1
1
1
1
1
1
1
1
1
1
1
1
1
1
1
1
1
1
1
1
1
1
1
1
1
1
1
1
1
1
1
1
1
1
1
1
1
1
1
1
1
1
1
1
1
1
1
1
1
1
1
1
1
1
1
1
1
1
1
1
1
1
1
1
1
1
1
1
1
1
1
1
1
1
1
1
1
1
1
1
1
1
1
1
1
1
1
1
1
1
1
1
1
1
1
1
1
1
1
1
1
1
1
1
1
1
1
1
1
1
1
1
1
1
1
1
1
1
1
1
1
1
1
1
1
1
1
1
1
1
1
1
1
1
1
1
1
1
1
1
1
1
1
1
1
1
1
1
1
1
1
1
1
1
1
1
1
1
1
1
1
1
1
1
1
1
1
1
1
1
1
1
1
0.992774
0.992628
0.99166
0.990605
0.674133
0.682351
0.584612
0.23231
0.0735091
0.15032
0.586976
0.366627
0.5817
0.707559
0.806561
0.95747
0.991591
0.994115
0.994837
0.994104
1
1
1
0.99997
0.289859
0.813454
0.726906
0.83241
0.606546
0.800777
0.66159
0.16136
0.0906916
0.359177
0.395833
0.904789
0.999999
1
1
1
1
1
1
0.999962
0.906362
0.844502
0.669658
0.646755
0.668721
0.695252
0.685343
0.608771
0.372741
0.658894
0.712971
0.994822
1
1
1
1
1
1
1
0.999999
0.989709
0.675766
0.667079
0.668862
0.671809
0.674761
0.638463
0.681214
0.685842
0.692651
0.757855
0.998412
1
1
1
1
1
1
1
1
0.989936
0.682691
0.67338
0.630909
0.647086
0.682885
0.620313
0.700496
0.669414
0.700754
0.830775
0.99929
1
1
1
1
1
1
1
1
0.988437
0.671092
0.657989
0.653696
0.648105
0.684747
0.684258
0.724526
0.739913
0.793759
0.899136
0.999581
1
1
1
1
1
1
1
1
0.991841
0.673736
0.674119
0.660265
0.686018
0.730545
0.784854
0.845833
0.878752
0.914459
0.956881
0.999884
1
1
1
1
1
1
1
1
0.996437
0.631762
0.715525
0.761934
0.826965
0.867252
0.936186
0.964975
0.958878
0.978355
0.990252
0.999975
1
1
1
1
1
1
1
1
1
0.999609
0.999742
0.999855
0.999883
0.999774
0.99986
0.999959
0.999911
0.999927
0.999843
0.999999
1
1
1
1
1
1
1
1
1
1
1
1
1
1
1
1
1
1
1
1
1
1
1
1
1
1
1
1
1
1
1
1
1
1
1
1
1
1
1
1
1