/*--------------------------------*- C++ -*----------------------------------*\
| =========                 |                                                 |
| \\      /  F ield         | OpenFOAM: The Open Source CFD Toolbox           |
|  \\    /   O peration     | Version:  2.3.0                                 |
|   \\  /    A nd           | Web:      www.OpenFOAM.org                      |
|    \\/     M anipulation  |                                                 |
\*---------------------------------------------------------------------------*/
FoamFile
{
    version     2.0;
    format      ascii;
    class       volScalarField;
    location    "3.69999";
    object      nut.water;
}
// * * * * * * * * * * * * * * * * * * * * * * * * * * * * * * * * * * * * * //

dimensions      [0 2 -1 0 0 0 0];

internalField   nonuniform List<scalar> 
10000
(
3.61978e-05
2.14678e-05
2.65273e-05
2.94919e-05
1.64312e-05
9.0394e-06
2.7563e-06
5.89987e-09
1.24601e-08
2.48675e-07
8.05095e-07
1.65515e-07
4.887e-08
3.8017e-06
9.46572e-06
1.99945e-05
1.84094e-05
1.34955e-05
1.23541e-05
2.10773e-05
1.15089e-05
1.58976e-05
9.52614e-06
8.67713e-06
2.30954e-06
2.29144e-07
6.49385e-07
4.9529e-07
1.56571e-08
2.83928e-06
2.07087e-06
5.9568e-07
2.78771e-08
1.89819e-07
1.43327e-06
6.72713e-06
4.51269e-06
5.35461e-06
1.67069e-05
7.15563e-06
2.25623e-05
1.66467e-05
1.99014e-05
5.20626e-06
3.31407e-06
6.79401e-06
1.39588e-06
2.73183e-06
1.07768e-06
1.41835e-05
7.20641e-06
3.89786e-06
2.09812e-06
1.93895e-06
2.30741e-06
6.98056e-06
2.93904e-06
1.70385e-05
4.19287e-05
1.73262e-05
2.26069e-05
1.65687e-05
1.89481e-05
6.42972e-06
4.4481e-06
6.456e-07
9.58459e-07
1.22302e-06
1.81821e-06
2.61174e-06
3.1572e-06
4.17729e-06
4.0291e-06
2.63966e-06
2.46197e-06
5.77786e-06
2.58757e-06
3.9942e-05
2.33559e-05
9.13963e-06
1.42773e-05
1.52058e-05
1.91427e-05
8.42707e-06
4.12808e-06
5.26742e-07
1.03771e-06
1.11261e-06
1.5006e-06
2.06297e-06
2.46285e-06
2.58564e-06
2.2026e-06
1.70556e-06
2.35095e-06
2.59513e-06
1.23005e-05
4.02438e-05
5.96865e-06
7.45917e-06
5.6955e-06
9.13583e-06
1.83062e-05
1.24545e-05
3.53186e-06
4.75167e-07
9.52071e-07
1.00173e-06
1.23848e-06
1.57178e-06
1.76967e-06
2.03416e-06
1.77493e-06
1.43074e-06
2.75279e-06
1.51355e-06
2.01241e-05
3.85418e-05
2.11011e-06
2.55824e-05
4.98102e-06
2.33434e-06
1.58903e-05
1.13637e-05
4.95325e-06
3.94027e-07
5.97408e-07
6.28426e-07
8.20748e-07
1.66546e-06
1.91091e-06
2.29824e-06
1.4371e-06
1.01412e-06
4.36819e-06
1.68069e-06
2.29102e-05
9.25331e-06
1.86983e-06
1.39728e-05
3.06357e-05
3.74729e-08
1.2721e-05
1.21299e-05
5.84143e-06
8.05726e-07
8.71006e-07
9.61736e-07
2.259e-06
4.7726e-06
5.4991e-06
6.22371e-06
3.84228e-06
2.38217e-06
8.05862e-06
1.89873e-06
2.46338e-05
4.3339e-06
3.53916e-06
1.01204e-05
5.04389e-05
2.84125e-07
1.23724e-05
1.6664e-05
5.47395e-06
2.99636e-06
4.53862e-06
4.60943e-06
8.14625e-06
1.11573e-05
1.19644e-05
1.23297e-05
1.02156e-05
7.84188e-06
1.23397e-05
1.55151e-06
2.17778e-05
3.47016e-06
2.08979e-05
7.83212e-06
4.65395e-05
6.6829e-07
1.32021e-05
1.95908e-05
2.26877e-06
1.17854e-05
2.13596e-05
2.22427e-05
1.99925e-05
1.68691e-05
1.07708e-05
1.57473e-05
1.82426e-05
1.88567e-05
1.05102e-05
3.66179e-06
3.45231e-05
2.58929e-06
6.37968e-05
6.81358e-06
2.59596e-05
6.9939e-06
1.42624e-05
2.37971e-05
6.87851e-06
1.77663e-05
3.62418e-05
4.17481e-05
3.05601e-05
2.73757e-05
2.04258e-05
2.54934e-05
2.7599e-05
2.71457e-05
2.15374e-05
8.74157e-06
2.95562e-05
2.53031e-06
7.39605e-05
1.77667e-05
2.2898e-05
1.7128e-05
1.28206e-05
2.29748e-05
7.90458e-06
1.05385e-05
2.84047e-05
3.59105e-05
5.78653e-05
5.19311e-05
2.82494e-05
4.29956e-05
4.72215e-05
4.24546e-05
3.41144e-05
2.16511e-05
3.62029e-05
5.61971e-06
1.50551e-06
1.02183e-05
2.68834e-05
1.37758e-05
1.27081e-05
2.11003e-05
1.11784e-05
1.27573e-05
1.90454e-05
4.42985e-05
6.13484e-05
4.53249e-05
3.45723e-05
3.40035e-05
3.72242e-05
2.47242e-05
2.8629e-05
2.26446e-05
2.8008e-05
3.9105e-06
1.30599e-06
1.91465e-05
1.78393e-05
1.63129e-05
1.43152e-05
2.02748e-05
1.48817e-05
1.62293e-05
2.05741e-05
4.1009e-05
5.77749e-05
5.42324e-05
2.52868e-05
2.65353e-05
2.87305e-05
2.69597e-05
2.30588e-05
2.42255e-05
6.53745e-05
1.2058e-06
8.85647e-06
1.69792e-05
1.93142e-05
1.2862e-05
1.65272e-05
2.19739e-05
1.78618e-05
2.00501e-05
2.39643e-05
3.41006e-05
4.85011e-05
4.84844e-05
2.40489e-05
2.55304e-05
2.92896e-05
2.80828e-05
2.33009e-05
1.83852e-05
5.62386e-05
4.77871e-07
2.92062e-05
9.67309e-06
3.55718e-05
2.77173e-05
9.9988e-06
2.33505e-05
1.94544e-05
2.35958e-05
2.80582e-05
2.3327e-05
3.7585e-05
3.95915e-05
2.43872e-05
2.73863e-05
2.55853e-05
2.71402e-05
2.65942e-05
1.68489e-05
9.72567e-05
1.17255e-06
1.03083e-05
1.3675e-05
3.10397e-05
2.42294e-05
8.33779e-06
2.11491e-05
2.02357e-05
2.67331e-05
3.10509e-05
2.46689e-05
2.83549e-05
3.02958e-05
2.36683e-05
2.69894e-05
2.65753e-05
2.65991e-05
2.66209e-05
3.16845e-05
2.73978e-05
2.87458e-06
3.95387e-07
3.73863e-06
2.84075e-05
1.70219e-05
1.81374e-05
1.11455e-05
2.20806e-05
3.00059e-05
3.17471e-05
2.65488e-05
2.23798e-05
2.19614e-05
2.32463e-05
2.61706e-05
2.69555e-05
2.58011e-05
2.27176e-05
2.3354e-05
2.85004e-05
2.9914e-06
5.17016e-07
6.93215e-06
1.97338e-05
1.33855e-05
1.60046e-05
1.97543e-06
2.28029e-05
2.46764e-05
2.89631e-05
3.82647e-05
2.24157e-05
2.19533e-05
2.40336e-05
2.35268e-05
2.34968e-05
2.29792e-05
1.75569e-05
1.93109e-05
1.32384e-06
3.81388e-06
7.67368e-07
3.89324e-06
3.53049e-06
5.1736e-06
7.0865e-06
1.24421e-07
2.28907e-05
2.44718e-05
3.10733e-05
3.28462e-05
3.24522e-05
2.27575e-05
2.37008e-05
2.54953e-05
2.6346e-05
3.24598e-05
1.2912e-05
2.26117e-05
4.27616e-07
3.19438e-06
3.97294e-07
3.39574e-06
3.79555e-05
2.61722e-05
2.79697e-05
3.02011e-05
1.67832e-05
9.0212e-06
2.63626e-06
2.39891e-09
9.36977e-09
1.64345e-07
6.50788e-07
1.08046e-07
5.23823e-08
4.01613e-06
9.58605e-06
2.02761e-05
1.88931e-05
1.48364e-05
1.51558e-05
2.29545e-05
1.31868e-05
1.47166e-05
1.02144e-05
9.88284e-06
2.25427e-06
2.15931e-07
6.65211e-07
4.84026e-07
9.97407e-09
2.27266e-06
1.71038e-06
3.17522e-07
2.55289e-08
1.55502e-07
1.20754e-06
6.96599e-06
5.07476e-06
5.70051e-06
1.68388e-05
7.99584e-06
2.06431e-05
1.60651e-05
1.80855e-05
6.54439e-06
3.32611e-06
6.61113e-06
1.38796e-06
2.59076e-06
9.26894e-07
1.36041e-05
7.23166e-06
3.69125e-06
1.69743e-06
1.72709e-06
2.30702e-06
7.09978e-06
3.93582e-06
1.72986e-05
3.59177e-05
1.49087e-05
2.08347e-05
1.61019e-05
1.75157e-05
7.46498e-06
4.57752e-06
6.61222e-07
9.50223e-07
1.19861e-06
1.76346e-06
2.64229e-06
3.2078e-06
4.24384e-06
3.93099e-06
2.60579e-06
2.45987e-06
6.45878e-06
2.79263e-06
3.37748e-05
2.36172e-05
9.87008e-06
1.54566e-05
1.50248e-05
1.75801e-05
9.05361e-06
4.64096e-06
5.71596e-07
1.03126e-06
1.10365e-06
1.47621e-06
2.0824e-06
2.61232e-06
2.67137e-06
2.29217e-06
1.74562e-06
2.36362e-06
4.204e-06
8.47934e-06
3.44903e-05
6.38946e-06
7.08166e-06
7.13549e-06
1.11327e-05
1.69975e-05
1.19984e-05
4.32569e-06
5.14592e-07
9.63111e-07
1.00411e-06
1.26928e-06
1.59308e-06
1.73057e-06
1.98495e-06
1.76538e-06
1.46529e-06
2.51191e-06
2.65445e-06
1.64899e-05
3.17513e-05
2.34264e-06
1.91281e-05
5.37089e-06
6.42135e-06
1.54098e-05
1.18982e-05
5.29137e-06
3.94326e-07
6.32801e-07
6.58609e-07
7.84536e-07
1.39591e-06
1.57406e-06
1.89172e-06
1.27622e-06
9.66864e-07
3.90832e-06
2.7807e-06
1.93301e-05
9.0314e-06
1.90967e-06
1.41012e-05
2.26453e-05
2.14062e-07
1.32843e-05
1.25802e-05
6.08365e-06
7.22028e-07
7.92456e-07
8.7698e-07
1.98126e-06
4.32932e-06
4.98785e-06
5.76206e-06
3.45588e-06
2.07232e-06
7.75154e-06
3.06277e-06
2.13842e-05
5.16321e-06
3.08615e-06
1.2593e-05
4.19957e-05
3.9865e-07
1.3073e-05
1.64105e-05
6.30319e-06
2.78332e-06
4.21885e-06
4.33974e-06
7.99182e-06
1.11469e-05
1.17573e-05
1.23132e-05
1.01572e-05
7.65991e-06
1.22842e-05
3.26233e-06
1.99987e-05
4.66874e-06
1.69261e-05
1.17089e-05
3.85443e-05
1.0107e-06
1.36309e-05
1.98062e-05
4.07545e-06
1.31087e-05
2.2818e-05
2.37813e-05
2.15278e-05
1.844e-05
1.24526e-05
1.73458e-05
1.97976e-05
2.03901e-05
1.22094e-05
5.48689e-06
3.15432e-05
3.26327e-06
5.44698e-05
7.46114e-06
1.7832e-05
1.19797e-05
1.43922e-05
2.22149e-05
8.13066e-06
1.79957e-05
3.62936e-05
4.18119e-05
3.17218e-05
2.85351e-05
2.1575e-05
2.6626e-05
2.87325e-05
2.82443e-05
2.26544e-05
1.07331e-05
2.64052e-05
4.04145e-06
4.10929e-05
1.40039e-05
2.50818e-05
1.77833e-05
1.37054e-05
2.27625e-05
9.28762e-06
1.16903e-05
2.86824e-05
3.70334e-05
5.79311e-05
5.20452e-05
2.93539e-05
4.30814e-05
4.72978e-05
4.25752e-05
3.43163e-05
2.25826e-05
3.73794e-05
6.31356e-06
1.21961e-06
1.22943e-05
2.74356e-05
1.47198e-05
1.35277e-05
2.19892e-05
1.2515e-05
1.3875e-05
2.0144e-05
4.43772e-05
6.14088e-05
4.64274e-05
3.46461e-05
3.4142e-05
3.73746e-05
2.49768e-05
2.88681e-05
2.3941e-05
3.04932e-05
4.6547e-06
6.59807e-07
1.79428e-05
1.92722e-05
1.86385e-05
1.477e-05
2.1603e-05
1.61588e-05
1.7377e-05
2.16878e-05
4.10823e-05
5.78217e-05
5.43063e-05
2.57964e-05
2.76426e-05
2.98336e-05
2.81214e-05
2.41553e-05
2.67327e-05
5.46607e-05
1.76963e-06
5.30777e-06
1.79672e-05
1.98199e-05
1.64696e-05
1.72685e-05
2.28992e-05
1.91784e-05
2.11951e-05
2.50927e-05
3.42201e-05
4.85588e-05
4.85547e-05
2.51561e-05
2.71713e-05
2.97732e-05
2.91854e-05
2.43742e-05
2.04299e-05
4.40507e-05
9.7896e-07
1.64372e-05
1.31364e-05
3.22564e-05
2.11232e-05
1.18642e-05
2.34612e-05
2.08989e-05
2.47526e-05
2.91946e-05
2.44449e-05
3.76646e-05
3.96715e-05
2.55092e-05
2.84884e-05
2.74499e-05
2.82658e-05
2.75572e-05
1.84862e-05
7.26421e-05
1.69698e-06
2.30134e-06
1.31866e-05
2.9654e-05
2.42816e-05
9.01297e-06
2.15357e-05
2.17367e-05
2.7181e-05
3.21901e-05
2.58011e-05
2.85101e-05
3.04562e-05
2.47831e-05
2.80777e-05
2.8008e-05
2.77202e-05
2.76604e-05
3.27571e-05
3.38054e-05
2.94432e-06
4.98552e-07
4.12338e-06
2.60329e-05
1.88459e-05
1.50288e-05
1.34348e-05
2.32591e-05
3.02056e-05
3.29299e-05
2.768e-05
2.35828e-05
2.31554e-05
2.43709e-05
2.73276e-05
2.81166e-05
2.69642e-05
2.38546e-05
2.45627e-05
2.92149e-05
2.95813e-06
1.54845e-06
2.17495e-06
1.65326e-05
1.37232e-05
1.41777e-05
3.07202e-06
2.39469e-05
2.60707e-05
3.01127e-05
3.83019e-05
2.35728e-05
2.31239e-05
2.51415e-05
2.46357e-05
2.4607e-05
2.41268e-05
1.87076e-05
2.04717e-05
2.00375e-06
3.97592e-06
3.03166e-06
9.3343e-07
1.9133e-06
3.92786e-06
5.26553e-06
1.63984e-07
2.31517e-05
2.56251e-05
3.11511e-05
3.29224e-05
3.25107e-05
2.38771e-05
2.48141e-05
2.55811e-05
2.6418e-05
3.25387e-05
1.40364e-05
2.26755e-05
4.28402e-07
3.76643e-06
2.61854e-06
5.43628e-07
3.99432e-05
3.0163e-05
2.94559e-05
3.08511e-05
1.70667e-05
9.0036e-06
2.56567e-06
1.76673e-09
6.80015e-09
1.35015e-07
6.06761e-07
9.12872e-08
5.48803e-08
4.12437e-06
9.65176e-06
2.06049e-05
1.96397e-05
1.53402e-05
1.6323e-05
2.46149e-05
1.57139e-05
1.42166e-05
1.1068e-05
1.15428e-05
2.17894e-06
2.11228e-07
6.72052e-07
4.79863e-07
8.01475e-09
2.05271e-06
1.47713e-06
2.3106e-07
2.2086e-08
1.35182e-07
1.05438e-06
7.10965e-06
6.16075e-06
6.0487e-06
1.63838e-05
9.37113e-06
2.03383e-05
1.62383e-05
1.69336e-05
8.48992e-06
3.29681e-06
6.38905e-06
1.37212e-06
2.50418e-06
8.73326e-07
1.30765e-05
7.10919e-06
3.37599e-06
1.34565e-06
1.51095e-06
2.16146e-06
7.1373e-06
5.28356e-06
1.69062e-05
3.1128e-05
1.42231e-05
2.0882e-05
1.62883e-05
1.67014e-05
9.1184e-06
4.58431e-06
6.68005e-07
9.43097e-07
1.18072e-06
1.69582e-06
2.48573e-06
3.09856e-06
4.14503e-06
3.57946e-06
2.44928e-06
2.43393e-06
6.89885e-06
3.38545e-06
2.87165e-05
2.33799e-05
1.09679e-05
1.74037e-05
1.54428e-05
1.67216e-05
9.97318e-06
4.79801e-06
5.86747e-07
1.02102e-06
1.08604e-06
1.43129e-06
2.06688e-06
2.54096e-06
2.65936e-06
2.27735e-06
1.69736e-06
2.30609e-06
5.56526e-06
6.78438e-06
2.96598e-05
6.59803e-06
7.18878e-06
8.39538e-06
1.31714e-05
1.63635e-05
1.19741e-05
4.67377e-06
5.31307e-07
9.55407e-07
9.99632e-07
1.26364e-06
1.59368e-06
1.70771e-06
1.90252e-06
1.68137e-06
1.42995e-06
2.23345e-06
3.91432e-06
1.38905e-05
2.67731e-05
2.58739e-06
1.42121e-05
5.49468e-06
9.7225e-06
1.53765e-05
1.29161e-05
5.32703e-06
3.95797e-07
6.48329e-07
6.72338e-07
7.7362e-07
1.27461e-06
1.41489e-06
1.68549e-06
1.20736e-06
9.52806e-07
3.25399e-06
4.04935e-06
1.69356e-05
8.43541e-06
2.18584e-06
1.40664e-05
1.8912e-05
1.565e-06
1.4154e-05
1.36824e-05
6.01712e-06
6.87631e-07
7.61098e-07
8.42808e-07
1.84419e-06
3.81311e-06
4.35122e-06
5.11352e-06
3.0562e-06
1.91438e-06
7.17198e-06
4.47048e-06
1.97426e-05
6.21135e-06
2.6972e-06
1.57498e-05
3.44746e-05
4.59447e-07
1.4196e-05
1.68638e-05
7.06612e-06
2.52301e-06
3.8254e-06
4.09386e-06
7.6107e-06
1.09592e-05
1.13251e-05
1.21367e-05
9.88159e-06
7.23021e-06
1.20855e-05
4.74481e-06
2.10113e-05
6.06086e-06
1.09019e-05
1.55258e-05
3.10095e-05
1.5159e-06
1.46459e-05
2.02949e-05
5.72007e-06
1.41338e-05
2.39686e-05
2.48783e-05
2.27724e-05
1.97654e-05
1.38405e-05
1.87376e-05
2.10971e-05
2.16597e-05
1.37679e-05
7.47169e-06
2.95103e-05
4.80448e-06
3.68118e-05
9.89072e-06
1.39301e-05
1.57501e-05
1.52517e-05
2.24668e-05
9.3795e-06
1.82977e-05
3.63819e-05
4.19103e-05
3.26304e-05
2.94443e-05
2.2528e-05
2.75381e-05
2.96293e-05
2.91264e-05
2.35741e-05
1.27819e-05
2.51774e-05
5.3581e-06
1.2822e-05
1.29818e-05
2.73525e-05
1.87091e-05
1.51401e-05
2.31358e-05
1.06165e-05
1.27725e-05
2.91055e-05
3.79013e-05
5.80444e-05
5.22288e-05
3.02263e-05
4.32309e-05
4.74349e-05
4.27889e-05
3.46235e-05
2.34893e-05
3.87297e-05
7.03826e-06
1.19972e-06
1.45537e-05
2.84459e-05
1.62083e-05
1.49713e-05
2.33375e-05
1.37017e-05
1.48565e-05
2.12298e-05
4.4489e-05
6.15162e-05
4.73614e-05
3.47675e-05
3.43577e-05
3.76157e-05
2.53717e-05
2.92402e-05
2.51036e-05
3.3872e-05
5.63129e-06
3.12239e-07
1.85282e-05
2.15914e-05
2.15278e-05
1.56764e-05
2.34027e-05
1.72327e-05
1.83186e-05
2.27725e-05
4.11923e-05
5.79104e-05
5.44374e-05
2.64777e-05
2.8677e-05
3.08526e-05
2.91919e-05
2.51998e-05
2.91372e-05
4.38981e-05
3.20222e-06
1.25389e-06
1.89457e-05
2.02149e-05
2.10977e-05
1.82988e-05
2.44408e-05
2.02913e-05
2.20919e-05
2.61335e-05
3.43959e-05
4.86669e-05
4.86784e-05
2.60741e-05
2.87904e-05
3.052e-05
3.0215e-05
2.5393e-05
2.2199e-05
3.17261e-05
3.9246e-06
4.89854e-06
1.49282e-05
2.92472e-05
1.97481e-05
1.42298e-05
2.44407e-05
2.21595e-05
2.5653e-05
3.02065e-05
2.53545e-05
3.78067e-05
3.98149e-05
2.64301e-05
2.95223e-05
2.93801e-05
2.93365e-05
2.84638e-05
1.98026e-05
4.73362e-05
3.91551e-06
8.09282e-07
1.22751e-05
2.90751e-05
2.39815e-05
1.02265e-05
2.24297e-05
2.30955e-05
2.77794e-05
3.31886e-05
2.67095e-05
2.87536e-05
3.07069e-05
2.56973e-05
2.90955e-05
2.95085e-05
2.8779e-05
2.87181e-05
3.38245e-05
4.05614e-05
2.96514e-06
3.8936e-07
3.94482e-06
2.4331e-05
2.07965e-05
1.27031e-05
1.67934e-05
2.41732e-05
3.05064e-05
3.39559e-05
2.85705e-05
2.47084e-05
2.42785e-05
2.52946e-05
2.84066e-05
2.91946e-05
2.80472e-05
2.49474e-05
2.58206e-05
3.09757e-05
2.92695e-06
2.99061e-06
1.58731e-06
1.34468e-05
1.38526e-05
1.25003e-05
5.222e-06
2.48462e-05
2.7331e-05
3.10061e-05
3.83554e-05
2.45166e-05
2.4095e-05
2.60523e-05
2.55546e-05
2.5526e-05
2.50634e-05
1.97166e-05
2.14658e-05
3.542e-06
4.1506e-06
6.62485e-06
5.31506e-07
8.65171e-07
2.53115e-06
3.55169e-06
2.44952e-07
2.35688e-05
2.65573e-05
3.12871e-05
3.30585e-05
3.26186e-05
2.4852e-05
2.57754e-05
2.57419e-05
2.65598e-05
3.267e-05
1.51414e-05
2.28237e-05
4.51137e-07
4.70872e-06
5.70609e-06
1.16794e-07
4.18545e-05
3.27844e-05
3.07888e-05
3.1466e-05
1.73249e-05
8.96832e-06
2.43998e-06
2.58014e-09
3.51045e-09
8.83612e-08
5.85533e-07
6.57738e-08
5.97076e-08
4.31143e-06
9.74068e-06
2.08273e-05
2.01793e-05
1.58171e-05
1.78661e-05
2.60021e-05
1.87914e-05
1.45472e-05
1.21173e-05
1.33176e-05
2.09089e-06
2.0269e-07
6.87286e-07
4.72702e-07
6.20797e-09
1.65764e-06
1.27198e-06
1.27444e-07
2.13114e-08
1.24468e-07
8.88539e-07
7.15776e-06
7.60858e-06
6.45763e-06
1.56481e-05
1.1333e-05
2.15288e-05
1.69089e-05
1.63367e-05
1.07335e-05
3.23068e-06
6.17079e-06
1.3714e-06
2.40699e-06
8.02008e-07
1.23741e-05
6.77613e-06
2.98089e-06
1.08215e-06
1.39749e-06
2.04262e-06
7.0681e-06
6.90534e-06
1.60765e-05
2.75599e-05
1.49802e-05
2.22109e-05
1.69531e-05
1.63977e-05
1.11979e-05
4.51261e-06
6.86308e-07
9.38804e-07
1.16591e-06
1.66202e-06
2.4071e-06
3.00861e-06
3.95044e-06
3.20371e-06
2.37173e-06
2.42801e-06
7.06717e-06
4.57449e-06
2.45533e-05
2.20328e-05
1.25636e-05
2.00951e-05
1.63538e-05
1.64432e-05
1.13207e-05
4.76101e-06
6.28134e-07
1.01654e-06
1.08193e-06
1.41738e-06
2.07694e-06
2.53902e-06
2.69782e-06
2.31533e-06
1.70078e-06
2.30011e-06
6.47223e-06
6.58992e-06
2.55668e-05
6.75653e-06
8.62894e-06
9.49543e-06
1.50877e-05
1.63097e-05
1.26602e-05
4.74843e-06
5.61839e-07
9.6439e-07
1.00007e-06
1.27987e-06
1.6058e-06
1.70213e-06
1.89861e-06
1.68306e-06
1.44744e-06
2.07511e-06
5.06125e-06
1.24342e-05
2.27819e-05
3.29958e-06
1.2107e-05
5.29095e-06
1.2549e-05
1.57711e-05
1.42651e-05
5.20301e-06
4.00843e-07
6.7966e-07
7.01243e-07
7.68487e-07
1.15525e-06
1.26413e-06
1.49998e-06
1.14569e-06
9.51291e-07
2.63786e-06
5.27182e-06
1.58945e-05
7.66401e-06
3.11855e-06
1.37122e-05
1.60778e-05
5.10072e-06
1.52276e-05
1.51595e-05
5.81817e-06
6.37542e-07
7.16748e-07
7.91367e-07
1.66576e-06
3.37091e-06
3.77468e-06
4.46403e-06
2.74133e-06
1.72205e-06
6.40972e-06
5.91579e-06
1.95709e-05
7.29619e-06
2.8702e-06
1.90881e-05
2.75926e-05
6.91295e-07
1.55433e-05
1.78359e-05
7.44767e-06
2.27291e-06
3.46031e-06
3.8304e-06
7.11733e-06
1.05751e-05
1.07232e-05
1.18066e-05
9.42138e-06
6.69921e-06
1.17012e-05
6.28449e-06
2.24636e-05
7.26853e-06
6.44834e-06
1.83029e-05
2.43288e-05
2.72633e-06
1.60171e-05
2.11968e-05
6.98653e-06
1.48125e-05
2.47973e-05
2.55885e-05
2.36794e-05
2.07424e-05
1.48179e-05
1.97749e-05
2.20625e-05
2.26062e-05
1.5009e-05
9.3558e-06
2.8399e-05
6.39602e-06
1.69359e-05
1.32549e-05
1.44693e-05
1.85407e-05
1.66376e-05
2.35074e-05
1.03491e-05
1.85885e-05
3.64818e-05
4.20122e-05
3.32405e-05
3.00549e-05
2.31886e-05
2.81592e-05
3.02339e-05
2.9731e-05
2.4214e-05
1.43882e-05
2.57133e-05
6.3203e-06
4.65808e-06
1.48164e-05
2.9432e-05
1.96978e-05
1.68855e-05
2.4128e-05
1.16414e-05
1.35694e-05
2.95651e-05
3.84901e-05
5.81902e-05
5.24465e-05
3.08224e-05
4.34194e-05
4.76125e-05
4.30603e-05
3.49799e-05
2.4203e-05
3.98976e-05
7.83371e-06
1.28587e-06
1.65414e-05
2.98e-05
1.79876e-05
1.66959e-05
2.50228e-05
1.45855e-05
1.55549e-05
2.21378e-05
4.45972e-05
6.16568e-05
4.80843e-05
3.48981e-05
3.45964e-05
3.78919e-05
2.57879e-05
2.96625e-05
2.60081e-05
3.73726e-05
6.47796e-06
5.28954e-07
1.99516e-05
2.44903e-05
2.46673e-05
1.6981e-05
2.55262e-05
1.80117e-05
1.89706e-05
2.36756e-05
4.13043e-05
5.80302e-05
5.46046e-05
2.70475e-05
2.95269e-05
3.16911e-05
3.00704e-05
2.60735e-05
3.08274e-05
3.56136e-05
5.81849e-06
2.30317e-07
1.96724e-05
2.10385e-05
2.49124e-05
1.94231e-05
2.64715e-05
2.11012e-05
2.27018e-05
2.69797e-05
3.45705e-05
4.88095e-05
4.88363e-05
2.67223e-05
3.00209e-05
3.12818e-05
3.10698e-05
2.62252e-05
2.33736e-05
2.40923e-05
8.21206e-06
3.09852e-07
1.4937e-05
2.70091e-05
2.08812e-05
1.65291e-05
2.62096e-05
2.30882e-05
2.62674e-05
3.10175e-05
2.59955e-05
3.79868e-05
3.99978e-05
2.70816e-05
3.03617e-05
3.09371e-05
3.02221e-05
2.9185e-05
2.06174e-05
3.12271e-05
6.81472e-06
3.30125e-07
1.10229e-05
2.86169e-05
2.35821e-05
1.20275e-05
2.41085e-05
2.41149e-05
2.82798e-05
3.39886e-05
2.73408e-05
2.90223e-05
3.09869e-05
2.63429e-05
2.99268e-05
3.07946e-05
2.96525e-05
2.96178e-05
3.47519e-05
4.58623e-05
3.00969e-06
1.6574e-06
3.75284e-06
2.28618e-05
2.23144e-05
1.15733e-05
2.07589e-05
2.48011e-05
3.07912e-05
3.47714e-05
2.91813e-05
2.56304e-05
2.52e-05
2.59469e-05
2.92987e-05
3.00839e-05
2.89417e-05
2.58694e-05
2.69217e-05
3.36807e-05
2.86138e-06
9.42991e-06
1.81079e-06
1.03359e-05
1.33645e-05
1.07158e-05
8.6009e-06
2.54657e-05
2.82855e-05
3.1618e-05
3.84107e-05
2.5171e-05
2.47778e-05
2.66942e-05
2.62043e-05
2.61752e-05
2.57159e-05
2.04505e-05
2.21775e-05
6.04914e-06
4.15951e-06
1.14683e-05
1.33007e-06
3.17105e-07
1.50835e-06
1.86424e-06
5.17345e-07
2.3988e-05
2.72249e-05
3.14438e-05
3.32181e-05
3.27498e-05
2.55746e-05
2.64858e-05
2.59377e-05
2.67385e-05
3.28193e-05
1.59972e-05
2.30292e-05
6.38774e-07
5.60163e-06
8.23025e-06
1.12924e-06
4.36785e-05
3.44146e-05
3.20459e-05
3.20435e-05
1.75517e-05
8.93349e-06
2.3349e-06
2.58181e-09
1.42762e-09
6.266e-08
5.66823e-07
5.35167e-08
6.34449e-08
4.50493e-06
9.78674e-06
2.10058e-05
2.0577e-05
1.63823e-05
1.88703e-05
2.73173e-05
2.19589e-05
1.57776e-05
1.33416e-05
1.50367e-05
1.97751e-06
1.99733e-07
6.92671e-07
4.70129e-07
4.80842e-09
1.39279e-06
1.1355e-06
8.04303e-08
1.94682e-08
1.09066e-07
6.97483e-07
7.06939e-06
9.16689e-06
6.88844e-06
1.49261e-05
1.35405e-05
2.3786e-05
1.78989e-05
1.62413e-05
1.30449e-05
3.14183e-06
5.97868e-06
1.35691e-06
2.32284e-06
7.58877e-07
1.14735e-05
6.36452e-06
2.59631e-06
8.92238e-07
1.22224e-06
1.91532e-06
6.90686e-06
8.67852e-06
1.50992e-05
2.4813e-05
1.66339e-05
2.45642e-05
1.79621e-05
1.65355e-05
1.34649e-05
4.37425e-06
6.95617e-07
9.31544e-07
1.14751e-06
1.59175e-06
2.30355e-06
2.91271e-06
3.79528e-06
2.83172e-06
2.26117e-06
2.42447e-06
7.02862e-06
6.31696e-06
2.11637e-05
2.05136e-05
1.48167e-05
2.30554e-05
1.76432e-05
1.66621e-05
1.30883e-05
4.6146e-06
6.44705e-07
1.00662e-06
1.06468e-06
1.37867e-06
2.0373e-06
2.50507e-06
2.678e-06
2.3543e-06
1.66822e-06
2.28499e-06
6.91883e-06
7.46643e-06
2.20804e-05
7.1119e-06
1.14003e-05
1.03256e-05
1.69389e-05
1.6764e-05
1.41549e-05
4.62809e-06
5.7495e-07
9.54226e-07
9.9117e-07
1.2555e-06
1.58008e-06
1.66571e-06
1.82618e-06
1.60622e-06
1.40297e-06
1.98532e-06
5.89986e-06
1.20706e-05
1.92562e-05
4.96481e-06
1.30769e-05
4.99729e-06
1.48146e-05
1.65845e-05
1.59323e-05
4.98035e-06
4.05695e-07
6.95133e-07
7.1565e-07
7.66646e-07
1.07447e-06
1.164e-06
1.34761e-06
1.09727e-06
9.4242e-07
2.15599e-06
6.22068e-06
1.59541e-05
7.07748e-06
5.21124e-06
1.54994e-05
1.28277e-05
8.7524e-06
1.64957e-05
1.69262e-05
5.53453e-06
6.12427e-07
6.94577e-07
7.64466e-07
1.53617e-06
2.97502e-06
3.28794e-06
3.88246e-06
2.44141e-06
1.57625e-06
5.56732e-06
7.16841e-06
2.05374e-05
8.37323e-06
3.59648e-06
2.24353e-05
2.12702e-05
1.61573e-06
1.70548e-05
1.91933e-05
7.56292e-06
2.02111e-06
3.07355e-06
3.56839e-06
6.57871e-06
1.00282e-05
1.00939e-05
1.13338e-05
8.85605e-06
6.17333e-06
1.1137e-05
7.80289e-06
2.41736e-05
8.29524e-06
4.396e-06
2.04835e-05
1.89348e-05
5.49088e-06
1.76388e-05
2.2581e-05
7.69469e-06
1.51519e-05
2.53252e-05
2.59422e-05
2.42544e-05
2.13569e-05
1.53218e-05
2.04287e-05
2.268e-05
2.32228e-05
1.58678e-05
1.08303e-05
2.81836e-05
7.54586e-06
6.80308e-06
1.57035e-05
1.70562e-05
2.05677e-05
1.83931e-05
2.49973e-05
1.08851e-05
1.87884e-05
3.65561e-05
4.20826e-05
3.35427e-05
3.03576e-05
2.3523e-05
2.84687e-05
3.05327e-05
3.00359e-05
2.45392e-05
1.52714e-05
2.75694e-05
7.23539e-06
4.47864e-06
1.6729e-05
3.14311e-05
2.07087e-05
1.88252e-05
2.57103e-05
1.2206e-05
1.39885e-05
2.99696e-05
3.87889e-05
5.83544e-05
5.26697e-05
3.11248e-05
4.3618e-05
4.78045e-05
4.33441e-05
3.53476e-05
2.47e-05
4.08328e-05
8.60375e-06
1.06807e-06
1.85595e-05
3.14099e-05
1.98827e-05
1.85843e-05
2.70193e-05
1.50654e-05
1.59172e-05
2.2769e-05
4.46681e-05
6.18143e-05
4.85712e-05
3.499e-05
3.48079e-05
3.81504e-05
2.61127e-05
3.00679e-05
2.66157e-05
3.98945e-05
7.45665e-06
6.02775e-07
2.12488e-05
2.76604e-05
2.78996e-05
1.85342e-05
2.79402e-05
1.84306e-05
1.93049e-05
2.43031e-05
4.13803e-05
5.81644e-05
5.47847e-05
2.7364e-05
3.01239e-05
3.22839e-05
3.06927e-05
2.67032e-05
3.18076e-05
3.2409e-05
8.87903e-06
4.11404e-07
2.00664e-05
2.28416e-05
2.82802e-05
2.05397e-05
2.89252e-05
2.15367e-05
2.30123e-05
2.75675e-05
3.46892e-05
4.89627e-05
4.90042e-05
2.70606e-05
3.08105e-05
3.18772e-05
3.16816e-05
2.68256e-05
2.40963e-05
2.3348e-05
1.12853e-05
2.64483e-07
1.42303e-05
2.59687e-05
2.2692e-05
1.84658e-05
2.86539e-05
2.35897e-05
2.65815e-05
3.15843e-05
2.63313e-05
3.81685e-05
4.01855e-05
2.74235e-05
3.09476e-05
3.19763e-05
3.08512e-05
2.96898e-05
2.10695e-05
3.04296e-05
8.63502e-06
7.84302e-07
9.41703e-06
2.79464e-05
2.35806e-05
1.39195e-05
2.65388e-05
2.46667e-05
2.85573e-05
3.45549e-05
2.76674e-05
2.92593e-05
3.12412e-05
2.66809e-05
3.05086e-05
3.17133e-05
3.02681e-05
3.02718e-05
3.54469e-05
5.04075e-05
3.0949e-06
8.47286e-06
3.60962e-06
2.12109e-05
2.29857e-05
1.15148e-05
2.50402e-05
2.51275e-05
3.09647e-05
3.53459e-05
2.94937e-05
2.62739e-05
2.58442e-05
2.6288e-05
2.99341e-05
3.07177e-05
2.95783e-05
2.65338e-05
2.77304e-05
3.69425e-05
2.69732e-06
1.61143e-05
2.67335e-06
7.16671e-06
1.2317e-05
8.67531e-06
1.31823e-05
2.57867e-05
2.88023e-05
3.1933e-05
3.84492e-05
2.55072e-05
2.51329e-05
2.70283e-05
2.65444e-05
2.65148e-05
2.6053e-05
2.08426e-05
2.25539e-05
9.43934e-06
3.93338e-06
1.81488e-05
2.65336e-06
1.19916e-07
8.25781e-07
8.73561e-07
1.69298e-06
2.42606e-05
2.75874e-05
3.15618e-05
3.33398e-05
3.28523e-05
2.59713e-05
2.68756e-05
2.60902e-05
2.68807e-05
3.29313e-05
1.64769e-05
2.32012e-05
1.73501e-06
6.0612e-06
1.29322e-05
1.39308e-06
4.52563e-05
3.58089e-05
3.32493e-05
3.25758e-05
1.7744e-05
8.87806e-06
2.21834e-06
2.51008e-09
5.84179e-10
2.91862e-08
5.30972e-07
4.06512e-08
7.57868e-08
4.70706e-06
9.81071e-06
2.11683e-05
2.08583e-05
1.68444e-05
1.94923e-05
2.83418e-05
2.49595e-05
1.73697e-05
1.46035e-05
1.66031e-05
1.85265e-06
1.9307e-07
7.08547e-07
4.6306e-07
4.15309e-09
1.09248e-06
9.80426e-07
4.43175e-08
1.84106e-08
9.49319e-08
5.32872e-07
6.8574e-06
1.06732e-05
7.30537e-06
1.43787e-05
1.5794e-05
2.65577e-05
1.90912e-05
1.66462e-05
1.52389e-05
3.02268e-06
5.79534e-06
1.35188e-06
2.24144e-06
7.38523e-07
1.05415e-05
5.87117e-06
2.19439e-06
7.23968e-07
1.07877e-06
1.77542e-06
6.60902e-06
1.04935e-05
1.41869e-05
2.26312e-05
1.86214e-05
2.74195e-05
1.92017e-05
1.70518e-05
1.57113e-05
4.17628e-06
7.22013e-07
9.27879e-07
1.13329e-06
1.55362e-06
2.20304e-06
2.7826e-06
3.60379e-06
2.50412e-06
2.15923e-06
2.39811e-06
6.79338e-06
8.41699e-06
1.84539e-05
1.90525e-05
1.73779e-05
2.61158e-05
1.91819e-05
1.7312e-05
1.52525e-05
4.38737e-06
6.90795e-07
1.00178e-06
1.05736e-06
1.35888e-06
1.994e-06
2.45773e-06
2.65707e-06
2.36138e-06
1.65227e-06
2.27708e-06
6.98851e-06
9.049e-06
1.91265e-05
7.75873e-06
1.47569e-05
1.10159e-05
1.87122e-05
1.76392e-05
1.61034e-05
4.40714e-06
6.12383e-07
9.59827e-07
9.90872e-07
1.2654e-06
1.5871e-06
1.66162e-06
1.81612e-06
1.58864e-06
1.40485e-06
1.91246e-06
6.3441e-06
1.27565e-05
1.61083e-05
7.59401e-06
1.62764e-05
4.85935e-06
1.69654e-05
1.77459e-05
1.78296e-05
4.68804e-06
4.1739e-07
7.31396e-07
7.49731e-07
7.84087e-07
1.02274e-06
1.09819e-06
1.26971e-06
1.08195e-06
9.70689e-07
1.81342e-06
6.80302e-06
1.71271e-05
7.08923e-06
8.37414e-06
1.94956e-05
9.18237e-06
1.2014e-05
1.7949e-05
1.88832e-05
5.18739e-06
5.76213e-07
6.62434e-07
7.24985e-07
1.40994e-06
2.62997e-06
2.87657e-06
3.38009e-06
2.18921e-06
1.44375e-06
4.73837e-06
8.17654e-06
2.19334e-05
9.39858e-06
4.94867e-06
2.56815e-05
1.57219e-05
5.68496e-06
1.86903e-05
2.08961e-05
7.4495e-06
1.8707e-06
2.78376e-06
3.33794e-06
5.97505e-06
9.36952e-06
9.49757e-06
1.07503e-05
8.26882e-06
5.61174e-06
1.04444e-05
9.23364e-06
2.59341e-05
9.17552e-06
2.66646e-06
2.19041e-05
1.54231e-05
1.02085e-05
1.94155e-05
2.43558e-05
1.48708e-05
6.69831e-07
2.55708e-05
6.69831e-07
2.45114e-05
2.16223e-05
6.69831e-07
2.07014e-05
2.29476e-05
2.35118e-05
1.62932e-05
1.16443e-05
2.87879e-05
8.46301e-06
3.93087e-06
1.73975e-05
1.86656e-05
2.20956e-05
2.03788e-05
2.68245e-05
2.20678e-05
6.69831e-07
6.69831e-07
6.69831e-07
6.69831e-07
6.69831e-07
6.69831e-07
6.69831e-07
6.69831e-07
6.69831e-07
6.69831e-07
3.43876e-05
3.01014e-05
8.1118e-06
2.96246e-06
1.80575e-05
3.32163e-05
2.1658e-05
2.08654e-05
2.77719e-05
3.05732e-05
6.69831e-07
3.02428e-05
6.69831e-07
5.85235e-05
5.2873e-05
6.69831e-07
4.37925e-05
4.79796e-05
4.35864e-05
3.56926e-05
2.49772e-05
4.16126e-05
9.27164e-06
8.62635e-07
2.03338e-05
3.31936e-05
2.17693e-05
2.05479e-05
2.92746e-05
4.24757e-05
6.69831e-07
2.30749e-05
6.69831e-07
6.19702e-05
4.88095e-05
6.69831e-07
3.49411e-05
3.8338e-05
2.62522e-05
3.03982e-05
2.69199e-05
4.12525e-05
8.63981e-06
6.09929e-07
2.20363e-05
3.07617e-05
3.10526e-05
2.01688e-05
3.05837e-05
5.85519e-05
6.69831e-07
2.46127e-05
6.69831e-07
5.829e-05
5.49527e-05
6.69831e-07
3.04297e-05
3.25932e-05
3.10238e-05
2.7056e-05
3.22795e-05
3.30196e-05
1.17583e-05
4.55802e-07
2.00883e-05
2.57183e-05
3.11947e-05
2.15724e-05
3.16989e-05
7.33312e-05
6.69831e-07
2.78669e-05
6.69831e-07
4.90932e-05
4.91524e-05
6.69831e-07
3.11979e-05
3.22012e-05
3.20111e-05
2.71665e-05
2.44731e-05
2.47793e-05
1.36345e-05
6.2205e-07
1.32903e-05
2.60535e-05
2.48013e-05
1.99605e-05
3.16146e-05
8.58109e-05
6.69831e-07
3.1887e-05
6.69831e-07
3.83144e-05
4.03368e-05
6.69831e-07
3.12561e-05
3.24939e-05
3.1182e-05
2.99929e-05
2.12308e-05
3.49933e-05
9.79776e-06
2.25824e-06
7.54935e-06
2.70535e-05
2.40836e-05
1.56434e-05
2.95459e-05
9.30017e-05
6.69831e-07
3.4868e-05
6.69831e-07
2.9401e-05
3.14119e-05
6.69831e-07
3.08134e-05
3.21949e-05
3.05874e-05
3.06297e-05
3.58565e-05
5.39606e-05
3.20265e-06
1.53981e-05
3.26789e-06
1.89135e-05
2.29979e-05
1.19304e-05
2.93351e-05
9.98718e-05
6.69831e-07
3.56627e-05
6.69831e-07
2.66036e-05
2.61742e-05
6.69831e-07
3.02743e-05
3.10566e-05
2.99184e-05
2.68902e-05
2.81698e-05
4.03857e-05
2.42428e-06
2.14632e-05
2.97652e-06
4.66212e-06
1.06179e-05
6.53887e-06
1.82331e-05
0.000102716
6.69831e-07
6.69831e-07
6.69831e-07
6.69831e-07
6.69831e-07
6.69831e-07
6.69831e-07
6.69831e-07
6.69831e-07
6.69831e-07
0.000115443
1.31787e-05
3.44402e-06
2.50361e-05
3.12159e-06
7.62731e-08
4.36879e-07
3.71853e-07
4.06969e-06
9.88065e-05
4.57804e-07
4.57804e-07
4.57804e-07
4.57804e-07
4.57804e-07
4.57804e-07
4.57804e-07
4.57804e-07
4.57804e-07
4.57804e-07
0.000114567
4.69048e-06
6.01651e-06
1.93012e-05
8.57534e-07
4.65041e-05
3.69819e-05
3.42709e-05
3.30515e-05
1.7903e-05
8.79982e-06
2.08726e-06
2.57236e-09
4.70235e-10
1.06297e-08
4.65074e-07
2.67364e-08
7.89406e-08
4.9254e-06
9.8085e-06
2.13139e-05
2.10674e-05
1.71367e-05
1.9762e-05
2.90758e-05
2.76355e-05
1.90134e-05
1.59499e-05
1.79708e-05
1.70589e-06
1.89151e-07
7.09025e-07
4.63554e-07
3.57361e-09
8.81545e-07
8.65008e-07
1.94574e-08
1.83496e-08
8.34048e-08
3.96525e-07
6.55091e-06
1.20348e-05
7.77457e-06
1.40649e-05
1.79793e-05
2.9429e-05
2.04001e-05
1.74895e-05
1.71741e-05
2.87837e-06
5.63135e-06
1.33503e-06
2.16885e-06