/*--------------------------------*- C++ -*----------------------------------*\
| =========                 |                                                 |
| \\      /  F ield         | OpenFOAM: The Open Source CFD Toolbox           |
|  \\    /   O peration     | Version:  2.3.0                                 |
|   \\  /    A nd           | Web:      www.OpenFOAM.org                      |
|    \\/     M anipulation  |                                                 |
\*---------------------------------------------------------------------------*/
FoamFile
{
    version     2.0;
    format      ascii;
    class       volScalarField;
    location    "5";
    object      rhom;
}
// * * * * * * * * * * * * * * * * * * * * * * * * * * * * * * * * * * * * * //

dimensions      [1 -3 0 0 0 0 0];

internalField   nonuniform List<scalar> 
1875
(
956.686
955.481
952.129
946.187
937.914
928.912
919.065
906.508
884.505
859.084
873.419
925.298
900.061
866.016
859.418
876.992
898.634
920.061
937.529
949
956.799
962.76
967.199
969.971
971.126
957.542
957.307
956.976
954.138
947.419
935.46
921.059
912.378
905.871
902.28
932.646
954.025
948.939
909.377
898.904
918.347
935.382
944.926
948.423
950.38
952.35
955.225
956.637
962.075
971.124
957.756
955.077
944.758
927.548
903.95
889.607
889.228
904.619
902.18
896.556
930.845
952.59
952.951
913.671
896.469
914.043
929.049
932.971
915.011
900.903
901.604
907.019
910.198
927.177
954.564
958.036
942.421
922.46
880.399
878.253
874.688
878.253
892.739
896.117
896.291
932.209
956.228
952.59
917.046
896.432
908.052
919.98
910.588
873.148
878.153
872.979
878.261
887.366
910.426
949.654
958.289
932.185
913.518
880.963
875.326
878.253
875.144
878.253
884.92
898.094
936.947
952.918
954.903
925.519
898.121
899.551
901.949
881.835
878.26
873.148
878.26
876.353
889.292
911.311
950.758
953.273
929.642
922.668
888.877
878.252
876.927
878.252
877.884
888.453
906.296
940.921
956.522
952.893
940.812
912.357
903.389
898.944
881.747
876.659
878.26
876.19
887.952
902.713
916.395
951.069
955.16
925.022
926.156
901.681
885.708
883.798
886.978
891.526
902.186
918.495
944.611
952.893
955.447
952.053
937.23
921.777
911.19
896.436
885.478
879.408
884.688
902.716
908.858
918.476
955.583
957.66
921.355
926.54
916.709
895.294
894.265
912.448
920.701
927.264
937.893
951.609
956.124
952.589
953.116
951.386
944.716
936.011
925.257
905.984
888.939
897.091
909.282
910.752
927.657
959.554
955.586
921.288
926.341
924.545
904.44
890.243
903.669
928.573
945.29
950.899
952.76
952.589
955.469
952.293
952.296
951.773
947.513
932.429
902.681
897.924
904.098
906.289
917.649
940.641
961.279
942.646
922.063
926.939
923.186
912.139
890.983
880.106
892.645
922.797
949.752
952.293
955.755
952.293
953.242
951.998
951.465
945.241
921.807
895.43
897.725
892.377
903.714
926.917
949.766
961.493
928.069
921.724
926.145
918.848
911.493
892.247
877.62
877.58
882.831
909.105
949.254
952.292
954.864
951.998
952.039
948.288
932.27
899.063
894.74
897.497
889.363
903.804
928.035
953.256
960.253
922.212
921.413
926.415
920.279
909.459
893.884
879.885
877.601
877.579
887.913
925.395
954.613
951.998
953.089
951.231
934.101
903.355
891.698
894.282
891.8
887.971
892.274
918.717
953.636
955.613
921.57
919.359
931.418
926.392
903.559
889.172
880.962
879.362
881.495
894.061
925.619
951.998
954.145
951.713
937.621
906.731
891.116
891.683
895.254
888.382
889.363
888.609
906.839
953.152
949.396
924.014
911.12
932.14
929.773
896.694
882.949
881.62
886.429
897.093
914.251
934.519
951.3
951.712
938.728
909.03
892.941
891.101
892.492
898.702
889.362
888.285
889.362
905.163
953.829
942.776
931.819
902.845
932.249
934.016
899.79
885.155
886.853
904.084
920.166
930.283
934.555
938.861
936.428
915.561
901.947
895.142
894.266
897.468
900.012
888.225
889.362
890.419
909.4
957.26
940.013
942.106
899.101
925.44
937.255
909.707
890.699
891.585
914.529
928.269
932.022
932.992
931.54
924.345
915.063
907.791
905.385
906.2
908.965
900.803
889.362
888.524
891.506
917.607
960.449
940.013
949.325
899.309
913.485
937.375
926.174
897.6
891.463
908.004
923.043
928.107
929.584
929.34
926.566
923.676
922.097
920.811
919.973
912.088
892.115
888.184
889.361
891.819
927.001
960.914
940.138
951.382
903.451
906.82
930.429
927.918
904.31
891.909
897.823
907.411
914.433
916.684
919.254
922.225
924.671
924.86
924.302
919.546
902.149
888.34
889.361
888.897
896.02
934.096
960.676
940.829
951.403
912.443
911.326
919.408
921.756
902.986
894.545
899.411
905.785
904.545
899.923
899.352
901.441
909.601
906.113
897.946
890.944
886.627
889.361
888.346
890.783
904.154
945.271
951.692
941.343
951.472
926.638
918.174
920.176
912.872
903.041
901.31
908.79
913.531
912.678
909.798
906.191
902.398
889.531
884.967
889.36
883.923
889.36
887.196
889.36
896.66
917.27
953.41
933.893
941.955
951.548
936.349
922.065
920.77
913.823
908.993
917.874
925.986
931.2
936.889
937.639
935.792
911.864
884.357
889.36
884.012
889.36
886.932
889.36
893.216
911.902
939.083
953.611
917.866
942.867
944.718
933.741
917.293
920.382
915.996
924.247
946.326
951.463
951.419
942.221
927.501
907.717
888.032
889.359
886.428
889.359
887.342
889.359
891.55
906.574
930.25
945.14
947.033
917.599
942.866
934.686
922.227
898.735
917.845
921.122
944.443
951.789
951.419
935.842
913.521
898.6
891.173
889.359
888.719
889.359
888.685
889.359
889.833
900.399
921.248
937.639
944.781
936.458
918.083
942.866
931.728
908.844
896.016
914.566
931.053
951.716
951.419
942.553
909.419
898.034
895.261
893.505
891.374
890.754
890.878
891.407
891.524
893.901
905.777
921.556
935.991
944.215
936.038
918.066
936.472
932.052
907.454
896.102
919.477
943.467
951.418
947.302
923.787
909.072
906.127
901.707
899.78
899.221
899.955
901.114
901.35
900.3
901.133
907.82
918.46
932.043
942.123
935.144
910.522
931.127
933.718
911.207
898.589
928.807
949.826
949.059
920.094
891.978
891.492
902.135
917.461
920.713
921.398
920.81
920.46
918.429
915.697
914.751
917.505
925.062
935.848
937.686
923.313
904.273
929.737
934.319
913.748
901.811
934.455
950.014
934.066
900.769
891.382
887.49
891.382
893.084
914.666
922.351
927.956
931.853
933.234
932.834
931.069
931.033
934.908
936.009
928.671
908.618
904.179
929.337
934.549
911.948
902.722
932.551
949.825
927.826
891.578
888.393
891.382
887.533
891.382
888.026
893.27
901.206
906.329
909.508
919.886
930.473
935.485
935.471
930.458
919.605
909.102
906.45
928.982
934.874
903.863
903.517
930.048
950.162
931.563
893.629
891.382
889.217
891.382
888.522
891.382
889.598
891.382
888.025
891.382
887.262
895.028
924.208
934.971
934.97
928.069
919.198
915.074
930.266
934.398
896.553
902.676
928.293
949.825
934.418
899.514
890.895
891.381
890.194
891.381
889.909
891.381
890.06
891.381
887.827
891.381
887.261
891.381
915.605
940.478
942.57
935.823
929.124
931.589
933.239
889.511
895.216
925.357
950.153
935.481
905.896
893.471
891.151
891.381
890.725
891.381
890.656
891.381
889.823
891.381
888.005
891.381
887.826
891.381
920.588
943.129
942.57
941.97
932.917
935.04
889.751
889.267
921.554
948.783
936.363
912.586
898.763
893.423
891.562
891.381
891.056
891.381
890.769
891.381
889.915
891.381
888.676
891.381
889.485
900.73
933.248
943.656
942.57
933.465
936.626
889.558
889.751
916.267
945.796
936.294
920.926
907.208
899.307
895.017
893.453
892.203
891.304
891.38
891.007
891.38
890.097
891.38
889.856
891.38
892.654
917.266
942.57
943.233
932.63
936.124
890.832
889.579
911.755
939.429
936.248
929.793
918.376
910.269
904.655
901.958
900.129
898.634
897.328
895.6
893.109
891.38
889.547
891.38
890.36
892.864
909.113
943.527
942.569
931.43
932.619
895.464
890.6
911.637
933.541
936.133
935.832
931.743
927.183
923.413
919.456
913.577
912.077
913.024
911.683
905.899
890.38
891.38
889.82
891.38
892.851
912.944
942.569
941.807
930.724
929.265
905.792
892.44
907.947
929.444
935.871
935.767
935.685
935.387
934.831
934.85
929.626
918.229
913.646
910.47
897.394
891.379
889.912
891.379
891.17
895.133
922.035
943.818
921.04
930.538
929.757
916.551
893.587
900.46
923.752
935.622
935.685
935.821
935.484
935.196
928.435
923.384
915.895
910.504
898.971
891.379
889.989
891.379
890.876
891.379
904.786
934.048
942.569
920.524
930.961
931.135
915.181
893.603
896.44
920.33
935.547
935.885
935.505
935.811
924.961
914.647
909.268
907.611
895.685
891.378
890.491
891.378
891.096
891.378
893.331
914.917
939.173
943.847
920.645
931.569
931.525
910.64
893.619
897.377
922.872
932.668
935.599
935.998
924.653
900.329
892.138
891.928
893.794
891.503
891.26
891.378
891.563
891.945
891.495
895.396
913.66
936.604
942.568
924.701
931.81
929.117
908.894
894.082
903.567
928.533
929.009
935.686
935.376
911.482
892.695
891.99
891.992
891.968
902.512
905.242
900.896
896.929
895.344
893.078
894.774
907.743
928.766
943.441
927.562
931.782
924.788
911.934
895.855
915.109
930.082
930.149
930.187
922.745
898.535
892.055
892.05
891.991
892.029
917.556
923.089
922.886
911.063
902.888
895.717
895.826
902.247
917.913
938.738
927.394
929.168
922.801
921.315
898.641
918.624
929.879
926.92
914.674
900.969
894.634
894.521
896.237
893.576
892.032
900.343
922.971
925.281
924.155
912.609
901.034
899.308
903.423
917.125
931.241
924.245
926.28
924.465
922.608
902.724
914.932
924.219
916.726
908.475
903.438
901.827
904.656
908.418
904.331
893.674
893.442
913.945
925.832
924.672
918.666
908.759
906.904
908.168
918.216
925.61
919.63
924.165
925.589
915.13
905.168
912.593
918.115
909.982
908.929
912.115
917.581
918.224
918.164
916.66
899.069
893.443
914.339
925.28
924.589
923.444
920.415
917.646
915.406
919.889
921.824
916.81
923.014
925.493
907.816
908.432
914.408
915.016
911.261
912.321
917.6
918.452
918.164
918.431
908.507
897.893
894.973
915.204
925.918
925.28
924.752
922.51
920.088
916.511
918.701
919.377
916.104
922.466
924.217
907.816
913.065
918.318
915.977
913.981
915.183
918.148
918.163
919.112
913.808
899.211
897.386
897.31
913.136
925.28
925.539
925.28
921.662
917.265
914.426
915.079
917.386
914.678
922.729
923.412
908.876
918.688
920.484
918.396
916.147
916.945
917.298
919.147
918.163
904.754
899.158
901.091
897.475
904.052
924.888
925.279
925.298
919.424
914.227
912.34
912.36
915.008
910.346
922.96
922.777
912.213
920.484
920.761
920.253
918.438
918.142
917.47
918.163
918.766
906.051
898.68
901.028
906.094
908.918
916.881
925.536
923.543
919.684
913.395
912.333
912.339
912.852
906.03
922.788
923.685
913.939
920.312
920.483
920.217
918.246
917.699
918.163
919.021
918.162
909.671
898.305
898.299
916.495
918.326
917.118
922.909
921.589
917.964
913.377
912.597
912.447
912.408
904.51
923.248
924.835
911.662
919.242
920.775
919.862
916.683
915.939
917.862
918.162
918.326
911.57
899.004
902.134
913.825
918.45
919.573
921.862
919.884
914.418
913.448
913.798
913.184
912.215
904.102
923.595
924.732
906.565
917.235
920.483
920.312
916.462
912.681
914.729
918.869
918.162
911.216
900.582
908.221
912.209
913.606
918.655
921.144
917.676
914.713
914.118
914.174
912.849
911.314
903.404
923.719
925.066
905.123
913.888
920.841
919.825
914.866
908.769
911.388
918.162
918.69
906.798
905.277
911.453
907.484
899.643
914.712
919.101
914.588
912.952
913.219
913.907
911.893
909.441
903.369
924.208
925.895
905.17
910.223
919.41
916.801
907.43
900.782
906.452
918.843
918.153
904.7
911.63
911.346
897.753
894.923
909.284
915.169
907.052
901.399
908.802
912.769
911.183
907.645
903.943
924.612
926.481
905.618
908.352
911.585
902.761
893.155
894.838
900.197
918.161
914.028
902.163
910.153
911.694
900.562
894.929
900.846
909.013
898.897
893.522
894.172
901.703
909.693
908.92
905.382
924.554
927.185
905.08
903.441
900.497
892.284
892.076
892.344
892.6
903.35
904.749
897.994
900.318
911.346
904.778
895.773
896.06
901.638
894.526
893.302
893.31
893.108
903.526
906.485
904.858
924.703
927.522
902.703
896.665
896.635
891.65
892.283
892.227
892.283
891.939
895.11
897.413
901.627
909.41
901.284
895.841
896.182
898.133
895.462
893.517
893.034
893.31
897.661
902.113
903.731
925.703
928.057
900.807
896.28
896.238
892.283
892.129
892.283
891.981
892.283
893.398
901.784
902.942
902.167
896.859
895.814
897.006
897.881
896.772
893.764
893.31
893.036
896.087
899.343
902.908
927.16
929.828
899.656
896.314
896.606
891.515
892.283
892.074
892.284
891.809
892.283
900.721
902.953
903.015
899.091
899.343
900.672
900.041
898.293
893.349
893.04
893.309
895.401
897.622
901.707
929.58
933.371
899.924
896.355
897.487
892.282
891.932
892.282
892.033
892.282
892.05
896.182
903.121
907.49
907.835
909.653
908.986
905.289
898.254
893.039
893.309
893.077
896.307
897.038
899.739
932.416
938.005
901.562
899.098
897.462
891.546
892.282
892.155
892.282
892.119
892.427
897.675
906.426
916.94
918.879
919.852
918.189
912.197
898.876
893.309
893.121
893.309
897.268
897.238
899.197
934.398
941.16
907.721
902.896
892.417
892.282
892.135
892.282
892.53
894.003
897.978
906.293
915.263
925.815
926.115
922.701
918.962
915.334
902.119
893.307
893.308
893.026
897.222
898.623
899.856
935.09
941.791
912.587
899.906
892.281
891.914
892.342
893.91
896.066
898.524
899.989
906.931
920.915
926.832
926.763
919.813
911.27
911.654
905.387
895.591
893.458
893.308
895.882
900.194
901.496
935.104
941.791
911.085
898.562
892.691
892.281
894.766
897.829
898.041
893.963
883.994
898.707
919.994
927.386
923.796
905.167
875.027
897.675
902.936
898.904
894.265
893.335
896.032
902.317
905.872
935.148
941.791
910.612
899.803
893.915
892.125
897.236
900.026
896.513
885.481
884.217
887.871
915.936
926.831
915.278
869.354
865.908
882.704
897.965
898.774
894.334
893.36
898.237
906.552
914.122
935.184
940.402
913.213
904.04
896.867
892.521
898.977
900.042
897.39
889.561
884.441
886.195
915.798
927.89
899.016
865.907
865.902
875.141
894.479
898.202
896.001
895.5
902.741
912.447
921.809
934.555
930.578
912.172
902.367
898.144
893.604
900.243
901.914
901.163
895.482
889.475
895.214
922.925
926.831
890.303
865.901
867.201
879.923
895.157
898.191
897.582
899.196
904.615
908.935
910.064
932.853
923.168
907.15
903.983
907.609
902.366
907.609
902.959
903.027
899.669
897.808
907.156
925.178
925.349
885.388
870.661
876.077
894.391
904.455
904.882
904.964
907.107
908.187
908.176
899.815
917.345
860.793
875.041
895.114
907.607
907.609
907.607
890.407
870.454
849.495
838.945
850.697
884.079
851.231
826.818
823.879
844.041
864.741
880.434
893.391
907.281
907.281
891.918
875.253
841.966
837.28
662.973
656.925
675.554
769.954
771.92
771.03
687.181
611.203
634.176
646.069
658.221
667.973
653.086
643.496
638.182
634.449
613.95
601.818
669.517
771.431
761.752
620.216
612.419
621.663
631.1
524.905
523.046
521.218
521.476
522.652
522.203
520.639
520.34
522.345
523.977
524.868
523.567
524.103
523.131
521.013
519.286
518.196
517.544
517.49
518.39
518.069
518.167
518.108
518.332
518.426
514.602
514.586
514.582
514.595
514.589
514.594
514.611
514.644
514.626
514.613
514.614
514.6
514.613
514.591
514.563
514.557
514.561
514.568
514.563
514.558
514.558
514.57
514.562
514.552
514.545
514.558
514.61
514.66
514.667
514.656
514.634
514.579
514.553
514.547
514.546
514.547
514.547
514.546
514.548
514.558
514.563
514.564
514.565
514.585
514.62
514.625
514.604
514.584
514.561
514.548
514.555
514.591
514.674
514.703
514.7
514.665
514.598
514.573
514.561
514.557
514.556
514.554
514.548
514.547
514.553
514.565
514.581
514.617
514.682
514.703
514.702
514.648
514.584
514.56
514.548
514.558
514.603
514.678
514.71
514.714
514.713
514.708
514.687
514.659
514.641
514.622
514.594
514.56
514.551
514.583
514.646
514.682
514.707
514.713
514.714
514.712
514.698
514.659
514.599
514.556
514.565
514.63
514.688
514.711
514.714
514.714
514.714
514.714
514.71
514.695
514.663
514.608
514.563
514.557
514.609
514.681
514.71
514.714
514.714
514.714
514.714
514.712
514.69
514.627
514.566
)
;

boundaryField
{
    inlet
    {
        type            calculated;
        value           nonuniform List<scalar> 
25
(
770.947
770.947
770.947
770.947
770.946
770.946
770.946
770.946
770.947
770.947
770.947
770.947
770.947
770.947
770.947
770.947
770.946
770.946
770.946
770.946
770.946
770.947
770.947
770.948
770.948
)
;
    }
    outlet
    {
        type            calculated;
        value           nonuniform List<scalar> 
25
(
514.565
514.631
514.688
514.714
514.714
514.714
514.714
514.714
514.714
514.695
514.662
514.606
514.563
514.557
514.61
514.681
514.714
514.714
514.714
514.714
514.714
514.714
514.69
514.628
514.566
)
;
    }
    walls
    {
        type            calculated;
        value           nonuniform List<scalar> 
150
(
956.686
957.542
957.756
958.036
958.289
953.273
955.16
957.66
955.586
942.646
928.069
922.212
921.57
924.014
931.819
942.106
949.325
951.382
951.403
951.472
951.548
944.718
934.686
931.728
932.052
933.718
934.319
934.549
934.874
934.398
933.239
935.04
936.626
936.124
932.619
929.265
929.757
931.135
931.525
929.117
924.788
922.801
924.465
925.589
925.493
924.217
923.412
922.777
923.685
924.835
924.732
925.066
925.895
926.481
927.185
927.522
928.057
929.828
933.371
938.005
941.16
941.791
941.791
941.791
940.402
930.578
923.168
860.793
662.973
524.905
514.602
514.558
514.555
514.558
514.565
971.126
971.124
954.564
949.654
950.758
951.069
955.583
959.554
961.279
961.493
960.253
955.613
949.396
942.776
940.013
940.013
940.138
940.829
941.343
941.955
942.867
942.866
942.866
936.472
931.127
929.737
929.337
928.982
930.266
931.589
932.917
933.465
932.63
931.43
930.724
930.538
930.961
931.569
931.81
931.782
929.168
926.28
924.165
923.014
922.466
922.729
922.96
922.788
923.248
923.595
923.719
924.208
924.612
924.554
924.703
925.703
927.16
929.58
932.416
934.398
935.09
935.104
935.148
935.184
934.555
932.853
917.345
837.28
631.1
518.426
514.545
514.548
514.548
514.556
514.566
)
;
    }
    defaultFaces
    {
        type            empty;
    }
}


// ************************************************************************* //
