/*--------------------------------*- C++ -*----------------------------------*\
| =========                 |                                                 |
| \\      /  F ield         | OpenFOAM: The Open Source CFD Toolbox           |
|  \\    /   O peration     | Version:  2.3.0                                 |
|   \\  /    A nd           | Web:      www.OpenFOAM.org                      |
|    \\/     M anipulation  |                                                 |
\*---------------------------------------------------------------------------*/
FoamFile
{
    version     2.0;
    format      ascii;
    class       volVectorField;
    location    "5";
    object      U.air;
}
// * * * * * * * * * * * * * * * * * * * * * * * * * * * * * * * * * * * * * //

dimensions      [0 1 -1 0 0 0 0];

internalField   nonuniform List<vector> 
1875
(
(0.139862 -0.0141735 0)
(0.265348 0.00351375 0)
(0.417928 0.0386198 0)
(0.492691 0.0714161 0)
(0.506237 0.107392 0)
(0.482636 0.144236 0)
(0.413701 0.167957 0)
(0.317763 0.196507 0)
(0.215698 0.212278 0)
(0.126301 0.241359 0)
(-0.0118264 0.237176 0)
(-0.0416497 0.2445 0)
(-0.0348695 0.248213 0)
(-0.114461 0.26685 0)
(-0.265475 0.292608 0)
(-0.365067 0.273684 0)
(-0.486292 0.276251 0)
(-0.600519 0.236508 0)
(-0.695862 0.208825 0)
(-0.74859 0.163812 0)
(-0.759338 0.122858 0)
(-0.713462 0.0735472 0)
(-0.59229 0.0316975 0)
(-0.392253 -0.0234096 0)
(-0.176835 -0.00958158 0)
(0.103298 -0.0994969 0)
(0.205496 0.00373066 0)
(0.306662 0.118237 0)
(0.354789 0.224515 0)
(0.362259 0.313202 0)
(0.328933 0.419972 0)
(0.262189 0.501533 0)
(0.178634 0.555884 0)
(0.101713 0.605095 0)
(0.0436691 0.690886 0)
(-0.0265683 0.679271 0)
(-0.0543451 0.62282 0)
(-0.0548089 0.649434 0)
(-0.102041 0.707465 0)
(-0.186917 0.662635 0)
(-0.250154 0.594831 0)
(-0.353493 0.558169 0)
(-0.420858 0.50211 0)
(-0.486063 0.428823 0)
(-0.531588 0.338401 0)
(-0.543515 0.236684 0)
(-0.516811 0.1339 0)
(-0.445959 -0.0054736 0)
(-0.304898 -0.183062 0)
(-0.173588 -0.291444 0)
(0.0502345 -0.359483 0)
(0.115569 -0.186901 0)
(0.148985 -0.0780212 0)
(0.175601 0.0387438 0)
(0.169371 0.151824 0)
(0.153238 0.275179 0)
(0.136323 0.416559 0)
(0.114333 0.527372 0)
(0.0700079 0.611864 0)
(0.0391597 0.728942 0)
(0.0101463 0.764487 0)
(-0.00153283 0.736243 0)
(6.35218e-05 0.759246 0)
(-4.93549e-05 0.833482 0)
(-0.0415249 0.80983 0)
(-0.0643023 0.700237 0)
(-0.101489 0.579066 0)
(-0.134104 0.448975 0)
(-0.16692 0.328979 0)
(-0.179705 0.216397 0)
(-0.17473 0.101931 0)
(-0.168162 -0.00871983 0)
(-0.153493 -0.139287 0)
(-0.135865 -0.381416 0)
(-0.0678298 -0.608795 0)
(0.0237449 -0.455278 0)
(0.0485041 -0.232449 0)
(0.0448239 -0.109155 0)
(0.0391162 0.0325341 0)
(0.0294724 0.158086 0)
(0.0178661 0.281276 0)
(0.00516428 0.393848 0)
(0.00170611 0.504987 0)
(-0.0132188 0.63049 0)
(-0.0260826 0.770772 0)
(-0.0387582 0.815423 0)
(-0.015896 0.793673 0)
(0.0133556 0.802664 0)
(0.0304868 0.84208 0)
(0.0138391 0.773616 0)
(0.0213543 0.623601 0)
(0.00398939 0.508388 0)
(-0.0108534 0.413945 0)
(-0.0335353 0.310813 0)
(-0.0525737 0.154881 0)
(-0.0444557 0.0080959 0)
(-0.0390741 -0.098293 0)
(-0.0254312 -0.215516 0)
(-0.0288451 -0.415408 0)
(-0.0225064 -0.722014 0)
(0.00445587 -0.479905 0)
(0.0023485 -0.216733 0)
(-0.0244933 -0.116433 0)
(-0.0463087 -0.0187254 0)
(-0.0592005 0.0820664 0)
(-0.057023 0.205358 0)
(-0.0626734 0.351442 0)
(-0.07507 0.475059 0)
(-0.0855552 0.615792 0)
(-0.0805728 0.737541 0)
(-0.0530533 0.781051 0)
(-0.0123321 0.764332 0)
(0.0264873 0.77282 0)
(0.07505 0.811757 0)
(0.0986784 0.771784 0)
(0.0989953 0.636113 0)
(0.0829912 0.492034 0)
(0.0630985 0.384521 0)
(0.0433209 0.255094 0)
(0.0211322 0.10988 0)
(0.000539539 -0.0514594 0)
(-0.0136556 -0.148487 0)
(-0.00510595 -0.268994 0)
(-0.0143442 -0.449007 0)
(-0.00612685 -0.742494 0)
(-0.0091323 -0.436537 0)
(-0.0392474 -0.139598 0)
(-0.0496019 -0.00759135 0)
(-0.0912331 0.0880285 0)
(-0.116706 0.135756 0)
(-0.148673 0.22311 0)
(-0.159783 0.332024 0)
(-0.149069 0.451808 0)
(-0.138245 0.563486 0)
(-0.102312 0.662426 0)
(-0.0560878 0.696405 0)
(-0.00318587 0.691749 0)
(0.041021 0.69803 0)
(0.104642 0.718945 0)
(0.167014 0.702736 0)
(0.21346 0.609515 0)
(0.212397 0.487442 0)
(0.211932 0.401827 0)
(0.187142 0.287906 0)
(0.15034 0.150492 0)
(0.0966491 0.0233044 0)
(0.0597523 -0.092984 0)
(0.044324 -0.223942 0)
(0.0369177 -0.37935 0)
(0.0164275 -0.686861 0)
(-0.0098058 -0.379817 0)
(-0.0436532 -0.0552785 0)
(-0.0557267 0.087229 0)
(-0.0824757 0.170576 0)
(-0.136696 0.203183 0)
(-0.169199 0.261455 0)
(-0.187097 0.310197 0)
(-0.173055 0.397035 0)
(-0.133678 0.496879 0)
(-0.0810384 0.569335 0)
(-0.0154898 0.583858 0)
(0.0421248 0.609434 0)
(0.0809927 0.589045 0)
(0.126648 0.56993 0)
(0.174337 0.542328 0)
(0.222043 0.513517 0)
(0.239179 0.436207 0)
(0.243717 0.360944 0)
(0.224966 0.299858 0)
(0.200316 0.218196 0)
(0.143672 0.109123 0)
(0.101011 0.00250383 0)
(0.0705014 -0.135726 0)
(0.0516471 -0.308596 0)
(0.0147081 -0.627956 0)
(-0.00303976 -0.341258 0)
(-0.0173962 -0.00254036 0)
(-0.0299669 0.161649 0)
(-0.0200806 0.33923 0)
(-0.0759757 0.355827 0)
(-0.134541 0.318158 0)
(-0.178523 0.337557 0)
(-0.181585 0.357233 0)
(-0.143899 0.394721 0)
(-0.0693523 0.442273 0)
(5.2768e-05 0.470641 0)
(0.071994 0.505178 0)
(0.114023 0.534607 0)
(0.139872 0.52665 0)
(0.160875 0.498405 0)
(0.189326 0.459564 0)
(0.213313 0.412294 0)
(0.220012 0.380642 0)
(0.199925 0.352322 0)
(0.163682 0.317494 0)
(0.108682 0.265379 0)
(0.0762791 0.159496 0)
(0.0518974 -0.0333083 0)
(0.0382515 -0.228364 0)
(0.0195074 -0.538832 0)
(-0.00224865 -0.328628 0)
(0.00112882 0.00463764 0)
(0.00643959 0.158103 0)
(0.0373612 0.344771 0)
(0.0589552 0.508952 0)
(0.00677557 0.508264 0)
(-0.0753654 0.416005 0)
(-0.125637 0.346567 0)
(-0.138654 0.320682 0)
(-0.113126 0.309279 0)
(-0.0544674 0.336744 0)
(0.0143418 0.382459 0)
(0.0708174 0.477916 0)
(0.106162 0.48765 0)
(0.121636 0.467177 0)
(0.143968 0.428588 0)
(0.15266 0.411835 0)
(0.145347 0.408453 0)
(0.102297 0.428789 0)
(0.049162 0.451031 0)
(0.0291437 0.369607 0)
(0.0182309 0.227008 0)
(0.0103388 0.000681153 0)
(0.0139501 -0.195308 0)
(0.00727221 -0.496984 0)
(-0.000556299 -0.341825 0)
(0.0112106 -0.016274 0)
(0.0311379 0.125745 0)
(0.0620665 0.263376 0)
(0.10964 0.483187 0)
(0.124059 0.577636 0)
(0.0982677 0.560993 0)
(0.0290876 0.478254 0)
(-0.0404588 0.367499 0)
(-0.0585501 0.279894 0)
(-0.0469532 0.25466 0)
(-0.00851398 0.282884 0)
(0.0252335 0.38165 0)
(0.0678037 0.434545 0)
(0.0851689 0.431413 0)
(0.102609 0.418956 0)
(0.0976053 0.42016 0)
(0.0598066 0.483557 0)
(-0.00668636 0.555414 0)
(-0.0186209 0.501816 0)
(-0.0130478 0.393303 0)
(-0.0168228 0.251279 0)
(-0.0107387 0.00602762 0)
(-0.000283191 -0.187761 0)
(0.00497068 -0.482863 0)
(-0.00177596 -0.365568 0)
(0.00765794 -0.0590772 0)
(0.029222 0.0860923 0)
(0.0377586 0.187502 0)
(0.0759583 0.41537 0)
(0.117489 0.555402 0)
(0.129025 0.548938 0)
(0.134303 0.501131 0)
(0.115055 0.403396 0)
(0.0736849 0.332038 0)
(0.0141816 0.286369 0)
(0.0170535 0.277127 0)
(0.0312756 0.328594 0)
(0.0555832 0.390065 0)
(0.0692116 0.396107 0)
(0.0683 0.409338 0)
(0.0357167 0.482218 0)
(-0.0283646 0.595177 0)
(-0.0507924 0.590343 0)
(-0.032805 0.492181 0)
(-0.0212039 0.388853 0)
(-0.0180114 0.239797 0)
(-0.00889677 -0.0148751 0)
(-0.00738067 -0.212868 0)
(0.00411937 -0.484942 0)
(-0.000282431 -0.380059 0)
(0.00546923 -0.0912679 0)
(0.0186623 0.0560105 0)
(0.0227043 0.164269 0)
(0.0370314 0.293043 0)
(0.073581 0.43292 0)
(0.0959805 0.483563 0)
(0.105911 0.465333 0)
(0.105622 0.427565 0)
(0.0733787 0.417811 0)
(0.0658476 0.356892 0)
(0.0568344 0.301042 0)
(0.0474535 0.331281 0)
(0.048385 0.370947 0)
(0.0473772 0.391018 0)
(0.0199446 0.467456 0)
(-0.0430635 0.587245 0)
(-0.0670045 0.627203 0)
(-0.0505574 0.573438 0)
(-0.0217569 0.455153 0)
(-0.00950962 0.365494 0)
(0.00559933 0.200246 0)
(0.00266601 -0.0319357 0)
(-0.00272595 -0.227668 0)
(0.00354149 -0.491513 0)
(-0.000179083 -0.394117 0)
(0.00109998 -0.111351 0)
(-4.70571e-05 0.0267276 0)
(0.00667129 0.141583 0)
(-0.0139484 0.274283 0)
(-0.0205073 0.399887 0)
(-0.0215106 0.454882 0)
(-0.00432349 0.471509 0)
(0.00274176 0.464435 0)
(0.0312056 0.415112 0)
(0.0493755 0.34496 0)
(0.0460382 0.327589 0)
(0.0318029 0.353082 0)
(0.0188513 0.388291 0)
(-0.00798182 0.454836 0)
(-0.0623883 0.553159 0)
(-0.0807056 0.601455 0)
(-0.0765266 0.610121 0)
(-0.0444551 0.488929 0)
(-0.00536197 0.410493 0)
(0.0108235 0.314229 0)
(0.0356567 0.182513 0)
(0.0217258 -0.024648 0)
(0.00263855 -0.22781 0)
(0.00233965 -0.491136 0)
(-0.00411607 -0.384063 0)
(-0.0175898 -0.0963966 0)
(-0.0391696 0.0411347 0)
(-0.0423043 0.172195 0)
(-0.0787965 0.327889 0)
(-0.0994493 0.427937 0)
(-0.107683 0.451916 0)
(-0.0977204 0.431601 0)
(-0.0660319 0.38897 0)
(-0.0333975 0.362664 0)
(-0.0160205 0.34697 0)
(-0.0250952 0.355251 0)
(-0.0371121 0.377977 0)
(-0.0594076 0.422822 0)
(-0.0839602 0.496653 0)
(-0.0956144 0.559069 0)
(-0.08283 0.584361 0)
(-0.0612188 0.555887 0)
(-0.00620625 0.398004 0)
(0.00273853 0.345957 0)
(0.0322937 0.242159 0)
(0.02885 0.164795 0)
(0.0261289 0.0137095 0)
(0.00810889 -0.183881 0)
(0.00357184 -0.46526 0)
(-0.00493883 -0.34065 0)
(-0.0242234 -0.0475504 0)
(-0.0528803 0.0802452 0)
(-0.0613415 0.210899 0)
(-0.0726895 0.37561 0)
(-0.0890484 0.446268 0)
(-0.0999671 0.46108 0)
(-0.0997968 0.420055 0)
(-0.0895151 0.383678 0)
(-0.0849453 0.369735 0)
(-0.0876175 0.362371 0)
(-0.101922 0.366585 0)
(-0.11198 0.384927 0)
(-0.127686 0.42369 0)
(-0.12158 0.48756 0)
(-0.0969503 0.529712 0)
(-0.0587423 0.521621 0)
(-0.00127898 0.449107 0)
(0.0359832 0.355019 0)
(0.0308581 0.327486 0)
(0.0355398 0.254026 0)
(0.0217071 0.188238 0)
(0.0201675 0.0472467 0)
(0.0111245 -0.152861 0)
(0.00263617 -0.44648 0)
(0.00131673 -0.303169 0)
(-0.0132261 -0.00396799 0)
(-0.0334115 0.120117 0)
(-0.0478285 0.239539 0)
(-0.0324645 0.409137 0)
(-0.0355648 0.500925 0)
(-0.0620258 0.489412 0)
(-0.0822795 0.433731 0)
(-0.0949721 0.39843 0)
(-0.109195 0.386062 0)
(-0.120063 0.380299 0)
(-0.129147 0.379628 0)
(-0.132291 0.38807 0)
(-0.132294 0.408783 0)
(-0.114663 0.42956 0)
(-0.0766726 0.419867 0)
(-0.0314929 0.396874 0)
(0.0186179 0.343802 0)
(0.0266672 0.335812 0)
(0.0245935 0.327106 0)
(0.0210339 0.26473 0)
(0.0158365 0.204756 0)
(0.00809665 0.0692413 0)
(0.00536342 -0.138292 0)
(-0.00636532 -0.450909 0)
(0.00554068 -0.292253 0)
(-4.95106e-05 0.0217291 0)
(-0.00548484 0.141902 0)
(-0.0154421 0.24434 0)
(0.00737352 0.388537 0)
(0.0285393 0.539706 0)
(0.0206058 0.569948 0)
(-0.015257 0.504907 0)
(-0.0471656 0.440711 0)
(-0.0744433 0.417849 0)
(-0.0852244 0.392449 0)
(-0.0951232 0.379713 0)
(-0.0920888 0.378761 0)
(-0.0788082 0.380432 0)
(-0.0424235 0.382647 0)
(-0.0100095 0.373356 0)
(0.0207356 0.343238 0)
(0.0366745 0.33488 0)
(0.0310788 0.344458 0)
(0.0335191 0.329971 0)
(0.0321827 0.272907 0)
(0.0252433 0.223398 0)
(0.0123789 0.0857396 0)
(0.000585254 -0.128334 0)
(-0.0148666 -0.472308 0)
(0.00705831 -0.296984 0)
(0.00773851 0.0233452 0)
(0.0131193 0.140687 0)
(0.0115203 0.223369 0)
(0.0157688 0.336335 0)
(0.0360129 0.514848 0)
(0.0457089 0.56711 0)
(0.0571547 0.531889 0)
(0.0485218 0.481484 0)
(0.0346284 0.420918 0)
(0.0225923 0.380891 0)
(0.00582717 0.358704 0)
(-0.00128124 0.331256 0)
(0.0134046 0.313407 0)
(0.0348932 0.310569 0)
(0.0639113 0.316343 0)
(0.0858435 0.33397 0)
(0.0937597 0.345886 0)
(0.0896126 0.338828 0)
(0.0953806 0.310141 0)
(0.0680958 0.282181 0)
(0.0726178 0.240697 0)
(0.0387146 0.135299 0)
(0.0223269 -0.0814724 0)
(-0.0115472 -0.479277 0)
(0.00595763 -0.300082 0)
(0.010815 0.0297218 0)
(0.0172237 0.148381 0)
(0.00581513 0.224331 0)
(-0.0204935 0.325309 0)
(-0.00783279 0.477542 0)
(0.0131291 0.532264 0)
(0.0530841 0.499012 0)
(0.105619 0.455096 0)
(0.146176 0.426362 0)
(0.161487 0.411646 0)
(0.173927 0.384692 0)
(0.187063 0.334373 0)
(0.190262 0.284305 0)
(0.192181 0.272012 0)
(0.199914 0.273468 0)
(0.205179 0.291889 0)
(0.192385 0.327046 0)
(0.17589 0.366816 0)
(0.15324 0.374843 0)
(0.122235 0.34058 0)
(0.0937805 0.300302 0)
(0.0604964 0.216174 0)
(0.0468787 0.0147344 0)
(-0.00269425 -0.440182 0)
(0.00788219 -0.292938 0)
(0.0154879 0.0613464 0)
(0.0184238 0.203264 0)
(-0.0217555 0.276001 0)
(-0.0558456 0.364594 0)
(-0.0690626 0.421968 0)
(-0.0140528 0.454217 0)
(0.0614881 0.358881 0)
(0.140556 0.305553 0)
(0.214239 0.301456 0)
(0.276042 0.285517 0)
(0.331409 0.240639 0)
(0.359717 0.246464 0)
(0.349043 0.259032 0)
(0.315648 0.266966 0)
(0.281529 0.286631 0)
(0.239186 0.351968 0)
(0.199541 0.395256 0)
(0.15667 0.418573 0)
(0.112792 0.421056 0)
(0.0814176 0.447455 0)
(0.0398645 0.439729 0)
(0.0472067 0.298583 0)
(0.0360558 0.0837311 0)
(-0.00344414 -0.402276 0)
(0.0218834 -0.328622 0)
(0.0294145 0.0579885 0)
(0.0396676 0.287335 0)
(0.000839467 0.369848 0)
(-0.0374151 0.401682 0)
(-0.0293189 0.370424 0)
(0.0627859 0.248603 0)
(0.124198 0.196304 0)
(0.15994 0.172418 0)
(0.195251 0.170019 0)
(0.233109 0.172279 0)
(0.261066 0.192267 0)
(0.263484 0.243883 0)
(0.238172 0.299422 0)
(0.21111 0.330749 0)
(0.164031 0.37578 0)
(0.105692 0.437566 0)
(0.0507385 0.496183 0)
(0.0062213 0.546256 0)
(-0.0292433 0.576173 0)
(-0.0533046 0.555443 0)
(-0.0244632 0.456152 0)
(0.0161972 0.289533 0)
(0.00843284 0.118664 0)
(-0.00835419 -0.385962 0)
(0.0201223 -0.418611 0)
(0.0223651 0.00749409 0)
(0.0141626 0.316054 0)
(0.00241938 0.433431 0)
(-0.0319933 0.437505 0)
(0.00208413 0.225677 0)
(0.0380535 0.181343 0)
(0.0738454 0.226028 0)
(0.0739844 0.207867 0)
(0.0775697 0.207371 0)
(0.0597901 0.205932 0)
(0.0309188 0.213301 0)
(0.00447003 0.245457 0)
(-0.0156195 0.283594 0)
(-0.0347127 0.350666 0)
(-0.0672528 0.432501 0)
(-0.105575 0.512179 0)
(-0.130343 0.567418 0)
(-0.140914 0.587912 0)
(-0.129763 0.585294 0)
(-0.0976247 0.519156 0)
(-0.037345 0.388532 0)
(-6.96102e-05 0.244621 0)
(-0.00366591 0.13103 0)
(-0.00887189 -0.384395 0)
(0.0166904 -0.461712 0)
(-0.0108373 0.00094774 0)
(-0.042875 0.319543 0)
(-0.0446586 0.444619 0)
(-0.0518362 0.44047 0)
(0.00362223 0.251248 0)
(-0.0211116 0.205618 0)
(-0.0166953 0.228883 0)
(-0.0457888 0.230908 0)
(-0.0590355 0.218286 0)
(-0.079508 0.217778 0)
(-0.0941225 0.238004 0)
(-0.104359 0.286731 0)
(-0.120801 0.330344 0)
(-0.139123 0.378213 0)
(-0.14851 0.447488 0)
(-0.154186 0.507762 0)
(-0.148389 0.548168 0)
(-0.138032 0.566387 0)
(-0.114622 0.532814 0)
(-0.0647517 0.399054 0)
(-0.0130519 0.262918 0)
(0.00842855 0.211035 0)
(-0.00355896 0.139679 0)
(-0.00622562 -0.394267 0)
(0.0112573 -0.465177 0)
(-0.0454995 0.0722803 0)
(-0.0854539 0.336024 0)
(-0.0899115 0.423432 0)
(-0.0530303 0.369269 0)
(-0.0143912 0.239259 0)
(-0.0441662 0.289093 0)
(-0.0456255 0.301069 0)
(-0.0732931 0.266884 0)
(-0.0799188 0.239567 0)
(-0.107715 0.231338 0)
(-0.121668 0.239954 0)
(-0.134926 0.278501 0)
(-0.140414 0.332182 0)
(-0.148727 0.378352 0)
(-0.142434 0.440124 0)
(-0.129339 0.491872 0)
(-0.107339 0.512354 0)
(-0.0766015 0.491271 0)
(-0.0325805 0.401124 0)
(0.00857204 0.285389 0)
(0.0247907 0.225307 0)
(0.0208904 0.217668 0)
(-0.00163832 0.172613 0)
(0.000119161 -0.393587 0)
(-0.000966721 -0.3853 0)
(-0.0435826 0.166653 0)
(-0.0772004 0.354544 0)
(-0.0825607 0.387677 0)
(-0.0568174 0.313497 0)
(-0.0591163 0.297644 0)
(-0.103085 0.316726 0)
(-0.123907 0.292555 0)
(-0.145221 0.279861 0)
(-0.159207 0.282681 0)
(-0.172684 0.295059 0)
(-0.182313 0.305378 0)
(-0.186718 0.329601 0)
(-0.168359 0.364491 0)
(-0.145585 0.39383 0)
(-0.104945 0.417594 0)
(-0.0595415 0.443199 0)
(-0.00881815 0.442215 0)
(0.032654 0.403696 0)
(0.0604474 0.33506 0)
(0.0660099 0.267211 0)
(0.0506214 0.245961 0)
(0.0244796 0.262267 0)
(-0.0012033 0.217273 0)
(0.00502877 -0.385193 0)
(0.0053371 -0.339302 0)
(-0.0142673 0.237713 0)
(-0.0476459 0.402029 0)
(-0.0633604 0.40593 0)
(-0.0646945 0.352321 0)
(-0.11124 0.40166 0)
(-0.145028 0.419581 0)
(-0.204807 0.373241 0)
(-0.232012 0.345823 0)
(-0.279717 0.318914 0)
(-0.283128 0.275845 0)
(-0.279175 0.25905 0)
(-0.249473 0.255338 0)
(-0.225614 0.268946 0)
(-0.178815 0.284601 0)
(-0.129346 0.300288 0)
(-0.0790789 0.320843 0)
(-0.0283383 0.329813 0)
(0.00787765 0.33324 0)
(0.0351186 0.316632 0)
(0.0389775 0.295974 0)
(0.0317377 0.305658 0)
(-0.00900742 0.326158 0)
(-0.00404513 0.203441 0)
(0.00589004 -0.386809 0)
(0.000598638 -0.318727 0)
(0.00587068 0.301848 0)
(-0.0166394 0.47062 0)
(-0.0397026 0.463505 0)
(-0.0477093 0.451395 0)
(-0.0982009 0.494041 0)
(-0.131813 0.503413 0)
(-0.178454 0.460907 0)
(-0.199074 0.427894 0)
(-0.249284 0.366406 0)
(-0.267256 0.287444 0)
(-0.292222 0.245776 0)
(-0.316492 0.235248 0)
(-0.323253 0.226568 0)
(-0.30605 0.208409 0)
(-0.271516 0.22275 0)
(-0.232843 0.252001 0)
(-0.188054 0.284065 0)
(-0.131302 0.309118 0)
(-0.0826528 0.305131 0)
(-0.0505131 0.298904 0)
(-0.0362483 0.316036 0)
(-0.0171688 0.316913 0)
(0.00440482 0.166127 0)
(0.00395886 -0.370558 0)
(-0.000656968 -0.320561 0)
(0.0103316 0.295031 0)
(0.0247854 0.524291 0)
(-0.00189397 0.513726 0)
(0.00493563 0.488566 0)
(0.00230602 0.591778 0)
(-0.0287058 0.598252 0)
(-0.066518 0.510327 0)
(-0.0935248 0.46719 0)
(-0.1332 0.413117 0)
(-0.15847 0.343554 0)
(-0.197386 0.313784 0)
(-0.217165 0.289042 0)
(-0.24058 0.234375 0)
(-0.256089 0.178133 0)
(-0.279512 0.172166 0)
(-0.289729 0.16762 0)
(-0.277599 0.133582 0)
(-0.22784 0.134153 0)
(-0.169592 0.160735 0)
(-0.116793 0.197487 0)
(-0.0733768 0.233831 0)
(-0.0101004 0.222001 0)
(0.012255 0.164731 0)
(0.00370888 -0.353357 0)
(0.00418884 -0.33292 0)
(0.0076655 0.259496 0)
(0.0283741 0.518659 0)
(0.0295759 0.533073 0)
(0.0361411 0.48137 0)
(0.0556337 0.582226 0)
(0.077651 0.639484 0)
(0.0512712 0.593656 0)
(0.0231615 0.514515 0)
(-0.00922329 0.429636 0)
(-0.0328797 0.355252 0)
(-0.0544945 0.302943 0)
(-0.0614211 0.290488 0)
(-0.0698344 0.283856 0)
(-0.109888 0.283449 0)
(-0.146427 0.234996 0)
(-0.171424 0.193613 0)
(-0.174114 0.115944 0)
(-0.186736 0.0840542 0)
(-0.174731 0.0751207 0)
(-0.146802 0.0962935 0)
(-0.0809885 0.100326 0)
(-0.033578 0.137377 0)
(-4.41996e-05 0.148388 0)
(0.00424195 -0.348226 0)
(0.00180908 -0.339135 0)
(-0.000440168 0.235333 0)
(0.0213775 0.477498 0)
(0.0323258 0.521057 0)
(0.041552 0.462788 0)
(0.0549287 0.524517 0)
(0.101478 0.609504 0)
(0.112651 0.592204 0)
(0.11377 0.541589 0)
(0.0958745 0.473196 0)
(0.0703343 0.402137 0)
(0.0479718 0.353144 0)
(0.0283557 0.314915 0)
(0.0163699 0.303487 0)
(0.00408387 0.281164 0)
(-0.0131708 0.244312 0)
(-0.0342815 0.164781 0)
(-0.0501087 0.123048 0)
(-0.0679582 0.107905 0)
(-0.0881689 0.0721847 0)
(-0.0810152 0.0409748 0)
(-0.052999 0.0395832 0)
(-0.029467 0.0928849 0)
(-0.00279276 0.114743 0)
(0.00493646 -0.343235 0)
(-0.00305754 -0.337878 0)
(-0.0108779 0.211321 0)
(0.0136088 0.432861 0)
(0.0291574 0.489843 0)
(0.0347459 0.450259 0)
(0.0408742 0.459727 0)
(0.0786629 0.522185 0)
(0.120007 0.550969 0)
(0.134146 0.526378 0)
(0.137957 0.489541 0)
(0.125613 0.428849 0)
(0.111856 0.375752 0)
(0.102247 0.345342 0)
(0.094287 0.331898 0)
(0.0919299 0.321028 0)
(0.0809749 0.290163 0)
(0.0642111 0.222081 0)
(0.0454583 0.138421 0)
(0.0318025 0.0870876 0)
(0.0269224 0.063419 0)
(-0.00583488 0.04144 0)
(-0.00462197 0.0497718 0)
(-0.0156782 0.10103 0)
(0.00794886 0.103412 0)
(0.00200273 -0.337818 0)
(-0.000588519 -0.32468 0)
(-0.014904 0.190116 0)
(0.000117597 0.380412 0)
(0.0160209 0.464879 0)
(0.0183424 0.444005 0)
(0.0185121 0.438082 0)
(0.0447385 0.444431 0)
(0.0836997 0.476252 0)
(0.121998 0.497641 0)
(0.139343 0.481522 0)
(0.148828 0.437729 0)
(0.147048 0.389857 0)
(0.147347 0.342839 0)
(0.147894 0.314117 0)
(0.149628 0.291605 0)
(0.152321 0.259561 0)
(0.151255 0.192431 0)
(0.143601 0.140657 0)
(0.125928 0.115083 0)
(0.10935 0.114174 0)
(0.0882683 0.107885 0)
(0.0669345 0.103373 0)
(0.0169428 0.14516 0)
(0.0205569 0.122832 0)
(-0.00283383 -0.31164 0)
(0.00776542 -0.308539 0)
(-0.0146057 0.198648 0)
(-0.0213966 0.360754 0)
(-0.0137946 0.443777 0)
(-0.00837643 0.433934 0)
(-0.00486168 0.422573 0)
(0.0177611 0.394369 0)
(0.0499583 0.399567 0)
(0.0929899 0.419678 0)
(0.130002 0.430948 0)
(0.155099 0.412943 0)
(0.180305 0.364198 0)
(0.196649 0.331759 0)
(0.212829 0.312415 0)
(0.22251 0.286635 0)
(0.230438 0.250111 0)
(0.225824 0.196098 0)
(0.209126 0.151544 0)
(0.199637 0.140864 0)
(0.179501 0.139732 0)
(0.1401 0.151487 0)
(0.0891841 0.228863 0)
(0.0284501 0.256457 0)
(0.0188471 0.189544 0)
(-0.000515263 -0.290054 0)
(0.0161684 -0.297917 0)
(-0.0218011 0.239664 0)
(-0.0514242 0.375871 0)
(-0.0518593 0.425173 0)
(-0.043823 0.423832 0)
(-0.0199087 0.40074 0)
(0.00234403 0.361636 0)
(0.0248362 0.349806 0)
(0.063776 0.359723 0)
(0.113463 0.366678 0)
(0.165564 0.34845 0)
(0.21498 0.306057 0)
(0.244777 0.272298 0)
(0.270756 0.244029 0)
(0.293282 0.235249 0)
(0.297941 0.23204 0)
(0.285926 0.224712 0)
(0.249212 0.197684 0)
(0.202031 0.1938 0)
(0.165082 0.254626 0)
(0.109962 0.318689 0)
(0.0476938 0.366334 0)
(0.0136901 0.342976 0)
(0.00899748 0.22377 0)
(0.000866079 -0.271695 0)
(0.00677994 -0.261939 0)
(-0.0160353 0.346775 0)
(-0.0617237 0.405572 0)
(-0.0631918 0.416405 0)
(-0.0684197 0.362816 0)
(-0.0321418 0.332932 0)
(0.00331843 0.325917 0)
(0.0365274 0.301681 0)
(0.0845508 0.26848 0)
(0.138072 0.245263 0)
(0.190772 0.219552 0)
(0.230595 0.217438 0)
(0.237706 0.218973 0)
(0.236293 0.219831 0)
(0.236197 0.227207 0)
(0.230529 0.255808 0)
(0.210327 0.291731 0)
(0.18188 0.326407 0)
(0.130849 0.342893 0)
(0.0862885 0.346865 0)
(0.0344584 0.431245 0)
(0.00021345 0.443606 0)
(0.00600566 0.36429 0)
(0.00675103 0.235733 0)
(-0.000354467 -0.264436 0)
(-0.0118091 -0.248069 0)
(0.00823077 0.417355 0)
(-0.0236797 0.455043 0)
(-0.0447034 0.432438 0)
(-0.0570628 0.333933 0)
(-0.0279934 0.243661 0)
(0.0132933 0.231203 0)
(0.0554292 0.19851 0)
(0.0993342 0.173997 0)
(0.126166 0.176968 0)
(0.136077 0.180058 0)
(0.145974 0.220309 0)
(0.142711 0.281745 0)
(0.137136 0.279116 0)
(0.136108 0.272389 0)
(0.125843 0.281759 0)
(0.104552 0.298596 0)
(0.0839829 0.338216 0)
(0.051465 0.376504 0)
(0.00393531 0.470528 0)
(-0.0430859 0.525883 0)
(-0.0270536 0.443687 0)
(-0.00442411 0.354759 0)
(0.00930126 0.235265 0)
(-0.000482307 -0.253834 0)
(-0.00508334 -0.249835 0)
(0.0066373 0.406713 0)
(0.0160661 0.517601 0)
(-0.0300483 0.474881 0)
(-0.0215686 0.313883 0)
(-0.00111323 0.179044 0)
(0.0182389 0.16791 0)
(0.0422067 0.144692 0)
(0.0483965 0.142392 0)
(0.0609987 0.194803 0)
(0.0501007 0.226491 0)
(0.0471111 0.2277 0)
(0.0685893 0.210384 0)
(0.0850035 0.205254 0)
(0.0762544 0.224716 0)
(0.0635334 0.291772 0)
(0.0253442 0.364715 0)
(-0.00172426 0.431787 0)
(-0.0495744 0.503927 0)
(-0.0737703 0.540587 0)
(-0.0839462 0.515277 0)
(-0.0515862 0.380991 0)
(-0.0158215 0.307262 0)
(0.00773013 0.213692 0)
(0.00126436 -0.244403 0)
(0.00348052 -0.246132 0)
(-0.00853107 0.383454 0)
(0.00725452 0.558916 0)
(-0.0312346 0.485228 0)
(0.0011898 0.257826 0)
(0.0079316 0.163624 0)
(0.00463252 0.16422 0)
(0.00670261 0.1614 0)
(-0.0145439 0.173144 0)
(-0.0229572 0.185889 0)
(-0.0327751 0.174534 0)
(-0.0190309 0.162934 0)
(-0.0160971 0.170651 0)
(-0.00953998 0.221261 0)
(-0.0264814 0.275327 0)
(-0.0458021 0.356092 0)
(-0.0616697 0.408489 0)
(-0.0698919 0.475864 0)
(-0.0757154 0.525387 0)
(-0.0729825 0.543582 0)
(-0.0694705 0.5014 0)
(-0.0460889 0.316441 0)
(-0.0183257 0.229344 0)
(-0.00059557 0.1963 0)
(0.00108795 -0.238948 0)
(0.00349397 -0.245159 0)
(-0.0125937 0.387636 0)
(-0.00502856 0.557348 0)
(-0.0211434 0.484313 0)
(0.0178113 0.213811 0)
(0.00580807 0.185586 0)
(-0.0046493 0.196034 0)
(0.00104855 0.211515 0)
(-0.0395936 0.213756 0)
(-0.0816722 0.225117 0)
(-0.101533 0.192359 0)
(-0.107191 0.178019 0)
(-0.113507 0.172043 0)
(-0.113687 0.18469 0)
(-0.0854916 0.264547 0)
(-0.0788266 0.329865 0)
(-0.0698312 0.396601 0)
(-0.065852 0.463004 0)
(-0.0546025 0.508896 0)
(-0.0474823 0.522316 0)
(-0.0210341 0.440106 0)
(-0.0129043 0.276796 0)
(-0.00524203 0.198797 0)
(-0.00143895 0.189704 0)
(0.00321628 -0.242781 0)
(-0.00372575 -0.225904 0)
(-0.0092126 0.407209 0)
(-0.0224462 0.557878 0)
(-0.00866554 0.44243 0)
(0.0167302 0.220237 0)
(0.00136827 0.1994 0)
(0.00663237 0.19966 0)
(0.00773989 0.247561 0)
(-0.00667204 0.361109 0)
(-0.0693858 0.311073 0)
(-0.0879021 0.215882 0)
(-0.139587 0.188718 0)
(-0.166691 0.16343 0)
(-0.173504 0.149204 0)
(-0.138247 0.187431 0)
(-0.0882158 0.317051 0)
(-0.0476916 0.39043 0)
(-0.0253462 0.446441 0)
(0.00262149 0.474915 0)
(0.017155 0.464372 0)
(0.0449987 0.378699 0)
(0.0314734 0.263507 0)
(0.0246042 0.19878 0)
(0.00467964 0.202363 0)
(0.00112056 -0.229261 0)
(-0.0126202 -0.212008 0)
(0.00623808 0.425153 0)
(-0.0199296 0.569638 0)
(-0.00116438 0.413262 0)
(-0.00180936 0.227816 0)
(-0.00225587 0.185339 0)
(0.00819422 0.172206 0)
(-0.00898388 0.211658 0)
(-0.00400651 0.351635 0)
(-0.0131141 0.383914 0)
(-0.024341 0.330529 0)
(-0.0740978 0.302395 0)
(-0.0937214 0.198546 0)
(-0.104833 0.126455 0)
(-0.103924 0.122167 0)
(-0.0693292 0.18769 0)
(-0.00956225 0.299635 0)
(0.0381338 0.3793 0)
(0.0685954 0.426169 0)
(0.0782774 0.416317 0)
(0.0920079 0.371775 0)
(0.0726314 0.291426 0)
(0.0497657 0.243923 0)
(0.010629 0.250304 0)
(0.000781657 -0.213253 0)
(-0.0152333 -0.205518 0)
(0.0111852 0.433858 0)
(0.00494979 0.598441 0)
(0.00405761 0.435068 0)
(-0.0368636 0.26026 0)
(-0.0654781 0.197286 0)
(-0.0754298 0.188072 0)
(-0.108485 0.233187 0)
(-0.0842857 0.33255 0)
(-0.0531998 0.367575 0)
(-0.00586361 0.333371 0)
(0.0202637 0.276098 0)
(0.0576374 0.199967 0)
(0.0319678 0.19163 0)
(0.00435891 0.168779 0)
(-0.00383931 0.178757 0)
(0.00731272 0.214862 0)
(0.0255577 0.311743 0)
(0.0529234 0.395883 0)
(0.0677932 0.404026 0)
(0.0815044 0.380264 0)
(0.0707576 0.333703 0)
(0.054483 0.308981 0)
(0.00706917 0.321154 0)
(0.00290382 -0.195681 0)
(-0.00536347 -0.211212 0)
(0.00955761 0.398907 0)
(0.035816 0.604682 0)
(0.0240693 0.516534 0)
(-0.0214286 0.374591 0)
(-0.0754207 0.27896 0)
(-0.102275 0.216492 0)
(-0.123972 0.202222 0)
(-0.0981243 0.201016 0)
(-0.0578 0.211106 0)
(0.0197248 0.17063 0)
(0.0678331 0.151525 0)
(0.0735754 0.170876 0)
(0.0429048 0.201382 0)
(0.00936961 0.217384 0)
(0.00553282 0.21898 0)
(-0.00529985 0.271979 0)
(-0.0107716 0.311887 0)
(0.0159275 0.35711 0)
(0.0444899 0.361973 0)
(0.0652216 0.368765 0)
(0.0602192 0.361645 0)
(0.0442696 0.367289 0)
(-0.000130739 0.375712 0)
(0.00674335 -0.184409 0)
(0.0049231 -0.211956 0)
(-0.00297776 0.328051 0)
(0.0336734 0.588107 0)
(0.0279863 0.53006 0)
(0.0276123 0.434834 0)
(-0.00889553 0.355604 0)
(-0.0285987 0.269114 0)
(-0.0570761 0.234749 0)
(-0.0392164 0.18931 0)
(-0.026046 0.139329 0)
(0.0181257 0.105011 0)
(0.0141546 0.154496 0)
(-0.0110558 0.25431 0)
(-0.0464804 0.318981 0)
(-0.0563873 0.24736 0)
(-0.0465907 0.224685 0)
(-0.030297 0.2566 0)
(-0.0101238 0.277324 0)
(0.0254327 0.294926 0)
(0.048893 0.313417 0)
(0.0545109 0.357497 0)
(0.0505347 0.386864 0)
(0.0183897 0.433499 0)
(-0.00426415 0.40345 0)
(0.00796235 -0.177588 0)
(0.00382687 -0.204809 0)
(-0.0214885 0.320708 0)
(0.0107468 0.54314 0)
(0.0331409 0.514036 0)
(0.0537374 0.434167 0)
(0.0360955 0.364701 0)
(0.03045 0.293142 0)
(0.00418088 0.242831 0)
(-6.39997e-05 0.197659 0)
(0.00237011 0.124765 0)
(0.00186193 0.122527 0)
(-0.0218987 0.242632 0)
(-0.039818 0.302825 0)
(-0.052436 0.281456 0)
(-0.045023 0.198205 0)
(-0.0441602 0.173941 0)
(-0.0176694 0.181653 0)
(0.0104584 0.189371 0)
(0.0399856 0.246836 0)
(0.0383972 0.307827 0)
(0.0351345 0.371951 0)
(0.0143306 0.445652 0)
(-0.0102748 0.47403 0)
(-0.0059978 0.400349 0)
(0.00850475 -0.172898 0)
(-0.00198784 -0.181594 0)
(-0.0192331 0.325642 0)
(-0.00405423 0.444167 0)
(0.0405141 0.444331 0)
(0.061857 0.413783 0)
(0.0560512 0.379866 0)
(0.0520688 0.33845 0)
(0.0272473 0.303037 0)
(0.000236114 0.22641 0)
(-0.0176474 0.157737 0)
(-0.0389228 0.168151 0)
(-0.0467636 0.23607 0)
(-0.0180556 0.307222 0)
(0.00820099 0.324363 0)
(0.00552048 0.207827 0)
(-0.0248068 0.157506 0)
(-0.0138977 0.147371 0)
(-0.00230091 0.151233 0)
(0.0100841 0.228514 0)
(0.0113319 0.325864 0)
(-0.00969734 0.404164 0)
(-0.0120948 0.468723 0)
(-0.0221079 0.477337 0)
(-0.00564949 0.358299 0)
(0.00689802 -0.176112 0)
(-0.00639983 -0.168995 0)
(-0.00283115 0.336503 0)
(-0.00613663 0.401594 0)
(0.0259194 0.388598 0)
(0.0313459 0.389265 0)
(0.043373 0.385445 0)
(0.0380884 0.368759 0)
(0.042089 0.352331 0)
(0.0204288 0.322987 0)
(-0.00748333 0.214926 0)
(-0.058534 0.181519 0)
(-0.0709112 0.180764 0)
(-0.0441103 0.173437 0)
(0.0133578 0.21652 0)
(0.0474627 0.277561 0)
(0.00673515 0.219619 0)
(-0.00205368 0.151626 0)
(-0.0120608 0.147547 0)
(-0.0147984 0.213536 0)
(-0.0100403 0.334078 0)
(-0.0239233 0.405233 0)
(-0.0103976 0.463317 0)
(-0.0131647 0.47057 0)
(0.00486568 0.32456 0)
(0.00221219 -0.169466 0)
(-0.0102451 -0.160981 0)
(0.00414646 0.341524 0)
(0.0013853 0.393191 0)
(0.0135969 0.385563 0)
(0.00851574 0.384516 0)
(0.01661 0.360929 0)
(0.0223049 0.349839 0)
(0.0437101 0.339105 0)
(0.0622507 0.341545 0)
(0.0550681 0.32579 0)
(0.0168579 0.318448 0)
(-0.0190461 0.188707 0)
(-0.0470646 0.138603 0)
(-0.0498462 0.101231 0)
(0.0164625 0.221356 0)
(0.0259424 0.242626 0)
(0.00868309 0.205121 0)
(-0.00830068 0.182853 0)
(-0.0208882 0.218186 0)
(-0.0200554 0.335026 0)
(-0.023908 0.396248 0)
(-0.00699737 0.433747 0)
(-0.00166555 0.438137 0)
(0.00915873 0.317959 0)
(0.00372185 -0.158723 0)
(-0.008926 -0.15747 0)
(0.00273087 0.322503 0)
(0.015286 0.390181 0)
(0.0130876 0.388419 0)
(0.0140137 0.38997 0)
(0.0136866 0.366399 0)
(0.010391 0.310283 0)
(0.0133312 0.262904 0)
(0.0422264 0.299795 0)
(0.0554976 0.301647 0)
(0.0745732 0.327617 0)
(0.0592739 0.332175 0)
(-0.000123278 0.240995 0)
(-0.0106297 0.0867279 0)
(-0.0053439 0.12271 0)
(0.0338272 0.237084 0)
(0.011449 0.225838 0)
(0.00527759 0.210581 0)
(-0.0185605 0.250993 0)
(-0.028151 0.331911 0)
(-0.0218629 0.373416 0)
(-0.013887 0.409121 0)
(-0.000600802 0.42328 0)
(0.00591734 0.31197 0)
(0.00433449 -0.146434 0)
(-0.00195728 -0.149246 0)
(-0.00241876 0.277288 0)
(0.0143369 0.385947 0)
(0.0143439 0.381062 0)
(0.031139 0.383851 0)
(0.0340841 0.374101 0)
(0.0319493 0.340983 0)
(0.0150418 0.276552 0)
(0.0168073 0.238525 0)
(0.0287419 0.241402 0)
(0.0455238 0.297062 0)
(0.0363195 0.336554 0)
(0.032044 0.271698 0)
(0.0525798 0.140043 0)
(0.0175919 0.144404 0)
(0.0233277 0.247342 0)
(-0.00509455 0.258992 0)
(-0.00954485 0.253378 0)