/*--------------------------------*- C++ -*----------------------------------*\
| =========                 |                                                 |
| \\      /  F ield         | OpenFOAM: The Open Source CFD Toolbox           |
|  \\    /   O peration     | Version:  2.3.0                                 |
|   \\  /    A nd           | Web:      www.OpenFOAM.org                      |
|    \\/     M anipulation  |                                                 |
\*---------------------------------------------------------------------------*/
FoamFile
{
    version     2.0;
    format      ascii;
    class       volScalarField;
    location    "95";
    object      rho;
}
// * * * * * * * * * * * * * * * * * * * * * * * * * * * * * * * * * * * * * //

dimensions      [1 -3 0 0 0 0 0];

internalField   nonuniform List<scalar> 
1875
(
724.057
770.781
795.31
794.2
790.643
785.726
779.927
773.522
766.939
760.589
754.81
750.821
749.004
748.293
748.875
752.125
758.736
767.013
776.147
786.4
793.854
790.069
762.668
719.674
734.938
764.095
795.182
824.958
835.653
840.185
839.437
837.035
832.926
827.097
819.587
810.161
798.533
786.865
776.123
767.77
759.519
759.675
763.945
772.342
783.361
793.854
807.284
810.267
790.807
815.315
830.781
844.696
858.966
863.463
864.758
863.959
862.079
859.388
855.457
850.209
843.81
835.334
822.38
805.849
789.095
772.306
761.316
757.24
764.01
776.798
791.223
805.923
810.266
805.156
827.306
917.585
909.087
895.148
887.652
883.912
879.651
874.248
868.213
861.684
854.463
846.097
836.426
825.685
812.659
796.673
777.826
760.198
753.59
757.145
770.62
788.55
804.498
809.988
806.904
827.306
974.039
946.019
909.334
900.536
894.771
887.613
878.625
867.817
858.945
850.738
841.938
831.766
820.474
807.017
790.7
771.828
754.952
753.542
758.459
773.135
791.075
805.959
811.132
809.154
827.306
990.588
948.861
902.43
902.436
894.796
883.229
871.714
859.608
848.561
838.912
828.917
817.593
804.857
790.158
774.213
760.638
754.946
755.146
764.485
780.61
797.093
809.129
813.87
812.767
824.771
990.587
934.069
888.642
897.89
883.242
865.721
851.664
838.526
826.306
815.021
803.359
791.092
778.554
767.062
759.373
757.068
756.972
763.26
776.706
791.907
804.884
813.622
817.995
817.154
818.782
990.587
903.747
868.271
878.142
853.2
833.923
818.873
805.11
792.902
781.882
772.194
764.786
760.938
759.785
759.787
760.86
767.131
778.62
791.908
803.567
812.514
818.858
823.044
821.07
811.41
982.207
867.325
841.786
845.271
815.062
797.939
784.026
773.315
765.991
762.236
760.629
760.627
761.197
762.619
766.828
773.882
784.489
795.819
805.629
813.27
819.17
824.122
828.027
823.604
804.074
962.431
832.74
814.32
812.314
785.272
772.805
763.59
759.081
758.452
759.35
760.647
763.012
767.777
774.115
782.523
792.401
802.057
810.016
816.073
820.74
824.74
828.766
832.108
824.062
798.418
940.895
804.897
793.172
791.457
771.692
764.015
759.596
758.452
758.339
760.997
766.187
773.306
781.971
791.527
800.926
809.336
815.845
820.585
824.071
826.913
829.713
832.835
835.211
823.763
793.143
923.676
786.296
780.4
781.9
766.844
761.567
758.874
758.428
761.16
768.337
778.064
788.776
799.347
808.909
816.744
822.638
826.771
829.605
831.534
833.042
834.693
836.515
837.099
822.454
775.792
912.377
774.904
771.447
776.606
764.691
760.676
759.01
760.396
768.387
779.986
792.618
804.66
814.973
822.972
828.662
832.458
834.87
836.319
837.004
837.099
837.144
837.099
837.194
814.405
740.244
906.325
766.277
760.561
772.901
763.337
760.443
759.584
765.296
777.937
792.219
805.949
817.442
826.025
831.78
835.091
836.613
837.098
837.134
837.098
837.205
837.098
837.407
836.092
794.499
740.244
902.61
760.16
756.129
770.105
762.116
760.163
761.057
771.546
786.81
802.089
815.235
824.309
829.751
833.06
835.165
836.539
837.118
837.098
837.234
837.098
837.423
837.098
823.529
779.218
740.244
900.617
756.539
756.308
768.208
761.084
759.69
762.769
776.591
792.323
806.146
816.549
823.968
829.021
832.158
834.209
835.564
836.506
837.156
837.098
836.888
834.111
828.682
815.797
793.984
766.107
900.61
757.13
756.218
767.794
760.677
759.687
762.169
775.612
791.166
804.824
815.063
822.124
826.855
829.946
832.123
833.628
834.452
834.531
832.408
828.672
823.262
818.221
817.728
834.318
837.698
899.777
762.987
757.228
766.711
761.345
759.73
760.892
771.725
786.805
800.694
811.285
818.513
823.307
826.571
829.055
830.715
831.215
829.272
824.557
820.819
818.43
815.196
812.455
863.441
908.34
893.764
777.712
760.664
765.317
762.653
760.178
760.178
765.938
778.48
792.715
804.6
813.046
818.636
822.382
825.222
827.145
827.6
825.052
820.547
819.451
819.453
820.148
810.025
857.006
939.062
882.981
799.728
768.795
766.019
763.964
761.449
760.338
761.604
768.616
780.639
793.772
804.679
812.395
817.509
821.062
823.493
824.458
823.259
820.933
819.801
821.004
825.861
809.959
837.357
940.386
869.443
823.199
785.291
769.78
765.612
763.079
761.05
761.048
762.277
768.529
779.422
791.821
802.655
810.661
816.192
819.921
822.136
822.421
821.987
821.293
822.357
827.678
810.432
818.069
940.385
853.697
841.74
809.755
781.478
769.763
765.299
762.416
761.28
761.133
762.457
767.273
774.386
786.12
798.153
807.943
814.866
819.432
821.714
822.971
823.503
824.024
827.851
812.498
807.006
934.261
837.075
853.97
835.898
803.422
780.965
770.442
765.065
762.236
761.135
760.702
758.612
758.949
763.493
777.355
792.417
804.887
813.954
819.734
822.875
825.298
825.98
828.489
814.443
801.492
923.866
817.037
859.953
856.52
829.97
801.615
782.529
771.516
765.085
761.977
759.715
758.948
757.945
758.948
761.988
773.219
788.436
802.895
814.102
821.236
825.677
827.868
829.416
814.941
798.436
915.888
783.775
860.016
860.608
850.038
826.761
802.944
784.764
772.324
764.948
760.135
758.512
758.948
758.274
758.948
762.421
772.505
787.612
803.438
816.08
824.341
829.235
829.504
814.711
796.251
911.498
769.529
856.161
861.209
860.15
847.322
826.122
804.029
785.272
771.819
762.237
758.948
757.997
758.948
758.742
759.852
764.146
774.595
790.392
807.122
820.32
828.733
829.482
814.405
794.098
909.082
769.529
847.487
860.608
860.671
856.701
843.538
823.399
801.436
782.426
767.259
758.873
758.947
758.511
758.947
759.463
761.488
767.452
779.699
796.839
813.761
826.657
829.578
814.147
791.758
907.625
769.528
831.446
861.208
860.608
859.608
852.355
837.118
815.961
794.49
774.942
758.995
758.429
758.947
758.857
759.5
761.499
765.181
773.504
788.279
806.349
822.922
829.481
813.795
790.73
907.105
776.243
812.112
854.068
859.528
860.603
856.559
844.806
825.645
804.354
782.369
758.848
758.947
758.778
758.947
759.582
761.69
765.35
771.157
782.713
799.888
818.77
829.536
811.918
790.731
907.683
800.629
804.985
817.78
846.997
860.608
858.402
847.389
828.392
804.322
781.955
758.946
758.826
758.946
758.937
759.805
762.163
765.885
771.38
780.132
795.49
815.999
828.369
800.386
791.075
909.461
841.397
806.597
787.222
828.543
858.851
857.72
846.03
826.203
801.63
778.634
758.897
758.946
758.927
759.069
760.29
762.974
766.79
772.049
780.351
793.82
814.659
826.372
768.677
791.046
909.715
885.943
805.766
787.221
822.62
855.728
855.144
841.866
820.011
794.676
772.412
758.946
759.013
759.038
759.474
761.098
764.074
767.952
773.062
781.095
794.349
814.057
824.03
769.586
792.327
909.269
918.814
800.997
787.221
827.751
853.275
850.195
833.507
808.99
784.266
766.319
759.293
759.317
759.35
760.17
762.175
765.355
769.226
774.287
782.486
796.015
813.807
819.867
767.797
797.445
905.483
930.446
794.57
789.101
836.433
850.707
841.593
819.947
794.581
774.06
762.824
759.912
759.844
759.879
761.118
763.463
766.711
770.509
775.747
784.699
798.91
813.195
813.535
769.585
806.233
898.561
930.45
793.038
797.352
841.603
845.305
827.642
802.815
781.053
767.558
762.095
760.663
760.504
760.648
762.314
764.863
768.033
771.806
777.605
787.81
802.242
812.259
805.535
767.466
817.029
889.838
930.454
793.044
808.154
840.817
834.027
809.391
787.203
772.333
764.942
762.439
761.395
761.105
761.669
763.643
766.234
769.263
773.229
780.042
791.604
805.131
810.885
797.088
769.584
827.691
880.835
930.458
793.294
814.285
836.801
816.626
792.427
777.328
768.862
764.937
762.944
762.014
761.836
762.821
764.986
767.464
770.425
774.906
783.035
795.469
806.862
809.08
790.336
767.01
834.52
874.706
930.227
787.49
812.66
827.748
798.761
781.57
772.696
767.587
764.834
763.232
762.868
762.846
764.011
766.221
768.516
771.585
776.872
786.262
798.655
807.297
807.612
787.937
769.584
831.637
875.424
928.442
766.184
806.024
814.646
786.999
776.699
770.845
767.097
764.926
763.756
763.643
763.728
765.186
767.26
769.436
772.811
779.037
789.315
800.934
807.472
807.508
789.366
766.733
814.197
878.776
925.345
765.434
790.364
801.465
781.768
775.046
770.229
767.127
765.243
764.514
764.387
764.577
766.27
768.127
770.282
774.106
781.216
791.952
802.611
807.574
807.395
790.945
769.583
774.801
882.804
921.806
763.979
765.434
791.292
778.99
774.263
769.993
767.266
765.757
765.256
765.088
765.438
767.182
768.84
771.057
775.387
783.211
793.983
803.686
807.573
807.013
790.275
766.68
769.583
884.913
918.096
765.433
764.564
784.573
776.734
773.595
769.816
767.491
766.301
765.869
765.676
766.225
767.907
769.415
771.746
776.555
784.926
795.317
803.671
807.312
806.424
788.625
769.582
768.355
886.074
915.068
764.088
765.433
780.159
775.011
773.001
769.667
767.74
766.778
766.358
766.169
766.906
768.482
769.89
772.365
777.531
786.111
795.949
803.615
806.985
805.288
787
766.744
769.582
887.086
912.746
765.433
764.751
777.235
773.802
772.548
769.594
767.992
767.188
766.779
766.615
767.494
768.957
770.301
772.921
778.178
786.136
795.871
803.583
806.717
803.659
785.301
769.582
768.384
888.589
911.015
764.473
765.432
775.249
772.962
772.225
769.604
768.245
767.524
767.097
767.065
767.989
769.359
770.649
773.308
778.269
785.996
795.56
803.233
806.201
802.414
783.289
766.873
769.581
890.64
909.648
765.432
764.97
773.85
772.359
771.924
769.617
768.494
767.759
767.363
767.487
768.377
769.709
770.982
773.293
778.163
785.75
794.813
802.509
805.443
801.384
781.655
769.581
768.449
893.137
908.529
764.787
765.432
772.773
771.817
771.647
769.649
768.656
767.983
767.778
767.595
768.633
770.022
771.261
773.307
777.846
785.233
793.911
801.852
804.645
800.178
780.347
767.033
769.581
896.135
907.565
765.431
765.145
772.039
771.365
771.647
769.756
768.735
768.393
768.118
767.768
768.887
770.206
771.315
773.414
777.358
784.374
793.139
801.034
803.912
799.043
779.033
769.58
768.57
899.454
906.712
765.043
765.431
771.752
771.318
771.641
769.917
769.036
768.689
768.142
768.281
769.195
770.295
771.435
773.298
777.105
783.562
792.15
799.988
803.163
798.033
777.756
767.216
769.58
902.935
905.914
765.431
765.251
771.406
771.258
771.482
769.93
769.404
768.668
768.292
768.638
769.517
770.557
771.674
772.94
776.79
782.819
791.004
798.991
802.3
797.121
776.571
769.58
768.701
906.517
905.181
765.233
765.43
770.918
771.082
771.482
769.951
769.267
768.832
768.294
768.64
769.534
770.764
771.654
772.96
776.231
781.984
789.999
797.957
801.38
796.197
775.495
767.46
769.579
910.109
904.34
765.43
765.328
770.923
770.939
771.471
770.004
769.374
769.015
768.278
768.782
769.579
770.626
771.516
772.977
775.883
781.216
789.05
796.933
800.434
795.247
774.491
769.579
768.842
913.628
903.511
765.367
765.43
770.83
770.907
771.332
769.951
769.588
768.961
768.293
768.728
769.654
770.694
771.568
772.885
775.527
780.716
788.21
795.973
799.4
794.317
773.614
767.706
769.579
916.916
902.433
765.429
765.372
770.616
770.774
771.332
769.985
769.388
769.127
768.259
768.442
769.583
770.802
771.665
772.731
775.081
780.298
787.552
795.061
798.276
793.398
772.938
769.578
768.971
919.959
901.128
765.428
765.429
770.679
770.792
771.291
770.021
769.474
769.255
768.293
768.273
769.505
770.639
771.605
772.466
774.911
779.803
787.018
794.213
797.104
792.471
772.474
768.002
769.578
922.793
899.993
765.509
765.411
770.602
770.844
771.122
769.968
769.627
769.151
768.256
768.293
769.288
770.604
771.54
772.478
774.705
779.403
786.524
793.403
795.948
791.52
772.229
769.578
769.095
925.47
898.46
765.857
765.428
770.349
770.737
771.123
770.019
769.405
769.244
768.292
768.261
768.636
770.523
771.544
772.516
774.473
779.086
785.968
792.593
794.861
790.628
772.153
768.283
769.577
927.964
896.389
766.815
765.419
770.265
770.655
771.093
770.116
769.461
769.093
768.241
768.292
768.259
770.17
771.444
772.39
774.459
778.757
785.27
791.74
793.897
789.945
772.189
769.577
769.213
930.271
894.19
768.253
765.573
770.04
770.594
770.967
770.093
769.545
768.384
768.292
768.247
768.292
769.928
771.244
772.305
774.285
778.405
784.46
790.801
793.124
789.658
772.362
768.596
769.577
932.375
891.507
770.201
765.924
769.536
770.371
771.021
770.171
769.306
768.291
768.244
768.291
768.25
769.648
771.005
772.239
774.009
777.992
783.617
789.762
792.537
789.669
772.889
769.577
769.324
934.312
888.341
772.96
766.278
768.831
770.122
771.024
770.35
769.358
768.244
768.291
768.251
768.291
768.899
770.581
772.04
774.056
777.549
782.603
788.645
792.01
789.706
773.992
768.937
769.576
936.165
885.374
775.985
767.085
767.353
769.791
771.008
770.283
769.507
768.291
768.255
768.291
768.252
768.291
769.955
771.613
773.796
777.001
781.473
787.244
791.245
789.632
775.703
769.576
769.426
937.507
882.098
778.672
767.895
765.403
768.904
770.656
769.979
769.167
768.257
768.29
768.256
768.29
768.26
769.03
770.679
772.756
775.813
779.727
784.774
789.517
788.997
777.589
769.298
769.576
937.505
878.707
780.826
767.566
765.426
767.597
769.912
769.469
768.514
768.29
768.27
768.29
768.272
768.29
768.281
769.3
771.209
773.873
777.244
781.554
787.018
787.774
779.62
769.575
769.543
937.099
880.319
783.269
767.91
765.952
768.034
770.565
770.362
769.516
769.284
769.238
769.189
769.319
769.295
769.313
770.108
771.921
774.635
778.004
782.254
788.432
789.274
784.828
771.857
772.431
936.087
887.651
788.56
773.144
771.977
773.459
776.235
776.701
776.205
775.999
776.024
776.048
776.315
776.4
776.633
777.353
779.073
781.89
785.419
789.578
796.602
796.616
796.616
784.761
785.129
936.38
882.319
787.465
781.746
780.245
779.263
781.712
783.129
783.201
783.201
783.206
783.205
783.248
783.249
783.306
783.699
784.892
787.088
790.201
793.748
796.616
796.616
796.616
796.616
793.38
923.275
754.007
705.338
707.861
699.271
694.561
696.481
699.225
701.078
701.423
701.227
700.644
699.644
697.848
695.584
693.532
691.988
691.03
690.504
689.943
689.576
688.434
688.729
691.945
687.205
747.24
245.566
299.518
315.362
308.243
305.57
308.201
312.887
317.193
318.701
318.887
318.234
316.254
312.41
307.225
301.623
295.331
288.159
280.1
271.232
262.433
254.63
249.08
248.325
237.837
190.394
15.0683
26.1554
32.8252
34.0522
34.6094
35.2939
36.1452
36.9279
37.3325
37.4683
37.3751
36.9882
36.2407
35.2175
34.0395
32.6678
31.097
29.3613
27.578
25.9046
24.4724
23.348
22.2707
17.7056
9.55182
1.03862
1.26032
1.7455
1.95066
1.96427
1.9583
1.96003
1.96865
1.97722
1.98091
1.9767
1.96264
1.93781
1.90479
1.86646
1.82339
1.77642
1.72805
1.68277
1.64535
1.62015
1.60418
1.51616
1.20255
1.03503
0.993738
0.993942
0.997454
1.00082
1.00121
1.00173
1.00259
1.00366
1.00468
1.00546
1.00603
1.00644
1.00681
1.00711
1.00732
1.00712
1.00661
1.00565
1.00403
1.00184
0.999972
0.999052
0.99751
0.993813
0.993368
0.994507
0.994819
0.995785
0.998258
1.00291
1.00986
1.01907
1.02955
1.03953
1.04643
1.05194
1.05676
1.06283
1.06945
1.07676
1.0794
1.07749
1.07131
1.05672
1.03121
1.0113
1.00021
0.995485
0.993941
0.993556
0.996597
0.998697
1.00394
1.01561
1.03658
1.06796
1.10015
1.12533
1.1405
1.14629
1.14877
1.14981
1.15109
1.15231
1.15361
1.15412
1.15408
1.15335
1.14871
1.1282
1.07569
1.02315
1.00286
0.996169
0.994286
1.00532
1.0165
1.03995
1.07802
1.11569
1.13611
1.15167
1.15717
1.15823
1.15842
1.15847
1.15849
1.15851
1.15853
1.15856
1.15857
1.15857
1.15856
1.1584
1.1564
1.13596
1.07827
1.02799
1.00557
0.997517
)
;

boundaryField
{
    inlet
    {
        type            calculated;
        value           nonuniform List<scalar> 
25
(
514.171
514.171
514.171
514.171
514.171
514.171
514.171
514.171
514.171
514.171
514.171
514.171
514.171
514.171
514.171
514.171
514.171
514.171
514.171
514.171
514.171
514.171
514.171
514.171
514.171
)
;
    }
    outlet
    {
        type            calculated;
        value           nonuniform List<scalar> 
25
(
1.00543
1.01675
1.04048
1.07887
1.11624
1.1363
1.15862
1.15862
1.15862
1.15862
1.15862
1.15862
1.15862
1.15862
1.15862
1.15862
1.15862
1.15862
1.15862
1.15862
1.13556
1.07758
1.02767
1.00545
0.997476
)
;
    }
    walls
    {
        type            calculated;
        value           nonuniform List<scalar> 
150
(
724.057
764.095
830.781
917.585
974.039
990.588
990.587
990.587
982.207
962.431
940.895
923.676
912.377
906.325
902.61
900.617
900.61
899.777
893.764
882.981
869.443
853.697
837.075
817.037
783.775
769.529
769.529
769.528
776.243
800.629
841.397
885.943
918.814
930.446
930.45
930.454
930.458
930.227
928.442
925.345
921.806
918.096
915.068
912.746
911.015
909.648
908.529
907.565
906.712
905.914
905.181
904.34
903.511
902.433
901.128
899.993
898.46
896.389
894.19
891.507
888.341
885.374
882.098
878.707
880.319
887.651
882.319
754.007
245.566
15.0683
1.03862
0.993738
0.994507
0.996597
1.00532
734.938
815.315
827.306
827.306
827.306
824.771
818.782
811.41
804.074
798.418
793.143
775.792
740.244
740.244
740.244
766.107
837.698
908.34
939.062
940.386
940.385
934.261
923.866
915.888
911.498
909.082
907.625
907.105
907.683
909.461
909.715
909.269
905.483
898.561
889.838
880.835
874.706
875.424
878.776
882.804
884.913
886.074
887.086
888.589
890.64
893.137
896.135
899.454
902.935
906.517
910.109
913.628
916.916
919.959
922.793
925.47
927.964
930.271
932.375
934.312
936.165
937.507
937.505
937.099
936.087
936.38
923.275
747.24
190.394
9.55182
1.03503
0.993368
0.993556
0.994286
0.997517
)
;
    }
    defaultFaces
    {
        type            empty;
    }
}


// ************************************************************************* //
