/*--------------------------------*- C++ -*----------------------------------*\
| =========                 |                                                 |
| \\      /  F ield         | OpenFOAM: The Open Source CFD Toolbox           |
|  \\    /   O peration     | Version:  2.3.0                                 |
|   \\  /    A nd           | Web:      www.OpenFOAM.org                      |
|    \\/     M anipulation  |                                                 |
\*---------------------------------------------------------------------------*/
FoamFile
{
    version     2.0;
    format      ascii;
    class       volVectorField;
    location    "0.12";
    object      U.particlesMean;
}
// * * * * * * * * * * * * * * * * * * * * * * * * * * * * * * * * * * * * * //

dimensions      [0 1 -1 0 0 0 0];

internalField   nonuniform List<vector> 
6000
(
(0.00854353 -0.184759 0)
(0.0173786 -0.185334 0)
(0.0272788 -0.185908 0)
(0.0328693 -0.186134 0)
(0.0358026 -0.185436 0)
(0.0366121 -0.18491 0)
(0.0357727 -0.184614 0)
(0.0335796 -0.184235 0)
(0.0302998 -0.183734 0)
(0.026285 -0.183378 0)
(0.0218261 -0.183118 0)
(0.0171087 -0.182986 0)
(0.0122677 -0.182929 0)
(0.00736938 -0.182886 0)
(0.00244943 -0.182851 0)
(-0.00248776 -0.182851 0)
(-0.00741341 -0.182888 0)
(-0.0123149 -0.182928 0)
(-0.0171586 -0.182988 0)
(-0.0218785 -0.183118 0)
(-0.0263409 -0.183377 0)
(-0.0303584 -0.183738 0)
(-0.0336426 -0.18424 0)
(-0.0358364 -0.184623 0)
(-0.0366747 -0.18492 0)
(-0.0358572 -0.185468 0)
(-0.0329158 -0.186143 0)
(-0.0273116 -0.185909 0)
(-0.0174088 -0.185339 0)
(-0.00854807 -0.184614 0)
(0.0225785 -0.032729 0)
(0.0311932 -0.0120054 0)
(0.0411075 -0.00552952 0)
(0.0459025 -0.00450548 0)
(0.047905 -0.00452293 0)
(0.047365 -0.00318869 0)
(0.0451065 -0.0014087 0)
(0.0410457 0.000136009 0)
(0.0362226 0.000714747 0)
(0.0309531 0.00101066 0)
(0.025422 0.00102519 0)
(0.0197689 0.00103052 0)
(0.0140789 0.000946987 0)
(0.008402 0.000915181 0)
(0.0027694 0.000813289 0)
(-0.00283375 0.000792207 0)
(-0.0084663 0.000893364 0)
(-0.014142 0.000921234 0)
(-0.0198318 0.00100933 0)
(-0.0254865 0.00100173 0)
(-0.0310209 0.000990794 0)
(-0.0362953 0.000694633 0)
(-0.0411247 0.000117979 0)
(-0.0451886 -0.00142891 0)
(-0.0474412 -0.00320368 0)
(-0.0479704 -0.00453191 0)
(-0.0459373 -0.0045419 0)
(-0.0411121 -0.00556644 0)
(-0.0311784 -0.0120112 0)
(-0.0225688 -0.0327781 0)
(0.0261048 -0.0266188 0)
(0.0388643 -0.0056948 0)
(0.0528319 0.0116557 0)
(0.0598214 0.0247507 0)
(0.0601798 0.0326146 0)
(0.0568549 0.037084 0)
(0.0517758 0.0402994 0)
(0.0458208 0.0428318 0)
(0.0395374 0.044703 0)
(0.0332 0.0458693 0)
(0.0269262 0.0465383 0)
(0.0207598 0.0468643 0)
(0.014705 0.0470255 0)
(0.00874748 0.0470669 0)
(0.00286617 0.0470777 0)
(-0.00296682 0.0470635 0)
(-0.00883589 0.0470483 0)
(-0.0147834 0.0470023 0)
(-0.0208316 0.0468458 0)
(-0.0269965 0.0465204 0)
(-0.0332725 0.0458583 0)
(-0.0396163 0.0446923 0)
(-0.0459084 0.0428272 0)
(-0.0518733 0.0402913 0)
(-0.0569554 0.0370694 0)
(-0.0602677 0.0325719 0)
(-0.0598679 0.0246837 0)
(-0.0528219 0.011592 0)
(-0.0388102 -0.00570358 0)
(-0.0260577 -0.0265902 0)
(0.0264949 -0.0210466 0)
(0.0400936 0.00589612 0)
(0.0547057 0.0279179 0)
(0.0644744 0.0462671 0)
(0.0669532 0.0593765 0)
(0.0632263 0.0666634 0)
(0.0563298 0.0703259 0)
(0.0485531 0.0724332 0)
(0.0409059 0.0737711 0)
(0.0337054 0.0745688 0)
(0.0269659 0.0749574 0)
(0.0206016 0.0750937 0)
(0.0145146 0.0751027 0)
(0.00861583 0.0750655 0)
(0.00282459 0.0750258 0)
(-0.00293003 0.0750174 0)
(-0.00870903 0.075055 0)
(-0.0145961 0.0750944 0)
(-0.0206744 0.0750891 0)
(-0.027034 0.074961 0)
(-0.0337743 0.0745803 0)
(-0.0409821 0.0737953 0)
(-0.0486462 0.0724684 0)
(-0.056449 0.0703672 0)
(-0.0633737 0.0666858 0)
(-0.0671044 0.0593446 0)
(-0.0645854 0.0461668 0)
(-0.0547523 0.0277967 0)
(-0.0400618 0.00583898 0)
(-0.0264246 -0.0210047 0)
(0.0261165 -0.00992021 0)
(0.0399352 0.0232783 0)
(0.053487 0.0500214 0)
(0.0635794 0.0727727 0)
(0.0677336 0.0903784 0)
(0.0653098 0.10091 0)
(0.0584157 0.105531 0)
(0.0498222 0.107035 0)
(0.0412918 0.10737 0)
(0.0334749 0.107319 0)
(0.0264309 0.107117 0)
(0.0200042 0.106861 0)
(0.0140121 0.106615 0)
(0.00829624 0.106425 0)
(0.00272217 0.106312 0)
(-0.00281135 0.106307 0)
(-0.00838119 0.106421 0)
(-0.0140887 0.106613 0)
(-0.0200719 0.106864 0)
(-0.0264919 0.107129 0)
(-0.0335333 0.107344 0)
(-0.0413574 0.107415 0)
(-0.0499122 0.107104 0)
(-0.0585518 0.105618 0)
(-0.0655063 0.100983 0)
(-0.0679795 0.0903868 0)
(-0.0638361 0.0726636 0)
(-0.0537151 0.0498231 0)
(-0.0400421 0.0230977 0)
(-0.0261147 -0.00991916 0)
(0.0262053 -0.000904416 0)
(0.0407385 0.0390349 0)
(0.0520398 0.0713192 0)
(0.0604442 0.0990691 0)
(0.0642735 0.121317 0)
(0.0627546 0.135307 0)
(0.0568473 0.141685 0)
(0.048707 0.143341 0)
(0.0402495 0.143008 0)
(0.0324132 0.142149 0)
(0.0254097 0.141293 0)
(0.0191177 0.140577 0)
(0.0133362 0.140031 0)
(0.00787885 0.139658 0)
(0.00258777 0.139463 0)
(-0.00265916 0.139459 0)
(-0.00795188 0.139654 0)
(-0.0134043 0.140027 0)
(-0.0191771 0.140577 0)
(-0.0254591 0.141303 0)
(-0.0324543 0.142177 0)
(-0.0402914 0.143062 0)
(-0.048771 0.143434 0)
(-0.0569686 0.141819 0)
(-0.0629714 0.135455 0)
(-0.0646046 0.121421 0)
(-0.0608822 0.0990226 0)
(-0.0525652 0.0710586 0)
(-0.0411856 0.0386393 0)
(-0.0264337 -0.00107278 0)
(0.0266485 0.00471538 0)
(0.0419078 0.0523725 0)
(0.0506552 0.0908043 0)
(0.056006 0.123932 0)
(0.0581583 0.15064 0)
(0.0565759 0.167971 0)
(0.051839 0.176371 0)
(0.0450319 0.178752 0)
(0.0375816 0.178245 0)
(0.0304091 0.176863 0)
(0.0238685 0.175473 0)
(0.0179492 0.174339 0)
(0.0125086 0.173504 0)
(0.00738348 0.172954 0)
(0.00242545 0.172678 0)
(-0.00248729 0.172672 0)
(-0.00744798 0.172945 0)
(-0.0125685 0.173492 0)
(-0.0179986 0.174328 0)
(-0.023902 0.175468 0)
(-0.0304234 0.176876 0)
(-0.0375793 0.17829 0)
(-0.0450271 0.17885 0)
(-0.0518709 0.176537 0)
(-0.0567062 0.16819 0)
(-0.0584592 0.150853 0)
(-0.0564967 0.124033 0)
(-0.0513581 0.090608 0)
(-0.0427016 0.0517665 0)
(-0.0272311 0.00425807 0)
(0.0262211 0.00660562 0)
(0.04201 0.06272 0)
(0.0485774 0.108191 0)
(0.0506268 0.147071 0)
(0.0499226 0.178213 0)
(0.0475689 0.198252 0)
(0.0440008 0.208388 0)
(0.0390898 0.211734 0)
(0.0333244 0.211452 0)
(0.0274239 0.209877 0)
(0.0217538 0.208157 0)
(0.0164591 0.206711 0)
(0.0115066 0.205636 0)
(0.00680058 0.204932 0)
(0.00223272 0.20458 0)
(-0.00229455 0.204573 0)
(-0.0068628 0.204913 0)
(-0.0115621 0.205611 0)
(-0.0165002 0.20668 0)
(-0.0217712 0.208128 0)
(-0.0274058 0.209859 0)
(-0.0332567 0.211464 0)
(-0.0389758 0.211805 0)
(-0.0438463 0.208555 0)
(-0.0474303 0.198554 0)
(-0.0499232 0.178646 0)
(-0.050946 0.147467 0)
(-0.0492558 0.108144 0)
(-0.0428436 0.0620029 0)
(-0.0270213 0.00569842 0)
(0.0246367 0.00462258 0)
(0.0394824 0.0701582 0)
(0.0448321 0.122847 0)
(0.0440378 0.168274 0)
(0.040261 0.203565 0)
(0.0370489 0.225718 0)
(0.0346345 0.237252 0)
(0.0316926 0.241599 0)
(0.0279987 0.241913 0)
(0.0236388 0.240448 0)
(0.0191331 0.23863 0)
(0.0146656 0.237012 0)
(0.0103339 0.235778 0)
(0.00613145 0.234958 0)
(0.00201223 0.234547 0)
(-0.00207961 0.234537 0)
(-0.00619669 0.234935 0)
(-0.0103901 0.23574 0)
(-0.0147044 0.236963 0)
(-0.0191416 0.238572 0)
(-0.023596 0.240387 0)
(-0.0278894 0.241867 0)
(-0.0314546 0.241588 0)
(-0.0342697 0.237348 0)
(-0.0365395 0.226005 0)
(-0.0397079 0.204125 0)
(-0.043854 0.169069 0)
(-0.0450627 0.123124 0)
(-0.0398695 0.0694826 0)
(-0.025148 0.0030851 0)
(0.0206866 -0.000760217 0)
(0.033241 0.0749328 0)
(0.0379673 0.135763 0)
(0.0359671 0.187062 0)
(0.0300234 0.225915 0)
(0.0266016 0.249747 0)
(0.0252809 0.262528 0)
(0.0240366 0.267919 0)
(0.0222417 0.2691 0)
(0.0194917 0.268104 0)
(0.0161971 0.266429 0)
(0.0126584 0.26481 0)
(0.00903002 0.263519 0)
(0.00539347 0.262647 0)
(0.00176973 0.262212 0)
(-0.00184558 0.262204 0)
(-0.00546594 0.262618 0)
(-0.00909338 0.263472 0)
(-0.012704 0.264742 0)
(-0.0162105 0.266339 0)
(-0.0194548 0.267992 0)
(-0.022098 0.268962 0)
(-0.0237597 0.267777 0)
(-0.0247789 0.26245 0)
(-0.025778 0.249844 0)
(-0.0288123 0.226403 0)
(-0.0348559 0.187943 0)
(-0.0370976 0.136808 0)
(-0.0327625 0.0743758 0)
(-0.0205389 -0.00251963 0)
(0.0132696 -0.00597512 0)
(0.0232466 0.0777801 0)
(0.0283426 0.146059 0)
(0.0265619 0.203488 0)
(0.0205639 0.244804 0)
(0.0176617 0.270017 0)
(0.0171511 0.284078 0)
(0.0171859 0.290724 0)
(0.0166614 0.292814 0)
(0.0153355 0.292559 0)
(0.0131837 0.291235 0)
(0.0105594 0.289771 0)
(0.00765649 0.288529 0)
(0.00461461 0.287656 0)
(0.00151418 0.287201 0)
(-0.0016006 0.287189 0)
(-0.00469839 0.287625 0)
(-0.00773328 0.288474 0)
(-0.0106233 0.289688 0)
(-0.0132236 0.291115 0)
(-0.0153262 0.292391 0)
(-0.0165714 0.292579 0)
(-0.0169564 0.290432 0)
(-0.016686 0.283749 0)
(-0.0168106 0.269761 0)
(-0.0192041 0.244895 0)
(-0.0246952 0.204339 0)
(-0.0268297 0.146461 0)
(-0.0214717 0.0775943 0)
(-0.01248 -0.00738145 0)
(0.00521297 -0.00832358 0)
(0.0129853 0.0802412 0)
(0.019828 0.155112 0)
(0.0181293 0.217624 0)
(0.0137236 0.260209 0)
(0.0112326 0.286722 0)
(0.0109682 0.302134 0)
(0.0115624 0.310057 0)
(0.0119041 0.313221 0)
(0.0114948 0.313719 0)
(0.0103119 0.312938 0)
(0.00849418 0.311754 0)
(0.00628083 0.310653 0)
(0.00382775 0.309844 0)
(0.0012549 0.30941 0)
(-0.00135269 0.309401 0)
(-0.00392506 0.309812 0)
(-0.00637669 0.310596 0)
(-0.0085861 0.311662 0)
(-0.0103961 0.3128 0)
(-0.0115575 0.313507 0)
(-0.0119196 0.312918 0)
(-0.0114907 0.309625 0)
(-0.010722 0.301558 0)
(-0.0106575 0.28606 0)
(-0.0126042 0.259778 0)
(-0.0162239 0.2182 0)
(-0.0176155 0.156669 0)
(-0.0106445 0.0808206 0)
(-0.00385079 -0.0086214 0)
(0.000954091 -0.00756528 0)
(0.00885641 0.0808482 0)
(0.0137493 0.164191 0)
(0.0129795 0.228964 0)
(0.00993202 0.272742 0)
(0.00753746 0.300499 0)
(0.00692682 0.317174 0)
(0.0074529 0.326291 0)
(0.00811092 0.330507 0)
(0.00826277 0.331809 0)
(0.00773499 0.331614 0)
(0.00658157 0.330805 0)
(0.00497139 0.329916 0)
(0.00306728 0.329224 0)
(0.00100328 0.328864 0)
(-0.00111145 0.328855 0)
(-0.00317835 0.329196 0)
(-0.00508792 0.329861 0)
(-0.0067081 0.330717 0)
(-0.00787448 0.331473 0)
(-0.00841996 0.331586 0)
(-0.00828022 0.330164 0)
(-0.00762112 0.32577 0)
(-0.00703852 0.316414 0)
(-0.007451 0.29948 0)
(-0.00936232 0.271763 0)
(-0.0114605 0.228988 0)
(-0.0110179 0.165882 0)
(-0.00710597 0.0815089 0)
(0.000792226 -0.00592528 0)
(0.00145062 -0.0105904 0)
(0.00915744 0.0830256 0)
(0.0122217 0.170854 0)
(0.0112969 0.238214 0)
(0.00872991 0.28342 0)
(0.00609257 0.312219 0)
(0.00478463 0.329868 0)
(0.00481392 0.339943 0)
(0.00535694 0.34506 0)
(0.0057152 0.347131 0)
(0.00557702 0.347514 0)
(0.00490611 0.347119 0)
(0.00378774 0.346487 0)
(0.00236664 0.34594 0)
(0.000769556 0.345638 0)
(-0.000884527 0.345631 0)
(-0.00248743 0.345917 0)
(-0.00392276 0.346447 0)
(-0.00506571 0.347048 0)
(-0.00577628 0.347398 0)
(-0.00597443 0.346938 0)
(-0.00570018 0.344742 0)
(-0.00526349 0.339425 0)
(-0.00534328 0.329044 0)
(-0.00663289 0.310959 0)
(-0.00889951 0.281735 0)
(-0.0103658 0.236941 0)
(-0.00941008 0.172091 0)
(-0.00507368 0.0869196 0)
(0.00234242 -0.00981555 0)
(0.00755956 -0.0181251 0)
(0.011482 0.0841784 0)
(0.0128202 0.176242 0)
(0.0116195 0.246247 0)
(0.00893363 0.293291 0)
(0.00593927 0.322801 0)
(0.00401436 0.340912 0)
(0.00340979 0.35157 0)
(0.00357531 0.357354 0)
(0.00386453 0.360067 0)
(0.00388885 0.36099 0)
(0.0035186 0.360995 0)
(0.00277774 0.360643 0)
(0.00175553 0.360263 0)
(0.000566095 0.360035 0)
(-0.000680613 0.360032 0)
(-0.00187943 0.360254 0)
(-0.00292248 0.360624 0)
(-0.00370234 0.36096 0)
(-0.00413578 0.360924 0)
(-0.00421289 0.359948 0)
(-0.00407951 0.357135 0)
(-0.00414578 0.351171 0)
(-0.00506728 0.34017 0)
(-0.00734313 0.321443 0)
(-0.0102663 0.291117 0)
(-0.0121822 0.243727 0)
(-0.0121795 0.175677 0)
(-0.0071387 0.0888638 0)
(-0.00189254 -0.0147692 0)
(0.0108595 -0.0244074 0)
(0.0112796 0.0833375 0)
(0.0115099 0.180708 0)
(0.0110891 0.254631 0)
(0.00878446 0.303211 0)
(0.00605341 0.332803 0)
(0.00393048 0.350903 0)
(0.00287407 0.361743 0)
(0.00260575 0.367908 0)
(0.00266688 0.371085 0)
(0.00267993 0.372453 0)
(0.00246029 0.372827 0)
(0.001972 0.372744 0)
(0.00125886 0.372538 0)
(0.000401583 0.372393 0)
(-0.000507081 0.372395 0)
(-0.00137524 0.372543 0)
(-0.00211331 0.372753 0)
(-0.00264734 0.372838 0)
(-0.00294584 0.372466 0)
(-0.00306226 0.371087 0)
(-0.00321679 0.367875 0)
(-0.00384222 0.36161 0)
(-0.00548562 0.3505 0)
(-0.00851026 0.331726 0)
(-0.0124439 0.300524 0)
(-0.015338 0.250623 0)
(-0.0166474 0.178638 0)
(-0.016355 0.087506 0)
(-0.00767414 -0.0144231 0)
(0.00485241 -0.0288388 0)
(0.00786841 0.0806865 0)
(0.00933359 0.184605 0)
(0.00919875 0.262785 0)
(0.00780968 0.312173 0)
(0.0058169 0.342218 0)
(0.0040353 0.360182 0)
(0.0028259 0.370962 0)
(0.0022317 0.377261 0)
(0.00202108 0.38071 0)
(0.00191944 0.382396 0)
(0.00173232 0.383066 0)
(0.00138848 0.38322 0)
(0.000888403 0.383174 0)
(0.000281035 0.383111 0)
(-0.000367192 0.383118 0)
(-0.000984468 0.383196 0)
(-0.00150687 0.38326 0)
(-0.00189496 0.383133 0)
(-0.0021574 0.382499 0)
(-0.00238992 0.380863 0)
(-0.00282711 0.377479 0)
(-0.00383161 0.371253 0)
(-0.00578026 0.360482 0)
(-0.00888418 0.342217 0)
(-0.0129157 0.311011 0)
(-0.0161932 0.258018 0)
(-0.0173243 0.180572 0)
(-0.0197294 0.0830218 0)
(-0.0178255 -0.020191 0)
(-0.00523541 -0.0283485 0)
(0.00207485 0.0837993 0)
(0.00681843 0.19068 0)
(0.00746848 0.270598 0)
(0.00663289 0.321154 0)
(0.00570921 0.35095 0)
(0.00427684 0.368897 0)
(0.00306054 0.379596 0)
(0.00224874 0.385888 0)
(0.00179435 0.389448 0)
(0.00153218 0.391322 0)
(0.0013026 0.392198 0)
(0.00101497 0.392533 0)
(0.000643643 0.392619 0)
(0.000204679 0.392625 0)
(-0.000260927 0.392636 0)
(-0.000705854 0.392654 0)
(-0.00109205 0.3926 0)
(-0.00140758 0.392312 0)
(-0.00168738 0.391507 0)
(-0.00203628 0.389745 0)
(-0.00264683 0.386363 0)
(-0.00375048 0.380353 0)
(-0.00552414 0.37006 0)
(-0.00797278 0.352431 0)
(-0.010804 0.321497 0)
(-0.0137617 0.266917 0)
(-0.0148331 0.182366 0)
(-0.0149827 0.0792576 0)
(-0.0141388 -0.0294167 0)
(-0.0122236 -0.0249281 0)
(-0.00147502 0.0902715 0)
(0.00337098 0.200682 0)
(0.0057079 0.276956 0)
(0.00697195 0.32749 0)
(0.00616791 0.358985 0)
(0.00485994 0.37728 0)
(0.00352961 0.387945 0)
(0.0025187 0.394161 0)
(0.00184807 0.397715 0)
(0.00141991 0.399659 0)
(0.00110625 0.400647 0)
(0.00081702 0.401097 0)
(0.000505995 0.401273 0)
(0.000166554 0.401331 0)
(-0.000185436 0.401343 0)
(-0.000525405 0.401315 0)
(-0.000837378 0.401176 0)
(-0.00112909 0.400784 0)
(-0.00144478 0.399887 0)
(-0.00187628 0.39809 0)
(-0.00255 0.394786 0)
(-0.00356761 0.388989 0)
(-0.00494349 0.379003 0)
(-0.00646474 0.361639 0)
(-0.00789581 0.330739 0)
(-0.010795 0.276107 0)
(-0.011989 0.186453 0)
(-0.00657643 0.0701788 0)
(-0.000295912 -0.0292786 0)
(-0.00852398 -0.0176108 0)
(-0.00162353 0.102207 0)
(0.00631443 0.205175 0)
(0.00872387 0.281917 0)
(0.0086786 0.334656 0)
(0.00753938 0.367008 0)
(0.00579597 0.385644 0)
(0.00418243 0.396265 0)
(0.00293358 0.402337 0)
(0.00206131 0.405787 0)
(0.0014744 0.407701 0)
(0.00106626 0.408713 0)
(0.000741948 0.409212 0)
(0.000447216 0.409435 0)
(0.000155671 0.409521 0)
(-0.000135611 0.409533 0)
(-0.000421115 0.409474 0)
(-0.000702738 0.409285 0)
(-0.000999492 0.408839 0)
(-0.00135729 0.407909 0)
(-0.00184949 0.40613 0)
(-0.00255099 0.40291 0)
(-0.00349011 0.397239 0)
(-0.00458406 0.387313 0)
(-0.00556804 0.369863 0)
(-0.00606614 0.339062 0)
(-0.0068234 0.284839 0)
(-0.00680949 0.196736 0)
(-0.00213069 0.0751397 0)
(0.012573 -0.0284595 0)
(-0.000538816 -0.0157085 0)
(0.0114894 0.105402 0)
(0.0230698 0.201734 0)
(0.0182372 0.285061 0)
(0.0132097 0.342264 0)
(0.0103332 0.37566 0)
(0.00721491 0.394354 0)
(0.00497519 0.404769 0)
(0.00340087 0.410585 0)
(0.00232465 0.413829 0)
(0.0016002 0.415619 0)
(0.00110322 0.416578 0)
(0.00073639 0.417066 0)
(0.00043403 0.417296 0)
(0.000159122 0.417387 0)
(-0.000106004 0.417395 0)
(-0.000370306 0.417322 0)
(-0.000647954 0.417113 0)
(-0.000966773 0.416655 0)
(-0.00137265 0.415742 0)
(-0.00192914 0.414021 0)
(-0.00269081 0.410897 0)
(-0.00367872 0.405308 0)
(-0.00481295 0.395326 0)
(-0.00580549 0.377338 0)
(-0.00632443 0.345176 0)
(-0.00523101 0.292499 0)
(-0.00174372 0.211216 0)
(0.00257942 0.0901276 0)
(0.0179972 -0.025075 0)
(0.0131973 -0.00702429 0)
(0.0358399 0.0973887 0)
(0.0326344 0.197702 0)
(0.0264019 0.281556 0)
(0.0193017 0.348509 0)
(0.0131445 0.385785 0)
(0.0085147 0.403974 0)
(0.00561525 0.413708 0)
(0.00374558 0.419017 0)
(0.0025208 0.42192 0)
(0.00170412 0.423498 0)
(0.00115 0.424336 0)
(0.000750733 0.424765 0)
(0.000437501 0.424968 0)
(0.000165788 0.42505 0)
(-9.04919e-05 0.425053 0)
(-0.000350901 0.424977 0)
(-0.000638263 0.424776 0)
(-0.000985676 0.424345 0)
(-0.00144373 0.423491 0)
(-0.00207761 0.421875 0)
(-0.0029552 0.418891 0)
(-0.00414719 0.413436 0)
(-0.00569458 0.403457 0)
(-0.00757265 0.385242 0)
(-0.00910264 0.352889 0)
(-0.0113359 0.296496 0)
(-0.00996217 0.213429 0)
(-0.000577979 0.104198 0)
(0.00981283 -0.0190303 0)
(0.0258562 -0.0177177 0)
(0.0333343 0.0859575 0)
(0.0285368 0.194187 0)
(0.0246249 0.287882 0)
(0.0184687 0.359289 0)
(0.0121671 0.397265 0)
(0.00831253 0.414295 0)
(0.00555015 0.422966 0)
(0.00373045 0.427571 0)
(0.00252281 0.43004 0)
(0.00171057 0.431348 0)
(0.0011517 0.432026 0)
(0.000749216 0.432364 0)
(0.00043582 0.432521 0)
(0.000168338 0.432582 0)
(-8.3284e-05 0.43258 0)
(-0.000343971 0.432515 0)
(-0.000641344 0.432344 0)
(-0.00101297 0.431973 0)
(-0.00151532 0.431225 0)
(-0.00222658 0.429775 0)
(-0.00325298 0.427027 0)
(-0.00476974 0.421868 0)
(-0.00706796 0.412235 0)
(-0.010726 0.394256 0)
(-0.0151751 0.358352 0)
(-0.0244701 0.294029 0)
(-0.0309678 0.207495 0)
(-0.0269243 0.102378 0)
(-0.00252756 -0.0160854 0)
(0.0125473 -0.0278268 0)
(0.0145683 0.0770479 0)
(0.0174378 0.189115 0)
(0.0221518 0.298364 0)
(0.0150224 0.370676 0)
(0.0091657 0.408167 0)
(0.00679283 0.424204 0)
(0.00474782 0.432015 0)
(0.00329805 0.436025 0)
(0.00228959 0.43809 0)
(0.00158375 0.439135 0)
(0.00108303 0.439649 0)
(0.000711666 0.43989 0)
(0.000417501 0.439993 0)
(0.00016398 0.44003 0)
(-7.73112e-05 0.440027 0)
(-0.000332402 0.439982 0)
(-0.000629492 0.439856 0)
(-0.00100635 0.439571 0)
(-0.00152337 0.438965 0)
(-0.00226677 0.437744 0)
(-0.00337008 0.43535 0)
(-0.00506863 0.430754 0)
(-0.00774748 0.421995 0)
(-0.0120469 0.404923 0)
(-0.0192535 0.365551 0)
(-0.0255134 0.294588 0)
(-0.0324071 0.202036 0)
(-0.0389116 0.0935782 0)
(-0.0230843 -0.00985793 0)
(0.00325993 -0.0250559 0)
(0.000103789 0.0582659 0)
(0.0164308 0.194197 0)
(0.0182003 0.311722 0)
(0.0109776 0.382559 0)
(0.00653134 0.417787 0)
(0.00488255 0.433182 0)
(0.00361109 0.440536 0)
(0.00261768 0.444176 0)
(0.00188431 0.44596 0)
(0.00134825 0.446806 0)
(0.000947826 0.447187 0)
(0.000637575 0.447344 0)
(0.000381796 0.447401 0)
(0.000154409 0.447418 0)
(-6.68867e-05 0.447419 0)
(-0.00030423 0.447397 0)
(-0.000582403 0.447326 0)
(-0.00093517 0.447135 0)
(-0.00141609 0.446687 0)
(-0.00210419 0.445717 0)
(-0.00311604 0.443726 0)
(-0.00463493 0.439778 0)
(-0.00691427 0.432021 0)
(-0.0099061 0.415997 0)
(-0.0167263 0.377028 0)
(-0.0218407 0.303294 0)
(-0.0219082 0.196579 0)
(-0.024305 0.0811215 0)
(-0.0190161 -0.0255836 0)
(-0.000944947 -0.0250174 0)
(0.0118577 0.04572 0)
(0.0136646 0.207265 0)
(0.0124901 0.327741 0)
(0.00695827 0.394532 0)
(0.00443029 0.426487 0)
(0.00318663 0.441402 0)
(0.0024769 0.448513 0)
(0.00188774 0.451965 0)
(0.00142298 0.453595 0)
(0.00106203 0.454324 0)
(0.000776897 0.454619 0)
(0.000540946 0.454721 0)
(0.000335524 0.454747 0)
(0.000144364 0.454753 0)
(-4.74155e-05 0.454758 0)
(-0.000254093 0.454763 0)
(-0.000494341 0.454741 0)
(-0.000792404 0.454638 0)
(-0.0011886 0.454329 0)
(-0.00174026 0.453579 0)
(-0.00252612 0.451924 0)
(-0.00364903 0.448469 0)
(-0.00520788 0.441406 0)
(-0.00723593 0.426314 0)
(-0.0129133 0.389275 0)
(-0.0196718 0.315543 0)
(-0.0137903 0.19192 0)
(-0.00524821 0.071526 0)
(-0.00392431 -0.0242329 0)
(-0.00810401 -0.0271005 0)
(0.00816512 0.0613771 0)
(0.00734876 0.229858 0)
(0.00542713 0.344657 0)
(0.00329127 0.405525 0)
(0.00252141 0.434709 0)
(0.00186909 0.449068 0)
(0.00151265 0.456071 0)
(0.00124042 0.459444 0)
(0.000995944 0.461007 0)
(0.000788562 0.461682 0)
(0.000607498 0.461938 0)
(0.000444388 0.462013 0)
(0.000291147 0.462026 0)
(0.000139459 0.462029 0)
(-1.75348e-05 0.462042 0)
(-0.000185293 0.462066 0)
(-0.000374203 0.462083 0)
(-0.000598887 0.462042 0)
(-0.000882894 0.461836 0)
(-0.00125967 0.461235 0)
(-0.00176889 0.459799 0)
(-0.00244976 0.456648 0)
(-0.00337787 0.450005 0)
(-0.00489741 0.435511 0)
(-0.00851407 0.401919 0)
(-0.0150239 0.330675 0)
(-0.0144188 0.201734 0)
(-0.00380731 0.0496234 0)
(-0.000305683 -0.0204896 0)
(-0.00925019 -0.0338986 0)
(0.0125827 0.0937826 0)
(0.00225504 0.255461 0)
(0.000952793 0.358692 0)
(0.00103893 0.414513 0)
(0.00114347 0.442409 0)
(0.000972052 0.456393 0)
(0.000831115 0.463349 0)
(0.00074787 0.466704 0)
(0.000661859 0.468251 0)
(0.000568752 0.468914 0)
(0.000469992 0.46916 0)
(0.00036684 0.46923 0)
(0.000259056 0.46924 0)
(0.000144092 0.469248 0)
(1.98866e-05 0.469268 0)
(-0.000108177 0.469304 0)
(-0.000242846 0.469343 0)
(-0.000390353 0.469339 0)
(-0.000559169 0.469185 0)
(-0.00076099 0.468666 0)
(-0.00100737 0.467341 0)
(-0.0013033 0.464336 0)
(-0.00175804 0.457887 0)
(-0.00257037 0.444121 0)
(-0.00403102 0.414112 0)
(-0.00854209 0.348236 0)
(-0.0112313 0.220867 0)
(-0.0130812 0.0471705 0)
(0.0027122 -0.0209175 0)
(0.0166075 -0.0431059 0)
(0.0198776 0.0974528 0)
(0.00444901 0.261972 0)
(0.00184992 0.367213 0)
(0.000918157 0.422244 0)
(0.000669602 0.449758 0)
(0.000554447 0.463587 0)
(0.000472601 0.470493 0)
(0.000452446 0.473843 0)
(0.0004469 0.475396 0)
(0.000423721 0.476063 0)
(0.000379797 0.476316 0)
(0.000318663 0.476392 0)
(0.000244089 0.476408 0)
(0.000157651 0.47642 0)
(6.09448e-05 0.476446 0)
(-3.33869e-05 0.476488 0)
(-0.000120246 0.476535 0)
(-0.000199113 0.47654 0)
(-0.000267602 0.476403 0)
(-0.000323741 0.475905 0)
(-0.000362189 0.47461 0)
(-0.000389506 0.471647 0)
(-0.000457423 0.465293 0)
(-0.000544169 0.45207 0)
(-0.000482583 0.424428 0)
(-0.00169149 0.365672 0)
(-0.0041166 0.249708 0)
(-0.0110478 0.0712356 0)
(0.00601299 -0.0216908 0)
(0.0238657 -0.0576789 0)
(0.0172273 0.0961224 0)
(0.00743828 0.265688 0)
(0.00369771 0.375001 0)
(0.00168624 0.429857 0)
(0.00088012 0.457169 0)
(0.000533786 0.470822 0)
(0.000388717 0.477618 0)
(0.000348261 0.480934 0)
(0.000358117 0.482482 0)
(0.000359682 0.483156 0)
(0.000342309 0.48342 0)
(0.000302797 0.483509 0)
(0.000246901 0.483533 0)
(0.000178988 0.483552 0)
(0.000101381 0.48358 0)
(3.13822e-05 0.48362 0)
(-2.10839e-05 0.483662 0)
(-5.00063e-05 0.483659 0)
(-4.80565e-05 0.483507 0)
(-6.07683e-06 0.482993 0)
(8.8319e-05 0.481674 0)
(0.000212881 0.478693 0)
(0.000392443 0.472363 0)
(0.000712629 0.459358 0)
(0.00135786 0.432746 0)
(0.00159121 0.378178 0)
(0.000496838 0.272086 0)
(-0.0119465 0.0989946 0)
(-0.000322901 -0.0304959 0)
(0.00705658 -0.0637907 0)
(0.00940834 0.0913684 0)
(0.00909423 0.271156 0)
(0.00473883 0.382937 0)
(0.00227872 0.438041 0)
(0.0011594 0.464864 0)
(0.000662176 0.478203 0)
(0.000452231 0.484807 0)
(0.000380831 0.48803 0)
(0.000371336 0.489545 0)
(0.000369029 0.490215 0)
(0.000354254 0.490489 0)
(0.000319259 0.490587 0)
(0.000268463 0.490621 0)
(0.000206469 0.490642 0)
(0.000137581 0.490668 0)
(7.86871e-05 0.490702 0)
(4.28553e-05 0.49073 0)
(3.82311e-05 0.490706 0)
(7.45669e-05 0.490528 0)
(0.000160405 0.489979 0)
(0.000300962 0.488622 0)
(0.000472196 0.485604 0)
(0.000705107 0.479268 0)
(0.000998735 0.466259 0)
(0.0012019 0.439962 0)
(0.00104643 0.386634 0)
(-0.00112882 0.281878 0)
(-0.0123199 0.106741 0)
(-0.0130061 -0.0447456 0)
(-0.0048028 -0.060473 0)
(0.00561747 0.0879365 0)
(0.00848135 0.279769 0)
(0.00483021 0.392052 0)
(0.00239341 0.446469 0)
(0.00125293 0.472781 0)
(0.000761591 0.485705 0)
(0.00055525 0.49207 0)
(0.000476409 0.495163 0)
(0.000449573 0.496621 0)
(0.000433521 0.497275 0)
(0.0004076 0.497547 0)
(0.000363525 0.49765 0)
(0.00030443 0.497689 0)
(0.00023593 0.497712 0)
(0.00016401 0.497734 0)
(0.000102777 0.497757 0)
(6.52508e-05 0.497768 0)
(6.12539e-05 0.497719 0)
(9.82084e-05 0.49751 0)
(0.000180517 0.496929 0)
(0.000299862 0.495544 0)
(0.000436518 0.492528 0)
(0.000574806 0.486218 0)
(0.000638732 0.473298 0)
(0.000433302 0.447193 0)
(-0.000539577 0.394325 0)
(-0.00313135 0.288776 0)
(-0.00934576 0.112614 0)
(-0.0104881 -0.0545418 0)
(-0.0144506 -0.057595 0)
(0.00411409 0.0954641 0)
(0.00596257 0.290995 0)
(0.0031867 0.401123 0)
(0.00175535 0.454953 0)
(0.00106321 0.480653 0)
(0.000788622 0.493194 0)
(0.000671661 0.499348 0)
(0.000614212 0.502323 0)
(0.000576134 0.503725 0)
(0.000539984 0.504356 0)
(0.000492003 0.504623 0)
(0.000428111 0.504728 0)
(0.000350059 0.50477 0)
(0.000263672 0.50479 0)
(0.000178057 0.504806 0)
(0.000101957 0.504818 0)
(4.76622e-05 0.504809 0)
(2.46138e-05 0.504738 0)
(3.77861e-05 0.504506 0)
(8.65072e-05 0.503908 0)
(0.000154962 0.502526 0)
(0.000223173 0.499552 0)
(0.000247765 0.493334 0)
(0.000121553 0.480653 0)
(-0.000414942 0.454923 0)
(-0.00181838 0.402341 0)
(-0.00421379 0.296621 0)
(-0.00501473 0.118029 0)
(-0.00256713 -0.0563316 0)
(-0.0186079 -0.0501715 0)
(0.00224216 0.115184 0)
(0.00182046 0.304849 0)
(0.0010942 0.411647 0)
(0.000823357 0.463016 0)
(0.000840219 0.488216 0)
(0.000838666 0.500551 0)
(0.000838501 0.506591 0)
(0.00080183 0.509497 0)
(0.000746665 0.51086 0)
(0.000680391 0.511473 0)
(0.000600131 0.511734 0)
(0.000506794 0.511837 0)
(0.000400294 0.511878 0)
(0.000287404 0.511894 0)
(0.00017915 0.511903 0)
(7.8568e-05 0.511903 0)
(-3.76638e-06 0.51188 0)
(-5.8382e-05 0.511793 0)
(-8.35609e-05 0.51155 0)
(-8.34683e-05 0.510954 0)
(-7.57163e-05 0.509604 0)
(-8.13841e-05 0.506712 0)
(-0.000150377 0.500655 0)
(-0.000394049 0.488259 0)
(-0.000956317 0.462889 0)
(-0.00221564 0.410625 0)
(-0.0041779 0.305604 0)
(-0.00385948 0.125388 0)
(0.00412876 -0.0530045 0)
(-0.0112976 -0.0385098 0)
(-0.00147689 0.142637 0)
(-0.00464149 0.322013 0)
(-0.00197132 0.419839 0)
(0.000373865 0.470349 0)
(0.00100136 0.495407 0)
(0.00115015 0.507787 0)
(0.00114936 0.513823 0)
(0.00107352 0.516705 0)
(0.000967874 0.518043 0)
(0.000851948 0.518639 0)
(0.000726144 0.518891 0)
(0.000593449 0.518988 0)
(0.000451763 0.519025 0)
(0.00030623 0.519034 0)
(0.00016832 0.519035 0)
(3.66168e-05 0.519028 0)
(-8.07718e-05 0.518995 0)
(-0.00017649 0.5189 0)
(-0.000249347 0.518655 0)
(-0.000305949 0.518073 0)
(-0.000363458 0.516769 0)
(-0.000439388 0.513965 0)
(-0.000577208 0.508075 0)
(-0.000845067 0.495926 0)
(-0.001326 0.470904 0)
(-0.00208151 0.419213 0)
(-0.00358894 0.315032 0)
(-0.00431941 0.134658 0)
(0.00580942 -0.0496066 0)
(-0.00342263 -0.030022 0)
(-0.00305075 0.162466 0)
(-0.00409476 0.331213 0)
(0.000901125 0.424426 0)
(0.00125136 0.476609 0)
(0.00199697 0.502469 0)
(0.00188769 0.51508 0)
(0.00166778 0.521141 0)
(0.00144351 0.523994 0)
(0.0012365 0.525297 0)
(0.00104656 0.525866 0)
(0.000862863 0.5261 0)
(0.000682134 0.526187 0)
(0.000500473 0.526214 0)
(0.00031956 0.526216 0)
(0.00014722 0.52621 0)
(-1.92022e-05 0.526197 0)
(-0.000176117 0.526158 0)
(-0.000317447 0.52606 0)
(-0.000442707 0.52582 0)
(-0.000559469 0.525261 0)
(-0.000685938 0.52401 0)
(-0.000836984 0.521298 0)
(-0.00105033 0.515559 0)
(-0.00137707 0.503616 0)
(-0.00187991 0.47882 0)
(-0.0024551 0.427407 0)
(-0.00290393 0.324804 0)
(-0.00507868 0.145407 0)
(0.0022779 -0.0461643 0)
(0.00373589 -0.0255842 0)
(0.0105499 0.166419 0)
(0.0218798 0.322292 0)
(0.0139429 0.422358 0)
(0.0070089 0.481443 0)
(0.00392148 0.510382 0)
(0.0030456 0.522768 0)
(0.00234099 0.528687 0)
(0.00187021 0.531425 0)
(0.00152387 0.532647 0)
(0.00124488 0.533165 0)
(0.000998194 0.533366 0)
(0.000766433 0.533435 0)
(0.000543008 0.53345 0)
(0.000326262 0.533442 0)
(0.000117635 0.53343 0)
(-8.54068e-05 0.533413 0)
(-0.000282568 0.533371 0)
(-0.000470813 0.533275 0)
(-0.000649914 0.533049 0)
(-0.000829864 0.532523 0)
(-0.00102971 0.531334 0)
(-0.00126944 0.528723 0)
(-0.00159276 0.523135 0)
(-0.00205891 0.511381 0)
(-0.00270668 0.486729 0)
(-0.00342482 0.43509 0)
(-0.00418743 0.331412 0)
(-0.00649922 0.152471 0)
(-0.00228653 -0.0438319 0)
(0.0184292 -0.0157306 0)
(0.0368038 0.168306 0)
(0.0279858 0.312921 0)
(0.0216876 0.415553 0)
(0.0134369 0.481427 0)
(0.00754773 0.517361 0)
(0.00410401 0.531051 0)
(0.00294595 0.536544 0)
(0.00224692 0.539027 0)
(0.0017763 0.540104 0)
(0.00141784 0.540539 0)
(0.00111467 0.540692 0)
(0.000838341 0.540733 0)
(0.000576686 0.540732 0)
(0.000325118 0.540713 0)
(8.11099e-05 0.540695 0)
(-0.000157826 0.540675 0)
(-0.000393973 0.540634 0)
(-0.000626388 0.540547 0)
(-0.000857228 0.540343 0)
(-0.00109924 0.53986 0)
(-0.00137391 0.538748 0)
(-0.001716 0.536257 0)
(-0.00219067 0.530849 0)
(-0.00290293 0.51932 0)
(-0.00399019 0.494865 0)
(-0.00555607 0.442977 0)
(-0.00846243 0.335828 0)
(-0.0132297 0.152621 0)
(-0.00633023 -0.0426962 0)
(0.016387 -0.00732173 0)
(0.0237686 0.158022 0)
(0.0187137 0.307146 0)
(0.0166285 0.421199 0)
(0.0141157 0.489711 0)
(0.0068238 0.52749 0)
(0.0043601 0.53972 0)
(0.0031989 0.544598 0)
(0.00245442 0.546749 0)
(0.00193649 0.547643 0)
(0.00153589 0.547974 0)
(0.00119679 0.548068 0)
(0.000888938 0.548075 0)
(0.000597046 0.548053 0)
(0.000314982 0.548023 0)
(3.96279e-05 0.548 0)
(-0.000231755 0.547978 0)
(-0.000502217 0.547944 0)
(-0.000773397 0.547871 0)
(-0.00104926 0.547697 0)
(-0.00134528 0.54727 0)
(-0.00168853 0.546252 0)
(-0.00212963 0.543911 0)
(-0.00276008 0.538738 0)
(-0.00373478 0.527538 0)
(-0.00541321 0.503412 0)
(-0.00788045 0.449065 0)
(-0.0131539 0.335638 0)
(-0.0201661 0.150303 0)
(-0.0118788 -0.0408042 0)
(-0.000429846 0.00990313 0)
(0.000102415 0.146999 0)
(0.00514596 0.306676 0)
(0.00779827 0.430551 0)
(0.0118939 0.503627 0)
(0.00496241 0.537463 0)
(0.00398746 0.548219 0)
(0.00310499 0.552628 0)
(0.00246875 0.554492 0)
(0.001983 0.555212 0)
(0.00158455 0.55544 0)
(0.00123457 0.555476 0)
(0.000910695 0.555446 0)
(0.000599463 0.555404 0)
(0.000295551 0.555364 0)
(-3.92907e-06 0.555336 0)
(-0.000300624 0.555316 0)
(-0.000598606 0.555291 0)
(-0.000900412 0.555239 0)
(-0.00121091 0.555101 0)