/*--------------------------------*- C++ -*----------------------------------*\
| =========                 |                                                 |
| \\      /  F ield         | OpenFOAM: The Open Source CFD Toolbox           |
|  \\    /   O peration     | Version:  2.3.0                                 |
|   \\  /    A nd           | Web:      www.OpenFOAM.org                      |
|    \\/     M anipulation  |                                                 |
\*---------------------------------------------------------------------------*/
FoamFile
{
    version     2.0;
    format      ascii;
    class       surfaceScalarField;
    location    "0.77";
    object      phi.particles;
}
// * * * * * * * * * * * * * * * * * * * * * * * * * * * * * * * * * * * * * //

dimensions      [0 3 -1 0 0 0 0];

internalField   nonuniform List<scalar> 
11770
(
2.76729e-06
-1.4388e-05
6.31394e-06
-1.55583e-05
1.06373e-05
-1.64559e-05
1.45141e-05
-1.98517e-05
1.67372e-05
-2.81884e-05
1.24629e-05
-3.88391e-05
5.02197e-06
-4.24799e-05
1.87915e-06
-3.96013e-05
2.44892e-06
-3.34884e-05
3.48624e-06
-3.00361e-05
3.01795e-06
-2.97541e-05
-3.6112e-07
-3.5703e-05
-6.38923e-06
-3.962e-05
-1.13426e-05
-3.32113e-05
-1.06067e-05
-2.21764e-05
-4.49327e-06
-1.63417e-05
2.89679e-06
-1.61703e-05
7.34679e-06
-1.81206e-05
5.47484e-06
-3.0762e-05
2.60867e-06
-3.05303e-05
5.84451e-07
-3.17815e-05
-4.2888e-07
-3.29424e-05
3.13812e-07
-2.99243e-05
1.8981e-06
-2.87677e-05
2.968e-06
-2.8975e-05
3.471e-06
-2.83896e-05
1.34596e-06
-3.0005e-05
-2.85633e-06
-3.28308e-05
-3.24448e-06
-2.42894e-05
-1.5058e-05
3.6778e-06
-6.47826e-06
4.49916e-06
-5.23424e-06
3.93547e-06
-7.58267e-06
3.76015e-06
-1.18667e-05
6.09757e-06
-1.62206e-05
7.99271e-06
-2.3607e-05
7.93516e-06
-2.36682e-05
7.72589e-06
-1.78307e-05
7.69761e-06
-1.31903e-05
7.44818e-06
-1.26927e-05
6.44536e-06
-1.11965e-05
2.66414e-06
-1.24651e-05
-3.21838e-06
-1.9899e-05
-5.36441e-06
-1.8557e-05
-4.25245e-06
-6.8495e-06
-3.67521e-06
-7.95156e-06
-3.59203e-06
-8.16287e-06
-3.00404e-06
-4.69384e-06
-3.60491e-06
-1.39094e-05
-4.69608e-06
-1.30989e-05
-3.4249e-06
-1.42997e-05
-1.60122e-06
-1.40246e-05
2.26751e-07
-1.17369e-05
2.01195e-06
-1.17094e-05
3.42441e-06
-1.054e-05
4.75679e-06
-9.91272e-06
5.24421e-06
-1.10677e-05
4.95861e-06
-1.32909e-05
2.43204e-06
-5.36341e-06
-1.55942e-06
4.3488e-07
-1.2042e-05
7.72479e-07
-1.33313e-05
-8.41197e-07
-1.57301e-05
-4.00382e-07
-1.95166e-05
2.29121e-06
-1.97734e-05
4.75363e-06
-2.06594e-05
6.16292e-06
-2.03837e-05
7.00682e-06
-1.75054e-05
7.72452e-06
-1.65419e-05
7.66187e-06
-1.731e-05
7.22993e-06
-1.63315e-05
5.85822e-06
-1.29644e-05
2.8286e-06
-1.44117e-05
5.62174e-07
-1.32571e-05
7.57306e-07
-7.58791e-06
-1.45194e-06
-9.87813e-06
-5.36369e-06
-1.01956e-05
-7.69925e-06
-7.30658e-06
-9.05986e-06
-1.20035e-05
-8.62148e-06
-1.37084e-05
-6.39177e-06
-1.49112e-05
-3.81653e-06
-1.49539e-05
-8.45482e-07
-1.53044e-05
2.80487e-06
-1.65762e-05
6.6102e-06
-1.52639e-05
9.83509e-06
-1.44642e-05
1.08864e-05
-1.19881e-05
1.00889e-05
-9.75452e-06
7.43089e-06
-5.7749e-06
-3.18495e-06
-2.80135e-06
-1.08638e-05
-3.62904e-06
-1.36104e-05
-4.24705e-06
-1.65424e-05
-2.95531e-06
-1.79583e-05
-7.91504e-07
-1.83721e-05
1.87808e-06
-1.89792e-05
3.68764e-06
-1.73046e-05
4.65574e-06
-1.40242e-05
6.04357e-06
-1.35481e-05
7.89037e-06
-1.50769e-05
8.59439e-06
-1.47546e-05
7.62598e-06
-1.26885e-05
6.24315e-06
-1.18617e-05
6.34182e-06
-9.95133e-06
8.06836e-06
-5.8581e-06
4.19286e-06
-6.52533e-06
-5.1597e-06
-7.45903e-06
-1.11664e-05
-4.69162e-06
-1.11779e-05
-8.60529e-06
-9.99121e-06
-1.00035e-05
-8.08665e-06
-1.10935e-05
-4.94187e-06
-1.19659e-05
-5.86194e-07
-1.45638e-05
4.26355e-06
-1.72026e-05
9.10743e-06
-1.57142e-05
1.30455e-05
-1.30438e-05
1.48926e-05
-9.88012e-06
1.37034e-05
-5.40344e-06
9.96516e-06
-1.89934e-06
6.37137e-07
-1.13335e-06
-7.63666e-06
-4.96674e-06
-9.82549e-06
-5.81174e-06
-1.24146e-05
-6.10269e-06
-1.49675e-05
-4.904e-06
-1.57705e-05
-2.42514e-06
-1.66858e-05
-2.09692e-07
-1.48989e-05
2.03514e-06
-1.25813e-05
5.04311e-06
-1.31667e-05
7.7773e-06
-1.37967e-05
9.40957e-06
-1.32494e-05
1.07131e-05
-1.18301e-05
1.11507e-05
-1.0289e-05
1.22233e-05
-7.88238e-06
1.30429e-05
-2.4248e-06
6.34576e-06
-2.09721e-06
-5.27207e-06
-2.34077e-06
-1.20477e-05
7.9456e-07
-1.11308e-05
-3.61327e-06
-9.25095e-06
-5.25472e-06
-7.85088e-06
-7.30036e-06
-4.7252e-06
-1.02782e-05
-3.52336e-07
-1.41913e-05
4.39063e-06
-1.55875e-05
9.03505e-06
-1.34153e-05
1.28162e-05
-9.16856e-06
1.59625e-05
-5.32686e-06
1.66844e-05
-9.35857e-07
1.25867e-05
3.7688e-06
6.72112e-06
3.38765e-06
-4.21896e-06
-1.95979e-06
-4.22432e-06
-5.90037e-06
-4.77719e-06
-6.02713e-06
-8.65206e-06
-5.88221e-06
-1.17447e-05
-4.64655e-06
-1.26876e-05
-2.48333e-06
-1.15523e-05
5.14303e-07
-1.07831e-05
4.08764e-06
-1.17635e-05
7.06757e-06
-1.08865e-05
9.32992e-06
-9.62926e-06
1.1728e-05
-8.61463e-06
1.40819e-05
-7.49531e-06
1.58021e-05
-3.87422e-06
1.46898e-05
2.95616e-06
4.74298e-06
4.73553e-06
-7.0686e-06
4.54067e-06
-1.08079e-05
7.07499e-06
-1.0093e-05
2.94264e-06
-1.03862e-05
6.14844e-07
-9.33733e-06
-3.24615e-06
-5.07698e-06
-9.01791e-06
-1.02341e-06
-1.22836e-05
1.92864e-06
-1.20412e-05
4.72394e-06
-8.72731e-06
7.52858e-06
-3.33197e-06
1.20164e-05
2.48868e-06
1.59787e-05
6.17233e-06
1.38562e-05
1.20376e-05
1.52617e-05
2.34295e-06
-1.22074e-06
2.40683e-06
1.61007e-07
-2.57668e-06
1.95754e-06
-6.31645e-06
-3.74798e-07
-5.28724e-06
-5.44382e-06
-4.66651e-06
-7.53614e-06
-3.18188e-06
-6.25792e-06
-8.29006e-07
-6.72695e-06
1.99792e-06
-7.68152e-06
4.75471e-06
-5.89064e-06
7.80669e-06
-3.55134e-06
1.11149e-05
-1.14769e-06
1.39646e-05
-1.59972e-07
1.3793e-05
5.18154e-06
7.14557e-06
1.14604e-05
-2.83154e-06
1.25505e-05
-9.28868e-06
1.09734e-05
-1.00673e-05
1.27239e-05
-1.03453e-05
1.02812e-05
-1.07221e-05
5.61912e-06
-8.84469e-06
-1.53756e-06
-6.19716e-06
-8.3143e-06
-4.0183e-06
-1.10598e-05
-1.99728e-06
-1.02921e-05
-2.97886e-07
-5.95218e-06
1.25827e-06
1.24642e-06
5.14243e-06
9.53248e-06
1.11292e-05
1.73065e-05
1.19522e-05
2.41628e-05
2.50101e-05
3.78392e-06
9.70859e-07
3.80988e-06
4.3544e-06
1.67424e-06
7.45412e-06
-4.10201e-06
7.54204e-06
-7.01997e-06
3.23758e-06
-5.39454e-06
-7.66775e-07
-4.29852e-06
-2.38936e-07
-2.64624e-06
-2.3154e-06
-4.82655e-07
-2.59376e-06
1.58735e-06
2.34956e-07
3.25359e-06
3.88459e-06
5.06916e-06
8.33687e-06
6.27899e-06
1.13472e-05
4.43253e-06
1.63462e-05
4.41582e-08
1.96011e-05
-5.33036e-06
1.93244e-05
-9.40793e-06
1.80118e-05
-9.18975e-06
1.98617e-05
-1.02267e-05
1.72026e-05
-1.11454e-05
8.40883e-06
-9.73993e-06
-1.43986e-06
-7.91198e-06
-8.25899e-06
-6.50636e-06
-1.05074e-05
-5.56634e-06
-9.14419e-06
-4.8981e-06
-4.18245e-06
-4.91847e-06
3.48622e-06
-3.54982e-06
1.38826e-05
9.90826e-07
2.74577e-05
4.00092e-06
3.47876e-05
3.27431e-05
4.62104e-06
2.67158e-06
4.5782e-06
6.73654e-06
3.22026e-06
1.05767e-05
-1.85453e-06
1.35733e-05
-6.97725e-06
1.23119e-05
-6.4362e-06
7.84194e-06
-5.10303e-06
5.52559e-06
-4.19899e-06
2.83051e-06
-2.80305e-06
3.31274e-06
-1.88051e-06
6.68867e-06
-1.54811e-06
1.09871e-05
-1.20667e-06
1.6232e-05
-7.20329e-08
2.07886e-05
1.07367e-06
2.36868e-05
8.74299e-07
2.4734e-05
-2.6514e-06
2.52917e-05
-6.3993e-06
2.58624e-05
-7.58912e-06
2.86606e-05
-1.01772e-05
2.19896e-05
-1.11353e-05
9.31635e-06
-9.75874e-06
-1.11949e-06
-8.65233e-06
-8.50185e-06
-8.3421e-06
-1.17443e-05
-9.05972e-06
-1.06902e-05
-1.05647e-05
-4.36236e-06
-1.17051e-05
4.43903e-06
-1.35317e-05
1.40784e-05
-1.08285e-05
2.83306e-05
-4.29677e-06
3.67414e-05
3.40663e-05
3.36022e-06
2.76128e-06
3.05207e-06
8.16644e-06
2.43384e-06
1.24633e-05
3.61749e-08
1.61914e-05
-5.14778e-06
1.92676e-05
-6.4984e-06
1.66959e-05
-5.50618e-06
1.16909e-05
-5.47573e-06
7.90823e-06
-5.01402e-06
8.18002e-06
-4.96181e-06
1.14733e-05
-5.2547e-06
1.58448e-05
-4.65323e-06
2.08061e-05
-1.84562e-06
2.50143e-05
1.72222e-06
2.67702e-05
3.12947e-06
2.79407e-05
9.64224e-07
2.97028e-05
-1.71866e-06
3.25122e-05
-4.55724e-06
3.54939e-05
-8.65486e-06
2.42914e-05
-8.87686e-06
1.01915e-05
-9.00961e-06
-2.09715e-06
-9.17508e-06
-1.16246e-05
-9.95756e-06
-1.6175e-05
-1.16561e-05
-1.66844e-05
-1.49436e-05
-1.20293e-05
-1.82096e-05
-3.39858e-06
-1.9275e-05
3.75967e-06
-1.47943e-05
8.93454e-06
-6.30742e-06
1.83887e-05
1.84068e-05
5.87808e-07
3.60088e-06
-1.36118e-07
9.46886e-06
-1.06106e-06
1.40616e-05
-1.83526e-06
1.78641e-05
-6.13867e-06
2.0714e-05
-6.17377e-06
2.24962e-05
-5.03416e-06
1.80976e-05
-6.66295e-06
1.14863e-05
-6.86546e-06
1.10345e-05
-7.17729e-06
1.41745e-05
-7.61111e-06
1.79954e-05
-6.61424e-06
2.13798e-05
-2.50263e-06
2.4709e-05
1.6947e-06
2.64669e-05
3.32563e-06
2.8676e-05
2.86836e-06
3.16622e-05
1.55655e-06
3.53495e-05
-5.79946e-07
3.76435e-05
-3.78677e-06
2.62238e-05
-6.90466e-06
7.89826e-06
-9.26666e-06
-6.74519e-06
-1.06828e-05
-1.7893e-05
-1.18175e-05
-2.35969e-05
-1.36165e-05
-2.84465e-05
-1.64493e-05
-3.24249e-05
-1.70555e-05
-2.8033e-05
-1.49353e-05
-2.46299e-05
-1.10585e-05
-2.39284e-05
-5.86476e-06
-1.71982e-05
-1.56448e-05
-1.58927e-06
4.33707e-06
-3.73712e-06
1.06567e-05
-5.50122e-06
1.5525e-05
-6.68226e-06
1.91932e-05
-7.99426e-06
2.13501e-05
-9.24276e-06
2.19101e-05
-6.64751e-06
2.12152e-05
-7.84469e-06
1.25322e-05
-8.57743e-06
1.17305e-05
-9.27311e-06
1.46406e-05
-9.51749e-06
1.83139e-05
-8.27052e-06
2.09883e-05
-4.57554e-06
2.25769e-05
-6.79414e-07
2.45955e-05
1.3764e-06
2.7809e-05
2.2807e-06
3.12724e-05
3.08922e-06
3.47512e-05
2.78982e-06
3.59422e-05
-2.00447e-06
1.76682e-05
-7.82249e-06
-3.52693e-06
-1.23981e-05
-1.63832e-05
-1.43963e-05
-2.61513e-05
-1.74743e-05
-3.54355e-05
-1.72707e-05
-3.9778e-05
-1.46106e-05
-4.10956e-05
-1.16333e-05
-4.00882e-05
-9.01241e-06
-3.85213e-05
-6.5978e-06
-3.73255e-05
-3.42232e-06
-3.65626e-05
-3.68601e-05
-3.95225e-06
4.84969e-06
-7.31807e-06
1.20449e-05
-9.70334e-06
1.69586e-05
-1.15542e-05
1.99922e-05
-1.27889e-05
2.1484e-05
-1.38755e-05
2.07786e-05
-1.09752e-05
1.89934e-05
-9.474e-06
1.32835e-05
-1.03817e-05
9.92237e-06
-1.1317e-05
1.28445e-05
-1.17266e-05
1.61554e-05
-1.06479e-05
1.79082e-05
-8.09902e-06
1.90109e-05
-5.06484e-06
2.08605e-05
-2.61959e-06
2.42811e-05
-5.79117e-07
2.77604e-05
1.36692e-06
2.84878e-05
-1.78391e-06
1.57208e-05
-9.60587e-06
-7.96835e-06
-1.39274e-05
-2.30324e-05
-1.73988e-05
-3.09176e-05
-2.07605e-05
-3.58811e-05
-2.16094e-05
-3.7565e-05
-1.95083e-05
-3.73959e-05
-1.66009e-05
-3.67713e-05
-1.342e-05
-3.56266e-05
-1.0063e-05
-3.43413e-05
-6.30749e-06
-3.35643e-05
-2.12111e-06
-3.4167e-05
-3.56087e-05
-7.24348e-06
6.50321e-06
-1.14201e-05
1.59008e-05
-1.36788e-05
1.90941e-05
-1.50187e-05
2.12192e-05
-1.61261e-05
2.11683e-05
-1.6327e-05
1.97812e-05
-1.46002e-05
1.6404e-05
-1.23841e-05
1.29401e-05
-1.14572e-05
2.99208e-06
-1.31877e-05
5.75036e-06
-1.39349e-05
1.06478e-05
-1.33268e-05
1.15556e-05
-1.18923e-05
1.25028e-05
-1.00517e-05
1.34866e-05
-8.41914e-06
1.61767e-05
-6.41598e-06
1.25898e-05
-1.03328e-05
1.3851e-06
-1.59081e-05
-1.34849e-05
-1.64724e-05
-2.41877e-05
-1.56385e-05
-2.79031e-05
-1.71944e-05
-3.33296e-05
-1.98511e-05
-3.57811e-05
-2.08851e-05
-3.45962e-05
-1.98964e-05
-3.32065e-05
-1.75689e-05
-3.2038e-05
-1.43299e-05
-3.0819e-05
-1.06584e-05
-2.96551e-05
-6.66273e-06
-2.88014e-05
-2.01076e-06
-2.89604e-05
-3.06844e-05
-1.4251e-05
-1.13739e-07
-1.81941e-05
3.19573e-06
-1.85529e-05
1.81347e-05
-1.82451e-05
2.23164e-05
-1.754e-05
2.1646e-05
-1.76212e-05
1.8438e-05
-1.60779e-05
1.42262e-05
-1.37825e-05
9.1828e-06
-1.13435e-05
-8.46102e-06
-1.29123e-05
-1.13916e-05
-1.48084e-05
-7.53452e-06
-1.489e-05
-2.20873e-06
-1.61407e-05
-9.81219e-08
-1.61959e-05
-6.39039e-07
-1.79834e-05
-5.77746e-06
-2.16544e-05
-1.36959e-05
-2.23053e-05
-2.14185e-05
-1.85192e-05
-2.35683e-05
-1.40448e-05
-2.49928e-05
-1.20072e-05
-2.66597e-05
-1.337e-05
-3.13249e-05
-1.70786e-05
-3.35243e-05
-1.97134e-05
-3.14115e-05
-1.99448e-05
-2.91507e-05
-1.82747e-05
-2.73148e-05
-1.5183e-05
-2.5655e-05
-1.12788e-05
-2.4427e-05
-6.82441e-06
-2.39173e-05
-1.83127e-06
-2.40205e-05
-2.54859e-05
-8.57387e-06
-2.05133e-05
-1.51226e-05
-2.22148e-05
-2.11658e-05
-6.66949e-06
-1.95944e-05
1.11158e-05
-1.78092e-05
2.18268e-05
-1.67653e-05
1.77387e-05
-1.59194e-05
1.1938e-05
-1.35655e-05
4.34085e-06
-1.24056e-05
-1.07592e-05
-1.04167e-05
-2.01121e-05
-8.73699e-06
-2.00051e-05
-1.1655e-05
-1.83099e-05
-1.68064e-05
-1.38394e-05
-2.19594e-05
-1.56432e-05
-2.4963e-05
-2.03391e-05
-2.51329e-05
-2.19951e-05
-2.1623e-05
-2.3344e-05
-1.55717e-05
-2.29431e-05
-9.99452e-06
-2.29916e-05
-8.19253e-06
-2.58612e-05
-9.91198e-06
-2.97093e-05
-1.41216e-05
-3.09458e-05
-1.74834e-05
-2.82604e-05
-1.886e-05
-2.52814e-05
-1.79405e-05
-2.26587e-05
-1.50597e-05
-2.05019e-05
-1.10288e-05
-1.9047e-05
-6.49919e-06
-1.84575e-05
-1.78345e-06
-1.85074e-05
-1.95709e-05
5.27736e-07
-3.00978e-05
-8.8682e-07
-3.2893e-05
-7.94082e-06
-3.31563e-05
-1.56835e-05
-2.12389e-05
-1.59378e-05
-1.01251e-06
-1.41098e-05
1.68899e-05
-1.31754e-05
9.50049e-06
-1.1473e-05
1.11785e-06
-1.55669e-05
-1.06654e-05
-1.24485e-05
-1.70411e-05
-6.09517e-06
-1.75451e-05
-7.32711e-06
-1.88644e-05
-1.285e-05
-1.47814e-05
-1.86367e-05
-1.48527e-05
-2.20459e-05
-1.72498e-05
-2.21512e-05
-1.91302e-05
-1.82955e-05
-2.12081e-05
-1.24638e-05
-2.02297e-05
-7.32016e-06
-2.05528e-05
-4.86943e-06
-2.44736e-05
-6.71254e-06
-2.81878e-05
-1.06894e-05
-2.81712e-05
-1.40291e-05
-2.52357e-05
-1.62593e-05
-2.18206e-05
-1.64768e-05
-1.85713e-05
-1.43776e-05
-1.58381e-05
-1.0515e-05
-1.39813e-05
-5.91518e-06
-1.31902e-05
-1.27017e-06
-1.29732e-05
-1.35473e-05
1.67228e-06
-2.65143e-05
3.3882e-06
-3.01777e-05
6.02199e-06
-3.51803e-05
4.10783e-06
-3.92339e-05
-4.08263e-06
-3.43816e-05
-1.01623e-05
-1.27748e-05
-8.93324e-06
3.22772e-07
-1.08922e-05
-1.95099e-06
-1.41454e-05
-1.26713e-05
-1.51288e-05
-1.32565e-05
-8.47013e-06
-1.25044e-05
-6.79634e-06
-1.35112e-05
-9.59388e-06
-1.07049e-05
-1.42383e-05
-8.98522e-06
-1.84971e-05
-1.22975e-05
-1.87621e-05
-1.54224e-05
-1.48947e-05
-1.7553e-05
-9.03112e-06
-1.6858e-05
-4.56752e-06
-1.83503e-05
-2.32221e-06
-2.27402e-05
-3.98544e-06
-2.58666e-05
-7.66109e-06
-2.50067e-05
-1.08712e-05
-2.20758e-05
-1.32517e-05
-1.87961e-05
-1.39927e-05
-1.5332e-05
-1.24886e-05
-1.21183e-05
-9.04888e-06
-9.84472e-06
-4.82354e-06
-8.77467e-06
-6.49276e-07
-8.2721e-06
-8.04775e-06
2.40085e-06
-2.24887e-05
4.26858e-06
-2.72654e-05
8.22038e-06
-3.23944e-05
1.18502e-05
-3.71671e-05
1.4269e-05
-4.05101e-05
1.00582e-05
-4.17486e-05
9.39309e-07
-2.74886e-05
-4.80831e-06
-1.84495e-05
-1.17927e-05
-1.76708e-05
-1.60317e-05
-9.93607e-06
-1.17983e-05
-7.21211e-06
-7.54575e-06
-7.6848e-06
-6.75665e-06
-7.8287e-06
-1.02573e-05
-3.54015e-06
-1.47909e-05
-6.51706e-06
-1.58679e-05
-1.10753e-05
-1.22496e-05
-1.36328e-05
-5.85729e-06
-1.28559e-05
-1.67191e-06
-1.60084e-05
-1.74515e-07
-2.08955e-05
-1.82198e-06
-2.31045e-05
-4.98967e-06
-2.17196e-05
-7.70968e-06
-1.90028e-05
-9.76341e-06
-1.60109e-05
-1.06406e-05
-1.27514e-05
-9.65923e-06
-9.51465e-06
-6.91088e-06
-7.05498e-06
-3.45901e-06
-5.71484e-06
-1.85836e-07
-4.94005e-06
-4.1979e-06
3.40528e-06
-1.90278e-05
5.55792e-06
-2.4552e-05
9.45484e-06
-2.9828e-05
1.37443e-05
-3.45966e-05
1.76911e-05
-3.84652e-05
2.16216e-05
-4.05867e-05
2.22313e-05
-4.11909e-05
1.29468e-05
-3.72021e-05
-1.80483e-06
-2.6365e-05
-1.31827e-05
-1.14464e-05
-1.23297e-05
-4.11411e-06
-6.16504e-06
-2.3875e-06
-3.99309e-06
-3.82533e-06
-6.55371e-06
5.18917e-07
-1.0788e-05
1.09285e-06
-1.28893e-05
-4.77755e-06
-9.65618e-06
-8.61483e-06
-3.33338e-06
-8.54716e-06
8.69416e-07
-1.36125e-05
1.90782e-06
-1.89205e-05
3.60227e-09
-2.00835e-05
-2.85194e-06
-1.83723e-05
-5.21266e-06
-1.59435e-05
-6.79766e-06
-1.337e-05
-7.38701e-06
-1.05983e-05
-6.63395e-06
-7.85231e-06
-4.65472e-06
-5.72189e-06
-2.21702e-06
-4.42052e-06
-1.5297e-07
-3.52777e-06
-2.27499e-06
4.51869e-06
-1.6608e-05
7.1136e-06
-2.18636e-05
1.11349e-05
-2.72471e-05
1.56058e-05
-3.24393e-05
1.96546e-05
-3.63925e-05
2.38176e-05
-3.82197e-05
2.77442e-05
-3.87998e-05
2.73873e-05
-3.63444e-05
1.47733e-05
-3.17674e-05
-2.12863e-06
-1.73726e-05
-1.12106e-05
-3.29195e-06
-7.55618e-06
1.71878e-06
-2.51557e-06
2.14541e-06
-3.73742e-06
3.66755e-06
-7.60268e-06
7.55956e-06
-9.73956e-06
3.52798e-06
-7.29994e-06
-2.63736e-06
-1.07188e-06
-4.20014e-06
2.98528e-06
-1.08769e-05
3.55636e-06
-1.63965e-05
1.3963e-06
-1.67756e-05
-1.27945e-06
-1.50488e-05
-3.31625e-06
-1.30311e-05
-4.52977e-06
-1.09794e-05
-4.83532e-06
-8.87044e-06
-4.22006e-06
-6.88984e-06
-2.91524e-06
-5.30098e-06
-1.46383e-06
-4.095e-06
-3.71175e-07
-2.95894e-06
-1.45186e-06
5.63851e-06
-1.54654e-05
8.81798e-06
-1.97529e-05
1.29574e-05
-2.49476e-05
1.73389e-05
-3.04027e-05
2.18651e-05
-3.43596e-05
2.56929e-05
-3.64952e-05
2.89678e-05
-3.60212e-05
3.16582e-05
-3.3461e-05
2.89069e-05
-2.99309e-05
1.27134e-05
-2.23601e-05
-3.671e-06
-6.89616e-06
-7.55407e-06
3.73755e-06
-2.24217e-06
6.91203e-06
8.81605e-07
7.51861e-06
-2.28869e-06
1.173e-05
-6.43995e-06
1.26874e-05
-5.0974e-06
3.78628e-06
7.02375e-07
1.69945e-06
4.8068e-06
-7.84113e-06
4.64308e-06
-1.32747e-05
2.30265e-06
-1.32783e-05
-1.89794e-07
-1.18342e-05
-1.98133e-06
-1.03593e-05
-2.98809e-06
-8.93664e-06
-3.22203e-06
-7.5315e-06
-2.82099e-06
-6.20706e-06
-2.02772e-06
-5.01506e-06
-1.15644e-06
-3.88819e-06
-4.47781e-07
-2.65756e-06
-1.14511e-06
6.22798e-06
-1.54656e-05
1.04006e-05
-1.88813e-05
1.47592e-05
-2.33686e-05
1.91175e-05
-2.84812e-05
2.3485e-05
-3.25941e-05
2.70483e-05
-3.42698e-05
3.04784e-05
-3.34503e-05
3.30368e-05
-3.10365e-05
3.41704e-05
-2.66121e-05
2.85044e-05
-2.2004e-05
1.01098e-05
-1.15903e-05
-3.41244e-06
2.37558e-06
-2.34317e-06
9.13484e-06
2.58694e-06
1.17464e-05
1.29766e-06
1.57488e-05
-3.64066e-06
2.03036e-05
-2.98958e-06
1.45409e-05
2.51909e-06
8.15227e-06
6.03833e-06
-4.68242e-06
5.13267e-06
-9.95324e-06
2.73917e-06
-9.8334e-06
4.49624e-07
-8.8472e-06
-1.16574e-06
-7.97313e-06
-2.07922e-06
-7.20316e-06
-2.33877e-06
-6.42664e-06
-2.10855e-06
-5.59779e-06
-1.59578e-06
-4.6947e-06
-9.97132e-07
-3.67449e-06
-4.46413e-07
-2.46917e-06
-1.00744e-06
6.11198e-06
-1.66163e-05
1.1544e-05
-1.90209e-05
1.61326e-05
-2.22874e-05
2.05406e-05
-2.66511e-05
2.47242e-05
-3.03122e-05
2.8353e-05
-3.18479e-05
3.11913e-05
-3.08799e-05
3.37037e-05
-2.80863e-05
3.62596e-05
-2.36547e-05
3.63504e-05
-1.84554e-05
2.52302e-05
-1.29278e-05
8.13895e-06
-1.39724e-06
-3.61316e-07
9.65079e-06
3.05021e-06
1.4812e-05
4.92506e-06
1.85939e-05
7.94737e-07
2.54005e-05
4.10344e-07
2.64359e-05
4.72952e-06
1.4067e-05
6.85989e-06
-1.5651e-06
5.18859e-06
-6.69807e-06
2.82714e-06
-6.61394e-06
7.39976e-07
-6.11923e-06
-7.50169e-07
-5.8402e-06
-1.59619e-06
-5.68631e-06
-1.86325e-06
-5.44773e-06
-1.71389e-06
-5.01113e-06
-1.3322e-06
-4.34413e-06
-8.66031e-07
-3.4445e-06
-4.06112e-07
-2.31028e-06
-9.1782e-07
5.73819e-06
-1.76139e-05
1.18475e-05
-1.87041e-05
1.68023e-05
-2.05239e-05
2.15315e-05
-2.39429e-05
2.58937e-05
-2.74138e-05
2.95137e-05
-2.88279e-05
3.18742e-05
-2.77698e-05
3.45346e-05
-2.48209e-05
3.63255e-05
-2.06356e-05
3.76799e-05
-1.45448e-05
3.7586e-05
-1.04044e-05
2.24415e-05
-3.33186e-06
7.50495e-06
8.0376e-06
5.0631e-06
1.58534e-05
7.99281e-06
2.10284e-05
6.01335e-06
2.89935e-05
4.60231e-06
3.50293e-05
7.33121e-06
2.15513e-05
7.54268e-06
2.19286e-06
5.09949e-06
-3.39317e-06
2.72497e-06
-3.54244e-06
7.51449e-07
-3.55519e-06
-6.32325e-07
-3.86672e-06
-1.38305e-06
-4.29695e-06
-1.59945e-06
-4.54234e-06
-1.45505e-06
-4.44447e-06
-1.12521e-06
-3.98136e-06
-7.33804e-07
-3.19861e-06
-3.46702e-07
-2.14719e-06
-8.31993e-07
5.38526e-06
-1.61275e-05
1.16211e-05
-1.62245e-05
1.69977e-05
-1.65945e-05
2.22344e-05
-2.00848e-05
2.68906e-05
-2.38405e-05
3.02693e-05
-2.51493e-05
3.23364e-05
-2.42756e-05
3.45314e-05
-2.1103e-05
3.63513e-05
-1.72742e-05
3.81039e-05
-1.10441e-05
4.08834e-05
-6.68155e-06
3.69525e-05
-1.26994e-06
2.00311e-05
6.85012e-06
9.59272e-06
1.51593e-05
1.05331e-05
2.2588e-05
1.06731e-05
3.14791e-05
9.26366e-06
4.16374e-05
9.883e-06
3.07765e-05
8.29927e-06
7.0827e-06
5.00178e-06
2.47842e-07
2.45644e-06
-3.89181e-07
5.11654e-07
-1.01091e-06
-7.51091e-07
-1.97466e-06
-1.34114e-06
-2.98667e-06
-1.42823e-06
-3.69234e-06
-1.22386e-06
-3.90276e-06
-9.04504e-07
-3.6205e-06
-5.71351e-07
-2.94182e-06
-2.62517e-07
-1.96681e-06
-7.30272e-07
4.50518e-06
-1.12447e-05
1.03915e-05
-1.11e-05
1.64752e-05
-1.25284e-05
2.23815e-05
-1.70948e-05
2.70427e-05
-2.0642e-05
2.98954e-05
-2.17005e-05
3.17252e-05
-2.06495e-05
3.35152e-05
-1.74707e-05
3.57051e-05
-1.34745e-05
3.75678e-05
-7.03062e-06
4.08404e-05
-1.85061e-06
4.37032e-05
2.56742e-06
3.29617e-05
9.34156e-06
1.84605e-05
1.51299e-05
1.36248e-05
2.26499e-05
1.31092e-05
3.32324e-05
1.19822e-05
4.71695e-05
1.17757e-05
3.94701e-05
9.01499e-06
1.29531e-05
4.81453e-06
4.3788e-06
1.98559e-06
2.98863e-06
5.89051e-08
1.58741e-06
-1.0055e-06
-1.45816e-07
-1.34155e-06
-1.73874e-06
-1.22849e-06
-2.88078e-06
-9.30414e-07
-3.37671e-06
-6.13076e-07
-3.26401e-06
-3.4516e-07
-2.67859e-06
-1.34443e-07
-1.76635e-06
-6.05245e-07
3.95825e-06
-4.30507e-06
9.38111e-06
-5.83525e-06
1.61773e-05
-1.08373e-05
2.17192e-05
-1.60785e-05
2.54096e-05
-1.91771e-05
2.76781e-05
-1.96494e-05
2.96088e-05
-1.77662e-05
3.16142e-05
-1.39967e-05
3.42573e-05
-8.90397e-06
3.6684e-05
-2.70208e-06
3.99435e-05
3.66928e-06
4.45315e-05
7.62747e-06
4.25446e-05
1.45329e-05
2.83537e-05
1.80337e-05
1.88136e-05
2.30191e-05
1.69356e-05
3.50955e-05
1.51247e-05
5.16994e-05
1.35074e-05
4.7072e-05
9.43787e-06
1.92018e-05
4.39654e-06
9.07338e-06
1.38155e-06
6.5336e-06
-3.41434e-07
4.12905e-06
-1.08584e-06
1.61549e-06
-1.12672e-06
-5.74815e-07
-8.45972e-07
-2.08819e-06
-5.02458e-07
-2.84394e-06
-2.15979e-07
-2.90637e-06
-2.32821e-08
-2.42008e-06
5.08743e-08
-1.55068e-06
-4.56965e-07
4.035e-06
2.20767e-06
7.77181e-06
-2.81901e-06
1.34564e-05
-1.22881e-05
1.83487e-05
-1.74151e-05
2.13536e-05
-2.01507e-05
2.4018e-05
-1.91248e-05
2.67834e-05
-1.54491e-05
2.94393e-05
-1.00514e-05
3.23694e-05
-3.68913e-06
3.48619e-05
2.76435e-06
3.86177e-05
9.9933e-06
4.41712e-05
1.38601e-05
4.60029e-05
2.12045e-05
3.71325e-05
2.43449e-05
2.51381e-05
2.57555e-05
1.96241e-05
3.6353e-05
1.68486e-05
5.64887e-05
1.47142e-05
5.33964e-05
9.34597e-06
2.43783e-05
3.86665e-06
1.34677e-05
1.24154e-06
9.70697e-06
-2.09114e-08
6.35586e-06
-4.49362e-07
3.16064e-06
-3.8531e-07
4.9321e-07
-1.66954e-07
-1.31185e-06
6.43229e-08
-2.30134e-06
2.61833e-07
-2.55347e-06
3.73639e-07
-2.18819e-06
3.19895e-07
-1.35089e-06
-2.72335e-07
4.40118e-06
4.2927e-06
6.59094e-06
-3.91815e-06
1.06922e-05
-1.47167e-05
1.45925e-05
-2.07897e-05
1.78216e-05
-2.2028e-05
2.12029e-05
-1.85235e-05
2.45488e-05
-1.25699e-05
2.74151e-05
-5.21266e-06
2.99568e-05
2.62064e-06
3.23539e-05
9.91258e-06
3.62252e-05
1.69046e-05
4.21045e-05
2.20517e-05
4.59702e-05
2.86305e-05
4.21244e-05
3.1931e-05
3.07472e-05
3.15758e-05
2.27204e-05
4.02916e-05
1.78199e-05
5.56618e-05
1.48786e-05
5.45885e-05
9.44522e-06
2.68691e-05
4.52188e-06
1.68153e-05
2.50679e-06
1.22758e-05
1.559e-06
8.26608e-06
1.16329e-06
4.49244e-06
9.25132e-07
1.47272e-06
7.26785e-07
-5.24901e-07
6.31616e-07
-1.75731e-06
6.8445e-07
-2.24886e-06
8.00175e-07
-2.04934e-06
6.91783e-07
-1.22236e-06
-1.11074e-07
3.12077e-06
1.7326e-06
4.86969e-06
-6.3465e-06
7.85808e-06
-1.80658e-05
1.11182e-05
-2.40584e-05
1.54023e-05
-2.30227e-05
1.93842e-05
-1.70764e-05
2.26972e-05
-8.94955e-06
2.50004e-05
5.08342e-07
2.64759e-05
9.9384e-06
2.83992e-05
1.81926e-05
3.20744e-05
2.49912e-05
3.80188e-05
3.1259e-05
4.33161e-05
3.63055e-05
4.29745e-05
3.98635e-05
3.34448e-05
3.94338e-05
1.99761e-05
4.73967e-05
1.3962e-05
5.41129e-05
1.01256e-05
4.80279e-05
9.33753e-06
2.97977e-05
6.43301e-06
1.94901e-05
5.2499e-06
1.44735e-05
4.39785e-06
9.96588e-06
3.69327e-06
5.56808e-06
2.52231e-06
1.73316e-06
1.46902e-06
-1.53571e-07
8.54857e-07
-1.62902e-06
7.4092e-07
-2.25931e-06
1.05098e-06
-2.11968e-06
1.14324e-06
-1.26574e-06
-1.3659e-07
1.53424e-06
-1.08293e-06
2.75434e-06
-9.75306e-06
5.35096e-06
-2.18008e-05
8.60946e-06
-2.61391e-05
1.34212e-05
-2.30143e-05
1.74722e-05
-1.55315e-05
2.02098e-05
-5.71886e-06
2.12753e-05
5.49387e-06
2.11717e-05
1.67952e-05
2.21913e-05
2.68522e-05
2.55879e-05
3.39222e-05
3.19413e-05
3.96303e-05
3.86779e-05
4.43023e-05
4.10409e-05
4.7309e-05
3.25461e-05
4.81716e-05
1.73866e-05
5.37896e-05
1.38836e-05
5.29185e-05
1.1402e-05
4.42189e-05
1.03017e-05
3.10224e-05
1.04355e-05
2.11207e-05
9.61882e-06
1.61309e-05
8.59097e-06
1.14436e-05
6.71198e-06
6.47163e-06
3.81816e-06
1.56005e-06
1.50085e-06
-2.98338e-07
4.14264e-07
-1.90265e-06
1.53301e-07
-2.75242e-06
6.94338e-07
-2.47775e-06
1.2964e-06
-1.56505e-06
-3.66369e-07
6.01032e-07
-3.9983e-06
7.77991e-07
-1.33764e-05
2.45345e-06
-2.50521e-05
6.16507e-06
-2.75644e-05
1.0644e-05
-2.31831e-05
1.36226e-05
-1.47439e-05
1.53292e-05
-4.03556e-06
1.54917e-05
8.34478e-06
1.39736e-05
2.15909e-05
1.34543e-05
3.40669e-05
1.64612e-05
4.13343e-05
2.36527e-05
4.59691e-05
3.15943e-05
5.0968e-05
3.69366e-05
5.29877e-05
3.51716e-05
5.48745e-05
2.37119e-05
5.85557e-05
1.71428e-05
5.34218e-05
1.57447e-05
4.02173e-05
1.59306e-05
2.96219e-05
1.62334e-05
2.16262e-05
1.57481e-05
1.68626e-05
1.47773e-05
1.25733e-05
1.09463e-05
8.17593e-06
3.03436e-06
-1.51334e-05
8.57221e-08
-2.54504e-08
-1.12978e-06
-3.19975e-06
-1.30228e-06
-3.9361e-06
-6.79607e-07
-3.33491e-06
-2.67646e-08
-2.09264e-06
-1.01277e-06
3.01765e-07
-7.98047e-06
-9.9287e-07
-1.78425e-05
-2.82922e-07
-2.83978e-05
2.79139e-06
-2.86191e-05
5.22577e-06
-2.30435e-05
6.49093e-06
-1.40727e-05
7.0129e-06
-3.18333e-06
6.86366e-06
1.01607e-05
5.08491e-06
2.50342e-05
3.65984e-06
3.78862e-05
6.09752e-06
4.43766e-05
1.34681e-05
4.86735e-05
2.28848e-05
5.34515e-05
3.15094e-05
5.50993e-05
3.41379e-05
5.9845e-05
2.83954e-05
6.42082e-05
1.89929e-05
5.59957e-05
2.02326e-05
3.65209e-05
2.07323e-05
2.65172e-05
2.14593e-05
2.07958e-05
2.22266e-05
1.71209e-05
2.28034e-05
1.26552e-05
1.20411e-05
-1.22164e-05
-7.60101e-07
-3.90117e-05
-5.14546e-06
-2.22427e-05
-3.42091e-06
-4.98843e-06
-3.42044e-06
-6.09441e-06
-2.61137e-06
-4.68137e-06
-1.75244e-06
-3.13503e-06
-2.88873e-06
6.86465e-07
-1.5236e-05
-2.87898e-06
-2.531e-05
-2.80366e-06
-3.16441e-05
-1.01017e-06
-2.91291e-05
-7.96067e-08
-2.3667e-05
-4.39219e-07
-1.52021e-05
-1.87603e-06
-4.62733e-06
-3.45066e-06
1.02951e-05
-4.68402e-06
2.70991e-05
-4.45268e-06
3.81463e-05
-2.20233e-06
4.37815e-05
3.61436e-06
4.74881e-05
1.31272e-05
5.16466e-05
2.37436e-05
5.47324e-05
2.95113e-05
6.42716e-05
2.46363e-05
7.37282e-05
1.87962e-05
5.9198e-05
2.31483e-05
3.00085e-05
2.30481e-05
2.1638e-05
2.41292e-05
1.91365e-05
2.56275e-05
1.78327e-05
1.19249e-05
-8.41788e-06
-2.93004e-06
-3.84721e-05
-4.05444e-06
-4.47754e-05
-5.20391e-06
-3.89581e-05
-6.59198e-06
-1.28059e-05
-5.02142e-06
-9.02419e-06
-4.3504e-06
-6.30601e-06
-3.23665e-06
-4.65898e-06
-5.5406e-06
9.27923e-07
-2.46814e-05
-1.87591e-06
-3.02341e-05
-5.03387e-06
-3.60589e-05
-3.83095e-06
-3.05443e-05
-4.07533e-06
-2.69238e-05
-5.81234e-06
-2.00316e-05
-1.01502e-05
-1.40396e-05
-1.39893e-05
-3.97778e-06
-1.21473e-05
2.60195e-05
-9.16906e-06
3.57882e-05
-6.54405e-06
4.18241e-05
-2.52203e-06
4.52765e-05
4.64979e-06
4.86478e-05
1.46131e-05
5.41877e-05
1.91524e-05
6.73761e-05
1.0133e-05
7.85731e-05
1.20979e-05
5.2477e-05
2.04769e-05
2.18968e-05
2.17414e-05
1.69249e-05
2.46107e-05
1.9052e-05
8.21062e-06
-6.36303e-06
-7.25142e-06
-3.51219e-05
-5.128e-06
-4.24926e-05
-2.74076e-06
-4.51037e-05
-6.85146e-06
-3.4677e-05
-7.84482e-06
-2.03277e-05
-6.82215e-06
-1.25903e-05
-5.45243e-06
-8.06417e-06
-4.1406e-06
-1.01846e-05
-1.42852e-05
2.72825e-07
-2.85753e-05
1.05543e-06
-3.40117e-05
-4.89333e-06
-4.19204e-05
-5.90732e-06
-3.56158e-05
-5.50916e-06
-3.16768e-05
-6.79093e-06
-4.15182e-05
-7.022e-06
-4.29704e-05
-1.26657e-05
-3.41502e-05
-1.49044e-05
1.87703e-06
-1.15668e-05
3.00207e-05
-8.79526e-06
3.86927e-05
-5.48903e-06
4.22853e-05
-1.70348e-06
4.60204e-05
4.37946e-06
5.1274e-05
8.0103e-06
6.92687e-05
3.90424e-06
7.50031e-05
7.17056e-06
4.07394e-05
1.33562e-05
1.73866e-05
1.97618e-05
1.23181e-05
3.51691e-06
-3.79368e-06
-1.19338e-05
-3.29465e-05
-9.02386e-06
-3.88132e-05
-2.97629e-06
-4.22466e-05
-3.58725e-06
-4.51132e-05
-1.37229e-05
-3.85163e-05
-9.91218e-06
-2.48348e-05
-8.45709e-06
-1.53661e-05
-5.03654e-06
-1.63402e-05
-2.49766e-06
-3.0949e-05
-3.14115e-05
-1.73787e-07
-3.00468e-05
2.88623e-06
-3.66164e-05
-1.74838e-06
-4.2632e-05
-5.92498e-06
-4.70468e-05
-5.38229e-06
-4.7046e-05
-3.51089e-06
-5.59507e-05
4.39347e-07
-5.37335e-05
1.14162e-06
-4.60639e-05
-7.06811e-06
-2.98562e-05
-1.13468e-05
-1.20912e-07
-7.86339e-06
2.14601e-05
-5.80142e-06
3.22643e-05
-4.10834e-06
3.71086e-05
-3.19823e-06
3.45333e-05
-4.69331e-07
6.59628e-05
2.50901e-06
6.71414e-05
6.39852e-06
2.9502e-05
1.02746e-05
1.02673e-05
-2.41483e-06
4.14045e-07
-1.65684e-05
-2.1439e-05
-1.44995e-05
-3.50863e-05
-8.48456e-06
-3.89682e-05
-9.72087e-07
-4.28281e-05
4.96638e-06
-4.47607e-05
9.59704e-07
-4.59132e-05
-7.99979e-06
-3.87572e-05
-3.74187e-06
-2.71728e-05
9.03264e-07
-3.4335e-05
2.61995e-06
-4.06241e-05
-3.47801e-05
-4.17065e-07
-2.92243e-05
2.10355e-06
-3.60165e-05
-4.32623e-07
-3.96369e-05
-3.76733e-06
-4.58817e-05
-5.93574e-06
-5.11625e-05
-4.50998e-06
-5.35586e-05
-2.64035e-07
-5.25035e-05
4.80197e-06
-4.58753e-05
7.47854e-06
-3.52556e-05
3.91431e-06
-2.89873e-05
-2.65582e-07
-1.37718e-05
-5.07867e-07
-4.01214e-07
-1.51445e-06
6.24688e-06
-6.25349e-06
5.90099e-06
-3.87876e-06
5.20818e-05
3.24847e-06
6.0691e-05
7.26864e-06
1.74429e-05
2.32782e-06
1.01621e-06
-1.50334e-05
-8.41401e-06
-1.81058e-05
-1.79314e-05
-1.28402e-05
-3.29814e-05
-6.99863e-06
-3.91579e-05
3.7375e-07
-4.32694e-05
6.04443e-06
-4.45174e-05
8.46855e-06
-4.47444e-05
5.58159e-06
-4.42162e-05
2.50427e-06
-3.98279e-05
5.33183e-07
-3.90368e-05
1.64573e-06
-3.59603e-05
-3.031e-05
-5.23935e-07
-2.67024e-05
2.03036e-06
-3.27726e-05
1.44308e-06
-3.61153e-05
-2.36083e-08
-4.03437e-05
-3.38084e-06
-4.61288e-05
-4.36342e-06
-5.08834e-05
-1.59621e-06
-5.10841e-05
3.13583e-06
-4.44879e-05
7.95406e-06
-3.21222e-05
1.09791e-05
-2.92951e-05
1.11555e-05
-2.77961e-05
9.18734e-06
-2.30932e-05
4.41147e-06
-1.84108e-05
-4.32046e-06
-1.44508e-05
-6.32555e-06
2.27463e-05
4.25593e-06