/*--------------------------------*- C++ -*----------------------------------*\
| =========                 |                                                 |
| \\      /  F ield         | OpenFOAM: The Open Source CFD Toolbox           |
|  \\    /   O peration     | Version:  2.3.0                                 |
|   \\  /    A nd           | Web:      www.OpenFOAM.org                      |
|    \\/     M anipulation  |                                                 |
\*---------------------------------------------------------------------------*/
FoamFile
{
    version     2.0;
    format      ascii;
    class       volScalarField;
    location    "38";
    object      alpha.air;
}
// * * * * * * * * * * * * * * * * * * * * * * * * * * * * * * * * * * * * * //

dimensions      [0 0 0 0 0 0 0];

internalField   nonuniform List<scalar> 
1875
(
0.281622
0.265949
0.257125
0.261267
0.270156
0.282897
0.293637
0.305371
0.300319
0.281809
0.267057
0.288784
0.293527
0.269771
0.265305
0.296232
0.308379
0.301714
0.291497
0.279801
0.26811
0.260148
0.2565
0.265962
0.281352
0.161777
0.155784
0.149897
0.153996
0.164846
0.184408
0.212485
0.24713
0.279191
0.271521
0.236275
0.207048
0.206546
0.216713
0.265268
0.283232
0.262446
0.233528
0.202335
0.176784
0.160556
0.151809
0.148767
0.157193
0.163366
0.107282
0.108921
0.114054
0.121189
0.130628
0.145384
0.172852
0.21681
0.279181
0.277569
0.242589
0.206315
0.207048
0.221597
0.270762
0.283269
0.246136
0.198141
0.160231
0.139602
0.12824
0.121015
0.116769
0.115076
0.116495
0.0857212
0.0941673
0.11262
0.125824
0.139562
0.160351
0.192828
0.238587
0.279171
0.276731
0.237915
0.207048
0.20538
0.218316
0.265655
0.283269
0.263083
0.221083
0.180532
0.153771
0.137471
0.12592
0.116348
0.103317
0.101298
0.0856895
0.107259
0.139021
0.15798
0.183404
0.214662
0.245661
0.270781
0.278108
0.264203
0.22672
0.205541
0.207048
0.212328
0.248669
0.277305
0.276341
0.264426
0.23859
0.210915
0.183256
0.15948
0.144612
0.119315
0.101298
0.085657
0.150514
0.198461
0.220139
0.248744
0.264203
0.269431
0.269793
0.263938
0.238131
0.212769
0.207048
0.20453
0.207048
0.225177
0.25398
0.270149
0.270157
0.269229
0.264193
0.251695
0.223528
0.213305
0.178751
0.101298
0.0856257
0.207831
0.244332
0.255071
0.265479
0.266605
0.266617
0.254736
0.235759
0.215109
0.207048
0.204497
0.207048
0.206228
0.20805
0.223975
0.245577
0.258881
0.267728
0.268553
0.268391
0.260228
0.268391
0.256728
0.109721
0.1083
0.246491
0.258626
0.261126
0.265471
0.263173
0.250849
0.230643
0.214281
0.207048
0.20619
0.207048
0.203695
0.207048
0.206782
0.207619
0.218944
0.235877
0.253812
0.265275
0.268571
0.268391
0.270328
0.268391
0.139861
0.135422
0.269413
0.263116
0.261714
0.264602
0.253374
0.23265
0.215056
0.207921
0.206704
0.207048
0.203837
0.207048
0.205428
0.207048
0.20689
0.207533
0.216684
0.234936
0.255335
0.268061
0.268766
0.268391
0.270174
0.16191
0.149532
0.269435
0.266322
0.262625
0.264856
0.247243
0.227037
0.214624
0.208378
0.207048
0.205557
0.207048
0.203285
0.207048
0.206201
0.207048
0.206995
0.21012
0.222218
0.243588
0.26511
0.268391
0.270138
0.268391
0.172189
0.15575
0.265159
0.266338
0.263919
0.265348
0.251263
0.231501
0.217874
0.210472
0.206561
0.207048
0.203557
0.207048
0.205092
0.207048
0.206565
0.207048
0.208328
0.216345
0.234774
0.260222
0.268446
0.268391
0.269548
0.17616
0.166258
0.249695
0.262672
0.263669
0.265365
0.259059
0.243569
0.227984
0.216578
0.207048
0.205286
0.207048
0.203294
0.207048
0.20594
0.207048
0.206867
0.207505
0.213201
0.228371
0.25464
0.268162
0.269444
0.268391
0.177395
0.181294
0.226344
0.249341
0.259945
0.264519
0.264168
0.258404
0.245096
0.230651
0.212847
0.207048
0.203535
0.207048
0.204959
0.207048
0.206381
0.207048
0.207027
0.211096
0.223775
0.249031
0.267288
0.268394
0.269182
0.177938
0.201105
0.20679
0.225298
0.245791
0.258223
0.263578
0.263588
0.260348
0.250647
0.231706
0.205794
0.207048
0.203445
0.207048
0.205831
0.207048
0.206733
0.207048
0.209544
0.220371
0.243944
0.2658
0.269089
0.268394
0.178511
0.223108
0.203577
0.205103
0.222281
0.242049
0.256721
0.263059
0.267691
0.266839
0.255283
0.220514
0.203748
0.207048
0.204982
0.207048
0.206323
0.207048
0.206926
0.208358
0.217756
0.239947
0.26399
0.268395
0.26898
0.179233
0.231884
0.203567
0.201618
0.20652
0.221991
0.241906
0.257565
0.267444
0.267711
0.266511
0.24417
0.207048
0.203463
0.207048
0.205853
0.207048
0.206694
0.207048
0.207628
0.215687
0.236994
0.262198
0.268909
0.268395
0.180088
0.218778
0.205803
0.201706
0.202967
0.210892
0.228995
0.250728
0.267699
0.267444
0.267479
0.258025
0.205991
0.207048
0.204957
0.207048
0.20638
0.207048
0.20688
0.207446
0.214187
0.234771
0.260807
0.268395
0.268776
0.180891
0.183495
0.205361
0.203877
0.204423
0.212437
0.23132
0.253037
0.267444
0.267472
0.267094
0.262371
0.216512
0.203498
0.207048
0.205885
0.207048
0.20673
0.207048
0.207424
0.213302
0.233362
0.260375
0.268751
0.268395
0.181547
0.14337
0.205895
0.212148
0.208176
0.219948
0.241081
0.25936
0.267473
0.266777
0.265718
0.261846
0.228766
0.207048
0.204844
0.207048
0.206399
0.207048
0.20686
0.20744
0.213163
0.233182
0.260634
0.268395
0.26856
0.181635
0.123892
0.208975
0.222213
0.216547
0.236212
0.255026
0.264404
0.266579
0.264629
0.262538
0.259156
0.236321
0.204113
0.207048
0.205842
0.207048
0.206706
0.207048
0.207583
0.213472
0.233727
0.262278
0.268555
0.268395
0.181533
0.122931
0.218519
0.23307
0.230757
0.253497
0.262694
0.264264
0.263994
0.25985
0.255589
0.25131
0.235237
0.207048
0.2047
0.207048
0.206334
0.207048
0.206826
0.208076
0.214911
0.23639
0.266735
0.268395
0.268417
0.180763
0.128148
0.240639
0.24484
0.245508
0.261832
0.262705
0.26242
0.257862
0.250062
0.242013
0.235751
0.226816
0.205513
0.207048
0.205648
0.207048
0.206703
0.207048
0.209452
0.218826
0.24408
0.268395
0.268401
0.267875
0.1789
0.139856
0.269029
0.255066
0.255798
0.261837
0.26111
0.255776
0.24559
0.233798
0.223351
0.217333
0.214163
0.207056
0.204784
0.207048
0.20633
0.207048
0.207988
0.213901
0.227564
0.258812
0.268472
0.268045
0.264766
0.178792
0.15177
0.268479
0.262744
0.260816
0.26145
0.255143
0.242868
0.227966
0.216268
0.209667
0.207364
0.207456
0.206229
0.207048
0.205662
0.207048
0.208101
0.214236
0.225318
0.243455
0.268339
0.268395
0.266816
0.257586
0.180195
0.160342
0.269373
0.268479
0.260501
0.257999
0.243834
0.226055
0.212712
0.20715
0.206997
0.207048
0.207307
0.207052
0.205217
0.207048
0.206643
0.217863
0.230816
0.245142
0.260112
0.268365
0.268353
0.266391
0.251365
0.180556
0.166018
0.268479
0.268617
0.258053
0.249823
0.229058
0.212237
0.207048
0.206991
0.207048
0.206951
0.20731
0.206489
0.207048
0.205974
0.22153
0.242041
0.255076
0.263981
0.26782
0.268289
0.268126
0.267564
0.252838
0.179338
0.169967
0.269005
0.268479
0.252244
0.237196
0.215122
0.207048
0.206944
0.207048
0.206838
0.207048
0.207181
0.207048
0.20581
0.221949
0.252581
0.265256
0.267524
0.267752
0.26775
0.267577
0.267422
0.268126
0.262498
0.1785
0.173272
0.268479
0.267789
0.243332
0.223431
0.207395
0.206922
0.207048
0.206815
0.207048
0.206918
0.207879
0.20739
0.222586
0.254667
0.267376
0.267404
0.26743
0.266808
0.266023
0.26543
0.26567
0.26814
0.268165
0.184672
0.176147
0.268705
0.264806
0.23259
0.213426
0.206989
0.207048
0.206761
0.207048
0.20674
0.208169
0.215375
0.227332
0.253364
0.26736
0.267375
0.265983
0.264475
0.26287
0.261631
0.261063
0.262036
0.266336
0.26818
0.219984
0.178605
0.268479
0.2591
0.222442
0.208134
0.207048
0.206724
0.207048
0.206657
0.207048
0.217165
0.234877
0.253954
0.266715
0.267344
0.266158
0.262539
0.258174
0.255127
0.253615
0.253279
0.254953
0.260783
0.267037
0.268159
0.180645
0.268505
0.251581
0.215022
0.207048
0.206764
0.207048
0.206576
0.207048
0.212235
0.231751
0.250781
0.262528
0.266554
0.267115
0.265898
0.26013
0.253351
0.246783
0.242385
0.240761
0.241452
0.248406
0.262498
0.269633
0.182304
0.268203
0.24381
0.210729
0.206876
0.207048
0.206518
0.207048
0.206931
0.220964
0.238401
0.251283
0.260739
0.264635
0.265509
0.264994
0.260623
0.254297
0.246328
0.235883
0.226915
0.223848
0.227298
0.252463
0.269633
0.183557
0.267325
0.237131
0.208536
0.207048
0.206559
0.207048
0.206518
0.21052
0.2249
0.237258
0.24791
0.255545
0.260207
0.262371
0.262876
0.261162
0.25697
0.249376
0.238217
0.225785
0.214388
0.20931
0.235756
0.26801
0.1844
0.265897
0.232163
0.207714
0.206722
0.207048
0.206342
0.207048
0.212945
0.223614
0.233064
0.241529
0.248493
0.254046
0.257758
0.259643
0.260177
0.258363
0.254725
0.246081
0.23218
0.216973
0.20908
0.214763
0.249423
0.184927
0.26422
0.228877
0.207766
0.207048
0.206415
0.207048
0.206807
0.213282
0.219958
0.226659
0.23486
0.242121
0.247988
0.252424
0.255332
0.257088
0.257346
0.255836
0.253628
0.245889
0.228119
0.208851
0.20761
0.220242
0.185248
0.262774
0.227319
0.208017
0.206659
0.207048
0.206304
0.207214
0.212649
0.215702
0.220017
0.228042
0.236284
0.24258
0.247114
0.250344
0.252683
0.254192
0.254433
0.253597
0.251353
0.241009
0.218325
0.207629
0.217387
0.185266
0.262242
0.227498
0.208495
0.207048
0.206382
0.207048
0.208499
0.21281
0.214043
0.21505
0.220548
0.229232
0.236296
0.241197
0.244743
0.247269
0.249113
0.250262
0.250604
0.24932
0.241102
0.22603
0.213046
0.228324
0.185233
0.262378
0.228293
0.209357
0.206671
0.207048
0.20644
0.210314
0.214093
0.214599
0.214669
0.214925
0.220362
0.227678
0.233243
0.237141
0.239827
0.241639
0.242796
0.243297
0.242369
0.235931
0.225655
0.22147
0.231102
0.185148
0.262821
0.229798
0.210802
0.207048
0.206425
0.207049
0.212133
0.214455
0.214529
0.214613
0.214305
0.214535
0.219025
0.224087
0.227212
0.229393
0.230936
0.231858
0.232181
0.23136
0.22661
0.222045
0.222666
0.231065
0.185015
0.263664
0.231757
0.213059
0.208084
0.207048
0.206912
0.213298
0.214472
0.214493
0.214515
0.214248
0.214233
0.216534
0.218954
0.219975
0.220426
0.220663
0.220872
0.221081
0.221059
0.219041
0.217755
0.221972
0.231027
0.184733
0.264887
0.234047
0.215639
0.210914
0.206546
0.208782
0.213977
0.214493
0.214515
0.214537
0.21456
0.214721
0.217138
0.219255
0.2199
0.219727
0.217811
0.216299
0.216027
0.216035
0.216049
0.217804
0.226979
0.231016
0.183933
0.265549
0.237426
0.218367
0.214141
0.209031
0.211848
0.214457
0.21431
0.21433
0.214435
0.214804
0.215918
0.218611
0.221252
0.222214
0.222159
0.219656
0.216971
0.215897
0.215896
0.216126
0.231025
0.2545
0.227792
0.181786
0.265595
0.243909
0.221438
0.217796
0.215143
0.215294
0.214925
0.213907
0.21363
0.213666
0.214429
0.215953
0.219196
0.22339
0.225896
0.226509
0.224288
0.220067
0.216475
0.215747
0.21927
0.261652
0.263763
0.218908
0.180074
0.264671
0.253926
0.225522
0.221168
0.219401
0.217736
0.215548
0.213836
0.212719
0.212393
0.21317
0.215306
0.21881
0.223749
0.227337
0.22812
0.22761
0.22366
0.218734
0.215836
0.222009
0.263884
0.261652
0.206813
0.181124
0.259665
0.256894
0.232524
0.224905
0.221729
0.219507
0.216728
0.214377
0.212644
0.211564
0.211623
0.213882
0.217818
0.223303
0.227198
0.228099
0.227313
0.224269
0.220317
0.215687
0.221876
0.261652
0.264435
0.197317
0.185107
0.247169
0.255817
0.242176
0.230745
0.224622
0.222073
0.220018
0.217464
0.213674
0.211654
0.211557
0.212856
0.216848
0.222163
0.225927
0.226614
0.224534
0.222053
0.219612
0.215783
0.220739
0.263993
0.261652
0.194029
0.18811
0.228887
0.252788
0.251135
0.239906
0.230579
0.228063
0.229437
0.229385
0.218631
0.213111
0.211725
0.213016
0.216234
0.220344
0.222689
0.222021
0.217974
0.215815
0.21634
0.215705
0.219499
0.261652
0.264771
0.193819
0.187847
0.216995
0.250396
0.259183
0.251236
0.242599
0.242099
0.249644
0.2579
0.234304
0.219446
0.214036
0.214005
0.215736
0.217614
0.217871
0.214691
0.209259
0.207344
0.210811
0.215725
0.219352
0.264133
0.261652
0.193813
0.185643
0.216825
0.251383
0.265198
0.262223
0.259469
0.262664
0.268356
0.268479
0.265101
0.234446
0.219858
0.216484
0.215488
0.214626
0.21221
0.207218
0.201783
0.200685
0.206214
0.216457
0.220675
0.261652
0.264916
0.193777
0.179726
0.220963
0.256478
0.266988
0.267793
0.268265
0.268728
0.268479
0.269107
0.268479
0.253111
0.230889
0.220986
0.216007
0.212449
0.207806
0.202001
0.197974
0.197736
0.204558
0.218299
0.224885
0.264346
0.261652
0.193807
0.172075
0.232493
0.263597
0.267332
0.268473
0.268525
0.268479
0.268809
0.268479
0.26897
0.265017
0.245272
0.22855
0.218406
0.212069
0.20613
0.199805
0.197337
0.197333
0.205412
0.222747
0.231568
0.261652
0.265056
0.194005
0.169585
0.245103
0.266074
0.267699
0.268398
0.268479
0.268545
0.268479
0.268728
0.268479
0.268722
0.257397
0.239285
0.224202
0.213795
0.206524
0.199575
0.197331
0.197769
0.209521
0.231179
0.239718
0.264654
0.261652
0.20317
0.171114
0.248564
0.265627
0.267743
0.268359
0.268443
0.268479
0.26854
0.268479
0.268554
0.268479
0.26397
0.250355
0.233652
0.218849
0.208355
0.200504
0.197336
0.200029
0.21776
0.241105
0.247865
0.261652
0.265025
0.216726
0.179431
0.24765
0.263011
0.267373
0.268365
0.268354
0.268419
0.268479
0.268512
0.268479
0.268493
0.266535
0.258326
0.24412
0.226606
0.211955
0.203113
0.197991
0.204347
0.227178
0.247086
0.253676
0.264885
0.261652
0.222911
0.19555
0.242629
0.257551
0.266249
0.268364
0.268325
0.26829
0.268343
0.26839
0.268408
0.26808
0.26647
0.26174
0.250931
0.233172
0.215789
0.206954
0.203004
0.210984
0.234037
0.248293
0.255822
0.261652
0.264874
0.218343
0.209452
0.234834
0.251673
0.2648
0.268365
0.268337
0.268113
0.268059
0.267885
0.267969
0.267725
0.266126
0.261564
0.251773
0.235041
0.218031
0.211198
0.210742
0.218906
0.237802
0.247987
0.255446
0.264878
0.261652
0.20208
0.21537
0.232524
0.248591
0.263576
0.268358
0.268289
0.26784
0.267583
0.267216
0.267036
0.266755
0.265321
0.260927
0.251107
0.23436
0.218919
0.216028
0.218302
0.226801
0.239852
0.246556
0.253163
0.261652
0.264348
0.173965
0.218378
0.233388
0.247604
0.26244
0.268173
0.268036
0.267353
0.26683
0.266294
0.265829
0.265315
0.263881
0.259195
0.248712
0.23185
0.220121
0.22083
0.225935
0.233735
0.240931
0.243697
0.248155
0.264382
0.261652
0.144274
0.221853
0.235318
0.248016
0.261397
0.267722
0.267448
0.266538
0.265779
0.265164
0.264611
0.263741
0.261441
0.255234
0.243186
0.227973
0.22263
0.226132
0.234233
0.239247
0.240941
0.240925
0.242856
0.261652
0.263783
0.124206
0.22554
0.237867
0.248981
0.26137
0.266992
0.266487
0.265454
0.264627
0.264048
0.263263
0.261323
0.256592
0.247413
0.234855
0.226548
0.226375
0.23316
0.241856
0.242664
0.240883
0.240107
0.240976
0.263662
0.261652
0.116303
0.230413
0.240954
0.250334
0.261526
0.265952
0.265247
0.264327
0.263546
0.262627
0.260604
0.255895
0.247255
0.236317
0.228957
0.226611
0.231345
0.241036
0.245469
0.244067
0.240375
0.240134
0.241396
0.261652
0.263272
0.113786
0.244362
0.243114
0.251484
0.261501
0.264769
0.263987
0.263105
0.26181
0.259246
0.254023
0.245264
0.234996
0.228807
0.228689
0.230187
0.238791
0.245552
0.245733
0.243973
0.239836
0.240306
0.242508
0.263037
0.261652
0.111949
0.268936
0.242271
0.250771
0.261014
0.263582
0.262531
0.260842
0.257421
0.2512
0.242184
0.232638
0.228889
0.228817
0.230396
0.237664
0.245191
0.246709
0.245987
0.243705
0.239803
0.240753
0.244312
0.261652
0.262699
0.110028
0.268927
0.23886
0.248148
0.260505
0.262111
0.260226
0.256316
0.249188
0.239505
0.230858
0.229178
0.229755
0.232422
0.238132
0.246246
0.248206
0.247769
0.246499
0.243839
0.24001
0.241552
0.246274
0.262263
0.261652
0.109859
0.268915
0.23408
0.243735
0.259062
0.259463
0.256098
0.249317
0.239847
0.231491
0.228367
0.229165
0.233768
0.241159
0.247367
0.248706
0.248708
0.247877
0.246357
0.243674
0.240365
0.241544
0.245818
0.261652
0.261942
0.109826
0.268878
0.231048
0.238522
0.253326
0.251909
0.246379
0.236208
0.228051
0.223742
0.223756
0.225954
0.232395
0.239478
0.243294
0.243081
0.241608
0.239102
0.237276
0.235084
0.23275
0.233446
0.235996
0.254473
0.261321
0.109796
0.25451
0.226663
0.224853
0.23208
0.228335
0.220626
0.20671
0.203753
0.203749
0.203752
0.204115
0.211042
0.215519
0.215499
0.213784
0.209924
0.204546
0.203751
0.203747
0.20375
0.203746
0.20375
0.220871
0.236924
0.109053
0.222708
0.217519
0.204192
0.204301
0.203757
0.203749
0.203753
0.203749
0.203752
0.203748
0.203752
0.203748
0.203752
0.203748
0.203751
0.203747
0.203751
0.203747
0.20375
0.203746
0.20375
0.203746
0.20375
0.2079
0.132956
0.474822
0.416576
0.404774
0.420403
0.438109
0.446766
0.451151
0.452364
0.453826
0.456735
0.461003
0.463583
0.465423
0.466607
0.467794
0.469192
0.47112
0.472086
0.472561
0.47271
0.471875
0.467034
0.463275
0.481838
0.567106
0.921939
0.899477
0.900391
0.905941
0.911571
0.914815
0.91668
0.917887
0.918924
0.919629
0.920127
0.920431
0.920751
0.921205
0.92186
0.922712
0.923758
0.92491
0.926154
0.927436
0.928603
0.929165
0.928678
0.935345
0.962861
0.999691
0.998436
0.997262
0.997077
0.997197
0.997366
0.997497
0.997596
0.997665
0.997698
0.997704
0.997705
0.99771
0.997721
0.997737
0.997754
0.99777
0.997785
0.99779
0.997776
0.997741
0.997722
0.998019
0.999159
0.999957
1
0.999999
0.999994
0.999985
0.999981
0.999982
0.999984
0.999985
0.999986
0.999986
0.999987
0.999987
0.999987
0.999987
0.999987
0.999986
0.999986
0.999985
0.999984
0.999983
0.999982
0.999983
0.999993
1
1
1
1
1
1
1
1
1
1
1
1
1
1
1
1
1
1
1
1
1
1
1
1
1
1
1
1
1
1
1
1
1
1
1
1
1
1
1
1
1
1
1
1
1
1
1
1
1
1
1
1
1
1
1
1
1
1
1
1
1
1
1
1
1
1
1
1
1
1
1
1
1
1
1
1
1
)
;

boundaryField
{
    inlet
    {
        type            fixedValue;
        value           uniform 0.5;
    }
    outlet
    {
        type            inletOutlet;
        phi             phi.air;
        inletValue      uniform 1;
        value           nonuniform List<scalar> 
25
(
1
1
1
1
1
1
1
1
1
1
1
1
1
1
1
1
1
1
1
1
1
1
1
1
1
)
;
    }
    walls
    {
        type            zeroGradient;
    }
    defaultFaces
    {
        type            empty;
    }
}


// ************************************************************************* //
