/*--------------------------------*- C++ -*----------------------------------*\
| =========                 |                                                 |
| \\      /  F ield         | OpenFOAM: The Open Source CFD Toolbox           |
|  \\    /   O peration     | Version:  2.3.0                                 |
|   \\  /    A nd           | Web:      www.OpenFOAM.org                      |
|    \\/     M anipulation  |                                                 |
\*---------------------------------------------------------------------------*/
FoamFile
{
    version     2.0;
    format      ascii;
    class       surfaceScalarField;
    location    "38";
    object      phi;
}
// * * * * * * * * * * * * * * * * * * * * * * * * * * * * * * * * * * * * * //

dimensions      [0 3 -1 0 0 0 0];

internalField   nonuniform List<scalar> 
3650
(
5.85008e-05
-2.34913e-05
0.000118308
-2.47978e-05
0.00017413
-2.08118e-05
0.000220464
-1.13205e-05
0.000253357
2.12291e-06
0.00026931
1.90661e-05
0.000266408
3.7924e-05
0.000237589
6.38461e-05
0.000187175
8.54463e-05
0.000128119
9.40866e-05
7.05691e-05
9.25773e-05
1.33481e-05
9.22463e-05
-4.42743e-05
9.2648e-05
-0.000100495
9.12461e-05
-0.000160324
9.48589e-05
-0.000218339
9.30477e-05
-0.000260733
7.74236e-05
-0.000279485
5.37768e-05
-0.000275943
3.14795e-05
-0.000254993
1.4068e-05
-0.000218897
-1.07986e-06
-0.000171009
-1.28756e-05
-0.000115031
-2.09669e-05
-5.65588e-05
-2.34628e-05
-2.15486e-05
5.56554e-05
-7.91282e-05
0.000103826
-7.29498e-05
0.000145024
-6.19887e-05
0.000178461
-4.47346e-05
0.000202202
-2.159e-05
0.000212516
8.78608e-06
0.000204913
4.5569e-05
0.000183285
8.55295e-05
0.000143415
0.000125384
9.4823e-05
0.00014275
4.7906e-05
0.000139557
9.45377e-06
0.000130755
-2.83114e-05
0.00013047
-7.20986e-05
0.000135092
-0.000123617
0.000146446
-0.000169199
0.000138701
-0.000200356
0.000108642
-0.000216785
7.02555e-05
-0.000219127
3.38611e-05
-0.000204202
-8.25543e-07
-0.000177849
-2.74057e-05
-0.000143064
-4.76377e-05
-0.000101686
-6.23254e-05
-5.41952e-05
-7.0934e-05
-7.57246e-05
3.35383e-05
-0.000112659
6.42696e-05
-0.000103673
8.71701e-05
-8.48786e-05
0.000102761
-6.03118e-05
0.000111265
-3.00756e-05
0.000113892
6.18345e-06
0.000109423
5.00719e-05
9.50439e-05
9.9959e-05
7.3604e-05
0.000146893
4.95374e-05
0.000166892
2.68318e-05
0.00016233
5.59158e-06
0.000152052
-1.54218e-05
0.000151539
-3.78128e-05
0.000157544
-6.16254e-05
0.000170333
-8.53312e-05
0.000162482
-0.000104991
0.000128362
-0.000116086
8.13943e-05
-0.000116193
3.39988e-05
-0.000112394
-4.60245e-06
-0.000102651
-3.71317e-05
-8.6179e-05
-6.40968e-05
-6.30619e-05
-8.54318e-05
-3.26728e-05
-0.000101314
-0.000108389
1.16141e-05
-0.00012427
1.84449e-05
-0.000110499
1.97886e-05
-8.62153e-05
1.5895e-05
-5.64073e-05
6.06613e-06
-2.02305e-05
-9.24442e-06
2.15178e-05
-2.5364e-05
6.62268e-05
-3.65135e-05
0.000111161
-3.56305e-05
0.000146083
-2.64387e-05
0.000157777
-1.34387e-05
0.000149396
-7.43232e-07
0.000139411
1.24647e-05
0.000138385
2.63749e-05
0.000143694
3.9805e-05
0.000156978
4.5926e-05
0.000156438
4.11588e-05
0.000133193
2.80641e-05
9.45341e-05
1.10564e-05
5.10368e-05
-3.1731e-06
9.64813e-06
-1.25806e-05
-2.77094e-05
-1.65708e-05
-6.00963e-05
-1.60307e-05
-8.59649e-05
-1.04905e-05
-0.00010685
-0.000118877
-1.41135e-05
-0.000110156
-3.40729e-05
-9.05363e-05
-5.84284e-05
-6.18533e-05
-8.45261e-05
-3.02981e-05
-0.00011077
6.03186e-06
-0.000131996
4.27716e-05
-0.000142175
7.64459e-05
-0.000135289
0.000104329
-0.000109886
0.000120744
-7.36092e-05
0.000121564
-3.77933e-05
0.000113634
-6.65662e-06
0.000108321
2.44403e-05
0.000107332
5.88716e-05
0.000109312
9.87586e-05
0.000117151
0.000133743
0.000121518
0.000154139
0.000112855
0.000157228
9.1493e-05
0.000145142
6.31574e-05
0.000122781
3.2034e-05
9.58152e-05
-7.26798e-07
6.82677e-05
-3.25379e-05
4.07566e-05
-5.84471e-05
1.6526e-05
-8.2615e-05
-0.00010235
-2.97532e-05
-8.04013e-05
-6.91367e-05
-5.11457e-05
-0.000110131
-2.08458e-05
-0.000147814
7.40421e-06
-0.000177292
3.55382e-05
-0.000192637
5.81535e-05
-0.000190745
7.45991e-05
-0.000170073
8.37092e-05
-0.000134433
8.51582e-05
-9.23494e-05
7.9531e-05
-5.20498e-05
7.33793e-05
-1.42026e-05
7.05129e-05
2.37372e-05
6.9431e-05
6.39377e-05
6.91536e-05
0.000109021
7.21139e-05
0.000153349
7.72426e-05
0.000187562
7.86954e-05
0.000205932
7.31714e-05
0.000206582
6.25492e-05
0.000191181
4.74687e-05
0.000161826
2.8654e-05
0.000123173
6.13406e-06
7.84194e-05
-1.36792e-05
3.29819e-05
-3.71689e-05
-6.93663e-05
-3.57004e-05
-4.46964e-05
-7.95188e-05
-7.31039e-06
-0.000119515
1.91757e-05
-0.00015227
4.0191e-05
-0.00017306
5.6366e-05
-0.000179593
6.47298e-05
-0.000170844
6.58973e-05
-0.000148079
6.09911e-05
-0.000116387
5.35112e-05
-8.31724e-05
4.63567e-05
-5.15089e-05
4.17535e-05
-2.00138e-05
3.90515e-05
1.23155e-05
3.71344e-05
4.53856e-05
3.61192e-05
8.12929e-05
3.62444e-05
0.000119472
3.91047e-05
0.000154028
4.41825e-05
0.000177939
4.93055e-05
0.000187505
5.3026e-05
0.000181785
5.32297e-05
0.000161278
4.91971e-05
0.000127696
3.97467e-05
8.62116e-05
2.78311e-05
3.98821e-05
9.18036e-06
-2.94775e-05
-3.35724e-05
-1.11134e-05
-6.9718e-05
2.88645e-05
-9.92768e-05
4.8771e-05
-0.000121646
6.26013e-05
-0.00013486
6.96253e-05
-0.000137106
6.70226e-05
-0.000128061
5.68976e-05
-0.000111149
4.41194e-05
-9.07444e-05
3.31439e-05
-6.96189e-05
2.52656e-05
-4.76117e-05
1.97783e-05
-2.4087e-05
1.5555e-05
4.01475e-07
1.26728e-05
2.5515e-05
1.10354e-05
5.08966e-05
1.08942e-05
7.72786e-05
1.27553e-05
0.000103345
1.81508e-05
0.000125139
2.75497e-05
0.000137803
4.04035e-05
0.000137655
5.34208e-05
0.000124978
6.19176e-05
0.000101753
6.30123e-05
7.23483e-05
5.72726e-05
3.76519e-05
4.39089e-05
8.18989e-06
-2.3305e-05
1.22091e-05
-4.50494e-05
5.06478e-05
-6.26958e-05
6.64614e-05
-7.57238e-05
7.56765e-05
-8.41838e-05
7.81346e-05
-8.62131e-05
6.90988e-05
-8.25349e-05
5.32609e-05
-7.54036e-05
3.70245e-05
-6.59407e-05
2.37139e-05
-5.4229e-05
1.35843e-05
-4.00838e-05
5.66093e-06
-2.40256e-05
-4.79504e-07
-6.568e-06
-4.76272e-06
1.14462e-05
-6.95406e-06
2.94975e-05
-7.1308e-06
4.69e-05
-4.61988e-06
6.37427e-05
1.33703e-06
7.87871e-05
1.25371e-05
8.95644e-05
2.96631e-05
9.27243e-05
5.03037e-05
8.61018e-05
6.85874e-05
7.18144e-05
7.73476e-05
5.19653e-05
7.71663e-05
2.79584e-05
6.79576e-05
3.6172e-05
-9.09911e-06
2.13301e-05
-1.53147e-05
5.69071e-05
-2.10152e-05
7.22097e-05
-2.58023e-05
8.05135e-05
-3.00392e-05
8.24224e-05
-3.34708e-05
7.25769e-05
-3.59056e-05
5.57357e-05
-3.70547e-05
3.82085e-05
-3.5866e-05
2.25563e-05
-3.17359e-05
9.48237e-06
-2.50313e-05
-1.01889e-06
-1.60873e-05
-9.40309e-06
-5.61796e-06
-1.52134e-05
5.68051e-06
-1.82315e-05
1.70377e-05
-1.84656e-05
2.79732e-05
-1.55317e-05
3.79103e-05
-8.57466e-06
4.69283e-05
3.54703e-06
5.42829e-05
2.23414e-05
5.7898e-05
4.67291e-05
5.51398e-05
7.13941e-05
4.64985e-05
8.60406e-05
3.37412e-05
8.99735e-05
1.80377e-05
8.37092e-05
5.42393e-05
3.13483e-06
1.82188e-05
1.05897e-05
4.94958e-05
1.69111e-05
6.59363e-05
2.13219e-05
7.61529e-05
2.31514e-05
8.0644e-05
2.06571e-05
7.51185e-05
1.47807e-05
6.16529e-05
8.08645e-06
4.49381e-05
2.53893e-06
2.8135e-05
-2.65836e-07
1.23144e-05
-6.60383e-07
-6.01006e-07
1.13817e-06
-1.1183e-05
4.70423e-06
-1.87627e-05
9.38186e-06
-2.28904e-05
1.45185e-05
-2.35822e-05
1.95244e-05
-2.05163e-05
2.40605e-05
-1.30875e-05
2.81185e-05
-4.84918e-07
3.18605e-05
1.86302e-05
3.45258e-05
4.41021e-05
3.39216e-05
7.20464e-05
2.88732e-05
9.11427e-05
2.09207e-05
9.79793e-05
1.0969e-05
9.37131e-05
6.52411e-05
1.03982e-05
7.84448e-06
2.89432e-05
3.099e-05
4.60202e-05
4.89042e-05
5.95594e-05
6.26616e-05
6.85666e-05
7.16867e-05
7.05114e-05
7.32219e-05
6.54118e-05
6.67959e-05
5.58826e-05
5.45052e-05
4.51387e-05
3.89119e-05
3.60353e-05
2.1446e-05
2.92992e-05
6.1585e-06
2.45762e-05
-6.44144e-06
2.17019e-05
-1.58721e-05
2.02965e-05
-2.14671e-05
1.98213e-05
-2.30879e-05
1.98468e-05
-2.05215e-05
2.00513e-05
-1.32695e-05
2.03461e-05
-7.54518e-07
2.10332e-05
1.79728e-05
2.19262e-05
4.32461e-05
2.17067e-05
7.23133e-05
1.84504e-05
9.44537e-05
1.31623e-05
0.000103323
6.74966e-06
0.00010018
7.20254e-05
1.20446e-05
-4.17627e-06
3.49607e-05
8.10646e-06
5.94735e-05
2.44302e-05
8.07596e-05
4.14192e-05
9.68524e-05
5.5641e-05
0.000105304
6.48185e-05
0.000104912
6.72339e-05
9.64971e-05
6.29622e-05
8.31258e-05
5.23204e-05
6.89444e-05
3.56585e-05
5.77834e-05
1.73444e-05
4.83765e-05
2.98503e-06
4.06454e-05
-8.1237e-06
3.44813e-05
-1.52846e-05
2.96941e-05
-1.82815e-05
2.59291e-05
-1.67361e-05
2.2929e-05
-1.02469e-05
2.04849e-05
1.71482e-06
1.86988e-05
1.97885e-05
1.76556e-05
4.43257e-05
1.67128e-05
7.33027e-05
1.39056e-05
9.73164e-05
9.74637e-06
0.000107539
4.90116e-06
0.000105082
7.69623e-05
1.04802e-05
-1.46329e-05
3.11198e-05
-1.25066e-05
5.7067e-05
-1.48567e-06
8.26312e-05
1.58921e-05
0.000103681
3.46336e-05
0.000117539
5.10068e-05
0.00012246
6.23594e-05
0.000118213
6.7256e-05
0.000106509
6.40672e-05
9.0322e-05
5.18817e-05
7.65348e-05
3.11597e-05
6.53926e-05
1.41487e-05
5.57707e-05
1.51722e-06
4.74695e-05
-6.96362e-06
4.03593e-05
-1.1151e-05
3.42046e-05
-1.05601e-05
2.89501e-05
-4.96923e-06
2.44625e-05
6.22836e-06
2.09234e-05
2.33576e-05
1.832e-05
4.69654e-05
1.62077e-05
7.54614e-05
1.30678e-05
0.000100512
8.94764e-06
0.000111718
4.49185e-06
0.000109596
8.14908e-05
1.14701e-05
-2.60802e-05
2.81482e-05
-2.91628e-05
4.85351e-05
-2.18479e-05
7.09983e-05
-6.54127e-06
9.16492e-05
1.40187e-05
0.000106831
3.58667e-05
0.000114583
5.46543e-05
0.000114514
6.73726e-05
0.000108036
7.05924e-05
9.55125e-05
6.44483e-05
8.08635e-05
4.58423e-05
7.09582e-05
2.4078e-05
6.22998e-05
1.01965e-05
5.46454e-05
7.12213e-07
4.76634e-05
-4.14723e-06
4.1169e-05
-4.04302e-06
3.51812e-05
1.0429e-06
2.96745e-05
1.1762e-05
2.49735e-05
2.80894e-05
2.11252e-05
5.08507e-05
1.78172e-05
7.8816e-05
1.40111e-05
0.000104375
9.48753e-06
0.000116301
4.75729e-06
0.000114385
8.62857e-05
1.54127e-05
-4.14724e-05
2.83358e-05
-4.20672e-05
4.07414e-05
-3.42333e-05
5.43104e-05
-2.0086e-05
6.82578e-05
1.01276e-07
7.98721e-05
2.42898e-05
8.68942e-05
4.76761e-05
8.88556e-05
6.54593e-05
8.69319e-05
7.2565e-05
8.09852e-05
7.04425e-05
7.06388e-05
5.62287e-05
6.4414e-05
3.03299e-05
5.92405e-05
1.53924e-05
5.45189e-05
5.4567e-06
4.98722e-05
5.22592e-07
4.50087e-05
8.44436e-07
3.99029e-05
6.17418e-06
3.45996e-05
1.70934e-05
2.94172e-05
3.33036e-05
2.47208e-05
5.55848e-05
2.03763e-05
8.32076e-05
1.57273e-05
0.000109082
1.0535e-05
0.000121555
5.28172e-06
0.0001197
9.16062e-05
1.60122e-05
-5.74678e-05
2.38033e-05
-4.98418e-05
2.91019e-05
-3.95139e-05
3.37734e-05
-2.47361e-05
3.8641e-05
-4.73974e-06
4.31065e-05
1.98579e-05
4.63257e-05
4.44986e-05
4.86165e-05
6.32159e-05
5.04696e-05
7.07613e-05
5.16129e-05
6.93481e-05
5.03206e-05
5.7565e-05
4.97874e-05
3.08933e-05
5.01355e-05
1.50673e-05
4.98444e-05
5.77126e-06
4.85258e-05
1.86517e-06
4.61645e-05
3.23061e-06
4.2676e-05
9.68926e-06
3.82367e-05
2.1562e-05
3.3197e-05
3.83763e-05
2.80675e-05
6.07529e-05
2.29062e-05
8.8417e-05
1.73795e-05
0.000114668
1.15487e-05
0.000127449
5.73534e-06
0.000125576
9.73815e-05
1.1095e-05
-6.85499e-05
1.26009e-05
-5.13321e-05
1.09182e-05
-3.78138e-05
8.81491e-06
-2.2612e-05
6.44188e-06
-2.34118e-06
4.90606e-06
2.14263e-05
5.83083e-06
4.36142e-05
1.03085e-05
5.87847e-05
1.71165e-05
6.40015e-05
2.52303e-05
6.1282e-05
3.26616e-05
5.01777e-05
3.70477e-05
2.65393e-05
4.25663e-05
9.57136e-06
4.64496e-05
1.91105e-06
4.81896e-05
1.49243e-07
4.79878e-05
3.45777e-06
4.5779e-05
1.19254e-05
4.19514e-05
2.54197e-05
3.69028e-05
4.3459e-05
3.11725e-05
6.6523e-05
2.50532e-05
9.45857e-05
1.85726e-05
0.00012121
1.21297e-05
0.000133957
5.94317e-06
0.000131827
0.000103366
2.50734e-06
-7.10472e-05
-1.80119e-06
-4.70081e-05
-9.14607e-06
-3.04502e-05
-1.60142e-05
-1.57222e-05
-2.26675e-05
4.33871e-06
-2.61264e-05
2.49187e-05
-2.38318e-05
4.13599e-05
-1.54114e-05
5.0409e-05
-3.0541e-06
5.16898e-05
1.12756e-05
4.69968e-05
2.49584e-05
3.65363e-05
3.4037e-05
1.7493e-05
4.27383e-05
8.91606e-07
4.89428e-05
-4.27129e-06
5.24407e-05
-3.32506e-06
5.31154e-05
2.80839e-06
5.10035e-05
1.40652e-05
4.67516e-05
2.97027e-05
4.0885e-05
4.93611e-05
3.39753e-05
7.34739e-05
2.65303e-05
0.000102082
1.89161e-05
0.000128887
1.2019e-05
0.000140922
5.74051e-06
0.000138173
0.000109149
-5.67801e-06
-6.53603e-05
-1.51307e-05
-3.75386e-05
-2.55984e-05
-1.99613e-05
-3.50442e-05
-6.25282e-06
-4.25608e-05
1.18847e-05
-4.4072e-05
2.64653e-05
-3.78555e-05
3.51831e-05
-2.51127e-05
3.7708e-05
-8.04591e-06
3.46644e-05
1.09584e-05
2.80323e-05
2.88648e-05
1.86669e-05
4.16397e-05
4.74871e-06
5.13879e-05
-8.83616e-06
5.75819e-05
-1.04445e-05
6.04757e-05
-6.19581e-06
5.99432e-05
3.36631e-06
5.65158e-05
1.75212e-05
5.08385e-05
3.54123e-05
4.3391e-05
5.68457e-05
3.47586e-05
8.21496e-05
2.56524e-05
0.000111241
1.68847e-05
0.000137721
1.00118e-05
0.000147865
4.46285e-06
0.00014379
0.000113655
-1.05181e-05
-5.48328e-05
-2.39647e-05
-2.40724e-05
-3.56074e-05
-8.29447e-06
-4.52764e-05
3.443e-06
-5.03153e-05
1.69559e-05
-4.77784e-05
2.39645e-05
-3.77334e-05
2.51759e-05
-2.16544e-05
2.16669e-05
-1.6315e-06
1.46777e-05
1.98923e-05
6.54262e-06
3.98651e-05
-1.27417e-06
5.42057e-05
-9.56417e-06
6.2588e-05
-1.71987e-05
6.68645e-05
-1.47012e-05
6.73155e-05
-6.62413e-06
6.44509e-05
6.25686e-06
5.89747e-05
2.30271e-05
5.1334e-05
4.30868e-05
4.18746e-05
6.63442e-05
3.11879e-05
9.28821e-05
2.02231e-05
0.000122263
1.14645e-05
0.000146548
5.70947e-06
0.000153691
2.18743e-06
0.000147382
0.000115887
-1.24346e-05
-4.23875e-05
-2.78459e-05
-8.63772e-06
-3.87541e-05
2.64129e-06
-4.62348e-05
1.09538e-05
-4.70467e-05
1.78018e-05
-4.06767e-05
1.76297e-05
-2.79895e-05
1.25237e-05
-1.01949e-05
3.9055e-06
1.03954e-05
-5.88196e-06
3.1349e-05
-1.43828e-05
4.99929e-05
-1.98918e-05
6.29948e-05
-2.25417e-05
6.88803e-05
-2.30646e-05
7.03801e-05
-1.61817e-05
6.81724e-05
-4.39341e-06
6.30189e-05
1.14373e-05
5.53513e-05
3.0726e-05
4.55189e-05
5.29551e-05
3.38799e-05
7.80249e-05
2.12923e-05
0.000105519
9.12304e-06
0.000134493
2.34472e-06
0.000153398
-7.20475e-07
0.000156829
-7.80399e-07
0.000147513
0.000115151
-1.24278e-05
-2.99464e-05
-2.48178e-05
3.77948e-06
-3.36849e-05
1.15393e-05
-3.81046e-05
1.54059e-05
-3.56207e-05
1.5352e-05
-2.70132e-05
9.05567e-06
-1.30369e-05
-1.42133e-06
4.47387e-06
-1.35772e-05
2.27882e-05
-2.41712e-05
3.9553e-05
-3.11248e-05
5.31398e-05
-3.34569e-05
6.19992e-05
-3.13797e-05
6.47217e-05
-2.57675e-05
6.36797e-05
-1.512e-05
5.93623e-05
-5.22638e-08
5.21037e-05
1.87242e-05
4.21865e-05
4.06765e-05
2.99141e-05
6.5266e-05
1.61556e-05
9.18285e-05
2.61352e-06
0.000119115
-7.53814e-06
0.000144711
-1.05256e-05
0.000156458
-9.27434e-06
0.000155651
-4.57214e-06
0.00014288
0.000110622
-1.05382e-05
-1.93922e-05
-1.83404e-05
1.16122e-05
-2.46006e-05
1.78329e-05
-2.61207e-05
1.69598e-05
-2.20413e-05
1.1306e-05
-1.24395e-05
-5.15291e-07
1.26556e-06
-1.50993e-05
1.6115e-05
-2.84032e-05
2.94765e-05
-3.75121e-05
3.98406e-05
-4.14697e-05
4.69654e-05
-4.05628e-05
5.06524e-05
-3.50471e-05
5.03552e-05
-2.54506e-05
4.6891e-05
-1.16354e-05
4.04606e-05
6.40295e-06
3.11618e-05
2.80532e-05
1.86794e-05
5.31946e-05
4.13795e-06
7.98497e-05
-1.0305e-05
0.000106321
-2.17789e-05
0.000130648
-2.59088e-05
0.000148911
-2.40619e-05
0.000154683
-1.82629e-05
0.000149923
-8.8548e-06
0.000133537
0.000101809
-8.0735e-06
-1.13005e-05
-1.36576e-05
1.7229e-05
-1.73398e-05
2.15502e-05
-1.6675e-05
1.63291e-05
-1.13868e-05
6.04985e-06
-1.73071e-06
-1.01437e-05
9.51924e-06
-2.63261e-05
1.93744e-05
-3.82386e-05
2.66399e-05
-4.47597e-05
3.12136e-05
-4.60264e-05
3.32636e-05
-4.25953e-05
3.26886e-05
-3.44532e-05
2.93436e-05
-2.20856e-05
2.32674e-05
-5.53772e-06
1.44893e-05
1.52074e-05
2.20087e-06
4.03741e-05
-1.26447e-05
6.80798e-05
-2.68217e-05
9.40743e-05
-3.74125e-05
0.000116968
-4.17952e-05
0.000135094
-3.8784e-05
0.000145969
-3.17753e-05
0.000147745
-2.25145e-05
0.000140731
-1.13774e-05
0.000122462
9.04722e-05
-6.44898e-06
-4.8314e-06
-1.07868e-05
2.16014e-05
-1.29418e-05
2.37413e-05
-1.1169e-05
1.45899e-05
-5.36157e-06
2.72464e-07
2.57507e-06
-1.80557e-05
9.41593e-06
-3.31468e-05
1.38893e-05
-4.26943e-05
1.62304e-05
-4.70844e-05
1.67366e-05
-4.65164e-05
1.51168e-05
-4.09583e-05
1.11186e-05
-3.04359e-05
4.62224e-06
-1.55683e-05
-4.41357e-06
3.52119e-06
-1.67725e-05
2.75948e-05
-3.23568e-05
5.59952e-05
-4.59664e-05
8.1735e-05
-5.4286e-05
0.000102447
-5.59896e-05
0.000118731
-5.12101e-05
0.00013038
-4.16524e-05
0.000136479
-3.03719e-05
0.000136532
-1.94392e-05
0.000129864
-1.03235e-05
0.000113405
8.01865e-05
-5.71876e-06
9.08898e-07
-9.66887e-06
2.55875e-05
-1.14576e-05
2.5567e-05
-9.46335e-06
1.26283e-05
-4.5837e-06
-4.57935e-06
1.10493e-07
-2.27275e-05
2.48124e-06
-3.54987e-05
3.05659e-06
-4.32528e-05
2.14043e-06
-4.61523e-05
-4.9427e-07
-4.38656e-05
-5.25519e-06
-3.61798e-05
-1.24653e-05
-2.32057e-05
-2.21087e-05
-5.90235e-06
-3.50861e-05
1.65241e-05
-5.14534e-05
4.39953e-05
-6.50399e-05
6.96251e-05
-7.16049e-05
8.83507e-05
-7.11693e-05
0.000102068
-6.4328e-05
0.000111949
-5.26527e-05
0.000118767
-3.83177e-05
0.000122207
-2.41169e-05
0.000122395
-1.2436e-05
0.000118246
-5.51836e-06
0.000106545
7.47043e-05
-5.93576e-06
6.86758e-06
-1.02322e-05
2.99214e-05
-1.22424e-05
2.7615e-05
-1.08234e-05
1.12412e-05
-8.19424e-06
-7.18244e-06
-7.3584e-06
-2.35421e-05
-8.22741e-06
-3.46113e-05
-1.02301e-05
-4.12333e-05
-1.34997e-05
-4.28665e-05
-1.83845e-05
-3.89641e-05
-2.55455e-05
-2.90002e-05
-3.57485e-05
-1.29811e-05
-4.90744e-05
7.44846e-06
-6.5569e-05
3.30493e-05
-7.98808e-05
5.83476e-05
-8.65297e-05
7.63222e-05
-8.61733e-05
8.80466e-05
-7.99266e-05
9.58762e-05
-6.85375e-05
0.000100617
-5.31236e-05
0.000103411
-3.58119e-05
0.000104954
-1.88882e-05
0.00010553
-5.3162e-06
0.000104733
2.04539e-06
9.92394e-05
7.67863e-05
-6.71641e-06
1.36083e-05
-1.20211e-05
3.52651e-05
-1.47491e-05
3.03809e-05
-1.48139e-05
1.13366e-05
-1.51836e-05
-6.78786e-06
-1.76288e-05
-2.10758e-05
-2.08567e-05
-3.13648e-05
-2.48722e-05
-3.72007e-05
-2.97564e-05
-3.79655e-05
-3.60186e-05
-3.26843e-05
-4.50944e-05
-1.99042e-05
-5.75228e-05
-5.28407e-07
-7.26126e-05
2.25676e-05
-8.6367e-05
4.68413e-05
-9.4047e-05
6.60729e-05
-9.63171e-05
7.8642e-05
-9.36566e-05
8.54381e-05
-8.58257e-05
8.80986e-05
-7.36139e-05
8.84592e-05
-5.78252e-05
8.76759e-05
-3.97057e-05
8.68883e-05
-2.11833e-05
8.70619e-05
-5.05791e-06
8.86622e-05
5.06952e-06
8.91662e-05
8.18981e-05
-7.82209e-06
2.14562e-05
-1.44518e-05
4.19355e-05
-1.8399e-05
3.43664e-05
-2.09997e-05
1.39671e-05
-2.47669e-05
-2.99597e-06
-2.96549e-05
-1.61663e-05
-3.49236e-05
-2.6077e-05
-4.0499e-05
-3.16074e-05
-4.65198e-05
-3.1927e-05
-5.38789e-05
-2.53063e-05
-6.38401e-05
-9.92044e-06
-7.53063e-05
1.09657e-05
-8.60268e-05
3.33229e-05
-9.27356e-05
5.35921e-05
-9.55602e-05
6.89445e-05
-9.60175e-05
7.91495e-05
-9.33791e-05
8.28507e-05
-8.75219e-05
8.22921e-05
-7.81007e-05
7.90879e-05
-6.51319e-05
7.47562e-05
-4.92142e-05
7.10189e-05
-3.15869e-05
6.94828e-05
-1.46349e-05
7.17598e-05
-2.26435e-06
7.68468e-05
7.96817e-05
-9.14314e-06
3.06269e-05
-1.73516e-05
5.01867e-05
-2.29972e-05
4.00506e-05
-2.85619e-05
1.95617e-05
-3.53229e-05
3.79059e-06
-4.23877e-05
-9.07906e-06
-4.93959e-05
-1.90486e-05
-5.62623e-05
-2.47221e-05
-6.3073e-05
-2.50975e-05
-7.10323e-05
-1.73262e-05
-7.91254e-05
-1.80207e-06
-8.55251e-05
1.73967e-05
-8.92451e-05
3.70808e-05
-9.02102e-05
5.46007e-05
-8.95099e-05
6.82919e-05
-8.76761e-05
7.73658e-05
-8.52716e-05
8.04967e-05
-8.2302e-05
7.93719e-05
-7.73921e-05
7.42257e-05
-6.92009e-05
6.66104e-05
-5.7127e-05
5.89887e-05
-4.17337e-05
5.41323e-05
-2.45845e-05
5.46545e-05
-1.03323e-05
6.26419e-05
6.93977e-05
-1.05829e-05
4.12394e-05
-2.0403e-05
6.00521e-05
-2.80927e-05
4.77797e-05
-3.63662e-05
2.78661e-05
-4.53746e-05
1.28259e-05
-5.4291e-05
-1.3872e-07
-6.2851e-05
-1.04669e-05
-7.07765e-05
-1.67763e-05
-7.82894e-05
-1.75642e-05
-8.53516e-05
-1.0241e-05
-8.96726e-05
2.54624e-06
-9.06087e-05
1.83656e-05
-8.87572e-05
3.52677e-05
-8.48967e-05
5.07836e-05
-8.01505e-05
6.35928e-05
-7.56732e-05
7.29381e-05
-7.26299e-05
7.75035e-05
-7.05971e-05
7.73883e-05
-6.86553e-05
7.23308e-05
-6.50826e-05
6.30813e-05
-5.81272e-05
5.20738e-05
-4.66804e-05
4.27237e-05
-3.07978e-05
3.881e-05
-1.40802e-05
4.59671e-05
5.5364e-05
-1.18806e-05
5.31519e-05
-2.31279e-05
7.13475e-05
-3.2852e-05
5.75444e-05
-4.33111e-05
3.83578e-05
-5.40475e-05
2.35912e-05
-6.45132e-05
1.03527e-05
-7.43479e-05
-6.08901e-07
-8.31144e-05
-7.98791e-06
-9.10025e-05
-9.65359e-06
-9.62966e-05
-4.9222e-06
-9.77626e-05
4.04059e-06
-9.54989e-05
1.61345e-05
-9.00127e-05
2.98188e-05
-8.25948e-05
4.34073e-05
-7.46379e-05
5.5681e-05
-6.71326e-05
6.54806e-05
-6.11722e-05
7.15922e-05
-5.69207e-05
7.31855e-05
-5.45245e-05
6.99813e-05
-5.31083e-05
6.17083e-05
-5.06433e-05
4.96478e-05
-4.46731e-05
3.67888e-05
-3.38837e-05
2.80542e-05
-1.72805e-05
2.9401e-05
3.81267e-05
-1.28375e-05
6.60238e-05
-2.51839e-05
8.3745e-05
-3.66182e-05
6.90213e-05
-4.87051e-05
5.04797e-05
-6.07325e-05
3.56498e-05
-7.23311e-05
2.19793e-05
-8.31687e-05
1.0254e-05
-9.26801e-05
1.54748e-06
-0.000100457
-1.85189e-06
-0.000104747
-6.0646e-07
-0.000104952
4.27361e-06
-0.000101452
1.26664e-05
-9.48597e-05
2.32615e-05
-8.61222e-05
3.47088e-05
-7.61215e-05
4.57227e-05
-6.55659e-05
5.49702e-05
-5.55286e-05
6.16019e-05
-4.7049e-05
6.47534e-05
-4.09461e-05
6.39249e-05
-3.77237e-05
5.85297e-05
-3.63345e-05
4.82979e-05
-3.40446e-05
3.45336e-05
-2.81632e-05
2.22038e-05
-1.64321e-05
1.77021e-05
2.17323e-05
-1.33334e-05
7.93943e-05
-2.63706e-05
9.68367e-05
-3.90051e-05
8.1701e-05
-5.20561e-05
6.35683e-05
-6.48418e-05
4.84693e-05
-7.71387e-05
3.43067e-05
-8.86129e-05
2.17559e-05
-9.87698e-05
1.17308e-05
-0.000106596
6.00104e-06
-0.000110843
3.66752e-06
-0.000111249
4.70733e-06
-0.000108044
9.49158e-06
-0.000101889
1.71396e-05
-9.31399e-05
2.59959e-05
-8.22487e-05
3.48708e-05
-7.00013e-05
4.27647e-05
-5.72606e-05
4.89052e-05
-4.50745e-05
5.26121e-05
-3.43582e-05
5.32534e-05
-2.63024e-05
5.0517e-05
-2.16028e-05
4.36383e-05
-1.90117e-05
3.19777e-05
-1.53283e-05
1.85503e-05
-9.19343e-06
1.15965e-05
1.25708e-05
-1.3248e-05
9.26822e-05
-2.6513e-05
0.00011016
-3.97516e-05
9.49878e-05
-5.30894e-05
7.69467e-05
-6.60447e-05
6.14614e-05
-7.84724e-05
4.67676e-05
-9.01002e-05
3.34139e-05
-0.000100678
2.2338e-05
-0.000109036
1.43871e-05
-0.000113977
8.63641e-06
-0.000115424
6.18243e-06
-0.000113391
7.48769e-06
-0.000108022
1.18015e-05
-9.98659e-05
1.78741e-05
-8.92898e-05
2.4331e-05
-7.68602e-05
3.03736e-05
-6.32368e-05
3.5322e-05
-4.92169e-05
3.86336e-05
-3.57298e-05
3.98079e-05
-2.366e-05
3.84884e-05
-1.42119e-05
3.42296e-05
-8.14618e-06
2.59475e-05
-4.70073e-06
1.51353e-05
-1.65801e-06
8.5821e-06
1.09423e-05
-1.26115e-05
0.000105336
-2.55709e-05
0.000123181
-3.87318e-05
0.0001082
-5.18181e-05
9.00769e-05
-6.44124e-05
7.40953e-05
-7.6448e-05
5.88393e-05
-8.77376e-05
4.47364e-05
-9.82277e-05
3.28599e-05
-0.000106946
2.31356e-05
-0.000112994
1.47132e-05
-0.000115712
8.92925e-06
-0.000114784
6.58877e-06
-0.000110441
7.48794e-06
-0.000103206
1.06708e-05
-9.35576e-05
1.47166e-05
-8.18932e-05
1.87443e-05
-6.86835e-05
2.21487e-05
-5.45339e-05
2.45215e-05
-4.02388e-05
2.55507e-05
-2.66943e-05
2.49816e-05
-1.4876e-05
2.24481e-05
-6.00133e-06
1.71071e-05
-1.40492e-06
1.05694e-05
2.07709e-08
7.18454e-06
1.09925e-05
-1.15205e-05
0.000116902
-2.36257e-05
0.000135352
-3.61393e-05
0.000120769
-4.86044e-05
0.000102589
-6.04817e-05
8.6015e-05
-7.17669e-05
7.01631e-05
-8.22828e-05
5.52879e-05
-9.21066e-05
4.2718e-05
-0.000100264
3.13257e-05
-0.000106468
2.09469e-05
-0.000110101
1.25922e-05
-0.000110421
6.93643e-06
-0.000107412
4.50787e-06
-0.000101449
4.73816e-06
-9.3122e-05
6.42019e-06
-8.26928e-05
8.34715e-06
-7.05691e-05
1.0058e-05
-5.72815e-05
1.12675e-05
-4.35105e-05
1.18136e-05
-3.00864e-05
1.15914e-05
-1.79977e-05
1.03929e-05
-8.54842e-06
7.68978e-06
-3.06346e-06
5.11423e-06
-1.31471e-06
5.46453e-06
9.70781e-06
-1.00227e-05
0.000126972
-2.08437e-05
0.000146242
-3.23354e-05
0.000132318
-4.39564e-05
0.00011426
-5.5068e-05
9.71718e-05
-6.54079e-05
8.05442e-05
-7.49685e-05
6.48867e-05
-8.36367e-05
5.1423e-05
-9.05554e-05
3.82787e-05
-9.57432e-05
2.61665e-05
-9.90657e-05
1.59445e-05
-0.000100072
7.97167e-06
-9.82648e-05
2.72813e-06
-9.38745e-05
3.76002e-07
-8.71524e-05
-2.73091e-07
-7.83314e-05
-4.4455e-07
-6.77706e-05
-4.72973e-07
-5.59368e-05
-5.36348e-07
-4.34632e-05
-6.29807e-07
-3.11489e-05
-6.92774e-07
-1.99583e-05
-7.67728e-07
-1.10863e-05
-1.15318e-06
-5.39407e-06
-5.49557e-07
-2.40029e-06
2.49948e-06
7.33744e-06
-8.19834e-06
0.000135219
-1.74459e-05
0.000155561
-2.76912e-05
0.000142625
-3.83441e-05
0.000124966
-4.87787e-05
0.000107654
-5.82781e-05
9.0087e-05
-6.70237e-05
7.3673e-05
-7.44749e-05
5.8913e-05
-8.01336e-05
4.39732e-05
-8.40646e-05
3.01305e-05
-8.62285e-05
1.81391e-05
-8.6606e-05
8.37791e-06
-8.50565e-05
1.20619e-06
-8.15589e-05
-3.09452e-06
-7.61357e-05
-5.66918e-06
-6.90279e-05
-7.52523e-06
-6.04777e-05
-8.99612e-06
-5.06494e-05
-1.03376e-05
-4.00515e-05
-1.12009e-05
-2.9465e-05
-1.12523e-05
-1.97632e-05
-1.04426e-05
-1.20616e-05
-8.82797e-06
-6.88823e-06
-5.69573e-06
-3.78708e-06
-5.73291e-07
3.58009e-06
-6.02373e-06
0.000141294
-1.34384e-05
0.000163051
-2.24581e-05
0.000151709
-3.21099e-05
0.000134674
-4.19802e-05
0.000117576
-5.10996e-05
9.92522e-05
-5.95353e-05
8.21518e-05
-6.61649e-05
6.55832e-05
-7.09543e-05
4.87998e-05
-7.39563e-05
3.31663e-05
-7.51706e-05
1.93845e-05
-7.47133e-05
7.94937e-06
-7.26718e-05
-8.08169e-07
-6.90694e-05
-6.67061e-06
-6.41245e-05
-1.05883e-05
-5.80526e-05
-1.35716e-05
-5.10053e-05
-1.60184e-05
-4.29541e-05
-1.83642e-05
-3.41467e-05
-1.99841e-05
-2.51941e-05
-2.01806e-05
-1.68912e-05
-1.8721e-05
-1.02254e-05
-1.54688e-05
-7.01164e-06
-8.88338e-06
-5.97535e-06
-1.58163e-06
-2.36636e-06
-3.41795e-06
0.000144763
-8.72958e-06
0.000168439
-1.68217e-05
0.000159869
-2.55793e-05
0.00014349
-3.49247e-05
0.000126975
-4.43122e-05
0.000108688
-5.26783e-05
9.05635e-05
-5.91143e-05
7.20613e-05
-6.37267e-05
5.34504e-05
-6.64879e-05
3.59621e-05
-6.73709e-05
2.02988e-05
-6.64918e-05
7.0989e-06
-6.40343e-05
-3.23894e-06
-6.0137e-05
-1.05425e-05
-5.52062e-05
-1.54944e-05
-4.95199e-05
-1.92338e-05
-4.32054e-05
-2.23094e-05
-3.63669e-05
-2.51799e-05
-2.89817e-05
-2.73469e-05
-2.13294e-05
-2.78109e-05
-1.42397e-05
-2.57881e-05
-8.92084e-06
-2.07643e-05
-9.08786e-06
-8.69131e-06
-8.04796e-06
-2.59426e-06
-1.03875e-05
-1.16761e-06
0.000145982
-4.03109e-06
0.00017138
-1.11475e-05
0.000167056
-1.90378e-05
0.000151442
-2.78328e-05
0.000135827
-3.72139e-05
0.000118121
-4.5716e-05
9.91137e-05
-5.26602e-05
7.90492e-05
-5.79373e-05
5.87669e-05
-6.12846e-05
3.93446e-05
-6.26091e-05
2.16549e-05
-6.19989e-05
6.51719e-06
-5.96559e-05
-5.55579e-06
-5.57967e-05
-1.43771e-05
-5.08927e-05
-2.03747e-05
-4.53327e-05
-2.47709e-05
-3.9291e-05
-2.83289e-05
-3.32175e-05
-3.12321e-05
-2.71051e-05
-3.34386e-05
-2.09969e-05
-3.38988e-05
-1.53584e-05
-3.14061e-05
-1.15077e-05
-2.45928e-05
-1.12771e-05
-8.89739e-06
-7.87957e-06
-5.96566e-06
-1.8243e-05
5.86759e-07
0.000145446
6.6114e-07
0.000171383
-3.98818e-06
0.00017178
-1.11022e-05
0.00015862
-1.947e-05
0.000144255
-2.86391e-05
0.000127346
-3.76391e-05
0.000108164
-4.57338e-05
8.71895e-05
-5.23829e-05
6.54568e-05
-5.70438e-05
4.40416e-05
-5.94786e-05
2.41216e-05
-5.97029e-05
6.7699e-06
-5.79809e-05
-7.25213e-06
-5.45941e-05
-1.774e-05
-4.99215e-05
-2.50247e-05
-4.4352e-05
-3.03186e-05
-3.81965e-05
-3.44636e-05
-3.20216e-05
-3.73869e-05
-2.62641e-05
-3.91767e-05
-2.11105e-05
-3.90332e-05
-1.64113e-05
-3.6086e-05
-1.28546e-05
-2.81281e-05
-9.73279e-06
-1.19947e-05
-6.24017e-06
-9.43338e-06
-2.44614e-05
2.94734e-06
0.000142549
7.20064e-06
0.000167206
6.27366e-06
0.000172783
2.33058e-08
0.000164938
-8.23764e-06
0.000152578
-1.75914e-05
0.000136758
-2.7509e-05
0.000118135
-3.72581e-05
9.69866e-05
-4.58311e-05
7.40724e-05
-5.21952e-05
5.0443e-05
-5.60646e-05
2.80235e-05
-5.74876e-05
8.22145e-06
-5.66408e-05
-8.07353e-06
-5.38819e-05
-2.04758e-05
-4.95154e-05
-2.93696e-05
-4.39015e-05
-3.5912e-05
-3.7466e-05
-4.08796e-05
-3.06219e-05
-4.42123e-05
-2.42639e-05
-4.55166e-05
-1.89402e-05
-4.43388e-05
-1.44504e-05
-4.05574e-05
-1.06122e-05
-3.19456e-05
-7.37627e-06
-1.52068e-05
-4.30549e-06
-1.24804e-05
-2.87468e-05
5.92393e-06
0.000136675
1.48861e-05
0.000158314
1.73818e-05
0.000170362
1.30354e-05
0.000169355
5.41951e-06
0.00016026
-3.9813e-06
0.000146219
-1.47255e-05
0.000128936
-2.63292e-05
0.000108641
-3.74131e-05
8.52017e-05
-4.56412e-05
5.87103e-05
-5.09038e-05
3.33197e-05
-5.35089e-05
1.08554e-05
-5.37034e-05
-7.85379e-06
-5.16867e-05
-2.247e-05
-4.7687e-05
-3.33486e-05
-4.2063e-05
-4.15169e-05
-3.53085e-05
-4.76162e-05
-2.79115e-05
-5.15924e-05
-2.09774e-05
-5.24341e-05
-1.54096e-05
-4.98896e-05
-1.13099e-05
-4.46397e-05
-7.77549e-06
-3.546e-05
-4.93731e-06
-1.80221e-05
-2.50745e-06
-1.48876e-05
-3.12352e-05
8.61992e-06
0.000128105
1.98564e-05
0.000147142
2.52248e-05
0.000165067
2.38045e-05
0.00017085
1.83021e-05
0.000165832
1.01592e-05
0.000154426
-2.15033e-07
0.00013937
-1.26795e-05
0.000121161
-2.5992e-05
9.85642e-05
-3.60478e-05
6.88081e-05
-4.2573e-05
3.988e-05
-4.61346e-05
1.44466e-05
-4.72513e-05
-6.71171e-06
-4.60277e-05
-2.36714e-05
-4.25726e-05
-3.6784e-05
-3.7252e-05
-4.68197e-05
-3.05797e-05
-5.42722e-05
-2.33161e-05
-5.88408e-05
-1.65296e-05
-5.92056e-05
-1.12843e-05
-5.51192e-05
-8.01341e-06
-4.78937e-05
-5.38034e-06
-3.80738e-05
-3.21533e-06
-2.01648e-05
-1.40969e-06
-1.66712e-05
-3.26262e-05
1.02086e-05
0.000117944
2.05627e-05
0.000136847
2.75264e-05
0.000158175
2.91727e-05
0.000169278
2.68285e-05
0.000168248
2.12366e-05
0.000160086
1.29314e-05
0.000147739
2.64158e-06
0.000131513
-8.58676e-06
0.000109849
-2.02777e-05
8.05453e-05
-2.83406e-05
4.79801e-05
-3.31731e-05
1.93098e-05
-3.54266e-05
-4.43243e-06
-3.52325e-05
-2.38435e-05
-3.27175e-05
-3.928e-05
-2.83031e-05
-5.12175e-05
-2.26338e-05
-5.99268e-05
-1.66646e-05
-6.47965e-05
-1.12059e-05
-6.46508e-05
-7.08618e-06
-5.92244e-05
-4.98739e-06
-4.99762e-05
-3.56095e-06
-3.94815e-05
-2.14304e-06
-2.15611e-05
-9.16869e-07
-1.78759e-05
-3.35248e-05
1.03587e-05
0.00010763
1.85939e-05
0.000128667
2.51406e-05
0.000151697
2.95907e-05