/*--------------------------------*- C++ -*----------------------------------*\
| =========                 |                                                 |
| \\      /  F ield         | OpenFOAM: The Open Source CFD Toolbox           |
|  \\    /   O peration     | Version:  2.3.0                                 |
|   \\  /    A nd           | Web:      www.OpenFOAM.org                      |
|    \\/     M anipulation  |                                                 |
\*---------------------------------------------------------------------------*/
FoamFile
{
    version     2.0;
    format      ascii;
    class       volScalarField;
    location    "38";
    object      rhom;
}
// * * * * * * * * * * * * * * * * * * * * * * * * * * * * * * * * * * * * * //

dimensions      [1 -3 0 0 0 0 0];

internalField   nonuniform List<scalar> 
1875
(
882.775
890.807
895.329
893.206
888.65
882.121
876.617
870.603
873.192
882.678
890.239
879.104
876.673
888.848
891.136
875.287
869.061
872.477
877.713
883.707
889.699
893.78
895.649
890.8
882.913
944.193
947.264
950.281
948.18
942.62
932.595
918.206
900.45
884.02
887.95
906.014
920.992
921.249
916.039
891.155
881.949
892.601
907.421
923.408
936.502
944.818
949.302
950.86
946.542
943.379
972.121
971.281
968.65
964.994
960.156
952.594
938.517
915.989
884.024
884.851
902.777
921.367
920.992
913.535
888.339
881.93
900.959
925.556
944.985
955.557
961.38
965.083
967.259
968.127
967.399
983.17
978.842
969.385
962.618
955.577
944.923
928.279
904.828
884.029
885.279
905.173
920.991
921.846
915.217
890.956
881.929
892.274
913.799
934.581
948.295
956.649
962.569
967.474
974.153
975.188
983.186
972.132
955.855
946.138
933.108
917.089
901.202
888.329
884.573
891.7
910.909
921.764
920.991
918.285
899.661
884.985
885.479
891.586
904.826
919.009
933.184
945.369
952.989
965.954
975.187
983.203
949.964
925.392
914.282
899.622
891.699
889.02
888.834
891.835
905.061
918.059
920.991
922.281
920.991
911.7
896.939
888.652
888.648
889.124
891.704
898.11
912.545
917.784
935.493
975.187
983.219
920.589
901.883
896.379
891.045
890.468
890.462
896.551
906.276
916.859
920.991
922.298
920.991
921.411
920.477
912.315
901.245
894.427
889.892
889.47
889.552
893.736
889.552
895.53
970.87
971.598
900.776
894.557
893.276
891.049
892.226
898.542
908.898
917.284
920.99
921.43
920.99
922.708
920.99
921.127
920.698
914.894
906.215
897.024
891.149
889.46
889.552
888.56
889.552
955.423
957.698
889.028
892.255
892.974
891.494
897.248
907.869
916.886
920.542
921.166
920.99
922.636
920.99
921.82
920.99
921.071
920.741
916.052
906.697
896.243
889.721
889.36
889.552
888.638
944.123
950.467
889.017
890.612
892.507
891.363
900.39
910.745
917.107
920.308
920.99
921.754
920.99
922.918
920.99
921.424
920.99
921.017
919.415
913.215
902.263
891.233
889.551
888.656
889.551
938.855
947.279
891.207
890.604
891.843
891.111
898.329
908.457
915.441
919.234
921.239
920.989
922.778
920.989
921.992
920.989
921.237
920.989
920.333
916.225
906.78
893.738
889.523
889.551
888.958
936.82
941.894
899.132
892.482
891.971
891.102
894.334
902.272
910.259
916.105
920.989
921.892
920.989
922.913
920.989
921.557
920.989
921.082
920.755
917.835
910.061
896.598
889.668
889.011
889.551
936.186
934.188
911.1
899.313
893.879
891.535
891.715
894.669
901.489
908.892
918.017
920.989
922.789
920.989
922.06
920.989
921.331
920.989
921
918.914
912.416
899.473
890.116
889.549
889.145
935.908
924.034
921.121
911.636
901.133
894.761
892.017
892.012
893.672
898.644
908.351
921.631
920.988
922.835
920.988
921.612
920.988
921.15
920.988
919.709
914.16
902.079
890.878
889.193
889.549
935.614
912.757
922.767
921.985
913.181
903.05
895.53
892.283
889.908
890.345
896.267
914.087
922.679
920.988
922.047
920.988
921.36
920.988
921.051
920.317
915.5
904.127
891.806
889.548
889.248
935.243
908.259
922.772
923.771
921.259
913.33
903.123
895.098
890.035
889.898
890.513
901.963
920.988
922.825
920.988
921.6
920.988
921.169
920.988
920.69
916.56
905.64
892.723
889.284
889.548
934.805
914.976
921.626
923.725
923.079
919.018
909.74
898.601
889.904
890.034
890.016
894.862
921.529
920.988
922.059
920.988
921.33
920.988
921.073
920.783
917.329
906.779
893.436
889.547
889.352
934.393
933.058
921.852
922.612
922.332
918.225
908.548
897.418
890.034
890.02
890.213
892.634
916.137
922.806
920.987
921.583
920.987
921.15
920.987
920.794
917.782
907.501
893.657
889.364
889.547
934.057
953.622
921.578
918.373
920.409
914.375
903.545
894.177
890.019
890.375
890.918
892.903
909.856
920.987
922.116
920.987
921.32
920.987
921.083
920.786
917.853
907.593
893.524
889.546
889.462
934.011
963.605
919.999
913.214
916.118
906.04
896.398
891.591
890.477
891.476
892.548
894.281
905.984
922.491
920.987
921.605
920.987
921.162
920.987
920.712
917.694
907.313
892.681
889.464
889.546
934.063
964.097
915.107
907.65
908.835
897.181
892.467
891.663
891.801
893.925
896.109
898.302
906.539
920.986
922.189
920.986
921.352
920.986
921.1
920.46
916.957
905.948
890.396
889.546
889.534
934.458
961.423
903.77
901.617
901.275
892.909
892.461
892.607
894.943
898.941
903.066
906.275
910.855
921.773
920.986
921.704
920.986
921.163
920.986
919.754
914.95
902.007
889.545
889.542
889.812
935.412
955.422
889.22
896.376
896.001
892.906
893.278
896.012
901.233
907.276
912.63
915.715
917.339
920.981
922.146
920.986
921.354
920.986
920.504
917.474
910.471
894.456
889.505
889.724
891.405
935.467
949.316
889.501
892.441
893.429
893.104
896.336
902.627
910.265
916.26
919.643
920.824
920.776
921.405
920.985
921.695
920.985
920.446
917.301
911.622
902.326
889.573
889.545
890.354
895.084
934.748
944.923
889.043
889.501
893.59
894.872
902.132
911.244
918.082
920.933
921.011
920.985
920.852
920.983
921.923
920.985
921.192
915.442
908.804
901.461
893.789
889.559
889.565
890.571
898.272
934.562
942.013
889.501
889.43
894.844
899.062
909.704
918.325
920.985
921.014
920.985
921.035
920.851
921.271
920.985
921.535
913.562
903.05
896.37
891.806
889.838
889.598
889.682
889.969
897.517
935.187
939.989
889.231
889.5
897.821
905.533
916.847
920.985
921.038
920.984
921.092
920.984
920.916
920.984
921.619
913.347
897.648
891.152
889.99
889.873
889.874
889.963
890.042
889.681
892.566
935.616
938.295
889.5
889.854
902.388
912.588
920.806
921.049
920.984
921.104
920.984
921.051
920.558
920.809
913.021
896.579
890.065
890.051
890.037
890.356
890.759
891.062
890.94
889.674
889.661
932.452
936.821
889.384
891.382
907.893
917.715
921.014
920.984
921.131
920.984
921.142
920.409
916.716
910.588
897.246
890.073
890.065
890.779
891.552
892.374
893.009
893.301
892.802
890.598
889.653
914.354
935.561
889.499
894.306
913.094
920.427
920.984
921.15
920.984
921.184
920.984
915.799
906.721
896.943
890.403
890.081
890.689
892.544
894.781
896.342
897.117
897.289
896.432
893.443
890.238
889.663
934.515
889.486
898.159
916.896
920.983
921.129
920.983
921.225
920.983
918.325
908.322
898.569
892.549
890.485
890.198
890.822
893.778
897.252
900.618
902.872
903.705
903.351
899.787
892.564
888.907
933.665
889.64
902.142
919.096
921.071
920.983
921.255
920.983
921.043
913.851
904.914
898.312
893.465
891.469
891.021
891.285
893.525
896.767
900.851
906.204
910.801
912.373
910.605
897.707
888.907
933.023
890.09
905.565
920.22
920.983
921.233
920.983
921.254
919.203
911.833
905.499
900.04
896.127
893.738
892.629
892.37
893.248
895.397
899.289
905.008
911.38
917.221
919.823
906.269
889.739
932.59
890.821
908.111
920.641
921.149
920.982
921.344
920.982
917.96
912.492
907.649
903.31
899.741
896.895
894.992
894.026
893.753
894.682
896.547
900.977
908.102
915.895
919.941
917.028
899.265
932.32
891.68
909.794
920.614
920.982
921.307
920.982
921.105
917.787
914.365
910.931
906.728
903.006
900
897.726
896.235
895.336
895.203
895.977
897.109
901.075
910.183
920.058
920.694
914.22
932.155
892.421
910.593
920.485
921.181
920.982
921.363
920.897
918.111
916.547
914.335
910.222
905.998
902.771
900.447
898.792
897.593
896.819
896.696
897.124
898.274
903.576
915.202
920.684
915.683
932.145
892.694
910.5
920.24
920.982
921.323
920.982
920.238
918.029
917.396
916.88
914.062
909.612
905.991
903.479
901.662
900.367
899.422
898.833
898.658
899.316
903.528
911.253
917.907
910.077
932.162
892.623
910.093
919.798
921.174
920.981
921.293
919.307
917.371
917.111
917.075
916.944
914.158
910.408
907.556
905.558
904.181
903.252
902.659
902.403
902.879
906.178
911.445
913.59
908.653
932.205
892.396
909.321
919.057
920.981
921.3
920.981
918.375
917.185
917.147
917.104
917.261
917.144
914.842
912.248
910.646
909.528
908.738
908.265
908.1
908.52
910.955
913.294
912.976
908.672
932.273
891.964
908.316
917.9
920.45
920.981
921.05
917.777
917.175
917.165
917.154
917.29
917.298
916.119
914.878
914.355
914.124
914.002
913.895
913.788
913.8
914.834
915.493
913.332
908.691
932.418
891.336
907.143
916.577
918.999
921.237
920.091
917.429
917.164
917.153
917.142
917.13
917.048
915.809
914.724
914.393
914.482
915.464
916.239
916.378
916.374
916.367
915.468
910.765
908.696
932.827
890.996
905.41
915.179
917.345
919.964
918.52
917.183
917.258
917.248
917.194
917.005
916.434
915.053
913.7
913.207
913.235
914.518
915.894
916.445
916.445
916.327
908.691
896.659
910.348
933.927
890.973
902.087
913.605
915.471
916.831
916.753
916.942
917.464
917.606
917.587
917.197
916.416
914.753
912.604
911.319
911.005
912.143
914.307
916.148
916.521
914.715
892.993
891.912
914.901
934.804
891.446
896.953
911.511
913.743
914.648
915.501
916.623
917.5
918.073
918.24
917.842
916.747
914.951
912.42
910.58
910.179
910.441
912.465
914.99
916.475
913.312
891.849
892.993
921.1
934.266
894.011
895.431
907.922
911.827
913.454
914.593
916.018
917.223
918.111
918.664
918.634
917.476
915.459
912.648
910.651
910.19
910.593
912.153
914.178
916.551
913.379
892.993
891.566
925.966
932.224
900.416
895.983
902.975
908.833
911.972
913.278
914.331
915.64
917.583
918.618
918.667
918.002
915.956
913.232
911.303
910.95
912.017
913.288
914.539
916.502
913.962
891.793
892.992
927.652
930.685
909.785
897.535
898.383
904.138
908.918
910.208
909.503
909.53
915.042
917.871
918.581
917.92
916.27
914.164
912.962
913.304
915.379
916.485
916.216
916.541
914.597
892.992
891.393
927.759
930.82
915.88
898.761
894.257
898.33
902.757
903.013
899.146
894.915
907.008
914.624
917.396
917.412
916.525
915.563
915.431
917.061
919.845
920.826
919.049
916.531
914.672
891.72
892.992
927.761
931.948
915.967
898.254
891.174
892.699
894.11
892.473
889.555
889.492
891.223
906.935
914.412
916.141
916.652
917.094
918.332
920.891
923.676
924.239
921.405
916.155
913.993
892.991
891.319
927.78
934.981
913.845
895.643
890.256
889.843
889.602
889.364
889.492
889.17
889.492
897.368
908.758
913.834
916.386
918.209
920.589
923.564
925.628
925.75
922.254
915.211
911.835
891.61
892.991
927.764
938.902
907.936
891.994
890.079
889.495
889.468
889.491
889.323
889.491
889.24
891.266
901.386
909.957
915.156
918.404
921.447
924.689
925.955
925.957
921.816
912.931
908.41
892.991
891.246
927.662
940.178
901.472
890.724
889.891
889.532
889.491
889.458
889.491
889.363
889.491
889.367
895.171
904.454
912.185
917.519
921.245
924.807
925.957
925.733
919.709
908.609
904.232
891.452
892.99
922.965
939.394
899.698
890.953
889.868
889.552
889.509
889.491
889.459
889.491
889.452
889.491
891.802
898.78
907.341
914.928
920.307
924.331
925.955
924.574
915.486
903.521
900.056
892.99
891.261
916.016
935.131
900.166
892.293
890.057
889.549
889.554
889.521
889.49
889.474
889.49
889.483
890.487
894.694
901.975
910.952
918.461
922.993
925.618
922.361
910.659
900.455
897.078
891.333
892.99
912.846
926.869
902.739
895.091
890.633
889.549
889.569
889.587
889.56
889.536
889.527
889.695
890.52
892.944
898.484
907.586
916.496
921.024
923.049
918.959
907.143
899.836
895.977
892.989
891.338
915.187
919.744
906.735
898.104
891.375
889.548
889.563
889.677
889.705
889.794
889.751
889.876
890.696
893.034
898.052
906.628
915.346
918.849
919.082
914.898
905.213
899.993
896.17
891.335
892.989
923.522
916.71
907.918
899.683
892.002
889.551
889.587
889.817
889.949
890.137
890.229
890.373
891.108
893.36
898.393
906.977
914.891
916.373
915.208
910.851
904.162
900.726
897.34
892.988
891.607
937.932
915.168
907.475
900.189
892.584
889.646
889.716
890.066
890.334
890.609
890.847
891.111
891.846
894.248
899.621
908.263
914.274
913.911
911.295
907.297
903.609
902.191
899.906
891.589
892.988
953.15
913.386
906.485
899.977
893.119
889.877
890.017
890.484
890.873
891.188
891.471
891.917
893.096
896.277
902.452
910.25
912.988
911.194
907.041
904.471
903.603
903.612
902.622
892.988
891.896
963.435
911.496
905.178
899.482
893.132
890.25
890.509
891.039
891.463
891.76
892.162
893.156
895.581
900.286
906.722
910.98
911.069
907.591
903.134
902.72
903.632
904.03
903.585
891.957
892.987
967.486
908.998
903.596
898.788
893.052
890.783
891.145
891.616
892.016
892.487
893.524
895.938
900.366
905.973
909.745
910.947
908.521
903.554
901.282
902
903.893
904.016
903.369
892.987
892.157
968.775
901.849
902.488
898.198
893.064
891.389
891.79
892.242
892.906
894.22
896.897
901.386
906.649
909.821
909.882
909.114
904.704
901.239
901.146
902.048
904.168
903.928
902.799
892.277
892.987
969.717
889.253
902.92
898.563
893.314
891.997
892.536
893.402
895.155
898.344
902.965
907.858
909.779
909.816
909.006
905.281
901.424
900.645
901.015
902.185
904.185
903.698
901.874
892.986
892.45
970.701
889.258
904.668
899.908
893.574
892.751
893.717
895.721
899.375
904.337
908.77
909.63
909.335
907.968
905.041
900.883
899.878
900.102
900.753
902.116
904.079
903.288
900.868
892.673
892.986
970.787
889.263
907.118
902.169
894.313
894.108
895.832
899.308
904.162
908.445
910.046
909.637
907.278
903.49
900.307
899.621
899.62
900.046
900.825
902.201
903.896
903.292
901.101
892.986
892.837
970.804
889.282
908.672
904.841
897.253
897.979
900.814
906.027
910.208
912.416
912.409
911.283
907.981
904.351
902.395
902.504
903.259
904.544
905.48
906.603
907.799
907.443
906.135
896.665
893.155
970.82
896.646
910.919
911.847
908.143
910.062
914.013
921.146
922.661
922.663
922.662
922.476
918.925
916.63
916.641
917.52
919.499
922.255
922.662
922.664
922.663
922.665
922.663
913.888
905.659
971.2
912.946
915.605
922.436
922.38
922.659
922.663
922.661
922.663
922.661
922.663
922.661
922.663
922.662
922.664
922.662
922.664
922.662
922.664
922.662
922.664
922.663
922.665
922.663
920.536
958.948
783.723
813.578
819.626
811.616
802.541
798.103
795.856
795.234
794.485
792.994
790.806
789.484
788.541
787.934
787.325
786.609
785.621
785.126
784.882
784.806
785.234
787.715
789.641
780.127
736.422
554.551
566.064
565.596
562.751
559.866
558.203
557.247
556.628
556.097
555.735
555.48
555.324
555.16
554.927
554.592
554.155
553.619
553.028
552.391
551.734
551.136
550.848
551.097
547.68
533.577
514.7
515.343
515.944
516.039
515.977
515.891
515.824
515.773
515.738
515.721
515.718
515.717
515.715
515.709
515.701
515.692
515.684
515.676
515.674
515.681
515.699
515.708
515.556
514.972
514.563
514.544
514.543
514.544
514.549
514.551
514.551
514.551
514.551
514.551
514.551
514.551
514.551
514.551
514.551
514.55
514.55
514.55
514.55
514.55
514.55
514.55
514.55
514.545
514.541
514.541
514.545
514.545
514.545
514.547
514.553
514.561
514.569
514.574
514.576
514.578
514.579
514.58
514.58
514.58
514.578
514.572
514.564
514.556
514.549
514.545
514.543
514.542
514.541
514.541
514.541
514.549
514.551
514.56
514.581
514.622
514.664
514.692
514.702
514.702
514.703
514.703
514.703
514.703
514.702
514.697
514.681
514.65
514.619
514.584
514.562
514.55
514.545
514.543
514.542
514.542
514.562
514.58
514.618
514.672
514.704
514.713
514.714
514.714
514.714
514.714
514.714
514.714
514.714
514.714
514.714
514.713
514.711
514.702
514.676
514.628
514.587
514.563
514.551
514.546
514.544
)
;

boundaryField
{
    inlet
    {
        type            calculated;
        value           nonuniform List<scalar> 
25
(
770.947
770.947
770.947
770.947
770.947
770.947
770.947
770.947
770.947
770.947
770.947
770.947
770.947
770.947
770.947
770.947
770.947
770.947
770.947
770.947
770.947
770.947
770.947
770.947
770.947
)
;
    }
    outlet
    {
        type            calculated;
        value           nonuniform List<scalar> 
25
(
514.562
514.58
514.617
514.672
514.714
514.714
514.714
514.714
514.714
514.714
514.714
514.714
514.714
514.714
514.714
514.714
514.714
514.714
514.676
514.627
514.587
514.563
514.551
514.546
514.544
)
;
    }
    walls
    {
        type            calculated;
        value           nonuniform List<scalar> 
150
(
882.775
944.193
972.121
983.17
983.186
983.203
983.219
971.598
957.698
950.467
947.279
941.894
934.188
924.034
912.757
908.259
914.976
933.058
953.622
963.605
964.097
961.423
955.422
949.316
944.923
942.013
939.989
938.295
936.821
935.561
934.515
933.665
933.023
932.59
932.32
932.155
932.145
932.162
932.205
932.273
932.418
932.827
933.927
934.804
934.266
932.224
930.685
930.82
931.948
934.981
938.902
940.178
939.394
935.131
926.869
919.744
916.71
915.168
913.386
911.496
908.998
901.849
889.253
889.258
889.263
889.282
896.646
912.946
783.723
554.551
514.7
514.544
514.545
514.549
514.562
882.913
943.379
967.399
975.188
975.187
975.187
970.87
955.423
944.123
938.855
936.82
936.186
935.908
935.614
935.243
934.805
934.393
934.057
934.011
934.063
934.458
935.412
935.467
934.748
934.562
935.187
935.616
932.452
914.354
889.663
888.907
888.907
889.739
899.265
914.22
915.683
910.077
908.653
908.672
908.691
908.696
910.348
914.901
921.1
925.966
927.652
927.759
927.761
927.78
927.764
927.662
922.965
916.016
912.846
915.187
923.522
937.932
953.15
963.435
967.486
968.775
969.717
970.701
970.787
970.804
970.82
971.2
958.948
736.422
533.577
514.563
514.541
514.541
514.542
514.544
)
;
    }
    defaultFaces
    {
        type            empty;
    }
}


// ************************************************************************* //
