/*--------------------------------*- C++ -*----------------------------------*\
| =========                 |                                                 |
| \\      /  F ield         | OpenFOAM: The Open Source CFD Toolbox           |
|  \\    /   O peration     | Version:  2.3.0                                 |
|   \\  /    A nd           | Web:      www.OpenFOAM.org                      |
|    \\/     M anipulation  |                                                 |
\*---------------------------------------------------------------------------*/
FoamFile
{
    version     2.0;
    format      ascii;
    class       surfaceScalarField;
    location    "6";
    object      phi.air;
}
// * * * * * * * * * * * * * * * * * * * * * * * * * * * * * * * * * * * * * //

dimensions      [0 3 -1 0 0 0 0];

internalField   nonuniform List<scalar> 
3650
(
0.000200108
1.08754e-05
0.00028852
7.25029e-05
0.000256194
0.000163161
0.000162182
0.000208053
6.33738e-05
0.000235852
-1.00085e-05
0.000246875
-8.71878e-05
0.00027606
-0.000163848
0.000276787
-0.000228065
0.000253846
-0.000276039
0.000231627
-0.000344596
0.00023605
-0.00041885
0.000227764
-0.000503018
0.000224919
-0.00059231
0.000222328
-0.000684267
0.000214817
-0.000776261
0.000207917
-0.000846252
0.000191492
-0.000882179
0.000171125
-0.000894783
0.000149063
-0.000885558
0.000135689
-0.000841598
0.000113411
-0.000739005
9.03417e-05
-0.000552647
4.79695e-05
-0.000291036
2.14091e-06
-2.50289e-06
0.000144309
-7.69922e-05
0.000138721
3.43812e-05
3.78058e-05
0.000181242
-6.50275e-05
0.00025686
-0.000133441
0.000282143
-0.000153745
0.000288256
-0.000132316
0.000303513
-0.000112984
0.000310482
-0.000109737
0.000285369
-0.000128318
0.000278583
-0.000154725
0.000281383
-0.000197643
0.00027583
-0.000254198
0.000269767
-0.000322646
0.000258441
-0.000399749
0.000244592
-0.000476396
0.000221559
-0.000542892
0.000190644
-0.00058231
0.000146579
-0.000591408
0.000116836
-0.000586824
0.000106561
-0.000569696
8.4749e-05
-0.000527786
5.35723e-05
-0.000426727
-1.60328e-05
-0.000246202
-0.000117843
-0.000161424
-2.88787e-05
-5.40118e-05
-0.000107216
8.73223e-05
-0.00013944
0.000194311
-0.000164595
0.000264373
-0.000162745
0.000279135
-0.000143949
0.000277104
-0.000111117
0.000280169
-8.18987e-05
0.000288697
-6.09837e-05
0.000267035
-4.74491e-05
0.000262424
-3.84795e-05
0.000271404
-3.19156e-05
0.000269139
-3.28321e-05
0.000264302
-3.96201e-05
0.000251531
-5.09534e-05
0.000232806
-6.65526e-05
0.000202587
-9.04736e-05
0.000163329
-0.000112863
0.000126145
-0.00012994
0.000110343
-0.000140794
0.000103733
-0.000167635
8.61206e-05
-0.000207083
4.47706e-05
-0.000211636
-3.49197e-05
-0.000144459
-0.000189472
-0.00028567
-4.86488e-05
3.19242e-05
-0.000132067
0.000172897
-0.000191658
0.000240358
-0.000203119
0.000268814
-0.000182293
0.000265351
-0.000132071
0.000240383
-6.96543e-05
0.00023404
-1.5388e-05
0.000246299
2.68759e-05
0.000235079
8.27832e-05
0.00021934
0.00015081
0.000218064
0.000212713
0.000222635
0.000262192
0.000225402
0.000299491
0.000217796
0.000322559
0.00020534
0.000330459
0.000180358
0.000318666
0.000153751
0.000272182
0.000147101
0.000206753
0.000151914
0.000131519
0.000160794
5.65975e-05
0.000148191
-1.00444e-05
9.92804e-05
-3.65778e-05
-8.58576e-07
-4.20172e-05
-0.000183471
-0.000321183
-1.97658e-05
8.46086e-05
-7.12685e-05
0.000241576
-0.000122468
0.000289889
-0.000148281
0.000286392
-0.000130767
0.000250139
-8.76681e-05
0.000203957
-3.58885e-05
0.000191316
1.85094e-05
0.000200443
5.65981e-05
0.000204308
0.000106263
0.000180941
0.000173365
0.000165297
0.000239588
0.000172115
0.000291015
0.000183149
0.000319962
0.000192049
0.000338306
0.00019134
0.000348354
0.00017489
0.000350886
0.000155135
0.000337978
0.000157912
0.000291627
0.000188434
0.000211633
0.00023617
0.00012679
0.000243445
5.37793e-05
0.000198637
5.17655e-05
3.44758e-05
1.43239e-05
-0.000154553
-0.000317717
1.92355e-05
9.90262e-05
-1.05865e-06
0.000280107
-4.14947e-05
0.000329314
-7.27453e-05
0.000308306
-6.47806e-05
0.00023603
-4.33908e-05
0.000184303
-1.46277e-05
0.000168439
2.96847e-05
0.000166884
7.84339e-05
0.000165996
0.000118179
0.000148713
0.000140062
0.000147174
0.000164824
0.000157048
0.000195664
0.000165627
0.000228659
0.000167474
0.000260386
0.000168502
0.000290715
0.000158277
0.000304799
0.000151024
0.000298549
0.000160889
0.00025561
0.000213356
0.00017078
0.000308132
8.24869e-05
0.000339555
2.64881e-05
0.000275186
3.00774e-05
3.88023e-05
9.74326e-06
-0.000143112
-0.000317273
3.55699e-05
7.95287e-05
7.6635e-05
0.000266005
6.84844e-05
0.000349185
2.8654e-05
0.000335992
-1.49033e-05
0.000257362
-2.28862e-05
0.000187733
-1.66772e-05
0.000164297
-1.86881e-06
0.000157209
2.215e-05
0.000150216
3.75131e-05
0.000148344
3.0728e-05
0.000158469
1.74248e-05
0.0001609
3.3426e-05
0.000145767
8.3812e-05
0.000128713
0.000145395
0.000124011
0.00019724
0.000122144
0.000219545
0.000137937
0.00021908
0.000161384
0.000189286
0.00023016
0.000123345
0.000367002
6.53501e-05
0.000403343
4.0535e-05
0.000306031
1.21237e-05
5.09308e-05
5.70069e-06
-0.000140941
-0.000312066
2.54617e-05
6.75374e-05
0.000140577
0.000189816
0.00020229
0.000318887
0.000172745
0.000368279
8.36161e-05
0.000326901
5.42687e-06
0.000237756
-1.19494e-05
0.000181336
-1.34035e-05
0.000169024
-2.76228e-05
0.000170195
-5.83882e-05
0.000176646
-8.097e-05
0.000176694
-6.51802e-05
0.000149207
-1.18895e-05
0.000105474
5.32579e-05
8.35633e-05
0.000119832
7.62463e-05
0.000169874
8.37786e-05
0.000185787
0.000124771
0.000173195
0.000170104
0.000141873
0.00024918
8.9858e-05
0.000412516
4.98769e-05
0.000446676
2.80619e-05
0.000331881
1.05364e-05
7.12433e-05
1.58618e-05
-0.000136128
-0.000292015
2.99201e-05
4.93117e-05
0.000163227
0.000111122
0.000311112
0.00022618
0.000341906
0.000358192
0.000249599
0.000404641
0.000106937
0.000354812
1.52857e-05
0.000259853
-1.69652e-05
0.000206464
-4.78476e-05
0.000207555
-8.99743e-05
0.000219001
-0.000117005
0.000203635
-0.000108621
0.000147193
-7.05646e-05
8.53905e-05
-1.01575e-05
4.47052e-05
5.43398e-05
2.82911e-05
0.000108641
3.24754e-05
0.000132104
9.12098e-05
0.000103802
0.000180432
6.04793e-05
0.00026984
5.6791e-06
0.000454032
-3.02688e-05
0.000485221
-2.88563e-05
0.000346972
-9.35988e-06
8.01876e-05
1.69865e-05
-0.000134916
-0.000271492
9.4485e-05
-3.66806e-05
0.000177041
4.56718e-05
0.000294723
0.00013723
0.000379971
0.00029369
0.000356929
0.000426648
0.000244916
0.000446551
0.000102528
0.000381338
3.33698e-05
0.000283538
-1.20058e-05
0.000266782
-6.86495e-05
0.000274767
-0.000104547
0.000236059
-0.000120519
0.000162426
-0.000121072
8.62686e-05
-9.4463e-05
2.28146e-05
-5.13955e-05
-6.48221e-06
-3.39829e-06
-1.14945e-05
3.27623e-05
4.47965e-05
9.71489e-06
0.000171393
-5.13381e-05
0.000300054
-0.000117839
0.000496825
-0.000130524
0.000510133
-8.28424e-05
0.000332413
-4.32993e-05
7.41677e-05
-5.28117e-06
-0.000154941
-0.000282608
0.00012364
-0.000148215
0.000176913
-2.74426e-05
0.000211257
9.25374e-05
0.00028674
0.000208047
0.0003021
0.000395832
0.000253684
0.000481402
0.000167404
0.000466024
8.97188e-05
0.000370511
5.16689e-05
0.000324877
8.63182e-06
0.000320828
-4.30656e-05
0.000279328
-0.000107698
0.000207149
-0.000167901
0.000114047
-0.000184435
1.05267e-05
-0.000155578
-3.40548e-05
-0.000111597
-4.15973e-05
-5.90567e-05
6.74099e-06
-5.85016e-05
0.000153859
-0.00013464
0.000351987
-0.000180331
0.000530737
-0.000158191
0.000500378
-7.51425e-05
0.000275972
-6.00082e-05
6.31537e-05
-4.85176e-05
-0.000179163
-0.000327888
7.23458e-05
-0.000211677
0.000102718
-7.28892e-05
0.000114466
5.28411e-05
0.000144063
0.000145718
0.000177247
0.000338174
0.000166549
0.000478577
0.00013875
0.000494122
0.000104997
0.00042257
0.000102615
0.00034744
9.94885e-05
0.000330077
6.34894e-05
0.000305347
-1.45575e-05
0.000251688
-0.000111577
0.000172056
-0.000175654
4.33108e-05
-0.000188657
-3.22912e-05
-0.000169592
-4.64539e-05
-0.000113647
-9.92685e-06
-6.50186e-05
0.000139291
-9.96951e-05
0.00038238
-0.000119979
0.000541489
-9.49582e-05
0.000476237
-2.25023e-05
0.000214669
-2.73377e-05
5.41035e-05
-4.52619e-05
-0.000186296
-0.00036924
1.85385e-05
-0.000231027
3.80534e-05
-9.70289e-05
5.75696e-05
1.77843e-05
7.10364e-05
0.000108515
0.000103155
0.000279426
0.000116005
0.000454902
0.000108678
0.000499601
8.66699e-05
0.000451926
8.23052e-05
0.000359976
9.00274e-05
0.000324238
9.39115e-05
0.00029694
6.88187e-05
0.000263686
1.67522e-06
0.000214101
-8.65261e-05
8.94223e-05
-0.000136185
-1.86279e-05
-0.000144585
-3.72678e-05
-0.000105697
-7.72107e-06
-1.02601e-05
0.000121716
2.81577e-05
0.000388444
1.25686e-05
0.000558959
5.76751e-06
0.000467486
1.26958e-05
0.000195585
1.32381e-05
4.11243e-05
-1.55962e-05
-0.000178013
-0.000378918
7.72341e-07
-0.000232944
2.5131e-05
-0.00011728
3.89358e-05
-1.38779e-06
4.85354e-05
9.23014e-05
9.36218e-05
0.000223634
0.000125722
0.000418404
0.000127946
0.000495197
0.000103924
0.000474766
7.33094e-05
0.000391771
6.66953e-05
0.000327885
8.04472e-05
0.000282445
8.41777e-05
0.000255927
6.47353e-05
0.000216987
2.57795e-05
9.9118e-05
-5.72243e-06
-1.90253e-05
-1.75271e-05
-3.68534e-05
3.61697e-06
-1.20166e-06
5.46466e-05
0.000126264
8.74769e-05
0.000402835
5.6229e-05
0.000588098
3.93066e-05
0.000476061
3.27232e-05
0.000189302
3.14394e-05
2.5884e-05
6.38931e-06
-0.000166361
-0.000377163
-1.44727e-06
-0.000230921
2.69663e-05
-0.000137183
4.20618e-05
-1.67326e-05
5.85446e-05
7.61449e-05
0.000101451
0.000181387
0.0001582
0.00036281
0.00017754
0.000476685
0.000166159
0.000478539
0.000119432
0.000428248
8.7645e-05
0.000353263
8.64598e-05
0.000281218
9.00184e-05
0.000244552
9.29797e-05
0.00020041
9.73151e-05
7.65667e-05
9.98873e-05
-3.09711e-05
0.000115701
-4.5475e-05
0.000106157
5.07203e-06
5.34959e-05
0.000181017
2.15592e-05
0.000445416
1.79445e-05
0.000593022
3.1151e-05
0.000463352
6.67968e-06
0.00018385
7.6977e-06
9.28299e-06
-1.08645e-06
-0.000165281
-0.000376328
5.478e-07
-0.0002314
2.95019e-05
-0.00015817
4.8546e-05
-3.50344e-05
6.55526e-05
5.48365e-05
9.9729e-05
0.000146593
0.000173944
0.000290928
0.000220369
0.000431063
0.000234632
0.000458397
0.00021347
0.000435792
0.000168421
0.000381119
0.000138631
0.00029536
0.000129935
0.000242787
0.000129317
0.000185202
0.000133388
5.83768e-05
0.000135767
-2.93294e-05
0.000141315
-3.62111e-05
0.000100921
4.99634e-05
3.09844e-06
0.000260927
-4.74005e-05
0.000477359
-1.9018e-05
0.000564549
3.14665e-05
0.00041236
1.42836e-05
0.000174315
6.18252e-06
1.21863e-06
4.11467e-07
-0.000158086
-0.000370049
1.10126e-05
-0.000237082
3.26817e-05
-0.000173618
5.3457e-05
-5.33796e-05
6.31631e-05
3.66642e-05
8.21537e-05
0.000118761
0.000135816
0.000229545
0.000196764
0.000365497
0.000226606
0.000423463
0.000237345
0.000417578
0.000227111
0.000380095
0.00020709
0.000300274
0.000187303
0.000248501
0.000178804
0.000179659
0.000155942
6.5337e-05
0.000117101
9.68018e-06
9.6532e-05
1.479e-05
6.00432e-05
0.000121217
-9.40033e-06
0.000326916
-3.92285e-05
0.000487581
-1.70241e-05
0.000537489
2.71668e-05
0.000363522
3.0539e-05
0.000162378
2.52625e-05
-3.49896e-06
8.62744e-06
-0.000144222
-0.000361317
5.0657e-06
-0.000239511
2.05534e-05
-0.000178178
4.18334e-05
-5.97595e-05
4.14281e-05
3.6375e-05
3.64363e-05
0.000112028
4.63346e-05
0.000201281
9.32092e-05
0.00030617
0.000146192
0.00036686
0.000190177
0.000375504
0.000217289
0.000356021
0.000227653
0.000293798
0.000230523
0.000244118
0.000248633
0.000157186
0.000233469
7.55536e-05
0.000188691
5.53457e-05
0.000144231
8.34466e-05
8.79511e-05
0.000213834
4.48035e-05
0.000388238
3.40345e-05
0.00049993
4.77847e-05
0.000514044
5.29347e-05
0.000342953
3.09348e-05
0.000165443
2.67225e-05
-2.33729e-06
6.81765e-06
-0.000122036
-0.000345575
-2.98006e-06
-0.000238805
-2.21579e-06
-0.000171271
9.43485e-06
-4.87503e-05
-1.96954e-06
6.30443e-05
-2.88221e-05
0.000136515
-4.60118e-05
0.00020695
-2.50915e-05
0.000275498
3.01727e-05
0.000312785
9.74978e-05
0.000317631
0.000165108
0.000305396
0.000212831
0.000262112
0.000277729
0.000191528
0.000338166
0.000111991
0.000339687
8.09631e-05
0.000278771
0.000109003
0.00016458
0.000190419
5.93818e-05
0.000319321
1.5913e-05
0.000430977
1.30987e-05
0.000498739
4.00357e-05
0.00048152
4.7631e-05
0.000323866
3.96813e-05
0.000165283
3.54263e-05
7.12296e-06
1.65367e-05
-9.54716e-05
-0.000323538
9.73445e-06
-0.000252069
-5.11805e-07
-0.000161853
-5.32701e-06
-3.67594e-05
-3.01353e-06
8.19228e-05
-2.85761e-05
0.000174348
-4.904e-05
0.000232088
-4.37925e-05
0.000270519
-9.38509e-06
0.000282311
4.98439e-05
0.000270545
0.00013392
0.000240089
0.000241187
0.000177168
0.000333596
0.000120061
0.000353031
0.000101207
0.000297062
0.000135387
0.000175565
0.000208345
2.28569e-05
0.000294436
-6.33761e-05
0.000369064
-7.79429e-05
0.000431693
-5.36922e-05
0.00046967
-1.66307e-06
0.000431619
2.82739e-05
0.000292527
3.60081e-05
0.000159611
2.73555e-05
2.5873e-05
1.25881e-05
-7.22585e-05
-0.000309842
2.26858e-05
-0.00027366
7.49367e-06
-0.000157291
2.40497e-06
-3.40292e-05
2.28759e-05
6.80993e-05
2.76646e-05
0.000184237
1.0895e-05
0.000258283
5.6593e-06
0.000281416
1.69004e-05
0.000274874
5.09565e-05
0.000244972
0.000128273
0.000179416
0.000213335
0.0001156
0.00024666
0.000119663
0.000196478
0.000166819
5.47568e-05
0.000228351
-8.88518e-05
0.000285928
-0.000156491
0.000326714
-0.000171979
0.000361989
-0.000145256
0.000398691
-8.6336e-05
0.000418599
-2.00937e-05
0.000373803
2.36295e-05
0.000254712
4.0003e-05
0.000154115
2.63149e-05
5.27371e-05
1.32715e-05
-5.32271e-05
-0.000292765
1.65001e-05
-0.000286758
6.81225e-06
-0.000156213
4.6554e-06
-4.16324e-05
1.97239e-05
5.00245e-05
4.65107e-05
0.00015863
4.18454e-05
0.000265594
2.87096e-05
0.000296195
1.99358e-05
0.000283703
3.35144e-05
0.000238633
8.12353e-05
0.00015433
0.000102138
0.000125517
3.7474e-05
0.000186887
-8.75401e-05
0.000256286
-0.000184775
0.000293053
-0.000228809
0.000310037
-0.000235552
0.000321189
-0.000212757
0.000333205
-0.000159229
0.000351881
-9.0514e-05
0.00036397
-2.61318e-05
0.000319089
1.36741e-05
0.000226585
2.84614e-05
0.00015579
1.2703e-05
7.88859e-05
1.51383e-05
-4.78312e-05
-0.000274964
7.63075e-06
-0.000295543
1.42711e-06
-0.000157367
-3.16642e-06
-5.3245e-05
-2.24084e-06
3.92135e-05
1.61319e-05
0.000128312
1.63728e-05
0.000254188
6.21889e-06
0.000301571
-6.70085e-07
0.000293073
1.60207e-05
0.000232688
3.18504e-05
0.000153365
-1.2217e-05
0.000178539
-0.000109921
0.000275722
-0.000196089
0.000321016
-0.000240133
0.000325863
-0.000251928
0.000317633
-0.000239282
0.000306295
-0.000203361
0.000299692
-0.000150311
0.00030762
-8.79935e-05
0.000313652
-3.31354e-05
0.000276507
-9.31626e-06
0.000215976
-8.69061e-06
0.000167868
-2.5204e-05
0.000103236
1.05517e-05
-6.56865e-05
-0.000265847
2.37591e-06
-0.000298922
-5.14962e-06
-0.000158987
-1.41902e-05
-5.90673e-05
-2.56088e-05
3.07758e-05
-3.78646e-05
0.00011591
-4.74747e-05
0.000243715
-5.3549e-05
0.00030221
-4.18493e-05
0.000292143
-3.85252e-06
0.000217013
-1.07002e-05
0.00016747
-9.22762e-05
0.000251397
-0.000167687
0.000333202
-0.000206439
0.000351737
-0.000218293
0.000333101
-0.000208629
0.000302029
-0.000186373
0.00028232
-0.000158465
0.000275429
-0.000120832
0.000276496
-7.35735e-05
0.000276663
-3.27693e-05
0.000246865
-1.92113e-05
0.000211893
-3.70106e-05
0.00018547
-5.19746e-05
0.00011956
-2.6153e-06
-0.000103517
-0.00026854
-1.34447e-05
-0.000284588
-3.26577e-05
-0.000145553
-5.06372e-05
-5.06183e-05
-6.93775e-05
3.14486e-05
-9.41169e-05
0.000119814
-0.000105372
0.000237473
-0.000106122
0.000299338
-8.73748e-05
0.000288525
-6.24564e-05
0.000210928
-8.87923e-05
0.000193184
-0.000157476
0.000301149
-0.000189659
0.000353663
-0.000198711
0.000358456
-0.000177191
0.000309789
-0.000141343
0.000265629
-0.000115661
0.000255485
-0.000101571
0.000261727
-8.07048e-05
0.000259568
-4.56845e-05
0.000249379
-1.12842e-05
0.000220354
-1.36987e-07
0.000205612
-2.6152e-05
0.00020478
-4.36186e-05
0.000126451
-2.27883e-05
-0.000130732
-0.000289347
-2.55421e-05
-0.000258157
-4.59445e-05
-0.000122419
-6.90757e-05
-3.13347e-05
-8.29789e-05
3.96033e-05
-9.74909e-05
0.000127091
-0.000103219
0.000233274
-0.00010276
0.000295097
-9.67374e-05
0.000289066
-0.000102943
0.000223405
-0.00012827
0.000218672
-0.000151594
0.000316849
-0.000166862
0.000363904
-0.000173565
0.000361053
-0.000157536
0.000293077
-0.000126714
0.000238383
-9.41932e-05
0.000225794
-6.53996e-05
0.000234862
-4.14353e-05
0.000238957
-8.43837e-06
0.000222968
1.91254e-05
0.000198914
2.398e-05
0.000203485
1.10083e-05
0.000210854
-7.47887e-06
0.000131133
-1.71884e-05
-0.000133718
-0.000310102
-2.31267e-05
-0.000235249
-4.20632e-05
-0.000100379
-6.12011e-05
-1.01842e-05
-7.56365e-05
5.25476e-05
-9.12261e-05
0.000137521
-0.000100945
0.000236933
-0.000103082
0.000293949
-0.000103111
0.00028946
-0.00011488
0.000237252
-0.000122636
0.000231876
-0.000104516
0.000304267
-0.000100288
0.000363456
-0.000110559
0.000365456
-0.000136441
0.000306897
-0.000145129
0.000241526
-0.000121118
0.00020357
-6.85714e-05
0.000189604
-2.0054e-05
0.000197972
2.01271e-05
0.00018974
4.01144e-05
0.000181913
3.68448e-05
0.000207664
4.26439e-05
0.000202337
3.1971e-05
0.000132082
-3.14859e-06
-0.000116479
-0.000315252
-2.22501e-05
-0.000213377
-4.11231e-05
-7.916e-05
-6.03323e-05
1.18793e-05
-7.97457e-05
7.15521e-05
-8.84557e-05
0.000144775
-8.66543e-05
0.000232325
-8.97299e-05
0.000291482
-9.33479e-05
0.000288523
-0.000103067
0.000247504
-9.93643e-05
0.000234472
-5.42089e-05
0.000271358
-1.5456e-05
0.000331511
4.61272e-07
0.000347987
-2.85241e-05
0.000318421
-7.49442e-05
0.000266919
-8.98996e-05
0.000213037
-6.23399e-05
0.000165492
-1.16976e-05
0.000154791
3.24119e-05
0.000154346
5.38507e-05
0.000164948
5.20244e-05
0.000209165
5.90914e-05
0.000192464
5.4021e-05
0.000130769
1.10167e-05
-8.75779e-05
-0.000306514
-1.70682e-05
-0.000194084
-3.27237e-05
-5.82794e-05
-5.24698e-05
3.36935e-05
-7.11954e-05
8.87901e-05
-8.09886e-05
0.000152536
-7.43394e-05
0.000222947
-7.11725e-05
0.000284045
-7.7581e-05
0.00028737
-9.09075e-05
0.000256804
-8.7264e-05
0.000234247
-4.42402e-05
0.000242905
2.13523e-05
0.000280174
7.72842e-05
0.000298495
9.30486e-05
0.000299222
6.64981e-05
0.000278745
1.89455e-05
0.000240764
1.25383e-06
0.00017553
2.34291e-05
0.000138639
4.92745e-05
0.000137107
6.04841e-05
0.000159649
6.02273e-05
0.00020849
6.40216e-05
0.000187426
6.03294e-05
0.000130058
2.55583e-05
-5.89018e-05
-0.000282187
-1.55742e-05
-0.000176633
-3.15054e-05
-3.65098e-05
-5.10521e-05
5.7618e-05
-7.22895e-05
0.000108411
-8.81802e-05
0.000161935
-8.75671e-05
0.000218115
-7.44935e-05
0.000268297
-6.92598e-05
0.000277582
-7.18124e-05
0.000255655
-6.34104e-05
0.000228066
-3.16377e-05
0.000223768
2.75403e-05
0.000237948
8.18607e-05
0.000256186
0.000102785
0.000282917
0.000103125
0.000279072
8.88242e-05
0.000251138
7.73346e-05
0.000180089
7.54e-05
0.000139836
7.47371e-05
0.000139516
6.23838e-05
0.00017519
5.75398e-05
0.000212865
5.8019e-05
0.000187193
5.43693e-05
0.000130658
2.90699e-05
-3.2981e-05
-0.000252132
-2.03231e-05
-0.000153287
-4.24859e-05
-7.39042e-06
-6.71958e-05
9.01696e-05
-9.40468e-05
0.000136595
-0.000115699
0.000180145
-0.000121019
0.000220241
-0.000100919
0.00024716
-7.55244e-05
0.000251047
-5.70562e-05
0.000234595
-4.28032e-05
0.000214248
-2.35854e-05
0.000208831
5.51566e-06
0.000217233
3.15345e-05
0.000237954
5.2279e-05
0.000266338
6.86005e-05
0.000266082
8.95353e-05
0.000234295
0.000106824
0.000167258
0.000104717
0.000143004
8.76083e-05
0.000154478
5.44564e-05
0.000204926
4.23101e-05
0.000221889
4.52881e-05
0.000183052
4.63431e-05
0.00012762
2.61007e-05
-1.20102e-05
-0.000224891
-1.75406e-05
-0.000132455
-3.75557e-05
2.10827e-05
-6.48583e-05
0.000128719
-8.8278e-05
0.000165393
-9.97412e-05
0.00019344
-0.000100097
0.000220681
-8.19879e-05
0.00023138
-5.8971e-05
0.000229355
-4.09151e-05
0.000216342
-2.9992e-05
0.000202491
-2.15524e-05
0.000201223
-1.26186e-05
0.000211529
-1.06031e-06
0.000230956
1.92746e-05
0.000251701
4.22042e-05
0.000249364
6.48452e-05
0.000218245
7.84686e-05
0.00016237
7.88593e-05
0.000145565
6.22387e-05
0.000164048
3.87474e-05
0.000218894
3.58079e-05
0.000222089
3.87718e-05
0.000178406
3.78983e-05
0.000126668
1.85341e-05
8.51286e-06
-0.000202407
-1.26569e-05
-0.000121809
-2.39464e-05
3.49043e-05
-2.06525e-05
0.000138029
-3.8898e-05
0.000192537
-4.76847e-05
0.000207377
-5.08064e-05
0.0002246
-4.68841e-05
0.000228007
-4.06184e-05
0.000219527
-3.39013e-05
0.000204947
-2.54538e-05
0.000189377
-1.36363e-05
0.000186969
-1.69109e-07
0.000198132
1.88834e-05
0.000214919
4.08213e-05
0.000234788
5.96794e-05
0.000235448
6.1512e-05
0.000219058
4.06458e-05
0.000182173
2.26263e-05
0.000160922
2.03955e-05
0.000166512
3.6895e-05
0.000202621
5.0911e-05
0.000207436
4.77053e-05
0.000179926
3.51012e-05
0.000137659
1.29294e-05
3.49071e-05
-0.000181043
1.67172e-06
-0.000118726
-5.83172e-06
4.47042e-05
1.89365e-05
0.000118536
3.28651e-05
0.000185939
4.20979e-05
0.000207176
5.37992e-05
0.000222161
5.75959e-05
0.000227857
5.47848e-05
0.000219364
4.38236e-05
0.000209738
2.63502e-05
0.000200659
1.06431e-05
0.000195973
6.08733e-06
0.000196014
1.74008e-05
0.000200386
3.82808e-05
0.000213197
6.26857e-05
0.000212499
7.50968e-05
0.000204288
6.05528e-05
0.000188827
4.23155e-05
0.000173202
4.56388e-05
0.000172214
7.0029e-05
0.000190205
8.12642e-05
0.000200411
6.47222e-05
0.000195823
3.76914e-05
0.000169099
1.33545e-05
7.21537e-05
-0.000157834
-2.81925e-06
-0.000110628
-1.07745e-05
6.07808e-05
2.76466e-07
0.000112932
5.7448e-05
0.000145938
0.00013262
0.000153299
0.000209914
0.000167002
0.000268754
0.000182462
0.000294786
0.000190801
0.000291147
0.000200699
0.00026297
0.000211053
0.000218852
0.000215018
0.000181197
0.000218326
0.000160329
0.000222186
0.000156945
0.000223699
0.000151217
0.000223631
0.000135397
0.000214119
0.000116577
0.000201239
0.000102302
0.000188057
9.2897e-05
0.00018678
9.09604e-05
0.000200898
8.06597e-05
0.000223223
5.57251e-05
0.000225842
2.39462e-05
0.000212062
1.14857e-05
0.000103224
-0.000138965
5.14182e-06
-0.000111238
3.74418e-05
3.59192e-05
8.12502e-05
8.32035e-05
0.00014869
9.54731e-05
0.000224507
9.66296e-05
0.000295826
0.000115982
0.000363733
0.000135592
0.000419837
0.000152114
0.000457814
0.000171066
0.000473277
0.00019206
0.000464906
0.000211225
0.000443572
0.000225324
0.000408835
0.000245245
0.000367356
0.000253168
0.000309416
0.000264293
0.000242639
0.000267086
0.00018975
0.000250892
0.000150299
0.000235283
0.000110357
0.000235396
8.41817e-05
0.000236131
6.08511e-05
0.00025573
2.03145e-05
0.000276663
1.74814e-06
0.000245259
4.2172e-06
0.000114309
-0.000130181
3.52063e-05
-0.000139215
0.000115352
-3.17704e-05
0.000213586
2.91167e-06
0.000301113
2.43715e-05
0.000362568
4.00235e-05
0.000404084
7.09742e-05
0.000439929
8.83897e-05
0.000457708
0.000114983
0.000452493
0.0001449
0.000433124
0.000185698
0.000415001
0.000213419
0.000388641
0.000238004
0.00036107
0.000260187
0.000329838
0.000274363
0.000292824
0.000294713
0.000237294
0.000318299
0.000183348
0.000306989
0.000143094
0.000283681
0.000108918
0.000277353
5.8652e-05
0.000289576
1.1527e-05
0.000308268
-1.7633e-05
0.000321744
5.43981e-06
0.000250851
2.11808e-06
0.000115594
-0.000122898
5.19404e-05
-0.000181319
0.000117396
-9.24075e-05
0.000190793
-6.59879e-05
0.000241182
-2.59293e-05
0.000252228
1.88268e-05
0.00024668
6.19389e-05
0.00023547
7.99133e-05
0.000232902
9.27824e-05
0.000222036
0.000125256
0.00020899
0.00016595
0.000197841
0.000201554
0.000187207
0.000230315
0.00016734
0.00026249
0.000128429
0.000294734
8.25821e-05
0.000327303
6.08159e-05
0.000339883
5.11519e-05
0.000326913
3.28606e-05
0.000308048
-1.20984e-05
0.000321421
-7.20702e-05
0.00034993
-0.00011131
0.000355712
-7.75551e-05
0.000313955
1.6442e-06
0.000201558
5.22838e-06
0.000112321
-0.000117894
2.8874e-05
-0.00020838
7.22208e-05
-0.000118278
8.92559e-05
-7.20874e-05
5.68486e-05
-2.47628e-05
3.04382e-05
9.01577e-06
1.91372e-05
4.53558e-05
1.11065e-05
7.50695e-05
1.18576e-05
8.57179e-05
8.08931e-06
0.000116008
4.27706e-06
0.000155806
-1.29708e-06
0.0001928
-1.5604e-05
0.000230134
-4.71989e-05
0.00027653
-8.38156e-05
0.000315144
-9.56365e-05
0.000333366
-7.40837e-05
0.000324001
-7.38461e-05
0.000330551
-0.000119218
0.000349396
-0.000183041
0.000379178
-0.000214949
0.000383851
-0.00019498
0.000348656
-9.99996e-05
0.000245268
-2.69471e-05
0.000142308
6.52298e-07
8.80735e-05
-0.000119947
8.53858e-06
-0.000197919
6.04344e-06
-9.95315e-05
-3.19781e-05
-5.09466e-05
-6.78994e-05
-1.58486e-05
-7.09186e-05
-1.67327e-06
-5.73879e-05
2.61848e-05
-4.86135e-05
5.95645e-05
-6.10858e-05
8.91382e-05
-7.951e-05
0.000122517
-0.000105405
0.0001656
-0.000131314
0.000202606
-0.000160529
0.000242553
-0.000179897
0.00028345
-0.00017534
0.000307033
-0.000159543
0.000320364
-0.000163113
0.000331107
-0.000202505
0.000365009
-0.000250586
0.000389859
-0.000266644
0.00039481
-0.000245134
0.000367731
-0.000172206
0.000287522
-9.65396e-05
0.000178796
-7.61951e-05
0.000131011
-1.67261e-05
3.83744e-05
-0.000134148
-1.29181e-05
-0.000164905
-4.6504e-05
-5.36831e-05
-8.2708e-05
-1.32519e-05
-0.000113689
1.29536e-05
-0.000140632
2.4275e-05
-0.000166011
4.82441e-05
-0.000185583
6.82197e-05
-0.000210288
0.000100764
-0.000234067
0.000130465
-0.000249454
0.000166174
-0.000264974
0.000204475
-0.000275899
0.000240865
-0.000274156
0.000275364
-0.000264854
0.000296446
-0.000266024
0.000320525
-0.000288609
0.000349506
-0.000304458
0.000375116
-0.000299885
0.000382759
-0.000265988
0.000365218
-0.000185286
0.000295303
-8.88072e-05
0.000201156
-6.38214e-05
0.000154447
-7.12026e-05
0.000133443
-2.47634e-05
-5.80527e-06
-0.000155765
-1.6486e-05
-0.000125752
-6.05244e-05
1.3329e-05
-0.00011134
5.00032e-05
-0.000168097
6.97417e-05
-0.000216662
6.9307e-05
-0.000254787
8.39254e-05
-0.000286775
9.13082e-05
-0.000309897
0.000114697
-0.000324772
0.000136552
-0.000331707
0.000167077
-0.000327946
0.000194288
-0.000322111
0.000231205
-0.000307386
0.000260777
-0.00029552
0.000285532
-0.000294597
0.000317263
-0.000296254
0.000348444
-0.000289231
0.000363977
-0.000276189
0.000363151
-0.000228141
0.000310135
-0.000145184
0.000209997
-8.56595e-05
0.000141676
-6.28244e-05
0.00012134
-3.91279e-05
0.000100552
-2.09918e-05
-3.47317e-05
-0.000181638
-4.09192e-06
-8.0767e-05
-8.69316e-05
0.000119077
-0.00016836
0.000140559
-0.000217743
0.000126391
-0.00026466
0.000118695
-0.000305973
0.000124486
-0.000342243
0.000121718
-0.000359152
0.000126382
-0.000359924
0.000135746
-0.000350728
0.000158808
-0.000339202
0.000186843
-0.000315252
0.000214227
-0.00029184
0.00024436
-0.000271607
0.000271548
-0.000248374
0.000299585
-0.000213971
0.000320366
-0.000163592
0.000316948
-0.000111042
0.000302305
-7.24503e-05
0.000250896
-5.70509e-05
0.000170571
-5.2558e-05
0.00012313
-3.98429e-05
9.84832e-05
-1.7841e-05
7.14737e-05
-2.93685e-05
-3.32262e-05
-0.000205826
-8.04135e-06
-5.64351e-05
-6.8838e-05
0.000201191
-0.000138849
0.000230985
-0.000212256
0.000216111
-0.000290574
0.00020069
-0.000362129
0.000181168
-0.000412498
0.000155851
-0.000425244
0.000133117
-0.000410057
0.000125768
-0.000367234
0.000134125
-0.000317691
0.000158336
-0.000270489
0.000189466
-0.00023085
0.00022417
-0.000195193
0.000250147
-0.000148352
0.000262202
-8.23995e-05
0.000263205
3.98196e-06
0.000238839
9.43733e-05
0.000214062
0.000150622
0.000182623
0.000148751
0.000143005
0.000115739
0.000127405
8.3401e-05
0.000122748
5.73553e-05
0.00010537
1.49141e-05
2.22961e-05
-0.000179474
1.13283e-05
-6.58463e-05
4.94372e-06
0.000210916
5.48822e-06
0.000240085
-3.48391e-05
0.000260307
-0.000113701
0.000279738
-0.000203217
0.000259988
-0.000288559
0.000224223
-0.000351003
0.000177333
-0.000369803
0.000134874
-0.000329138
0.000100627
-0.000251842
0.000103924
-0.000164532
0.000132226
-8.21039e-05
0.000173809
-2.83166e-05
0.000217936
1.28902e-05
0.000230971
5.41053e-05
0.000227692
9.40892e-05
0.000205945
0.000132033
0.000178621
0.000168736
0.000146588
0.000178723
0.000134683
0.000166736
0.00014135
0.000126804
0.000166013
7.47257e-05
0.000172183
4.04762e-05
7.3899e-05
-0.000137573
5.48591e-06
-7.37057e-05
-3.44546e-07
0.000207758
4.43103e-05
0.000205043
8.5731e-05
0.000230562
7.64325e-05
0.000292416
2.79898e-05
0.000303308
-4.78832e-05
0.000281631
-0.000147637
0.000246211
-0.000222735
0.000185483
-0.000233539
0.000102573
-0.00018645
6.81881e-05
-0.00010402
6.83335e-05
-1.64224e-05
9.98148e-05
4.50807e-05
0.000168617
8.50247e-05
0.000201952
0.00011457
0.000206602
0.000131998
0.000195878
0.000156311
0.000159264
0.000173577
0.000134325
0.000172833
0.000136693
0.000147646
0.000165645
8.36591e-05
0.000231415
2.3814e-05
0.000246085
1.85436e-05
9.61749e-05
-0.00011335
1.01381e-07
-7.45385e-05
7.46834e-06
0.000194004
4.30919e-05
0.00017492
8.14418e-05
0.000198452
9.41069e-05
0.000279353
8.7642e-05
0.000308399
6.99143e-05
0.000295153
3.27715e-05
0.000273498
-4.24864e-05
0.000235532
-0.000124337
0.000152915
-0.000154748
8.16739e-05
-0.000127994
4.55608e-05
-6.92751e-05
5.2746e-05
-8.5939e-06
0.000120026
4.59931e-05
0.000158173
8.68319e-05
0.000172815
0.000119709
0.000166644
0.000156479
0.000125395
0.000176501
0.000113924
0.000163927
0.00014033
9.63738e-05
0.000224517
1.84312e-05
0.000308718
-7.16771e-06
0.000282442
9.66673e-06
8.78234e-05
-0.000101176
-3.53764e-06
-7.22633e-05
1.31395e-05
0.000177717
2.34325e-05
0.000167432
5.06687e-05
0.000174598
8.27361e-05
0.000249441
0.000102839
0.00029051
0.000117343
0.000281328
0.000121229
0.000266242
0.00010267
0.000240528
3.01587e-05
0.000193313
-5.78796e-05
0.000133057
-9.75745e-05
7.10727e-05
-8.24639e-05
4.132e-05
-1.92313e-05
6.82574e-05
5.83787e-05
9.19884e-05
0.000119855
0.000124965
0.000155709
0.000139657
0.000167609
0.000119042
0.000159095
0.000120402
9.15624e-05
0.000191208
-1.15944e-05
0.000305494
-4.59358e-05
0.000344388
-1.94553e-05
0.000264537
-1.38327e-06
7.16626e-05
-9.9681e-05
-1.04033e-05
-6.54853e-05
9.23933e-06
0.000160871
3.81935e-06
0.000170184
2.8254e-05
0.000153394
7.39768e-05
0.000210158
0.00011294
0.000257149
0.000142926
0.000254862
0.000168436
0.000241882
0.000194926
0.000211348
0.000197904
0.000183208
0.000152997
0.00015487
8.04559e-05
0.000102004
5.04373e-05
5.32767e-05
8.74812e-05
4.934e-05
0.000142212
5.90981e-05
0.000179277
9.48679e-05
0.000165664
0.00014777
0.000131098
0.000154029
9.19163e-05