/*--------------------------------*- C++ -*----------------------------------*\
| =========                 |                                                 |
| \\      /  F ield         | OpenFOAM: The Open Source CFD Toolbox           |
|  \\    /   O peration     | Version:  2.3.0                                 |
|   \\  /    A nd           | Web:      www.OpenFOAM.org                      |
|    \\/     M anipulation  |                                                 |
\*---------------------------------------------------------------------------*/
FoamFile
{
    version     2.0;
    format      ascii;
    class       volScalarField;
    location    "1.36";
    object      k.air;
}
// * * * * * * * * * * * * * * * * * * * * * * * * * * * * * * * * * * * * * //

dimensions      [0 2 -2 0 0 0 0];

internalField   nonuniform List<scalar> 
6000
(
0.819842
0.907878
0.929255
0.944127
0.95749
0.977051
0.998842
1.0111
1.02337
1.03466
1.03836
1.04045
1.03954
1.03431
1.0272
1.02105
1.01747
1.01595
1.01329
1.01094
1.0127
1.02143
1.01749
0.987964
0.967251
0.956396
0.952866
0.957567
0.928909
0.821255
0.587837
0.855175
0.933398
0.989602
1.02622
1.06707
1.12315
1.1756
1.20401
1.22203
1.25201
1.27147
1.24954
1.20883
1.17965
1.16565
1.15944
1.15743
1.1587
1.16361
1.1639
1.14877
1.1082
1.04342
1.00092
0.974564
0.961394
0.963511
0.93527
0.621075
0.439491
0.742431
0.875621
0.95705
1.01668
1.06769
1.12141
1.16418
1.1956
1.22108
1.24626
1.26013
1.24832
1.2287
1.21872
1.2111
1.20266
1.19533
1.19113
1.18997
1.18597
1.16677
1.12895
1.07952
1.0312
0.985085
0.945384
0.911721
0.834751
0.503336
0.348584
0.657577
0.855991
0.97223
1.05373
1.0991
1.1462
1.18554
1.21774
1.25004
1.27782
1.29151
1.28376
1.28314
1.29239
1.29824
1.29585
1.28855
1.28076
1.27342
1.26469
1.24769
1.21737
1.19038
1.13805
1.05909
0.966168
0.86334
0.72274
0.411743
0.295677
0.644873
0.888186
1.0261
1.12404
1.16985
1.21162
1.25068
1.28006
1.31167
1.34269
1.35753
1.36905
1.4029
1.44657
1.47424
1.48123
1.47731
1.46916
1.46112
1.45431
1.44079
1.41782
1.40796
1.33662
1.22267
1.08463
0.909938
0.675333
0.338519
0.304381
0.71803
0.979328
1.10533
1.20512
1.26557
1.31461
1.3584
1.39815
1.42876
1.45597
1.47885
1.53141
1.61775
1.70148
1.74705
1.76996
1.78998
1.8033
1.80957
1.80556
1.78269
1.74761
1.70751
1.63747
1.53517
1.37551
1.11133
0.73205
0.330877
0.384991
0.879803
1.10726
1.21064
1.31977
1.41106
1.47607
1.53567
1.5926
1.63339
1.6599
1.69941
1.80754
1.93712
2.06998
2.17746
2.24378
2.27417
2.27795
2.25792
2.209
2.14302
2.08235
2.02774
1.93262
1.8419
1.75801
1.52525
0.975715
0.376088
0.48536
0.95536
1.19055
1.36989
1.50576
1.61525
1.70245
1.78914
1.87411
1.93813
1.98302
2.06618
2.25009
2.45086
2.58294
2.63887
2.65648
2.64361
2.59798
2.53892
2.46433
2.38326
2.30823
2.22512
2.1178
2.00618
1.96893
1.85919
1.39791
0.59177
0.492325
0.976335
1.23546
1.49469
1.70719
1.84481
1.96429
2.08585
2.20715
2.30697
2.41114
2.56047
2.74745
2.86405
2.88001
2.83499
2.77422
2.73199
2.699
2.63111
2.51408
2.38485
2.26718
2.1641
2.07116
1.9912
1.93899
1.82359
1.49245
0.773126
0.491048
0.988728
1.27046
1.54173
1.80073
1.99962
2.17272
2.35931
2.53957
2.71918
2.86741
2.92391
2.99591
2.97326
2.90478
2.84298
2.80064
2.77558
2.70378
2.55531
2.38491
2.23088
2.1008
1.99497
1.90686
1.84517
1.80408
1.67648
1.4155
0.752699
0.493277
1.00593
1.31102
1.59004
1.88235
2.12697
2.34956
2.61865
2.90123
3.18065
3.15032
3.05317
3.01936
2.98611
2.93366
2.89762
2.87767
2.79425
2.62024
2.41391
2.22405
2.06149
1.9255
1.81359
1.72054
1.65858
1.63072
1.50272
1.26295
0.673935
0.491617
1.02155
1.3527
1.6477
1.97229
2.2714
2.54439
2.89422
3.29883
3.53455
3.30702
3.15613
3.09494
3.05936
3.03366
3.02951
2.94463
2.7458
2.5126
2.28937
2.09155
1.92261
1.77863
1.657
1.55535
1.48731
1.46258
1.33721
1.10832
0.582954
0.488663
1.03494
1.39724
1.71282
2.05786
2.4379
2.75359
3.18191
3.64673
3.70336
3.44722
3.28725
3.2168
3.18989
3.20573
3.1498
2.93962
2.6783
2.42786
2.19974
1.99614
1.82021
1.6701
1.54207
1.42882
1.33569
1.28749
1.17086
0.943432
0.495143
0.484354
1.04599
1.4484
1.78741
2.13835
2.61522
2.96477
3.45308
3.91335
3.81895
3.57044
3.4232
3.35696
3.35036
3.39022
3.20251
2.91871
2.63344
2.37498
2.14293
1.93314
1.7508
1.59872
1.46879
1.34285
1.21521
1.11695
0.997492
0.776062
0.407472
0.476882
1.06215
1.50841
1.87235
2.22722
2.76201
3.1783
3.69343
4.08371
3.92164
3.68645
3.55799
3.50621
3.54265
3.55867
3.25753
2.92815
2.62346
2.35389
2.11473
1.89698
1.70825
1.55682
1.42564
1.28174
1.12906
0.986571
0.840489
0.628358
0.329783
0.469394
1.08737
1.58121
1.96617
2.32576
2.84471
3.40849
3.93351
4.20718
4.01997
3.80168
3.68906
3.66568
3.76776
3.74948
3.35677
2.98097
2.65009
2.36257
2.11138
1.88143
1.68358
1.53238
1.39692
1.23481
1.07159
0.916603
0.744826
0.523525
0.276607
0.473917
1.14355
1.67368
2.10479
2.47014
2.91038
3.54081
4.11318
4.30031
4.11349
3.90666
3.81373
3.83275
4.01076
3.97623
3.49967
3.07271
2.70909
2.39607
2.12394
1.87499
1.65311
1.50322
1.3588
1.19451
1.03679
0.883488
0.701712
0.468664
0.254256
0.497471
1.24277
1.77976
2.24919
2.66364
3.03291
3.49245
4.04144
4.28638
4.15914
3.98719
3.92089
3.98395
4.2169
4.1963
3.66397
3.18889
2.79188
2.44944
2.14702
1.86793
1.62156
1.44904
1.28746
1.12823
0.979463
0.828341
0.650429
0.4163
0.220928
0.555597
1.36119
1.88813
2.33685
2.78184
3.17142
3.50615
3.88881
4.19755
4.16611
4.04363
4.0116
4.11556
4.39548
4.39029
3.8284
3.31564
2.89035
2.5195
2.18562
1.87566
1.60888
1.41323
1.23497
1.06776
0.915088
0.762055
0.58558
0.368503
0.177684
0.641053
1.48239
1.99446
2.41428
2.82482
3.23465
3.58548
3.88236
4.11294
4.14425
4.08493
4.08686
4.21968
4.51928
4.52143
3.96453
3.44082
2.99993
2.60599
2.24449
1.90901
1.61724
1.39196
1.19563
1.02144
0.862264
0.706718
0.536763
0.333054
0.148816
0.708205
1.59814
2.10008
2.4928
2.86849
3.25112
3.62374
3.93172
4.08631
4.10712
4.10967
4.14171
4.28256
4.55427
4.54779
4.05396
3.56506
3.12609
2.7131
2.32557
1.96477
1.64698
1.39106
1.17244
0.987023
0.823309
0.666639
0.504036
0.315443
0.132347
0.790979
1.73503
2.22478
2.59068
2.93357
3.28273
3.63074
3.9534
4.08851
4.09037
4.12273
4.16845
4.28798
4.49681
4.49566
4.13353
3.7145
3.28122
2.8458
2.4292
2.04083
1.69513
1.41029
1.1711
0.970946
0.798219
0.640818
0.484347
0.313775
0.130053
0.893806
1.88858
2.36943
2.71556
3.03484
3.36414
3.70461
4.00833
4.10595
4.12387
4.15907
4.18926
4.27677
4.41313
4.4545
4.27658
3.93477
3.49174
3.01523
2.5536
2.13106
1.7575
1.44704
1.18976
0.976048
0.794
0.633304
0.481396
0.320358
0.133369
1.02831
2.06844
2.54321
2.8591
3.16742
3.50266
3.87219
4.15494
4.19377
4.26064
4.27937
4.28382
4.33518
4.43305
4.55586
4.55587
4.26543
3.76847
3.21748
2.69248
2.22696
1.8295
1.49932
1.22811
1.0022
0.810801
0.645721
0.494767
0.338485
0.143024
1.08191
2.15628
2.67716
2.99616
3.28005
3.63264
4.04694
4.29306
4.38928
4.47967
4.46541
4.45866
4.50331
4.6251
4.84647
4.92242
4.66024
4.11148
3.43763
2.83008
2.32096
1.90361
1.5624
1.28239
1.04956
0.852737
0.684404
0.532989
0.376785
0.164041
1.06238
2.10217
2.60369
2.96944
3.30848
3.68419
4.04004
4.25997
4.40911
4.49719
4.52078
4.55484
4.64755
4.80879
4.98473
5.01228
4.80667
4.31023
3.61392
2.94647
2.39816
1.97274
1.62852
1.34692
1.11381
0.917769
0.749416
0.593646
0.428674
0.191053
1.00813
1.97411
2.47402
2.87667
3.25963
3.63523
3.93626
4.11888
4.24387
4.34072
4.41404
4.49538
4.60884
4.74369
4.82948
4.79277
4.6024
4.19706
3.60317
2.98451
2.45752
2.0334
1.69323
1.41643
1.18789
0.994646
0.823949
0.658343
0.476827
0.21409
0.897656
1.79667
2.33069
2.76468
3.14515
3.48547
3.71581
3.86008
3.97714
4.08251
4.17929
4.28159
4.38538
4.47071
4.50912
4.49209
4.3682
4.02627
3.49845
2.96087
2.48054
2.07948
1.75148
1.48264
1.2576
1.06118
0.881142
0.707209
0.518748
0.232109
0.783781
1.60492
2.18722
2.63983
3.00521
3.30038
3.484
3.60487
3.71287
3.81608
3.91551
4.01273
4.10233
4.1767
4.22897
4.2536
4.1865
3.87191
3.38252
2.90369
2.47224
2.10192
1.79153
1.52883
1.30145
1.10037
0.917625
0.7423
0.549494
0.24572
0.683916
1.45377
2.05194
2.50504
2.84808
3.10056
3.26247
3.37704
3.48102
3.58091
3.67798
3.772
3.8609
3.94336
4.02007
4.08386
4.04285
3.71778
3.26124
2.82682
2.43529
2.09362
1.79849
1.54282
1.31937
1.12129
0.940851
0.766396
0.571006
0.255363
0.614085
1.35481
1.92594
2.35757
2.67379
2.89924
3.05469
3.17082
3.27503
3.37474
3.47247
3.56899
3.66493
3.76409
3.87009
3.96289
3.90249
3.55299
3.13063
2.73324
2.37418
2.05698
1.77914
1.53579
1.32154
1.13038
0.954599
0.78243
0.586488
0.263992
0.568883
1.28816
1.8096
2.20356
2.49616
2.70853
2.8639
2.98435
3.09199
3.19486
3.297
3.40045
3.50854
3.62711
3.76276
3.8648
3.74075
3.37802
2.99015
2.62552
2.29623
2.00358
1.74509
1.51689
1.31436
1.13192
0.961808
0.793066
0.597341
0.269221
0.540493
1.23599
1.70158
2.05612
2.32885
2.53405
2.69087
2.81662
2.92961
3.03842
3.14809
3.26187
3.38366
3.52106
3.67915
3.75407
3.54709
3.19637
2.84202
2.51023
2.21041
1.94258
1.70434
1.49245
1.30238
1.12939
0.966031
0.799675
0.603212
0.271337
0.519627
1.1844
1.60328
1.92538
2.18026
2.37875
2.53653
2.66769
2.78673
2.90271
3.0217
3.14644
3.28106
3.43684
3.60224
3.60426
3.34025
3.01422
2.69258
2.39406
2.12346
1.8803
1.66267
1.46717
1.29102
1.12755
0.968675
0.805174
0.608325
0.273928
0.498784
1.13244
1.51669
1.81338
2.05265
2.24415
2.4024
2.53862
2.66385
2.78737
2.91446
3.04702
3.19035
3.35916
3.50781
3.4121
3.13537
2.83769
2.54965
2.28327
2.04072
1.82169
1.62419
1.44697
1.28347
1.12909
0.976944
0.814956
0.616536
0.279915
0.48038
1.08911
1.4435
1.7195
1.94584
2.13185
2.29106
2.43238
2.56403
2.69379
2.82584
2.96236
3.10875
3.2772
3.37543
3.2072
2.94331
2.67464
2.41905
2.18254
1.96629
1.77011
1.59391
1.43265
1.28717
1.14176
0.991566
0.830251
0.629522
0.2852
0.467205
1.05552
1.38384
1.64408
1.86116
2.04426
2.20603
2.3536
2.49227
2.62754
2.76301
2.89959
3.03973
3.18801
3.21502
3.01507
2.77118
2.53089
2.30458
2.09495
1.90277
1.72889
1.57274
1.43216
1.29564
1.15562
1.01014
0.850408
0.648618
0.294401
0.465426
1.03343
1.33992
1.58802
1.79983
1.9837
2.15098
2.30781
2.45639
2.59897
2.73679
2.86572
2.98346
3.08714
3.04992
2.84578
2.62354
2.40866
2.20781
2.02225
1.85185
1.69726
1.56088
1.43771
1.31129
1.1782
1.0367
0.877444
0.670559
0.298616
0.468697
1.02182
1.31292
1.551
1.76128
1.95031
2.12807
2.29949
2.46035
2.61065
2.75162
2.8662
2.94274
2.98198
2.89924
2.70146
2.49973
2.30666
2.12827
1.96486
1.81467
1.67753
1.56178
1.45315
1.33637
1.21043
1.07382
0.915901
0.704533
0.315469
0.476166
1.02003
1.30389
1.53207
1.74329
1.94097
2.13281
2.3183
2.48903
2.64914
2.79118
2.88753
2.919
2.88548
2.76701
2.57872
2.39399
2.22051
2.06332
1.92181
1.79377
1.67677
1.57541
1.47685
1.36896
1.25244
1.12348
0.968797
0.754396
0.346748
0.484127
1.02329
1.30935
1.52942
1.74077
1.94655
2.15232
2.34428
2.51485
2.67528
2.80325
2.88788
2.88975
2.79578
2.65015
2.47005
2.29914
2.14476
2.00861
1.88943
1.78481
1.68753
1.59797
1.50169
1.40635
1.30465
1.1867
1.03706
0.817934
0.378956
0.488348
1.03008
1.32878
1.53738
1.74446
1.95614
2.16688
2.34614
2.513
2.66198
2.762
2.82367
2.81434
2.69572
2.53517
2.36523
2.20976
2.07537
1.96025
1.86232
1.7781
1.70406
1.6094
1.52606
1.45095
1.36796
1.26469
1.1226
0.898043
0.420182
0.487264
1.03524
1.35783
1.55547
1.74674
1.95469
2.16094
2.32844
2.49827
2.62249
2.67603
2.69336
2.66857
2.56774
2.41706
2.26194
2.12531
2.01096
1.91659
1.83891
1.77356
1.70594
1.623
1.56059
1.50455
1.4424
1.3592
1.23143
1.00495
0.472159
0.478317
1.0255
1.37601
1.57092
1.74122
1.93785
2.13297
2.29571
2.47681
2.57939
2.58364
2.56054
2.51154
2.42185
2.30013
2.1693
2.04797
1.95124
1.87529
1.81726
1.76827
1.69833
1.64536
1.60303
1.56858
1.53111
1.47435
1.36997
1.15637
0.585011
0.456158
0.989218
1.36662
1.56854
1.7241
1.90449
2.09064
2.2651
2.46001
2.54821
2.50886
2.44857
2.37819
2.29194
2.19384
2.08799
1.98025
1.8957
1.83342
1.78868
1.74612
1.70598
1.67583
1.6562
1.64656
1.63809
1.61849
1.56468
1.39516
0.738729
0.411194
0.930028
1.34034
1.54767
1.69842
1.87216
2.05838
2.25304
2.45645
2.52947
2.45616
2.36325
2.27543
2.18819
2.1037
2.01535
1.92061
1.84483
1.79503
1.75876
1.73424
1.72043
1.71505
1.7226
1.74301
1.77509
1.80789
1.80373
1.66402
0.914845
0.398635
0.922244
1.32145
1.51944
1.67858
1.85785
2.05224
2.26159
2.45911
2.50826
2.41426
2.30081
2.2017
2.11092
2.02987
1.95327
1.87016
1.80275
1.76093
1.73609
1.72896
1.73683
1.75976
1.8006
1.86284
1.94737
2.03537
2.05081
1.85403
0.990706
0.425945
0.974642
1.33073
1.50991
1.67894
1.86585
2.06656
2.28085
2.45589
2.47147
2.36702
2.25179
2.15219
2.05846
1.97377
1.90118
1.8282
1.76805
1.73117
1.71692
1.72448
1.75346
1.80678
1.88805
2.00471
2.15413
2.28653
2.28709
2.0272
1.03933
0.502888
1.08669
1.36682
1.51953
1.69258
1.88616
2.08825
2.2887
2.43723
2.41671
2.31351
2.21339
2.12216
2.02706
1.93489
1.8568
1.79177
1.74011
1.70772
1.70108
1.72017
1.7696
1.85426
1.98243
2.16496
2.37642
2.54188
2.54873
2.19877
1.0789
0.570011
1.18784
1.41532
1.53376
1.70809
1.90438
2.10475
2.28312
2.3949
2.35684
2.27912
2.1941
2.10634
2.01083
1.90725
1.81873
1.75758
1.71868
1.68921
1.68633
1.71467
1.78336
1.8995
2.07562
2.31337
2.56312
2.76865
2.76408
2.33482
1.12267
0.595729
1.25666
1.44415
1.5527
1.7264
1.91913
2.11125
2.27343
2.35747
2.34276
2.28229
2.19614
2.10229
2.00137
1.89404
1.79246
1.72554
1.69548
1.6666
1.66681
1.70472
1.79223
1.93824
2.15727
2.43258
2.71193
2.95064
2.91348
2.42938
1.17237
0.627563
1.30205
1.49169
1.62043
1.79528
1.98388
2.18114
2.36005
2.4565
2.45236
2.3723
2.26254
2.14119
2.01177
1.89261
1.78567
1.69661
1.65468
1.62985
1.63795
1.68889
1.79634
1.97087
2.22722
2.53281
2.85369
3.10601
3.00882
2.47436
1.21024
0.748987
1.40641
1.62576
1.81347
2.00011
2.18277
2.37257
2.54
2.61037
2.58366
2.47695
2.32417
2.16959
2.00826
1.86064
1.75267
1.66338
1.59593
1.57859
1.59924
1.6686
1.79982
2.00452
2.29558
2.63326
2.99873
3.22234
3.04681
2.47094
1.22712
0.857029
1.52897
1.77829
2.00365
2.19933
2.36682
2.51397
2.61989
2.64879
2.59354
2.45486
2.27701
2.10911
1.95283
1.80433
1.68837
1.6122
1.53046
1.51827
1.55475
1.64851
1.80985
2.04971
2.37633
2.7505
3.13846
3.27673
3.02753
2.43883
1.22434
0.853702
1.52033
1.79454
2.01681
2.20436
2.35307
2.45607
2.49841
2.47309
2.38239
2.24006
2.08383
1.94106
1.81765
1.70671
1.60479
1.53101
1.46597
1.45797
1.51127
1.63469
1.83453
2.11982
2.48769
2.89921
3.25276
3.26036
2.95293
2.3677
1.20969
0.809871
1.44797
1.7163
1.90806
2.05878
2.16041
2.20429
2.19733
2.14892
2.06552
1.95383
1.83245
1.72125
1.63302
1.5663
1.5082
1.45278
1.41328
1.40786
1.47783
1.63421
1.88189
2.22614
2.64479
3.07288
3.31219
3.18252
2.82747
2.26719
1.17664
0.746728
1.3295
1.55955
1.70396
1.80906
1.8714
1.88881
1.86896
1.82168
1.75261
1.66431
1.57168
1.49639
1.44314
1.4111
1.39453
1.38111
1.37222
1.38667
1.4651
1.65408
1.95972
2.3737
2.83615
3.22163
3.29065
3.05345
2.68424
2.14946
1.12505
0.684005
1.20042
1.39758
1.50284
1.56822
1.59968
1.59886
1.57201
1.5274
1.46862
1.39585
1.33194
1.28914
1.26566
1.2616
1.27509
1.30179
1.33409
1.38618
1.4844
1.70464
2.07155
2.54345
3.01978
3.2855
3.20818
2.91775
2.53925
2.01918
1.06709
0.622151
1.07735
1.2494
1.3237
1.35764
1.36508
1.35046
1.3181
1.27435
1.22123
1.16361
1.12375
1.10494
1.10475
1.12291
1.16112
1.21799
1.29191
1.38827
1.53199
1.79512
2.20681
2.6903
3.09949
3.2405
3.1007
2.79093
2.39893
1.87908
1.00336
0.56098
0.969562
1.11931
1.16876
1.17894
1.1689
1.14384
1.1074
1.06383
1.01559
0.971531
0.948081
0.946445
0.962311
0.998435
1.05534
1.13499
1.24252
1.38672
1.58974
1.90492
2.30313
2.70067
3.02129
3.11853
2.97557
2.66651
2.26499
1.73302
0.93323
0.506607
0.871206
1.00194
1.03317
1.02769
1.00577
0.973875
0.935221
0.893199
0.85134
0.817276
0.804889
0.813496
0.841664
0.890316
0.960103
1.05639
1.18737
1.36716
1.62013
1.95812
2.30386
2.62011
2.88484
2.96801
2.83895
2.5456
2.14441
1.59866
0.861495
0.45761
0.776328
0.890417
0.910177
0.89715
0.868225
0.833275
0.794751
0.756224
0.721498
0.696679
0.69243
0.707733
0.745098
0.801946
0.880229
0.988141
1.13661
1.34333
1.63011
1.96469
2.27882
2.56498
2.7853
2.84291
2.7186
2.43897
2.04138
1.4855
0.793
0.409371
0.676154
0.77989
0.794434
0.779809
0.749133
0.71453
0.678727
0.645403
0.618158
0.603936
0.607519
0.63011
0.674447
0.736002
0.81923
0.934696
1.09661
1.32549
1.6259
1.95147
2.25036
2.53342
2.7271
2.75831
2.6275
2.35316
1.95941
1.40546
0.73318
0.361251
0.574174
0.669866
0.683009
0.670227
0.6421
0.610448
0.579969
0.554751
0.53612
0.533131
0.546003
0.57867
0.628816
0.693365
0.77871
0.898067
1.06863
1.3116
1.60585
1.91019
2.20719
2.49596
2.68418
2.70035
2.56141
2.28698
1.89919
1.35904
0.689003
0.314235
0.476794
0.562935
0.575569
0.565634
0.542099
0.515153
0.492959
0.478156
0.47242
0.480233
0.505077
0.54703
0.602907
0.670393
0.757069
0.877187
1.05154
1.2926
1.57527
1.854
2.15058
2.44418
2.6413
2.65594
2.51163
2.23662
1.85712
1.34083
0.659328
0.269474
0.387777
0.461784
0.473293
0.465545
0.446569
0.427445
0.415212
0.412977
0.421721
0.445166
0.482085
0.53033
0.588644
0.658468
0.747051
0.867296
1.03966
1.27482
1.5402
1.80346
2.09517
2.39178
2.60515
2.62702
2.47821
2.1999
1.82931
1.33876
0.654672
0.228011
0.309327
0.369727
0.378077
0.371711
0.358352
0.348322
0.348301
0.3604
0.387983
0.425731
0.471562
0.523613
0.582353
0.652303
0.742282
0.862198
1.02724
1.25213
1.51011
1.77126
2.05664
2.35748
2.59158
2.62601
2.46719
2.1792
1.81338
1.34189
0.658024
0.190634
0.242364
0.287181
0.292216
0.287656
0.280506
0.281616
0.296134
0.328589
0.370332
0.416798
0.466093
0.518588
0.576184
0.643898
0.729759
0.845837
1.00588
1.22048
1.47739
1.74543
2.03161
2.33934
2.59998
2.64886
2.47882
2.17726
1.81004
1.35073
0.66694
0.156907
0.184925
0.217226
0.218841
0.215276
0.216728
0.232422
0.269115
0.315638
0.364634
0.413115
0.461107
0.510642
0.564707
0.628297
0.709261
0.81849
0.969299
1.17543
1.43739
1.71408
2.00665
2.32632
2.62085
2.69947
2.51486
2.18868
1.81391
1.36218
0.679648
0.127478
0.140349
0.159026
0.156621
0.157496
0.173156
0.213706
0.264486
0.315895
0.365276
0.411769
0.456438
0.50183
0.551713
0.610723
0.686093
0.787845
0.929741
1.12696
1.39164
1.67523
1.9732
2.30798
2.64074
2.76594
2.57494
2.21754
1.82602
1.37435
0.692544
0.102782
0.105995
0.108937
0.108815
0.123378
0.16639
0.219663
0.272767
0.32281
0.36907
0.41217
0.4533
0.494875
0.540327
0.594712
0.664427
0.759681
0.89338
1.08206
1.3425
1.62702
1.93095
2.28087
2.64671
2.82815
2.6427
2.25691
1.84503
1.38797
0.705195
0.0812034
0.0755195
0.0746401
0.0869092
0.12748
0.183193
0.238425
0.288673
0.334152
0.375776
0.414591
0.451993
0.489867
0.53142
0.580567
0.644439
0.733009
0.859585
1.04065
1.28996
1.57542
1.88616
2.24779
2.63637
2.86966
2.70287
2.29317
1.86165
1.39991
0.715361
0.0629559
0.0554218
0.0643913
0.0979693
0.156151
0.211996
0.261831
0.306736
0.347486
0.384843
0.419696
0.453294
0.487382
0.524504
0.568828
0.627026
0.708853
0.827669
1.00215
1.24081
1.52698
1.84902
2.22051
2.61879
2.8858
2.73903
2.31194
1.86433
1.40088
0.721956
0.0483091
0.0515311
0.0770934
0.13557
0.191057
0.23983
0.283781
0.323759
0.360357
0.394148
0.425791
0.456187
0.486761
0.519867
0.559182
0.610927
0.684787
0.795991
0.96312
1.19787
1.49061
1.82858
2.21005
2.61036
2.88289
2.74281
2.30477
1.85396
1.39249
0.720862
0.043458
0.0612226
0.116801
0.172781
0.220651
0.263429
0.302324
0.337899
0.370552
0.400694
0.428813
0.455625
0.482328
0.510888
0.544938
0.590418
0.657441
0.761743
0.923536
1.15913
1.46588
1.8263
2.22464
2.62466
2.87204
2.72266
2.2764
1.82656
1.36947
0.714914
0.0463363
0.0929209
0.153013
0.202044
0.244628
0.282867
0.31765
0.349401
0.378405
0.404957
0.429449
0.452515
0.475204
0.499533
0.528899
0.569083
0.63023
0.728791
0.886893
1.1254
1.45092
1.84301
2.26953
2.67313
2.87511
2.67779
2.21679
1.77439
1.32201
0.698745
0.0569862
0.122977
0.180022
0.225359
0.264505
0.299479
0.331102
0.359772
0.385744
0.409262
0.430689
0.450594
0.469989
0.490717
0.515987
0.551567
0.607909
0.702335
0.859522
1.10449
1.45065
1.88008
2.34722
2.76455
2.90754
2.63091
2.13801
1.70084
1.25055
0.664176
0.0687166
0.145535
0.20152
0.244946
0.28198
0.314717
0.344031
0.37034
0.393901
0.414962
0.43386
0.451192
0.467852
0.485546
0.507445
0.539207
0.591489
0.683074
0.841663
1.0966
1.46623
1.93548
2.45297
2.89655
2.98022
2.59639
2.0548
1.61691
1.17998
0.607699
0.0778006
0.163523
0.21979
0.262479
0.298346
0.329645
0.357328
0.381856
0.403513
0.422575
0.439366
0.454399
0.468626
0.483572
0.50244
0.531039
0.580098
0.669426
0.829608
1.09436
1.48718
1.99729
2.57262
3.04782
3.06712
2.57186
1.97982
1.54879
1.11952
0.548397
0.0852604
0.178885
0.236326
0.279075
0.314457
0.344907
0.371461
0.394639
0.414761
0.432088
0.446937
0.459803
0.47154
0.483837
0.499514
0.524085
0.568455
0.653659
0.813401
1.08502
1.49429
2.04143
2.67725
3.18476
3.1297
2.5445
1.92042
1.5089
1.05701
0.493869
0.0918329
0.192864
0.252103
0.295483
0.33087
0.360882
0.386653
0.408761
0.427556
0.443301
0.456277
0.466952
0.476157
0.485448
0.497529
0.517746
0.556956
0.636403
0.791448
1.06306
1.47885
2.04705
2.72729
3.25727
3.12944
2.49632
1.87615
1.48595
1.00409
0.449974
0.0980234
0.206307
0.267811
0.312248
0.348005
0.377894
0.403153
0.42443
0.442123
0.456522
0.467917
0.476768
0.48391
0.490788
0.500088
0.516874
0.551392
0.624632
0.772318
1.03725
1.4492
2.01969
2.71193
3.24469
3.08712
2.43592
1.85047
1.48847
0.973513
0.418082
0.104175
0.219802
0.283959
0.329822
0.366296
0.396402
0.421509
0.442357
0.459404
0.47296
0.483341
0.490962
0.496608
0.501612
0.5084
0.521902
0.552176
0.619178
0.758401
1.01278
1.41281
1.97057
2.64731
3.1634
2.99
2.36474
1.83866
1.50318
0.955386
0.395266
0.110512
0.233759
0.300961
0.348653
0.386255
0.417018
0.442438
0.463338
0.48019
0.493375
0.503173
0.509941
0.514459
0.518033
0.522858
0.53342
0.559257
0.620288
0.750887
0.993045
1.37449
1.90484
2.53989
3.01063
2.86734
2.29108
1.83381
1.53236
0.948607
0.376982
0.117198
0.248497
0.319235
0.369221
0.408422
0.440285
0.466403
0.487664
0.504698
0.517876
0.527477
0.533841
0.53783
0.540681
0.544292
0.55254
0.574266
0.628487
0.75007
0.979005
1.33726
1.82465
2.39963
2.8174
2.73047
2.21837
1.82401
1.55487
0.953483
0.364245
0.12439
0.264356
0.33923
0.391994
0.433164
0.466384
0.493406
0.515205
0.532717
0.546363
0.556267
0.562725
0.566899
0.570138
0.573847
0.581047
0.599749
0.647906
0.759753
0.972666
1.30038
1.7338
2.23977
2.60793
2.58247
2.14597
1.79871
1.55909
0.966462
0.354731
0.132245
0.281687
0.361321
0.417184
0.460485
0.495099
0.523125
0.545616
0.563337
0.577198
0.587503
0.594412
0.599048
0.602962
0.607343
0.614443
0.632311
0.679253
0.78582
0.982405
1.2735
1.64524
2.08409
2.42016
2.44556
2.07432
1.75342
1.54843
0.982856
0.35459
0.140896
0.300751
0.385603
0.444632
0.489992
0.525902
0.554404
0.576766
0.593517
0.60584
0.614335
0.619437
0.622124
0.623805
0.625722
0.630272
0.645586
0.690335
0.792007
0.973001
1.2351
1.56736
1.96397
2.28054
2.33318
2.01161
1.69923
1.52277
1.01813
0.364872
0.150443
0.321636
0.411815
0.473925
0.520831
0.557142
0.585021
0.605807
0.61975
0.628076
0.632821
0.635189
0.635712
0.635229
0.634683
0.636413
0.646135
0.678995
0.75837
0.908928
1.14622
1.4626
1.84375
2.15194
2.22232
1.95001
1.64509
1.49632
1.08957
0.404157
0.160829
0.344071
0.439143
0.503567
0.551139
0.58652
0.612018
0.629371
0.640201
0.646119
0.648052
0.646725
0.6424
0.635851
0.628095
0.621722
0.621042
0.635954
0.689444
0.814102
1.02239
1.30488
1.6578
1.97045
2.07184
1.86344
1.5897
1.48025
1.16043
0.453386
0.171701
0.367376
0.466807
0.533237
0.581436
0.616738
0.641844
0.658606
0.668516
0.672692
0.67198
0.666641
0.65698
0.643575
0.62811
0.611622
0.598998
0.599046
0.631536
0.726906
0.900863
1.13982
1.43275
1.74725
1.87555
1.73559
1.5177
1.44837
1.17793
0.479324
0.183043
0.39138
0.495781
0.565181
0.61542
0.652119
0.678034
0.694874
0.703921
0.706272
0.702568
0.693375
0.679221
0.660276
0.637497
0.613602
0.591144
0.578978
0.591211
0.654708
0.78821
0.982736
1.22149
1.50514
1.65601
1.57817
1.42286
1.38319
1.1495
0.483769
0.194925
0.416392
0.5267
0.599923
0.652899
0.691507
0.71854
0.73559
0.743974
0.74508
0.739208
0.72674
0.708492
0.684747
0.656211
0.624623
0.593527
0.569228
0.563633
0.596176
0.689853
0.843223
1.03713
1.26968
1.4347
1.41263
1.3094
1.27298
1.06312
0.467519
0.207161
0.442419
0.559239
0.636735
0.692832
0.733724
0.762371
0.78061
0.789761
0.790187
0.781809
0.765089
0.742379
0.714114
0.680924
0.644032
0.60452
0.56883
0.54797
0.554585
0.612171
0.728044
0.884399
1.06757
1.22913
1.25644
1.19562
1.13282
0.937066
0.426234
0.219191
0.468978
0.592752
0.674866
0.734608
0.778699
0.810073
0.82993
0.83851
0.83778
0.827922
0.808913
0.782189
0.749305
0.710863
0.66795
0.623327
0.578587
0.544075
0.531592
0.557266
0.63818
0.764319
0.912313
1.05081
1.1043
1.07777
0.980341
0.806826
0.387193
0.231216
0.495804
0.626706
0.713623
0.77745
0.825157
0.859143
0.880276
0.890472
0.889284
0.876415
0.852917
0.821457
0.784693
0.743253
0.697564
0.648476
0.598745
0.55246
0.525631
0.525211
0.572153
0.670383
0.799154
0.910969
0.957259
0.941139
0.839382
0.695414
0.347435
0.244907
0.524208
0.660871
0.752241
0.820196
0.871517
0.908338
0.932139
0.940806
0.935843
0.920486
0.895687
0.862762
0.823544
0.779104
0.730642
0.679606
0.626579
0.574605
0.532487
0.515214
0.529375
0.594224
0.70048
0.788915
0.812221
0.78989
0.703557
0.5742
0.305105
0.26292
0.551588
0.692196
0.788482
0.860787
0.915365
0.955179
0.978455
0.987371
0.98415
0.970096
0.945646
0.911698
0.869959
0.822235
0.770372
0.716273
0.661083
0.606088
0.554871
0.520166
0.510641
0.536802
0.605924
0.668557
0.676376
0.643258
0.573305
0.461916
0.274893
0.281093
0.572035
0.712521
0.816746
0.897092
0.956216
0.997301
1.0249
1.03943
1.04045
1.02852
1.00456
0.969487
0.925329
0.874203
0.818494
0.760868
0.702833
0.645318
0.589752
0.541059
0.511143
0.504032
0.526698
0.556999
0.559216
0.525775
0.464459
0.3676
0.240057
0.293026
0.596935
0.739632
0.84469
0.92972
0.993041
1.04156
1.07634
1.09749
1.10401
1.09565
1.07234
1.03593
0.98896
0.934634
0.875669
0.814644
0.753497
0.69309
0.634059
0.57816
0.529676
0.497859
0.478029
0.469682
0.456283
0.417863
0.356185
0.267607
0.194589
0.300743
0.615518
0.764128
0.866512
0.958429
1.03154
1.08799
1.13149
1.16097
1.17452
1.17059
1.14885
1.11062
1.06066
1.003
0.941086
0.877301
0.813313
0.750158
0.688132
0.627434
0.569112
0.515725
0.472223
0.431141
0.388055
0.328549
0.252
0.177545
0.143792
0.300044
0.618426
0.7748
0.892435
0.991067
1.07053
1.13584
1.18863
1.22839
1.25077
1.25362
1.23367
1.19332
1.13936
1.07866
1.01425
0.948295
0.88205
0.816631
0.752246
0.688349
0.624637
0.561528
0.499617
0.442999
0.382116
0.303391
0.211077
0.126759
0.100315
0.291904
0.62467
0.798704
0.925144
1.02683
1.11143
1.18391
1.24716
1.29814
1.33253
1.34356
1.32705
1.28268
1.22447
1.16111
1.09525
1.02764
0.959648
0.89242
0.82618
0.760203
0.693792
0.628272
0.565198
0.499535
0.418852
0.327621
0.224915
0.124178
0.082266
0.29835
0.646739
0.831475
0.96199
1.06564
1.15317
1.23234
1.30498
1.36892
1.41537
1.43733
1.42956
1.38285
1.31787
1.25193
1.18455
1.11543
1.04617
0.977543
0.909484
0.841752
0.773752
0.707587
0.647398
0.5851
0.501691
0.40412
0.291683
0.155627
0.0856251
0.315451
0.67995
0.86884
1.00036
1.10398
1.19417
1.27793
1.35994
1.4344
1.49582
1.53226
1.51581
1.462
1.39805
1.336
1.27313
1.2092
1.14276
1.07279
1.00171
0.93147
0.86144
0.793742
0.732873
0.669476
0.586216
0.49099
0.382539
0.244824
0.11436
0.343643
0.715537
0.900498
1.02824
1.13498
1.22898
1.31732
1.40527
1.49173
1.56125
1.59534
1.57177
1.52672
1.47453
1.42235
1.36699
1.30719
1.24149
1.17102
1.10062
1.02851
0.954265
0.882222
0.815713
0.746725
0.662427
0.567679
0.459715
0.326441
0.163094
0.369873
0.7437
0.923828
1.05068
1.15733
1.25561
1.34736
1.44187
1.52903
1.60299
1.60863
1.58768
1.55274
1.51051
1.4679
1.42282
1.3739
1.32078
1.26352
1.20003
1.12659
1.0479
0.970081
0.893462
0.816465
0.729486
0.632568
0.522317
0.386805
0.195322
0.37455
0.748178
0.930383
1.06315
1.17752
1.28102
1.37627
1.46625
1.54936
1.59576
1.59812
1.58565
1.55571
1.5178
1.47896
1.43881
1.39677
1.35289
1.30872
1.26191
1.20592
1.13434
1.05017
0.965127
0.879514
0.787454
0.686098
0.572311
0.430728
0.215518
0.37004
0.740758
0.926533
1.0688
1.19222
1.30461
1.40419
1.4855
1.5423
1.56962
1.57622
1.56458
1.5389
1.50566
1.47013
1.43322
1.39492
1.35568
1.3165
1.27749
1.23429
1.17916
1.11016
1.02694
0.935612
0.83717
0.729359
0.609958
0.461741
0.230275
0.358074
0.722555
0.916964
1.06847
1.20119
1.31821
1.41711
1.48814
1.52691
1.54159
1.53956
1.52612
1.50442
1.47663
1.44585
1.41397
1.38071
1.34621
1.31139
1.27723
1.23883
1.18734
1.13363
1.06801
0.981592
0.87883
0.764043
0.636333
0.477761
0.236159
0.341149
0.702539
0.903243
1.06036
1.19544
1.31031
1.40634
1.47348
1.50022
1.50162
1.49454
1.48356
1.4661
1.44142
1.4128
1.38347
1.35383
1.32419
1.29541
1.26571
1.22926
1.18109
1.13005
1.07608
1.00478
0.909113
0.790931
0.65699
0.486802
0.236576
0.325781
0.679799
0.882513
1.03854
1.16945
1.28199
1.37808
1.44619
1.47454
1.47424
1.46448
1.45374
1.43782
1.41233
1.3811
1.35124
1.32371
1.29752
1.27163
1.24265
1.20809
1.16748
1.12171
1.0673
1.00092
0.917155
0.807476
0.674662
0.502361
0.239703
0.308553
0.650286
0.854579
1.01135
1.144
1.25908
1.35563
1.42488
1.45896
1.46512
1.4579
1.4453
1.42442
1.3926
1.35637
1.3249
1.29848
1.27436
1.25036
1.22306
1.19005
1.15109
1.10754
1.05404
0.985993
0.907802
0.811052
0.688548
0.522602
0.247895
0.286635
0.618254
0.83059
0.992003
1.12803
1.24408
1.34094
1.41136
1.4501
1.4623
1.45809
1.44365
1.41922
1.38603
1.34892
1.3146
1.2861
1.2611
1.23637
1.20785
1.17328
1.13239
1.08602
1.0318
0.967767
0.893974
0.805789
0.694167
0.541152
0.260037
0.272312
0.600145
0.8188
0.983036
1.12095
1.23946
1.33556
1.40481
1.44548
1.46188
1.45998
1.44511
1.41981
1.38676
1.35081
1.31621
1.28404
1.25408
1.2242
1.19126
1.15345
1.11014
1.06094
1.00488
0.942388
0.875759
0.795561
0.691172
0.550861
0.271219
0.272783
0.603285
0.821452
0.98678
1.1262
1.24299
1.33294
1.39319
1.4311
1.45059
1.45234
1.44072
1.41884
1.38869
1.35344
1.31637
1.2797
1.24412
1.20905
1.17225
1.13177
1.08645
1.03533
0.977814
0.914704
0.848185
0.776151
0.680277
0.547629
0.274878
0.280398
0.621229
0.838581
1.00536
1.14283
1.24935
1.31856
1.3648
1.3992
1.42107
1.42855
1.42463
1.41042
1.38437
1.34987
1.31111
1.2711
1.23203
1.19373
1.15437
1.11174
1.0644
1.01151
0.952599
0.888099
0.819136
0.745085
0.656509
0.531667
0.272076
0.297527
0.654385
0.873187
1.03604
1.1618
1.23758
1.28949
1.33283
1.36831
1.39222
1.40356
1.40561
1.39486
1.37037
1.33735
1.29969
1.26034
1.22092
1.18155