/*--------------------------------*- C++ -*----------------------------------*\
| =========                 |                                                 |
| \\      /  F ield         | OpenFOAM: The Open Source CFD Toolbox           |
|  \\    /   O peration     | Version:  2.3.0                                 |
|   \\  /    A nd           | Web:      www.OpenFOAM.org                      |
|    \\/     M anipulation  |                                                 |
\*---------------------------------------------------------------------------*/
FoamFile
{
    version     2.0;
    format      ascii;
    class       volScalarField;
    location    "1.36";
    object      nut.air;
}
// * * * * * * * * * * * * * * * * * * * * * * * * * * * * * * * * * * * * * //

dimensions      [0 2 -1 0 0 0 0];

internalField   nonuniform List<scalar> 
6000
(
0.000508339
0.00430767
0.00732788
0.0083212
0.00874109
0.00898661
0.00914188
0.00920674
0.00926655
0.00931567
0.00933993
0.00935849
0.00937477
0.00937659
0.0093654
0.00934995
0.00933718
0.00932397
0.00930431
0.00927885
0.00925077
0.00924119
0.00920132
0.00911173
0.00896218
0.00875785
0.00837252
0.0074433
0.00440076
0.000508762
0.000430241
0.00294476
0.00570927
0.00754102
0.00853976
0.00914854
0.00957004
0.00986407
0.0100429
0.0101611
0.0102647
0.0103418
0.0103656
0.0103359
0.0103029
0.0102734
0.0102318
0.0101839
0.0101232
0.010057
0.00999033
0.00987445
0.00968925
0.0093933
0.00900936
0.00845417
0.00751653
0.00580014
0.00309259
0.000442666
0.000372043
0.0025036
0.00511252
0.00707689
0.00836323
0.00919341
0.00973447
0.0100816
0.0103258
0.0105054
0.0106395
0.0107372
0.0108078
0.0108498
0.0108824
0.0108761
0.0108273
0.0107479
0.0106498
0.0105348
0.010406
0.0102295
0.00998545
0.00962691
0.00906925
0.00823537
0.00699212
0.00521095
0.00276913
0.000399128
0.000331348
0.00225001
0.00490628
0.0070027
0.00843782
0.00939163
0.0100089
0.0104108
0.0107015
0.0109316
0.0111082
0.0112381
0.0113622
0.0115153
0.0116342
0.0116754
0.0116484
0.0115571
0.0114194
0.011244
0.0110441
0.0108062
0.0104935
0.010047
0.00934718
0.00829734
0.00683834
0.00486067
0.00249179
0.000361591
0.000305334
0.00237955
0.00509479
0.00718533
0.00873006
0.00976468
0.0104739
0.0109564
0.0112976
0.0115723
0.0118071
0.0119836
0.0121755
0.0124024
0.0125943
0.0126838
0.0126687
0.0125593
0.0123715
0.0121367
0.0118771
0.0115742
0.0111861
0.010671
0.00983979
0.00867188
0.00711622
0.00505518
0.00245798
0.000327256
0.000309496
0.00264438
0.0055369
0.00759423
0.00913825
0.0102063
0.0109747
0.011549
0.0119968
0.012334
0.0126061
0.0128471
0.0131191
0.0133878
0.0135962
0.0136912
0.013677
0.0135848
0.0134166
0.0131695
0.0128498
0.0124399
0.0119393
0.0113518
0.0105414
0.00941077
0.0078601
0.00569964
0.00269638
0.00032266
0.000347644
0.00311805
0.00587673
0.00795381
0.00956365
0.0106969
0.0115217
0.0121681
0.0126973
0.0131326
0.0134893
0.0138039
0.014127
0.0144274
0.0147217
0.0149108
0.0149606
0.0148522
0.0146261
0.0142862
0.0138364
0.013297
0.0126942
0.0120317
0.0111987
0.0101375
0.00875024
0.00667342
0.00333711
0.000342821
0.000391615
0.00333655
0.00614119
0.00835064
0.0100139
0.0112265
0.0121315
0.012864
0.0134814
0.0139991
0.0144434
0.0148692
0.0153225
0.0157586
0.0160843
0.0161935
0.0161397
0.0159391
0.0156019
0.0151408
0.0145741
0.0139348
0.0132472
0.0124941
0.0116053
0.0104751
0.00918626
0.00710875
0.00401665
0.00042892
0.000394907
0.0034624
0.00642564
0.00877487
0.0104978
0.0117665
0.0127772
0.0136284
0.0143615
0.0149988
0.0155986
0.0161401
0.0166204
0.0169602
0.0171153
0.0170855
0.0168721
0.0165661
0.0161916
0.0156626
0.0149902
0.0142239
0.0134105
0.01254
0.0115554
0.0104026
0.00903806
0.00703179
0.00406379
0.000493951
0.000394344
0.00354467
0.00666353
0.00905635
0.0108316
0.0121912
0.0133502
0.0143644
0.0152416
0.0160505
0.0167443
0.0171869
0.0175407
0.0177038
0.017679
0.0175753
0.0173469
0.0170556
0.0165745
0.0159184
0.0151349
0.0142746
0.0133461
0.0123346
0.011186
0.00990949
0.00849505
0.00664215
0.00385651
0.000487991
0.000394935
0.003609
0.00683106
0.00925466
0.0110695
0.0125238
0.0138528
0.0150441
0.0161063
0.0170599
0.0175819
0.0178734
0.0180837
0.0182148
0.018212
0.0180801
0.0178863
0.0174641
0.0168421
0.0160744
0.0152075
0.0142497
0.0131873
0.0119967
0.0106387
0.00918337
0.00776446
0.00603621
0.00346501
0.00046252
0.000393965
0.00359901
0.00689007
0.00937055
0.0112551
0.0128409
0.0143357
0.015688
0.0169437
0.0178288
0.0181838
0.0184772
0.018693
0.0188038
0.0188103
0.0186947
0.0183332
0.0177371
0.017013
0.0161903
0.0152598
0.0142101
0.0130129
0.0116295
0.010044
0.00841499
0.00699231
0.00539581
0.00309324
0.000430175
0.00039267
0.00350749
0.00683153
0.00941304
0.0113955
0.0131409
0.0147779
0.0163009
0.0176478
0.0183673
0.0187189
0.0190625
0.01932
0.0194241
0.019404
0.0191423
0.0186008
0.0179099
0.0171364
0.0162762
0.0152912
0.0141574
0.0128436
0.0113076
0.00954604
0.00773046
0.00621918
0.00472335
0.00266688
0.000396455
0.000390954
0.00334561
0.00667921
0.00938768
0.0114995
0.0134197
0.0151535
0.0168321
0.0181686
0.018789
0.0191803
0.0195687
0.0198282
0.019929
0.0198735
0.0194439
0.018787
0.0180299
0.0172153
0.0163181
0.0152824
0.0140751
0.0126781
0.0110569
0.00920725
0.00724916
0.00555144
0.00405668
0.00220515
0.000359655
0.000387888
0.00318158
0.00649383
0.0093256
0.0115766
0.0136678
0.0154828
0.0172638
0.0185429
0.0191282
0.0195672
0.019997
0.0202715
0.0203978
0.0202488
0.019655
0.018911
0.0181053
0.017247
0.0163066
0.0152175
0.0139469
0.0124987
0.0108578
0.0089799
0.00696718
0.0050903
0.00350837
0.00183669
0.000323545
0.00038461
0.00315451
0.00653058
0.00939516
0.0117394
0.0138919
0.0158066
0.0175918
0.0187962
0.0193863
0.0198771
0.0203442
0.0206559
0.0208228
0.0205717
0.0198361
0.0190165
0.0181544
0.0172429
0.0162509
0.0151055
0.0137681
0.0122674
0.0106419
0.008807
0.00677796
0.00479632
0.0030757
0.00147591
0.000296139
0.000386312
0.00344526
0.0070191
0.0098706
0.0121763
0.0142069
0.0161159
0.0177908
0.0189321
0.0195634
0.0201099
0.0206233
0.0209818
0.0211871
0.0208766
0.0200143
0.0191187
0.0182001
0.0172265
0.0161658
0.0149494
0.0135183
0.012043
0.010481
0.00867092
0.00665371
0.00464448
0.00284164
0.00125333
0.000283997
0.000395728
0.00395378
0.00777584
0.0106418
0.0128468
0.0146925
0.0163322
0.0178452
0.0189876
0.0196811
0.0202945
0.0208553
0.0212499
0.0214807
0.0211657
0.0202235
0.0192559
0.0182755
0.0172321
0.0160904
0.0147938
0.0133394
0.0118908
0.0103523
0.00859628
0.00663365
0.00462159
0.0027757
0.00116003
0.000265007
0.000418133
0.00434927
0.00840598
0.0113463
0.0135375
0.0152767
0.0167195
0.0179971
0.0190792
0.0198094
0.020479
0.0210662
0.0214793
0.0217361
0.0214462
0.0204756
0.019448
0.0184036
0.0172862
0.0160681
0.0147142
0.0132657
0.0118321
0.010315
0.00862524
0.00675238
0.00480339
0.00292651
0.00122874
0.000237696
0.000449416
0.00465067
0.00881906
0.0118551
0.0140838
0.0158314
0.0172222
0.0183755
0.0192959
0.0199976
0.0206892
0.0212754
0.0216862
0.021949
0.021702
0.0207582
0.0196969
0.018591
0.0173999
0.0161158
0.0147279
0.0132768
0.0118441
0.0103515
0.0087232
0.00693808
0.00506201
0.00318224
0.00133906
0.000217426
0.000472654
0.00483905
0.00908635
0.0121915
0.0144927
0.0162685
0.017694
0.0188224
0.0196493
0.0202832
0.0209557
0.0214966
0.021887
0.0221242
0.021915
0.0210527
0.0199926
0.0188326
0.0175726
0.0162329
0.0148175
0.0133628
0.0119334
0.0104598
0.0088704
0.0071438
0.00531981
0.00344306
0.0014804
0.000204854
0.00049907
0.00495341
0.00922485
0.0124037
0.0148063
0.0166574
0.0181422
0.0193155
0.020098
0.0206772
0.0212479
0.0217327
0.0220507
0.022217
0.022074
0.0213607
0.0203265
0.0191167
0.0177982
0.0164163
0.0149824
0.0135251
0.0120954
0.0106391
0.00907611
0.00737738
0.00557247
0.00368069
0.00166836
0.000202951
0.000530168
0.00495739
0.00920192
0.0124648
0.0150215
0.017021
0.0185974
0.0198152
0.0205417
0.0210706
0.0215938
0.0220035
0.0222922
0.0224163
0.0223067
0.0217237
0.0207157
0.0194615
0.0180848
0.0166609
0.0152142
0.0137597
0.0123307
0.0108769
0.0093334
0.00765765
0.00585147
0.00390165
0.0018106
0.000205488
0.000568587
0.00490937
0.0090907
0.0123997
0.0151643
0.017347
0.019058
0.0203176
0.0210089
0.0216329
0.0220911
0.022395
0.0225786
0.0226688
0.0226117
0.0221714
0.0212018
0.0198947
0.0184445
0.0169657
0.0154998
0.0140586
0.0126394
0.0111994
0.00965453
0.00795784
0.00611353
0.00407259
0.00194148
0.000212681
0.000584223
0.00506582
0.0093268
0.0126008
0.0153328
0.0175573
0.0192823
0.0205523
0.0214177
0.0220091
0.0224272
0.0227466
0.0229521
0.0230645
0.0230053
0.0226138
0.0217638
0.0204562
0.018886
0.0173264
0.015833
0.0144058
0.013009
0.011584
0.010063
0.00838432
0.0065024
0.00435836
0.00210824
0.000227567
0.000579016
0.00504214
0.00931733
0.0126765
0.0154201
0.0175942
0.0192528
0.0204474
0.0213406
0.0219813
0.0224419
0.0227855
0.0230285
0.0231404
0.0230699
0.0227192
0.0220131
0.0208797
0.0193668
0.0177317
0.0161978
0.0147859
0.0134135
0.0120134
0.0105183
0.00885942
0.00696433
0.00474237
0.00232986
0.000245617
0.000564
0.00480304
0.00901718
0.0124551
0.0152247
0.0173882
0.0189962
0.020142
0.0209994
0.0216625
0.0221831
0.0225726
0.022823
0.0229048
0.0227812
0.0224335
0.0218351
0.0208994
0.0195944
0.0180702
0.0165702
0.0151706
0.0138236
0.0124583
0.0110011
0.00937763
0.007508
0.00525099
0.00263542
0.000260113
0.000532164
0.00435058
0.00853428
0.0120223
0.014812
0.0169633
0.0185404
0.0196825
0.0205549
0.0212341
0.0217527
0.0221268
0.0223528
0.0224212
0.022346
0.0221092
0.0216459
0.0208231
0.0196321
0.0182525
0.0168509
0.0155096
0.0142061
0.0128813
0.0114632
0.00986591
0.00798353
0.00565828
0.00283971
0.000270886
0.000497321
0.00378041
0.00799946
0.0115217
0.0143143
0.0164616
0.0180336
0.0191961
0.0200934
0.0207885
0.0213145
0.0216889
0.0219213
0.0220222
0.0220047
0.0218651
0.0214917
0.0207225
0.0195973
0.0183282
0.0170354
0.0157737
0.0145243
0.0132328
0.0118289
0.0102247
0.00830273
0.00590128
0.00294102
0.000278712
0.000464963
0.00348402
0.0076131
0.011071
0.0138126
0.0159341
0.0175198
0.0187227
0.0196561
0.0203762
0.0209202
0.0213131
0.0215739
0.0217182
0.0217549
0.0216821
0.0213431
0.0205777
0.0195052
0.018328
0.0171316
0.0159417
0.0147377
0.0134722
0.0120773
0.0104625
0.00850139
0.00603855
0.00299755
0.000284124
0.00044115
0.00344781
0.00739617
0.0106977
0.0133417
0.0154227
0.0170254
0.0182697
0.0192435
0.0199985
0.0205728
0.0209954
0.0212892
0.0214717
0.0215523
0.021518
0.02116
0.0203754
0.0193561
0.0182606
0.0171464
0.0160216
0.0148616
0.0136215
0.0122358
0.0106119
0.00861893
0.00611346
0.00303174
0.000288825
0.000425114
0.00352703
0.00727816
0.0103887
0.0129195
0.0149552
0.0165688
0.017847
0.0188598
0.0196527
0.0202616
0.0207156
0.0210384
0.0212495
0.021363
0.0213354
0.0209179
0.020119
0.0191563
0.0181355
0.0170969
0.0160352
0.0149225
0.0137121
0.0123363
0.0107011
0.00868358
0.00614862
0.00304555
0.000291611
0.000414703
0.00362026
0.00718622
0.010129
0.0125546
0.0145453
0.0161602
0.0174633
0.018509
0.0193361
0.0199765
0.0204567
0.0208005
0.0210321
0.0211665
0.0211013
0.0206073
0.0198209
0.0189193
0.0179753
0.0170107
0.0160116
0.0149458
0.0137641
0.0123977
0.0107549
0.00871692
0.00615616
0.00303904
0.000292698
0.000406727
0.00365039
0.00708881
0.00991269
0.0122539
0.0142023
0.0158111
0.0171296
0.0181988
0.0190507
0.0197128
0.0202087
0.0205625
0.0208072
0.0209528
0.0208042
0.0202513
0.0195006
0.0186668
0.0178022
0.0169109
0.0159729
0.0149531
0.0138
0.0124439
0.0107923
0.00873764
0.00616348
0.00303244
0.000294025
0.000398479
0.00361083
0.00698338
0.0097367
0.0120192
0.0139334
0.0155334
0.0168593
0.0179414
0.018806
0.0194764
0.0199745
0.020327
0.0205754
0.0207026
0.0204535
0.0198823
0.0191814
0.0184231
0.0176368
0.0168158
0.0159368
0.014962
0.0138388
0.0124933
0.0108434
0.00878906
0.00620444
0.00306214
0.00029717
0.000391039
0.00357711
0.00689603
0.00960942
0.0118564
0.0137481
0.0153404
0.0166674
0.0177526
0.0186171
0.0192825
0.0197716
0.0201128
0.0203502
0.0204105
0.0200844
0.0195302
0.0188871
0.0182046
0.0174922
0.0167376
0.0159158
0.0149863
0.0138963
0.0125884
0.0109564
0.00888742
0.00627781
0.00311059
0.000299791
0.000385574
0.00357719
0.00684284
0.00953903
0.0117722
0.0136543
0.0152413
0.0165644
0.0176434
0.0184969
0.0191481
0.0196189
0.0199349
0.0201336
0.0201051
0.0197325
0.0192112
0.01863
0.0180183
0.0173739
0.0166817
0.0159161
0.0150386
0.0139959
0.0127068
0.0110727
0.00899124
0.00635783
0.00315939
0.000304556
0.00038477
0.00359902
0.00683732
0.00953276
0.0117681
0.01365
0.0152325
0.0165455
0.017608
0.0184402
0.0190696
0.0195137
0.0197883
0.019914
0.0198026
0.0194139
0.0189312
0.0184087
0.0178614
0.0172798
0.0166447
0.0159332
0.0151108
0.0141092
0.0128361
0.0112035
0.00911603
0.00646668
0.0032286
0.000306835
0.000385987
0.0036292
0.0068747
0.00958064
0.0118273
0.0137114
0.0152864
0.0165791
0.0176145
0.018424
0.019032
0.0194398
0.0196489
0.0196818
0.0195009
0.0191187
0.0186768
0.0182099
0.0177246
0.0172038
0.0166238
0.0159661
0.0152024
0.0142394
0.0129802
0.0113563
0.00926875
0.00660696
0.00331825
0.000315367
0.000388891
0.00366804
0.00694461
0.00965545
0.0119118
0.0137912
0.0153407
0.0166158
0.017613
0.0183789
0.0189504
0.019322
0.0194727
0.0194159
0.0191852
0.0188209
0.0184238
0.0180162
0.0175965
0.01714
0.0166183
0.0160159
0.0153078
0.014383
0.0131397
0.0115267
0.00943984
0.00676543
0.00341797
0.000330444
0.000392022
0.00369049
0.00699294
0.00971282
0.0119698
0.0138326
0.0153734
0.016581
0.0175153
0.0182331
0.0187628
0.0191035
0.0192198
0.0190964
0.0188395
0.0185024
0.0181562
0.0178155
0.0174672
0.0170813
0.0166263
0.0160792
0.0154084
0.0145084
0.0132927
0.0116956
0.00961898
0.00694328
0.00354728
0.00034527
0.000393552
0.00371402
0.00705479
0.00972587
0.0119667
0.0138118
0.0152945
0.0164361
0.0173242
0.0180117
0.0184883
0.0187787
0.0188579
0.0187179
0.0184603
0.0181607
0.0178733
0.0176041
0.0173285
0.0170118
0.0166188
0.0161341
0.0154814
0.0146102
0.0134242
0.0118533
0.0098024
0.00713147
0.00369756
0.000363317
0.000393047
0.00369507
0.00704851
0.00968292
0.0118676
0.0136764
0.0151369
0.0162465
0.0170865
0.017699
0.0181019
0.0183334
0.0183996
0.0182949
0.0180655
0.0178105
0.0175845
0.0173836
0.0171771
0.0169251
0.0165914
0.0161435
0.015523
0.0146741
0.013526
0.011998
0.00997284
0.00732664
0.00387528
0.000384712
0.000389381
0.00355954
0.00690127
0.00951404
0.0116759
0.0134942
0.014897
0.0159583
0.0167836
0.017343
0.0176804
0.0178698
0.017919
0.0178406
0.0176716
0.0174749
0.0172969
0.0171537
0.0170086
0.0168184
0.0165378
0.0161056
0.0155242
0.0147038
0.0136077
0.0121027
0.0101114
0.0074882
0.00401647
0.000426775
0.000380343
0.00326477
0.00664341
0.00927148
0.0114409
0.01322
0.0146155
0.0156752
0.0164839
0.0169861
0.0172414
0.0173943
0.0174406
0.0173951
0.0172886
0.0171509
0.0170124
0.0169111
0.0168158
0.0166742
0.0164296
0.0160537
0.015491
0.0147173
0.013632
0.0121513
0.0101885
0.00759266
0.0041623
0.000480171
0.000360953
0.00292218
0.00638174
0.00906455
0.0111944
0.0129927
0.0143788
0.0154452
0.016223
0.0166625
0.0168221
0.0169316
0.0169817
0.0169679
0.0169121
0.0168216
0.0167216
0.0166544
0.016602
0.0164974
0.0162955
0.01596
0.015441
0.0146706
0.0135916
0.0121382
0.0102086
0.00765051
0.00430801
0.000536038
0.000354554
0.00288524
0.00626443
0.00891325
0.0110825
0.0128645
0.0142351
0.0152702
0.0159777
0.016354
0.0164397
0.0165048
0.0165477
0.0165506
0.016527
0.0164793
0.0164176
0.0163836
0.016364
0.0162938
0.01613
0.0158344
0.0153221
0.014564
0.0135073
0.0121065
0.0103036
0.00790469
0.00458416
0.000559723
0.00036587
0.00314658
0.0064428
0.00902329
0.0111454
0.0128531
0.0141452
0.0151053
0.0157459
0.0160292
0.0160876
0.0161198
0.0161404
0.0161361
0.0161228
0.0161102
0.0160904
0.0160914
0.0160998
0.0160584
0.015933
0.0156525
0.0151544
0.0144169
0.0134184
0.0121533
0.0105766
0.0083056
0.00489614
0.000574709
0.000397554
0.00365251
0.00679927
0.00924656
0.0112763
0.0128729
0.0140709
0.0149391
0.0155199
0.0157061
0.0157567
0.0157612
0.0157467
0.0157147
0.0156923
0.0156991
0.0157268
0.0157731
0.0158135
0.0157983
0.0156987
0.015436
0.0149528
0.0142585
0.0133741
0.0123267
0.0109602
0.00875447
0.00519717
0.000586324
0.00042455
0.00403359
0.00723446
0.00951994
0.011429
0.0128962
0.0139914
0.0147697
0.0152379
0.015384
0.015419
0.0154014
0.0153453
0.0152779
0.0152307
0.0152439
0.0153214
0.0154285
0.0155052
0.015514
0.0154359
0.0151923
0.0147322
0.0141089
0.0133714
0.0125247
0.0113043
0.0091321
0.00541922
0.000598014
0.00043456
0.00429148
0.00750793
0.00972679
0.0115281
0.012873
0.0138746
0.0145637
0.0149474
0.0150788
0.0150992
0.0150263
0.0149383
0.0148504
0.0147824
0.0147765
0.0148822
0.0150519
0.0151672
0.0152005
0.0151477
0.0149252
0.0144983
0.01396
0.0133609
0.0126565
0.0115486
0.00940786
0.00555458
0.000611095
0.000444267
0.00436164
0.00771929
0.00996456
0.0116323
0.0128456
0.0137683
0.0144363
0.0147831
0.0148598
0.0148113
0.0147105
0.0145991
0.0144823
0.0143995
0.0143835
0.0144533
0.0146342
0.0147931
0.0148606
0.0148374
0.0146357
0.014249
0.0137947
0.0133044
0.0127185
0.0116967
0.00957811
0.00558617
0.000621134
0.000482639
0.00438013
0.00786672
0.0102113
0.0117626
0.0128442
0.0136542
0.0142345
0.0145533
0.0146391
0.01459
0.0144509
0.0142922
0.0141296
0.0140224
0.0140059
0.0140668
0.0142042
0.0143991
0.0145054
0.0145133
0.0143238
0.013987
0.0136187
0.0132265
0.0127507
0.0117586
0.00962223
0.00552833
0.000625564
0.00051979
0.00427325
0.00770134
0.0100958
0.0116488
0.0126904
0.0134288
0.0139292
0.0142127
0.0143043
0.0142458
0.0140761
0.0138965
0.013739
0.0136309
0.0136157
0.0136946
0.0138026
0.0140099
0.0141477
0.0141844
0.0140005
0.0137294
0.0134597
0.0131781
0.0127882
0.0117417
0.00954029
0.00542468
0.00062487
0.000519928
0.00422343
0.00758671
0.00989624
0.0113954
0.0123895
0.0130413
0.013414
0.0136055
0.01365
0.0135793
0.0134586
0.0133423
0.0132613
0.0132289
0.0132523
0.0133402
0.0134699
0.0136572
0.0138048
0.0138545
0.0136912
0.0135036
0.0133529
0.0131967
0.0128233
0.0116524
0.00930114
0.00521391
0.000621089
0.00050787
0.00408798
0.00733305
0.00947331
0.010842
0.0117041
0.0122212
0.0125436
0.0127215
0.0127872
0.0127739
0.012726
0.0126959
0.0127182
0.0127985
0.0129185
0.0130567
0.013216
0.0133582
0.0134923
0.0135414
0.0134167
0.0133408
0.0133364
0.0132857
0.01281
0.0114615
0.00893651
0.00494538
0.000612476
0.000487639
0.00381486
0.00680924
0.00876457
0.0100248
0.0108039
0.0112861
0.0115852
0.0117618
0.0118556
0.0118977
0.0119342
0.0120134
0.0121497
0.0123419
0.0125701
0.0128046
0.0130045
0.013123
0.0132195
0.0132646
0.0132072
0.0132748
0.0134189
0.0133905
0.0127374
0.0111683
0.00851694
0.00462963
0.000598893
0.000466737
0.00344546
0.00614354
0.00793099
0.00908935
0.0098213
0.0102855
0.0105787
0.0107628
0.0108824
0.0109795
0.0111125
0.0113068
0.0115572
0.0118581
0.012175
0.0125135
0.0127675
0.0129275
0.0129817
0.0130464
0.0131099
0.0133366
0.01357
0.013429
0.0125783
0.0108256
0.00806575
0.00425276
0.000583195
0.0004451
0.00306307
0.00542607
0.00701985
0.00808005
0.00877655
0.00923364
0.0095267
0.00972182
0.00986901
0.010028
0.0102607
0.0105688
0.0109332
0.0113189
0.0117612
0.0121552
0.0124705
0.0126782
0.0127754
0.0129134
0.0131625
0.0134949
0.0136659
0.0133579
0.0123659
0.0104899
0.00763946
0.0038764
0.000565381
0.000422583
0.0027127
0.00471587
0.00608921
0.00703437
0.00769058
0.00813356
0.00843028
0.00863957
0.00881882
0.00904486
0.00937736
0.00980336
0.0102578
0.0107845
0.0112952
0.0117323
0.0120954
0.0123726
0.0125914
0.0128859
0.01326
0.0135446
0.0135902
0.0131771
0.0121179
0.0101811
0.00727452
0.00353448
0.000545134
0.000401336
0.00234743
0.00403027
0.00518435
0.00600533
0.00659878
0.0070157
0.00731313
0.00753937
0.00775566
0.0080492
0.00848477
0.00900844
0.00959238
0.0102378
0.0107949
0.0112688
0.0116686
0.0120152
0.0123673
0.012808
0.0132219
0.0134552
0.0134355
0.0129608
0.0118727
0.00992067
0.00700865
0.00329477
0.000523671
0.000381277
0.00198239
0.00338618
0.00434105
0.00504585
0.00555422
0.00593415
0.00622437
0.00646908
0.00672727
0.00709159
0.00762386
0.00823862
0.00896877
0.00970158
0.0102963
0.0107987
0.0112336
0.0116539
0.0121371
0.0126757
0.0131068
0.0133472
0.0132992
0.0127817
0.0116806
0.00973365
0.00684786
0.00315613
0.000502358
0.000360534
0.00162846
0.00280043
0.00358742
0.00418563
0.00461195
0.00494563
0.00522271
0.00548696
0.00579508
0.00624171
0.00684986
0.00756758
0.0084274
0.00921708
0.00984
0.0103616
0.0108339
0.0113405
0.011933
0.0125148
0.0129566
0.0132245
0.0131823
0.0126518
0.0115567
0.0096341
0.00680504
0.00315439
0.000482997
0.000338595
0.00131502
0.0022875
0.00293622
0.00343898
0.003798
0.0040868
0.0043535
0.00464591
0.00501966
0.00556213
0.00623464
0.00707237
0.00801469
0.00881389
0.0094444
0.00997569
0.010484
0.0110773
0.0117316
0.0123166
0.0127673
0.0130667
0.0130551
0.0125455
0.0114823
0.00961008
0.00686423
0.00327381
0.000468213
0.000315726
0.00105987
0.00185684
0.00238835
0.00280527
0.00311073
0.00336652
0.00363859
0.00398154
0.00445618
0.00507518
0.00586157
0.00679877
0.00775702
0.00852309
0.00913796
0.00966163
0.0101968
0.0108356
0.0115116
0.012079
0.0125396
0.0128716
0.0129077
0.0124459
0.0114353
0.0096379
0.00699619
0.00349286
0.000457996
0.000292343
0.000856938
0.00150115
0.00192996
0.00227156
0.00253264
0.00277683
0.00308214
0.00351814
0.00409076
0.00485333
0.00575137
0.00672953
0.00762147
0.00834046
0.00891947
0.00941415
0.00993736
0.0105795
0.0112429
0.0117981
0.0122796
0.0126504
0.0127476
0.0123519
0.0114084
0.00969339
0.00715121
0.003694
0.00045627
0.000268898
0.000693923
0.00120648
0.00154444
0.00182233
0.00204826
0.0023099
0.0026959
0.00322978
0.00398812
0.00487914
0.00584352
0.0067663
0.00756622
0.0082237
0.00875204
0.00920134
0.0096704
0.010266
0.010917
0.0114856
0.0119934
0.0124109
0.012587
0.0122883
0.0113996
0.00976422
0.00730138
0.00384448
0.000457383
0.000245885
0.000559364
0.00095767
0.00121748
0.00143963
0.00165745
0.00197923
0.00246508
0.00321512
0.00411304
0.00508199
0.00600466
0.006838
0.00754833
0.00812156
0.00857347
0.00895956
0.009372
0.009904
0.01054
0.0111373
0.0116767
0.012151
0.0124292
0.0122188
0.0114024
0.00984142
0.00744373
0.00396017
0.000460325
0.000223126
0.000445454
0.00075034
0.000937852
0.00112289
0.00137409
0.0017937
0.00251891
0.00343599
0.0044057
0.00533253
0.00617877
0.0069175
0.00752914
0.00800782
0.00837321
0.00868147
0.00902296
0.00949121
0.0101148
0.0107396
0.0113124
0.0118374
0.0122018
0.0121148
0.0113943
0.00988381
0.00752585
0.00402778
0.000464546
0.000201123
0.000357033
0.000565539
0.000702389
0.000888457
0.00122963
0.0019211
0.00285373
0.0038121
0.00474198
0.00559764
0.00635457
0.00699604
0.00750975
0.00789267
0.00816578
0.00838587
0.00864617
0.00904762
0.00965319
0.0103006
0.0109
0.0114702
0.0119255
0.0119634
0.0113409
0.00993054
0.00759655
0.00407877
0.000468767
0.000180644
0.000283232
0.000399026
0.000528461
0.000794253
0.00144681
0.00235758
0.00330491
0.00423188
0.00509211
0.00586321
0.00652813
0.00707509
0.0074931
0.00778096
0.00795986
0.00809009
0.00826858
0.00860473
0.00917575
0.00982989
0.0104528
0.0110638
0.0115916
0.0117451
0.0112236
0.0099088
0.00765105
0.00410553
0.000472841
0.000160599
0.000208772
0.000293646
0.000492071
0.001048
0.00194573
0.00290718
0.00382766
0.00467788
0.00544734
0.00612463
0.00669838
0.00715385
0.00748089
0.0076759
0.00776186
0.00780155
0.00789921
0.00817296
0.00869466
0.00934736
0.00999315
0.010642
0.011227
0.0114655
0.0110353
0.0098065
0.00761538
0.00409499
0.000476106
0.000141488
0.00016789
0.00030965
0.000716921
0.00161541
0.00258773
0.00349986
0.00434278
0.00510859
0.00579007
0.00637882
0.00686433
0.00723347
0.00747394
0.00758261
0.00758097
0.00753249
0.00754791
0.0077588
0.00822897
0.00886577
0.00954335
0.0102281
0.0108429
0.0111369
0.0107716
0.00959682
0.00746768
0.00402388
0.000478046
0.000123823
0.000203458
0.000477467
0.00133637
0.00230815
0.00321305
0.00405043
0.00481386
0.00549957
0.00610149
0.00661062
0.00701572
0.0073046
0.00746577
0.00749517
0.00741307
0.00728214
0.00721932
0.00736135
0.00778264
0.00841474
0.00912935
0.00984864
0.0104826
0.0107932
0.0104343
0.00930963
0.00725297
0.00388246
0.000477638
0.000116851
0.000302891
0.00103513
0.00199279
0.00290112
0.00374559
0.00451897
0.00521652
0.00583408
0.00636598
0.00680359
0.0071359
0.00735141
0.00743641
0.00738951
0.00722978
0.00702196
0.00688698
0.00696836
0.00735016
0.00799093
0.00875301
0.00951409
0.0101657
0.0104762
0.0101298
0.00903499
0.00693052
0.00362065
0.000475601
0.000120318
0.000632265
0.00158268
0.0025144
0.00338672
0.00418704
0.00491076
0.0055547
0.00611538
0.0065879
0.00696413
0.00723348
0.00738179
0.00739839
0.00727908
0.00704268
0.00675622
0.00654874
0.00657572
0.00693354
0.00759645
0.00841596
0.00922912
0.00989706
0.0101866
0.00977239
0.00862348
0.00644171
0.00320774
0.000470127
0.000133165
0.00090569
0.00194662
0.00290853
0.00377099
0.0045463
0.00523589
0.00583974
0.00635499
0.00678032
0.00710675
0.00732292
0.00741501
0.00737034
0.00718269
0.00687012
0.00650312
0.00622256
0.0062022
0.00654919
0.00723948
0.00812231
0.00899664
0.00968468
0.00990427
0.00941508
0.00812835
0.00582651
0.00271298
0.000458264
0.000146494
0.00107521
0.00220383
0.00320036
0.0040736
0.00483877
0.00550743
0.00608375
0.00656802
0.00695405
0.00723853
0.00741192
0.00745657
0.00735755
0.00710704
0.00672151
0.00627482
0.00592272
0.00586059
0.00620614
0.00693094
0.00787229
0.00880463
0.00952512
0.00968565
0.0091015
0.0075793
0.00519631
0.00233842
0.000438301
0.000156031
0.00119642
0.00239488
0.00342663
0.00431629
0.00508016
0.00573737
0.00629523
0.00675608
0.00711669
0.00736894
0.00750255
0.0075066
0.00736112
0.00705484
0.00660278
0.00608199
0.005664
0.00556412
0.00590895
0.00666186
0.00765278
0.00863979
0.00938682
0.00948109
0.00879231
0.00705893
0.00470722
0.00213466
0.000416317
0.000163423
0.00129101
0.00254581
0.00361113
0.00451584
0.00528396
0.00593607
0.00648215
0.00692576
0.00726501
0.00749341
0.00759966
0.00756794
0.00738274
0.00702981
0.00652074
0.00593449
0.00545409
0.00531783
0.00565383
0.00641447
0.00743585
0.00847457
0.00922348
0.00924681
0.0084832
0.00663665
0.0044005
0.00201046
0.000395117
0.00016965
0.00136911
0.00267166
0.00376675
0.00468633
0.00546121
0.00611205
0.00665108
0.00708284
0.00740612
0.00761464
0.00769746
0.00763908
0.00742111
0.00703131
0.00647718
0.00583744
0.0052996
0.00511499
0.00542891
0.00617905
0.00720273
0.00826714
0.00899872
0.0089326
0.0081648
0.00633352
0.00427617
0.00201737
0.00037734
0.000175296
0.00143679
0.00278135
0.00390292
0.00483721
0.00561965
0.00627195
0.00680767
0.00723205
0.00754428
0.00773832
0.00780321
0.00772357
0.00748002
0.00705803
0.00646754
0.00578274
0.00519243
0.00495593
0.00522898
0.00595447
0.00696502
0.00802779
0.00875225
0.00870459
0.00784167
0.00615392
0.00429784
0.0020893
0.000364037
0.000180718
0.0014982
0.00288041
0.00402581
0.00497464
0.00576529
0.00642161
0.00695764
0.00737903
0.00768497
0.00786909
0.00791997
0.00782181
0.00755624
0.00710578
0.00647984
0.00575426
0.00511322
0.00482619
0.00505338
0.00573912
0.006714
0.00774498
0.00844843
0.00832681
0.00754243
0.00604972
0.00434962
0.00216454
0.000354312
0.000186129
0.00155575
0.00297202
0.00413934
0.00510284
0.00590336
0.00656646
0.00710632
0.00752852
0.00783178
0.00800877
0.00804689
0.00792965
0.00763855
0.00715831
0.00649847
0.005733
0.00505222
0.00471756
0.00490231
0.00554073
0.00645639
0.00740976
0.00804194
0.00797799
0.00727715
0.00596819
0.00443382
0.00222765
0.00034639
0.000191664
0.0016101
0.00305783
0.00424645
0.00522571
0.0060385
0.00671105
0.0072576
0.00768348
0.00798655
0.0081578
0.00818298
0.00804456
0.00772389
0.00720762
0.00650852
0.00570558
0.00498853
0.00462669
0.00477533
0.00536915
0.00621032
0.00708181
0.00766397
0.00763831
0.00703371
0.00588159
0.00447067
0.00228044
0.000340763
0.000197435
0.0016607
0.00313915
0.0043501
0.00534714
0.00617435
0.00685848
0.00741374
0.00784532
0.00814988
0.00831625
0.00832737
0.00816388
0.0078065
0.00724413
0.0064968
0.00565478
0.00491251
0.00453509
0.00466771
0.00521762
0.00597522
0.00675589
0.00729072
0.00730952
0.00680048
0.00575146
0.00442708
0.00232781
0.0003366
0.000203543
0.00170766
0.00321805
0.00445336
0.0054701
0.00631311
0.00701
0.00757516
0.00801254
0.00831762
0.00847827
0.00847418
0.00828126
0.0078781
0.00725715
0.00644869
0.00556142
0.00480254
0.00442653
0.00455769
0.00507124
0.0057493
0.00644964
0.00695341
0.00701242
0.00657568
0.00557054
0.00437612
0.00236321
0.000336552
0.000210056
0.00175324
0.00329762
0.00455904
0.00559637
0.00645549
0.00716387
0.00773594
0.00817402
0.00847389
0.00862551
0.00860729
0.00839099
0.00795064
0.00727722
0.00640276
0.00544509
0.00464179
0.00426423
0.00439971
0.0048831
0.00551108
0.00616768
0.00665378
0.00674676
0.00636591
0.00540454
0.00427947
0.00243239
0.000341231
0.000217014
0.00180167
0.00338139
0.0046693
0.00572562
0.00659702
0.00731055
0.00787997
0.00831167
0.00860635
0.00875526
0.00873856
0.00852799
0.00809791
0.0074282
0.00654276
0.00554487
0.00467555
0.00419072
0.00420284
0.00462216
0.0052252
0.00585816
0.00633932
0.00646469
0.00614187
0.00525271
0.00422294
0.0025742
0.000358645
0.000224334
0.00185774
0.00347196
0.00478261
0.00585229
0.00672855
0.0074408
0.00800646
0.00843645
0.00873261
0.00888637
0.00887731
0.00867484
0.00825566
0.00759466
0.00672445
0.0057343
0.00479098
0.00415647
0.00402464
0.00433595
0.00487462
0.00547136
0.00595078
0.00611907
0.00586491
0.00509956
0.00418353
0.00272121
0.000379929
0.000231744
0.00192173
0.00356931
0.00490176
0.00598421
0.00686723
0.00758347
0.00815326
0.00858728
0.00888796
0.00904998
0.00905387
0.0088701
0.0084596
0.00784132
0.00698662
0.00598226
0.00496959
0.00418856
0.00387621
0.00404559
0.00449638
0.00502728
0.00550445
0.00571225
0.00552974
0.00490525
0.00411001
0.00276919
0.000391028
0.000239219
0.00198599
0.00367276
0.00503287
0.00613444
0.00703031
0.00775505
0.00833058
0.00876752
0.00907279
0.00924034
0.00925392
0.00909097
0.00871742
0.00809883
0.00728275
0.00626783
0.00520391
0.00428093
0.00377649
0.00377638
0.00411558
0.00457467
0.0050338
0.00527163
0.00515577
0.00465836
0.00396999
0.00274362
0.000393283
0.000246808
0.00204894
0.00378324
0.00517803
0.00630401
0.00721618
0.00795106
0.00853215
0.00897131
0.00928039
0.00945293
0.00947526
0.00932914
0.00898839
0.00841632
0.00759409
0.00658765
0.00547253
0.0044433
0.00374381
0.003554
0.00376371
0.0041465