/*--------------------------------*- C++ -*----------------------------------*\
| =========                 |                                                 |
| \\      /  F ield         | OpenFOAM: The Open Source CFD Toolbox           |
|  \\    /   O peration     | Version:  2.3.0                                 |
|   \\  /    A nd           | Web:      www.OpenFOAM.org                      |
|    \\/     M anipulation  |                                                 |
\*---------------------------------------------------------------------------*/
FoamFile
{
    version     2.0;
    format      ascii;
    class       volVectorField;
    location    "1.36";
    object      U.airMean;
}
// * * * * * * * * * * * * * * * * * * * * * * * * * * * * * * * * * * * * * //

dimensions      [0 1 -1 0 0 0 0];

internalField   nonuniform List<vector> 
6000
(
(-0.00454637 0.249787 0)
(0.0181902 0.21828 0)
(0.0538132 0.229815 0)
(0.0740352 0.238129 0)
(0.0669365 0.237623 0)
(0.045238 0.228076 0)
(0.0308532 0.205973 0)
(0.0208687 0.202798 0)
(0.00391583 0.203983 0)
(-0.00814228 0.201596 0)
(-0.00727385 0.199317 0)
(-0.00222499 0.197503 0)
(-0.014489 0.220503 0)
(-0.049993 0.242235 0)
(-0.0756007 0.232883 0)
(-0.0576361 0.215047 0)
(-0.0266611 0.208837 0)
(-0.0145267 0.21326 0)
(-0.0244792 0.209403 0)
(-0.0263105 0.20462 0)
(-0.0243366 0.205954 0)
(-0.018176 0.217688 0)
(-0.0118475 0.220189 0)
(-0.00590229 0.222541 0)
(-0.0133821 0.231839 0)
(-0.0374137 0.231895 0)
(-0.0384563 0.214845 0)
(-0.0181021 0.218192 0)
(-0.0200767 0.218953 0)
(-0.00616481 0.252935 0)
(0.0223703 0.951075 0)
(0.0492377 0.949486 0)
(0.0783134 0.945796 0)
(0.0879024 0.977859 0)
(0.0750335 1.0082 0)
(0.0678342 1.02421 0)
(0.0623266 1.0185 0)
(0.0345957 1.03049 0)
(0.00411682 1.03985 0)
(-0.0168213 1.00496 0)
(-0.0179099 0.997725 0)
(-0.0269894 1.02026 0)
(-0.0486221 1.02786 0)
(-0.0689771 1.03638 0)
(-0.0791391 0.999156 0)
(-0.0720296 0.948528 0)
(-0.0591166 0.962397 0)
(-0.0483939 1.00423 0)
(-0.0412843 1.00287 0)
(-0.0351044 1.00687 0)
(-0.0229268 1.00014 0)
(-0.0137381 0.991607 0)
(-0.00702638 0.997606 0)
(-0.0194521 1.00775 0)
(-0.0471514 1.03292 0)
(-0.0712958 1.01886 0)
(-0.068135 0.984706 0)
(-0.0547938 0.978284 0)
(-0.0502727 1.00605 0)
(-0.0315199 0.924392 0)
(0.00019541 0.781123 0)
(0.0406923 0.749074 0)
(0.0605801 0.759839 0)
(0.0619437 0.828735 0)
(0.0522168 0.854682 0)
(0.052963 0.857205 0)
(0.0523893 0.861941 0)
(0.0283306 0.887273 0)
(0.00324414 0.891999 0)
(-0.0107354 0.834577 0)
(-0.0126144 0.826804 0)
(-0.0185706 0.865512 0)
(-0.0387602 0.886785 0)
(-0.0614014 0.899335 0)
(-0.074279 0.848784 0)
(-0.0831697 0.786656 0)
(-0.0870139 0.789408 0)
(-0.0780001 0.814482 0)
(-0.0667119 0.815529 0)
(-0.0537349 0.800719 0)
(-0.0303142 0.789304 0)
(-0.0124216 0.801992 0)
(-0.0109696 0.817286 0)
(-0.0350129 0.855142 0)
(-0.0702303 0.88458 0)
(-0.0749233 0.852249 0)
(-0.0541294 0.803298 0)
(-0.0330885 0.797231 0)
(-0.0280957 0.835797 0)
(-0.00507444 0.746144 0)
(0.000114219 0.787686 0)
(0.0313599 0.762845 0)
(0.0261157 0.792258 0)
(0.0284424 0.856233 0)
(0.0351332 0.866645 0)
(0.0422392 0.874018 0)
(0.0358932 0.893374 0)
(0.0157705 0.920922 0)
(0.00247876 0.927046 0)
(-0.00678809 0.864774 0)
(-0.0134964 0.850436 0)
(-0.0190265 0.895655 0)
(-0.0360328 0.91693 0)
(-0.0569043 0.916867 0)
(-0.0777356 0.866629 0)
(-0.0950127 0.807531 0)
(-0.0975582 0.801688 0)
(-0.0898736 0.828824 0)
(-0.0807298 0.831212 0)
(-0.0622508 0.81349 0)
(-0.0435416 0.80877 0)
(-0.0348694 0.821122 0)
(-0.0450144 0.849234 0)
(-0.0729414 0.916196 0)
(-0.0859459 0.903561 0)
(-0.0667369 0.856563 0)
(-0.0347443 0.801742 0)
(-0.0115145 0.807451 0)
(-0.00816772 0.864921 0)
(0.00433204 0.754036 0)
(0.00766675 0.769608 0)
(0.0191815 0.743271 0)
(0.0118655 0.787685 0)
(0.0142989 0.837934 0)
(0.024838 0.852337 0)
(0.0255652 0.871806 0)
(0.0168979 0.907591 0)
(-0.001531 0.934785 0)
(-0.00808318 0.932585 0)
(-0.014124 0.871473 0)
(-0.0238916 0.856897 0)
(-0.0318911 0.899221 0)
(-0.0552336 0.929861 0)
(-0.0795202 0.929791 0)
(-0.0995816 0.880784 0)
(-0.105497 0.813595 0)
(-0.0987461 0.790299 0)
(-0.0933363 0.823814 0)
(-0.0875282 0.81153 0)
(-0.0709354 0.7848 0)
(-0.0600082 0.78616 0)
(-0.0632803 0.80893 0)
(-0.0802946 0.856171 0)
(-0.0924631 0.907266 0)
(-0.0818738 0.881158 0)
(-0.0570869 0.821644 0)
(-0.0221762 0.769545 0)
(-0.000735827 0.78257 0)
(0.00373227 0.861678 0)
(0.00947766 0.74336 0)
(0.00625809 0.749178 0)
(0.0186527 0.738578 0)
(0.00729901 0.786022 0)
(0.0135188 0.827642 0)
(0.0111277 0.843779 0)
(0.00562749 0.871815 0)
(-0.0019348 0.918215 0)
(-0.0139402 0.941874 0)
(-0.0229174 0.937152 0)
(-0.032957 0.885259 0)
(-0.0464524 0.866199 0)
(-0.0655498 0.916389 0)
(-0.0962788 0.95554 0)
(-0.112805 0.940253 0)
(-0.114363 0.878627 0)
(-0.0999761 0.798589 0)
(-0.0870884 0.788132 0)
(-0.0891292 0.824169 0)
(-0.0901136 0.801189 0)
(-0.0845499 0.772887 0)
(-0.0843796 0.782657 0)
(-0.093242 0.817766 0)
(-0.101067 0.856961 0)
(-0.0952007 0.890875 0)
(-0.0685594 0.848239 0)
(-0.0395401 0.784503 0)
(-0.0124976 0.733586 0)
(0.00361289 0.764786 0)
(0.00581883 0.85737 0)
(0.0101381 0.741228 0)
(0.00239239 0.727666 0)
(0.0193385 0.728318 0)
(0.0199215 0.772296 0)
(0.0145588 0.822806 0)
(0.00386961 0.839727 0)
(-0.0107854 0.869169 0)
(-0.0146831 0.92194 0)
(-0.0239281 0.947036 0)
(-0.0410209 0.948658 0)
(-0.0583435 0.897745 0)
(-0.0807868 0.879991 0)
(-0.107941 0.935147 0)
(-0.132407 0.962812 0)
(-0.128195 0.928851 0)
(-0.115822 0.858864 0)
(-0.0973854 0.777563 0)
(-0.0926711 0.780206 0)
(-0.0995261 0.826854 0)
(-0.10287 0.794974 0)
(-0.103791 0.766543 0)
(-0.105825 0.780402 0)
(-0.111389 0.814163 0)
(-0.110161 0.842905 0)
(-0.0912403 0.85381 0)
(-0.0550118 0.804908 0)
(-0.0290949 0.743708 0)
(-0.0143571 0.702419 0)
(-0.00801164 0.738806 0)
(-0.00944117 0.844865 0)
(0.00364873 0.730168 0)
(0.00658371 0.707868 0)
(0.0278465 0.701515 0)
(0.0278873 0.75927 0)
(0.0135781 0.824114 0)
(-0.0105947 0.841129 0)
(-0.0246327 0.870528 0)
(-0.0281686 0.918917 0)
(-0.0341459 0.95836 0)
(-0.0540685 0.965193 0)
(-0.0818568 0.913782 0)
(-0.114467 0.899629 0)
(-0.138383 0.949571 0)
(-0.143694 0.951756 0)
(-0.128953 0.915809 0)
(-0.109796 0.839504 0)
(-0.0947508 0.767601 0)
(-0.106875 0.795024 0)
(-0.123871 0.825875 0)
(-0.124744 0.789474 0)
(-0.125052 0.759908 0)
(-0.122384 0.774694 0)
(-0.122614 0.806359 0)
(-0.112569 0.823806 0)
(-0.0863814 0.812223 0)
(-0.054433 0.763454 0)
(-0.0353369 0.715008 0)
(-0.0305129 0.682641 0)
(-0.0315965 0.723836 0)
(-0.029279 0.825986 0)
(-0.00380181 0.706282 0)
(0.0106991 0.68152 0)
(0.0312223 0.674139 0)
(0.0211227 0.748855 0)
(-0.00324814 0.833599 0)
(-0.0273981 0.84634 0)
(-0.0442139 0.876452 0)
(-0.0434761 0.917676 0)
(-0.0488085 0.964118 0)
(-0.0629482 0.983915 0)
(-0.101534 0.940335 0)
(-0.139654 0.920342 0)
(-0.146269 0.942954 0)
(-0.135635 0.93417 0)
(-0.116409 0.898896 0)
(-0.0998868 0.817033 0)
(-0.0978269 0.767573 0)
(-0.120684 0.814475 0)
(-0.13912 0.824026 0)
(-0.137926 0.780585 0)
(-0.136261 0.747584 0)
(-0.134899 0.764213 0)
(-0.12964 0.794254 0)
(-0.111481 0.79904 0)
(-0.0878888 0.776484 0)
(-0.0626609 0.736602 0)
(-0.0501653 0.689665 0)
(-0.052436 0.671073 0)
(-0.0563545 0.705057 0)
(-0.0435775 0.793437 0)
(-0.00639142 0.673128 0)
(0.0110371 0.652992 0)
(0.0277689 0.658413 0)
(0.00984528 0.75283 0)
(-0.0186919 0.843464 0)
(-0.0371641 0.851693 0)
(-0.0479348 0.879803 0)
(-0.0528746 0.918114 0)
(-0.0613079 0.968011 0)
(-0.0688119 1.00384 0)
(-0.11082 0.978509 0)
(-0.142138 0.929878 0)
(-0.135166 0.924421 0)
(-0.114685 0.910373 0)
(-0.0984084 0.885019 0)
(-0.0909975 0.809023 0)
(-0.105547 0.783963 0)
(-0.12991 0.830654 0)
(-0.138507 0.821097 0)
(-0.136116 0.769443 0)
(-0.138272 0.742736 0)
(-0.144554 0.7578 0)
(-0.135445 0.77797 0)
(-0.115291 0.775797 0)
(-0.092637 0.753708 0)
(-0.0727395 0.712924 0)
(-0.0641435 0.677092 0)
(-0.0719127 0.665847 0)
(-0.076182 0.692229 0)
(-0.0542111 0.751286 0)
(-0.0114395 0.643011 0)
(0.00913695 0.627227 0)
(0.0242787 0.647847 0)
(0.00355396 0.761802 0)
(-0.0214691 0.841193 0)
(-0.0310327 0.857282 0)
(-0.0459661 0.886161 0)
(-0.0583569 0.937966 0)
(-0.0629999 0.968218 0)
(-0.0633396 1.02469 0)
(-0.09461 1.01257 0)
(-0.12271 0.931716 0)
(-0.111981 0.895893 0)
(-0.0952866 0.893929 0)
(-0.0858898 0.87494 0)
(-0.0893654 0.812362 0)
(-0.111377 0.805839 0)
(-0.129722 0.833355 0)
(-0.128475 0.815475 0)
(-0.131307 0.762404 0)
(-0.142268 0.749887 0)
(-0.151685 0.753327 0)
(-0.141148 0.763054 0)
(-0.117274 0.756772 0)
(-0.0966975 0.731526 0)
(-0.0811104 0.698375 0)
(-0.0781228 0.669086 0)
(-0.0892782 0.667171 0)
(-0.0925224 0.677043 0)
(-0.0671667 0.707924 0)
(-0.0189374 0.614262 0)
(0.0110097 0.603027 0)
(0.0244978 0.641375 0)
(0.00699092 0.771925 0)
(-0.00607921 0.834756 0)
(-0.0217374 0.860308 0)
(-0.0401776 0.902465 0)
(-0.0552226 0.94907 0)
(-0.0510879 0.966695 0)
(-0.0485671 1.03218 0)
(-0.0612734 1.04657 0)
(-0.0890352 0.935029 0)
(-0.0911985 0.882787 0)
(-0.081238 0.885057 0)
(-0.0798326 0.875117 0)
(-0.0899447 0.825794 0)
(-0.1115 0.821317 0)
(-0.122554 0.832637 0)
(-0.119775 0.809026 0)
(-0.128539 0.770817 0)
(-0.14644 0.761627 0)
(-0.150192 0.748624 0)
(-0.132614 0.744424 0)
(-0.111528 0.735798 0)
(-0.0981406 0.716715 0)
(-0.0892851 0.687792 0)
(-0.0929047 0.673032 0)
(-0.107864 0.670451 0)
(-0.106041 0.666865 0)
(-0.0780675 0.6681 0)
(-0.0249126 0.575921 0)
(0.0103543 0.578003 0)
(0.0237723 0.636531 0)
(0.0167621 0.771203 0)
(0.0136759 0.832433 0)
(-0.00908264 0.870953 0)
(-0.0282887 0.915898 0)
(-0.0378506 0.954481 0)
(-0.0330465 0.965907 0)
(-0.0326561 1.03583 0)
(-0.0279599 1.0594 0)
(-0.0507237 0.957376 0)
(-0.0712764 0.875232 0)
(-0.0740959 0.882232 0)
(-0.0748665 0.875694 0)
(-0.0871274 0.839807 0)
(-0.107884 0.835618 0)
(-0.114728 0.830794 0)
(-0.116614 0.808658 0)
(-0.127177 0.788422 0)
(-0.145449 0.767758 0)
(-0.13772 0.737397 0)
(-0.114947 0.722876 0)
(-0.0997151 0.722704 0)
(-0.0962922 0.707446 0)
(-0.0994695 0.68895 0)
(-0.110901 0.680487 0)
(-0.126443 0.675867 0)
(-0.117736 0.650871 0)
(-0.0889207 0.632209 0)
(-0.0245857 0.53524 0)
(0.00813419 0.56023 0)
(0.0213376 0.630906 0)
(0.0246877 0.757163 0)
(0.0295786 0.829339 0)
(0.0109567 0.878154 0)
(-0.00641445 0.923894 0)
(-0.0110225 0.952439 0)
(-0.0120448 0.973096 0)
(-0.00915177 1.02814 0)
(0.000741262 1.06377 0)
(-0.0128741 0.982566 0)
(-0.0493419 0.893584 0)
(-0.0651906 0.882192 0)
(-0.0730115 0.880647 0)
(-0.0885356 0.860056 0)
(-0.107228 0.84709 0)
(-0.113516 0.829326 0)
(-0.113301 0.811863 0)
(-0.124877 0.805004 0)
(-0.131944 0.767928 0)
(-0.117199 0.718816 0)
(-0.09438 0.702647 0)
(-0.0864515 0.717436 0)
(-0.0960428 0.711869 0)
(-0.112237 0.697493 0)
(-0.132717 0.693789 0)
(-0.142766 0.676137 0)
(-0.12279 0.632863 0)
(-0.0891136 0.59284 0)
(-0.0244013 0.491508 0)
(0.00892251 0.547339 0)
(0.0187202 0.621807 0)
(0.025278 0.738603 0)
(0.0412822 0.81819 0)
(0.0369365 0.88156 0)
(0.0258889 0.923745 0)
(0.021284 0.95335 0)
(0.0138365 0.97431 0)
(0.0196649 1.02528 0)
(0.0258228 1.05475 0)
(0.0194007 1.00736 0)
(-0.0220553 0.922884 0)
(-0.0538136 0.89268 0)
(-0.0703091 0.895246 0)
(-0.092269 0.879039 0)
(-0.109587 0.857987 0)
(-0.113586 0.826721 0)
(-0.112039 0.815295 0)
(-0.117453 0.810248 0)
(-0.112047 0.761198 0)
(-0.0927516 0.696824 0)
(-0.0744616 0.687659 0)
(-0.0742952 0.718983 0)
(-0.0956323 0.724466 0)
(-0.127182 0.716277 0)
(-0.15054 0.703606 0)
(-0.147791 0.665856 0)
(-0.116485 0.603868 0)
(-0.0803139 0.55427 0)
(-0.0212896 0.446173 0)
(0.0100968 0.53914 0)
(0.0101029 0.619956 0)
(0.0148562 0.713484 0)
(0.0461034 0.79589 0)
(0.0606083 0.873753 0)
(0.0601934 0.920261 0)
(0.0599519 0.95538 0)
(0.0511252 0.980858 0)
(0.0500846 1.02098 0)
(0.0554431 1.05679 0)
(0.0463077 1.02411 0)
(0.00588622 0.972023 0)
(-0.03518 0.913251 0)
(-0.064719 0.919688 0)
(-0.0911408 0.904072 0)
(-0.112755 0.867775 0)
(-0.115555 0.827052 0)
(-0.112885 0.814741 0)
(-0.10554 0.806784 0)
(-0.0872159 0.743739 0)
(-0.0654101 0.67615 0)
(-0.0549552 0.678814 0)
(-0.0629874 0.728168 0)
(-0.094205 0.749631 0)
(-0.135396 0.739932 0)
(-0.151145 0.700042 0)
(-0.133081 0.636327 0)
(-0.0983643 0.570255 0)
(-0.0684597 0.516816 0)
(-0.018469 0.404896 0)
(0.00514338 0.537412 0)
(-0.00767635 0.63073 0)
(-0.00193321 0.683724 0)
(0.0400701 0.755205 0)
(0.0715586 0.85795 0)
(0.0808868 0.905778 0)
(0.0912654 0.953538 0)
(0.0924088 0.98531 0)
(0.0843704 1.02545 0)
(0.0842777 1.05425 0)
(0.0736648 1.04671 0)
(0.0336735 1.01101 0)
(-0.00687218 0.951267 0)
(-0.0503496 0.95067 0)
(-0.0808197 0.931796 0)
(-0.109311 0.882726 0)
(-0.115238 0.827466 0)
(-0.106075 0.805078 0)
(-0.0843492 0.786243 0)
(-0.0593589 0.719662 0)
(-0.0408032 0.661621 0)
(-0.0400385 0.676257 0)
(-0.0566835 0.744196 0)
(-0.0915793 0.781594 0)
(-0.128043 0.765814 0)
(-0.130887 0.683996 0)
(-0.108339 0.608855 0)
(-0.0781423 0.544831 0)
(-0.0542697 0.491536 0)
(-0.0179861 0.368532 0)
(-0.0122868 0.55186 0)
(-0.0252092 0.643379 0)
(-0.0128705 0.650718 0)
(0.0297527 0.711027 0)
(0.068445 0.83233 0)
(0.0875 0.885644 0)
(0.108966 0.932514 0)
(0.124879 0.989512 0)
(0.116294 1.03238 0)
(0.109998 1.06187 0)
(0.0944377 1.06822 0)
(0.0634673 1.04641 0)
(0.0189464 0.995814 0)
(-0.0251114 0.985478 0)
(-0.0590643 0.965704 0)
(-0.0934289 0.904263 0)
(-0.103324 0.826729 0)
(-0.0874404 0.783312 0)
(-0.0584127 0.758803 0)
(-0.0360137 0.699388 0)
(-0.0230115 0.654917 0)
(-0.0325219 0.680819 0)
(-0.0549026 0.766825 0)
(-0.0860128 0.808636 0)
(-0.103891 0.766059 0)
(-0.10205 0.668933 0)
(-0.0796513 0.57613 0)
(-0.0563623 0.521832 0)
(-0.0409095 0.468659 0)
(-0.0150893 0.333748 0)
(-0.0204786 0.582788 0)
(-0.03109 0.640625 0)
(-0.0149415 0.621479 0)
(0.0248871 0.667277 0)
(0.0646912 0.801942 0)
(0.0907782 0.860682 0)
(0.115274 0.903017 0)
(0.13898 0.980537 0)
(0.14296 1.04347 0)
(0.127761 1.07285 0)
(0.111486 1.09125 0)
(0.0857316 1.08105 0)
(0.0414901 1.04223 0)
(0.00449603 1.01954 0)
(-0.0276191 0.999208 0)
(-0.0645693 0.929446 0)
(-0.0794441 0.826659 0)
(-0.0659068 0.75716 0)
(-0.0362894 0.736065 0)
(-0.018461 0.684238 0)
(-0.0128425 0.655337 0)
(-0.0276607 0.69239 0)
(-0.0514209 0.783509 0)
(-0.0720589 0.824021 0)
(-0.0767959 0.758832 0)
(-0.074725 0.660298 0)
(-0.0566316 0.549581 0)
(-0.0405613 0.504588 0)
(-0.0302766 0.45398 0)
(-0.0104888 0.306312 0)
(-0.0163685 0.614102 0)
(-0.0243576 0.633694 0)
(-0.00919838 0.594792 0)
(0.027889 0.625404 0)
(0.0690599 0.76915 0)
(0.100728 0.840012 0)
(0.117593 0.879374 0)
(0.141419 0.958135 0)
(0.149109 1.05185 0)
(0.13664 1.0906 0)
(0.118925 1.10548 0)
(0.103 1.11318 0)
(0.0648274 1.07789 0)
(0.0322942 1.05098 0)
(0.0113478 1.02735 0)
(-0.0264615 0.960498 0)
(-0.0513794 0.834796 0)
(-0.0458764 0.733745 0)
(-0.01866 0.716502 0)
(-0.00369328 0.674155 0)
(-0.00521281 0.65952 0)
(-0.0229652 0.706587 0)
(-0.0424814 0.794003 0)
(-0.0511649 0.833328 0)
(-0.0524405 0.746399 0)
(-0.051059 0.656842 0)
(-0.0399755 0.529371 0)
(-0.0310144 0.493417 0)
(-0.0225834 0.442133 0)
(-0.00193276 0.285895 0)
(-0.00940066 0.631892 0)
(-0.0110685 0.626546 0)
(0.00411609 0.572186 0)
(0.0374073 0.586862 0)
(0.0804404 0.726638 0)
(0.115413 0.818509 0)
(0.128187 0.863002 0)
(0.141862 0.939946 0)
(0.145425 1.05789 0)
(0.133555 1.10367 0)
(0.119178 1.11602 0)
(0.111972 1.13406 0)
(0.089684 1.11484 0)
(0.0576816 1.07049 0)
(0.0443041 1.05128 0)
(0.0134139 0.993098 0)
(-0.0214092 0.854959 0)
(-0.0257517 0.715742 0)
(-0.00224247 0.698143 0)
(0.00899424 0.66794 0)
(0.000107765 0.669267 0)
(-0.016893 0.720439 0)
(-0.0308183 0.795586 0)
(-0.0280763 0.832166 0)
(-0.0336197 0.741368 0)
(-0.0346464 0.654304 0)
(-0.0294912 0.518339 0)
(-0.026009 0.483953 0)
(-0.0153834 0.425796 0)
(0.00661307 0.277321 0)
(-0.00369095 0.637106 0)
(-0.0008217 0.614588 0)
(0.0172272 0.549803 0)
(0.0527482 0.549854 0)
(0.0968404 0.68195 0)
(0.133461 0.799561 0)
(0.142907 0.849942 0)
(0.145973 0.932475 0)
(0.138926 1.06297 0)
(0.124445 1.11976 0)
(0.112339 1.12022 0)
(0.111789 1.14037 0)
(0.108984 1.13891 0)
(0.0825647 1.09665 0)
(0.0669409 1.06501 0)
(0.0425781 1.02519 0)
(0.00938541 0.883103 0)
(-0.00235086 0.704844 0)
(0.0113977 0.683492 0)
(0.0162225 0.669959 0)
(0.00514353 0.680606 0)
(-0.00978571 0.730777 0)
(-0.0175638 0.793463 0)
(-0.011849 0.830254 0)
(-0.0228741 0.744986 0)
(-0.0256445 0.65241 0)
(-0.0271145 0.515154 0)
(-0.0252461 0.475419 0)
(-0.00785058 0.407528 0)
(0.0101554 0.278188 0)
(-0.00297012 0.637641 0)
(0.00128163 0.599171 0)
(0.0193206 0.522697 0)
(0.0614799 0.509596 0)
(0.111773 0.635949 0)
(0.152511 0.780454 0)
(0.155668 0.846683 0)
(0.14818 0.932887 0)
(0.136568 1.07554 0)
(0.118699 1.12882 0)
(0.105225 1.12746 0)
(0.105506 1.13329 0)
(0.114062 1.14844 0)
(0.106757 1.12068 0)
(0.0822987 1.08354 0)
(0.062543 1.04902 0)
(0.0391073 0.909729 0)
(0.0220933 0.708395 0)
(0.021845 0.678396 0)
(0.0261393 0.674703 0)
(0.0127527 0.691497 0)
(-0.00179189 0.739116 0)
(-0.0105179 0.79257 0)
(-0.00594047 0.827394 0)
(-0.0169004 0.756537 0)
(-0.0187106 0.650463 0)
(-0.026351 0.51728 0)
(-0.0243765 0.46389 0)
(-0.00144171 0.386476 0)
(0.0128017 0.286665 0)
(-0.000749733 0.635838 0)
(0.00347364 0.588359 0)
(0.0155084 0.495212 0)
(0.0605399 0.458437 0)
(0.119177 0.584011 0)
(0.164406 0.763078 0)
(0.161984 0.849872 0)
(0.142367 0.940732 0)
(0.132676 1.08491 0)
(0.117355 1.13924 0)
(0.101411 1.13728 0)
(0.0976815 1.12489 0)
(0.108178 1.143 0)
(0.113189 1.13234 0)
(0.0991164 1.11067 0)
(0.0796196 1.06587 0)
(0.0672451 0.930344 0)
(0.0453419 0.725493 0)
(0.0376682 0.678964 0)
(0.0369643 0.680582 0)
(0.0217492 0.701763 0)
(0.00449721 0.752089 0)
(-0.00962521 0.798983 0)
(-0.0102281 0.825468 0)
(-0.0178157 0.76417 0)
(-0.0156724 0.651334 0)
(-0.0210321 0.526429 0)
(-0.0128801 0.454806 0)
(0.0083214 0.371363 0)
(0.0127404 0.301598 0)
(0.0018393 0.63109 0)
(0.00984135 0.582356 0)
(0.0222577 0.474234 0)
(0.0579612 0.411859 0)
(0.112059 0.526043 0)
(0.160506 0.745651 0)
(0.158784 0.862806 0)
(0.135354 0.951804 0)
(0.123766 1.08749 0)
(0.112748 1.14599 0)
(0.0981625 1.14984 0)
(0.0886759 1.12478 0)
(0.0950003 1.13154 0)
(0.105275 1.13367 0)
(0.105654 1.12485 0)
(0.100581 1.0791 0)
(0.0953548 0.949434 0)
(0.0758512 0.748727 0)
(0.0601111 0.685841 0)
(0.0472123 0.687268 0)
(0.0278299 0.71494 0)
(0.0109275 0.764642 0)
(-0.00948812 0.811378 0)
(-0.015653 0.824478 0)
(-0.0265292 0.767302 0)
(-0.0178269 0.646396 0)
(-0.00994503 0.528573 0)
(0.00582325 0.443039 0)
(0.0174969 0.367258 0)
(0.012788 0.320622 0)
(0.00325333 0.619404 0)
(0.0210931 0.570501 0)
(0.0381398 0.453349 0)
(0.0623148 0.381234 0)
(0.103063 0.476273 0)
(0.146248 0.72514 0)
(0.152516 0.873763 0)
(0.12864 0.970074 0)
(0.111152 1.08781 0)
(0.101897 1.15565 0)
(0.0912922 1.15816 0)
(0.0818737 1.1339 0)
(0.0826857 1.12131 0)
(0.0919653 1.12875 0)
(0.107158 1.12433 0)
(0.124896 1.08258 0)
(0.12582 0.96456 0)
(0.109779 0.772863 0)
(0.0849223 0.702938 0)
(0.0541788 0.702298 0)
(0.0301939 0.724905 0)
(0.0131409 0.77715 0)
(-0.00592442 0.82027 0)
(-0.0132245 0.826154 0)
(-0.0223618 0.767021 0)
(-0.00819448 0.625918 0)
(0.00914662 0.516611 0)
(0.0260254 0.432757 0)
(0.0216415 0.375998 0)
(0.00966965 0.3399 0)
(0.00505643 0.610134 0)
(0.0334998 0.55209 0)
(0.0567607 0.436059 0)
(0.0698601 0.364351 0)
(0.0935672 0.439839 0)
(0.126881 0.700177 0)
(0.136554 0.881053 0)
(0.114975 0.988415 0)
(0.0930004 1.09711 0)
(0.0870632 1.16113 0)
(0.0821853 1.16556 0)
(0.078715 1.14054 0)
(0.0752473 1.12292 0)
(0.0842466 1.11728 0)
(0.11027 1.10832 0)
(0.143164 1.06833 0)
(0.14675 0.978583 0)
(0.132455 0.791761 0)
(0.111339 0.73247 0)
(0.0714533 0.72749 0)
(0.0395865 0.745142 0)
(0.0183696 0.791784 0)
(0.00566804 0.832899 0)
(0.0125051 0.825758 0)
(0.0110222 0.762537 0)
(0.0202558 0.599111 0)
(0.0366593 0.491594 0)
(0.047555 0.421667 0)
(0.0308193 0.377556 0)
(0.00790476 0.344899 0)
(0.0106614 0.593717 0)
(0.0490858 0.523825 0)
(0.0701223 0.42468 0)
(0.0749111 0.360466 0)
(0.0822509 0.41826 0)
(0.104439 0.680381 0)
(0.11113 0.88692 0)
(0.0946025 1.0066 0)
(0.0732133 1.10491 0)
(0.0692063 1.16387 0)
(0.0714348 1.16512 0)
(0.0766123 1.14307 0)
(0.0753069 1.1248 0)
(0.0833336 1.10405 0)
(0.111577 1.08072 0)
(0.145806 1.05285 0)
(0.151733 0.98582 0)
(0.140911 0.811093 0)
(0.119084 0.758059 0)
(0.0789699 0.75323 0)
(0.046192 0.76278 0)
(0.0243679 0.802371 0)
(0.0255047 0.822044 0)
(0.0455735 0.804467 0)
(0.0550271 0.76051 0)
(0.0601458 0.58514 0)
(0.0655152 0.480814 0)
(0.0642268 0.42778 0)
(0.0427887 0.405425 0)
(0.0168385 0.364711 0)
(0.021087 0.561318 0)
(0.0638592 0.497355 0)
(0.0752282 0.417596 0)
(0.0761186 0.365274 0)
(0.071669 0.411329 0)
(0.0817305 0.666289 0)
(0.0866063 0.893759 0)
(0.0727483 1.02315 0)
(0.0530201 1.11721 0)
(0.0496361 1.15843 0)
(0.0591181 1.15911 0)
(0.071799 1.14047 0)
(0.0762352 1.12534 0)
(0.0840613 1.09466 0)
(0.106729 1.05215 0)
(0.135563 1.03596 0)
(0.14376 0.989786 0)
(0.133909 0.827664 0)
(0.114163 0.779171 0)
(0.0817425 0.778063 0)
(0.0510748 0.787854 0)
(0.0357066 0.806915 0)
(0.0476252 0.80335 0)
(0.063724 0.782491 0)
(0.0792705 0.744181 0)
(0.0899929 0.565781 0)
(0.0890666 0.474576 0)
(0.076588 0.43231 0)
(0.0497681 0.417185 0)
(0.0234139 0.392449 0)
(0.0278983 0.511334 0)
(0.0727784 0.482294 0)
(0.0766829 0.415019 0)
(0.0758065 0.372755 0)
(0.0626149 0.416547 0)
(0.0636881 0.654062 0)
(0.0695018 0.896687 0)
(0.0570178 1.04245 0)
(0.0375414 1.12576 0)
(0.0341059 1.1528 0)
(0.0472656 1.14695 0)
(0.0620855 1.13184 0)
(0.0729987 1.1208 0)
(0.0825921 1.08622 0)
(0.100726 1.03046 0)
(0.118053 1.01654 0)
(0.127189 0.991385 0)
(0.123082 0.839716 0)
(0.111573 0.797032 0)
(0.0855445 0.80513 0)
(0.0598085 0.807589 0)
(0.0521208 0.807579 0)
(0.0620706 0.78639 0)
(0.069932 0.774266 0)
(0.0825834 0.72401 0)
(0.100243 0.545076 0)
(0.098096 0.4733 0)
(0.0831367 0.439809 0)
(0.0532855 0.430454 0)
(0.0249938 0.417306 0)
(0.0227986 0.459115 0)
(0.0721437 0.471338 0)
(0.0758089 0.409673 0)
(0.0730976 0.383052 0)
(0.0527533 0.431599 0)
(0.0487074 0.636843 0)
(0.0595337 0.900343 0)
(0.0475226 1.05675 0)
(0.0285977 1.13485 0)
(0.0273119 1.14432 0)
(0.0379666 1.13566 0)
(0.0497857 1.1225 0)
(0.0634046 1.11113 0)
(0.0757108 1.07337 0)
(0.0909949 1.01607 0)
(0.0968353 1.00596 0)
(0.105419 0.989542 0)
(0.110151 0.842964 0)
(0.108276 0.814017 0)
(0.0924949 0.828912 0)
(0.0712864 0.825507 0)
(0.066003 0.804378 0)
(0.0655244 0.778772 0)
(0.066584 0.770735 0)
(0.0791657 0.698841 0)
(0.0996246 0.530016 0)
(0.0984144 0.478751 0)
(0.0839246 0.455173 0)
(0.0534575 0.453715 0)
(0.0240961 0.448618 0)
(0.0161241 0.41558 0)
(0.062217 0.455525 0)
(0.067759 0.399211 0)
(0.0654104 0.396753 0)
(0.0393116 0.448854 0)
(0.0359338 0.621011 0)
(0.0494891 0.901481 0)
(0.0400007 1.07218 0)
(0.0254229 1.13504 0)
(0.0256181 1.14001 0)
(0.0317791 1.1259 0)
(0.0400163 1.11239 0)
(0.0534653 1.09987 0)
(0.0713127 1.05939 0)
(0.0814782 1.01166 0)
(0.08024 1.00062 0)
(0.0882939 0.985916 0)
(0.10061 0.843475 0)
(0.10282 0.822486 0)
(0.094139 0.849482 0)
(0.0781922 0.837009 0)
(0.0715167 0.806077 0)
(0.0632361 0.776713 0)
(0.0582601 0.768717 0)
(0.0742887 0.669848 0)
(0.0943041 0.516986 0)
(0.0952384 0.484185 0)
(0.0824424 0.473276 0)
(0.0512429 0.482236 0)
(0.0225994 0.481251 0)
(0.0120355 0.379459 0)
(0.0460768 0.439595 0)
(0.0525475 0.389371 0)
(0.0492869 0.414699 0)
(0.0240311 0.466158 0)
(0.0206195 0.602536 0)
(0.0329795 0.899541 0)
(0.0306768 1.07802 0)
(0.0238763 1.13403 0)
(0.0259893 1.13567 0)
(0.0286611 1.12219 0)
(0.0335793 1.10544 0)
(0.0470383 1.0844 0)
(0.0674647 1.0461 0)
(0.0738898 1.01053 0)
(0.0697137 1.00335 0)
(0.0778824 0.978228 0)
(0.0925982 0.837299 0)
(0.092133 0.829065 0)
(0.0870326 0.861652 0)
(0.0731454 0.844794 0)
(0.0674333 0.807537 0)
(0.0574144 0.780184 0)
(0.0503491 0.764739 0)
(0.0684396 0.63606 0)
(0.088094 0.504639 0)
(0.0922623 0.485173 0)
(0.0805023 0.490128 0)
(0.0483246 0.511024 0)
(0.0209677 0.50968 0)
(0.005875 0.35674 0)
(0.0284179 0.425622 0)
(0.0320246 0.382349 0)
(0.0264759 0.429081 0)
(0.0086498 0.479124 0)
(0.00257778 0.591614 0)
(0.014077 0.889981 0)
(0.0212553 1.07983 0)
(0.0230526 1.12515 0)
(0.0271267 1.13272 0)
(0.0284197 1.12226 0)
(0.0313512 1.09902 0)
(0.0449767 1.07151 0)
(0.0651737 1.03504 0)
(0.0690587 1.01519 0)
(0.0651848 1.00581 0)
(0.0725476 0.97107 0)
(0.0834748 0.836981 0)
(0.0796359 0.834277 0)
(0.0746485 0.876011 0)
(0.0616841 0.849557 0)
(0.0576694 0.811031 0)
(0.0503719 0.783384 0)
(0.0431638 0.759224 0)
(0.0616854 0.603396 0)
(0.0842961 0.492018 0)
(0.0919246 0.485337 0)
(0.0787629 0.506633 0)
(0.0452544 0.543802 0)
(0.0194997 0.537284 0)
(0.00100471 0.344968 0)
(0.0177803 0.417909 0)
(0.0126381 0.385586 0)
(0.00341586 0.438597 0)
(-0.00882958 0.493795 0)
(-0.0161959 0.584695 0)
(-0.00495526 0.87403 0)
(0.0164318 1.07034 0)
(0.0251908 1.11465 0)
(0.0319119 1.12707 0)
(0.0313089 1.12273 0)
(0.0343611 1.09586 0)
(0.0485636 1.05475 0)
(0.0659738 1.02897 0)
(0.0689829 1.01864 0)
(0.063732 1.01209 0)
(0.0684112 0.966293 0)
(0.0732237 0.839768 0)
(0.0644229 0.840375 0)
(0.0571582 0.886573 0)
(0.0467105 0.852243 0)
(0.0429427 0.809815 0)
(0.0390606 0.785287 0)
(0.035047 0.752019 0)
(0.0593737 0.569465 0)
(0.089638 0.475095 0)
(0.0952665 0.491456 0)
(0.0782707 0.529135 0)
(0.0435469 0.575845 0)
(0.0191602 0.5619 0)
(-0.00269022 0.336962 0)
(0.0117129 0.415701 0)
(-0.000836622 0.397969 0)
(-0.0124242 0.449146 0)
(-0.0245723 0.505976 0)
(-0.0323092 0.582427 0)
(-0.0192607 0.846356 0)
(0.0140403 1.05421 0)
(0.0314545 1.10201 0)
(0.0388736 1.12065 0)
(0.0400245 1.1279 0)
(0.0416293 1.08795 0)
(0.0575434 1.04269 0)
(0.0699546 1.02236 0)
(0.0693243 1.02559 0)
(0.0647284 1.01443 0)
(0.0648333 0.96729 0)
(0.0634523 0.846919 0)
(0.0499211 0.847599 0)
(0.0416146 0.896585 0)
(0.0326394 0.85109 0)
(0.0279095 0.809354 0)
(0.0227903 0.785272 0)
(0.0302966 0.734688 0)
(0.0666138 0.532755 0)
(0.0918392 0.46258 0)
(0.093735 0.500455 0)
(0.077235 0.550719 0)
(0.0436756 0.609608 0)
(0.019459 0.587818 0)
(-0.00480278 0.332046 0)
(0.00796762 0.413187 0)
(-0.00101258 0.411374 0)
(-0.0196276 0.461144 0)
(-0.0365268 0.521485 0)
(-0.0434176 0.578399 0)
(-0.0279443 0.818016 0)
(0.0135526 1.02297 0)
(0.0386449 1.08944 0)
(0.0479897 1.11263 0)
(0.0506541 1.12976 0)
(0.0559519 1.08231 0)
(0.0704863 1.03096 0)
(0.0750635 1.02518 0)
(0.0694893 1.02995 0)
(0.0656765 1.0178 0)
(0.0631503 0.971781 0)
(0.0554589 0.85938 0)
(0.0384044 0.856087 0)
(0.0305269 0.907499 0)
(0.0203073 0.853751 0)
(0.0125231 0.811021 0)
(0.0112023 0.780426 0)
(0.0374169 0.705734 0)
(0.078546 0.498703 0)
(0.0971683 0.459786 0)
(0.0921606 0.51219 0)
(0.0736016 0.572212 0)
(0.0430688 0.636841 0)
(0.0215672 0.615425 0)
(-0.0100831 0.330946 0)
(0.00324703 0.40537 0)
(-0.000927136 0.428284 0)
(-0.0255752 0.482008 0)
(-0.0493227 0.535604 0)
(-0.0520121 0.574679 0)
(-0.0319374 0.784744 0)
(0.0130268 0.987684 0)
(0.0457904 1.0735 0)
(0.0558108 1.10528 0)
(0.0608201 1.12921 0)
(0.071087 1.06835 0)
(0.0811328 1.02778 0)
(0.0787267 1.02775 0)
(0.0698881 1.03873 0)
(0.066289 1.01621 0)
(0.0618921 0.981132 0)
(0.0506212 0.876425 0)
(0.0297749 0.86532 0)
(0.0212299 0.916866 0)
(0.00920593 0.86077 0)
(0.000323308 0.811897 0)
(0.00993896 0.763544 0)
(0.0543958 0.66564 0)
(0.092683 0.474798 0)
(0.100933 0.464983 0)
(0.0872327 0.525937 0)
(0.06877 0.589913 0)
(0.03899 0.660088 0)
(0.0222918 0.641681 0)
(-0.0144938 0.337772 0)
(-0.00391708 0.39161 0)
(-0.00311709 0.442403 0)
(-0.0287986 0.508614 0)
(-0.0574928 0.550032 0)
(-0.0596043 0.567856 0)
(-0.0390123 0.748309 0)
(0.0107761 0.946091 0)
(0.0486484 1.05262 0)
(0.0599551 1.09831 0)
(0.0686941 1.12006 0)
(0.0837504 1.06012 0)
(0.087444 1.02827 0)
(0.080689 1.03688 0)
(0.0713189 1.04254 0)
(0.0666635 1.01996 0)
(0.0616459 0.985989 0)
(0.0463287 0.898379 0)
(0.0231884 0.876955 0)
(0.0111058 0.924166 0)
(8.03468e-05 0.871995 0)
(-0.00681902 0.806714 0)
(0.0196044 0.732704 0)
(0.0732953 0.621438 0)
(0.103415 0.461483 0)
(0.0982221 0.477112 0)
(0.0795022 0.539887 0)
(0.0597222 0.607688 0)
(0.0306017 0.676538 0)
(0.0213998 0.664417 0)
(-0.0139371 0.350214 0)
(-0.0064507 0.380263 0)
(-0.0104907 0.452814 0)
(-0.0344327 0.536842 0)
(-0.0607424 0.562501 0)
(-0.0653406 0.565744 0)
(-0.0477374 0.707502 0)
(0.004503 0.904741 0)
(0.0468207 1.02833 0)
(0.0587861 1.08704 0)
(0.0716024 1.10744 0)
(0.0869971 1.04816 0)
(0.0909003 1.03691 0)
(0.081045 1.04391 0)
(0.0717464 1.05201 0)
(0.0659139 1.0226 0)
(0.059723 0.99375 0)
(0.041295 0.923028 0)
(0.0151947 0.891853 0)
(0.00139588 0.929409 0)
(-0.00498107 0.883531 0)
(-0.00397759 0.791433 0)
(0.0359031 0.687652 0)
(0.0856682 0.584021 0)
(0.104713 0.461491 0)
(0.0900064 0.492793 0)
(0.0677552 0.555402 0)
(0.0478955 0.621961 0)
(0.0213503 0.689966 0)
(0.0183068 0.680122 0)
(-0.00667151 0.358322 0)
(-0.000619648 0.380109 0)
(-0.0177065 0.467062 0)
(-0.0402086 0.558523 0)
(-0.0607826 0.575397 0)
(-0.066539 0.565246 0)
(-0.0531098 0.669724 0)
(-0.00389929 0.856927 0)
(0.0428161 0.999893 0)
(0.058111 1.07655 0)
(0.0708466 1.0869 0)
(0.0836044 1.03941 0)
(0.0896679 1.04092 0)
(0.0797611 1.05653 0)
(0.0688061 1.0582 0)
(0.0607331 1.03344 0)
(0.0529721 0.998361 0)
(0.0312028 0.952439 0)
(0.00572533 0.90778 0)
(-0.00591792 0.930139 0)
(-0.00312175 0.886901 0)
(0.00824289 0.764826 0)
(0.0467803 0.646793 0)
(0.0858071 0.555058 0)
(0.0956399 0.468398 0)
(0.0775292 0.51044 0)
(0.0524689 0.570819 0)
(0.0354584 0.632745 0)
(0.0125618 0.699555 0)
(0.0157772 0.688957 0)
(0.00210979 0.357041 0)
(0.00639275 0.391268 0)
(-0.0207757 0.489066 0)
(-0.046261 0.57476 0)
(-0.0583047 0.584443 0)
(-0.0624355 0.566322 0)
(-0.0491524 0.637004 0)
(-0.00876198 0.810313 0)
(0.0389686 0.966964 0)
(0.0588093 1.06336 0)
(0.0707652 1.07411 0)
(0.0806465 1.02749 0)
(0.085453 1.04755 0)
(0.0776458 1.0655 0)
(0.0623179 1.07351 0)
(0.051269 1.04197 0)
(0.0408459 1.01087 0)
(0.0191574 0.977506 0)
(-0.00182488 0.922432 0)
(-0.00936531 0.921067 0)
(0.00291398 0.880625 0)
(0.0190811 0.737568 0)
(0.0460126 0.618438 0)
(0.0750325 0.534796 0)
(0.0792948 0.477705 0)
(0.059987 0.52909 0)
(0.0375767 0.584401 0)
(0.023253 0.638708 0)
(0.00463909 0.707738 0)
(0.0132483 0.693801 0)
(0.00426809 0.348656 0)
(0.00647786 0.410304 0)
(-0.0288216 0.514958 0)
(-0.0504876 0.585084 0)
(-0.0554893 0.590188 0)
(-0.055455 0.564136 0)
(-0.0393193 0.60988 0)