/*--------------------------------*- C++ -*----------------------------------*\
| =========                 |                                                 |
| \\      /  F ield         | OpenFOAM: The Open Source CFD Toolbox           |
|  \\    /   O peration     | Version:  2.3.0                                 |
|   \\  /    A nd           | Web:      www.OpenFOAM.org                      |
|    \\/     M anipulation  |                                                 |
\*---------------------------------------------------------------------------*/
FoamFile
{
    version     2.0;
    format      ascii;
    class       volScalarField;
    location    "4";
    object      rho;
}
// * * * * * * * * * * * * * * * * * * * * * * * * * * * * * * * * * * * * * //

dimensions      [1 -3 0 0 0 0 0];

internalField   nonuniform List<scalar> 
1875
(
861.049
853.976
841.075
822.957
802.34
790.589
766.775
735.304
743.424
760.346
742.643
718.127
725.74
744.584
756.886
737.836
726.905
753.061
782.577
794.499
808.544
825.143
841.056
852.363
858.66
942.175
940.788
928.588
896.25
847.407
773.37
711.306
711.868
716.681
771.456
833.782
861.62
862.518
835.828
767.928
716.145
714.225
714.176
736.079
813.043
867.569
905.158
928.484
938.602
940.165
933.592
885.769
833.624
740.317
711.866
711.211
711.866
711.306
733.289
803.69
856.946
863.4
863.93
853.659
793.833
731.43
714.176
714.138
714.117
714.047
714.055
782.247
844.878
883.899
925.424
893.781
795.365
720.251
711.866
711.128
711.866
715.217
747.218
789.998
843.713
863.4
864.658
863.4
863.798
831.694
782.948
747.31
731.827
714.069
714.055
713.989
714.055
731.299
799.474
884.432
863.665
779.451
727.865
712.408
711.949
719.575
753.076
805.138
842.002
860.898
864.456
863.399
865.556
863.399
863.693
842.153
812.137
785.305
755.885
735.17
714.191
714.069
730.239
785.112
851.37
861.21
798.14
743.721
721.254
717.818
744.932
792.113
836.747
860.373
863.691
863.399
866.047
863.399
866.481
863.399
864.252
855.071
831.7
802.918
768.23
724.507
718.877
742.494
797.839
839.983
870.202
840.29
790.687
752.592
739.691
755.857
812.174
846.334
859.342
862.785
864.925
863.399
866.868
863.399
866.04
863.399
856.351
825.752
796.328
757.749
729.82
745.943
785.364
829.663
839.945
872.889
852.269
810.97
756.147
760.484
771.159
806.827
840.034
849.212
847.484
839.727
822.165
824.91
851.878
863.398
865.78
863.398
833.383
783.905
752.968
748.226
797.977
835.123
850.088
850.277
872.889
777.47
708.01
717.941
711.69
757.567
792.652
826.562
836.917
823.004
783.268
778.839
778.786
787.538
856.623
863.398
867.147
863.398
801.973
760.279
754.199
772.48
792.019
826.132
854.126
871.878
712.11
717.41
708.366
717.94
733.794
771.922
806.335
828.408
825.576
804.885
791.166
791.594
792.377
794.467
830.408
863.398
870.175
863.398
808.418
755.139
735.971
733.014
761.081
854.125
866.916
717.41
708.366
717.41
710.898
728.971
785.897
821.94
844.833
857.793
858.92
852.479
843.328
827.592
807.763
768.665
785.059
850.993
866.606
860.503
799.714
735.727
735.971
735.154
851.782
883.53
733.238
717.41
715.266
737.439
780.599
835.207
862.316
865.15
869.1
865.15
870.825
865.15
847.832
771.872
775.469
768.743
801.061
863.397
865.019
818.402
744.995
737.713
740.323
846.101
901.869
786.187
721.008
734.648
793.756
840.622
865.284
865.15
871.425
865.15
877.999
865.15
873.763
790.088
775.469
769.169
775.469
799.916
862.221
856.989
794.435
748.469
746.334
763.479
859.396
901.869
889.516
786.871
747.217
787.052
841.684
863.538
867.976
865.149
875.673
865.149
875.97
839.313
775.494
771.059
775.469
773.146
822.567
850.302
814.668
756.497
739.672
748.959
827.476
865.015
901.869
901.869
882.666
808.008
796.836
813.548
844.825
853.447
839.94
864.909
872.781
865.149
832.741
779.329
775.494
781.338
802.864
837.93
827.422
768.298
736.114
736.134
776.523
865.019
865.015
889.989
878.399
862.397
862.321
834.03
814.034
827.92
820.708
788.302
834.611
865.149
868.543
847.824
811.79
798.434
811.269
835.628
848.235
810.273
752.115
735.736
755.054
826.951
865.019
865.019
844.579
764.918
755.732
823.163
824.156
814.394
819.478
799.009
789.904
809.936
860.063
865.149
859.611
848.297
836.288
839.522
857.674
855.222
811.781
755.77
742.1
796.878
826.513
819.311
854.046
833.174
755.731
748.743
757.44
808.807
813.747
812.649
801.512
800.366
795.464
803.546
843.99
860.603
861.134
860.603
853.924
860.522
860.152
819.955
768.576
754.518
794.653
786.421
763.007
835.123
852.249
752.15
755.731
750.243
799.248
815.543
815.18
809.781
806.562
782.932
781.191
811.44
859.352
860.603
861.249
860.559
860.953
860.655
834.2
793.376
775.531
783.311
763.101
762.236
833.566
854.032
782.522
754.407
760.064
804.28
815.34
815.819
815.096
804.574
781.733
782.932
782.213
841.628
861.41
860.562
861.27
860.9
861.024
846.523
822.034
802.041
776.977
762.402
763.1
844.664
857.179
811.758
769.757
776.239
807.754
815.103
815.115
812.698
804.208
782.974
781.982
782.962
803.552
855.264
861.656
860.916
861.507
861.018
844.461
835.172
819.951
786.599
763.251
778.206
850.459
858.999
840.698
786.768
791.542
808.197
811.087
810.363
810.047
802.467
782.576
782.973
782.436
784.874
824.936
837.185
838.935
842.786
852.207
842.386
835.768
823.24
794.899
773.875
814.635
856.864
859.031
851.431
807.772
795.711
806.557
808.51
807.519
808.942
797.893
783.007
786.788
784.504
781.147
816.251
818.64
787.612
771.881
834.136
837.267
831.887
819.551
796.205
792.469
845.456
857.771
859.116
836.478
817.078
798.988
802.739
804.648
805.142
807.858
791.776
786.753
790.186
782.396
776.484
814.702
820.838
771.271
759.66
812.695
827.927
821.35
812.396
802.119
813.503
839.421
857.882
859.393
812.36
809.521
797.742
800.022
800.477
800.141
804.244
780.575
790.441
790.564
768.295
773.491
814.487
826.321
772.031
761.937
792.387
815.194
811.48
808.406
808.344
812.551
821.159
857.881
854.668
790.393
792.803
792.949
796.013
798.395
793.859
796.389
778.16
785.764
786.322
762.883
775.773
815.622
828.248
774.952
760.522
772.018
803.957
803.758
802.296
805.926
796.272
806.235
857.881
854.212
775.726
765.573
785.039
791.251
796.396
787.615
786.208
777.881
777.604
778.563
762.878
781.546
816.03
827.891
780.324
761.936
762.851
795.655
798.558
797.262
798.542
767.177
793.834
856.533
854.794
772.412
765.589
775.647
785.931
793.525
786.093
781.076
778.345
776.659
775.621
768.939
791.38
809.259
828.604
784.115
761.653
762.637
791.458
796.904
793.222
788.009
767.185
785.742
855.395
857.05
779.626
765.573
770.083
783.394
791.523
787.196
782.93
783.48
782.143
781.295
787.674
805.384
792.875
827.891
779.83
761.935
764.731
791.05
796.809
791.231
777.72
767.176
786.077
855.426
860.746
793.528
766.378
768.108
783.259
791.78
790.861
789.958
792.899
796.097
800.216
813.414
811.002
767.445
799.696
771.343
762.117
769.772
792.681
797.921
791.391
771.581
768.169
790.234
858.912
864.276
807.592
769.109
766.074
783.306
792.252
799.551
801.245
806.744
814.339
821.635
826.801
797.384
759.782
759.287
770.244
764.039
777.435
796.228
798.605
791.744
770.117
771.308
793.048
862.301
866.618
811.697
768.794
765.684
784.655
795.452
807.658
812.265
815.786
826.167
827.951
827.001
763.12
758.712
759.782
774.543
770.942
786.224
798.604
798.646
791.39
770.093
776.071
791.435
864.391
868.129
801.03
768.928
765.693
786.756
801.539
807.006
810.216
815.162
827.95
828.405
799.473
759.319
759.781
764.029
780.432
779.784
793.32
798.729
798.604
790.066
770.131
777.609
785.977
865.823
869.222
783.955
768.952
766.001
786.127
802.886
805.322
805.41
801.64
818.16
827.805
793.253
766.217
759.859
768.432
785.375
785.066
795.712
798.604
798.67
787.08
770.541
776.64
780.074
867.713
870.521
773.588
767.281
766.662
784.298
801.512
803.802
802.919
773.165
759.18
800.092
805.695
788.374
766.376
767.974
785.889
787.743
795.735
798.734
798.031
782.972
771.61
773.241
777.455
871.307
873.06
771.832
766.931
768.192
780.777
798.445
801.643
801.676
761.57
757.517
765.401
809.106
812.091
776.571
768.844
782.878
788.215
795.26
796.466
795.911
779.2
771.549
768.761
777.838
875.67
877.253
774.848
767.046
769.512
777.563
794.8
800.353
797.756
757.575
757.762
757.517
796.463
821.011
795.418
773.056
774.713
784.943
792.526
794.606
792.67
777.202
770.971
767.094
779.606
878.893
879.595
780.984
767.476
769.834
775.299
791.023
798.688
783.918
757.762
759.098
757.762
779.203
821.014
812.772
779.288
767.26
773.572
779.975
791.768
789.47
774.977
769.972
767.042
783.015
879.978
879.915
788.074
767.408
769.045
772.22
784.867
792.228
760.847
757.153
760.679
757.597
771.124
818.128
812.473
778.85
761.734
759.659
759.788
785.292
783.836
769.351
767.83
767.596
788.073
879.944
879.055
791.836
768.28
766.352
766.623
774.165
776.897
756.908
757.761
760.675
758.713
771.97
815.915
807.795
776.778
760.114
759.306
758.258
773.506
773.742
761.524
763.14
770.317
791.92
878.638
876.459
791.646
769.584
762.113
761.295
764.535
762.429
757.761
757.174
760.74
761.14
775.381
816.083
801.224
773.958
760.231
758.753
759.306
760.457
763.271
759.809
759.726
773.304
791.939
876.738
874.157
787.74
770.956
759.092
759.506
764.33
762.04
756.855
757.76
760.799
763.092
782.66
816.308
793.639
770.226
760.862
759.306
758.335
759.306
763.189
760.851
759.726
773.284
787.855
874.485
873.366
783.126
771.522
758.916
758.461
767.316
761.16
757.76
757.015
760.787
766.785
792.198
816.253
786.827
766.428
761.492
758.65
759.305
758.692
767.97
760.685
759.907
773.36
783.495
873.532
873.022
781.154
770.004
760.509
758.436
770.178
757.76
757.089
757.76
761.845
772.329
796.806
815.096
783.187
766.038
762.05
759.305
758.781
759.305
769.166
760.619
762.006
771.998
781.917
873.382
873.039
781.309
766.048
763.706
759.902
770.15
757.001
757.759
756.996
760.452
775.749
794.996
814.252
783.361
767.036
761.358
758.718
759.305
758.563
769.094
761.032
766.459
767.234
782.082
873.471
874.478
785.057
765.524
766.916
767.591
768.961
757.759
757.469
757.759
757.692
774.464
790.744
812.814
784.732
770.129
759.641
759.304
759.137
759.304
766.535
766.903
769.623
764.937
785.414
874.67
876.659
789.334
765.521
771.192
774.159
766.544
757.156
757.759
757.598
758.092
770.639
788.627
810.438
785.758
770.647
760.167
759.092
759.304
758.884
765.583
769.623
769.759
764.919
789.049
876.57
879.662
791.516
765.797
773.136
774.525
765.456
757.758
757.684
757.82
760.289
768.343
787.04
808.581
785.522
769.74
761.802
759.304
759.405
759.304
766.18
765.554
769.623
765.139
791.367
879.425
882.786
793.132
765.787
770.417
774.158
765.639
757.705
758.256
759.162
763.544
769.085
784.995
807.761
784.091
770.092
764.536
760.197
760.696
759.616
768.568
761.67
769.806
765.343
794.246
882.104
885.13
796.9
766.148
764.365
774.422
766.81
759.198
760.958
762.723
766.859
771.003
783.415
807.183
781.277
770.719
768.366
762.949
762.79
762.493
772.082
762.381
767.073
766.161
798.272
884.388
887.084
802.81
769.087
764.79
766.922
769.998
763.86
766.71
768.917
770.638
772.713
783.587
806.923
779.74
771.696
773.056
768.074
767.769
768.634
774.16
761.308
762.381
768.138
802.438
887.381
889.302
807.809
774.306
764.145
764.789
774.576
773.266
776.695
773.531
773.695
775.185
784.29
807.294
780.212
773.044
777.191
776.326
775.825
777.572
776.365
762.381
762.023
770.78
806.933
889.938
891.472
811.137
773.514
764.789
764.394
779.933
784.88
788.359
776.541
776.36
778.178
785.207
807.583
781.702
775.549
779.323
782.461
785.199
786.48
778.529
761.126
762.38
774.753
811.281
891.559
892.863
812.398
770.111
764.62
764.788
783.433
790.455
795.99
779.978
778.826
780.963
786.236
808.246
784.433
779.346
780.265
785.872
793.85
789.195
780.496
762.38
762.653
776.205
814.754
893.292
893.743
812.628
770.471
765.63
764.112
784.927
790.357
799.232
783.621
780.289
784.218
787.633
809.151
787.99
784.1
780.549
787.213
800.271
787.496
783.196
761.185
765.4
771.616
816.512
894.517
894.669
814.498
772.672
764.585
764.788
787.183
787.025
799.419
787.111
780.849
788.06
789.324
810.127
788.442
789.058
780.724
787.54
801.206
782.482
786.253
762.379
766.771
773.155
815.161
894.053
894.962
817.232
775.549
764.787
764.569
790.001
780.349
799.591
791.075
782.016
791.797
789.598
811.07
788.542
793.428
781.382
788.916
801.153
780.767
791.482
762.083
765.581
777.562
816.723
893.797
894.545
819.507
777.189
764.538
765.96
792.199
778.807
800.598
793.825
783.532
795.145
789.584
811.592
788.591
796.98
782.954
790.697
801.284
781.144
799.065
763.552
764.517
779.205
819.885
894.193
894.221
821.275
779.205
764.787
768.943
795.397
778.733
802.289
793.757
784.966
798.657
789.653
811.864
789.905
799.336
783.484
792.153
801.805
780.966
803.584
767.416
764.576
781.578
821.726
894.188
894.526
824.363
783.577
765.064
766.712
798.475
778.889
805.426
793.367
787.171
801.176
790.901
812.595
792.196
801.381
785.656
794.447
802.929
781.219
803.716
767.22
765.562
784.777
824.615
894.669
895.389
828.44
788.659
765.752
765.867
798.629
783.047
809.846
793.621
791.596
803.846
793.552
813.102
794.545
804.517
791.036
796.604
806.015
784.936
802.384
767.327
767.805
787.664
827.637
894.922
896.255
831.566
791.35
767.1
765.997
796.487
796.262
816.111
796.702
799.583
807.806
797.977
813.487
797.929
808.953
797.528
799.204
812.82
792.245
800.316
767.434
771.882
789.993
830.297
895.267
895.901
833.071
792.265
769.324
766.133
793.172
806.082
824.165
803.264
807.902
812.636
804.163
814.146
802.892
813.919
804.484
803.605
818.949
796.428
804.044
770.199
777.653
792.868
833.151
895.181
895.346
831.487
793.72
774.373
767.57
795.439
803.387
824.218
807.416
813.302
816.059
808.056
814.044
805.787
814.427
812.408
806.485
821.248
798.509
806.956
779.575
787.023
799.284
834.654
896.1
900.718
837.25
798.441
788.715
779.8
803.408
804.224
824.219
813.222
817.369
818.904
811.797
814.798
809.457
815.209
818.569
811.383
822.972
805.96
812.037
795.851
803.127
807.272
842.035
902.645
897.977
845.012
813.79
808.595
798.753
812.038
806.647
832.999
819.132
828.279
823.637
822.599
817.828
816.193
820.31
830.473
818.474
832.741
814.418
822.065
810.227
818.864
822.125
849.064
899.037
903.574
860.654
839.435
835.165
824.207
824.671
821.035
833.791
833.728
837.872
837.766
835.413
830.221
832.047
833.379
833.606
832.488
833.054
830.87
831.122
830.754
838.896
843.26
862.269
903.519
798.404
775.941
763.866
764.512
757.27
763.386
756.837
756.926
758.026
753.176
755.529
749.276
749.285
750.36
750.564
756.581
751.277
760.183
754.042
761.691
754.897
760.343
761.617
772.322
792.259
174.213
185.187
190.086
190.007
191.804
182.24
191.571
168.601
175.364
165.914
168.005
166.09
173.133
168.736
168.571
162.241
167.76
163.743
172.022
169.602
176.676
180.377
182.855
177.951
168.91
5.96056
6.03101
5.89432
5.61268
5.35869
4.91505
4.90771
4.44321
4.41419
4.27596
4.20753
4.13853
4.16457
4.11502
4.16067
4.09198
4.19382
4.1776
4.38187
4.45764
4.81237
5.16111
5.51077
5.65456
5.66155
1.03395
1.03712
1.04101
1.06214
1.07019
1.07306
1.07437
1.0743
1.07808
1.07226
1.07209
1.07619
1.09736
1.07812
1.0704
1.0715
1.07389
1.07069
1.07006
1.06873
1.06596
1.05849
1.03852
1.03321
1.02865
0.997987
1.00935
1.0379
1.08448
1.1226
1.13721
1.14596
1.15212
1.15463
1.15349
1.14943
1.13982
1.13727
1.13879
1.14837
1.15316
1.15365
1.15134
1.14487
1.13582
1.12158
1.08455
1.03796
1.00985
0.998213
0.999923
1.01794
1.07098
1.12086
1.14674
1.15428
1.1571
1.15802
1.15823
1.15806
1.15652
1.14921
1.14391
1.14923
1.15659
1.15806
1.1582
1.15799
1.15703
1.15403
1.14678
1.12311
1.07311
1.01897
1.00025
1.00462
1.03972
1.10435
1.13354
1.14821
1.15574
1.15825
1.15856
1.1586
1.15858
1.15832
1.15594
1.15058
1.15608
1.15835
1.15858
1.1586
1.15856
1.15825
1.1558
1.14846
1.13493
1.10611
1.04109
1.00491
1.02082
1.08214
1.12647
1.14251
1.15277
1.15802
1.15859
1.15862
1.15862
1.15861
1.15837
1.15607
1.15158
1.15639
1.15842
1.15861
1.15862
1.15862
1.15859
1.15798
1.15269
1.14283
1.12693
1.08223
1.02068
)
;

boundaryField
{
    inlet
    {
        type            calculated;
        value           nonuniform List<scalar> 
25
(
514.171
514.171
514.171
514.171
514.171
514.171
514.171
514.171
514.171
514.171
514.171
514.171
514.171
514.171
514.171
514.171
514.171
514.171
514.171
514.171
514.171
514.171
514.171
514.171
514.171
)
;
    }
    outlet
    {
        type            calculated;
        value           nonuniform List<scalar> 
25
(
1.02158
1.08327
1.12667
1.14235
1.15258
1.15862
1.15862
1.15862
1.15862
1.15862
1.15862
1.15608
1.15157
1.15639
1.15862
1.15862
1.15862
1.15862
1.15862
1.15862
1.15251
1.14265
1.12707
1.08327
1.02139
)
;
    }
    walls
    {
        type            calculated;
        value           nonuniform List<scalar> 
150
(
861.049
942.175
933.592
893.781
863.665
861.21
870.202
872.889
872.889
871.878
866.916
883.53
901.869
901.869
901.869
889.989
844.579
833.174
852.249
854.032
857.179
858.999
859.031
859.116
859.393
854.668
854.212
854.794
857.05
860.746
864.276
866.618
868.129
869.222
870.521
873.06
877.253
879.595
879.915
879.055
876.459
874.157
873.366
873.022
873.039
874.478
876.659
879.662
882.786
885.13
887.084
889.302
891.472
892.863
893.743
894.669
894.962
894.545
894.221
894.526
895.389
896.255
895.901
895.346
900.718
897.977
903.574
798.404
174.213
5.96056
1.03395
0.997987
0.999923
1.00462
1.02082
858.66
940.165
925.424
884.432
851.37
839.983
839.945
850.277
854.126
854.125
851.782
846.101
859.396
865.015
865.015
865.019
854.046
835.123
833.566
844.664
850.459
856.864
857.771
857.882
857.881
857.881
856.533
855.395
855.426
858.912
862.301
864.391
865.823
867.713
871.307
875.67
878.893
879.978
879.944
878.638
876.738
874.485
873.532
873.382
873.471
874.67
876.57
879.425
882.104
884.388
887.381
889.938
891.559
893.292
894.517
894.053
893.797
894.193
894.188
894.669
894.922
895.267
895.181
896.1
902.645
899.037
903.519
792.259
168.91
5.66155
1.02865
0.998213
1.00025
1.00491
1.02068
)
;
    }
    defaultFaces
    {
        type            empty;
    }
}


// ************************************************************************* //
