/*--------------------------------*- C++ -*----------------------------------*\
| =========                 |                                                 |
| \\      /  F ield         | OpenFOAM: The Open Source CFD Toolbox           |
|  \\    /   O peration     | Version:  2.3.0                                 |
|   \\  /    A nd           | Web:      www.OpenFOAM.org                      |
|    \\/     M anipulation  |                                                 |
\*---------------------------------------------------------------------------*/
FoamFile
{
    version     2.0;
    format      ascii;
    class       volVectorField;
    location    "4";
    object      U.waterMean;
}
// * * * * * * * * * * * * * * * * * * * * * * * * * * * * * * * * * * * * * //

dimensions      [0 1 -1 0 0 0 0];

internalField   nonuniform List<vector> 
1875
(
(0.0636621 -0.206279 0)
(0.0943825 -0.200302 0)
(0.153347 -0.184398 0)
(0.184983 -0.171311 0)
(0.202187 -0.159743 0)
(0.203639 -0.151348 0)
(0.194427 -0.144713 0)
(0.172012 -0.139266 0)
(0.142806 -0.132407 0)
(0.107969 -0.126988 0)
(0.073717 -0.120639 0)
(0.034538 -0.118261 0)
(-0.0010419 -0.123439 0)
(-0.0372309 -0.118756 0)
(-0.0759661 -0.121369 0)
(-0.110063 -0.127677 0)
(-0.144496 -0.133253 0)
(-0.173583 -0.140278 0)
(-0.195818 -0.14551 0)
(-0.204804 -0.152199 0)
(-0.203582 -0.160229 0)
(-0.185956 -0.17198 0)
(-0.154338 -0.185046 0)
(-0.0953412 -0.201281 0)
(-0.0624882 -0.206403 0)
(0.0232926 -0.197141 0)
(0.0544988 -0.11378 0)
(0.0729419 -0.032853 0)
(0.0880467 0.0335275 0)
(0.0884928 0.0857642 0)
(0.0897975 0.139495 0)
(0.0815648 0.176111 0)
(0.0710822 0.199268 0)
(0.060294 0.207631 0)
(0.0455497 0.212522 0)
(0.0317724 0.214696 0)
(0.0133987 0.213622 0)
(-0.000543679 0.214065 0)
(-0.015121 0.214308 0)
(-0.0331572 0.214703 0)
(-0.0466689 0.21166 0)
(-0.0612245 0.207353 0)
(-0.0716011 0.199852 0)
(-0.0812043 0.176091 0)
(-0.0893204 0.139775 0)
(-0.0888553 0.0865 0)
(-0.0883894 0.0334469 0)
(-0.0734636 -0.0336005 0)
(-0.0548882 -0.11611 0)
(-0.0237129 -0.198759 0)
(0.00228553 -0.280604 0)
(-0.0263217 -0.190194 0)
(-0.0562968 -0.135994 0)
(-0.0681974 -0.091228 0)
(-0.0757674 -0.0595658 0)
(-0.0652552 -0.0272989 0)
(-0.0599262 -0.00117574 0)
(-0.0439299 0.0216313 0)
(-0.0368738 0.0301641 0)
(-0.0285111 0.0295497 0)
(-0.017753 0.0385989 0)
(-0.00962333 0.0305029 0)
(-0.000112826 0.027507 0)
(0.00849376 0.0291089 0)
(0.0168697 0.0372447 0)
(0.02702 0.0285965 0)
(0.0352941 0.0284065 0)
(0.0426446 0.0197345 0)
(0.0593344 -0.00340328 0)
(0.0650607 -0.0288302 0)
(0.0752282 -0.0591237 0)
(0.0680367 -0.0900589 0)
(0.056864 -0.135849 0)
(0.0259597 -0.191526 0)
(-0.0020675 -0.282141 0)
(-0.011229 -0.195029 0)
(-0.0369316 -0.0372387 0)
(-0.0721631 -0.0198748 0)
(-0.0820161 0.00687543 0)
(-0.0903054 0.0435988 0)
(-0.0879244 0.0748295 0)
(-0.0833636 0.0977071 0)
(-0.0745222 0.1119 0)
(-0.0631654 0.121213 0)
(-0.0514715 0.127535 0)
(-0.0352558 0.123666 0)
(-0.0159766 0.123375 0)
(0.000462404 0.126841 0)
(0.0148808 0.126037 0)
(0.0340659 0.124561 0)
(0.0499774 0.127121 0)
(0.0619377 0.119781 0)
(0.0729422 0.110054 0)
(0.0821302 0.0958558 0)
(0.0866603 0.0733672 0)
(0.0890732 0.0428566 0)
(0.0808456 0.00603379 0)
(0.071821 -0.0201922 0)
(0.0354462 -0.038963 0)
(0.0115554 -0.197641 0)
(-0.0101485 -0.184035 0)
(-0.0344188 -0.0621333 0)
(-0.0628864 -0.0374102 0)
(-0.0871003 -0.02867 0)
(-0.0943428 -0.0165428 0)
(-0.0920373 -0.00571395 0)
(-0.0837457 0.00346143 0)
(-0.0726796 0.00648936 0)
(-0.0606337 0.00375676 0)
(-0.0473203 0.00184437 0)
(-0.0314526 -0.0220053 0)
(-0.0156554 -0.0221631 0)
(-0.0024554 -0.0184983 0)
(0.0125097 -0.0188117 0)
(0.0286597 -0.0212517 0)
(0.0453457 0.00149621 0)
(0.0589887 0.00246109 0)
(0.071183 0.00504786 0)
(0.0817514 0.00159077 0)
(0.0904197 -0.00742628 0)
(0.0925864 -0.0175557 0)
(0.0857462 -0.0292318 0)
(0.0614848 -0.0372844 0)
(0.0320445 -0.0639233 0)
(0.0108215 -0.187327 0)
(-0.0066312 -0.130001 0)
(-0.0138661 0.0406042 0)
(-0.0340412 0.0764243 0)
(-0.0519853 0.0601046 0)
(-0.0571285 0.0448381 0)
(-0.0585385 0.0375001 0)
(-0.0539314 0.037025 0)
(-0.0487355 0.0416648 0)
(-0.0413073 0.0448844 0)
(-0.0331839 0.0422909 0)
(-0.0235521 0.0389297 0)
(-0.0142799 0.0378831 0)
(-0.00459092 0.0459182 0)
(0.00699074 0.0357769 0)
(0.0174522 0.0363075 0)
(0.0285767 0.0387193 0)
(0.0385564 0.0421158 0)
(0.0468439 0.0396931 0)
(0.0523205 0.035438 0)
(0.0564564 0.0352258 0)
(0.0550038 0.0435375 0)
(0.0501657 0.0593532 0)
(0.0308688 0.0775958 0)
(0.0131485 0.0334946 0)
(0.00648399 -0.13415 0)
(-0.00961531 -0.131035 0)
(-0.00472595 0.0127203 0)
(-0.00878409 0.0594736 0)
(-0.0167719 0.044126 0)
(-0.0329971 0.0187328 0)
(-0.042223 0.00467082 0)
(-0.0502182 0.000794974 0)
(-0.0528028 -0.00481455 0)
(-0.0542139 -0.0121304 0)
(-0.0484402 -0.0248134 0)
(-0.0401867 -0.0433107 0)
(-0.0244215 -0.0558571 0)
(-0.00552914 -0.0547755 0)
(0.0136907 -0.0593373 0)
(0.0295651 -0.0497484 0)
(0.0394572 -0.0331007 0)
(0.0473049 -0.0193363 0)
(0.0484046 -0.00807357 0)
(0.0472662 -0.000951332 0)
(0.0400416 0.0031015 0)
(0.0314875 0.0169539 0)
(0.0161971 0.0452079 0)
(0.00875329 0.0576746 0)
(0.00614597 0.00278854 0)
(0.00877503 -0.134997 0)
(-0.00124385 -0.112084 0)
(0.00835493 0.0239285 0)
(0.0158531 0.0918198 0)
(0.0155959 0.110749 0)
(-0.000860977 0.0948036 0)
(-0.0163715 0.0699131 0)
(-0.0296812 0.0531982 0)
(-0.0344302 0.0430764 0)
(-0.0382726 0.0289085 0)
(-0.0346844 0.00168044 0)
(-0.0282207 -0.0268551 0)
(-0.0191098 -0.0521256 0)
(-0.00343085 -0.0600766 0)
(0.0110221 -0.0554876 0)
(0.0224807 -0.0343016 0)
(0.0301518 -0.0084667 0)
(0.0351917 0.0181109 0)
(0.0333728 0.0358151 0)
(0.0309495 0.0486746 0)
(0.0207513 0.0655453 0)
(0.00604399 0.0895313 0)
(-0.00906096 0.106399 0)
(-0.0119251 0.0911171 0)
(-0.0053973 0.0193555 0)
(0.000942469 -0.114458 0)
(0.000823102 -0.138377 0)
(0.0120016 -0.0239462 0)
(0.019635 0.0473302 0)
(0.0275166 0.0926326 0)
(0.0202405 0.0971131 0)
(0.00934341 0.074346 0)
(-0.00432169 0.0493941 0)
(-0.00951676 0.0240477 0)
(-0.0129679 -0.00249163 0)
(-0.0115839 -0.0370751 0)
(-0.00749704 -0.0723482 0)
(-0.000688699 -0.103725 0)
(0.00940064 -0.119064 0)
(0.0174875 -0.110716 0)
(0.0237417 -0.0858813 0)
(0.0274903 -0.051741 0)
(0.0265299 -0.0172342 0)
(0.0250755 0.00975673 0)
(0.0201015 0.0366479 0)
(0.00574174 0.0652749 0)
(-0.00839002 0.0951708 0)
(-0.0230929 0.0989417 0)
(-0.0161662 0.0515228 0)
(-0.0109584 -0.0199507 0)
(-0.00116998 -0.135887 0)
(0.00250608 -0.14714 0)
(0.0157667 -0.0295223 0)
(0.0220576 0.0495397 0)
(0.0306178 0.111783 0)
(0.0263756 0.131984 0)
(0.0209079 0.121928 0)
(0.0112632 0.0924063 0)
(0.0105284 0.063003 0)
(0.00741357 0.0387777 0)
(0.00729202 -0.005294 0)
(0.00947495 -0.0475785 0)
(0.0141922 -0.0871639 0)
(0.020843 -0.103474 0)
(0.0261718 -0.0920443 0)
(0.0274019 -0.0584769 0)
(0.0251751 -0.0145985 0)
(0.0198105 0.0222956 0)
(0.0124426 0.0501954 0)
(0.00536409 0.0872358 0)
(-0.00864738 0.124592 0)
(-0.0205012 0.14429 0)
(-0.0292011 0.124617 0)
(-0.0237107 0.0542477 0)
(-0.0171355 -0.0288851 0)
(-0.00336023 -0.148014 0)
(-0.000164843 -0.175562 0)
(0.0112606 -0.0686861 0)
(0.0179292 0.0224065 0)
(0.0247601 0.0981266 0)
(0.0194265 0.127009 0)
(0.0136207 0.112922 0)
(0.00414265 0.077212 0)
(0.00183818 0.0417446 0)
(0.00114892 0.0166567 0)
(0.00251704 -0.0305232 0)
(0.00894956 -0.0808129 0)
(0.0165579 -0.120028 0)
(0.0231081 -0.138239 0)
(0.0271005 -0.118563 0)
(0.0271515 -0.0778187 0)
(0.0245239 -0.0269329 0)
(0.0194904 0.0159779 0)
(0.0128238 0.0446884 0)
(0.00617221 0.0830394 0)
(-0.00798277 0.128441 0)
(-0.0186165 0.147843 0)
(-0.0252414 0.118633 0)
(-0.0204178 0.0331222 0)
(-0.0139373 -0.0683216 0)
(0.000127168 -0.179382 0)
(0.000160388 -0.174317 0)
(0.00509809 -0.0777021 0)
(0.0150474 0.0279141 0)
(0.0218649 0.12077 0)
(0.0177643 0.157581 0)
(0.0122202 0.155607 0)
(0.000851237 0.113443 0)
(-0.00679395 0.0647782 0)
(-0.00657889 0.0273603 0)
(-0.00284594 -0.0354089 0)
(0.00550425 -0.0892482 0)
(0.0126135 -0.125605 0)
(0.0172999 -0.13577 0)
(0.0201627 -0.107169 0)
(0.0168695 -0.0580264 0)
(0.0126717 0.00154911 0)
(0.00826824 0.0408046 0)
(0.00211368 0.0740812 0)
(-0.00841757 0.125853 0)
(-0.0211852 0.175535 0)
(-0.0272879 0.180441 0)
(-0.0293457 0.139968 0)
(-0.019105 0.039591 0)
(-0.00813714 -0.0789647 0)
(-0.000154107 -0.180875 0)
(0.00208405 -0.184949 0)
(0.00161384 -0.101473 0)
(0.00529256 0.00385889 0)
(0.0117591 0.112593 0)
(0.011525 0.158285 0)
(0.00833153 0.158781 0)
(0.00490369 0.119561 0)
(0.000770275 0.0620343 0)
(-0.00116344 0.004407 0)
(-0.00380072 -0.0560516 0)
(-0.00373147 -0.111564 0)
(-0.00467565 -0.143357 0)
(-0.00419404 -0.148947 0)
(-0.00130977 -0.104095 0)
(-0.00942245 -0.0521401 0)
(-0.00741056 0.0031674 0)
(-0.0122515 0.0444308 0)
(-0.0179234 0.0869926 0)
(-0.0247939 0.135383 0)
(-0.0282576 0.175695 0)
(-0.0283956 0.171737 0)
(-0.0247873 0.117407 0)
(-0.0136781 0.000175402 0)
(-0.00595785 -0.112195 0)
(-0.00171817 -0.195725 0)
(0.00467739 -0.193929 0)
(0.00845772 -0.0969155 0)
(0.00486378 0.00695279 0)
(0.00610525 0.114144 0)
(0.00932759 0.167592 0)
(0.0073127 0.171435 0)
(0.00512202 0.131704 0)
(0.000606328 0.077263 0)
(-0.00442966 0.0227257 0)
(-0.0081454 -0.0352997 0)
(-0.0108897 -0.0911381 0)
(-0.015358 -0.126791 0)
(-0.0172104 -0.132719 0)
(-0.0148795 -0.0882595 0)
(-0.0184775 -0.0400898 0)
(-0.0149769 0.0177008 0)
(-0.0167752 0.0636515 0)
(-0.0188601 0.106966 0)
(-0.0218224 0.150339 0)
(-0.0219611 0.183405 0)
(-0.0193606 0.175168 0)
(-0.0133037 0.112329 0)
(-0.00880232 -0.00340396 0)
(-0.00898572 -0.113245 0)
(-0.00374717 -0.204377 0)
(0.00464384 -0.213845 0)
(0.0100191 -0.105421 0)
(0.00692367 0.0117774 0)
(0.00341776 0.111777 0)
(0.00154129 0.163751 0)
(0.000636696 0.169838 0)
(-0.000486798 0.134214 0)
(-0.00399664 0.0802538 0)
(-0.00871749 0.0225935 0)
(-0.0106519 -0.0424766 0)
(-0.0131527 -0.095565 0)
(-0.0199826 -0.129005 0)
(-0.0204185 -0.146201 0)
(-0.0179506 -0.0988652 0)
(-0.0191753 -0.0493377 0)
(-0.0132695 0.00187201 0)
(-0.00997712 0.0520461 0)
(-0.00762956 0.0985464 0)
(-0.0064122 0.142393 0)
(-0.00453387 0.173341 0)
(-0.000750258 0.162485 0)
(0.000517558 0.104488 0)
(-0.000950188 -0.00367036 0)
(-0.00634514 -0.119109 0)
(-0.0032933 -0.221257 0)
(0.00510547 -0.227574 0)
(0.00827179 -0.107256 0)
(0.002669 0.0244428 0)
(-0.000140607 0.130402 0)
(-0.00411792 0.179549 0)
(-0.00465998 0.181129 0)
(-0.00470842 0.14661 0)
(-0.00271868 0.0936984 0)
(0.00182316 0.0388443 0)
(0.00252199 -0.0242678 0)
(-0.00551579 -0.0673928 0)
(-0.0151513 -0.114614 0)
(-0.0165847 -0.139508 0)
(-0.0151057 -0.0998737 0)
(-0.0146509 -0.0474263 0)
(-0.0114983 -0.00756186 0)
(-0.006235 0.0472814 0)
(0.00300284 0.0946836 0)
(0.00935452 0.143221 0)
(0.012877 0.172171 0)
(0.0157206 0.169036 0)
(0.0123719 0.120451 0)
(0.00739421 0.0175893 0)
(-0.00369939 -0.109341 0)
(-0.00232185 -0.227691 0)
(0.00318719 -0.241034 0)
(0.00444451 -0.103781 0)
(-0.00609524 0.0386841 0)
(-0.00891697 0.140152 0)
(-0.0110429 0.180947 0)
(-0.00988532 0.17717 0)
(-0.00506598 0.138729 0)
(0.000417124 0.0729556 0)
(0.00861347 0.019347 0)
(0.00849605 -0.0169472 0)
(0.00140622 -0.0485822 0)
(-0.00578383 -0.0999083 0)
(-0.00739796 -0.142445 0)
(-0.00785659 -0.106362 0)
(-0.0090568 -0.0518211 0)
(-0.00858796 -0.0135349 0)
(-0.00640164 0.0229834 0)
(0.00463929 0.0649254 0)
(0.0148323 0.123969 0)
(0.0207019 0.162719 0)
(0.0222065 0.169918 0)
(0.0182967 0.134858 0)
(0.0118533 0.0407656 0)
(-0.00179153 -0.0975101 0)
(-0.00144392 -0.23306 0)
(0.00249956 -0.247832 0)
(0.00344589 -0.0936749 0)
(-0.00635948 0.0566308 0)
(-0.0100384 0.147419 0)
(-0.0114902 0.180648 0)
(-0.0103409 0.170013 0)
(-0.00275785 0.121906 0)
(0.00103858 0.0600026 0)
(0.00359414 0.0200572 0)
(3.90825e-05 -0.00868984 0)
(5.62807e-05 -0.0353684 0)
(-0.00263735 -0.0896192 0)
(-0.00226585 -0.137586 0)
(-0.00074734 -0.103119 0)
(-0.00221663 -0.048215 0)
(-0.000306195 -0.0114646 0)
(0.000782752 0.0145475 0)
(0.00450094 0.0464703 0)
(0.00986713 0.10438 0)
(0.0157245 0.158129 0)
(0.0158306 0.174765 0)
(0.0119167 0.147295 0)
(0.00631828 0.0608741 0)
(-0.00397433 -0.0865412 0)
(-0.0023465 -0.237815 0)
(0.00319039 -0.254422 0)
(0.00237417 -0.0887046 0)
(-0.00388729 0.0719109 0)
(-0.00755937 0.158062 0)
(-0.00996773 0.181828 0)
(-0.00993391 0.162746 0)
(-0.00580098 0.113664 0)
(-0.00761132 0.0593167 0)
(-0.00894983 0.0228634 0)
(-0.00673844 -0.0111454 0)
(-0.00538227 -0.0394679 0)
(-0.0015441 -0.092939 0)
(-0.0001205 -0.142202 0)
(0.00312024 -0.108737 0)
(0.00567676 -0.0532256 0)
(0.00739448 -0.0197954 0)
(0.0122318 0.0106787 0)
(0.0105807 0.0461021 0)
(0.00811335 0.100007 0)
(0.00982736 0.155041 0)
(0.00877965 0.179312 0)
(0.00381283 0.15993 0)
(0.000962207 0.0749797 0)
(-0.00525051 -0.0849888 0)
(-0.0038617 -0.246992 0)
(0.00196174 -0.25962 0)
(0.00043525 -0.0809793 0)
(-0.00399663 0.0860388 0)
(-0.00563709 0.16618 0)
(-0.00624324 0.186049 0)
(-0.0055914 0.163525 0)
(-0.00538979 0.119206 0)
(-0.0101787 0.0625638 0)
(-0.0102473 0.0191319 0)
(-0.00707894 -0.0175408 0)
(-0.00483086 -0.0468954 0)
(-0.00142439 -0.101047 0)
(0.000368408 -0.14876 0)
(0.00403099 -0.117962 0)
(0.00622345 -0.0586166 0)
(0.00848052 -0.026409 0)
(0.01122 0.00813348 0)
(0.0110566 0.0529591 0)
(0.00549115 0.110075 0)
(0.0034311 0.159863 0)
(0.00318878 0.186635 0)
(0.000630379 0.168147 0)
(0.000257421 0.0868933 0)
(-0.00326866 -0.0822535 0)
(-0.0031745 -0.256986 0)
(0.000652156 -0.259607 0)
(-0.00309201 -0.0737015 0)
(-0.00354068 0.0945562 0)
(-0.00312829 0.168106 0)
(-0.000811434 0.183416 0)
(0.00185952 0.162078 0)
(0.0029067 0.125448 0)
(-6.31459e-05 0.0701232 0)
(-0.00252909 0.0144369 0)
(-0.00114584 -0.0219617 0)
(-3.43301e-06 -0.05105 0)
(0.0014784 -0.10542 0)
(0.00163951 -0.15561 0)
(0.00197813 -0.12405 0)
(0.00327899 -0.0632274 0)
(0.00428411 -0.030563 0)
(0.00469287 0.00225447 0)
(0.001776 0.0615269 0)
(-0.00175055 0.118132 0)
(-0.00240984 0.162166 0)
(-0.000256981 0.187618 0)
(0.000602085 0.172684 0)
(0.00165589 0.0947292 0)
(0.00191388 -0.076359 0)
(-0.00137277 -0.260084 0)
(-0.00114467 -0.256043 0)
(-0.00400175 -0.0661838 0)
(-0.00437351 0.0903917 0)
(0.00385085 0.162506 0)
(0.0074295 0.178131 0)
(0.0115941 0.16114 0)
(0.0131223 0.126232 0)
(0.0147518 0.0781065 0)
(0.0128346 0.0284336 0)
(0.010281 -0.0156993 0)
(0.00845272 -0.0477073 0)
(0.00500776 -0.101799 0)
(0.00208235 -0.149848 0)
(-0.000285769 -0.119238 0)
(-0.00308182 -0.0622727 0)
(-0.00510452 -0.0247706 0)
(-0.00864078 0.0176241 0)
(-0.0120611 0.071119 0)
(-0.0114742 0.120049 0)
(-0.011301 0.162785 0)
(-0.00683137 0.183361 0)
(-0.00372259 0.168168 0)
(0.00457399 0.0924096 0)
(0.00426629 -0.0676709 0)
(0.00106968 -0.257278 0)
(-0.00304301 -0.250727 0)
(-0.00258706 -0.0600795 0)
(-0.00582988 0.0699088 0)
(0.00708606 0.148691 0)
(0.0103518 0.166269 0)
(0.0148296 0.154165 0)
(0.0182385 0.122319 0)
(0.0187712 0.0758629 0)
(0.019681 0.0311758 0)
(0.0163975 -0.00760091 0)
(0.013338 -0.0389415 0)
(0.00759112 -0.09202 0)
(0.00170239 -0.141905 0)
(-0.00348686 -0.10992 0)
(-0.00766789 -0.0541067 0)
(-0.0121185 -0.0144307 0)
(-0.0158451 0.0243073 0)
(-0.0167406 0.0731961 0)
(-0.0179434 0.119996 0)
(-0.0153799 0.156276 0)
(-0.0100266 0.170081 0)
(-0.00707449 0.153834 0)
(0.00614416 0.0717806 0)
(0.00329996 -0.061052 0)
(0.00309415 -0.251806 0)
(-0.00261729 -0.245575 0)
(-0.000128978 -0.0585942 0)
(-0.00751576 0.0570211 0)
(0.00473219 0.133956 0)
(0.00771339 0.155947 0)
(0.0133873 0.146617 0)
(0.0167486 0.11822 0)
(0.0172893 0.0761307 0)
(0.0175558 0.034823 0)
(0.0150613 0.000632535 0)
(0.0120793 -0.0294591 0)
(0.00615246 -0.0792345 0)
(0.0006967 -0.126651 0)
(-0.00412876 -0.0982784 0)
(-0.0079319 -0.043497 0)
(-0.0124799 -0.00517336 0)
(-0.0151231 0.0305699 0)
(-0.0168792 0.0773035 0)
(-0.0172708 0.118384 0)
(-0.0143408 0.147338 0)
(-0.00825005 0.160411 0)
(-0.00607967 0.139271 0)
(0.00800908 0.0551375 0)
(0.000110301 -0.0590883 0)
(0.00296031 -0.246286 0)
(-0.00287839 -0.238431 0)
(-0.00323706 -0.049476 0)
(-0.0101881 0.0635253 0)
(-0.00269806 0.125374 0)
(0.000304321 0.144014 0)
(0.00789136 0.136465 0)
(0.0122848 0.114008 0)
(0.0135354 0.0760449 0)
(0.0136771 0.0345528 0)
(0.0111216 0.00606142 0)
(0.00948224 -0.0216559 0)
(0.00436775 -0.0675621 0)
(-9.51751e-05 -0.118483 0)
(-0.00470214 -0.0895115 0)
(-0.0073723 -0.0359273 0)
(-0.0106334 0.00163679 0)
(-0.0136118 0.0352028 0)
(-0.0152235 0.0800075 0)
(-0.0139731 0.115165 0)
(-0.00994078 0.13883 0)
(-0.00207962 0.148237 0)
(0.00178437 0.127984 0)
(0.010271 0.0605111 0)
(0.00286915 -0.0500916 0)
(0.00295876 -0.238938 0)
(-0.00315779 -0.229969 0)
(-0.00391737 -0.0425451 0)
(-0.0104069 0.0643393 0)
(-0.00513667 0.115326 0)
(-0.00164971 0.131758 0)
(0.0050711 0.123384 0)
(0.0102868 0.105919 0)
(0.0126899 0.0767536 0)
(0.012134 0.0396114 0)
(0.00925718 0.0118224 0)
(0.00795042 -0.0150224 0)
(0.00354032 -0.0564726 0)
(7.46883e-05 -0.105679 0)
(-0.00457956 -0.0806293 0)
(-0.00768203 -0.0287127 0)
(-0.00998179 0.0105281 0)
(-0.0135124 0.0427303 0)
(-0.014161 0.0820336 0)
(-0.0116288 0.107076 0)
(-0.00637424 0.125093 0)
(0.00164901 0.133264 0)
(0.0051633 0.116833 0)
(0.0108311 0.0627321 0)
(0.00403958 -0.043684 0)
(0.00315646 -0.23024 0)
(-0.00272406 -0.22272 0)
(-0.00267401 -0.0362065 0)
(-0.00809222 0.0688793 0)
(-0.00467856 0.106632 0)
(-0.00102131 0.119861 0)
(0.0052236 0.111696 0)
(0.00971968 0.0976573 0)
(0.0124134 0.0753816 0)
(0.0122082 0.0437691 0)
(0.0108984 0.0169782 0)
(0.00808995 -0.00837495 0)
(0.005041 -0.0465144 0)
(0.00239547 -0.0980604 0)
(-0.00148322 -0.0720552 0)
(-0.00660838 -0.0228372 0)
(-0.00821387 0.017212 0)
(-0.0119071 0.0462646 0)
(-0.0108922 0.078919 0)
(-0.00869422 0.0982003 0)
(-0.00429724 0.110987 0)
(0.0019856 0.121294 0)
(0.00536955 0.108132 0)
(0.00920345 0.0678111 0)
(0.0029302 -0.0356523 0)
(0.00283251 -0.222514 0)
(-0.00264453 -0.215586 0)
(-0.00253835 -0.0313644 0)
(-0.00602662 0.071459 0)
(-0.00346827 0.100997 0)
(-0.000422354 0.110417 0)
(0.00464859 0.100996 0)
(0.009297 0.0917752 0)
(0.0120306 0.0733826 0)
(0.0127063 0.0465421 0)
(0.0121463 0.0221884 0)
(0.0089164 -0.000639172 0)
(0.00684292 -0.040465 0)
(0.00528212 -0.0877758 0)
(0.00148088 -0.0624234 0)
(-0.00447087 -0.0138601 0)
(-0.00705479 0.0240058 0)
(-0.00982757 0.0497764 0)
(-0.00903107 0.0767421 0)
(-0.00695175 0.0927984 0)
(-0.00352062 0.102918 0)
(0.00106196 0.112113 0)
(0.00436821 0.101552 0)
(0.00631097 0.0715991 0)
(0.00258624 -0.0309491 0)
(0.00251893 -0.215436 0)
(-0.00244859 -0.208698 0)
(-0.00265488 -0.0277426 0)
(-0.00554129 0.0742825 0)
(-0.00385221 0.0955141 0)
(-0.000677354 0.103804 0)
(0.00256001 0.0908907 0)
(0.0069976 0.083668 0)
(0.0101744 0.068968 0)
(0.0112435 0.0470002 0)
(0.011452 0.0262365 0)
(0.0083529 0.00555436 0)
(0.00787597 -0.0368345 0)
(0.00647874 -0.0819847 0)
(0.00301402 -0.0514287 0)
(-0.00447466 -0.00324369 0)
(-0.00689036 0.0307692 0)
(-0.00913049 0.0526486 0)
(-0.00771586 0.0747741 0)
(-0.00614027 0.087296 0)
(-0.00213546 0.09477 0)
(0.00100671 0.105587 0)
(0.00388679 0.0971389 0)
(0.00492038 0.0749301 0)
(0.00259371 -0.0276909 0)
(0.00230101 -0.20882 0)
(-0.00226379 -0.201848 0)
(-0.00301293 -0.0239172 0)
(-0.00478221 0.0778946 0)
(-0.00468092 0.0912253 0)
(-0.00169359 0.0979254 0)
(0.000730686 0.0848952 0)
(0.0041756 0.076187 0)
(0.00684375 0.0644324 0)
(0.00802772 0.0457501 0)
(0.00864667 0.0288915 0)
(0.00689576 0.0101536 0)
(0.00790238 -0.037059 0)
(0.0061038 -0.0730436 0)
(0.00227558 -0.0386331 0)
(-0.00504665 0.00917339 0)
(-0.00684401 0.0354547 0)
(-0.00744766 0.0537561 0)
(-0.00599996 0.0713455 0)
(-0.00415752 0.0820834 0)
(-0.000991563 0.0879647 0)
(0.000838508 0.101017 0)
(0.00353895 0.0938884 0)
(0.00380598 0.0774572 0)
(0.00276742 -0.024317 0)
(0.00214277 -0.202323 0)
(-0.00209925 -0.195375 0)
(-0.00280862 -0.0213955 0)
(-0.00369839 0.0802336 0)
(-0.00397123 0.0900766 0)
(-0.00237494 0.0937321 0)
(-0.000844101 0.0783215 0)
(0.00200689 0.0722698 0)
(0.00283704 0.0612404 0)
(0.00435164 0.0440721 0)
(0.00400926 0.0304916 0)
(0.00569878 0.0102083 0)
(0.00720733 -0.0355757 0)
(0.00467862 -0.0672986 0)
(0.000899647 -0.0252235 0)
(-0.00519676 0.0179738 0)
(-0.00554636 0.0369946 0)
(-0.00530791 0.0526981 0)
(-0.00380021 0.0683683 0)
(-0.00310312 0.07812 0)
(-0.000558839 0.08464 0)
(0.000129079 0.0978136 0)
(0.00268122 0.0914366 0)
(0.00285365 0.0786441 0)
(0.00282596 -0.0231232 0)
(0.0019369 -0.196218 0)
(-0.00186439 -0.189402 0)
(-0.00261438 -0.0205279 0)
(-0.00258021 0.0821165 0)
(-0.00269431 0.0891893 0)
(-0.00142649 0.0936034 0)
(-0.00171257 0.075394 0)
(-0.000324159 0.0698612 0)
(-0.000186954 0.0596106 0)
(5.8473e-05 0.0432724 0)
(0.000212236 0.028085 0)
(0.00430599 0.00331428 0)
(0.00416782 -0.0341749 0)
(0.0014443 -0.0584439 0)
(-0.00210327 -0.0128935 0)
(-0.00582038 0.0238692 0)
(-0.0041705 0.0373075 0)
(-0.00451795 0.0510589 0)
(-0.00338896 0.0675996 0)
(-0.00331813 0.0766135 0)
(-0.000959365 0.0816728 0)
(-0.000329545 0.0961416 0)
(0.00166703 0.0893186 0)
(0.00232465 0.0785029 0)
(0.00286288 -0.0216824 0)
(0.00191122 -0.190081 0)
(-0.0017348 -0.183442 0)
(-0.00290592 -0.0197596 0)
(-0.00131881 0.0826377 0)
(-0.00164343 0.0882941 0)
(0.000132535 0.0940012 0)
(-0.000252885 0.0765956 0)
(0.000733058 0.0707539 0)
(-4.51519e-05 0.0603446 0)
(-0.000413058 0.0439867 0)
(-0.000363698 0.022394 0)
(0.00201706 0.000572724 0)
(0.000106474 -0.0292149 0)
(-0.00215974 -0.0521045 0)
(-0.00470562 -0.00435392 0)
(-0.00654354 0.0236366 0)
(-0.00451174 0.0354813 0)
(-0.00558878 0.0525354 0)
(-0.00449293 0.0664722 0)
(-0.00446082 0.0752818 0)
(-0.00203631 0.0787449 0)
(-0.00149935 0.0946299 0)
(0.000737969 0.0870329 0)
(0.00163839 0.0773708 0)
(0.00306252 -0.0207815 0)
(0.00195275 -0.183955 0)
(-0.00181676 -0.177672 0)
(-0.00307843 -0.0202192 0)
(-0.000561373 0.0805364 0)
(0.000312319 0.0880602 0)
(0.0018305 0.0933333 0)
(0.00195383 0.0752427 0)
(0.00397423 0.0720993 0)
(0.00308417 0.0625782 0)
(0.00316858 0.0463719 0)
(0.00101246 0.0229446 0)
(0.000801229 0.00176826 0)
(-0.00198306 -0.0232608 0)
(-0.00389239 -0.045349 0)
(-0.00584203 7.08193e-05 0)
(-0.0068685 0.0241654 0)
(-0.00623898 0.0364841 0)
(-0.00739159 0.0530127 0)
(-0.00641592 0.0658721 0)
(-0.00633902 0.0739319 0)
(-0.00362582 0.075886 0)
(-0.00305966 0.092421 0)
(-0.000612285 0.0838827 0)
(0.000851646 0.0745663 0)
(0.00322391 -0.0213056 0)
(0.0019215 -0.177667 0)
(-0.0018372 -0.171376 0)
(-0.00328698 -0.0209381 0)
(-0.000226323 0.0759339 0)
(0.00215486 0.0845212 0)
(0.00435098 0.093129 0)
(0.00429594 0.0727734 0)
(0.00712625 0.0711026 0)
(0.00687472 0.0636524 0)
(0.00730187 0.051042 0)
(0.00513446 0.0306654 0)
(0.00159752 0.00696142 0)
(-0.00260459 -0.0167042 0)
(-0.00477663 -0.0422943 0)
(-0.00660054 0.00546346 0)
(-0.0080243 0.0252654 0)
(-0.00787167 0.0392236 0)
(-0.00967341 0.0547346 0)
(-0.00845031 0.0656805 0)
(-0.00794279 0.0717899 0)
(-0.00503852 0.0723549 0)
(-0.0045031 0.0905553 0)
(-0.0018729 0.079707 0)
(0.000491339 0.0698906 0)
(0.00346084 -0.0214278 0)
(0.00202572 -0.171209 0)
(-0.00204913 -0.165102 0)
(-0.00358191 -0.0214731 0)
(-0.000211906 0.0693743 0)
(0.00265085 0.079469 0)
(0.00504889 0.0912111 0)
(0.00572526 0.0704577 0)
(0.0087168 0.0691971 0)
(0.00876645 0.0633923 0)
(0.0098261 0.053558 0)
(0.00769427 0.0376934 0)
(0.0051289 0.0199242 0)
(-0.00185562 -0.00732085 0)
(-0.00483051 -0.0362657 0)
(-0.00694503 0.00986785 0)
(-0.00844714 0.0279595 0)
(-0.00945349 0.0424585 0)
(-0.0108818 0.056765 0)
(-0.00911475 0.063322 0)
(-0.00841685 0.0689232 0)
(-0.00559005 0.0693179 0)
(-0.00454447 0.0878293 0)
(-0.0022794 0.0747232 0)
(0.00083855 0.0630748 0)
(0.00337612 -0.0216795 0)
(0.00216755 -0.164598 0)
(-0.00220827 -0.158217 0)
(-0.00344582 -0.0212059 0)
(-0.00101198 0.0620673 0)
(0.00275247 0.0753768 0)
(0.00417289 0.088385 0)
(0.00563895 0.0651831 0)
(0.00870995 0.0672362 0)
(0.0085921 0.0619861 0)
(0.0104644 0.0557001 0)
(0.00812923 0.043415 0)
(0.00734062 0.028875 0)
(0.000416802 0.00684544 0)
(-0.00317596 -0.0316477 0)
(-0.00583954 0.0144851 0)
(-0.00685307 0.0325643 0)
(-0.00862398 0.0459658 0)
(-0.00920218 0.0562603 0)
(-0.00773847 0.0608286 0)
(-0.00782662 0.066658 0)
(-0.00442847 0.0640615 0)
(-0.00324526 0.0854298 0)
(-0.00192368 0.0698077 0)
(0.00141237 0.0575204 0)
(0.00314531 -0.0210195 0)
(0.00222497 -0.157975 0)
(-0.00228081 -0.151835 0)
(-0.00313486 -0.0206273 0)
(-0.00169061 0.0555745 0)
(0.00267475 0.070162 0)
(0.00297189 0.0867763 0)
(0.00470598 0.0602788 0)
(0.00759189 0.0655367 0)
(0.00728796 0.0601528 0)
(0.00904011 0.0560954 0)
(0.00748468 0.0469799 0)
(0.00719843 0.0362351 0)
(0.00203356 0.019611 0)
(-0.000808146 -0.0233313 0)
(-0.00399011 0.0175533 0)
(-0.00459903 0.0358335 0)
(-0.00606743 0.0483374 0)
(-0.0067154 0.056402 0)
(-0.00602428 0.0609198 0)
(-0.00601536 0.0644669 0)
(-0.00301653 0.0589172 0)
(-0.0018915 0.0847252 0)
(-0.00159227 0.0658275 0)
(0.00142471 0.0528424 0)
(0.00310124 -0.0209115 0)
(0.0022155 -0.151541 0)
(-0.00228723 -0.145199 0)
(-0.00282417 -0.0195716 0)
(-0.00237415 0.0493607 0)
(0.00188814 0.0672945 0)
(0.00117417 0.0857213 0)
(0.00368401 0.0553061 0)
(0.00682829 0.0643896 0)
(0.00660125 0.0602091 0)
(0.00749509 0.0566541 0)
(0.00609437 0.0495944 0)
(0.00544764 0.0409022 0)
(0.00312138 0.0278523 0)
(0.000947708 -0.0179061 0)
(-0.00201968 0.0221342 0)
(-0.00341971 0.0393756 0)
(-0.00455881 0.051207 0)
(-0.00585144 0.058273 0)
(-0.00500113 0.0601694 0)
(-0.0047598 0.0630252 0)
(-0.00246926 0.05534 0)
(-0.000265526 0.0840993 0)
(-0.00127653 0.0647418 0)
(0.00234494 0.0475306 0)
(0.00287132 -0.0198886 0)
(0.00229391 -0.14509 0)
(-0.00228697 -0.13913 0)
(-0.00251534 -0.0181018 0)
(-0.00326304 0.0458795 0)
(0.000199838 0.0647271 0)
(-0.0010366 0.0844733 0)
(0.00171806 0.0476128 0)
(0.00556066 0.0623383 0)
(0.00582276 0.0602643 0)
(0.00635145 0.0590935 0)
(0.00499726 0.0530921 0)
(0.00398328 0.0437771 0)
(0.00303676 0.0319412 0)
(0.000841585 -0.0109938 0)
(-0.00160459 0.0283216 0)
(-0.00357321 0.0429345 0)
(-0.00426387 0.0553178 0)
(-0.00523032 0.0593886 0)
(-0.00442495 0.0597103 0)
(-0.00444072 0.0618988 0)
(-0.00140942 0.0491822 0)
(0.00104942 0.0836122 0)
(-0.000349995 0.0625883 0)
(0.00333997 0.0440042 0)
(0.00240698 -0.0180148 0)
(0.00230152 -0.138976 0)
(-0.00219267 -0.132687 0)
(-0.00266223 -0.01638 0)
(-0.0030964 0.0457416 0)
(-0.000442201 0.0639835 0)
(-0.00319438 0.0849287 0)
(0.000195969 0.0394887 0)
(0.00393851 0.0592259 0)
(0.00412742 0.059567 0)
(0.00432194 0.06068 0)
(0.00369197 0.0557888 0)
(0.00298935 0.0472167 0)
(0.00260043 0.0358738 0)
(0.000549728 -0.00643574 0)
(-0.00171863 0.0338568 0)
(-0.00330924 0.0464761 0)
(-0.00328466 0.0566769 0)
(-0.00385771 0.0604642 0)
(-0.00355619 0.0600243 0)
(-0.0036265 0.0598403 0)
(-6.75087e-05 0.0427206 0)
(0.0026751 0.0842757 0)
(0.000504697 0.0609926 0)
(0.00297862 0.0439342 0)
(0.00260192 -0.0167943 0)
(0.00217957 -0.132712 0)
(-0.0021335 -0.126787 0)
(-0.00266853 -0.0153707 0)
(-0.00299185 0.0431442 0)
(-0.000184239 0.0658308 0)
(-0.00331078 0.0856887 0)
(0.00079743 0.0307743 0)
(0.00170685 0.0572725 0)
(0.0016075 0.0607608 0)
(0.00184638 0.0620395 0)
(0.00135808 0.0570159 0)
(0.00167506 0.048288 0)
(0.00212003 0.0383942 0)
(0.000316087 -0.000200586 0)
(-0.00176575 0.0382226 0)
(-0.00238904 0.0479053 0)
(-0.00184515 0.0573786 0)
(-0.00251063 0.0622981 0)
(-0.00182895 0.0600079 0)
(-0.00159291 0.0578787 0)
(-0.000380059 0.0345866 0)
(0.00345645 0.0848409 0)
(0.000510666 0.063033 0)
(0.00310492 0.0417522 0)
(0.00267398 -0.0155964 0)
(0.00215556 -0.126669 0)
(-0.00206025 -0.120621 0)
(-0.00251082 -0.0135607 0)
(-0.00350177 0.041875 0)
(-0.000979041 0.0658064 0)
(-0.00265533 0.0851985 0)
(0.000442948 0.0282331 0)
(-0.00111654 0.0607065 0)
(-0.00103969 0.060592 0)
(0.000147597 0.0633416 0)
(9.01187e-05 0.0570954 0)
(0.00113089 0.0475588 0)
(0.00175453 0.0396631 0)
(6.83074e-05 0.0035033 0)
(-0.00172717 0.041372 0)
(-0.00166944 0.0479684 0)
(-0.000914982 0.0582154 0)
(-0.000696965 0.0624528 0)
(0.000488794 0.058922 0)
(0.000574433 0.0599911 0)
(-3.45006e-05 0.0311317 0)
(0.00275511 0.0846008 0)
(0.00117764 0.0629544 0)
(0.00347231 0.0407627 0)
(0.00250928 -0.0137483 0)
(0.00205433 -0.120621 0)
(-0.00202916 -0.11435 0)
(-0.00309853 -0.0114215 0)
(-0.00310761 0.0433836 0)
(-0.00175363 0.0650722 0)
(-0.00244608 0.0845562 0)
(-0.000370649 0.028523 0)
(-0.00179714 0.0636129 0)
(-0.00175918 0.0590525 0)
(-0.000378026 0.0620894 0)
(0.000495951 0.0558479 0)
(0.00112579 0.0470041 0)
(0.001664 0.0415 0)
(-0.000288876 0.00944158 0)
(-0.00192073 0.0435934 0)
(-0.00170492 0.0480659 0)
(-0.000837588 0.0566241 0)
(7.64873e-05 0.0612827 0)
(0.00117548 0.0590051 0)
(0.00150256 0.0619139 0)
(0.000791701 0.0309329 0)
(0.00243462 0.0843096 0)
(0.00199209 0.0623305 0)
(0.00297711 0.0424468 0)
(0.00308403 -0.0119082 0)
(0.00199895 -0.114262 0)
(-0.00202085 -0.108061 0)
(-0.00313179 -0.00993922 0)
(-0.00299279 0.0410247 0)
(-0.0015966 0.0658973 0)
(-0.00211028 0.0834496 0)
(-0.00027121 0.028113 0)
(-0.0019425 0.065887 0)
(-0.00134115 0.0587154 0)
(0.000156627 0.0607473 0)
(0.00124497 0.0548832 0)
(0.00127855 0.0471088 0)
(0.00128454 0.0436713 0)
(-0.000364713 0.0130912 0)
(-0.00222149 0.0456554 0)
(-0.00166697 0.0476319 0)
(-0.00137836 0.0553625 0)
(-0.000719406 0.0604521 0)
(0.000994608 0.0567712 0)
(0.00211254 0.0631299 0)
(0.000523489 0.0304725 0)
(0.00231137 0.0833965 0)
(0.00178034 0.0634507 0)
(0.00300598 0.0404931 0)
(0.00314185 -0.010287 0)
(0.00200281 -0.108061 0)
(-0.00198461 -0.101898 0)
(-0.00282427 -0.00747991 0)
(-0.00356562 0.0407457 0)
(-0.0021186 0.0653063 0)
(-0.00196731 0.0822954 0)
(-0.00119225 0.0302717 0)
(-0.00283042 0.0676852 0)
(-0.00128782 0.0554572 0)
(0.000953606 0.0587624 0)
(0.00173409 0.0547319 0)
(0.00157526 0.0487096 0)
(0.00159353 0.0463907 0)
(-1.21801e-05 0.018627 0)
(-0.00184861 0.047613 0)
(-0.00125444 0.0480938 0)
(-0.0016121 0.0556405 0)
(-0.000652165 0.0583891 0)
(0.00113811 0.0535829 0)
(0.00245191 0.0645525 0)
(0.00134242 0.0324002 0)
(0.00213929 0.0822687 0)
(0.00219948 0.0629599 0)
(0.0035209 0.0401799 0)
(0.00282705 -0.00794706 0)
(0.00193922 -0.101851 0)
(-0.00195792 -0.0955046 0)
(-0.00311645 -0.00515958 0)
(-0.00328864 0.0421637 0)
(-0.00205285 0.0644407 0)
(-0.00239276 0.0820749 0)
(-0.00164097 0.0324975 0)