/*--------------------------------*- C++ -*----------------------------------*\
| =========                 |                                                 |
| \\      /  F ield         | OpenFOAM: The Open Source CFD Toolbox           |
|  \\    /   O peration     | Version:  2.3.0                                 |
|   \\  /    A nd           | Web:      www.OpenFOAM.org                      |
|    \\/     M anipulation  |                                                 |
\*---------------------------------------------------------------------------*/
FoamFile
{
    version     2.0;
    format      ascii;
    class       volVectorField;
    location    "32";
    object      U.air;
}
// * * * * * * * * * * * * * * * * * * * * * * * * * * * * * * * * * * * * * //

dimensions      [0 1 -1 0 0 0 0];

internalField   nonuniform List<vector> 
1875
(
(0.0385292 0.0792877 0)
(0.094352 0.0761279 0)
(0.173284 0.0824401 0)
(0.229232 0.0926721 0)
(0.268179 0.105327 0)
(0.288971 0.119736 0)
(0.292018 0.135651 0)
(0.277592 0.152697 0)
(0.242876 0.164606 0)
(0.186718 0.175851 0)
(0.111219 0.184993 0)
(0.0305582 0.193722 0)
(-0.0239189 0.180179 0)
(-0.0371892 0.133362 0)
(-0.032704 0.114285 0)
(-0.0649877 0.157178 0)
(-0.125239 0.152044 0)
(-0.171398 0.143042 0)
(-0.193633 0.131863 0)
(-0.194515 0.11749 0)
(-0.178638 0.106928 0)
(-0.148253 0.0970831 0)
(-0.107422 0.0902644 0)
(-0.0559959 0.0890544 0)
(-0.0210658 0.0949871 0)
(0.0441817 0.159879 0)
(0.0964576 0.168443 0)
(0.162286 0.187951 0)
(0.207022 0.215263 0)
(0.237505 0.24778 0)
(0.254096 0.284576 0)
(0.252721 0.327285 0)
(0.234718 0.369768 0)
(0.201238 0.423028 0)
(0.157365 0.482772 0)
(0.114603 0.522109 0)
(0.0732231 0.517027 0)
(0.0353227 0.489043 0)
(0.00174632 0.463365 0)
(-0.0460802 0.468105 0)
(-0.0955648 0.479414 0)
(-0.130263 0.452797 0)
(-0.167526 0.393685 0)
(-0.184704 0.332203 0)
(-0.188712 0.286078 0)
(-0.17535 0.250984 0)
(-0.150026 0.226502 0)
(-0.114532 0.21029 0)
(-0.065682 0.202547 0)
(-0.0285025 0.204726 0)
(0.0317715 -0.00892451 0)
(0.0780844 0.0131015 0)
(0.121819 0.049662 0)
(0.148475 0.0934637 0)
(0.163354 0.141322 0)
(0.167952 0.194611 0)
(0.164514 0.255177 0)
(0.145479 0.323081 0)
(0.112351 0.395506 0)
(0.0750222 0.468938 0)
(0.0417268 0.526463 0)
(0.00943632 0.54335 0)
(-0.0163188 0.527832 0)
(-0.035299 0.511796 0)
(-0.0607239 0.508012 0)
(-0.0825545 0.488318 0)
(-0.106984 0.436127 0)
(-0.129773 0.352641 0)
(-0.138354 0.275717 0)
(-0.137718 0.218041 0)
(-0.131482 0.173244 0)
(-0.11827 0.136816 0)
(-0.0956597 0.107311 0)
(-0.0567715 0.0861642 0)
(-0.0250186 0.0774536 0)
(0.0212502 -0.0765716 0)
(0.0507105 -0.0497035 0)
(0.0610073 0.00021845 0)
(0.0601605 0.0603028 0)
(0.050979 0.122058 0)
(0.0334326 0.188002 0)
(0.00366055 0.263473 0)
(-0.0295138 0.348263 0)
(-0.0595934 0.43785 0)
(-0.0805755 0.52136 0)
(-0.0856817 0.571424 0)
(-0.080614 0.580266 0)
(-0.0662334 0.566674 0)
(-0.0573708 0.565314 0)
(-0.0502991 0.561838 0)
(-0.0481874 0.533459 0)
(-0.0576349 0.467213 0)
(-0.0659388 0.377477 0)
(-0.0783743 0.294105 0)
(-0.0857978 0.224597 0)
(-0.0857097 0.166129 0)
(-0.0797409 0.115883 0)
(-0.0677541 0.0731061 0)
(-0.0452959 0.0392026 0)
(-0.0206197 0.0197349 0)
(0.00337989 -0.0917181 0)
(0.00658489 -0.0559986 0)
(-0.0280913 0.00196923 0)
(-0.0517331 0.0606182 0)
(-0.0769288 0.121015 0)
(-0.103584 0.187434 0)
(-0.130846 0.261851 0)
(-0.153595 0.343368 0)
(-0.164095 0.422551 0)
(-0.156004 0.486826 0)
(-0.131394 0.523766 0)
(-0.0965254 0.54174 0)
(-0.0696161 0.53776 0)
(-0.0504036 0.540524 0)
(-0.0311018 0.539371 0)
(-0.0135151 0.512195 0)
(0.00459787 0.442675 0)
(0.00745166 0.355519 0)
(-0.00170881 0.269354 0)
(-0.0129925 0.196253 0)
(-0.0217339 0.133896 0)
(-0.0267401 0.0798185 0)
(-0.0279723 0.0331734 0)
(-0.0237681 -0.00458205 0)
(-0.0121314 -0.0282914 0)
(-0.017893 -0.0295748 0)
(-0.0382911 0.00759633 0)
(-0.0776807 0.0602331 0)
(-0.101783 0.111889 0)
(-0.129061 0.164132 0)
(-0.15258 0.221477 0)
(-0.170234 0.282587 0)
(-0.17986 0.34021 0)
(-0.176096 0.393062 0)
(-0.157221 0.434764 0)
(-0.122456 0.455561 0)
(-0.0852512 0.463694 0)
(-0.0533331 0.475434 0)
(-0.0267984 0.485232 0)
(0.000375147 0.477248 0)
(0.0322079 0.44778 0)
(0.0592385 0.399363 0)
(0.0718321 0.332615 0)
(0.0694355 0.261412 0)
(0.0571739 0.195856 0)
(0.0417975 0.136243 0)
(0.0271629 0.081805 0)
(0.014795 0.0322224 0)
(-0.000617419 -0.0123708 0)
(-0.00266434 -0.0436545 0)
(-0.0239485 0.0460963 0)
(-0.0482295 0.0848946 0)
(-0.0799198 0.130909 0)
(-0.0980653 0.176453 0)
(-0.118972 0.219275 0)
(-0.137309 0.261633 0)
(-0.149923 0.305113 0)
(-0.153893 0.343842 0)
(-0.145924 0.371611 0)
(-0.12151 0.384112 0)
(-0.0925561 0.393961 0)
(-0.0631553 0.402704 0)
(-0.0355137 0.4162 0)
(-0.00812382 0.42097 0)
(0.0215865 0.405235 0)
(0.0528918 0.379889 0)
(0.0800008 0.350578 0)
(0.0956501 0.307653 0)
(0.0974075 0.255816 0)
(0.0889137 0.202815 0)
(0.0752858 0.150861 0)
(0.0594487 0.100892 0)
(0.0445758 0.0549365 0)
(0.0216917 0.0134243 0)
(0.00939689 -0.018538 0)
(-0.0174151 0.109984 0)
(-0.0325367 0.142958 0)
(-0.0529298 0.181914 0)
(-0.0599871 0.22549 0)
(-0.0662647 0.266095 0)
(-0.0736682 0.296572 0)
(-0.0819265 0.319161 0)
(-0.08446 0.334098 0)
(-0.0767024 0.342694 0)
(-0.0614307 0.348195 0)
(-0.0414568 0.352765 0)
(-0.0203392 0.360015 0)
(0.00068047 0.365691 0)
(0.0224158 0.36596 0)
(0.0447003 0.346442 0)
(0.065331 0.327431 0)
(0.0859217 0.312973 0)
(0.100456 0.290507 0)
(0.102955 0.259316 0)
(0.0954413 0.221153 0)
(0.0826611 0.17854 0)
(0.0672683 0.134273 0)
(0.0517469 0.092631 0)
(0.0269959 0.0552841 0)
(0.0133708 0.0246721 0)
(-0.00952142 0.143855 0)
(-0.0161353 0.168805 0)
(-0.0246722 0.199492 0)
(-0.0210262 0.234448 0)
(-0.0102542 0.274958 0)
(0.00265568 0.312818 0)
(0.0119845 0.338272 0)
(0.0161366 0.342707 0)
(0.0154375 0.333338 0)
(0.0143693 0.318626 0)
(0.0174767 0.316445 0)
(0.0261141 0.322079 0)
(0.0397894 0.330685 0)
(0.0548858 0.329256 0)
(0.0694212 0.317115 0)
(0.0801365 0.299078 0)
(0.0917097 0.287381 0)
(0.101738 0.279559 0)
(0.104551 0.266167 0)
(0.0981319 0.242544 0)
(0.0852213 0.210647 0)
(0.0695039 0.172922 0)
(0.0534151 0.136383 0)
(0.0272939 0.103661 0)
(0.0139572 0.075394 0)
(-0.00609638 0.160361 0)
(-0.00709771 0.175792 0)
(-0.00404494 0.193181 0)
(0.00726739 0.214336 0)
(0.0257446 0.241944 0)
(0.0500993 0.274333 0)
(0.0761261 0.307942 0)
(0.0961108 0.333455 0)
(0.105901 0.346938 0)
(0.103891 0.344917 0)
(0.094896 0.333293 0)
(0.0836675 0.320835 0)
(0.081197 0.310268 0)
(0.0835353 0.303655 0)
(0.0879651 0.29317 0)
(0.091486 0.282627 0)
(0.0934965 0.276137 0)
(0.0971059 0.274972 0)
(0.0982655 0.273576 0)
(0.0929017 0.265746 0)
(0.0805731 0.243795 0)
(0.0660924 0.213099 0)
(0.0509594 0.181715 0)
(0.0255678 0.152967 0)
(0.0130564 0.126578 0)
(0.000137093 0.15914 0)
(0.00409867 0.163335 0)
(0.0236048 0.170307 0)
(0.0417915 0.184621 0)
(0.0619525 0.205686 0)
(0.0845725 0.231595 0)
(0.109194 0.260647 0)
(0.132999 0.289769 0)
(0.151389 0.31463 0)
(0.161001 0.329948 0)
(0.158817 0.345001 0)
(0.148646 0.346004 0)
(0.132166 0.336282 0)
(0.119084 0.318019 0)
(0.110506 0.301851 0)
(0.101363 0.28999 0)
(0.0953422 0.281906 0)
(0.0917622 0.281485 0)
(0.0888037 0.286054 0)
(0.0816656 0.287145 0)
(0.0715671 0.275642 0)
(0.0587114 0.249918 0)
(0.0453581 0.223394 0)
(0.0223057 0.197979 0)
(0.0114551 0.172567 0)
(0.0101752 0.131236 0)
(0.0233199 0.128036 0)
(0.0543078 0.133263 0)
(0.0785755 0.147692 0)
(0.10028 0.169917 0)
(0.120163 0.197394 0)
(0.138434 0.22778 0)
(0.154712 0.259505 0)
(0.168078 0.290416 0)
(0.173239 0.320982 0)
(0.172117 0.345628 0)
(0.166895 0.36347 0)
(0.155753 0.363853 0)
(0.140805 0.352264 0)
(0.12576 0.334856 0)
(0.111507 0.315336 0)
(0.0987455 0.300556 0)
(0.0885845 0.296608 0)
(0.0800414 0.304151 0)
(0.0707137 0.310319 0)
(0.0616338 0.302778 0)
(0.0507293 0.282136 0)
(0.0388732 0.259819 0)
(0.0187725 0.236892 0)
(0.00974923 0.211911 0)
(0.0192389 0.0770355 0)
(0.0416151 0.0796478 0)
(0.0757783 0.0901511 0)
(0.0996129 0.109909 0)
(0.118994 0.13703 0)
(0.134691 0.169372 0)
(0.146258 0.205155 0)
(0.154587 0.24301 0)
(0.159264 0.281417 0)
(0.159867 0.321235 0)
(0.155902 0.352128 0)
(0.151664 0.375067 0)
(0.142144 0.382711 0)
(0.130409 0.37703 0)
(0.119157 0.366353 0)
(0.107192 0.35135 0)
(0.0938583 0.33594 0)
(0.0806058 0.327899 0)
(0.0689598 0.332159 0)
(0.0590284 0.335667 0)
(0.0507495 0.327749 0)
(0.04168 0.310094 0)
(0.0315284 0.290709 0)
(0.0149672 0.26927 0)
(0.00786772 0.244384 0)
(0.0196895 0.0176015 0)
(0.0473232 0.0282317 0)
(0.0732886 0.0481023 0)
(0.0911901 0.0751257 0)
(0.105311 0.108278 0)
(0.115542 0.14636 0)
(0.122399 0.188339 0)
(0.125277 0.231744 0)
(0.122376 0.276057 0)
(0.116841 0.317221 0)
(0.111842 0.352849 0)
(0.107962 0.38021 0)
(0.101816 0.398167 0)
(0.0943476 0.396783 0)
(0.0866393 0.388181 0)
(0.0798369 0.377423 0)
(0.071761 0.365081 0)
(0.0618205 0.357318 0)
(0.0518783 0.358044 0)
(0.0439226 0.358398 0)
(0.0377974 0.349557 0)
(0.0310057 0.333209 0)
(0.0232346 0.315412 0)
(0.0108234 0.294555 0)
(0.00581259 0.269576 0)
(0.0140063 -0.0256306 0)
(0.0347493 -0.010406 0)
(0.0472439 0.0144165 0)
(0.0567688 0.0458084 0)
(0.063713 0.0832588 0)
(0.0665834 0.12552 0)
(0.0649896 0.171211 0)
(0.0583953 0.219795 0)
(0.0489938 0.269066 0)
(0.0438393 0.315386 0)
(0.0411924 0.353339 0)
(0.0392542 0.382803 0)
(0.0389299 0.401328 0)
(0.037475 0.404726 0)
(0.0365347 0.399823 0)
(0.036642 0.390586 0)
(0.0351206 0.381354 0)
(0.0311544 0.375628 0)
(0.0262029 0.375102 0)
(0.0227417 0.373229 0)
(0.0203806 0.364174 0)
(0.0170395 0.348953 0)
(0.0128219 0.332249 0)
(0.00576259 0.311194 0)
(0.0032855 0.285415 0)
(0.00860471 -0.0509796 0)
(0.0187602 -0.0322257 0)
(0.0142329 -0.00316747 0)
(0.0130198 0.0308106 0)
(0.00880338 0.0711552 0)
(7.32804e-05 0.116838 0)
(-0.0112207 0.165945 0)
(-0.0219129 0.216643 0)
(-0.0281182 0.266131 0)
(-0.0303592 0.309578 0)
(-0.0307778 0.346779 0)
(-0.0294466 0.376134 0)
(-0.0255544 0.394667 0)
(-0.0205565 0.397842 0)
(-0.0145437 0.392985 0)
(-0.00871773 0.387871 0)
(-0.00442787 0.382417 0)
(-0.00292151 0.379486 0)
(-0.00249381 0.379027 0)
(-0.00108621 0.376615 0)
(0.000479764 0.368522 0)
(0.00113205 0.355004 0)
(0.00119564 0.339005 0)
(0.000304619 0.317947 0)
(0.000527671 0.293139 0)
(0.0021395 -0.052636 0)
(0.00295408 -0.0287725 0)
(-0.0188037 0.00456943 0)
(-0.0309523 0.0401769 0)
(-0.0454214 0.0811685 0)
(-0.0605205 0.125964 0)
(-0.0727695 0.172402 0)
(-0.0805525 0.218595 0)
(-0.0848718 0.262201 0)
(-0.0864615 0.302143 0)
(-0.0855513 0.335975 0)
(-0.0819425 0.362621 0)
(-0.074756 0.377652 0)
(-0.0646946 0.380505 0)
(-0.0545055 0.377042 0)
(-0.0458514 0.374342 0)
(-0.0385182 0.372077 0)
(-0.0334525 0.372149 0)
(-0.0292766 0.37294 0)
(-0.0246294 0.3712 0)
(-0.0196982 0.363854 0)
(-0.0149575 0.351068 0)
(-0.010381 0.335285 0)
(-0.00482316 0.315122 0)
(-0.00156325 0.291854 0)
(-0.00543972 -0.0244102 0)
(-0.0122262 0.00166057 0)
(-0.0412808 0.035256 0)
(-0.0581334 0.0692184 0)
(-0.0759249 0.10703 0)
(-0.0905459 0.146634 0)
(-0.10164 0.186459 0)
(-0.109944 0.225664 0)
(-0.11521 0.262937 0)
(-0.117457 0.29538 0)
(-0.11633 0.325972 0)
(-0.111605 0.34653 0)
(-0.102949 0.3571 0)
(-0.0916898 0.357998 0)
(-0.0812218 0.356286 0)
(-0.0726079 0.356438 0)
(-0.0651722 0.357635 0)
(-0.0593852 0.359897 0)
(-0.0538236 0.361411 0)
(-0.0472383 0.359116 0)
(-0.0392997 0.351023 0)
(-0.0307554 0.337825 0)
(-0.0218256 0.321563 0)
(-0.0092114 0.301737 0)
(-0.00315513 0.280097 0)
(-0.00981757 0.0171133 0)
(-0.0209048 0.044546 0)
(-0.0490976 0.0770627 0)
(-0.0663708 0.108387 0)
(-0.0836281 0.141708 0)
(-0.0980501 0.174957 0)
(-0.110061 0.207755 0)
(-0.119342 0.239686 0)
(-0.125517 0.269659 0)
(-0.128689 0.296975 0)
(-0.128219 0.315593 0)
(-0.123645 0.330459 0)
(-0.115398 0.337075 0)
(-0.106219 0.338679 0)
(-0.0984415 0.338958 0)
(-0.0919361 0.340235 0)
(-0.0868911 0.343546 0)
(-0.0823767 0.347356 0)
(-0.076053 0.347118 0)
(-0.0673725 0.3419 0)
(-0.0563405 0.331125 0)
(-0.0441126 0.316005 0)
(-0.0307639 0.29813 0)
(-0.0121479 0.27741 0)
(-0.00407332 0.259236 0)
(-0.0121134 0.0628506 0)
(-0.0244994 0.0910879 0)
(-0.0503787 0.120906 0)
(-0.0666462 0.148982 0)
(-0.0826197 0.177615 0)
(-0.096496 0.205123 0)
(-0.108333 0.231471 0)
(-0.117662 0.256316 0)
(-0.124108 0.279003 0)
(-0.127388 0.299639 0)
(-0.127179 0.312883 0)
(-0.124522 0.320383 0)
(-0.119947 0.323298 0)
(-0.115318 0.324459 0)
(-0.112002 0.32586 0)
(-0.109107 0.331646 0)
(-0.106794 0.336119 0)
(-0.102222 0.334014 0)
(-0.0943802 0.329053 0)
(-0.0829444 0.318808 0)
(-0.0688029 0.304023 0)
(-0.0528685 0.286174 0)
(-0.0351096 0.266924 0)
(-0.0121822 0.248903 0)
(-0.00376069 0.236361 0)
(-0.0123111 0.108519 0)
(-0.0239403 0.135517 0)
(-0.048118 0.162108 0)
(-0.0632314 0.186751 0)
(-0.0779112 0.211257 0)
(-0.0909264 0.234006 0)
(-0.102229 0.254873 0)
(-0.111439 0.273584 0)
(-0.118189 0.289632 0)
(-0.121994 0.302036 0)
(-0.123183 0.314129 0)
(-0.122168 0.322204 0)
(-0.12191 0.32632 0)
(-0.123076 0.325294 0)
(-0.123955 0.327552 0)
(-0.124162 0.32939 0)
(-0.122497 0.324274 0)
(-0.116961 0.318322 0)
(-0.107184 0.306355 0)
(-0.0935727 0.290076 0)
(-0.0769582 0.270758 0)
(-0.0580001 0.250192 0)
(-0.037011 0.231032 0)
(-0.0125284 0.217257 0)
(-0.00437102 0.211326 0)
(-0.0113172 0.151832 0)
(-0.0215679 0.176745 0)
(-0.0438869 0.200236 0)
(-0.057761 0.221644 0)
(-0.0712048 0.242626 0)
(-0.0832426 0.261378 0)
(-0.0938346 0.277695 0)
(-0.10258 0.291406 0)
(-0.109005 0.302525 0)
(-0.113199 0.310875 0)
(-0.115525 0.317249 0)
(-0.117881 0.322989 0)
(-0.121938 0.326685 0)
(-0.128374 0.328496 0)
(-0.134547 0.326115 0)
(-0.136392 0.32026 0)
(-0.133837 0.314394 0)
(-0.1264 0.299454 0)
(-0.114824 0.280176 0)
(-0.0993486 0.257741 0)
(-0.0804318 0.234132 0)
(-0.0591257 0.211956 0)
(-0.0367499 0.194591 0)
(-0.0127851 0.186029 0)
(-0.0054617 0.186544 0)
(-0.00977774 0.190499 0)
(-0.0185062 0.213715 0)
(-0.0385813 0.234691 0)
(-0.0510832 0.253334 0)
(-0.0632203 0.27129 0)
(-0.074111 0.286627 0)
(-0.0836057 0.299115 0)
(-0.0912357 0.308921 0)
(-0.0968972 0.316845 0)
(-0.101623 0.32357 0)
(-0.106803 0.330291 0)
(-0.113212 0.336295 0)
(-0.120902 0.33969 0)
(-0.129224 0.338669 0)
(-0.136053 0.333665 0)
(-0.139895 0.319566 0)
(-0.13728 0.300215 0)
(-0.128464 0.27733 0)
(-0.115568 0.250828 0)
(-0.098226 0.222785 0)
(-0.0775656 0.196109 0)
(-0.0556657 0.174041 0)
(-0.0345612 0.160001 0)
(-0.012574 0.156795 0)
(-0.00582651 0.163019 0)
(-0.00812124 0.223742 0)
(-0.0154665 0.245994 0)
(-0.0331052 0.265093 0)
(-0.0440977 0.281491 0)
(-0.0547644 0.296858 0)
(-0.064323 0.309287 0)
(-0.0724682 0.31869 0)
(-0.0789591 0.325956 0)
(-0.0846193 0.33266 0)
(-0.0907945 0.339691 0)
(-0.0983682 0.346871 0)
(-0.107687 0.352136 0)
(-0.117094 0.353446 0)
(-0.123821 0.348564 0)
(-0.128626 0.335489 0)
(-0.13151 0.315961 0)
(-0.128713 0.285397 0)
(-0.120737 0.25403 0)
(-0.10749 0.220474 0)
(-0.0899178 0.187899 0)
(-0.0702834 0.159793 0)
(-0.0512471 0.139032 0)
(-0.0339551 0.128013 0)
(-0.0144218 0.128353 0)
(-0.00697432 0.138496 0)
(-0.00658944 0.251646 0)
(-0.0124878 0.27344 0)
(-0.0273372 0.291265 0)
(-0.0366217 0.305872 0)
(-0.0455913 0.319113 0)
(-0.0534945 0.329186 0)
(-0.0600063 0.336392 0)
(-0.0654408 0.342486 0)
(-0.0710207 0.349322 0)
(-0.0775419 0.357379 0)
(-0.0856532 0.365078 0)
(-0.0946707 0.369809 0)
(-0.102013 0.368197 0)
(-0.107417 0.357474 0)
(-0.111588 0.336831 0)
(-0.113516 0.308477 0)
(-0.11233 0.273388 0)
(-0.106206 0.233532 0)
(-0.0946444 0.193817 0)
(-0.0801201 0.158062 0)
(-0.0650089 0.129254 0)
(-0.0506882 0.109072 0)
(-0.0364964 0.0985351 0)
(-0.0181288 0.099157 0)
(-0.00894867 0.109893 0)
(-0.00508912 0.273899 0)
(-0.00935477 0.295638 0)
(-0.0209646 0.312588 0)
(-0.0282239 0.32582 0)
(-0.0351375 0.337295 0)
(-0.0409933 0.345413 0)
(-0.0456099 0.350998 0)
(-0.0496762 0.356577 0)
(-0.0540733 0.363872 0)
(-0.0593467 0.37254 0)
(-0.0659138 0.3806 0)
(-0.0720739 0.383773 0)
(-0.0771177 0.378777 0)
(-0.0811843 0.364697 0)
(-0.0848857 0.340858 0)
(-0.0878967 0.307997 0)
(-0.0904438 0.265658 0)
(-0.0886694 0.218595 0)
(-0.0813972 0.17429 0)
(-0.0727813 0.135882 0)
(-0.0633729 0.105329 0)
(-0.0529565 0.0833215 0)
(-0.0405916 0.0703582 0)
(-0.0234045 0.0678916 0)
(-0.0116002 0.0745625 0)
(-0.00338205 0.290383 0)
(-0.00591804 0.312131 0)
(-0.0139542 0.328366 0)
(-0.0188578 0.340537 0)
(-0.023422 0.350588 0)
(-0.0270556 0.357078 0)
(-0.029739 0.361368 0)
(-0.0321501 0.36649 0)
(-0.0345483 0.373856 0)
(-0.0373366 0.383192 0)
(-0.0406165 0.391139 0)
(-0.0434022 0.392605 0)
(-0.0459899 0.385411 0)
(-0.0485898 0.369617 0)
(-0.0516814 0.344641 0)
(-0.0549186 0.309577 0)
(-0.0604241 0.264205 0)
(-0.0649677 0.212447 0)
(-0.0651309 0.16408 0)
(-0.0632619 0.122469 0)
(-0.0589851 0.088655 0)
(-0.0521483 0.0629155 0)
(-0.042599 0.0452272 0)
(-0.0290461 0.0362797 0)
(-0.0135212 0.0348343 0)
(-0.00162127 0.298387 0)
(-0.00239822 0.320554 0)
(-0.00641762 0.337976 0)
(-0.00859834 0.349486 0)
(-0.0105921 0.358555 0)
(-0.0121321 0.36388 0)
(-0.0131426 0.367055 0)
(-0.0137813 0.37131 0)
(-0.0139029 0.377882 0)
(-0.0134415 0.386462 0)
(-0.0127983 0.393188 0)
(-0.0122532 0.393927 0)
(-0.0121968 0.386934 0)
(-0.012876 0.371625 0)
(-0.0147021 0.347032 0)
(-0.0176185 0.313022 0)
(-0.0223931 0.268345 0)
(-0.0316051 0.215585 0)
(-0.0407362 0.163645 0)
(-0.0449388 0.117903 0)
(-0.0453699 0.0794301 0)
(-0.0421018 0.0485582 0)
(-0.0361295 0.0253175 0)
(-0.029582 0.00915021 0)
(-0.0123778 -0.00155379 0)
(0.000100067 0.302425 0)
(0.00106325 0.324506 0)
(0.000989762 0.340692 0)
(0.0017887 0.352141 0)
(0.00248027 0.360944 0)
(0.0030275 0.365755 0)
(0.00356637 0.367991 0)
(0.00471772 0.37088 0)
(0.00677209 0.375828 0)
(0.0100733 0.382721 0)
(0.0141859 0.38884 0)
(0.0180501 0.390388 0)
(0.0209199 0.38437 0)
(0.0226616 0.369618 0)
(0.0228818 0.346915 0)
(0.0212548 0.315478 0)
(0.0178791 0.274939 0)
(0.00882054 0.224263 0)
(-0.00541947 0.17139 0)
(-0.0166854 0.121445 0)
(-0.0226848 0.0777446 0)
(-0.023554 0.041537 0)
(-0.0212823 0.0135564 0)
(-0.0222773 -0.00725607 0)
(-0.0091261 -0.0228717 0)
(0.00133745 0.300691 0)
(0.00405192 0.322079 0)
(0.00830163 0.336876 0)
(0.0117084 0.34855 0)
(0.0150016 0.357661 0)
(0.0177648 0.362775 0)
(0.0198732 0.364605 0)
(0.0224486 0.366023 0)
(0.0260298 0.368908 0)
(0.0310932 0.373655 0)
(0.0376894 0.378634 0)
(0.0442916 0.379826 0)
(0.0497209 0.374823 0)
(0.0536429 0.362816 0)
(0.0557596 0.343065 0)
(0.0557346 0.315576 0)
(0.0534321 0.279984 0)
(0.0474754 0.235802 0)
(0.0351918 0.185053 0)
(0.019152 0.133677 0)
(0.00591467 0.0856059 0)
(-0.00113141 0.0442939 0)
(-0.00372737 0.012199 0)
(-0.0121533 -0.0135406 0)
(-0.00540113 -0.0323739 0)
(0.0024062 0.290186 0)
(0.00680494 0.310627 0)
(0.0152558 0.327137 0)
(0.0211574 0.339352 0)
(0.0268519 0.349155 0)
(0.0319601 0.355302 0)
(0.0357689 0.357702 0)
(0.0391804 0.358314 0)
(0.0434553 0.359235 0)
(0.0490956 0.361532 0)
(0.0564953 0.364667 0)
(0.0646809 0.366023 0)
(0.0718144 0.362677 0)
(0.0770883 0.353065 0)
(0.0804241 0.336615 0)
(0.0815117 0.313276 0)
(0.0800928 0.283112 0)
(0.0759471 0.245936 0)
(0.0675787 0.20176 0)
(0.0537787 0.15298 0)
(0.0369171 0.10375 0)
(0.0229118 0.0590308 0)
(0.0131121 0.0234565 0)
(-0.00192658 -0.00604144 0)
(-0.000168886 -0.0283763 0)
(0.00305163 0.275043 0)
(0.00847964 0.294261 0)
(0.0202151 0.311673 0)
(0.0286183 0.324752 0)
(0.0366813 0.335589 0)
(0.044264 0.343374 0)
(0.0503428 0.347453 0)
(0.0548571 0.348662 0)
(0.0593044 0.348683 0)
(0.0646223 0.34907 0)
(0.0711885 0.350218 0)
(0.0790757 0.350859 0)
(0.0868041 0.348831 0)
(0.0927302 0.342109 0)
(0.0964004 0.329826 0)
(0.0978205 0.311091 0)
(0.0966244 0.285991 0)
(0.0926807 0.254956 0)
(0.0860023 0.218018 0)
(0.0757545 0.175464 0)
(0.0608396 0.129263 0)
(0.0433093 0.0841598 0)
(0.0278497 0.0467918 0)
(0.00637588 0.0149205 0)
(0.00360631 -0.00968861 0)
(0.00319573 0.259808 0)
(0.00897645 0.275994 0)
(0.0226866 0.291833 0)
(0.0330823 0.305351 0)
(0.0432707 0.317061 0)
(0.0531488 0.326537 0)
(0.0618155 0.33304 0)
(0.0685376 0.336423 0)
(0.0736841 0.337485 0)
(0.0784699 0.337589 0)
(0.0836828 0.337643 0)
(0.0897839 0.337566 0)
(0.0963603 0.3362 0)
(0.102084 0.332259 0)
(0.105589 0.322351 0)
(0.106383 0.308616 0)
(0.104547 0.2903 0)
(0.100194 0.265182 0)
(0.0933517 0.234588 0)
(0.0841788 0.19881 0)
(0.0719712 0.158318 0)
(0.0554937 0.115969 0)
(0.0382421 0.0788569 0)
(0.01291 0.0458229 0)
(0.00616173 0.0201615 0)
(0.00284948 0.243194 0)
(0.00845978 0.255589 0)
(0.0229897 0.269289 0)
(0.0348229 0.282396 0)
(0.046633 0.29439 0)
(0.0583995 0.305091 0)
(0.0693569 0.313952 0)
(0.0786535 0.320401 0)
(0.0856554 0.324324 0)
(0.0907345 0.326395 0)
(0.0949782 0.327279 0)
(0.0990503 0.327419 0)
(0.103268 0.327052 0)
(0.107273 0.323893 0)
(0.110121 0.320209 0)
(0.109871 0.311325 0)
(0.106778 0.296758 0)
(0.101404 0.277511 0)
(0.0940443 0.252479 0)
(0.0847994 0.222425 0)
(0.0737333 0.187835 0)
(0.059491 0.150108 0)
(0.043488 0.115054 0)
(0.0175305 0.0823929 0)
(0.00817924 0.0559234 0)
(0.000868494 0.227914 0)
(0.0055356 0.234886 0)
(0.0207061 0.245112 0)
(0.0342393 0.256892 0)
(0.0476987 0.268692 0)
(0.0610555 0.280216 0)
(0.0737391 0.291058 0)
(0.0849892 0.300655 0)
(0.0940176 0.308412 0)
(0.100465 0.314187 0)
(0.104633 0.318062 0)
(0.107381 0.32076 0)
(0.109269 0.321324 0)
(0.110636 0.32237 0)
(0.110583 0.321803 0)
(0.109286 0.319256 0)
(0.105278 0.30882 0)
(0.0990056 0.292668 0)
(0.0911716 0.272101 0)
(0.0817891 0.246544 0)
(0.0710589 0.216613 0)
(0.0583401 0.183485 0)
(0.0441576 0.151514 0)
(0.0192606 0.120512 0)
(0.00922556 0.0938263 0)
(-3.77591e-05 0.214078 0)
(0.00405707 0.214006 0)
(0.0194334 0.219032 0)
(0.0347962 0.22848 0)
(0.0500104 0.240098 0)
(0.0645918 0.25272 0)
(0.0782138 0.265728 0)
(0.0903354 0.27851 0)
(0.100345 0.290358 0)
(0.107741 0.300686 0)
(0.112484 0.309378 0)
(0.114838 0.313798 0)
(0.11503 0.320124 0)
(0.11297 0.325279 0)
(0.109644 0.325601 0)
(0.105221 0.323493 0)
(0.100049 0.319076 0)
(0.0935393 0.308683 0)
(0.0856302 0.292195 0)
(0.0764792 0.270447 0)
(0.066221 0.244287 0)
(0.0545074 0.215024 0)
(0.0416932 0.186355 0)
(0.0185351 0.157599 0)
(0.00914162 0.131443 0)
(0.00308664 0.199061 0)
(0.00832675 0.192073 0)
(0.0244397 0.191615 0)
(0.0411469 0.198442 0)
(0.057676 0.210037 0)
(0.0728812 0.224442 0)
(0.0863403 0.240336 0)
(0.0978049 0.256744 0)
(0.107137 0.273017 0)
(0.114006 0.287455 0)
(0.118273 0.299407 0)
(0.119216 0.313616 0)
(0.116764 0.323554 0)
(0.112373 0.329388 0)
(0.10698 0.335723 0)
(0.100815 0.337431 0)
(0.0942874 0.334361 0)
(0.0872604 0.326084 0)
(0.0792707 0.31241 0)
(0.0704192 0.29361 0)
(0.0606935 0.270499 0)
(0.0497632 0.244397 0)
(0.0380135 0.218726 0)
(0.0168486 0.192229 0)
(0.00848125 0.166923 0)
(0.00742747 0.175147 0)
(0.0151692 0.16499 0)
(0.0346489 0.161737 0)
(0.0524276 0.167731 0)
(0.0694672 0.180404 0)
(0.0847588 0.19756 0)
(0.0974466 0.217366 0)
(0.107247 0.238333 0)
(0.114208 0.257697 0)
(0.118662 0.278051 0)
(0.119771 0.298575 0)
(0.118085 0.316675 0)
(0.113776 0.328969 0)
(0.108067 0.339708 0)
(0.101706 0.346274 0)
(0.0950765 0.350277 0)
(0.0881407 0.349954 0)
(0.0806399 0.343949 0)
(0.0725914 0.332554 0)
(0.0640271 0.316033 0)
(0.0548636 0.295272 0)
(0.0447424 0.271645 0)
(0.034067 0.248364 0)
(0.015015 0.223772 0)
(0.00762159 0.199282 0)
(0.0117951 0.13833 0)
(0.023131 0.13036 0)
(0.0472812 0.128697 0)
(0.0653667 0.137104 0)
(0.0812314 0.152926 0)
(0.0949761 0.173939 0)
(0.105883 0.19814 0)
(0.113534 0.224038 0)
(0.117089 0.25133 0)
(0.1177 0.277768 0)
(0.116061 0.302194 0)
(0.111442 0.320557 0)
(0.106143 0.338288 0)
(0.100273 0.352384 0)
(0.0935819 0.361873 0)
(0.0864737 0.36697 0)
(0.0791913 0.367262 0)
(0.071737 0.362442 0)
(0.0641189 0.352373 0)
(0.0562781 0.337298 0)
(0.0480482 0.318171 0)
(0.0390554 0.29637 0)
(0.029687 0.2749 0)
(0.0130077 0.251778 0)
(0.00660099 0.227948 0)
(0.0164625 0.0876426 0)
(0.0349215 0.0880055 0)
(0.0607583 0.0947446 0)
(0.076538 0.10957 0)
(0.0884281 0.130642 0)
(0.0976814 0.156377 0)
(0.10457 0.185497 0)
(0.108529 0.216611 0)
(0.110438 0.249781 0)
(0.108745 0.279719 0)
(0.103865 0.305645 0)
(0.0980142 0.330444 0)
(0.0923291 0.351002 0)
(0.0861986 0.366227 0)
(0.0797482 0.376903 0)
(0.0731646 0.382793 0)
(0.0665519 0.383908 0)
(0.0600299 0.3798 0)
(0.0535419 0.370391 0)
(0.0469798 0.356201 0)
(0.0401467 0.338231 0)
(0.0326459 0.317832 0)
(0.0247795 0.297738 0)
(0.0107102 0.275731 0)
(0.00542657 0.252376 0)
(0.0177242 0.0376193 0)
(0.0451502 0.0482415 0)
(0.0652381 0.0652979 0)
(0.0756246 0.0879988 0)
(0.0822834 0.114874 0)
(0.0865539 0.145075 0)
(0.0892114 0.178195 0)
(0.0903339 0.213147 0)
(0.0897715 0.247448 0)
(0.0854799 0.281803 0)
(0.0793525 0.31344 0)
(0.0745877 0.340384 0)
(0.0696938 0.361846 0)
(0.0647303 0.378309 0)
(0.0597495 0.389718 0)
(0.0547606 0.396297 0)
(0.0498872 0.397358 0)
(0.0451193 0.39345 0)
(0.0404956 0.384874 0)
(0.0359035 0.371403 0)
(0.031049 0.354387 0)
(0.0254375 0.33524 0)
(0.0193071 0.316304 0)
(0.00814947 0.295207 0)
(0.00416108 0.272101 0)
(0.0150861 0.00369885 0)
(0.0427164 0.0190079 0)
(0.0505531 0.0431587 0)
(0.0549832 0.0715595 0)
(0.0584276 0.103098 0)
(0.0597901 0.136891 0)
(0.0593323 0.172548 0)
(0.0578259 0.209904 0)
(0.0539754 0.248493 0)
(0.0487972 0.285293 0)
(0.0452311 0.31867 0)
(0.0425295 0.346021 0)
(0.0398626 0.368353 0)
(0.0372969 0.385466 0)
(0.034779 0.39769 0)
(0.0324178 0.40477 0)
(0.0300378 0.407064 0)
(0.0278618 0.403731 0)
(0.0257586 0.394615 0)
(0.0236222 0.381566 0)
(0.0211235 0.365552 0)
(0.0176898 0.347732 0)
(0.013543 0.329956 0)
(0.00548723 0.309666 0)
(0.00281578 0.286732 0)
(0.011432 -0.0135622 0)
(0.0275458 0.0017956 0)
(0.0243065 0.0287695 0)
(0.0249972 0.0604397 0)
(0.0261108 0.0948424 0)
(0.0249725 0.131238 0)
(0.0221753 0.16931 0)
(0.0181636 0.20879 0)
(0.0128587 0.248282 0)
(0.00956511 0.285878 0)
(0.0088465 0.318333 0)
(0.00843018 0.345984 0)
(0.00832319 0.368622 0)
(0.00842683 0.386482 0)
(0.00866651 0.399217 0)
(0.00898007 0.406766 0)
(0.00940053 0.408952 0)
(0.0100294 0.406007 0)
(0.0106971 0.398089 0)
(0.0110694 0.38606 0)
(0.0109325 0.371349 0)
(0.00972219 0.355098 0)
(0.00761825 0.338598 0)
(0.00286759 0.319372 0)
(0.00150623 0.296627 0)
(0.00765225 -0.0230075 0)
(0.0110456 -0.00587845 0)
(-0.000138629 0.0236203 0)
(-0.00201222 0.0568158 0)
(-0.00454332 0.0925784 0)
(-0.00921886 0.130024 0)
(-0.0147406 0.168741 0)
(-0.0207708 0.208046 0)
(-0.0244857 0.246733 0)
(-0.0247496 0.282493 0)
(-0.0236723 0.313887 0)
(-0.0220884 0.34094 0)
(-0.020024 0.363706 0)
(-0.0176227 0.381799 0)
(-0.0150172 0.395167 0)
(-0.0122623 0.403395 0)
(-0.0093613 0.405836 0)
(-0.00625586 0.403064 0)
(-0.00324901 0.395975 0)
(-0.00060071 0.385203 0)
(0.00139425 0.372081 0)
(0.00224057 0.357539 0)
(0.00212806 0.342255 0)
(0.000617177 0.321867 0)
(0.000403215 0.299571 0)
(0.00198163 -0.0209425 0)
(-0.0035045 -0.00113616 0)
(-0.0190014 0.0293518 0)
(-0.024365 0.0619648 0)
(-0.0310077 0.0970604 0)
(-0.0384055 0.133661 0)
(-0.0449237 0.170885 0)
(-0.0496745 0.207984 0)
(-0.0511032 0.244103 0)
(-0.0500002 0.277019 0)
(-0.0480486 0.306712 0)
(-0.0452927 0.332916 0)
(-0.041909 0.355159 0)
(-0.0380637 0.37315 0)
(-0.0338531 0.3864 0)
(-0.0293256 0.394545 0)
(-0.0244703 0.397482 0)
(-0.0195034 0.395524 0)
(-0.0146852 0.389296 0)
(-0.0102999 0.379888 0)
(-0.00672634 0.3684 0)
(-0.00418974 0.355406 0)
(-0.00239987 0.341283 0)
(-0.00125844 0.323485 0)
(-0.000393073 0.301251 0)
(-0.00355475 -0.00682423 0)
(-0.013718 0.0151538 0)
(-0.0318292 0.0442903 0)
(-0.0403131 0.0744108 0)
(-0.0494195 0.107292 0)
(-0.0570658 0.141399 0)
(-0.0625426 0.175665 0)
(-0.0653918 0.209412 0)
(-0.0659301 0.241621 0)
(-0.065025 0.271921 0)
(-0.0630129 0.299427 0)
(-0.0600802 0.324091 0)
(-0.0563138 0.345299 0)
(-0.0518645 0.362528 0)
(-0.0468753 0.375325 0)
(-0.0413214 0.38325 0)
(-0.0353242 0.386216 0)
(-0.0292081 0.384691 0)
(-0.0232786 0.37946 0)
(-0.0179871 0.371457 0)
(-0.0136022 0.361406 0)
(-0.00993794 0.349703 0)
(-0.00689714 0.336524 0)
(-0.00275886 0.321133 0)
(-0.000877446 0.29955 0)
(-0.0066108 0.0170882 0)
(-0.01733 0.0397408 0)
(-0.0371747 0.0657274 0)
(-0.0475821 0.0924266 0)
(-0.0569564 0.122007 0)
(-0.063645 0.152439 0)
(-0.0682887 0.182814 0)
(-0.0711013 0.212506 0)
(-0.0723341 0.240822 0)
(-0.0721278 0.266879 0)
(-0.0706208 0.293471 0)
(-0.0679817 0.316079 0)
(-0.0643409 0.335608 0)
(-0.0598583 0.351503 0)
(-0.0546 0.363253 0)
(-0.048588 0.370522 0)
(-0.0420964 0.373374 0)
(-0.035545 0.372341 0)
(-0.02933 0.368133 0)
(-0.0238835 0.36138 0)
(-0.0191638 0.352504 0)
(-0.0148426 0.341625 0)
(-0.0109279 0.328706 0)
(-0.00413358 0.311129 0)
(-0.00121646 0.290911 0)
(-0.00703707 0.0467622 0)
(-0.0163172 0.0683129 0)
(-0.0370114 0.0906476 0)
(-0.0476525 0.113554 0)
(-0.0566059 0.139076 0)
(-0.0630049 0.165298 0)
(-0.0678042 0.191632 0)
(-0.0711073 0.21762 0)
(-0.0729648 0.243208 0)
(-0.0735869 0.267535 0)
(-0.0729287 0.289141 0)
(-0.0707192 0.309291 0)
(-0.0674292 0.326714 0)
(-0.0631365 0.340859 0)
(-0.0578918 0.351261 0)
(-0.0518397 0.357705 0)
(-0.0453866 0.3604 0)
(-0.0389996 0.359833 0)
(-0.0330937 0.356471 0)
(-0.027787 0.350636 0)
(-0.0228893 0.342438 0)
(-0.0182639 0.33181 0)
(-0.0135839 0.318597 0)
(-0.00489395 0.300026 0)
(-0.00131165 0.280694 0)
(-0.00632483 0.0773406 0)
(-0.0140101 0.0971627 0)
(-0.0340946 0.116284 0)
(-0.0442623 0.135493 0)
(-0.0529785 0.156926 0)
(-0.0595824 0.179201 0)
(-0.064714 0.201808 0)
(-0.0684351 0.224305 0)
(-0.0707746 0.246506 0)
(-0.0716678 0.268889 0)
(-0.0712285 0.286349 0)
(-0.0695614 0.303813 0)
(-0.0666987 0.318859 0)
(-0.0627035 0.331044 0)
(-0.0576892 0.339981 0)
(-0.0519623 0.345593 0)
(-0.0460037 0.348134 0)
(-0.040265 0.347902 0)
(-0.0349476 0.345083 0)
(-0.0299475 0.339736 0)
(-0.0251878 0.331683 0)
(-0.0206909 0.320685 0)
(-0.0155705 0.306606 0)
(-0.00536417 0.288531 0)
(-0.00130528 0.270667 0)
(-0.00549145 0.105848 0)
(-0.0119044 0.124399 0)
(-0.0304916 0.140953 0)
(-0.0400578 0.156961 0)
(-0.0484961 0.174838 0)
(-0.0551109 0.193601 0)
(-0.0603625 0.212782 0)
(-0.0642794 0.231867 0)
(-0.0667977 0.250193 0)
(-0.0679695 0.267617 0)
(-0.0675187 0.284654 0)
(-0.0661993 0.299408 0)
(-0.0635813 0.312075 0)
(-0.0598351 0.322301 0)
(-0.0551859 0.329848 0)
(-0.0500491 0.33473 0)
(-0.0449046 0.337115 0)
(-0.0400134 0.337044 0)
(-0.0353668 0.33449 0)
(-0.0309208 0.32921 0)