/*--------------------------------*- C++ -*----------------------------------*\
| =========                 |                                                 |
| \\      /  F ield         | OpenFOAM: The Open Source CFD Toolbox           |
|  \\    /   O peration     | Version:  2.3.0                                 |
|   \\  /    A nd           | Web:      www.OpenFOAM.org                      |
|    \\/     M anipulation  |                                                 |
\*---------------------------------------------------------------------------*/
FoamFile
{
    version     2.0;
    format      ascii;
    class       volScalarField;
    location    "0.47";
    object      pMean;
}
// * * * * * * * * * * * * * * * * * * * * * * * * * * * * * * * * * * * * * //

dimensions      [1 -1 -2 0 0 0 0];

internalField   nonuniform List<scalar> 
6000
(
106847
106846
106843
106842
106842
106842
106842
106842
106843
106845
106848
106850
106852
106854
106856
106855
106853
106851
106850
106848
106846
106844
106844
106844
106844
106843
106844
106846
106848
106850
106778
106776
106773
106771
106770
106769
106769
106770
106772
106776
106779
106781
106783
106784
106786
106786
106784
106783
106781
106779
106775
106773
106772
106771
106771
106772
106774
106776
106778
106780
106722
106720
106719
106718
106717
106716
106717
106718
106721
106726
106730
106732
106734
106735
106736
106736
106735
106734
106732
106729
106725
106722
106720
106718
106718
106719
106721
106722
106722
106724
106663
106661
106660
106659
106659
106659
106660
106662
106666
106670
106675
106679
106681
106683
106684
106683
106682
106681
106678
106673
106669
106666
106663
106662
106661
106662
106662
106663
106663
106665
106606
106604
106603
106602
106601
106601
106603
106606
106609
106614
106619
106624
106627
106629
106630
106630
106628
106626
106622
106617
106613
106610
106607
106605
106604
106604
106605
106606
106608
106609
106555
106553
106550
106547
106546
106547
106550
106552
106556
106560
106564
106569
106573
106575
106576
106576
106574
106571
106567
106563
106560
106557
106554
106552
106549
106548
106550
106553
106556
106558
106508
106506
106501
106497
106495
106497
106500
106502
106505
106508
106511
106515
106519
106522
106523
106523
106521
106518
106514
106511
106509
106507
106504
106502
106499
106498
106500
106505
106509
106511
106464
106461
106457
106452
106450
106451
106453
106455
106456
106457
106460
106463
106467
106469
106471
106470
106469
106466
106462
106460
106459
106458
106456
106454
106452
106452
106455
106460
106465
106468
106421
106418
106413
106409
106407
106407
106408
106409
106408
106408
106409
106412
106415
106417
106418
106418
106417
106414
106412
106410
106410
106410
106410
106410
106409
106409
106411
106417
106422
106425
106377
106374
106369
106365
106364
106364
106364
106363
106361
106360
106361
106364
106366
106367
106368
106368
106367
106365
106363
106362
106362
106363
106365
106366
106366
106366
106368
106372
106377
106380
106331
106329
106324
106321
106319
106320
106319
106317
106315
106314
106315
106317
106318
106319
106319
106319
106319
106318
106316
106316
106316
106317
106319
106321
106322
106322
106324
106327
106332
106335
106285
106283
106279
106276
106274
106274
106272
106270
106269
106268
106269
106270
106271
106271
106271
106271
106272
106271
106270
106270
106270
106271
106273
106275
106277
106277
106279
106282
106286
106289
106238
106236
106234
106230
106228
106226
106225
106223
106222
106222
106222
106223
106224
106224
106224
106224
106224
106224
106223
106223
106223
106223
106225
106227
106229
106231
106234
106238
106241
106242
106190
106189
106188
106184
106181
106178
106177
106175
106174
106174
106175
106176
106177
106177
106177
106177
106177
106176
106176
106175
106175
106175
106176
106178
106181
106184
106188
106193
106194
106194
106141
106141
106140
106137
106134
106131
106129
106127
106127
106127
106127
106128
106129
106129
106129
106129
106129
106128
106127
106127
106126
106126
106127
106129
106132
106136
106141
106145
106146
106144
106090
106091
106092
106090
106086
106083
106081
106079
106079
106079
106079
106080
106080
106081
106081
106080
106080
106079
106079
106078
106077
106077
106078
106080
106082
106087
106092
106094
106094
106092
106039
106040
106042
106041
106038
106034
106033
106031
106030
106031
106031
106031
106031
106032
106032
106031
106031
106030
106030
106029
106028
106028
106028
106030
106032
106036
106040
106041
106041
106039
105988
105990
105992
105992
105989
105985
105984
105983
105982
105982
105982
105982
105982
105982
105982
105982
105981
105981
105981
105980
105979
105978
105979
105980
105982
105984
105987
105988
105987
105986
105937
105938
105942
105942
105939
105936
105935
105934
105933
105933
105933
105933
105932
105932
105932
105932
105931
105931
105931
105930
105929
105929
105928
105929
105930
105932
105934
105934
105934
105933
105885
105887
105891
105892
105889
105887
105886
105886
105885
105884
105884
105883
105883
105882
105883
105882
105882
105881
105881
105880
105880
105879
105878
105877
105878
105879
105881
105882
105881
105881
105833
105835
105839
105840
105839
105837
105837
105837
105836
105835
105835
105834
105833
105833
105833
105833
105832
105831
105831
105831
105830
105829
105828
105827
105826
105828
105829
105831
105829
105829
105780
105781
105785
105787
105788
105787
105788
105788
105788
105786
105785
105784
105784
105784
105784
105783
105783
105782
105781
105781
105781
105780
105779
105777
105776
105777
105779
105780
105779
105779
105726
105727
105730
105733
105736
105736
105737
105739
105739
105737
105736
105735
105735
105735
105735
105734
105734
105733
105732
105731
105731
105731
105730
105729
105727
105727
105728
105730
105729
105728
105673
105673
105675
105680
105683
105685
105687
105688
105688
105687
105686
105686
105686
105686
105685
105685
105685
105684
105683
105682
105682
105682
105682
105681
105679
105678
105677
105679
105678
105677
105620
105620
105622
105626
105631
105634
105636
105637
105637
105637
105637
105637
105637
105637
105636
105636
105636
105635
105635
105634
105633
105633
105633
105632
105630
105628
105627
105627
105627
105626
105568
105568
105569
105574
105580
105583
105585
105586
105586
105587
105588
105588
105588
105587
105587
105587
105586
105586
105586
105585
105585
105585
105585
105584
105582
105580
105578
105576
105575
105575
105519
105518
105520
105524
105529
105533
105534
105535
105536
105537
105538
105538
105538
105538
105538
105537
105537
105537
105537
105537
105536
105536
105536
105535
105533
105531
105529
105526
105524
105524
105472
105472
105473
105476
105481
105484
105485
105485
105486
105487
105488
105489
105489
105489
105488
105488
105488
105488
105488
105488
105488
105488
105488
105487
105484
105483
105480
105477
105475
105475
105427
105428
105429
105431
105434
105437
105437
105437
105437
105438
105439
105440
105440
105440
105440
105440
105440
105440
105439
105439
105439
105439
105439
105438
105437
105436
105433
105429
105427
105427
105383
105383
105384
105386
105389
105391
105391
105391
105391
105391
105392
105392
105392
105392
105392
105392
105392
105392
105392
105392
105392
105392
105391
105391
105391
105389
105386
105383
105381
105381
105339
105338
105339
105342
105344
105346
105346
105346
105346
105346
105346
105346
105346
105346
105346
105346
105346
105346
105346
105346
105346
105345
105345
105345
105345
105344
105340
105337
105335
105335
105294
105294
105295
105297
105300
105301
105301
105300
105300
105300
105300
105300
105300
105300
105300
105300
105300
105300
105300
105300
105300
105300
105299
105299
105299
105298
105294
105291
105289
105289
105249
105249
105250
105252
105255
105256
105255
105255
105254
105254
105254
105254
105254
105254
105254
105254
105254
105254
105254
105254
105253
105253
105253
105253
105253
105251
105247
105244
105243
105243
105202
105203
105205
105207
105209
105210
105209
105208
105208
105207
105207
105207
105207
105207
105207
105207
105207
105207
105207
105207
105207
105206
105206
105206
105206
105203
105200
105197
105195
105196
105154
105156
105158
105161
105162
105163
105162
105160
105160
105160
105160
105160
105160
105160
105160
105160
105159
105159
105159
105159
105159
105159
105158
105158
105158
105155
105152
105150
105148
105148
105104
105106
105109
105112
105113
105114
105113
105112
105111
105111
105111
105111
105111
105112
105112
105112
105112
105111
105111
105111
105111
105111
105110
105110
105109
105107
105104
105102
105100
105100
105052
105054
105057
105060
105062
105062
105062
105062
105062
105062
105062
105063
105063
105063
105063
105063
105063
105063
105063
105062
105062
105062
105061
105061
105060
105057
105055
105053
105052
105052
105000
105002
105005
105006
105008
105009
105010
105011
105012
105012
105013
105013
105013
105014
105014
105014
105014
105014
105014
105013
105013
105012
105012
105011
105010
105007
105005
105004
105003
105002
104949
104951
104952
104952
104953
104955
104958
104960
104961
104962
104963
104963
104964
104964
104964
104964
104964
104964
104964
104964
104963
104962
104962
104961
104959
104956
104954
104953
104953
104952
104898
104899
104898
104898
104899
104902
104905
104908
104910
104911
104912
104913
104913
104914
104914
104914
104914
104914
104914
104913
104913
104912
104911
104910
104908
104905
104903
104902
104902
104902
104846
104845
104845
104845
104846
104850
104854
104856
104858
104860
104861
104862
104863
104863
104863
104863
104863
104863
104863
104863
104862
104861
104860
104859
104857
104854
104851
104850
104850
104851
104793
104791
104791
104792
104795
104799
104802
104805
104807
104808
104810
104811
104811
104812
104812
104812
104812
104812
104812
104811
104811
104810
104809
104808
104806
104802
104800
104799
104799
104800
104740
104738
104738
104741
104744
104748
104751
104753
104755
104757
104758
104759
104760
104760
104760
104761
104761
104760
104760
104760
104759
104758
104757
104756
104754
104751
104748
104747
104747
104748
104687
104686
104687
104689
104693
104697
104700
104702
104703
104705
104706
104707
104708
104708
104708
104709
104709
104708
104708
104708
104707
104706
104705
104704
104702
104699
104697
104695
104696
104696
104635
104634
104635
104638
104642
104645
104648
104650
104651
104652
104653
104654
104655
104656
104656
104656
104656
104656
104655
104655
104654
104653
104653
104652
104650
104647
104645
104644
104644
104644
104583
104582
104584
104586
104589
104593
104596
104597
104598
104600
104601
104601
104602
104603
104603
104603
104603
104603
104602
104602
104601
104600
104599
104599
104597
104595
104593
104592
104592
104592
104530
104530
104531
104534
104536
104540
104543
104544
104545
104546
104547
104548
104549
104549
104549
104549
104549
104549
104549
104548
104548
104547
104546
104545
104544
104542
104541
104540
104539
104539
104477
104477
104478
104480
104483
104486
104489
104490
104492
104493
104493
104494
104495
104495
104495
104495
104495
104495
104495
104494
104493
104493
104492
104491
104490
104489
104488
104487
104486
104486
104422
104422
104423
104425
104428
104432
104435
104436
104437
104438
104439
104440
104440
104441
104441
104441
104441
104441
104440
104439
104439
104438
104437
104437
104435
104434
104434
104433
104432
104432
104367
104367
104368
104370
104373
104377
104380
104382
104382
104383
104384
104385
104385
104386
104386
104386
104386
104385
104385
104384
104383
104383
104382
104381
104380
104379
104379
104379
104377
104377
104310
104310
104311
104314
104317
104321
104325
104326
104327
104328
104329
104329
104330
104330
104330
104330
104330
104330
104329
104329
104328
104327
104326
104324
104323
104323
104322
104322
104321
104320
104252
104253
104254
104257
104261
104265
104269
104270
104271
104272
104273
104273
104274
104274
104274
104274
104274
104274
104273
104272
104271
104270
104269
104267
104266
104265
104265
104265
104264
104263
104194
104196
104197
104200
104203
104208
104212
104213
104214
104215
104216
104217
104218
104218
104218
104218
104218
104217
104217
104216
104214
104213
104211
104210
104208
104207
104206
104206
104205
104205
104137
104138
104139
104142
104146
104150
104154
104156
104157
104158
104159
104160
104161
104161
104161
104161
104161
104160
104159
104158
104157
104156
104154
104152
104150
104149
104148
104147
104146
104146
104079
104080
104082
104084
104088
104092
104096
104098
104100
104101
104102
104103
104103
104104
104104
104104
104103
104103
104102
104101
104099
104098
104096
104093
104091
104090
104089
104088
104087
104087
104021
104022
104023
104026
104029
104033
104037
104040
104041
104043
104044
104045
104045
104046
104046
104046
104046
104045
104044
104043
104041
104040
104037
104035
104033
104032
104031
104029
104028
104028
103964
103964
103965
103967
103971
103975
103979
103982
103983
103985
103986
103987
103987
103988
103988
103988
103987
103987
103986
103985
103983
103982
103980
103977
103975
103974
103972
103970
103970
103970
103905
103905
103907
103909
103912
103916
103920
103923
103925
103926
103927
103928
103929
103929
103930
103929
103929
103928
103928
103926
103925
103924
103922
103920
103918
103916
103914
103911
103912
103912
103846
103846
103848
103850
103853
103857
103862
103865
103866
103868
103869
103870
103870
103871
103871
103871
103871
103870
103869
103868
103867
103866
103864
103862
103860
103858
103855
103853
103854
103854
103787
103787
103789
103791
103794
103798
103803
103806
103807
103809
103810
103811
103811
103812
103812
103812
103812
103811
103810
103809
103808
103807
103806
103804
103802
103800
103798
103796
103796
103796
103727
103727
103729
103731
103734
103738
103743
103746
103748
103749
103750
103751
103752
103752
103752
103752
103752
103752
103751
103750
103750
103748
103747
103746
103744
103742
103740
103738
103737
103737
103666
103667
103668
103670
103673
103678
103683
103686
103688
103689
103690
103691
103692
103692
103692
103692
103692
103692
103691
103691
103690
103689
103688
103687
103685
103684
103681
103680
103679
103678
103605
103605
103606
103609
103612
103616
103621
103625
103627
103628
103629
103630
103631
103631
103632
103632
103632
103632
103631
103631
103630
103629
103628
103627
103626
103625
103623
103622
103620
103618
103543
103543
103544
103547
103550
103554
103559
103563
103565
103566
103568
103569
103569
103570
103570
103571
103571
103570
103570
103570
103569
103568
103568
103567
103566
103565
103563
103563
103560
103559
103479
103479
103481
103483
103487
103491
103496
103500
103502
103504
103505
103507
103507
103508
103508
103509
103509
103509
103508
103508
103508
103507
103506
103505
103505
103504
103502
103502
103499
103497
103415
103415
103416
103420
103424
103428
103433
103437
103439
103441
103443
103444
103445
103445
103446
103446
103446
103446
103446
103446
103445
103445
103444
103443
103442
103441
103440
103439
103436
103435
103349
103350
103352
103355
103360
103365
103370
103373
103376
103377
103379
103380
103381
103382
103382
103383
103383
103383
103383
103382
103382
103382
103381
103380
103379
103377
103376
103374
103372
103371
103283
103284
103287
103291
103296
103301
103306
103309
103312
103314
103315
103316
103317
103318
103318
103319
103319
103319
103319
103319
103318
103318
103317
103316
103315
103313
103311
103308
103306
103306
103217
103218
103221
103226
103231
103237
103242
103245
103248
103250
103251
103252
103253
103254
103254
103255
103255
103255
103255
103255
103254
103254
103253
103252
103250
103247
103245
103243
103241
103239
103151
103152
103156
103160
103166
103172
103177
103181
103183
103185
103187
103188
103189
103190
103190
103191
103191
103191
103191
103190
103190
103189
103188
103187
103185
103182
103180
103177
103175
103173
103086
103087
103090
103095
103101
103107
103113
103116
103119
103121
103123
103124
103125
103125
103126
103126
103127
103126
103126
103126
103125
103125
103124
103122
103120
103117
103115
103112
103109
103107
103021
103023
103025
103029
103035
103041
103047
103052
103054
103056
103058
103059
103060
103061
103061
103062
103062
103062
103062
103061
103061
103060
103059
103057
103055
103053
103050
103046
103043
103042
102955
102957
102959
102963
102968
102975
102981
102986
102989
102991
102993
102994
102995
102996
102996
102997
102997
102997
102997
102996
102996
102995
102994
102992
102990
102988
102984
102981
102977
102976
102889
102890
102893
102896
102901
102908
102914
102920
102923
102926
102927
102929
102930
102930
102931
102931
102932
102932
102931
102931
102930
102929
102928
102926
102924
102922
102918
102914
102911
102910
102822
102823
102826
102829
102834
102840
102846
102852
102856
102859
102861
102863
102864
102864
102865
102865
102866
102866
102865
102865
102864
102863
102862
102860
102857
102854
102851
102847
102844
102843
102755
102756
102759
102762
102766
102772
102778
102784
102789
102792
102794
102796
102797
102798
102799
102799
102799
102799
102799
102798
102797
102796
102794
102792
102789
102786
102783
102779
102777
102775
102689
102691
102692
102695
102699
102705
102711
102716
102721
102725
102727
102729
102730
102731
102731
102732
102732
102732
102732
102731
102730
102728
102726
102724
102721
102718
102715
102711
102709
102707
102623
102625
102627
102630
102633
102638
102643
102648
102653
102657
102659
102661
102662
102663
102664
102664
102664
102664
102664
102663
102662
102661
102658
102656
102653
102650
102647
102643
102641
102638
102559
102560
102562
102565
102568
102571
102576
102581
102585
102588
102591
102593
102594
102595
102595
102596
102596
102596
102595
102595
102594
102593
102591
102588
102585
102582
102579
102575
102572
102570
102497
102497
102498
102500
102503
102506
102510
102514
102518
102521
102523
102525
102526
102526
102527
102527
102527
102527
102527
102527
102526
102525
102523
102521
102518
102515
102511
102507
102504
102503
102435
102433
102434
102436
102438
102441
102444
102448
102451
102453
102455
102457
102457
102458
102459
102459
102459
102459
102459
102458
102458
102457
102456
102454
102451
102448
102444
102439
102437
102437
102372
102370
102371
102373
102375
102377
102379
102382
102385
102386
102388
102389
102390
102390
102390
102391
102391
102391
102391
102391
102391
102390
102388
102387
102384
102381
102376
102372
102370
102371
102308
102306
102307
102310
102312
102313
102315
102317
102319
102320
102321
102322
102322
102322
102322
102323
102323
102323
102323
102323
102323
102322
102321
102320
102318
102314
102310
102306
102304
102304
102243
102243
102245
102247
102248
102249
102250
102251
102253
102253
102254
102254
102255
102255
102255
102255
102255
102255
102255
102255
102255
102255
102254
102253
102251
102248
102244
102241
102238
102238
102177
102178
102181
102183
102185
102185
102186
102186
102187
102187
102187
102187
102187
102187
102187
102187
102187
102187
102188
102188
102188
102187
102187
102185
102184
102182
102179
102175
102172
102171
102112
102114
102116
102119
102120
102120
102121
102121
102121
102121
102120
102120
102120
102120
102120
102120
102120
102120
102120
102120
102120
102120
102119
102118
102117
102115
102112
102108
102106
102104
102045
102047
102050
102052
102054
102054
102055
102055
102054
102054
102054
102053
102053
102053
102052
102052
102052
102052
102052
102052
102052
102052
102051
102051
102049
102047
102043
102040
102038
102036
101977
101979
101981
101983
101986
101987
101988
101988
101988
101987
101986
101986
101985
101985
101985
101985
101985
101984
101984
101984
101984
101984
101983
101982
101980
101977
101973
101970
101968
101966
101906
101908
101910
101913
101917
101918
101920
101921
101921
101920
101919
101919
101918
101918
101918
101917
101917
101917
101917
101916
101916
101916
101915
101913
101910
101906
101901
101897
101895
101894
101833
101834
101837
101842
101846
101849
101851
101852
101853
101852
101852
101851
101851
101850
101850
101850
101850
101849
101849
101848
101848
101848
101846
101843
101839
101834
101828
101823
101820
101819
101759
101760
101763
101769
101774
101778
101781
101783
101785
101784
101784
101784
101783
101783
101782
101782
101782
101782
101781
101781
101780
101779
101777
101773
101767
101760
101753
101748
101745
101743
101685
101686
101689
101695
101702
101707
101711
101714
101716
101716
101716
101716
101716
101715
101715
101715
101715
101714
101714
101713
101712
101710
101707
101701
101695
101687
101679
101673
101670
101669
101611
101612
101615
101621
101628
101636
101640
101644
101647
101648
101649
101649
101649
101648
101648
101648
101647
101647
101646
101645
101644
101641
101636
101630
101622
101613
101606
101601
101597
101596
101538
101539
101542
101548
101555
101563
101569
101574
101577
101580
101581
101581
101581
101581
101581
101581
101580
101580
101579
101578
101576
101572
101566
101559
101550
101542
101535
101530
101526
101525
101466
101467
101470
101476
101483
101491
101499
101504
101508
101511
101513
101514
101514
101514
101514
101514
101513
101512
101511
101510
101507
101502
101496
101488
101480
101472
101466
101461
101457
101456
101397
101398
101401
101405
101412
101420
101428
101434
101439
101442
101445
101446
101446
101447
101447
101446
101446
101445
101444
101442
101438
101433
101426
101419
101411
101404
101398
101393
101390
101389
101329
101330
101333
101337
101343
101351
101358
101365
101369
101373
101376
101378
101379
101379
101379
101379
101378
101378
101376
101374
101369
101364
101358
101351
101344
101338
101332
101327
101324
101323
101263
101264
101266
101270
101276
101282
101289
101296
101300
101304
101308
101310
101311
101311
101311
101311
101311
101310
101308
101305
101301
101296
101290
101284
101278
101272
101266
101262
101260
101259
101199
101200
101202
101206
101211
101217
101223
101229
101233
101237
101240
101242
101244
101244
101245
101245
101244
101243
101241
101237
101233
101229
101224
101219
101213
101208
101203
101199
101197
101197
101142
101142
101144
101147
101152
101157
101162
101168
101172
101175
101177
101180
101181
101183
101183
101183
101183
101181
101178
101175
101172
101168
101164
101159
101154
101149
101145
101143
101142
101142
101094
101094
101095
101097
101101
101106
101111
101115
101119
101122
101124
101126
101128
101129
101130
101130
101129
101127
101125
101122
101119
101116
101113
101109
101104
101100
101097
101095
101095
101095
101050
101050
101050
101052
101055
101059
101064
101068
101071
101073
101075
101077
101078
101080
101081
101081
101079
101078
101076
101074
101071
101069
101066
101063
101058
101055
101053
101052
101052
101052
101008
101009
101009
101010
101012
101015
101020
101023
101026
101027
101029
101030
101032
101033
101034
101034
101033
101031
101030
101028
101026
101024
101022
101019
101015
101012
101011
101011
101011
101010
100968
100969
100969
100969
100970
100973
100977
100980
100982
100984
100985
100986
100987
100988
100989
100989
100988
100987
100986
100984
100983
100982
100980
100976
100973
100971
100971
100971
100971
100970
100928
100929
100929
100929
100929
100931
100935
100938
100940
100942
100943
100944
100945
100945
100946
100946
100945
100945
100944
100943
100942
100940
100938
100935
100932
100931
100931
100931
100931
100930
100888
100889
100889
100889
100889
100891
100894
100897
100900
100901
100902
100903
100904
100904
100904
100904
100904
100904
100903
100902
100901
100900
100898
100895
100892
100891
100891
100892
100891
100890
100848
100849
100850
100849
100849
100851
100853
100857
100860
100861
100862
100863
100864
100864
100864
100864
100864
100864
100863
100863
100862
100860
100858
100854
100852
100851
100852
100852
100851
100850
100808
100809
100810
100810
100810
100810
100813
100816
100820
100822
100823
100824
100824
100824
100824
100824
100824
100824
100824
100823
100822
100820
100817
100814
100812
100812
100812
100813
100811
100810
100768
100768
100770
100770
100770
100770
100772
100775
100779
100782
100783
100784
100784
100785
100785
100785
100785
100785
100784
100784
100782
100780
100777
100774
100772
100772
100773
100773
100771
100770
100728
100728
100729
100730
100729
100730
100731
100734
100738
100741
100742
100743
100744
100745
100745
100745
100745
100745
100744
100743
100742
100739
100736
100734
100732
100732
100733
100732
100731
100730
100688
100688
100688
100688
100689
100689
100690
100693
100697
100700
100702
100703
100704
100704
100705
100705
100705
100704
100704
100703
100701
100698
100695
100693
100692
100692
100692
100691
100690
100690
100648
100647
100647
100647
100648
100648
100650
100653
100656
100659
100661
100662
100663
100664
100665
100665
100665
100664
100663
100662
100660
100658
100655
100652
100651
100651
100650
100650
100649
100650
100608
100607
100606
100607
100607
100608
100610
100612
100616
100619
100621
100622
100623
100624
100625
100625
100625
100624
100623
100622
100620
100617
100615
100612
100611
100610
100610
100609
100609
100609
100568
100567
100567
100567
100568
100569
100571
100573
100576
100579
100581
100583
100584
100585
100586
100586
100586
100585
100584
100582
100581
100578
100575
100573
100572
100571
100570
100569
100568
100569
100528
100527
100528
100528
100529
100530
100532
100534
100538
100541
100543
100544
100546
100547
100548
100548
100547
100546
100545
100544
100542
100540
100537
100535
100533
100532
100531
100530
100529
100529
100488
100488
100489
100490
100491
100492
100494
100496
100499
100503
100505
100506
100508
100509
100510
100510
100509
100509
100507
100506
100504
100501
100499
100496
100495
100494
100493
100491
100489
100489
100447
100448
100449
100450
100452
100453
100455
100457
100461
100464
100466
100468
100469
100471
100471
100471
100471
100470
100469
100467
100465
100463
100460
100458
100456
100455
100453
100451
100449
100447
100404
100406
100408
100410
100411
100412
100414
100417
100421
100424
100426
100428
100430
100431
100431
100431
100431
100430
100429
100427
100425
100423
100420
100418
100417
100415
100413
100410
100407
100404
100361
100362
100366
100368
100369
100371
100373
100376
100379
100382
100385
100387
100388
100389
100390
100390
100390
100389
100387
100386
100384
100382
100379
100377
100375
100374
100371
100367
100363
100360
100318
100319
100322
100325
100326
100328
100330
100333
100337
100340
100342
100344
100346
100347
100347
100347
100347
100346
100345
100343
100342
100339
100337
100335
100333
100331
100329
100325
100320
100319
100278
100278
100280
100283
100284
100286
100288
100291
100294
100297
100299
100301
100302
100303
100304
100304
100304
100303
100302
100300
100299
100296
100294
100293
100291
100290
100287
100283
100280
100279
100239
100239
100240
100242
100244
100245
100246
100249
100251
100254
100256
100258
100259
100260
100261
100261
100261
100260
100259
100258
100256
100254
100252
100251
100251
100250
100248
100244
100242
100242
100204
100203
100204
100205
100207
100207
100208
100209
100211
100214
100215
100216
100217
100218
100219
100219
100219
100219
100218
100217
100216
100215
100214
100213
100214
100214
100212
100210
100209
100209
100173
100172
100172
100173
100174
100174
100174
100174
100175
100177
100177
100178
100178
100179
100179
100180
100180
100180
100180
100180
100180
100179
100179
100180
100180
100181
100180
100179
100179
100180
100145
100144
100144
100145
100145
100145
100144
100144
100144
100144
100145
100145
100145
100145
100145
100145
100146
100146
100147
100148
100148
100148
100149
100150
100151
100152
100152
100152
100152
100153
100120
100120
100120
100120
100120
100119
100118
100117
100117
100117
100116
100116
100116
100115
100115
100116
100116
100117
100118
100119
100120
100121
100123
100124
100126
100127
100127
100128
100128
100129
100098
100097
100097
100097
100097
100096
100095
100094
100093
100092
100091
100090
100090
100090
100090
100090
100090
100091
100092
100094
100095
100097
100099
100101
100102
100103
100104
100105
100106
100107
100077
100076
100076
100076
100076
100075
100075
100073
100072
100071
100070
100069
100069
100068
100068
100069
100069
100070
100071
100072
100074
100076
100078
100079
100081
100082
100082
100084
100085
100086
100058
100057
100057
100057
100057
100057
100057
100056
100055
100054
100054
100053
100053
100053
100053
100053
100053
100053
100054
100055
100057
100058
100060
100061
100061
100062
100062
100063
100064
100066
100041
100040
100040
100041
100042
100042
100043
100042
100042
100042
100041
100041
100041
100041
100041
100041
100041
100041
100041
100042
100043
100043
100044
100045
100045
100045
100044
100044
100045
100046
100025
100026
100027
100028
100029
100030
100031
100031
100031
100031
100031
100031
100031
100031
100031
100031
100031
100031
100031
100031
100031
100031
100031
100031
100031
100030
100029
100028
100028
100028
100014
100015
100016
100018
100019
100020
100021
100022
100022
100023
100023
100023
100023
100023
100023
100023
100023
100023
100023
100023
100022
100022
100021
100021
100020
100019
100017
100016
100015
100015
100007
100008
100009
100011
100012
100013
100014
100015
100015
100016
100016
100017
100017
100017
100017
100017
100017
100017
100016
100016
100016
100015
100014
100013
100012
100011
100009
100008
100007
100007
100004
100004
100005
100006
100007
100008
100009
100009
100010
100010
100011
100011
100011
100012
100012
100012
100012
100011
100011
100011
100010
100009
100008
100008
100007
100005
100004
100004
100004
100004
100003
100003
100003
100003
100004
100004
100005
100005
100006
100006
100006
100007
100007
100007
100007
100007
100007
100007
100007
100006
100006
100005
100005
100004
100004
100003
100003
100003
100003
100003
100003
100003
100003
100003
100003
100003
100003
100003
100003
100004
100004
100004
100004
100004
100004
100004
100004
100004
100004
100004
100003
100003
100003
100003
100003
100003
100003
100003
100003
100003
100003
100003
100003
100003
100003
100003
100003
100003
100003
100003
100003
100003
100003
100003
100003
100003
100003
100003
100003
100003
100003
100003
100003
100003
100003
100003
100003
100003
100003
100003
100003
100003
100003
100003
100003
100003
100003
100003
100003
100003
100003
100003
100003
100003
100003
100003
100003
100003
100003
100003
100003
100003
100003
100003
100003
100003
100003
100003
100003
100003
100003
100003
100003
100003
100003
100003
100003
100003
100003
100003
100003
100003
100003
100003
100003
100003
100003
100003
100003
100003
100003
100003