/*--------------------------------*- C++ -*----------------------------------*\
| =========                 |                                                 |
| \\      /  F ield         | OpenFOAM: The Open Source CFD Toolbox           |
|  \\    /   O peration     | Version:  2.3.0                                 |
|   \\  /    A nd           | Web:      www.OpenFOAM.org                      |
|    \\/     M anipulation  |                                                 |
\*---------------------------------------------------------------------------*/
FoamFile
{
    version     2.0;
    format      ascii;
    class       volScalarField;
    location    "2.3";
    object      k.air;
}
// * * * * * * * * * * * * * * * * * * * * * * * * * * * * * * * * * * * * * //

dimensions      [0 2 -2 0 0 0 0];

internalField   nonuniform List<scalar> 
10000
(
1.27506
1.01522
0.801754
0.427659
0.0426702
0.0208224
0.00419752
0.00393179
0.00202997
0.000674287
0.000412511
0.013664
0.0180458
0.0226237
0.0107356
0.0285282
0.17509
0.453812
0.52957
0.749098
3.68798
1.72988
1.42387
0.568821
0.00356673
0.000301429
5.5878e-05
9.59729e-05
6.53542e-05
0.000131736
0.000223803
0.00110489
0.000537869
0.000440454
0.000303442
0.0020438
0.11711
0.997025
1.01275
1.24772
11.3695
4.85983
4.03161
2.36471
0.0117057
0.0125343
0.000420681
6.55395e-05
5.66744e-05
7.3543e-05
0.00107599
0.000802733
0.00104278
0.000396577
0.000130919
0.00266096
0.568984
3.30015
3.02787
4.36839
10.625
14.3544
11.71
7.88533
0.0288994
0.000207267
4.15548e-05
4.08925e-05
4.22242e-05
4.08064e-05
4.10801e-05
4.10416e-05
3.93288e-05
4.26786e-05
5.89414e-05
0.00634729
2.16502
11.258
11.7745
14.5243
10.7872
9.5252
10.7356
7.11597
0.0426487
0.000197457
4.88107e-05
4.34993e-05
4.39923e-05
4.45565e-05
4.33437e-05
4.82527e-05
4.58166e-05
4.79518e-05
6.33476e-05
0.00835233
1.75026
12.3863
9.15469
14.3406
10.2226
3.37322
10.1235
2.64027
0.0508436
0.000315456
4.43824e-05
4.25351e-05
4.36667e-05
4.35731e-05
4.13532e-05
4.18362e-05
4.16633e-05
4.58787e-05
6.26637e-05
0.00919254
0.472407
10.7467
1.19369
14.4984
9.10048
9.43032
9.22838
7.50169
0.146126
0.000876488
4.80344e-05
4.57718e-05
4.6338e-05
4.78907e-05
4.47749e-05
4.69033e-05
4.59027e-05
5.08694e-05
8.3175e-05
0.0176044
0.272097
6.58351
6.22734
14.4208
6.79699
8.92814
9.31928
7.42311
0.449246
0.00187227
0.000112762
0.000109624
0.00011793
0.000123596
9.7323e-05
0.00011585
0.00011599
0.000126833
0.000254156
0.0324711
0.269676
0.200191
8.0381
13.3064
2.43867
6.06029
9.497
9.18345
0.674133
0.0217461
0.00699433
0.00507407
0.00734637
0.00659727
0.00475863
0.00583038
0.00622952
0.00647718
0.0122683
0.0571054
0.396493
0.236301
7.74146
5.41618
5.3237
15.1194
5.352
9.55962
0.61764
0.0651476
0.0714382
0.0555066
0.0691382
0.0688732
0.0537691
0.0695692
0.0713743
0.0724798
0.0812912
0.0941174
2.11716
0.201164
1.18757
17.538
11.0167
15.1402
17.0423
11.9375
1.26191
0.142156
0.0915477
0.083844
0.0879317
0.0881385
0.0843642
0.0879335
0.0891304
0.0899391
0.0913147
0.109815
2.25624
0.224465
0.504815
16.5955
16.9835
21.6864
7.25643
14.317
2.35524
0.332077
0.130601
0.0839479
0.0868044
0.0880177
0.0851227
0.0844038
0.0853237
0.0887537
0.0900324
0.101688
1.8532
0.231815
0.514797
19.0228
20.3411
29.8873
22.4452
14.0981
4.61193
0.868999
0.22479
0.0964511
0.100889
0.103924
0.0778619
0.098695
0.100721
0.107413
0.111374
0.0951613
1.30038
0.194001
1.02339
19.5861
21.2626
41.9017
35.4342
18.5013
7.2504
1.97566
0.575303
0.238424
0.122816
0.103266
0.0794441
0.0988009
0.106348
0.118084
0.121602
0.0708866
1.01447
0.101067
3.25926
18.6582
19.7719
25.201
32.9924
21.1268
9.49513
3.47478
1.1812
0.530339
0.241402
0.121299
0.0822506
0.103304
0.11149
0.129248
0.0998685
0.0774502
1.09555
0.0834151
11.3252
16.1346
18.5068
33.5718
26.8981
26.7433
11.6042
4.83108
1.98427
0.907394
0.454329
0.188623
0.0927604
0.113848
0.112696
0.0983975
0.0955148
0.0631684
0.504999
0.0646303
9.59599
13.7053
13.5498
17.354
21.2661
26.385
12.3779
5.74511
2.85131
1.40707
0.694218
0.302721
0.120857
0.123153
0.113254
0.0909012
0.0841257
0.0526777
0.154878
0.0443407
7.88213
11.6347
6.7127
13.0224
34.5927
25.5575
12.626
6.98503
3.85445
2.0302
0.978828
0.430571
0.16487
0.105224
0.113589
0.102237
0.0974796
0.0532663
0.043807
0.0310222
6.26899
6.51772
1.58049
5.72858
12.2173
20.236
11.499
7.27027
4.48515
2.57127
1.28981
0.557436
0.21996
0.105155
0.0830819
0.0829276
0.0834184
0.061286
0.00673258
0.0141594
4.4766
1.80939
0.0606183
0.921559
5.59238
10.0723
9.25531
6.97308
4.73473
2.88338
1.48937
0.633791
0.211102
0.0246074
0.049489
0.0458191
0.0332271
0.0384463
0.000775311
0.0019266
1.48194
0.251927
1.24668
1.00273
0.793385
0.431392
0.0433631
0.0195969
0.00392855
0.00440057
0.00146835
0.00128009
0.000391528
0.0114183
0.015434
0.0199459
0.011422
0.0296544
0.183093
0.452114
0.529454
0.751182
3.42458
1.69822
1.40789
0.614636
0.00330037
0.000245971
4.66721e-05
9.23501e-05
6.54662e-05
0.000132621
0.00024564
0.00111746
0.000478118
0.000380808
0.000288888
0.00249686
0.123688
0.96478
0.967129
1.21894
8.34459
4.40885
3.75063
2.13022
0.0117258
0.0122217
0.000385827
6.44373e-05
5.5885e-05
7.17482e-05
0.00101011
0.000815956
0.000578907
0.000219223
0.000139288
0.00264268
0.432839
2.98927
2.45395
3.95758
7.98649
9.93528
8.52173
5.43306
0.0256971
0.00018754
4.10621e-05
4.06791e-05
4.19688e-05
4.05622e-05
4.05635e-05
4.06145e-05
3.90693e-05
4.21502e-05
5.88746e-05
0.00590668
1.25727
7.64531
6.8023
10.3923
8.05144
6.15065
7.96998
4.82249
0.042449
0.000213783
4.8209e-05
4.32121e-05
4.36618e-05
4.42445e-05
4.31091e-05
4.78884e-05
4.55619e-05
4.74435e-05
6.1952e-05
0.00756123
1.06006
8.14225
4.44526
10.4036
7.49264
3.13298
7.49851
2.489
0.0543928
0.000322253
4.39019e-05
4.2251e-05
4.33221e-05
4.32134e-05
4.11518e-05
4.15667e-05
4.14289e-05
4.52937e-05
6.18691e-05
0.00780866
0.433516
6.27618
1.04713
10.4808
6.54256
7.01312
6.94108
5.82029
0.153556
0.000897813
4.6803e-05
4.47455e-05
4.51274e-05
4.65543e-05
4.39101e-05
4.57477e-05
4.48029e-05
4.93537e-05
7.68243e-05
0.0159837
0.273603
2.63172
3.18685
10.3998
4.62377
6.75935
6.93237
5.92472
0.439387
0.00186856
0.000101616
0.000100375
0.000105628
0.000110312
8.94544e-05
0.000103572
0.000103363
0.000112668
0.000220002
0.0314724
0.274012
0.192818
5.60403
9.29303
2.42932
5.75762
7.11812
7.4548
0.647496
0.0213995
0.00599961
0.00451251
0.00635615
0.00569396
0.00425693
0.0049792
0.00530513
0.00549181
0.0102563
0.0585063
0.324975
0.228864
5.15393
4.97792
5.30982
12.5454
5.24062
8.15589
0.648928
0.0720798
0.0730708
0.0591794
0.0713908
0.0711121
0.0576675
0.0718822
0.0737069
0.0747238
0.0813686
0.0909179
0.933716
0.209174
1.12292
12.3238
11.0124
13.3236
14.5098
10.6445
1.26989
0.148099
0.0923827
0.0843772
0.0884964
0.0886741
0.0847955
0.0885845
0.0898159
0.090606
0.0923513
0.116893
1.33617
0.230903
0.460641
11.7907
16.9808
21.6157
12.1796
13.0225
2.36486
0.344113
0.126315
0.0847641
0.0879045
0.0889899
0.0858059
0.0856387
0.086667
0.0899229
0.0913721
0.105787
1.25466
0.238285
0.463436
13.2461
20.3361
29.6028
22.3576
13.3259
4.6375
0.884207
0.228692
0.0966162
0.0945288
0.0959985
0.0789591
0.0890506
0.0914919
0.100331
0.104408
0.0916974
0.961422
0.206495
0.923799
13.6342
21.2449
38.348
34.2825
18.4561
7.27186
1.99142
0.582717
0.243271
0.120557
0.0970066
0.0758176
0.0897386
0.0977369
0.112278
0.114654
0.0760772
0.777618
0.103862
2.75495
12.9883
19.7687
25.1291
30.3951
21.0628
9.49456
3.49117
1.18994
0.536775
0.244284
0.118787
0.0795998
0.0958999
0.103654
0.123125
0.100807
0.068955
0.778728
0.0557113
7.11708
11.0632
18.4903
33.1285
24.8557
25.8246
11.6215
4.84813
1.99406
0.914704
0.459067
0.189766
0.0918511
0.107576
0.105044
0.0992551
0.0967998
0.0607182
0.485387
0.0377722
6.07313
8.94498
13.5701
17.1896
20.3303
25.6124
12.3966
5.76202
2.86191
1.41506
0.69973
0.305891
0.121665
0.117451
0.106264
0.0920243
0.0857981
0.0532267
0.17201
0.0244879
4.73191
7.02236
6.7198
13.0097
32.0716
24.8117
12.645
7.00182
3.86596
2.03884
0.984879
0.434813
0.166677
0.105998
0.107704
0.095167
0.0882745
0.0534771
0.0682879
0.0170381
3.58858
3.63918
1.59138
5.73594
12.1993
19.5731
11.516
7.28588
4.497
2.58026
1.29675
0.562731
0.220225
0.107458
0.0841898
0.0841994
0.0854976
0.0577448
0.0131719
0.00750304
2.49982
0.927643
0.0626882
0.925441
5.59665
10.0783
9.27432
6.98724
4.74616
2.8925
1.49648
0.639255
0.211591
0.0372108
0.0524991
0.049513
0.0396885
0.0425779
0.000963609
0.000892874
0.557713
0.0985952
1.22775
0.994821
0.787847
0.431079
0.0436818
0.0186784
0.00380286
0.00463039
0.00131826
0.00138493
0.000390348
0.010369
0.0142196
0.0187267
0.0120288
0.0306859
0.185264
0.442832
0.523804
0.751831
3.11102
1.65244
1.38403
0.623736
0.00280046
0.000224965
4.35637e-05
9.13112e-05
6.41007e-05
0.00013278
0.000255752
0.00118105
0.000515993
0.000407727
0.000338711
0.00288798
0.133727
0.914423
0.905919
1.17424
6.32015
3.85133
3.39464
1.86131
0.0115242
0.0118074
0.000367975
6.32988e-05
5.50631e-05
7.04869e-05
0.00096245
0.000819656
0.000405639
0.000186115
0.000142356
0.00263068
0.308549
2.59809
1.8541
3.44592
6.15519
7.00437
6.35411
3.85377
0.0242013
0.000178437
4.0818e-05
4.04512e-05
4.16754e-05
4.03185e-05
4.03264e-05
4.04141e-05
3.89149e-05
4.19108e-05
5.74276e-05
0.00552094
0.727431
5.26872
3.80618
7.62161
6.15753
4.18533
6.05034
3.43059
0.0423853
0.000219148
4.77337e-05
4.28733e-05
4.32926e-05
4.38526e-05
4.28002e-05
4.73812e-05
4.51301e-05
4.69223e-05
5.99802e-05
0.00683042
0.683232
5.3888
1.96902
7.72465
5.62734
2.83404
5.69875
2.29917
0.0576417
0.000323067
4.35571e-05
4.19455e-05
4.29467e-05
4.28555e-05
4.09067e-05
4.12762e-05
4.11439e-05
4.48886e-05
6.06274e-05
0.00689218
0.386221
3.493
0.944542
7.76113
4.82252
5.34453
5.34381
4.64116
0.16464
0.000901288
4.62721e-05
4.42961e-05
4.46132e-05
4.59815e-05
4.35263e-05
4.52431e-05
4.4327e-05
4.87046e-05
7.44807e-05
0.0148008
0.27884
0.925344
2.15918
7.68246
3.35167
5.26907
5.30004
4.83933
0.442478
0.00183021
9.75599e-05
9.69275e-05
0.00010111
0.000105427
8.65148e-05
9.91037e-05
9.87753e-05
0.000107519
0.000206778
0.0303187
0.282726
0.199359
3.98237
6.75849
2.41621
5.27392
5.55896
6.17688
0.636446
0.0207163
0.00549627
0.00423488
0.00579274
0.00516367
0.00401668
0.00451922
0.00480381
0.00496579
0.00888594
0.0593236
0.316138
0.229385
3.64304
4.44057
5.28812
10.6864
5.14296
7.06489
0.665855
0.0800667
0.0755253
0.0626611
0.0739814
0.0736711
0.0612776
0.0745748
0.0764351
0.0774064
0.0828486
0.0966101
0.482006
0.222609
1.03301
8.8535
11.0067
12.6821
12.7769
9.60392
1.26964
0.153727
0.0938573
0.0853029
0.0894758
0.0896034
0.0855449
0.0897078
0.0909981
0.0917627
0.0941612
0.127881
0.813384
0.241692
0.405337
8.5462
16.9756
21.4697
14.397
12.0316
2.36843
0.352939
0.124059
0.0861919
0.0899056
0.0908282
0.0869688
0.0879781
0.0891427
0.0920594
0.0938212
0.1136
0.860013
0.2487
0.399719
9.41299
20.3273
29.0873
22.2002
13.0695
4.66099
0.895378
0.231225
0.0975621
0.0916961
0.0924742
0.0809585
0.0852554
0.0876618
0.0969356
0.101103
0.0976602
0.733312
0.21914
0.784104
9.66274
21.2195
35.3429
32.6856
18.3736
7.28717
2.00308
0.58722
0.24689
0.119403
0.0941862
0.0751801
0.086138
0.093917
0.109249
0.111157
0.0861764
0.625495
0.112684
2.1746
9.20583
19.7628
25.0105
28.2702
20.9495
9.49354
3.50325
1.19495
0.541529
0.24632
0.117497
0.0792061
0.0925958
0.0999145
0.119609
0.102541
0.0767357
0.605155
0.043977
4.5007
7.69837
18.4595
32.341
23.5626
25.0075
11.6302
4.86081
1.99999
0.920128
0.46253
0.190605
0.0920402
0.104404
0.101334
0.10083
0.0991097
0.0697097
0.450843
0.0239172
3.87256
5.90241
13.6114
16.9826
20.4327
24.9305
12.4073
5.77464
2.86879
1.421
0.703668
0.308173
0.122645
0.114386
0.10283
0.0941534
0.0889611
0.0632224
0.195562
0.0139539
2.84486
4.22416
6.73354
12.9932
29.9429
24.1437
12.6562
7.01436
3.87401
2.04529
0.989072
0.437844
0.168195
0.107394
0.104699
0.0919609
0.0848304
0.0615479
0.103351
0.00912052
2.05756
2.02094
1.61066
5.75019
12.1738
18.9987
11.5264
7.29755
4.50586
2.58698
1.30192
0.566694
0.220663
0.111119
0.0860909
0.0863753
0.0889906
0.0623058
0.0252999
0.0035027
1.3818
0.52775
0.0653011
0.932586
5.60497
10.0915
9.28889
6.99788
4.75475
2.89936
1.50184
0.643409
0.212425
0.0535029
0.057674
0.0557998
0.0500584
0.0499013
0.000953703
0.000465537
0.180544
0.0148343
1.2316
1.00413
0.796139
0.439086
0.0437975
0.0175157
0.00357329
0.00512727
0.00110104
0.00139575
0.0003983
0.0088333
0.0125487
0.0174699
0.0126802
0.031741
0.191268
0.441179
0.528911
0.766995
2.82673
1.60489
1.35835
0.614033
0.00217845
0.000194707
3.83005e-05
9.04199e-05
6.31629e-05
0.000133031
0.00027435
0.00122137
0.000615907
0.000479071
0.000380004
0.00335332
0.143708
0.853951
0.845227
1.1348
4.96308
3.31214
3.04333
1.61338
0.0113112
0.0113494
0.000334169
6.26413e-05
5.46336e-05
6.93024e-05
0.00090988
0.000826197
0.000225615
0.000163818
0.000147086
0.0026147
0.23603
2.19634
1.36856
2.97561
4.88639
5.03056
4.87026
2.83618
0.0233749
0.000159845
4.05067e-05
4.03467e-05
4.1542e-05
4.02036e-05
4.00039e-05
4.01613e-05
3.85981e-05
4.15811e-05
5.59217e-05
0.00527931
0.445507
3.69045
2.03124
5.75307
4.84181
3.09917
4.71746
2.59824
0.0427418
0.000222057
4.73734e-05
4.27186e-05
4.31217e-05
4.36774e-05
4.26641e-05
4.71587e-05
4.49547e-05
4.66647e-05
5.91756e-05
0.00639133
0.467356
3.5569
1.01115
5.89401
4.34176
2.54385
4.4593
2.11989
0.0603879
0.000317456
4.32785e-05
4.18026e-05
4.27714e-05
4.26824e-05
4.07987e-05
4.11426e-05
4.102e-05
4.45466e-05
5.9881e-05
0.00619816
0.345885
1.78027
0.872262
5.90972
3.65056
4.1904
4.23292
3.81398
0.17541
0.000892298
4.54859e-05
4.36607e-05
4.38912e-05
4.51756e-05
4.2991e-05
4.45434e-05
4.36728e-05
4.77629e-05
7.09123e-05
0.0136004
0.285598
0.362428
1.70877
5.83812
2.6443
4.22145
4.18498
4.06036
0.447796
0.00177752
9.164e-05
9.16153e-05
9.45456e-05
9.83551e-05
8.1923e-05
9.26111e-05
9.21265e-05
0.000100089
0.000187127
0.0289639
0.293774
0.213768
2.91623
5.14526
2.40272
4.75989
4.55032
5.23053
0.634305
0.0199603
0.00472373
0.00377289
0.0050046
0.00445006
0.0036049
0.00385461
0.00408063
0.00419439
0.00735634
0.059387
0.325964
0.238488
2.73686
3.91355
5.26225
9.3242
5.08905
6.22147
0.675092
0.0877374
0.078379
0.0656473
0.0766577
0.0763079
0.0643057
0.0773727
0.0792778
0.0802402
0.0852002
0.107385
0.37849
0.238186
0.93171
6.50773
10.9995
12.5193
11.6653
8.78691
1.26656
0.158348
0.0955667
0.0863573
0.0905971
0.090668
0.0863988
0.0909848
0.0923403
0.0930848
0.09623
0.139256
0.548432
0.254456
0.341732
6.33285
16.9682
21.2576
15.3776
11.2993
2.36949
0.35869
0.123144
0.0878243
0.092416
0.0931902
0.0882797
0.0909835
0.0922729
0.0947457
0.0968867
0.12318
0.622443
0.260792
0.32546
6.82787
20.3164
28.4046
21.9936
13.1035
4.6797
0.902641
0.232272
0.0988416
0.0913109
0.0918824
0.0832941
0.0851348
0.0873594
0.0961468
0.100377
0.107943
0.588183
0.231593
0.621193
6.97587
21.1938
32.8284
31.0044
18.2627
7.29684
2.01073
0.588813
0.249307
0.118964
0.0937439
0.0762919
0.0860443
0.0932931
0.108257
0.110096
0.0981451
0.532563
0.122445
1.62882
6.66184
19.7548
24.8691
26.5802
20.8003
9.49237
3.51119
1.19624
0.544655
0.247494
0.117047
0.0801636
0.0920827
0.0990009
0.118107
0.104731
0.0887822
0.509616
0.039576
2.84084
5.42422
18.4187
31.348
22.8296
24.2841
11.6336
4.8692
2.00205
0.923708
0.464736
0.191064
0.0928601
0.103456
0.100353
0.102801
0.101936
0.0821899
0.41627
0.0171376
2.47601
3.92102
13.6745
16.8285
20.8743
24.333
12.4126
5.78301
2.87198
1.42494
0.706051
0.309556
0.123613
0.11325
0.101891
0.0969089
0.0930695
0.0764864
0.221671
0.00871209
1.69528
2.49692
6.75337
12.9797
28.1594
23.5532
12.6619
7.02268
3.87865
2.04957
0.991422
0.43967
0.169352
0.109104
0.103779
0.0914067
0.0849516
0.0728904
0.13886
0.00517783
1.15518
1.05441
1.63682
5.77085
12.1499
18.5066
11.5319
7.3053
4.51175
2.59144
1.30535
0.569339
0.221137
0.115009
0.0882215
0.0888053
0.0928536
0.0700225
0.0472057
0.00224751
0.676969
0.170125
0.0683843
0.942663
5.6173
10.1131
9.29893
7.00501
4.76049
2.90395
1.50544
0.646236
0.213358
0.0691099
0.0635224
0.0628406
0.0611683
0.0586269
0.00388916
0.00122057
0.0191981
0.00143073
1.22968
1.01177
0.802858
0.445841
0.0436813
0.0162915
0.00339856
0.00562234
0.000991302
0.00137058
0.000429129
0.00744622
0.0108559
0.0161343
0.0133616
0.0328019
0.195534
0.43751
0.531776
0.779295
2.59988
1.56325
1.33479
0.598857
0.00169645
0.000181098
3.56947e-05
9.00557e-05
6.08659e-05
0.000133086
0.000285065
0.00131371
0.000754763
0.000576301
0.00042749
0.00400985
0.156566
0.789257
0.791631
1.10068
4.04646
2.83956
2.7264
1.40913
0.01114
0.0108277
0.000307511
6.13214e-05
5.37251e-05
6.77853e-05
0.000855495
0.000828554
0.000153931
0.000152811
0.000149521
0.00253521
0.210735
1.81365
1.03003
2.58168
4.00021
3.71923
3.84499
2.19196
0.0228005
0.000149931
4.02601e-05
4.01378e-05
4.12654e-05
3.99772e-05
3.97745e-05
3.99847e-05
3.84276e-05
4.13102e-05
5.4254e-05
0.0050676
0.315903
2.61681
1.13611
4.47876
3.91766
2.48779
3.78002
2.10566
0.0431191
0.000222428
4.68378e-05
4.23934e-05
4.27638e-05
4.33031e-05
4.23696e-05
4.66677e-05
4.45602e-05
4.61214e-05
5.78034e-05
0.0059886
0.352085
2.28088
0.707099
4.62605
3.44874
2.28628
3.59495
1.96944
0.0622348
0.000305005
4.29068e-05
4.15107e-05
4.2412e-05
4.23291e-05
4.05764e-05
4.08741e-05
4.07681e-05
4.41122e-05
5.82209e-05
0.00557648
0.318479
0.82214
0.821405
4.63185
2.86086
3.38332
3.45561
3.23142
0.18436
0.000858935
4.49801e-05
4.32544e-05
4.34484e-05
4.46701e-05
4.26423e-05
4.40875e-05
4.32531e-05
4.7168e-05
6.91472e-05
0.0121274
0.292337
0.249118
1.4168
4.56934
2.24668
3.47488
3.42632
3.50008
0.458173
0.00171252
8.88275e-05
8.90659e-05
9.14094e-05
9.49713e-05
7.97166e-05
8.95276e-05
8.8971e-05
9.65676e-05
0.000177214
0.0274153
0.305751
0.231959
2.21113
4.08721
2.39086
4.28474
3.89616
4.53041
0.635777
0.0189567
0.0041479
0.00343865
0.00436369
0.00386016
0.00331011
0.00333323
0.00351135
0.00359343
0.00597804
0.0580095
0.340362
0.252697
2.14882
3.42936
5.23439
8.30919
5.06048
5.57304
0.67936
0.093181
0.0810597
0.0675759
0.079028
0.0786387
0.0662262
0.0798537
0.0818
0.0827804
0.08769
0.118602
0.368551
0.254327
0.827805
4.89216
10.9901
12.4896
10.9917
8.15609
1.26385
0.161189
0.0968802
0.087147
0.0914426
0.0914708
0.0870384
0.0919496
0.0933528
0.0940827
0.0977877
0.147541
0.438283
0.268077
0.271171
4.7885
16.9593
20.9937
15.794
10.7786
2.36945
0.36149
0.122891
0.0890533
0.0948869
0.0955438
0.0892549
0.0939717
0.0953619
0.0973772
0.0998663
0.132557
0.499971
0.273504
0.240839
5.04827
20.3056
27.6213
21.7573
13.2639
4.6904
0.90616
0.23168
0.0998714
0.0922616
0.0928888
0.0850794
0.0868404
0.0888646
0.0968564
0.101112
0.118368
0.50137
0.243318
0.44258
5.12098
21.1731
30.7469
29.4128
18.1319
7.30141
2.0145
0.587461
0.250529
0.118805
0.0946069
0.077745
0.0877227
0.0943886
0.108506
0.110468
0.109493
0.478361
0.131978
1.13839
4.88949
19.7455
24.7265
25.2753
20.6277
9.49152
3.51512
1.19379
0.546199
0.247771
0.117005
0.0813687
0.0930947
0.0996819
0.11791
0.106871
0.10056
0.456888
0.0392771
1.75483
3.83177
18.3733
30.2831
22.462
23.646
11.6341
4.87337
2.00022
0.925481
0.46569
0.191037
0.0936887
0.103833
0.100929
0.104716
0.104644
0.0943725
0.391411
0.0144026
1.54723
2.58645
13.7604
16.7636
21.349
23.8126
12.4144
5.78718
2.87145
1.4269
0.706885
0.310012
0.124291
0.113309
0.102395
0.0996599
0.0971764
0.089475
0.248409
0.00650377
0.945944
1.37874
6.77871
12.9744
26.675
23.0386
12.664
7.02683
3.87986
2.0517
0.991934
0.440279
0.170022
0.110703
0.104104
0.0923106
0.0867507
0.0844282
0.171047
0.00392084
0.522683
0.390428
1.66894
5.79745
12.1339
18.0906
11.5341
7.30917
4.51468
2.59367
1.30707
0.570669
0.221474
0.117744
0.0897904
0.0905876
0.0956642
0.0766915
0.0729987
0.00303213
0.156594
0.0140767
0.0719928
0.955548
5.63368
10.1442
9.30415
7.0086
4.76338
2.90626
1.50726
0.647688
0.214042
0.0803281
0.0679269
0.0681268
0.0694288
0.0658165
0.0150321
0.00379066
0.000740654
0.00122538
1.22762
1.01932
0.809893
0.452228
0.0431868
0.0150051
0.00318124
0.00642502
0.000931352
0.00122713
0.000480543
0.00601259
0.00892966
0.0144487
0.0141037
0.0338662
0.199443
0.434374
0.536294
0.793202
2.42975
1.53232
1.31617
0.588803
0.00151545
0.00017369
3.11107e-05
8.98739e-05
5.91489e-05
0.000132982
0.000299509
0.00135619
0.000934798
0.000669225
0.000496988
0.00531875
0.1702
0.725525
0.735261
1.0726
3.42598
2.44938
2.45317
1.2516
0.0109326
0.0102211
0.000279724
6.06365e-05
5.32767e-05
6.67053e-05
0.000802686
0.000831767
0.000138087
0.000145668
0.000150316
0.00238598
0.209744
1.46424
0.828589
2.26871
3.37806
2.87025
3.13463
1.79772
0.0223728
0.000134131
4.00173e-05
4.00383e-05
4.11331e-05
3.98691e-05
3.95137e-05
3.97893e-05
3.8353e-05
4.1017e-05
5.34186e-05
0.0048441
0.26567
1.86234
0.746572
3.60259
3.26557
2.12708
3.11682
1.81369
0.0432368
0.000215792
4.65012e-05
4.22371e-05
4.25918e-05
4.31234e-05
4.22283e-05
4.64303e-05
4.43717e-05
4.58573e-05
5.7219e-05
0.00565383
0.30128
1.38078
0.608401
3.73885
2.82877
2.07131
2.98922
1.85216
0.0631594
0.000292735
4.26674e-05
4.13705e-05
4.22396e-05
4.2159e-05
4.04699e-05
4.07455e-05
4.06482e-05
4.38171e-05
5.74105e-05
0.00511859
0.302849
0.41678
0.775519
3.73986
2.34862
2.81447
2.91192
2.82063
0.189292
0.000823109
4.42719e-05
4.27153e-05
4.28454e-05
4.3991e-05
4.21882e-05
4.34993e-05
4.2711e-05
4.63594e-05
6.64449e-05
0.0107973
0.298816
0.241393
1.20149
3.68506
2.00521
2.9398
2.91416
3.09706
0.470331
0.00162077
8.47833e-05
8.51347e-05
8.69628e-05
9.02006e-05
7.62591e-05
8.51612e-05
8.45256e-05
9.16555e-05
0.000162877
0.0256764
0.317653
0.252634
1.74053
3.36402
2.37933
3.86992
3.47497
4.01467
0.637602
0.017912
0.00369484
0.00314905
0.00387094
0.00341377
0.00303629
0.00292406
0.00306382
0.00313024
0.00505248
0.0549889
0.354941
0.268472
1.73402
2.9956
5.20595
7.5546
5.0452
5.07883
0.892268
2.92646e-05
0.0824176
2.92646e-05
0.08019
0.0797829
2.92646e-05
0.0810666
0.083023
0.0840251
0.0891154
0.126006
0.378072
0.270614
0.728174
3.75681
10.9781
12.4583
10.5999
7.67399
1.52709
2.92646e-05
2.92646e-05
2.92646e-05
2.92646e-05
2.92646e-05
2.92646e-05
2.92646e-05
2.92646e-05
2.92646e-05
2.92646e-05
0.22011
0.406163
0.282097
0.199598
3.68618
16.9497
20.6917
15.9561
10.426
2.84915
2.92646e-05
0.122575
2.92646e-05
0.0966072
0.097195
2.92646e-05
0.0960669
0.0975097
0.0991898
0.101871
0.139346
0.448578
0.28652
0.152143
3.7982
20.2973
26.8006
21.5087
13.4572
5.71277
2.92646e-05
0.229225
2.92646e-05
0.0933647
0.0941627
2.92646e-05
0.0886562
0.0905257
0.0978782
0.102114
0.125885
0.457195
0.254169
0.257773
3.81302
21.161
29.0432
27.9862
17.9897
9.6339
2.92646e-05
0.583085
2.92646e-05
0.118415
0.0956418
2.92646e-05
0.08951
0.0957395
0.109122
0.111238
0.117524
0.449758
0.140591
0.696646
3.6157
19.7361
24.6005
24.2996
20.4432
14.0542
2.92646e-05
1.18756
2.92646e-05
0.247101
0.116858
2.92646e-05
0.0943379
0.100703
0.118253
0.108304
0.108948
0.430361
0.041539
1.0066
2.67832
18.3298
29.2509
22.3074
23.0844
17.6395
2.92646e-05
1.99449
2.92646e-05
0.465385
0.190386
2.92646e-05
0.104574
0.101872
0.106003
0.106458
0.103098
0.379114
0.0143308
0.879193
1.64231
13.8704
16.7869
21.7506
23.3628
19.1531
2.92646e-05
2.86717
2.92646e-05
0.706165
0.309493
2.92646e-05
0.113785
0.10325
0.101574
0.100035
0.0988677
0.274257
0.00625849
0.355644
0.592555
6.80888
12.9816
25.4486
22.5977
19.3506
2.92646e-05
3.87768
2.92646e-05
0.990608
0.439647
2.92646e-05
0.111681
0.104792
0.0934458
0.0885494
0.0929966
0.199526
0.00394742
0.0913547
0.0658978
1.70646
5.82948
12.1305
17.7452
17.2359
2.92646e-05
2.92646e-05
2.92646e-05
2.92646e-05
2.92646e-05
2.92646e-05
2.92646e-05
2.92646e-05
2.92646e-05
2.92646e-05
0.473592
0.0951654
0.00337564
0.00959567
0.00220405
0.0762301
0.971292
5.65419
10.1854
12.0963
9.70243e-05
9.70243e-05
9.70243e-05
9.70243e-05
9.70243e-05
9.70243e-05
9.70243e-05
9.70243e-05
9.70243e-05
9.70243e-05
0.627209
0.0313265
0.00376426
0.00050863
0.00162189
1.22623
1.02596
0.816435
0.457047
0.0422072
0.0137024
0.00298684
0.00729959
0.000920797
0.00102222
0.000535222
0.00529261
0.0068016
0.0126802
0.01493
0.034826
0.202728
0.430717
0.54105
0.807425
2.30598
1.5105
1.30504
0.582937
0.00149665
0.00017223
2.85308e-05
8.98674e-05
5.6383e-05
0.00013232
0.000307774
0.00143493
0.00114873
0.00080697
0.000587097
0.00638899
0.181615
0.667992
0.679929
1.05055
3.00601
2.14625
2.22402
1.13797
0.0105287
0.00950782
0.000259142
5.92243e-05
5.23212e-05
6.50424e-05
0.000748618
0.0008325
0.000119034
0.00013788
0.000147941
0.00222031
0.217886
1.14875
0.702617
2.02808
2.94111
2.33778
2.64451
1.5652
0.021836
0.00012449
3.97872e-05
3.98409e-05
4.08643e-05
3.96601e-05
3.92996e-05
3.9639e-05
3.82088e-05
4.07079e-05
5.27158e-05
0.00456019
0.251063
1.31943
0.598131
2.99608
2.80605
1.90198
2.64845
1.63888
0.0429084
0.000203696
4.59236e-05
4.19148e-05
4.22364e-05
4.27488e-05
4.19291e-05
4.59197e-05
4.39632e-05
4.53136e-05
5.64951e-05
0.00530055
0.28223
0.794279
0.568965
3.11299
2.401
1.89959
2.56668
1.76507
0.0623575
0.000273892
4.22861e-05
4.10885e-05
4.18956e-05
4.18176e-05
4.02539e-05
4.04908e-05
4.04076e-05
4.33747e-05
5.64728e-05
0.00468501
0.295538
0.301266
0.731874
3.11066
2.02653
2.4123
2.53232
2.53105
0.190476
0.00077132
4.37793e-05
4.23369e-05
4.24431e-05
4.35191e-05
4.18628e-05
4.30707e-05
4.23239e-05
4.57884e-05
6.49025e-05
0.00948195
0.305127
0.254807
1.03934
3.05961
1.85193
2.55645
2.57327
2.80804
0.480266
0.00150318
7.83394e-05
7.85223e-05
7.96968e-05
8.24377e-05
7.06045e-05
7.81424e-05
7.74635e-05
8.3827e-05
0.000144153
0.0229601
0.328728
0.273802
1.41569
2.84595
2.36478
3.52751
3.20543
3.63704
0.642656
0.0170015
0.00357332
0.00304278
0.003727
0.00328229
0.00293342
0.00280429
0.00293063
0.00300352
0.00482071
0.0518393
0.368222
0.285337
1.42657
2.61121
5.17787
6.99664
5.03756
4.70699
1.00237
2.92646e-05
2.92646e-05
2.92646e-05
2.92646e-05
2.92646e-05
2.92646e-05
2.92646e-05
2.92646e-05
2.92646e-05
2.92646e-05
0.345401
0.391139
0.287469
0.633607
2.94034
10.9634
12.3873
10.3793
7.31035
1.63602
2.92646e-05
2.92646e-05
2.92646e-05
2.92646e-05
2.92646e-05
2.92646e-05
2.92646e-05
2.92646e-05
2.92646e-05
2.92646e-05
0.356578
0.403681
0.296768
0.141688
2.87861
16.9401
20.3683
16.0091
10.2042
2.96967
2.92646e-05
2.92646e-05
2.92646e-05
2.92646e-05
2.92646e-05
2.92646e-05
2.92646e-05
2.92646e-05
2.92646e-05
2.92646e-05
0.338774
0.432263
0.299863
0.0808079
2.90336
20.2936
25.9932
21.2626
13.639
5.79524
2.92646e-05
2.92646e-05
2.92646e-05
2.92646e-05
2.92646e-05
2.92646e-05
2.92646e-05
2.92646e-05
2.92646e-05
2.92646e-05
0.309118
0.440013
0.264201
0.104709
2.86794
21.16
27.6654
26.75
17.8426
9.66102
2.92646e-05
2.92646e-05
2.92646e-05
2.92646e-05
2.92646e-05
2.92646e-05
2.92646e-05
2.92646e-05
2.92646e-05
2.92646e-05
0.287374
0.437808
0.147985
0.291773
2.66048
19.7276
24.5051
23.5947
20.2497
13.991
2.92646e-05
2.92646e-05
2.92646e-05
2.92646e-05
2.92646e-05
2.92646e-05
2.92646e-05
2.92646e-05
2.92646e-05
2.92646e-05
0.321002
0.420446
0.0445285
0.446108
1.82885
18.2943
28.3218
22.2637
22.5794
17.5038
2.92646e-05
2.92646e-05
2.92646e-05
2.92646e-05
2.92646e-05
2.92646e-05
2.92646e-05
2.92646e-05
2.92646e-05
2.92646e-05
0.340379
0.377903
0.0157063
0.343349
0.915984
14.0057
16.8847
22.0613
22.9631
19.0465
2.92646e-05
2.92646e-05
2.92646e-05
2.92646e-05
2.92646e-05
2.92646e-05
2.92646e-05
2.92646e-05
2.92646e-05
2.92646e-05
0.391961
0.297744
0.00722544
0.0498923
0.160172
6.8431
13.0046
24.4441
22.2117
19.2583
2.92646e-05
2.92646e-05
2.92646e-05
2.92646e-05
2.92646e-05
2.92646e-05
2.92646e-05
2.92646e-05
2.92646e-05
2.92646e-05
0.487491
0.224134
0.00407954
0.00454714
0.00481465
1.74895
5.86641
12.1435
17.4488
17.0952
2.92646e-05
2.92646e-05
2.92646e-05
2.92646e-05
2.92646e-05
2.92646e-05
2.92646e-05
2.92646e-05
2.92646e-05
2.92646e-05
0.562207
0.110952
0.00264433
0.000884853
0.00199959
0.0812486
0.990072
5.68023
10.2267
12.1434
9.70243e-05
9.70243e-05
9.70243e-05
9.70243e-05
9.70243e-05
9.70243e-05
9.70243e-05
9.70243e-05
9.70243e-05
9.70243e-05
0.628927
0.0351716
0.00256317
0.000504737
0.00128578
1.22627
1.0317
0.822588
0.456348
0.040571
0.0124962
0.00277673
0.00782288
0.00096759
0.000898151
0.000552518
0.00428679
0.00564568
0.0113768
0.0156553
0.0355251
0.205746
0.426439
0.546666
0.82247
2.21731
1.49035
1.29914
0.567062
0.00273271
0.00019391
2.45208e-05
8.87325e-05
5.43606e-05
0.000131558
0.000319528
0.00147332
0.00134912
0.000930226
0.000666424
0.00683106
0.192872
0.605657
0.631335
1.03383
2.722
1.93063
2.03977
1.06495
0.00953929
0.00870068
0.000241061
5.85239e-05
5.18403e-05
6.39592e-05
0.000697364
0.000832538
0.000112424
0.000130641
0.000139045
0.00209631
0.228359
0.883075
0.617773
1.84599
2.63505
2.01384
2.3092
1.43013
0.0210755
0.000110474
3.9595e-05
3.97454e-05
4.07336e-05
3.95591e-05
3.90928e-05
3.94846e-05
3.81252e-05
4.04593e-05
5.22773e-05
0.00420074
0.250979
0.925162
0.538209
2.5729
2.48384
1.75469
2.32094
1.53487
0.0423002
0.0001877
4.55965e-05
4.17572e-05
4.20624e-05
4.25654e-05
4.17827e-05
4.56673e-05
4.37631e-05
4.50445e-05
5.61452e-05
0.00493928
0.276301
0.479528
0.548776
2.66782
2.10758
1.7677
2.27483
1.70173
0.0607096
0.000254475
4.20763e-05
4.09509e-05
4.17277e-05
4.16504e-05
4.01488e-05
4.03668e-05
4.02911e-05
4.31101e-05
5.60947e-05
0.00432978
0.292851
0.285351
0.690714
2.66136
1.829
2.12758
2.26912
2.32716
0.180664
0.000716339
4.32058e-05
4.192e-05
4.19857e-05
4.29971e-05
4.15078e-05
4.2616e-05
4.19108e-05
4.514e-05
6.2568e-05
0.0082511
0.310855
0.276658
0.913437
2.60893
1.75021
2.28286
2.34971
2.60218
0.48331
0.00138346
7.50942e-05
7.5248e-05
7.60876e-05
7.85865e-05
6.77901e-05
7.46505e-05
7.39471e-05
7.99185e-05
0.000132917
0.0202682
0.338423
0.295343
1.17882
2.45793
2.34562
3.2582
3.03345
3.36228
0.646341
0.0156875
0.00338984
0.00287016
0.00351529
0.00309371
0.00275399
0.00262847
0.0027361
0.00282293
0.00455239
0.047811
0.379534
0.303719
1.19121
2.27124
5.15099
6.58588
5.03553
4.43099
1.10227
2.92646e-05
2.92646e-05
2.92646e-05
2.92646e-05
2.92646e-05
2.92646e-05
2.92646e-05
2.92646e-05
2.92646e-05
2.92646e-05
0.457651
0.403288
0.305597
0.54624
2.33744
10.9461
12.2775
10.2602
7.0411
1.74143
2.92646e-05
2.92646e-05
2.92646e-05
2.92646e-05
2.92646e-05
2.92646e-05
2.92646e-05
2.92646e-05
2.92646e-05
2.92646e-05
0.455971
0.410482
0.312564
0.108539
2.2715
16.9314
20.04
16.0233
10.0827
3.08916
2.92646e-05
2.92646e-05
2.92646e-05
2.92646e-05
2.92646e-05
2.92646e-05
2.92646e-05