/*--------------------------------*- C++ -*----------------------------------*\
| =========                 |                                                 |
| \\      /  F ield         | OpenFOAM: The Open Source CFD Toolbox           |
|  \\    /   O peration     | Version:  2.3.0                                 |
|   \\  /    A nd           | Web:      www.OpenFOAM.org                      |
|    \\/     M anipulation  |                                                 |
\*---------------------------------------------------------------------------*/
FoamFile
{
    version     2.0;
    format      ascii;
    class       volScalarField;
    location    "2.3";
    object      rho;
}
// * * * * * * * * * * * * * * * * * * * * * * * * * * * * * * * * * * * * * //

dimensions      [1 -3 0 0 0 0 0];

internalField   nonuniform List<scalar> 
10000
(
1023.02
1023.29
1022.76
1021.62
824.855
731.915
677.041
564.552
479.909
522.092
577.274
442.512
421.668
499.644
560.035
826.253
1020.47
1022.55
1022.68
1022.86
1027.11
1027.11
1027.11
1026.41
739.581
734.035
734.016
826.149
804.174
767.218
774.594
144.696
125.836
137.425
164.68
637.395
1025.68
1027.11
1027.11
1027.11
1027.11
1027.11
1027.11
1027.08
1007.4
806.776
661.321
629.86
666.128
603.512
734.359
624.002
504.618
511.799
579.619
999.957
1027.1
1027.11
1027.11
1027.11
1027.11
1027.11
1027.11
1027.11
1016.16
680.429
644.047
631.423
647.343
608.31
712.071
618.987
644.591
591.802
706.955
1019.37
1027.11
1027.11
1027.11
1027.11
1027.11
1027.11
1027.11
1027.11
1016.67
691.891
669.604
667.038
627.485
670.449
635.919
710.488
708.081
683.395
711.09
1020.65
1027.11
1027.11
1027.11
1027.11
1027.11
1027.11
1027.11
1027.11
1014.65
680.851
654.197
634.157
665.489
626.601
704.431
724.378
720.927
629.667
700.85
1022.07
1027.11
1027.11
1027.11
1027.11
1027.11
1027.11
1027.11
1027.11
1020.58
687.642
662.801
640.248
631.799
682.552
626.934
703.868
709.063
667.791
752.865
1025.43
1027.11
1027.11
1027.11
1027.11
1027.11
1027.11
1027.11
1027.11
1026.01
840.43
802.762
689.548
782.348
723.197
696.253
661.329
665.344
672.755
879.675
1026.74
1027.11
1027.11
1027.11
1027.11
1027.11
1027.11
1027.11
1027.11
1027.09
1026.49
1026.45
1025.83
1026.42
1025.87
1026.04
1025.56
1025.77
1025.82
1026.56
1027.11
1027.11
1027.11
1027.11
1027.11
1027.11
1027.11
1027.11
1027.11
1027.11
1027.11
1027.11
1027.11
1027.11
1027.11
1027.11
1027.11
1027.11
1027.11
1027.11
1027.11
1027.11
1027.11
1027.11
1027.11
1027.11
1027.11
1027.11
1027.11
1027.11
1027.11
1027.11
1027.11
1027.11
1027.11
1027.11
1027.11
1027.11
1027.11
1027.11
1027.11
1027.11
1027.11
1027.11
1027.11
1027.11
1027.11
1027.11
1027.11
1027.11
1027.11
1027.11
1027.11
1027.11
1027.11
1027.11
1027.11
1027.11
1027.11
1027.11
1027.11
1027.11
1027.11
1027.11
1027.11
1027.11
1027.11
1027.11
1027.11
1027.11
1027.11
1027.11
1027.11
1027.11
1027.11
1027.11
1027.11
1027.11
1027.11
1027.11
1027.11
1027.11
1027.11
1027.11
1027.11
1027.11
1027.11
1027.11
1027.11
1027.11
1027.11
1027.11
1027.11
1027.11
1027.11
1027.11
1027.11
1027.11
1027.11
1027.11
1027.11
1027.11
1027.11
1027.11
1027.11
1027.11
1027.11
1027.11
1027.11
1027.11
1027.11
1027.11
1027.11
1027.11
1027.11
1027.11
1027.11
1027.11
1027.11
1027.11
1027.11
1027.11
1027.11
1027.11
1027.11
1027.11
1027.11
1027.11
1027.11
1027.11
1027.11
1027.11
1027.11
1027.11
1027.11
1027.11
1027.11
1027.11
1027.11
1027.11
1027.11
1027.11
1027.11
1027.11
1027.11
1027.11
1027.11
1027.11
1027.11
1027.11
1027.11
1027.11
1027.11
1027.11
1027.11
1027.11
1027.11
1027.11
1027.11
1027.11
1027.11
1027.11
1027.11
1027.11
1027.11
1027.11
1027.11
1027.11
1027.11
1027.11
1027.11
1027.11
1027.11
1027.11
1027.11
1027.11
1027.11
1027.11
1027.11
1027.11
1027.11
1027.11
1027.11
1027.11
1027.11
1027.11
1027.11
1027.11
1027.11
1027.11
1027.11
1027.11
1027.11
1027.11
1027.11
1027.11
1027.11
1027.11
1027.11
1027.11
1027.11
1027.11
1027.11
1027.11
1027.11
1027.11
1027.11
1027.11
1027.11
1027.11
1027.11
1027.11
1027.11
1027.11
1027.11
1027.11
1027.11
1027.11
1027.11
1027.11
1027.11
1027.11
1027.11
1027.11
1027.11
1022.83
1023.1
1022.57
1021.51
824.298
728.693
674.509
559.778
463.941
511.05
574.235
442.135
419.06
495.512
561.544
819.031
1020.62
1022.48
1022.64
1022.74
1027.11
1027.11
1027.11
1026.83
736.295
730.207
733.625
828.797
806.256
769.517
777.133
140.437
118.986
130.092
154.332
587.769
1026.1
1027.11
1027.11
1027.11
1027.11
1027.11
1027.11
1027.07
1003.63
809.459
661.869
629.828
666.687
603.411
734.68
626.892
507.299
514.828
569.399
991.387
1027.1
1027.11
1027.11
1027.11
1027.11
1027.11
1027.11
1027.11
1016.36
679.629
643.545
630.761
648.047
606.877
713.79
616.643
642.671
588.231
706.668
1019.25
1027.11
1027.11
1027.11
1027.11
1027.11
1027.11
1027.11
1027.11
1016.85
691.788
669.97
667.739
626.627
671.471
634.254
709.869
707.536
684.718
711.443
1020.16
1027.11
1027.11
1027.11
1027.11
1027.11
1027.11
1027.11
1027.11
1015.34
681.297
654.212
634.196
666.304
625.847
705.909
724.533
721.038
628.328
700.257
1021
1027.11
1027.11
1027.11
1027.11
1027.11
1027.11
1027.11
1027.11
1021.05
685.827
661.418
640.005
630.508
681.891
626.752
705.182
710.315
667.674
748.013
1025.11
1027.11
1027.11
1027.11
1027.11
1027.11
1027.11
1027.11
1027.11
1025.93
832.727
796.487
681.697
775.216
716.167
689.562
654.057
658.062
664.675
869.302
1026.63
1027.11
1027.11
1027.11
1027.11
1027.11
1027.11
1027.11
1027.11
1027.08
1026.44
1026.42
1025.77
1026.39
1025.82
1026
1025.49
1025.71
1025.76
1026.5
1027.11
1027.11
1027.11
1027.11
1027.11
1027.11
1027.11
1027.11
1027.11
1027.11
1027.11
1027.11
1027.11
1027.11
1027.11
1027.11
1027.11
1027.11
1027.11
1027.11
1027.11
1027.11
1027.11
1027.11
1027.11
1027.11
1027.11
1027.11
1027.11
1027.11
1027.11
1027.11
1027.11
1027.11
1027.11
1027.11
1027.11
1027.11
1027.11
1027.11
1027.11
1027.11
1027.11
1027.11
1027.11
1027.11
1027.11
1027.11
1027.11
1027.11
1027.11
1027.11
1027.11
1027.11
1027.11
1027.11
1027.11
1027.11
1027.11
1027.11
1027.11
1027.11
1027.11
1027.11
1027.11
1027.11
1027.11
1027.11
1027.11
1027.11
1027.11
1027.11
1027.11
1027.11
1027.11
1027.11
1027.11
1027.11
1027.11
1027.11
1027.11
1027.11
1027.11
1027.11
1027.11
1027.11
1027.11
1027.11
1027.11
1027.11
1027.11
1027.11
1027.11
1027.11
1027.11
1027.11
1027.11
1027.11
1027.11
1027.11
1027.11
1027.11
1027.11
1027.11
1027.11
1027.11
1027.11
1027.11
1027.11
1027.11
1027.11
1027.11
1027.11
1027.11
1027.11
1027.11
1027.11
1027.11
1027.11
1027.11
1027.11
1027.11
1027.11
1027.11
1027.11
1027.11
1027.11
1027.11
1027.11
1027.11
1027.11
1027.11
1027.11
1027.11
1027.11
1027.11
1027.11
1027.11
1027.11
1027.11
1027.11
1027.11
1027.11
1027.11
1027.11
1027.11
1027.11
1027.11
1027.11
1027.11
1027.11
1027.11
1027.11
1027.11
1027.11
1027.11
1027.11
1027.11
1027.11
1027.11
1027.11
1027.11
1027.11
1027.11
1027.11
1027.11
1027.11
1027.11
1027.11
1027.11
1027.11
1027.11
1027.11
1027.11
1027.11
1027.11
1027.11
1027.11
1027.11
1027.11
1027.11
1027.11
1027.11
1027.11
1027.11
1027.11
1027.11
1027.11
1027.11
1027.11
1027.11
1027.11
1027.11
1027.11
1027.11
1027.11
1027.11
1027.11
1027.11
1027.11
1027.11
1027.11
1027.11
1027.11
1027.11
1027.11
1027.11
1027.11
1027.11
1027.11
1027.11
1027.11
1027.11
1027.11
1027.11
1027.11
1027.11
1027.11
1027.11
1027.11
1027.11
1027.11
1027.11
1027.11
1027.11
1022.74
1023.01
1022.48
1021.4
826.165
726.7
673.223
557.815
454.802
503.897
572.558
443.553
424.573
498.398
573.506
818.188
1020.64
1022.43
1022.62
1022.69
1027.11
1027.11
1027.11
1027.01
738.272
728.125
733.404
830.239
807.39
770.75
778.698
137.335
114.874
125.668
148.194
574.359
1026.53
1027.11
1027.11
1027.11
1027.11
1027.11
1027.11
1027.07
999.63
811.842
662.177
629.821
666.969
603.401
734.86
629.977
510.612
518.798
563.91
986.438
1027.1
1027.11
1027.11
1027.11
1027.11
1027.11
1027.11
1027.11
1016.43
679.26
643.267
630.399
648.448
606.084
714.74
615.327
641.595
586.239
706.488
1019.1
1027.11
1027.11
1027.11
1027.11
1027.11
1027.11
1027.11
1027.11
1016.92
691.795
670.179
668.125
626.151
672.044
633.321
709.52
707.232
685.469
711.605
1019.86
1027.11
1027.11
1027.11
1027.11
1027.11
1027.11
1027.11
1027.11
1015.79
681.583
654.226
634.218
666.77
625.415
706.719
724.602
721.091
627.522
699.987
1020.39
1027.11
1027.11
1027.11
1027.11
1027.11
1027.11
1027.11
1027.11
1021.59
684.937
660.732
639.899
629.869
681.579
626.675
705.993
711.087
667.695
745.55
1024.92
1027.11
1027.11
1027.11
1027.11
1027.11
1027.11
1027.11
1027.11
1025.97
828.593
793.145
677.512
771.389
712.446
686.014
650.121
654.114
660.335
863.546
1026.56
1027.11
1027.11
1027.11
1027.11
1027.11
1027.11
1027.11
1027.11
1027.09
1026.41
1026.4
1025.74
1026.37
1025.78
1025.98
1025.46
1025.67
1025.72
1026.46
1027.11
1027.11
1027.11
1027.11
1027.11
1027.11
1027.11
1027.11
1027.11
1027.11
1027.11
1027.11
1027.11
1027.11
1027.11
1027.11
1027.11
1027.11
1027.11
1027.11
1027.11
1027.11
1027.11
1027.11
1027.11
1027.11
1027.11
1027.11
1027.11
1027.11
1027.11
1027.11
1027.11
1027.11
1027.11
1027.11
1027.11
1027.11
1027.11
1027.11
1027.11
1027.11
1027.11
1027.11
1027.11
1027.11
1027.11
1027.11
1027.11
1027.11
1027.11
1027.11
1027.11
1027.11
1027.11
1027.11
1027.11
1027.11
1027.11
1027.11
1027.11
1027.11
1027.11
1027.11
1027.11
1027.11
1027.11
1027.11
1027.11
1027.11
1027.11
1027.11
1027.11
1027.11
1027.11
1027.11
1027.11
1027.11
1027.11
1027.11
1027.11
1027.11
1027.11
1027.11
1027.11
1027.11
1027.11
1027.11
1027.11
1027.11
1027.11
1027.11
1027.11
1027.11
1027.11
1027.11
1027.11
1027.11
1027.11
1027.11
1027.11
1027.11
1027.11
1027.11
1027.11
1027.11
1027.11
1027.11
1027.11
1027.11
1027.11
1027.11
1027.11
1027.11
1027.11
1027.11
1027.11
1027.11
1027.11
1027.11
1027.11
1027.11
1027.11
1027.11
1027.11
1027.11
1027.11
1027.11
1027.11
1027.11
1027.11
1027.11
1027.11
1027.11
1027.11
1027.11
1027.11
1027.11
1027.11
1027.11
1027.11
1027.11
1027.11
1027.11
1027.11
1027.11
1027.11
1027.11
1027.11
1027.11
1027.11
1027.11
1027.11
1027.11
1027.11
1027.11
1027.11
1027.11
1027.11
1027.11
1027.11
1027.11
1027.11
1027.11
1027.11
1027.11
1027.11
1027.11
1027.11
1027.11
1027.11
1027.11
1027.11
1027.11
1027.11
1027.11
1027.11
1027.11
1027.11
1027.11
1027.11
1027.11
1027.11
1027.11
1027.11
1027.11
1027.11
1027.11
1027.11
1027.11
1027.11
1027.11
1027.11
1027.11
1027.11
1027.11
1027.11
1027.11
1027.11
1027.11
1027.11
1027.11
1027.11
1027.11
1027.11
1027.11
1027.11
1027.11
1027.11
1027.11
1027.11
1027.11
1027.11
1027.11
1027.11
1027.11
1027.11
1027.11
1027.11
1027.11
1027.11
1027.11
1027.11
1027.11
1027.11
1022.8
1023.05
1022.53
1021.45
834.395
724.616
672.34
554.838
445.126
494.54
570.254
443.451
428.555
501.289
580.954
822.661
1020.83
1022.5
1022.72
1022.77
1027.11
1027.11
1027.11
1027.06
747.405
726.101
733.268
831.834
808.637
772.222
780.763
134.414
110.112
120.464
140.132
558.589
1026.76
1027.11
1027.11
1027.11
1027.11
1027.11
1027.11
1027.06
994.345
815.454
662.596
629.822
667.274
603.402
735.184
634.002
513.175
520.933
558.246
981.277
1027.1
1027.11
1027.11
1027.11
1027.11
1027.11
1027.11
1027.11
1016.43
678.871
642.966
630.005
648.899
605.213
715.777
613.85
640.434
584.054
706.255
1018.95
1027.11
1027.11
1027.11
1027.11
1027.11
1027.11
1027.11
1027.11
1016.96
691.903
670.424
668.556
625.625
672.689
632.28
709.141
706.899
686.315
711.787
1019.6
1027.11
1027.11
1027.11
1027.11
1027.11
1027.11
1027.11
1027.11
1016.13
681.866
654.25
634.244
667.296
624.925
707.613
724.665
721.141
626.629
699.718
1019.83
1027.11
1027.11
1027.11
1027.11
1027.11
1027.11
1027.11
1027.11
1022.02
683.983
660.016
639.799
629.205
681.271
626.608
706.937
711.985
667.821
742.987
1024.69
1027.11
1027.11
1027.11
1027.11
1027.11
1027.11
1027.11
1027.11
1026.02
823.998
789.472
672.954
767.19
708.405
682.16
645.81
649.785
655.549
857.16
1026.47
1027.11
1027.11
1027.11
1027.11
1027.11
1027.11
1027.11
1027.11
1027.09
1026.38
1026.39
1025.7
1026.35
1025.74
1025.95
1025.41
1025.63
1025.68
1026.41
1027.11
1027.11
1027.11
1027.11
1027.11
1027.11
1027.11
1027.11
1027.11
1027.11
1027.11
1027.11
1027.11
1027.11
1027.11
1027.11
1027.11
1027.11
1027.11
1027.11
1027.11
1027.11
1027.11
1027.11
1027.11
1027.11
1027.11
1027.11
1027.11
1027.11
1027.11
1027.11
1027.11
1027.11
1027.11
1027.11
1027.11
1027.11
1027.11
1027.11
1027.11
1027.11
1027.11
1027.11
1027.11
1027.11
1027.11
1027.11
1027.11
1027.11
1027.11
1027.11
1027.11
1027.11
1027.11
1027.11
1027.11
1027.11
1027.11
1027.11
1027.11
1027.11
1027.11
1027.11
1027.11
1027.11
1027.11
1027.11
1027.11
1027.11
1027.11
1027.11
1027.11
1027.11
1027.11
1027.11
1027.11
1027.11
1027.11
1027.11
1027.11
1027.11
1027.11
1027.11
1027.11
1027.11
1027.11
1027.11
1027.11
1027.11
1027.11
1027.11
1027.11
1027.11
1027.11
1027.11
1027.11
1027.11
1027.11
1027.11
1027.11
1027.11
1027.11
1027.11
1027.11
1027.11
1027.11
1027.11
1027.11
1027.11
1027.11
1027.11
1027.11
1027.11
1027.11
1027.11
1027.11
1027.11
1027.11
1027.11
1027.11
1027.11
1027.11
1027.11
1027.11
1027.11
1027.11
1027.11
1027.11
1027.11
1027.11
1027.11
1027.11
1027.11
1027.11
1027.11
1027.11
1027.11
1027.11
1027.11
1027.11
1027.11
1027.11
1027.11
1027.11
1027.11
1027.11
1027.11
1027.11
1027.11
1027.11
1027.11
1027.11
1027.11
1027.11
1027.11
1027.11
1027.11
1027.11
1027.11
1027.11
1027.11
1027.11
1027.11
1027.11
1027.11
1027.11
1027.11
1027.11
1027.11
1027.11
1027.11
1027.11
1027.11
1027.11
1027.11
1027.11
1027.11
1027.11
1027.11
1027.11
1027.11
1027.11
1027.11
1027.11
1027.11
1027.11
1027.11
1027.11
1027.11
1027.11
1027.11
1027.11
1027.11
1027.11
1027.11
1027.11
1027.11
1027.11
1027.11
1027.11
1027.11
1027.11
1027.11
1027.11
1027.11
1027.11
1027.11
1027.11
1027.11
1027.11
1027.11
1027.11
1027.11
1027.11
1027.11
1027.11
1027.11
1027.11
1027.11
1027.11
1027.11
1027.11
1027.11
1027.11
1022.83
1023.06
1022.54
1021.47
837.644
721.24
670.845
549.74
436.092
486.022
567.455
439.588
430.239
502.763
585.876
823.618
1020.92
1022.53
1022.78
1022.81
1027.11
1027.11
1027.11
1027.05
751.034
724.344
733.132
833.308
809.791
773.573
783.027
131.361
105.544
115.35
132.362
535.358
1026.93
1027.11
1027.11
1027.11
1027.11
1027.11
1027.11
1027.04
988.97
819.02
662.919
629.843
667.536
603.436
735.404
638.695
517.312
523.033
553.182
975.343
1027.1
1027.11
1027.11
1027.11
1027.11
1027.11
1027.11
1027.11
1016.34
678.539
642.687
629.636
649.328
604.409
716.76
612.486
639.405
582.036
706.052
1018.79
1027.11
1027.11
1027.11
1027.11
1027.11
1027.11
1027.11
1027.11
1016.91
691.993
670.646
668.95
625.126
673.29
631.286
708.772
706.583
687.114
711.984
1019.41
1027.11
1027.11
1027.11
1027.11
1027.11
1027.11
1027.11
1027.11
1016.3
682.189
654.277
634.269
667.793
624.456
708.442
724.718
721.189
625.782
699.47
1019.46
1027.11
1027.11
1027.11
1027.11
1027.11
1027.11
1027.11
1027.11
1022.34
683.252
659.393
639.718
628.631
681.014
626.56
707.859
712.866
667.981
740.742
1024.46
1027.11
1027.11
1027.11
1027.11
1027.11
1027.11
1027.11
1027.11
1026.1
819.912
786.199
668.865
763.416
704.814
678.722
641.921
645.871
651.206
851.269
1026.37
1027.11
1027.11
1027.11
1027.11
1027.11
1027.11
1027.11
1027.11
1027.08
1026.36
1026.38
1025.67
1026.34
1025.71
1025.94
1025.37
1025.6
1025.65
1026.37
1027.11
1027.11
1027.11
1027.11
1027.11
1027.11
1027.11
1027.11
1027.11
1027.11
1027.11
1027.11
1027.11
1027.11
1027.11
1027.11
1027.11
1027.11
1027.11
1027.11
1027.11
1027.11
1027.11
1027.11
1027.11
1027.11
1027.11
1027.11
1027.11
1027.11
1027.11
1027.11
1027.11
1027.11
1027.11
1027.11
1027.11
1027.11
1027.11
1027.11
1027.11
1027.11
1027.11
1027.11
1027.11
1027.11
1027.11
1027.11
1027.11
1027.11
1027.11
1027.11
1027.11
1027.11
1027.11
1027.11
1027.11
1027.11
1027.11
1027.11
1027.11
1027.11
1027.11
1027.11
1027.11
1027.11
1027.11
1027.11
1027.11
1027.11
1027.11
1027.11
1027.11
1027.11
1027.11
1027.11
1027.11
1027.11
1027.11
1027.11
1027.11
1027.11
1027.11
1027.11
1027.11
1027.11
1027.11
1027.11
1027.11
1027.11
1027.11
1027.11
1027.11
1027.11
1027.11
1027.11
1027.11
1027.11
1027.11
1027.11
1027.11
1027.11
1027.11
1027.11
1027.11
1027.11
1027.11
1027.11
1027.11
1027.11
1027.11
1027.11
1027.11
1027.11
1027.11
1027.11
1027.11
1027.11
1027.11
1027.11
1027.11
1027.11
1027.11
1027.11
1027.11
1027.11
1027.11
1027.11
1027.11
1027.11
1027.11
1027.11
1027.11
1027.11
1027.11
1027.11
1027.11
1027.11
1027.11
1027.11
1027.11
1027.11
1027.11
1027.11
1027.11
1027.11
1027.11
1027.11
1027.11
1027.11
1027.11
1027.11
1027.11
1027.11
1027.11
1027.11
1027.11
1027.11
1027.11
1027.11
1027.11
1027.11
1027.11
1027.11
1027.11
1027.11
1027.11
1027.11
1027.11
1027.11
1027.11
1027.11
1027.11
1027.11
1027.11
1027.11
1027.11
1027.11
1027.11
1027.11
1027.11
1027.11
1027.11
1027.11
1027.11
1027.11
1027.11
1027.11
1027.11
1027.11
1027.11
1027.11
1027.11
1027.11
1027.11
1027.11
1027.11
1027.11
1027.11
1027.11
1027.11
1027.11
1027.11
1027.11
1027.11
1027.11
1027.11
1027.11
1027.11
1027.11
1027.11
1027.11
1027.11
1027.11
1027.11
1027.11
1027.11
1027.11
1027.11
1027.11
1027.11
1027.11
1027.11
1027.11
1027.11
1022.85
1023.07
1022.56
1021.47
838.568
717.438
669.731
540.934
427.313
477.371
564.76
434.321
429.727
499.855
589.694
825.408
1020.98
1022.57
1022.84
1022.86
1027.11
1027.11
1027.11
1027.04
750.417
722.497
733.079
834.737
810.913
774.928
785.567
128.183
100.81
110.017
124.803
519.42
1027.03
1027.11
1027.11
1027.11
1027.11
1027.11
1027.11
1027.03
983.211
822.475
663.303
629.883
667.781
603.448
735.65
644.148
520.199
525.519
548.595
968.144
1027.1
1027.11
1027.11
1027.11
1027.11
1027.11
1027.11
1027.11
1016.21
678.243
642.415
629.274
649.756
603.628
717.72
611.131
638.475
580.061
705.854
1018.64
1027.11
1027.11
1027.11
1027.11
1027.11
1027.11
1027.11
1027.11
1016.8
692.089
670.871
669.339
624.636
673.886
630.298
708.411
706.267
687.91
712.211
1019.3
1027.11
1027.11
1027.11
1027.11
1027.11
1027.11
1027.11
1027.11
1016.34
682.5
654.307
634.295
668.29
623.981
709.252
724.763
721.233
624.938
699.219
1019.26
1027.11
1027.11
1027.11
1027.11
1027.11
1027.11
1027.11
1027.11
1022.5
682.674
658.821
639.651
628.105
680.793
626.525
708.803
713.767
668.203
738.706
1024.21
1027.11
1027.11
1027.11
1027.11
1027.11
1027.11
1027.11
1027.11
1026.2
815.963
783.051
664.946
759.784
701.398
675.437
638.179
642.104
647.009
845.509
1026.27
1027.11
1027.11
1027.11
1027.11
1027.11
1027.11
1027.11
1027.11
1027.06
1026.34
1026.38
1025.65
1026.33
1025.69
1025.94
1025.35
1025.57
1025.63
1026.35
1027.11
1027.11
1027.11
1027.11
1027.11
1027.11
1027.11
1027.11
1027.11
1027.11
1027.11
1027.11
1027.11
1027.11
1027.11
1027.11
1027.11
1027.11
1027.11
1027.11
1027.11
1027.11
1027.11
1027.11
1027.11
1027.11
1027.11
1027.11
1027.11
1027.11
1027.11
1027.11
1027.11
1027.11
1027.11
1027.11
1027.11
1027.11
1027.11
1027.11
1027.11
1027.11
1027.11
1027.11
1027.11
1027.11
1027.11
1027.11
1027.11
1027.11
1027.11
1027.11
1027.11
1027.11
1027.11
1027.11
1027.11
1027.11
1027.11
1027.11
1027.11
1027.11
1027.11
1027.11
1027.11
1027.11
1027.11
1027.11
1027.11
1027.11
1027.11
1027.11
1027.11
1027.11
1027.11
1027.11
1027.11
1027.11
1027.11
1027.11
1027.11
1027.11
1027.11
1027.11
1027.11
1027.11
1027.11
1027.11
1027.11
1027.11
1027.11
1027.11
1027.11
1027.11
1027.11
1027.11
1027.11
1027.11
1027.11
1027.11
1027.11
1027.11
1027.11
1027.11
1027.11
1027.11
1027.11
1027.11
1027.11
1027.11
1027.11
1027.11
1027.11
1027.11
1027.11
1027.11
1027.11
1027.11
1027.11
1027.11
1027.11
1027.11
1027.11
1027.11
1027.11
1027.11
1027.11
1027.11
1027.11
1027.11
1027.11
1027.11
1027.11
1027.11
1027.11
1027.11
1027.11
1027.11
1027.11
1027.11
1027.11
1027.11
1027.11
1027.11
1027.11
1027.11
1027.11
1027.11
1027.11
1027.11
1027.11
1027.11
1027.11
1027.11
1027.11
1027.11
1027.11
1027.11
1027.11
1027.11
1027.11
1027.11
1027.11
1027.11
1027.11
1027.11
1027.11
1027.11
1027.11
1027.11
1027.11
1027.11
1027.11
1027.11
1027.11
1027.11
1027.11
1027.11
1027.11
1027.11
1027.11
1027.11
1027.11
1027.11
1027.11
1027.11
1027.11
1027.11
1027.11
1027.11
1027.11
1027.11
1027.11
1027.11
1027.11
1027.11
1027.11
1027.11
1027.11
1027.11
1027.11
1027.11
1027.11
1027.11
1027.11
1027.11
1027.11
1027.11
1027.11
1027.11
1027.11
1027.11
1027.11
1027.11
1027.11
1027.11
1027.11
1027.11
1027.11
1027.11
1027.11
1027.11
1027.11
1027.11
1027.11
1022.86
1023.07
1022.57
1021.45
829.886
712.923
668.447
527.635
419.241
468.935
562.178
428.71
425.095
487.102
591.698
827.088
1021.02
1022.6
1022.9
1022.9
1027.11
1027.11
1027.11
1027.03
728.864
720.508
733.062
836.09
811.973
776.221
788.35
124.925
96.1359
104.762
117.542
514.933
1027.06
1027.11
1027.11
1027.11
1027.11
1027.11
1027.11
1027.02
976.319
825.315
663.688
629.905
667.998
603.463
735.862
650.32
522.172
528.457
544.697
961.215
1027.11
1027.11
1027.11
1027.11
1027.11
1027.11
1027.11
1027.11
1016
678.007
642.155
628.928
650.17
602.894
718.639
609.828
637.615
578.197
705.689
1018.46
1027.11
1027.11
1027.11
1027.11
1027.11
1027.11
1027.11
1027.11
1016.62
692.141
671.082
669.705
624.166
674.456
629.336
708.06
705.965
688.679
712.463
1019.25
1027.11
1027.11
1027.11
1027.11
1027.11
1027.11
1027.11
1027.11
1016.03
682.833
654.339
634.324
668.768
623.516
710.018
724.802
721.275
624.119
698.972
1019.21
1027.11
1027.11
1027.11
1027.11
1027.11
1027.11
1027.11
1027.11
1022.54
682.314
658.312
639.595
627.639
680.605
626.501
709.729
714.654
668.46
736.911
1023.95
1027.11
1027.11
1027.11
1027.11
1027.11
1027.11
1027.11
1027.11
1026.29
812.337
780.164
661.319
756.434
698.272
672.419
634.702
638.599
643.092
840.081
1026.17
1027.11
1027.11
1027.11
1027.11
1027.11
1027.11
1027.11
1027.11
1027.06
1026.34
1026.38
1025.65
1026.33
1025.69
1025.94
1025.35
1025.57
1025.62
1026.34
1027.11
1027.11
1027.11
1027.11
1027.11
1027.11
1027.11
1027.11
1027.11
1027.11
1027.11
1027.11
1027.11
1027.11
1027.11
1027.11
1027.11
1027.11
1027.11
1027.11
1027.11
1027.11
1027.11
1027.11
1027.11
1027.11
1027.11
1027.11
1027.11
1027.11
1027.11
1027.11
1027.11
1027.11
1027.11
1027.11
1027.11
1027.11
1027.11
1027.11
1027.11
1027.11
1027.11
1027.11
1027.11
1027.11
1027.11
1027.11
1027.11
1027.11
1027.11
1027.11
1027.11
1027.11
1027.11
1027.11
1027.11
1027.11
1027.11
1027.11
1027.11
1027.11
1027.11
1027.11
1027.11
1027.11
1027.11
1027.11
1027.11
1027.11
1027.11
1027.11
1027.11
1027.11
1027.11
1027.11
1027.11
1027.11
1027.11
1027.11
1027.11
1027.11
1027.11
1027.11
1027.11
1027.11
1027.11
1027.11
1027.11
1027.11
1027.11
1027.11
1027.11
1027.11
1027.11
1027.11
1027.11
1027.11
1027.11
1027.11
1027.11
1027.11
1027.11
1027.11
1027.11
1027.11
1027.11
1027.11
1027.11
1027.11
1027.11
1027.11
1027.11
1027.11
1027.11
1027.11
1027.11
1027.11
1027.11
1027.11
1027.11
1027.11
1027.11
1027.11
1027.11
1027.11
1027.11
1027.11
1027.11
1027.11
1027.11
1027.11
1027.11
1027.11
1027.11
1027.11
1027.11
1027.11
1027.11
1027.11
1027.11
1027.11
1027.11
1027.11
1027.11
1027.11
1027.11
1027.11
1027.11
1027.11
1027.11
1027.11
1027.11
1027.11
1027.11
1027.11
1027.11
1027.11
1027.11
1027.11
1027.11
1027.11
1027.11
1027.11
1027.11
1027.11
1027.11
1027.11
1027.11
1027.11
1027.11
1027.11
1027.11
1027.11
1027.11
1027.11
1027.11
1027.11
1027.11
1027.11
1027.11
1027.11
1027.11
1027.11
1027.11
1027.11
1027.11
1027.11
1027.11
1027.11
1027.11
1027.11
1027.11
1027.11
1027.11
1027.11
1027.11
1027.11
1027.11
1027.11
1027.11
1027.11
1027.11
1027.11
1027.11
1027.11
1027.11
1027.11
1027.11
1027.11
1027.11
1027.11
1027.11
1027.11
1027.11
1027.11
1027.11
1027.11
1027.11
1027.11
1027.11
1027.11
1027.11
1027.11
1027.11
1022.88
1023.07
1022.58
1021.34
793.822
708.687
667.98
507.968
411.677
460.588
559.761
422.038
419.602
472.438
590.337
819.086
1021.06
1022.62
1022.96
1022.94
1027.11
1027.11
1027.11
1026.92
654.139
718.624
733.136
837.376
812.991
777.494
791.364
121.549
91.4303
99.4081
110.743
491.748
1027.08
1027.11
1027.11
1027.11
1027.11
1027.11
1027.11
1027.03
966.2
827.487
664.135
629.914
668.197
603.502
736.082
657.167
525.318
531.916
541.519
955.279
1027.11
1027.11
1027.11
1027.11
1027.11
1027.11
1027.11
1027.11
1015.69
677.841
641.903
628.593
650.576
602.183
719.529
608.55
636.808
576.41
705.543
1018.17
1027.11
1027.11
1027.11
1027.11
1027.11
1027.11
1027.11
1027.11
1016.39
692.161
671.286
670.061
623.709
675.012
628.391
707.719
705.672
689.432
712.73
1019.25
1027.11
1027.11
1027.11
1027.11
1027.11
1027.11
1027.11
1027.11
1015.56
683.174
654.371
634.355
669.235
623.055
710.756
724.835
721.314
623.313
698.755
1019.29
1027.11
1027.11
1027.11
1027.11
1027.11
1027.11
1027.11
1027.11
1022.18
682.114
657.85
639.549
627.218
680.448
626.486
710.652
715.54
668.754
735.313
1023.69
1027.11
1027.11
1027.11
1027.11
1027.11
1027.11
1027.11
1027.11
1026.34
808.951
777.468
657.952
753.306
695.401
669.631
631.473
635.34
639.436
834.942
1026.05
1027.11
1027.11
1027.11
1027.11
1027.11
1027.11
1027.11
1027.11
1027.08
1026.34
1026.38
1025.64
1026.33
1025.69
1025.94
1025.34
1025.56
1025.62
1026.33
1027.11
1027.11
1027.11
1027.11
1027.11
1027.11
1027.11
1027.11
1027.11
1027.11
1027.11
1027.11
1027.11
1027.11
1027.11
1027.11
1027.11
1027.11
1027.11
1027.11
1027.11
1027.11
1027.11
1027.11
1027.11
1027.11
1027.11
1027.11
1027.11
1027.11
1027.11
1027.11
1027.11
1027.11
1027.11
1027.11
1027.11
1027.11
1027.11
1027.11
1027.11
1027.11
1027.11
1027.11
1027.11
1027.11
1027.11
1027.11
1027.11
1027.11
1027.11
1027.11
1027.11
1027.11
1027.11
1027.11
1027.11
1027.11
1027.11
1027.11
1027.11
1027.11
1027.11
1027.11
1027.11
1027.11
1027.11
1027.11
1027.11
1027.11
1027.11
1027.11
1027.11
1027.11
1027.11
1027.11
1027.11
1027.11
1027.11
1027.11
1027.11
1027.11
1027.11
1027.11
1027.11
1027.11
1027.11
1027.11
1027.11
1027.11
1027.11
1027.11
1027.11
1027.11
1027.11
1027.11
1027.11
1027.11
1027.11
1027.11
1027.11
1027.11
1027.11
1027.11
1027.11
1027.11
1027.11
1027.11
1027.11
1027.11
1027.11
1027.11
1027.11
1027.11
1027.11
1027.11
1027.11
1027.11
1027.11
1027.11
1027.11
1027.11
1027.11
1027.11
1027.11
1027.11
1027.11
1027.11
1027.11
1027.11
1027.11
1027.11
1027.11
1027.11
1027.11
1027.11
1027.11
1027.11
1027.11
1027.11
1027.11
1027.11
1027.11
1027.11
1027.11
1027.11
1027.11
1027.11
1027.11
1027.11
1027.11
1027.11
1027.11
1027.11
1027.11
1027.11
1027.11
1027.11
1027.11
1027.11
1027.11
1027.11
1027.11
1027.11
1027.11
1027.11
1027.11
1027.11
1027.11
1027.11
1027.11
1027.11
1027.11
1027.11
1027.11
1027.11
1027.11
1027.11
1027.11
1027.11
1027.11
1027.11
1027.11
1027.11
1027.11
1027.11
1027.11
1027.11
1027.11
1027.11
1027.11
1027.11
1027.11
1027.11
1027.11
1027.11
1027.11
1027.11
1027.11
1027.11
1027.11
1027.11
1027.11
1027.11
1027.11
1027.11
1027.11
1027.11
1027.11
1027.11
1027.11
1027.11
1027.11
1027.11
1027.11
1027.11
1027.11
1027.11
1027.11
1027.11
1027.11
1027.11
1027.11
1027.11
1027.11
1022.9
1023.07
1022.59
1021.15
750.796
705.57
666.153
493.516
404.868
452.508
557.659
414.921
414.608
461.386
584.19
810.773
1021.07
1022.65
1023.01
1022.98
1027.11
1027.11
1027.11
1026.67
535.259
717.555
733.152
838.564
813.953
778.72
794.592
118.105
86.7758
94.1166
104.911
465.788
1027.1
1027.11
1027.11
1027.11
1027.11
1027.11
1027.11
1027.03
951.267
829.057
664.595
629.823
668.373
603.549
736.286
664.517
528.925
535.907
539.144
948.359
1027.11
1027.11
1027.11
1027.11
1027.11
1027.11
1027.11
1027.11
1015.19
677.736
641.664
628.276
650.968
601.51
720.377
607.32
636.079
574.734
705.43
1017.72
1027.11
1027.11
1027.11
1027.11
1027.11
1027.11
1027.11
1027.11
1016.13
692.121
671.475
670.397
623.274
675.541
627.476
707.391
705.393
690.156
713.003
1019.31
1027.11
1027.11
1027.11
1027.11
1027.11
1027.11
1027.11
1027.11
1014.91
683.523
654.402
634.39
669.679
622.61
711.45
724.863
721.352
622.529
698.598
1019.73
1027.11
1027.11
1027.11
1027.11
1027.11
1027.11
1027.11
1027.11
1021.57
682.056
657.439
639.51
626.846
680.317
626.477
711.546
716.399
669.071
733.908
1023.42
1027.11
1027.11
1027.11
1027.11
1027.11
1027.11
1027.11
1027.11
1026.3
805.888
775.035
654.888
750.466
692.828
667.116
628.534
632.369
636.084
830.191
1025.93
1027.11
1027.11
1027.11
1027.11
1027.11
1027.11
1027.11
1027.11
1027.09
1026.34
1026.38
1025.64
1026.33
1025.71
1025.94
1025.34
1025.56
1025.62
1026.33
1027.11
1027.11
1027.11
1027.11
1027.11
1027.11
1027.11
1027.11
1027.11
1027.11
1027.11
1027.11
1027.11
1027.11
1027.11
1027.11
1027.11
1027.11
1027.11
1027.11
1027.11
1027.11
1027.11
1027.11
1027.11
1027.11
1027.11
1027.11
1027.11
1027.11
1027.11
1027.11
1027.11
1027.11
1027.11
1027.11
1027.11
1027.11
1027.11
1027.11
1027.11
1027.11
1027.11
1027.11
1027.11
1027.11
1027.11
1027.11
1027.11
1027.11
1027.11
1027.11
1027.11
1027.11
1027.11
1027.11
1027.11
1027.11
1027.11
1027.11
1027.11
1027.11
1027.11
1027.11
1027.11
1027.11
1027.11
1027.11
1027.11
1027.11
1027.11
1027.11
1027.11
1027.11
1027.11
1027.11
1027.11
1027.11
1027.11
1027.11
1027.11
1027.11
1027.11
1027.11
1027.11
1027.11
1027.11
1027.11
1027.11
1027.11
1027.11
1027.11
1027.11
1027.11
1027.11
1027.11
1027.11
1027.11
1027.11
1027.11
1027.11
1027.11
1027.11
1027.11
1027.11
1027.11
1027.11
1027.11
1027.11
1027.11
1027.11
1027.11
1027.11
1027.11
1027.11
1027.11
1027.11
1027.11
1027.11
1027.11
1027.11
1027.11
1027.11
1027.11
1027.11
1027.11
1027.11
1027.11
1027.11
1027.11
1027.11
1027.11
1027.11
1027.11
1027.11
1027.11
1027.11
1027.11
1027.11
1027.11
1027.11
1027.11
1027.11
1027.11
1027.11
1027.11
1027.11
1027.11
1027.11
1027.11
1027.11
1027.11
1027.11
1027.11
1027.11
1027.11
1027.11
1027.11
1027.11
1027.11
1027.11
1027.11
1027.11
1027.11
1027.11
1027.11
1027.11
1027.11
1027.11
1027.11
1027.11
1027.11
1027.11
1027.11
1027.11
1027.11
1027.11
1027.11
1027.11
1027.11
1027.11
1027.11
1027.11
1027.11
1027.11
1027.11
1027.11
1027.11
1027.11
1027.11
1027.11
1027.11
1027.11
1027.11
1027.11
1027.11
1027.11
1027.11
1027.11
1027.11
1027.11
1027.11
1027.11
1027.11
1027.11
1027.11
1027.11
1027.11
1027.11
1027.11
1027.11
1027.11
1027.11
1027.11
1027.11
1027.11
1027.11
1027.11
1027.11
1027.11
1027.11
1027.11
1027.11
1027.11
1027.11
1022.91
1023.07
1022.6
1020.98
721.65
703.382
663.518
479.68
398.464
444.727
556.006
407.136
410.538
454.608
577.194
803.15
1021.09
1022.68
1023.07
1023.03
1027.11
1027.11
1027.11
1025.54
389.887
717.397
733.347
839.701
814.873
779.94
798.031
114.557
82.0051
88.6475
99.5578
447.949
1027.11
1027.11
1027.11
1027.11
1027.11
1027.11
1027.11
1027.02
932.372
830.286
665.076
629.795
668.531
603.616
736.487
672.335
533.082
540.467
537.491
940.422
1027.11