/*--------------------------------*- C++ -*----------------------------------*\
| =========                 |                                                 |
| \\      /  F ield         | OpenFOAM: The Open Source CFD Toolbox           |
|  \\    /   O peration     | Version:  2.3.0                                 |
|   \\  /    A nd           | Web:      www.OpenFOAM.org                      |
|    \\/     M anipulation  |                                                 |
\*---------------------------------------------------------------------------*/
FoamFile
{
    version     2.0;
    format      ascii;
    class       surfaceScalarField;
    location    "2.00071";
    object      phi;
}
// * * * * * * * * * * * * * * * * * * * * * * * * * * * * * * * * * * * * * //

dimensions      [0 3 -1 0 0 0 0];

internalField   nonuniform List<scalar> 
49938
(
-5.7615e-10
3.61496e-09
-2.53874e-09
-1.71084e-09
5.46632e-09
-3.8315e-09
-2.95689e-09
5.12266e-09
-3.37651e-09
-4.32008e-09
4.84197e-09
-2.97868e-09
-5.50642e-09
4.59837e-09
-2.91194e-09
-6.6974e-09
4.44923e-09
-2.75818e-09
-7.70641e-09
4.38263e-09
-2.87354e-09
-8.60231e-09
4.19207e-09
-2.7961e-09
-9.38733e-09
4.03922e-09
-2.75413e-09
-1.00908e-08
3.91154e-09
-2.70796e-09
-1.06755e-08
3.85232e-09
-2.76756e-09
-1.11118e-08
3.84491e-09
-2.90848e-09
-1.13722e-08
3.86371e-09
-3.10319e-09
-1.14244e-08
3.94143e-09
-3.38912e-09
-1.12055e-08
4.07442e-09
-3.79316e-09
-1.06084e-08
4.22012e-09
-4.31709e-09
-9.61705e-09
4.39749e-09
-4.88863e-09
-8.11743e-09
4.52043e-09
-5.51988e-09
-6.23388e-09
4.60292e-09
-5.98632e-09
-3.74843e-09
4.63818e-09
-6.6235e-09
-1.1348e-09
4.52142e-09
-6.63495e-09
1.65059e-09
4.3907e-09
-6.676e-09
3.96302e-09
4.24202e-09
-6.05435e-09
5.89564e-09
3.98507e-09
-5.41758e-09
6.22915e-09
3.96571e-09
-3.79909e-09
4.9641e-09
4.24928e-09
-2.48411e-09
2.8184e-09
5.26203e-09
-2.6162e-09
6.05592e-09
-2.73738e-09
-1.11217e-09
6.67991e-09
-1.95259e-09
-2.37958e-09
8.81814e-09
-2.08411e-09
-3.3664e-09
8.57883e-09
-2.46905e-09
-4.19352e-09
8.19199e-09
-2.52263e-09
-5.20109e-09
7.60644e-09
-2.00027e-09
-6.32173e-09
7.34358e-09
-1.77348e-09
-7.22848e-09
6.97247e-09
-1.68286e-09
-8.03151e-09
6.39834e-09
-1.40305e-09
-8.74656e-09
6.02304e-09
-1.26858e-09
-9.28429e-09
5.565e-09
-1.11555e-09
-9.67013e-09
5.06293e-09
-8.246e-10
-9.97313e-09
4.58158e-09
-4.33512e-10
-1.01593e-08
4.49915e-09
-4.49071e-10
-1.02057e-08
4.41465e-09
-4.2669e-10
-1.00457e-08
4.36735e-09
-4.52761e-10
-9.56462e-09
4.29238e-09
-5.53123e-10
-8.75054e-09
4.1876e-09
-6.03999e-10
-7.47373e-09
4.0058e-09
-7.62e-10
-5.82941e-09
3.88009e-09
-9.21311e-10
-3.7435e-09
3.61935e-09
-1.06693e-09
-1.44146e-09
3.2533e-09
-1.03378e-09
7.6411e-10
3.09245e-09
-9.07195e-10
2.83032e-09
2.98019e-09
-8.04258e-10
4.39359e-09
3.02444e-09
-6.02508e-10
4.6735e-09
3.78241e-09
-9.64699e-11
3.77307e-09
4.94099e-09
2.08901e-10
2.1729e-09
6.86235e-09
1.14878e-13
1.04174e-08
-2.18816e-09
7.84604e-10
1.24018e-08
-6.50606e-09
-3.59516e-10
1.41131e-08
-4.15033e-09
-1.29421e-09
1.09275e-08
-1.41357e-09
-2.35204e-09
1.02886e-08
-1.03839e-09
-3.32861e-09
9.73955e-09
-1.15619e-09
-4.22751e-09
9.23646e-09
-9.93652e-10
-4.84207e-09
8.58147e-09
-9.94136e-10
-5.30842e-09
7.80474e-09
-9.39775e-10
-5.87336e-09
7.28118e-09
-6.92958e-10
-6.92666e-09
6.58826e-09
3.02581e-11
-8.35682e-09
5.61541e-09
8.77843e-10
-9.01678e-09
4.57406e-09
6.6762e-10
-9.30627e-09
4.2836e-09
5.05179e-10
-9.41015e-09
4.1555e-09
3.63152e-10
-9.3578e-09
4.0101e-09
3.05049e-10
-9.06985e-09
3.71948e-09
2.85088e-10
-8.49575e-09
3.37588e-09
2.37749e-10
-7.42534e-09
2.78089e-09
1.54627e-10
-5.95307e-09
2.30022e-09
1.07702e-10
-4.06338e-09
1.70594e-09
2.37989e-11
-1.9714e-09
1.26959e-09
-1.08202e-10
1.22261e-10
9.53344e-10
4.54884e-11
2.08142e-09
6.04406e-10
4.16667e-10
3.60255e-09
1.26264e-09
2.40728e-10
3.8524e-09
3.17321e-09
3.59452e-10
2.77271e-09
5.28072e-09
7.40124e-10
1.32762e-09
7.40477e-09
9.02989e-10
1.26598e-08
-9.14285e-10
1.60491e-09
1.45229e-08
-3.72528e-09
1.0603e-09
1.47844e-08
-1.25897e-10
6.79672e-11
1.26807e-08
-7.60277e-10
-8.04667e-10
1.11481e-08
1.36283e-11
-1.56342e-09
1.04098e-08
8.89099e-11
-2.2493e-09
9.73146e-09
1.91264e-10
-2.66695e-09
8.89424e-09
1.05216e-10
-3.01655e-09
8.08259e-09
7.20479e-11
-3.40201e-09
7.36003e-09
3.06872e-10
-4.15825e-09
6.44459e-09
9.00112e-10
-5.85887e-09
5.37736e-09
1.93883e-09
-7.4809e-09
4.53326e-09
1.66295e-09
-8.15361e-09
4.00627e-09
9.50161e-10
-8.38221e-09
3.54237e-09
8.4183e-10
-8.4905e-09
3.05923e-09
1.05925e-09
-8.41018e-09
2.2846e-09
1.35465e-09
-7.99337e-09
1.49042e-09
1.46872e-09
-6.98877e-09
5.30171e-10
1.24618e-09
-5.71577e-09
-4.31131e-11
1.07039e-09
-4.20987e-09
-8.69429e-10
1.0695e-09
-2.45237e-09
-1.21103e-09
7.23142e-10
-6.98692e-10
-1.51466e-09
7.14329e-10
7.75821e-10
-1.46373e-09
5.93628e-10
2.34631e-09
-9.42996e-10
6.35167e-10
2.80439e-09
1.47798e-09
1.23721e-09
1.85262e-09
5.15911e-09
1.07355e-09
7.28575e-10
7.70744e-09
8.21679e-10
1.28321e-08
5.569e-10
1.05514e-09
1.55744e-08
-2.10594e-09
7.98345e-10
1.50002e-08
4.17716e-11
4.18555e-10
1.49851e-08
-1.92405e-09
-3.13375e-10
1.23244e-08
-4.43894e-10
-9.30996e-10
1.12753e-08
-2.47446e-10
-1.50837e-09
1.02786e-08
3.06448e-11
-1.86618e-09
9.22454e-09
2.78681e-11
-2.14658e-09
8.23104e-09
1.32241e-10
-2.38931e-09
7.3008e-09
3.02219e-10
-2.8413e-09
6.17922e-09
7.17547e-10
-4.15514e-09
4.88377e-09
1.80757e-09
-5.82245e-09
3.54716e-09
2.65351e-09
-6.35959e-09
2.72408e-09
1.81939e-09
-6.41095e-09
1.83389e-09
1.75989e-09
-6.5167e-09
1.25127e-09
1.91375e-09
-6.57216e-09
5.90699e-10
1.74938e-09
-6.61099e-09
-3.93524e-11
1.56862e-09
-6.19519e-09
-1.13717e-09
1.25155e-09
-5.48674e-09
-1.78942e-09
1.03785e-09
-4.53979e-09
-2.52894e-09
7.12556e-10
-3.18859e-09
-2.82085e-09
2.58621e-10
-1.70586e-09
-2.99184e-09
-5.56912e-12
-3.24152e-10
-2.54314e-09
-3.02311e-10
8.84187e-10
-1.99346e-09
-1.57893e-10
1.54566e-09
1.34769e-11
8.03046e-10
1.19209e-09
4.68477e-09
8.28031e-10
4.60416e-10
7.79999e-09
6.39413e-10
1.29276e-08
3.65444e-10
5.94063e-10
1.59251e-08
-9.4401e-10
6.65777e-11
1.48974e-08
6.31068e-10
1.02901e-10
1.48331e-08
1.16472e-10
4.7165e-11
1.32927e-08
-9.12002e-10
-5.47065e-10
1.16777e-08
1.92326e-10
-9.87918e-10
1.00395e-08
6.80392e-10
-1.31952e-09
8.89694e-09
6.59561e-10
-1.60696e-09
8.11702e-09
4.01753e-10
-1.76915e-09
7.12609e-09
3.37121e-10
-1.80764e-09
5.82483e-09
3.93045e-10
-2.0803e-09
4.21791e-09
9.38621e-10
-2.83212e-09
2.25806e-09
2.04097e-09
-2.84893e-09
1.34451e-09
1.3964e-09
-2.87188e-09
6.84815e-10
1.17205e-09
-3.43614e-09
3.38486e-10
1.47705e-09
-4.23422e-09
-1.29035e-10
1.51781e-09
-5.31593e-09
-7.12358e-10
1.75472e-09
-5.6311e-09
-2.07057e-09
1.24857e-09
-5.34155e-09
-2.94875e-09
8.6978e-10
-4.76998e-09
-3.84086e-09
7.40346e-10
-3.73908e-09
-4.16058e-09
3.08834e-10
-2.54552e-09
-4.34156e-09
1.56144e-10
-1.39217e-09
-3.86582e-09
1.6931e-10
-4.13842e-10
-2.80813e-09
-1.6369e-10
3.07771e-10
-7.80015e-10
7.18722e-11
6.6472e-10
4.04489e-09
2.83025e-10
2.47294e-10
7.644e-09
5.73695e-10
1.26639e-08
5.11558e-10
3.2383e-10
1.60015e-08
-3.99506e-10
-3.07992e-10
1.4796e-08
7.33956e-10
-6.31276e-10
1.42564e-08
9.00672e-10
-1.22398e-09
1.32559e-08
6.30063e-10
-1.87968e-09
1.13492e-08
9.84716e-10
-2.20528e-09
9.38411e-09
9.81359e-10
-1.92829e-09
8.32021e-09
3.00071e-10
-1.22303e-09
7.85863e-09
-4.46589e-10
-1.21952e-09
7.01325e-09
1.09552e-10
-1.0361e-09
5.57065e-09
7.09073e-11
-7.79703e-10
3.34736e-09
6.14219e-10
-7.50508e-10
1.32914e-09
8.99748e-10
-5.09459e-10
5.5192e-10
5.51549e-10
-3.36386e-10
1.4621e-10
3.65532e-10
-6.44484e-10
-3.63822e-11
6.82966e-10
-1.47126e-09
-3.03712e-10
1.00145e-09
-3.13169e-09
-6.65e-10
1.61307e-09
-4.16886e-09
-2.30286e-09
1.26945e-09
-4.67964e-09
-3.51081e-09
1.07282e-09
-4.53809e-09
-4.87824e-09
8.95833e-10
-3.88951e-09
-5.21288e-09
4.03711e-10
-3.03598e-09
-5.34983e-09
1.54743e-10
-2.15418e-09
-4.98507e-09
2.37425e-10
-1.2116e-09
-3.76752e-09
1.67753e-11
-4.36731e-10
-1.27941e-09
-2.75496e-10
2.03462e-10
3.60291e-09
-1.98128e-10
1.20325e-10
7.4099e-09
3.17492e-10
1.24691e-08
3.15599e-10
1.58665e-10
1.59181e-08
-7.45909e-11
-4.72486e-10
1.47118e-08
7.16145e-10
-9.35533e-10
1.38597e-08
8.60438e-10
-1.40898e-09
1.26531e-08
1.07685e-09
-1.75256e-09
1.05954e-08
1.09779e-09
-1.90416e-09
8.65449e-09
8.81578e-10
-1.86483e-09
7.67025e-09
6.1094e-10
-1.72997e-09
7.23353e-09
4.90489e-10
-1.60798e-09
6.50942e-09
3.82041e-10
-9.39345e-10
4.95364e-09
-5.14935e-11
-3.28275e-10
2.34778e-09
3.88562e-10
-1.49046e-10
6.09822e-10
5.40094e-10
1.71052e-11
9.90232e-11
2.86746e-10
1.6661e-10
-3.84175e-11
3.51211e-11
2.52173e-10
-2.36312e-10
1.14364e-10
-1.92251e-11
-2.90459e-10
2.58141e-10
-1.11723e-09
-4.7005e-10
9.03046e-10
-2.30783e-09
-1.45741e-09
3.45143e-10
-3.63135e-09
-3.13399e-09
9.46696e-10
-3.90733e-09
-5.41761e-09
8.15341e-10
-3.67737e-09
-5.89086e-09
4.48022e-10
-3.09905e-09
-5.96596e-09
3.78136e-11
-2.5094e-09
-5.69309e-09
1.18358e-10
-1.76799e-09
-4.69519e-09
1.86232e-10
-9.29194e-10
-2.11274e-09
-5.50061e-12
-1.5603e-10
3.17898e-09
-3.49163e-10
-3.99507e-11
7.20753e-09
8.65374e-11
1.23774e-08
5.22503e-11
-6.83651e-12
1.58285e-08
9.71177e-11
-5.54413e-10
1.47001e-08
5.59942e-10
-9.28324e-10
1.35985e-08
6.35839e-10
-1.13921e-09
1.20627e-08
8.01819e-10
-1.16698e-09
1.00125e-08
6.11098e-10
-1.18411e-09
8.19475e-09
4.77205e-10
-1.22447e-09
7.20934e-09
5.01545e-10
-1.24116e-09
6.64693e-09
6.03518e-10
-1.23978e-09
5.98689e-09
5.21333e-10
-6.7893e-10
3.96378e-09
4.29099e-10
-1.02983e-10
1.70018e-09
7.1679e-11
3.93038e-11
3.25835e-10
1.41702e-10
2.03923e-10
-9.83391e-11
3.2739e-11
2.71855e-10
6.15617e-11
-1.67914e-10
3.74325e-10
-2.27759e-10
-1.11029e-10
3.23823e-10
1.5347e-10
-3.93429e-10
-5.59334e-11
-2.03594e-10
1.13295e-10
-4.34968e-10
-5.42417e-11
-1.02414e-09
-2.55893e-09
-2.11733e-09
1.10728e-09
-3.15064e-09
-5.35544e-09
5.29528e-10
-3.22302e-09
-6.32768e-09
5.09204e-10
-2.90251e-09
-6.36258e-09
7.6103e-11
-2.52723e-09
-6.13034e-09
6.19652e-11
-2.00744e-09
-5.32451e-09
1.09504e-10
-1.26891e-09
-3.03943e-09
1.88123e-10
-2.04384e-10
2.34144e-09
-2.26925e-10
-5.06882e-11
7.03548e-09
1.85956e-11
1.24986e-08
-1.71372e-10
-1.4233e-10
1.56027e-08
3.68813e-10
-5.81399e-10
1.47372e-08
4.02697e-10
-8.51891e-10
1.34536e-08
4.16054e-10
-9.13838e-10
1.16747e-08
4.50546e-10
-8.10186e-10
9.66176e-09
2.47542e-10
-7.46466e-10
7.93011e-09
2.01234e-10
-7.57762e-10
6.99472e-09
2.26174e-10
-8.49333e-10
6.40154e-09
3.37168e-10
-9.97405e-10
5.64068e-09
4.94442e-10
-3.64551e-10
2.63091e-09
7.00092e-10
4.71379e-11
9.1064e-10
3.77872e-10
2.65758e-10
3.12479e-10
-2.05264e-10
4.38949e-10
-2.60116e-10
-1.14221e-11
6.55637e-10
1.05189e-10
-2.60318e-10
7.88423e-10
-2.01258e-10
-1.59293e-10
1.12151e-09
8.8568e-11
-2.68187e-10
1.24615e-09
-1.78612e-10
-1.49627e-10
1.88563e-10
-3.22032e-10
1.32537e-09
-1.63092e-09
-1.23122e-09
9.33355e-10
-2.59644e-09
-5.44134e-09
1.0514e-09
-2.74342e-09
-6.65499e-09
4.74288e-10
-2.55883e-09
-6.62494e-09
7.77664e-11
-2.29568e-09
-6.38802e-09
-5.47056e-12
-1.91775e-09
-5.7531e-09
5.06522e-11
-1.34307e-09
-3.90758e-09
2.93425e-10
-9.45852e-11
1.35839e-09
-2.65385e-10
6.03171e-11
6.81091e-09
6.9897e-11
1.27455e-08
-1.86079e-10
-1.58622e-10
1.51214e-08
6.40561e-10
-4.87766e-10
1.4721e-08
3.4611e-10
-6.7154e-10
1.33182e-08
3.19785e-10
-7.00719e-10
1.14296e-08
2.74791e-10
-5.62412e-10
9.40292e-09
1.20927e-10
-4.59199e-10
7.73053e-09
9.66801e-11
-4.67917e-10
6.85383e-09
1.49856e-10
-7.98637e-10
6.38208e-09
3.50383e-10
-1.18557e-09
5.30403e-09
7.2373e-10
-1.4452e-10
2.03564e-09
-4.45731e-10
2.52626e-10
5.29276e-10
-1.57747e-11
2.74825e-10
4.40709e-10
-1.50428e-10
4.34274e-10
-3.67881e-10
-5.16955e-11
5.26954e-10
1.16648e-10
-1.04142e-10
5.35982e-10
-1.92024e-10
-1.82699e-11
5.95157e-10
3.98783e-11
-1.04886e-11
5.88317e-10
-2.01307e-10
2.95291e-11
6.20148e-10
-4.54462e-10
1.00588e-10
-5.37205e-10
-5.71635e-10
4.97753e-10
-1.56242e-09
-4.61444e-09
1.98271e-10
-1.99962e-09
-6.60576e-09
3.87984e-10
-2.05717e-09
-6.61745e-09
5.00561e-11
-1.93575e-09
-6.47252e-09
-3.69216e-11
-1.67903e-09
-6.00439e-09
-5.43406e-12
-1.15863e-09
-4.66232e-09
2.34316e-10
-5.73182e-11
4.54976e-10
-1.97872e-10
8.70357e-11
6.58262e-09
8.41629e-11
1.29054e-08
-7.23112e-11
-3.72918e-11
1.44324e-08
7.26909e-10
-2.5896e-10
1.45694e-08
3.73912e-10
-4.09003e-10
1.31406e-08
3.28268e-10
-4.97166e-10
1.13222e-08
1.96072e-10
-4.24804e-10
9.25282e-09
7.8119e-11
-3.39828e-10
7.60352e-09
4.23298e-11
-3.63538e-10
6.80446e-09
7.33199e-11
-7.45279e-10
6.4465e-09
3.17526e-10
-1.01442e-09
5.12061e-09
4.52697e-10
-4.4039e-10
1.62773e-09
-1.66078e-10
-1.31141e-10
4.07991e-10
-1.87961e-10
7.02268e-11
4.18819e-10
-1.79474e-10
4.11492e-10
-4.78219e-10
-2.30941e-10
5.54282e-10
2.03873e-10
-2.30016e-10
5.28e-10
-7.23354e-11
-9.34131e-11
5.87803e-10
1.59965e-10
-1.79892e-10
5.16828e-10
-2.04808e-11
-1.09857e-10
5.18857e-10
-3.748e-10
-8.17032e-11
2.9657e-10
-2.41242e-10
-1.08117e-10
-8.77778e-10
-3.70185e-09
2.61726e-10
-1.47886e-09
-6.41283e-09
4.08147e-10
-1.64666e-09
-6.57705e-09
1.27391e-10
-1.60779e-09
-6.47518e-09
-3.62048e-11
-1.45235e-09
-6.10685e-09
-5.29875e-11
-1.10974e-09
-5.23399e-09
2.29036e-10
-8.72868e-11
-1.20095e-09
6.3347e-10
3.64748e-11
6.35184e-09
1.07225e-10
1.29125e-08
2.99107e-11
1.10885e-10
1.36265e-08
6.95514e-10
-5.24722e-11
1.41528e-08
5.80684e-10
-1.88572e-10
1.29618e-08
3.15547e-10
-3.07789e-10
1.13652e-08
7.67008e-11
-3.06236e-10
9.21307e-09
3.85711e-11
-2.60149e-10
7.56214e-09
-4.4184e-12
-3.33887e-10
6.80647e-09
7.19721e-11
-7.36382e-10
6.55077e-09
2.98433e-10
-1.1908e-09
4.96613e-09
6.09032e-10
-7.36575e-10
1.10705e-09
6.64804e-11
-2.41006e-10
3.92787e-11
-1.26856e-10
-4.89227e-12
2.07474e-10
-2.47684e-11
5.15117e-10
-9.127e-10
-8.55487e-11
5.33456e-10
1.98462e-10
-1.29277e-11
5.71391e-10
-2.07635e-11
-8.95121e-11
5.93967e-10
2.07439e-10
-7.00511e-11
5.65942e-10
7.23598e-11
-6.48192e-11
9.1012e-10
-7.65749e-10
4.67555e-11
1.05271e-09
-6.50704e-10
2.66858e-10
-1.14065e-10
-3.55688e-09
1.02179e-09
-9.32254e-10
-6.23098e-09
6.36343e-10
-1.19948e-09
-6.45758e-09
1.4776e-10
-1.23417e-09
-6.40066e-09
-3.98386e-11
-1.19064e-09
-6.09661e-09
-5.3765e-11
-9.63477e-10
-5.50452e-09
4.33668e-11
-1.05904e-10
-2.73719e-09
6.78642e-10
3.53086e-11
6.09818e-09
1.12658e-10
1.29136e-08
3.47326e-11
1.73942e-10
1.28467e-08
6.06424e-10
2.35727e-11
1.34438e-08
8.5999e-10
-9.63024e-11
1.27459e-08
3.36352e-10
-2.30961e-10
1.15194e-08
-1.90475e-11
-2.80531e-10
9.29934e-09
-3.63231e-11
-2.74194e-10
7.60158e-09
-4.54879e-11
-3.61638e-10
6.85104e-09
4.31288e-11
-8.22985e-10
6.67249e-09
3.39841e-10
-1.38258e-09
4.7755e-09
7.50358e-10
-8.88793e-10
6.85624e-10
-7.23353e-11
-3.79907e-10
-3.68109e-10
-1.01506e-10
-1.0357e-10
1.01654e-11
-7.90306e-11
5.15512e-10
-1.77167e-09
2.39861e-10
4.49035e-10
2.12315e-10
5.26252e-11
4.84847e-10
3.31136e-11
-8.96937e-11
6.51006e-10
1.14514e-10
-7.32347e-11
8.76529e-10
-2.41413e-10
8.82459e-11
1.35141e-09
-1.41133e-09
1.7069e-10
1.55146e-09
-1.24307e-09
3.92297e-10
3.24437e-10
-3.6383e-09
1.30843e-09
-4.97564e-10
-6.01732e-09
6.08337e-10
-8.18052e-10
-6.32143e-09
1.84338e-10
-8.83206e-10
-6.2975e-09
-3.8002e-11
-8.93551e-10
-6.05373e-09
-3.25348e-11
-7.24525e-10
-5.58274e-09
-9.08101e-11
-1.48875e-10
-3.36567e-09
5.28156e-11
3.26749e-11
5.87267e-09
4.4155e-11
1.29111e-08
3.56991e-11
2.5783e-10
1.20248e-08
5.6454e-10
1.5584e-10
1.23803e-08
1.166e-09
2.41091e-12
1.23573e-08
5.42539e-10
-1.73939e-10
1.16194e-08
7.6857e-11
-2.95935e-10
9.46042e-09
-3.87074e-11
-3.54262e-10
7.70556e-09
-4.53542e-11
-4.96626e-10
6.94859e-09
4.50621e-11
-1.06374e-09
6.81858e-09
4.21257e-10
-1.83423e-09
4.44721e-09
1.09891e-09
-1.28313e-09
-2.60939e-10
3.95472e-10
-5.28139e-10
-1.48568e-09
3.6256e-10
7.08127e-11
-1.04236e-09
4.53564e-10
3.45166e-10
-2.27103e-09
2.24994e-10
3.24522e-10
1.70735e-10
6.22271e-11
5.30744e-10
-2.02904e-10
2.97901e-11
1.04658e-09
-7.79762e-10
3.78431e-10
1.53518e-09
-1.20664e-09
4.76623e-10
1.74446e-09
-1.86366e-09
2.4303e-10
1.68693e-09
-1.48636e-09
3.00815e-10
5.40688e-10
-3.61828e-09
1.12622e-09
-1.52062e-10
-5.84425e-09
5.19678e-10
-4.6737e-10
-6.15902e-09
1.52895e-10
-5.57782e-10
-6.14821e-09
-5.88782e-11
-6.1712e-10
-5.95543e-09
-3.8962e-11
-5.13549e-10
-5.53834e-09
-1.47969e-10
-1.39029e-10
-3.6001e-09
-1.40102e-10
2.90132e-11
5.73995e-09
-3.51325e-11
1.29303e-08
1.03445e-11
4.63256e-10
1.10869e-08
4.75088e-10
4.59276e-10
1.09724e-08
1.41235e-09
1.94268e-10
1.15801e-08
1.04282e-09
-1.12767e-10
1.16327e-08
2.94344e-10
-3.52267e-10
9.68468e-09
1.56374e-11
-4.68012e-10
7.8558e-09
-3.41837e-11
-6.15279e-10
7.08785e-09
8.27396e-12
-1.16949e-09
6.89858e-09
4.74437e-10
-1.60442e-09
3.7489e-09
1.13335e-09
-9.62041e-10
-1.50611e-09
6.02789e-10
-3.85e-10
-2.26012e-09
1.97391e-10
-3.76464e-11
-1.84516e-09
4.55445e-10
6.30474e-11
-2.45394e-09
8.22063e-11
2.12906e-10
-2.66675e-10
2.8755e-10
9.43886e-10
-1.1796e-09
2.45709e-10
1.30155e-09
-1.67049e-09
5.33056e-10
1.52953e-09
-1.92378e-09
4.89165e-10
1.76032e-09
-2.18062e-09
8.6175e-11
1.5258e-09
-1.83692e-09
5.85087e-10
6.36556e-10
-3.4167e-09
6.87666e-10
1.26729e-10
-5.68842e-09
3.53999e-10
-1.49147e-10
-5.99858e-09
1.15445e-10
-2.5603e-10
-5.98725e-09
-5.40802e-11
-3.46076e-10
-5.83931e-09
-2.60768e-11
-3.07181e-10
-5.45215e-09
-1.25078e-10
-8.31185e-11
-3.67747e-09
-1.467e-10
3.91131e-11
5.63313e-09
-1.52366e-11
1.29765e-08
-6.58898e-12
7.73281e-10
1.0256e-08
5.80246e-11
7.56436e-10
1.00914e-08
8.98171e-10
4.15647e-10
1.02744e-08
1.64696e-09
-5.54374e-11
1.16245e-08
4.7976e-10
-4.42115e-10
9.95132e-09
1.20457e-10
-6.67634e-10
8.04743e-09
3.42059e-11
-8.86896e-10
7.26084e-09
4.65475e-11
-1.54215e-09
6.91436e-09
6.39716e-10
-1.15743e-09
2.45695e-09
9.07301e-10
-6.59549e-10
-1.95484e-09
-4.91597e-11
-5.26324e-10
-2.45493e-09
6.1582e-11
-2.06152e-10
-1.8768e-09
-2.88538e-10
-3.39254e-10
-2.4022e-09
8.13595e-11
5.50622e-10
-1.19022e-09
3.3663e-11
7.08454e-10
-1.94494e-09
6.07498e-10
1.244e-09
-1.87688e-09
-3.29166e-10
1.7338e-09
-2.20663e-09
-2.0696e-10
1.70956e-09
-2.5609e-09
4.04519e-10
1.89949e-09
-2.07687e-09
5.00263e-11
8.72343e-10
-3.46798e-09
1.07842e-09
4.26872e-10
-5.57199e-09
3.29038e-10
1.581e-10
-5.85164e-09
1.21826e-10
1.85531e-11
-5.8012e-09
-4.6506e-11
-7.51788e-11
-5.69077e-09
-5.48145e-11
-1.02115e-10
-5.33684e-09
-8.83783e-11
8.15522e-12
-3.63739e-09
-1.50359e-10
8.63716e-11
5.45227e-09
1.02825e-10
1.30809e-08
-1.74885e-11
9.00752e-10
9.38007e-09
-2.43956e-11
8.02294e-10
9.49561e-09
6.9454e-10
4.36738e-10
8.88782e-09
1.75243e-09
-1.39609e-10
1.16231e-08
5.78329e-10
-6.32286e-10
1.02814e-08
1.62982e-10
-9.55742e-10
8.38109e-09
-9.86818e-12
-1.23051e-09
7.61343e-09
-7.75321e-11
-1.44348e-09
6.84382e-09
2.83733e-10
-6.41286e-10
1.03883e-09
6.15969e-10
-5.33528e-10
-2.32377e-09
2.61175e-10
-3.97095e-10
-2.61684e-09
2.54822e-11
-2.82741e-10
-2.0425e-09
5.13441e-11
-2.70965e-10
-2.48509e-09
7.11127e-11
2.26497e-10
-1.77235e-09
8.46729e-11
6.87303e-10
-2.4904e-09
8.46585e-11
9.30485e-10
-2.24725e-09
1.27196e-10
1.30819e-09
-2.53333e-09
-5.10041e-11
2.04767e-09
-3.26918e-09
-3.12003e-11
2.27491e-09
-2.92643e-09
6.22316e-10
1.0956e-09
-3.82816e-09
1.53949e-09
7.51555e-10
-5.40747e-09
1.79536e-10
4.3742e-10
-5.67241e-09
1.34908e-10
2.9764e-10
-5.59982e-09
-6.16011e-11
1.66448e-10
-5.53637e-09
-2.32069e-11
1.1495e-10
-5.22923e-09
-5.61128e-11
1.28926e-10
-3.56134e-09
-9.00308e-11
1.4444e-10
5.14316e-09
2.93753e-10
1.31979e-08
2.79246e-11
4.34876e-10
8.13203e-09
8.13475e-10
3.93782e-10
8.6298e-09
9.07138e-10
1.37439e-10
8.21163e-09
9.32762e-10
-4.42071e-10
1.17013e-08
5.01805e-10
-1.00191e-09
1.06773e-08
1.64404e-10
-1.38246e-09
8.74432e-09
1.76823e-11
-1.78418e-09
8.06026e-09
-4.4807e-11
-1.03141e-09
6.38516e-09
-2.93883e-10
-1.47782e-10
-5.69014e-10
7.24222e-10
-3.61162e-10
-2.48628e-09
3.75893e-10
-2.43451e-10
-2.68126e-09
-5.32979e-11
-2.99e-10
-2.36463e-09
3.77678e-10
-2.22036e-10
-2.56681e-09
4.75659e-12
-9.88218e-11
-2.29879e-09
4.03218e-10
5.14429e-10
-2.70868e-09
-3.94973e-10
6.07739e-10
-2.66923e-09
3.28663e-10
8.62758e-10
-3.21654e-09
4.28199e-10
2.37216e-09
-3.95751e-09
-8.21074e-10
2.9814e-09
-4.21495e-09
6.79288e-10
1.3956e-09
-4.62973e-09
2.38737e-09
1.02659e-09
-5.22892e-09
1.90457e-10
6.77449e-10
-5.5019e-09
1.7863e-10
5.23969e-10
-5.38796e-09
-5.83731e-11
3.84667e-10
-5.37134e-09
-2.57287e-11
3.33829e-10
-5.11661e-09
-6.17853e-11
3.08561e-10
-3.4729e-09
-6.31811e-11
1.63628e-10
4.86064e-09
4.27585e-10
1.32622e-08
9.99346e-11
-2.26806e-11
6.96648e-09
1.18849e-09
-7.8945e-11
7.63409e-09
1.05218e-09
-3.65528e-10
8.22309e-09
2.75306e-10
-8.77484e-10
1.18078e-08
4.06017e-10
-1.38369e-09
1.1181e-08
2.99067e-12
-1.9413e-09
9.44243e-09
-1.40104e-10
-2.39988e-09
8.80642e-09
-2.87225e-10
-1.13315e-09
5.57741e-09
-4.58792e-10
-1.03911e-09
-9.95843e-10
3.3279e-10
-6.34083e-10
-2.06326e-09
-8.28048e-10
-5.14877e-10
-2.26124e-09
-5.39221e-10
-3.24566e-10
-1.81449e-09
-7.40443e-10
-5.54476e-10
-2.00443e-09
-3.32468e-10
-3.90543e-10
-1.6476e-09
-8.15121e-10
-4.20991e-10
-2.04893e-09
-6.29298e-10
2.27191e-11
-2.03894e-09
-1.074e-09
9.21022e-10
-2.88825e-09
-1.22659e-09
2.16967e-09
-4.08037e-09
-1.1258e-09
3.80156e-09
-4.65383e-09
-1.19301e-09
1.81554e-09
-5.38712e-09
2.74341e-09
1.46758e-09
-4.98136e-09
1.004e-10
9.65328e-10
-5.09751e-09
9.78613e-11
7.28802e-10
-5.10368e-09
-4.77633e-11
5.49803e-10
-5.17018e-09
-2.21604e-11
4.9572e-10
-4.97067e-09
-9.18523e-11
4.32109e-10
-3.35091e-09
-5.83894e-11
1.25572e-10
4.77865e-09
3.88644e-10
1.3249e-08
1.39249e-10
-2.48041e-10
6.33359e-09
8.81135e-10
-4.67928e-10
6.98169e-09
8.72468e-10
-9.44813e-10
8.85458e-09
-1.54426e-10
-1.48239e-09
1.21775e-08
1.68353e-10
-1.98523e-09
1.18082e-08
-1.23746e-10
-2.50958e-09
1.03227e-08
-3.55427e-10
-2.67289e-09
9.34073e-09
-3.70599e-10
-1.90426e-09
4.73313e-09
7.57853e-11
-2.27092e-09
-5.55321e-10
-7.38582e-11
-1.36835e-09
-4.09017e-10
-2.55682e-09
-9.10846e-10
-3.82986e-10
-2.33575e-09
-6.28069e-10
1.20943e-11
-2.10936e-09
-7.53413e-10
6.42588e-11
-1.94335e-09
-1.08519e-09
6.22535e-10
-1.93835e-09
-1.44786e-09
6.15453e-10
-2.30172e-09
-1.36546e-09
5.44593e-10
-2.66593e-09
-2.81936e-10
-2.52425e-11
-3.94654e-09
1.44295e-09
-9.0602e-10
-4.89923e-09
4.05766e-09
-1.16469e-09
-6.10385e-09
2.38925e-09
-3.3321e-09
-3.86612e-10
1.70064e-09
-3.91355e-09
-3.792e-10
1.10771e-09
-4.40291e-09
-1.01672e-10
8.04933e-10
-4.73581e-09
-6.50878e-11
6.15513e-10
-4.94111e-09
-3.96473e-11
5.69432e-10
-4.73589e-09
-1.88702e-10
4.64966e-10
-3.18532e-09
-6.11295e-11
3.576e-11
4.93915e-09
2.68825e-10
1.31485e-08
1.36817e-10
-2.96965e-10
6.03484e-09
5.95894e-10
-6.56924e-10
6.71134e-09
6.3046e-10
-1.21233e-09
9.84381e-09
-4.336e-10
-1.64706e-09
1.2708e-08
-9.52319e-11
-2.01308e-09
1.23587e-08
-1.83963e-10
-2.3249e-09
1.09467e-08
-3.11737e-10
-1.80679e-09
9.10441e-09
-2.8143e-10
-5.38437e-10
2.67291e-09
7.91947e-10
-2.63908e-10
-1.2321e-09
4.02245e-10
-3.6698e-10
-1.23551e-09
9.29569e-10
-2.73916e-10
-1.20472e-09
7.28669e-10
-1.12579e-10
-8.68972e-10
7.19728e-10
-4.4694e-11
-7.06044e-10
7.02418e-10
-1.47232e-10
-1.08287e-10
8.3336e-10
-3.72913e-10
2.10514e-10
6.30621e-10
-5.20318e-10
-2.02712e-11
7.12269e-10
-4.07304e-11
-5.8835e-10
8.35205e-11
5.62796e-10
-1.40208e-09
-1.07463e-10
1.24267e-09
-1.64826e-09
-1.96302e-10
1.01438e-09
-3.14507e-09
4.12686e-11
8.99751e-10
-3.69308e-09
-1.05843e-10
7.37175e-10
-4.17665e-09
-6.36801e-11
6.06382e-10
-4.55317e-09
-5.18505e-11
4.90358e-10
-4.79756e-09
-2.75298e-11
4.6783e-10
-4.31936e-09
-3.93998e-10
3.37834e-10
-2.95781e-09
-9.75178e-11
-7.75115e-11
5.24341e-09
1.11205e-10
1.29704e-08
1.01154e-10
-3.25705e-10
5.96007e-09
4.00639e-10
-8.0641e-10
6.96788e-09
2.24288e-10
-1.58316e-09
1.09159e-08
-2.95082e-10
-1.98148e-09
1.32871e-08
-1.80235e-10
-2.29279e-09
1.28852e-08
-2.14483e-10
-2.45791e-09
1.14305e-08
-3.18216e-10
-1.42441e-09
8.49338e-09
-4.22167e-10
-6.86859e-10
9.26747e-10
1.00863e-09
-6.05423e-10
-1.22088e-09
-9.26492e-11
-4.3723e-10
-1.44416e-09
4.04535e-11
-3.60548e-10
-1.313e-09
3.16028e-11
-2.11522e-10
-9.99962e-10
-1.80358e-11
-5.90371e-11
-8.04477e-10
-5.40523e-11
2.30905e-10
-4.70643e-10
7.24127e-11
2.29746e-10
3.51489e-12
2.08159e-10
5.49945e-11
-2.48273e-10
4.02753e-10
3.06876e-10
-9.80094e-10
1.39863e-10
5.78114e-10
-1.64587e-09
-2.74474e-11
1.08965e-09
-1.98859e-09
-1.71211e-10
9.33017e-10
-2.93757e-09
-5.08695e-11
7.95883e-10
-3.50523e-09
-5.07109e-11
6.49456e-10
-3.99707e-09
-3.31555e-11
5.39465e-10
-4.37316e-09
-7.00142e-11
4.14654e-10
-4.62777e-09
-4.49739e-11
3.41245e-10
-3.67059e-09
-5.75361e-10
1.67224e-10
-2.66222e-09
-1.21576e-10
-1.05188e-10
5.51347e-09
2.4829e-12
1.28573e-08
8.43175e-12
-3.37884e-10
5.96533e-09
3.32778e-10
-8.55437e-10
7.61447e-09
-1.28937e-10
-1.63995e-09
1.18999e-08
-1.99197e-10
-1.93975e-09
1.38659e-08
-2.78318e-10
-2.16359e-09
1.33288e-08
-2.1921e-10
-2.21699e-09
1.14909e-08
-6.49987e-12
-9.10181e-10
7.09592e-09
9.08974e-11
-5.87201e-10
-8.0384e-12
6.1181e-10
-4.46455e-10
-1.39866e-09
3.70309e-11
-2.45501e-10
-1.72504e-09
7.99256e-11
-7.3229e-11
-1.55487e-09
6.95944e-11
8.68963e-11
-1.27301e-09
1.12922e-10
2.39242e-10
-1.10613e-09
1.49307e-10
2.96281e-10
-8.04638e-10
2.76957e-10
6.38704e-11
-1.33569e-10
3.69495e-10
-2.03564e-10
-2.87734e-10
3.06896e-10
-1.96921e-11
-1.26919e-09
1.05227e-10
2.22247e-10
-1.87862e-09
-9.19429e-12
5.01028e-10
-2.19825e-09
-6.91185e-11
4.84666e-10
-2.90145e-09
-1.97603e-11
4.63612e-10
-3.40144e-09
-8.27382e-11
4.07301e-10
-3.86516e-09
-7.56036e-11
3.47278e-10
-4.23685e-09
-7.6294e-11
2.54844e-10
-4.48283e-09
-5.2507e-11
1.61752e-10
-3.19064e-09
-3.86864e-10
-2.82822e-11
-2.40693e-09
-6.52609e-11
-9.30017e-11
5.64434e-09
-6.60106e-11
1.2755e-08
9.75604e-12
-4.17755e-10
6.07812e-09
3.05105e-10
-1.01409e-09
8.65072e-09
-4.39801e-10
-1.79705e-09
1.27229e-08
-3.96593e-11
-2.05221e-09
1.43464e-08
-2.24769e-10
-2.16884e-09
1.36297e-08
-1.83595e-10
-2.00233e-09
1.12562e-08
6.87427e-11
-6.74067e-10
5.46184e-09
3.0598e-10
-5.49633e-10
-4.23458e-10
2.90985e-10
-5.08146e-10
-1.51587e-09
7.5724e-11
-2.63878e-10
-1.79821e-09
-1.71094e-10
-1.02194e-10
-1.54277e-09
-1.73787e-10
1.83849e-11
-1.24647e-09
-1.47118e-10
1.11882e-10
-1.07206e-09
-1.27568e-10
1.508e-10
-8.61499e-10
1.79429e-11
2.07985e-10
-2.71644e-10
8.08905e-11
6.03695e-11
-3.07825e-10
1.67706e-10
1.23277e-10
-1.21917e-09
-1.12928e-10
1.88846e-10
-1.88159e-09
-6.25977e-11
3.13979e-10
-2.21369e-09
-1.09693e-10
3.19974e-10
-2.80295e-09
-1.04498e-10
3.17761e-10
-3.28049e-09
-1.18739e-10
2.797e-10
-3.70855e-09
-1.18551e-10
2.31544e-10
-4.04388e-09
-1.44813e-10
1.49131e-10
-4.26764e-09
-1.32778e-10
8.41915e-12
-2.84666e-09
-2.03268e-10
-1.55859e-10
-2.14141e-09
-1.01253e-10
-3.14605e-11
5.66461e-09
-1.4453e-10
1.27612e-08
-3.7065e-11
-4.79601e-10
6.14951e-09
4.08333e-10
-9.91703e-10
9.62308e-09
-4.60129e-10
-1.62219e-09
1.33704e-08
-1.64942e-11
-1.84519e-09
1.47949e-08
-2.24762e-10
-1.92416e-09
1.38362e-08
-1.26834e-10
-1.56378e-09
1.07619e-08
1.34294e-10
-5.32656e-10
3.51064e-09
9.20159e-10
-3.58224e-10
-1.11341e-09
5.15523e-10
-3.51638e-10
-1.79428e-09
2.71824e-10
-1.70154e-10
-1.91332e-09
-6.63734e-11
-2.0711e-11
-1.57164e-09
-1.20571e-10
8.21927e-11
-1.28619e-09
-6.31798e-11
1.81072e-10
-1.14096e-09
-2.99778e-11
2.12706e-10
-1.00233e-09
1.09192e-10
7.16647e-11
-3.84316e-10
2.53713e-10
-1.37519e-10
-4.16306e-10
3.17664e-10
-3.59126e-11
-1.31441e-09
-6.36601e-12
5.45305e-11
-1.89577e-09
-7.62622e-11
1.38351e-10
-2.20245e-09
-9.50592e-11
1.51849e-10
-2.68091e-09
-1.35539e-10
1.52533e-10
-3.05662e-09
-2.24552e-10
1.45513e-10
-3.41901e-09
-2.82515e-10
1.1552e-10
-3.71448e-09
-2.99402e-10
5.117e-11
-3.91601e-09
-2.87274e-10
-7.37482e-11
-2.58766e-09
-1.34079e-10
-2.18056e-10
-1.85537e-09
-1.41727e-10
2.14596e-11
5.66365e-09
-2.38415e-10
1.28294e-08
-4.62868e-11
-4.90035e-10
6.41196e-09
2.27719e-10
-1.0603e-09
1.0527e-08
-3.33515e-10
-1.62462e-09
1.39459e-08
-1.07823e-11
-1.82601e-09
1.51098e-08
-1.12848e-10
-1.89285e-09
1.39174e-08
-1.37282e-11
-1.30039e-09
9.92971e-09
2.40151e-10
-4.32855e-10
1.64158e-09
1.00156e-09
-2.32e-10
-1.44683e-09
1.32564e-10
-1.89681e-10
-1.73653e-09
-1.00066e-10
-8.3315e-11
-1.73958e-09
-2.80111e-10
-4.74351e-12
-1.4237e-09
-2.26508e-10
3.72822e-11
-1.17779e-09
-1.50429e-10
7.86725e-11
-1.05702e-09
-1.2533e-10
9.06473e-11
-9.60443e-10
-5.38574e-11
3.48516e-11
-4.34503e-10
1.05983e-10
-4.6604e-11
-4.11796e-10
7.69455e-11
-2.71386e-12
-1.22313e-09
-1.35169e-10
2.98153e-11
-1.74061e-09
-1.87692e-10
6.63039e-11
-2.02077e-09
-2.18168e-10
8.88496e-11
-2.39664e-09
-3.06817e-10
8.98129e-11
-2.66993e-09
-3.87656e-10
6.74124e-11
-2.97291e-09
-4.23697e-10
3.64253e-11
-3.22264e-09
-4.60852e-10
-8.43556e-12
-3.40994e-09
-4.61216e-10
-7.52417e-11
-2.68399e-09
1.63134e-10
-1.85165e-10
-1.55146e-09
-1.9399e-10
8.84461e-11
5.59822e-09
-2.08034e-10
1.30014e-08
-8.29862e-11
-3.75097e-10
-2.91603e-10
-8.219e-10
-3.91038e-10
-1.26205e-09
-1.2773e-11
-1.46418e-09
-4.06503e-11
-1.50425e-09
1.62744e-10
-9.19107e-10
1.87143e-10
-3.90624e-10
5.07197e-10
-2.0649e-10
8.32715e-11
-1.15835e-10
-6.24911e-11
-5.22546e-11
-1.49218e-10
-8.43943e-12
-1.19206e-10
1.25303e-11
-7.30192e-11
3.42711e-11
-6.18385e-11
4.10791e-11
-2.63055e-11
-9.90517e-12
8.56759e-11
-5.55354e-11
7.33032e-11
-2.70142e-11
-6.65799e-11
-2.40688e-12
-1.26292e-10
1.3209e-11
-1.4662e-10
1.78343e-11
-2.00928e-10
1.96183e-11
-2.6252e-10
1.92996e-11
-2.91484e-10
7.97934e-12
-3.0556e-10
-1.42008e-11
-3.01006e-10
-1.89853e-11
1.73955e-10
-4.62342e-11
-1.44798e-10
5.34598e-11
-5.84277e-12
-7.85002e-11
-1.21202e-09
5.03455e-09
-5.86116e-09
-2.69382e-09
6.3785e-09
-8.22806e-09
-4.05629e-09
5.91008e-09
-7.424e-09
-5.28132e-09
5.4133e-09
-6.66684e-09
-6.57247e-09
5.09248e-09
-6.21317e-09
-7.82437e-09
4.60712e-09
-5.61333e-09
-8.94778e-09
4.13616e-09
-5.38623e-09
-9.93079e-09
3.82761e-09
-5.14065e-09
-1.07938e-08
3.69789e-09
-5.08898e-09
-1.15432e-08
3.67019e-09
-5.12866e-09
-1.21631e-08
3.67936e-09
-5.32702e-09
-1.26139e-08
3.70411e-09
-5.66164e-09
-1.2864e-08
3.76891e-09
-6.12192e-09
-1.28887e-08
3.87146e-09
-6.73584e-09
-1.25963e-08
4.01663e-09
-7.6021e-09
-1.19026e-08
4.12505e-09
-8.63572e-09
-1.07483e-08
4.20085e-09
-9.7437e-09
-9.05573e-09