/*--------------------------------*- C++ -*----------------------------------*\
| =========                 |                                                 |
| \\      /  F ield         | OpenFOAM: The Open Source CFD Toolbox           |
|  \\    /   O peration     | Version:  2.3.0                                 |
|   \\  /    A nd           | Web:      www.OpenFOAM.org                      |
|    \\/     M anipulation  |                                                 |
\*---------------------------------------------------------------------------*/
FoamFile
{
    version     2.0;
    format      ascii;
    class       volScalarField;
    location    "2.00071";
    object      rho;
}
// * * * * * * * * * * * * * * * * * * * * * * * * * * * * * * * * * * * * * //

dimensions      [1 -3 0 0 0 0 0];

internalField   nonuniform List<scalar> 
18816
(
570.929
529.01
533.629
543.432
547.027
547.938
548.273
546.573
550.206
556.202
564.628
574.02
584.82
597.533
611.183
625.285
638.772
651.398
662.013
670.585
673.704
677.535
667.16
656.447
632.597
595.729
559.62
560.318
571.013
548.111
563.56
573.424
575.473
574.664
573.649
580.218
592.227
603.215
614.453
630.452
654.439
675.791
697.434
717.491
735.308
751.402
763.772
772.905
778.184
783.267
768.457
752.935
718.833
665.056
587.629
578.801
574.331
584.009
601.433
604.461
606.119
606.356
608.871
620.652
632.861
649.148
675.041
689.84
705.6
727.385
743.869
758.117
770.034
780.089
787.639
793.331
796.459
791.673
787.2
777.203
754.373
709.307
615.633
588.962
578.147
532.057
598.496
610.472
609.044
608.522
614.602
630.476
647.532
676.174
712.977
737.595
748.052
763.57
781.536
799.571
818.232
837.962
857.17
874.757
880.895
883.76
887.758
864.123
807.225
739.867
634.183
593.783
579.857
531.998
579.98
610.381
611.715
611.195
619.827
635.092
658.288
698.479
745.127
779.989
803.435
836.907
881.366
928.512
968.365
993.14
1000.43
1000.61
986.614
970.756
950.248
931.754
881.773
772.793
647.454
595.626
581.214
532.02
532.105
594.464
601.811
604.836
616.397
639.441
671.049
718.781
775.844
839.428
900.691
956.752
993.432
1011.71
1017.62
1020.03
1021.78
1022.29
1013.57
990.519
949.476
909.9
885.292
794.516
656.472
596.97
582.688
532.242
532.184
567.978
583.632
591.916
606.895
643.663
676.87
730.59
799.916
885.545
941.177
968.477
982.139
981.161
988.569
1003.99
1021.12
1024.94
1025.38
1013.5
974.12
901.026
841.72
793.008
663.014
597.026
584.408
532.348
532.436
545.43
570.769
582.985
605.094
642.172
681.673
742.375
822.197
893.082
925.317
931.761
932.02
937.193
928.472
948.092
996.804
1021.58
1026.83
1024.22
1003.01
930.373
832.087
784.164
663.633
596.491
586.428
532.461
532.526
542.135
568
583.121
606.453
643.769
688.126
754.198
825.84
879.361
887.484
898.775
899.162
913.664
901.885
897.28
948.261
1008.05
1026.94
1026.76
1019.58
971.456
855.068
757.292
663.992
596.052
587.306
532.793
532.526
543.393
568.459
584
608.344
646.134
690.935
755.463
817.234
852.757
845.173
867.146
862.209
874.9
879.83
872.712
889.632
983.921
1026.95
1027.09
1025.57
1002.76
900.479
760.794
665.447
596.418
587.895
532.96
532.722
546.626
569.017
584.569
608.147
646.131
694.208
759.603
788.665
817.531
809.774
834.417
828.467
836.418
846.743
831.751
826.539
953.45
1026.75
1027.11
1026.93
1019.37
947.481
791.309
668.015
597.187
587.905
533.116
532.93
548.099
569.098
584.501
607.557
645.283
696.792
753.647
769.821
804.177
781.798
812.493
803.739
807.793
815.397
798.107
788.854
932.178
1026.59
1027.11
1027.1
1025.64
985.678
788.578
670.132
597.667
587.521
533.29
533.132
547.102
568.869
584.102
606.18
643.388
696.009
742.446
759.713
783.243
757.326
782.592
774.419
775.191
778.837
780.653
787.809
927.202
1026.48
1027.11
1027.11
1026.98
1016.72
886.022
671.992
598.007
585.611
535.368
533.755
540.447
568.482
583.789
604.316
640.82
696.25
737.853
750.155
760.48
791.663
759.47
741.757
742.553
750.048
822.13
871.949
988.551
1026.46
1027.11
1027.11
1027.11
1025.46
963.283
673.45
598.33
580.16
543.453
534.951
535.197
567.116
582.881
601.834
639.089
696.685
743.461
783.141
777.089
924.513
776.427
722.775
760.237
836.141
941.405
983.48
1020.45
1027.04
1027.11
1027.11
1027.11
1026.7
988.097
675.282
598.616
580.013
577.887
536.008
535.105
564.534
581.328
599.216
635.423
713.238
874.704
949.31
943.593
991.001
777.597
802.77
897.752
978.787
1015.98
1023.57
1026.76
1027.11
1027.11
1027.11
1027.11
1026.99
999.299
678.312
598.777
580.82
657.169
556.27
535.105
560.975
578.551
595.866
636.701
764.12
996.747
1017.63
1016.46
1006.63
846.224
943.176
1006.03
1023.59
1026.71
1027.02
1027.1
1027.11
1027.11
1027.11
1027.11
1027.07
1004.87
685.813
598.957
593.914
713.825
624.557
535.243
558.004
576.332
593.192
643.28
820.37
1023.56
1026.27
1025.85
1023.98
1000.43
1020.76
1026.14
1027.02
1027.1
1027.11
1027.11
1027.11
1027.11
1027.11
1027.11
1027.09
1006.66
705.402
599.295
623.459
735.949
729.776
535.956
555.976
572.993
593.161
655.152
866.503
1026.64
1026.85
1026.69
1026.62
1026.36
1027
1027.08
1027.1
1027.11
1027.11
1027.11
1027.11
1027.11
1027.11
1027.11
1027.09
1007.53
738.906
599.866
663.814
750.671
798.784
544.532
552.688
573.238
597.219
700.571
1003.71
1027
1026.86
1026.71
1026.72
1026.94
1027.08
1027.1
1027.11
1027.11
1027.11
1027.11
1027.11
1027.11
1027.11
1027.11
1027.09
1007.3
771.708
600.794
705.912
768.21
798.41
567.243
550.047
576.107
616.92
802.243
1026.71
1027.03
1026.89
1026.76
1026.78
1026.98
1027.09
1027.11
1027.11
1027.11
1027.11
1027.11
1027.11
1027.11
1027.11
1027.11
1027.09
1006.01
784.6
600.878
737.581
798.7
787.419
582.389
548.565
579.944
641.564
858.818
1027.09
1027.09
1027.07
1026.98
1026.9
1026.86
1027.03
1027.1
1027.11
1027.11
1027.11
1027.11
1027.11
1027.11
1027.11
1027.11
1027.08
1003.49
780.361
600.666
760.999
853.889
763.158
583.003
548.927
587.789
680.069
932.801
1027.11
1027.11
1027.11
1027.11
1027.1
1027.06
1027.04
1027.09
1027.11
1027.11
1027.11
1027.11
1027.11
1027.11
1027.11
1027.11
1027.08
1000.34
772.619
599.837
780.233
891.369
736.649
582.296
549.64
596.306
727.343
1002.58
1027.11
1027.11
1027.11
1027.11
1027.11
1027.11
1027.1
1027.11
1027.11
1027.11
1027.11
1027.11
1027.11
1027.11
1027.11
1027.11
1027.07
997.672
767.293
599.513
796.611
890.578
710.196
579.099
551.173
610.382
783.59
1024.08
1027.11
1027.11
1027.11
1027.11
1027.11
1027.11
1027.11
1027.11
1027.11
1027.11
1027.11
1027.11
1027.11
1027.11
1027.11
1027.11
1027.07
1000.75
767.496
599.513
809.812
885.008
689.488
575.853
553.122
629.58
841.41
1025.36
1027.11
1027.11
1027.11
1027.11
1027.11
1027.11
1027.11
1027.11
1027.11
1027.11
1027.11
1027.11
1027.11
1027.11
1027.11
1027.11
1027.08
1007.59
769.222
599.513
825.896
876.229
672.898
571.792
555.057
656.949
908.056
1026.6
1027.11
1027.11
1027.11
1027.11
1027.11
1027.11
1027.11
1027.11
1027.11
1027.11
1027.11
1027.11
1027.11
1027.11
1027.11
1027.11
1027.11
1017.53
772.868
599.725
832.743
863.772
657.254
567.982
558.646
702.229
956.608
1027.09
1027.11
1027.11
1027.11
1027.11
1027.11
1027.11
1027.11
1027.11
1027.11
1027.11
1027.11
1027.11
1027.11
1027.11
1027.11
1027.11
1027.11
1025.75
782.121
600.639
545.867
551.031
551.128
536.31
537.903
537.067
547.945
565.875
586.551
609.208
633.446
657.533
680.885
703.659
725.509
745.841
763.958
779.342
791.166
800.154
803.136
805.672
796.338
785.569
754.322
694.073
611.631
537.734
541.16
541.619
551.221
552.499
552.182
575.793
625.9
671.297
714.935
751.686
780.81
807.739
835.112
861.017
884.959
906.135
923.788
938.449
948.85
955.196
957.431
956.496
950.369
941.889
920.244
863.041
747.227
581.788
551.732
546.328
558.338
566.935
587.719
647.231
722.451
771.802
796.14
806.629
827.646
872.746
904.029
922.66
936.49
946.66
954.339
959.43
962.004
963.184
959.194
950.672
925.291
927.192
917.971
882.235
790.834
624.95
566.687
588.487
567.204
582.601
614.863
691.598
760.091
788.273
795.344
803.6
825.321
858.913
883.923
894.49
900.494
907.517
918.637
932.022
944.424
951.918
954.711
947.988
942.01
926.009
892.141
863.61
788.614
630.949
582.556
601.13
595.581
589.173
638.541
729.481
781.51
791.663
793.625
799.801
815.052
837.189
868.285
895.429
924.066
960.762
991.417
1008.83
1013.31
1014.27
1006.85
991.459
968.961
943.001
906.51
851.004
783.044
635.784
597.487
606.721
638.061
610.042
668.434
743.91
777.595
788.467
794.52
804.154
823.588
860.181
914.915
962.457
996.89
1013.76
1018.63
1021.5
1024.13
1024.75
1021.54
1005.43
969.129
931.858
898.268
849.482
775.424
635.67
607.842
605.017
634.491
637.951
687.849
745.46
787.222
803.058
803.031
812.462
839.084
896.611
949.029
973.476
982.56
979.079
984.103
997.732
1019.45
1025.57
1026.51
1020.82
992.432
930.853
886.86
854.756
770.164
635.698
615.596
601.866
627.238
641.765
684.732
740.219
783.291
800.136
802.808
821.021
848.484
909.56
934.368
939.638
926.255
927.019
922.372
938.983
991.976
1020.32
1026.98
1026.23
1014.73
960.947
882.6
856.522
767.552
636.182
620.235
599.129
620.611
637.525
679.729
734.606
774.183
789.918
797.873
819.528
861.534
901.02
896.451
903.463
889.523
893.488
889.787
893.1
943.563
1006.96
1027.01
1027.05
1024.26
994.663
904.375
833.19
768.207
638.06
619.086
597.62
616.709
637.305
680.832
736.244
770.877
781.941
787.952
805.804
852.564
882.045
853.946
870.88
859.191
865.843
872.724
869.124
889.995
985.441
1026.92
1027.11
1026.69
1015.5
944.026
839.191
767.752
640.708
616.752
596.392
613.221
638.1
683.02
739.181
767.316
770.894
771.666
820.755
845.307
857.329
829.311
844.637
827.255
838.079
857.966
841.559
841.509
961.324
1026.78
1027.11
1027.08
1024.21
979.189
855.61
767.081
642.876
613.92
593.924
608.266
637.207
683.119
740.855
763.923
758.639
762.747
821.083
828.511
842.965
825.995
834.254
805.722
822.675
837.476
824.026
826.177
946.776
1026.67
1027.11
1027.11
1026.72
1005.42
846.457
765.547
643.75
610.804
587.587
602.582
632.643
681.634
740.992
759.29
746.835
753.499
811.076
817.919
821.681
841.387
814.763
778.257
780.483
788.625
813.367
823.802
945.012
1026.61
1027.11
1027.11
1027.1
1024.27
949.017
763.385
644.111
607.536
569.412
595.488
624.407
678.387
740.167
755.195
735.549
749.128
815.859
825.115
819.007
908.81
822.96
767.044
768.535
781.804
871.09
911.954
999.681
1026.6
1027.11
1027.11
1027.11
1026.95
1005.38
762.338
644.212
604.026
557.516
579.969
614.002
672.444
736.716
750.372
724.175
742.293
828.698
876.747
834.864
980.747
832.722
786.292
816.888
877.982
967.301
997.846
1022.84
1027.07
1027.11
1027.11
1027.11
1027.08
1015.39
762.294
644.451
599.324
566.749
564.458
600.624
662.744
730.458
745.655
714.08
756.781
944.071
994.319
975.919
1010.98
811.867
866.892
939.462
993.686
1020.44
1024.75
1026.88
1027.11
1027.11
1027.11
1027.11
1027.1
1019.14
758.671
644.853
596.34
600.77
571.046
586.114
649.839
720.455
737.144
702.827
801.761
1017.99
1024.55
1023.41
1017.13
929.546
974.325
1015.17
1025.36
1026.9
1027.05
1027.1
1027.11
1027.11
1027.11
1027.11
1027.11
1020.42
756.482
645.48
596.293
639.75
607.311
581.702
634.43
710.444
730.678
705.259
849.594
1025.58
1026.76
1026.38
1025.48
1016.03
1024.11
1026.6
1027.05
1027.1
1027.11
1027.11
1027.11
1027.11
1027.11
1027.11
1027.11
1019.45
762.159
645.836
596.214
664.345
671.145
583.659
630.084
701.148
720.214
711.921
895.182
1026.76
1026.9
1026.65
1026.59
1026.59
1027.03
1027.08
1027.1
1027.11
1027.11
1027.11
1027.11
1027.11
1027.11
1027.11
1027.11
1018.56
783.601
645.875
598.539
687.965
738.695
591.972
632.402
701.383
722.888
750.158
1016.1
1027.04
1026.94
1026.74
1026.72
1026.9
1027.08
1027.1
1027.11
1027.11
1027.11
1027.11
1027.11
1027.11
1027.11
1027.11
1027.1
1016.91
817.062
646.058
601.102
720.074
747.482
608.105
638.945
706.525
737.765
843.524
1027
1027.08
1027.03
1026.9
1026.85
1026.92
1027.08
1027.11
1027.11
1027.11
1027.11
1027.11
1027.11
1027.11
1027.11
1027.11
1027.1
1014.6
831.031
646.021
603.014
766.225
743.607
624.965
646.826
713.729
754.855
885.375
1027.07
1027.09
1027.09
1027.02
1026.94
1026.85
1027.04
1027.1
1027.11
1027.11
1027.11
1027.11
1027.11
1027.11
1027.11
1027.11
1027.1
1011.6
826.667
645.706
612.885
819.262
733.461
637.438
656.797
724.616
782.798
945.843
1027.09
1027.11
1027.11
1027.11
1027.1
1027.07
1027.04
1027.09
1027.11
1027.11
1027.11
1027.11
1027.11
1027.11
1027.11
1027.11
1027.1
1008.36
813.547
645.815
653.564
831.357
721.791
645.529
666.852
733.75
816.299
1009.51
1027.1
1027.11
1027.11
1027.11
1027.11
1027.11
1027.1
1027.11
1027.11
1027.11
1027.11
1027.11
1027.11
1027.11
1027.11
1027.11
1027.1
1005.92
792.877
645.993
725.948
827.636
710.023
650.777
677.058
745.318
859.699
1026.14
1027.11
1027.11
1027.11
1027.11
1027.11
1027.11
1027.1
1027.11
1027.11
1027.11
1027.11
1027.11
1027.11
1027.11
1027.11
1027.11
1027.09
1008.52
784.28
646.407
782.131
820.91
701.217
655.373
685.034
758.138
895.798
1026.38
1027.11
1027.11
1027.11
1027.11
1027.11
1027.11
1027.11
1027.11
1027.11
1027.11
1027.11
1027.11
1027.11
1027.11
1027.11
1027.11
1027.1
1014.25
786.199
646.972
797.764
813.265
694.442
658.918
693.503
773.417
937.804
1026.96
1027.11
1027.11
1027.11
1027.11
1027.11
1027.11
1027.11
1027.11
1027.11
1027.11
1027.11
1027.11
1027.11
1027.11
1027.11
1027.11
1027.11
1021.64
795.526
647.848
803.461
804.095
686.778
658.886
696.401
803.765
979.554
1027.11
1027.11
1027.11
1027.11
1027.11
1027.11
1027.11
1027.11
1027.11
1027.11
1027.11
1027.11
1027.11
1027.11
1027.11
1027.11
1027.11
1027.11
1026.55
828.104
649.921
534.152
535.673
549.255
572.981
592.305
609.144
628.007
649.073
672.192
696.371
720.393
743.702
765.838
786.888
806.449
824.042
839.183
851.607
860.821
867.49
869.26
870.32
863.062
854.604
828.484
773.16
693.36
578.828
535.58
595.717
676.066
721.138
739.508
768.661
801.437
829.905
857.453
881.8
902.773
924.052
945.219
962.836
978.001
990.051
998.908
1005.23
1009.06
1011.18
1011.67
1010.9
1008.28
1003.99
991.469
952.462
863.481
694.232
597.463
703.395
769.537
816.727
851.436
887.764
920.354
942.866
955.698
963.064
971.772
984.574
994.277
1000.36
1003.79
1005.69
1006.78
1007.27
1007.38
1005.62
1003.27
996.296
988.851
986.099
986.429
975.522
923.887
767.473
663.268
754.482
811.586
855.05
890.481
919.715
944.091
953.325
954.989
958.688
965.589
976.097
979.139
976.942
974.797
976.267
982.803
990.977
996.811
1000.71
1002.38
992.782
982.77
966.414
949.187
956.35
922.657
776.817
709.358
750.044
846.873
882.144
907.279
931.755
947.874
950.507
945.75
938.02
930.796
928.135
936.385
950.285
972.162
995.657
1012.71
1020.35
1023.15
1024.07
1023.65
1017.26
1003.62
979.606
928.06
929.232
915.465
788.221
745.021
739.965
827.789
866.867
888.014
920.052
939.272
942.965
934.214
922.614
911.605
908.687
950.318
980.741
1004.33
1015.18
1017.45
1020.75
1025.27
1026.37
1026.59
1023.05
1009
981.815
945.367
916.932
904.397
786.723
769.158
728.72
800.323
825.748
853.899
902.057
930.198
938.043
926.732
916.668
908.99
921.869
964.666
978.91
982.057
974.475
974.765
989
1015.46
1025.3
1027.02
1026.3
1018.76
991.698
954.341
925.811
895.846
786.791
781.024
718.026
773.206
785.869
824.4
886.76
919.914
925.464
909.461
899.358
893.589
926.292
942.376
933.229
916.423
917.124
912.989
937.539
985.654
1019.73
1027.05
1027.05
1024.81
1004.76
956.681
929.948
897.224
787.958
791.852
711.326
751.952
756.982
811.886
880.514
908.134
908.17
889.313
879.8
889.564
910.386
886.103
892.563
878.333
888.394
888.372
905.01
943.671
1008.84
1027.03
1027.11
1026.75
1018.65
973.723
912.618
900.631
790.916
792.409
709.15
739.329
752.25
814.944
882.656
903.067
895.11
868.441
848.793
877.014
884.947
868.177
871.225
872.253
877.535
891.651
879.688
906.866
994.375
1026.94
1027.11
1027.06
1024.61
999.733
948.803
902.245
794.327
787.595
707.604
729.717
753.461
820.268
884.286
898.246
876.872
846.073
861.431
864.559
866.31
886.815
873.806
876.765
898.738
918.443
911.729
893.968
982.006
1026.84
1027.11
1027.11
1026.49
1010.99
954.946
904.102
797.374
778.138
704.144
718.151
751.882
820.734
883.905
892.713
857.842
833.139
861.422
860.939
863.573
948.333
905.612
889.988
923.233
926.755
921.976
921.828
975.073
1026.78
1027.11
1027.11
1027.03
1019.49
940.391
903.407
799.572
765.708
694.342
705.059
744.513
818.601
881.898
885.721
839.528
815.665
861.492
897.945
875.732
983.319
901.485
891.554
903.561
898.197
915.551
909.345
974.792
1026.74
1027.11
1027.11
1027.11
1026.46
998.569
902.134
800.998
750.266
667.939
689.461
730.826
812.948
878.541
878.849
823.134
807.982
911.181
941.199
907.433
1002.28
904.876
910.656
905.392
892.391
946.235
962.593
1012.16
1026.9
1027.11
1027.11
1027.11
1027.05
1017.99
902.075
801.934
732.194
617.096
663.018
711.926
801.569
872.611
870.666
807.259
802.81
939.491
972.404
908.455
1015.35
895.615
931.637
929.898
947.922
995.464
1010.25
1024.89
1027.09
1027.11
1027.11
1027.11
1027.09
1020.18
901.292
802.916
708.948
597.978
618.642
686.405
782.974
863.162
862.004
793.441
809.57
994.263
1016.85
994.955
1022.94
899.737
965.433
991.479
1010.52
1023.63
1025.59
1026.98
1027.11
1027.11
1027.11
1027.11
1027.1
1020.86
892.823
803.804
687.377
605.613
597.256
656.122
759.561
848.106
849.218
777.964
836.352
1023.32
1025.93
1023.77
1024.58
1001.57
1008.31
1022.5
1026.14
1026.95
1027.04
1027.1
1027.11
1027.11
1027.11
1027.11
1027.11
1020.74
872.987
805.19
681.381
620.489
604.154
630.32
730.798
833.755
836.915
770.844
872.012
1026.15
1026.83
1026.37
1026.33
1024.25
1026.04
1026.81
1027.03
1027.09
1027.1
1027.11
1027.11
1027.11
1027.11
1027.11
1027.11
1020.15
865.584
805.276
667.444
630.677
623.012
628.461
716.716
815.715
815.922
778.375
921.665
1026.77
1026.97
1026.67
1026.62
1026.62
1027
1027.06
1027.1
1027.11
1027.11
1027.11
1027.11
1027.11
1027.11
1027.11
1027.11
1019.29
873.824
804.374
646.289
639.039
649.833
632.328
720.093
811.794
817.24
812.36
1021.99
1027.05
1027.02
1026.81
1026.74
1026.81
1027.05
1027.1
1027.11
1027.11
1027.11
1027.11
1027.11
1027.11
1027.11
1027.11
1027.1
1017.89
898.318
802.922
627.821
661.807
674.542
642.654
732.577
815.708
827.094
890.234
1027.06
1027.09
1027.07
1026.96
1026.88
1026.87
1027.06
1027.1
1027.11
1027.11
1027.11
1027.11
1027.11
1027.11
1027.11
1027.11
1027.1
1015.99
911.354
801.776
608.154
711.016
695.852
656.698
749.49
821.411
838.316
919.852
1027.07
1027.1
1027.1
1027.06
1026.99
1026.85
1027.05
1027.1
1027.11
1027.11
1027.11
1027.11
1027.11
1027.11
1027.11
1027.11
1027.1
1013.78
907.949
800.192
599.631
770.141
708.694
673.415
769.11
829.983
857.172
964.992
1027.09
1027.11
1027.11
1027.11
1027.11
1027.08
1027.05
1027.1
1027.11
1027.11
1027.11
1027.11
1027.11
1027.11
1027.11
1027.11
1027.1
1011.55
890.023
800.255
606.766
795.548
715.665
691.467
785.733
835.511
881.267
1017.51
1027.11
1027.11
1027.11
1027.11
1027.11
1027.11
1027.09
1027.1
1027.11
1027.11
1027.11
1027.11
1027.11
1027.11
1027.11
1027.11
1027.1
1009.78
859.328
800.064
647.655
796.36
720.65
709.382
798.977
842.635
913.812
1026.84
1027.11
1027.11
1027.11
1027.11
1027.11
1027.11
1027.07
1027.09
1027.11
1027.11
1027.11
1027.11
1027.11
1027.11
1027.11
1027.11
1027.1
1013.39
848.549
800.155
726.681
796.407
725.994
724.233
808.02
850.926
940.493
1026.92
1027.11
1027.11
1027.11
1027.11
1027.11
1027.11
1027.09
1027.1
1027.11
1027.11
1027.11
1027.11
1027.11
1027.11
1027.11
1027.11
1027.11
1018.68
851.852
800.298
782.18
795.348
731.827
739.516
814.783
859.938
968.552
1027.08
1027.11
1027.11
1027.11
1027.11
1027.11
1027.11
1027.1
1027.11
1027.11
1027.11
1027.11
1027.11
1027.11
1027.11
1027.11
1027.11
1027.11
1024.1
863.129
800.695
809.431
791.517
733.372
745.485
816.46
880.537
999.339
1027.11
1027.11
1027.11
1027.11
1027.11
1027.11
1027.11
1027.11
1027.11
1027.11
1027.11
1027.11
1027.11
1027.11
1027.11
1027.11
1027.11
1027.11
1026.85
896.394
801.74
532.08
539.351
573.487
606.299
634.443
658.845
684.108
707.717
731.181
754.544
777.233
798.935
819.217
838.177
855.453
870.305
882.577
892.167
898.833
903.326
904.046
904.387
898.612
892.036
870.469
821.408
748.399
601.334
578.563
705.862
781.033
825.006
846.85
874.48
901.677
923.052
942.941
960.119
974.583
987.944
999.246
1007.62
1013.93
1018.23
1021.01
1022.81
1023.92
1024.44
1024.16
1023.22
1022.05
1019.8
1015.02
997.389
940.04
752.675
690.834
842.73
893.075
928.849
954.446
975.747
991.937
1001.69
1007.39
1010.81
1013.6
1016.25
1018.28
1019.55
1020.16
1020.49
1020.72
1020.81
1020.86
1020.72
1019.62
1015.46
1011.18
1001.65
1003.49
1000.38
982.348
829.459
773.371
895.153
926.428
958.287
980.368
994.36
1002.58
1006.09
1007.81
1009.36
1010.24
1010.77
1008.45
1006.15
1005.05
1007.61
1012.39
1017.22
1020.16
1022.1
1022.94
1019.07
1013.09
1001.07
970.269
986.617
980.053
851.384
822.71
896.678
957.199
976.587
991.695
998.95
1002.85
1003.82
1000.13
993.83
985.604
978.258
975.161
986.659
1002.38
1015.65
1022.45
1024.83
1026.15
1026.73
1026.94
1026.36
1023.2
1011.17
955.721
965.555
974.771
864.902
856.653
888.039
948.233
975.85
989.509
996.058
999.482
995.311
986.616
976.728
965.959
959.248
980.973
998.594
1010.71
1013.07
1012.12
1016.35
1024.52
1026.77
1027.08
1026.92
1024.59
1013.02
984.313
956.843
968.111
869.407
879.128
874.737
930.003
960.402
975.727
988.187
992.958
988.328
979.764
970.029
959.629
954.456
979.672
985.356
978.812
966.973
963.945
980.876
1012.15
1025.09
1027.09
1027.09
1026.3
1018.25
991.08
964.655
963.628
872.507
888.611
860.636
906.489
928.058
951.533
976.767
984.936
976.88
963.636
948.708
937.238
939.16
942.886
931.214
916.819
911.182
908.832
938.345
986.385
1021.07
1027.08
1027.11
1026.97
1023.07
998.297
965.217
964.974
874.814
895.998
850.921
884.864
895.641
934.777
969.537
976.097
960.696
942.437
923.012
912.64
902.396
900.684
891.238
913.105
898.774
890.557
919.36
957.501
1015.15
1027.04
1027.11
1027.1
1026.08
1011.7
968.426
967.229
877.615
903.287
849.22
871.302
887.802
936.403
966.928
969.616
945.903
915.841
880.423
891.359
875.141
935.544
897.247
947.135
946.112
945.754
926.616
945.591
1009.36
1026.99
1027.11
1027.11
1026.86
1021.73
1001.92
969.003
880.334
902.967
848.314
860.335
888.397
938.976
964.57
962.004
927.174
889.709
882.158
899.077
869.355
990.296
925.128
988.331
988.44
988.867
995.6
978.176
1006.47
1026.95
1027.11
1027.11
1027.04
1023.72
1002.79
971.564
882.942
900.11
844.893
845.83
885.405
938.296
961.247
952.967
908.073
874.151
896.696
962.517
899.764
1014.44
976.019
1000.89
1006.29
1001.2
1002.68
1000.54
1004
1026.93
1027.11
1027.11
1027.1
1025.43
997.935
973.878
885.123
894.296
833.209
828.266
874.993
934.51
957.132
943.758
890.893
862.788
952.36
998.452
958.906
1022.43
989.613
1002.78
1002.74
991.623
999.271
995.189
1003.9
1026.92
1027.11
1027.11
1027.11
1026.91
1016.65
973.912
886.758
884.734
804.828
807.056
856.335
927.684
953.114
936.538
875.89
856.834
997.087
1009.35
983.793
1024.59
980.215
1003.38
998.914
984.543
1000.67
1001.67
1020.66
1027.04
1027.11
1027.11
1027.11
1027.05
1021.08
973.162
887.964
870.159
746.852
772.945
830.282
916.473
948.203
928.886
862.608
861.059
1006.23
1013.84
981.649
1025.19
970.879
1007.79
1000.07
997.307
1013.33
1017.61
1025.9
1027.1
1027.11
1027.11
1027.11
1027.09
1021.59
970.454
889.079
843.917
674.075
713.212
793.913
897.914
941.502
921.573
850.549
864.323
1014.41
1022.44
998.407
1025.96
969.092
1016.94
1015.8
1017.63
1024.58
1025.48
1026.99
1027.11
1027.11
1027.11
1027.11
1027.1
1021.71
963.282
890.059
813.351
658.281
647.365
748.617
873.03
930.97
911.045
836.538
876.391
1024.17
1025.87
1020.83
1026.32
1018.88
1023.27
1025.34
1026.09
1026.86
1026.98
1027.1
1027.11
1027.11
1027.11
1027.11
1027.11
1021.24
955.057
891.024
802.93
660.037
623.665
701.035
840.001
919.389
899.057
826.68
902.067
1026.01
1026.74
1025.39
1026.62
1026.39
1026.61
1026.75
1026.9
1027.06
1027.09
1027.11
1027.11
1027.11
1027.11
1027.11
1027.11
1020.81
953.427
891.973
783.584
655.628
628.397
680.65
815.195
908.29
881.564
835.259
956.755
1026.56
1026.98
1026.39
1026.62
1026.62
1026.94
1026.97
1027.04
1027.1
1027.11
1027.11
1027.11
1027.11
1027.11
1027.11
1027.11
1020.18
960.162
892.157
747.022
647.702
639.409
683.889
817.196
899.041
876.557
865.131
1024.89
1027.04
1027.04
1026.82
1026.76
1026.76
1027.02
1027.09
1027.11
1027.11
1027.11
1027.11
1027.11
1027.11
1027.11
1027.11
1027.11
1019.19
971.645
892.357
704.469
650.785
657.314
696.74
829.628
897.936
883.508
931.281
1027.07
1027.1
1027.08
1026.99
1026.89
1026.86
1027.03
1027.1
1027.11
1027.11
1027.11
1027.11
1027.11
1027.11
1027.11
1027.11
1027.1
1017.86
972.728
892.435
645.346
676.385
681.12
716.587
846.807
898.562
891.181
952.478
1027.06
1027.1
1027.11
1027.09
1027.03
1026.88
1027.07
1027.11
1027.11
1027.11
1027.11
1027.11
1027.11
1027.11
1027.11
1027.11
1027.1
1016.59
962.715
892.342
605.932
726.362
706.733
742.259
865.072
901.227
903.821
985.075
1027.09
1027.11
1027.11
1027.11
1027.11
1027.09
1027.06
1027.09
1027.11
1027.11
1027.11
1027.11
1027.11
1027.11
1027.11
1027.11
1027.1
1015.68
935.893
892.549
608.765
769.155
730.152
770.287
878.281
903.017
921.684
1023.34
1027.11
1027.11
1027.11
1027.11
1027.11
1027.11
1027.07
1027.08
1027.11
1027.11
1027.11
1027.11
1027.11
1027.11
1027.11
1027.11
1027.1
1014.84
909.751
892.733
644.082
788.703
749.491
797.931
886.676
906.16
946.933
1027.01
1027.11
1027.11
1027.11
1027.11
1027.11
1027.11
1026.99
1027.06
1027.11
1027.11
1027.11
1027.11
1027.11
1027.11
1027.11
1027.11
1027.1
1018.23
905.847
892.911
723.683
798.635
765.564
819.416
892.276
910.793
968.6
1027.06
1027.11
1027.11
1027.11
1027.11
1027.11
1027.11
1027.03
1027.09
1027.11
1027.11
1027.11
1027.11
1027.11
1027.11
1027.11
1027.11
1027.11
1022.18
909.628
892.997
787.135
804.328
781.64
837.638
895.048
916.274
990
1027.1
1027.11
1027.11
1027.11
1027.11
1027.11
1027.11
1027.06
1027.1
1027.11
1027.11
1027.11
1027.11
1027.11
1027.11
1027.11
1027.11
1027.11
1025.55
918.975
893.047
822.833
809.05
793.225
845.581
894.968
930.843
1011.95
1027.11
1027.11
1027.11
1027.11
1027.11
1027.11
1027.11
1027.11
1027.11
1027.11
1027.11
1027.11
1027.11
1027.11
1027.11
1027.11
1027.11
1027.11
1026.96
940.836
893.087
535.269
558.038
604.765
648.58
680.486
707.114
732.732
755.474
777.298
798.5
818.803
837.976
855.68
871.831
886.34
898.69
908.612
916.069
920.909
923.864
924.162
924.22
919.073
913.261
895.014
852.608
786.987
625.161
631.253
795.01
865.162
908.88
929.144
949.531
967.764
980.99
992.613
1002.09
1009.43
1015.4
1019.79
1022.7
1024.62
1025.71
1026.21
1026.34
1026.43
1026.47
1026.34
1025.98
1025.29
1023.64
1021.95
1014.35
982.549
791.584
759.606
932.612
973.805
997.129
1008.73
1015.56
1019.65
1021.74
1023.05
1023.87
1024.45
1024.97
1025.41
1025.7
1025.85
1025.95
1026.06
1026.38
1026.57
1026.63
1026.35
1025.4
1023.68
1018.89
1006.34
1008.62
1003.35
865.841
840.54
970.046
996.315
1009.11
1014.21
1017.44
1019.7
1021.05
1021.52
1021.6
1021.1
1020.5
1019.43
1018.77
1019.29
1021.28
1023.59
1025.3
1026.26
1026.68
1026.83
1026.14
1024.24
1017.54
984.398
993.581
1000.25
889.68
888.865
986.3
1007.83
1011.38
1015.09
1016.93
1017.73
1015.77
1012.29
1008.18
1003.7
999.995
998.736
1009.16
1017.82
1022.24
1023.58
1025.16
1026.69
1027.04
1027.1
1027.07
1026.54
1021.46
981.388
979.979
994.96
902.117
918.924
983.12
1004.08
1011.18
1014.52
1015
1013.14
1008.89
1004.79
1000.34
994.786
990.831
1000.11
1007.78
1010.29
1006.83
1003.85
1011.77
1023.59
1026.69
1027.11
1027.11
1026.84
1023.11
1004.19
974.373
989.648
906.719
936.234
976.656
996.696
1008.26
1011.96
1011.81
1007.97
1003.69
999.213
993.258
986.405
981.751
989.471
983.375
971.796
958.299
954.419
977.382
1013.06
1025.62
1027.1
1027.11
1027.05
1025.22
1009.79
981.97
987.56
909.71
943.955
968.154
985.208
998.756
1005.3
1006.99
1001.5
994.263
984.999
972.108
958.509
947.993
943.224
933.955
916.897
906.236
903.299
935.487
994.39
1023.93
1027.09
1027.11
1027.11
1026.58
1017.07
985.991
988.376
911.306
950.246
961.034
973.042
985.34
998.652
1002.36
993.813
982.024
967.642
942.128
909.932
884.258
888.28
891.324
892.458
893.204
882.15
912.539
977.226
1022.21
1027.06
1027.11
1027.11
1027.02
1023.88
1002.34
989.592
912.754
958.573
959.612
964.651
981.6
995.995
997.113
985.508
969.941
945.029
903.183
886.161
861.182
872.876
849.095
853.5
874.416
893.801
920.301
971.491
1021.12
1027.04
1027.11
1027.11
1027.09
1026
1017.22
991.293
914.412
961.066
958.835
957.411
980.795
994.29
990.276
976.334
954.312
924.987
884.355
986.433
861.182
1027.01
849.095
1027.05
855.778
851.697
1027.07
976.362
1021.33
1027.03
1027.11
1027.11
1027.1
1026.35
1017.79
994.327
916.325
960.364
955.826
946.726
977.323
991.59
983.818
967.965
940.119
912.848
1027.11
1027.09
1027.11
1027.1
1027.11
1027.11
1027.11
1027.11
1027.11
1027.11
1020.55
1027.02
1027.11
1027.11
1027.11
1026.68
1016.98
997.47
918.052
957.633
946.571
931.657
968.604
987.819
980.3
962.285
927.607
899.126
1026.97
1027.09
1027
1027.1
1027.1
1027.11
1027.1
1027.1
1027.08
1027.07
1020.51
1027.03
1027.11
1027.11
1027.11
1026.97
1020.99
997.648
919.48
951.687
924.108
912.183
953.516
983.437
978.698
959.489
916.783
886.523
1027.11
1027.11
1027.11
1027.11
1027.11
1027.1
1027.11
1027.11
1027.06
1027.11
1025.78
1027.06
1027.11
1027.11
1027.11
1027.05
1022.03
996.603
920.575
941.709
876.664
879.977
931.186
977.729
977.152
956.669
903.67
874.002
1027.07
1027.09
1027.05
1027.1
1027.08
1027.1
1027.07
1027.05
1027.08
1027.1
1026.91
1027.1
1027.11
1027.11
1027.11
1027.09
1022.31
994.396
921.449
921.331
798.495
818.038
895.787
968.033
974.762
953.223
890.264
863.242
1027.11
1027.1
1027.11
1027.1
1027.11
1027.1
1027.11
1027.11
1027.1
1027.11
1027.1
1027.11
1027.11
1027.11
1027.11
1027.1
1022.39
992.922
922.214
894.266
747.826
732.472
845.557
952.397
970.191
946.34
874.079
859.077
1027.11
1027.1
1027.11
1027.11
1027.11
1027.09
1027.11
1027.11
1027.11
1027.11
1027.11
1027.11
1027.11
1027.11
1027.11
1027.11
1022.12
992.631
923.128
874.899
726.977
667.307
783.965
927.764
964.106
933.87
862.602
876.491
1027.09
1027.1
1027.09
1027.11
1027.11
1027.11
1027.11
1027.11
1027.11
1027.11
1027.11
1027.11
1027.11
1027.11
1027.11
1027.11
1021.77
992.727
924.249
843.655
701.725
652.083
741.515
899.527
957.029
917.193
872.222
954.227
1027.11
1027.11
1027.11
1027.11
1027.11
1027.06
1027.11
1027.11
1027.11
1027.11
1027.11
1027.11
1027.11
1027.11
1027.11
1027.11
1021.33
992.989
925.322
795.235
665.858
655.598
743.289
897.633
947.941
907.312
897.63
1024.32
1027.11
1027.04
1027.11
1027.01
1027.11
1026.95
1027.11
1027.11
1027.11
1027.11
1027.11
1027.11
1027.11
1027.11
1027.11