/*--------------------------------*- C++ -*----------------------------------*\
| =========                 |                                                 |
| \\      /  F ield         | OpenFOAM: The Open Source CFD Toolbox           |
|  \\    /   O peration     | Version:  2.3.0                                 |
|   \\  /    A nd           | Web:      www.OpenFOAM.org                      |
|    \\/     M anipulation  |                                                 |
\*---------------------------------------------------------------------------*/
FoamFile
{
    version     2.0;
    format      ascii;
    class       volScalarField;
    location    "0.104";
    object      epsilon;
}
// * * * * * * * * * * * * * * * * * * * * * * * * * * * * * * * * * * * * * //

dimensions      [0 2 -3 0 0 0 0];

internalField   nonuniform List<scalar> 
545
(
1.04312e+08
9.93344e+07
9.13908e+07
8.45372e+07
7.98462e+07
1.06331e+08
9.95634e+07
9.11476e+07
8.41188e+07
7.90627e+07
1.09801e+08
9.97496e+07
9.05648e+07
8.32509e+07
7.76614e+07
1.15049e+08
9.95987e+07
8.96295e+07
8.20088e+07
7.5519e+07
1.22828e+08
9.87442e+07
8.85533e+07
8.06777e+07
7.25006e+07
7.74474e+07
7.61362e+07
7.57178e+07
7.55846e+07
7.55412e+07
7.5526e+07
7.55196e+07
7.55159e+07
7.55131e+07
7.55107e+07
7.55084e+07
7.55062e+07
7.55041e+07
7.55021e+07
7.55001e+07
7.54982e+07
7.54964e+07
7.54946e+07
7.54929e+07
7.54913e+07
7.54897e+07
7.54882e+07
7.54868e+07
7.54854e+07
7.54841e+07
7.54829e+07
7.54817e+07
7.54806e+07
7.54795e+07
7.54785e+07
7.54776e+07
7.54767e+07
7.54759e+07
7.54752e+07
7.54745e+07
7.54739e+07
7.54734e+07
7.54729e+07
7.54725e+07
7.54721e+07
7.54718e+07
7.54716e+07
7.54714e+07
7.54713e+07
7.54712e+07
7.68477e+07
7.59526e+07
7.56597e+07
7.55663e+07
7.55354e+07
7.55241e+07
7.55189e+07
7.55156e+07
7.5513e+07
7.55106e+07
7.55083e+07
7.55061e+07
7.5504e+07
7.5502e+07
7.55e+07
7.54981e+07
7.54963e+07
7.54945e+07
7.54928e+07
7.54912e+07
7.54896e+07
7.54881e+07
7.54867e+07
7.54853e+07
7.5484e+07
7.54828e+07
7.54816e+07
7.54805e+07
7.54794e+07
7.54784e+07
7.54775e+07
7.54766e+07
7.54758e+07
7.54751e+07
7.54744e+07
7.54738e+07
7.54733e+07
7.54728e+07
7.54724e+07
7.5472e+07
7.54717e+07
7.54715e+07
7.54713e+07
7.54712e+07
7.54711e+07
7.59752e+07
7.56451e+07
7.5561e+07
7.55353e+07
7.55258e+07
7.55211e+07
7.55179e+07
7.55153e+07
7.55128e+07
7.55105e+07
7.55082e+07
7.55061e+07
7.5504e+07
7.55019e+07
7.55e+07
7.54981e+07
7.54962e+07
7.54945e+07
7.54928e+07
7.54911e+07
7.54896e+07
7.5488e+07
7.54866e+07
7.54852e+07
7.54839e+07
7.54827e+07
7.54815e+07
7.54804e+07
7.54793e+07
7.54784e+07
7.54774e+07
7.54766e+07
7.54758e+07
7.5475e+07
7.54744e+07
7.54737e+07
7.54732e+07
7.54727e+07
7.54723e+07
7.54719e+07
7.54716e+07
7.54714e+07
7.54712e+07
7.54711e+07
7.5471e+07
7.48403e+07
7.52862e+07
7.54504e+07
7.55011e+07
7.55151e+07
7.55177e+07
7.55168e+07
7.55149e+07
7.55127e+07
7.55104e+07
7.55082e+07
7.5506e+07
7.55039e+07
7.55019e+07
7.54999e+07
7.5498e+07
7.54962e+07
7.54944e+07
7.54927e+07
7.54911e+07
7.54895e+07
7.5488e+07
7.54866e+07
7.54852e+07
7.54839e+07
7.54826e+07
7.54815e+07
7.54803e+07
7.54793e+07
7.54783e+07
7.54774e+07
7.54765e+07
7.54757e+07
7.5475e+07
7.54743e+07
7.54737e+07
7.54732e+07
7.54727e+07
7.54722e+07
7.54719e+07
7.54716e+07
7.54713e+07
7.54712e+07
7.54711e+07
7.5471e+07
7.35171e+07
7.49826e+07
7.53626e+07
7.54743e+07
7.55068e+07
7.55152e+07
7.5516e+07
7.55146e+07
7.55126e+07
7.55104e+07
7.55081e+07
7.5506e+07
7.55039e+07
7.55018e+07
7.54999e+07
7.5498e+07
7.54961e+07
7.54944e+07
7.54927e+07
7.5491e+07
7.54895e+07
7.5488e+07
7.54865e+07
7.54852e+07
7.54839e+07
7.54826e+07
7.54814e+07
7.54803e+07
7.54793e+07
7.54783e+07
7.54774e+07
7.54765e+07
7.54757e+07
7.5475e+07
7.54743e+07
7.54737e+07
7.54731e+07
7.54726e+07
7.54722e+07
7.54719e+07
7.54716e+07
7.54713e+07
7.54711e+07
7.5471e+07
7.5471e+07
7.36641e+07
7.48903e+07
7.5327e+07
7.54629e+07
7.55033e+07
7.5514e+07
7.55157e+07
7.55145e+07
7.55125e+07
7.55103e+07
7.55081e+07
7.5506e+07
7.55039e+07
7.55018e+07
7.54999e+07
7.5498e+07
7.54961e+07
7.54944e+07
7.54927e+07
7.5491e+07
7.54895e+07
7.5488e+07
7.54865e+07
7.54852e+07
7.54838e+07
7.54826e+07
7.54814e+07
7.54803e+07
7.54793e+07
7.54783e+07
7.54773e+07
7.54765e+07
7.54757e+07
7.54749e+07
7.54743e+07
7.54737e+07
7.54731e+07
7.54726e+07
7.54722e+07
7.54718e+07
7.54715e+07
7.54713e+07
7.54711e+07
7.5471e+07
7.5471e+07
1.22828e+08
9.87442e+07
8.85533e+07
8.06777e+07
7.25006e+07
1.15049e+08
9.95986e+07
8.96294e+07
8.20088e+07
7.5519e+07
1.09801e+08
9.97496e+07
9.05648e+07
8.32509e+07
7.76614e+07
1.06331e+08
9.95634e+07
9.11476e+07
8.41188e+07
7.90627e+07
1.04312e+08
9.93344e+07
9.13907e+07
8.45372e+07
7.98462e+07
7.35171e+07
7.49826e+07
7.53626e+07
7.54743e+07
7.55068e+07
7.55152e+07
7.5516e+07
7.55146e+07
7.55126e+07
7.55104e+07
7.55081e+07
7.5506e+07
7.55039e+07
7.55018e+07
7.54999e+07
7.5498e+07
7.54961e+07
7.54944e+07
7.54927e+07
7.5491e+07
7.54895e+07
7.5488e+07
7.54865e+07
7.54852e+07
7.54839e+07
7.54826e+07
7.54814e+07
7.54803e+07
7.54793e+07
7.54783e+07
7.54774e+07
7.54765e+07
7.54757e+07
7.5475e+07
7.54743e+07
7.54737e+07
7.54731e+07
7.54726e+07
7.54722e+07
7.54719e+07
7.54716e+07
7.54713e+07
7.54711e+07
7.5471e+07
7.5471e+07
7.48403e+07
7.52862e+07
7.54504e+07
7.55011e+07
7.55151e+07
7.55177e+07
7.55168e+07
7.55149e+07
7.55127e+07
7.55104e+07
7.55082e+07
7.5506e+07
7.55039e+07
7.55019e+07
7.54999e+07
7.5498e+07
7.54962e+07
7.54944e+07
7.54927e+07
7.54911e+07
7.54895e+07
7.5488e+07
7.54866e+07
7.54852e+07
7.54839e+07
7.54826e+07
7.54815e+07
7.54803e+07
7.54793e+07
7.54783e+07
7.54774e+07
7.54765e+07
7.54757e+07
7.5475e+07
7.54743e+07
7.54737e+07
7.54732e+07
7.54727e+07
7.54722e+07
7.54719e+07
7.54716e+07
7.54713e+07
7.54712e+07
7.54711e+07
7.5471e+07
7.59752e+07
7.56451e+07
7.5561e+07
7.55353e+07
7.55258e+07
7.55211e+07
7.55179e+07
7.55153e+07
7.55128e+07
7.55105e+07
7.55082e+07
7.55061e+07
7.5504e+07
7.55019e+07
7.55e+07
7.54981e+07
7.54962e+07
7.54945e+07
7.54928e+07
7.54911e+07
7.54896e+07
7.5488e+07
7.54866e+07
7.54852e+07
7.54839e+07
7.54827e+07
7.54815e+07
7.54804e+07
7.54793e+07
7.54784e+07
7.54774e+07
7.54766e+07
7.54758e+07
7.5475e+07
7.54744e+07
7.54737e+07
7.54732e+07
7.54727e+07
7.54723e+07
7.54719e+07
7.54716e+07
7.54714e+07
7.54712e+07
7.54711e+07
7.54711e+07
7.68477e+07
7.59526e+07
7.56597e+07
7.55663e+07
7.55354e+07
7.55241e+07
7.55189e+07
7.55156e+07
7.5513e+07
7.55106e+07
7.55083e+07
7.55061e+07
7.5504e+07
7.5502e+07
7.55e+07
7.54981e+07
7.54963e+07
7.54945e+07
7.54928e+07
7.54912e+07
7.54896e+07
7.54881e+07
7.54867e+07
7.54853e+07
7.5484e+07
7.54828e+07
7.54816e+07
7.54805e+07
7.54794e+07
7.54784e+07
7.54775e+07
7.54766e+07
7.54758e+07
7.54751e+07
7.54744e+07
7.54738e+07
7.54733e+07
7.54728e+07
7.54724e+07
7.5472e+07
7.54717e+07
7.54715e+07
7.54713e+07
7.54712e+07
7.54711e+07
7.74474e+07
7.61362e+07
7.57178e+07
7.55846e+07
7.55412e+07
7.5526e+07
7.55195e+07
7.55159e+07
7.55131e+07
7.55107e+07
7.55084e+07
7.55062e+07
7.55041e+07
7.55021e+07
7.55001e+07
7.54982e+07
7.54964e+07
7.54946e+07
7.54929e+07
7.54913e+07
7.54897e+07
7.54882e+07
7.54868e+07
7.54854e+07
7.54841e+07
7.54828e+07
7.54817e+07
7.54805e+07
7.54795e+07
7.54785e+07
7.54776e+07
7.54767e+07
7.54759e+07
7.54752e+07
7.54745e+07
7.54739e+07
7.54734e+07
7.54729e+07
7.54724e+07
7.54721e+07
7.54718e+07
7.54716e+07
7.54714e+07
7.54713e+07
7.54712e+07
)
;

boundaryField
{
    AirInlet
    {
        type            fixedValue;
        value           uniform 0.1;
    }
    WaterInlet
    {
        type            fixedValue;
        value           uniform 0.1;
    }
    ChannelWall
    {
        type            fixedValue;
        value           uniform 0.1;
    }
    Outlet
    {
        type            inletOutlet;
        inletValue      uniform 0.1;
        value           nonuniform List<scalar> 
11
(
7.54712e+07
7.54711e+07
7.5471e+07
7.5471e+07
7.5471e+07
7.5471e+07
7.5471e+07
7.5471e+07
7.54711e+07
7.54711e+07
7.54712e+07
)
;
    }
    FrontAndBack
    {
        type            empty;
    }
}


// ************************************************************************* //
