/*--------------------------------*- C++ -*----------------------------------*\
| =========                 |                                                 |
| \\      /  F ield         | OpenFOAM: The Open Source CFD Toolbox           |
|  \\    /   O peration     | Version:  2.3.0                                 |
|   \\  /    A nd           | Web:      www.OpenFOAM.org                      |
|    \\/     M anipulation  |                                                 |
\*---------------------------------------------------------------------------*/
FoamFile
{
    version     2.0;
    format      ascii;
    class       volScalarField;
    location    "29";
    object      epsilonm;
}
// * * * * * * * * * * * * * * * * * * * * * * * * * * * * * * * * * * * * * //

dimensions      [0 2 -3 0 0 0 0];

internalField   nonuniform List<scalar> 
1875
(
0.202296
0.189003
0.189651
0.19229
0.195163
0.19708
0.197373
0.196572
0.193994
0.189571
0.183835
0.176293
0.175239
0.205283
0.230656
0.194476
0.132874
0.169563
0.223205
0.250563
0.258211
0.259562
0.263418
0.264014
0.258083
0.334153
0.317615
0.316413
0.316012
0.315254
0.314825
0.315051
0.31566
0.317267
0.319107
0.318076
0.316356
0.315866
0.298972
0.242292
0.267104
0.332393
0.373911
0.385581
0.349139
0.303983
0.282444
0.275834
0.274167
0.296185
0.379892
0.351329
0.332284
0.320592
0.314002
0.310094
0.308491
0.308792
0.310828
0.316244
0.328038
0.344305
0.357825
0.353822
0.314109
0.295985
0.314392
0.350922
0.365819
0.347183
0.327394
0.315991
0.285529
0.247981
0.227215
0.38356
0.350509
0.325773
0.312382
0.305541
0.302019
0.301269
0.302359
0.305765
0.31194
0.320024
0.332999
0.351922
0.359998
0.353078
0.325997
0.314641
0.318249
0.331644
0.333155
0.324437
0.323461
0.331758
0.295327
0.214829
0.403712
0.354381
0.325525
0.311194
0.303135
0.299042
0.298266
0.299898
0.304716
0.313239
0.324617
0.338643
0.355279
0.365644
0.363291
0.34917
0.323434
0.314916
0.316187
0.318831
0.313305
0.310742
0.325591
0.308924
0.208278
0.385145
0.340995
0.317531
0.304971
0.297416
0.293078
0.2909
0.291586
0.295689
0.304483
0.316368
0.330807
0.347012
0.359148
0.358812
0.349501
0.326908
0.311224
0.303498
0.30612
0.315286
0.319978
0.332306
0.321083
0.222099
0.381762
0.339213
0.319304
0.306999
0.298275
0.292897
0.288987
0.287951
0.291622
0.30099
0.314499
0.329803
0.344949
0.354986
0.354545
0.347126
0.32828
0.314277
0.305517
0.304729
0.310284
0.322168
0.339604
0.330948
0.255392
0.376569
0.337567
0.319502
0.308135
0.301161
0.295935
0.287696
0.281509
0.283262
0.29252
0.307005
0.322813
0.337544
0.347164
0.348461
0.342409
0.326811
0.315248
0.308661
0.307512
0.31317
0.327581
0.343582
0.333575
0.278816
0.367427
0.329482
0.31242
0.30464
0.301716
0.297272
0.287124
0.278671
0.279204
0.287867
0.300536
0.313857
0.325606
0.333504
0.335973
0.331619
0.320255
0.312092
0.307411
0.307972
0.315438
0.329054
0.343687
0.335331
0.288964
0.35821
0.320674
0.305256
0.300542
0.30028
0.297104
0.288221
0.279671
0.279046
0.286502
0.296098
0.305681
0.314029
0.319585
0.32145
0.31864
0.310538
0.305564
0.304022
0.30666
0.316974
0.331574
0.34406
0.334371
0.290813
0.352232
0.315467
0.301404
0.298505
0.299184
0.296988
0.291684
0.284704
0.282591
0.286343
0.292581
0.299394
0.305433
0.309484
0.310807
0.30948
0.304376
0.301183
0.300956
0.307154
0.319729
0.335912
0.345194
0.32845
0.282548
0.346283
0.311714
0.299389
0.297696
0.298874
0.297835
0.295035
0.290091
0.286373
0.286578
0.29061
0.296183
0.301105
0.304123
0.305021
0.304414
0.302006
0.300479
0.302252
0.312057
0.327997
0.342356
0.345353
0.317028
0.271518
0.341817
0.309364
0.298462
0.297572
0.299618
0.299639
0.298014
0.294975
0.29025
0.288198
0.290068
0.294897
0.299852
0.303294
0.304493
0.304156
0.30248
0.301821
0.307835
0.321922
0.339381
0.351196
0.342224
0.306968
0.266905
0.338551
0.308223
0.298129
0.297598
0.30051
0.301599
0.301191
0.299106
0.295014
0.291161
0.291241
0.295336
0.300785
0.304998
0.306617
0.30641
0.305976
0.310702
0.319642
0.33631
0.353867
0.356932
0.333166
0.299781
0.275992
0.336903
0.307976
0.298122
0.297549
0.300958
0.303114
0.303943
0.303095
0.30006
0.295322
0.294237
0.29748
0.303574
0.309014
0.311457
0.311722
0.313662
0.320904
0.337255
0.355664
0.363947
0.352466
0.321078
0.297873
0.29394
0.336639
0.308981
0.298709
0.297611
0.301031
0.303848
0.305852
0.306426
0.304831
0.300522
0.298376
0.301136
0.307815
0.314601
0.317974
0.319399
0.325173
0.335908
0.354972
0.367278
0.365781
0.341487
0.311909
0.298953
0.309414
0.338134
0.311963
0.300385
0.298275
0.30107
0.303989
0.306726
0.308476
0.308532
0.305847
0.303055
0.305136
0.311911
0.319924
0.324449
0.326481
0.331528
0.345721
0.366265
0.373871
0.360948
0.330535
0.308049
0.303238
0.326095
0.341151
0.316954
0.303761
0.300327
0.302027
0.305065
0.308492
0.311382
0.312613
0.311648
0.308976
0.309992
0.316644
0.325049
0.33073
0.33361
0.340257
0.356614
0.374374
0.376487
0.35527
0.324139
0.305104
0.303191
0.33123
0.346374
0.323728
0.310059
0.304887
0.305184
0.307955
0.311644
0.315195
0.317878
0.318798
0.317364
0.317468
0.323765
0.331084
0.336011
0.33713
0.341343
0.354388
0.371592
0.375947
0.355763
0.324483
0.30011
0.289191
0.308708
0.355322
0.331767
0.319574
0.312686
0.310687
0.312293
0.315583
0.319113
0.322455
0.325131
0.325922
0.326138
0.331421
0.338817
0.343635
0.344039
0.342284
0.345767
0.357649
0.368235
0.360747
0.335703
0.306506
0.280874
0.277372
0.366367
0.342408
0.330911
0.3236
0.319352
0.319284
0.322279
0.325717
0.327745
0.329186
0.330184
0.330501
0.333697
0.339909
0.345465
0.346892
0.344467
0.342089
0.342739
0.345866
0.3547
0.35477
0.338336
0.297325
0.264285
0.37721
0.349026
0.337938
0.330718
0.325111
0.323326
0.325876
0.330212
0.331628
0.330453
0.328185
0.326659
0.327979
0.333849
0.340163
0.343014
0.341885
0.337188
0.330241
0.328792
0.334936
0.350897
0.352151
0.314463
0.249926
0.38331
0.349751
0.338537
0.331707
0.326224
0.324113
0.326104
0.331372
0.336428
0.336026
0.332391
0.32728
0.324381
0.325292
0.328717
0.332819
0.333757
0.331831
0.330067
0.32895
0.330674
0.342072
0.353264
0.320516
0.241126
0.385799
0.344256
0.327602
0.319457
0.316531
0.318666
0.325104
0.334297
0.341384
0.340033
0.333865
0.326371
0.32124
0.317985
0.318819
0.32092
0.322479
0.322484
0.322199
0.323615
0.32997
0.342231
0.35161
0.322134
0.244769
0.377882
0.328155
0.306107
0.297211
0.298809
0.307503
0.320409
0.331646
0.336715
0.334747
0.327603
0.319004
0.311903
0.310692
0.311033
0.312532
0.314238
0.31559
0.316979
0.319833
0.328771
0.341927
0.349106
0.326016
0.263943
0.36456
0.313075
0.290769
0.283946
0.289197
0.300611
0.311138
0.317672
0.321739
0.323626
0.320491
0.312862
0.305412
0.303707
0.304061
0.304801
0.306553
0.308652
0.311947
0.318802
0.329624
0.341777
0.347066
0.326718
0.275414
0.35319
0.307733
0.285557
0.279646
0.286625
0.296114
0.301132
0.303978
0.307302
0.309012
0.306984
0.299154
0.292348
0.291215
0.291766
0.294521
0.299202
0.303996
0.312172
0.322705
0.334411
0.344333
0.347648
0.329697
0.283027
0.349963
0.307757
0.28615
0.28058
0.286732
0.293696
0.295285
0.293106
0.289754
0.286326
0.281805
0.277056
0.275649
0.279032
0.285218
0.292624
0.299792
0.309374
0.320752
0.333575
0.346104
0.352106
0.351851
0.337519
0.297279
0.362274
0.316695
0.295974
0.290109
0.293159
0.298143
0.29901
0.29455
0.287561
0.280103
0.274382
0.272441
0.276005
0.282875
0.291831
0.302466
0.315085
0.327483
0.34207
0.358153
0.36596
0.368013
0.362869
0.349083
0.32471
0.380669
0.329646
0.309989
0.304249
0.305607
0.309818
0.311592
0.307121
0.296893
0.286023
0.281237
0.282238
0.289716
0.300502
0.312638
0.324586
0.3355
0.348222
0.361451
0.372618
0.380312
0.383347
0.383214
0.379239
0.376504
0.392936
0.342568
0.32294
0.318897
0.320915
0.324848
0.328323
0.327835
0.320815
0.308898
0.302196
0.304282
0.313096
0.322868
0.332281
0.342031
0.351716
0.361064
0.368098
0.371395
0.374845
0.377225
0.380858
0.388899
0.406408
0.405973
0.347922
0.327807
0.326276
0.330924
0.336722
0.341104
0.343946
0.34419
0.339978
0.333376
0.330103
0.332094
0.337071
0.341895
0.346983
0.35193
0.35733
0.359356
0.357232
0.350622
0.344423
0.341992
0.348534
0.381108
0.39992
0.342833
0.327022
0.328561
0.335495
0.342338
0.346878
0.350433
0.35393
0.355826
0.355763
0.354616
0.353558
0.351824
0.350942
0.348966
0.348208
0.348451
0.345648
0.340453
0.333493
0.324915
0.31527
0.305743
0.3105
0.385848
0.334074
0.323107
0.326877
0.335845
0.344415
0.350225
0.353323
0.355255
0.35744
0.359864
0.361873
0.362822
0.361566
0.355839
0.347338
0.33988
0.334271
0.33417
0.335006
0.334482
0.33036
0.320147
0.300476
0.281811
0.37672
0.329689
0.319937
0.321625
0.328449
0.338721
0.347624
0.351946
0.352731
0.353629
0.355598
0.358379
0.360557
0.360379
0.357312
0.350452
0.342384
0.335163
0.33279
0.335193
0.34059
0.34252
0.33536
0.311218
0.276024
0.372595
0.326734
0.31498
0.313097
0.317616
0.325744
0.334507
0.341521
0.344771
0.345346
0.345772
0.348104
0.351829
0.354747
0.354888
0.351264
0.345027
0.339627
0.335729
0.338952
0.346953
0.350627
0.3432
0.317747
0.279684
0.365416
0.321059
0.306941
0.302498
0.306807
0.314876
0.323387
0.330185
0.332776
0.332524
0.332156
0.333814
0.337242
0.341417
0.344671
0.345049
0.342649
0.340976
0.342488
0.348422
0.357584
0.358092
0.346949
0.319652
0.284801
0.351185
0.312529
0.298268
0.294021
0.298575
0.305607
0.31248
0.317687
0.319359
0.318127
0.317175
0.318819
0.322533
0.327492
0.332219
0.334075
0.336132
0.341081
0.349002
0.360578
0.367329
0.362171
0.34585
0.318187
0.285958
0.337312
0.304122
0.29054
0.286892
0.29024
0.294701
0.298513
0.301141
0.302241
0.301775
0.302283
0.30565
0.311331
0.317682
0.323609
0.332004
0.339679
0.348939
0.363772
0.372691
0.372649
0.361863
0.344096
0.320512
0.293567
0.329762
0.298219
0.285532
0.281971
0.28351
0.285813
0.287732
0.289119
0.290251
0.292459
0.297406
0.304262
0.310766
0.317433
0.327359
0.338124
0.351005
0.367586
0.377562
0.379884
0.374176
0.362225
0.346926
0.331011
0.316829
0.323495
0.29498
0.283963
0.280647
0.281659
0.283495
0.285477
0.287836
0.291322
0.295857
0.301168
0.306226
0.312827
0.324462
0.33807
0.352483
0.368932
0.378365
0.381683
0.380296
0.373624
0.363139
0.351162
0.341606
0.342547
0.315683
0.29395
0.286122
0.284251
0.286658
0.29036
0.294352
0.29811
0.301751
0.305445
0.308869
0.314148
0.324407
0.336329
0.349047
0.362926
0.372486
0.377325
0.37874
0.376227
0.36944
0.359899
0.351318
0.348813
0.361688
0.309569
0.29487
0.290949
0.291127
0.295962
0.302795
0.309425
0.313938
0.316045
0.317003
0.319729
0.328575
0.339455
0.346871
0.354183
0.361973
0.367809
0.369999
0.369461
0.364823
0.356664
0.348038
0.344684
0.352841
0.382644
0.306169
0.29699
0.295427
0.297519
0.304488
0.314416
0.32388
0.328888
0.330039
0.329937
0.331811
0.335072
0.338528
0.343915
0.350288
0.354832
0.356631
0.356552
0.352822
0.345134
0.335525
0.329921
0.331758
0.349023
0.391532
0.304867
0.299251
0.298922
0.301679
0.309429
0.321092
0.33314
0.340303
0.34202
0.340333
0.338481
0.338035
0.338445
0.340108
0.342318
0.343609
0.343715
0.341268
0.334688
0.324439
0.31425
0.309699
0.313361
0.330891
0.374616
0.307369
0.303284
0.30272
0.304912
0.311767
0.32302
0.336468
0.347194
0.351568
0.35034
0.34541
0.340634
0.337303
0.33493
0.334127
0.333448
0.33218
0.329222
0.323078
0.313471
0.303134
0.296097
0.29488
0.302262
0.330473
0.320232
0.312411
0.309842
0.310448
0.314996
0.323454
0.335403
0.347393
0.355907
0.358693
0.355709
0.348856
0.341914
0.335765
0.329584
0.326054
0.323939
0.32187
0.318676
0.312478
0.303149
0.293965
0.28904
0.287975
0.297812
0.349182
0.330919
0.322821
0.320476
0.321941
0.326541
0.334253
0.343879
0.352918
0.358552
0.359704
0.356824
0.34995
0.341562
0.332502
0.323971
0.319545
0.318143
0.318366
0.318024
0.314177
0.304873
0.295196
0.286217
0.286486
0.378783
0.350929
0.337769
0.332226
0.330905
0.332104
0.335195
0.339969
0.345679
0.351296
0.354796
0.354644
0.351592
0.344863
0.337675
0.329923
0.322217
0.319195
0.32027
0.323832
0.325572
0.320442
0.307604
0.289319
0.276088
0.399361
0.366501
0.348086
0.339179
0.335526
0.334756
0.335457
0.33704
0.339117
0.341396
0.343609
0.345211
0.345086
0.342648
0.338268
0.334133
0.329059
0.32402
0.324747
0.329155
0.333551
0.330599
0.316581
0.290949
0.265885
0.412217
0.372678
0.349839
0.33796
0.332288
0.330203
0.33001
0.330654
0.331735
0.3327
0.33345
0.334006
0.334356
0.334432
0.333582
0.331544
0.330212
0.33019
0.331359
0.335621
0.339269
0.335458
0.319559
0.289525
0.256684
0.411879
0.365206
0.340103
0.327029
0.320801
0.31886
0.319487
0.321386
0.323531
0.325124
0.325912
0.326056
0.325977
0.326005
0.326107
0.326329
0.327226
0.32974
0.334175
0.339472
0.341549
0.335446
0.317267
0.285955
0.251118
0.383511
0.340891
0.321637
0.311331
0.306675
0.305953
0.307779
0.311191
0.314791
0.317591
0.319181
0.319873
0.320138
0.320413
0.321216
0.323081
0.326184
0.3306
0.335871
0.340349
0.340396
0.33193
0.311611
0.280328
0.245535
0.335502
0.312084
0.303923
0.298558
0.296591
0.29732
0.299812
0.303429
0.307437
0.310998
0.313533
0.314938
0.315557
0.316332
0.317866
0.320718
0.325054
0.330525
0.335803
0.339111
0.336774
0.32544
0.304424
0.274441
0.240701
0.306281
0.299144
0.296832
0.293806
0.293156
0.294675
0.297481
0.300972
0.304587
0.307748
0.310067
0.311471
0.312271
0.313439
0.315746
0.319559
0.324905
0.330492
0.334836
0.336044
0.33115
0.318205
0.297656
0.269356
0.237231
0.302967
0.299254
0.297202
0.29465
0.294426
0.295845
0.298198
0.30099
0.303754
0.306027
0.307619
0.308714
0.309901
0.311671
0.314752
0.319314
0.324757
0.329802
0.332649
0.331764
0.32518
0.31221
0.29365
0.269359
0.241316
0.307488
0.306625
0.303631
0.300632
0.300056
0.300468
0.301559
0.30299
0.304376
0.305473
0.306351
0.30737
0.308898
0.311252
0.31479
0.319411
0.324377
0.328181
0.329426
0.32688
0.31961
0.307713
0.291797
0.271927
0.249573
0.318565
0.317019
0.312605
0.308785
0.306967
0.305868
0.305457
0.305403
0.305432
0.305453
0.305674
0.306682
0.308525
0.311437
0.315275
0.3195
0.323386
0.325482
0.325313
0.321777
0.314755
0.304517
0.291221
0.275022
0.258559
0.325969
0.324564
0.32006
0.315814
0.31281
0.3105
0.308976
0.308066
0.307668
0.307666
0.30822
0.309171
0.31076
0.313006
0.315925
0.318965
0.321183
0.321923
0.320634
0.316906
0.310862
0.30263
0.292165
0.280424
0.270906
0.327714
0.327905
0.324397
0.320394
0.317028
0.314344
0.312512
0.311596
0.311414
0.311849
0.312614
0.313326
0.314188
0.315103
0.316206
0.317594
0.318271
0.317922
0.316101
0.312772
0.308004
0.301734
0.293976
0.286596
0.284092
0.325744
0.328247
0.326454
0.32348
0.320687
0.318373
0.316714
0.315729
0.315279
0.315137
0.315118
0.315214
0.315405
0.315795
0.316251
0.316333
0.315856
0.314674
0.312681
0.309866
0.306157
0.301385
0.295658
0.291094
0.291908
0.321383
0.327064
0.328579
0.327793
0.326452
0.325045
0.323812
0.322829
0.322015
0.321226
0.320491
0.319887
0.319346
0.318849
0.318201
0.317261
0.315945
0.314183
0.312029
0.309479
0.306428
0.302783
0.29882
0.296188
0.298931
0.318388
0.329268
0.336223
0.339144
0.340301
0.340486
0.34007
0.33923
0.338027
0.336465
0.334602
0.332554
0.330412
0.32824
0.326033
0.32379
0.321522
0.319251
0.316969
0.314635
0.312163
0.309493
0.306801
0.30506
0.306809
0.325613
0.345576
0.360867
0.370183
0.375943
0.379255
0.380629
0.380355
0.378539
0.375347
0.371033
0.36595
0.36053
0.355161
0.350106
0.345583
0.341675
0.338351
0.335561
0.333149
0.330783
0.328075
0.324699
0.320184
0.31544
0.366937
0.404774
0.43427
0.454535
0.468745
0.478574
0.484386
0.486112
0.483651
0.47715
0.467178
0.454727
0.441183
0.427961
0.415969
0.405858
0.397757
0.391479
0.386737
0.38312
0.379919
0.376019
0.36976
0.358582
0.340726
0.532523
0.599528
0.644141
0.678027
0.706887
0.731103
0.748631
0.75714
0.754927
0.741438
0.717147
0.684326
0.646371
0.61007
0.579309
0.554961
0.536136
0.521864
0.511213
0.503582
0.498332
0.494305
0.489141
0.477604
0.447996
1.52454
1.26463
1.18178
1.18913
1.23737
1.29687
1.34866
1.38008
1.38374
1.35608
1.29714
1.21409
1.09496
0.993776
0.9199
0.866869
0.82522
0.79055
0.763826
0.746094
0.738232
0.742796
0.766768
0.829624
0.982684
1.22091
1.25106
1.2903
1.35527
1.43224
1.50483
1.56083
1.59049
1.5863
1.5434
1.458
1.33082
1.14079
0.98552
0.881234
0.813397
0.765407
0.72855
0.700295
0.679934
0.666773
0.659441
0.654857
0.650227
0.637925
0.518309
0.750516
0.865023
0.970057
1.06288
1.14069
1.19833
1.22824
1.22387
1.18093
1.09837
0.986183
0.834682
0.712327
0.633347
0.585253
0.552953
0.528583
0.509732
0.495714
0.484818
0.472329
0.446039
0.392312
0.267842
0.0922256
0.236518
0.316166
0.404857
0.479895
0.53975
0.592883
0.632538
0.640376
0.597173
0.506443
0.402586
0.315672
0.259249
0.233832
0.226081
0.227247
0.23252
0.241446
0.254327
0.268133
0.26839
0.253883
0.175441
0.0487316
0.101792
0.11249
0.156087
0.221899
0.288017
0.352698
0.385681
0.385682
0.333002
0.241133
0.138818
0.0703306
0.042053
0.0314381
0.0289595
0.0309322
0.0374919
0.0445471
0.0539475
0.0713095
0.101376
0.144553
0.155366
0.116387
0.0455721
0.0350232
0.0801566
0.144421
0.196184
0.244816
0.275004
0.282366
0.262047
0.203916
0.130134
0.0623346
0.0182219
0.00308834
0.000481033
0.000251977
0.000240275
0.000274098
0.000355581
0.000544701
0.00193418
0.0168708
0.0496886
0.102692
0.0980133
0.077136
0.0195688
0.0474251
0.0822623
0.130331
0.165442
0.181186
0.183383
0.164846
0.122472
0.0752041
0.0348913
0.00917962
0.00128526
5.56895e-05
1.64434e-05
2.171e-05
2.69443e-05
3.20456e-05
3.75739e-05
5.44663e-05
0.000329705
0.00922509
0.0437259
0.0777075
0.125535
0.0271638
0.0260804
0.0343687
0.057758
0.078428
0.088051
0.0900473
0.0812731
0.0574395
0.0339294
0.0165264
0.00471454
0.000651464
2.70987e-05
2.17587e-05
3.25834e-05
4.40589e-05
5.2199e-05
5.61956e-05
6.35028e-05
0.000134408
0.00112861
0.0155086
0.0605403
0.143478
0.0654824
0.0114075
0.00892621
0.0140357
0.020663
0.0244777
0.0254621
0.0232719
0.0152682
0.00801808
0.00346062
0.000814884
9.4651e-05
2.58312e-05
4.54829e-05
6.99397e-05
8.76706e-05
9.75731e-05
0.000100341
9.69614e-05
0.00015004
0.000478935
0.00601278
0.0423222
0.1792
)
;

boundaryField
{
    inlet
    {
        type            fixedValue;
        value           nonuniform List<scalar> 
25
(
0.00015
0.00015
0.00015
0.00015
0.00015
0.00015
0.00015
0.00015
0.00015
0.00015
0.00015
0.00015
0.00015
0.00015
0.00015
0.00015
0.00015
0.00015
0.00015
0.00015
0.00015
0.00015
0.00015
0.00015
0.00015
)
;
    }
    outlet
    {
        type            inletOutlet;
        inletValue      uniform 0.00015;
        value           nonuniform List<scalar> 
25
(
0.0654824
0.0114075
0.00892621
0.0140357
0.020663
0.0244777
0.0254621
0.0232719
0.0152682
0.00801808
0.00346062
0.000814884
9.4651e-05
0.00015
0.00015
0.00015
0.00015
0.00015
0.00015
0.00015
0.00015
0.00015
0.00601278
0.0423222
0.1792
)
;
    }
    walls
    {
        type            fixedValue;
        value           nonuniform List<scalar> 
150
(
0.24194
0.913943
1.26673
1.3539
1.39388
1.39984
1.40431
1.38927
1.35622
1.32814
1.3067
1.28811
1.27397
1.26507
1.26111
1.26033
1.26529
1.27722
1.29558
1.32185
1.35593
1.39399
1.42006
1.43572
1.4384
1.43385
1.44094
1.46437
1.50146
1.55187
1.60907
1.67635
1.74278
1.80662
1.84305
1.85858
1.86121
1.85885
1.84875
1.84535
1.84765
1.86313
1.88774
1.91991
1.96242
2.02687
2.13136
2.29735
2.50847
2.73968
2.95316
3.10718
3.23674
3.37501
3.51808
3.64789
3.76453
3.88263
4.00986
4.16228
4.36669
4.66548
5.12607
5.84909
7.01282
9.01372
13.183
15.4809
13.8325
8.23199
4.24058
2.36891
1.58922
0.937855
0.770836
0.798943
1.14154
1.21287
1.23487
1.1745
1.13543
1.12545
1.12233
1.12839
1.1331
1.14051
1.16072
1.19905
1.2575
1.32743
1.38551
1.45013
1.54157
1.63221
1.70698
1.78115
1.80546
1.78591
1.71656
1.63661
1.5451
1.45235
1.41397
1.47399
1.74087
2.01922
2.14765
2.20891
2.29524
2.32784
2.32372
2.29531
2.27831
2.28582
2.30321
2.27016
2.17373
2.10858
2.10711
2.16279
2.2502
2.35902
2.47421
2.58182
2.67243
2.7359
2.77605
2.79936
2.81579
2.82984
2.84992
2.86936
2.88306
2.90581
2.96092
3.08566
3.31831
3.68254
4.19225
4.89824
5.97263
7.90593
8.38142
7.91712
6.28991
5.17195
4.62199
3.83714
3.50044
2.91279
)
;
    }
    defaultFaces
    {
        type            empty;
    }
}


// ************************************************************************* //
