/*--------------------------------*- C++ -*----------------------------------*\
| =========                 |                                                 |
| \\      /  F ield         | OpenFOAM: The Open Source CFD Toolbox           |
|  \\    /   O peration     | Version:  2.3.0                                 |
|   \\  /    A nd           | Web:      www.OpenFOAM.org                      |
|    \\/     M anipulation  |                                                 |
\*---------------------------------------------------------------------------*/
FoamFile
{
    version     2.0;
    format      ascii;
    class       volScalarField;
    location    "29";
    object      p;
}
// * * * * * * * * * * * * * * * * * * * * * * * * * * * * * * * * * * * * * //

dimensions      [1 -1 -2 0 0 0 0];

internalField   nonuniform List<scalar> 
1875
(
107067
107067
107067
107068
107068
107067
107066
107065
107064
107062
107062
107062
107064
107066
107067
107068
107065
107061
107055
107050
107048
107050
107056
107062
107064
106927
106927
106927
106927
106927
106926
106925
106922
106920
106917
106915
106914
106914
106916
106918
106920
106919
106913
106904
106894
106886
106886
106892
106901
106906
106836
106837
106836
106835
106833
106832
106830
106829
106828
106827
106827
106825
106824
106823
106823
106820
106814
106808
106801
106792
106784
106780
106781
106786
106791
106718
106719
106718
106717
106715
106713
106711
106708
106706
106704
106702
106701
106700
106700
106700
106699
106698
106696
106693
106689
106685
106684
106685
106688
106696
106606
106607
106605
106603
106601
106599
106597
106595
106592
106590
106588
106587
106586
106586
106586
106587
106588
106589
106591
106592
106594
106596
106598
106599
106605
106490
106490
106488
106487
106485
106483
106481
106479
106476
106474
106472
106471
106471
106472
106474
106476
106478
106481
106484
106488
106491
106495
106498
106500
106504
106375
106375
106374
106372
106371
106369
106368
106366
106364
106362
106360
106359
106359
106361
106363
106365
106369
106372
106375
106379
106384
106388
106392
106394
106397
106262
106262
106261
106260
106259
106258
106257
106255
106253
106252
106250
106249
106250
106251
106253
106256
106259
106263
106266
106270
106275
106279
106283
106285
106287
106154
106153
106153
106152
106151
106150
106149
106148
106147
106145
106144
106143
106144
106145
106147
106150
106152
106155
106158
106162
106166
106171
106175
106177
106178
106048
106048
106048
106047
106046
106045
106045
106044
106043
106042
106041
106041
106042
106043
106044
106046
106048
106050
106053
106057
106061
106066
106070
106072
106072
105945
105945
105944
105944
105943
105943
105942
105942
105941
105941
105941
105941
105941
105942
105943
105944
105945
105948
105951
105954
105959
105963
105967
105969
105968
105843
105842
105842
105842
105842
105842
105841
105841
105841
105841
105841
105842
105842
105842
105843
105843
105845
105847
105850
105853
105857
105861
105864
105866
105864
105741
105741
105741
105741
105741
105741
105741
105741
105741
105741
105742
105742
105742
105742
105743
105743
105744
105746
105748
105751
105754
105758
105760
105761
105759
105640
105639
105639
105639
105639
105639
105640
105640
105640
105641
105641
105642
105642
105642
105642
105643
105643
105644
105645
105647
105650
105652
105653
105654
105652
105538
105537
105537
105537
105538
105538
105538
105538
105539
105539
105540
105540
105541
105541
105541
105540
105540
105539
105540
105541
105542
105544
105545
105545
105543
105436
105435
105435
105435
105436
105436
105436
105437
105437
105437
105438
105438
105438
105438
105437
105436
105434
105433
105432
105432
105433
105434
105434
105434
105433
105333
105332
105333
105333
105333
105334
105334
105334
105335
105335
105335
105336
105335
105335
105333
105330
105327
105324
105321
105320
105320
105321
105321
105322
105321
105230
105229
105230
105230
105231
105231
105232
105232
105232
105232
105232
105232
105232
105230
105228
105224
105219
105214
105209
105206
105205
105205
105206
105207
105207
105126
105126
105126
105127
105127
105128
105129
105129
105129
105129
105129
105128
105127
105125
105123
105118
105112
105104
105097
105092
105089
105089
105091
105092
105094
105021
105022
105022
105022
105023
105024
105024
105025
105025
105025
105024
105023
105022
105020
105017
105013
105007
104999
104992
104985
104980
104979
104980
104983
104987
104917
104917
104917
104917
104918
104918
104919
104919
104919
104918
104918
104916
104915
104913
104911
104908
104904
104899
104893
104887
104883
104881
104882
104884
104889
104811
104812
104812
104811
104811
104811
104811
104811
104810
104809
104809
104808
104807
104806
104804
104803
104801
104799
104796
104794
104792
104791
104791
104792
104797
104705
104705
104705
104704
104703
104702
104701
104700
104699
104699
104698
104698
104698
104697
104697
104697
104696
104696
104696
104697
104697
104698
104699
104699
104703
104597
104597
104597
104596
104594
104592
104590
104589
104588
104588
104588
104589
104589
104589
104590
104590
104590
104591
104593
104595
104597
104598
104600
104600
104603
104489
104489
104488
104487
104485
104482
104480
104479
104479
104479
104480
104481
104482
104482
104483
104483
104484
104485
104487
104489
104492
104494
104496
104497
104499
104383
104383
104382
104380
104378
104376
104375
104374
104375
104375
104375
104376
104376
104376
104377
104377
104378
104379
104381
104383
104386
104389
104391
104392
104394
104281
104279
104279
104278
104276
104275
104274
104274
104274
104273
104273
104273
104272
104272
104271
104271
104272
104274
104276
104279
104282
104285
104287
104287
104288
104178
104178
104177
104177
104177
104177
104176
104176
104175
104175
104174
104172
104171
104170
104169
104169
104170
104171
104174
104177
104180
104183
104184
104184
104184
104077
104077
104077
104078
104079
104079
104079
104079
104079
104078
104077
104075
104073
104071
104069
104069
104069
104071
104073
104076
104079
104081
104082
104082
104080
103976
103977
103977
103978
103979
103981
103981
103982
103981
103980
103979
103977
103974
103972
103969
103968
103967
103968
103969
103971
103973
103975
103976
103976
103973
103874
103875
103876
103876
103877
103878
103879
103880
103880
103879
103878
103876
103874
103870
103866
103863
103860
103858
103858
103860
103862
103864
103866
103867
103865
103771
103772
103772
103772
103771
103771
103772
103773
103773
103773
103772
103771
103768
103764
103760
103754
103749
103745
103743
103742
103744
103746
103749
103752
103753
103663
103663
103663
103662
103661
103661
103661
103661
103661
103661
103660
103660
103658
103655
103650
103645
103639
103634
103630
103629
103629
103630
103633
103636
103639
103551
103550
103549
103549
103548
103547
103547
103547
103546
103546
103546
103546
103545
103544
103541
103537
103533
103530
103527
103525
103524
103525
103526
103527
103533
103436
103436
103435
103434
103434
103433
103432
103432
103432
103432
103432
103432
103432
103433
103432
103431
103430
103429
103428
103428
103428
103428
103428
103428
103432
103323
103322
103321
103321
103320
103319
103319
103318
103318
103318
103319
103319
103320
103321
103323
103325
103327
103329
103331
103333
103333
103334
103334
103333
103336
103213
103211
103211
103210
103209
103208
103207
103206
103206
103207
103207
103208
103210
103212
103214
103218
103222
103227
103232
103235
103237
103238
103238
103237
103239
103107
103105
103104
103103
103102
103101
103100
103099
103099
103099
103099
103100
103102
103104
103108
103113
103119
103125
103130
103134
103137
103138
103138
103138
103138
103005
103002
103002
103001
102999
102998
102997
102996
102996
102995
102995
102995
102997
103000
103005
103011
103017
103024
103029
103033
103036
103037
103037
103037
103037
102906
102903
102903
102902
102900
102899
102898
102896
102895
102895
102894
102895
102897
102901
102906
102912
102917
102923
102928
102931
102933
102935
102936
102936
102934
102809
102807
102806
102805
102804
102803
102802
102800
102799
102798
102798
102799
102801
102804
102808
102813
102817
102821
102825
102828
102830
102832
102833
102834
102831
102714
102711
102711
102710
102709
102709
102707
102706
102705
102704
102704
102704
102705
102707
102709
102712
102714
102717
102720
102723
102725
102728
102729
102729
102726
102618
102615
102615
102615
102615
102614
102613
102613
102611
102610
102609
102608
102607
102607
102606
102607
102608
102610
102612
102615
102617
102620
102621
102621
102619
102520
102518
102518
102518
102518
102518
102518
102517
102516
102514
102512
102509
102506
102504
102502
102500
102500
102500
102502
102504
102506
102508
102510
102511
102509
102420
102418
102418
102419
102419
102419
102419
102419
102418
102415
102412
102408
102404
102400
102396
102393
102391
102390
102391
102392
102394
102395
102397
102399
102400
102318
102316
102317
102317
102318
102318
102319
102318
102317
102315
102311
102307
102302
102297
102292
102288
102285
102283
102282
102282
102283
102285
102287
102288
102292
102214
102213
102214
102214
102215
102216
102216
102216
102216
102214
102210
102206
102201
102196
102191
102187
102183
102180
102178
102177
102178
102179
102181
102182
102186
102108
102108
102109
102110
102111
102112
102112
102113
102112
102111
102108
102105
102101
102097
102092
102088
102085
102082
102080
102078
102078
102079
102079
102080
102085
102003
102004
102005
102005
102006
102006
102006
102006
102006
102005
102004
102001
101999
101995
101992
101990
101987
101985
101984
101983
101982
101982
101982
101982
101987
101898
101900
101900
101900
101900
101899
101899
101898
101898
101897
101896
101895
101894
101892
101891
101889
101888
101887
101887
101886
101886
101885
101885
101884
101889
101792
101794
101794
101793
101792
101791
101790
101789
101788
101787
101787
101786
101786
101786
101786
101786
101786
101786
101787
101787
101787
101787
101786
101785
101789
101686
101687
101686
101685
101683
101682
101681
101679
101678
101677
101677
101677
101677
101678
101679
101680
101681
101682
101684
101685
101685
101685
101685
101684
101687
101580
101577
101575
101574
101573
101572
101570
101569
101568
101568
101567
101568
101569
101570
101572
101573
101575
101577
101579
101581
101581
101582
101581
101581
101583
101471
101466
101464
101464
101463
101461
101460
101459
101459
101458
101459
101459
101461
101462
101464
101467
101469
101472
101474
101475
101476
101477
101477
101477
101478
101360
101355
101355
101354
101353
101352
101351
101351
101351
101351
101352
101353
101354
101356
101359
101361
101364
101366
101368
101370
101371
101371
101372
101372
101372
101251
101247
101247
101247
101246
101245
101245
101245
101245
101246
101247
101248
101250
101252
101254
101256
101259
101261
101263
101264
101265
101266
101266
101266
101266
101145
101141
101141
101141
101141
101140
101140
101141
101141
101142
101144
101145
101147
101148
101150
101152
101154
101156
101158
101159
101160
101161
101161
101161
101160
101041
101036
101037
101037
101037
101037
101038
101038
101039
101040
101041
101042
101044
101045
101047
101048
101050
101052
101053
101054
101054
101055
101055
101055
101054
100937
100932
100933
100933
100934
100935
100935
100936
100937
100938
100939
100940
100941
100942
100943
100944
100945
100946
100947
100948
100948
100948
100948
100948
100946
100834
100829
100829
100830
100831
100832
100833
100834
100834
100835
100836
100836
100837
100838
100838
100839
100840
100840
100840
100841
100841
100841
100841
100841
100839
100730
100726
100726
100727
100728
100728
100729
100730
100731
100731
100732
100732
100732
100733
100733
100733
100733
100733
100733
100733
100732
100732
100732
100732
100731
100626
100622
100622
100623
100624
100624
100625
100625
100626
100626
100626
100627
100626
100626
100626
100626
100625
100625
100625
100624
100624
100623
100622
100622
100622
100522
100519
100518
100519
100519
100520
100520
100520
100520
100521
100520
100520
100520
100519
100519
100518
100517
100517
100516
100515
100515
100514
100513
100513
100514
100417
100415
100415
100415
100415
100416
100416
100415
100415
100415
100415
100414
100413
100412
100412
100411
100410
100409
100408
100407
100406
100406
100405
100404
100406
100314
100312
100313
100313
100313
100313
100313
100312
100312
100311
100310
100309
100307
100306
100305
100304
100303
100302
100301
100300
100299
100298
100297
100296
100299
100208
100207
100209
100210
100210
100209
100208
100207
100206
100205
100203
100201
100198
100195
100194
100192
100192
100191
100190
100189
100187
100186
100186
100185
100187
100070
100075
100081
100082
100080
100078
100076
100075
100074
100073
100071
100069
100069
100067
100066
100065
100064
100064
100063
100063
100062
100061
100061
100059
100057
100010
100012
100013
100014
100014
100014
100014
100014
100013
100013
100013
100012
100011
100010
100010
100010
100010
100009
100009
100009
100009
100009
100008
100007
100005
100001
100001
100002
100002
100002
100002
100002
100002
100002
100002
100001
100001
100001
100001
100001
100001
100001
100001
100001
100001
100001
100001
100001
100001
100001
100001
100001
100001
100001
100001
100001
100001
100001
100001
100001
100001
100001
100001
100001
100001
100001
100001
100001
100001
100001
100001
100001
100001
100001
100001
100001
100001
100001
100001
100001
100001
100001
100001
100001
100001
100001
100001
100001
100001
100001
100001
100001
100001
100001
100001
100001
100001
100001
100001
100001
100000
100000
100000
100000
100000
100000
100000
100000
100000
100000
100000
100001
100001
100001
100001
100001
100001
100001
100001
100001
100001
100001
100001
100001
100001
100000
100000
100000
100000
100000
100000
100000
100000
100000
100000
100000
100000
100000
100000
100000
100000
100000
100000
100000
100000
100000
100000
100000
100000
100000
100000
100000
100000
100000
100000
100000
100000
100000
100000
100000
100000
100000
100000
100000
100000
100000
100000
100000
100000
100000
100000
100000
100000
100000
100000
100000
100000
100000
100000
100000
100000
100000
100000
100000
100000
100000
100000
100000
100000
100000
100000
100000
100000
100000
100000
100000
100000
100000
100000
100000
)
;

boundaryField
{
    inlet
    {
        type            fixedFluxPressure;
        gradient        nonuniform List<scalar> 
25
(
1576.9
1535.08
1516.02
1507.63
1494.02
1485.57
1482.97
1489.33
1508.1
1544.48
1490.3
1421.48
1368.27
1408.62
1467.3
1525.81
1501.13
1409.77
1445.7
1541.91
1525.95
1412.27
1302.84
1251.95
1322.27
)
;
        value           nonuniform List<scalar> 
25
(
107077
107077
107078
107078
107078
107077
107076
107075
107074
107073
107072
107072
107073
107075
107077
107078
107075
107070
107064
107060
107058
107060
107065
107071
107073
)
;
    }
    outlet
    {
        type            fixedValue;
        value           uniform 100000;
    }
    walls
    {
        type            fixedFluxPressure;
        gradient        uniform 0;
        value           nonuniform List<scalar> 
150
(
107067
106927
106836
106718
106606
106490
106375
106262
106154
106048
105945
105843
105741
105640
105538
105436
105333
105230
105126
105021
104917
104811
104705
104597
104489
104383
104281
104178
104077
103976
103874
103771
103663
103551
103436
103323
103213
103107
103005
102906
102809
102714
102618
102520
102420
102318
102214
102108
102003
101898
101792
101686
101580
101471
101360
101251
101145
101041
100937
100834
100730
100626
100522
100417
100314
100208
100070
100010
100001
100001
100001
100000
100000
100000
100000
107064
106906
106791
106696
106605
106504
106397
106287
106178
106072
105968
105864
105759
105652
105543
105433
105321
105207
105094
104987
104889
104797
104703
104603
104499
104394
104288
104184
104080
103973
103865
103753
103639
103533
103432
103336
103239
103138
103037
102934
102831
102726
102619
102509
102400
102292
102186
102085
101987
101889
101789
101687
101583
101478
101372
101266
101160
101054
100946
100839
100731
100622
100514
100406
100299
100187
100057
100005
100001
100001
100001
100001
100000
100000
100000
)
;
    }
    defaultFaces
    {
        type            empty;
    }
}


// ************************************************************************* //
