/*--------------------------------*- C++ -*----------------------------------*\
| =========                 |                                                 |
| \\      /  F ield         | OpenFOAM: The Open Source CFD Toolbox           |
|  \\    /   O peration     | Version:  2.3.0                                 |
|   \\  /    A nd           | Web:      www.OpenFOAM.org                      |
|    \\/     M anipulation  |                                                 |
\*---------------------------------------------------------------------------*/
FoamFile
{
    version     2.0;
    format      ascii;
    class       volScalarField;
    location    "0.999927";
    object      alpha.water;
}
// * * * * * * * * * * * * * * * * * * * * * * * * * * * * * * * * * * * * * //

dimensions      [0 0 0 0 0 0 0];

internalField   nonuniform List<scalar> 
18816
(
0.545404
0.52309
0.571212
0.663755
0.701686
0.718219
0.736351
0.744058
0.740198
0.660685
0.560064
0.549984
0.541665
0.545276
0.545508
0.534703
0.548802
0.598424
0.658363
0.698693
0.670033
0.649786
0.625305
0.596129
0.557522
0.527773
0.521135
0.558032
0.565431
0.542647
0.749352
0.948657
0.990398
0.992756
0.993678
0.99412
0.993394
0.976289
0.857785
0.522864
0.520403
0.522935
0.525634
0.564667
0.695093
0.860535
0.960899
0.986204
0.97964
0.966547
0.952116
0.923656
0.834106
0.618792
0.527113
0.563482
0.580422
0.531977
0.751616
0.969847
0.99951
0.9994
0.998987
0.999176
0.999767
0.99947
0.952085
0.559481
0.535482
0.558866
0.570152
0.723724
0.93954
0.996221
0.999564
0.999475
0.999593
0.999703
0.999657
0.999192
0.985352
0.721462
0.532449
0.570703
0.585693
0.523254
0.746166
0.987762
0.999547
0.998391
0.997346
0.997832
0.999552
0.999869
0.997569
0.923543
0.853613
0.862288
0.881091
0.963205
0.996792
0.999873
0.999942
0.997665
0.998044
0.999058
0.999725
0.999627
0.995136
0.761363
0.5297
0.574318
0.589213
0.52324
0.773354
0.997109
0.999371
0.997833
0.996662
0.996855
0.999299
0.999927
0.999196
0.997447
0.995473
0.993873
0.9947
0.996528
0.998929
0.999867
0.999663
0.99378
0.99386
0.996762
0.998983
0.998502
0.987899
0.759317
0.529949
0.577866
0.590127
0.52329
0.83605
0.997798
0.998992
0.997614
0.996746
0.996346
0.999068
0.999978
0.999868
0.99973
0.99971
0.9997
0.999697
0.999501
0.999637
0.999847
0.998761
0.988945
0.986695
0.993135
0.996809
0.983235
0.942678
0.747653
0.527762
0.579614
0.588925
0.523342
0.841046
0.994077
0.994316
0.993679
0.994369
0.994159
0.998511
0.999995
0.999983
0.99997
0.999963
0.999912
0.999877
0.999581
0.999638
0.999871
0.996906
0.981743
0.977288
0.986682
0.99198
0.9455
0.899593
0.73158
0.52658
0.57951
0.585538
0.523392
0.826104
0.974146
0.97355
0.987697
0.990307
0.990342
0.99741
0.999987
0.999903
0.999797
0.999871
0.999679
0.999899
0.999761
0.999977
0.999878
0.993065
0.974516
0.968129
0.974039
0.986127
0.931797
0.820273
0.711574
0.527063
0.57847
0.580155
0.523867
0.8295
0.941964
0.93533
0.981659
0.982533
0.985033
0.995475
0.999958
0.999702
0.9994
0.999846
0.999889
0.999974
0.999724
0.999995
0.999565
0.988202
0.970146
0.960451
0.958538
0.973715
0.952622
0.753899
0.68822
0.526004
0.573661
0.575836
0.536161
0.860006
0.912402
0.90456
0.97796
0.969665
0.978206
0.992615
0.999897
0.999995
0.99999
0.999999
1
1
0.999988
0.999998
0.999146
0.98641
0.968865
0.956399
0.94984
0.954847
0.968794
0.817089
0.665726
0.521677
0.571601
0.57189
0.57799
0.873613
0.893555
0.900105
0.972679
0.958506
0.971388
0.989564
0.999528
0.999998
1
1
1
1
1
0.999999
0.999075
0.987487
0.97011
0.95668
0.949471
0.945504
0.956186
0.921639
0.644114
0.521571
0.64763
0.560193
0.613021
0.860933
0.871465
0.934141
0.953842
0.955813
0.968283
0.987216
0.999011
0.999992
1
1
1
1
1
0.999997
0.999273
0.991433
0.975368
0.961665
0.953016
0.94655
0.939727
0.955662
0.614604
0.528035
0.890641
0.55753
0.612342
0.820123
0.838762
0.948937
0.937457
0.954322
0.967814
0.986036
0.998772
0.999989
1
1
1
1
1
0.999999
0.99972
0.994919
0.982516
0.972227
0.961866
0.949707
0.937814
0.948382
0.645251
0.529518
0.902585
0.55753
0.602702
0.747272
0.77322
0.936527
0.934242
0.95241
0.971243
0.988747
0.999215
0.999995
1
1
1
1
1
1
0.99998
0.998681
0.992015
0.9866
0.974647
0.953172
0.92933
0.90819
0.878866
0.542618
0.870298
0.558784
0.581857
0.664418
0.726061
0.887882
0.930696
0.958933
0.981548
0.994883
0.999802
0.999999
1
1
1
1
1
1
1
0.999949
0.997967
0.99665
0.989079
0.961881
0.927856
0.912834
0.9582
0.574655
0.870844
0.649935
0.576499
0.638637
0.776209
0.891206
0.930941
0.969333
0.992653
0.998829
0.99999
1
1
1
1
1
1
1
1
1
0.9998
0.999692
0.99805
0.983838
0.948955
0.934479
0.937592
0.626998
0.886405
0.790975
0.575414
0.666037
0.920515
0.938227
0.957663
0.986225
0.998642
0.99995
1
1
1
1
1
1
1
1
1
1
0.999998
0.999996
0.999957
0.99859
0.980367
0.947629
0.927808
0.709003
0.919001
0.791279
0.581192
0.716557
0.891411
0.954391
0.988109
0.998792
0.999966
1
1
1
1
1
1
1
1
1
1
1
1
1
1
0.99999
0.997838
0.954887
0.933953
0.829585
0.942249
0.77669
0.603425
0.779583
0.910429
0.972526
0.999095
0.999993
1
1
1
1
1
1
1
1
1
1
1
1
1
1
1
1
0.999831
0.972403
0.939625
0.918765
0.943394
0.778871
0.6409
0.831022
0.929719
0.98887
0.999977
1
1
1
1
1
1
1
1
1
1
1
1
1
1
1
1
1
0.999964
0.985538
0.945301
0.93667
0.943599
0.793487
0.682168
0.8662
0.946551
0.996297
0.999998
1
1
1
1
1
1
1
1
1
1
1
1
1
1
1
0.999999
0.999999
0.999991
0.992842
0.951479
0.938865
0.944467
0.82739
0.715439
0.889767
0.96188
0.99871
0.999999
0.999999
1
1
1
1
1
1
1
1
1
1
1
1
1
1
0.999958
0.999888
0.999955
0.996789
0.956247
0.942811
0.949251
0.883113
0.737086
0.904192
0.971093
0.999513
0.999979
0.999936
0.999998
1
1
1
1
1
1
1
1
1
1
1
1
0.999996
0.999361
0.997565
0.999237
0.996323
0.959458
0.948056
0.956622
0.944507
0.757292
0.912359
0.976472
0.999405
0.999462
0.998836
0.999984
1
1
1
1
1
1
1
1
1
1
1
1
0.999987
0.996911
0.987294
0.993828
0.993892
0.963163
0.954782
0.966985
0.980152
0.791932
0.911002
0.975451
0.997829
0.992511
0.995218
0.999955
1
1
1
1
1
1
1
1
1
1
1
1
0.999981
0.99407
0.978537
0.981207
0.987852
0.967275
0.962285
0.974528
0.985464
0.853865
0.915105
0.968868
0.991749
0.981337
0.992459
0.999943
1
1
1
1
1
1
1
1
1
1
1
1
0.999982
0.993289
0.977034
0.974693
0.980046
0.972023
0.972343
0.988063
0.971984
0.929698
0.937584
0.965963
0.983303
0.97914
0.993811
0.999975
1
1
1
1
1
1
1
1
1
1
1
1
0.999995
0.997124
0.980425
0.971836
0.97542
0.977828
0.986895
0.999695
0.985211
0.976705
0.968672
0.973515
0.974761
0.988828
0.999285
0.999999
1
1
1
1
1
1
1
1
1
1
1
1
1
0.999742
0.994414
0.976476
0.971454
0.977261
0.988214
1
0.522937
0.534427
0.640929
0.742658
0.778936
0.7939
0.808014
0.812374
0.797086
0.730533
0.587624
0.556557
0.551303
0.567221
0.592263
0.616862
0.662501
0.72788
0.786693
0.822481
0.79769
0.776351
0.75075
0.718389
0.670299
0.589083
0.531464
0.516743
0.549854
0.650023
0.85024
0.974231
0.992019
0.991883
0.992243
0.994133
0.995429
0.982684
0.889337
0.539838
0.532445
0.542971
0.600843
0.676502
0.790194
0.919244
0.981462
0.992267
0.991379
0.99016
0.985102
0.973575
0.921212
0.74927
0.626708
0.531377
0.581851
0.640896
0.834307
0.980769
0.994987
0.989791
0.988373
0.995142
0.99936
0.999605
0.958769
0.617172
0.55155
0.57138
0.621712
0.775957
0.958305
0.997624
0.999149
0.992918
0.993134
0.994937
0.997726
0.998988
0.9943
0.833249
0.646853
0.566223
0.609599
0.619861
0.800978
0.98926
0.991652
0.983661
0.981535
0.990121
0.998557
0.999912
0.998726
0.958787
0.855979
0.861438
0.891484
0.966942
0.995485
0.998979
0.998774
0.986322
0.985281
0.990513
0.996932
0.999088
0.996688
0.828942
0.639302
0.594133
0.637431
0.607217
0.812945
0.995078
0.991673
0.984121
0.980737
0.987496
0.997958
0.999928
0.999511
0.998676
0.99733
0.995753
0.995312
0.994586
0.995955
0.997929
0.996041
0.980564
0.976829
0.987282
0.996808
0.996386
0.991915
0.812346
0.629945
0.620453
0.655592
0.59865
0.853325
0.997045
0.995688
0.988327
0.983539
0.984707
0.997519
0.999921
0.999709
0.999522
0.999336
0.998825
0.99713
0.993463
0.993703
0.997499
0.993769
0.97431
0.967047
0.983314
0.992434
0.972445
0.954496
0.790644
0.618717
0.637383
0.654654
0.588057
0.852152
0.993986
0.990577
0.985974
0.981826
0.981696
0.996855
0.99949
0.998409
0.997783
0.997084
0.995305
0.995062
0.988179
0.991015
0.998921
0.991062
0.967206
0.954468
0.969273
0.977935
0.932611
0.919294
0.775968
0.607332
0.653716
0.647093
0.57113
0.832525
0.977427
0.97023
0.979787
0.976776
0.976929
0.995557
0.998577
0.995118
0.992715
0.993137
0.98971
0.996227
0.991973
0.998972
0.999473
0.987073
0.962902
0.944113
0.944194
0.956235
0.922018
0.869756
0.773822
0.598143
0.65757
0.630393
0.55362
0.834691
0.953321
0.937039
0.969732
0.963622
0.972127
0.993395
0.998962
0.994249
0.990988
0.995842
0.995438
0.999226
0.993721
0.99982
0.99919
0.985232
0.962532
0.939734
0.927499
0.930858
0.923951
0.801073
0.776508
0.595924
0.653086
0.609043
0.554341
0.872932
0.931742
0.911351
0.954698
0.944965
0.967285
0.989693
0.999618
0.999881
0.99975
0.99994
0.999954
0.999984
0.999726
0.999959
0.999012
0.987041
0.971079
0.944484
0.925768
0.919636
0.923033
0.836755
0.775957
0.592315
0.629405
0.591862
0.583074
0.912658
0.915758
0.903194
0.930632
0.93636
0.964896
0.987085
0.998846
0.999988
1
1
1
1
1
0.999997
0.999047
0.991418
0.981406
0.964579
0.947212
0.923191
0.909181
0.904041
0.765066
0.58657
0.629735
0.581182
0.644017
0.918854
0.915127
0.914595
0.908802
0.943539
0.969871
0.987541
0.998264
0.999973
1
1
1
1
1
0.999995
0.999437
0.994716
0.98515
0.976889
0.968654
0.945675
0.909479
0.898843
0.699994
0.585839
0.637609
0.577857
0.660089
0.905621
0.899074
0.918748
0.908529
0.948609
0.976214
0.990403
0.998225
0.999972
1
1
1
1
1
0.999999
0.999773
0.996261
0.988885
0.985297
0.97896
0.957119
0.918872
0.866554
0.684206
0.583022
0.670754
0.575604
0.654802
0.854695
0.84177
0.867852
0.913549
0.95638
0.981329
0.99336
0.999288
0.999994
1
1
1
1
1
1
0.999981
0.998806
0.994525
0.993049
0.985755
0.95855
0.915681
0.875132
0.855556
0.589292
0.749055
0.572891
0.638614
0.766196
0.750017
0.848108
0.923722
0.968434
0.988949
0.996992
0.999847
0.999999
1
1
1
1
1
1
1
0.999945
0.9985
0.998512
0.995096
0.97778
0.949556
0.926203
0.908867
0.610103
0.810859
0.587847
0.620454
0.690236
0.774147
0.925856
0.965217
0.984939
0.996093
0.999295
0.999992
1
1
1
1
1
1
1
1
1
0.999844
0.999876
0.999506
0.996165
0.983941
0.965401
0.902407
0.642894
0.822584
0.605522
0.610561
0.69437
0.841427
0.972056
0.991864
0.996941
0.999466
0.999968
1
1
1
1
1
1
1
1
1
1
0.999998
0.999998
0.999993
0.999925
0.996745
0.980125
0.918344
0.696668
0.82889
0.624046
0.612185
0.722564
0.862967
0.982514
0.998849
0.999839
0.999988
1
1
1
1
1
1
1
1
1
1
1
1
1
1
1
0.999672
0.987032
0.944036
0.773195
0.828477
0.649635
0.623821
0.775182
0.919767
0.995014
0.999931
0.999999
1
1
1
1
1
1
1
1
1
1
1
1
1
1
1
1
0.999963
0.989707
0.961271
0.838078
0.825769
0.678417
0.648575
0.832115
0.956944
0.997758
0.999997
1
1
1
1
1
1
1
1
1
1
1
1
1
1
1
1
1
0.999986
0.992729
0.970159
0.865315
0.82146
0.70559
0.68173
0.877679
0.970203
0.998744
0.999999
1
1
1
1
1
1
1
1
1
1
1
1
1
1
1
0.999998
0.999997
0.999994
0.995362
0.975779
0.879607
0.817011
0.731766
0.712522
0.9019
0.97639
0.999385
0.999999
0.999999
1
1
1
1
1
1
1
1
1
1
1
1
1
0.999998
0.999908
0.999795
0.999929
0.99751
0.974432
0.886681
0.821712
0.755953
0.732153
0.913986
0.981647
0.999685
0.999958
0.999872
0.999995
1
1
1
1
1
1
1
1
1
1
1
1
0.999985
0.998495
0.996634
0.999015
0.997391
0.970031
0.888774
0.836514
0.772605
0.740119
0.911076
0.981177
0.999517
0.999068
0.99771
0.99994
1
1
1
1
1
1
1
1
1
1
1
1
0.999942
0.990975
0.983121
0.994149
0.995549
0.961601
0.895384
0.875949
0.799899
0.752375
0.896368
0.97854
0.998051
0.991241
0.989245
0.999786
1
1
1
1
1
1
1
1
1
1
1
1
0.999892
0.977969
0.964972
0.981366
0.98822
0.950111
0.913978
0.926628
0.858621
0.782089
0.874169
0.963039
0.990626
0.978606
0.980581
0.999652
1
1
1
1
1
1
1
1
1
1
1
1
0.999872
0.971561
0.952119
0.972801
0.97691
0.954664
0.944372
0.961233
0.925251
0.839373
0.882472
0.94189
0.97871
0.97455
0.979191
0.999649
1
1
1
1
1
1
1
1
1
1
1
1
0.999943
0.972784
0.945844
0.96197
0.973309
0.969344
0.978922
0.998098
0.938027
0.921862
0.920827
0.947482
0.968355
0.984319
0.994054
0.999978
1
1
1
1
1
1
1
1
1
1
1
1
0.999994
0.995198
0.967392
0.947067
0.962781
0.971253
0.982844
1
0.531317
0.572533
0.707965
0.79478
0.822986
0.837092
0.850343
0.85552
0.842645
0.787629
0.636924
0.522655
0.566924
0.619446
0.650899
0.687084
0.7341
0.79061
0.838295
0.861447
0.839349
0.82362
0.801741
0.772814
0.732458
0.65816
0.567238
0.529014
0.622989
0.777634
0.927471
0.984302
0.98909
0.986638
0.986482
0.99397
0.997384
0.989297
0.920203
0.522433
0.567888
0.639688
0.710967
0.779431
0.873739
0.962213
0.991362
0.991554
0.987518
0.987966
0.988729
0.98863
0.970569
0.869995
0.755529
0.606242
0.683987
0.763017
0.909236
0.978373
0.979054
0.97152
0.974356
0.991097
0.998947
0.999713
0.965716
0.651406
0.576182
0.614568
0.687682
0.837801
0.978615
0.997571
0.998138
0.9878
0.976933
0.979627
0.987307
0.995401
0.996271
0.922574
0.798752
0.677982
0.718946
0.729844
0.85931
0.980952
0.969122
0.963273
0.969002
0.986436
0.99715
0.999897
0.999279
0.982376
0.872007
0.871883
0.908634
0.971925
0.992797
0.994295
0.994497
0.984285
0.969434
0.976245
0.989045
0.997113
0.997039
0.908936
0.794172
0.717582
0.739875
0.701203
0.859806
0.98797
0.974258
0.967777
0.967586
0.98409
0.995553
0.999587
0.999226
0.998544
0.997081
0.994766
0.992411
0.988142
0.98403
0.988755
0.991286
0.979346
0.960455
0.973721
0.990764
0.992591
0.993962
0.879703
0.780576
0.746427
0.752127
0.674
0.881549
0.995079
0.985676
0.973968
0.969528
0.982429
0.995175
0.997409
0.995422
0.995497
0.994561
0.991514
0.984822
0.969159
0.96619
0.986585
0.990663
0.974397
0.950291
0.968681
0.981179
0.961912
0.963878
0.850962
0.754057
0.764022
0.751778
0.642434
0.876238
0.992917
0.982606
0.973915
0.969693
0.980972
0.993672
0.991025
0.98228
0.979495
0.977567
0.972998
0.976688
0.954464
0.955625
0.995799
0.990108
0.96966
0.939123
0.945677
0.953347
0.924088
0.938899
0.850778
0.723645
0.779487
0.745406
0.60304
0.849333
0.977374
0.962689
0.965503
0.960627
0.979397
0.993417
0.984536
0.970653
0.963435
0.962636
0.95812
0.980312
0.963394
0.98894
0.99907
0.987901
0.967955
0.933641
0.918832
0.922962
0.910063
0.911202
0.867695
0.713765
0.787608
0.728269
0.568568
0.849665
0.952333
0.930273
0.947251
0.944393
0.976179
0.994849
0.994627
0.982721
0.975423
0.982999
0.979164
0.993893
0.972597
0.997649
0.999089
0.987698
0.976586
0.935043
0.908123
0.901008
0.897958
0.856345
0.883324
0.715599
0.785191
0.699149
0.563841
0.896147
0.920809
0.900975
0.919661
0.932119
0.973322
0.99479
0.999395
0.9993
0.998308
0.999137
0.99939
0.999724
0.998577
0.99972
0.999019
0.991576
0.987054
0.961163
0.923126
0.894916
0.886212
0.85576
0.884859
0.712036
0.767196
0.661999
0.586912
0.929605
0.897382
0.888353
0.895491
0.932889
0.977683
0.993736
0.998814
0.999989
0.999999
1
1
1
0.999997
0.999997
0.999527
0.996555
0.994517
0.98417
0.964485
0.924361
0.882007
0.887383
0.876345
0.695498
0.716749
0.623566
0.659801
0.930388
0.901891
0.892665
0.888309
0.956129
0.985295
0.994846
0.998618
0.999976
1
1
1
1
1
0.999998
0.999853
0.998503
0.995487
0.992607
0.988214
0.96401
0.906135
0.855252
0.807667
0.677332
0.67568
0.587674
0.701465
0.926176
0.90167
0.878031
0.913563
0.967235
0.989574
0.99603
0.998829
0.999974
1
1
1
1
1
0.999999
0.999927
0.998576
0.995806
0.995781
0.995515
0.982708
0.938201
0.834528
0.726357
0.656097
0.656234
0.551523
0.697024
0.896379
0.881522
0.833896
0.932301
0.979973
0.993027
0.997302
0.999554
0.999994
1
1
1
1
1
1
0.999991
0.999323
0.997555
0.998054
0.997533
0.990144
0.962055
0.888619
0.833129
0.648344
0.653941
0.543381
0.67837
0.832978
0.787624
0.874417
0.96165
0.990377
0.996503
0.998781
0.999889
0.999999
1
1
1
1
1
1
1
0.999949
0.999186
0.999643
0.999434
0.997164
0.991441
0.967121
0.886922
0.652896
0.657117
0.543049
0.648067
0.749269
0.778992
0.960659
0.992374
0.997588
0.999042
0.999695
0.999992
1
1
1
1
1
1
1
1
1
0.999898
0.999975
0.999972
0.999841
0.999114
0.992307
0.889351
0.664989
0.662809
0.543733
0.63343
0.733123
0.799261
0.991278
0.999375
0.999771
0.9999
0.999984
1
1
1
1
1
1
1
1
1
1
0.999999
1
1
0.999999
0.999933
0.99814
0.925753
0.695376
0.667178
0.557438
0.636819
0.748573
0.87272
0.996894
0.999969
0.999995
0.999998
1
1
1
1
1
1
1
1
1
1
1
1
1
1
1
0.999989
0.99931
0.966727
0.74516
0.670906
0.590161
0.649121
0.80081
0.955917
0.999675
0.999999
1
1
1
1
1
1
1
1
1
1
1
1
1
1
1
1
1
0.999997
0.999039
0.985551
0.797396
0.677248
0.615424
0.67527
0.868132
0.985097
0.999852
1
1
1
1
1
1
1
1
1
1
1
1
1
1
1
1
1
1
0.999998
0.998743
0.991351
0.836343
0.68561
0.627403
0.714879
0.918994
0.992179
0.999816
1
1
1
1
1
1
1
1
1
1
1
1
1
1
1
1
0.999986
0.999978
0.999989
0.998572
0.993622
0.864101
0.693114
0.635756
0.750242
0.943575
0.993972
0.999859
0.999997
0.999993
0.999999
1
1
1
1
1
1
1
1
1
1
1
1
0.999991
0.999631
0.999435
0.999809
0.998644
0.992762
0.884893
0.699589
0.643474
0.780334
0.954607
0.994041
0.999835
0.999873
0.999623
0.999974
1
1
1
1
1
1
1
1
1
1
1
1
0.999928
0.995874
0.994422
0.998377
0.998366
0.990459
0.883891
0.707432
0.648163
0.780248
0.952319
0.992458
0.99962
0.997943
0.994814
0.999763
1
1
1
1
1
1
1
1
1
1
1
1
0.999713
0.979505
0.977092
0.994
0.99727
0.983081
0.87541
0.729411
0.656952
0.769223
0.940545
0.988683
0.998303
0.988318
0.978067
0.99919
1
1
1
1
1
1
1
1
1
1
1
1
0.999407
0.951959
0.951765
0.981231
0.991683
0.96544
0.863759
0.777744
0.678495
0.748987
0.906915
0.975221
0.991398
0.974215
0.960737
0.998631
1
1
1
1
1
1
1
1
1
1
1
1
0.999236
0.931387
0.927717
0.969927
0.976736
0.939169
0.882092
0.84014
0.728284
0.755209
0.851397
0.934693
0.9718
0.966242
0.956522
0.998556
1
1
1
1
1
1
1
1
1
1
1
1
0.999435
0.923718
0.912941
0.95318
0.968312
0.94973
0.938072
0.963355
0.814614
0.813192
0.854244
0.90991
0.955316
0.973247
0.982777
0.999843
1
1
1
1
1
1
1
1
1
1
1
1
0.999863
0.967177
0.924784
0.913197
0.951988
0.958052
0.966301
0.999941
0.539201
0.6343
0.759597
0.824083
0.844619
0.85783
0.871808
0.878908
0.868898
0.822722
0.664611
0.522129
0.586598
0.644708
0.684926
0.729417
0.776255
0.824078
0.861166
0.877833
0.856255
0.84093
0.821633
0.798224
0.76622
0.705778
0.616922
0.536702
0.685513
0.868015
0.957517
0.980121
0.98077
0.976716
0.981289
0.993271
0.997201
0.993369
0.928245
0.555691
0.635567
0.72375
0.795474
0.860317
0.93241
0.983289
0.99449
0.988412
0.977172
0.977879
0.982069
0.987029
0.983888
0.936267
0.845237
0.660172
0.748337
0.859614
0.942258
0.969017
0.958661
0.955043
0.97053
0.987412
0.996919
0.999715
0.974687
0.701418
0.613202
0.664741
0.747779
0.892384
0.991167
0.995972
0.995264
0.984858
0.96503
0.966041
0.973397
0.984131
0.993706
0.965377
0.904388
0.741247
0.775894
0.827394
0.89557
0.964834
0.949037
0.948996
0.965918
0.982042
0.990004
0.999011
0.999297
0.990815
0.89713
0.893344
0.926193
0.97445
0.987551
0.983863
0.98847
0.981689
0.958314
0.963255
0.977823
0.991349
0.996239
0.955411
0.904622
0.77934
0.787351
0.792618
0.893479
0.972902
0.955508
0.952518
0.962693
0.98088
0.985982
0.994347
0.996318
0.997207
0.995518
0.992318
0.986764
0.978532
0.965722
0.969181
0.985691
0.978325
0.948328
0.96026
0.980513
0.987958
0.993103
0.928786
0.898783
0.802654
0.797715
0.759609
0.911482
0.989726
0.970913
0.960872
0.960939
0.982354
0.986564
0.982975
0.980315
0.982486
0.979922
0.975824
0.969902
0.945886
0.929741
0.963341
0.989313
0.975879
0.937471
0.951848
0.964972
0.957314
0.96927
0.912603
0.878731
0.817824
0.80326
0.715875
0.908516
0.990048
0.971185
0.96037
0.959155
0.981379
0.986434
0.966089
0.952503
0.948609
0.94729
0.946639
0.960631
0.932587
0.913496
0.988125
0.99111
0.972868
0.927382
0.922535
0.928914
0.919894
0.952521
0.921132
0.857319
0.831339
0.800544
0.65827
0.880959
0.975502
0.950888
0.947196
0.947348
0.980242
0.988394
0.957769
0.938649
0.927799
0.928992
0.92807
0.95988
0.939475
0.957866
0.998459
0.990081
0.972302
0.923522
0.897201
0.895875
0.89858
0.928679
0.942773
0.856811
0.838825
0.790048
0.604621
0.875759
0.946358
0.914882
0.918594
0.932712
0.978935
0.995116
0.98516
0.969815
0.959349
0.966507
0.963181
0.975309
0.945505
0.985536
0.999078
0.991194
0.985066
0.939249
0.890143
0.877994
0.878374
0.88635
0.948585
0.867782
0.838468
0.769594
0.59257
0.915418
0.908078
0.886541
0.884241
0.9245
0.977602
0.996687
0.998726
0.994564
0.992014
0.992914
0.996141
0.994605
0.99472
0.998273
0.999173
0.995627
0.994029
0.971612
0.926931
0.878509
0.864701
0.867704
0.942765
0.864182
0.833988
0.741516
0.613628
0.929149
0.884221
0.872644
0.870223
0.939853
0.985755
0.996688
0.999067
0.999984
0.999969
0.999973
0.999987
0.999972
0.999977
0.999994
0.999851
0.998788
0.998255
0.99179
0.974114
0.930416
0.867131
0.873723
0.927535
0.839617
0.810972
0.70519
0.687896
0.924348
0.880763
0.869668
0.885205
0.969826
0.992748
0.998009
0.999001
0.999987
1
1
1
1
1
0.999999
0.999947
0.999503
0.998877
0.997772
0.994713
0.976793
0.913112
0.837048
0.872816
0.804044
0.76943
0.662645
0.747799
0.91652
0.887238
0.849805
0.931489
0.982427
0.996255
0.99873
0.999135
0.999983
1
1
1
1
1
1
0.999976
0.999655
0.998998
0.999242
0.999331
0.994538
0.957854
0.830702
0.765317
0.766157
0.723591
0.621143
0.747587
0.900762
0.887131
0.83413
0.953491
0.991881
0.998184
0.999173
0.999631
0.999995
1
1
1
1
1
1
0.999997
0.999794
0.999296
0.999742
0.999861
0.99872
0.986213
0.914427
0.81924
0.730776
0.692036
0.582614
0.731576
0.868394
0.830818
0.90151
0.979873
0.997431
0.999308
0.999627
0.999899
0.999999
1
1
1
1
1
1
1
0.999973
0.999658
0.999958
0.999984
0.999879
0.998796
0.985232
0.866231
0.699563
0.672937
0.554991
0.697511
0.806715
0.785291
0.974654
0.997636
0.99972
0.999858
0.999894
0.999986
1
1
1
1
1
1
1
1
1
0.999941
0.999997
1
0.999998
0.999962
0.997876
0.876139
0.696515
0.663585
0.552705
0.664376
0.778537
0.798707
0.996987
0.999931
0.999991
0.999988
0.999992
1
1
1
1
1
1
1
1
1
1
0.999999
1
1
1
0.999999
0.999805
0.935176
0.709961
0.656073
0.560431
0.664668
0.790778
0.897626
0.999646
0.999999
1
1
1
1
1
1
1
1
1
1
1
1
1
1
1
1
1
1
0.999936
0.980103
0.745242
0.650719
0.585416
0.676322
0.838893
0.969865
0.999931
1
1
1
1
1
1
1
1
1
1
1
1
1
1
1
1
1
1
1
0.999935
0.99394
0.79364
0.651903
0.612098
0.704916
0.898459
0.991971
0.999974
1
1
1
1
1
1
1
1
1
1
1
1
1
1
1
1
0.999995
0.999992
0.999995
0.999905
0.996848
0.837066
0.655592
0.626154
0.747148
0.939384
0.997128
0.999976
0.999999
0.999998
0.999999
1
1
1
1
1
1
1
1
1
1
1
1
0.999997
0.999895
0.999856
0.999941
0.999792
0.998019
0.871784
0.661428
0.632594
0.784837
0.959835
0.998191
0.999973
0.999983
0.999959
0.999994
1
1
1
1
1
1
1
1
1
1
1
1
0.999958
0.998647
0.998384
0.999409
0.999469
0.99776
0.895992
0.667922
0.637208
0.820836
0.971022
0.99807
0.999903
0.999583
0.999003
0.999895
1
1
1
1
1
1
1
1
1
1
1
1
0.999715
0.990445
0.990379
0.996759
0.999081
0.997044
0.90565
0.670334
0.640629
0.828763
0.97138
0.997318
0.999536
0.995981
0.990598
0.999243
1
1
1
1
1
1
1
1
1
1
1
1
0.998874
0.963527
0.96985
0.993109
0.99827
0.994924
0.897433
0.673079
0.639368
0.816242
0.967615
0.995343
0.998189
0.984505
0.966462
0.997543
1
1
1
1
1
1
1
1
1
1
1
1
0.997554
0.923226
0.947196
0.9813
0.994617
0.98511
0.873761
0.680979
0.639095
0.785528
0.947154
0.987884
0.992611
0.970287
0.941006
0.995621
1
1
1
1
1
1
1
1
1
1
1
1
0.996558
0.890588
0.924213
0.967234
0.980673
0.950165
0.836132
0.715074
0.642363
0.74357
0.88749
0.953192
0.973946
0.956176
0.932191
0.995122
1
1
1
1
1
1
1
1
1
1
1
1
0.996412
0.874871
0.902315
0.950124
0.964155
0.923811
0.872441
0.863801
0.662969
0.740007
0.834676
0.900993
0.942495
0.957531
0.961286
0.999279
1
1
1
1
1
1
1
1
1
1
1
1
0.998997
0.906864
0.903176
0.912527
0.940223
0.933608
0.924465
0.999237
0.561634
0.685781
0.789043
0.837263
0.854033
0.868045
0.884156
0.891689
0.883203
0.842496
0.681882
0.530916
0.615911
0.67445
0.715489
0.76085
0.803574
0.842845
0.871781
0.885215
0.865542
0.848436
0.829385
0.807328
0.781207
0.733638
0.655312
0.549197
0.729167
0.912619
0.963031
0.971361
0.969439
0.966603
0.979063
0.99164
0.996554
0.995841
0.931041
0.601644
0.71174
0.798519
0.86603
0.92277
0.968961
0.991817
0.993887
0.984033
0.967645
0.963809
0.968769
0.977222
0.98276
0.962556
0.900178
0.698952
0.78594
0.909492
0.947784
0.954467
0.94345
0.947912
0.96955
0.981821
0.990992
0.999203
0.983727
0.76057
0.656198
0.7132
0.799664
0.935188
0.992324
0.992262
0.988967
0.979842
0.956544
0.953551
0.959182
0.969382
0.986093
0.979796
0.954919
0.779684
0.807223
0.88588
0.911935
0.948033
0.934087
0.943704
0.963972
0.975371
0.979346
0.994176
0.998466
0.993027
0.922635
0.915745
0.941752
0.975118
0.981157
0.969252
0.97878
0.976986
0.949255
0.951719
0.964631
0.981377
0.993407
0.974918
0.96143
0.814243
0.817747
0.850986
0.912138
0.952641
0.936902
0.940788
0.958982
0.973864
0.974446
0.978756
0.988145
0.992695
0.991376
0.988182
0.982053
0.969789
0.950594
0.945558
0.974925
0.976145
0.938398
0.946721
0.966714
0.981524
0.991225
0.958135
0.960781
0.832767
0.828229
0.818637
0.932409
0.979848
0.954808
0.947681
0.954292
0.975755
0.974432
0.959919
0.958573
0.963636
0.961288
0.961964
0.963578
0.937724
0.909002
0.936882
0.986199
0.9768
0.926134
0.933173
0.946473
0.955001
0.971201
0.953901
0.955511
0.844652
0.839365
0.783824
0.940786
0.984853
0.956924
0.945102
0.949464
0.977154
0.976826
0.942763
0.927329
0.922713
0.923419
0.930065
0.951258
0.928196
0.892594
0.974375
0.992142
0.974975
0.918174
0.900953
0.908495
0.918464
0.955429
0.962446
0.951603
0.854662
0.838642
0.734579
0.91961
0.97106
0.935794
0.926729
0.937203
0.978894
0.98312
0.939332
0.918935
0.90643
0.909536
0.908851
0.944073
0.933775
0.920855
0.995619
0.992525
0.975211
0.917548
0.88114
0.876643
0.887779
0.923978
0.964843
0.952799
0.857916
0.831501
0.676218
0.907483
0.935465
0.896224
0.893286
0.923445
0.980265
0.993649
0.97342
0.95677
0.944068
0.950629
0.950841
0.952073
0.929252
0.957535
0.998342
0.994198
0.989519
0.945497
0.880718
0.863282
0.864516
0.89149
0.956482
0.954387
0.85746
0.815423
0.654041
0.928522
0.894293
0.87036
0.862742
0.917335
0.980778
0.997129
0.993798
0.983066
0.982065
0.981208
0.98859
0.977333
0.982908
0.990539
0.998784
0.997323
0.996456
0.977832
0.931272
0.873666
0.853929
0.874233
0.936413
0.949942
0.855732
0.791618
0.672318
0.927104
0.876758
0.861661
0.856007
0.947744
0.990404
0.998134
0.999518
1
0.999691
1
0.999693
1
0.9997
0.99989
1
0.998334
0.99929
0.994988
0.979439
0.935332
0.864009
0.861014
0.919084
0.931858
0.849686
0.760387
0.737025
0.911647
0.867482
0.850662
0.888698
0.977836
0.99616
0.999129
1
1
1
1
1
1
1
1
1
1
0.999707
0.999156
0.996969
0.983366
0.92138
0.833053
0.888311
0.902207
0.834955
0.722325
0.79386
0.897445
0.875691
0.838216
0.941429
0.990048
0.998644
0.999593
0.99996
1
1
1
1
1
1
1
1
0.99998
0.999792
0.999867
0.999813
0.997838
0.969855
0.839637
0.794781
0.866416
0.808839
0.687162
0.795906
0.888362
0.88466
0.83494
0.966189
0.996575
0.999597
0.999787
1
1
1
1
1
1
1
1
1
1
0.999853
0.999978
0.999993
0.999806
0.994345
0.93372
0.811746
0.821892
0.777522
0.653702
0.784051
0.876918
0.859267
0.912577
0.987243
0.999186
0.999901
0.999909
0.999989
1
1
1
1
1
1
1
1
1
0.999894
0.999997
1
0.999995
0.999802
0.992319
0.837415
0.767494
0.745847
0.615403
0.753501
0.849239
0.80109
0.981488
0.999059
0.999951
0.999985
0.999972
1
1
1
1
1
1
1
1
1
1
0.999973
1
1
1
0.999997
0.999414
0.865967
0.726127
0.717708
0.599342
0.710566
0.824443
0.82235
0.998596
0.999982
0.999998
0.999999
0.999997
1
1
1
1
1
1
1
1
1
1
1
1
1
1
1
0.999922
0.946308
0.731738
0.697429
0.600127
0.697894
0.832061
0.912502
0.999768
0.999997
0.999998
1
1
1
1
1
1
1
1
1
1
1
1
1
1
1
0.999999
1
0.999984
0.987557
0.758818
0.681247
0.609738
0.706704
0.868756
0.975167
0.999957
0.999997
0.999996
0.999999
1
1
1
1
1
1
1
1
1
1
1
1
1
0.999997
0.999991
0.999995
0.99999
0.996613
0.802979
0.679311
0.624673
0.731852
0.913003
0.994278
0.999987
0.999994
0.999992
0.999998
0.999999
1
1
1
1
1
1
1
1
1
1
1
0.999998
0.999954
0.999911
0.99995
0.999975
0.998134
0.847557
0.681168
0.635385
0.770813
0.944745
0.99833
0.999984
0.999984
0.999976
0.999991
0.999999
1
1
1
1
1
1
1
1
1
1
1
0.999977
0.999495
0.999303
0.999641
0.999899
0.998902
0.887735
0.686797
0.641808
0.808061
0.963418
0.999133
0.99996
0.999887
0.999799
0.999961
0.999999
1
1
1
1
1
1
1
1
1
1
1
0.999819
0.996305
0.995801
0.99807
0.999609
0.998828
0.910566
0.692623
0.646489
0.838002
0.972891
0.999056
0.999804
0.998825
0.99766
0.999618
0.999999
1
1
1
1
1
1
1
1
1
1
1
0.999074
0.982616
0.983538
0.993452
0.999008
0.998507
0.928755
0.696074
0.652525
0.85972
0.976932
0.99867
0.999188
0.992987
0.985468
0.997814
0.999998
1
1
1
1
1
1
1
1
1
1
1
0.996967
0.948288
0.961632
0.9909
0.998461
0.997859
0.926772
0.691747
0.651443
0.856298
0.975943
0.997636
0.997602
0.980012
0.95778
0.993455
0.999998
1
1
1
1
1
1
1
1
1
1
1
0.994297
0.905525
0.945981
0.981605
0.99631
0.994806
0.907974
0.686293
0.647971
0.835499
0.968483
0.994367
0.994058
0.97037
0.9289
0.988512
0.999999
1
1
1
1
1
1
1
1
1
1
1
0.992631
0.868054
0.931684
0.968215
0.985683
0.968633
0.845213
0.688564
0.6449
0.790931
0.932947
0.975532
0.978962
0.948893
0.916988
0.987384
1
1
1
1
1
1
1
1
1
1
1
1
0.992538
0.850762
0.910789
0.951835
0.966825
0.928594
0.835768
0.760751
0.645478
0.746111
0.863227
0.918513
0.941538
0.938733
0.940003
0.998322
1
1
1
1
1
1
1
1
1
1
1
1
0.998055
0.853711
0.9024
0.916872
0.933955
0.906995
0.867063
0.968786
0.58037
0.719064
0.804121
0.842221
0.857982
0.874269
0.891909
0.898533
0.89058
0.851826
0.679179
0.541359
0.644618
0.70178
0.740131
0.782549
0.819408
0.852217
0.876697
0.888379
0.87259
0.853441
0.833272
0.810425
0.787207
0.747891
0.677528
0.557461
0.753431
0.927055
0.957751
0.960443
0.958835
0.960069
0.9779
0.989054
0.994972
0.995566
0.931535
0.647588
0.776523
0.866171
0.923643
0.96514
0.985597
0.99186
0.991676
0.978605
0.962018
0.949469
0.95319
0.960905
0.976049
0.968879
0.92524
0.719973
0.808391
0.924213
0.941474
0.941166
0.932667
0.94873
0.968052
0.976795
0.98464
0.997066
0.990085
0.822156
0.698691
0.757616
0.844864
0.96579
0.992048
0.986001
0.978769
0.975404
0.951319
0.9417
0.945292
0.952931
0.972093
0.977577
0.967643
0.798786
0.828842
0.906538
0.917371
0.933665
0.922386
0.94186
0.962642
0.971381
0.97336
0.984593
0.995496
0.994107
0.94295
0.934508
0.954693
0.975238
0.974104
0.954358
0.964021
0.97431
0.941207
0.941095
0.949958
0.968013
0.987424
0.981375
0.978669
0.831549
0.841007
0.873688
0.919775
0.930963
0.919043
0.934273
0.9569
0.969717
0.968455
0.9615
0.976349