/*--------------------------------*- C++ -*----------------------------------*\
| =========                 |                                                 |
| \\      /  F ield         | OpenFOAM: The Open Source CFD Toolbox           |
|  \\    /   O peration     | Version:  2.3.0                                 |
|   \\  /    A nd           | Web:      www.OpenFOAM.org                      |
|    \\/     M anipulation  |                                                 |
\*---------------------------------------------------------------------------*/
FoamFile
{
    version     2.0;
    format      ascii;
    class       volVectorField;
    location    "0.999927";
    object      U.air;
}
// * * * * * * * * * * * * * * * * * * * * * * * * * * * * * * * * * * * * * //

dimensions      [0 1 -1 0 0 0 0];

internalField   nonuniform List<vector> 
18816
(
(0.0170014 0.0160765 -0.00556504)
(-0.00333365 0.0229311 -0.000532281)
(-0.0491875 0.0249816 -0.000206832)
(-0.0532967 0.0199088 5.32825e-05)
(-0.0454489 0.0170311 1.0344e-05)
(-0.0339013 0.0201055 -0.000240476)
(-0.0172077 0.0202035 -0.000351195)
(0.00117757 0.0187606 -0.000260476)
(0.0165173 0.0159278 0.00019472)
(0.0200087 0.0190969 9.57919e-05)
(0.0299437 0.0203865 -0.000623618)
(0.00754726 0.0359814 -0.000675635)
(-0.0232629 0.0353996 -0.00201481)
(-0.0338468 0.0320784 -0.00334564)
(-0.0437492 0.0297147 -0.00336544)
(-0.0497869 0.020428 -0.002676)
(-0.0549234 0.0181917 -0.00193659)
(-0.0550809 0.0198066 -0.00133111)
(-0.0508938 0.0174848 -0.000595343)
(-0.0218181 0.0147875 -0.00142241)
(0.0133478 0.0180627 -0.00157484)
(0.0375824 0.0196037 -0.001281)
(0.0557319 0.0167012 -0.00073873)
(0.0624033 0.0156713 -0.000494412)
(0.0595239 0.0164315 -0.000656507)
(0.0487446 0.0228727 -0.00131306)
(0.0123162 0.023545 -0.00119916)
(-0.00434659 0.014802 -0.00365962)
(0.013228 0.0996827 -0.00261924)
(-0.00209404 0.0978988 -0.000366883)
(-0.0367862 0.0390322 0.000816566)
(-0.0238177 -0.0022758 0.00117316)
(-0.0222408 -0.0111262 0.00137859)
(-0.0204468 -0.0140774 0.00145737)
(-0.0134085 -0.0194765 0.00146685)
(-0.00868146 -0.0211951 0.00171684)
(-0.00651211 -0.0192397 0.00160663)
(-0.00851404 -0.0110259 0.00113539)
(0.00390401 0.0116012 0.000388248)
(0.00618997 0.0808541 -0.000348909)
(-0.0132083 0.0777935 3.78458e-05)
(-0.0214313 0.0691109 0.000141787)
(-0.0303818 0.0649545 -9.35203e-05)
(-0.0342342 0.0588241 0.000247375)
(-0.0362826 0.0446425 0.00148185)
(-0.0270066 0.0132615 0.00194743)
(-0.0233019 -0.00322385 0.00124809)
(-0.0101644 -0.0122292 0.000452492)
(0.00817614 -0.00672336 0.000452623)
(0.0237389 -0.000458432 0.000315886)
(0.0308812 0.00336655 0.000743189)
(0.034539 0.00663867 0.00086885)
(0.0373515 0.0198858 0.00127213)
(0.0352571 0.0623683 0.000786832)
(0.0122851 0.0964025 -0.000969153)
(-0.00270504 0.0859036 -0.00145209)
(0.0245918 0.123658 -0.00148045)
(0.0142985 0.11185 0.00113684)
(-0.0199179 0.0403278 0.000765898)
(-0.0157819 -0.0144375 0.000868315)
(-0.0233428 -0.0268077 0.000746776)
(-0.0229653 -0.0354693 0.000676712)
(-0.0182496 -0.0436979 0.000664135)
(-0.0131228 -0.0451899 0.000819922)
(-0.00974792 -0.039313 0.000828296)
(-0.0126426 -0.0236754 0.000491148)
(-0.0151569 -0.00499588 0.000255273)
(-0.00436591 0.0953597 0.000600334)
(0.00313434 0.0867546 0.00252879)
(-0.00375529 0.0721796 0.00276295)
(-0.00863161 0.061489 0.00293632)
(-0.0105006 0.032002 0.00245721)
(-0.00768921 -0.00270991 0.000667518)
(-0.00583401 -0.0170392 0.000516999)
(-0.00730385 -0.0249112 0.000519558)
(0.000834103 -0.0337446 -0.000250416)
(0.0133796 -0.0278454 -0.000256547)
(0.0253027 -0.0178381 -8.89296e-05)
(0.0273503 -0.0101181 0.000211034)
(0.0267844 -0.00387943 0.000264977)
(0.0202359 0.00223555 0.000661149)
(0.0229902 0.0485927 0.000967587)
(-0.00339203 0.102157 0.000458557)
(-0.00879764 0.119602 -0.0020838)
(0.0291937 0.142353 -0.000308028)
(0.0176346 0.130599 0.00151245)
(-0.0117268 0.0481098 0.00122574)
(-0.0161862 -0.0148664 0.000515327)
(-0.0280908 -0.0279591 6.41068e-05)
(-0.0270047 -0.0395817 -0.000198998)
(-0.0225019 -0.04917 -0.000484264)
(-0.0141378 -0.0513419 -0.000302589)
(-0.00694537 -0.0450039 0.000110821)
(-0.00659824 -0.0284674 0.000491558)
(-0.0119292 -0.0192316 0.000630519)
(-0.00904786 0.00915235 -0.000558741)
(0.000832458 0.0211609 -0.000646467)
(0.00576474 0.0191927 0.000417791)
(0.00793145 0.0128214 0.000559907)
(0.00895501 -0.00221892 0.000971769)
(0.00397079 -0.013998 0.000890515)
(0.00048714 -0.022732 0.000665027)
(0.00259713 -0.0322354 0.000484694)
(0.0111286 -0.0404028 5.97816e-05)
(0.0183851 -0.033946 0.000122573)
(0.0237289 -0.0216144 0.000335018)
(0.0212395 -0.0108681 0.000561687)
(0.0182752 -0.00134258 0.000510518)
(0.0103978 0.00671896 0.000636441)
(0.00998493 0.0566499 0.000710891)
(-0.0094996 0.116861 0.000709918)
(-0.0123678 0.144084 -0.000174064)
(0.0263615 0.153735 -0.000519263)
(0.0142426 0.142846 0.00115133)
(-0.00832305 0.0511023 0.000986542)
(-0.0164064 -0.00385536 -1.50262e-05)
(-0.0283966 -0.0155036 -0.000530265)
(-0.0316193 -0.0285038 -0.000738237)
(-0.0284529 -0.0404003 -0.00122279)
(-0.0191691 -0.0456008 -0.00118594)
(-0.00600649 -0.0428025 -0.000878816)
(-0.00224772 -0.0310306 0.000104933)
(-0.00649834 -0.0241647 0.000476628)
(-0.00856887 -0.0170557 0.000879555)
(-0.00542739 -0.0142596 0.00105958)
(-0.000655639 -0.0137025 0.000997237)
(0.00185425 -0.0162931 0.000804815)
(0.00350238 -0.0187786 0.000725824)
(0.000166502 -0.0221673 0.000394269)
(-0.00165513 -0.032533 0.000248702)
(0.00516421 -0.0398068 -0.000287299)
(0.0148836 -0.0489492 -0.000362255)
(0.0212835 -0.0415286 0.000147576)
(0.019986 -0.0295056 0.000632293)
(0.0120893 -0.0180355 0.000705196)
(0.00890251 -0.00850259 0.000387181)
(0.0032694 0.00144245 0.0002837)
(0.000738942 0.0568843 0.000561631)
(-0.0110661 0.123266 0.000488906)
(-0.0134184 0.151651 0.000275538)
(0.0226802 0.167244 -9.46243e-05)
(0.0137422 0.156415 0.00102057)
(-0.00380705 0.0544997 0.000797547)
(-0.0102602 0.00692477 0.000270789)
(-0.0218802 -0.00548121 0.000151793)
(-0.0309016 -0.021651 0.000209339)
(-0.0305351 -0.0349259 -0.000615921)
(-0.0223559 -0.0413382 -0.000735671)
(-0.00868036 -0.0386151 -0.000742108)
(-0.00380668 -0.0319322 0.000167556)
(-0.00517689 -0.0307826 0.000525189)
(-0.00705452 -0.0278085 0.000788906)
(-0.00851207 -0.0280364 0.000695823)
(-0.00695581 -0.0283984 0.000692941)
(-0.00648512 -0.0275465 0.000542074)
(-0.00245098 -0.0252014 0.000263296)
(-0.00433402 -0.0245014 0.000192802)
(-0.00193898 -0.0348805 -0.000267425)
(0.00812855 -0.0392969 -0.00057505)
(0.0153472 -0.0507094 -0.000342564)
(0.0190116 -0.0451732 0.000472189)
(0.0116069 -0.0339901 0.000977547)
(0.00186785 -0.0228852 0.00077564)
(0.00213106 -0.0105271 0.000302364)
(-0.00187275 0.00549212 4.60697e-06)
(-0.00465315 0.0584068 0.000439678)
(-0.0107387 0.127152 0.000627974)
(-0.0131678 0.151332 0.000608983)
(0.0184206 0.176329 0.000734548)
(0.0134114 0.165593 0.00107855)
(0.000303398 0.0552515 0.000734822)
(-0.00441311 0.00636915 0.000619849)
(-0.0159373 -0.00468154 0.000523387)
(-0.026059 -0.022717 0.000688494)
(-0.0314723 -0.036504 6.20426e-05)
(-0.0280379 -0.0444653 -0.000225757)
(-0.0154228 -0.042075 -0.000373294)
(-0.0093071 -0.037681 0.000311179)
(-0.00867689 -0.0381407 0.000316158)
(-0.00829542 -0.036583 0.000567364)
(-0.00965581 -0.0364474 0.000510428)
(-0.00881516 -0.0354988 0.000343445)
(-0.00849511 -0.0317267 -7.29461e-05)
(-0.00406487 -0.0243408 -0.000405248)
(-0.00528262 -0.0202329 -0.000431047)
(0.00128446 -0.031171 -0.000865963)
(0.00757196 -0.0345748 -0.00065514)
(0.00828267 -0.0506686 -0.000313356)
(0.0100513 -0.0489149 0.000460288)
(0.00195027 -0.0390652 0.000752822)
(-0.00458263 -0.0301668 0.000422981)
(-0.00115282 -0.015179 8.32471e-05)
(-0.00350144 0.00421343 -5.65306e-05)
(-0.00587266 0.05545 0.000250514)
(-0.00942782 0.12671 0.000474392)
(-0.0104242 0.149323 0.000826902)
(0.0147732 0.176235 0.00145039)
(0.0115523 0.165184 0.00122375)
(0.00320738 0.0509688 0.000822512)
(-0.000904595 0.00314676 0.0006424)
(-0.011097 -0.00530786 0.000547507)
(-0.0189467 -0.0238935 0.00084147)
(-0.030522 -0.0388065 0.000502283)
(-0.0298214 -0.0471629 -0.000170562)
(-0.0192152 -0.0437491 -0.000331986)
(-0.0156444 -0.0371969 -0.000316669)
(-0.0122355 -0.0399325 -0.000145165)
(-0.0100809 -0.0384944 -0.000135601)
(-0.00936335 -0.0374614 -0.000347822)
(-0.00319156 -0.0317899 -0.000787089)
(-0.000565969 -0.0263323 -0.000491497)
(0.000920997 -0.0182371 -0.00029931)
(-0.00323351 -0.0155755 -0.000278898)
(0.00363652 -0.0250163 -0.000521139)
(-2.90668e-05 -0.029386 -6.0187e-05)
(-0.00237719 -0.0493502 -0.00015916)
(-0.00224987 -0.0509792 0.00014306)
(-0.00399773 -0.0430068 0.000318585)
(-0.00506513 -0.0357611 0.00023382)
(-0.00231655 -0.0221039 0.00039505)
(-0.00371869 0.00922339 -0.000159188)
(-0.00564246 0.054867 9.74449e-05)
(-0.00836462 0.126355 0.000368001)
(-0.00759479 0.145405 0.00108036)
(0.00963782 0.167573 0.00183004)
(0.00810288 0.157185 0.00118146)
(0.00395426 0.040551 0.000808929)
(-0.00224056 -0.000264659 0.000502649)
(-0.0091459 -0.00671433 0.000284345)
(-0.0117613 -0.0272904 0.00064125)
(-0.0245716 -0.0408796 0.000751626)
(-0.0272424 -0.0474256 -0.000249057)
(-0.0202524 -0.0383542 -0.000870688)
(-0.0165184 -0.0213426 -0.000987554)
(-0.0148245 -0.0234907 -0.00143912)
(-0.00723486 -0.0198666 -0.00142256)
(-0.00250399 -0.0194911 -0.00144705)
(0.00163745 -0.013839 -0.0011851)
(0.00112129 -0.0155871 -0.000710946)
(0.00352386 -0.00686971 -0.0007288)
(6.99881e-05 -0.00934963 -0.000305546)
(0.00514252 -0.0136895 -0.00082946)
(-0.00507285 -0.0244869 0.000243639)
(-0.0112096 -0.0437286 -0.000407798)
(-0.0133986 -0.0487575 -0.000169017)
(-0.0101925 -0.0448205 -0.000605352)
(-0.00406366 -0.0382956 -0.000110663)
(-0.00267753 -0.0297139 0.000245539)
(-0.00229767 0.0109977 0.000299925)
(-0.00299221 0.0544453 6.52896e-05)
(-0.00762348 0.126675 0.000250034)
(-0.00734714 0.13791 0.00134713)
(0.00249975 0.154297 0.00145332)
(0.00442765 0.141427 0.000960041)
(0.000543582 0.0299281 0.000614106)
(-0.00798045 0.00043326 0.000118997)
(-0.00924638 -0.00574993 -0.000172909)
(-0.00984699 -0.029347 0.00027205)
(-0.0142991 -0.0427727 0.000266421)
(-0.0145505 -0.0445313 -0.000127404)
(-0.0125702 -0.0310084 -0.000958036)
(-0.00885546 -0.00596187 -0.000685535)
(-0.00948543 -0.00635439 -0.00108115)
(-0.00362838 -0.00341363 -0.00119424)
(0.000775397 -0.00764187 -0.000843372)
(0.00271188 -0.00429003 -0.000516956)
(0.00374183 -0.0107076 -0.000411078)
(0.0044215 -0.00358834 -0.000283649)
(0.0124106 -0.0058565 -0.000227322)
(0.00676838 -0.0123813 0.00147113)
(-0.0126794 -0.0228808 0.000580865)
(-0.0180036 -0.0416605 0.000384651)
(-0.023554 -0.0440946 -0.000202056)
(-0.0199602 -0.0390573 -0.0011415)
(-0.00529669 -0.0376067 -0.000738741)
(-8.67215e-05 -0.031473 -0.00020462)
(0.00040403 -0.000221036 0.00130342)
(0.0010687 0.0556268 0.000157634)
(-0.00774904 0.128547 0.000537446)
(-0.0095452 0.112056 0.00302656)
(-0.00107702 0.149761 0.000744854)
(0.00308932 0.128637 0.00076808)
(-0.00505423 0.0285168 0.000430191)
(-0.0116681 0.0052347 -0.000139367)
(-0.0111994 -0.0046349 1.0182e-05)
(-0.0123419 -0.0319649 1.85283e-05)
(-0.00514875 -0.0407823 -0.000980457)
(0.000110253 -0.0437931 -4.84158e-05)
(-0.00486436 -0.028467 -0.00012196)
(-0.00228118 -0.00595396 0.000274956)
(-0.00356417 -0.00394615 0.000128944)
(-0.000798816 -0.00380733 9.64803e-05)
(0.00015489 -0.00724601 0.000160255)
(0.00156908 -0.0067956 7.8098e-05)
(0.00193615 -0.0106237 0.000160349)
(0.00214947 -0.00876232 7.71474e-05)
(0.00330039 -0.0087135 0.000176326)
(0.00139039 -0.0165982 0.000324227)
(-0.00847986 -0.019842 0.000553549)
(-0.0194132 -0.0352433 -0.000375495)
(-0.0246304 -0.0361461 -0.000250109)
(-0.0268045 -0.0348282 -0.00070789)
(-0.0132326 -0.0346143 -0.00126749)
(0.00152376 -0.0303319 -0.000589482)
(0.00144747 -0.0163919 0.000804036)
(0.0012534 0.0586157 0.000188706)
(-0.00798161 0.127765 0.000894306)
(-0.00862292 0.0626215 0.00297378)
(-0.00157093 0.147401 0.000533089)
(0.00385252 0.123642 0.000358562)
(-0.00796774 0.0342179 0.000108814)
(-0.0111541 0.0107624 -0.000120295)
(-0.014663 -0.00843356 0.000413554)
(-0.0108786 -0.0322813 -0.000943636)
(0.00543983 -0.0368341 -0.000453002)
(0.00498239 -0.0386619 -0.000108791)
(-0.00271879 -0.0263183 0.000107317)
(-0.00364825 -0.0068311 -0.000146263)
(-0.00196831 -0.00785859 -6.79851e-06)
(-0.000902003 -0.00598746 -9.96136e-05)
(0.000386929 -0.0112333 -1.39971e-05)
(0.000901429 -0.00646992 -9.85519e-05)
(0.00154722 -0.0125121 -1.47266e-05)
(0.000650986 -0.00738367 -9.71128e-05)
(0.00207291 -0.00653196 -0.000115253)
(-0.0018691 -0.0119595 2.97488e-05)
(-0.00467818 -0.0107319 -0.000325706)
(-0.0131472 -0.0194462 -5.14706e-05)
(-0.0260824 -0.0277457 0.000170628)
(-0.0295885 -0.0301483 -0.000125154)
(-0.0261373 -0.0311789 -0.000862316)
(-0.00502868 -0.0255219 -0.00131193)
(0.00185925 -0.0198415 -0.000108131)
(0.00130868 0.0597306 0.000631387)
(-0.00641845 0.124064 0.000455071)
(-0.00193763 0.0300296 0.000388787)
(0.00112531 0.145828 0.000850154)
(0.00656566 0.125047 0.000166506)
(-0.0047839 0.0471436 -0.000110139)
(-0.00552259 0.0145364 0.000181374)
(-0.0153813 -0.0169803 0.000814555)
(-0.00436106 -0.0322748 -0.00139996)
(0.0138201 -0.0399903 -0.000128458)
(0.00981097 -0.0353395 0.000147367)
(0.000929482 -0.0231687 0.000264659)
(-0.00390791 -0.00758816 -9.8611e-05)
(-0.00091484 -0.00742156 3.75013e-05)
(-0.00156476 -0.00835874 1.52077e-05)
(-0.000118888 -0.0109547 2.44255e-05)
(0.000347002 -0.0092934 1.46265e-05)
(0.000943187 -0.0117078 1.11518e-05)
(0.000727552 -0.00988864 5.66984e-06)
(0.00108357 -0.0080016 -2.04707e-05)
(-0.00166035 -0.0089565 2.29922e-06)
(-0.00247151 -0.00745153 -0.000152984)
(-0.00940637 -0.0117637 0.000226897)
(-0.0228741 -0.0232877 0.000457221)
(-0.029055 -0.0282724 0.000315036)
(-0.0306411 -0.0294388 -0.000298955)
(-0.0190484 -0.0218282 -0.00121439)
(-0.000266653 -0.0129646 -0.00105683)
(0.00315114 0.0513895 0.0021762)
(-0.000496119 0.119459 0.000298925)
(0.00144317 0.0226698 -0.000138328)
(0.00383602 0.137442 0.00223656)
(0.0114888 0.127947 0.000124897)
(0.00225115 0.0602668 -0.000144148)
(-0.000701156 0.0199939 0.000224958)
(-0.0101307 -0.0274361 -4.73804e-05)
(0.0126498 -0.0339175 -0.000891935)
(0.0175139 -0.0397522 -5.43886e-05)
(0.0145016 -0.0327522 0.000403361)
(9.978e-05 -0.0190249 0.000405006)
(-0.00479507 -0.00327814 -3.55323e-05)
(-0.00182539 -0.00866245 2.71394e-05)
(-0.00216301 -0.00605124 8.82451e-06)
(-0.000580729 -0.0122308 -2.11577e-06)
(0.000255457 -0.00686665 1.50022e-05)
(0.00102275 -0.0123756 -4.93949e-06)
(0.00144566 -0.00670632 8.38496e-06)
(0.00200241 -0.00515286 4.0716e-06)
(-4.90694e-05 -0.00776613 2.40231e-05)
(0.00092338 -0.000764581 -9.45617e-05)
(-0.00486022 -0.00554768 0.000277692)
(-0.016498 -0.021007 0.000554888)
(-0.0249296 -0.028509 0.000620812)
(-0.0294359 -0.028323 0.0001538)
(-0.0268738 -0.019923 -0.000604449)
(-0.00257822 -0.00562524 -0.00167684)
(0.0053158 0.014842 0.00059227)
(0.00474681 0.113135 0.000491228)
(0.00303945 0.0256332 -0.000429182)
(0.00489963 0.102675 0.00316408)
(0.0114043 0.127298 0.000364967)
(0.00411168 0.0669621 0.000123601)
(-0.00476465 0.026885 0.00054547)
(-0.0035746 -0.0283452 -0.00168085)
(0.0250969 -0.0352168 -0.000448639)
(0.0211169 -0.0367732 0.000172192)
(0.0152447 -0.0298283 0.000618157)
(-0.00116302 -0.0149063 0.000345206)
(-0.00604436 -0.00540854 -7.92593e-05)
(-0.00287372 -0.0101037 3.64183e-05)
(-0.00312703 -0.0095699 2.60231e-06)
(-0.0011402 -0.0134512 1.69846e-06)
(0.00023636 -0.0105469 1.41056e-05)
(0.00122626 -0.0132136 -3.12318e-06)
(0.00240827 -0.0103916 1.55637e-05)
(0.00336166 -0.00869463 -1.18375e-05)
(0.00262231 -0.00890775 2.77553e-05)
(0.00465925 -0.00249103 -5.86953e-05)
(5.37499e-05 -0.00130108 0.000487744)
(-0.0115653 -0.0192696 0.000485727)
(-0.0180438 -0.0287201 0.000473741)
(-0.0239557 -0.0285086 0.000349622)
(-0.0265811 -0.0216008 -0.000129332)
(-0.0115907 -0.00655586 -0.00123516)
(0.00661603 0.00265986 -0.000139497)
(0.00609403 0.103324 0.000656386)
(0.00418134 0.0274471 -0.000293451)
(0.00205487 0.062046 0.00188646)
(0.00885278 0.124277 0.000635954)
(0.00125169 0.0707795 0.00053365)
(-0.0101005 0.0182891 0.00100611)
(0.00613939 -0.0183898 -0.00173157)
(0.0278562 -0.0346115 -0.000111922)
(0.0210924 -0.0344014 0.000354765)
(0.0125268 -0.0264245 0.000625854)
(-0.0031182 -0.0106488 0.000539855)
(-0.00763691 -0.00482877 0.000241459)
(-0.00523387 -0.0130426 -5.33387e-07)
(-0.00407523 -0.0103806 0.000292113)
(-0.0018911 -0.0161486 -1.0214e-05)
(0.000444517 -0.0115877 0.000293863)
(0.0013957 -0.0150601 -3.38475e-06)
(0.00417942 -0.0110952 0.000240936)
(0.00373958 -0.00875309 0.000287841)
(0.00553642 -0.0102273 8.36729e-06)
(0.007318 -0.00189121 0.000200388)
(0.00262175 0.000540345 0.000658038)
(-0.00578263 -0.0191252 0.000449997)
(-0.0109241 -0.0291663 0.00041918)
(-0.0153581 -0.0299274 0.000229825)
(-0.0171105 -0.0204274 2.56137e-05)
(-0.0191577 -0.00514686 -0.000677798)
(0.00548428 0.00787773 -0.00136078)
(0.0119296 0.0920571 0.000705745)
(0.00431982 0.0293658 -0.000602396)
(-0.00209471 0.0472422 -3.48131e-05)
(-2.87505e-05 0.11989 0.000378596)
(-0.00569437 0.0709561 0.000548457)
(-0.0112108 0.00199229 -0.000809375)
(0.0161377 -0.0132161 -0.00116235)
(0.0202766 -0.0299225 4.24232e-05)
(0.0137147 -0.031175 0.00040799)
(0.00527286 -0.0231446 0.000602297)
(-0.00985631 -0.00852146 0.000576197)
(-0.0112349 -0.00764179 -0.000229935)
(-0.00839161 -0.0151154 -1.44474e-05)
(-0.00530645 -0.0129313 -0.000279217)
(-0.00304619 -0.0185594 -2.40587e-05)
(0.00117195 -0.0143865 -0.00027653)
(0.00180288 -0.0183117 0.000278202)
(0.00205329 -0.013506 -0.000310712)
(0.00895644 -0.0125179 -0.000231592)
(0.010338 -0.0136337 0.000271033)
(0.0114237 -0.00377726 -0.000143596)
(0.0105008 -0.000158782 0.0005397)
(0.00416422 -0.0200005 0.000377321)
(0.0019876 -0.0296136 0.000202886)
(-0.00196684 -0.0290596 -2.16451e-05)
(-0.00372617 -0.0174315 1.86388e-05)
(-0.0160051 -0.00119106 -0.000344531)
(0.00285365 0.0191762 -0.0015485)
(0.0163924 0.080262 0.000257821)
(0.00381225 0.0328693 -0.000721897)
(-0.00477879 0.0498741 -0.000736992)
(-0.00781157 0.116578 0.000266961)
(-0.0169722 0.0722147 0.00017888)
(-0.00858291 0.0100919 -0.00221579)
(0.0196119 -0.0071153 -0.000465161)
(0.00833105 -0.0231276 -4.68179e-08)
(0.0039605 -0.0300725 0.000248895)
(-0.00265478 -0.0243644 0.000655292)
(-0.0143109 -0.0117995 0.000737403)
(-0.0172337 -0.0115869 0.000165816)
(-0.0117187 -0.0182036 7.84396e-05)
(-0.00793338 -0.0158826 9.653e-05)
(-0.00427523 -0.0211623 2.64213e-05)
(-0.00134126 -0.0164564 6.72219e-05)
(0.00164691 -0.0191911 6.97664e-06)
(0.00618216 -0.0169763 0.000108467)
(0.00866928 -0.0157733 -4.02251e-06)
(0.0140013 -0.0156424 6.52105e-05)
(0.0200798 -0.00757231 0.000451135)
(0.0176712 -0.00448637 0.000480677)
(0.014969 -0.0268695 0.000288312)
(0.0159856 -0.0311224 0.00022454)
(0.0129034 -0.0256734 -0.000101185)
(0.0103451 -0.0116621 0.000184908)
(-0.0070131 0.0087599 -0.000264551)
(0.00126389 0.031296 -0.000983407)
(0.0141889 0.0720364 -0.000347837)
(0.00430818 0.0396716 -0.000255718)
(-0.00690042 0.0593351 -0.00120781)
(-0.0140276 0.117073 0.000445614)
(-0.0265393 0.07189 -0.000462873)
(-0.00529415 0.0249807 -0.00159199)
(0.0117191 0.000307586 -0.000264182)
(-0.0092043 -0.0169967 9.73e-05)
(-0.0119842 -0.0267735 0.000198271)
(-0.0178868 -0.0251508 0.000679815)
(-0.023881 -0.00727958 0.000817676)
(-0.0221746 -0.016135 0.000468912)
(-0.0148321 -0.0236364 -9.94154e-05)
(-0.00860691 -0.0208429 0.000357707)
(-0.00505742 -0.025116 -4.94595e-05)
(-0.00293598 -0.0204268 0.000355646)
(0.00131336 -0.0253484 -0.000340874)
(0.00823909 -0.0210072 0.000288447)
(0.0079697 -0.0206577 0.000412487)
(0.018827 -0.0250382 -0.000388433)
(0.0294099 -0.0165997 0.000859155)
(0.0300121 -0.00305908 0.00161633)
(0.0269605 -0.0287345 -0.000117153)
(0.0341988 -0.030797 0.000191357)
(0.0296686 -0.0224579 0.000198099)
(0.0223462 -0.00460863 0.000271346)
(0.00268811 0.0182246 9.54794e-05)
(0.000742705 0.0402351 -0.000506512)
(0.0108211 0.0727309 -0.000718862)
(0.00362643 0.0579725 0.000198496)
(-0.00663574 0.0678612 -0.00121362)
(-0.0169096 0.12071 0.000519032)
(-0.0259574 0.0747969 -0.000991773)
(-0.00403792 0.0407654 -0.000733724)
(-0.000162799 0.0117525 7.25408e-05)
(-0.0226364 -0.00746366 0.000171532)
(-0.0285129 -0.0274133 0.000263437)
(-0.0322338 -0.0366147 0.000788851)
(-0.0464829 -0.0348755 0.00291262)
(-0.038742 -0.0362263 -0.000118649)
(-0.0195136 -0.0322383 -0.000438577)
(-0.0113135 -0.0267378 -0.000747955)
(-0.00586079 -0.0274687 -0.000462949)
(-0.00249547 -0.0226257 -0.000738659)
(0.00104018 -0.0257812 -0.000457409)
(0.00378357 -0.0243089 -0.000799425)
(0.0133757 -0.0287945 -0.00064528)
(0.023044 -0.0352239 -0.000426832)
(0.0464813 -0.0415723 0.000139308)
(0.0523591 -0.0442808 0.00399264)
(0.0410057 -0.0430136 0.000230657)
(0.0471889 -0.0345301 0.000318136)
(0.0394113 -0.0202251 0.00057021)
(0.026071 0.00440473 0.000496012)
(0.0068889 0.0283348 0.000228196)
(0.000267125 0.0495769 -0.000273033)
(0.00740052 0.0819183 -0.000741576)
(0.00115537 0.0728473 0.000243691)
(-0.00520433 0.074637 -0.00110946)
(-0.017145 0.126267 0.000475911)
(-0.0224722 0.0824512 -0.00111645)
(-0.00379356 0.0492899 -0.000128347)
(-0.0098773 0.0203564 0.000271294)
(-0.0301927 0.00201363 0.00109772)
(-0.0412869 -0.0211193 0.000423476)
(-0.0504067 -0.033999 -3.86609e-05)
(-0.0617554 -0.0383849 0.000281348)
(-0.0449 -0.0266129 -0.00417189)
(-0.0147876 -0.0173145 -0.00261863)
(-0.0129546 -0.0106434 -0.00274638)
(-0.00435271 -0.0099884 -0.00257873)
(-0.00430695 -0.00767876 -0.00258004)
(-0.000868909 -0.00916663 -0.00255355)
(-0.00098133 -0.00944063 -0.00275691)
(0.0104776 -0.0131437 -0.00292509)
(0.0116739 -0.0216311 -0.00285319)
(0.0487184 -0.0313859 -0.00511462)
(0.0706502 -0.0507808 0.000165164)
(0.0610414 -0.0435661 4.96493e-05)
(0.0570329 -0.0308301 0.000698087)
(0.0419938 -0.013915 0.000941325)
(0.0258822 0.0109463 0.000892127)
(0.00845519 0.0351036 0.000510519)
(-7.74839e-05 0.0578355 -3.00102e-05)
(0.00413679 0.0932838 -0.00051175)
(0.000313864 0.0859803 -0.000101011)
(-0.00210751 0.0750343 -0.00045822)
(-0.0118018 0.131387 0.000613677)
(-0.0183314 0.0891022 -0.000737275)
(-0.00464384 0.0527258 8.88825e-05)
(-0.0141397 0.0272783 0.000334867)
(-0.0302007 0.00737746 0.0011983)
(-0.0419353 -0.0147257 0.000672964)
(-0.0466486 -0.0235724 0.000258092)
(-0.0469891 -0.0250129 8.9969e-05)
(-0.0272107 0.00661215 -0.000983884)
(-0.0106194 0.0130108 -0.000166838)
(-0.00894188 0.019803 0.000190345)
(-0.00349419 0.0184848 0.000301748)
(-0.00257562 0.0204935 0.000431965)
(1.63593e-05 0.0197675 0.000382585)
(0.000999032 0.0192653 0.000318609)
(0.0076194 0.0199814 5.8524e-05)
(0.00988042 0.00879208 -0.00030847)
(0.0317887 0.00394046 -0.00124356)
(0.0537274 -0.0362845 0.000120637)
(0.054838 -0.0363728 0.000519561)
(0.0495872 -0.0279618 0.00110003)
(0.0325052 -0.0115807 0.00110618)
(0.0182306 0.0132723 0.000883423)
(0.0053949 0.0366057 0.000692821)
(-0.00200376 0.0624323 0.000219012)
(-0.000866387 0.0998494 0.000112684)
(-0.00452032 0.0891267 -9.62574e-05)
(0.00022514 0.070196 -7.09761e-05)
(-0.00670715 0.135172 0.000395728)
(-0.0115907 0.0950021 -0.000514875)
(-0.00334907 0.0573875 0.000131966)
(-0.0122705 0.0310718 0.000567178)
(-0.0266407 0.00792312 0.00120076)
(-0.0426332 -0.020117 0.00127367)
(-0.0508769 -0.0330103 0.000833348)
(-0.0500919 -0.0410839 0.000277717)
(-0.0303705 -0.0257903 -0.000382833)
(-0.0147405 -0.0144349 5.07241e-06)
(-0.00863253 -0.00959866 7.58114e-05)
(-0.00440718 -0.00866558 0.000119911)
(-0.00214244 -0.00659477 0.000147928)
(0.000657294 -0.00736455 0.000173604)
(0.00252529 -0.00872827 0.000143569)
(0.00819304 -0.0102553 7.67847e-05)
(0.0137184 -0.0175654 -8.47007e-05)
(0.0322242 -0.0295345 -0.0003565)
(0.050862 -0.0560197 0.000385101)
(0.051079 -0.050628 0.00126381)
(0.0384011 -0.0363405 0.00157735)
(0.0142455 -0.0110963 0.00108968)
(0.00543339 0.0112443 0.000784425)
(-0.000323464 0.0346209 0.000505832)
(-0.00491372 0.0643464 0.000164924)
(-0.00491417 0.101154 0.000268092)
(-0.00654754 0.0847182 -1.46692e-05)
(0.00305725 0.063177 0.00034745)
(-0.000161559 0.139389 0.000286245)
(-0.00529332 0.099476 -0.000221378)
(-0.000462296 0.0585789 0.000503336)
(-0.00756114 0.0283705 0.000770514)
(-0.013634 0.003507 0.00122771)
(-0.0258418 -0.0232553 0.00124748)
(-0.0410834 -0.0383968 0.00136973)
(-0.0412078 -0.0482548 0.000338838)
(-0.0258197 -0.0304739 -0.000372284)
(-0.0121305 -0.0102878 -0.000250999)
(-0.00489487 -0.00265271 -0.000162027)
(-0.00249208 0.00122456 -0.000129778)
(-0.000989975 0.00346098 -0.000115419)
(-0.000190654 0.00267777 -0.000129795)
(0.00100997 0.000112813 -0.000147268)
(0.00417032 -0.00404546 -0.000166205)
(0.0103999 -0.0148655 -0.000213032)
(0.0245911 -0.0371351 -0.000338157)
(0.0372227 -0.0616585 0.000274976)
(0.0361135 -0.0535197 0.00135994)
(0.0140534 -0.0308151 0.00130749)
(-0.000287253 -0.0111896 0.000821596)
(-0.00351272 0.00437908 0.00064755)
(-0.0031472 0.0291568 0.000580478)
(-0.00723615 0.0626454 0.000369989)
(-0.0101136 0.0981543 0.000740809)
(-0.00976723 0.0702071 0.000377744)
(0.00527843 0.0577991 0.000680371)
(0.0100416 0.138304 0.000309037)
(0.00174209 0.103055 0.00014941)
(0.00023135 0.0559991 0.00047769)
(-0.00550518 0.0197722 0.000459307)
(-0.00522194 -0.00467571 0.000658964)
(-0.00765708 -0.0241308 0.000636163)
(-0.0277329 -0.0488145 0.00161916)
(-0.0316404 -0.0613183 0.00037645)
(-0.0216308 -0.0428593 -0.000170675)
(-0.0111908 -0.0193111 -0.000223175)
(-0.00432971 -0.00958979 -0.000117089)
(-0.00250772 -0.00506079 -7.31662e-05)
(-0.000830138 -0.00343604 -8.33419e-06)
(0.000247157 -0.00360749 -4.75777e-05)
(0.00163764 -0.00561352 -6.79118e-05)
(0.00380448 -0.0106715 -9.7037e-05)
(0.00945978 -0.0230189 -0.000164001)
(0.0188336 -0.0473155 -0.000171024)
(0.0265474 -0.0705674 0.000161681)
(0.0222721 -0.0585542 0.00119882)
(0.00159888 -0.0277225 0.000423107)
(-0.00187704 -0.0156273 0.000228478)
(-0.00439099 -0.00336382 0.000342799)
(-0.00488391 0.0234659 0.0004184)
(-0.0116949 0.0626056 0.000596173)
(-0.0178676 0.0906812 0.00119288)
(-0.0121314 0.0322952 7.96437e-05)
(0.00443885 0.0417926 0.00106925)
(0.0173552 0.124119 -1.94324e-05)
(0.0126494 0.103014 0.000910125)
(0.00374683 0.0556033 0.000854684)
(-0.00273654 0.014911 0.00065214)
(-0.00274299 -0.0128403 0.000630725)
(-0.000857052 -0.025201 0.000548701)
(-0.0137059 -0.0516119 0.00137313)
(-0.0189403 -0.0646522 9.36667e-05)
(-0.0127667 -0.0464869 -0.000221719)
(-0.00648159 -0.0219637 -0.000140377)
(-0.00195177 -0.00955993 -6.77434e-05)
(-0.00100965 -0.00351062 -5.92804e-05)
(-0.00019754 -0.00138309 -3.88088e-05)
(-0.000150969 -0.00153761 -3.71976e-05)
(0.000496574 -0.00416646 -4.43994e-05)
(0.00150462 -0.010869 -5.25536e-05)
(0.00512248 -0.0251918 -0.000112707)
(0.0103086 -0.049951 -0.000230721)
(0.0146404 -0.0694664 6.44764e-06)
(0.0116532 -0.0540354 0.000754729)
(-0.00174013 -0.0232484 0.000417164)
(-0.00196976 -0.0164173 0.000227575)
(-0.00570898 -0.00512019 0.000544731)
(-0.0119013 0.0222807 0.000885767)
(-0.0228757 0.0594405 0.00134923)
(-0.0304612 0.0723612 0.00170491)
(-0.0185334 0.00700859 -0.000354307)
(0.00152483 0.0314874 0.000930183)
(0.0181347 0.107581 0.000680088)
(0.024327 0.0934389 0.00147081)
(0.0148919 0.0533424 0.00146356)
(0.00571877 0.0104496 0.00104545)
(-0.000625116 -0.0219954 0.000667068)
(-0.000660892 -0.0292287 0.000298337)
(-0.00571594 -0.0510276 0.00018164)
(-0.0069069 -0.0619656 2.64232e-05)
(-0.00559877 -0.0448985 -0.000137615)
(-0.00341491 -0.0233951 -0.000138628)
(-0.00101821 -0.010328 -8.07016e-05)
(-0.000531634 -0.00398163 -6.78242e-05)
(-9.31949e-05 -0.00187594 -5.33183e-05)
(9.78428e-06 -0.00199593 -5.43694e-05)
(0.000360959 -0.0044606 -6.13808e-05)
(0.000856105 -0.011422 -6.98715e-05)
(0.00271015 -0.025523 -0.000116235)
(0.00455785 -0.0461287 -0.000145154)
(0.00555744 -0.0646828 -2.25835e-05)
(0.00455113 -0.0501538 9.11042e-05)
(-0.00119394 -0.0230112 0.000170107)
(-0.00177769 -0.0178442 0.000138685)
(-0.00618078 -0.00804019 0.000488214)
(-0.015542 0.0179062 0.0010074)
(-0.0256236 0.0461654 0.00143892)
(-0.0340045 0.0465986 0.00134231)
(-0.0146499 -0.00214802 -0.000675961)
(0.00246043 0.00649174 0.000384554)
(0.0120367 0.0641818 0.000327827)
(0.0204149 0.0643493 0.000755955)
(0.0152014 0.0394009 0.000967218)
(0.0098051 0.00193577 0.000889099)
(0.000939482 -0.0268619 0.000258678)
(-0.000275848 -0.028733 -2.02844e-05)
(-0.00134614 -0.043913 -5.83462e-05)
(-0.00174671 -0.0530565 -8.29728e-05)
(-0.00147626 -0.036711 -0.000156213)
(-0.000881084 -0.0199006 -0.000209787)
(-0.000257739 -0.00836385 -0.000115024)
(-6.53652e-05 -0.0026677 -4.20185e-05)
(-8.59154e-08 -0.000790699 -1.10712e-05)
(-1.48569e-05 -0.000888666 -1.25088e-05)
(4.78249e-05 -0.00309819 -4.68751e-05)
(0.000257467 -0.00943509 -0.00012081)
(0.000788289 -0.0218681 -0.00020446)
(0.00129419 -0.0377955 -0.000166428)
(0.0015336 -0.0555606 -9.77917e-05)
(0.00093348 -0.0430508 -6.24412e-05)
(-0.00111764 -0.0207 -5.01297e-05)
(-0.000846989 -0.0178952 7.09188e-05)
(-0.00457399 -0.00890163 0.000296584)
(-0.00921935 0.0107989 0.000571174)
(-0.0109413 0.0296358 0.000713656)
(-0.0137261 0.0225947 0.00109857)
(-0.00168206 -0.024208 0.00433605)
(0.011059 0.0185195 -0.00711566)
(-0.00904905 0.0214329 -0.00343762)
(-0.0565932 0.0253181 2.48918e-05)
(-0.0602761 0.0183618 -0.00022991)
(-0.0513541 0.0144746 -0.000447614)
(-0.0392703 0.017357 -0.000846401)
(-0.0205824 0.0160899 -0.000776614)
(0.000359551 0.0139805 -0.000275129)
(0.0183164 0.0119727 0.00058862)
(0.0219535 0.0177103 -0.000160515)
(0.0329161 0.0219902 -0.000653556)
(0.00616731 0.020845 -0.00502539)
(-0.0285631 0.0320275 -0.00519046)
(-0.0392747 0.0289753 -0.00537577)
(-0.0500578 0.0237085 -0.00498172)
(-0.0565905 0.0170384 -0.0040879)
(-0.0614995 0.016655 -0.00305283)
(-0.0610652 0.0181814 -0.00202688)
(-0.0564759 0.0133093 -0.00174768)
(-0.023873 0.00659314 -0.00330279)
(0.0153761 0.0114445 -0.00341187)
(0.0422294 0.0153612 -0.00301736)
(0.0619886 0.0142336 -0.00188111)
(0.070034 0.0142086 -0.000924336)
(0.0678361 0.0152618 -0.000752479)
(0.0570203 0.0211729 -0.00149127)