/*--------------------------------*- C++ -*----------------------------------*\
| =========                 |                                                 |
| \\      /  F ield         | OpenFOAM: The Open Source CFD Toolbox           |
|  \\    /   O peration     | Version:  2.3.0                                 |
|   \\  /    A nd           | Web:      www.OpenFOAM.org                      |
|    \\/     M anipulation  |                                                 |
\*---------------------------------------------------------------------------*/
FoamFile
{
    version     2.0;
    format      ascii;
    class       surfaceScalarField;
    location    "0.38";
    object      phi.air;
}
// * * * * * * * * * * * * * * * * * * * * * * * * * * * * * * * * * * * * * //

dimensions      [0 3 -1 0 0 0 0];

internalField   nonuniform List<scalar> 
11770
(
1.56788e-05
7.81167e-05
2.57654e-05
8.48298e-05
2.70262e-05
9.14467e-05
1.55127e-05
0.000101359
-6.37986e-06
0.000110588
-1.13181e-05
9.95345e-05
-1.30774e-05
9.941e-05
-2.74326e-05
0.000105294
-3.37221e-05
9.55204e-05
-2.7005e-05
8.62995e-05
-2.10774e-05
8.83326e-05
-2.05287e-05
9.51233e-05
-2.24394e-05
0.000102753
-1.40924e-05
0.00010191
2.64141e-06
0.000101159
1.66791e-05
0.000101076
1.95138e-05
0.000102291
1.84297e-05
9.88987e-05
2.14592e-05
9.1482e-05
2.89411e-05
8.56658e-05
3.52015e-05
8.46751e-05
2.06482e-05
9.90645e-05
8.83215e-06
0.000102092
7.33632e-06
9.77301e-05
-9.9971e-07
0.000100914
-1.72438e-05
0.000103818
-2.95473e-05
9.98519e-05
-2.57024e-05
8.86732e-05
-1.52467e-05
8.45409e-05
7.83219e-05
1.98587e-05
5.61112e-05
1.53547e-05
8.00071e-05
6.00731e-06
8.97393e-05
-1.73156e-06
9.86539e-05
5.87033e-06
9.85029e-05
2.65047e-07
9.48328e-05
-7.81571e-06
9.46545e-05
-1.81797e-05
0.000102318
-3.05637e-05
9.35466e-05
-2.62492e-05
7.05599e-05
-1.39074e-05
6.54067e-05
-2.63579e-06
7.20386e-05
1.39065e-06
8.37515e-05
-2.36219e-06
9.17104e-05
-1.49071e-06
9.03163e-05
-2.8273e-06
9.05707e-05
-3.00505e-06
8.75578e-05
5.26398e-06
7.69509e-05
1.70269e-05
6.82046e-05
2.79908e-05
6.40162e-05
2.56717e-05
7.4503e-05
6.69085e-06
0.00010382
2.57215e-06
9.83989e-05
-1.81718e-06
9.48093e-05
-1.9584e-06
9.5896e-05
3.43701e-07
9.74558e-05
-6.01855e-06
9.76572e-05
-1.57697e-05
8.79313e-05
-1.98974e-05
7.93895e-05
5.61688e-05
1.29912e-05
4.62104e-05
-9.31957e-07
8.90843e-05
-5.72926e-06
9.42129e-05
-1.05202e-06
9.56157e-05
2.02449e-06
9.5724e-05
2.42856e-06
9.61851e-05
-7.91439e-07
9.8929e-05
-5.04524e-06
0.000106816
-1.47543e-05
0.000101936
-1.00617e-05
6.79243e-05
3.62106e-06
5.68039e-05
1.66303e-05
6.62866e-05
2.4757e-05
8.57957e-05
5.6665e-06
0.000114581
-4.13234e-06
0.000105196
-1.92184e-05
0.000110219
-2.53398e-05
0.000102751
-1.38642e-05
7.52906e-05
-7.17859e-07
6.13399e-05
1.20547e-05
5.59891e-05
9.26847e-06
7.81904e-05
3.47039e-06
0.000110563
-2.14352e-06
0.000102729
-4.26681e-06
9.64115e-05
-2.42349e-06
9.45029e-05
1.11622e-06
9.45585e-05
5.99212e-06
9.45425e-05
5.73143e-07
9.30844e-05
-1.35201e-05
8.90256e-05
4.60739e-05
-6.14391e-06
5.00199e-05
-1.06044e-05
9.06497e-05
-6.21124e-06
8.93297e-05
-1.3e-06
9.0588e-05
1.75345e-06
9.25069e-05
3.64969e-06
9.43179e-05
5.36423e-06
9.7498e-05
7.71671e-06
0.000104411
2.63305e-06
0.000104008
5.47124e-06
6.29843e-05
1.6318e-05
4.74173e-05
2.80773e-05
5.82468e-05
2.268e-05
9.0891e-05
8.4503e-06
0.000121308
-3.40743e-06
0.000110407
-1.54296e-05
0.000115234
-3.26449e-05
0.000113475
-2.69125e-05
7.31513e-05
-1.5699e-05
5.34155e-05
-4.74794e-06
4.61154e-05
-7.59819e-06
7.83983e-05
-6.64174e-06
0.000108976
-5.81381e-06
0.000102021
-4.43591e-06
9.54187e-05
-2.15585e-06
9.24914e-05
1.60408e-06
9.10093e-05
6.33463e-06
8.97881e-05
9.90573e-06
8.89157e-05
6.36182e-06
9.00577e-05
5.00055e-05
-1.60143e-05
6.04735e-05
-9.26879e-06
8.31513e-05
-4.48703e-06
8.35592e-05
-5.43935e-07
8.57901e-05
2.4971e-06
8.90679e-05
4.5619e-06
9.12678e-05
7.09396e-06
9.39323e-05
9.83221e-06
0.00010079
1.1309e-05
0.00010075
1.70632e-05
5.64857e-05
2.40747e-05
4.28461e-05
3.07224e-05
5.60988e-05
8.27548e-06
0.00010568
7.02541e-06
0.000119068
-2.67499e-06
0.000114317
-7.47663e-06
0.000115251
-1.82372e-05
0.000117083
-3.48943e-05
8.58424e-05
-2.49879e-05
4.84156e-05
-1.69172e-05
3.96663e-05
-1.35228e-05
7.38082e-05
-1.01374e-05
0.000104642
-7.58582e-06
9.87657e-05
-5.04839e-06
9.22357e-05
-2.77539e-06
8.95602e-05
2.77198e-07
8.75773e-05
3.68377e-06
8.53795e-05
8.61268e-06
8.31297e-05
1.60708e-05
8.20001e-05
6.02424e-05
-7.07683e-06
6.46172e-05
-4.1035e-06
7.84702e-05
-1.12211e-06
7.93423e-05
1.22794e-06
8.21453e-05
3.47334e-06
8.61552e-05
4.92752e-06
8.86236e-05
5.42659e-06
9.16501e-05
6.13345e-06
9.82792e-05
1.60538e-05
9.03033e-05
2.6837e-05
4.68346e-05
3.03324e-05
4.29158e-05
1.10367e-05
7.3889e-05
-7.30616e-07
0.000114333
7.48936e-07
0.000117723
-1.47995e-06
0.000116509
-3.09058e-06
0.000116839
-3.05674e-06
0.000117618
-3.10521e-05
0.000106205
-3.11584e-05
5.11593e-05
-2.6892e-05
3.79095e-05
-1.36682e-05
6.14969e-05
-8.36063e-06
9.77845e-05
-7.12802e-06
9.56396e-05
-5.79465e-06
8.91848e-05
-4.14595e-06
8.66768e-05
-2.01221e-06
8.43153e-05
1.50408e-07
8.18266e-05
3.8248e-06
7.85953e-05
7.1553e-06
7.69603e-05
6.44493e-05
5.08937e-06
5.99176e-05
2.62425e-06
7.81723e-05
2.94739e-06
7.73694e-05
3.28036e-06
8.02184e-05
4.32801e-06
8.40836e-05
4.38341e-06
8.71674e-05
2.56018e-06
9.11961e-05
2.46632e-07
9.76844e-05
2.05403e-05
7.2326e-05
3.14624e-05
3.96929e-05
3.03182e-05
4.67163e-05
-1.04949e-06
9.77343e-05
-1.42599e-06
0.000115014
-6.17824e-07
0.000116459
-1.07291e-06
0.000116373
-1.37268e-06
0.00011657
-8.39464e-07
0.000116749
-9.92314e-06
0.000113891
-3.34612e-05
7.24136e-05
-3.35552e-05
4.24047e-05
-1.355e-05
4.53419e-05
-3.66188e-06
8.69322e-05
-4.92558e-06
9.42354e-05
-5.84356e-06
8.7893e-05
-5.33145e-06
8.47158e-05
-4.79198e-06
8.22941e-05
-3.58906e-06
7.91635e-05
-2.51747e-06
7.61932e-05
-5.09574e-06
7.65838e-05
5.9809e-05
1.21524e-05
4.92322e-05
8.00632e-06
7.92941e-05
6.33673e-06
7.70747e-05
5.58337e-06
7.91492e-05
5.25964e-06
8.2761e-05
4.2535e-06
8.65514e-05
-1.48157e-06
9.33074e-05
-2.9924e-06
9.59157e-05
2.27596e-05
5.18467e-05
2.83709e-05
3.98222e-05
1.20738e-05
6.14812e-05
-1.94377e-06
0.000108488
-1.30254e-06
0.000113891
-7.63963e-07
0.000115263
-7.99565e-07
0.000115651
-7.12241e-07
0.000115754
5.61656e-08
0.00011536
5.4534e-07
0.000113198
-2.90676e-05
9.37821e-05
-3.29005e-05
4.76799e-05
-1.64172e-05
3.5204e-05
2.78216e-06
7.06351e-05
-2.84146e-06
9.63053e-05
-6.18604e-06
8.8538e-05
-6.7524e-06
8.39466e-05
-6.65604e-06
8.06968e-05
-6.55596e-06
7.73262e-05
-7.20654e-06
7.49845e-05
-1.29177e-05
7.85905e-05
4.86656e-05
1.32236e-05
3.71777e-05
1.22088e-05
7.71935e-05
9.81316e-06
7.74778e-05
7.44093e-06
7.97161e-05
4.95427e-06
8.35798e-05
6.5963e-07
8.94454e-05
-6.93369e-06
9.85516e-05
4.91661e-07
8.83574e-05
1.87954e-05
3.79012e-05
2.4184e-05
3.74487e-05
-6.69468e-08
7.78497e-05
-6.17238e-07
0.000108233
-3.86623e-07
0.000112912
-4.29163e-07
0.00011442
-6.47548e-07
0.000114935
-9.09539e-07
0.000115093
-1.02972e-06
0.000114626
-1.16792e-06
0.000112544
-1.55402e-05
0.000103636
-2.60557e-05
5.46901e-05
-1.69935e-05
3.18671e-05
3.59803e-06
5.51519e-05
3.55957e-07
9.66543e-05
-5.40893e-06
9.19017e-05
-7.55128e-06
8.43998e-05
-8.45793e-06
7.97186e-05
-9.3025e-06
7.64267e-05
-1.09862e-05
7.44828e-05
-1.3805e-05
7.73086e-05
3.6273e-05
9.46827e-06
2.7569e-05
1.76409e-05
6.79526e-05
1.30212e-05
7.98519e-05
9.65324e-06
8.12392e-05
6.6119e-06
8.39998e-05
2.01309e-06
9.15044e-05
-3.44217e-06
0.000102552
1.08782e-05
7.75089e-05
1.46745e-05
3.669e-05
1.83014e-05
3.43498e-05
5.29534e-06
8.55491e-05
3.10158e-06
0.000109086
1.37878e-06
0.00011346
2.98969e-07
0.000114241
-5.74455e-07
0.000114498
-1.49454e-06
0.000114729
-3.28524e-06
0.000115155
-6.40237e-06
0.000114449
-1.39091e-05
0.000108979
-2.01395e-05
5.7755e-05
-1.64683e-05
3.06167e-05
-7.76696e-06
4.8346e-05
2.36865e-07
8.98542e-05
-5.51398e-06
9.58857e-05
-8.87072e-06
8.47062e-05
-1.04716e-05
7.88016e-05
-1.25224e-05
7.65683e-05
-1.57753e-05
7.52965e-05
-9.94435e-06
6.91026e-05
2.61127e-05
3.85259e-06
2.30248e-05
2.13793e-05
5.18572e-05
1.68418e-05
8.12466e-05
1.21097e-05
8.32329e-05
7.23558e-06
8.64832e-05
2.23458e-06
9.44321e-05
6.22267e-06
9.81097e-05
2.10841e-05
6.46745e-05
1.68526e-05
3.97594e-05
1.71437e-05
3.65865e-05
1.6943e-05
8.75517e-05
7.60804e-06
0.00011635
2.9638e-06
0.000116399
7.10843e-07
0.000114668
-2.15875e-07
0.000113645
-1.62044e-06
0.000114285
-4.50101e-06
0.000116293
-1.06617e-05
0.000118886
-2.07834e-05
0.000116832
-2.02638e-05
6.05468e-05
-2.47483e-05
3.69144e-05
-2.43487e-05
4.67104e-05
-4.93395e-06
7.37804e-05
-4.46021e-06
9.38892e-05
-8.81446e-06
8.7042e-05
-1.2875e-05
8.04174e-05
-1.62489e-05
7.71299e-05
-2.1291e-05
7.71321e-05
-4.02333e-06
5.26535e-05
2.09055e-05
-1.24297e-07
2.26486e-05
1.65424e-05
3.60619e-05
2.07583e-05
7.51589e-05
1.47678e-05
8.61273e-05
9.0029e-06
8.95535e-05
5.8438e-06
9.53819e-05
2.09141e-05
8.52695e-05
3.13355e-05
5.60641e-05
2.34432e-05
4.55548e-05
2.09489e-05
4.40152e-05
2.01748e-05
9.35127e-05
7.67449e-06
0.000126457
1.77286e-06
0.000119977
2.09128e-07
0.000113916
2.36379e-07
0.000111153
1.86362e-07
0.000111988
-2.57197e-06
0.000116653
-9.90972e-06
0.000124008
-2.23697e-05
0.000128816
-2.49095e-05
6.862e-05
-3.36084e-05
4.58292e-05
-3.50716e-05
4.97803e-05
-1.7764e-05
6.01646e-05
-6.82352e-06
8.40598e-05
-1.08139e-05
8.83605e-05
-1.5721e-05
8.22251e-05
-2.07583e-05
7.88137e-05
-1.87526e-05
7.22635e-05
4.74591e-07
3.43286e-05
2.11475e-05
-2.45997e-06
2.51778e-05
5.07038e-06
2.80099e-05
2.19757e-05
6.01929e-05
1.69781e-05
8.84188e-05
1.11579e-05
9.19033e-05
1.35007e-05
9.10441e-05
3.22586e-05
6.97503e-05
3.67338e-05
5.44193e-05
2.8536e-05
5.44874e-05
2.23469e-05
5.47755e-05
1.13384e-05
0.00010884
2.80347e-07
0.000135786
-3.8987e-06
0.000121377
-2.71637e-06
0.00010974
1.39468e-06
0.000104105
4.78834e-06
0.000105554
5.12637e-06
0.000113461
-1.04531e-06
0.000127306
-1.29488e-05
0.000141512
-2.62485e-05
8.71832e-05
-3.60282e-05
5.61695e-05
-4.05957e-05
5.75668e-05
-3.25691e-05
5.7094e-05
-1.47229e-05
6.98552e-05
-1.37722e-05
8.51677e-05
-1.97879e-05
8.47227e-05
-2.42922e-05
8.05729e-05
-6.97217e-06
5.59309e-05
3.34203e-06
2.46595e-05
2.51376e-05
-3.8073e-06
2.94089e-05
-2.87963e-06
2.73167e-05
1.3967e-05
4.64386e-05
1.5535e-05
8.65446e-05
1.53593e-05
9.0778e-05
2.7863e-05
8.08302e-05
4.14747e-05
6.28341e-05
3.8218e-05
5.99939e-05
2.90816e-05
6.47577e-05
1.42559e-05
7.44413e-05
-8.59099e-06
0.000133525
-1.55926e-05
0.000141077
-1.58012e-05
0.000118609
-8.06245e-06
0.000100186
2.70493e-06
9.19282e-05
1.30645e-05
9.37459e-05
1.90933e-05
0.00010532
1.67841e-05
0.00012647
8.91896e-06
0.000150445
-1.84066e-05
0.000118147
-3.26724e-05
7.15588e-05
-4.18291e-05
6.85223e-05
-4.4165e-05
6.30742e-05
-3.02842e-05
6.35505e-05
-1.96523e-05
7.71985e-05
-2.03024e-05
8.49463e-05
-1.87838e-05
7.89489e-05
4.24587e-06
3.84007e-05
6.08463e-06
2.47639e-05
3.18324e-05
-4.36087e-06
3.45604e-05
-6.21317e-06
2.98203e-05
1.8967e-06
4.08209e-05
1.21439e-05
7.97753e-05
2.47264e-05
8.19873e-05
4.23036e-05
7.10773e-05
4.6072e-05
6.54373e-05
3.71124e-05
7.18373e-05
2.06172e-05
8.10453e-05
-1.44015e-05
0.0001135
-3.4026e-05
0.000154171
-3.52758e-05
0.000140079
-2.61544e-05
0.000109469
-1.18014e-05
8.75409e-05
3.44615e-06
7.92155e-05
1.85872e-05
8.09775e-05
3.26898e-05
9.26009e-05
4.04203e-05
0.000118165
4.11346e-05
0.00014858
1.06744e-05
0.000148573
-2.19579e-05
0.000108428
-3.99998e-05
8.53723e-05
-4.89346e-05
7.51342e-05
-4.51598e-05
6.60799e-05
-2.90374e-05
6.94546e-05
-1.84484e-05
7.86159e-05
-4.75296e-06
7.00968e-05
8.58558e-06
3.14077e-05
6.70661e-06
2.76188e-05
3.83455e-05
-3.73869e-06
3.9134e-05
-5.65963e-06
3.24437e-05
-2.71694e-06
3.93136e-05
1.42179e-05
6.68308e-05
3.43946e-05
6.76596e-05
4.78761e-05
6.51655e-05
4.52797e-05
7.2107e-05
2.725e-05
8.8857e-05
-1.02914e-05
0.000118941
-5.09883e-05
0.000151184
-5.34993e-05
0.000155432
-3.95828e-05
0.000127414
-2.09222e-05
9.43442e-05
-7.61278e-06
7.87183e-05
2.26515e-06
7.4343e-05
1.2982e-05
7.5264e-05
2.81902e-05
8.17116e-05
4.85876e-05
0.000101073
6.37582e-05
0.00013436
5.34399e-05
0.000156507
9.95117e-06
0.000147454
-2.71153e-05
0.00012176
-4.74968e-05
9.50439e-05
-4.99705e-05
7.27105e-05
-3.7241e-05
6.35922e-05
-1.88508e-05
6.49969e-05
1.83095e-06
5.6615e-05
4.5799e-06
3.05033e-05
5.13311e-06
2.79786e-05
4.20355e-05
-2.25753e-06
4.18077e-05
-2.46624e-06
3.34085e-05
1.56465e-06
3.58921e-05
1.98791e-05
5.00978e-05
3.7364e-05
5.45409e-05
4.35419e-05
6.13208e-05
3.55097e-05
7.90664e-05
-4.47243e-06
0.000123363
-4.96721e-05
0.000158933
-6.38425e-05
0.000163181
-4.72314e-05
0.000140395
-2.16986e-05
0.000107198
-6.52439e-06
8.47366e-05
-1.2525e-06
7.76459e-05
1.06243e-06
7.56093e-05
4.03366e-06
7.60742e-05
1.13072e-05
7.90233e-05
2.99852e-05
8.82882e-05
5.67391e-05
0.000112673
7.07079e-05
0.000143854
5.10204e-05
0.000163859
6.55178e-06
0.000160953
-3.53077e-05
0.000129498
-4.57373e-05
8.25185e-05
-3.86044e-05
5.9082e-05
-2.19424e-05
5.11715e-05
-5.1278e-06
4.21431e-05
-2.22045e-06
2.80336e-05
1.17848e-06
2.57412e-05
4.17914e-05
-1.61149e-07
4.21092e-05
1.83993e-06
3.19e-05
8.47036e-06
2.93858e-05
2.27309e-05
3.58415e-05
3.32874e-05
4.41064e-05
3.53233e-05
5.90796e-05
7.50133e-06
0.000103225
-3.23434e-05
0.000154683
-5.43034e-05
0.000177867
-4.46257e-05
0.000157964
-1.84279e-05
0.00012391
-2.5476e-06
9.88134e-05
8.61043e-07
8.54482e-05
1.05024e-06
8.11127e-05
9.34247e-07
7.94118e-05
8.33826e-07
7.97635e-05
1.82387e-06
8.19406e-05
7.30736e-06
8.73687e-05
2.6204e-05
0.000101968
5.14329e-05
0.000127645
5.76773e-05
0.000161697
3.44176e-05
0.000180564
-3.59031e-06
0.000159912
-3.90406e-05
0.00011086
-3.54795e-05
5.5448e-05
-2.53387e-05
4.12261e-05
-1.41959e-05
3.09355e-05
-8.90825e-06
2.27747e-05
-2.83759e-06
2.11045e-05
3.66153e-05
1.62574e-06
3.97614e-05
5.14338e-06
2.86632e-05
1.35815e-05
2.12859e-05
2.28522e-05
2.62787e-05
2.85976e-05
4.07251e-05
1.34774e-05
7.22167e-05
-1.57874e-05
0.00012394
-2.48276e-05
0.000165618
-2.26397e-05
0.000179181
-1.23237e-05
0.000158754
-1.97284e-06
0.000125016
1.93354e-06
0.000104725
7.4283e-07
9.36347e-05
9.27681e-07
8.81597e-05
9.68034e-07
8.60849e-05
1.51495e-06
8.64069e-05
1.50337e-06
8.88028e-05
1.50615e-06
9.52966e-05
6.60011e-06
0.000107035
1.69473e-05
0.000129093
2.57259e-05
0.000162402
2.71794e-05
0.000180742
1.92971e-05
0.000168653
-1.1924e-05
0.000132316
-3.24455e-05
7.46798e-05
-2.83788e-05
3.71361e-05
-2.08293e-05
2.34161e-05
-1.32439e-05
1.71554e-05
-5.39439e-06
1.53762e-05
2.8479e-05
4.86687e-06
3.34569e-05
5.30011e-06
2.90132e-05
1.8772e-05
1.33081e-05
3.04432e-05
1.89153e-05
2.82758e-05
4.02002e-05
-1.96168e-05
0.000113034
-1.61155e-05
0.000124789
1.71884e-06
0.000154404
2.35275e-05
0.000166626
1.34339e-05
0.000169865
-6.85197e-07
0.000142144
-3.20787e-06
0.000114697
-1.4342e-06
0.000104092
-1.7115e-07
9.97162e-05
1.42043e-06
9.81931e-05
2.41872e-06
9.83422e-05
4.8943e-06
9.95046e-05
6.0133e-06
0.000104522
1.05034e-06
0.000117155
-1.38866e-05
0.0001444
-2.31149e-05
0.000169573
1.57731e-06
0.000163625
1.8799e-05
0.000155969
2.26103e-05
0.000132793
-3.58852e-05
0.000118849
-3.42723e-05
3.38082e-05
-2.56525e-05
1.61857e-05
-1.53977e-05
9.99397e-06
-6.79417e-06
9.73623e-06
1.99567e-05
1.24057e-05
2.52445e-05
3.09307e-06
4.49856e-05
2.29774e-05
3.72272e-06
3.91207e-05
4.85226e-06
2.97494e-05
4.7155e-05
-1.68418e-05
0.000134464
-4.9955e-06
0.000117397
2.24851e-05
0.000133782
3.61878e-05
0.000148111
3.24872e-05
0.00015426
2.18872e-05
0.000135335
1.11516e-05
0.000112127
5.85237e-06
9.98716e-05
2.51837e-06
9.5123e-05
5.57955e-07
9.31556e-05
-2.04685e-06
9.34445e-05
-5.12693e-06
9.43338e-05
-1.26266e-05
0.000101006
-2.37818e-05
0.000113881
-3.49958e-05
0.000137385
-3.6124e-05
0.000152755
-2.01119e-05
0.000144049
9.5467e-06
0.000133513
1.55418e-05
0.00012915
-2.88235e-05
0.000141668
-3.90387e-05
3.99957e-05
-2.92578e-05
1.81577e-06
-1.37857e-05
-1.47981e-06
-7.37997e-06
1.38643e-06
1.49511e-05
5.98465e-06
2.42117e-05
3.17136e-06
4.65177e-05
1.45713e-05
-7.9385e-06
4.2781e-05
-1.4228e-05
2.23006e-05
5.12395e-05
1.60364e-05
0.000129716
9.76033e-06
0.000114464
2.14817e-05
0.000115605
2.77191e-05
0.000129586
4.14376e-05
0.000131083
4.52437e-05
0.000120472
3.66338e-05
0.000106471
2.29834e-05
9.66896e-05
1.12772e-05
8.93771e-05
-7.71121e-07
8.6823e-05
-1.19498e-05
8.6874e-05
-2.5844e-05
9.07225e-05
-3.87133e-05
9.83915e-05
-4.63067e-05
0.000108644
-3.92197e-05
0.000121827
-2.59265e-05
0.000131514
-2.00545e-05
0.000127816
-8.28108e-06
0.00011713
-1.14898e-05
0.000125058
-1.03104e-05
0.0001341
-3.7369e-05
5.61143e-05
-2.78656e-05
-9.61466e-06
-1.30373e-05
-1.22445e-05
-5.75158e-06
7.49515e-07
9.69368e-06
9.3957e-07
2.05797e-05
8.1901e-06
4.01969e-05
1.92543e-05
-8.9617e-06
2.97227e-05
-2.38849e-05
1.99411e-05
5.24624e-05
2.75009e-05
0.000119829
1.90525e-05
0.000116515
1.29718e-05
0.000115661
2.07351e-05
0.000120337
3.06588e-05
0.000121241
3.44727e-05
0.000116665
3.08623e-05
0.000109644
2.29214e-05
0.000103174
1.13498e-05
9.83535e-05
-8.39839e-07
9.6219e-05
-1.33732e-05
9.65415e-05
-2.41044e-05
9.94172e-05
-3.14192e-05
0.0001046
-3.37397e-05
0.000110947
-2.94023e-05
0.00011737
-1.9131e-05
0.000121429
-1.32542e-05
0.000120088
-1.85891e-05
0.000117149
-1.92024e-05
0.000121435
-8.58066e-06
0.000121892
-3.4017e-05
6.98081e-05
-2.28417e-05
-1.3999e-05
-1.18261e-05
-2.34414e-05
-6.82144e-06
8.5653e-07
2.91912e-06
2.83479e-06
1.74725e-05
1.02579e-05
3.28087e-05
1.16511e-05
-8.22255e-06
1.15168e-05
-2.60481e-05
2.06853e-05
4.23843e-05
2.12193e-05
0.00011746
1.80875e-05
0.000118505
1.64255e-05
0.000117016
1.91965e-05
0.00011746
2.28669e-05
0.000117464
2.39861e-05
0.000115443
2.15386e-05
0.000111952
1.60464e-05
0.000108524
8.24967e-06
0.000105957
-5.92525e-07
0.000104849
-9.2858e-06
0.000105043
-1.67406e-05
0.000106713
-2.16775e-05
0.000109392
-2.36375e-05
0.000112801
-2.23021e-05
0.000115899
-1.86141e-05
0.000117616
-1.62533e-05
0.000117596
-1.6989e-05
0.000117668
-1.67115e-05
0.000120324
-1.29233e-05
0.00011668
-1.76242e-05
7.08181e-05
-2.0936e-05
-1.30963e-05
-8.33145e-06
-2.45656e-05
-6.54268e-06
1.41754e-07
-3.61916e-06
2.49476e-06
1.46924e-05
6.87717e-06
2.79317e-05
1.23317e-06
-3.46388e-06
5.8537e-07
-2.55788e-05
1.87377e-05
2.63909e-05
1.77819e-05
0.0001164
1.66703e-05
0.000118573
1.62608e-05
0.000116833
1.69919e-05
0.000116521
1.77458e-05
0.000116535
1.73699e-05
0.000115641
1.51545e-05
0.000114003
1.11544e-05
0.000112311
5.75004e-06
0.000111151
-2.22424e-07
0.000110607
-6.20789e-06
0.000110823
-1.13569e-05
0.000111663
-1.51772e-05
0.000113044
-1.72338e-05
0.00011468
-1.76213e-05
0.000116132
-1.6977e-05
0.000116761
-1.63651e-05
0.000116742
-1.65513e-05
0.00011724
-1.7309e-05
0.000119873
-1.88294e-05
0.000116858
-6.39917e-06
5.95744e-05
-8.80137e-06
-1.36873e-05
-8.90634e-06
-2.19867e-05
-3.93117e-06
-3.97758e-06
-7.30341e-06
1.4105e-06
1.28858e-05
4.50007e-06
2.38102e-05
-4.98103e-06
3.92171e-06
-7.53772e-06
-2.35418e-05
1.28527e-05
8.64672e-06
1.40762e-05
0.000113166
1.44905e-05
0.000117075
1.45155e-05
0.000116273
1.45331e-05
0.00011625
1.42771e-05
0.000116573
1.32854e-05
0.000116432
1.12626e-05
0.000115784
8.16595e-06
0.000115175
4.29909e-06
0.000114771
1.19654e-09
0.000114672
-4.22957e-06
0.000114823
-8.04955e-06
0.000115266
-1.10488e-05
0.000115821
-1.30978e-05
0.000116536
-1.4239e-05
0.000117051
-1.48175e-05
0.000117102
-1.51893e-05
0.000116857
-1.59697e-05
0.000117346
-1.74051e-05
0.000120186
-1.92449e-05
0.000117083
-1.85265e-06
4.4041e-05
1.44498e-06
-1.74234e-05
-4.48191e-06
-1.74067e-05
-1.59812e-06
-6.61333e-06
-8.75249e-06
-3.36312e-07
1.26838e-05
7.69496e-07
2.13646e-05
-7.0348e-06
9.92019e-06
-1.14066e-05
-2.01792e-05
4.35902e-06
-5.19176e-06
1.1254e-05
0.000105113
1.22615e-05
0.000114801
1.26529e-05
0.000115333
1.25479e-05
0.00011608
1.19331e-05
0.000116929
1.0721e-05
0.000117365
8.8627e-06
0.000117376
6.38785e-06
0.00011737
3.4033e-06
0.000117498
2.23286e-07
0.000117596
-2.97332e-06
0.000117781
-5.88229e-06
0.000117929
-8.375e-06
0.000118079
-1.02871e-05
0.000118199
-1.1688e-05
0.000118214
-1.2776e-05
0.000117912
-1.36303e-05
0.000117433
-1.44451e-05
0.00011759
-1.54864e-05
0.000120108
-1.63335e-05
0.000116012
1.81465e-06
2.72518e-05
4.63477e-06
-2.04404e-05
1.16465e-06
-1.38591e-05
7.06899e-07
-6.41434e-06
-7.99777e-06
-2.10543e-06
1.40157e-05
-3.62007e-06
2.09362e-05
-6.9176e-06
1.2639e-05
-1.30108e-05
-1.5383e-05
-3.91064e-06
-1.29428e-05
1.13258e-05
9.1379e-05
1.20228e-05
0.000112926
1.19608e-05
0.00011487
1.14857e-05
0.000116252
1.0494e-05
0.000117583
9.20099e-06
0.000118351
7.42015e-06
0.000118842
5.30367e-06
0.000119193
2.9077e-06
0.000119605
4.03548e-07
0.000119846
-2.07561e-06
0.000120003
-4.43502e-06
0.000120035
-6.54896e-06
0.000119919
-8.29576e-06
0.000119681
-9.75983e-06
0.000119392
-1.0996e-05
0.000118834
-1.18951e-05
0.000118007
-1.25505e-05
0.000117736
-1.35603e-05
0.000119839
-1.22255e-05
0.000112756
5.31141e-06
1.08999e-05
6.71898e-06
-2.21296e-05
4.28157e-06
-1.13468e-05
2.16531e-06
-4.78447e-06
-5.91237e-06
-2.33893e-06
1.52335e-05
-5.34227e-06
2.10342e-05
-7.92971e-06
1.40743e-05
-1.5017e-05
-1.00837e-05
-1.09906e-05
-1.58308e-05
1.56e-05
6.98571e-05
1.35472e-05
0.000113514
1.23049e-05
0.000115631
1.12201e-05
0.000116981
9.83822e-06
0.0001186
8.27683e-06
0.000119548
6.5841e-06
0.000120199
4.63244e-06
0.000120815
2.65639e-06
0.000121292
5.79229e-07
0.000121647
-1.43019e-06
0.000121753
-3.42975e-06
0.000121751
-5.23118e-06
0.000121438
-6.91834e-06
0.000121057
-8.37688e-06
0.000120552
-9.69518e-06
0.000119794
-1.07371e-05
0.000118693
-1.15374e-05
0.000117979
-1.2078e-05
0.000119008
-7.42605e-06
0.000106323
7.97288e-06
-3.62241e-06
8.44051e-06
-2.28604e-05
6.06838e-06
-9.12045e-06
2.83223e-06
-2.48113e-06
-3.27665e-06
-5.116e-07
1.46661e-05
-5.1883e-06
2.16888e-05
-8.40379e-06
1.54959e-05
-1.6241e-05
-4.58941e-06
-1.37538e-05
-1.74901e-05
1.94554e-05
4.29648e-05
1.61538e-05
0.000115226
1.32705e-05
0.000118179
1.1289e-05
0.000118614
9.51551e-06
0.000119947
7.74206e-06
0.000120929
5.99404e-06
0.000121574
4.24986e-06
0.00012222
2.47819e-06
0.000122747
7.65978e-07
0.000123078
-9.83417e-07
0.000123215
-2.63189e-06
0.000123117
-4.2924e-06
0.000122777
-5.89057e-06
0.000122332
-7.42856e-06
0.000121739
-8.95284e-06
0.000120949
-1.04409e-05
0.000119763
-1.21055e-05
0.000119006
-1.37415e-05
0.000119227
-1.61755e-06
9.43915e-05
9.95896e-06
-1.4799e-05
9.68834e-06
-2.28528e-05
6.87709e-06
-6.70598e-06
2.85517e-06
1.62792e-07
-7.21952e-07
3.00921e-06
1.09449e-05
-3.30604e-06
2.23284e-05
-6.41196e-06
1.61798e-05
-1.42273e-05
1.54858e-07
-1.21712e-05
-1.94576e-05
1.88168e-05
1.72239e-05
1.70843e-05
0.000116187
1.36395e-05
0.000121185
1.11187e-05
0.000120729
9.14343e-06
0.000121501
7.2634e-06
0.000122364
5.53881e-06
0.000122915
3.92512e-06
0.000123466
2.36304e-06
0.00012399
8.68038e-07
0.000124267
-5.79761e-07
0.000124377
-2.03146e-06
0.000124258
-3.52069e-06
0.000123941
-5.0376e-06
0.000123489
-6.64235e-06
0.000122984
-8.43244e-06
0.000122324
-1.06347e-05
0.000121523
-1.38045e-05
0.000121421
-1.81021e-05
0.000121909
4.47546e-06
7.54408e-05
1.18826e-05
-2.17787e-05
1.08017e-05
-2.21002e-05
7.31041e-06
-3.86345e-06
2.66455e-06
3.03838e-06
1.552e-06
2.45383e-06
7.48009e-06
4.03672e-07
1.77548e-05
-2.21428e-06
1.55259e-05
-9.21643e-06
3.40273e-06
-9.15684e-06
-2.05267e-05
1.46788e-05
-3.09954e-06
1.68426e-05
0.000114282
1.31086e-05
0.000124388
1.0415e-05
0.000122962
8.42129e-06
0.000123027
6.63485e-06
0.000123685
5.02737e-06
0.000124093
3.58105e-06
0.000124545
2.22653e-06
0.000124996
9.56524e-07
0.000125233
-2.63887e-07
0.000125288
-1.49892e-06
0.000125181
-2.79562e-06
0.000124879
-4.15824e-06
0.000124487
-5.70369e-06
0.00012411
-7.49819e-06
0.000123701
-9.87436e-06
0.000123415
-1.34711e-05
0.000124158
-1.92475e-05
0.000125582
8.39959e-06
5.25318e-05
1.28609e-05
-2.55502e-05
1.13141e-05
-2.10654e-05
7.47927e-06
-9.74572e-07
2.1479e-06
6.06933e-06
3.19743e-06
1.63462e-07
6.56881e-06
3.7183e-06
9.89305e-06
3.3042e-06
1.31607e-05
-2.74444e-06
6.00965e-06
-5.72664e-06
-1.9555e-05
1.01146e-05
-1.6969e-05
1.34316e-05
0.000110885
1.09105e-05
0.00012621
8.89028e-06
0.000124444
7.30333e-06
0.000124153
5.7578e-06
0.000124721
4.41528e-06
0.000125002
3.1627e-06
0.000125391
2.05983e-06
0.000125759
1.00645e-06
0.000125955
8.3595e-09
0.000125974
-1.01136e-06
0.000125854
-2.0494e-06
0.000125559
-3.20607e-06
0.000125228
-4.46919e-06
0.000124944
-5.92845e-06
0.000124701
-7.75299e-06
0.000124804
-1.03811e-05
0.000125822
-1.37435e-05
0.000126742
9.55145e-06
3.24706e-05
1.22878e-05
-2.76216e-05
1.02595e-05
-1.9794e-05
6.62157e-06
1.3003e-06
1.21555e-06
8.57902e-06
3.85467e-06
-1.44614e-06
7.1031e-06
3.08506e-06
4.4706e-06
5.96231e-06
6.72519e-06
2.90496e-06
5.83654e-06
-2.71959e-06
-1.63576e-05
6.443e-06
-2.49351e-05
8.03937e-06
0.000108026
7.50884e-06
0.000125856
6.70478e-06
0.000124658
5.79114e-06
0.000124516
4.74486e-06
0.000125265
3.67903e-06
0.000125593
2.72683e-06
0.000125944
1.82818e-06
0.000126282
1.03303e-06
0.000126423
2.26849e-07
0.000126431
-5.32923e-07
0.000126267
-1.36025e-06
0.000125982
-2.17483e-06
0.000125628
-3.08788e-06
0.000125368
-3.9029e-06
0.000125062
-4.73899e-06
0.0001252
-5.87899e-06
0.000125919
-6.39905e-06
0.000125337
9.74708e-06
1.80083e-05
1.14243e-05
-2.87469e-05
8.94003e-06
-1.84104e-05
5.8976e-06
2.69539e-06
4.42277e-07
1.07447e-05
3.67015e-06
-2.53072e-07
7.21419e-06
8.11536e-07
2.27363e-06
4.88632e-06
6.15716e-07
5.59788e-06
8.77353e-07
-7.83618e-07
-1.3249e-05
2.78393e-06
-2.75539e-05
4.68176e-06
0.000104882
4.99824e-06
0.000124366
4.88105e-06
0.00012409
4.43104e-06
0.00012442
3.6971e-06
0.000125456
2.98973e-06
0.000125843
2.24885e-06
0.000126251
1.61753e-06
0.00012655
9.77438e-07
0.000126692
4.1723e-07
0.000126642
-1.72639e-07
0.000126467
-7.07071e-07
0.000126115
-1.27072e-06
0.000125722
-1.72684e-06
0.000125333
-1.97085e-06
0.000124796
-1.86223e-06
0.000124643
-2.13849e-06
0.000125019
-6.99732e-07
0.000122417
9.64456e-06
8.83179e-06
1.01405e-05
-2.87129e-05
7.00574e-06
-1.66622e-05
5.33501e-06
2.69599e-06
5.31848e-07
1.19546e-05
3.31238e-06
7.12441e-07
6.48034e-06
1.74177e-06
8.00365e-07
3.82163e-06
-2.87178e-06
6.01898e-06
-4.56076e-06
8.23068e-07
-1.24701e-05
3.13525e-07
-2.62824e-05
4.28651e-06
0.000101009
3.37792e-06
0.000123702
3.48348e-06
0.000123309
3.18416e-06
0.00012408
2.83801e-06
0.000125298
2.31855e-06
0.000125873
1.85048e-06
0.000126305
1.3557e-06
0.000126637
9.34414e-07
0.000126745
4.899e-07
0.000126692
1.20188e-07
0.000126442
-2.64582e-07
0.000126042
-5.1896e-07
0.000125511
-7.10182e-07
0.000124968
-4.42997e-07
0.000124036
1.4248e-09
0.000123616
4.61436e-07
0.000123358
2.30368e-06
0.000119238
9.45597e-06
2.73216e-06
8.83418e-06
-2.76082e-05
4.81603e-06
-1.43066e-05
4.4566e-06
1.68754e-06
1.75245e-06
1.15377e-05
3.74828e-06
1.4386e-06
4.99076e-06
3.08325e-06
-9.66358e-07
4.26247e-06
-5.02404e-06
5.60231e-06
-7.80105e-06
1.91524e-06
-1.32645e-05
-3.78047e-07
-2.24882e-05
3.22444e-06
9.81926e-05
2.09987e-06
0.000122974
2.21714e-06
0.000122452
2.24859e-06
0.000123453
2.05724e-06
0.000124949
1.81035e-06
0.000125649
1.46287e-06
0.000126195
1.15608e-06
0.000126534
8.06506e-07
0.000126672
5.28493e-07
0.000126566
2.14709e-07
0.0001263
1.87189e-08
0.000125778
-1.38162e-07
0.000125133
-1.51836e-08
0.000124299
3.94011e-07
0.000123055
1.20767e-06
0.00012216
1.58603e-06
0.000121612
3.65719e-06
0.000115977
9.30754e-06
-1.72306e-06
7.71757e-06
-2.55661e-05
3.42646e-06
-1.17411e-05
2.92744e-06
7.85249e-07
3.03575e-06
8.80148e-06
5.03699e-06
1.97903e-06
2.45667e-06
4.19062e-06
-3.7871e-06
5.7627e-06
-7.52235e-06
6.34219e-06
-1.00471e-05
3.6403e-06
-1.38947e-05
-1.11338e-06
-1.60739e-05
-6.96108e-07
9.78076e-05
7.21544e-08
0.000120231
1.04916e-06
0.000120665
1.374e-06
0.000122531
1.54271e-06
0.000124265
1.41788e-06
0.000125244
1.23887e-06
0.000125912
9.51138e-07
0.000126351
7.04885e-07
0.000126478
4.09835e-07
0.000126388
2.04647e-07
0.000126034
1.11258e-08
0.00012544
-1.67615e-08
0.000124609
1.17331e-07
0.000123551
6.99656e-07
0.000121867
1.43787e-06
0.000120624
2.06381e-06
0.000119574
4.34672e-06
0.000112527
9.23135e-06
-5.16112e-06
6.75605e-06
-2.28673e-05
3.15715e-06
-9.92854e-06
2.23383e-06
-1.69241e-07
2.56063e-06
5.15019e-06
5.75954e-06
2.54975e-06
-8.39916e-07
5.48048e-06
-7.31838e-06
7.50667e-06
-1.05197e-05
7.80929e-06
-1.22407e-05
5.23611e-06
-1.42833e-05
-2.80396e-06
-6.21675e-06
-5.04449e-06
9.86422e-05
-1.78776e-06
0.000115053
9.05325e-08
0.000117723
1.00176e-06
0.000121044
1.35435e-06
0.000123344
1.35726e-06
0.000124699
1.13018e-06
0.0001256
8.71034e-07
0.000126118
5.28853e-07
0.000126302
2.4929e-07
0.000126165
-5.155e-08
0.000125787
-2.03061e-07
0.000125044
-3.33482e-07
0.0001241
-1.23705e-07
0.000122721
2.33109e-07
0.000120754
1.06158e-06
0.000118928
1.69741e-06
0.000117412
4.81117e-06
0.000108426
9.06206e-06
-7.73933e-06
6.08479e-06
-1.99623e-05
3.19937e-06
-8.93203e-06
1.79287e-06
-1.47568e-06
1.2458e-06
2.42166e-06
5.4875e-06
3.28169e-06
-5.01296e-06
7.08822e-06
-1.15978e-05
9.35406e-06
-1.38358e-05
9.19153e-06
-1.45274e-05
6.82447e-06
-1.50138e-05
-2.77017e-06
5.00797e-06
-2.90855e-06
9.77777e-05
-3.23521e-07
0.000110522
8.93709e-07
0.000115332
1.6847e-06
0.000119616
1.85725e-06
0.000122582
1.62619e-06
0.000124289
1.27177e-06
0.000125393
8.19088e-07
0.000125989
3.99226e-07
0.000126177
-6.24954e-08
0.000126036
-4.15926e-07
0.000125563
-7.54525e-07
0.000124744
-9.28573e-07
0.000123605
-9.04541e-07
0.000121987
-8.06602e-07
0.000119812
-3.32637e-07
0.000117406
7.61001e-07
0.000114813
5.16607e-06
0.000103649
8.5643e-06
-9.26282e-06
5.48776e-06
-1.72327e-05
2.72529e-06
-8.3991e-06
9.18002e-07
-2.88858e-06
4.02112e-07
7.92541e-07
5.0893e-06
4.9141e-06
-9.97117e-06
9.20488e-06
-1.4571e-05
1.09549e-05
-1.59858e-05
9.82317e-06
-1.62185e-05
8.33509e-06
-1.61131e-05
1.20263e-06
1.39661e-05
3.30373e-06
9.53146e-05
3.98832e-06
0.000108039
3.57412e-06
0.000114395
3.50876e-06
0.000118985
2.96194e-06
0.000122409
2.30396e-06
0.000124267
1.56314e-06
0.000125464
8.88859e-07
0.000126048
1.93595e-07
0.000126218
-4.15765e-07
0.000126026
-1.01327e-06
0.000125474
-1.48981e-06
0.000124546
-1.9307e-06