/*--------------------------------*- C++ -*----------------------------------*\
| =========                 |                                                 |
| \\      /  F ield         | OpenFOAM: The Open Source CFD Toolbox           |
|  \\    /   O peration     | Version:  2.3.0                                 |
|   \\  /    A nd           | Web:      www.OpenFOAM.org                      |
|    \\/     M anipulation  |                                                 |
\*---------------------------------------------------------------------------*/
FoamFile
{
    version     2.0;
    format      ascii;
    class       surfaceScalarField;
    location    "0.62";
    object      phi.particles;
}
// * * * * * * * * * * * * * * * * * * * * * * * * * * * * * * * * * * * * * //

dimensions      [0 3 -1 0 0 0 0];

internalField   nonuniform List<scalar> 
11770
(
-5.784e-06
-1.08905e-05
-7.73323e-06
-1.13085e-05
-8.19344e-06
-9.05845e-06
-7.72377e-06
-7.13699e-06
-6.35028e-06
-8.75906e-06
-4.3259e-06
-1.08712e-05
-2.22393e-06
-9.23747e-06
-2.23964e-06
-9.21864e-06
-3.79091e-06
-1.55651e-05
-4.61321e-06
-1.6517e-05
-3.97187e-06
-1.301e-05
-2.87478e-06
-1.08802e-05
-7.48842e-07
-1.01215e-05
2.42273e-06
-1.01054e-05
5.31578e-06
-9.92399e-06
5.86301e-06
-8.08401e-06
4.21916e-06
-9.19048e-06
1.20665e-06
-1.47487e-05
-3.67669e-06
-1.75061e-05
-7.38269e-06
-1.26165e-05
-7.61419e-06
-8.21638e-06
-4.85217e-06
-8.374e-06
-2.64937e-06
-9.2702e-06
-1.4629e-06
-8.92337e-06
-5.12376e-07
-9.38737e-06
3.28696e-07
-1.18225e-05
1.38056e-06
-1.43679e-05
3.28664e-06
-1.48216e-05
4.36152e-06
-1.47019e-05
-1.23952e-05
-2.78686e-06
5.01183e-06
-3.94505e-06
5.1725e-06
-5.61695e-06
6.62671e-06
-7.08091e-06
7.2744e-06
-5.69184e-06
4.19142e-06
-2.25392e-06
1.79629e-06
-4.92884e-08
1.37949e-06
3.22741e-07
7.38634e-06
-1.95723e-06
3.86757e-06
-5.16849e-06
3.66822e-06
-6.0503e-06
6.50743e-06
-4.73492e-06
4.98989e-06
-1.5842e-06
8.38734e-07
3.02393e-06
-4.16009e-06
7.35503e-06
-3.56459e-06
8.51589e-06
4.27268e-06
5.51896e-06
9.08798e-06
-9.88134e-08
4.07313e-06
-6.53752e-06
-1.68786e-06
-1.00302e-05
2.08002e-06
-9.61214e-06
2.57969e-06
-7.20142e-06
-9.30657e-07
-4.52255e-06
8.17787e-07
-4.30733e-06
3.05705e-06
-5.55775e-06
2.8768e-06
-5.70956e-06
-1.21168e-06
-3.56666e-06
-6.12026e-06
-5.20926e-07
-8.73491e-06
1.50614e-06
-8.72113e-06
-4.81273e-06
-4.37163e-06
-4.79969e-06
-6.02118e-06
-9.16523e-06
-6.96016e-06
-6.94776e-06
-7.55891e-06
-4.24357e-06
-5.88885e-06
-6.06018e-06
-2.04521e-06
-8.36481e-06
2.28489e-07
-6.61604e-06
2.15895e-07
-2.15981e-06
-2.69831e-06
-2.19654e-06
-5.48181e-06
-3.40303e-06
-5.51062e-06
-3.43608e-06
-3.9763e-06
-5.61483e-06
-1.00766e-06
-1.24457e-05
2.28147e-06
-1.81263e-05
4.29873e-06
-1.7444e-05
3.93804e-06
-9.63595e-06
1.34774e-06
-7.44563e-06
-2.52771e-06
-1.05871e-05
-6.57555e-06
-1.28448e-05
-9.58385e-06
-1.17604e-05
-1.03008e-05
-1.35656e-05
-9.52208e-06
-1.33077e-05
-7.78272e-06
-1.32554e-05
-6.87585e-06
-1.33358e-05
-6.0056e-06
-1.53412e-05
-4.2565e-06
-1.8584e-05
-2.18463e-06
-2.14173e-05
-6.79659e-07
-2.32845e-05
-8.27448e-08
-2.38324e-05
-1.98018e-05
-1.02621e-06
-1.91642e-05
-4.14104e-06
-2.03704e-05
-5.8841e-06
-1.77272e-05
-5.58439e-06
-1.40783e-05
-3.64609e-06
-1.37301e-05
-1.58747e-06
-1.47227e-05
-8.33964e-07
-1.20571e-05
-1.16221e-06
-1.03307e-05
-3.02084e-06
-1.15647e-05
-4.76485e-06
-1.23786e-05
-5.69397e-06
-1.25894e-05
-4.39478e-06
-1.75456e-05
-2.78988e-06
-2.51331e-05
-3.10081e-06
-2.91478e-05
-4.00598e-06
-2.87013e-05
-5.16966e-06
-2.19701e-05
-6.01806e-06
-2.11831e-05
-5.53143e-06
-2.49957e-05
-4.77644e-06
-2.60496e-05
-4.36687e-06
-2.55395e-05
-6.72824e-06
-2.44527e-05
-9.30317e-06
-2.19225e-05
-9.80276e-06
-2.19165e-05
-8.84356e-06
-2.29505e-05
-6.73967e-06
-2.46899e-05
-5.07869e-06
-2.60289e-05
-4.19993e-06
-2.76404e-05
-3.68112e-06
-2.94915e-05
-3.89509e-06
-2.97203e-05
-2.84608e-05
1.91016e-06
-2.35483e-05
8.58008e-08
-2.29671e-05
-1.42761e-06
-2.2833e-05
-2.53891e-06
-2.0801e-05
-2.9995e-06
-2.01913e-05
-3.43405e-06
-2.09895e-05
-4.31476e-06
-1.97023e-05
-5.4152e-06
-1.99352e-05
-6.7982e-06
-2.04769e-05
-8.82141e-06
-2.09913e-05
-9.41066e-06
-2.34545e-05
-7.48854e-06
-3.12088e-05
-6.25701e-06
-3.58939e-05
-6.03451e-06
-3.65685e-05
-5.56562e-06
-3.41453e-05
-5.61956e-06
-2.84123e-05
-6.07802e-06
-2.46845e-05
-5.28657e-06
-2.71967e-05
-3.53235e-06
-2.88485e-05
-1.67557e-06
-2.93172e-05
-1.98246e-06
-2.89647e-05
-5.25183e-06
-2.64938e-05
-8.02421e-06
-2.4815e-05
-7.67411e-06
-2.46983e-05
-6.65993e-06
-2.48169e-05
-6.68327e-06
-2.54443e-05
-6.17377e-06
-2.69739e-05
-4.70817e-06
-2.85647e-05
-3.99368e-06
-2.81439e-05
-2.77954e-05
2.48405e-06
-2.02696e-05
2.74546e-06
-1.98864e-05
3.38703e-06
-2.12664e-05
1.6142e-06
-2.01743e-05
-2.83939e-06
-2.00147e-05
-6.7166e-06
-2.2184e-05
-9.06952e-06
-2.31789e-05
-1.12197e-05
-2.2403e-05
-1.25303e-05
-2.23488e-05
-1.28609e-05
-2.33689e-05
-1.08564e-05
-2.80679e-05
-8.88007e-06
-3.45461e-05
-7.45496e-06
-3.60242e-05
-5.85363e-06
-3.47015e-05
-4.59718e-06
-3.19383e-05
-2.55566e-06
-2.90408e-05
-1.73373e-06
-2.36592e-05
-1.82472e-06
-2.40372e-05
-1.06465e-06
-2.61322e-05
-6.80675e-08
-2.70452e-05
-6.07515e-07
-2.65485e-05
-3.20518e-06
-2.36746e-05
-5.17348e-06
-2.17269e-05
-5.69019e-06
-2.08252e-05
-6.72865e-06
-2.04038e-05
-7.72605e-06
-2.15281e-05
-6.23093e-06
-2.35023e-05
-4.07758e-06
-2.49539e-05
-3.22256e-06
-2.41294e-05
-2.37021e-05
3.27381e-06
-1.57556e-05
4.2419e-06
-1.64752e-05
5.31529e-06
-1.82958e-05
5.84156e-06
-1.74878e-05
7.11148e-07
-1.59279e-05
-7.32303e-06
-1.80524e-05
-1.18397e-05
-1.99106e-05
-1.3971e-05
-1.9043e-05
-1.48595e-05
-1.98228e-05
-1.3977e-05
-2.10942e-05
-1.18174e-05
-2.65386e-05
-1.02801e-05
-3.19112e-05
-7.26097e-06
-3.25994e-05
-4.44932e-06
-3.06036e-05
-3.63771e-06
-2.73445e-05
-1.8085e-06
-2.59688e-05
1.94431e-07
-2.28678e-05
8.18251e-07
-2.1703e-05
9.38077e-07
-2.28621e-05
3.42944e-07
-2.34194e-05
-1.63066e-06
-2.20095e-05
-3.59614e-06
-1.88299e-05
-4.61042e-06
-1.71922e-05
-5.76708e-06
-1.55456e-05
-7.59398e-06
-1.56875e-05
-7.98282e-06
-1.7414e-05
-6.93714e-06
-1.9532e-05
-5.93345e-06
-2.08423e-05
-4.30341e-06
-2.02591e-05
-1.90108e-05
4.0232e-06
-1.10607e-05
5.87775e-06
-1.28931e-05
7.44732e-06
-1.49956e-05
7.92541e-06
-1.44906e-05
5.70354e-06
-1.17665e-05
-2.27523e-06
-1.18215e-05
-9.93602e-06
-1.44191e-05
-1.29899e-05
-1.35708e-05
-1.45058e-05
-1.49972e-05
-1.43268e-05
-1.65316e-05
-1.23453e-05
-2.36244e-05
-9.96637e-06
-2.89257e-05
-6.951e-06
-2.95247e-05
-4.67873e-06
-2.69937e-05
-4.10008e-06
-2.27446e-05
-3.05545e-06
-2.06776e-05
-1.0003e-06
-1.94868e-05
-1.85786e-07
-1.88001e-05
-4.98877e-07
-1.95786e-05
-9.32391e-07
-1.99025e-05
-1.41959e-06
-1.79466e-05
-1.86417e-06
-1.44845e-05
-3.9493e-06
-1.17102e-05
-6.9663e-06
-1.10048e-05
-8.33129e-06
-1.14287e-05
-7.92651e-06
-1.32056e-05
-7.37798e-06
-1.52282e-05
-6.69854e-06
-1.62624e-05
-4.36995e-06
-1.58204e-05
-1.39608e-05
4.86788e-06
-6.76785e-06
7.62532e-06
-9.53236e-06
9.44274e-06
-1.16007e-05
1.01988e-05
-1.07975e-05
8.9978e-06
-7.92376e-06
1.88487e-06
-5.56525e-06
-7.35679e-06
-8.40544e-06
-1.2165e-05
-7.83515e-06
-1.48797e-05
-9.35834e-06
-1.56585e-05
-1.21852e-05
-1.37242e-05
-2.1147e-05
-1.12011e-05
-2.52813e-05
-8.25455e-06
-2.5306e-05
-6.06759e-06
-2.22366e-05
-5.18581e-06
-1.70605e-05
-4.63503e-06
-1.55348e-05
-3.5784e-06
-1.49488e-05
-2.62508e-06
-1.54838e-05
-1.8461e-06
-1.68837e-05
-7.10865e-07
-1.68862e-05
7.43683e-08
-1.34409e-05
-2.59848e-06
-8.89047e-06
-7.3503e-06
-6.41522e-06
-8.5826e-06
-6.97351e-06
-7.38288e-06
-7.50012e-06
-7.51562e-06
-8.8755e-06
-8.30554e-06
-1.066e-05
-7.89772e-06
-1.15065e-05
-5.25045e-06
-1.10889e-05
-9.12916e-06
5.74642e-06
-3.0467e-06
9.38467e-06
-6.12903e-06
1.1628e-05
-8.07885e-06
1.2379e-05
-6.94544e-06
1.09351e-05
-3.82148e-06
5.87331e-06
-3.19117e-07
-4.22658e-06
-5.26385e-07
-1.21662e-05
-2.06954e-06
-1.53352e-05
-2.9604e-06
-1.66657e-05
-8.62495e-06
-1.4832e-05
-1.78894e-05
-1.28489e-05
-2.10703e-05
-1.1036e-05
-2.09456e-05
-9.2821e-06
-1.80656e-05
-8.08715e-06
-1.1919e-05
-6.8427e-06
-1.06436e-05
-5.11926e-06
-1.18735e-05
-3.28858e-06
-1.34595e-05
-1.21368e-06
-1.49452e-05
1.06948e-06
-1.30721e-05
-8.02334e-07
-7.25717e-06
-6.6737e-06
-2.93748e-06
-8.09809e-06
-2.56786e-06
-6.3723e-06
-2.52885e-06
-5.95905e-06
-3.04436e-06
-7.01249e-06
-4.31486e-06
-8.47253e-06
-5.85515e-06
-8.42404e-06
-6.4516e-06
-5.7739e-06
-6.01716e-06
-4.59841e-06
6.5751e-06
1.87501e-07
1.09159e-05
-2.64213e-06
1.37186e-05
-4.26125e-06
1.46565e-05
-2.95059e-06
1.35594e-05
3.60228e-07
9.397e-06
4.35697e-06
-1.35162e-06
7.3381e-06
-1.16054e-05
4.40542e-06
-1.54074e-05
4.22177e-06
-1.75487e-05
-3.18907e-06
-1.69266e-05
-1.36921e-05
-1.59182e-05
-1.75293e-05
-1.4869e-05
-1.77457e-05
-1.2858e-05
-1.52896e-05
-1.02641e-05
-9.04718e-06
-7.92539e-06
-7.21098e-06
-5.23278e-06
-9.8751e-06
-2.52237e-06
-1.14301e-05
8.87331e-07
-1.18079e-05
1.80369e-06
-6.58722e-06
-3.66306e-06
-7.19329e-07
-6.79546e-06
7.72059e-07
-4.94554e-06
9.47748e-07
-3.86027e-06
1.48941e-06
-4.18427e-06
1.28729e-06
-5.78405e-06
3.85169e-07
-7.63324e-06
-9.11383e-07
-7.91887e-06
-1.54099e-06
-5.6322e-06
-1.13648e-06
-3.26543e-07
7.22979e-06
3.13693e-06
1.21195e-05
7.99385e-07
1.53952e-05
-3.75488e-07
1.68095e-05
9.96074e-07
1.5936e-05
4.36201e-06
1.22445e-05
9.13689e-06
4.93378e-06
1.34943e-05
-6.50308e-06
1.33809e-05
-1.36695e-05
1.35522e-05
-1.64267e-05
3.38588e-06
-1.80897e-05
-8.99171e-06
-1.83492e-05
-1.43991e-05
-1.82784e-05
-1.54593e-05
-1.64313e-05
-1.3731e-05
-1.22888e-05
-8.32573e-06
-8.28486e-06
-5.23629e-06
-5.24245e-06
-7.69406e-06
-1.24552e-06
-8.96327e-06
2.81224e-06
-5.73445e-06
7.61765e-08
3.39099e-07
-3.09359e-06
2.69186e-06
-1.02348e-06
3.02826e-06
4.8253e-08
3.7126e-06
-3.00477e-07
4.04605e-06
-1.41314e-06
4.14342e-06
-3.30819e-06
3.8433e-06
-5.42345e-06
3.09519e-06
-6.27388e-06
2.52788e-06
-4.68532e-06
2.79103e-06
3.12319e-06
7.61731e-06
5.85409e-06
1.28356e-05
3.87745e-06
1.65751e-05
3.04742e-06
1.84408e-05
4.63314e-06
1.82022e-05
8.24337e-06
1.57404e-05
1.34325e-05
1.1263e-05
1.8908e-05
-1.95499e-06
2.29564e-05
-1.40552e-05
2.25391e-05
-1.64062e-05
1.26847e-05
-1.92985e-05
-3.42554e-06
-2.09964e-05
-1.13808e-05
-2.12724e-05
-1.39166e-05
-1.92454e-05
-1.28209e-05
-1.43678e-05
-7.92308e-06
-1.0042e-05
-3.52468e-06
-5.37534e-06
-5.52259e-06
9.07387e-07
-5.68107e-06
2.05576e-06
7.42758e-08
4.15256e-07
3.30143e-06
1.73822e-06
3.79306e-06
2.40706e-06
4.19044e-06
1.94735e-06
4.98211e-06
1.34071e-06
5.44134e-06
5.41342e-07
5.59238e-06
-5.81074e-07
5.45774e-06
-2.06477e-06
5.09552e-06
-3.38642e-06
4.70151e-06
-3.17024e-06
4.77116e-06
5.06621e-06
7.67459e-06
7.6464e-06
1.30907e-05
6.03479e-06
1.71405e-05
5.65847e-06
1.93384e-05
7.6532e-06
1.99408e-05
1.17976e-05
1.80339e-05
1.73092e-05
1.43026e-05
2.3858e-05
8.40478e-06
2.87508e-05
-5.98715e-06
3.03422e-05
-1.54471e-05
2.38618e-05
-2.05496e-05
3.57622e-06
-2.35779e-05
-7.74997e-06
-2.36173e-05
-1.21051e-05
-2.1043e-05
-1.13894e-05
-1.59369e-05
-6.54019e-06
-1.08623e-05
-1.00176e-06
-3.1662e-06
-4.01763e-06
2.75471e-06
-1.99592e-06
2.79655e-06
2.32932e-06
3.07246e-06
3.65225e-06
3.3848e-06
4.06876e-06
3.08704e-06
5.29554e-06
2.62206e-06
6.08821e-06
2.02304e-06
6.51932e-06
1.33871e-06
6.64385e-06
5.68889e-07
6.49451e-06
-2.69842e-07
6.12965e-06
-1.06438e-06
5.68029e-06
-1.61261e-06
5.34144e-06
4.85926e-06
7.52297e-06
8.12096e-06
1.29534e-05
6.99879e-06
1.7079e-05
7.24619e-06
1.96143e-05
9.86146e-06
2.08612e-05
1.4569e-05
2.01395e-05
2.05257e-05
1.79561e-05
2.70469e-05
1.49042e-05
3.21681e-05
-2.81846e-07
3.89676e-05
-1.50975e-05
3.36864e-05
-2.23466e-05
1.09041e-05
-2.57854e-05
-3.81065e-06
-2.52028e-05
-1.0011e-05
-2.14631e-05
-9.29292e-06
-1.53937e-05
-3.91432e-06
-8.23911e-06
5.60453e-07
1.17912e-07
-2.16759e-06
3.43819e-06
3.38875e-07
4.04809e-06
2.64106e-06
4.14203e-06
3.26472e-06
4.07177e-06
5.01814e-06
3.60094e-06
6.26066e-06
2.92403e-06
7.0489e-06
2.1748e-06
7.47718e-06
1.45007e-06
7.54334e-06
7.91674e-07
7.27868e-06
2.23904e-07
6.7653e-06
-2.44369e-07
6.14683e-06
-5.96914e-07
5.48767e-06
3.94006e-06
7.24722e-06
7.36469e-06
1.24773e-05
6.87264e-06
1.657e-05
7.77984e-06
1.94728e-05
1.1038e-05
2.11653e-05
1.62168e-05
2.12566e-05
2.24948e-05
2.00955e-05
2.90452e-05
1.74187e-05
3.5112e-05
3.82131e-06
4.59312e-05
-1.27413e-05
4.80363e-05
-2.23685e-05
2.03357e-05
-2.68715e-05
9.49852e-08
-2.61362e-05
-7.90746e-06
-2.01353e-05
-6.81351e-06
-1.26529e-05
2.18271e-07
-5.19064e-06
1.64502e-06
1.7233e-06
-2.15372e-07
4.78178e-06
7.15778e-07
4.78629e-06
1.63204e-06
5.09048e-06
3.92378e-06
4.72699e-06
5.72197e-06
3.92656e-06
7.00899e-06
2.94552e-06
7.93183e-06
1.96793e-06
8.40082e-06
1.13452e-06
8.39277e-06
5.13526e-07
7.91336e-06
1.27244e-07
7.15309e-06
-7.8964e-08
6.29712e-06
-1.89608e-07
5.35786e-06
3.332e-06
6.8435e-06
5.85017e-06
1.18482e-05
5.90143e-06
1.5946e-05
7.33403e-06
1.89446e-05
1.11987e-05
2.05894e-05
1.67813e-05
2.09342e-05
2.33535e-05
2.02071e-05
3.03289e-05
1.80286e-05
3.77559e-05
7.86362e-06
5.06106e-05
-4.98144e-06
6.2178e-05
-1.42112e-05
3.973e-05
-2.24691e-05
7.65866e-06
-2.54946e-05
-5.73064e-06
-2.0057e-05
-4.47492e-06
-1.02818e-05
3.65628e-06
-2.33603e-06
3.21611e-06
4.05441e-06
-4.1526e-07
4.96273e-06
-6.25072e-07
6.01674e-06
1.64027e-06
5.95197e-06
3.98786e-06
5.24917e-06
5.88916e-06
4.1987e-06
7.53126e-06
2.8254e-06
8.45768e-06
1.50967e-06
9.03594e-06
4.90648e-07
8.99794e-06
-1.02839e-07
8.33902e-06
-3.20692e-07
7.32051e-06
-2.71484e-07
6.18802e-06
-1.35611e-07
5.02857e-06
2.88172e-06
6.46632e-06
4.09844e-06
1.12274e-05
4.34445e-06
1.49217e-05
6.40046e-06
1.72325e-05
1.09324e-05
1.84409e-05
1.69383e-05
1.882e-05
2.37504e-05
1.8232e-05
3.13303e-05
1.60815e-05
4.03101e-05
1.1026e-05
5.34604e-05
7.87629e-06
6.80382e-05
-7.78598e-08
5.8099e-05
-1.43232e-05
2.52394e-05
-2.30394e-05
-4.64173e-06
-1.94829e-05
-4.39857e-06
-7.79476e-06
3.9355e-06
7.15873e-07
1.72996e-06
4.30728e-06
-2.24962e-06
6.09185e-06
-1.17143e-06
6.79949e-06
1.2142e-06
6.57724e-06
3.44186e-06
5.92921e-06
5.81633e-06
4.52628e-06
7.91866e-06
2.60988e-06
9.6788e-06
7.44009e-07
1.04292e-05
-3.78012e-07
9.57536e-06
-9.29807e-07
8.37769e-06
-1.01239e-06
7.10649e-06
-6.774e-07
5.8261e-06
-2.74901e-07
4.48084e-06
2.39616e-06
6.1275e-06
2.29337e-06
1.00473e-05
2.7601e-06
1.26445e-05
5.73403e-06
1.40214e-05
1.08762e-05
1.46846e-05
1.71962e-05
1.49291e-05
2.41397e-05
1.42997e-05
3.21795e-05
1.22058e-05
4.26433e-05
1.089e-05
5.44372e-05
1.34375e-05
6.64154e-05
1.29645e-05
6.25214e-05
-3.07683e-06
4.10123e-05
-1.93119e-05
-5.24203e-06
-1.74698e-05
-7.31849e-06
-4.81986e-06
3.93301e-07
2.54057e-06
-1.53487e-06
5.19723e-06
-3.30298e-06
6.73049e-06
-2.05141e-06
7.23351e-06
-3.23312e-08
7.37044e-06
2.43028e-06
7.18314e-06
5.34533e-06
6.22989e-06
8.56573e-06
1.98333e-06
4.97174e-06
-1.5094e-06
1.04543e-05
-2.03245e-06
9.58504e-06
-1.97387e-06
8.12079e-06
-1.79446e-06
6.4434e-06
-1.21421e-06
5.145e-06
-4.97668e-07
3.7222e-06
1.81927e-06
5.319e-06
6.35854e-07
8.10697e-06
1.63149e-06
9.73052e-06
5.2128e-06
1.03938e-05
1.07067e-05
1.02301e-05
1.70398e-05
9.8468e-06
2.40868e-05
8.51858e-06
3.24473e-05
6.95365e-06
4.37182e-05
7.74334e-06
5.32912e-05
1.35981e-05
5.96459e-05
1.6835e-05
5.73688e-05
3.18436e-06
4.21223e-05
-1.30039e-05
-5.78524e-06
-1.25599e-05
-1.16327e-05
-2.25957e-06
-4.50116e-06
3.39617e-06
-3.92242e-06
5.62807e-06
-4.53219e-06
6.96973e-06
-3.49858e-06
7.58348e-06
-1.863e-06
7.92014e-06
6.13922e-07
8.96782e-06
4.17196e-06
5.71504e-06
-6.64203e-06
-2.06309e-06
-1.85922e-05
-6.28624e-06
-7.97501e-06
-4.06768e-06
3.92728e-06
-3.23783e-06
6.63415e-06
-2.48848e-06
5.4922e-06
-1.77254e-06
4.17611e-06
-7.35784e-07
2.81766e-06
1.19426e-06
4.05442e-06
-5.05766e-07
6.15421e-06
4.07535e-07
7.23005e-06
3.82595e-06
7.00724e-06
9.02315e-06
5.93979e-06
1.50505e-05
3.65087e-06
2.40579e-05
1.32324e-06
2.80875e-05
2.24742e-06
3.945e-05
6.27322e-06
4.7853e-05
1.3789e-05
4.90779e-05
1.62823e-05
3.62084e-05
8.71286e-06
2.70465e-05
-1.35072e-06
-6.01518e-06
-6.07547e-06
-1.42807e-05
-5.15256e-07
-9.29129e-06
3.93214e-06
-5.93099e-06
6.02308e-06
-6.09632e-06
7.20217e-06
-5.64007e-06
7.46746e-06
-4.69506e-06
8.58484e-06
-2.1227e-06
5.50956e-06
-7.63559e-06
-1.5257e-06
-3.112e-05
-2.93916e-06
-3.77737e-05
-5.63268e-06
-3.39393e-05
-7.95722e-06
-2.52059e-05
-4.7654e-06
1.6121e-07
-3.21395e-06
4.22711e-06
-2.24297e-06
3.05643e-06
-9.73733e-07
1.79103e-06
5.73124e-07
2.99026e-06
-1.40186e-06
4.77767e-06
-1.52623e-06
5.16562e-06
3.34324e-07
5.00444e-06
5.13103e-06
4.32246e-06
-3.70394e-07
-1.81491e-07
-9.43664e-06
-1.77703e-06
-7.68358e-06
8.07991e-07
5.7667e-06
7.47832e-06
1.50377e-05
1.32673e-05
1.36948e-05
1.20252e-05
-8.21703e-07
1.14467e-05
2.59112e-06
8.34292e-06
-1.04782e-05
-1.9281e-07
-1.90223e-05
5.30877e-07
-1.34947e-05
4.47264e-06
-8.05883e-06
6.7463e-06
-7.97873e-06
7.80591e-06
-8.30353e-06
8.33428e-06
-8.16872e-06
9.19829e-06
-7.38786e-06
8.29164e-07
-2.44252e-05
-4.12123e-06
-3.77629e-05
3.36749e-07
-3.94439e-05
1.04082e-06
-4.31267e-05
-6.07324e-06
-5.22105e-05
-8.50932e-06
-2.74477e-05
-4.50624e-06
-1.18111e-06
-2.64128e-06
1.92928e-06
-1.1833e-06
4.28562e-07
-1.65015e-07
2.54686e-06
-2.87074e-06
4.05179e-06
-4.26149e-06
4.44861e-06
-5.55652e-06
7.27829e-06
-7.58453e-06
6.00915e-06
-3.14451e-05
6.38682e-06
-3.8596e-05
6.84645e-06
-3.80483e-05
7.9518e-06
-3.21437e-05
1.03014e-05
-2.72791e-05
1.10762e-05
-2.62992e-05
1.05856e-05
-2.63947e-05
1.45263e-05
-1.79603e-05
1.9871e-05
-1.93894e-05
9.51886e-06
-2.3963e-05
1.3847e-06
-2.01338e-05
5.36067e-06
-1.0615e-05
8.01499e-06
-1.01324e-05
9.43021e-06
-1.11359e-05
1.40167e-05
-1.13016e-05
6.51249e-06
-1.54487e-05
-2.1139e-06
-2.77879e-05
-3.34776e-06
-3.31527e-05
3.70135e-07
-3.76896e-05
3.58017e-07
-4.4106e-05
-2.01246e-06
-5.37581e-05
-5.77114e-06
-4.95238e-05
-7.78035e-06
-2.4349e-05
-3.47966e-06
-2.54133e-06
-1.25171e-06
-2.0178e-06
-1.24403e-06
3.20373e-06
-4.67328e-06
5.6738e-06
-7.81575e-06
1.05568e-05
-1.13606e-05
5.01775e-06
-3.29095e-05
4.44695e-06
-4.24294e-05
7.06938e-06
-3.89504e-05
9.03801e-06
-3.95537e-05
1.13296e-05
-4.03609e-05
1.29807e-05
-3.99451e-05
1.35843e-05
-3.81736e-05
1.40298e-05
-3.41892e-05
1.80668e-05
-2.99315e-05
2.30863e-05
-2.87321e-05
2.17041e-05
-2.73729e-05
1.26201e-05
-2.71836e-05
6.36263e-06
-1.47433e-05
9.09726e-06
-1.22581e-05
1.13287e-05
-1.41035e-05
1.62572e-05
-1.53713e-05
7.45356e-06
-2.0238e-05
-2.30176e-06
-2.42725e-05
-3.65818e-06
-2.44533e-05
-1.81738e-06
-3.21637e-05
-1.74694e-06
-4.38512e-05
-7.77615e-07
-5.06336e-05
-4.48099e-07
-4.74682e-05
-4.72479e-06
-4.36244e-05
-5.72066e-06
-1.74446e-05
-1.4694e-06
-7.54597e-06
-3.11816e-06
3.71347e-06
-9.50536e-06
7.99981e-06
-1.41258e-05
4.10619e-06
-3.12203e-05
-3.36674e-07
-4.48982e-05
2.16588e-06
-4.15266e-05
5.70318e-06
-3.77979e-05
8.39013e-06
-3.70043e-05
1.11191e-05
-3.87972e-05
1.34201e-05
-3.99514e-05
1.5317e-05
-3.94651e-05
1.68337e-05
-3.67998e-05
2.01296e-05
-3.50288e-05
2.49658e-05
-3.45466e-05
2.72376e-05
-3.13332e-05
1.82603e-05
-2.8286e-05
7.67066e-06
-2.3801e-05
9.89925e-06
-1.5741e-05
1.29337e-05
-1.67458e-05
1.7631e-05
-1.91481e-05
7.82907e-06
-2.22193e-05
-1.79684e-07
-1.93507e-05
-2.3685e-06
-1.60324e-05
-2.963e-06
-2.5303e-05
-2.55825e-06
-4.1351e-05
-4.92931e-07
-4.64921e-05
2.32615e-06
-4.35415e-05
-1.54632e-06
-4.34262e-05
-8.39757e-06
-3.66103e-05
-3.4724e-06
-1.32348e-05
-5.73672e-06
4.68551e-06
-2.36974e-05
9.92532e-07
-3.10242e-05
-3.57401e-06
-4.24345e-05
-3.06402e-06
-4.36413e-05
-2.67558e-07
-4.07447e-05
4.53827e-06
-3.71794e-05
8.76931e-06
-3.47361e-05
1.07192e-05
-3.56759e-05
1.2929e-05
-3.79676e-05
1.59304e-05
-3.92564e-05
1.83287e-05
-3.75057e-05
2.12252e-05
-3.61009e-05
2.51451e-05
-3.60379e-05
2.73936e-05
-3.32868e-05
2.74572e-05
-2.83497e-05
1.95567e-05
-2.81979e-05
9.42762e-06
-2.39524e-05
1.3773e-05
-2.00319e-05
1.68675e-05
-2.36432e-05
6.35733e-06
-2.0788e-05
1.01595e-06
-1.43063e-05
-1.26106e-06
-1.15717e-05
-2.64879e-06
-2.23811e-05
-1.86332e-06
-3.75674e-05
1.4218e-07
-4.21603e-05
2.77464e-06
-3.99292e-05
3.45302e-06
-4.03698e-05
-2.38485e-06
-4.35524e-05
-6.15121e-06
-3.09074e-05
-1.2245e-05
-1.77482e-06
-2.92932e-05
-3.25542e-06
-3.4805e-05
-5.30455e-06
-4.00014e-05
-4.80981e-06
-4.19113e-05
-1.88356e-06
-4.00972e-05
3.39139e-06
-3.59001e-05
8.5741e-06
-3.27529e-05
1.07085e-05
-3.25926e-05
1.27726e-05
-3.47584e-05
1.6053e-05
-3.73341e-05
1.88031e-05
-3.61822e-05
2.14313e-05
-3.44311e-05
2.41967e-05
-3.40396e-05
2.63922e-05
-3.20271e-05
2.84093e-05
-2.69283e-05
2.41779e-05
-2.58736e-05
1.21507e-05
-2.872e-05
1.41844e-05
-2.63853e-05
9.44756e-06
-2.80594e-05
2.06615e-06
-1.56563e-05
6.93193e-07
-1.00512e-05
-2.53157e-06
-1.01154e-05
-3.22577e-06
-2.36592e-05
-7.58327e-07
-3.51054e-05
1.15975e-06
-3.77056e-05
3.01271e-06
-3.66914e-05
4.76637e-06
-3.81569e-05
3.69233e-06
-4.1074e-05
-3.71169e-06
-4.06302e-05
-2.75146e-05
-2.23304e-06
-2.61048e-05
-3.48614e-06
-3.16375e-05
-6.03509e-06
-3.703e-05
-6.04999e-06
-3.96779e-05
-3.08641e-06
-3.90515e-05
9.35827e-07
-3.53874e-05
6.28091e-06
-3.04498e-05
1.05795e-05
-3.08795e-05
1.29246e-05
-3.16911e-05
1.59647e-05
-3.3697e-05
1.89871e-05
-3.32034e-05
2.0949e-05
-3.16009e-05
2.21846e-05
-3.0681e-05
2.43544e-05
-2.82213e-05
2.79423e-05
-2.38811e-05
2.85397e-05
-2.34408e-05
1.989e-05
-2.59048e-05
1.3091e-05
-2.98873e-05
2.16738e-06
-2.6152e-05
-3.56632e-06
-1.0335e-05
-3.25609e-06
-7.25307e-06
-5.76789e-06
-1.0973e-05
-5.14343e-06
-2.58868e-05
-1.78396e-06
-3.33186e-05
1.16099e-06
-3.40563e-05
3.33018e-06
-3.4288e-05
5.53298e-06
-3.60239e-05
5.18508e-06
-3.79491e-05
2.49898e-06
-3.72838e-05
-3.31688e-05
-2.52728e-06
-2.20555e-05
-3.62391e-06
-2.75059e-05
-6.35379e-06
-3.3164e-05
-6.83208e-06
-3.67807e-05
-4.11493e-06
-3.73911e-05
-2.48679e-07
-3.46778e-05
4.49136e-06
-2.79695e-05
9.19385e-06
-2.94387e-05
1.24068e-05
-2.97161e-05
1.56211e-05
-3.04434e-05
1.90686e-05
-3.02364e-05
2.04806e-05
-2.95485e-05
2.05712e-05
-2.84698e-05
2.24984e-05
-2.5379e-05
2.7064e-05
-2.20269e-05
2.89065e-05
-2.06395e-05
2.25904e-05
-2.2041e-05
1.33452e-05
-2.68615e-05
-1.11862e-06
-2.00216e-05
-8.13844e-06
-7.02749e-06
-6.56141e-06
-5.80747e-06
-6.63077e-06
-1.32741e-05
-6.08525e-06
-2.6398e-05
-3.17362e-06
-3.11838e-05
8.57342e-07
-3.11679e-05
4.10242e-06
-3.16512e-05
6.23969e-06
-3.31835e-05
5.55363e-06
-3.42506e-05
3.08805e-06
-3.35205e-05
-2.99765e-05
-2.23034e-06
-1.77078e-05
-2.73649e-06
-2.28558e-05
-5.40304e-06
-2.85269e-05
-6.55127e-06
-3.31956e-05
-4.73463e-06
-3.50026e-05
-1.67938e-06
-3.317e-05
1.90498e-06
-2.62343e-05
6.86418e-06
-2.7057e-05
1.16065e-05
-2.78981e-05
1.51841e-05
-2.79072e-05
1.82734e-05
-2.76241e-05
2.00693e-05
-2.73854e-05
2.03735e-05
-2.68701e-05
2.25106e-05
-2.45821e-05
2.73386e-05
-2.17322e-05
2.94486e-05
-1.75746e-05
2.32133e-05
-1.86818e-05
1.20415e-05
-2.16471e-05
-4.80499e-06
-1.28749e-05
-1.19017e-05
-4.47409e-06
-9.17691e-06
-5.52115e-06
-7.61672e-06
-1.56643e-05
-6.38172e-06
-2.553e-05
-3.42925e-06
-2.87366e-05
8.12443e-07
-2.84432e-05
4.66794e-06
-2.90735e-05
6.71757e-06
-3.01606e-05
5.98951e-06
-3.04673e-05
3.39204e-06
-2.93735e-05
-2.63891e-05
-1.85488e-06
-1.34317e-05
-1.76059e-06
-1.86347e-05
-4.07063e-06
-2.40403e-05
-5.82089e-06
-2.91055e-05
-5.35051e-06
-3.23017e-05
-3.29451e-06
-3.17874e-05
4.4069e-07
-2.50752e-05
6.02688e-06
-2.42625e-05
1.06061e-05
-2.49692e-05
1.44915e-05
-2.50542e-05
1.77673e-05
-2.4952e-05
1.97243e-05
-2.3999e-05
2.08977e-05
-2.43635e-05
2.38176e-05
-2.36431e-05
2.76836e-05
-1.99965e-05
2.81777e-05
-1.34417e-05
2.06119e-05
-1.42353e-05
4.70536e-06
-1.51951e-05
-1.18662e-05
-6.10731e-06
-1.41121e-05
-1.26493e-06
-1.06111e-05
-4.95724e-06
-8.55224e-06
-1.67278e-05
-5.94165e-06
-2.37472e-05
-1.47557e-06
-2.57359e-05
2.21637e-06
-2.55841e-05
5.50785e-06
-2.64533e-05
7.20048e-06
-2.68585e-05
6.01162e-06
-2.61985e-05
3.324e-06
-2.50046e-05
-2.26436e-05
-1.74011e-06
-9.33079e-06
-1.2988e-06
-1.48702e-05
-2.87919e-06
-2.03296e-05
-4.79454e-06
-2.5154e-05
-5.55743e-06
-2.93188e-05
-4.26617e-06
-3.01861e-05
1.80116e-07
-2.42384e-05
5.99361e-06
-2.08992e-05
9.78399e-06
-2.13316e-05
1.39874e-05
-2.15152e-05
1.75962e-05
-2.12981e-05
1.97324e-05
-1.98637e-05
2.18789e-05
-2.03936e-05
2.51476e-05
-2.03842e-05
2.78668e-05
-1.54855e-05
2.77006e-05
-8.27338e-06
1.96758e-05
-9.10892e-06
1.67799e-06
-8.86049e-06
-1.41644e-05
-5.80146e-07
-1.46253e-05
2.01043e-06
-1.09034e-05
-4.08949e-06
-8.86861e-06
-1.58374e-05
-5.26174e-06
-2.1498e-05
7.17113e-07
-2.2415e-05
4.2872e-06
-2.26709e-05
6.68331e-06
-2.32786e-05
7.40528e-06
-2.28321e-05
5.724e-06
-2.1611e-05
3.05711e-06
-2.06577e-05
-1.88629e-05
-1.2413e-06
-6.06724e-06
-1.12146e-06
-1.13363e-05
-2.48964e-06
-1.68848e-05
-4.42455e-06
-2.15389e-05
-5.95741e-06
-2.58721e-05
-5.41834e-06
-2.76996e-05
-1.05243e-06
-2.3417e-05
4.96387e-06
-1.78644e-05
9.39788e-06
-1.7853e-05
1.37228e-05
-1.78073e-05
1.74377e-05
-1.68271e-05
1.98377e-05
-1.54904e-05
2.23705e-05
-1.48954e-05
2.55863e-05
-1.42999e-05
2.8192e-05
-8.6745e-06
2.80127e-05
-2.97563e-06
1.96555e-05
-4.04662e-06
-7.18576e-07
-3.68035e-06
-1.59363e-05
3.63585e-06
-1.54932e-05
4.44648e-06
-1.14831e-05
-2.64641e-06
-8.92332e-06
-1.12832e-05
-4.11422e-06
-1.76835e-05
2.37624e-06
-1.82765e-05
5.58963e-06
-1.92608e-05
7.51466e-06
-1.95873e-05
7.27907e-06
-1.82746e-05
5.11597e-06
-1.68478e-05
2.64668e-06
-1.63713e-05
-1.50181e-05
-6.34049e-07
-3.97939e-06
-8.83599e-07
-8.49032e-06
-2.10567e-06
-1.35517e-05
-4.01344e-06
-1.80254e-05
-5.99011e-06
-2.20053e-05
-6.77777e-06
-2.43619e-05
-2.86933e-06
-2.18949e-05
3.84924e-06
-1.55029e-05
9.25335e-06
-1.49094e-05
1.39151e-05
-1.43233e-05
1.80443e-05
-1.28728e-05
2.03035e-05
-1.12298e-05
2.21189e-05
-9.15501e-06
2.55472e-05
-6.98391e-06
2.82137e-05
-1.42767e-06
2.73534e-05
2.36599e-06
1.74186e-05
1.25734e-06
-2.71704e-06
1.01314e-06
-1.53827e-05
7.75389e-06
-1.54758e-05
7.98581e-06
-1.21396e-05
1.28392e-06
-7.70578e-06
-5.66816e-06
-1.34643e-06
-1.09639e-05
4.6635e-06
-1.32189e-05
7.27891e-06
-1.49993e-05
7.97774e-06
-1.4716e-05
6.62393e-06
-1.27938e-05
4.12709e-06
-1.19585e-05
2.15939e-06
-1.20254e-05
-1.08288e-05
-2.35367e-07
-2.82298e-06
-5.23095e-07
-6.56112e-06
-1.53986e-06
-1.07233e-05
-3.34745e-06
-1.46817e-05
-5.66188e-06
-1.80488e-05
-7.44242e-06
-2.04165e-05
-4.20247e-06
-1.91988e-05
2.76528e-06
-1.28806e-05
8.80463e-06
-1.16733e-05
1.37881e-05
-1.06362e-05
1.88345e-05
-8.7889e-06
2.1709e-05
-6.59096e-06
2.32313e-05
-3.38334e-06
2.63772e-05
2.82026e-07
2.86505e-05
5.43026e-06
2.69307e-05
7.89717e-06
1.53608e-05
6.65833e-06
-2.70089e-06
5.56644e-06
-1.26955e-05
1.22737e-05
-1.43168e-05
1.30903e-05
-1.28607e-05
5.56704e-06
-6.10808e-06
-2.84437e-06
1.8296e-06
-5.33676e-06
6.25102e-06
-8.51915e-06
7.9436e-06
-1.00113e-05
7.02213e-06
-8.79658e-06
4.85148e-06
-7.65505e-06
2.77666e-06
-7.6169e-06
1.75089e-06
-7.86723e-06
-6.51814e-06
-8.96152e-09
-2.17292e-06
-1.2441e-07
-5.33203e-06
-8.19988e-07
-8.62788e-06
-2.24681e-06
-1.18462e-05
-4.43165e-06
-1.45063e-05
-6.97071e-06
-1.63453e-05
-5.09143e-06
-1.59166e-05
1.25048e-06
-1.02696e-05
7.49906e-06
-8.40808e-06
1.29188e-05
-6.92448e-06
1.83221e-05
-4.72485e-06
2.1852e-05
-1.30358e-06
2.41077e-05
3.18463e-06
2.73499e-05
7.92504e-06
2.93012e-05
1.21462e-05
2.70785e-05
1.38157e-05
1.53001e-05
1.24171e-05
-6.596e-07
1.01541e-05
-9.69458e-06
1.57485e-05
-1.4491e-05
1.77534e-05
-1.47077e-05
8.66747e-06
-6.03282e-06
-1.45652e-06
3.08205e-06
-3.10032e-06
6.71608e-06
-4.73123e-06
6.33128e-06
-4.82439e-06
4.25844e-06
-4.22514e-06
2.68706e-06
-4.20499e-06
1.58422e-06
-4.57011e-06
1.1317e-06
-4.75648e-06
-3.45431e-06
1.70529e-07
-1.78595e-06
1.97085e-07
-4.48983e-06
-1.61999e-07
-7.1204e-06
-1.14542e-06
-9.61909e-06
-2.77751e-06
-1.16709e-05
-5.13817e-06
-1.28827e-05
-4.9624e-06
-1.26521e-05
2.05007e-07
-8.02948e-06
6.38737e-06
-5.34865e-06
1.20912e-05
-3.35904e-06
1.73629e-05
-7.5974e-07
2.07036e-05
3.42088e-06
2.38277e-05
9.67679e-06
2.74833e-05
1.54983e-05
2.93739e-05
1.89796e-05
2.67629e-05
2.05968e-05
1.60162e-05
1.90393e-05
3.13075e-06
1.51058e-05
-6.11232e-06
1.88612e-05
-1.38712e-05
2.13445e-05
-1.39446e-05
1.13382e-05
-4.22541e-06
-4.20778e-07
3.99277e-06
-1.00566e-06
5.41169e-06
-1.22759e-06
3.51238e-06
-1.2944e-06
2.35667e-06
-1.51935e-06
1.54096e-06
-2.00629e-06
8.95488e-07
-2.49822e-06
4.65004e-07
-2.68208e-06
-1.76041e-06
2.40647e-07
-1.51596e-06
3.94107e-07
-3.87308e-06
2.9169e-07
-5.99724e-06
-2.72892e-07
-7.89348e-06
-1.3926e-06
-9.41182e-06
-3.09587e-06
-1.02341e-05
-4.2106e-06
-9.92823e-06
-6.07525e-07
-6.40297e-06
5.20949e-06
-2.74222e-06
1.06381e-05
8.74679e-08
1.53986e-05
3.46993e-06
1.87904e-05
8.05049e-06
2.25583e-05
1.50601e-05
2.6967e-05
2.16581e-05
2.89495e-05
2.60423e-05
2.59194e-05
2.83346e-05
1.63837e-05
2.57066e-05
5.80303e-06
2.02738e-05
-2.81165e-06
2.26843e-05
-1.05625e-05
2.50157e-05
-8.68304e-06
1.23915e-05
1.03991e-07
4.16633e-07
4.40234e-06
1.6048e-06
3.48998e-06
1.15165e-06
2.72613e-06
8.04603e-07
2.06179e-06
2.87905e-07
1.36126e-06
-3.24269e-07
7.29329e-07
-9.04811e-07
2.37512e-07
-1.21862e-06
-8.1721e-07
2.29404e-07
-1.30721e-06
4.38514e-07
-3.40485e-06
5.30494e-07
-5.15373e-06
2.71037e-07
-6.54472e-06
-4.36832e-07
-7.58726e-06
-1.74765e-06
-8.12657e-06
-3.43208e-06
-7.83184e-06
-1.05104e-06
-5.65731e-06
4.18792e-06
-1.34575e-06
8.91617e-06
2.6448e-06
1.36754e-05
7.06472e-06
1.63091e-05
1.23975e-05
2.00595e-05
1.99393e-05
2.60805e-05
2.81954e-05
2.75686e-05
3.3506e-05
2.33126e-05
3.58199e-05
1.45649e-05
3.09607e-05
5.51563e-06
2.54722e-05
-1.94046e-06
2.67379e-05
-4.90728e-06
2.88339e-05
-1.99307e-07
1.00204e-05
3.70051e-06
1.44975e-06
4.06301e-06
2.82122e-06
3.79286e-06
2.51657e-06
3.33682e-06
2.17718e-06
2.63846e-06
1.66786e-06
1.84327e-06
1.06493e-06
1.08673e-06
4.25919e-07
4.07703e-07
-7.61824e-08
-1.43275e-07
1.32234e-07
-1.13829e-06
2.97211e-07
-3.06337e-06
4.82434e-07
-4.55438e-06
4.57148e-07
-5.5418e-06
6.4643e-08
-6.12474e-06
-8.60874e-07
-6.36971e-06
-2.50484e-06
-6.10083e-06
-1.12934e-06
-5.09929e-06
3.30718e-06
-6.62899e-07
7.59035e-06
4.14744e-06
1.18123e-05
9.49886e-06
1.50604e-05
1.5663e-05
1.74432e-05
2.35511e-05
2.16031e-05
3.48111e-05
2.25753e-05
3.97112e-05
1.73589e-05