/*--------------------------------*- C++ -*----------------------------------*\
| =========                 |                                                 |
| \\      /  F ield         | OpenFOAM: The Open Source CFD Toolbox           |
|  \\    /   O peration     | Version:  2.3.0                                 |
|   \\  /    A nd           | Web:      www.OpenFOAM.org                      |
|    \\/     M anipulation  |                                                 |
\*---------------------------------------------------------------------------*/
FoamFile
{
    version     2.0;
    format      ascii;
    class       volScalarField;
    location    "1.13";
    object      alpha.particlesMean;
}
// * * * * * * * * * * * * * * * * * * * * * * * * * * * * * * * * * * * * * //

dimensions      [0 0 0 0 0 0 0];

internalField   nonuniform List<scalar> 
6000
(
0.411269
0.423124
0.424428
0.424674
0.416347
0.404599
0.407176
0.408699
0.414717
0.415288
0.413021
0.413118
0.40363
0.401595
0.413812
0.419282
0.420867
0.415647
0.414663
0.420928
0.426908
0.427382
0.426169
0.426478
0.423983
0.42132
0.421853
0.415663
0.418679
0.421698
0.395849
0.39689
0.396872
0.39139
0.38124
0.378078
0.380213
0.379744
0.377333
0.383247
0.384688
0.380488
0.378847
0.376382
0.384137
0.39816
0.394824
0.385626
0.385531
0.386212
0.390935
0.395939
0.398514
0.397926
0.384549
0.379297
0.382605
0.387912
0.388175
0.399683
0.401102
0.402499
0.398035
0.385172
0.382536
0.383049
0.382692
0.376792
0.377574
0.388605
0.388993
0.380021
0.37756
0.375986
0.384315
0.395996
0.395513
0.389312
0.387016
0.390449
0.393524
0.395006
0.395813
0.385532
0.379437
0.382973
0.388455
0.389363
0.387302
0.402623
0.401809
0.399036
0.388307
0.378185
0.380286
0.381842
0.378325
0.374093
0.374962
0.387308
0.389834
0.378701
0.374002
0.373151
0.378299
0.387588
0.392232
0.387056
0.385032
0.388829
0.388695
0.387513
0.379979
0.367078
0.373751
0.381651
0.389112
0.385498
0.378998
0.40047
0.394674
0.394928
0.379183
0.37432
0.376731
0.375995
0.370014
0.366118
0.370473
0.382805
0.385046
0.373739
0.365014
0.357849
0.365218
0.377944
0.389177
0.38013
0.380271
0.38074
0.379393
0.374415
0.363993
0.360203
0.368098
0.377063
0.384552
0.380265
0.368819
0.390432
0.385716
0.390281
0.376593
0.373166
0.373165
0.368571
0.36088
0.358121
0.36323
0.372694
0.376205
0.365021
0.34997
0.350493
0.362479
0.381349
0.386668
0.375926
0.372584
0.372755
0.368318
0.361555
0.357974
0.356099
0.362985
0.370568
0.381773
0.373556
0.359676
0.382092
0.379466
0.383063
0.377156
0.370596
0.368566
0.362289
0.352728
0.350218
0.353661
0.36533
0.368841
0.356159
0.347828
0.354568
0.369639
0.38882
0.387742
0.364951
0.365072
0.365833
0.3641
0.36067
0.357071
0.354823
0.359176
0.367102
0.375946
0.369213
0.352371
0.37721
0.375836
0.380749
0.375369
0.368234
0.364523
0.359392
0.349526
0.344695
0.349277
0.360046
0.362274
0.351823
0.352725
0.361549
0.376822
0.392699
0.375759
0.363131
0.366076
0.368576
0.367121
0.362098
0.356974
0.355727
0.359869
0.365333
0.371104
0.364381
0.350469
0.377863
0.37914
0.383657
0.376427
0.366997
0.36524
0.361627
0.353794
0.345579
0.344118
0.351591
0.357549
0.353382
0.358859
0.36663
0.383557
0.389489
0.368634
0.363106
0.36774
0.372613
0.370121
0.363842
0.360146
0.360121
0.362212
0.368365
0.369925
0.366512
0.355887
0.385586
0.38555
0.38756
0.376404
0.365618
0.365888
0.365724
0.361675
0.347978
0.340485
0.345701
0.358259
0.360484
0.365181
0.370311
0.383945
0.382736
0.3649
0.361686
0.366924
0.371202
0.369066
0.367031
0.367769
0.367414
0.370135
0.372996
0.372198
0.371311
0.366188
0.395669
0.391295
0.388733
0.373495
0.363761
0.364381
0.367878
0.367883
0.354203
0.340202
0.346358
0.364068
0.371192
0.371124
0.371886
0.381839
0.374708
0.364467
0.36226
0.368279
0.36815
0.37024
0.372417
0.374981
0.377572
0.378629
0.378486
0.37487
0.37746
0.378967
0.406177
0.395031
0.385405
0.367648
0.361184
0.362003
0.366177
0.370089
0.362154
0.344454
0.346785
0.367424
0.379342
0.374652
0.371806
0.374529
0.36921
0.363714
0.365856
0.367594
0.366367
0.373634
0.378452
0.382995
0.385182
0.385426
0.381631
0.377918
0.381987
0.392971
0.419468
0.396488
0.378138
0.363608
0.358193
0.358714
0.362038
0.370277
0.37116
0.351226
0.347559
0.364558
0.383734
0.377731
0.371216
0.367658
0.364955
0.3663
0.37046
0.364303
0.366889
0.377487
0.384907
0.388851
0.390115
0.388025
0.384304
0.380355
0.388111
0.404685
0.431973
0.395872
0.372562
0.3634
0.355181
0.355379
0.357428
0.367587
0.373497
0.360219
0.350756
0.36054
0.380286
0.381303
0.372487
0.36384
0.364917
0.371641
0.372431
0.36281
0.368173
0.381619
0.390951
0.392137
0.390602
0.388297
0.384199
0.384261
0.39737
0.416731
0.445005
0.396188
0.37205
0.365815
0.353818
0.352707
0.354145
0.361329
0.371652
0.367169
0.356763
0.357447
0.371855
0.382324
0.373262
0.364107
0.3672
0.377657
0.372183
0.36403
0.369151
0.386018
0.395449
0.392621
0.387836
0.385297
0.3845
0.390118
0.410539
0.428201
0.458943
0.397673
0.373764
0.370799
0.355605
0.351898
0.351801
0.356275
0.368135
0.368317
0.36042
0.356972
0.35871
0.377006
0.371672
0.364166
0.371525
0.380176
0.372365
0.36587
0.373029
0.390774
0.39832
0.390259
0.382618
0.381396
0.386875
0.400615
0.423335
0.439294
0.471402
0.39688
0.376166
0.37772
0.362372
0.353064
0.352022
0.353876
0.365386
0.367812
0.361328
0.355411
0.351049
0.364451
0.368224
0.363674
0.37472
0.382372
0.374483
0.372334
0.381662
0.39652
0.39933
0.38547
0.377314
0.376644
0.393256
0.411401
0.43592
0.447755
0.479554
0.39481
0.381463
0.385888
0.372957
0.355707
0.354448
0.355105
0.361234
0.368957
0.361896
0.353298
0.347186
0.352853
0.363707
0.361812
0.375825
0.386611
0.382872
0.383727
0.392919
0.402855
0.399151
0.38062
0.371996
0.375587
0.397783
0.421112
0.441498
0.449341
0.484674
0.394719
0.3881
0.393743
0.384991
0.360642
0.357807
0.35909
0.358682
0.366922
0.363822
0.352528
0.346069
0.344986
0.357007
0.359069
0.374224
0.393029
0.395442
0.395827
0.403062
0.40837
0.399287
0.377197
0.367293
0.374578
0.397577
0.42694
0.440831
0.445745
0.485905
0.397461
0.394322
0.401263
0.39582
0.365973
0.361913
0.364093
0.36126
0.361168
0.362943
0.35419
0.34551
0.343623
0.352355
0.355698
0.36939
0.395025
0.406686
0.404287
0.408758
0.410672
0.397389
0.373313
0.361394
0.373438
0.392248
0.425092
0.435246
0.437983
0.483235
0.401941
0.399509
0.409474
0.405917
0.373384
0.365496
0.368624
0.364155
0.356515
0.357867
0.355246
0.345671
0.34262
0.351036
0.353264
0.363802
0.389758
0.413335
0.408903
0.410213
0.40701
0.392526
0.370139
0.356271
0.36831
0.384526
0.418661
0.425811
0.431954
0.474753
0.405724
0.405572
0.417202
0.413815
0.381349
0.368317
0.371667
0.366252
0.353131
0.350296
0.354957
0.346128
0.341353
0.347042
0.354598
0.359827
0.382264
0.41615
0.410258
0.406296
0.401678
0.387953
0.36819
0.351496
0.360904
0.377074
0.413752
0.422693
0.431798
0.471256
0.408755
0.409814
0.42233
0.41935
0.387759
0.370707
0.373766
0.367249
0.348118
0.344999
0.349907
0.347904
0.339665
0.343717
0.352879
0.356437
0.376243
0.414281
0.408971
0.402615
0.396915
0.385286
0.368119
0.350164
0.354566
0.374926
0.414095
0.428472
0.438858
0.471063
0.413025
0.410541
0.422186
0.423857
0.393736
0.373525
0.375109
0.366084
0.343146
0.339157
0.343527
0.347736
0.340282
0.342486
0.346192
0.353279
0.37273
0.408668
0.406854
0.398732
0.39319
0.381244
0.368634
0.352977
0.354307
0.377661
0.41567
0.438147
0.449665
0.470735
0.417604
0.41032
0.422873
0.430087
0.402556
0.377232
0.37422
0.362481
0.339361
0.333839
0.337083
0.343803
0.341782
0.341242
0.343403
0.3479
0.370541
0.401799
0.40219
0.39399
0.386876
0.375136
0.362445
0.353483
0.356357
0.382273
0.418612
0.444865
0.456036
0.467848
0.421507
0.410799
0.424996
0.435925
0.414349
0.382294
0.372542
0.356552
0.335963
0.327925
0.331667
0.338504
0.341719
0.341157
0.341572
0.347186
0.366441
0.391869
0.391397
0.380833
0.374329
0.36138
0.348865
0.342549
0.35358
0.385046
0.420314
0.441989
0.452258
0.463361
0.426176
0.413939
0.428557
0.442626
0.42574
0.389338
0.371395
0.351688
0.331901
0.324081
0.327179
0.334991
0.339352
0.341819
0.34181
0.34974
0.357846
0.375701
0.367927
0.35849
0.355898
0.346349
0.334304
0.332071
0.343501
0.379549
0.413054
0.429325
0.43536
0.453373
0.430636
0.420084
0.433838
0.448786
0.436213
0.398531
0.372708
0.347851
0.330121
0.321539
0.325178
0.333212
0.337741
0.34172
0.345
0.348291
0.345977
0.355981
0.350805
0.345939
0.34631
0.337778
0.330261
0.331078
0.336441
0.373957
0.404132
0.416809
0.420189
0.435542
0.435202
0.426332
0.439983
0.453748
0.445649
0.406043
0.371994
0.344272
0.326034
0.321069
0.324639
0.332774
0.337017
0.339789
0.348007
0.345646
0.334875
0.342408
0.345425
0.342351
0.341242
0.337128
0.334435
0.336159
0.337823
0.37619
0.401708
0.413195
0.417721
0.431163
0.442218
0.429414
0.443617
0.457719
0.45301
0.409293
0.368235
0.337474
0.322096
0.320421
0.324814
0.332929
0.336005
0.338573
0.347673
0.343983
0.330616
0.339807
0.346518
0.341672
0.340666
0.340042
0.342198
0.338941
0.342246
0.382697
0.402899
0.413166
0.418383
0.430049
0.453014
0.430949
0.446766
0.460279
0.45663
0.411306
0.361292
0.331406
0.319205
0.320785
0.324934
0.332477
0.336091
0.338423
0.344992
0.340847
0.330158
0.343836
0.348372
0.341326
0.340172
0.344721
0.346456
0.341142
0.349645
0.390591
0.406162
0.415335
0.419807
0.429715
0.464816
0.436009
0.451342
0.461713
0.45777
0.412896
0.356739
0.327349
0.319538
0.321215
0.326048
0.333118
0.335885
0.3393
0.342244
0.33929
0.331659
0.349595
0.353488
0.341283
0.340827
0.347282
0.348418
0.343403
0.358327
0.399267
0.411588
0.418885
0.420198
0.430272
0.4747
0.444635
0.458386
0.463801
0.457936
0.417226
0.356023
0.327075
0.32035
0.322821
0.327951
0.334103
0.337749
0.340314
0.341328
0.338814
0.336119
0.358279
0.35718
0.341853
0.341763
0.348298
0.348751
0.345497
0.368116
0.407047
0.417979
0.422348
0.420562
0.431981
0.479295
0.455593
0.468124
0.469468
0.458371
0.423131
0.358237
0.328643
0.323627
0.325045
0.3305
0.337118
0.340327
0.343043
0.340926
0.340367
0.341701
0.364677
0.358856
0.341571
0.343731
0.349754
0.349723
0.348222
0.378053
0.414674
0.423866
0.425871
0.41957
0.434345
0.481356
0.464108
0.478204
0.477021
0.459005
0.430566
0.363132
0.333198
0.328797
0.329104
0.334405
0.340238
0.3455
0.345136
0.342947
0.342322
0.347841
0.369451
0.361262
0.343949
0.347828
0.353131
0.350574
0.352097
0.388775
0.424315
0.430229
0.428223
0.419316
0.435278
0.482541
0.466963
0.483978
0.48261
0.460325
0.436274
0.372168
0.338271
0.33542
0.33546
0.338148
0.345096
0.349597
0.348356
0.34475
0.346006
0.351859
0.373868
0.365243
0.348049
0.353961
0.356068
0.352944
0.358133
0.401507
0.435067
0.435502
0.430007
0.418404
0.43387
0.481482
0.46448
0.485044
0.484318
0.461019
0.442207
0.381004
0.346915
0.341303
0.342117
0.342939
0.349481
0.354366
0.349945
0.347664
0.34875
0.354644
0.375522
0.370065
0.352753
0.359385
0.359013
0.356988
0.367719
0.417475
0.443879
0.439308
0.431025
0.417055
0.431839
0.478147
0.463436
0.48222
0.478862
0.460641
0.447683
0.392049
0.356743
0.347261
0.34784
0.346542
0.355369
0.356863
0.352109
0.3486
0.352496
0.355671
0.375742
0.37405
0.357361
0.362357
0.362704
0.364594
0.381945
0.432899
0.449183
0.441534
0.431744
0.415767
0.429829
0.474425
0.467057
0.478151
0.470831
0.46055
0.453754
0.404946
0.36795
0.353435
0.351476
0.350577
0.358849
0.359734
0.352204
0.350577
0.353819
0.35805
0.373696
0.376878
0.361864
0.363978
0.36814
0.37664
0.399349
0.443858
0.451408
0.442351
0.430203
0.417191
0.428384
0.476676
0.473711
0.478908
0.464222
0.460433
0.458053
0.419155
0.379609
0.360299
0.35483
0.353062
0.362713
0.360844
0.354131
0.350429
0.355334
0.359286
0.371152
0.377525
0.365521
0.365026
0.375947
0.392575
0.415278
0.449454
0.450763
0.439317
0.42938
0.418855
0.42925
0.480182
0.477659
0.478881
0.461818
0.460523
0.461118
0.43352
0.393098
0.36711
0.357109
0.356277
0.364181
0.362839
0.354865
0.35208
0.354502
0.361967
0.36812
0.376883
0.368784
0.367739
0.385838
0.407877
0.426323
0.451479
0.447265
0.436506
0.429634
0.42085
0.435296
0.48397
0.476195
0.475816
0.463812
0.460169
0.463814
0.447141
0.407108
0.374692
0.361089
0.358171
0.366344
0.3627
0.357139
0.351817
0.355818
0.362879
0.367001
0.376138
0.373124
0.371455
0.394383
0.418977
0.432986
0.452175
0.443953
0.435353
0.431122
0.422474
0.443904
0.486717
0.472243
0.471459
0.464414
0.46146
0.469025
0.458734
0.421636
0.384614
0.364896
0.362365
0.367307
0.363577
0.356867
0.352997
0.355717
0.365105
0.366837
0.376896
0.377769
0.376125
0.399822
0.423952
0.438015
0.452457
0.443352
0.438355
0.435808
0.428877
0.45299
0.487226
0.467329
0.46692
0.46485
0.465102
0.474696
0.469088
0.431619
0.395632
0.36917
0.36701
0.37049
0.363372
0.357828
0.351754
0.357342
0.364956
0.368555
0.37823
0.383385
0.381243
0.402682
0.425464
0.442798
0.453642
0.446569
0.44343
0.441475
0.43685
0.461385
0.484035
0.461774
0.464572
0.465943
0.469431
0.477125
0.475947
0.436644
0.405039
0.374131
0.373135
0.37403
0.365171
0.357229
0.352561
0.356205
0.36632
0.369971
0.381243
0.389578
0.390054
0.404992
0.426354
0.449007
0.456905
0.451147
0.449864
0.449224
0.445587
0.470375
0.480308
0.4582
0.464301
0.469147
0.473499
0.478274
0.477245
0.438717
0.411547
0.382291
0.378374
0.379028
0.365209
0.358476
0.352039
0.356426
0.365438
0.372888
0.384131
0.396517
0.400285
0.409093
0.428558
0.456349
0.461954
0.458886
0.45938
0.45988
0.456241
0.480695
0.478905
0.45993
0.467769
0.474379
0.477861
0.479232
0.476534
0.440728
0.417243
0.391262
0.384806
0.381732
0.366703
0.357052
0.353164
0.354875
0.366505
0.373622
0.386303
0.399301
0.408979
0.4146
0.433357
0.46497
0.469113
0.469025
0.470605
0.471383
0.468108
0.49071
0.479014
0.464908
0.473917
0.479608
0.483442
0.481588
0.476995
0.444042
0.423028
0.401134
0.390333
0.384835
0.366906
0.356451
0.350721
0.355699
0.365591
0.374112
0.38509
0.400881
0.413746
0.420889
0.441009
0.475466
0.47794
0.479908
0.481774
0.481594
0.479016
0.498864
0.482911
0.469588
0.479652
0.483677
0.488997
0.486514
0.479867
0.448785
0.429051
0.408373
0.395268
0.385047
0.367776
0.351702
0.349232
0.354724
0.365969
0.372954
0.384733
0.40213
0.418161
0.426073
0.450286
0.48576
0.485297
0.489192
0.491633
0.489405
0.486977
0.504697
0.489337
0.477712
0.486625
0.488185
0.49307
0.492423
0.484722
0.453503
0.432819
0.413211
0.395576
0.383928
0.36248
0.347032
0.345277
0.356054
0.365119
0.374227
0.385666
0.406628
0.421009
0.429867
0.457966
0.492108
0.490976
0.495984
0.496136
0.496155
0.491603
0.507602
0.495286
0.49208
0.501031
0.499617
0.497961
0.49784
0.492122
0.457772
0.433351
0.412209
0.394439
0.376774
0.353822
0.339548
0.345281
0.355393
0.366954
0.37586
0.391455
0.411954
0.424843
0.431209
0.462103
0.494396
0.494839
0.496621
0.500096
0.503651
0.496714
0.507978
0.503396
0.499684
0.514557
0.513034
0.506157
0.503435
0.498457
0.462091
0.427738
0.404255
0.389182
0.367747
0.342278
0.338261
0.343599
0.3568
0.367242
0.379837
0.400381
0.41786
0.42832
0.433089
0.458338
0.492076
0.494347
0.498543
0.503759
0.507547
0.500816
0.508013
0.511346
0.502731
0.515461
0.519467
0.514902
0.50979
0.503463
0.462808
0.413697
0.390545
0.37972
0.353475
0.338205
0.335261
0.344538
0.356203
0.369211
0.38737
0.410891
0.42281
0.431705
0.433213
0.449517
0.48824
0.495675
0.499874
0.505255
0.509067
0.502612
0.50824
0.511902
0.504086
0.50847
0.512853
0.516115
0.515229
0.506424
0.455848
0.395258
0.377174
0.365639
0.344662
0.33388
0.335181
0.342663
0.356944
0.373707
0.398747
0.412848
0.427357
0.432
0.433147
0.441099
0.479304
0.49519
0.500314
0.505415
0.509223
0.502263
0.50767
0.509551
0.496282
0.497202
0.501423
0.507124
0.513655
0.503408
0.436983
0.381782
0.367314
0.358351
0.338178
0.332975
0.332032
0.342702
0.357455
0.38073
0.402951
0.415899
0.428477
0.432868
0.430025
0.435058
0.463717
0.49169
0.500611
0.506655
0.509853
0.501097
0.505314
0.501854
0.481056
0.485789
0.490561
0.497463
0.505402
0.487935
0.414764
0.373655
0.3634
0.35019
0.335916
0.329743
0.331882
0.340045
0.359668
0.382749
0.399004
0.416975
0.429477
0.43081
0.425659
0.42752
0.449082
0.482784
0.501588
0.508673
0.510714
0.499347
0.503124
0.484863
0.470495
0.476348
0.48156
0.486182
0.49534
0.466652
0.399951
0.368717
0.358171
0.342972
0.332115
0.329551
0.329134
0.338897
0.358903
0.379209
0.389381
0.412007
0.425948
0.421026
0.41026
0.417898
0.438062
0.471999
0.501886
0.510735
0.510262
0.496666
0.503338
0.478691
0.463629
0.467253
0.471404
0.475105
0.481935
0.449472
0.392632
0.364914
0.350287
0.336659
0.331023
0.326992
0.328312
0.336284
0.355272
0.370758
0.373017
0.386693
0.404404
0.396603
0.394435
0.404947
0.430568
0.462843
0.501066
0.511139
0.506692
0.495769
0.503808
0.481677
0.458818
0.461292
0.46305
0.466626
0.472197
0.436022
0.390578
0.363654
0.341429
0.333518
0.328244
0.326822
0.325274
0.334266
0.34699
0.358326
0.355886
0.361441
0.382645
0.38515
0.384923
0.396459
0.421793
0.453126
0.494444
0.509061
0.501818
0.494606
0.503908
0.488582
0.459838
0.458275
0.458708
0.46111
0.463285
0.430244
0.393702
0.365242
0.337453
0.329894
0.327708
0.324457
0.324201
0.329459
0.33812
0.343472
0.350223
0.353427
0.374922
0.38048
0.380709
0.390851
0.415894
0.442473
0.48353
0.503929
0.495081
0.493187
0.505102
0.493298
0.463264
0.463245
0.458225
0.458119
0.458649
0.433895
0.398963
0.370206
0.335731
0.328872
0.325485
0.324107
0.321876
0.327651
0.332093
0.335877
0.346267
0.351951
0.370227
0.381701
0.378914
0.389082
0.412348
0.435187
0.47416
0.494541
0.483741
0.486131
0.508769
0.495923
0.468077
0.470829
0.463163
0.458641
0.459186
0.441055
0.406233
0.37297
0.338607
0.327063
0.325711
0.322175
0.321439
0.325482
0.330531
0.332418
0.342594
0.350278
0.36812
0.382647
0.381883
0.389605
0.411749
0.433026
0.467872
0.476147
0.463107
0.461096
0.500522
0.496079
0.4703
0.47517
0.469701
0.46022
0.460948
0.44707
0.411433
0.378325
0.34537
0.331128
0.326063
0.322819
0.32028
0.325195
0.329134
0.33222
0.33816
0.348369
0.365533
0.382056
0.385075
0.39406
0.414324
0.435565
0.463302
0.459296
0.454339
0.452481
0.482395
0.490829
0.469193
0.474193
0.473201
0.462102
0.463202
0.452067
0.415956
0.386286
0.357796
0.339496
0.335278
0.32771
0.32346
0.324826
0.329508
0.332179
0.336975
0.346739
0.363942
0.379812
0.39055
0.398413
0.420921
0.44273
0.466488
0.457385
0.456014
0.451499
0.474483
0.482391
0.464706
0.470518
0.472759
0.464157
0.465703
0.457456
0.420571
0.395619
0.37322
0.350454
0.342445
0.339196
0.331595
0.329059
0.33042
0.334161
0.336596
0.348714
0.363505
0.380307
0.395546
0.405288
0.426428
0.453182
0.473563
0.45929
0.458228
0.452133
0.470841
0.47522
0.458905
0.46467
0.470361
0.464725
0.466752
0.460889
0.424574
0.40241
0.384894
0.360895
0.349196
0.343574
0.342166
0.336255
0.334886
0.336945
0.339304
0.351905
0.3672
0.381853
0.401489
0.411128
0.43068
0.463207
0.475964
0.459486
0.459411
0.45065
0.467198
0.47142
0.452349
0.457233
0.465583
0.465094
0.467816
0.46191
0.425761
0.407043
0.389275
0.370854
0.357477
0.350074
0.346312
0.344476
0.341044
0.341867
0.342919
0.356954
0.373409
0.386838
0.403016
0.416018
0.432882
0.469299
0.473142
0.459769
0.458135
0.44947
0.463857
0.471458
0.446173
0.448158
0.459219
0.463576
0.470424
0.461425
0.425196
0.407208
0.392259
0.376884
0.367426
0.357047
0.351156
0.347762
0.347304
0.346137
0.347342
0.362563
0.382175
0.390603
0.403876
0.416524
0.433546
0.470242
0.472219
0.458583
0.455783
0.446383
0.460698
0.478009
0.444575
0.439997
0.448793
0.460174
0.472
0.461099
0.423247
0.407076
0.392804
0.383441
0.373188
0.36411
0.354826
0.351124
0.349943
0.349461
0.352397
0.370736
0.388145
0.395345
0.403692
0.416917
0.431389
0.471704
0.469818
0.456192
0.451893
0.443736
0.456438
0.493336
0.450781
0.441135
0.44181
0.451496
0.469843
0.458933
0.421501
0.403676
0.393844
0.386441
0.377865
0.367056
0.358455
0.353057
0.352564
0.352694
0.359671
0.377568
0.39107
0.397271
0.404931
0.415095
0.428671
0.472506
0.465762
0.451749
0.448339
0.44019
0.452197
0.504155
0.467811
0.454088
0.447105
0.446624
0.461693
0.453426
0.418592
0.400614
0.392622
0.387795
0.380205
0.370078
0.358939
0.355551
0.353666
0.357863
0.366137
0.381608
0.390057
0.398043
0.404444
0.414806
0.427019
0.470849
0.460301
0.447621
0.44515
0.437339
0.450603
0.506711
0.485132
0.472898
0.460995
0.453932
0.457919
0.443664
0.414314
0.398145
0.391974
0.38599
0.379527
0.368754
0.357533
0.354115
0.354051
0.360531
0.370053
0.380374
0.387624
0.395308
0.40487
0.414099
0.427489
0.468597
0.45589
0.444852
0.441964
0.433809
0.452092
0.506238
0.494144
0.489257
0.47974
0.468185
0.459975
0.438382
0.410305
0.394893
0.385841
0.380142
0.374137
0.364028
0.351745
0.350739
0.352024
0.359472
0.370227
0.376554
0.382879
0.392739
0.40336
0.415115
0.429624
0.466921
0.453485
0.44343
0.43838
0.429649
0.455562
0.502963
0.498428
0.497861
0.493325
0.482471
0.466066
0.440176
0.410572
0.391025
0.374342
0.366713
0.364647
0.353926
0.345356
0.345029
0.34984
0.356236
0.367568
0.371745
0.378297
0.388689
0.401519
0.414743
0.432246
0.465191
0.456109
0.447322
0.439609
0.428093
0.45859
0.496005
0.497943
0.500962
0.497788
0.490854
0.474604
0.443753
0.41319
0.387951
0.360035
0.352399
0.348518
0.343167
0.338274
0.342466
0.346808
0.354322
0.365166
0.369616
0.375258
0.385723
0.39648
0.41531
0.435657
0.467006
0.464564
0.461552
0.455015
0.439206
0.466423
0.490402
0.495249
0.501539
0.498305
0.494385
0.479494
0.445971
0.41381
0.374545
0.348311
0.339963
0.338408
0.33365
0.335015
0.340213
0.346097
0.352247
0.363599
0.368033
0.373779
0.381227
0.392615
0.414997
0.439857
0.471356
0.475315
0.480291
0.481168
0.461594
0.470535
0.485807
0.491948
0.501196
0.498812
0.495156
0.477817
0.440086
0.398152
0.357916
0.337129
0.333253
0.330152
0.329753
0.331385
0.339767
0.345512
0.351623
0.360035
0.366071
0.37061
0.376201
0.386802
0.412932
0.442904
0.476609
0.485882
0.49852
0.505173
0.480175
0.471355
0.480719
0.481145
0.495237
0.493199
0.494379
0.474278
0.426003
0.381399
0.348404
0.330961
0.327434
0.327414
0.326053
0.330947
0.338958
0.347869
0.352575
0.358945
0.362217
0.36697
0.366267
0.375764
0.404841
0.442532
0.480588
0.496099
0.512126
0.513246
0.486833
0.473598
0.474985
0.467936
0.485312
0.487722
0.48858
0.469706
0.416915
0.371257
0.339624
0.32599
0.325567
0.325089
0.328273
0.332966
0.343152
0.351774
0.356361
0.358634
0.3594
0.359197
0.355085
0.360501
0.391328
0.436415
0.479215
0.501968
0.512887
0.504819
0.484177
0.476815
0.45905
0.455963
0.479419
0.484286
0.483781
0.457493
0.409134
0.365005
0.334999
0.326691
0.325239
0.329654
0.332947
0.340276
0.347837
0.3557
0.356751
0.358577
0.358161
0.352583
0.350046
0.354793
0.376516
0.424125
0.472621
0.496914
0.50161
0.492371
0.474209
0.478922
0.443344
0.45024
0.477032
0.483809
0.480021
0.447611
0.397006
0.359437
0.341269
0.331715
0.331481
0.334877
0.340594
0.345726
0.352557
0.353645
0.356296
0.358006
0.359068
0.352091
0.349487
0.353524
0.36905
0.413264
0.467904
0.491039
0.493869
0.483884
0.467365
0.478927
0.44403
0.448134
0.472976
0.483698
0.478441
0.440064
0.38804
0.359113
0.345933
0.341593
0.339471
0.342451
0.344528
0.350658
0.35389
0.351611
0.353995
0.358288
0.357266
0.353868
0.349912
0.356225
0.371022
0.40567
0.467763
0.494913
0.493825
0.481165
0.468708
0.475519
0.459165
0.447829
0.467386
0.481777
0.479331
0.434641
0.388981
0.359324
0.350442
0.346012
0.348218
0.349326
0.351584
0.353853
0.355886
0.350166
0.353847
0.357416
0.356907
0.354934
0.355411
0.36375
0.379725
0.400631
0.460057
0.496973
0.495819
0.481698
0.469664
0.474264
0.468377
0.45262
0.46577
0.478978
0.47814
0.435665
0.395877
0.36611
0.35391
0.350641
0.351475
0.355361
0.357603
0.360845
0.358271
0.35297
0.354972
0.358028
0.357946
0.361206
0.365825
0.372279
0.382756
0.396733
0.444251
0.488384
0.493456
0.482545
0.468222
0.481111
0.464541
0.457775
0.470309
0.478938
0.474163
0.435202
0.399437
0.375711
0.3603
0.352933
0.354808
0.358028
0.364097
0.365685
0.363507
0.356802
0.358514
0.360567
0.365261
0.370938
0.372327
0.373552
0.384291
0.396133
0.42778
0.477803
0.483423
0.482373
0.476201
0.481908
0.453613
0.45438
0.472172
0.484404
0.468208
0.432353
0.396586
0.379656
0.364401
0.355369
0.355395
0.361462
0.36721
0.369799
0.365307
0.360974
0.361051
0.368215
0.372921
0.375297
0.372858
0.374186
0.383775
0.396742
0.414624
0.467113
0.477708
0.476544
0.472038
0.475353
0.442868
0.449803
0.470743
0.486915
0.4642
0.423395
0.393648
0.378284
0.366234
0.354434
0.35595
0.361601
0.368882
0.369722
0.367762
0.363571
0.366967
0.374421
0.376479
0.375772
0.373441
0.37347
0.38382
0.395359
0.407326
0.445654
0.470948
0.465671
0.456621
0.461132
0.436354
0.444769
0.468117
0.484256
0.460529
0.413798
0.389453
0.376719
0.362576
0.352999
0.353495
0.361248
0.366441
0.36955
0.367967
0.368498
0.372712
0.37701
0.377837
0.376911
0.373229
0.373174
0.38112
0.39247
0.402488
0.427016
0.456292
0.45264
0.44054
0.444837
0.433031
0.441333
0.465954
0.481642
0.453003
0.406477
0.386033
0.372838
0.358974
0.350082
0.352412
0.35829
0.364533
0.366641
0.369049
0.371306
0.376197
0.377483
0.379007
0.37795
0.37268
0.368754
0.375898
0.385725
0.396048
0.413772
0.432803
0.43322
0.416267
0.423635
0.434993
0.441959
0.465198
0.480125
0.441568
0.400146
0.380582
0.369176
0.354329
0.34892
0.350516
0.356858
0.361133
0.365554
0.367781
0.372593
0.374664
0.375064
0.377792
0.372822
0.362611
0.358422
0.364671
0.375835
0.387841
0.406626
0.413578
0.408262
0.388229
0.399323
0.44211
0.444845
0.466086
0.476108
0.431883
0.392117
0.374498
0.363783
0.352682
0.347207
0.350333
0.354819
0.359854
0.363064
0.367955
0.369511
0.369867
0.368123
0.364833
0.358495
0.353294
0.350215
0.356542
0.368582
0.384516
0.403946
0.405543
0.393643
0.37597
0.382261
0.446626
0.458339
0.47103
0.464807
0.422497
0.386355
0.369055
0.359121
0.350765
0.347732
0.348921
0.354847
0.358216
0.362306
0.365222
0.368092
0.364088
0.359707
0.358323
0.356875
0.353615
0.352717
0.355544
0.368226
0.386182
0.402862
0.400733
0.386678
0.368401
0.372706
0.444904
0.46546
0.476106
0.453596
0.411544
0.383616
0.367216
0.356349
0.350934
0.347447
0.348962
0.353773
0.358783
0.36059
0.364654
0.36448
0.358563
0.357079
0.360851
0.361996
0.359711
0.3581
0.359887
0.370413
0.387305
0.401634
0.397743
0.384397
0.363585
0.367824
0.440681
0.464
0.476822
0.442748
0.401878
0.381875
0.366047
0.356161
0.350697
0.348624
0.34747
0.353679
0.358065
0.362482
0.363404
0.361391
0.356613
0.361075
0.367464
0.368743
0.366355
0.363224
0.363
0.372232
0.387829
0.400538
0.396724
0.385564
0.36217
0.368798
0.436879
0.459305
0.469216
0.429135
0.393782
0.37921
0.3655
0.355864
0.351689
0.348336
0.347218
0.351108
0.358402
0.363731
0.365562
0.359242
0.36069
0.369122
0.375677
0.375465
0.372886
0.367977
0.367131
0.373997
0.390784
0.402112
0.398262
0.389585
0.367083
0.383173
0.433192
0.452092
0.45412
0.412939
0.387168
0.376318
0.363362
0.35643
0.350979
0.348757
0.34539
0.348733
0.355912
0.364598
0.363871
0.360548
0.367023
0.379071
0.38533
0.383871
0.38013
0.374583
0.372652
0.377857
0.396823
0.408185
0.405627
0.401165
0.38424
0.403991
0.425038
0.435595
0.43534
0.39964
0.382911
0.373133
0.362595
0.355987
0.351484
0.348185
0.34492
0.343773
0.351168
0.358504
0.358408
0.358884
0.374246
0.389225
0.39656
0.39459
0.389072
0.382535
0.380595
0.384772
0.406423
0.42005
0.42148
0.422038
0.408225
0.429597
0.41424
0.419276
0.418217
0.39286
0.380732
0.372094
0.36344
0.357684
0.351487
0.349434
0.343874
0.340791
0.34017
0.344161
0.345261
0.355414
0.378212
0.398782
0.408334
0.407218
0.399792
0.392242
0.390385
0.395374
0.419366
0.438016
0.443194
0.444632
0.437814
0.454637
0.404978
0.402918
0.405698
0.390758
0.380462
0.371508
0.366874
0.360481
0.354042
0.350212
0.345556
0.33872
0.335685
0.331459
0.333331
0.347629
0.377787
0.404936
0.419451
0.421387
0.413241
0.403809
0.402406
0.409765
0.436429
0.459557
0.466065
0.469634
0.462694
0.457889
0.394475
0.387318
0.400827
0.390704
0.380492
0.370662
0.368268
0.364992
0.358046
0.353697
0.34748
0.341584
0.335458
0.330285
0.326882
0.340044
0.371906
0.404951
0.42745
0.435386
0.428951
0.417681
0.416695
0.428533
0.456759
0.481096
0.487665
0.4817
0.463256
0.45198
0.387938
0.381343
0.39818
0.390476
0.379457
0.368987
0.367512
0.366751
0.363522
0.358141
0.352184
0.344049
0.338712
0.330549
0.327804
0.332463
0.36177
0.399542
0.42824
0.445504
0.443938
0.433537
0.433512
0.449342
0.477255
0.498954
0.493571
0.478434
0.456791
0.442434
0.384295
0.376727
0.393922
0.389753
0.378166
0.367972
0.365826
0.365868
0.364014
0.36311
0.357471
0.34906
0.341264
0.335033
0.329398
0.331286
0.348015
0.389618
0.42455
0.448417
0.456402
0.450057
0.452371
0.47044
0.495997
0.503647
0.49058
0.470619
0.445959
0.422371
0.378669
0.371819
0.388694
0.388689
0.377372
0.367409
0.365154
0.363933
0.361677
0.360628
0.360352
0.352445
0.3458
0.338621
0.334481
0.33179
0.33957
0.373456
0.417178
0.447042
0.462884
0.464768
0.471541
0.489152
0.504892
0.501712
0.484418
0.458596
0.421818
0.393585
0.371243
0.366544
0.383468
0.386867
0.377038
0.367119
0.364592
0.362979
0.358768
0.358037
0.35675
0.352897
0.347325
0.343874
0.338589
0.335327
0.336993
0.357955
0.405094
0.443089
0.464852
0.474815
0.488092
0.50121
0.505866
0.496334
0.473648
0.435757
0.387717
0.356924
0.363414
0.361137
0.377192
0.38377
0.376512
0.366265
0.365181
0.360919
0.357122
0.35447
0.353343
0.348905
0.347225
0.345221
0.343646
0.337576
0.338311
0.349954
0.389755
0.435763
0.464685
0.478331
0.497478
0.505582
0.500693
0.481976
0.449833
0.397915
0.343491
0.323768
0.356074
0.354817
0.370338
0.379175
0.374696
0.363661
0.362878
0.360816
0.356547
0.353155
0.349606
0.345859
0.343524
0.344743
0.34365
0.339845
0.33854
0.347935
0.376942
0.427401
0.461244
0.478219
0.496779
0.502529
0.490847
0.462932
0.421721
0.359993
0.325466
0.316603
0.350363
0.348673
0.365525
0.375969
0.374069
0.361049
0.360137
0.360469
0.358344
0.352242
0.348862
0.343386
0.341754
0.340873
0.340795
0.337956
0.339092
0.347631
0.369943
0.416774
0.45464
0.473476
0.486831
0.494386
0.48113
0.447443
0.399561
0.352747
0.326896
0.312778
0.347528
0.345553
0.365697
0.377135
0.378995
0.365203
0.362869
0.365402
0.360691
0.354034
0.348845
0.344212
0.339461
0.335307
0.333249
0.335332
0.338008
0.348012
0.366182
0.404134
0.446149
0.465954
0.474362
0.481135
0.473645
0.442372
0.394108
0.357845
0.33219
0.313937
0.349108
0.347119
0.371534
0.383795
0.388779
0.3754
0.371584
0.371268
0.364628
0.355492
0.35045
0.343184
0.334077
0.326611
0.328176
0.331091
0.337525
0.347816
0.362435
0.389484
0.438522
0.460884
0.467687
0.469578
0.464229
0.441585
0.397346
0.365868
0.337975
0.318786
0.357508
0.353058
0.380159
0.392735
0.398898
0.386255
0.378502