/*--------------------------------*- C++ -*----------------------------------*\
| =========                 |                                                 |
| \\      /  F ield         | OpenFOAM: The Open Source CFD Toolbox           |
|  \\    /   O peration     | Version:  2.3.0                                 |
|   \\  /    A nd           | Web:      www.OpenFOAM.org                      |
|    \\/     M anipulation  |                                                 |
\*---------------------------------------------------------------------------*/
FoamFile
{
    version     2.0;
    format      ascii;
    class       surfaceScalarField;
    location    "1.13";
    object      phi.particles;
}
// * * * * * * * * * * * * * * * * * * * * * * * * * * * * * * * * * * * * * //

dimensions      [0 3 -1 0 0 0 0];

internalField   nonuniform List<scalar> 
11770
(
-5.7769e-06
-1.57336e-05
-6.51819e-06
-1.17949e-05
-4.21355e-06
-8.43551e-06
-3.16624e-06
-5.88658e-06
-1.35903e-06
-7.05749e-06
9.03257e-08
-8.8453e-06
-1.62484e-06
-1.31348e-05
-4.32218e-06
-1.35339e-05
-5.66729e-06
-8.8349e-06
-4.14664e-06
-4.31503e-06
-3.00456e-06
-2.40624e-06
-1.54158e-06
-1.69877e-06
-2.01098e-06
-3.40785e-06
-4.8832e-06
-2.54224e-06
-6.48082e-06
-4.9206e-07
-7.89653e-06
-3.37017e-08
-9.36684e-06
-1.2186e-06
-1.04866e-05
-2.51502e-06
-1.08966e-05
-2.40163e-06
-1.0024e-05
-1.27621e-06
-8.32884e-06
-1.0751e-06
-6.35706e-06
-1.33298e-06
-4.4342e-06
-1.78364e-06
-1.63763e-06
-2.61135e-06
-4.65527e-07
-5.84575e-06
-1.5095e-06
-1.19289e-05
-2.53834e-06
-1.4283e-05
-2.64161e-06
-1.50517e-05
-1.38658e-06
-1.36766e-05
-1.1705e-05
2.17454e-06
-9.7528e-07
4.88009e-06
-1.93973e-06
7.07866e-06
5.65424e-07
5.02819e-06
9.55695e-06
-1.7956e-06
1.36065e-05
-5.55853e-06
1.27815e-05
-5.56108e-06
8.86562e-06
-5.03722e-06
8.69308e-06
-3.78168e-06
9.67242e-06
-3.14833e-06
1.09322e-05
-4.24125e-06
1.44243e-05
-5.971e-06
1.5072e-05
-7.5394e-06
1.48184e-05
-9.46782e-06
1.3631e-05
-1.09052e-05
1.46096e-05
-1.14306e-05
1.54121e-05
-1.162e-05
1.4977e-05
-1.17316e-05
1.42584e-05
-1.12239e-05
1.28115e-05
-1.03134e-05
1.08734e-05
-9.26236e-06
9.96844e-06
-7.96211e-06
1.00404e-05
-6.28442e-06
9.61999e-06
-4.07633e-06
8.52136e-06
-3.18357e-06
1.19817e-05
-4.49023e-06
9.29295e-06
-5.34204e-06
7.2266e-06
-4.50146e-06
5.58692e-06
-3.63495e-06
5.06992e-06
3.31392e-06
2.77248e-06
-1.92813e-06
7.10029e-06
-6.87608e-06
9.28711e-06
-6.38848e-06
6.37545e-06
5.27042e-06
-3.20232e-06
1.54449e-05
-7.63005e-06
1.30591e-05
-5.93861e-06
1.00299e-05
-2.64952e-06
1.02502e-05
3.02274e-07
1.00545e-05
1.09632e-07
8.97807e-06
-3.00549e-06
1.13172e-05
-6.21892e-06
8.84482e-06
-8.41879e-06
6.84516e-06
-1.07899e-05
5.50749e-06
-1.27505e-05
4.12984e-06
-1.34269e-05
2.98361e-06
-1.2367e-05
7.33713e-07
-1.0077e-05
-1.12763e-06
-8.04181e-06
-3.82945e-06
-7.35646e-06
-5.76252e-06
-7.96882e-06
-5.42884e-06
-8.4125e-06
-3.92062e-06
-8.89892e-06
-2.06961e-06
-9.73185e-06
1.35769e-06
-8.79993e-06
7.59412e-06
-7.05386e-06
9.17293e-06
-4.4091e-06
4.6789e-06
-1.40201e-06
2.57624e-06
1.07718e-07
2.35359e-06
1.70557e-06
4.9349e-06
-2.68944e-06
1.08699e-05
-8.8588e-06
1.19185e-05
-8.01941e-06
7.95458e-06
2.77999e-06
-2.69134e-06
1.8891e-05
-7.51677e-06
1.63144e-05
-4.2339e-06
8.77199e-06
1.13809e-06
7.37425e-06
4.41509e-06
8.16264e-06
2.86654e-06
7.28045e-06
-1.68847e-06
4.29048e-06
-7.10097e-06
-4.81306e-06
-1.02002e-05
-1.07594e-05
-1.12213e-05
-1.3708e-05
-1.20166e-05
-1.56426e-05
-1.20575e-05
-1.73258e-05
-9.94601e-06
-2.0088e-05
-7.02382e-06
-2.20873e-05
-5.60922e-06
-2.32603e-05
-5.84717e-06
-2.33206e-05
-6.91622e-06
-2.13573e-05
-8.82842e-06
-1.78913e-05
-1.17811e-05
-1.28674e-05
-1.54905e-05
-4.75075e-06
-1.61287e-05
1.75447e-06
-1.1037e-05
2.16109e-06
-4.51474e-06
-1.99893e-06
5.48005e-07
-3.07747e-06
2.73801e-06
9.28209e-07
4.04518e-06
7.28011e-06
-6.38928e-06
1.46914e-05
-1.27438e-05
1.53969e-05
-1.07091e-05
1.06648e-05
5.85418e-07
1.62341e-06
2.13094e-05
-2.73556e-06
1.74481e-05
-7.49843e-07
4.04862e-06
2.10257e-06
-5.00956e-08
3.49164e-06
-5.82596e-07
-1.83535e-07
-4.26992e-06
-6.46098e-06
-1.05183e-05
-1.12237e-05
-2.30799e-05
-1.21939e-05
-3.11465e-05
-1.1856e-05
-3.44615e-05
-1.06069e-05
-3.59367e-05
-8.57895e-06
-3.65516e-05
-7.26834e-06
-3.77541e-05
-6.56847e-06
-3.86768e-05
-5.96789e-06
-3.83555e-05
-5.50775e-06
-3.75166e-05
-5.61288e-06
-3.56552e-05
-6.83351e-06
-3.22281e-05
-9.97026e-06
-2.68502e-05
-1.32759e-05
-1.89786e-05
-1.44024e-05
-1.23972e-05
-1.11015e-05
-1.14757e-05
-5.48756e-06
-1.31298e-05
-9.50532e-08
-1.35877e-05
3.24704e-06
-7.56781e-06
8.79192e-08
7.76533e-06
-1.21626e-05
1.53285e-05
-1.81707e-05
1.46928e-05
-1.57026e-05
9.59188e-06
-4.1335e-06
5.01546e-06
1.886e-05
3.17521e-06
1.06804e-05
1.77113e-06
-5.93338e-06
-1.6033e-06
-1.12119e-05
-6.30564e-06
-1.38579e-05
-1.16554e-05
-2.02486e-05
-1.3577e-05
-2.5062e-05
-1.26636e-05
-3.10358e-05
-1.07702e-05
-3.68618e-05
-8.77582e-06
-4.02766e-05
-6.78965e-06
-4.08011e-05
-5.45294e-06
-3.96294e-05
-5.61059e-06
-3.93286e-05
-6.00903e-06
-3.94226e-05
-5.54845e-06
-3.85102e-05
-4.93008e-06
-3.72706e-05
-4.97344e-06
-3.59743e-05
-5.55484e-06
-3.40058e-05
-5.95059e-06
-3.19213e-05
-5.77846e-06
-2.91703e-05
-4.85691e-06
-2.58373e-05
-3.43547e-06
-2.39145e-05
-1.0798e-06
-2.33096e-05
1.86299e-06
-2.27149e-05
2.97765e-06
-1.84916e-05
-1.15863e-05
6.85471e-06
-1.85087e-05
1.2459e-05
-2.43932e-05
9.89695e-06
-2.18714e-05
6.79776e-06
-1.36205e-05
5.87733e-06
5.3984e-06
3.17177e-06
-5.8119e-06
-3.82052e-06
-1.98013e-05
-1.17167e-05
-2.39878e-05
-1.70089e-05
-2.6747e-05
-1.7489e-05
-2.86789e-05
-1.46082e-05
-3.01127e-05
-1.11254e-05
-3.11026e-05
-8.88102e-06
-3.34049e-05
-6.89745e-06
-3.64864e-05
-5.19874e-06
-3.73884e-05
-4.89331e-06
-3.60434e-05
-5.43147e-06
-3.5677e-05
-5.42487e-06
-3.59e-05
-4.5501e-06
-3.50234e-05
-3.32072e-06
-3.36634e-05
-2.61969e-06
-3.22123e-05
-2.75915e-06
-3.10865e-05
-2.32002e-06
-3.02128e-05
-1.23056e-06
-2.85362e-05
3.45213e-07
-2.71105e-05
1.84942e-06
-2.67419e-05
2.60086e-06
-2.75944e-05
1.5373e-06
-2.84007e-05
8.86241e-08
-2.69266e-05
-2.52123e-05
4.92237e-06
-2.35651e-05
5.88915e-06
-2.80688e-05
1.97925e-06
-2.39387e-05
3.23288e-06
-2.05176e-05
3.20813e-06
-1.35493e-05
-2.17748e-06
-2.26984e-05
-1.09697e-05
-2.84447e-05
-1.78436e-05
-2.93168e-05
-1.91225e-05
-3.05873e-05
-1.61172e-05
-3.1881e-05
-1.23796e-05
-3.21926e-05
-1.02145e-05
-3.15373e-05
-8.08506e-06
-3.14644e-05
-5.73297e-06
-3.25579e-05
-4.5927e-06
-3.33414e-05
-5.07064e-06
-3.20272e-05
-6.06493e-06
-3.22487e-05
-5.94035e-06
-3.2652e-05
-4.40044e-06
-3.19903e-05
-2.77633e-06
-3.0621e-05
-1.44243e-06
-2.88928e-05
-2.54993e-07
-2.7309e-05
1.97188e-07
-2.57868e-05
9.51838e-07
-2.43155e-05
2.89958e-06
-2.32268e-05
4.10337e-06
-2.34832e-05
3.27635e-06
-2.54763e-05
-5.02368e-08
-2.83767e-05
-1.21684e-06
-2.67722e-05
-2.89947e-05
2.58715e-06
-2.55376e-05
-7.73945e-07
-2.7646e-05
-5.53139e-06
-2.18267e-05
-2.51352e-06
-2.2462e-05
-2.60329e-06
-2.24624e-05
-8.21437e-06
-2.64403e-05
-1.49407e-05
-2.71337e-05
-1.89804e-05
-2.79683e-05
-1.83446e-05
-3.04425e-05
-1.48095e-05
-3.30163e-05
-1.12808e-05
-3.30376e-05
-8.9797e-06
-3.21617e-05
-7.04335e-06
-3.1137e-05
-4.51545e-06
-3.06772e-05
-2.61437e-06
-2.99845e-05
-2.63504e-06
-2.83844e-05
-3.18076e-06
-2.89301e-05
-3.71183e-06
-2.88221e-05
-3.19077e-06
-2.74402e-05
-1.58235e-06
-2.55081e-05
-1.99865e-08
-2.37421e-05
9.18411e-07
-2.20452e-05
1.68126e-06
-2.05245e-05
2.64818e-06
-1.9085e-05
3.39397e-06
-1.78054e-05
3.0274e-06
-1.77748e-05
5.61844e-08
-1.99472e-05
-2.37663e-06
-2.35115e-05
-1.45588e-06
-2.2469e-05
-2.47735e-05
-6.8223e-07
-2.35569e-05
-6.35877e-06
-2.51597e-05
-9.84503e-06
-1.95899e-05
-5.77748e-06
-2.15345e-05
-5.81538e-06
-2.21594e-05
-1.12409e-05
-2.26314e-05
-1.69902e-05
-2.27019e-05
-1.8595e-05
-2.53249e-05
-1.65053e-05
-2.94421e-05
-1.33797e-05
-3.12014e-05
-1.11201e-05
-3.08245e-05
-8.74634e-06
-3.07176e-05
-6.11441e-06
-3.00876e-05
-2.92769e-06
-2.9086e-05
-7.03771e-07
-2.68673e-05
-4.9651e-07
-2.54532e-05
-8.20313e-07
-2.57771e-05
-7.34523e-07
-2.48934e-05
3.29439e-08
-2.26855e-05
1.24665e-06
-2.0181e-05
2.8585e-06
-1.81133e-05
4.24184e-06
-1.65373e-05
4.79721e-06
-1.4964e-05
4.80109e-06
-1.30926e-05
4.37332e-06
-1.14467e-05
2.39937e-06
-1.12792e-05
-9.64966e-07
-1.35528e-05
-2.76764e-06
-1.69905e-05
-2.90802e-06
-1.75098e-05
-1.56433e-05
-5.81575e-06
-1.72033e-05
-1.37944e-05
-2.19091e-05
-1.57537e-05
-1.81724e-05
-1.05039e-05
-1.92976e-05
-1.18756e-05
-1.91366e-05
-1.59865e-05
-1.82673e-05
-1.82793e-05
-1.91727e-05
-1.71615e-05
-2.26384e-05
-1.40668e-05
-2.65684e-05
-1.14921e-05
-2.68634e-05
-9.48161e-06
-2.66437e-05
-7.43743e-06
-2.71791e-05
-5.28822e-06
-2.65902e-05
-1.71919e-06
-2.55204e-05
1.08271e-06
-2.32028e-05
1.62718e-06
-2.24305e-05
1.47666e-06
-2.23217e-05
1.27796e-06
-2.08874e-05
1.77054e-06
-1.8243e-05
3.36751e-06
-1.5244e-05
5.43794e-06
-1.26583e-05
6.81189e-06
-1.0112e-05
6.33922e-06
-7.64704e-06
4.37005e-06
-5.76081e-06
2.37158e-06
-4.69123e-06
5.70619e-07
-5.01809e-06
-1.45146e-06
-6.88639e-06
-3.55291e-06
-9.9161e-06
-4.78075e-06
-1.17413e-05
-8.40362e-06
-5.75817e-06
-1.09021e-05
-1.60153e-05
-1.79395e-05
-2.04594e-05
-1.66374e-05
-1.70912e-05
-1.75015e-05
-1.76728e-05
-1.65563e-05
-1.85423e-05
-1.61444e-05
-1.8041e-05
-1.76278e-05
-1.53194e-05
-2.0185e-05
-1.19765e-05
-2.23482e-05
-9.82972e-06
-2.2277e-05
-8.07833e-06
-2.28211e-05
-5.7644e-06
-2.33446e-05
-2.86249e-06
-2.2696e-05
7.14612e-07
-2.15917e-05
3.46188e-06
-1.9778e-05
4.79384e-06
-1.92638e-05
5.34379e-06
-1.84817e-05
5.29286e-06
-1.68889e-05
5.37721e-06
-1.35924e-05
6.36991e-06
-9.36617e-06
6.88307e-06
-5.48283e-06
5.63679e-06
-2.38483e-06
3.64949e-06
-3.84407e-07
1.93343e-06
4.53526e-07
4.13869e-07
3.50433e-07
-1.12285e-06
-4.14073e-07
-2.6404e-06
-1.7353e-06
-3.27255e-06
-3.68139e-06
-4.0773e-06
-5.65315e-06
-5.43168e-06
-1.99793e-06
-8.18418e-06
-1.49311e-05
-1.40192e-05
-2.33828e-05
-1.48538e-05
-2.1088e-05
-1.63959e-05
-2.03363e-05
-1.51085e-05
-1.91308e-05
-1.54247e-05
-1.70266e-05
-1.68651e-05
-1.2945e-05
-1.79003e-05
-8.70624e-06
-1.87387e-05
-5.79628e-06
-1.8703e-05
-3.55546e-06
-1.888e-05
-1.98436e-06
-1.9158e-05
8.10018e-07
-1.85454e-05
4.35673e-06
-1.72169e-05
6.65601e-06
-1.5433e-05
8.3972e-06
-1.48066e-05
9.41629e-06
-1.38462e-05
9.29272e-06
-1.18961e-05
8.56004e-06
-7.81267e-06
7.37588e-06
-2.09414e-06
5.70107e-06
1.96027e-06
3.92465e-06
3.63679e-06
2.29729e-06
3.97537e-06
1.09354e-06
3.65897e-06
2.0517e-07
2.98374e-06
-5.8446e-07
2.06405e-06
-1.38985e-06
9.28227e-07
-2.28341e-06
-3.83835e-07
-2.29842e-06
-1.67859e-06
-2.59772e-06
-1.40044e-06
-6.84654e-06
-1.57379e-05
-1.033e-05
-2.45706e-05
-1.31692e-05
-2.24649e-05
-1.53839e-05
-2.06256e-05
-1.411e-05
-1.81707e-05
-1.48782e-05
-1.43795e-05
-1.55724e-05
-8.8478e-06
-1.55729e-05
-3.03706e-06
-1.57218e-05
9.86841e-07
-1.53358e-05
2.99668e-06
-1.47217e-05
3.78309e-06
-1.42161e-05
5.39576e-06
-1.21678e-05
7.4506e-06
-1.06071e-05
9.39758e-06
-9.48075e-06
1.14579e-05
-8.91193e-06
1.27285e-05
-7.88264e-06
1.19328e-05
-5.61336e-06
9.49062e-06
-1.72479e-07
6.8385e-06
4.64098e-06
4.72693e-06
6.24969e-06
3.28009e-06
6.48565e-06
2.31752e-06
6.17404e-06
1.49048e-06
5.52142e-06
7.24485e-07
4.63961e-06
4.35792e-08
3.59333e-06
-4.76341e-07
2.41999e-06
-7.34955e-07
1.1507e-06
-8.11414e-07
-1.31082e-07
-1.19426e-06
-1.18677e-07
-5.66809e-06
-1.52957e-05
-5.93915e-06
-2.48208e-05
-1.08309e-05
-2.23725e-05
-1.42346e-05
-1.95831e-05
-1.27155e-05
-1.49382e-05
-1.33395e-05
-8.74777e-06
-1.25056e-05
-2.26063e-06
-1.25883e-05
4.00384e-06
-1.22783e-05
8.00643e-06
-1.10269e-05
9.25368e-06
-1.0142e-05
8.47078e-06
-8.33338e-06
7.92199e-06
-5.13873e-06
8.71426e-06
-3.68015e-06
1.11317e-05
-3.09626e-06
1.37265e-05
-2.56845e-06
1.43681e-05
-1.24483e-06
1.20484e-05
1.99686e-06
8.50381e-06
6.38761e-06
6.24883e-06
8.11973e-06
5.07565e-06
8.46042e-06
4.15999e-06
8.24231e-06
3.26913e-06
7.70091e-06
2.35778e-06
6.93464e-06
1.47109e-06
5.97351e-06
6.83688e-07
4.8325e-06
7.59677e-08
3.54949e-06
-2.74313e-07
2.19887e-06
-3.17022e-07
8.60287e-07
-1.69119e-07
2.36095e-07
-4.9466e-06
-1.51325e-05
-3.21788e-06
-2.43666e-05
-8.14648e-06
-2.0376e-05
-1.20767e-05
-1.56652e-05
-8.91159e-06
-9.07816e-06
-9.69024e-06
-1.51955e-06
-8.17281e-06
4.84372e-06
-8.65867e-06
1.08473e-05
-7.64442e-06
1.39341e-05
-5.77344e-06
1.28722e-05
-4.32527e-06
9.95483e-06
-7.42007e-07
9.05125e-06
1.91324e-06
1.06537e-05
2.94005e-06
1.31206e-05
3.30715e-06
1.47598e-05
3.64108e-06
1.37461e-05
5.07334e-06
1.05956e-05
7.76013e-06
8.39023e-06
9.44487e-06
7.32543e-06
9.91428e-06
6.4598e-06
9.85784e-06
5.53641e-06
9.51975e-06
4.508e-06
8.97415e-06
3.40637e-06
8.22315e-06
2.31668e-06
7.23284e-06
1.34925e-06
5.99194e-06
5.99339e-07
4.56205e-06
9.82501e-08
3.06233e-06
-1.38558e-07
1.60751e-06
3.70674e-07
-9.18627e-06
-1.80993e-06
-2.12706e-05
-1.24053e-06
-2.16576e-05
-6.7263e-06
-1.605e-05
-9.17012e-06
-8.73461e-06
-2.99706e-06
-1.16696e-06
-3.83273e-06
6.01072e-06
-3.56973e-06
1.28138e-05
-3.65368e-06
1.70156e-05
-2.02978e-06
1.74155e-05
-3.29592e-08
1.4588e-05
3.41688e-06
1.16876e-05
7.02122e-06
1.09363e-05
8.15567e-06
1.1918e-05
8.1357e-06
1.36421e-05
7.75993e-06
1.42703e-05
7.83827e-06
1.26393e-05
8.89844e-06
1.07409e-05
1.02747e-05
9.77623e-06
1.08724e-05
8.9933e-06
1.10062e-05
8.14354e-06
1.08945e-05
7.14178e-06
1.06043e-05
5.95305e-06
1.01495e-05
4.62365e-06
9.47703e-06
3.28607e-06
8.48553e-06
2.09955e-06
7.13303e-06
1.18823e-06
5.51008e-06
5.61207e-07
3.84097e-06
1.23235e-07
2.24784e-06
7.3747e-07
-1.61235e-05
3.16231e-06
-1.99357e-05
4.39605e-06
-1.49722e-05
-2.71733e-06
-8.52771e-06
-2.08912e-06
-1.62662e-06
4.26215e-06
7.18903e-06
2.96679e-06
1.47801e-05
1.85056e-06
1.9617e-05
2.26751e-06
2.06521e-05
4.21381e-06
1.79668e-05
8.16846e-06
1.43726e-05
1.19406e-05
1.25548e-05
1.23912e-05
1.21664e-05
1.15605e-05
1.2938e-05
1.05108e-05
1.39437e-05
9.74046e-06
1.39105e-05
9.81154e-06
1.28976e-05
1.06142e-05
1.20948e-05
1.13387e-05
1.14654e-05
1.16784e-05
1.0803e-05
1.17694e-05
9.98148e-06
1.17114e-05
8.94596e-06
1.15644e-05
7.63325e-06
1.13104e-05
6.10815e-06
1.07982e-05
4.5502e-06
9.82395e-06
3.12143e-06
8.32379e-06
1.97774e-06
6.41524e-06
1.15647e-06
4.45581e-06
4.4739e-07
2.73729e-06
9.71672e-07
-1.36972e-05
9.54597e-06
-1.58047e-05
1.42548e-05
-9.68312e-06
8.88438e-06
-3.60206e-07
1.2866e-05
8.63284e-06
1.30816e-05
1.7134e-05
9.39202e-06
2.24613e-05
7.79742e-06
2.39255e-05
9.08644e-06
2.06329e-05
1.31967e-05
1.56941e-05
1.67079e-05
1.31497e-05
1.61988e-05
1.26001e-05
1.48175e-05
1.28915e-05
1.31863e-05
1.35947e-05
1.17621e-05
1.42325e-05
1.08928e-05
1.42934e-05
1.08735e-05
1.39235e-05
1.13909e-05
1.35257e-05
1.19014e-05
1.31181e-05
1.21884e-05
1.26309e-05
1.23028e-05
1.19857e-05
1.23394e-05
1.10459e-05
1.23601e-05
9.70498e-06
1.23648e-05
8.11325e-06
1.20498e-05
6.45565e-06
1.11317e-05
4.78895e-06
9.54074e-06
3.13846e-06
7.46732e-06
1.76511e-06
5.24637e-06
7.20737e-07
2.94112e-06
1.04723e-06
-8.02861e-06
1.82501e-05
-9.46696e-06
2.71694e-05
-2.8576e-06
2.54018e-05
8.49249e-06
2.50048e-05
1.81384e-05
1.79469e-05
2.42058e-05
1.37507e-05
2.64201e-05
1.40959e-05
2.3006e-05
1.80505e-05
1.68449e-05
2.05352e-05
1.36062e-05
1.9728e-05
1.31197e-05
1.81702e-05
1.31986e-05
1.62394e-05
1.35741e-05
1.43372e-05
1.41627e-05
1.27734e-05
1.47175e-05
1.18249e-05
1.49653e-05
1.16287e-05
1.49281e-05
1.19367e-05
1.47878e-05
1.23253e-05
1.46159e-05
1.25454e-05
1.44118e-05
1.26017e-05
1.40813e-05
1.26101e-05
1.34362e-05
1.27297e-05
1.2374e-05
1.2989e-05
1.11041e-05
1.28368e-05
9.62879e-06
1.21218e-05
7.87923e-06
1.0568e-05
5.28824e-06
8.82576e-06
1.74562e-06
6.30776e-06
7.60156e-07
3.50482e-06
9.69861e-07
-2.23042e-06
2.39792e-05
-1.39938e-08
3.54426e-05
5.5586e-06
3.4388e-05
1.51422e-05
2.59317e-05
2.39141e-05
1.85106e-05
2.74273e-05
1.75961e-05
2.49774e-05
2.1183e-05
1.88046e-05
2.29015e-05
1.5341e-05
2.29968e-05
1.46067e-05
2.16527e-05
1.4261e-05
1.95903e-05
1.41436e-05
1.73883e-05
1.43157e-05
1.53476e-05
1.47342e-05
1.37153e-05
1.5222e-05
1.27231e-05
1.5573e-05
1.24217e-05
1.57135e-05
1.25786e-05
1.57099e-05
1.28134e-05
1.5712e-05
1.28507e-05
1.58019e-05
1.26567e-05
1.59279e-05
1.24231e-05
1.58787e-05
1.24e-05
1.55686e-05
1.2728e-05
1.51954e-05
1.25931e-05
1.41882e-05
1.24136e-05
1.23708e-05
9.85694e-06
8.21732e-06
5.66189e-07
2.01604e-06
-8.42073e-06
1.16621e-07
-6.51009e-07
8.44041e-07
4.48346e-06
2.12564e-05
7.61424e-06
3.05887e-05
1.43101e-05
2.8282e-05
2.16268e-05
2.16261e-05
2.63229e-05
1.84798e-05
2.59657e-05
2.04708e-05
2.11386e-05
2.38681e-05
1.81292e-05
2.56295e-05
1.70497e-05
2.50306e-05
1.61883e-05
2.31016e-05
1.54903e-05
2.07479e-05
1.50777e-05
1.83768e-05
1.49885e-05
1.62404e-05
1.51838e-05
1.45767e-05
1.55553e-05
1.36263e-05
1.59147e-05
1.33487e-05
1.61012e-05
1.34521e-05
1.60808e-05
1.35212e-05
1.60337e-05
1.32465e-05
1.6245e-05
1.26121e-05
1.67525e-05
1.20145e-05
1.74397e-05
1.15512e-05
1.81077e-05
1.13626e-05
1.92343e-05
1.0159e-05
1.73304e-05
4.4964e-06
1.01807e-05
-2.8982e-06
1.4519e-06
-1.28353e-05
-3.16089e-06
-1.89416e-05
-2.67148e-06
-1.09032e-05
-2.927e-06
7.59223e-06
1.50269e-05
1.21145e-05
2.02179e-05
1.76955e-05
1.91281e-05
2.26657e-05
1.67114e-05
2.4829e-05
1.6964e-05
2.30814e-05
2.17418e-05
2.11915e-05
2.62068e-05
1.99099e-05
2.7394e-05
1.86841e-05
2.63411e-05
1.7525e-05
2.41903e-05
1.65403e-05
2.16771e-05
1.58765e-05
1.91927e-05
1.54861e-05
1.69555e-05
1.53401e-05
1.52372e-05
1.54898e-05
1.44112e-05
1.57782e-05
1.43424e-05
1.59248e-05
1.4544e-05
1.57601e-05
1.44572e-05
1.54495e-05
1.36193e-05
1.56313e-05
1.25445e-05
1.61502e-05
1.15749e-05
1.70543e-05
1.07146e-05
1.86564e-05
9.78641e-06
1.64933e-05
4.76112e-06
1.05304e-05
-3.83686e-06
5.10449e-06
-5.63313e-06
3.04212e-07
-7.57217e-06
-1.53014e-06
-7.60601e-06
-3.63244e-06
-1.6703e-05
-1.00737e-05
6.56743e-06
1.03433e-05
1.17988e-05
1.61845e-05
1.69036e-05
1.63456e-05
2.07567e-05
1.36169e-05
2.24767e-05
1.66228e-05
2.25973e-05
2.16391e-05
2.16416e-05
2.69226e-05
2.08765e-05
2.88484e-05
1.99568e-05
2.76458e-05
1.87918e-05
2.49108e-05
1.76159e-05
2.22645e-05
1.66397e-05
1.9749e-05
1.57425e-05
1.71816e-05
1.49792e-05
1.51727e-05
1.47869e-05
1.49164e-05
1.49542e-05
1.52853e-05
1.49785e-05
1.57602e-05
1.45259e-05
1.54532e-05
1.41369e-05
1.41043e-05
1.41997e-05
1.24364e-05
1.45903e-05
1.11128e-05
1.54416e-05
9.98816e-06
1.70465e-05
8.4455e-06
1.17248e-05
4.17375e-06
6.05188e-06
-2.4751e-06
3.09762e-06
7.80564e-06
8.48566e-07
8.55789e-06
3.16093e-06
3.35675e-06
1.68078e-06
-1.57191e-05
-1.49495e-05
3.38596e-06
-8.24228e-06
1.18556e-05
-5.3739e-06
1.74624e-05
-6.47038e-06
1.97027e-05
-6.94562e-07
2.04269e-05
1.21936e-05
2.12654e-05
1.89681e-05
2.143e-05
2.72322e-05
2.18123e-05
2.95462e-05
2.14095e-05
2.77512e-05
2.03511e-05
2.36936e-05
1.89697e-05
2.16146e-05
1.74975e-05
1.95547e-05
1.56575e-05
1.73344e-05
1.39837e-05
1.40414e-05
1.31931e-05
1.4683e-05
1.33542e-05
1.61492e-05
1.32059e-05
1.70517e-05
1.26468e-05
1.63743e-05
1.22373e-05
1.43199e-05
1.22815e-05
1.22669e-05
1.25956e-05
1.08073e-05
1.28076e-05
9.63056e-06
1.26564e-05
8.13485e-06
9.36e-06
5.44447e-06
2.85537e-06
3.4386e-07
-1.4484e-06
1.29862e-05
8.15185e-09
1.81739e-05
3.71795e-06
3.7229e-06
5.07719e-06
-1.47806e-05
-1.25305e-05
4.2631e-06
-3.23118e-05
1.02422e-05
-3.48577e-05
1.70337e-05
-3.72589e-05
1.93642e-05
-3.32728e-05
1.93786e-05
-1.46696e-05
1.93639e-05
3.55889e-06
2.08295e-05
5.23087e-06
2.45215e-05
3.40015e-06
2.43322e-05
3.70401e-06
2.24873e-05
1.29255e-05
2.04995e-05
1.72451e-05
1.90645e-05
1.40374e-05
1.52928e-05
1.56057e-06
1.08304e-05
-3.10273e-06
1.04796e-05
1.38971e-05
1.07644e-05
1.68879e-05
1.08186e-05
1.81103e-05
1.06434e-05
1.69589e-05
1.06123e-05
1.43974e-05
1.06722e-05
1.20855e-05
1.09998e-05
1.07188e-05
1.11156e-05
9.65982e-06
1.06801e-05
8.10727e-06
9.64585e-06
5.22228e-06
7.78015e-06
-2.33576e-06
1.1596e-06
-7.80679e-06
6.52654e-07
-3.14763e-06
3.61751e-06
-1.69121e-05
3.18108e-06
-2.80368e-05
-1.9535e-05
5.10169e-06
-3.87236e-05
1.09752e-05
-4.40087e-05
1.88138e-05
-4.69826e-05
2.50634e-05
-5.11441e-05
2.35545e-05
-4.81137e-05
2.31143e-05
-3.40658e-05
2.51331e-05
-3.42176e-05
2.34997e-05
-3.65916e-05
2.16901e-05
-3.57788e-05
2.00945e-05
-2.27184e-05
1.68601e-05
-1.45975e-05
1.20336e-05
-1.85239e-05
9.36134e-06
-3.15938e-05
5.81999e-06
-3.9917e-05
6.20275e-06
-1.49948e-05
6.53006e-06
1.53347e-05
7.74683e-06
1.52979e-05
8.70825e-06
1.3831e-05
9.12549e-06
1.14953e-05
9.26631e-06
8.7251e-06
9.71815e-06
7.12729e-06
1.03392e-05
6.85501e-06
1.00873e-05
4.04189e-06
8.96622e-06
-8.02862e-06
3.21133e-06
-3.35199e-05
3.35555e-06
-4.19036e-05
7.79918e-06
-3.97285e-05
7.49187e-06
-4.58492e-05
5.41342e-07
-5.06581e-05
-4.09815e-05
4.57223e-06
-4.10999e-05
1.03116e-05
-4.73661e-05
1.67325e-05
-5.12711e-05
1.97955e-05
-5.49099e-05
1.90187e-05
-5.35021e-05
1.87199e-05
-5.12108e-05
1.84711e-05
-4.89151e-05
1.68999e-05
-4.84308e-05
1.45114e-05
-4.65663e-05
9.61169e-06
-3.82189e-05
4.39268e-06
-3.56222e-05
4.32642e-06
-3.999e-05
7.90146e-06
-4.6235e-05
5.90299e-06
-5.39744e-05
-4.12378e-06
-5.16102e-05
-3.62617e-06
-2.2291e-05
3.07378e-06
-2.48615e-05
6.84524e-06
-2.66427e-05
7.15869e-06
-2.98372e-05
6.76983e-06
-3.28309e-05
7.21755e-06
-3.4298e-05
8.07743e-06
-3.49607e-05
9.18373e-06
-3.79524e-05
6.56801e-06
-4.95021e-05
3.76314e-06
-6.26748e-05
5.71719e-06
-5.91841e-05
7.72487e-06
-5.69473e-05
7.32246e-06
-5.76049e-05
3.378e-06
-5.87824e-05
-5.67585e-05
3.89546e-06
-4.37948e-05
8.87526e-06
-5.04554e-05
1.32518e-05
-5.43954e-05
1.22929e-05
-5.51479e-05
1.0585e-05
-5.00507e-05
1.25126e-05
-4.93289e-05
1.23948e-05
-4.77363e-05
1.08307e-05
-4.70034e-05
8.75161e-06
-4.24263e-05
4.88559e-06
-3.58297e-05
2.38433e-06
-3.71742e-05
3.95855e-06
-4.28169e-05
5.46486e-06
-4.93424e-05
4.64887e-06
-5.58956e-05
2.98518e-06
-5.95524e-05
2.78103e-06
-5.93694e-05
2.7236e-06
-6.09118e-05
2.47291e-06
-6.24689e-05
2.30143e-06
-6.40763e-05
1.92258e-06
-6.58296e-05
1.00148e-06
-6.74967e-05
-2.61064e-08
-6.8823e-05
-6.563e-07
-6.90366e-05
-3.68469e-07
-6.74356e-05
1.88623e-06
-6.3186e-05
4.3765e-06
-5.88718e-05
5.58804e-06
-5.58566e-05
5.22814e-06
-5.47953e-05
3.18882e-06
-5.47076e-05
-5.43388e-05
3.0992e-06
-4.55411e-05
6.92656e-06
-5.2326e-05
9.75919e-06
-5.52305e-05
5.36706e-06
-5.35597e-05
2.65471e-06
-4.54856e-05
5.93921e-06
-4.63976e-05
6.1494e-06
-4.59822e-05
5.75228e-06
-4.35447e-05
3.65486e-06
-3.80673e-05
2.97851e-08
-3.63279e-05
-3.8541e-07
-3.97286e-05
1.43963e-06
-4.44214e-05
2.36987e-06
-5.02043e-05
1.97492e-06
-5.54178e-05
9.87598e-07
-5.82335e-05
5.62586e-07
-5.8943e-05
2.37427e-07
-5.99139e-05
-1.00676e-07
-6.10722e-05
-8.641e-08
-6.20642e-05
-4.89751e-07
-6.33061e-05
-2.04397e-06
-6.47573e-05
-3.72953e-06
-6.61631e-05
-4.4587e-06
-6.63289e-05
-3.81529e-06
-6.4718e-05
-1.4459e-06
-6.08528e-05
1.2886e-06
-5.60987e-05
3.02012e-06
-5.2056e-05
3.25426e-06
-5.0249e-05
2.28597e-06
-4.94744e-05
-4.97257e-05
2.34119e-06
-4.61472e-05
5.38537e-06
-5.28284e-05
6.68759e-06
-5.45962e-05
1.29025e-08
-5.07962e-05
-3.33728e-06
-4.26455e-05
-3.37147e-08
-4.41217e-05
5.86916e-07
-4.32861e-05
2.71455e-07
-3.94974e-05
-1.85119e-06
-3.71425e-05
-3.79328e-06
-3.81823e-05
-2.93842e-06
-4.18686e-05
-8.0372e-07
-4.47818e-05
4.58415e-07
-4.94985e-05
3.09962e-07
-5.38817e-05
-4.67772e-07
-5.57628e-05
-7.53895e-07
-5.64902e-05
-8.96999e-07
-5.67541e-05
-1.1723e-06
-5.78514e-05
-1.57899e-06
-5.95588e-05
-2.03283e-06
-6.0913e-05
-3.35817e-06
-6.20726e-05
-5.02872e-06
-6.34329e-05
-5.97528e-06
-6.37961e-05
-5.44239e-06
-6.26136e-05
-2.8816e-06
-5.88627e-05
1.86147e-07
-5.37312e-05
1.88695e-06
-4.91144e-05
1.94442e-06
-4.65129e-05
1.42242e-06
-4.55993e-05
-4.60055e-05
1.60385e-06
-4.59654e-05
3.69022e-06
-5.24086e-05
3.00969e-06
-5.32535e-05
-4.04752e-06
-4.70019e-05
-7.37833e-06
-4.09217e-05
-4.76665e-06
-4.20237e-05
-4.51165e-06
-4.06177e-05
-5.65069e-06
-3.80777e-05
-7.20306e-06
-3.81764e-05
-6.70934e-06
-3.98663e-05
-4.73571e-06
-4.22905e-05
-2.76645e-06
-4.41813e-05
-1.16357e-06
-4.81908e-05
-9.71443e-07
-5.17212e-05
-1.85184e-06
-5.31736e-05
-2.34729e-06
-5.33748e-05
-2.35698e-06
-5.41202e-05
-2.45061e-06
-5.50676e-05
-2.88753e-06
-5.63824e-05
-3.93438e-06
-5.79832e-05
-5.56326e-06
-5.90572e-05
-7.07596e-06
-6.0257e-05
-7.72273e-06
-6.07527e-05
-7.2503e-06
-5.98705e-05
-4.9748e-06
-5.63187e-05
-1.7791e-06
-5.11629e-05
6.38801e-07
-4.59606e-05
1.50339e-06
-4.2146e-05
1.01633e-06
-4.0918e-05
-4.23351e-05
8.17931e-07
-4.53494e-05
1.87859e-06
-5.16065e-05
-1.8561e-06
-5.09384e-05
-9.32297e-06
-4.25794e-05
-1.11724e-05
-3.91528e-05
-9.54821e-06
-4.01515e-05
-9.94929e-06
-3.91169e-05
-1.09976e-05
-3.82143e-05
-1.09103e-05
-3.86846e-05
-8.67468e-06
-4.03427e-05
-5.88623e-06
-4.09607e-05
-3.71335e-06
-4.24179e-05
-2.08273e-06
-4.62956e-05
-1.91379e-06
-4.90306e-05
-2.71496e-06
-4.99277e-05
-3.11535e-06
-5.0434e-05
-3.47384e-06
-5.12143e-05
-4.06218e-06
-5.2552e-05
-4.68703e-06
-5.38175e-05
-5.77287e-06
-5.49495e-05
-7.46361e-06
-5.59193e-05
-9.07367e-06
-5.70762e-05
-9.94668e-06
-5.77118e-05
-9.50545e-06
-5.71963e-05
-7.11793e-06
-5.4389e-05
-3.61395e-06
-4.91817e-05
-9.18519e-07
-4.35646e-05
4.44912e-08
-3.8845e-05
1.87488e-07
-3.72054e-05
-3.9424e-05
4.76731e-08
-4.45561e-05
2.03204e-08
-5.05066e-05
-6.04492e-06
-4.78665e-05
-1.42684e-05
-3.85689e-05
-1.46192e-05
-3.74952e-05
-1.39109e-05
-3.87729e-05
-1.46614e-05
-3.80791e-05
-1.46275e-05
-3.75052e-05
-1.24374e-05
-3.80919e-05
-9.03289e-06
-3.93941e-05
-5.96103e-06
-3.89171e-05
-3.96729e-06
-3.98835e-05
-2.73266e-06
-4.38186e-05
-2.69747e-06
-4.61638e-05
-3.64885e-06
-4.69041e-05
-4.425e-06
-4.72278e-05
-4.66036e-06
-4.80695e-05
-5.18799e-06
-4.94578e-05
-6.33576e-06
-5.11491e-05
-7.57996e-06
-5.24552e-05
-9.15095e-06
-5.30743e-05
-1.04988e-05
-5.41232e-05
-1.11192e-05
-5.4958e-05
-1.07242e-05
-5.46729e-05
-8.53481e-06
-5.22241e-05
-5.08507e-06
-4.71815e-05
-2.09858e-06
-4.10705e-05
-6.27794e-07
-3.57764e-05
-3.24417e-07
-3.36444e-05
-3.60333e-05
-7.01624e-07
-4.36465e-05
-1.6227e-06
-4.90843e-05
-8.56535e-06
-4.44395e-05
-1.77078e-05
-3.51208e-05
-1.82629e-05
-3.58678e-05
-1.77157e-05
-3.75327e-05
-1.70424e-05
-3.68951e-05
-1.52402e-05
-3.60889e-05
-1.23058e-05
-3.66492e-05
-8.71164e-06
-3.6944e-05
-5.61113e-06
-3.64919e-05
-3.91472e-06
-3.77486e-05
-3.18613e-06
-4.10011e-05
-3.86751e-06
-4.31731e-05
-5.04976e-06
-4.36697e-05
-5.49768e-06
-4.3848e-05
-5.88781e-06
-4.50653e-05
-6.42435e-06
-4.64253e-05
-7.49592e-06
-4.7879e-05
-9.15765e-06
-4.9207e-05
-1.06418e-05
-4.97218e-05
-1.19068e-05
-5.05862e-05
-1.26251e-05
-5.17931e-05
-1.23901e-05
-5.18478e-05
-1.03451e-05
-5.00707e-05
-6.75906e-06
-4.52983e-05
-3.41844e-06
-3.88081e-05
-1.70861e-06
-3.26418e-05
-1.20005e-06
-3.00496e-05
-3.2474e-05
-1.44638e-06
-4.26097e-05
-3.64844e-06
-4.71144e-05
-1.16238e-05
-4.05718e-05
-2.07671e-05
-3.21529e-05
-2.10441e-05
-3.40478e-05
-1.92377e-05
-3.61084e-05
-1.66623e-05
-3.54209e-05
-1.41519e-05
-3.4066e-05
-1.10307e-05
-3.47721e-05
-7.69839e-06
-3.37919e-05
-5.07955e-06
-3.34064e-05
-3.19821e-06
-3.57808e-05
-2.96111e-06
-3.82126e-05
-4.55542e-06
-3.98753e-05
-6.30546e-06
-4.02315e-05
-7.19358e-06
-4.07571e-05
-7.44217e-06
-4.18104e-05
-8.06973e-06
-4.32806e-05
-9.11023e-06
-4.48012e-05
-1.04567e-05
-4.58813e-05
-1.18123e-05
-4.63802e-05
-1.27966e-05
-4.71138e-05
-1.34374e-05
-4.85654e-05
-1.33406e-05
-4.89314e-05
-1.17075e-05
-4.77984e-05
-8.34067e-06
-4.34653e-05
-4.82672e-06
-3.68118e-05
-2.69235e-06
-2.96499e-05
-1.77302e-06
-2.66796e-05
-2.87891e-05
-1.94642e-06
-4.13896e-05
-5.89469e-06
-4.46481e-05
-1.5158e-05
-3.67245e-05
-2.25865e-05
-2.99939e-05
-2.21062e-05
-3.20965e-05
-1.8749e-05
-3.44733e-05
-1.54874e-05
-3.31607e-05
-1.29898e-05
-3.17348e-05
-9.60884e-06
-3.19169e-05
-6.19806e-06
-3.08369e-05
-3.7805e-06
-3.08934e-05
-2.40796e-06
-3.30637e-05
-3.04984e-06
-3.52666e-05
-5.43661e-06
-3.63908e-05
-7.67481e-06
-3.67135e-05
-8.75504e-06
-3.72202e-05
-9.21103e-06
-3.84849e-05
-9.66813e-06
-4.00044e-05
-1.05497e-05
-4.14803e-05
-1.17423e-05
-4.25416e-05
-1.27816e-05
-4.2932e-05
-1.3567e-05
-4.35616e-05
-1.40778e-05
-4.51338e-05
-1.42284e-05
-4.57499e-05
-1.31123e-05
-4.50508e-05
-1.00089e-05
-4.13811e-05
-6.16524e-06
-3.47167e-05
-3.52911e-06
-2.70089e-05
-2.18633e-06
-2.33546e-05
-2.50032e-05
-2.14293e-06
-3.98167e-05
-7.46023e-06
-4.13788e-05
-1.78526e-05
-3.245e-05
-2.30944e-05
-2.80204e-05
-2.11879e-05
-2.98604e-05
-1.6924e-05
-3.20826e-05
-1.39151e-05
-3.01293e-05
-1.12711e-05
-2.97271e-05
-7.77321e-06
-2.84127e-05
-4.517e-06
-2.80446e-05
-2.28107e-06
-2.87087e-05
-1.43595e-06
-3.02909e-05
-3.0975e-06
-3.19246e-05
-6.31425e-06
-3.26035e-05
-9.02895e-06
-3.28855e-05
-1.04393e-05
-3.36306e-05
-1.11278e-05
-3.49794e-05
-1.15838e-05
-3.66154e-05
-1.20912e-05
-3.79602e-05
-1.28125e-05
-3.87698e-05
-1.35178e-05
-3.92372e-05
-1.40308e-05
-3.99123e-05
-1.45017e-05
-4.15292e-05
-1.47934e-05
-4.25017e-05
-1.40889e-05
-4.22458e-05
-1.14856e-05
-3.92348e-05
-7.51573e-06
-3.27291e-05
-4.41034e-06
-2.46245e-05
-2.71445e-06
-2.02992e-05
-2.13543e-05
-2.92749e-06
-3.77283e-05
-9.05953e-06
-3.78757e-05
-1.91446e-05
-2.80803e-05
-2.21546e-05
-2.53457e-05
-1.93978e-05
-2.77329e-05
-1.51928e-05
-2.88148e-05
-1.25436e-05
-2.72682e-05
-9.10649e-06
-2.67538e-05
-5.49838e-06
-2.56933e-05
-2.7268e-06
-2.53178e-05
-4.89319e-07
-2.61827e-05
-5.30428e-07
-2.73674e-05
-3.31224e-06
-2.82171e-05
-7.28626e-06
-2.85685e-05
-1.05245e-05
-2.89082e-05
-1.23506e-05
-2.98408e-05
-1.31837e-05
-3.1363e-05
-1.35027e-05
-3.29917e-05
-1.36468e-05
-3.43467e-05
-1.37912e-05
-3.49781e-05
-1.40437e-05
-3.53853e-05
-1.43174e-05
-3.61545e-05
-1.46636e-05
-3.7682e-05
-1.50314e-05
-3.89793e-05
-1.48031e-05
-3.90266e-05
-1.27624e-05
-3.68504e-05
-8.79444e-06
-3.08364e-05
-5.32764e-06
-2.24124e-05
-3.31854e-06
-1.73296e-05
-1.77493e-05
-4.48729e-06
-3.45814e-05
-1.13044e-05
-3.44431e-05
-2.07839e-05
-2.40825e-05
-2.15405e-05
-2.25401e-05
-1.72952e-05
-2.5211e-05
-1.30392e-05
-2.52356e-05
-1.03174e-05
-2.50326e-05
-6.82045e-06
-2.31703e-05
-3.17669e-06
-2.30344e-05
-5.24352e-07
-2.27942e-05
1.02244e-06
-2.33085e-05
1.05783e-07
-2.38826e-05
-3.60356e-06
-2.4106e-05
-8.27209e-06
-2.42251e-05
-1.20277e-05
-2.46452e-05