/*--------------------------------*- C++ -*----------------------------------*\
| =========                 |                                                 |
| \\      /  F ield         | OpenFOAM: The Open Source CFD Toolbox           |
|  \\    /   O peration     | Version:  2.3.0                                 |
|   \\  /    A nd           | Web:      www.OpenFOAM.org                      |
|    \\/     M anipulation  |                                                 |
\*---------------------------------------------------------------------------*/
FoamFile
{
    version     2.0;
    format      ascii;
    class       volVectorField;
    location    "0.108";
    object      U;
}
// * * * * * * * * * * * * * * * * * * * * * * * * * * * * * * * * * * * * * //

dimensions      [0 1 -1 0 0 0 0];

internalField   nonuniform List<vector> 
545
(
(0.454533 0.0865192 4.22637e-29)
(0.404059 0.00698213 3.8065e-30)
(0.362207 0.00340297 -1.91161e-31)
(0.332958 0.00328731 0)
(0.301491 0.00858163 -8.49879e-31)
(0.460446 0.0265875 8.5269e-29)
(0.416212 0.0219892 1.064e-29)
(0.362566 0.0213169 1.05966e-30)
(0.329829 0.0187603 0)
(0.298098 0.0211649 -1.2316e-30)
(0.466033 0.0432429 1.32123e-30)
(0.414965 0.0382922 5.73599e-31)
(0.357997 0.0341082 4.35921e-31)
(0.324602 0.0288788 0)
(0.291804 0.031698 -4.0197e-31)
(0.464153 0.0608366 -1.65547e-28)
(0.399098 0.0527272 -3.404e-30)
(0.349905 0.0465114 -2.86082e-31)
(0.315736 0.0387756 0)
(0.282547 0.0401892 -2.40733e-29)
(0.469009 0.00374393 -3.25207e-28)
(0.371748 0.07529 1.26887e-30)
(0.339598 0.0632356 2.15006e-30)
(0.302069 0.0562082 7.86585e-30)
(0.263721 0.0765932 -4.00725e-29)
(0.271603 0.00702992 0)
(0.257484 0.00166453 0)
(0.257923 -2.46375e-06 0)
(0.258412 -0.000449282 0)
(0.259525 -0.000270512 0)
(0.259633 -0.000142038 0)
(0.260065 -4.98019e-05 0)
(0.259857 -2.18444e-05 0)
(0.260128 -7.16651e-08 0)
(0.259875 -4.59833e-06 0)
(0.260125 4.26201e-06 0)
(0.259877 -3.80937e-06 0)
(0.260119 4.09029e-06 0)
(0.259881 -3.91264e-06 0)
(0.260115 3.96477e-06 0)
(0.259886 -3.87188e-06 0)
(0.26011 3.81568e-06 0)
(0.259891 -3.7908e-06 0)
(0.260105 3.72836e-06 0)
(0.259896 -3.66731e-06 0)
(0.260099 3.60302e-06 0)
(0.259902 -3.55806e-06 0)
(0.260093 3.51441e-06 0)
(0.259908 -3.47496e-06 0)
(0.260088 3.39576e-06 0)
(0.259914 -3.35347e-06 0)
(0.260081 3.27824e-06 0)
(0.259921 -3.27026e-06 0)
(0.260075 3.22012e-06 0)
(0.259928 -3.18984e-06 0)
(0.260068 3.08917e-06 0)
(0.259935 -3.0809e-06 0)
(0.260061 3.03836e-06 0)
(0.259941 -2.95451e-06 0)
(0.260054 2.9291e-06 0)
(0.259949 -2.86692e-06 0)
(0.260047 2.81368e-06 0)
(0.259956 -2.76974e-06 0)
(0.26004 2.68536e-06 0)
(0.259963 -2.61915e-06 0)
(0.260032 2.40818e-06 0)
(0.259971 -2.04818e-06 0)
(0.260025 1.55788e-06 0)
(0.259979 -3.44532e-07 0)
(0.260016 -3.88529e-06 0)
(0.269404 0.0148366 0)
(0.257658 0.00342463 0)
(0.25822 4.32865e-05 0)
(0.259045 -0.000530645 0)
(0.259406 -0.000348401 0)
(0.259942 -0.000164919 0)
(0.25981 -7.21422e-05 0)
(0.260116 -1.66506e-05 0)
(0.25987 -9.42454e-06 0)
(0.260127 4.0533e-06 0)
(0.259876 -4.17138e-06 0)
(0.260123 4.76764e-06 0)
(0.25988 -4.34575e-06 0)
(0.260118 4.49306e-06 0)
(0.259885 -4.38692e-06 0)
(0.260114 4.40556e-06 0)
(0.25989 -4.40111e-06 0)
(0.260109 4.31891e-06 0)
(0.259895 -4.29047e-06 0)
(0.260103 4.26714e-06 0)
(0.2599 -4.23845e-06 0)
(0.260097 4.19345e-06 0)
(0.259906 -4.13406e-06 0)
(0.260091 4.08725e-06 0)
(0.259912 -4.07165e-06 0)
(0.260085 4.01784e-06 0)
(0.259918 -4.01014e-06 0)
(0.260079 3.93392e-06 0)
(0.259925 -3.90871e-06 0)
(0.260072 3.86418e-06 0)
(0.259932 -3.88943e-06 0)
(0.260065 3.79489e-06 0)
(0.259938 -3.74173e-06 0)
(0.260058 3.76704e-06 0)
(0.259945 -3.70319e-06 0)
(0.260051 3.68807e-06 0)
(0.259953 -3.67961e-06 0)
(0.260044 3.61074e-06 0)
(0.25996 -3.5563e-06 0)
(0.260036 3.42797e-06 0)
(0.259968 -3.29828e-06 0)
(0.260029 3.03633e-06 0)
(0.259975 -2.48111e-06 0)
(0.26002 1.17001e-06 0)
(0.259981 4.11942e-07 0)
(0.266487 0.0237227 0)
(0.256825 0.00483495 0)
(0.259372 -0.000164274 0)
(0.259425 -0.000813203 0)
(0.259995 -0.000486672 0)
(0.2598 -0.000244568 0)
(0.260111 -9.19545e-05 0)
(0.259865 -3.58593e-05 0)
(0.260128 -2.49576e-06 0)
(0.259874 -5.69442e-06 0)
(0.260125 5.17133e-06 0)
(0.259878 -4.4349e-06 0)
(0.26012 4.95121e-06 0)
(0.259882 -4.77208e-06 0)
(0.260116 4.84408e-06 0)
(0.259887 -4.75283e-06 0)
(0.260111 4.67585e-06 0)
(0.259892 -4.72573e-06 0)
(0.260106 4.6929e-06 0)
(0.259897 -4.62034e-06 0)
(0.2601 4.59414e-06 0)
(0.259903 -4.57762e-06 0)
(0.260094 4.60002e-06 0)
(0.259909 -4.55454e-06 0)
(0.260088 4.49844e-06 0)
(0.259915 -4.47095e-06 0)
(0.260082 4.42543e-06 0)
(0.259922 -4.46606e-06 0)
(0.260075 4.43315e-06 0)
(0.259928 -4.38072e-06 0)
(0.260069 4.25184e-06 0)
(0.259935 -4.30468e-06 0)
(0.260062 4.28941e-06 0)
(0.259942 -4.16658e-06 0)
(0.260055 4.1795e-06 0)
(0.259949 -4.11234e-06 0)
(0.260047 4.03729e-06 0)
(0.259956 -4.03647e-06 0)
(0.26004 4.00908e-06 0)
(0.259964 -3.97336e-06 0)
(0.260033 3.79889e-06 0)
(0.259971 -3.52866e-06 0)
(0.260025 3.12373e-06 0)
(0.259979 -2.50613e-06 0)
(0.260018 8.71313e-07 0)
(0.262143 0.0304835 0)
(0.257023 0.00491934 0)
(0.260463 -0.0005659 0)
(0.260553 -0.000893685 0)
(0.260131 -0.00049831 0)
(0.260221 -0.000229064 0)
(0.259899 -9.96213e-05 0)
(0.260138 -2.48624e-05 0)
(0.259873 -1.20187e-05 0)
(0.260126 4.23288e-06 0)
(0.259875 -4.72435e-06 0)
(0.260122 5.46822e-06 0)
(0.25988 -4.9683e-06 0)
(0.260118 5.07401e-06 0)
(0.259885 -5.00305e-06 0)
(0.260113 5.11987e-06 0)
(0.25989 -5.1713e-06 0)
(0.260108 5.06126e-06 0)
(0.259895 -5.0374e-06 0)
(0.260103 5.09935e-06 0)
(0.2599 -5.08121e-06 0)
(0.260097 5.02992e-06 0)
(0.259906 -4.93177e-06 0)
(0.260091 4.94195e-06 0)
(0.259912 -4.94444e-06 0)
(0.260085 4.93758e-06 0)
(0.259918 -4.92486e-06 0)
(0.260079 4.81083e-06 0)
(0.259925 -4.78944e-06 0)
(0.260072 4.8476e-06 0)
(0.259931 -4.92276e-06 0)
(0.260065 4.7853e-06 0)
(0.259938 -4.73846e-06 0)
(0.260058 4.84233e-06 0)
(0.259945 -4.78217e-06 0)
(0.260051 4.82084e-06 0)
(0.259953 -4.85976e-06 0)
(0.260044 4.80267e-06 0)
(0.25996 -4.70194e-06 0)
(0.260036 4.57086e-06 0)
(0.259968 -4.52914e-06 0)
(0.260029 4.40945e-06 0)
(0.259975 -4.11056e-06 0)
(0.260021 3.49897e-06 0)
(0.259981 -2.80118e-06 0)
(0.25986 0.0501414 0)
(0.259205 0.00488098 0)
(0.262624 -0.000627307 0)
(0.26116 -0.000735236 0)
(0.260754 -0.000322754 0)
(0.260089 -0.000165968 0)
(0.2602 -6.29201e-05 0)
(0.259886 -2.65475e-05 0)
(0.26013 9.68688e-07 0)
(0.259873 -6.03317e-06 0)
(0.260124 5.82663e-06 0)
(0.259877 -5.28088e-06 0)
(0.26012 5.64877e-06 0)
(0.259882 -5.70431e-06 0)
(0.260116 5.73422e-06 0)
(0.259887 -5.58801e-06 0)
(0.260111 5.52218e-06 0)
(0.259892 -5.61477e-06 0)
(0.260106 5.63123e-06 0)
(0.259897 -5.5189e-06 0)
(0.2601 5.52877e-06 0)
(0.259903 -5.5778e-06 0)
(0.260094 5.66692e-06 0)
(0.259909 -5.60757e-06 0)
(0.260088 5.56138e-06 0)
(0.259915 -5.5229e-06 0)
(0.260082 5.55029e-06 0)
(0.259922 -5.66879e-06 0)
(0.260075 5.65388e-06 0)
(0.259928 -5.51277e-06 0)
(0.260069 5.38753e-06 0)
(0.259935 -5.48424e-06 0)
(0.260062 5.46723e-06 0)
(0.259942 -5.30135e-06 0)
(0.260055 5.30454e-06 0)
(0.259949 -5.25193e-06 0)
(0.260048 5.18257e-06 0)
(0.259956 -5.20137e-06 0)
(0.26004 5.29426e-06 0)
(0.259964 -5.32434e-06 0)
(0.260033 5.1948e-06 0)
(0.259971 -5.01325e-06 0)
(0.260025 4.84484e-06 0)
(0.259979 -4.60768e-06 0)
(0.260019 4.71351e-06 0)
(0.269216 -5.61233e-06 0)
(0.260382 5.38148e-06 0)
(0.264185 -5.5525e-06 0)
(0.261954 5.56471e-06 0)
(0.260647 -5.65459e-06 0)
(0.260428 5.71603e-06 0)
(0.259949 -5.75766e-06 0)
(0.260144 5.82683e-06 0)
(0.259871 -5.86019e-06 0)
(0.260124 5.88752e-06 0)
(0.259874 -5.93412e-06 0)
(0.260122 5.95313e-06 0)
(0.25988 -5.98854e-06 0)
(0.260117 5.99998e-06 0)
(0.259884 -6.03587e-06 0)
(0.260113 6.04881e-06 0)
(0.259889 -6.06567e-06 0)
(0.260107 6.07736e-06 0)
(0.259894 -6.0844e-06 0)
(0.260103 6.09582e-06 0)
(0.2599 -6.09254e-06 0)
(0.260097 6.11055e-06 0)
(0.259906 -6.09752e-06 0)
(0.260091 6.10908e-06 0)
(0.259912 -6.09916e-06 0)
(0.260085 6.09757e-06 0)
(0.259918 -6.08662e-06 0)
(0.260078 6.09472e-06 0)
(0.259924 -6.0778e-06 0)
(0.260072 6.07866e-06 0)
(0.259931 -6.06729e-06 0)
(0.260065 6.06337e-06 0)
(0.259938 -6.04928e-06 0)
(0.260058 6.0423e-06 0)
(0.259945 -6.03229e-06 0)
(0.260051 6.02708e-06 0)
(0.259952 -6.02216e-06 0)
(0.260043 6.01315e-06 0)
(0.25996 -6.01084e-06 0)
(0.260036 6.0027e-06 0)
(0.259967 -5.99183e-06 0)
(0.260029 5.99967e-06 0)
(0.259975 -5.9843e-06 0)
(0.260021 6.03427e-06 0)
(0.259982 -5.93314e-06 0)
(0.469008 -0.00375397 0)
(0.371748 -0.0752798 2.52057e-31)
(0.339598 -0.0632458 -2.00453e-30)
(0.302069 -0.0561978 -7.86533e-30)
(0.263721 -0.0766036 0)
(0.464153 -0.0608266 0)
(0.399098 -0.0527372 0)
(0.349905 -0.0465013 0)
(0.315736 -0.0387857 -2.44879e-30)
(0.282546 -0.0401788 0)
(0.466033 -0.043253 0)
(0.414965 -0.038282 0)
(0.357997 -0.0341184 0)
(0.324602 -0.0288684 -1.37715e-30)
(0.291804 -0.0317084 0)
(0.460446 -0.0265774 0)
(0.416212 -0.0219992 0)
(0.362566 -0.0213067 0)
(0.329829 -0.0187705 5.91171e-31)
(0.298098 -0.0211546 0)
(0.454533 -0.0865292 0)
(0.404059 -0.00697194 0)
(0.362207 -0.00341308 0)
(0.332959 -0.0032768 9.22209e-32)
(0.301491 -0.00859201 0)
(0.25986 -0.0501308 0)
(0.259205 -0.00489163 0)
(0.262624 0.000638271 0)
(0.26116 0.000724307 0)
(0.260754 0.000333825 0)
(0.260089 0.000154773 0)
(0.2602 7.4187e-05 0)
(0.259886 1.51997e-05 0)
(0.26013 1.04998e-05 0)
(0.259873 -5.48834e-06 0)
(0.260124 5.78167e-06 0)
(0.259877 -6.38661e-06 0)
(0.26012 6.06727e-06 0)
(0.259882 -6.04748e-06 0)
(0.260116 6.07661e-06 0)
(0.259887 -6.23638e-06 0)
(0.260111 6.34891e-06 0)
(0.259892 -6.27805e-06 0)
(0.260106 6.27915e-06 0)
(0.259897 -6.41402e-06 0)
(0.2601 6.40709e-06 0)
(0.259903 -6.36507e-06 0)
(0.260094 6.27578e-06 0)
(0.259909 -6.34157e-06 0)
(0.260088 6.37841e-06 0)
(0.259915 -6.42427e-06 0)
(0.260082 6.37833e-06 0)
(0.259922 -6.2415e-06 0)
(0.260076 6.24343e-06 0)
(0.259928 -6.37847e-06 0)
(0.260069 6.47884e-06 0)
(0.259935 -6.37591e-06 0)
(0.260062 6.38007e-06 0)
(0.259942 -6.53771e-06 0)
(0.260055 6.51925e-06 0)
(0.259949 -6.54517e-06 0)
(0.260048 6.59636e-06 0)
(0.259956 -6.55696e-06 0)
(0.26004 6.4614e-06 0)
(0.259964 -6.41079e-06 0)
(0.260033 6.5299e-06 0)
(0.259971 -6.72869e-06 0)
(0.260025 6.87563e-06 0)
(0.259979 -7.05178e-06 0)
(0.260019 6.94493e-06 0)
(0.262142 -0.030494 0)
(0.257023 -0.00490873 0)
(0.260463 0.000555194 0)
(0.260553 0.000904502 0)
(0.260131 0.00048735 0)
(0.260221 0.000240137 0)
(0.259899 8.84262e-05 0)
(0.260138 3.6182e-05 0)
(0.259873 6.60284e-07 0)
(0.260126 7.21479e-06 0)
(0.259875 -6.78327e-06 0)
(0.260122 6.09773e-06 0)
(0.25988 -6.64999e-06 0)
(0.260118 6.59606e-06 0)
(0.259885 -6.70061e-06 0)
(0.260113 6.63129e-06 0)
(0.25989 -6.60355e-06 0)
(0.260108 6.73346e-06 0)
(0.259895 -6.78444e-06 0)
(0.260103 6.72889e-06 0)
(0.2599 -6.76215e-06 0)
(0.260097 6.81919e-06 0)
(0.259906 -6.92273e-06 0)
(0.260091 6.90451e-06 0)
(0.259912 -6.90693e-06 0)
(0.260085 6.89641e-06 0)
(0.259918 -6.90453e-06 0)
(0.260079 7.01023e-06 0)
(0.259925 -7.0228e-06 0)
(0.260072 6.94562e-06 0)
(0.259931 -6.86591e-06 0)
(0.260065 6.98191e-06 0)
(0.259938 -7.01149e-06 0)
(0.260058 6.8904e-06 0)
(0.259945 -6.93245e-06 0)
(0.260051 6.88181e-06 0)
(0.259953 -6.83339e-06 0)
(0.260044 6.87482e-06 0)
(0.25996 -6.96483e-06 0)
(0.260036 7.08804e-06 0)
(0.259968 -7.1103e-06 0)
(0.260029 7.23196e-06 0)
(0.259975 -7.5106e-06 0)
(0.260021 8.1359e-06 0)
(0.259981 -8.89484e-06 0)
(0.266487 -0.0237122 0)
(0.256825 -0.00484559 0)
(0.259373 0.000175045 0)
(0.259425 0.000802225 0)
(0.259995 0.000497729 0)
(0.2598 0.000233379 0)
(0.260111 0.000103203 0)
(0.259865 2.45571e-05 0)
(0.260128 1.39224e-05 0)
(0.259874 -5.79333e-06 0)
(0.260125 6.38481e-06 0)
(0.259878 -7.18285e-06 0)
(0.26012 6.71838e-06 0)
(0.259882 -6.94195e-06 0)
(0.260116 6.92082e-06 0)
(0.259887 -7.03445e-06 0)
(0.260111 7.14942e-06 0)
(0.259892 -7.12475e-06 0)
(0.260106 7.17146e-06 0)
(0.259897 -7.26298e-06 0)
(0.2601 7.29733e-06 0)
(0.259903 -7.31896e-06 0)
(0.260094 7.2999e-06 0)
(0.259909 -7.34839e-06 0)
(0.260088 7.39507e-06 0)
(0.259915 -7.42134e-06 0)
(0.260082 7.45564e-06 0)
(0.259922 -7.40131e-06 0)
(0.260075 7.42457e-06 0)
(0.259928 -7.46713e-06 0)
(0.260069 7.5757e-06 0)
(0.259935 -7.51135e-06 0)
(0.260062 7.51254e-06 0)
(0.259942 -7.61837e-06 0)
(0.260055 7.59127e-06 0)
(0.259949 -7.63892e-06 0)
(0.260047 7.69848e-06 0)
(0.259956 -7.68598e-06 0)
(0.26004 7.69696e-06 0)
(0.259964 -7.72859e-06 0)
(0.260033 7.88846e-06 0)
(0.259971 -8.1392e-06 0)
(0.260025 8.57171e-06 0)
(0.259979 -9.172e-06 0)
(0.260018 1.0657e-05 0)
(0.269404 -0.0148472 0)
(0.257658 -0.00341394 0)
(0.25822 -5.41022e-05 0)
(0.259045 0.00054146 0)
(0.259406 0.000337433 0)
(0.259942 0.00017596 0)
(0.25981 6.09258e-05 0)
(0.260116 2.79943e-05 0)
(0.25987 -1.94315e-06 0)
(0.260127 7.41263e-06 0)
(0.259876 -7.35225e-06 0)
(0.260123 6.82044e-06 0)
(0.25988 -7.29178e-06 0)
(0.260118 7.19878e-06 0)
(0.259885 -7.3323e-06 0)
(0.260114 7.36279e-06 0)
(0.25989 -7.39155e-06 0)
(0.260109 7.49471e-06 0)
(0.259895 -7.55116e-06 0)
(0.260103 7.58075e-06 0)
(0.2599 -7.62545e-06 0)
(0.260097 7.67296e-06 0)
(0.259906 -7.73995e-06 0)
(0.260091 7.77703e-06 0)
(0.259912 -7.80099e-06 0)
(0.260085 7.83683e-06 0)
(0.259918 -7.84309e-06 0)
(0.260079 7.90447e-06 0)
(0.259925 -7.92176e-06 0)
(0.260072 7.94531e-06 0)
(0.259932 -7.91679e-06 0)
(0.260065 7.98918e-06 0)
(0.259938 -8.03064e-06 0)
(0.260058 7.98722e-06 0)
(0.259945 -8.0363e-06 0)
(0.260051 8.03556e-06 0)
(0.259953 -8.02699e-06 0)
(0.260044 8.08456e-06 0)
(0.25996 -8.13098e-06 0)
(0.260036 8.23431e-06 0)
(0.259968 -8.36125e-06 0)
(0.260029 8.64189e-06 0)
(0.259975 -9.11319e-06 0)
(0.26002 1.04395e-05 0)
(0.259981 -1.21769e-05 0)
(0.271603 -0.0070194 0)
(0.257484 -0.00167512 0)
(0.257923 1.31515e-05 0)
(0.258412 0.000438268 0)
(0.259525 0.000281533 0)
(0.259633 0.000130814 0)
(0.260065 6.09914e-05 0)
(0.259857 1.05771e-05 0)
(0.260128 1.14911e-05 0)
(0.259875 -6.84119e-06 0)
(0.260125 7.28015e-06 0)
(0.259877 -7.76466e-06 0)
(0.260119 7.5627e-06 0)
(0.259881 -7.75715e-06 0)
(0.260115 7.78568e-06 0)
(0.259886 -7.87819e-06 0)
(0.26011 7.98321e-06 0)
(0.259891 -8.02948e-06 0)
(0.260105 8.10162e-06 0)
(0.259896 -8.19265e-06 0)
(0.260099 8.2479e-06 0)
(0.259902 -8.32005e-06 0)
(0.260093 8.34456e-06 0)
(0.259908 -8.40876e-06 0)
(0.260088 8.45699e-06 0)
(0.259914 -8.51679e-06 0)
(0.260081 8.55997e-06 0)
(0.259921 -8.57777e-06 0)
(0.260075 8.59886e-06 0)
(0.259928 -8.63565e-06 0)
(0.260068 8.70147e-06 0)
(0.259935 -8.71145e-06 0)
(0.260061 8.72694e-06 0)
(0.259941 -8.80182e-06 0)
(0.260054 8.80772e-06 0)
(0.259949 -8.852e-06 0)
(0.260047 8.89585e-06 0)
(0.259956 -8.92187e-06 0)
(0.26004 8.98216e-06 0)
(0.259963 -9.06144e-06 0)
(0.260032 9.25691e-06 0)
(0.259971 -9.53631e-06 0)
(0.260025 1.01566e-05 0)
(0.259979 -1.13291e-05 0)
(0.260016 1.53124e-05 0)
)
;

boundaryField
{
    AirInlet
    {
        type            fixedValue;
        value           uniform (0.1 0 0);
    }
    WaterInlet
    {
        type            fixedValue;
        value           uniform (0.5 0 0);
    }
    ChannelWall
    {
        type            fixedValue;
        value           uniform (0 0 0);
    }
    Outlet
    {
        type            pressureInletOutletVelocity;
        value           nonuniform List<vector> 
11
(
(0.260016 -3.88529e-06 0)
(0.259981 4.11942e-07 0)
(0.260018 8.71313e-07 0)
(0.259981 -2.80118e-06 0)
(0.260019 4.71351e-06 0)
(0.259982 -5.93314e-06 0)
(0.260019 6.94493e-06 0)
(0.259981 -8.89484e-06 0)
(0.260018 1.0657e-05 0)
(0.259981 -1.21769e-05 0)
(0.260016 1.53124e-05 0)
)
;
    }
    FrontAndBack
    {
        type            empty;
    }
}


// ************************************************************************* //
