/*--------------------------------*- C++ -*----------------------------------*\
| =========                 |                                                 |
| \\      /  F ield         | OpenFOAM: The Open Source CFD Toolbox           |
|  \\    /   O peration     | Version:  2.3.0                                 |
|   \\  /    A nd           | Web:      www.OpenFOAM.org                      |
|    \\/     M anipulation  |                                                 |
\*---------------------------------------------------------------------------*/
FoamFile
{
    version     2.0;
    format      ascii;
    class       volScalarField;
    location    "0.55";
    object      p_rgh;
}
// * * * * * * * * * * * * * * * * * * * * * * * * * * * * * * * * * * * * * //

dimensions      [1 -1 -2 0 0 0 0];

internalField   nonuniform List<scalar> 
2268
(
604.415
600.935
601.608
606.39
616.449
629.182
641.4
652.078
662.769
675.331
690.571
708.378
728.309
749.968
772.929
796.582
819.86
840.671
856.052
864.409
856.347
860.889
900.062
604.335
600.084
600.365
604.916
614.902
627.913
640.405
651.237
662.009
674.652
689.893
707.617
727.506
749.145
772.048
795.666
819.181
840.926
858.095
867.359
852.718
847.989
894.551
603.724
598.741
598.336
602.067
611.918
625.402
638.451
649.596
660.526
673.337
688.77
706.686
726.698
748.387
771.2
794.507
817.427
839.106
857.165
871.971
851.016
838.817
892.237
603.306
597.269
595.527
597.907
607.563
621.635
635.608
647.266
658.433
671.475
687.149
705.271
725.456
747.304
770.231
793.528
816.305
837.769
855.892
870.149
852.8
844.655
899.765
603.778
596.046
592.246
592.914
601.776
616.807
632.051
644.364
655.824
669.156
685.114
703.47
723.887
746.006
769.204
792.71
815.706
837.328
855.856
870.657
874.415
875.741
914.74
605.494
596.174
589.098
587.859
596.184
612.081
628.276
641.044
652.742
666.385
682.706
701.289
721.961
744.474
768.11
792
815.424
837.539
856.904
872.968
884.583
893.099
928.563
608.756
597.908
586.597
583.657
592.256
608.473
624.484
637.183
649.141
663.124
679.833
698.822
719.893
742.899
767.062
791.423
815.395
838.183
858.482
875.767
890.122
902.589
929.957
613.346
601.984
582.921
576.627
586.668
603.831
619.365
631.729
644.432
659.266
676.333
695.603
716.955
740.7
765.814
790.91
815.741
839.437
860.621
878.89
894.144
909.104
925.074
890.281
909.858
872.721
674.678
606.333
603.913
546.804
329.52
224.378
213.371
218.819
224.306
238.341
262.347
280.997
346.361
678.748
1200.2
1158.67
891.151
905.503
858.402
622.773
600.686
579.097
373.331
212.449
190.886
185.291
182.301
186.912
199.216
214.666
233.25
277.058
543.055
1101.73
1144.8
848.628
914.531
857.633
582.813
597.747
512.41
239.129
195.936
189.142
185.389
182.456
181.265
183.117
187.745
192.555
202.757
294.304
805.165
1108.32
805.759
827.838
810.29
548.961
592.604
362.596
203.388
193.388
188.731
185.023
181.927
180.924
182.924
187.423
191.968
197.82
231.23
466.358
1054.7
707.778
732.835
782.426
635.797
588.033
252.074
195.633
192.419
188.38
184.498
181.184
180.111
182.217
186.942
191.836
196.6
211.327
302.952
991.784
671.196
686.227
767.226
728.933
579.345
204.561
192.247
191.642
187.659
183.534
179.993
178.817
180.953
186.114
191.713
196.151
202.374
246.428
916.505
615.858
675.526
765.677
696.626
482.145
199.324
191.129
190.366
186.398
181.964
178.116
176.69
178.853
184.628
191.222
195.705
198.595
223.246
823.877
540.01
695.793
786.108
699.593
432.409
193.061
190.519
188.655
184.698
179.904
175.697
173.928
175.922
182.223
189.825
194.806
197.602
211.429
736.305
610.238
556.242
462.656
402.805
426.443
483.931
541.605
578.398
610.59
642.477
669.355
690.856
713.004
738.268
764.513
790.346
816.299
841.556
864.239
883.986
897.527
900.991
865.915
209.636
106.199
24.8065
21.5081
64.1425
120.188
148.203
168.717
208.356
271.759
354.276
450.799
561.885
674.977
761.192
789.261
818.977
847.251
871.836
895.291
917.246
934.913
952.838
0.806122
0.760917
0.787727
0.790869
0.7818
0.780197
0.769164
0.758314
0.75817
0.788739
0.872174
9.02777
56.1411
132.046
258.682
425.839
633.7
836.198
881.303
907.607
927.895
940.705
949.078
0.810195
0.78871
0.786483
0.740647
0.705438
0.707356
0.683562
0.670547
0.677686
0.694091
0.684613
0.660474
0.606277
0.596371
0.791572
14.7697
53.0083
162.991
342.443
572.779
792.392
890.809
917.073
0.793229
0.782454
0.762127
0.732855
0.727546
0.712448
0.689022
0.671741
0.656062
0.640621
0.620627
0.590076
0.556772
0.595158
0.70177
0.788363
0.836664
0.876026
0.964469
1.47777
41.4276
112.853
184.228
0.739458
0.733293
0.729536
0.708721
0.695807
0.687913
0.677119
0.66595
0.659273
0.656929
0.64973
0.631911
0.615836
0.668591
0.738155
0.780212
0.725801
0.744107
0.771513
0.751847
0.699245
0.836053
0.984837
0.711705
0.707551
0.700175
0.686323
0.67692
0.667549
0.656811
0.645443
0.634972
0.623513
0.618236
0.608137
0.612128
0.62698
0.708294
0.756065
0.727035
0.740076
0.778687
0.777073
0.75103
0.977382
1.10003
0.678514
0.675733
0.6712
0.662825
0.655479
0.648142
0.640678
0.633684
0.628527
0.627908
0.624577
0.618387
0.62048
0.62642
0.641295
0.663565
0.683163
0.694838
0.705596
0.70923
0.690532
1.31364
1.38384
0.649571
0.647974
0.645025
0.639102
0.633572
0.62789
0.6221
0.616329
0.611175
0.607106
0.605436
0.606273
0.611614
0.620852
0.63219
0.646228
0.6609
0.666632
0.683529
0.671275
0.66993
0.744712
1.32053
0.62279
0.621899
0.61983
0.615864
0.611797
0.607552
0.603371
0.599527
0.596645
0.595049
0.594055
0.594998
0.599448
0.606898
0.61669
0.627766
0.638816
0.647378
0.658725
0.654704
0.654782
0.631743
0.80416
0.597694
0.59722
0.595824
0.593084
0.590161
0.587103
0.584199
0.581601
0.579832
0.579031
0.579435
0.581473
0.585759
0.59223
0.600162
0.608884
0.617781
0.625711
0.632252
0.634715
0.633478
0.616204
0.579692
0.573873
0.573589
0.572605
0.570708
0.568626
0.566454
0.564442
0.562812
0.561814
0.561773
0.562763
0.565127
0.569083
0.574569
0.581222
0.588566
0.596217
0.603655
0.610323
0.614722
0.613307
0.599434
0.576777
0.550901
0.550713
0.549989
0.548659
0.54717
0.545635
0.544255
0.543231
0.542769
0.543081
0.544324
0.546656
0.55017
0.554829
0.560416
0.566669
0.57332
0.580105
0.586675
0.592032
0.592739
0.584944
0.57036
0.528509
0.528355
0.527793
0.526836
0.525751
0.524646
0.52368
0.523019
0.522827
0.523261
0.524463
0.526517
0.529482
0.53333
0.537945
0.543173
0.54884
0.554782
0.560823
0.566396
0.569724
0.569098
0.564481
0.506506
0.506351
0.505889
0.505167
0.504341
0.503504
0.502776
0.502291
0.502176
0.502549
0.503507
0.505143
0.507461
0.510448
0.51404
0.518142
0.522632
0.527396
0.532282
0.536889
0.540548
0.54282
0.543575
0.484759
0.484595
0.484194
0.483608
0.482929
0.482229
0.481602
0.481148
0.480964
0.481138
0.481741
0.482825
0.48441
0.48646
0.488943
0.491782
0.494852
0.498093
0.50134
0.504113
0.506049
0.506845
0.506139
0.463199
0.463026
0.462657
0.462135
0.461517
0.460856
0.460222
0.459689
0.459327
0.459196
0.459344
0.459799
0.460559
0.461617
0.462918
0.464434
0.465886
0.467364
0.468763
0.469211
0.468864
0.46733
0.464342
0.441795
0.441614
0.441254
0.440744
0.440123
0.439427
0.438706
0.438011
0.437389
0.436879
0.436506
0.436278
0.436179
0.436173
0.436184
0.436085
0.43595
0.435433
0.434263
0.432699
0.429815
0.425268
0.418627
0.420539
0.42035
0.419981
0.419446
0.418775
0.417989
0.417124
0.41621
0.415274
0.414336
0.413402
0.412461
0.411482
0.410413
0.409176
0.407665
0.40579
0.403342
0.400096
0.39587
0.39015
0.382461
0.372235
0.39944
0.39924
0.39885
0.398263
0.397509
0.396597
0.395549
0.394379
0.393097
0.391705
0.390195
0.388537
0.386685
0.384573
0.382113
0.379187
0.375656
0.371321
0.365947
0.359247
0.350786
0.340077
0.326531
0.378515
0.378306
0.377881
0.377224
0.376366
0.375307
0.374054
0.372608
0.370968
0.369118
0.367036
0.364679
0.361985
0.358875
0.355246
0.350966
0.345872
0.339757
0.332366
0.323384
0.312403
0.298952
0.282456
0.357784
0.357562
0.3571
0.356365
0.355393
0.354175
0.352709
0.350986
0.348989
0.346695
0.344066
0.341046
0.337561
0.333521
0.328808
0.323278
0.316751
0.309012
0.299794
0.288774
0.275562
0.259707
0.240664
0.337275
0.337041
0.33654
0.335722
0.334635
0.333258
0.331583
0.329591
0.327257
0.324546
0.321409
0.31778
0.313576
0.308695
0.303008
0.296359
0.288562
0.27939
0.268576
0.255797
0.240675
0.222782
0.2016
0.317014
0.316771
0.316231
0.315334
0.314136
0.312609
0.310739
0.308498
0.305856
0.302768
0.299177
0.295007
0.290169
0.284551
0.278019
0.270408
0.261525
0.25114
0.238986
0.224746
0.208054
0.188501
0.165593
0.29703
0.296779
0.296205
0.295235
0.293938
0.292276
0.290232
0.287774
0.284862
0.281446
0.277463
0.272833
0.267458
0.261223
0.253986
0.245582
0.235814
0.224452
0.211231
0.19584
0.177928
0.157103
0.132893
0.277348
0.277088
0.276492
0.275458
0.274079
0.272303
0.270113
0.267472
0.264336
0.26065
0.256347
0.251343
0.245537
0.238812
0.231023
0.222004
0.21156
0.199464
0.185455
0.169232
0.150455
0.128753
0.103677
0.258001
0.257719
0.257118
0.256033
0.254591
0.252726
0.250422
0.247638
0.244329
0.240436
0.235889
0.230604
0.22448
0.217397
0.209213
0.199761
0.188853
0.176267
0.16175
0.145013
0.125729
0.103547
0.0780435
0.239025
0.238684
0.23811
0.236983
0.235502
0.233574
0.231191
0.228308
0.224878
0.220844
0.216134
0.210665
0.204336
0.197029
0.188605
0.178903
0.167739
0.154904
0.140155
0.123217
0.103781
0.0815163
0.0560246
0.220428
0.220018
0.21949
0.218326
0.216829
0.214868
0.212441
0.209504
0.206011
0.201903
0.197111
0.191553
0.185132
0.177732
0.169221
0.159444
0.148228
0.135375
0.120659
0.103821
0.0845758
0.0626144
0.0375714
0.202211
0.20175
0.201269
0.200076
0.198587
0.196618
0.194184
0.191239
0.187738
0.183625
0.178831
0.173279
0.166874
0.159508
0.151054
0.14137
0.130293
0.11764
0.103205
0.0867531
0.0680196
0.0467251
0.0225491
0.184373
0.183884
0.183447
0.182236
0.18078
0.178829
0.176426
0.173518
0.170065
0.166011
0.161293
0.155836
0.149551
0.142338
0.134078
0.124641
0.11388
0.101628
0.0877001
0.07189
0.0539611
0.0336665
0.0107367
0.166913
0.166411
0.166022
0.164803
0.163404
0.161496
0.15916
0.156334
0.152983
0.149052
0.144483
0.139206
0.133139
0.126187
0.118246
0.109198
0.0989117
0.0872391
0.0740196
0.0590753
0.0422044
0.0231955
0.00183583
0.149823
0.149317
0.148984
0.147767
0.146447
0.144605
0.142373
0.139672
0.136473
0.132725
0.128375
0.123357
0.117597
0.11101
0.103502
0.0949693
0.0852982
0.0743612
0.0620212
0.048131
0.0325245
0.0150294
-0.00450788
0.133084
0.132583
0.132314
0.131106
0.129883
0.128132
0.12604
0.123505
0.120506
0.116997
0.11293
0.108244
0.102873
0.0967432
0.0897714
0.0818671
0.0729331
0.0628652
0.0515491
0.0388645
0.0246839
0.0088698
-0.00866837
0.116683
0.116276
0.115885
0.114787
0.113682
0.112049
0.110131
0.107799
0.105045
0.101827
0.0980992
0.0938107
0.0889037
0.0833126
0.0769669
0.06979
0.0617006
0.0526122
0.0424342
0.031072
0.0184356
0.00442069
-0.0110168
0.100562
0.100228
0.0998028
0.0988014
0.0978212
0.096331
0.0946171
0.092521
0.0900514
0.0871687
0.0838334
0.0800016
0.0756231
0.0706428
0.0650014
0.058635
0.0514767
0.0434562
0.0345048
0.0245534
0.0135406
0.00139101
-0.011897
0.0846869
0.0844264
0.084003
0.0831107
0.0822663
0.0809434
0.0794572
0.0776283
0.075478
0.0729714
0.070074
0.0667491
0.0629555
0.0586451
0.0537705
0.0482822
0.042125
0.0352437
0.0275878
0.0191102
0.00976873
-0.00048521
-0.0116198
0.0690034
0.0688156
0.0684229
0.0676573
0.0669569
0.065829
0.0645893
0.0630553
0.0612545
0.0591585
0.0567378
0.0539619
0.0507981
0.0472085
0.0431525
0.0385939
0.0334927
0.0278056
0.0214952
0.0145315
0.00688354
-0.00146127
-0.010481
0.05346
0.0533397
0.0530035
0.0523855
0.0518371
0.0509275
0.0499541
0.0487339
0.0473088
0.0456491
0.0437359
0.0415432
0.0390442
0.0362138
0.0330206
0.0294324
0.0254247
0.0209692
0.0160381
0.0106085
0.00466863
-0.00179268
-0.00873124
0.0380475
0.0379839
0.0377271
0.0372701
0.0368855
0.0362124
0.0355136
0.0346265
0.0335951
0.0323934
0.0310095
0.0294236
0.02762
0.0255766
0.0232727
0.0206898
0.0178039
0.0146032
0.0110685
0.00718479
0.00294643
-0.00164822
-0.00656323
0.0227741
0.0227487
0.0225856
0.0223009
0.0220769
0.0216602
0.0212384
0.0206998
0.0200763
0.0193495
0.0185113
0.0175533
0.0164637
0.0152287
0.0138357
0.0122757
0.0105366
0.00860803
0.00648172
0.00414975
0.00160698
-0.00114117
-0.00407282
0.0075733
0.00757686
0.00751606
0.00742275
0.00734717
0.00720274
0.00706062
0.00688114
0.00667214
0.00642842
0.00614729
0.00582677
0.00546095
0.00504795
0.00458045
0.00405744
0.00347617
0.00283175
0.00212114
0.00134376
0.000496619
-0.00041628
-0.00138908
761.554
771.658
799.485
791.643
951.496
947.211
941.402
936.994
950.595
952.474
957.3
964.372
933.348
948.658
975.209
1007.42
240.935
295.613
381.375
493.062
0.961758
0.884158
0.870498
1.27293
0.982458
0.87313
0.824001
0.807132
1.37585
1.352
1.04656
0.80436
1.28365
1.26209
1.25345
1.11858
0.953171
1.08311
1.0872
0.709281
0.560648
0.552817
0.750378
0.920301
0.56397
0.779435
1.40678
1.43225
0.556248
0.675446
0.834024
0.820774
0.558374
0.553197
0.547891
0.543393
0.542969
0.54178
0.54076
0.540023
0.504666
0.503665
0.501127
0.497063
0.460517
0.45728
0.452787
0.4465
0.411399
0.405727
0.398818
0.390489
0.362063
0.354436
0.345533
0.335236
0.313777
0.30451
0.294026
0.282214
0.267459
0.256774
0.244915
0.231796
0.223751
0.211855
0.198817
0.184555
0.183084
0.170173
0.156144
0.140916
0.14579
0.132063
0.117235
0.101227
0.112131
0.0978008
0.0823878
0.065812
0.0822964
0.0675848
0.0518155
0.034911
0.0563981
0.041539
0.0256532
0.00867
0.034474
0.0197086
0.00395754
-0.0128445
0.0164786
0.00204973
-0.0133133
-0.0296692
0.00227032
-0.0115779
-0.0262947
-0.0419283
-0.00839672
-0.0214321
-0.0352507
-0.0498867
-0.0158713
-0.0278958
-0.0406018
-0.0540104
-0.0205757
-0.03144
-0.0428677
-0.0548911
-0.0229709
-0.0325965
-0.0426676
-0.053196
-0.0234962
-0.0318489
-0.0405409
-0.0495792
-0.0225453
-0.0296406
-0.0369816
-0.044573
-0.0204687
-0.026351
-0.0323961
-0.038614
-0.0175919
-0.0222955
-0.0271165
-0.0320489
-0.0141687
-0.0177526
-0.0214114
-0.0251379
-0.0103876
-0.0128992
-0.0154516
-0.0180346
-0.0063431
-0.0078311
-0.00934065
-0.010867
-0.00214098
-0.00263471
-0.00313307
-0.00363402
736.199
788.374
838.129
706.006
386.343
187.747
187.56
185.596
181.574
176.27
171.647
169.39
170.882
177.761
186.802
193.043
196.696
199.005
683.442
916.669
910.051
925.101
714.481
342.655
180.79
182.16
182.01
177.843
172.115
167.511
164.861
165.62
172.685
184.408
191.977
195.63
192.922
763.343
975.078
987.785
1006.29
709.227
189.786
187.362
182.256
180.866
176.522
171.397
167.535
165.812
167.242
172.798
185.588
193.099
195.845
245.025
902.772
1035.18
1057.31
1091.79
772.432
175.938
201.92
202.892
183.906
177.867
174.047
171.425
171.436
174.228
179.25
189.049
195.794
198.749
454.92
1067.91
717.246
1045.08
1159.88
959.643
189.799
224.531
224.204
194.293
182.103
177.934
177.475
179.636
183.336
188.295
193.306
197.81
203.301
709.057
1230.26
74.2263
424.014
1147.31
1161.25
253.675
256.547
233.441
200.442
185.783
183.163
186.276
190.575
194.19
195.834
198.954
200.835
205.253
983.157
1395.57
0.702101
1.0585
379.086
1234.05
1358.43
642.55
239.515
204.59
191.661
190.83
193.816
197.471
199.921
201.273
211.2
293.477
442.17
1334.09
1601.26
0.858228
1.03717
0.932956
314.645
1355.24
1467.82
978.433
410.335
189.718
192.79
198.027
202.222
204.217
203.446
219.658
813.254
1535.85
1673.92
1864.62
0.87712
1.0225
1.10061
1.0963
196.943
1103.68
1197.26
1229.89
920.008
420.972
197.426
206.122
207.149
205.772
711.687
1627.06
1743.86
1886.95
2095.08
0.861793
1.02908
1.10894
1.21667
1.3152
79.8683
578.521
1121.27
1161.1
1182.28
686.232
521.059
780.01
1378.62
1574.67
1605.94
1429.28
1583.35
2128.97
0.877464
1.02957
1.26489
1.47382
1.27363
0.694733
3.45216
157.988
578.933
880.412
1300.14
1550.5
1703.24
1668.25
1027.93
558.329
581.376
801.688
1997.18
1.48745
1.5791
1.7495
1.67917
1.26037
2.00386
4.41709
0.401989
31.5438
258.302
772.092
1500.01
1843.85
1470.03
859.83
577.409
545.303
956.34
2071.34
0.673882
0.695744
0.805954
0.895733
1.02622
0.83515
-0.271977
-1.07971
-0.963779
35.5452
768.943
1423.43
1583
1804.67
1880.11
1890.28
1456.6
1821.5
2168.09
0.541566
0.553367
0.57544
0.563043
0.387265
-0.174115
-0.686685
-0.646235
1.47313
3.41145
3.27042
3.42042
6.95563
752.595
1802.63
2210.13
2243.47
2248.35
2253.07
0.536767
0.527822
0.516148
0.464182
0.266846
-0.0591475
-0.328784
-0.393993
-0.0376652
1.81722
3.38375
2.83191
3.20673
4.90052
224.793
1915.23
2322.04
2325.08
2138.67
0.489656
0.472391
0.443294
0.388784
0.270529
0.0959717
-0.0509237
-0.0743014
0.115698
0.797633
1.99569
2.51773
3.1187
3.87219
7.73831
779.924
2254.59
2347.54
1923.52
0.433296
0.406335
0.367789
0.312795
0.232821
0.136195
0.0662236
0.0903328
0.273752
0.631082
1.09008
2.17934
5.07412
5.35481
29.7015
263.873
1113.96
2259.24
1981.99
0.374162
0.341837
0.299198
0.246203
0.183858
0.122498
0.0876961
0.120107
0.267244
0.55266
0.923693
1.49365
3.8352
5.34759
45.2836
107.632
534.722
2176.89
2320.93
0.315787
0.280141
0.23578
0.184828
0.131297
0.0841075
0.058328
0.0728727
0.153059
0.331175
0.529928
0.844345
12.0693
221.309
399.702
199.624
431.551
1922.88
2436.02
0.260263
0.221785
0.175663
0.124465
0.0725025
0.0259663
-0.00773319
-0.0229381
-0.0159457
0.0184816
0.0250114
0.00716167
21.3853
558.944
711.528
706.741
487.677
748.83
1678.54
0.207765
0.166773
0.118401
0.0647584
0.00940431
-0.0439336
-0.0942634
-0.14459
-0.204845
-0.298443
-0.476378
-0.803575
16.8431
402.56
757.48
770.128
794.432
496.943
510.075
0.158667
0.115271
0.0643258
0.00706223
-0.0542201
-0.117611
-0.185663
-0.2692
-0.386781
-0.571568
-0.905753
-1.38089
-2.17887
-2.30744
156.256
507.406
818.174
851.307
660.903
0.113432
0.0678249
0.0143106
-0.04678
-0.11441
-0.188
-0.272363
-0.381912
-0.541974
-0.784789
-1.2172
-1.5955
-1.98291
-2.73802
-2.6599
-1.72064
69.6469
778.844
1037.55
0.0724569
0.0250412
-0.0306248
-0.0949443
-0.167972
-0.250425
-0.3456
-0.471712
-0.65509
-0.934395
-1.38838
-1.76529
-2.25998
-2.86152
-2.75061
-2.44709
-1.47209
31.2616
1055.89
0.0361145
-0.0125467
-0.0696031
-0.135961
-0.212484
-0.300788
-0.405699
-0.540963
-0.732506
-1.01631
-1.45039
-1.94748
-2.36123
-2.43736
-2.83706
-2.51263
-2.09035
35.4095
1089.83
0.00469894
-0.0445398
-0.1021
-0.169117
-0.247416
-0.339661
-0.450861
-0.590727
-0.778495
-1.04055
-1.41642
-1.9657
-2.17844
-1.92313
-2.57055
-2.39866
-2.03726
6.14236
1086.59
-0.0216212
-0.0707231
-0.127894
-0.194451
-0.273192
-0.367617
-0.481365
-0.627901
-0.804743
-1.02977
-1.32502
-1.73575
-2.04921
-1.44462
-1.86744
-2.15501
-1.83326
-0.797336
378.921
-0.0427669
-0.0910397
-0.146969
-0.212304
-0.290765
-0.381295
-0.456574
-0.626052
-0.818251
-0.998969
-1.20349
-1.45184
-1.70129
-0.845391
-1.80305
-1.79742
5.74908
6.09276
269.217
-0.0587667
-0.105566
-0.159566
-0.222225
-0.299903
-0.368173
-0.472562
-0.61964
-0.811069
-0.94741
-1.0674
-1.16941
-1.11969
-0.249412
-1.41934
-1.38789
35.4224
25.8105
596.788
-0.0697045
-0.114313
-0.165815
-0.22334
-0.297631
-0.368155
-0.461867
-0.620113
-0.770453
-0.866525
-0.922988
-0.927694
-0.370003
-0.573176
-1.00807
11.2933
39.5187
28.3052
616.271
-0.0758264
-0.117281
-0.164508
-0.217568
-0.283589
-0.352307
-0.419197
-0.572177
-0.682848
-0.750959
-0.770773
-0.735615
-0.123986
-0.635741
-0.78581
37.1599
41.1316
15.7874
628.886
-0.0776869
-0.115295
-0.156988
-0.203132
-0.257802
-0.319518
-0.365128
-0.457749
-0.555812
-0.604278
-0.588533
-0.474288
-0.428248
-0.611053
-0.673356
41.1436
42.7023
15.787
333.08
-0.0759595
-0.108888
-0.145037
-0.184241
-0.228866
-0.277014
-0.315663
-0.347648
-0.41617
-0.455547
-0.423175
-0.327189
-0.407583
-0.510387
1.35044
41.2373
35.1581
13.4806
416.857
-0.0715711
-0.0998437
-0.130388
-0.162736
-0.196244
-0.233631
-0.26122
-0.281226
-0.302683
-0.337268
-0.354876
-0.279691
-0.383983
-0.405749
-0.328959
15.5022
41.9764
7.67157
659.55
-0.0652749
-0.0890566
-0.114276
-0.140403
-0.166755
-0.192667
-0.211688
-0.222583
-0.23208
-0.253972
-0.286912
-0.317745
-0.332599
-0.318588
-0.290241
-0.340866
40.8539
1.2018
740.311
-0.0576909
-0.0772562
-0.0975946
-0.118146
-0.137998
-0.156191
-0.169463
-0.175839
-0.179617
-0.190081
-0.209237
-0.228322
-0.23731
-0.232592
-0.215454
-0.258306
3.66006
-0.0963184
772.192
-0.0493091
-0.0649911
-0.0809893
-0.0966954
-0.111181
-0.123695
-0.132315
-0.135594
-0.136371
-0.139618
-0.148088
-0.157964
-0.163758
-0.16339
-0.144258
-0.171872
-0.108763
-0.139915
807.047
-0.0404949
-0.0526664
-0.0648689
-0.0764752
-0.0866939
-0.095104
-0.100044
-0.100883
-0.10001
-0.100055
-0.102918
-0.106052
-0.104816
-0.104891
-0.101028
-0.136402
1.23012
1.00013
848.838
-0.0315203
-0.0405371
-0.0494291
-0.0576292
-0.0645346
-0.0699202
-0.0723987
-0.0718622
-0.0697044
-0.0668834
-0.063894
-0.0591067
-0.0516871
-0.0519856
-0.0770695
-0.121862
0.231032
-0.00217894
509.83
-0.0225245
-0.0286934
-0.0346887
-0.0400667
-0.0444361
-0.0475211
-0.0484332
-0.0475064
-0.0456312
-0.042575
-0.0388593
-0.0310123
-0.0224811
-0.0211011
-0.0630624
-0.0401612
-0.0352121
42.9462
606.785
-0.0134945
-0.0170805
-0.0205125
-0.0235154
-0.0258956
-0.027431
-0.0276877
-0.0271949
-0.0266728
-0.0257924
-0.0253915
-0.0214165
-0.0209644
-0.0271342
-0.0895021
0.0794849
0.33797
0.772775
485.853
-0.00448356
-0.00564407
-0.00674023
-0.00766731
-0.00838662
-0.00883615
-0.00889988
-0.00883849
-0.00955053
-0.0113011
-0.0145306
-0.0182785
-0.0334326
-0.0677176
-0.159446
-0.204541
-0.678251
-1.30205
37.8012
)
;

boundaryField
{
    leftWall
    {
        type            fixedFluxPressure;
        gradient        uniform 0;
        value           nonuniform List<scalar> 
50
(
604.415
604.335
603.724
603.306
603.778
605.494
608.756
613.346
610.238
209.636
0.806122
0.810195
0.793229
0.739458
0.711705
0.678514
0.649571
0.62279
0.597694
0.573873
0.550901
0.528509
0.506506
0.484759
0.463199
0.441795
0.420539
0.39944
0.378515
0.357784
0.337275
0.317014
0.29703
0.277348
0.258001
0.239025
0.220428
0.202211
0.184373
0.166913
0.149823
0.133084
0.116683
0.100562
0.0846869
0.0690034
0.05346
0.0380475
0.0227741
0.0075733
)
;
    }
    rightWall
    {
        type            fixedFluxPressure;
        gradient        uniform 0;
        value           nonuniform List<scalar> 
50
(
1158.67
1144.8
1108.32
1054.7
991.784
916.505
823.877
736.305
683.442
763.343
902.772
1067.91
1230.26
1395.57
1601.26
1864.62
2095.08
2128.97
1997.18
2071.34
2168.09
2253.07
2138.67
1923.52
1981.99
2320.93
2436.02
1678.54
510.075
660.903
1037.55
1055.89
1089.83
1086.59
378.921
269.217
596.788
616.271
628.886
333.08
416.857
659.55
740.311
772.192
807.047
848.838
509.83
606.785
485.853
37.8012
)
;
    }
    lowerWall
    {
        type            fixedFluxPressure;
        gradient        uniform 0;
        value           nonuniform List<scalar> 
62
(
604.415
600.935
601.608
606.39
616.449
629.182
641.4
652.078
662.769
675.331
690.571
708.378
728.309
749.968
772.929
796.582
819.86
840.671
856.052
864.409
856.347
860.889
900.062
900.062
894.551
892.237
899.765
914.74
928.563
929.957
925.074
761.554
771.658
799.485
791.643
890.281
891.151
848.628
805.759
707.778
671.196
615.858
540.01
890.281
909.858
872.721
674.678
606.333
603.913
546.804
329.52
224.378
213.371
218.819
224.306
238.341
262.347
280.997
346.361
678.748
1200.2
1158.67
)
;
    }
    atmosphere
    {
        type            totalPressure;
        rho             rho;
        psi             none;
        gamma           1;
        p0              uniform 0;
        value           nonuniform List<scalar> 
46
(
0
0
0
0
0
0
0
0
0
0
0
0
0
0
0
0
0
0
0
0
0
0
0
0
0
0
0
0
0
0
0
0
0
0
-0.000166421
-0.00157483
-0.00480335
-0.0102138
-0.0169007
-0.0408687
-0.0829673
-0.174087
-0.177555
-0.483515
-1.58
0
)
;
    }
    defaultFaces
    {
        type            empty;
    }
}


// ************************************************************************* //
