/*--------------------------------*- C++ -*----------------------------------*\
| =========                 |                                                 |
| \\      /  F ield         | OpenFOAM: The Open Source CFD Toolbox           |
|  \\    /   O peration     | Version:  2.3.0                                 |
|   \\  /    A nd           | Web:      www.OpenFOAM.org                      |
|    \\/     M anipulation  |                                                 |
\*---------------------------------------------------------------------------*/
FoamFile
{
    version     2.0;
    format      ascii;
    class       surfaceScalarField;
    location    "0.55";
    object      phi;
}
// * * * * * * * * * * * * * * * * * * * * * * * * * * * * * * * * * * * * * //

dimensions      [0 3 -1 0 0 0 0];

internalField   nonuniform List<scalar> 
4432
(
-3.45503e-06
3.45503e-06
-5.54001e-06
2.08498e-06
-4.83494e-06
-7.05072e-07
-2.26512e-06
-2.56982e-06
1.76114e-06
-4.02626e-06
6.59397e-06
-4.83283e-06
1.12453e-05
-4.65136e-06
1.49183e-05
-3.67302e-06
1.73321e-05
-2.41376e-06
1.86003e-05
-1.2682e-06
1.89436e-05
-3.43258e-07
1.85192e-05
4.24376e-07
1.74128e-05
1.10635e-06
1.5669e-05
1.7438e-06
1.31524e-05
2.51666e-06
9.52617e-06
3.62623e-06
4.49399e-06
5.03218e-06
-1.51811e-06
6.0121e-06
-6.07971e-06
4.5616e-06
-1.08452e-05
4.7655e-06
-1.78321e-05
6.98694e-06
-1.56782e-05
-2.15397e-06
-1.56782e-05
-3.85647e-06
7.3115e-06
-5.22038e-06
3.4489e-06
-4.23154e-06
-1.69391e-06
-1.75086e-06
-5.0505e-06
2.08881e-06
-7.86593e-06
6.84245e-06
-9.58646e-06
1.14688e-05
-9.27767e-06
1.51008e-05
-7.30505e-06
1.74582e-05
-4.77113e-06
1.87012e-05
-2.51121e-06
1.91458e-05
-7.87919e-07
1.90902e-05
4.80003e-07
1.87555e-05
1.44102e-06
1.82249e-05
2.27447e-06
1.75145e-05
3.22702e-06
1.64106e-05
4.73014e-06
1.42508e-05
7.19204e-06
9.82517e-06
1.04377e-05
2.56802e-06
1.18188e-05
-6.47989e-06
1.38134e-05
-1.24354e-05
1.29424e-05
-9.83455e-06
-4.75478e-06
-2.55127e-05
-3.05008e-06
1.03616e-05
-3.97368e-06
4.3725e-06
-3.13309e-06
-2.5345e-06
-1.11201e-06
-7.07158e-06
2.25285e-06
-1.12308e-05
6.80549e-06
-1.41391e-05
1.1387e-05
-1.38592e-05
1.49513e-05
-1.08693e-05
1.71833e-05
-7.00314e-06
1.83026e-05
-3.63051e-06
1.86438e-05
-1.12908e-06
1.84708e-05
6.53036e-07
1.79574e-05
1.95441e-06
1.72617e-05
2.9701e-06
1.655e-05
3.93882e-06
1.60581e-05
5.222e-06
1.59467e-05
7.30345e-06
1.53307e-05
1.10537e-05
1.19868e-05
1.51626e-05
5.8684e-06
1.99318e-05
-1.63478e-06
2.04456e-05
-2.13041e-06
-4.25913e-06
-2.76432e-05
-1.86919e-06
1.22308e-05
-2.17888e-06
4.6822e-06
-1.49442e-06
-3.21897e-06
2.10439e-08
-8.58704e-06
2.83412e-06
-1.40439e-05
6.991e-06
-1.8296e-05
1.12958e-05
-1.8164e-05
1.46295e-05
-1.42031e-05
1.66744e-05
-9.04805e-06
1.76721e-05
-4.62822e-06
1.79737e-05
-1.43066e-06
1.78306e-05
7.96162e-07
1.74025e-05
2.38249e-06
1.67984e-05
3.57421e-06
1.61188e-05
4.61838e-06
1.55236e-05
5.81721e-06
1.5396e-05
7.43106e-06
1.61516e-05
1.02981e-05
1.67849e-05
1.45293e-05
1.60198e-05
2.06969e-05
1.34182e-05
2.30471e-05
7.54936e-06
1.60974e-06
-2.00938e-05
-3.07113e-07
1.25379e-05
4.80075e-07
3.89502e-06
1.41446e-06
-4.15336e-06
2.91254e-06
-1.00851e-05
5.50387e-06
-1.66352e-05
8.84686e-06
-2.1639e-05
1.21204e-05
-2.14376e-05
1.45772e-05
-1.66598e-05
1.60729e-05
-1.05438e-05
1.68441e-05
-5.39935e-06
1.71355e-05
-1.72206e-06
1.70878e-05
8.4387e-07
1.6817e-05
2.65333e-06
1.64168e-05
3.97433e-06
1.59711e-05
5.06414e-06
1.55649e-05
6.22339e-06
1.53778e-05
7.61818e-06
1.5972e-05
9.70389e-06
1.77618e-05
1.27395e-05
2.03915e-05
1.80672e-05
2.10245e-05
2.24142e-05
1.3982e-05
8.65224e-06
-6.11182e-06
1.91926e-06
1.06186e-05
4.41547e-06
1.39881e-06
6.63416e-06
-6.37204e-06
9.09852e-06
-1.25495e-05
1.16001e-05
-1.91368e-05
1.34511e-05
-2.34899e-05
1.46973e-05
-2.26838e-05
1.54564e-05
-1.74189e-05
1.58457e-05
-1.09332e-05
1.60689e-05
-5.62256e-06
1.62402e-05
-1.89339e-06
1.63014e-05
7.82752e-07
1.62277e-05
2.72701e-06
1.60559e-05
4.14611e-06
1.58548e-05
5.26523e-06
1.56953e-05
6.38294e-06
1.57344e-05
7.579e-06
1.62319e-05
9.20644e-06
1.76243e-05
1.13471e-05
2.07328e-05
1.49587e-05
2.29929e-05
2.01541e-05
1.67079e-05
1.49373e-05
1.05961e-05
4.40889e-06
6.20974e-06
9.54789e-06
-3.7402e-06
1.44111e-05
-1.12353e-05
1.84042e-05
-1.65425e-05
2.02766e-05
-2.10092e-05
1.98009e-05
-2.30143e-05
1.84771e-05
-2.136e-05
1.73257e-05
-1.62675e-05
1.64815e-05
-1.0089e-05
1.5953e-05
-5.09408e-06
1.56725e-05
-1.61285e-06
1.56814e-05
7.73848e-07
1.57026e-05
2.70577e-06
1.57362e-05
4.11256e-06
1.5783e-05
5.21842e-06
1.58441e-05
6.32178e-06
1.61147e-05
7.30845e-06
1.67821e-05
8.53904e-06
1.78299e-05
1.02993e-05
2.01291e-05
1.26595e-05
2.26111e-05
1.7672e-05
1.88805e-05
1.8668e-05
2.94765e-05
6.79798e-06
-5.88238e-07
1.56211e-05
-1.25633e-05
2.36019e-05
-1.92161e-05
2.78581e-05
-2.07987e-05
2.75059e-05
-2.0657e-05
2.43109e-05
-1.98192e-05
2.10957e-05
-1.81448e-05
1.89474e-05
-1.41192e-05
1.76331e-05
-8.77468e-06
1.68456e-05
-4.30654e-06
1.63825e-05
-1.14974e-06
1.593e-05
1.22629e-06
1.56422e-05
2.9936e-06
1.55429e-05
4.21188e-06
1.5635e-05
5.12632e-06
1.58315e-05
6.12523e-06
1.63553e-05
6.78472e-06
1.73257e-05
7.56858e-06
1.85236e-05
9.10144e-06
2.02512e-05
1.09319e-05
2.2214e-05
1.57092e-05
1.94405e-05
2.14415e-05
4.8917e-05
3.00471e-05
-3.00471e-05
7.77832e-05
-4.7736e-05
0.000148474
-7.06911e-05
0.000167404
-1.89301e-05
0.000148864
1.85403e-05
4.37221e-05
0.000105142
-0.000132383
0.000176105
-0.000209747
7.73649e-05
-0.000228043
1.82952e-05
-0.000214304
-1.37382e-05
-0.000199468
-1.48366e-05
-0.000187224
-1.22441e-05
-0.000177781
-9.44219e-06
-0.000168487
-9.29443e-06
-0.000154647
-1.38403e-05
-0.000135094
-1.95529e-05
-9.94666e-05
-3.56273e-05
-2.84379e-05
-7.10287e-05
-2.84379e-05
5.18156e-07
-3.05653e-05
1.97242e-05
-6.69421e-05
8.95732e-05
-0.00014054
0.00012305
-5.24074e-05
7.01741e-05
7.14168e-05
-0.000124321
0.000299637
-0.000281191
0.000332976
-0.000342076
0.000138249
-0.000350582
2.68008e-05
-0.000328199
-3.61212e-05
-0.000301018
-4.2018e-05
-0.000270558
-4.2703e-05
-0.00024572
-3.42804e-05
-0.000221583
-3.34318e-05
-0.000191942
-4.34812e-05
-0.000157522
-5.39732e-05
-0.000111947
-8.12021e-05
-3.7666e-05
-0.000145309
-6.6104e-05
-1.74592e-05
-1.31062e-05
-2.41133e-06
-8.19899e-05
2.36854e-05
-0.000166637
5.5978e-05
-8.47e-05
3.58083e-06
0.000123814
-0.000197395
0.000500612
-0.000285383
0.000420964
-0.000285328
0.000138194
-0.0003157
5.71726e-05
-0.000380197
2.83758e-05
-0.000428561
6.34699e-06
-0.000442321
-2.89429e-05
-0.000411534
-6.50681e-05
-0.000351869
-9.3097e-05
-0.000286523
-0.000108827
-0.000224384
-0.000116112
-0.000142362
-0.000163225
-4.83809e-05
-0.00023929
-0.000114485
-1.14771e-05
-1.62902e-06
3.84267e-06
-9.73097e-05
7.83182e-06
-0.000170626
4.63688e-05
-0.000123237
3.60535e-05
0.000134129
-0.000107793
0.000644459
-0.000181259
0.00049443
-0.000198695
0.00015563
-0.000259398
0.000117875
-0.000339457
0.000108434
-0.000394538
6.14281e-05
-0.00041968
-3.80072e-06
-0.000406123
-7.86252e-05
-0.000355532
-0.000143689
-0.000291603
-0.000172755
-0.000233043
-0.000174672
-0.000158987
-0.000237281
-5.16976e-05
-0.000346579
-0.000166182
3.43797e-07
-1.97282e-06
1.48426e-05
-0.000111809
1.00843e-05
-0.000165868
5.14895e-05
-0.000164642
7.54478e-05
0.000110171
-2.45004e-05
0.000744407
-9.26436e-05
0.000562573
-0.000160999
0.000223985
-0.000251815
0.000208691
-0.00033094
0.00018756
-0.000383016
0.000113505
-0.000401914
1.50976e-05
-0.000375932
-0.000104608
-0.000307785
-0.000211836
-0.0002275
-0.000253039
-0.000176851
-0.000225322
-0.000122028
-0.000292104
-4.77925e-05
-0.000420815
-0.000213975
1.26743e-05
-1.46471e-05
2.6124e-05
-0.000125258
2.35312e-05
-0.000163275
3.92363e-05
-0.000180347
4.55171e-05
0.00010389
-1.31154e-05
0.00080304
-3.55252e-05
0.000584983
-0.000161795
0.000350255
-0.000270863
0.000317759
-0.000356486
0.000273183
-0.000414164
0.000171182
-0.000431237
3.21711e-05
-0.00039625
-0.000139595
-0.000307409
-0.000300677
-0.000196421
-0.000364027
-0.000120343
-0.0003014
-8.02186e-05
-0.000332228
-4.11535e-05
-0.00045988
-0.000255128
2.72052e-05
-4.18523e-05
3.70955e-05
-0.000135149
3.41801e-05
-0.000160359
3.7464e-05
-0.000183631
4.84987e-05
9.28554e-05
1.66663e-06
0.000849872
-4.66831e-05
0.000633333
-0.000174548
0.000478119
-0.000286103
0.000429315
-0.000373339
0.000360419
-0.000429684
0.000227526
-0.000445648
4.81363e-05
-0.000412379
-0.000172864
-0.000323788
-0.000389268
-0.000196629
-0.000491187
-8.09677e-05
-0.00041706
-4.45903e-05
-0.000368606
-3.27903e-05
-0.00047168
-0.000287919
4.2357e-05
-8.42092e-05
4.54859e-05
-0.000138278
3.86929e-05
-0.000153566
3.70297e-05
-0.000181968
5.75466e-05
7.23385e-05
1.36031e-05
0.000893816
-5.72982e-05
0.000704234
-0.000179699
0.00060052
-0.000282313
0.000531929
-0.000358504
0.00043661
-0.000401676
0.000270699
-0.000409256
5.57163e-05
-0.000382513
-0.000199608
-0.000314663
-0.000457117
-0.000200365
-0.000605485
-5.97697e-05
-0.000557656
-5.11372e-06
-0.000423261
-2.22467e-05
-0.000454548
-0.000310165
2.17687e-05
-2.2357e-05
4.91855e-05
-3.99801e-05
6.36942e-05
-3.37247e-05
6.09408e-05
-1.80454e-05
5.13708e-05
-1.1087e-05
4.20837e-05
-1.05321e-05
3.56526e-05
-1.17138e-05
3.28563e-05
-1.13229e-05
3.30755e-05
-8.99383e-06
3.45322e-05
-5.76325e-06
3.59959e-05
-2.61348e-06
3.71184e-05
1.03794e-07
3.71884e-05
2.92361e-06
3.67065e-05
4.69379e-06
3.60008e-05
5.83201e-06
3.51417e-05
6.9844e-06
3.55311e-05
6.3953e-06
3.75977e-05
5.50193e-06
4.0909e-05
5.79015e-06
4.59926e-05
5.84837e-06
5.53845e-05
6.31725e-06
7.09021e-05
5.92385e-06
1.45865e-05
0.000105233
3.02181e-05
-5.25751e-05
4.80487e-05
-5.78106e-05
2.33429e-05
-9.019e-06
-4.04404e-06
9.34159e-06
-8.63217e-06
-6.49884e-06
-9.34047e-06
-9.8238e-06
-1.20949e-05
-8.95939e-06
-1.13264e-05
-1.20913e-05
-4.57683e-06
-1.57434e-05
4.33342e-06
-1.46735e-05
1.53012e-05
-1.35813e-05
2.80627e-05
-1.26577e-05
3.65418e-05
-5.55547e-06
3.98953e-05
1.34029e-06
3.99044e-05
5.82286e-06
3.76771e-05
9.21168e-06
3.76162e-05
6.4562e-06
3.95752e-05
3.54302e-06
4.22303e-05
3.135e-06
4.6637e-05
1.44169e-06
5.42899e-05
-1.33568e-06
6.38158e-05
-3.60204e-06
-5.39124e-06
8.37935e-05
1.61541e-06
-5.41905e-05
-2.63897e-05
-2.98056e-05
-5.61555e-05
2.07468e-05
-6.93153e-05
2.25014e-05
-7.74164e-05
1.60238e-06
-9.94033e-05
1.21632e-05
-0.00012444
1.60778e-05
-0.000143407
6.87581e-06
-0.00015466
-4.49047e-06
-0.000150991
-1.83429e-05
-0.000124328
-4.02442e-05
-7.49624e-05
-6.20233e-05
-2.4909e-05
-5.56089e-05
1.11428e-07
-2.36801e-05
1.29105e-05
-6.97624e-06
2.48414e-05
-2.71917e-06
3.7643e-05
-6.34545e-06
4.43532e-05
-3.16718e-06
4.60737e-05
1.41458e-06
4.86036e-05
-1.08826e-06
5.39187e-05
-6.65081e-06
6.10284e-05
-1.07117e-05
-1.56646e-05
7.13017e-05
-2.64495e-05
-2.7741e-05
-4.49828e-05
-1.12723e-05
-4.35393e-05
1.93033e-05
-3.04665e-05
9.42877e-06
-3.14312e-05
2.56717e-06
-3.71083e-05
1.78404e-05
-4.21107e-05
2.10803e-05
-4.90085e-05
1.37736e-05
-6.18005e-05
8.30146e-06
-8.20751e-05
1.93156e-06
-0.000112427
-9.89194e-06
-0.00014342
-3.10307e-05
-0.000158935
-4.00937e-05
-0.000149622
-3.2993e-05
-0.000123221
-3.3378e-05
-7.80041e-05
-4.79356e-05
-3.84935e-05
-4.5856e-05
-4.19223e-06
-3.74685e-05
1.43916e-05
-1.71692e-05
3.25963e-05
-1.9293e-05
4.8753e-05
-2.28075e-05
5.81981e-05
-2.01568e-05
-2.2196e-05
6.47295e-05
-2.22907e-05
-5.45038e-06
-2.09082e-05
-1.26548e-05
-9.18466e-06
7.57989e-06
-5.39811e-06
5.64232e-06
-7.83926e-06
5.00845e-06
-4.41993e-06
1.44212e-05
1.65338e-06
1.50071e-05
5.90952e-06
9.5175e-06
8.61795e-06
5.59299e-06
7.03741e-06
3.51207e-06
-7.78632e-06
4.93177e-06
-4.03599e-05
1.54293e-06
-7.00151e-05
-1.04385e-05
-8.01088e-05
-2.28992e-05
-7.4953e-05
-3.85338e-05
-7.85251e-05
-4.43634e-05
-9.12526e-05
-3.31285e-05
-0.000103336
-2.53854e-05
-9.80068e-05
-2.2498e-05
-6.83468e-05
-4.89529e-05
-2.36351e-05
-6.75192e-05
1.92904e-06
-4.5721e-05
-3.68752e-05
1.66082e-05
-8.63296e-06
3.18257e-06
-1.10295e-05
-1.02583e-05
-7.91416e-06
4.46461e-06
-7.78793e-06
5.51619e-06
-9.46217e-06
6.68279e-06
-6.4876e-06
1.14467e-05
-4.35775e-06
1.28773e-05
-4.95497e-06
1.01147e-05
-3.73773e-06
4.37573e-06
2.34398e-06
-2.56966e-06
1.27109e-05
-5.43519e-06
1.69493e-05
-2.69535e-06
1.13516e-06
5.37565e-06
-1.37793e-05
-7.9847e-06
-1.64268e-05
-3.58862e-05
-1.74294e-05
-4.33607e-05
-2.09712e-05
-2.95866e-05
-2.52895e-05
-2.10672e-05
-2.68588e-05
-2.09288e-05
-3.44218e-05
-4.139e-05
-5.04094e-05
-5.15316e-05
-5.26443e-05
-4.34861e-05
-1.86505e-05
-7.08688e-05
-6.32707e-06
9.50963e-06
-8.04417e-06
-8.54117e-06
-6.00566e-06
2.42615e-06
-5.76949e-06
5.28009e-06
-6.01274e-06
6.92612e-06
-3.88841e-06
9.32238e-06
-1.3161e-06
1.0305e-05
-9.31627e-08
8.89177e-06
-9.29966e-07
5.21253e-06
-3.84852e-06
3.48892e-07
-4.43946e-06
-4.84426e-06
-6.69168e-07
-6.46563e-06
5.31667e-06
-6.10142e-07
3.92216e-06
-6.59012e-06
-4.39044e-06
-2.75735e-05
-1.02867e-05
-3.74644e-05
-8.12799e-06
-3.17452e-05
4.82017e-07
-2.96772e-05
1.11766e-05
-3.16235e-05
1.43915e-05
-4.4605e-05
1.12018e-05
-4.83419e-05
2.6518e-05
-5.88023e-05
-4.04313e-05
4.82986e-05
-4.72562e-06
1.42352e-05
-5.73506e-06
-7.53172e-06
-5.08823e-06
1.77937e-06
-4.72192e-06
4.91385e-06
-4.04271e-06
6.24696e-06
-2.42077e-06
7.70047e-06
-8.2196e-07
8.70617e-06
-1.48097e-07
8.2179e-06
-4.3187e-07
5.49629e-06
-7.82396e-07
6.99402e-07
-1.94032e-06
-3.68636e-06
-1.19586e-06
-7.21009e-06
4.66097e-06
-6.46696e-06
7.79059e-06
-9.7197e-06
3.46509e-06
-2.3248e-05
-3.1201e-06
-3.08792e-05
-4.89629e-06
-2.99691e-05
-1.05667e-06
-3.35169e-05
6.76132e-06
-3.94415e-05
1.03637e-05
-4.82074e-05
1.37777e-05
-5.17557e-05
2.43239e-05
-6.93483e-05
-6.61385e-05
5.00314e-05
-3.62748e-06
1.78627e-05
-4.35363e-06
-6.80556e-06
-3.65474e-06
1.08051e-06
-3.34858e-06
4.60773e-06
-2.73617e-06
5.63458e-06
-1.38418e-06
6.3485e-06
3.75715e-07
6.94628e-06
1.81931e-06
6.77431e-06
2.12621e-06
5.18937e-06
6.92355e-07
2.13322e-06
-8.86711e-07
-2.10733e-06
-1.8174e-06
-6.27942e-06
1.05126e-06
-9.33562e-06
5.39107e-06
-1.40595e-05
4.03021e-06
-2.18871e-05
7.3481e-07
-2.75838e-05
-2.6367e-07
-2.89707e-05
1.03028e-07
-3.38836e-05
1.72073e-06
-4.10592e-05
5.14722e-06
-5.16339e-05
1.26908e-05
-5.92993e-05
1.65248e-05
-7.31823e-05
-7.6993e-05
2.73792e-05
-2.5157e-06
2.03784e-05
-3.11676e-06
-6.20449e-06
-2.86042e-06
8.24198e-07
-2.59017e-06
4.3375e-06
-2.05187e-06
5.0963e-06
-1.06067e-06
5.35731e-06
3.71529e-07
5.51409e-06
1.89696e-06
5.24886e-06
3.02587e-06
4.06042e-06
3.49393e-06
1.66509e-06
3.09155e-06
-1.70501e-06
2.38435e-06
-5.57226e-06
2.54188e-06
-9.49318e-06
2.37876e-06
-1.38964e-05
9.6429e-08
-1.96048e-05
-3.20992e-06
-2.42775e-05
-5.25064e-06
-2.693e-05
-7.07918e-06
-3.20551e-05
-8.16928e-06
-3.9969e-05
-8.18065e-06
-5.16224e-05
-5.37246e-06
-6.21074e-05
-6.64061e-06
-7.19141e-05
-7.4558e-05
-9.07562e-06
-1.65291e-06
2.20313e-05
-2.24137e-06
-5.61602e-06
-2.20581e-06
7.8865e-07
-2.06552e-06
4.19722e-06
-1.70709e-06
4.73786e-06
-1.056e-06
4.70623e-06
-6.75238e-08
4.5256e-06
1.14853e-06
4.03278e-06
2.2755e-06
2.93339e-06
2.90764e-06
1.03287e-06
2.90797e-06
-1.70539e-06
2.30853e-06
-4.97285e-06
1.36551e-06
-8.5502e-06
-1.30432e-07
-1.24005e-05
-3.04878e-06
-1.66865e-05
-6.75691e-06
-2.05694e-05
-9.81836e-06
-2.38686e-05
-1.33356e-05
-2.85378e-05
-1.74177e-05
-3.58868e-05
-2.28458e-05
-4.61943e-05
-2.87258e-05
-5.62275e-05
-3.75101e-05
-6.31298e-05
-6.13019e-05
-5.07662e-05
-1.04884e-06
2.30802e-05
-1.64316e-06
-5.02169e-06
-1.77876e-06
9.24249e-07
-1.79349e-06
4.21193e-06
-1.6444e-06
4.58876e-06
-1.31709e-06
4.3789e-06
-7.98779e-07
4.00729e-06
-1.33866e-07
3.36783e-06
5.0692e-07
2.29255e-06
8.6439e-07
6.7535e-07
6.7205e-07
-1.51309e-06
-1.4972e-07
-4.15111e-06
-1.59786e-06
-7.1021e-06
-3.77729e-06
-1.02211e-05
-6.84618e-06
-1.36178e-05
-1.0415e-05
-1.70007e-05
-1.39457e-05
-2.03379e-05
-1.81549e-05
-2.43286e-05
-2.40565e-05
-2.99852e-05
-3.27417e-05
-3.75091e-05
-4.33671e-05
-4.5602e-05
-5.48937e-05
-5.16032e-05
-5.12899e-05
-6.49057e-05
-6.55027e-07
2.37352e-05
-1.2495e-06
-4.42724e-06
-1.54602e-06
1.22074e-06
-1.70899e-06
4.37486e-06
-1.75025e-06
4.62999e-06
-1.69316e-06
4.3218e-06
-1.56378e-06
3.87789e-06
-1.40109e-06
3.20511e-06
-1.3102e-06
2.20162e-06
-1.45467e-06
8.19799e-07
-2.02469e-06
-9.43072e-07
-3.14259e-06
-3.03322e-06
-4.85842e-06
-5.38632e-06
-7.15437e-06
-7.9253e-06
-1.01035e-05
-1.06687e-05
-1.35928e-05
-1.35115e-05
-1.74755e-05
-1.64553e-05
-2.21118e-05
-1.96922e-05
-2.85609e-05
-2.35361e-05
-3.78696e-05
-2.82004e-05
-4.97861e-05
-3.36855e-05
-6.30082e-05
-3.83812e-05
-3.93829e-05
-7.49153e-05
-4.3249e-07
2.41677e-05
-1.02691e-06
-3.83287e-06
-1.44682e-06
1.6406e-06
-1.74214e-06
4.67012e-06
-1.95161e-06
4.83942e-06
-2.11586e-06
4.48603e-06
-2.27611e-06
4.03812e-06
-2.48106e-06
3.41005e-06
-2.80811e-06
2.52866e-06
-3.36173e-06
1.37343e-06
-4.25985e-06
-4.49285e-08
-5.59112e-06
-1.70196e-06
-7.41686e-06
-3.56063e-06
-9.76097e-06
-5.58131e-06
-1.27091e-05
-7.72075e-06
-1.62991e-05
-9.92162e-06
-2.05654e-05
-1.2189e-05
-2.56694e-05
-1.45882e-05
-3.21343e-05
-1.70712e-05
-4.082e-05
-1.95148e-05
-5.27254e-05
-2.17801e-05
-6.8147e-05
-2.29596e-05
-2.17013e-05
-8.58286e-05
-3.30108e-07
2.44978e-05
-9.32117e-07
-3.23094e-06
-1.449e-06
2.1574e-06
-1.85579e-06
5.07684e-06
-2.20337e-06
5.18695e-06
-2.54226e-06
4.82491e-06
-2.91416e-06
4.41001e-06
-3.36572e-06
3.86159e-06
-3.95917e-06
3.12213e-06
-4.77189e-06
2.18618e-06
-5.87811e-06
1.06131e-06
-7.34876e-06
-2.31326e-07
-9.24651e-06
-1.66297e-06
-1.16331e-05
-3.19488e-06
-1.45856e-05
-4.76836e-06
-1.81889e-05
-6.31839e-06
-2.25711e-05
-7.80676e-06
-2.78944e-05
-9.26488e-06
-3.43322e-05
-1.06335e-05
-4.22077e-05
-1.16393e-05
-5.2255e-05
-1.1733e-05
-6.51035e-05
-1.01112e-05
-6.13689e-06
-8.06679e-05
-2.98755e-07
2.47965e-05
-9.20418e-07
-2.60937e-06
-1.51411e-06
2.751e-06
-2.0072e-06
5.56985e-06
-2.47022e-06
5.64992e-06
-2.94821e-06
5.30286e-06
-3.474e-06
4.93578e-06
-4.09648e-06
4.48407e-06
-4.86152e-06
3.8872e-06
-5.83043e-06
3.15514e-06
-7.06274e-06
2.29364e-06
-8.61845e-06
1.32436e-06
-1.05575e-05
2.76017e-07
-1.29426e-05
-8.09894e-07
-1.58319e-05
-1.87917e-06
-1.92863e-05
-2.86395e-06
-2.33945e-05
-3.69859e-06
-2.83118e-05
-4.34758e-06
-3.4217e-05
-4.72835e-06
-4.12474e-05
-4.60895e-06
-4.94413e-05
-3.53919e-06
-5.86999e-05
-8.52501e-07
4.0924e-06
-6.89293e-05
-3.0371e-07
2.51001e-05
-9.56592e-07
-1.95661e-06
-1.6087e-06
3.403e-06
-2.17193e-06
6.133e-06
-2.71908e-06
6.197e-06
-3.3036e-06
5.88733e-06
-3.95222e-06
5.58436e-06
-4.69279e-06
5.22464e-06
-5.57502e-06
4.76947e-06
-6.6432e-06
4.22336e-06
-7.94896e-06
3.59942e-06
-9.54304e-06
2.91838e-06
-1.14791e-05
2.21194e-06
-1.38077e-05
1.51867e-06
-1.65806e-05
8.93705e-07
-1.98481e-05
4.03538e-07
-2.36703e-05
1.23659e-07
-2.81292e-05
1.11294e-07
-3.33276e-05
4.70004e-07
-3.93816e-05
1.44495e-06
-4.62525e-05
3.33169e-06
-5.37025e-05
6.59744e-06
1.1665e-05
-6.12751e-05
-3.22321e-07
2.54224e-05
-1.01114e-06
-1.2679e-06
-1.71107e-06
4.10282e-06
-2.32502e-06
6.74686e-06
-2.93625e-06
6.80816e-06
-3.59498e-06
6.546e-06
-4.32776e-06
6.31708e-06
-5.15601e-06
6.05288e-06
-6.11206e-06
5.72554e-06
-7.23819e-06
5.34949e-06
-8.5745e-06
4.93574e-06
-1.0164e-05
4.50786e-06
-1.20451e-05
4.09305e-06
-1.42632e-05
3.73667e-06
-1.68535e-05
3.48396e-06
-1.98585e-05
3.40865e-06
-2.33145e-05
3.57965e-06
-2.72579e-05
4.05463e-06
-3.17445e-05
4.95664e-06
-3.67449e-05
6.44529e-06
-4.22239e-05
8.81062e-06
-4.79504e-05
1.2324e-05
1.72952e-05
-5.35807e-05
-3.40936e-07
2.57633e-05
-1.06846e-06
-5.40479e-07
-1.80379e-06
4.83806e-06
-2.45401e-06
7.397e-06
-3.1101e-06
7.46417e-06
-3.82114e-06
7.25696e-06
-4.60228e-06
7.09817e-06
-5.47689e-06
6.92749e-06
-6.4749e-06
6.72357e-06
-7.62225e-06
6.49686e-06
-8.95138e-06
6.26483e-06
-1.04946e-05
6.05109e-06
-1.22866e-05
5.88502e-06
-1.43537e-05
5.80387e-06
-1.67269e-05
5.85719e-06
-1.94257e-05
6.10758e-06
-2.24625e-05
6.6164e-06
-2.58666e-05
7.45874e-06
-2.96363e-05
8.72639e-06
-3.37369e-05
1.05459e-05
-3.80778e-05
1.31515e-05
-4.24586e-05
1.67046e-05
2.13973e-05
-4.65608e-05
-3.52124e-07
2.61153e-05
-1.1174e-06
2.24713e-07
-1.87734e-06
5.59793e-06
-2.54924e-06
8.06884e-06
-3.23174e-06
8.14659e-06
-3.97054e-06
7.99568e-06
-4.77901e-06
7.90658e-06
-5.67494e-06
7.8234e-06
-6.67944e-06
7.72808e-06
-7.81542e-06
7.63287e-06
-9.10703e-06
7.55647e-06
-1.05789e-05
7.52295e-06
-1.22523e-05
7.55847e-06
-1.41492e-05
7.70087e-06
-1.62859e-05
7.99391e-06
-1.86686e-05
8.49034e-06
-2.13087e-05
9.25649e-06
-2.4202e-05
1.03521e-05
-2.73134e-05
1.18378e-05
-3.06005e-05
1.38329e-05
-3.39566e-05
1.65076e-05
-3.72269e-05
1.99748e-05
2.43284e-05
-4.0158e-05
-3.52943e-07
2.64682e-05
-1.15132e-06
1.02304e-06
-1.92409e-06
6.37064e-06
-2.60499e-06
8.74968e-06
-3.30003e-06
8.84157e-06
-4.05023e-06
8.7458e-06
-4.86476e-06
8.72108e-06
-5.75768e-06
8.71633e-06
-6.746e-06
8.71643e-06
-7.8471e-06
8.73398e-06
-9.07901e-06
8.78838e-06
-1.04558e-05
8.89977e-06
-1.19962e-05
9.09885e-06
-1.37111e-05
9.41591e-06
-1.56072e-05
9.88997e-06
-1.76848e-05
1.0568e-05
-1.99343e-05
1.1506e-05
-2.23388e-05
1.27566e-05
-2.48697e-05
1.43688e-05
-2.74598e-05
1.6423e-05
-3.00006e-05
1.90484e-05
-3.23635e-05
2.23378e-05
2.63305e-05
-3.43657e-05
-3.42671e-07
2.68109e-05
-1.16421e-06
1.84455e-06
-1.93976e-06
7.14616e-06
-2.61983e-06
9.42969e-06
-3.31432e-06
9.53601e-06
-4.06008e-06
9.49152e-06
-4.86482e-06
9.52582e-06
-5.73901e-06
9.59055e-06
-6.69264e-06
9.6701e-06
-7.74047e-06
9.78183e-06
-8.89431e-06
9.94223e-06
-1.01664e-05
1.01719e-05
-1.15647e-05
1.04972e-05
-1.30948e-05
1.09461e-05
-1.4756e-05
1.15512e-05
-1.65404e-05
1.23524e-05
-1.84316e-05
1.33972e-05
-2.04038e-05
1.47288e-05
-2.24178e-05
1.63829e-05
-2.44095e-05
1.84146e-05
-2.62791e-05
2.0918e-05
-2.79123e-05
2.39709e-05
2.75987e-05
-2.91805e-05
-3.21104e-07
2.7132e-05
-1.15452e-06
2.67793e-06
-1.92194e-06
7.91355e-06
-2.59296e-06
1.01007e-05
-3.2769e-06
1.02199e-05
-4.0077e-06
1.02223e-05
-4.78984e-06
1.0308e-05
-5.62875e-06
1.04295e-05
-6.53607e-06
1.05775e-05
-7.51963e-06
1.07655e-05
-8.58772e-06
1.10104e-05
-9.74706e-06
1.13313e-05
-1.1001e-05
1.17512e-05
-1.23494e-05
1.22945e-05
-1.37868e-05
1.29886e-05
-1.53002e-05
1.38658e-05
-1.68679e-05
1.49649e-05
-1.84598e-05
1.63207e-05
-2.00339e-05
1.79569e-05
-2.15256e-05
1.99064e-05
-2.2846e-05
2.22383e-05
-2.38947e-05
2.50195e-05
2.82778e-05
-2.45738e-05
-2.90061e-07
2.7422e-05
-1.12123e-06
3.50906e-06
-1.87081e-06
8.6631e-06
-2.52559e-06
1.07554e-05
-3.191e-06
1.08853e-05
-3.89759e-06
1.09289e-05
-4.64724e-06
1.10577e-05
-5.4444e-06
1.12268e-05
-6.29605e-06
1.14293e-05
-7.2079e-06
1.16774e-05
-8.18539e-06
1.19879e-05
-9.23058e-06
1.23765e-05
-1.03435e-05
1.28641e-05
-1.152e-05
1.34711e-05
-1.27512e-05
1.42199e-05
-1.40183e-05
1.51328e-05
-1.52989e-05
1.62455e-05
-1.6562e-05
1.75839e-05
-1.77631e-05
1.9158e-05
-1.88472e-05
2.09905e-05
-1.97264e-05
2.31175e-05
-2.03145e-05
2.56076e-05
2.84985e-05
-2.05354e-05
-2.48692e-07
2.76707e-05
-1.06525e-06
4.32558e-06
-1.78901e-06
9.38681e-06
-2.42192e-06
1.13883e-05
-3.06241e-06
1.15258e-05
-3.73782e-06
1.16044e-05
-4.44836e-06
1.17683e-05
-5.19733e-06
1.19759e-05
-5.98918e-06
1.22212e-05
-6.82738e-06
1.25157e-05
-7.71206e-06
1.28727e-05
-8.64434e-06
1.33089e-05
-9.62118e-06
1.3841e-05
-1.06354e-05
1.44853e-05
-1.16772e-05
1.52616e-05
-1.27287e-05
1.61843e-05
-1.37623e-05
1.72791e-05
-1.47478e-05
1.85694e-05
-1.56474e-05
2.00576e-05
-1.64028e-05
2.17458e-05
-1.69386e-05
2.36532e-05
-1.71753e-05
2.58442e-05
2.83728e-05
-1.70496e-05
-1.94003e-07
2.78647e-05
-9.8823e-07
5.11976e-06
-1.68152e-06
1.00801e-05
-2.2882e-06
1.1995e-05
-2.89875e-06
1.21364e-05
-3.53794e-06
1.22436e-05
-4.20508e-06
1.24355e-05
-4.90078e-06
1.26716e-05
-5.62794e-06
1.29485e-05
-6.38857e-06
1.32765e-05
-7.183e-06
1.36672e-05
-8.00886e-06
1.41348e-05
-8.86093e-06
1.46931e-05
-9.72986e-06
1.53542e-05
-1.06026e-05
1.61343e-05
-1.14644e-05
1.70461e-05
-1.22901e-05
1.81048e-05
-1.30476e-05
1.93269e-05
-1.37033e-05
2.07132e-05
-1.42049e-05
2.22474e-05
-1.44871e-05
2.39354e-05
-1.44726e-05
2.58296e-05
2.8004e-05
-1.41038e-05
-1.20241e-07
2.79849e-05
-8.93564e-07
5.89304e-06
-1.55427e-06
1.07408e-05
-2.13084e-06
1.25715e-05
-2.70601e-06
1.27116e-05
-3.30375e-06
1.28415e-05
-3.92222e-06
1.30541e-05
-4.56212e-06
1.33116e-05
-5.22367e-06
1.36102e-05
-5.90854e-06
1.39614e-05
-6.61507e-06
1.43739e-05
-7.33779e-06
1.48576e-05
-8.07175e-06
1.54271e-05
-8.80901e-06
1.60915e-05
-9.53418e-06
1.68594e-05
-1.02334e-05
1.77453e-05
-1.08844e-05
1.87558e-05
-1.14557e-05
1.98982e-05
-1.19208e-05
2.11782e-05
-1.22346e-05
2.25612e-05
-1.23409e-05
2.40417e-05
-1.21684e-05
2.5657e-05
2.7493e-05
-1.16574e-05
-1.75107e-08
2.80024e-05
-7.8451e-07
6.66006e-06
-1.4132e-06
1.13695e-05
-1.95535e-06
1.31137e-05
-2.49065e-06
1.3247e-05
-3.04486e-06
1.33957e-05
-3.61082e-06
1.36201e-05
-4.19031e-06
1.38912e-05
-4.7842e-06
1.42042e-05
-5.39152e-06
1.45689e-05
-6.00811e-06
1.49905e-05
-6.63282e-06
1.54824e-05
-7.25599e-06
1.60502e-05
-7.87072e-06
1.67062e-05
-8.46302e-06
1.74517e-05
-9.01998e-06
1.83022e-05
-9.52155e-06
1.92573e-05
-9.94607e-06
2.03227e-05
-1.02583e-05
2.14903e-05
-1.04383e-05
2.27412e-05
-1.04368e-05
2.40401e-05
-1.01799e-05
2.54002e-05
2.69329e-05
-9.61987e-06
1.10653e-07
2.78917e-05
-6.63949e-07
7.43473e-06
-1.26137e-06
1.19669e-05
-1.76452e-06
1.3617e-05
-2.25683e-06
1.37394e-05
-2.76087e-06
1.38998e-05
-3.27138e-06
1.41306e-05
-3.78863e-06
1.44085e-05
-4.31107e-06
1.47267e-05
-4.83689e-06
1.50948e-05
-5.36471e-06
1.55184e-05
-5.8899e-06
1.60076e-05
-6.40669e-06
1.6567e-05
-6.90589e-06
1.72053e-05
-7.37749e-06
1.79232e-05
-7.80509e-06
1.87298e-05
-8.1784e-06
1.96306e-05
-8.4684e-06
2.06126e-05
-8.66186e-06
2.16838e-05
-8.73506e-06
2.28144e-05
-8.65467e-06
2.39597e-05
-8.37187e-06
2.51173e-05
2.63917e-05
-7.83077e-06
2.54612e-07
2.76371e-05
-5.33245e-07
8.22267e-06
-1.10193e-06
1.25356e-05
-1.56345e-06
1.40785e-05
-2.00918e-06
1.41851e-05
-2.46147e-06
1.43521e-05
-2.9164e-06
1.45856e-05
-3.36871e-06
1.48609e-05
-3.81811e-06
1.51762e-05
-4.26206e-06
1.55388e-05
-4.70013e-06
1.59566e-05
-5.12847e-06
1.6436e-05
-5.54138e-06
1.69799e-05
-5.9262e-06
1.75901e-05
-6.2785e-06
1.82755e-05
-6.58844e-06
1.90397e-05
-6.83351e-06
1.98757e-05
-7.00675e-06
2.07859e-05
-7.08495e-06
2.17619e-05
-7.0555e-06
2.27849e-05
-6.90352e-06
2.38077e-05
-6.59701e-06
2.48107e-05
2.58811e-05
-6.08657e-06
4.01199e-07
2.7236e-05
-3.98438e-07
9.02238e-06
-9.4169e-07
1.30789e-05
-1.36026e-06
1.44971e-05
-1.75839e-06
1.45832e-05
-2.16393e-06
1.47577e-05
-2.56113e-06
1.49829e-05
-2.95051e-06
1.52504e-05
-3.33078e-06
1.55565e-05
-3.69853e-06
1.59066e-05
-4.04821e-06
1.63063e-05
-4.38362e-06
1.67714e-05
-4.69515e-06
1.72914e-05
-4.97339e-06
1.78683e-05
-5.21607e-06
1.85182e-05
-5.40581e-06
1.92295e-05
-5.5355e-06
2.00053e-05
-5.5865e-06
2.08368e-05
-5.54564e-06
2.1721e-05
-5.39986e-06
2.2639e-05
-5.14494e-06
2.35527e-05
-4.77065e-06
2.44364e-05
2.53569e-05
-4.24644e-06
5.53841e-07
2.66822e-05
-2.65419e-07
9.8417e-06
-7.89505e-07
1.36031e-05
-1.16644e-06
1.48741e-05
-1.52425e-06
1.4941e-05
-1.88495e-06
1.51184e-05
-2.23468e-06
1.53327e-05
-2.56792e-06
1.55837e-05
-2.88646e-06
1.58751e-05
-3.18587e-06
1.62061e-05
-3.4645e-06
1.6585e-05
-3.71955e-06
1.70265e-05
-3.94531e-06
1.75171e-05
-4.13769e-06
1.80607e-05
-4.27719e-06
1.86577e-05
-4.36153e-06
1.93137e-05
-4.38179e-06
2.00255e-05
-4.32038e-06
2.07753e-05
-4.15281e-06
2.15534e-05
-3.88174e-06
2.23679e-05
-3.49733e-06
2.31683e-05
-2.99991e-06
2.3939e-05
2.47348e-05
-2.37781e-06
7.15322e-07
2.59669e-05
-1.35661e-07
1.06928e-05
-6.51971e-07
1.41195e-05
-9.94579e-07
1.52167e-05
-1.32183e-06
1.52683e-05
-1.64881e-06
1.54454e-05
-1.95919e-06
1.56431e-05
-2.25268e-06
1.58772e-05
-2.52556e-06
1.61481e-05
-2.77105e-06
1.64516e-05
-3.00223e-06
1.68163e-05
-3.19897e-06
1.72233e-05
-3.36216e-06
1.76804e-05
-3.48454e-06
1.8183e-05
-3.55818e-06
1.87313e-05
-3.5694e-06
1.93249e-05
-3.50262e-06
1.99586e-05
-3.34331e-06
2.06159e-05
-3.08342e-06
2.12934e-05
-2.69767e-06
2.19822e-05
-2.18652e-06
2.26571e-05
-1.54808e-06
2.33006e-05
2.39788e-05
-7.92104e-07
8.7497e-07
2.5092e-05
-8.08109e-09
1.15759e-05
-5.30737e-07
1.46422e-05
-8.48663e-07
1.55346e-05
-1.15906e-06
1.55787e-05
-1.46426e-06
1.57506e-05
-1.7469e-06
1.59258e-05
-2.01329e-06
1.61436e-05
-2.25647e-06
1.63913e-05
-2.4855e-06
1.66808e-05
-2.68327e-06
1.70141e-05
-2.85101e-06
1.73911e-05
-2.98125e-06
1.78106e-05
-3.06947e-06
1.82712e-05
-3.10295e-06
1.87647e-05
-3.07196e-06
1.92938e-05
-2.95969e-06
1.98462e-05
-2.75426e-06
2.04104e-05
-2.43954e-06
2.09787e-05
-1.99225e-06
2.15349e-05
-1.41126e-06
2.20762e-05
-6.98501e-07
2.25878e-05
2.31129e-05
1.67385e-07
1.00732e-06
2.40847e-05
8.54842e-08
1.24979e-05
-4.29461e-07
1.51572e-05
-7.28431e-07
1.58336e-05
-1.03097e-06
1.58812e-05
-1.31975e-06
1.60394e-05
-1.58968e-06
1.61957e-05
-1.83999e-06
1.63939e-05
-2.07505e-06
1.66264e-05
-2.29138e-06
1.68972e-05
-2.48099e-06
1.72038e-05
-2.63863e-06
1.75487e-05
-2.76136e-06
1.79333e-05
-2.84208e-06
1.83519e-05
-2.87214e-06
1.87947e-05
-2.83719e-06
1.92588e-05
-2.72407e-06
1.97331e-05
-2.52058e-06
2.02069e-05
-2.20217e-06
2.06603e-05
-1.76517e-06
2.10979e-05
-1.1974e-06
2.15083e-05
-4.85595e-07
2.18759e-05
2.22437e-05
3.83614e-07
1.10353e-06
2.29813e-05
1.60926e-07
1.34407e-05
-3.41745e-07
1.56599e-05
-6.26501e-07
1.61184e-05
-9.241e-07
1.61788e-05
-1.20073e-06
1.6316e-05
-1.45882e-06
1.64538e-05
-1.70288e-06
1.6638e-05
-1.93272e-06
1.68563e-05
-2.14545e-06
1.711e-05
-2.33695e-06
1.73953e-05
-2.49745e-06
1.77092e-05
-2.62725e-06
1.80631e-05
-2.71769e-06
1.84423e-05
-2.75745e-06
1.88344e-05
-2.73678e-06
1.92381e-05
-2.6472e-06
1.96435e-05
-2.47455e-06
2.00342e-05
-2.19833e-06
2.0384e-05
-1.82661e-06
2.07261e-05
-1.33073e-06
2.10124e-05
-6.96339e-07
2.12415e-05
2.1462e-05
8.53039e-08
1.14316e-06
2.18382e-05
2.09885e-07
1.4374e-05
-2.67524e-07
1.61374e-05
-5.34605e-07
1.63855e-05
-8.22434e-07
1.64667e-05
-1.08417e-06
1.65778e-05
-1.32744e-06
1.66971e-05
-1.56604e-06
1.68767e-05
-1.78277e-06
1.70731e-05
-1.99501e-06
1.73222e-05
-2.18443e-06
1.75847e-05
-2.34284e-06
1.78676e-05
-2.48249e-06
1.82027e-05
-2.58517e-06
1.8545e-05
-2.63288e-06
1.88821e-05
-2.63075e-06
1.92359e-05
-2.57219e-06
1.95849e-05
-2.4402e-06