/*--------------------------------*- C++ -*----------------------------------*\
| =========                 |                                                 |
| \\      /  F ield         | OpenFOAM: The Open Source CFD Toolbox           |
|  \\    /   O peration     | Version:  2.3.0                                 |
|   \\  /    A nd           | Web:      www.OpenFOAM.org                      |
|    \\/     M anipulation  |                                                 |
\*---------------------------------------------------------------------------*/
FoamFile
{
    version     2.0;
    format      ascii;
    class       surfaceScalarField;
    location    "56";
    object      phi.water;
}
// * * * * * * * * * * * * * * * * * * * * * * * * * * * * * * * * * * * * * //

dimensions      [0 3 -1 0 0 0 0];

internalField   nonuniform List<scalar> 
3650
(
3.94726e-05
-4.13496e-05
8.03067e-05
-4.64483e-05
0.000125627
-4.80922e-05
0.000171084
-4.688e-05
0.000214046
-4.36749e-05
0.000252847
-3.91859e-05
0.000286654
-3.39485e-05
0.000314851
-2.82915e-05
0.000336989
-2.24149e-05
0.000352709
-1.63834e-05
0.000361684
-1.0304e-05
0.0003637
-4.43607e-06
0.000357874
2.77243e-06
0.000343655
1.13238e-05
0.000322005
1.8847e-05
0.000293727
2.52343e-05
0.000260604
2.99959e-05
0.000224746
3.27333e-05
0.000188467
3.34256e-05
0.000154012
3.22645e-05
0.000122809
2.99126e-05
9.45004e-05
2.75652e-05
6.73923e-05
2.69387e-05
3.63167e-05
2.82431e-05
2.87535e-05
5.44897e-05
-8.65741e-05
9.58493e-05
-8.46724e-05
0.000132462
-8.23905e-05
0.000166968
-7.73968e-05
0.000198433
-7.05224e-05
0.000226624
-6.22088e-05
0.000251267
-5.2848e-05
0.000271999
-4.27073e-05
0.000288387
-3.19426e-05
0.000299998
-2.0587e-05
0.000306081
-8.29514e-06
0.000305949
4.34428e-06
0.000301014
1.5543e-05
0.00029117
2.74213e-05
0.000275494
3.89051e-05
0.000253668
4.91619e-05
0.000226448
5.69409e-05
0.000196354
6.1399e-05
0.000165245
6.2716e-05
0.000134372
6.13793e-05
0.000104317
5.84885e-05
7.58063e-05
5.55624e-05
4.95433e-05
5.46887e-05
2.451e-05
5.57381e-05
5.31814e-05
4.52202e-05
-0.000120395
8.3593e-05
-0.000116352
0.00011401
-0.000108823
0.000139722
-9.98089e-05
0.000161552
-8.94914e-05
0.000179934
-7.79479e-05
0.000194882
-6.53572e-05
0.000206435
-5.19317e-05
0.000214703
-3.78604e-05
0.000219815
-2.33045e-05
0.00022233
-8.4848e-06
0.000222224
6.93466e-06
0.000217849
2.30676e-05
0.000209477
3.90231e-05
0.000196848
5.44107e-05
0.000180125
6.82138e-05
0.000159138
7.89158e-05
0.0001357
8.48899e-05
0.000111164
8.63444e-05
8.73013e-05
8.40948e-05
6.53979e-05
7.96954e-05
4.57517e-05
7.50254e-05
2.86748e-05
7.19769e-05
1.45827e-05
7.01705e-05
6.73071e-05
2.77123e-05
-0.000139269
5.23426e-05
-0.000133865
7.17302e-05
-0.000124406
8.80655e-05
-0.000113307
0.000101691
-0.000100699
0.000112496
-8.66494e-05
0.000120314
-7.13866e-05
0.000124997
-5.52091e-05
0.000126859
-3.84691e-05
0.000126151
-2.13426e-05
0.000122845
-3.8404e-06
0.000117301
1.38648e-05
0.000110105
3.18137e-05
0.000101228
4.96586e-05
9.06788e-05
6.67078e-05
7.87315e-05
8.17611e-05
6.58723e-05
9.30812e-05
5.2675e-05
9.869e-05
3.99617e-05
9.90413e-05
2.8545e-05
9.51973e-05
1.89934e-05
8.90595e-05
1.13085e-05
8.27102e-05
5.83437e-06
7.78585e-05
2.10537e-06
7.41618e-05
6.9455e-05
1.04361e-05
-0.000145909
1.93263e-05
-0.000140318
2.56585e-05
-0.000130098
3.11091e-05
-0.000117912
3.4611e-05
-0.000103698
3.58338e-05
-8.77067e-05
3.47651e-05
-7.04019e-05
3.15503e-05
-5.22277e-05
2.65389e-05
-3.36814e-05
2.00924e-05
-1.50352e-05
1.2573e-05
3.63819e-06
4.22499e-06
2.22966e-05
-4.50289e-06
4.07136e-05
-1.30464e-05
5.84763e-05
-2.0642e-05
7.47145e-05
-2.64303e-05
8.80799e-05
-2.94041e-05
9.69036e-05
-3.04269e-05
0.000100083
-2.93863e-05
9.82261e-05
-2.67681e-05
9.26462e-05
-2.29558e-05
8.52724e-05
-1.83464e-05
7.80155e-05
-1.28639e-05
7.22429e-05
-6.50519e-06
6.79118e-05
6.35199e-05
-4.08049e-06
-0.000142536
-9.357e-06
-0.000136138
-1.54677e-05
-0.000125119
-2.19365e-05
-0.000112198
-3.03491e-05
-9.67986e-05
-4.05212e-05
-7.94736e-05
-5.19224e-05
-6.10238e-05
-6.39305e-05
-4.2082e-05
-7.61241e-05
-2.31967e-05
-8.80137e-05
-4.67239e-06
-9.91118e-05
1.33938e-05
-0.000108807
3.0878e-05
-0.000116394
4.74597e-05
-0.000120935
6.25444e-05
-0.000121421
7.51981e-05
-0.000117304
8.43401e-05
-0.000108948
8.9022e-05
-9.73705e-05
8.89898e-05
-8.37015e-05
8.5016e-05
-6.91782e-05
7.84803e-05
-5.46561e-05
7.09899e-05
-4.05496e-05
6.39763e-05
-2.6959e-05
5.8368e-05
-1.32772e-05
5.43509e-05
5.11159e-05
-1.65039e-05
-0.000128561
-3.42284e-05
-0.000121489
-5.11919e-05
-0.000110022
-6.96031e-05
-9.65608e-05
-9.01583e-05
-8.03506e-05
-0.000111359
-6.24882e-05
-0.000132276
-4.41426e-05
-0.000151889
-2.60985e-05
-0.000169335
-8.86912e-06
-0.000183915
7.2839e-06
-0.000194896
2.22903e-05
-0.000201518
3.60417e-05
-0.000203093
4.82193e-05
-0.000199092
5.83024e-05
-0.000189457
6.57016e-05
-0.000174578
6.99014e-05
-0.000155694
7.06644e-05
-0.000134123
6.81124e-05
-0.000111669
6.32099e-05
-8.97188e-05
5.70291e-05
-6.90652e-05
5.06385e-05
-4.98472e-05
4.49306e-05
-3.22716e-05
4.05303e-05
-1.56649e-05
3.77966e-05
3.63271e-05
-2.62579e-05
-0.000106152
-5.34394e-05
-9.85284e-05
-7.94489e-05
-8.64294e-05
-0.000108613
-7.24618e-05
-0.000138926
-5.59344e-05
-0.000168059
-3.86805e-05
-0.000194752
-2.21018e-05
-0.000217572
-6.98908e-06
-0.000235365
6.23242e-06
-0.000247398
1.75633e-05
-0.00025333
2.72438e-05
-0.000252905
3.52303e-05
-0.000246097
4.14608e-05
-0.000233156
4.57436e-05
-0.000214831
4.79444e-05
-0.000192229
4.79515e-05
-0.00016659
4.59344e-05
-0.000139902
4.2299e-05
-0.000113774
3.77908e-05
-8.93151e-05
3.30417e-05
-6.70549e-05
2.86389e-05
-4.70272e-05
2.50689e-05
-2.95414e-05
2.27869e-05
-1.42285e-05
2.22221e-05
2.28029e-05
-3.35268e-05
-7.84088e-05
-6.66942e-05
-6.94973e-05
-9.89282e-05
-5.66475e-05
-0.000134659
-4.24751e-05
-0.000169189
-2.66637e-05
-0.000200617
-1.16111e-05
-0.000227329
1.37081e-06
-0.000247986
1.16345e-05
-0.00026202
1.9251e-05
-0.000269021
2.42878e-05
-0.000268993
2.74389e-05
-0.00026204
2.89617e-05
-0.000248754
2.9122e-05
-0.000230058
2.80607e-05
-0.000207041
2.59953e-05
-0.000181008
2.30892e-05
-0.000153536
1.96262e-05
-0.000126322
1.59855e-05
-0.000100488
1.25836e-05
-7.6831e-05
9.74344e-06
-5.57813e-05
7.75833e-06
-3.75478e-05
6.88722e-06
-2.25729e-05
7.46104e-06
-1.06566e-05
9.79385e-06
1.27032e-05
-3.88392e-05
-4.73579e-05
-7.44848e-05
-3.69913e-05
-0.000109192
-2.37784e-05
-0.000145875
-1.0286e-05
-0.000179402
3.47866e-06
-0.000208581
1.50119e-05
-0.000231884
2.31829e-05
-0.000248232
2.76673e-05
-0.000257499
2.87916e-05
-0.000259877
2.72923e-05
-0.000255195
2.41708e-05
-0.000244292
1.96501e-05
-0.000228296
1.45502e-05
-0.000208031
9.37454e-06
-0.000184723
4.31715e-06
-0.000159738
-4.19869e-07
-0.0001343
-4.61643e-06
-0.000109422
-8.03711e-06
-8.57917e-05
-1.04669e-05
-6.39963e-05
-1.16962e-05
-4.45366e-05
-1.15e-05
-2.79572e-05
-9.6289e-06
-1.50114e-05
-5.75903e-06
-5.96698e-06
2.91689e-07
6.64599e-06
-4.06917e-05
-1.55278e-05
-7.53138e-05
-3.92797e-06
-0.000109324
8.90609e-06
-0.000143084
2.05987e-05
-0.000172951
3.13961e-05
-0.00019812
3.89121e-05
-0.000217389
4.21299e-05
-0.000230204
4.09138e-05
-0.000235985
3.58819e-05
-0.000235151
2.8214e-05
-0.000228701
1.94303e-05
-0.00021748
1.03772e-05
-0.000202433
1.65887e-06
-0.000184659
-6.37007e-06
-0.000165023
-1.35019e-05
-0.000144349
-1.96095e-05
-0.000123225
-2.45934e-05
-0.000102061
-2.83418e-05
-8.11927e-05
-3.06872e-05
-6.10122e-05
-3.13826e-05
-4.20341e-05
-3.00893e-05
-2.50906e-05
-2.63371e-05
-1.13713e-05
-1.95351e-05
-2.60764e-06
-9.15403e-06
2.05745e-06
-3.88696e-05
1.49559e-05
-6.90572e-05
2.73565e-05
-9.93156e-05
3.93083e-05
-0.000129098
4.86411e-05
-0.000154961
5.61795e-05
-0.000176437
5.97329e-05
-0.000192631
5.83694e-05
-0.000202961
5.20537e-05
-0.000207254
4.18099e-05
-0.0002063
2.93657e-05
-0.000201034
1.64933e-05
-0.000192492
4.1714e-06
-0.00018155
-7.09864e-06
-0.000168943
-1.70999e-05
-0.000155142
-2.57974e-05
-0.000140392
-3.32275e-05
-0.000124769
-3.94112e-05
-0.000108274
-4.42895e-05
-9.0923e-05
-4.76486e-05
-7.28553e-05
-4.91573e-05
-5.44009e-05
-4.83316e-05
-3.63421e-05
-4.43901e-05
-1.99909e-05
-3.62838e-05
-8.34424e-06
-2.28827e-05
-8.15089e-06
-3.42861e-05
4.24144e-05
-5.91294e-05
5.48529e-05
-8.38643e-05
6.57191e-05
-0.000109175
7.30592e-05
-0.000131198
7.76939e-05
-0.000149471
7.77524e-05
-0.000163198
7.24545e-05
-0.000171791
6.1907e-05
-0.000175739
4.77118e-05
-0.000176161
3.19964e-05
-0.000173911
1.64654e-05
-0.000169789
2.04057e-06
-0.0001644
-1.08932e-05
-0.00015802
-2.2335e-05
-0.000150665
-3.24079e-05
-0.000142216
-4.12535e-05
-0.000132491
-4.89492e-05
-0.000121281
-5.54602e-05
-0.000108382
-6.06092e-05
-9.36422e-05
-6.40243e-05
-7.71319e-05
-6.5104e-05
-5.90066e-05
-6.29468e-05
-4.07465e-05
-5.6158e-05
-2.36699e-05
-4.36382e-05
-3.03776e-05
-2.75498e-05
6.45173e-05
-4.72815e-05
7.68681e-05
-6.65749e-05
8.68564e-05
-8.66922e-05
9.27461e-05
-0.000104384
9.51741e-05
-0.000119149
9.25394e-05
-0.000130296
8.42474e-05
-0.000137659
7.06983e-05
-0.000142114
5.40006e-05
-0.000144615
3.63644e-05
-0.00014591
1.93286e-05
-0.000146378
3.6442e-06
-0.000146069
-1.04678e-05
-0.000144889
-2.31e-05
-0.000142679
-3.44407e-05
-0.000139229
-4.46639e-05
-0.000134324
-5.38749e-05
-0.000127795
-6.20717e-05
-0.000119387
-6.91686e-05
-0.000108771
-7.48915e-05
-9.55216e-05
-7.87289e-05
-7.90643e-05
-7.99351e-05
-6.03407e-05
-7.73228e-05
-3.63463e-05
-7.03791e-05
-6.28378e-05
-1.92039e-05
7.98634e-05
-3.30054e-05
9.22854e-05
-4.64257e-05
0.000101857
-6.08275e-05
0.000106958
-7.37057e-05
0.000108049
-8.47479e-05
0.000103746
-9.33931e-05
9.36413e-05
-9.99605e-05
7.84932e-05
-0.000105278
6.063e-05
-0.000109909
4.21161e-05
-0.00011404
2.42921e-05
-0.000117674
7.79208e-06
-0.000120614
-7.24172e-06
-0.000122657
-2.09081e-05
-0.000123636
-3.33923e-05
-0.000123416
-4.48652e-05
-0.000121848
-5.54267e-05
-0.00011876
-6.51104e-05
-0.000114004
-7.38867e-05
-0.00010726
-8.16525e-05
-9.79498e-05
-8.81769e-05
-8.5266e-05
-9.30924e-05
-6.78569e-05
-9.60602e-05
-4.02114e-05
-9.70912e-05
-9.65856e-05
-1.00142e-05
8.75306e-05
-1.69549e-05
0.000100166
-2.39288e-05
0.000109855
-3.19368e-05
0.00011493
-3.94073e-05
0.000115673
-4.64254e-05
0.00011098
-5.27311e-05
0.0001005
-5.86205e-05
8.51453e-05
-6.44282e-05
6.72004e-05
-7.02483e-05
4.85437e-05
-7.58515e-05
3.03737e-05
-8.10336e-05
1.33171e-05
-8.55995e-05
-2.46503e-06
-8.9355e-05
-1.70425e-05
-9.21033e-05
-3.05722e-05
-9.36965e-05
-4.31949e-05
-9.4051e-05
-5.49951e-05
-9.30528e-05
-6.6017e-05
-9.05858e-05
-7.62709e-05
-8.64351e-05
-8.57419e-05
-8.02021e-05
-9.43825e-05
-7.12314e-05
-0.000102233
-5.73527e-05
-0.000109699
-3.35152e-05
-0.000117109
-0.000121626
-5.99133e-07
8.71169e-05
4.28197e-08
9.99756e-05
4.34523e-08
0.000110229
-1.01579e-06
0.000115982
-2.64095e-06
0.00011746
-5.24758e-06
0.00011377
-8.92631e-06
0.000104463
-1.36853e-05
9.02387e-05
-1.92285e-05
7.31647e-05
-2.52713e-05
5.501e-05
-3.15088e-05
3.69421e-05
-3.75708e-05
1.96168e-05
-4.3171e-05
3.27305e-06
-4.80642e-05
-1.20966e-05
-5.20414e-05
-2.65951e-05
-5.4962e-05
-4.03118e-05
-5.67512e-05
-5.32928e-05
-5.73505e-05
-6.55778e-05
-5.65718e-05
-7.72137e-05
-5.42414e-05
-8.82278e-05
-5.01071e-05
-9.86341e-05
-4.36598e-05
-0.000108546
-3.48963e-05
-0.000118492
-2.04469e-05
-0.000129109
-0.000135801
7.71013e-06
7.93319e-05
1.66101e-05
9.15538e-05
2.4187e-05
0.000102553
3.03315e-05
0.000109784
3.48496e-05
0.000113005
3.72531e-05
0.000111503
3.70564e-05
0.000104803
3.41969e-05
9.31122e-05
2.9392e-05
7.80292e-05
2.33364e-05
6.11994e-05
1.65749e-05
4.3845e-05
9.62241e-06
2.67014e-05
2.86286e-06
1.01212e-05
-3.41476e-06
-5.80243e-06
-8.97815e-06
-2.10932e-05
-1.3655e-05
-3.57719e-05
-1.73522e-05
-4.98289e-05
-2.00251e-05
-6.32792e-05
-2.15723e-05
-7.61923e-05
-2.17601e-05
-8.86257e-05
-2.02815e-05
-0.000100566
-1.69139e-05
-0.000111923
-1.30422e-05
-0.000122904
-8.49766e-06
-0.000134572
-0.000142628
1.49244e-05
6.48861e-05
3.14062e-05
7.57752e-05
4.60992e-05
8.74359e-05
5.92774e-05
9.65782e-05
7.00695e-05
0.000102232
7.78859e-05
0.000103741
8.20684e-05
0.000100667
8.2153e-05
9.28427e-05
7.87621e-05
8.11069e-05
7.29226e-05
6.67608e-05
6.55609e-05
5.10411e-05
5.74024e-05
3.47998e-05
4.89925e-05
1.8529e-05
4.07193e-05
2.46491e-06
3.28619e-05
-1.33033e-05
2.56474e-05
-2.8708e-05
1.92604e-05
-4.36715e-05
1.37964e-05
-5.81474e-05
9.32346e-06
-7.21714e-05
5.92991e-06
-8.5783e-05
3.73613e-06
-9.89091e-05
2.72729e-06
-0.000111247
2.04503e-06
-0.000122573
-8.06723e-08
-0.000134469
-0.000143769
1.93942e-05
4.61391e-05
4.09249e-05
5.49809e-05
6.17062e-05
6.63947e-05
8.12725e-05
7.71752e-05
9.80568e-05
8.54794e-05
0.000111354
9.04224e-05
0.000120576
9.14644e-05
0.000124924
8.83388e-05
0.000124398
8.11954e-05
0.000119839
7.07249e-05
0.000112327
5.79462e-05
0.000102876
4.37274e-05
9.2446e-05
2.86078e-05
8.1704e-05
1.30041e-05
7.10751e-05
-2.8085e-06
6.08701e-05
-1.86365e-05
5.13556e-05
-3.43046e-05
4.27213e-05
-4.96745e-05
3.50551e-05
-6.46842e-05
2.83368e-05
-7.92708e-05
2.2329e-05
-9.32683e-05
1.70844e-05
-0.000106292
1.27258e-05
-0.000117809
6.17686e-06
-0.000129373
-0.000139341
2.0783e-05
2.58436e-05
4.41481e-05
3.2052e-05
6.88755e-05
4.19677e-05
9.33469e-05
5.33525e-05
0.000115283
6.38503e-05
0.000133708
7.2097e-05
0.000147887
7.73113e-05
0.000157159
7.9069e-05
0.000160937
7.71877e-05
0.000159331
7.17273e-05
0.00015304
6.33038e-05
0.00014293
5.2515e-05
0.000130611
3.97187e-05
0.000117291
2.54052e-05
0.000103773
1.00949e-05
9.05487e-05
-5.79805e-06
7.79509e-05
-2.19449e-05
6.62184e-05
-3.80756e-05
5.54476e-05
-5.39801e-05
4.55729e-05
-6.94337e-05
3.63077e-05
-8.41423e-05
2.75225e-05
-9.76856e-05
1.98178e-05
-0.000109376
1.07427e-05
-0.000120621
-0.000130528
1.9559e-05
6.55927e-06
4.18725e-05
9.68822e-06
6.75663e-05
1.70389e-05
9.46526e-05
2.76378e-05
0.000120163
3.92783e-05
0.000142613
5.01848e-05
0.000160999
5.92014e-05
0.000174607
6.55912e-05
0.000182952
6.89142e-05
0.000185378
6.89649e-05
0.00018197
6.58191e-05
0.000173537
5.97518e-05
0.00016095
5.0546e-05
0.000145836
3.86591e-05
0.000129775
2.46142e-05
0.00011375
9.1157e-06
9.83259e-05
-7.25055e-06
8.38317e-05
-2.40116e-05
7.03912e-05
-4.07613e-05
5.79376e-05
-5.70765e-05
4.62529e-05
-7.25004e-05
3.49517e-05
-8.6538e-05
2.48608e-05
-9.84565e-05
1.37784e-05
-0.000109441
-0.000119219
1.63967e-05
-9.67979e-06
3.57393e-05
-1.01067e-05
5.95294e-05
-6.00812e-06
8.65456e-05
2.56089e-06
0.0001135
1.40349e-05
0.000138313
2.66149e-05
0.000159543
3.88116e-05
0.000176152
4.94884e-05
0.000187633
5.7812e-05
0.000193414
6.33384e-05
0.000193598
6.5485e-05
0.000188607
6.4391e-05
0.000178663
5.97607e-05
0.000164467
5.1384e-05
0.000147635
3.96287e-05
0.000129752
2.52268e-05
0.000112042
9.02278e-06
9.52283e-05
-8.21473e-06
7.96423e-05
-2.58091e-05
6.53179e-05
-4.30823e-05
5.20596e-05
-5.9353e-05
3.93713e-05
-7.39855e-05
2.78953e-05
-8.62046e-05
1.57281e-05
-9.69682e-05
-0.000106566
1.22577e-05
-2.18871e-05
2.77223e-05
-2.63536e-05
4.75288e-05
-2.58066e-05
7.19116e-05
-2.00646e-05
9.80387e-05
-9.94158e-06
0.000123437
3.16186e-06
0.000146098
1.77084e-05
0.000164526
3.22218e-05
0.000177771
4.53445e-05
0.000185566
5.61006e-05
0.000188236
6.34233e-05
0.00018615
6.68532e-05
0.000179592
6.64867e-05
0.000168529
6.2155e-05
0.000153519
5.35469e-05
0.000135992
4.11232e-05
0.000117531
2.57081e-05
9.94435e-05
8.31295e-06
8.25213e-05
-1.00492e-05
6.70977e-05
-2.83676e-05
5.30752e-05
-4.56449e-05
3.99831e-05
-6.10214e-05
2.80997e-05
-7.3624e-05
1.59791e-05
-8.42826e-05
-9.35105e-05
8.02554e-06
-3.03255e-05
1.99177e-05
-3.91726e-05
3.55901e-05
-4.21267e-05
5.55335e-05
-3.92192e-05
7.84432e-05
-3.09895e-05
0.000102133
-1.83099e-05
0.000124396
-2.43245e-06
0.000143322
1.50928e-05
0.00015757
3.24901e-05
0.000166525
4.81336e-05
0.000170208
6.04003e-05
0.000169323
6.82773e-05
0.000164554
7.16389e-05
0.000156197
7.0671e-05
0.000144141
6.52024e-05
0.000129168
5.50936e-05
0.000112352
4.10344e-05
9.50275e-05
2.39697e-05
7.83567e-05
5.11883e-06
6.30883e-05
-1.417e-05
4.94001e-05
-3.251e-05
3.69136e-05
-4.87216e-05
2.56596e-05
-6.17709e-05
1.44873e-05
-7.24615e-05
-8.14135e-05
5.67717e-06
-3.707e-05
1.48889e-05
-4.95465e-05
2.73907e-05
-5.53349e-05
4.26096e-05
-5.44821e-05
6.03462e-05
-4.77885e-05
7.96305e-05
-3.57851e-05
9.87498e-05
-1.93633e-05
0.000115819
1.72601e-07
0.000129192
2.09524e-05
0.000137946
4.0882e-05
0.000141389
5.77259e-05
0.000140895
6.9454e-05
0.000136939
7.59899e-05
0.000130257
7.74938e-05
0.000121033
7.43088e-05
0.0001095
6.61082e-05
9.62041e-05
5.3407e-05
8.18544e-05
3.70174e-05
6.74717e-05
1.80803e-05
5.39928e-05
-1.89396e-06
4.1949e-05
-2.11656e-05
3.11534e-05
-3.81692e-05
2.15186e-05
-5.16576e-05
1.20233e-05
-6.24319e-05
-7.12674e-05
7.18769e-06
-4.45614e-05
1.40638e-05
-5.81909e-05
2.386e-05
-6.56333e-05
3.47137e-05
-6.56418e-05
4.65998e-05
-5.9557e-05
5.95392e-05
-4.78084e-05
7.2914e-05
-3.10801e-05
8.54256e-05
-1.03284e-05
9.55462e-05
1.27467e-05
0.000102354
3.58203e-05
0.000104626
5.62789e-05
0.000104043
7.08561e-05
0.000100841
7.96015e-05
9.57476e-05
8.27996e-05
8.91209e-05
8.08772e-05
8.10791e-05
7.38541e-05
7.19331e-05
6.20455e-05
6.19396e-05
4.6285e-05
5.15035e-05
2.75589e-05
4.13467e-05
7.29999e-06
3.21216e-05
-1.25697e-05
2.38726e-05
-3.0152e-05
1.65492e-05
-4.39607e-05
9.26426e-06
-5.47447e-05
-6.34749e-05
9.63144e-06
-5.34953e-05
1.42316e-05
-6.53352e-05
2.12755e-05
-7.30438e-05
2.81999e-05
-7.28311e-05
3.49901e-05
-6.64316e-05
4.17073e-05
-5.42837e-05
4.84274e-05
-3.70224e-05
5.47732e-05
-1.54019e-05
5.97584e-05
9.09657e-06
6.2683e-05
3.40567e-05
6.33131e-05
5.65023e-05
6.24118e-05
7.25323e-05
6.01909e-05
8.22933e-05
5.70041e-05
8.62073e-05
5.31608e-05
8.47105e-05
4.87353e-05
7.80737e-05
4.38329e-05
6.66467e-05
3.85209e-05
5.1263e-05
3.28073e-05
3.28489e-05
2.69581e-05
1.26968e-05
2.1311e-05
-7.28849e-06
1.60787e-05
-2.50741e-05
1.1378e-05
-3.89689e-05
6.58456e-06
-4.95953e-05
-5.81046e-05
1.03912e-05
-6.28705e-05
1.32148e-05
-7.08163e-05
1.71048e-05
-7.71677e-05
2.01161e-05
-7.60646e-05
2.23988e-05
-6.87396e-05
2.38655e-05
-5.57039e-05
2.46009e-05
-3.75939e-05
2.4718e-05
-1.51711e-05
2.41182e-05
1.01011e-05
2.2861e-05
3.56658e-05
2.19748e-05
5.8199e-05
2.10392e-05
7.41132e-05
2.00727e-05
8.36538e-05
1.91633e-05
8.73108e-05
1.83344e-05
8.55334e-05
1.7617e-05
7.86627e-05
1.68495e-05
6.7238e-05
1.58977e-05
5.20396e-05
1.46638e-05
3.39681e-05
1.30341e-05
1.42412e-05
1.09912e-05
-5.36745e-06
8.78872e-06
-2.28877e-05
6.54424e-06
-3.65244e-05
4.21333e-06
-4.68503e-05
-5.4916e-05
1.00731e-05
-7.10469e-05
1.20033e-05
-7.40281e-05
1.14509e-05
-7.75867e-05
1.05963e-05
-7.53059e-05
8.60926e-06
-6.67934e-05
5.53765e-06
-5.2656e-05
1.29957e-06
-3.35446e-05
-3.82641e-06
-1.04446e-05
-9.04331e-06
1.4913e-05
-1.32346e-05
3.97133e-05
-1.501e-05
6.06122e-05
-1.55664e-05
7.50663e-05
-1.49504e-05
8.3315e-05
-1.34642e-05
8.59119e-05
-1.119e-05
8.32585e-05
-8.34296e-06
7.57609e-05
-5.25838e-06
6.40932e-05
-2.2594e-06
4.90104e-05
3.57796e-07
3.139e-05
2.24755e-06
1.23968e-05
3.27866e-06
-6.34501e-06
3.44503e-06
-2.29902e-05
2.62233e-06
-3.58333e-05
2.11401e-06
-4.59017e-05
-5.34994e-05
7.74471e-06
-7.62235e-05
8.46162e-06
-7.46636e-05
4.07821e-06
-7.47974e-05
8.24872e-08
-7.11804e-05
-5.37313e-06
-6.14275e-05
-1.22589e-05
-4.60536e-05
-2.06609e-05
-2.59476e-05
-2.97788e-05
-2.51723e-06
-3.79327e-05
2.2046e-05
-4.33401e-05
4.47416e-05
-4.51123e-05
6.27556e-05
-4.45955e-05
7.47819e-05
-4.21327e-05
8.09866e-05
-3.81957e-05
8.20111e-05
-3.29934e-05
7.80947e-05
-2.69657e-05
6.97604e-05
-2.05747e-05
5.77414e-05
-1.42707e-05
4.27895e-05
-8.50657e-06
2.57604e-05
-3.77893e-06
7.76411e-06
-3.94479e-07
-9.68651e-06
1.38486e-06
-2.47428e-05
3.75065e-07
-3.59659e-05
4.75349e-07
-4.59137e-05
-5.33528e-05
3.52681e-06
-7.74785e-05
2.14195e-06
-7.26497e-05
-3.41853e-06
-6.96551e-05
-9.86749e-06
-6.45109e-05
-1.80568e-05
-5.33874e-05
-2.83201e-05
-3.67154e-05
-4.00662e-05
-1.5854e-05
-5.15515e-05
7.2116e-06
-6.04787e-05
2.98604e-05
-6.53629e-05
4.93353e-05
-6.62919e-05
6.38693e-05
-6.44662e-05
7.30101e-05
-6.02781e-05
7.68542e-05
-5.41725e-05
7.59769e-05
-4.65984e-05
7.06109e-05
-3.81173e-05
6.13714e-05
-2.92772e-05
4.9008e-05
-2.06048e-05
3.42505e-05
-1.26229e-05
1.79222e-05
-5.85252e-06
1.07976e-06
-7.47385e-07
-1.47974e-05
2.21583e-06
-2.77582e-05
1.54751e-07
-3.66459e-05
-2.76021e-07
-4.62821e-05
-5.39107e-05
-1.68438e-06
-7.49245e-05
-4.85934e-06
-6.83062e-05
-1.0602e-05
-6.29907e-05
-1.88952e-05
-5.61016e-05
-2.94085e-05
-4.34606e-05
-4.2384e-05
-2.55885e-05
-5.5845e-05
-4.54382e-06
-6.73895e-05
1.71413e-05
-7.51267e-05
3.68577e-05
-7.8544e-05
5.26608e-05
-7.8421e-05
6.37661e-05
-7.53312e-05
6.98998e-05
-6.98266e-05
7.13917e-05
-6.22445e-05
6.85091e-05
-5.31748e-05
6.16911e-05
-4.329e-05
5.16185e-05
-3.31597e-05
3.90077e-05
-2.33336e-05
2.45504e-05
-1.43239e-05
9.03033e-06
-6.61492e-06
-6.52531e-06
-7.72526e-07
-2.0629e-05
2.53911e-06
-3.13271e-05
2.04944e-06
-3.76447e-05
9.27127e-08
-4.63111e-05
-5.43375e-05
-5.59224e-06
-6.96282e-05
-1.07737e-05
-6.19993e-05
-1.72337e-05
-5.52015e-05
-2.68874e-05
-4.66026e-05
-3.95169e-05
-3.24401e-05
-5.3626e-05
-1.3832e-05
-6.64731e-05
6.4471e-06
-7.61381e-05
2.57783e-05
-8.18042e-05
4.2199e-05
-8.38489e-05
5.46263e-05
-8.26882e-05
6.25504e-05
-7.8597e-05
6.58563e-05
-7.22131e-05
6.50994e-05
-6.39339e-05
6.04014e-05
-5.43883e-05
5.23207e-05
-4.4196e-05
4.15723e-05
-3.38935e-05
2.88308e-05
-2.39808e-05
1.47557e-05
-1.49262e-05
1.1597e-07
-7.2107e-06
-1.40507e-05
-1.48535e-06
-2.62434e-05
1.47867e-06
-3.47122e-05
2.79909e-06
-3.8877e-05
6.80092e-07
-4.58879e-05
-5.41104e-05
-8.17287e-06
-6.25572e-05
-1.51089e-05
-5.433e-05
-2.28361e-05
-4.65255e-05
-3.36968e-05
-3.65114e-05
-4.73406e-05
-2.11793e-05
-6.03914e-05
-2.72812e-06
-7.09385e-05
1.57996e-05
-7.80486e-05
3.23447e-05
-8.17573e-05
4.56837e-05
-8.24451e-05
5.52346e-05
-8.03089e-05
6.04054e-05
-7.59299e-05
6.14969e-05
-6.93522e-05
5.87154e-05
-6.11799e-05
5.24299e-05
-5.19915e-05
4.33052e-05
-4.22974e-05
3.20144e-05
-3.25313e-05
1.91909e-05
-2.31078e-05
5.4907e-06
-1.44698e-05
-8.28448e-06
-7.18003e-06
-2.10292e-05
-2.00089e-06
-3.12837e-05
5.53475e-07
-3.7701e-05
1.94705e-06
-4.02251e-05
1.38715e-06
-4.56557e-05
-5.33478e-05
-9.60594e-06
-5.46661e-05
-1.82293e-05
-4.59155e-05
-2.70902e-05
-3.73541e-05
-3.86945e-05
-2.64234e-05
-5.1238e-05
-1.07026e-05
-6.17463e-05
6.62411e-06
-6.95558e-05
2.29583e-05
-7.44407e-05
3.6921e-05
-7.65507e-05
4.7687e-05
-7.60754e-05
5.47285e-05
-7.34806e-05
5.77823e-05
-6.90325e-05
5.71325e-05
-6.286e-05
5.27323e-05
-5.5438e-05
4.51954e-05
-4.72025e-05
3.52189e-05
-3.84958e-05
2.34382e-05
-2.96188e-05
1.04798e-05
-2.09135e-05
-2.94803e-06
-1.28555e-05
-1.59386e-05
-6.13442e-06
-2.72964e-05
-1.65313e-06
-3.56806e-05
4.24692e-07
-4.03032e-05
1.90606e-06
-4.16886e-05
2.22148e-06
-4.58229e-05
-5.23905e-05
-1.01649e-05
-4.65779e-05
-1.87847e-05
-3.74028e-05
-2.87175e-05
-2.81684e-05
-3.97754e-05
-1.69667e-05
-4.97799e-05
-1.86241e-06
-5.7507e-05
1.3766e-05
-6.29358e-05
2.80226e-05
-6.61116e-05
3.98952e-05
-6.7215e-05
4.86836e-05
-6.63848e-05
5.38394e-05
-6.39338e-05
5.53353e-05
-5.98171e-05
5.31624e-05
-5.44411e-05
4.75305e-05
-4.81421e-05
3.90517e-05
-4.1163e-05
2.83717e-05
-3.36715e-05
1.61064e-05
-2.58568e-05
2.92806e-06
-1.80324e-05
-1.03322e-05
-1.07763e-05
-2.26015e-05
-4.95621e-06
-3.26213e-05
-1.34347e-06
-3.93163e-05
1.34082e-07
-4.25001e-05
1.61817e-06
-4.32704e-05
2.29532e-06
-4.64653e-05
-5.18351e-05
-9.71243e-06
-3.8792e-05
-1.69489e-05
-2.94873e-05
-2.66697e-05
-1.96085e-05
-3.60576e-05
-8.68085e-06
-4.35835e-05
5.14305e-06
-4.9171e-05
1.90106e-05
-5.29332e-05
3.15259e-05
-5.49952e-05
4.17848e-05
-5.55325e-05
4.91066e-05
-5.4675e-05
5.29199e-05
-5.25713e-05
5.32462e-05
-4.92442e-05
4.99635e-05
-4.49881e-05
4.34223e-05
-4.00408e-05
3.42268e-05
-3.44796e-05
2.2952e-05
-2.83539e-05
1.02121e-05
-2.17972e-05
-3.22242e-06
-1.51758e-05
-1.63334e-05
-9.21612e-06
-2.78743e-05
-4.9914e-06
-3.66188e-05
-2.6514e-06
-4.19205e-05
-2.10398e-06
-4.41578e-05
-4.6772e-07
-4.50566e-05
9.64735e-07
-4.79011e-05
-5.23607e-05
-8.41775e-06
-3.18985e-05
-1.45114e-05
-2.26669e-05
-2.16133e-05
-1.25153e-05
-2.88852e-05
-2.04167e-06
-3.44172e-05
1.04836e-05
-3.84998e-05
2.28521e-05
-4.1143e-05
3.39708e-05
-4.24837e-05
4.29801e-05
-4.26786e-05
4.91993e-05
-4.18908e-05
5.2095e-05
-4.02432e-05
5.16219e-05
-3.78127e-05
4.76357e-05
-3.48259e-05
4.05307e-05
-3.13361e-05
3.08466e-05
-2.73053e-05
1.91049e-05
-2.27144e-05
5.95722e-06
-1.7695e-05
-7.67822e-06
-1.27327e-05
-2.05723e-05
-8.6507e-06
-3.13767e-05
-6.22489e-06
-3.90585e-05
-5.42132e-06
-4.33881e-05
-5.43423e-06
-4.53327e-05
-3.66603e-06
-4.69607e-05
-1.54517e-06
-5.01257e-05
-5.42966e-05
-6.5851e-06
-2.64008e-05
-1.11717e-05
-1.73612e-05
-1.57357e-05
-7.37403e-06
-2.07761e-05
2.70294e-06
-2.45301e-05
1.42236e-05
-2.72753e-05
2.54559e-05
-2.89473e-05
3.55144e-05
-2.96763e-05
4.35989e-05
-2.96163e-05
4.90539e-05
-2.89624e-05
5.1402e-05
-2.78014e-05
5.04666e-05
-2.6229e-05
4.61227e-05
-2.43971e-05
3.87623e-05
-2.22751e-05
2.88333e-05
-1.97762e-05
1.68188e-05
-1.6851e-05
3.42662e-06
-1.36592e-05
-1.02594e-05
-1.07384e-05
-2.28391e-05
-8.89286e-06
-3.30045e-05
-7.95583e-06
-4.00497e-05
-8.20912e-06
-4.39542e-05
-8.04498e-06
-4.62055e-05
-6.25541e-06
-4.88374e-05
-3.75208e-06
-5.27543e-05
-5.74705e-05
-4.51132e-06
-2.2589e-05
-7.50895e-06
-1.37636e-05
-1.03771e-05
-4.07079e-06
-1.33809e-05
5.62576e-06
-1.55184e-05
1.64106e-05
-1.69653e-05
2.6836e-05
-1.76655e-05
3.61436e-05
-1.77408e-05
4.35995e-05
-1.73439e-05
4.85924e-05
-1.66422e-05
5.0667e-05
-1.57575e-05
4.95764e-05
-1.48108e-05
4.51982e-05
-1.38736e-05
3.78709e-05
-1.29275e-05
2.79727e-05
-1.19215e-05
1.59584e-05
-1.0796e-05
2.57398e-06
-9.69016e-06
-1.09813e-05
-8.98827e-06
-2.32369e-05
-8.97764e-06
-3.30171e-05
-9.26633e-06
-3.98846e-05
-9.6362e-06
-4.39258e-05
-9.17632e-06
-4.68219e-05
-7.5196e-06
-5.0425e-05
-4.95373e-06
-5.53093e-05
-6.1072e-05
-2.61635e-06
-2.03256e-05
-4.24096e-06
-1.17031e-05
-5.69328e-06
-2.30552e-06
-7.02444e-06
7.01462e-06
-7.79883e-06
1.72525e-05
-8.08124e-06
2.71079e-05
-7.8606e-06
3.58972e-05
-7.25165e-06
4.29515e-05
-6.40805e-06
4.77093e-05
-5.49811e-06
4.97331e-05
-4.67081e-06
4.87414e-05
-4.07629e-06
4.46012e-05
-3.76755e-06
3.7575e-05
-3.75566e-06
2.79945e-05
-4.0411e-06
1.62887e-05
-4.59786e-06
3.19641e-06
-5.43036e-06
-1.0077e-05
-6.56327e-06
-2.20929e-05
-7.79429e-06
-3.17904e-05
-8.92992e-06
-3.88586e-05
-9.16274e-06
-4.35093e-05
-8.56151e-06
-4.71631e-05
-7.17151e-06
-5.14298e-05
-5.01606e-06
-5.71681e-05
-6.40068e-05
-1.10739e-06
-1.93048e-05
-1.63604e-06
-1.08778e-05
-1.97687e-06
-1.76016e-06
-2.02875e-06
7.19317e-06
-1.66501e-06
1.69868e-05
-9.43595e-07
2.64173e-05
1.25242e-07
3.4841e-05
1.42184e-06
4.16485e-05
2.79035e-06
4.63261e-05
4.04656e-06
4.84588e-05
5.02353e-06
4.7752e-05
5.53134e-06
4.40634e-05
5.52244e-06
3.7564e-05
4.94246e-06
2.85553e-05
3.77109e-06
1.74329e-05
2.00774e-06
4.8846e-06
-2.0142e-07
-7.97599e-06
-2.56407e-06
-1.98126e-05
-4.78298e-06
-2.96304e-05
-6.408e-06
-3.71872e-05
-6.6492e-06
-4.27087e-05
-5.99401e-06
-4.71027e-05
-5.07814e-06
-5.16947e-05
-3.74247e-06
-5.79761e-05
-6.55721e-05
-6.91502e-08
-1.92295e-05
1.31768e-07
-1.09391e-05
6.12134e-07
-2.12223e-06
1.50165e-06
6.44339e-06
2.79736e-06
1.5825e-05
4.36108e-06
2.49124e-05
6.18196e-06
3.30631e-05
8.13638e-06
3.97158e-05
1.00688e-05
4.44011e-05
1.17924e-05
4.67296e-05
1.31167e-05
4.64147e-05
1.38176e-05
4.33147e-05
1.38307e-05
3.74997e-05
1.30735e-05
2.92472e-05
1.14869e-05
1.89144e-05
9.07963e-06
7.10827e-06
6.04513e-06
-5.20576e-06
2.85085e-06
-1.68369e-05
-1.08777e-08
-2.68459e-05
-2.07815e-06
-3.49905e-05
-2.67196e-06
-4.13869e-05
-2.29882e-06
-4.64346e-05
-2.0495e-06
-5.11558e-05
-1.41019e-06
-5.77834e-05
-6.56445e-05
5.74997e-07
-1.9828e-05
1.33349e-06
-1.16669e-05
2.39553e-06
-3.14904e-06
3.90857e-06
5.03764e-06
5.87802e-06
1.40224e-05
8.06345e-06
2.28052e-05
1.04677e-05
3.07241e-05
1.29702e-05
3.72557e-05
1.54215e-05
4.19754e-05
1.76371e-05
4.4524e-05
1.94087e-05
4.4635e-05
2.05005e-05
4.21688e-05
2.08085e-05
3.71175e-05
2.02239e-05
2.97193e-05
1.86679e-05
2.03011e-05
1.613e-05
9.37441e-06
1.27951e-05
-2.26852e-06
9.18428e-06
-1.36194e-05
5.96901e-06
-2.37928e-05
3.50667e-06
-3.24474e-05
2.11979e-06
-3.9553e-05
1.78464e-06
-4.5154e-05
1.16234e-06
-4.99502e-05
9.14812e-07
-5.67593e-05
-6.47372e-05
8.90618e-07
-2.07926e-05
2.09995e-06
-1.28488e-05
3.55366e-06
-4.60333e-06
5.38783e-06
3.26053e-06
7.7393e-06
1.18547e-05
1.03103e-05
2.03273e-05
1.31061e-05
2.80096e-05
1.60069e-05
3.44118e-05
1.88686e-05
3.91524e-05
2.15029e-05
4.19079e-05
2.36996e-05
4.24297e-05
2.52538e-05
4.05707e-05
2.59858e-05
3.62924e-05
2.58175e-05
2.9767e-05
2.45932e-05
2.13204e-05
2.2282e-05
1.13714e-05
1.90391e-05
5.17426e-07
1.53206e-05
-1.04197e-05
1.1824e-05
-2.06225e-05
8.92392e-06
-2.96174e-05
6.6577e-06
-3.72046e-05
5.16762e-06
-4.32273e-05
3.77543e-06
-4.81324e-05
2.55152e-06
-5.49825e-05
-6.29983e-05
9.66403e-07
-2.18677e-05
2.29528e-06
-1.41729e-05
3.87632e-06
-6.20514e-06
5.83159e-06
1.33891e-06
8.33061e-06
9.52218e-06
1.11142e-05
1.76466e-05
1.41561e-05
2.50611e-05
1.73299e-05
3.13057e-05
2.04965e-05
3.60342e-05
2.34758e-05
3.89559e-05
2.60552e-05
3.98445e-05
2.80445e-05
3.85469e-05
2.9214e-05
3.50325e-05
2.94542e-05
2.94031e-05
2.86563e-05
2.19278e-05
2.67509e-05
1.29668e-05
2.38449e-05
2.98772e-06
2.02321e-05
-7.36418e-06
1.65207e-05
-1.73763e-05
1.31101e-05
-2.64773e-05
1.01453e-05
-3.43161e-05
7.56428e-06
-4.06099e-05
5.52385e-06
-4.56812e-05
3.64088e-06
-5.25482e-05
-6.03967e-05
8.50478e-07
-2.28706e-05
2.06474e-06
-1.54101e-05
3.57751e-06
-7.76469e-06
5.46415e-06
-5.53822e-07
7.89289e-06
7.19092e-06
1.07337e-05
1.49113e-05
1.38819e-05
2.20109e-05
1.72036e-05
2.80581e-05
2.05592e-05
3.27318e-05
2.37784e-05
3.57696e-05
2.66513e-05
3.69683e-05
2.89847e-05
3.61769e-05
3.05625e-05
3.33975e-05
3.11307e-05
2.86864e-05
3.07323e-05
2.21467e-05
2.9327e-05
1.41117e-05
2.68911e-05
5.04214e-06
2.35889e-05
-4.57169e-06
1.98321e-05
-1.415e-05
1.60274e-05
-2.3107e-05
1.24678e-05
-3.09996e-05
9.18848e-06
-3.74581e-05
6.65799e-06
-4.27253e-05
4.29889e-06
-4.95976e-05