/*--------------------------------*- C++ -*----------------------------------*\
| =========                 |                                                 |
| \\      /  F ield         | OpenFOAM: The Open Source CFD Toolbox           |
|  \\    /   O peration     | Version:  2.3.0                                 |
|   \\  /    A nd           | Web:      www.OpenFOAM.org                      |
|    \\/     M anipulation  |                                                 |
\*---------------------------------------------------------------------------*/
FoamFile
{
    version     2.0;
    format      ascii;
    class       volScalarField;
    location    "0.066";
    object      alpha.water;
}
// * * * * * * * * * * * * * * * * * * * * * * * * * * * * * * * * * * * * * //

dimensions      [0 0 0 0 0 0 0];

internalField   nonuniform List<scalar> 
545
(
1
1
1
1
1
1
1
1
1
1
1
1
1
1
1
1
1
1
1
1
1
1
1
1
1
1
1
1
1
1
1
1
1
1
1
1
1
1
1
1
1
1
1
1
1
1
1
1
1
1
1
1
1
1
1
1
1
1
1
1
1
1
1
1
1
1
1
1
1
1
1
1
1
1
1
1
1
1
1
1
1
1
1
1
1
1
1
1
1
1
1
1
1
1
1
1
1
1
1
1
1
1
1
1
1
1
1
1
1
1
1
1
1
1
1
1
1
1
1
0.999999
0.999999
0.999999
0.999999
0.999999
0.999999
0.999999
0.999999
0.999999
0.999999
0.999999
0.999999
0.999999
0.999999
0.999999
0.999999
0.999999
0.999999
0.999999
0.999999
0.999999
0.999999
0.999999
0.999999
0.999999
0.999999
0.999999
0.999999
0.999999
0.999999
0.999999
0.999999
0.999999
0.999999
0.999999
0.999999
0.999999
0.999999
0.999999
0.999999
0.999999
1
1
0.999986
0.999958
0.999944
0.999942
0.999944
0.999944
0.999943
0.999941
0.999939
0.999938
0.999937
0.999937
0.999937
0.999938
0.999938
0.999938
0.999938
0.999938
0.999938
0.999938
0.999938
0.999938
0.999938
0.999938
0.999938
0.999938
0.999938
0.999938
0.999938
0.999938
0.999938
0.999938
0.999938
0.999938
0.999938
0.999938
0.999938
0.999938
0.999938
0.999938
0.999938
0.999938
0.999938
1
1
0.998376
0.995794
0.994668
0.995318
0.995898
0.996083
0.995995
0.995776
0.995543
0.995369
0.995278
0.995261
0.995289
0.995336
0.995379
0.995409
0.995421
0.995422
0.995414
0.995403
0.995391
0.995384
0.995379
0.995378
0.995378
0.99538
0.995382
0.995383
0.995382
0.99538
0.995377
0.995375
0.995372
0.995372
0.995371
0.995373
0.995373
0.995372
0.99537
0.995365
0.995359
0.995357
0.995343
0.214865
0.671677
0.400958
0.396081
0.39688
0.464536
0.883185
0.996197
0.71129
0.523654
0.514166
0.511726
0.512906
0.565143
0.903311
0.68906
0.590655
0.586861
0.586855
0.586867
0.761725
0.948626
0.683116
0.472735
0.502858
0.491594
0.495051
0.497689
0.780246
0.995527
0.969234
0.606291
0.404047
0.425726
0.492005
0.4685
0.468967
0.58496
0.952393
0.995526
0.99549
0.675182
0.346975
0.334429
0.334413
1
1
1
1
1
1
1
1
1
1
1
1
1
1
1
1
1
1
1
1
1
1
1
1
1
1
1
0.998376
0.995796
0.994668
0.995319
0.995898
0.996083
0.995994
0.995776
0.995542
0.995368
0.995276
0.995259
0.995287
0.995333
0.995375
0.995405
0.995417
0.995417
0.995409
0.995398
0.995386
0.995379
0.995373
0.995372
0.995372
0.995375
0.995377
0.995378
0.995377
0.995374
0.995371
0.995368
0.995365
0.995365
0.995364
0.995366
0.995366
0.995365
0.995361
0.995355
0.995348
0.995345
0.995329
1
1
0.999986
0.999958
0.999944
0.999942
0.999944
0.999944
0.999942
0.999941
0.999939
0.999938
0.999937
0.999937
0.999937
0.999938
0.999938
0.999938
0.999938
0.999938
0.999938
0.999938
0.999938
0.999938
0.999938
0.999938
0.999938
0.999938
0.999938
0.999938
0.999938
0.999938
0.999938
0.999938
0.999938
0.999938
0.999938
0.999938
0.999938
0.999938
0.999938
0.999938
0.999938
0.999938
0.999938
1
1
1
1
0.999999
0.999999
0.999999
0.999999
0.999999
0.999999
0.999999
0.999999
0.999999
0.999999
0.999999
0.999999
0.999999
0.999999
0.999999
0.999999
0.999999
0.999999
0.999999
0.999999
0.999999
0.999999
0.999999
0.999999
0.999999
0.999999
0.999999
0.999999
0.999999
0.999999
0.999999
0.999999
0.999999
0.999999
0.999999
0.999999
0.999999
0.999999
0.999999
0.999999
0.999999
1
1
1
1
1
1
1
1
1
1
1
1
1
1
1
1
1
1
1
1
1
1
1
1
1
1
1
1
1
1
1
1
1
1
1
1
1
1
1
1
1
1
1
1
1
1
1
1
1
1
1
1
1
1
1
1
1
1
1
1
1
1
1
1
1
1
1
1
1
1
1
1
1
1
1
1
1
1
1
1
1
1
1
1
1
1
1
1
1
1
)
;

boundaryField
{
    AirInlet
    {
        type            fixedValue;
        value           uniform 0;
    }
    WaterInlet
    {
        type            fixedValue;
        value           uniform 1;
    }
    ChannelWall
    {
        type            zeroGradient;
    }
    Outlet
    {
        type            inletOutlet;
        inletValue      uniform 0;
        value           nonuniform List<scalar> 
11
(
1
1
0.999999
0.999938
0.995343
0.334413
0.995329
0.999938
0.999999
1
1
)
;
    }
    FrontAndBack
    {
        type            empty;
    }
}


// ************************************************************************* //
