/*--------------------------------*- C++ -*----------------------------------*\
| =========                 |                                                 |
| \\      /  F ield         | OpenFOAM: The Open Source CFD Toolbox           |
|  \\    /   O peration     | Version:  2.3.0                                 |
|   \\  /    A nd           | Web:      www.OpenFOAM.org                      |
|    \\/     M anipulation  |                                                 |
\*---------------------------------------------------------------------------*/
FoamFile
{
    version     2.0;
    format      ascii;
    class       volScalarField;
    location    "2";
    object      p;
}
// * * * * * * * * * * * * * * * * * * * * * * * * * * * * * * * * * * * * * //

dimensions      [1 -1 -2 0 0 0 0];

internalField   nonuniform List<scalar> 
6000
(
105867
105875
105880
105882
105878
105872
105864
105857
105847
105832
105815
105805
105799
105800
105808
105808
105798
105791
105787
105788
105792
105791
105788
105784
105780
105781
105788
105799
105806
105810
105773
105776
105777
105778
105777
105780
105785
105783
105775
105763
105757
105756
105753
105748
105746
105745
105742
105740
105736
105732
105730
105728
105725
105723
105722
105721
105722
105730
105741
105748
105733
105732
105732
105732
105732
105734
105741
105743
105736
105728
105725
105722
105719
105716
105712
105710
105710
105708
105705
105701
105696
105693
105690
105688
105688
105687
105687
105691
105703
105711
105707
105706
105705
105703
105703
105701
105701
105704
105700
105697
105694
105691
105688
105686
105683
105682
105682
105680
105677
105674
105671
105666
105662
105659
105656
105654
105652
105651
105658
105666
105684
105686
105684
105680
105677
105675
105671
105672
105672
105670
105666
105663
105660
105659
105658
105657
105656
105654
105653
105651
105647
105642
105636
105631
105626
105621
105618
105617
105618
105622
105662
105665
105664
105658
105653
105650
105646
105646
105648
105646
105641
105637
105635
105634
105634
105633
105630
105630
105630
105630
105626
105620
105612
105604
105597
105591
105586
105583
105577
105577
105640
105642
105642
105637
105630
105625
105623
105623
105624
105623
105618
105614
105612
105613
105613
105609
105606
105605
105609
105608
105604
105597
105588
105579
105571
105563
105555
105545
105530
105522
105615
105615
105615
105613
105606
105600
105599
105598
105597
105597
105594
105591
105591
105593
105591
105586
105581
105580
105585
105582
105576
105568
105561
105554
105545
105535
105522
105502
105485
105475
105576
105571
105573
105582
105580
105575
105573
105569
105563
105562
105565
105566
105568
105569
105565
105560
105554
105553
105554
105545
105535
105528
105524
105520
105513
105501
105480
105457
105444
105438
105501
105495
105503
105526
105543
105542
105538
105526
105513
105512
105521
105531
105534
105529
105527
105529
105524
105518
105508
105491
105479
105471
105469
105466
105461
105449
105429
105413
105404
105400
105387
105389
105404
105434
105471
105485
105476
105457
105442
105439
105449
105460
105457
105450
105458
105479
105481
105470
105443
105418
105404
105398
105395
105392
105389
105382
105375
105369
105364
105361
105257
105265
105286
105317
105354
105382
105376
105359
105346
105341
105340
105341
105338
105340
105354
105381
105404
105392
105356
105329
105316
105311
105310
105309
105308
105306
105310
105317
105317
105318
105110
105123
105152
105189
105224
105250
105255
105246
105234
105221
105210
105201
105198
105205
105223
105248
105269
105267
105247
105226
105218
105219
105221
105223
105223
105222
105224
105238
105247
105257
104934
104963
105009
105059
105099
105126
105136
105130
105113
105091
105070
105043
105030
105042
105073
105103
105123
105125
105118
105109
105112
105122
105131
105137
105137
105129
105125
105134
105148
105162
104781
104813
104872
104934
104986
105017
105028
105020
104993
104958
104931
104908
104900
104907
104928
104955
104980
104983
104976
104976
104994
105020
105040
105051
105052
105045
105044
105050
105058
105063
104719
104728
104764
104827
104886
104923
104935
104919
104890
104858
104844
104839
104838
104839
104843
104853
104866
104869
104863
104864
104879
104915
104949
104969
104976
104980
104986
104993
104998
104996
104698
104699
104707
104741
104801
104843
104856
104842
104818
104807
104803
104803
104804
104803
104802
104803
104806
104809
104811
104814
104817
104829
104853
104886
104914
104930
104941
104949
104953
104954
104687
104686
104686
104697
104729
104777
104797
104794
104781
104778
104776
104775
104775
104775
104775
104775
104775
104778
104783
104787
104789
104793
104806
104833
104864
104888
104902
104911
104916
104920
104677
104677
104677
104679
104696
104729
104761
104764
104756
104753
104750
104748
104748
104748
104749
104750
104752
104755
104759
104763
104767
104772
104782
104801
104829
104853
104868
104877
104884
104891
104668
104669
104668
104668
104676
104699
104732
104737
104731
104727
104724
104722
104721
104721
104723
104725
104727
104730
104734
104739
104744
104750
104761
104777
104800
104821
104838
104848
104855
104863
104659
104659
104659
104659
104661
104677
104701
104712
104705
104701
104698
104696
104695
104696
104697
104699
104702
104705
104709
104714
104719
104726
104737
104752
104771
104790
104806
104819
104828
104833
104649
104649
104649
104649
104650
104658
104675
104686
104678
104674
104671
104670
104670
104670
104671
104673
104676
104680
104684
104688
104694
104702
104712
104725
104742
104758
104773
104787
104797
104798
104638
104638
104638
104638
104638
104643
104654
104659
104651
104647
104644
104643
104643
104644
104646
104648
104651
104654
104658
104663
104669
104678
104686
104697
104711
104725
104738
104750
104758
104758
104626
104626
104626
104626
104627
104629
104632
104631
104622
104619
104617
104617
104617
104619
104620
104623
104626
104629
104633
104638
104644
104653
104660
104669
104679
104691
104702
104710
104714
104715
104612
104612
104612
104613
104613
104613
104609
104600
104592
104590
104589
104590
104591
104593
104596
104598
104601
104605
104608
104613
104618
104628
104633
104639
104647
104656
104663
104669
104671
104672
104595
104595
104595
104596
104596
104593
104579
104566
104561
104560
104561
104563
104565
104568
104571
104574
104577
104581
104584
104589
104594
104602
104605
104610
104615
104621
104625
104628
104630
104630
104575
104574
104574
104574
104573
104563
104543
104528
104529
104530
104532
104536
104540
104544
104548
104552
104555
104558
104562
104566
104571
104576
104578
104581
104583
104586
104588
104589
104589
104588
104547
104546
104545
104543
104539
104522
104499
104491
104495
104499
104504
104510
104516
104522
104527
104531
104534
104537
104541
104545
104550
104553
104552
104551
104551
104551
104550
104550
104548
104547
104508
104509
104505
104497
104489
104471
104452
104454
104460
104467
104476
104485
104494
104502
104508
104512
104516
104519
104522
104526
104531
104532
104527
104522
104519
104516
104513
104510
104506
104506
104459
104462
104453
104437
104428
104413
104407
104417
104426
104435
104447
104460
104472
104483
104491
104496
104500
104502
104505
104508
104512
104511
104501
104493
104486
104480
104475
104470
104467
104466
104406
104408
104394
104374
104364
104361
104371
104382
104392
104402
104415
104430
104445
104460
104472
104480
104484
104487
104489
104492
104492
104486
104473
104461
104451
104444
104438
104432
104429
104430
104354
104354
104339
104322
104318
104326
104338
104350
104360
104371
104383
104396
104412
104430
104447
104459
104467
104471
104473
104474
104468
104454
104439
104425
104414
104406
104399
104395
104394
104395
104307
104307
104296
104287
104289
104297
104308
104319
104330
104340
104351
104362
104376
104393
104412
104429
104442
104449
104451
104447
104434
104416
104398
104384
104374
104366
104360
104357
104358
104359
104267
104266
104260
104259
104263
104270
104279
104289
104300
104311
104320
104329
104340
104353
104370
104387
104402
104411
104412
104404
104388
104371
104355
104343
104333
104325
104321
104318
104318
104318
104232
104231
104228
104230
104234
104240
104248
104257
104269
104281
104290
104297
104305
104314
104325
104338
104350
104356
104356
104347
104335
104321
104309
104298
104290
104283
104279
104276
104275
104274
104199
104199
104197
104199
104203
104209
104215
104224
104236
104248
104258
104264
104269
104273
104279
104286
104292
104296
104295
104289
104280
104270
104260
104252
104244
104238
104234
104231
104230
104228
104159
104163
104166
104168
104171
104177
104183
104190
104200
104212
104222
104226
104228
104229
104231
104233
104236
104237
104236
104232
104225
104218
104210
104203
104197
104192
104188
104185
104183
104182
104108
104117
104129
104135
104139
104146
104151
104157
104162
104167
104172
104176
104178
104179
104179
104180
104181
104181
104179
104176
104171
104166
104160
104154
104148
104144
104140
104137
104135
104134
104028
104040
104068
104087
104098
104108
104114
104117
104114
104107
104105
104112
104120
104124
104126
104126
104126
104126
104124
104122
104118
104114
104109
104104
104099
104095
104091
104088
104086
104085
103920
103935
103973
104005
104026
104041
104052
104055
104041
104027
104021
104044
104061
104069
104073
104074
104074
104073
104072
104069
104066
104062
104058
104053
104049
104045
104042
104039
104037
104036
103882
103886
103898
103914
103929
103941
103950
103955
103948
103937
103931
103958
103999
104015
104022
104024
104023
104022
104021
104018
104015
104011
104007
104003
103999
103995
103992
103990
103988
103987
103870
103871
103872
103875
103879
103882
103884
103885
103885
103885
103886
103898
103930
103961
103973
103976
103976
103974
103972
103969
103965
103961
103957
103953
103949
103946
103943
103941
103939
103938
103865
103865
103865
103865
103865
103865
103865
103865
103865
103867
103870
103874
103890
103913
103928
103932
103931
103929
103926
103922
103917
103913
103908
103904
103900
103897
103894
103891
103890
103889
103860
103860
103860
103860
103860
103860
103860
103860
103861
103862
103864
103865
103874
103885
103891
103893
103892
103888
103883
103877
103872
103866
103861
103856
103852
103848
103845
103843
103841
103840
103856
103856
103856
103856
103856
103856
103856
103857
103857
103858
103860
103861
103865
103868
103865
103861
103857
103851
103843
103835
103828
103821
103815
103809
103805
103800
103797
103795
103793
103792
103851
103851
103851
103851
103851
103852
103852
103852
103853
103854
103855
103856
103857
103855
103845
103837
103827
103816
103805
103795
103786
103778
103770
103764
103758
103754
103750
103747
103745
103745
103847
103847
103847
103847
103847
103847
103847
103848
103849
103850
103851
103852
103849
103841
103827
103811
103796
103782
103769
103757
103746
103735
103727
103719
103712
103707
103703
103700
103698
103697
103843
103843
103842
103842
103842
103843
103843
103843
103844
103845
103846
103846
103841
103827
103806
103785
103767
103749
103734
103719
103706
103694
103684
103675
103667
103661
103656
103653
103651
103649
103838
103838
103838
103838
103838
103838
103839
103839
103840
103841
103841
103839
103830
103808
103783
103759
103737
103717
103699
103682
103666
103653
103640
103630
103621
103614
103609
103605
103603
103601
103834
103834
103834
103834
103834
103834
103834
103835
103835
103836
103836
103831
103815
103787
103759
103731
103706
103683
103662
103642
103625
103609
103595
103584
103575
103567
103561
103557
103554
103553
103830
103830
103829
103829
103829
103829
103830
103830
103831
103831
103829
103820
103796
103764
103732
103701
103673
103646
103621
103599
103579
103562
103548
103536
103526
103518
103512
103507
103504
103503
103825
103825
103825
103825
103825
103825
103825
103826
103827
103826
103822
103806
103775
103737
103700
103666
103633
103603
103576
103551
103530
103512
103498
103485
103476
103468
103462
103457
103454
103452
103821
103821
103821
103821
103821
103821
103821
103821
103822
103820
103812
103788
103748
103704
103663
103624
103589
103557
103527
103499
103476
103458
103444
103433
103424
103417
103410
103406
103403
103401
103816
103816
103816
103816
103816
103816
103816
103817
103816
103812
103799
103763
103714
103665
103619
103578
103541
103508
103478
103451
103428
103410
103394
103383
103373
103365
103359
103355
103351
103350
103811
103811
103811
103811
103811
103811
103811
103811
103809
103802
103780
103729
103671
103617
103569
103528
103493
103467
103439
103416
103392
103368
103350
103336
103325
103315
103308
103303
103300
103298
103805
103805
103806
103806
103806
103805
103805
103804
103801
103788
103748
103684
103621
103564
103516
103481
103456
103436
103417
103389
103361
103334
103311
103292
103277
103265
103257
103252
103248
103246
103799
103799
103800
103799
103799
103798
103798
103796
103789
103764
103701
103630
103563
103506
103464
103440
103427
103410
103378
103344
103313
103286
103263
103243
103226
103214
103205
103199
103196
103194
103791
103792
103792
103792
103791
103790
103788
103784
103769
103719
103643
103568
103502
103450
103420
103406
103391
103364
103323
103285
103251
103223
103200
103181
103167
103157
103150
103145
103141
103140
103781
103782
103784
103784
103781
103778
103774
103763
103729
103656
103577
103502
103441
103400
103378
103364
103345
103302
103256
103214
103178
103150
103129
103113
103103
103096
103091
103087
103085
103085
103765
103768
103772
103771
103766
103757
103747
103723
103664
103584
103506
103436
103383
103350
103333
103315
103280
103227
103176
103132
103095
103068
103048
103034
103032
103030
103028
103027
103026
103027
103736
103744
103748
103744
103733
103715
103692
103651
103583
103506
103433
103369
103323
103296
103274
103249
103197
103137
103083
103038
103002
102975
102953
102931
102948
102958
102961
102963
102964
102966
103687
103696
103693
103682
103666
103638
103602
103558
103494
103424
103356
103298
103257
103230
103205
103162
103099
103037
102981
102935
102901
102877
102854
102845
102851
102878
102893
102900
102900
102904
103612
103613
103603
103588
103566
103534
103494
103457
103403
103339
103275
103220
103182
103152
103119
103062
102995
102931
102876
102833
102806
102789
102781
102781
102790
102806
102831
102840
102837
102844
103519
103514
103504
103489
103463
103429
103388
103355
103308
103249
103187
103133
103093
103060
103018
102956
102890
102828
102776
102741
102721
102714
102717
102732
102744
102765
102777
102786
102789
102793
103421
103415
103406
103392
103365
103327
103286
103252
103211
103157
103095
103038
102992
102955
102912
102852
102790
102732
102687
102659
102644
102640
102659
102685
102706
102725
102743
102748
102751
102757
103324
103317
103308
103295
103268
103229
103186
103153
103116
103063
102999
102936
102883
102842
102805
102753
102694
102641
102601
102579
102573
102579
102602
102636
102667
102688
102706
102715
102720
102726
103230
103221
103212
103199
103174
103134
103093
103061
103024
102969
102903
102834
102777
102732
102694
102652
102600
102552
102527
102522
102526
102537
102551
102579
102618
102649
102670
102684
102691
102696
103139
103130
103119
103106
103082
103045
103008
102974
102933
102876
102806
102734
102676
102631
102592
102552
102511
102491
102486
102490
102499
102506
102510
102521
102558
102596
102623
102641
102654
102651
103052
103041
103028
103015
102994
102961
102924
102887
102844
102783
102711
102637
102582
102540
102505
102478
102467
102465
102468
102473
102479
102483
102481
102478
102495
102533
102563
102584
102595
102595
102971
102959
102945
102928
102910
102881
102844
102805
102758
102692
102614
102542
102496
102468
102455
102451
102451
102454
102457
102461
102463
102464
102460
102455
102455
102472
102501
102523
102539
102541
102896
102887
102870
102853
102832
102805
102770
102729
102676
102603
102519
102472
102449
102441
102440
102441
102443
102445
102447
102449
102450
102448
102445
102440
102436
102437
102448
102468
102484
102491
102823
102817
102803
102783
102761
102735
102701
102657
102598
102520
102465
102442
102434
102433
102434
102434
102435
102436
102437
102438
102438
102436
102434
102430
102425
102421
102421
102426
102439
102448
102754
102750
102739
102720
102698
102671
102637
102590
102526
102468
102440
102431
102428
102427
102427
102427
102427
102428
102428
102428
102428
102427
102425
102421
102417
102412
102408
102406
102410
102418
102690
102686
102677
102662
102641
102614
102579
102531
102478
102444
102428
102422
102421
102420
102420
102419
102419
102420
102420
102420
102420
102419
102417
102413
102409
102404
102400
102397
102396
102399
102632
102628
102621
102608
102589
102563
102530
102489
102453
102428
102415
102412
102412
102412
102412
102412
102412
102413
102413
102413
102414
102413
102410
102406
102400
102396
102392
102390
102388
102389
102578
102575
102569
102558
102542
102521
102494
102462
102433
102410
102403
102403
102403
102404
102404
102404
102405
102406
102406
102407
102407
102406
102403
102397
102391
102387
102384
102382
102382
102382
102528
102526
102521
102513
102502
102487
102464
102437
102410
102395
102393
102395
102396
102396
102397
102397
102398
102399
102399
102400
102400
102399
102395
102388
102381
102377
102375
102374
102374
102375
102480
102479
102475
102470
102464
102453
102434
102411
102391
102386
102386
102388
102388
102389
102390
102390
102391
102391
102392
102393
102393
102391
102386
102378
102370
102367
102365
102365
102366
102366
102434
102433
102430
102428
102425
102418
102406
102389
102380
102379
102381
102382
102382
102383
102383
102384
102384
102384
102385
102386
102385
102381
102375
102366
102359
102356
102355
102355
102356
102356
102388
102387
102385
102385
102385
102384
102380
102374
102373
102374
102375
102376
102377
102377
102377
102377
102377
102377
102378
102378
102375
102370
102362
102353
102346
102344
102344
102345
102347
102345
102342
102342
102342
102343
102346
102351
102357
102362
102366
102369
102371
102371
102371
102371
102371
102370
102370
102370
102370
102369
102364
102357
102347
102338
102334
102332
102333
102335
102335
102333
102297
102298
102302
102306
102312
102323
102337
102351
102360
102365
102367
102367
102367
102367
102366
102364
102364
102363
102362
102359
102350
102340
102329
102322
102321
102320
102321
102323
102323
102319
102253
102258
102264
102271
102281
102296
102314
102335
102352
102360
102363
102364
102363
102362
102361
102359
102357
102356
102353
102346
102332
102318
102309
102306
102307
102308
102308
102310
102308
102302
102210
102217
102228
102239
102251
102267
102286
102308
102331
102349
102357
102359
102358
102357
102356
102353
102350
102347
102341
102329
102308
102291
102285
102287
102292
102294
102294
102295
102289
102282
102161
102172
102187
102201
102213
102223
102233
102250
102274
102305
102333
102345
102348
102348
102347
102344
102339
102332
102321
102301
102274
102256
102253
102262
102272
102276
102276
102273
102262
102252
102105
102112
102120
102126
102130
102136
102145
102160
102184
102217
102258
102296
102316
102323
102325
102323
102317
102305
102284
102253
102224
102208
102206
102220
102238
102246
102246
102235
102217
102208
102023
102020
102020
102022
102025
102029
102038
102051
102073
102103
102141
102185
102226
102254
102268
102272
102266
102250
102221
102183
102157
102140
102135
102145
102171
102188
102187
102164
102143
102137
101913
101909
101907
101906
101906
101909
101916
101927
101946
101971
102004
102042
102082
102117
102143
102159
102163
102154
102131
102099
102072
102052
102035
102034
102056
102077
102075
102050
102038
102043
101792
101790
101786
101781
101778
101777
101780
101791
101808
101829
101855
101886
101921
101955
101986
102009
102023
102028
102023
102007
101980
101953
101929
101921
101926
101934
101934
101925
101928
101939
101669
101665
101658
101649
101638
101630
101637
101651
101666
101681
101699
101722
101754
101788
101821
101851
101875
101893
101905
101908
101896
101877
101864
101856
101851
101850
101850
101853
101858
101862
101544
101538
101527
101509
101488
101488
101502
101515
101525
101532
101536
101544
101576
101616
101654
101690
101724
101754
101781
101805
101821
101826
101824
101818
101813
101810
101811
101816
101819
101819
101421
101412
101395
101372
101357
101368
101382
101390
101390
101384
101374
101367
101396
101439
101486
101529
101570
101611
101652
101693
101734
101767
101782
101784
101782
101780
101781
101785
101786
101781
101301
101289
101269
101252
101250
101268
101274
101272
101261
101243
101227
101230
101251
101284
101323
101369
101416
101464
101515
101568
101622
101674
101714
101734
101740
101741
101741
101743
101734
101724
101186
101174
101159
101148
101162
101171
101169
101157
101138
101116
101104
101120
101143
101163
101180
101215
101261
101314
101373
101434
101496
101553
101601
101638
101663
101672
101672
101666
101645
101631
101085
101075
101062
101053
101078
101079
101068
101050
101025
101003
100998
101018
101040
101049
101047
101063
101103
101159
101225
101295
101364
101426
101471
101502
101534
101554
101557
101548
101530
101519
100998
100991
100981
100973
100994
100991
100975
100949
100921
100900
100898
100912
100921
100908
100895
100891
100928
100993
101072
101153
101231
101300
101345
101365
101390
101411
101421
101420
101409
101404
100923
100915
100904
100908
100918
100910
100888
100856
100825
100804
100799
100796
100785
100750
100720
100694
100722
100805
100908
101008
101100
101177
101229
101241
101254
101275
101297
101297
101291
101288
100854
100843
100840
100852
100855
100838
100808
100771
100737
100716
100706
100686
100650
100599
100571
100555
100566
100629
100740
100864
100972
101061
101122
101137
101142
101160
101181
101181
101175
101175
100795
100790
100795
100808
100803
100774
100734
100690
100656
100636
100621
100590
100544
100509
100500
100500
100501
100522
100600
100726
100848
100949
101022
101046
101048
101064
101070
101066
101059
101065
100756
100756
100762
100771
100751
100711
100662
100615
100581
100563
100544
100509
100486
100478
100478
100481
100479
100482
100516
100610
100735
100840
100919
100957
100958
100966
100962
100951
100946
100955
100726
100729
100735
100732
100696
100649
100593
100546
100515
100500
100485
100473
100470
100471
100472
100474
100473
100470
100479
100531
100636
100743
100819
100861
100864
100864
100867
100871
100875
100878
100696
100702
100707
100684
100642
100589
100533
100492
100475
100469
100466
100465
100467
100468
100470
100471
100470
100467
100468
100489
100558
100661
100740
100783
100791
100800
100810
100821
100831
100839
100659
100668
100662
100631
100588
100533
100488
100467
100463
100463
100463
100464
100466
100467
100468
100468
100468
100466
100465
100472
100507
100596
100682
100732
100745
100758
100772
100786
100800
100817
100615
100621
100611
100585
100539
100489
100468
100462
100462
100462
100462
100463
100464
100465
100465
100466
100466
100465
100464
100466
100486
100547
100636
100694
100711
100723
100741
100759
100777
100788
100574
100577
100569
100546
100499
100473
100462
100461
100461
100461
100461
100462
100462
100463
100463
100464
100464
100464
100463
100463
100477
100518
100597
100656
100681
100693
100711
100733
100741
100743
100541
100545
100538
100516
100482
100466
100461
100461
100461
100461
100460
100461
100461
100461
100461
100462
100462
100462
100461
100461
100472
100501
100564
100617
100644
100660
100676
100686
100691
100687
100518
100522
100517
100500
100475
100462
100460
100460
100460
100459
100459
100459
100459
100459
100460
100460
100460
100460
100459
100459
100467
100489
100539
100579
100599
100617
100631
100642
100642
100631
100503
100507
100501
100489
100468
100462
100459
100458
100458
100458
100458
100458
100458
100458
100458
100458
100458
100458
100457
100456
100460
100483
100518
100543
100558
100576
100593
100604
100600
100593
100493
100499
100495
100486
100474
100466
100458
100457
100457
100456
100456
100456
100456
100456
100456
100456
100456
100456
100456
100454
100454
100467
100492
100507
100524
100543
100564
100572
100566
100565
100491
100495
100497
100494
100493
100465
100457
100456
100455
100455
100454
100454
100454
100454
100454
100454
100454
100454
100454
100453
100452
100456
100469
100481
100499
100520
100540
100545
100541
100539
100480
100480
100480
100485
100478
100460
100455
100454
100453
100453
100453
100452
100452
100452
100452
100452
100452
100452
100452
100452
100451
100452
100458
100469
100485
100504
100516
100521
100517
100516
100466
100467
100467
100468
100463
100455
100453
100451
100451
100451
100451
100451
100451
100450
100450
100451
100451
100451
100451
100451
100451
100451
100459
100466
100479
100492
100501
100498
100497
100497
100457
100457
100457
100456
100455
100451
100451
100449
100449
100449
100449
100449
100449
100449
100449
100449
100449
100449
100449
100450
100450
100451
100456
100470
100477
100482
100483
100478
100479
100480
100450
100448
100448
100448
100448
100448
100449
100448
100447
100447
100447
100447
100447
100447
100447
100447
100447
100447
100448
100448
100449
100450
100453
100462
100472
100469
100464
100462
100462
100462
100443
100441
100442
100441
100442
100443
100446
100446
100445
100445
100445
100445
100445
100445
100445
100445
100445
100446
100446
100447
100447
100448
100449
100451
100454
100451
100447
100447
100446
100445
100438
100436
100437
100436
100436
100439
100443
100444
100443
100443
100443
100443
100443
100443
100443
100443
100443
100444
100444
100445
100445
100446
100445
100444
100440
100435
100432
100432
100430
100429
100435
100432
100432
100432
100432
100434
100439
100442
100441
100441
100441
100441
100440
100440
100441
100441
100441
100442
100442
100444
100444
100443
100440
100435
100428
100421
100418
100416
100414
100413
100430
100429
100427
100427
100428
100430
100436
100439
100439
100439
100439
100439
100438
100438
100438
100439
100439
100440
100441
100442
100442
100438
100432
100423
100415
100408
100404
100402
100399
100401
100425
100423
100421
100421
100423
100426
100434
100437
100437
100437
100437
100437
100436
100436
100436
100436
100436
100437
100439
100440
100438
100432
100422
100411
100402
100396
100392
100389
100387
100390
100417
100418
100415
100415
100417
100421
100432
100435
100435
100435
100435
100434
100434
100433
100433
100433
100434
100435
100437
100437
100433
100423
100411
100400
100391
100386
100382
100380
100380
100383
100402
100407
100408
100408
100411
100417
100429
100433
100432
100432
100432
100432
100431
100430
100430
100430
100430
100431
100434
100432
100424
100413
100400
100389
100381
100376
100373
100373
100375
100377
100384
100394
100399
100402
100406
100413
100426
100429
100429
100429
100429
100428
100428
100427
100427
100427
100427
100427
100429
100426
100415
100402
100389
100378
100371
100367
100365
100366
100368
100371
100372
100383
100388
100393
100400
100408
100421
100423
100424
100425
100425
100425
100424
100424
100423
100423
100423
100423
100425
100419
100405
100391
100378
100368
100361
100358
100358
100360
100362
100362
100363
100370
100376
100383
100392
100401
100408
100414
100418
100420
100420
100420
100420
100419
100419
100419
100419
100420
100420
100412
100396
100382
100369
100360
100353
100351
100351
100352
100353
100351
100351
100357
100363
100372
100384
100385
100390
100400
100408
100412
100414
100415
100415
100415
100415
100415
100415
100416
100416
100405
100387
100372
100360
100351
100346
100343
100343
100343
100341
100338
100337
100341
100346
100357
100368
100372
100377
100384
100394
100402
100406
100408
100408
100408
100409
100410
100411
100411
100410
100397
100377
100363
100351
100343
100337
100334
100333
100331
100325
100321
100324
100324
100328
100338
100350
100360
100365
100370
100377
100386
100393
100398
100400
100400
100401
100402
100404
100404
100402
100388
100367
100353
100342
100334
100328
100324
100322
100317
100313
100305
100306
100308
100311
100319
100331
100345
100353
100357
100360
100366
100375
100383
100387
100388
100388
100391
100394
100394
100390
100376
100356
100342
100331
100323
100318
100313
100309
100304
100298
100294
100289
100292
100296
100303
100313
100326
100337
100342
100343
100346
100352
100360
100368
100371
100371
100373
100378
100379
100373
100361
100343
100329
100319
100312
100306
100301
100297
100292
100286
100285
100273
100276
100279
100285
100294
100303
100314
100322
100325
100325
100327
100333
100341
100346
100346
100348
100355
100358
100350
100342
100327
100314
100305
100298
100293
100289
100284
100280
100277
100277
100259
100259
100262
100267
100275
100281
100287
100295
100302
100303
100303
100304
100309
100315
100315
100317
100327
100332
100323
100316
100308
100297
100289
100283
100278
100274
100271
100268
100267
100267
100245
100242
100244
100248
100254
100259
100261
100265
100273
100278
100277
100275
100275
100279
100280
100282
100292
100297
100292
100287
100283
100276
100270
100265
100262
100259
100257
100256
100257
100254
100230
100226
100227
100229
100233
100236
100236
100236
100241
100248
100249
100246
100243
100243
100245
100245
100249
100255
100257
100255
100253
100252
100249
100246
100243
100242
100241
100241
100242
100239
100216
100212
100212
100211
100212
100213
100210
100207
100208
100214
100219
100217
100213
100210
100211
100209
100203
100210
100218
100223
100224
100224
100226
100225
100223
100222
100221
100221
100219
100216
100202
100201
100199
100196
100194
100190
100182
100175
100173
100178
100185
100187
100184
100181
100180
100175
100166
100169
100182
100190
100195
100198
100201
100203
100202
100201
100200
100197
100194
100190
100185
100188
100187
100183
100177
100164
100148
100140
100138
100142
100149
100155
100156
100154
100152
100148
100140
100135
100147
100159
100166
100172
100176
100179
100180
100180
100177
100174
100170
100167
100156
100164
100168
100167
100157
100133
100109
100105
100104
100106
100114
100123
100128
100129
100128
100125
100119
100113
100118
100132
100140
100146
100151
100155
100157
100157
100155
100151
100147
100146
100117
100129
100138
100143
100132
100098
100078
100077
100079
100081
100086
100095
100103
100107
100108
100106
100102
100097
100095
100106
100117
100123
100128
100132
100134
100134
100132
100128
100125
100125
100081
100094
100104
100110
100105
100076
100063
100063
100065
100067
100069
100075
100082
100088
100090
100090
100088
100085
100082
100087
100098
100103
100107