/*--------------------------------*- C++ -*----------------------------------*\
| =========                 |                                                 |
| \\      /  F ield         | OpenFOAM: The Open Source CFD Toolbox           |
|  \\    /   O peration     | Version:  2.3.0                                 |
|   \\  /    A nd           | Web:      www.OpenFOAM.org                      |
|    \\/     M anipulation  |                                                 |
\*---------------------------------------------------------------------------*/
FoamFile
{
    version     2.0;
    format      ascii;
    class       surfaceScalarField;
    location    "0.800228";
    object      phi.water;
}
// * * * * * * * * * * * * * * * * * * * * * * * * * * * * * * * * * * * * * //

dimensions      [0 3 -1 0 0 0 0];

internalField   nonuniform List<scalar> 
49938
(
-7.10984e-10
2.12429e-09
-1.73172e-09
-1.41519e-09
2.98121e-09
-2.38657e-09
-2.36002e-09
1.67048e-09
-4.91881e-10
-2.46612e-09
-1.67949e-09
2.25032e-09
-2.42027e-09
-2.98394e-09
3.41926e-09
-3.05136e-09
-2.56882e-09
3.66952e-09
-4.20569e-09
-6.87463e-10
2.25157e-09
-4.91667e-09
1.16294e-09
-3.08441e-10
-5.55859e-09
1.77137e-09
-7.98208e-10
-5.78764e-09
1.03854e-09
-3.72902e-10
-5.26832e-09
-7.40399e-10
7.03744e-10
-4.55984e-09
-1.7038e-09
1.48189e-09
-4.1053e-09
-1.48899e-09
1.51667e-09
-3.65371e-09
-1.43965e-09
1.47277e-09
-2.47562e-09
-1.62224e-09
9.25485e-10
-9.41132e-10
-1.55432e-09
4.95308e-10
5.99974e-10
-1.63483e-09
5.67242e-10
2.60409e-09
-1.95457e-09
4.26939e-10
4.33301e-09
-1.99047e-09
7.47083e-10
5.36895e-09
-1.38651e-09
8.40009e-10
5.66124e-09
-1.00147e-09
1.19811e-09
5.87143e-09
-8.87872e-10
1.16351e-09
6.0089e-09
-2.09863e-10
5.14756e-10
5.70188e-09
1.32033e-09
-7.85589e-10
4.96751e-09
2.34823e-09
-1.6582e-09
2.76378e-09
3.73155e-09
-1.64513e-09
1.32048e-10
4.9931e-09
-2.42367e-09
1.58749e-09
-1.30364e-09
-6.9528e-10
2.89265e-09
3.12642e-11
-1.14377e-09
4.12382e-09
-4.29825e-10
-1.91226e-09
2.06989e-09
5.95963e-10
-2.26803e-09
-3.14443e-09
1.85258e-09
-2.85307e-09
-3.90917e-09
1.52552e-09
-3.71607e-09
-3.69128e-09
2.01133e-09
-4.27347e-09
-3.02319e-09
3.04079e-09
-3.95231e-09
-1.33978e-09
2.48391e-09
-2.88711e-09
-6.91928e-10
1.51406e-09
-1.70089e-09
-1.064e-09
9.67845e-10
-9.87524e-10
-2.15862e-09
7.28328e-10
-1.03086e-09
-2.49308e-09
8.50628e-10
-1.52281e-09
-2.05412e-09
1.07803e-09
-1.98014e-09
-1.99395e-09
1.0368e-09
-1.80891e-09
-2.4104e-09
6.45926e-10
-1.30652e-09
-2.47356e-09
4.4788e-10
-4.2912e-10
-2.46387e-09
-1.76999e-11
7.68572e-10
-2.82754e-09
-2.95034e-10
2.0138e-09
-2.95954e-09
-2.46532e-10
2.98031e-09
-2.37513e-09
5.3506e-11
3.19043e-09
-1.70357e-09
5.26357e-10
3.14382e-09
-1.61756e-09
8.17839e-10
3.6093e-09
-1.51179e-09
9.07752e-10
4.64675e-09
6.09151e-10
-5.43523e-11
4.43076e-09
3.73669e-09
-8.48383e-10
2.72891e-09
6.7076e-09
-1.09537e-09
8.17131e-10
8.43873e-09
-1.22469e-09
1.36264e-09
1.20566e-09
6.10662e-10
6.65298e-09
-4.61631e-09
-4.56347e-10
5.62168e-09
-3.89666e-10
-2.07016e-09
2.21277e-09
1.50294e-09
-3.01753e-09
-2.12814e-09
-5.37962e-11
-3.70386e-09
-2.17436e-09
-1.04503e-09
-3.74063e-09
-2.1629e-09
-1.48342e-09
-3.34198e-09
-2.57262e-09
-8.2494e-10
-2.25261e-09
-3.38365e-09
1.00684e-09
-3.70513e-10
-3.68605e-09
1.16567e-09
1.09133e-09
-3.24165e-09
7.40346e-10
1.50347e-09
-3.11203e-09
5.52834e-10
1.27173e-09
-2.2779e-09
1.91391e-11
4.15258e-10
-1.54146e-09
3.41721e-10
-6.20129e-10
-1.54274e-09
5.81275e-10
-1.11148e-09
-2.24553e-09
3.26251e-10
-1.06432e-09
-2.4295e-09
-9.07349e-11
-5.28804e-10
-2.42785e-09
-5.70946e-10
2.17871e-10
-2.86664e-09
-7.06893e-10
1.11914e-09
-3.25894e-09
-6.01078e-10
2.08772e-09
-3.00144e-09
-3.41217e-10
2.30839e-09
-2.04176e-09
1.19307e-10
2.12628e-09
-1.44734e-09
1.5385e-11
2.13535e-09
-1.62138e-09
1.11323e-10
2.9523e-09
-1.14207e-09
9.71121e-10
2.60651e-09
3.85272e-09
3.25633e-10
1.09826e-09
7.97377e-09
3.1046e-10
-3.90005e-11
1.02032e-08
-5.83665e-10
1.62552e-09
-3.36044e-10
5.30374e-10
8.19755e-09
-2.10116e-09
-8.77002e-10
6.8102e-09
6.36607e-10
-2.73409e-09
2.57942e-09
1.5053e-09
-3.4207e-09
-9.32113e-10
-5.01557e-10
-3.85346e-09
-8.09081e-10
-9.26555e-10
-3.74588e-09
-6.93543e-10
-1.57121e-09
-2.93875e-09
-1.70934e-09
-1.66622e-09
-1.86099e-09
-3.6683e-09
-7.86073e-10
-2.57788e-10
-4.05117e-09
-1.22603e-09
1.34255e-09
-3.2781e-09
-1.55289e-09
2.36432e-09
-2.7145e-09
-1.41108e-09
2.45174e-09
-1.90165e-09
-4.59186e-10
1.85517e-09
-1.55183e-09
6.09595e-10
5.58761e-10
-1.8184e-09
1.57259e-09
-3.40481e-10
-2.43868e-09
1.09182e-09
-5.94376e-10
-2.41148e-09
2.35835e-10
-5.5809e-10
-2.36058e-09
-1.03446e-10
-2.33087e-10
-3.02664e-09
-1.64777e-10
1.82822e-10
-3.77788e-09
1.03237e-10
1.14548e-09
-4.10951e-09
1.45664e-10
1.78973e-09
-3.38855e-09
7.02961e-10
1.69953e-09
-1.58831e-09
2.31708e-10
1.5617e-09
-1.5258e-09
4.3762e-11
1.54365e-09
-1.64142e-09
5.28808e-10
1.35396e-09
3.25896e-09
8.36148e-10
1.88176e-10
8.79987e-09
4.09201e-10
-5.33236e-10
1.07204e-08
4.84965e-10
1.46263e-09
-3.85193e-10
2.0847e-10
9.66369e-09
-1.71246e-09
-1.34339e-09
8.42199e-09
2.02283e-10
-2.73389e-09
3.44499e-09
5.2759e-10
-3.25231e-09
3.64181e-10
-7.76374e-10
-3.43563e-09
2.73294e-10
-8.96364e-10
-3.25398e-09
2.16626e-10
-1.08812e-09
-2.51473e-09
-1.06287e-09
-1.38329e-09
-1.37096e-09
-3.39745e-09
-1.4137e-09
-4.01936e-11
-3.71207e-09
-1.66901e-09
9.05087e-10
-2.64802e-09
-1.57392e-09
1.91725e-09
-1.52121e-09
-2.20391e-09
2.7109e-09
-6.26344e-10
-2.06569e-09
2.58476e-09
-7.59364e-10
-6.60707e-10
1.51637e-09
-1.27687e-09
5.3094e-10
6.92499e-10
-1.76554e-09
1.51459e-10
2.5803e-10
-1.76024e-09
-2.16773e-10
-2.99329e-10
-1.80288e-09
-2.521e-13
-4.24037e-10
-2.81421e-09
-8.76089e-11
-2.41853e-10
-3.66682e-09
-2.93141e-10
5.04379e-10
-4.71275e-09
-1.4275e-10
1.54891e-09
-4.78353e-09
3.50855e-10
1.46175e-09
-1.99609e-09
4.9524e-10
1.17237e-09
-1.3284e-09
9.22776e-11
8.69929e-10
-1.42636e-09
8.89669e-11
9.46202e-10
1.13063e-09
2.08545e-09
1.44255e-10
8.68419e-09
9.4465e-10
-3.88694e-10
1.0356e-08
9.88733e-10
1.3539e-09
-2.81863e-10
4.0207e-10
9.71942e-09
-4.96691e-10
-7.21743e-10
9.7126e-09
-1.36659e-10
-1.6653e-09
4.76511e-09
-3.73064e-10
-1.69894e-09
1.01644e-09
-6.21096e-10
-1.61254e-09
1.1773e-10
7.03063e-11
-1.6602e-09
-2.71817e-10
5.37359e-10
-1.60568e-09
-1.97602e-09
8.59487e-10
-7.31955e-10
-4.86822e-09
5.97357e-10
3.31191e-10
-4.91009e-09
1.35117e-10
7.80253e-10
-2.75391e-09
-3.42665e-10
1.13245e-09
-1.2509e-09
-6.21308e-10
1.67773e-09
-2.35094e-10
-9.32616e-10
1.9787e-09
-3.09006e-10
-7.47172e-10
1.54643e-09
-6.06442e-10
-2.35218e-10
9.89529e-10
-9.96795e-10
-2.1104e-10
8.0193e-10
-1.10317e-09
-4.69457e-10
7.6544e-11
-1.31009e-09
2.3263e-10
-3.97204e-10
-2.48302e-09
1.42596e-10
-6.04899e-10
-3.37375e-09
-8.53067e-11
-2.236e-10
-5.54564e-09
4.51821e-10
1.17619e-09
-5.88277e-09
-3.00194e-10
1.17183e-09
-2.76605e-09
7.74641e-10
8.36667e-10
-1.44024e-09
4.47138e-10
5.25952e-10
-1.3886e-09
2.7377e-10
4.26919e-10
-3.02097e-10
1.5569e-09
1.12139e-10
7.70074e-09
1.54396e-09
-2.85812e-10
8.53475e-09
2.27817e-09
1.20291e-09
-1.39007e-10
7.90229e-10
8.26371e-09
7.25719e-10
2.05795e-10
1.03754e-08
-2.20073e-10
-7.07015e-10
6.1927e-09
-4.9937e-10
-8.21356e-10
1.29099e-09
-1.63745e-10
-6.90176e-10
-6.44049e-10
6.31303e-10
-1.00618e-09
-1.09338e-09
1.13779e-09
-1.36616e-09
-3.05103e-09
1.43518e-09
-2.24376e-10
-6.28834e-09
2.78411e-10
8.69095e-10
-6.1147e-09
1.11181e-10
8.63855e-10
-2.76201e-09
1.34079e-11
6.32735e-10
-1.31809e-09
2.98593e-10
5.09485e-10
-3.34836e-10
2.24078e-10
6.68131e-10
-4.46388e-10
-2.02075e-11
4.68788e-10
-4.52009e-10
4.5541e-11
4.47364e-10
-7.51655e-10
-2.23578e-10
7.9578e-10
-7.07855e-10
-7.43718e-10
3.80084e-10
-9.56479e-10
6.20951e-11
-6.08663e-11
-1.98449e-09
-5.75685e-11
-8.16383e-10
-2.87475e-09
2.56581e-10
-4.55202e-10
-6.03493e-09
1.2825e-10
1.0139e-09
-6.3412e-09
-1.01046e-09
1.10513e-09
-3.44371e-09
5.86717e-10
7.30242e-10
-1.24277e-09
1.77506e-10
2.54397e-10
-1.27092e-09
3.58635e-10
-2.01905e-10
-7.20202e-10
8.83624e-10
-1.33869e-11
3.95066e-09
3.75507e-09
-2.25827e-11
5.11784e-09
3.44486e-09
1.33821e-09
-1.56993e-10
1.1902e-09
4.35883e-09
2.76235e-09
9.31882e-10
1.06484e-08
2.28169e-10
1.16783e-10
7.43976e-09
-4.19681e-10
-2.61413e-10
2.19553e-09
-5.3612e-10
-1.94168e-10
-1.15702e-09
4.45292e-10
-5.8334e-10
-1.43721e-09
7.32997e-10
-8.47231e-10
-3.69319e-09
9.06072e-10
1.71575e-10
-7.14316e-09
-1.63962e-10
9.76623e-10
-7.0091e-09
8.93658e-11
1.98145e-10
-2.77129e-09
7.8777e-10
-1.594e-10
-1.62661e-09
6.66107e-10
-2.79873e-10
-1.02698e-09
8.12757e-10
-2.55475e-10
-1.35479e-09
8.84126e-10
-3.43518e-10
-1.2002e-09
8.36278e-10
1.19709e-10
-1.4541e-09
2.39224e-10
6.53573e-10
-1.05448e-09
-1.87229e-10
4.95786e-10
-1.2742e-09
4.75515e-10
4.12387e-10
-1.85937e-09
-4.17103e-11
-5.71226e-10
-2.6246e-09
7.33503e-10
-3.19822e-10
-6.45259e-09
1.66291e-10
4.3079e-10
-7.09344e-09
1.66985e-12
8.73856e-10
-3.71138e-09
-1.75275e-10
7.07745e-10
-9.4032e-10
-1.36358e-10
1.60477e-10
-9.945e-10
2.71029e-10
-1.57831e-10
-5.06062e-10
1.06909e-10
4.91741e-11
2.08704e-09
1.70497e-09
-9.45434e-11
4.21775e-09
1.07034e-09
1.38196e-09
-1.3629e-10
1.23356e-09
1.99914e-09
1.18068e-09
1.3122e-09
1.05858e-08
5.0764e-10
7.04414e-10
8.26589e-09
-2.36449e-10
1.26064e-10
3.59816e-09
-8.38448e-10
-4.58615e-11
-1.24768e-09
2.60488e-10
-2.36434e-10
-1.5014e-09
2.54691e-10
-1.16619e-10
-3.75282e-09
-6.01965e-11
2.33715e-10
-8.01778e-09
5.24292e-10
7.64534e-10
-7.64538e-09
1.05463e-10
-4.34681e-10
-3.04997e-09
1.47789e-09
-6.99676e-10
-2.12978e-09
7.68164e-10
-8.1803e-10
-1.7087e-09
8.00096e-10
-6.98984e-10
-2.00275e-09
5.28917e-10
-6.1831e-10
-1.57131e-09
2.90434e-10
5.34723e-11
-1.76651e-09
-3.5938e-10
7.2204e-10
-1.01215e-09
-7.10895e-10
6.44241e-10
-1.20031e-09
3.91088e-12
8.10388e-10
-1.31669e-09
-7.08828e-10
-3.0913e-10
-2.36837e-09
8.63302e-10
-1.37525e-10
-6.51912e-09
-1.05077e-10
3.63918e-12
-7.83714e-09
6.02541e-10
4.63661e-10
-3.69144e-09
-4.79911e-10
5.41649e-10
-1.02468e-09
6.345e-12
1.31452e-10
-6.14106e-10
2.98394e-11
-7.66171e-11
-3.51968e-10
5.56124e-11
-8.28543e-11
1.55615e-09
5.47921e-10
-1.37072e-10
4.06027e-09
2.18716e-10
1.31379e-09
-6.74335e-11
9.57868e-10
7.40737e-10
3.323e-10
1.42875e-09
9.91812e-09
5.43655e-10
1.16397e-09
8.56119e-09
-6.89647e-11
4.36109e-10
4.07223e-09
2.51228e-10
1.20606e-10
-1.00282e-09
7.01077e-11
6.97134e-11
-1.63378e-09
1.83288e-10
2.76326e-10
-3.80689e-09
-1.52516e-10
3.81361e-10
-8.52614e-09
4.03328e-10
8.18883e-10
-8.11412e-09
3.12122e-11
-4.0164e-10
-3.67061e-09
1.84116e-09
-5.61391e-10
-3.14506e-09
1.17504e-09
-6.16999e-10
-2.58386e-09
9.30767e-10
-5.37342e-10
-2.90939e-09
8.2698e-10
-2.57138e-10
-2.26961e-09
4.18096e-10
2.31363e-10
-2.55283e-09
2.97826e-10
8.23905e-10
-1.99444e-09
3.89747e-10
1.1103e-09
-2.11833e-09
6.31627e-10
1.36927e-10
-2.79268e-09
2.44936e-09
-6.32692e-10
-2.77046e-09
1.17171e-09
-3.48993e-10
-7.235e-09
4.32188e-10
-2.78184e-10
-8.27646e-09
3.68514e-10
-5.92399e-11
-4.11898e-09
2.08637e-10
2.09723e-10
-1.4359e-09
1.42411e-10
6.81981e-11
-2.88008e-10
-1.8451e-10
-1.21369e-10
-2.6949e-10
1.07934e-10
-1.92792e-10
1.6139e-09
1.45399e-11
-2.54057e-10
4.04773e-09
7.47259e-11
1.13712e-09
-7.64891e-11
6.61472e-10
-2.50047e-10
3.36174e-10
1.32204e-09
8.1901e-09
1.22488e-09
1.17755e-09
8.27713e-09
4.05833e-10
6.03678e-10
2.98525e-09
1.66674e-09
4.46259e-10
-7.77946e-10
-6.44085e-11
5.26871e-10
-1.80741e-09
9.31796e-11
3.44822e-10
-4.16152e-09
5.36725e-10
3.12104e-10
-8.72049e-09
2.27065e-10
7.11285e-10
-8.15466e-09
-3.58638e-10
-9.89519e-11
-4.04464e-09
1.18427e-09
-1.16451e-10
-3.51633e-09
3.88769e-10
-2.82175e-10
-3.28704e-09
8.68901e-10
-1.45486e-10
-3.42367e-09
3.77588e-10
-1.72271e-10
-2.98609e-09
7.43263e-10
1.08719e-10
-3.21265e-09
3.78827e-10
2.84437e-10
-2.75812e-09
5.87965e-10
3.00778e-10
-2.77503e-09
6.4036e-10
2.55298e-10
-3.18417e-09
4.36962e-10
-3.56908e-10
-3.16173e-09
1.00347e-09
-1.52158e-10
-7.13601e-09
-3.03742e-10
-2.17521e-10
-8.48815e-09
2.77047e-10
-6.24299e-10
-4.84589e-09
1.13372e-09
-2.70965e-10
-1.81368e-09
2.45233e-11
-4.61823e-11
-3.61007e-10
-1.51945e-10
-1.84639e-10
-1.67211e-10
3.61179e-11
-3.52818e-10
1.85687e-09
-7.39111e-11
-5.04904e-10
3.96245e-09
2.38542e-10
6.76511e-10
-4.39599e-11
2.41152e-10
-9.20259e-10
4.29558e-10
1.04225e-09
4.55292e-09
2.86201e-09
1.06567e-09
6.98929e-09
1.31006e-09
7.18571e-10
1.38492e-09
1.95626e-09
7.7994e-10
-7.80476e-10
-5.53515e-11
9.90972e-10
-2.04735e-09
2.89979e-11
4.00645e-10
-4.82221e-09
1.25103e-09
2.5213e-10
-8.73913e-09
1.67153e-10
3.03178e-10
-7.78374e-09
-4.21965e-10
-1.08414e-11
-3.64191e-09
-8.87107e-11
-4.82213e-11
-3.48844e-09
9.49141e-12
-1.09441e-10
-3.17636e-09
-4.94635e-11
-4.87028e-11
-3.48028e-09
-4.12344e-12
1.49258e-11
-3.00463e-09
-4.50842e-11
1.28899e-10
-3.31709e-09
-9.53699e-12
2.61792e-10
-2.82681e-09
-6.42078e-11
2.89987e-10
-2.78276e-09
-2.04666e-11
1.96715e-10
-3.11494e-09
2.40503e-11
4.12619e-11
-2.96952e-09
-3.67535e-11
-7.07922e-11
-6.72348e-09
-3.00472e-10
-3.516e-10
-8.53377e-09
3.26434e-10
-1.05632e-09
-5.80541e-09
1.66424e-09
-7.15387e-10
-2.33367e-09
1.79046e-10
-2.96323e-10
-9.11335e-10
1.31058e-10
-3.26534e-10
-9.95219e-11
-3.72929e-11
-6.75775e-10
1.89092e-09
3.17299e-10
-7.97556e-10
3.6194e-09
4.6755e-10
5.50157e-11
-1.74349e-10
7.90215e-11
-1.23857e-09
2.39035e-10
5.11141e-10
2.94837e-09
1.19676e-09
9.02535e-10
3.79846e-09
2.8233e-09
7.03895e-10
6.60545e-10
9.39281e-10
7.83412e-10
-7.70627e-10
-8.83576e-11
1.02403e-09
-2.18861e-09
-9.93891e-11
5.13577e-10
-5.26522e-09
9.53471e-10
5.3101e-10
-8.49946e-09
-2.57099e-10
2.86116e-10
-7.19247e-09
-3.46376e-10
2.82715e-11
-3.28859e-09
-9.54767e-11
-1.11516e-11
-3.47157e-09
2.25528e-11
-6.14086e-11
-3.14453e-09
1.8431e-11
4.01389e-11
-3.6204e-09
3.85705e-11
9.48713e-11
-3.0981e-09
3.87318e-11
2.33497e-10
-3.49797e-09
4.22603e-11
3.14824e-10
-2.94581e-09
3.7676e-11
3.00273e-10
-2.79022e-09
2.20094e-11
2.27271e-10
-3.05882e-09
1.6876e-11
3.02093e-11
-2.75475e-09
-1.77046e-11
-4.11913e-10
-6.09019e-09
-1.91176e-10
-6.37008e-10
-8.30704e-09
-1.63699e-12
-1.09283e-09
-6.69796e-09
1.34836e-09
-6.40862e-10
-2.78351e-09
-2.11283e-12
-1.4178e-10
-1.36427e-09
-4.63938e-11
-2.35428e-10
3.28723e-11
-3.79499e-11
-7.53923e-10
1.87311e-09
5.39024e-10
-8.85202e-10
3.32556e-09
4.28582e-10
-4.45992e-10
-3.82355e-10
3.39857e-11
-1.32192e-09
4.83865e-11
3.69544e-10
2.35452e-09
2.68321e-10
6.20447e-10
2.40595e-09
1.17052e-09
5.7177e-10
5.87396e-10
1.29197e-10
6.18581e-10
-6.46106e-10
-1.71677e-10
7.94654e-10
-2.2713e-09
-9.338e-11
5.00245e-10
-5.6081e-09
6.37291e-10
6.60336e-10
-8.00021e-09
-6.59344e-10
1.63375e-10
-6.39578e-09
-2.99734e-10
-6.96645e-11
-3.03884e-09
-1.67026e-11
-8.16782e-11
-3.49785e-09
3.82936e-11
-1.00059e-10
-3.18608e-09
5.99339e-11
6.61348e-11
-3.81022e-09
2.36248e-11
1.53067e-10
-3.24889e-09
6.38628e-11
3.27152e-10
-3.69162e-09
1.95599e-11
4.41313e-10
-3.09156e-09
3.15865e-11
4.24114e-10
-2.86542e-09
9.24007e-11
3.51109e-10
-3.03445e-09
4.86316e-11
1.40258e-10
-2.55688e-09
1.29756e-11
-7.03138e-10
-5.26231e-09
1.55179e-11
-8.71704e-10
-7.8786e-09
-2.59884e-10
-7.31301e-10
-7.40374e-09
5.65299e-10
-2.30604e-10
-3.31999e-09
3.58101e-11
1.86264e-10
-1.7201e-09
-6.10348e-11
2.43138e-11
1.8779e-10
7.64642e-12
-4.99896e-10
1.87321e-09
5.25891e-10
-6.34607e-10
3.30409e-09
1.58033e-10
-8.68622e-10
-2.11297e-10
6.43517e-11
-1.284e-09
-1.03342e-10
3.44888e-10
2.09482e-09
-2.0443e-11
4.77979e-10
1.99827e-09
2.85067e-10
4.39877e-10
7.73578e-10
-1.46662e-10
4.23986e-10
-4.86332e-10
-1.44335e-10
5.67193e-10
-2.40383e-09
-1.06464e-11
5.93337e-10
-6.16678e-09
5.32485e-10
7.02692e-10
-7.44995e-09
-6.59616e-10
-1.12644e-10
-5.35737e-09
-2.23073e-10
-3.10367e-10
-2.74567e-09
-9.54523e-11
-2.57191e-10
-3.57347e-09
2.24377e-11
-2.08556e-10
-3.27556e-09
4.08393e-11
7.49975e-11
-4.12517e-09
3.13986e-11
2.26257e-10
-3.45551e-09
5.53582e-11
4.82975e-10
-3.98099e-09
3.26518e-11
6.4877e-10
-3.31266e-09
5.5306e-11
6.94571e-10
-2.94862e-09
3.7396e-11
6.64949e-10
-3.05602e-09
5.12001e-11
4.05575e-10
-2.25307e-09
-4.44353e-11
-1.0208e-09
-4.23225e-09
3.96315e-10
-1.24747e-09
-7.29436e-09
-3.57573e-10
-1.49959e-10
-7.76043e-09
-7.41049e-10
3.76985e-10
-4.17169e-09
3.24763e-10
5.3995e-10
-2.08542e-09
2.02459e-10
3.84015e-10
3.10229e-10
3.37901e-11
-1.16096e-10
1.97981e-09
3.94187e-10
-2.19518e-10
3.4906e-09
-8.3045e-11
-1.29687e-09
2.08871e-10
3.23081e-10
-1.27917e-09
-3.26044e-10
3.95031e-10
1.83457e-09
1.88604e-10
3.68832e-10
1.95557e-09
6.97606e-11
2.44608e-10
1.03853e-09
-1.40501e-10
2.09789e-10
-3.74661e-10
-7.6995e-11
3.01532e-10
-2.69521e-09
1.99689e-10
8.55261e-10
-6.58606e-09
-1.34645e-10
7.15366e-10
-6.97937e-09
-3.30691e-10
-5.51517e-10
-4.52826e-09
4.37773e-10
-8.22146e-10
-2.93749e-09
4.62447e-10
-5.15384e-10
-3.90549e-09
2.52634e-11
-4.58306e-10
-3.82866e-09
4.9602e-10
3.84675e-11
-4.61339e-09
-8.55133e-12
2.14339e-10
-4.12538e-09
4.93998e-10
6.45175e-10
-4.42403e-09
1.22079e-11
8.43124e-10
-3.92876e-09
4.18153e-10
9.42144e-10
-3.58194e-09
5.34302e-10
1.18322e-09
-3.35203e-09
5.49268e-11
7.77804e-10
-2.26117e-09
4.13522e-10
-1.23705e-09
-3.17481e-09
9.57417e-10
-1.6534e-09
-6.51828e-09
-3.59727e-10
6.77704e-10
-7.02812e-09
-3.06361e-09
1.08306e-09
-4.80542e-09
2.28222e-10
9.01647e-10
-2.16214e-09
2.58194e-10
6.7097e-10
4.65119e-10
7.60242e-11
2.07733e-10
2.22811e-09
2.15264e-10
1.73997e-10
3.7589e-09
-2.34877e-10
-1.59423e-09
4.7081e-10
6.77589e-10
-1.42015e-09
-5.31628e-10
5.17546e-10
1.56477e-09
4.31928e-10
2.40802e-10
2.14939e-09
8.31675e-11
8.2193e-12
1.37707e-09
-1.06362e-10
-2.12017e-10
-3.24584e-10
1.7123e-10
-1.93455e-10
-3.1489e-09
4.35155e-10
1.05652e-09
-6.65614e-09
-1.1803e-09
1.94853e-10
-6.51104e-09
3.93348e-10
-1.80139e-09
-4.04429e-09
1.51226e-09
-1.48981e-09
-3.07182e-09
-1.77234e-10
-1.20496e-09
-4.17841e-09
-1.19265e-11
-6.07412e-10
-4.00561e-09
-4.20601e-10
-1.66457e-10
-4.99134e-09
-6.30107e-11
4.6522e-10
-4.30515e-09
-4.51904e-10
4.29482e-10
-4.88603e-09
4.9774e-10
1.22778e-09
-4.20594e-09
-5.21122e-10
1.97379e-09
-4.00871e-09
-3.19237e-10
1.99706e-09
-3.8307e-09
4.554e-10
2.20385e-09
-2.45924e-09
-8.72098e-12
-4.62983e-10
-2.77669e-09
2.26871e-09
-1.39528e-09
-5.86992e-09
2.83962e-10
1.06697e-09
-5.4717e-09
-4.01865e-09
1.67293e-09
-4.55593e-09
-8.56112e-10
1.28313e-09
-1.73901e-09
-3.33784e-11
8.71601e-10
7.69931e-10
1.06995e-10
3.13981e-10
2.66151e-09
1.2443e-10
2.68302e-10
3.99218e-09
-1.87298e-10
-1.65483e-09
3.28376e-10
8.39994e-10
-1.61481e-09
-6.40978e-10
5.89214e-10
1.37171e-09
4.46555e-10
3.5152e-11
2.57874e-09
1.24655e-10
-4.47215e-10
1.83003e-09
2.82998e-11
-9.84158e-10
-3.88e-11
2.52346e-10
-1.45935e-09
-3.14235e-09
4.68655e-10
9.32978e-10
-4.8846e-09
-4.16454e-09
-1.90839e-10
-5.71533e-09
3.28145e-10
-2.71371e-09
-3.78952e-09
2.2681e-09
-2.45088e-09
-3.7557e-09
4.21044e-10
-1.72336e-09
-4.94208e-09
3.61562e-11
-1.13381e-09
-4.70928e-09
1.14116e-10
-4.31378e-10
-5.63046e-09
-6.33143e-11
1.27188e-10
-4.9282e-09
6.44855e-11
9.94642e-10
-5.63572e-09
-1.17767e-10
1.65434e-09
-5.03848e-09
1.72843e-10
2.337e-09
-4.58811e-09
-1.03257e-10
3.38104e-09
-4.90751e-09
3.27724e-11
3.78893e-09
-3.70114e-09
8.34012e-10
1.12309e-09
-3.31294e-09
3.20209e-09
7.56139e-11
-5.76441e-09
9.41962e-10
8.86056e-10
-4.85468e-09
-1.42742e-09
2.28288e-09
-3.02855e-09
-2.92526e-09
1.65864e-09
-8.66867e-10
-2.48178e-10
1.01966e-09
1.39046e-09
1.86092e-11
2.95933e-10
3.19353e-09
1.91837e-10
1.55103e-10
4.14642e-09
-1.25653e-11
-1.57004e-09
7.02291e-11
7.44382e-10
-1.87366e-09
-4.83484e-10
5.03668e-10
1.20631e-09
4.07345e-10
-1.86778e-10
3.15545e-09
1.13452e-10
-1.0155e-09
2.5503e-09
1.07754e-10
-1.82168e-09
7.7675e-10
-8.96696e-12
-2.14905e-09
-1.64164e-09
-1.17344e-09
-5.76584e-10
-3.07527e-09
-3.38163e-09
-1.78913e-09
-5.18767e-09
6.84901e-10
-4.49266e-09
-4.38427e-09
3.29827e-09
-3.82018e-09
-5.02588e-09
5.97695e-10
-2.39136e-09
-5.64936e-09
-7.21537e-10
-1.67263e-09
-5.56783e-09
1.39818e-10
-6.59168e-10
-5.96769e-09
-6.76221e-10
-3.73795e-11
-5.71735e-09
1.67355e-10
1.39313e-09
-5.85663e-09
-1.20961e-09
2.21712e-09
-5.79435e-09
-6.812e-11
2.98189e-09
-5.671e-09
3.18115e-10
5.16043e-09
-5.82325e-09
-1.26281e-09
6.17635e-09
-5.47407e-09
7.57018e-10
2.80232e-09
-5.09565e-09
5.15673e-09
1.87288e-09
-6.01618e-09
1.18121e-09
1.41966e-09
-4.75293e-09
3.515e-10
2.22919e-09
-1.25165e-09
-2.58659e-09
1.72515e-09
3.71784e-10
-7.34948e-10
9.89494e-10
2.22125e-09
-9.53621e-11
1.67347e-10
3.78241e-09
2.33507e-10
-2.71406e-11
4.23383e-09
1.07457e-10
-1.46898e-09
-1.2782e-10
7.35518e-10
-2.21803e-09
-3.90318e-10
5.83818e-10
1.09395e-09
2.63447e-10
-1.48231e-10
3.79938e-09
8.75814e-11
-1.21654e-09
3.4913e-09
1.2691e-10
-2.08743e-09
2.11278e-09
-4.65217e-10
-2.2049e-09
4.199e-10
-1.94426e-09
-2.50715e-09
-2.05939e-09
-7.13594e-10
-3.78842e-09
-5.1672e-09
1.2608e-09
-7.2125e-09
-6.46677e-09
5.50658e-09
-5.03558e-09
-6.05146e-09
-1.15134e-09
-3.34203e-09
-5.83726e-09
-1.50565e-09
-1.85111e-09
-5.31776e-09
-1.74099e-09
-9.50726e-10
-5.55005e-09
-1.31802e-09
2.08803e-10
-5.20892e-09
-1.66795e-09
1.05569e-09
-5.43917e-09
-1.26435e-09
2.61971e-09
-5.35439e-09
-2.00397e-09
4.1811e-09
-5.66268e-09
-1.56971e-09
6.31186e-09
-6.35804e-09
-1.59597e-09
8.85352e-09
-6.8891e-09
-1.12663e-09
4.7013e-09
-7.96343e-09
7.02001e-09
3.70687e-09
-6.51498e-09
1.49323e-09
2.4136e-09
-4.18873e-09
7.29085e-10
1.81357e-09
-1.48681e-10
-5.02332e-10
1.43735e-09
1.72829e-09
-9.80364e-10
6.70219e-10
3.02596e-09
-3.81381e-11
-1.08346e-10
4.34534e-09
2.15868e-10
-2.13056e-10
4.32141e-09
1.74764e-11
-1.37809e-09
-3.03193e-10
9.61545e-10
-2.17634e-09
-1.00215e-09
7.96012e-10
1.47512e-09
-2.16457e-10
1.69557e-10
4.66521e-09
-2.39893e-10
-6.66163e-10
4.35832e-09
-3.16732e-11
-1.21756e-09
3.01986e-09
-3.55909e-10
-1.75131e-09
1.69789e-09
-7.44237e-10
-3.76995e-09
-1.95327e-09
1.91251e-09
-5.69734e-09
-4.23689e-09
9.97089e-10
-8.14002e-09
-4.50098e-09
4.7689e-10
-5.45903e-09
-2.17452e-09
-6.55794e-09
-3.85503e-09
-1.45351e-09
-5.98775e-09
-2.26494e-09
-7.81095e-10
-6.12675e-09
-1.03465e-09
-8.18844e-10
-5.9615e-09
1.80228e-10
-5.6299e-10
-5.86081e-09
1.28154e-09
-6.76874e-10
-5.8636e-09
2.77394e-09
-7.68313e-10
-6.07848e-09
4.45388e-09
-9.32154e-10
-6.41048e-09
6.29801e-09
-1.79099e-09
-6.41118e-09
9.41593e-09
-2.62425e-09
-7.38277e-09
6.76692e-09
-5.59657e-09
2.8216e-10
4.79859e-09
-5.45987e-09
9.13215e-10
2.35985e-09
-3.71551e-09
1.96553e-09
8.18377e-10
3.41406e-10
1.0518e-09
5.67169e-10
2.29769e-09
-3.18277e-10
3.98768e-11
3.48309e-09
6.93754e-11
-4.18166e-10
4.68956e-09
1.13976e-10
-3.42756e-10
4.40154e-09
-1.54672e-10
-1.18202e-09
-5.37592e-10
1.19089e-09
-1.65629e-09
-1.70997e-09
9.17156e-10
2.42823e-09
-6.78766e-10
6.58001e-10
5.36309e-09
-4.38732e-10
5.01989e-10
4.45653e-09
5.70798e-11
5.95302e-10
2.89383e-09
3.24442e-11
-2.55061e-10
1.52337e-09
1.0251e-09
-2.45097e-09
-2.2215e-09
2.46414e-09
-4.19406e-09
-4.01277e-09
1.51897e-09
-5.19082e-09
-4.18164e-09
6.77418e-10
-3.88522e-09
-2.59649e-09
-8.83624e-10
-2.75263e-09
-1.86812e-09
-7.17987e-10
-1.69957e-09
-1.0801e-09
-7.54058e-10
-7.56321e-10
-1.03082e-09
-7.31273e-10
1.33067e-10
-7.22395e-10
-7.29982e-10
1.03482e-09
-8.43836e-10
-7.3479e-10
2.07775e-09
-1.0401e-09
-7.71141e-10
3.25852e-09
-1.23499e-09
-8.77933e-10
4.57168e-09
-2.17813e-09
-9.26019e-10
6.15635e-09
-3.00086e-09
-1.20805e-09
5.0289e-09
-4.95748e-09
4.88351e-10
2.9176e-09
-4.9654e-09
1.61683e-09
7.00577e-10
-3.51221e-09
2.01372e-09
-5.4746e-10
3.3128e-10
1.25835e-09
-4.52516e-10
1.97784e-09
2.24485e-10
-6.3935e-10
3.34301e-09
3.26095e-10
-6.65755e-10
4.61052e-09
1.05863e-10
-3.19552e-10
4.32097e-09
-2.63171e-10
-1.15361e-09
-3.47252e-10
7.19032e-10
-1.50311e-09
-8.71857e-10
2.79584e-10
3.26772e-09
-3.99026e-10
4.23745e-10
5.77225e-09
-5.53316e-10
6.71798e-10
4.47903e-09
-2.70572e-10
9.35357e-10
2.88037e-09
-2.50105e-10
4.55991e-10
1.63389e-09
3.69021e-10
-1.11556e-09
-1.26012e-09
6.10175e-10
-3.0008e-09
-3.70224e-09
1.5747e-09
-3.8282e-09
-4.3259e-09
9.71651e-10
-3.22271e-09
-3.36548e-09
1.635e-10
-2.35976e-09
-2.72768e-09
-3.3976e-12
-1.43954e-09
-2.1466e-09
1.46284e-10
-6.93978e-10
-1.9357e-09
1.59314e-10
1.28919e-10
-1.76965e-09
2.24354e-10
9.3027e-10
-1.82373e-09
1.78543e-10
1.75618e-09
-2.02736e-09
1.61345e-10
2.77477e-09
-2.34414e-09
9.0561e-11
3.71815e-09
-3.06164e-09
-5.98739e-11
4.45455e-09
-3.79972e-09
6.24571e-11
3.6362e-09
-5.01835e-09
8.79219e-10
1.53972e-09
-4.57994e-09
1.71102e-09
1.19577e-10
-2.36959e-09
2.77507e-10
-5.58639e-10
6.63735e-10
3.45966e-10
-4.78664e-10
2.03334e-09
-1.35958e-10
-6.61638e-10
3.4103e-09
1.15322e-10
-5.72473e-10
4.40247e-09
1.19909e-10
-6.2015e-11
3.86614e-09
-5.1968e-11
-1.43613e-09
2.201e-10
3.97483e-11
-2.02478e-09
4.81909e-10
-2.62006e-10
3.3377e-09
2.33098e-10
2.88975e-10
5.55684e-09
-3.35635e-10
7.89748e-10
4.09166e-09
-1.12907e-10
1.17053e-09
2.56438e-09
-6.43077e-11
1.00679e-09
1.44067e-09
3.57173e-10
-1.91324e-10
-6.20345e-10
5.58347e-10
-2.03046e-09
-3.82876e-09
1.96559e-09
-2.63438e-09
-4.75494e-09
1.03296e-09
-2.27835e-09
-3.91464e-09
1.93128e-10
-1.66757e-09
-3.25778e-09
-8.0673e-11
-1.0339e-09
-2.71206e-09
-6.81996e-11
-4.87638e-10
-2.43205e-09
-4.9913e-11
9.54318e-11
-2.26696e-09
-8.57604e-11
6.74203e-10
-2.32574e-09
-7.67602e-11
1.27307e-09
-2.55853e-09
-6.76944e-11
1.97793e-09
-2.94976e-09
-9.9246e-11
2.64814e-09
-3.62674e-09
-1.05106e-10
3.12333e-09
-4.41133e-09
1.36424e-10
2.64821e-09
-5.31255e-09
7.69314e-10
6.50888e-10
-4.72795e-09
2.14529e-09
-3.28728e-10
-1.78881e-09
3.98829e-10
-7.30941e-10
6.34219e-10
4.32022e-10
-6.01612e-10
1.86878e-09
3.55425e-11
-7.26656e-10
3.24741e-09
2.88041e-10
-5.58902e-10
3.81826e-09
4.17767e-10
1.96875e-11
2.46111e-09
8.30102e-10
-2.50431e-09
1.08533e-09
-1.88739e-10
-2.36573e-09
5.29759e-10
-4.25157e-10
3.16671e-09
4.08995e-10
2.2647e-10
5.00733e-09
-1.03266e-10
7.00486e-10
3.74281e-09
-1.24264e-10
9.59807e-10
2.47993e-09
-1.73968e-10
8.64913e-10
1.52784e-09
8.03751e-12
9.52298e-11
7.64024e-11
7.2975e-11
-1.05415e-09
-3.05294e-09
3.73413e-10
-1.5506e-09
-4.34593e-09
8.74509e-11
-1.46502e-09
-3.99873e-09
-1.49549e-12
-1.15977e-09
-3.51156e-09
-5.14656e-11
-7.53006e-10
-3.07688e-09
-4.19424e-11
-3.488e-10
-2.81966e-09
-1.65989e-11
7.1404e-11
-2.68798e-09
8.21372e-13
4.98806e-10
-2.7437e-09
-9.44677e-12
9.37356e-10
-2.9672e-09
-2.98809e-11
1.40213e-09
-3.34859e-09
-6.59474e-11
1.7784e-09
-3.93123e-09
-7.17768e-11
1.94439e-09
-4.57069e-09
-6.63448e-12
1.46092e-09
-5.00708e-09
1.78e-10
2.07588e-10
-4.05845e-09
5.8378e-10
-3.79138e-10
-1.05257e-09
-1.4953e-10
-5.92682e-10
7.33739e-10
1.1444e-10
-5.54597e-10
1.86995e-09
-3.72627e-11
-7.4477e-10
3.13747e-09
3.00828e-10
-8.32226e-10
3.27687e-09
6.29614e-10
-3.09604e-10
5.62884e-10
1.37958e-09
-3.79285e-09
9.76495e-10
-1.71351e-10
-2.43068e-09
2.36388e-10
-2.37454e-10
3.07672e-09
1.58124e-10
3.71928e-10
4.40676e-09
-1.09475e-11
6.65437e-10
3.44641e-09
3.72211e-12
8.14986e-10
2.40117e-09
-6.96913e-11
7.15637e-10
1.60539e-09
2.20156e-11
1.74598e-10
5.7574e-10
4.17448e-11
-3.99133e-10
-2.44211e-09
-3.73612e-11
-7.4312e-10
-3.92966e-09
-7.22751e-11
-7.82323e-10
-3.93546e-09
-2.40681e-11
-6.44423e-10
-3.58209e-09
-6.73763e-11
-4.25035e-10
-3.19266e-09
-1.03608e-10
-1.98576e-10
-2.93018e-09
-1.15933e-10
4.156e-11
-2.8002e-09
-1.27914e-10
2.89005e-10
-2.85759e-09
-1.33551e-10
5.41161e-10
-3.08932e-09
-1.30031e-10
8.04882e-10
-3.48078e-09
-1.31528e-10
1.00649e-09
-4.03487e-09
-9.79628e-11
1.0546e-09
-4.57006e-09
-4.87357e-11
6.82996e-10
-4.7655e-09
1.30016e-10
3.49246e-11
-3.52276e-09
1.12372e-10
-4.29995e-10
-5.19156e-10
-6.8493e-11
-6.57716e-10
8.10873e-10
1.50961e-10
-6.58079e-10
1.88054e-09
-7.67241e-12
-9.25642e-10
3.06e-09
3.45285e-10
-1.25747e-09
3.16087e-09
4.4722e-10
-1.0466e-09
-1.29384e-10
4.8066e-10
-3.98994e-09
-8.49756e-10
-8.10379e-11
-2.25725e-09
-9.23535e-11
-2.07821e-11
3.10469e-09
-8.53727e-11
5.17155e-10
4.08939e-09
-2.19699e-10
6.82606e-10
3.36759e-09
-8.44023e-11
7.24055e-10
2.46833e-09
-1.07476e-10
5.2292e-10
1.78007e-09
2.65332e-11
1.41158e-10
8.02186e-10
1.55321e-10
3.03655e-11
-1.90041e-09
-4.30952e-10
-1.98574e-10
-3.43063e-09
-2.70089e-10
-2.76455e-10
-3.5401e-09
-3.17478e-10
-2.61738e-10
-3.30741e-09
-2.89394e-10
-1.88297e-10
-2.99855e-09
-2.67547e-10
-8.95819e-11
-2.77308e-09
-2.55823e-10
2.17084e-11
-2.66252e-09
-2.48973e-10
1.36342e-10
-2.71549e-09
-2.56728e-10
2.46055e-10
-2.92304e-09
-2.75994e-10
3.43592e-10
-3.27207e-09
-3.06247e-10
3.87043e-10
-3.74436e-09
-3.33968e-10
3.5227e-10
-4.17766e-09
-3.5763e-10
1.11064e-10
-4.32177e-09
-2.02519e-10
-9.20944e-12
-2.95188e-09
-4.50593e-10
-4.01427e-10
-1.09672e-10
-1.72469e-11
-7.4811e-10
1.01142e-09
1.46389e-10
-8.40653e-10
1.98023e-09
-3.44684e-12
-1.07378e-09
3.17216e-09
1.22444e-10
-1.54721e-09
3.73179e-09
-9.79732e-11
-2.00823e-09
1.06776e-09
-7.34644e-10
-1.9284e-09
-4.06375e-09
5.45738e-11
-9.28538e-11
1.29163e-10
-6.97257e-12
4.40874e-10
-8.91325e-11
5.54122e-10
-3.49826e-11
5.45021e-10
-2.17163e-11
3.72723e-10
-3.83905e-12
6.36431e-11
1.85526e-10
1.40794e-10
-5.5479e-10
2.00014e-11
-2.32198e-10
-5.48517e-11
-1.83353e-10
-7.40095e-11
-1.81864e-10
-6.03741e-11
-1.95552e-10
-2.93211e-11
-2.06556e-10
6.89594e-12
-2.09378e-10
4.39837e-11
-2.12638e-10
7.69515e-11
-2.16373e-10
9.85865e-11
-2.17219e-10
9.10816e-11
-2.07846e-10
2.62615e-11
-2.01241e-10
-8.5007e-11
-2.42326e-10
-5.44094e-11
-5.5948e-10
-4.04052e-10
7.88452e-11
-6.8673e-10
5.65506e-11
-7.50156e-10
-8.63981e-11
-7.75521e-10
-5.33549e-11
-8.49336e-10
-3.17236e-10
-1.12941e-09
-5.44897e-10
-2.28884e-09
-1.02561e-09
3.08945e-09
-4.02987e-09
-1.93705e-09
3.27635e-09
-4.87456e-09
-2.78796e-09
1.53399e-09
-8.91642e-10
-2.91705e-09
-1.90184e-09
4.69723e-09
-2.84823e-09
-3.22203e-09
7.00276e-09
-3.43295e-09
-2.80064e-09
7.46e-09
-4.62692e-09
-8.59411e-10
4.58345e-09
-5.59686e-09
1.11293e-09
-1.19899e-10
-6.36116e-09
1.70955e-09
-1.31491e-09
-6.59552e-09
9.72077e-10
-6.59747e-10
-6.03608e-09
-9.85042e-10
1.57438e-09
-5.26535e-09
-1.98687e-09
3.14149e-09
-4.80486e-09
-1.75697e-09
3.26483e-09
-4.27619e-09
-1.82434e-09
3.22639e-09
-2.94497e-09
-2.26365e-09
2.3214e-09
-1.17194e-09
-2.30588e-09
1.49882e-09