/*--------------------------------*- C++ -*----------------------------------*\
| =========                 |                                                 |
| \\      /  F ield         | OpenFOAM: The Open Source CFD Toolbox           |
|  \\    /   O peration     | Version:  2.3.0                                 |
|   \\  /    A nd           | Web:      www.OpenFOAM.org                      |
|    \\/     M anipulation  |                                                 |
\*---------------------------------------------------------------------------*/
FoamFile
{
    version     2.0;
    format      ascii;
    class       volScalarField;
    location    "0.800228";
    object      rhom;
}
// * * * * * * * * * * * * * * * * * * * * * * * * * * * * * * * * * * * * * //

dimensions      [1 -3 0 0 0 0 0];

internalField   nonuniform List<scalar> 
18816
(
788.743
780.86
791.741
865.626
920.808
871.496
794.074
788.205
822.139
849.516
885.962
905.178
909.005
911.814
914.054
911.512
911.558
916.103
913.5
899.801
879.862
857.47
819.074
786.444
783.355
784.861
780.419
784.468
787.527
780.852
817.384
968.744
989.347
964.507
899.17
827.122
822.738
898.849
959.061
988.131
1005.85
1019.94
1024.41
1024.83
1024.08
1023.44
1022.41
1019.81
1015.81
1008.53
976.063
874.634
808.228
792.591
780.293
878.578
792.688
783.535
853.384
993.219
986.754
987.458
996.189
988.444
972.367
972.225
977.848
980.795
992.584
1010.87
1025.66
1027.02
1026.44
1025.89
1025.4
1024
1022.83
1022.07
1018.45
965.696
842.02
793.453
781.478
932.101
795.283
783.667
902.294
1010.43
1009.81
1006.31
1013.79
1021.66
1022.29
1018.8
1013.41
1000.42
995.791
1004.04
1023.47
1027.03
1026.67
1026.51
1026.22
1025.06
1024.12
1024.15
1024.99
1015.06
859.427
790.895
785.308
961.352
801.313
788.38
940.172
1017.3
1021.3
1021.52
1023.24
1025.6
1025.93
1024.71
1021.1
1006.71
1005.37
1011.92
1023.18
1026.98
1026.94
1026.92
1026.59
1025.84
1025.06
1024.83
1025.84
1024.11
882.226
786.729
791.285
982.842
802.878
787.037
929.977
1011.03
1024.01
1026.12
1026.18
1026.73
1026.92
1026.8
1025.83
1022.29
1022.35
1024.21
1026.47
1027.03
1027.06
1027.04
1026.79
1026.49
1026.1
1025.4
1026.2
1025.51
979.858
784.98
798.684
993.259
802.47
780.875
904.576
998.827
1025.72
1026.91
1026.83
1026.99
1027.06
1027.06
1026.97
1026.49
1026.58
1026.93
1027.1
1027.04
1027.09
1027.09
1026.95
1026.94
1026.9
1026.27
1026.42
1026.56
1002.98
816.011
850.63
996.737
828.307
777.478
871.193
978.708
1026.14
1026.94
1026.96
1027.09
1027.1
1027.1
1027.09
1027.04
1027.1
1027.11
1027.11
1027.11
1027.11
1027.11
1027.07
1027.1
1027.09
1026.77
1026.55
1026.79
1010.76
947.155
959.324
999.407
937.326
781.448
844.215
937.42
1022.11
1026.7
1026.94
1027.1
1027.11
1027.11
1027.11
1027.11
1027.11
1027.11
1027.11
1027.11
1027.11
1027.11
1027.11
1027.11
1027.11
1026.88
1026.65
1026.83
1015.96
993.386
992.428
1002.67
1004.99
792.061
825.953
882.2
1012.94
1026.51
1026.92
1027.1
1027.11
1027.11
1027.11
1027.11
1027.11
1027.11
1027.11
1027.11
1027.11
1027.11
1027.11
1027.11
1027.11
1026.97
1026.88
1026.72
1018.41
994.576
995.63
1005.69
1013.54
807.201
813.636
874.425
1013.03
1026.64
1027.02
1027.11
1027.11
1027.11
1027.11
1027.11
1027.11
1027.11
1027.11
1027.11
1027.11
1027.11
1027.11
1027.11
1027.11
1027.04
1027.03
1026.72
1018.51
995.29
997.966
1008.41
1014.6
855.634
814.007
912.923
1019.98
1026.87
1027.05
1027.11
1027.11
1027.11
1027.11
1027.11
1027.11
1027.11
1027.11
1027.11
1027.11
1027.11
1027.11
1027.11
1027.11
1027.08
1027.03
1026.59
1016.46
997.99
1002.12
1012.35
1014.68
962.776
851.877
981.439
1023.79
1026.74
1027.08
1027.11
1027.11
1027.11
1027.11
1027.11
1027.11
1027.11
1027.11
1027.11
1027.11
1027.11
1027.11
1027.11
1027.11
1027.09
1026.98
1026.17
1017.77
1004.47
1009.03
1017.66
1012.45
1010.4
964.841
1012.6
1023.95
1026.69
1027.09
1027.11
1027.11
1027.11
1027.11
1027.11
1027.11
1027.11
1027.11
1027.11
1027.11
1027.11
1027.11
1027.11
1027.09
1027.01
1027.02
1026.04
1019.96
1010.6
1014.42
1019.17
1006.15
1013.31
1012.08
1017.01
1023.72
1026.78
1027.06
1027.1
1027.11
1027.11
1027.11
1027.11
1027.11
1027.11
1027.11
1027.11
1027.11
1027.11
1027.11
1027.11
1027.05
1026.8
1027.06
1026.23
1021.37
1012.77
1014.13
1019.11
1000.87
1011.96
1014.28
1017.41
1023.47
1026.97
1026.82
1027.07
1027.11
1027.11
1027.11
1027.11
1027.11
1027.11
1027.11
1027.11
1027.11
1027.11
1027.11
1027.11
1027.04
1026.68
1027.01
1026.42
1021.92
1013.67
1011.63
1018.63
1007.58
1012.34
1014.38
1017.39
1023.31
1027.03
1026.39
1027.05
1027.11
1027.11
1027.11
1027.11
1027.11
1027.11
1027.11
1027.11
1027.11
1027.11
1027.11
1027.11
1027.09
1026.92
1026.35
1026.46
1022.25
1014.49
1010.51
1018.51
1016.25
1015.99
1014.7
1017.23
1024.53
1026.94
1026.08
1027.06
1027.11
1027.11
1027.11
1027.11
1027.11
1027.11
1027.11
1027.11
1027.11
1027.11
1027.11
1027.11
1027.11
1027.1
1024.61
1026.15
1022.44
1014.81
1011.12
1018.57
1021.09
1018.2
1014.49
1017.24
1025.85
1026.97
1027.01
1027.11
1027.11
1027.11
1027.11
1027.11
1027.11
1027.11
1027.11
1027.11
1027.11
1027.11
1027.11
1027.11
1027.11
1027.11
1023.95
1025.73
1022.23
1014.67
1011.64
1018.81
1022.92
1017.67
1013.41
1017.48
1026.26
1026.83
1027.11
1027.11
1027.11
1027.11
1027.11
1027.11
1027.11
1027.11
1027.11
1027.11
1027.11
1027.11
1027.11
1027.11
1027.11
1027.11
1025.62
1025.73
1021.67
1014.03
1011.59
1019.28
1023.95
1015.67
1010.34
1016.52
1026.37
1026.66
1027.11
1027.11
1027.11
1027.11
1027.11
1027.11
1027.11
1027.11
1027.11
1027.11
1027.11
1027.11
1027.11
1027.11
1027.11
1027.11
1026.97
1026.27
1020.11
1012.37
1011.68
1019.7
1025.65
1014.97
1005.65
1013.41
1025.63
1026.91
1027.11
1027.11
1027.11
1027.11
1027.11
1027.11
1027.11
1027.11
1027.11
1027.11
1027.11
1027.11
1027.11
1027.11
1027.11
1027.11
1026.96
1025.32
1016.72
1011.07
1013.46
1019.9
1026.44
1013.62
1001.3
1011.34
1024.43
1027
1027.11
1027.11
1027.11
1027.11
1027.11
1027.11
1027.11
1027.11
1027.11
1027.11
1027.11
1027.11
1027.11
1027.11
1027.1
1027.11
1026.78
1022.74
1013.82
1011.32
1017.14
1018.97
1026.53
1012.37
1001.31
1012.4
1024.35
1026.98
1027.11
1027.09
1027.11
1027.11
1027.11
1027.11
1027.11
1027.11
1027.11
1027.11
1027.11
1027.11
1027.11
1027.11
1027.08
1027.1
1026.42
1020.17
1012.17
1012.38
1019.8
1017.07
1026.72
1013.29
1002.18
1014.17
1024.57
1027.01
1027.11
1027.04
1027.11
1027.11
1027.11
1027.11
1027.11
1027.11
1027.11
1027.11
1027.11
1027.11
1027.11
1027.11
1027.04
1027.1
1026.49
1019.55
1010.82
1012.53
1019.85
1016
1026.98
1017.05
1003.57
1016.19
1025.35
1027.07
1027.11
1026.99
1027.1
1027.11
1027.11
1027.11
1027.11
1027.11
1027.11
1027.11
1027.11
1027.11
1027.11
1027.11
1027.03
1027.11
1026.75
1020.38
1010.43
1011.41
1021.01
1016.31
1027.08
1021.06
1005.44
1018.12
1026.17
1027.1
1027.11
1026.98
1027.11
1027.11
1027.11
1027.11
1027.11
1027.11
1027.11
1027.11
1027.11
1027.11
1027.11
1027.11
1027.06
1027.11
1026.99
1022.64
1010.48
1006.87
1022.21
1023.12
1027.11
1025.72
1016.61
1023.68
1026.95
1027.11
1027.11
1027.11
1027.11
1027.11
1027.11
1027.11
1027.11
1027.11
1027.11
1027.11
1027.11
1027.11
1027.11
1027.11
1027.11
1027.11
1027.1
1025.94
1016.98
1010.14
1024.99
1027.1
779.728
788.801
793.562
875.724
914.059
869.584
801.458
798.713
843.304
866.69
897.092
913.043
918.625
927.089
935.496
937.382
935.646
939.258
935.653
922.097
900.803
881.392
856.815
826.301
799.683
780.649
785.491
800.786
778.087
783.48
834.35
953.314
956.711
943.85
899.164
849.337
852.064
918.872
964.263
982.051
998.266
1016.21
1024.21
1025.79
1025.05
1023.73
1021.3
1017.58
1014.33
1011.02
999.374
964.111
922.705
858.314
801.241
912.557
785.632
786.532
867.961
957.762
933.765
950.635
981.711
989.429
979.618
975.301
977.564
972.751
977.659
999.662
1022.3
1026.59
1026.45
1025.41
1022.59
1017.36
1016.57
1016.5
1016.99
991.358
929.413
861.214
809.733
905.365
800.03
796.078
919.445
990.145
972.499
972.805
1001.4
1016.62
1018.48
1015.71
1010.5
991.524
981.973
993.944
1018.56
1025.95
1026.75
1026.33
1024.32
1020.87
1020.59
1019.15
1021.22
1016.92
913.952
851.849
808.814
915.337
821.981
820.141
962.817
1015.5
1014.29
1013.46
1020.42
1024.53
1025.1
1024.26
1020.85
1001.49
987.615
997.678
1016.47
1024.98
1026.8
1026.75
1025.64
1025.14
1024.19
1021.92
1022.77
1023.41
906.526
831.317
803.299
935.371
846.702
841.214
971.284
1019.34
1024.58
1025.57
1025.92
1026.57
1026.75
1026.53
1025.91
1021.35
1018.03
1020.39
1024.99
1025.02
1026.63
1026.96
1026.55
1026.66
1026.25
1024.03
1024.06
1024.61
983.568
809.199
801.034
957.095
845.481
839.237
963.592
1015.39
1025.36
1026.25
1026.34
1026.97
1027.05
1026.98
1026.93
1026.5
1026.48
1026.77
1026.95
1025.06
1026.66
1027.06
1026.94
1027.05
1026.98
1025.18
1022.7
1024.69
1011.14
824.672
835.246
968.489
844.245
836.029
944.061
1006.11
1024.57
1023.09
1025.46
1027.08
1027.11
1027.09
1027.09
1027.06
1027.1
1027.11
1027.1
1026.97
1027.08
1027.1
1027.08
1027.11
1027.1
1025.34
1019.87
1022.99
1014.07
928.501
923.126
970.392
851.614
836.254
920.763
987.182
1019.76
1014.8
1024.08
1027.09
1027.11
1027.11
1027.11
1027.11
1027.11
1027.11
1027.11
1027.1
1027.11
1027.11
1027.11
1027.11
1027.11
1025.4
1017.07
1019.46
1016.01
982.756
966.068
968.561
864.554
837.228
901.304
935.238
1006.98
1009.55
1024.03
1027.08
1027.11
1027.11
1027.11
1027.11
1027.11
1027.11
1027.11
1027.11
1027.11
1027.11
1027.11
1027.11
1027.11
1026.54
1018.72
1015.17
1016.81
986.976
973.434
966.582
929.909
838.904
876.627
894.535
1000.5
1012.41
1025.7
1027.1
1027.11
1027.11
1027.11
1027.11
1027.11
1027.11
1027.11
1027.11
1027.11
1027.11
1027.11
1027.11
1027.1
1026.75
1022.47
1015.07
1016.2
988.717
976.926
967.521
994.726
858.267
844.543
909.901
1005.05
1018.75
1026.27
1027.1
1027.11
1027.11
1027.11
1027.11
1027.11
1027.11
1027.11
1027.11
1027.11
1027.11
1027.11
1027.11
1027.04
1026.63
1022.8
1019.29
1013.66
992.126
981.468
973.719
982.394
929.984
857.953
959.583
1008.81
1018.87
1026.29
1027.07
1027.11
1027.11
1027.11
1027.11
1027.11
1027.11
1027.11
1027.11
1027.11
1027.11
1027.11
1027.11
1026.83
1026.12
1021.53
1014.37
1011.49
998.39
990.373
989.973
953.599
982.476
933.08
989.507
1007.11
1019.56
1026.3
1026.91
1027.11
1027.11
1027.11
1027.11
1027.11
1027.11
1027.11
1027.11
1027.11
1027.11
1027.11
1027.1
1026.53
1024.95
1024.19
1012.31
1007.81
1003.64
996.308
997.971
926.04
985.389
986.193
995.021
1007.44
1023.03
1025.06
1026.64
1027.11
1027.11
1027.11
1027.11
1027.11
1027.11
1027.11
1027.11
1027.11
1027.11
1027.11
1027.1
1026.37
1023.96
1025.81
1019.68
1002.39
1003.56
995.016
994.411
914.624
980.489
992.992
994.602
1008.87
1025.45
1022.05
1026.41
1027.11
1027.11
1027.11
1027.11
1027.11
1027.11
1027.11
1027.11
1027.11
1027.11
1027.11
1027.1
1026.61
1023.94
1024.43
1023.26
1000.26
999.998
990.053
985.781
930.831
977.777
993.398
993.459
1013.75
1025.96
1019.46
1026.38
1027.11
1027.11
1027.11
1027.11
1027.11
1027.11
1027.11
1027.11
1027.11
1027.11
1027.11
1027.11
1027.09
1026.49
1019.45
1022.7
1003.67
992.266
980.767
977.252
959.17
982.79
993.098
994.726
1019.78
1025.02
1018.99
1026.77
1027.11
1027.11
1027.11
1027.11
1027.11
1027.11
1027.11
1027.11
1027.11
1027.11
1027.11
1027.11
1027.11
1027.07
1016.17
1019.92
1007.44
987.616
976.406
972.344
981.567
986.721
990.884
997.67
1022.37
1025.1
1026.74
1027.11
1027.11
1027.11
1027.11
1027.11
1027.11
1027.11
1027.11
1027.11
1027.11
1027.11
1027.11
1027.11
1027.11
1027.09
1017.47
1017.24
1009.7
987.566
976.182
973.363
990.494
981.679
985.429
998.088
1021.03
1023.25
1027.1
1027.11
1027.11
1027.11
1027.11
1027.11
1027.11
1027.11
1027.11
1027.11
1027.11
1027.11
1027.11
1027.11
1027.11
1027.1
1020.98
1015.65
1009.1
987.262
975.675
976.859
996.764
973.541
976.104
993.716
1019.19
1021.33
1027.1
1027.11
1027.11
1027.11
1027.11
1027.11
1027.11
1027.11
1027.11
1027.11
1027.11
1027.11
1027.11
1027.11
1027.1
1027.1
1024.68
1017.3
1007.75
986.495
976.3
980.77
1010.43
974.669
965.823
981.461
1015.13
1023.29
1027.08
1027.07
1027.11
1027.11
1027.11
1027.11
1027.11
1027.11
1027.11
1027.11
1027.11
1027.11
1027.11
1027.11
1027.04
1027.01
1025.38
1016.49
1004.31
988.626
982.617
982.998
1018.84
975.99
955.915
965.333
1007.28
1023.88
1026.91
1026.79
1027.07
1027.11
1027.11
1027.11
1027.11
1027.11
1027.11
1027.11
1027.11
1027.11
1027.11
1027.08
1026.66
1026.7
1023.1
1009.22
999.164
993.823
996.805
979.833
1020.3
975.393
950.513
962.244
1000.75
1022.94
1026.77
1025.6
1026.95
1027.11
1027.11
1027.11
1027.11
1027.11
1027.11
1027.11
1027.11
1027.11
1027.11
1027.03
1025.55
1026.38
1018.11
996.421
992.589
995.546
1001.09
967.186
1020.48
970.339
947.054
961.686
997.04
1022.49
1026.59
1022.7
1026.79
1027.11
1027.11
1027.11
1027.11
1027.11
1027.11
1027.11
1027.11
1027.11
1027.11
1026.99
1023.65
1026.19
1015.59
982.617
980.925
990.601
988.193
951.982
1023.49
960.348
940.193
960.005
998.121
1023.53
1026.39
1020.93
1026.75
1027.11
1027.11
1027.11
1027.11
1027.11
1027.11
1027.11
1027.11
1027.11
1027.11
1027.01
1023.07
1026.38
1017.36
976.228
963.348
977.047
975.431
947.789
1026.09
959.624
931.905
958.445
1001.87
1025.07
1026.44
1022.93
1026.97
1027.11
1027.11
1027.11
1027.11
1027.11
1027.11
1027.11
1027.11
1027.11
1027.11
1027.09
1025.6
1026.58
1020.89
977.865
947.758
954.953
980.631
978.944
1027.1
982.606
944.135
973.693
1015.26
1026.44
1026.88
1026.92
1027.11
1027.11
1027.11
1027.11
1027.11
1027.11
1027.11
1027.11
1027.11
1027.11
1027.11
1027.11
1027.07
1026.99
1025.39
998.047
953.111
945.858
994.079
1026.48
783.232
782.783
810.927
877.862
901.685
861.425
806.48
812.816
855.721
877.555
904.217
917.882
926.229
940.014
951.81
954.877
954.046
955.879
951.781
938.507
918.112
900.592
884.003
860.787
834.254
801.317
782.799
802.574
778.737
802.719
864.446
933.652
926.625
924.201
896.654
866.286
878.841
934.916
963.331
971.956
987.107
1008.94
1021.91
1024.95
1025.31
1023.33
1018.92
1012.93
1009.4
1007.1
1004.73
995.502
974.99
930.35
829.558
909.176
809.453
829.372
881.298
921.213
904.601
929.974
968.067
982.953
980.627
973.358
971.559
961.032
960.832
983.804
1015.94
1023.69
1025.71
1025.01
1020.07
1012.38
1006.3
1003.57
1008.25
1001.87
978.392
934.997
850.877
890.706
849.921
840.028
920.13
945.431
929.528
953.062
991.91
1012.13
1015.65
1012.17
1003.86
981.016
965.407
978.979
1010.78
1020.65
1025.67
1026.15
1023.78
1021.08
1017.07
1009.13
1011.03
1013.77
958.18
922.214
843.897
884.343
879.41
859.129
971.222
1000.97
995.376
999.139
1017.41
1023.75
1024.96
1024.08
1019.91
998.749
972.962
981.955
1006.98
1017.69
1024.79
1026.64
1025.89
1025.69
1023.42
1017.01
1015.77
1019.2
931.676
889.715
824.547
884.129
896.811
875.486
990.005
1016.91
1022.38
1023.78
1025.07
1026.46
1026.82
1026.47
1025.85
1021.69
1012.65
1014.75
1021.28
1018.22
1023.97
1026.89
1026.72
1026.85
1025.92
1021.12
1019.14
1020.84
991.842
842.334
804.703
889.878
901.442
873.43
985.493
1012.99
1022.35
1024.19
1024.76
1026.9
1027.08
1026.98
1026.91
1026.51
1026.26
1026.52
1025.89
1017.49
1024.04
1027.01
1027
1027.09
1026.86
1022.43
1013.75
1018.07
1013.01
839.568
818.481
903.233
896.927
870.252
973.788
1003.73
1016.86
1013.04
1019.41
1026.97
1027.11
1027.09
1027.09
1027.07
1027.1
1027.08
1026.74
1025.39
1026.73
1027.09
1027.09
1027.11
1027.08
1022.04
1005.16
1010.04
1010.16
911.646
867.879
921.728
891.852
871.642
957.583
992.979
1006.88
987.765
1014.46
1026.97
1027.11
1027.11
1027.11
1027.11
1027.1
1027.07
1027.04
1026.74
1027.05
1027.11
1027.11
1027.11
1027.09
1022.59
993.845
995.152
1007.8
978.985
912.293
934.544
883.262
871.201
943.712
964.492
989.2
967.001
1014.53
1026.93
1027.11
1027.11
1027.11
1027.11
1027.11
1027.11
1027.11
1027.11
1027.11
1027.11
1027.11
1027.11
1027.07
1025.21
988.751
979.619
1003.52
986.664
938.844
940.25
889.968
864.868
927.249
917.643
974.385
965.499
1018.54
1026.95
1027.11
1027.11
1027.11
1027.11
1027.11
1027.11
1027.11
1027.11
1027.11
1027.11
1027.11
1027.11
1026.94
1025.28
998.4
975.581
1001.43
985.861
954.943
944.074
920.232
866.363
886.088
913.666
978.005
987.97
1020.74
1026.86
1027.11
1027.11
1027.11
1027.11
1027.11
1027.11
1027.11
1027.11
1027.11
1027.11
1027.11
1027.11
1026.51
1023.85
1002.89
985.867
1002.87
985.608
961.333
948.138
951.186
889.664
870.914
932.525
980.824
992.672
1021.1
1026.53
1027.11
1027.11
1027.11
1027.11
1027.11
1027.11
1027.11
1027.11
1027.11
1027.11
1027.11
1027.09
1025.75
1021.12
999.564
985.022
1001.12
988.034
966.726
957.078
940.759
927.005
894.035
954.674
975.891
992.855
1020.93
1025.78
1027.09
1027.11
1027.11
1027.11
1027.11
1027.11
1027.11
1027.11
1027.11
1027.11
1027.11
1027.08
1025.04
1018.23
1008.15
975.378
993.226
992.731
971.845
967.903
912.226
952.649
938.223
965.951
973.095
1004
1016.08
1024.83
1027.09
1027.11
1027.11
1027.11
1027.11
1027.11
1027.11
1027.11
1027.11
1027.11
1027.11
1027.07
1024.74
1016.45
1018.38
990.92
980.275
993.061
970.7
954.813
888.847
952.283
966.668
967.243
975.117
1016.42
1006.56
1024.19
1027.1
1027.11
1027.11
1027.11
1027.11
1027.11
1027.11
1027.11
1027.11
1027.11
1027.11
1027.1
1026.07
1018.12
1016.51
1009.97
967.132
989.385
968.6
933.192
884.911
939.849
968.835
964.358
986.592
1020.94
1001.42
1025
1027.11
1027.11
1027.11
1027.11
1027.11
1027.11
1027.11
1027.11
1027.11
1027.11
1027.11
1027.11
1027.09
1025.5
1011.55
1010.71
970.03
980.521
964.821
915.569
897.906
935.804
967.087
960.81
1004.77
1018.48
1008.4
1026.46
1027.11
1027.11
1027.11
1027.11
1027.11
1027.11
1027.11
1027.11
1027.11
1027.11
1027.11
1027.11
1027.11
1027.01
1010.89
1007.11
975.678
967.023
956.74
909.852
929.512
941.73
962.035
963.651
1009.81
1018
1026.05
1027.11
1027.11
1027.11
1027.11
1027.11
1027.11
1027.11
1027.11
1027.11
1027.11
1027.11
1027.11
1027.11
1027.11
1027.08
1017.47
1003.57
977.627
953.387
943.73
910.861
948.209
940.921
953.207
964.637
1005.4
1015.48
1027.04
1027.11
1027.11
1027.11
1027.11
1027.11
1027.11
1027.11
1027.11
1027.11
1027.11
1027.11
1027.11
1027.11
1027.11
1027.09
1020.42
1000.78
979.419
948.519
933.111
914.276
956.841
935.046
941.631
959.269
999.431
1015.12
1027.06
1027.06
1027.11
1027.11
1027.11
1027.11
1027.11
1027.11
1027.11
1027.11
1027.11
1027.11
1027.11
1027.1
1027.03
1026.93
1020.36
997.365
978.721
946.894
932.038
920.912
976.299
937.529
931.049
945.344
989.007
1013.19
1026.6
1026.65
1027.05
1027.11
1027.11
1027.11
1027.11
1027.11
1027.11
1027.11
1027.11
1027.11
1027.11
1027.05
1026.47
1025.63
1018.23
993.217
977.079
948.773
938.64
927.011
997.214
941.284
921.442
926.167
974.411
1007.85
1024.06
1024.21
1026.69
1027.11
1027.11
1027.11
1027.11
1027.11
1027.11
1027.11
1027.11
1027.11
1027.11
1026.86
1023.68
1021.37
1010.22
985.313
974.942
958.698
962.604
924.135
999.254
941.566
913.608
915.414
962.414
1002.37
1021.86
1015.46
1025.76
1027.11
1027.11
1027.11
1027.11
1027.11
1027.11
1027.11
1027.11
1027.11
1027.11
1026.51
1015.43
1018.24
998.577
974.305
972.506
968.84
969.552
910.721
995.726
939.771
909.095
914.926
952.926
998.817
1018.35
994.469
1024.83
1027.11
1027.11
1027.11
1027.11
1027.11
1027.11
1027.11
1027.11
1027.11
1027.11
1026.27
1000.19
1013.66
988.329
958.881
964.741
965.843
945.599
896.908
1003.42
931.34
905.67
915.662
950.729
1001.01
1014.83
982.424
1024.74
1027.11
1027.11
1027.11
1027.11
1027.11
1027.11
1027.11
1027.11
1027.11
1027.11
1026.42
994.262
1013.19
987.883
943.05
949.333
951.057
920.626
898.689
1017.7
917.426
898.166
913.464
951.29
1005.96
1013.35
995.686
1026.15
1027.11
1027.11
1027.11
1027.11
1027.11
1027.11
1027.11
1027.11
1027.11
1027.11
1026.94
1011.87
1013.82
993.221
933.781
926.229
931.633
924.894
918.964
1026.83
921.562
896.798
916.032
965.671
1013.6
1018.38
1023.22
1027.08
1027.11
1027.11
1027.11
1027.11
1027.11
1027.11
1027.11
1027.11
1027.11
1027.11
1027.11
1025.99
1019.86
1006.28
942.041
912.577
912.197
947.414
1012.17
781.811
789.207
819.17
874.216
888.873
851.39
807.259
821.066
861.411
884.398
906.799
919.341
931.557
948.036
960.128
962.974
963.391
964.154
959.282
946.062
926.519
909.264
896.201
879.43
856.922
823.483
787.7
791.401
786.701
850.973
882.06
918.062
908.371
908.074
891.412
874.979
899.729
943.071
958.028
960.192
976.114
1000.21
1017.05
1022.4
1024.44
1023.18
1017.72
1009.86
1002.58
998.879
999.231
997.997
987.78
958.032
856.455
890.012
838.057
891.047
886.642
900.466
888.953
909.656
954.096
975.543
979.109
968.508
961.087
945.373
944.672
968.389
1007.02
1017.03
1024.51
1025.13
1020.08
1011.31
997.515
984.907
990.962
997.249
991.121
971.433
896.615
895.836
877.088
889.568
909.445
909.936
907.837
944.604
983.948
1007.32
1012.61
1008.6
993.955
960.014
947.405
963.216
1000.5
1012.09
1024.05
1026.29
1024.31
1021.49
1013.63
994.429
991.754
1005.47
977.01
961.453
892.573
889.738
897.54
899.33
957.724
968.86
966.635
987.619
1012.72
1021.62
1024.38
1023.88
1018.68
993.417
958.854
966.084
993.486
1007.74
1021.32
1026.73
1026.18
1025.72
1021.11
1010.11
1004.96
1010.17
949.045
933.345
871.817
876.994
904.238
912.167
987.259
1007.71
1016.45
1020.27
1023.61
1025.77
1026.84
1026.53
1025.91
1021.66
1005.91
1006.98
1014.22
1009.53
1019.34
1026.87
1026.82
1026.82
1023.96
1015.42
1011.65
1013.8
998.442
879.81
824.556
867.144
906.62
912.534
984.061
1002.95
1016.25
1020.29
1020.77
1026.3
1027.08
1027
1026.91
1026.51
1025.9
1025.76
1023.01
1008.11
1019.26
1026.85
1027.04
1027.08
1026.06
1016.7
1000.85
1006.95
1008.24
857.655
821.229
866.699
908.011
909.91
975.694
988.934
1004.99
1001.2
1007.5
1026.41
1027.1
1027.1
1027.09
1027.08
1027.05
1026.63
1023.96
1018.41
1024.97
1027.03
1027.1
1027.11
1026.87
1015.98
988.195
993.15
999.777
905.574
832.377
871.627
910.556
908.551
964.706
981.439
991.832
970.745
998.191
1026.46
1027.1
1027.11
1027.11
1027.11
1026.93
1026.22
1026.28
1023.7
1026.39
1027.08
1027.11
1027.11
1026.91
1018.48
977.823
974.762
993.867
969.951
859.412
883.4
908.852
906.053
956.232
971.064
974.979
947.145
1003.41
1026.23
1027.09
1027.11
1027.11
1027.11
1027.1
1027.04
1027.1
1027.08
1027.1
1027.11
1027.11
1027.11
1026.7
1022.94
973.512
957.31
984.804
979.996
887.697
896.875
904.278
895.606
948.355
938.048
958.782
940.298
1008.39
1026.08
1027.08
1027.11
1027.11
1027.11
1027.11
1027.11
1027.11
1027.11
1027.11
1027.11
1027.11
1027.1
1026.24
1022.64
967.254
947.069
977.908
980.721
915.518
910.992
906.929
879.763
922.619
919.873
956.557
944.509
1008.05
1025.5
1027.08
1027.11
1027.11
1027.11
1027.11
1027.11
1027.11
1027.11
1027.11
1027.11
1027.11
1027.09
1025.26
1017.39
971.414
947.277
981.341
980.734
939.638
926.151
912.324
882.378
885.586
920.28
958.12
957.211
1009
1024.48
1027.07
1027.11
1027.11
1027.11
1027.11
1027.11
1027.11
1027.11
1027.11
1027.11
1027.11
1027.07
1023.99
1010.85
970.126
950.399
983.648
981.159
953.397
940.102
913.057
888.08
885.206
924.07
955.217
965.427
1009.16
1023.06
1027.05
1027.11
1027.11
1027.11
1027.11
1027.11
1027.11
1027.11
1027.11
1027.11
1027.11
1027.06
1023.06
1005.03
980.398
951.248
980.43
982.721
956.257
950.286
913.29
897.971
891.836
929.533
946.772
971.569
997.564
1021.53
1027.05
1027.11
1027.11
1027.11
1027.11
1027.11
1027.11
1027.11
1027.11
1027.11
1027.11
1027.06
1022.74
1002.16
1002.15
950.246
970.086
983.423
955.069
945.735
913.251
920.111
911.521
936.519
940.349
991.121
979.814
1020.65
1027.09
1027.11
1027.11
1027.11
1027.11
1027.11
1027.11
1027.11
1027.11
1027.11
1027.11
1027.1
1025.46
1008.41
1004.91
978.66
959.419
981.6
953.07
922.278
909.808
925.546
936.198
939.34
945.836
1006.93
972.65
1023.51
1027.11
1027.11
1027.11
1027.11
1027.11
1027.11
1027.11
1027.11
1027.11
1027.11
1027.11
1027.11
1027.07
1023.38
1004.35
989.496
948.805
976.497
950.598
899.264
896.54
917.292
941.107
938.77
972.023
1005.17
998.068
1026.37
1027.11
1027.11
1027.11
1027.11
1027.11
1027.11
1027.11
1027.11
1027.11
1027.11
1027.11
1027.11
1027.11
1026.79
1004.79
987.189
948.032
968.685
945.685
895.146
902.839
909.863
938.16
937.613
983.023
1003.63
1024.46
1027.1
1027.11
1027.11
1027.11
1027.11
1027.11
1027.11
1027.11
1027.11
1027.11
1027.11
1027.11
1027.11
1027.11
1027.02
1015.93
984.466
946.445
959.212
935.357
894.639
927.748
911.746
930.547
934.602
976.922
1003.54
1026.75
1027.07
1027.11
1027.11
1027.11
1027.11
1027.11
1027.11
1027.11
1027.11
1027.11
1027.11
1027.11
1027.11
1027.05
1026.98
1020.54
983.223
944.382
948.917
919.426
892.213
941.021
916.306
921.402
927.431
970.372
1009.97
1026.79
1026.7
1027.07
1027.11
1027.11
1027.11
1027.11
1027.11
1027.11
1027.11
1027.11
1027.11
1027.11
1027.07
1026.66
1026
1018.32
977.546
940.861
936.459
908.843
887.929
948.534
925.94
914.093
917.195
955.154
1002.2
1024.53
1024.82
1026.77
1027.11
1027.11
1027.11
1027.11
1027.11
1027.11
1027.11
1027.11
1027.11
1027.11
1026.85
1024.46
1019.42
1007.1
964.625
939.849
929.289
909.678
887.981
970.556
927.402
907.636
907.791
938.697
982.523
1012.08
1016.44
1025.56
1027.11
1027.11
1027.11
1027.11
1027.11
1027.11
1027.11
1027.11
1027.11
1027.11
1026.25
1015.32
1000.42
986.094
951.732
939.821
930.476
927.361
889.304
971.543
923.077
901.316
899.602
927.619
964.097
1002.22
992.523
1023.19
1027.11
1027.11
1027.11
1027.11
1027.11
1027.11
1027.11
1027.11
1027.11
1027.11
1025.36
991.996
991.172
966.866
943.741
941.512
936.17
941.298
885.184
962.592
918.312
895.008
893.395
919.19
954.743
986.029
946.145
1021.25
1027.11
1027.11
1027.11
1027.11
1027.11
1027.11
1027.11
1027.11
1027.11
1027.11
1024.86
954.435
970.839
953.21
935.808
940.54
935.575
922.164
883.696
961.092
914.709
889.235
890.471
912.072
955.629
971.71
921.978
1021.08
1027.11
1027.11
1027.11
1027.11
1027.11
1027.11
1027.11
1027.11
1027.11
1027.11
1025.37
938.543
964.62
950.491
924.856
932.799
922.952
896.924
887.575
976.967
911.739
884.829
888.582
909.711
960.61
963.323
935.531
1024
1027.11
1027.11
1027.11
1027.11
1027.11
1027.11
1027.11
1027.11
1027.11
1027.11
1026.29
966.557
962.278
952.649
912.062
915.363
904.915
897.02
899.107
1018.55
907.435
881.415
888.404
915.071
970.035
969.862
996.67
1026.85
1027.11
1027.11
1027.11
1027.11
1027.11
1027.11
1027.11
1027.11
1027.11
1027.11
1027.06
1013.71
971.905
962.34
909.302
897.747
894.187
915.642
963.157
782.253
796.44
826.178
868.765
877.56
841.732
807.017
826.737
864.813
887.482
906.258
918.158
931.265
947.836
961.089
966.487
968.995
968.831
962.597
948.725
929.947
912.313
899.692
887.079
868.513
839.99
796.66
787.635
810.258
885.347
891.123
907.908
896.726
895.035
885.47
880.253
915.175
945.723
950.336
948.917
966.85
991.845
1010.9
1018.97
1023.14
1022.87
1016.72
1007.71
997.73
990.196
990.416
991.156
987.389
968.577
876.182
871.208
859.15
914.701
890.108
889.323
878.41
893.567
940.71
968.508
974.939
961.81
949.095
929.345
929.858
955.667
997.438
1010.97
1023.12
1025.1
1019.87
1009.97
992.841
968.734
967.598
985.971
987.417
982.152
924.772
897.374
886.767
914.24
899.161
894.102
898.295
936.844
977.627
1001.18
1008.05
1004.69
983.015
937.596
930.793
948.947
988.81
1004.46
1023.19
1026.38
1024.45
1020.59
1009.39
975.616
960.605
988.071
977.795
976.277
924.379
897.753
900.952
922.701
934.494
935.491
948.251
980.087
1005.53
1015.72
1021.93
1023
1016.87
987.696
948.359
952.546
977.701
998.434
1018.75
1026.76
1026.2
1025.02
1016.6
1001.32
988.446
993.766
960.275
957.429
912.612
893.307
906.033
933.743
969.748
992.318
1007.22
1015.58
1020.41
1022.45
1026.37
1026.38
1025.84
1020.68
997.166
996.891
1004.49
1001.33
1014.87
1026.82
1026.85
1026.49
1018.66
1006.15
1003.12
1004.17
998.626
911.58
864.427
878.649
905.757
939.663
966.63
991.664
1008.42
1014.8
1013.31
1023.04
1026.79
1026.96
1026.93
1026.57
1025.47
1024.48
1019.53
1001.83
1014.33
1026.61
1027.04
1026.97
1023.24
1005.78
984.923
993.135
996.401
878.393
829.828
863.785
904.743
941.891
956.602
976.216
993.249
992.396
990.12
1023.42
1026.83
1027.09
1027.09
1027.06
1026.71
1024.53
1015.91
1005.96
1020.68
1026.79
1027.09
1027.08
1025.74
1004.83
967.364
974.749
981.103
909.671
834.04
862.702
903.926
940.661
947.533
967.706
979.98
961.571
977.767
1024.14
1026.83
1027.11
1027.11
1026.98
1025.53
1021.05
1022.08
1015.19
1023.83
1026.93
1027.1
1027.08
1025.97
1010.3
965.016
959.221
976.891
958.902
849.656
865.706
905.216
936.843
948.127
965.564
965.705
941.526
987.938
1022.97
1026.72
1027.1
1027.1
1026.84
1025.94
1026.2
1026.28
1026.76
1027.04
1027.11
1027.1
1027.07
1025.38
1019.05
968.638
947.621
970.653
967.462
872.05
874.279
906.701
925.901
948.238
949.48
954.11
937.835
998.915
1021.83
1026.69
1027.08
1027.11
1027.08
1027.11
1027.1
1027.11
1027.11
1027.11
1027.11
1027.05
1027.06
1024.48
1019.02
965.575
941.603
960.886
969.085
895.324
885.823
908.584
904.37
940.862
929.568
946.393
931.096
994.832
1020.12
1026.71
1027.11
1027.11
1027.11
1027.11
1027.11
1027.11
1027.11
1027.11
1027.11
1027.11
1027.06
1022.93
1006.03
943.853
936.621
961.471
973.645
917.177
899.67
911.348
891.665
910.833
923.286
944.985
931.051
992.43
1018.44
1026.81
1027.11
1027.11
1027.11
1027.11
1027.11
1027.11
1027.11
1027.11
1027.11
1027.11
1027.04
1021.26
993.432
936.213
935.789
966.45
976.451
936.493
915.996
913.422
892.123
889.483
919.765
943.901
934.635
990.211
1017.61
1026.9
1027.11
1027.11
1027.11
1027.11
1027.11
1027.11
1027.11
1027.11
1027.11
1027.11
1027.04
1020.48
984.473
946.192
937.243
968.289
976.878
946.997
934.764
914.994
893.335
889.3
916.69
940.273
944.799
973.027
1017.13
1027
1027.11
1027.11
1027.11
1027.11
1027.11
1027.11
1027.11
1027.11
1027.11
1027.11
1027.06
1020.6
980.678
974.445
935.785
965.282
976.808
948.276
940.476
917.438
897.335
889.468
916.835
926.285
956.253
947.129
1016.94
1027.07
1027.11
1027.11
1027.11
1027.11
1027.11
1027.11
1027.11
1027.11
1027.11
1027.11
1027.1
1024.89
995.49
986.268
943.913
958.321
975.608
948.042
936.202
921.456
909.645
894.515
918.338
922.792
979.47
939.459
1022.27
1027.11
1027.11
1027.11
1027.11
1027.11
1027.11
1027.11
1027.11
1027.11
1027.11
1027.11
1027.11
1027.02
1019.97
988.273
954.395
951.057
971.951
946.986
927.539
920.044
913.196
906.654
921.139
937.78
983.201
984.655
1026.26
1027.11
1027.11
1027.11
1027.11
1027.11
1027.11
1027.11
1027.11
1027.11
1027.11
1027.11
1027.11
1027.08
1026.09
991.733
952.227
945.344
966.624
943.669
922.309
915.582
910.566
912.676
922.77
943.78
977.771
1021.05
1027.03
1027.11
1027.11
1027.11
1027.11
1027.11
1027.11
1027.11
1027.11
1027.11
1027.11
1027.11
1027.11
1027.06
1026.73
1010.56
954.452
941.345
960.465
937.465
919.04
922.861
910.505
912.282
921.823
938.992
985.582
1025.51
1026.77
1027.09
1027.11
1027.11
1027.11
1027.11
1027.11