/*--------------------------------*- C++ -*----------------------------------*\
| =========                 |                                                 |
| \\      /  F ield         | OpenFOAM: The Open Source CFD Toolbox           |
|  \\    /   O peration     | Version:  2.3.0                                 |
|   \\  /    A nd           | Web:      www.OpenFOAM.org                      |
|    \\/     M anipulation  |                                                 |
\*---------------------------------------------------------------------------*/
FoamFile
{
    version     2.0;
    format      ascii;
    class       volScalarField;
    location    "13";
    object      alpha.airMean;
}
// * * * * * * * * * * * * * * * * * * * * * * * * * * * * * * * * * * * * * //

dimensions      [0 0 0 0 0 0 0];

internalField   nonuniform List<scalar> 
1875
(
0.157739
0.161809
0.172119
0.188374
0.206504
0.224726
0.238889
0.245283
0.248513
0.251901
0.257519
0.253921
0.250147
0.252355
0.250635
0.250268
0.248355
0.242932
0.23358
0.221483
0.208397
0.194306
0.181309
0.173336
0.171383
0.123092
0.133197
0.150595
0.168131
0.187404
0.210833
0.225603
0.22648
0.214615
0.209002
0.208708
0.213078
0.220826
0.223531
0.227465
0.23269
0.235918
0.234619
0.224518
0.207156
0.183746
0.163016
0.145248
0.132817
0.126398
0.135041
0.167914
0.205063
0.226706
0.239155
0.244648
0.242616
0.230219
0.214063
0.20744
0.206598
0.215679
0.226383
0.231171
0.236615
0.245635
0.256667
0.262053
0.265347
0.263019
0.253067
0.229138
0.192971
0.154033
0.13345
0.146066
0.196167
0.243328
0.262729
0.264045
0.259014
0.247824
0.229451
0.211344
0.204694
0.203792
0.213727
0.226317
0.235486
0.242859
0.253726
0.265063
0.275732
0.279824
0.280506
0.275662
0.267049
0.237351
0.179914
0.143086
0.150965
0.202675
0.244619
0.262046
0.263527
0.2535
0.240633
0.221882
0.20448
0.195343
0.196182
0.205985
0.217262
0.227021
0.238042
0.245954
0.256441
0.263575
0.27103
0.274238
0.27517
0.267318
0.238566
0.188098
0.148839
0.155358
0.198433
0.233552
0.252781
0.256287
0.245569
0.231609
0.215731
0.198124
0.187631
0.186015
0.190472
0.200504
0.210429
0.223377
0.232522
0.239955
0.24875
0.25558
0.262774
0.264647
0.259546
0.229259
0.187165
0.154638
0.15895
0.191675
0.22496
0.241909
0.246182
0.236063
0.222793
0.208186
0.192217
0.182567
0.179875
0.182603
0.185343
0.192979
0.203224
0.21393
0.222626
0.231436
0.241906
0.250539
0.257087
0.25045
0.220655
0.184493
0.158418
0.161794
0.186024
0.218456
0.236567
0.239125
0.229797
0.216486
0.20318
0.190044
0.18186
0.179675
0.1772
0.177759
0.178528
0.185689
0.194669
0.205052
0.21735
0.23048
0.245288
0.253229
0.243714
0.212615
0.182286
0.160497
0.163363
0.183683
0.209835
0.228938
0.235333
0.225933
0.212959
0.201264
0.190366
0.182059
0.177438
0.173986
0.168206
0.169257
0.172169
0.179518
0.19089
0.205497
0.22227
0.241598
0.250644
0.236447
0.205919
0.182987
0.162335
0.164363
0.185019
0.204364
0.220623
0.228153
0.223487
0.211225
0.200156
0.190285
0.180609
0.17538
0.169169
0.16587
0.163989
0.166709
0.173479
0.184801
0.198348
0.214966
0.238964
0.24635
0.229991
0.202861
0.185396
0.163541
0.165212
0.189113
0.202494
0.213706
0.221434
0.218173
0.208629
0.19671
0.186714
0.176953
0.17071
0.168593
0.167167
0.164594
0.163606
0.171372
0.183899
0.20054
0.219596
0.241761
0.245846
0.22554
0.20409
0.189637
0.163742
0.165742
0.192845
0.203067
0.211398
0.217409
0.215849
0.204721
0.1915
0.180979
0.173558
0.171549
0.172122
0.172619
0.166806
0.166415
0.173687
0.185657
0.203537
0.226249
0.24697
0.246243
0.22701
0.210457
0.193753
0.164269
0.166046
0.194632
0.208843
0.211403
0.216114
0.213469
0.201987
0.187225
0.177184
0.172627
0.173368
0.178481
0.176028
0.174446
0.172
0.176708
0.184162
0.202403
0.227522
0.244161
0.243269
0.226612
0.214838
0.196546
0.165375
0.165854
0.195744
0.216928
0.215627
0.214315
0.212359
0.202831
0.186754
0.175646
0.171708
0.175108
0.179045
0.180602
0.179446
0.17851
0.181694
0.186647
0.201319
0.225672
0.241429
0.23887
0.226736
0.217753
0.197084
0.166717
0.165052
0.196401
0.221399
0.221607
0.216781
0.212281
0.204228
0.190217
0.176938
0.171834
0.173193
0.177671
0.17932
0.181112
0.183324
0.187121
0.191619
0.204511
0.225694
0.237249
0.234377
0.225627
0.218217
0.19604
0.166885
0.163791
0.195714
0.221794
0.226192
0.221727
0.21533
0.206811
0.192715
0.179999
0.173546
0.172389
0.17345
0.17671
0.180214
0.186885
0.193711
0.197645
0.208697
0.225372
0.233184
0.230914
0.226943
0.216924
0.194723
0.166488
0.162685
0.194091
0.219598
0.228007
0.223777
0.216607
0.206491
0.192686
0.179681
0.173957
0.172173
0.173733
0.175312
0.181687
0.189844
0.195545
0.200638
0.213128
0.225649
0.229317
0.229098
0.225629
0.215883
0.195259
0.166515
0.161625
0.191929
0.215736
0.228671
0.225023
0.21421
0.201868
0.18909
0.177624
0.171741
0.17322
0.174888
0.177793
0.184629
0.193999
0.200838
0.204567
0.212047
0.222382
0.226128
0.22567
0.221955
0.21648
0.195471
0.166052
0.160448
0.19009
0.211889
0.225581
0.226577
0.215763
0.200253
0.186166
0.175476
0.171066
0.17362
0.177997
0.183469
0.192874
0.200147
0.205092
0.205978
0.210248
0.216038
0.219476
0.21992
0.220411
0.215215
0.195109
0.164591
0.159353
0.188987
0.210275
0.221238
0.224508
0.216257
0.204671
0.189939
0.180084
0.174173
0.179392
0.188455
0.194962
0.198896
0.20343
0.205168
0.204999
0.206029
0.210039
0.211972
0.215195
0.219951
0.212429
0.194015
0.162491
0.158439
0.188881
0.209052
0.220314
0.220246
0.215282
0.20625
0.196731
0.188217
0.185575
0.190893
0.198863
0.201314
0.202279
0.202429
0.202196
0.201119
0.201762
0.203627
0.206815
0.212715
0.21773
0.20759
0.193638
0.160611
0.157702
0.188836
0.206833
0.217745
0.218012
0.211539
0.205025
0.19865
0.195403
0.195522
0.199373
0.202389
0.203033
0.199911
0.198872
0.197337
0.197343
0.196117
0.198175
0.203033
0.210397
0.21247
0.204618
0.193037
0.159426
0.157131
0.188292
0.204278
0.214458
0.214615
0.209712
0.203016
0.20001
0.198422
0.199215
0.201531
0.2018
0.199391
0.196072
0.193872
0.194325
0.193591
0.192443
0.194363
0.199147
0.205868
0.208266
0.201807
0.19303
0.158693
0.156524
0.186998
0.20201
0.209875
0.210508
0.206213
0.203186
0.20032
0.198694
0.199902
0.201345
0.199932
0.196071
0.191291
0.19041
0.192133
0.192464
0.190969
0.191635
0.19571
0.202769
0.205322
0.20098
0.194278
0.158196
0.15642
0.185683
0.200439
0.20602
0.205592
0.202636
0.201142
0.199313
0.197563
0.19843
0.199881
0.199325
0.194593
0.19124
0.189799
0.192006
0.191867
0.191587
0.192377
0.195175
0.200832
0.203436
0.20135
0.195899
0.157916
0.156531
0.183812
0.197559
0.201492
0.202
0.199961
0.199771
0.199077
0.198521
0.199834
0.201528
0.200791
0.196698
0.194105
0.192559
0.192635
0.192557
0.192346
0.193768
0.195475
0.20003
0.201836
0.20281
0.195989
0.157574
0.156012
0.181865
0.194908
0.1981
0.199027
0.198924
0.197781
0.197125
0.198826
0.200002
0.201972
0.201824
0.198397
0.196732
0.197644
0.197359
0.194757
0.193115
0.191908
0.194406
0.200451
0.203389
0.205297
0.194269
0.156523
0.155284
0.18099
0.193999
0.196594
0.197142
0.19667
0.194699
0.195383
0.197507
0.199872
0.200462
0.200436
0.199037
0.200254
0.202147
0.202628
0.198508
0.194547
0.192828
0.194875
0.200751
0.206773
0.206169
0.191976
0.155084
0.1546
0.181792
0.194187
0.196641
0.194902
0.193361
0.192371
0.193042
0.196021
0.199209
0.199818
0.198715
0.198683
0.202676
0.205172
0.204906
0.203509
0.199913
0.197122
0.197011
0.203218
0.206887
0.205414
0.189654
0.153682
0.15405
0.182107
0.195601
0.197399
0.193517
0.18965
0.189379
0.190907
0.194363
0.198004
0.198439
0.197265
0.199264
0.204161
0.206191
0.2066
0.20414
0.202504
0.202913
0.205034
0.205947
0.208081
0.203486
0.187409
0.152423
0.153427
0.181975
0.195593
0.197245
0.193674
0.189575
0.188089
0.190068
0.19303
0.195614
0.196185
0.196695
0.199215
0.204333
0.207258
0.206651
0.20702
0.206223
0.209109
0.210755
0.211321
0.208822
0.202965
0.18496
0.151312
0.152727
0.181433
0.194372
0.196606
0.194752
0.191887
0.191202
0.191023
0.192478
0.194145
0.195046
0.194766
0.198896
0.204362
0.208492
0.208912
0.208217
0.20941
0.21015
0.212511
0.212561
0.209305
0.201513
0.183317
0.150634
0.152117
0.181321
0.192776
0.196185
0.195365
0.194148
0.193473
0.192872
0.193133
0.192823
0.192167
0.193624
0.196891
0.203425
0.208328
0.207918
0.208136
0.208041
0.211622
0.21232
0.212393
0.207161
0.19868
0.181596
0.150463
0.151728
0.182063
0.19187
0.194865
0.195876
0.195542
0.195516
0.194054
0.19204
0.18898
0.189393
0.190455
0.194121
0.200516
0.204905
0.205738
0.205174
0.207192
0.208813
0.211872
0.209617
0.203664
0.195528
0.180345
0.150381
0.151714
0.183015
0.191745
0.193969
0.195446
0.197299
0.197079
0.195283
0.1914
0.189231
0.187354
0.187601
0.190123
0.196478
0.200621
0.201294
0.202679
0.203673
0.206388
0.207019
0.205976
0.200263
0.192939
0.17867
0.150353
0.151784
0.183188
0.192028
0.192529
0.193954
0.195664
0.197404
0.194722
0.19166
0.190634
0.189753
0.188647
0.189767
0.195297
0.197412
0.198513
0.198458
0.200337
0.201765
0.202625
0.20203
0.19786
0.190387
0.177065
0.150142
0.151736
0.18271
0.191284
0.191098
0.19222
0.193562
0.195558
0.193555
0.19317
0.195582
0.196157
0.192066
0.190064
0.19297
0.195698
0.195218
0.195381
0.196354
0.198507
0.199765
0.199868
0.194703
0.187134
0.176181
0.150064
0.151585
0.18264
0.189718
0.190616
0.191361
0.192285
0.195015
0.196447
0.196318
0.198587
0.197282
0.194739
0.189076
0.192273
0.194165
0.19424
0.194134
0.195556
0.197454
0.198062
0.19741
0.191142
0.183818
0.175914
0.14976
0.151234
0.18295
0.188509
0.190341
0.192085
0.193482
0.1964
0.19596
0.196777
0.197586
0.198044
0.19462
0.188734
0.190328
0.193067
0.193921
0.193425
0.194591
0.19609
0.196627
0.195358
0.188222
0.18295
0.176748
0.149178
0.150615
0.182807
0.188543
0.190959
0.192838
0.193644
0.194551
0.194304
0.195399
0.196035
0.195999
0.19534
0.189511
0.189884
0.191646
0.192864
0.192327
0.192654
0.194525
0.195655
0.195162
0.188669
0.184124
0.178516
0.148335
0.149751
0.182715
0.189135
0.191003
0.192746
0.191354
0.192186
0.191664
0.19351
0.193076
0.194735
0.194908
0.191509
0.191384
0.191468
0.190829
0.190307
0.191325
0.194352
0.194886
0.194129
0.189858
0.186819
0.179304
0.147715
0.14886
0.182003
0.190108
0.191129
0.191881
0.191002
0.191226
0.190585
0.190793
0.191543
0.194229
0.195255
0.192793
0.194446
0.19124
0.18914
0.188676
0.190647
0.194308
0.19429
0.194777
0.191039
0.189161
0.179075
0.147239
0.148074
0.180717
0.19084
0.191107
0.192335
0.191613
0.192313
0.19009
0.189554
0.190101
0.192469
0.19327
0.191337
0.194504
0.190421
0.186696
0.186676
0.190192
0.194045
0.194316
0.196456
0.193048
0.190426
0.177519
0.14674
0.147297
0.179509
0.190565
0.191246
0.192761
0.192009
0.1928
0.191101
0.188455
0.187616
0.188931
0.190027
0.189229
0.192263
0.188288
0.184366
0.185209
0.188759
0.19249
0.193092
0.196437
0.193702
0.190676
0.176153
0.146806
0.146826
0.178734
0.189562
0.191318
0.193394
0.192226
0.193056
0.190099
0.187767
0.186592
0.187086
0.188542
0.187621
0.189522
0.185252
0.182865
0.184449
0.187233
0.190264
0.190633
0.193858
0.192259
0.190287
0.175801
0.146408
0.146727
0.178124
0.188303
0.191294
0.193978
0.192286
0.192579
0.189419
0.18764
0.18728
0.187566
0.188102
0.186327
0.187589
0.183402
0.181767
0.183285
0.184527
0.187449
0.188384
0.191504
0.190603
0.189288
0.17519
0.145369
0.146054
0.177631
0.186677
0.189685
0.192975
0.19123
0.193009
0.1909
0.189359
0.188325
0.188008
0.187336
0.184331
0.186504
0.183574
0.181815
0.182146
0.182172
0.185913
0.187388
0.190689
0.190238
0.188837
0.174858
0.144312
0.145008
0.176175
0.184288
0.186673
0.190743
0.190444
0.193013
0.192295
0.19014
0.188022
0.187858
0.18653
0.183024
0.185515
0.185005
0.182909
0.182088
0.182014
0.186631
0.187609
0.191345
0.191756
0.188884
0.174327
0.143111
0.143934
0.174442
0.181845
0.184103
0.189656
0.190536
0.193606
0.192029
0.189512
0.186982
0.186975
0.186805
0.182573
0.184102
0.185931
0.185898
0.183773
0.183768
0.187854
0.188513
0.192749
0.193049
0.188253
0.173679
0.142082
0.142511
0.173492
0.18086
0.183453
0.188883
0.189613
0.192862
0.1907
0.18877
0.185372
0.18447
0.184641
0.181422
0.182846
0.186031
0.188647
0.188625
0.186723
0.189339
0.189186
0.193292
0.19268
0.186357
0.173097
0.140894
0.141511
0.173171
0.180614
0.183719
0.188222
0.188416
0.19052
0.188148
0.186349
0.183862
0.18257
0.182932
0.179767
0.182323
0.185828
0.188277
0.188668
0.188235
0.189814
0.188473
0.192027
0.190744
0.184752
0.17309
0.139622
0.141896
0.172873
0.181289
0.18468
0.187818
0.18629
0.188991
0.186409
0.186133
0.184189
0.182699
0.18177
0.178541
0.182182
0.186068
0.18748
0.187608
0.187228
0.187584
0.185987
0.189805
0.188632
0.184001
0.173527
0.13871
0.143272
0.172579
0.182794
0.185717
0.187511
0.185469
0.188405
0.187229
0.187183
0.185476
0.183924
0.182401
0.179308
0.183176
0.185023
0.186062
0.185935
0.184546
0.184102
0.181868
0.187232
0.186965
0.183894
0.173754
0.138235
0.154146
0.182524
0.19372
0.196164
0.197542
0.194469
0.198041
0.196608
0.197701
0.196697
0.196061
0.194784
0.192532
0.195508
0.195928
0.195322
0.194224
0.19167
0.190686
0.188321
0.194047
0.19493
0.193541
0.18377
0.147987
0.171068
0.198724
0.209411
0.211513
0.213813
0.211364
0.2141
0.212239
0.213301
0.213766
0.214654
0.214274
0.211069
0.215103
0.214907
0.212048
0.209298
0.205022
0.205018
0.202987
0.20874
0.210276
0.210218
0.200124
0.165505
0.187371
0.215243
0.22536
0.227328
0.229889
0.228306
0.231481
0.228711
0.230671
0.232738
0.235147
0.234138
0.231807
0.2343
0.233151
0.229841
0.225187
0.219524
0.220387
0.21938
0.226025
0.228251
0.228254
0.217489
0.183413
0.203029
0.231039
0.240875
0.243293
0.24667
0.245365
0.24833
0.246248
0.248642
0.251134
0.252196
0.253428
0.25109
0.253066
0.250501
0.247032
0.241219
0.235683
0.237412
0.23679
0.244185
0.246655
0.246086
0.233933
0.200771
0.218799
0.247031
0.25663
0.260017
0.26507
0.264652
0.26684
0.263673
0.265829
0.267466
0.268813
0.269675
0.268485
0.268669
0.26688
0.264057
0.262276
0.255791
0.255485
0.253982
0.261053
0.263317
0.263123
0.250595
0.21805
0.235001
0.263177
0.272776
0.277284
0.283762
0.283576
0.283665
0.279111
0.281165
0.282894
0.283297
0.284829
0.283172
0.2839
0.281591
0.281638
0.281631
0.276345
0.273993
0.271987
0.277152
0.279164
0.27983
0.267396
0.234816
0.251831
0.279284
0.288813
0.293923
0.30122
0.300729
0.300184
0.295265
0.296741
0.297826
0.298734
0.300037
0.299266
0.298846
0.297336
0.297866
0.299774
0.296542
0.295017
0.291552
0.295329
0.2955
0.297296
0.284374
0.250792
0.268652
0.294775
0.304713
0.310652
0.317593
0.316664
0.316946
0.313043
0.313621
0.313248
0.313645
0.31493
0.312331
0.312444
0.310819
0.31287
0.313991
0.313844
0.315436
0.313316
0.315239
0.31369
0.312349
0.30016
0.266942
0.286044
0.311575
0.321211
0.32659
0.332997
0.33176
0.332412
0.32922
0.331096
0.330641
0.331668
0.331168
0.32949
0.327835
0.327824
0.328456
0.329086
0.327983
0.330809
0.329881
0.333197
0.329712
0.326506
0.314645
0.283016
0.303324
0.330162
0.338735
0.34195
0.346256
0.344976
0.346249
0.344618
0.346987
0.348443
0.350969
0.351252
0.347964
0.347917
0.34681
0.34805
0.34752
0.34387
0.34491
0.344173
0.347111
0.343393
0.339275
0.328894
0.299259
0.319546
0.349219
0.357264
0.359213
0.36185
0.359884
0.361888
0.360302
0.36405
0.366092
0.367371
0.367133
0.367657
0.368246
0.368839
0.366173
0.364707
0.362485
0.362216
0.359132
0.360526
0.356098
0.352066
0.344831
0.315235
0.336487
0.366245
0.375396
0.37826
0.379966
0.378731
0.379519
0.378936
0.38202
0.381417
0.381369
0.382622
0.385243
0.387857
0.386117
0.382123
0.379495
0.379036
0.380731
0.377749
0.375582
0.370699
0.368241
0.360692
0.330776
0.357011
0.383141
0.392602
0.395478
0.398516
0.396974
0.397729
0.396785
0.398165
0.397102
0.396167
0.396036
0.399617
0.40215
0.400664
0.397065
0.395653
0.395837
0.398535
0.395451
0.391736
0.387709
0.384619
0.37712
0.348259
0.384131
0.3987
0.404779
0.40572
0.408898
0.409602
0.410896
0.411291
0.412329
0.411674
0.410109
0.408657
0.41079
0.413642
0.413821
0.412766
0.414043
0.414665
0.41387
0.410101
0.405194
0.402115
0.398646
0.389951
0.376907
0.552434
0.548291
0.542691
0.541076
0.539536
0.53482
0.530418
0.529058
0.528692
0.535256
0.539989
0.539706
0.53886
0.543287
0.547946
0.542539
0.540046
0.540527
0.535604
0.536404
0.535944
0.542796
0.548524
0.549153
0.556679
0.902094
0.901175
0.897285
0.891893
0.888685
0.889322
0.897765
0.90635
0.904808
0.904001
0.903148
0.901514
0.901451
0.900773
0.896616
0.892138
0.899377
0.901458
0.899543
0.898439
0.902118
0.910468
0.912525
0.912254
0.911285
0.995609
0.995868
0.996078
0.996262
0.996337
0.996681
0.997043
0.997198
0.997066
0.996943
0.99687
0.996908
0.996925
0.996932
0.996945
0.996997
0.997243
0.997373
0.997361
0.997236
0.997187
0.997193
0.996989
0.996681
0.996447
0.99995
0.999954
0.999962
0.999968
0.999973
0.999978
0.99998
0.999982
0.999984
0.999985
0.999984
0.999985
0.999985
0.999986
0.999988
0.999989
0.999989
0.999988
0.999985
0.999983
0.999983
0.999982
0.999981
0.999977
0.999974
0.999999
1
1
1
1
1
1
1
1
1
1
1
1
1
1
1
1
1
1
1
1
1
1
1
1
1
1
1
1
1
1
1
1
1
1
1
1
1
1
1
1
1
1
1
1
1
1
1
1
1
1
1
1
1
1
1
1
1
1
1
1
1
1
1
1
1
1
1
1
1
1
1
1
1
1
1
1
1
1
1
1
1
1
1
1
1
1
1
1
1
1
1
1
1
1
1
1
1
1
1
)
;

boundaryField
{
    inlet
    {
        type            calculated;
        value           uniform 0.5;
    }
    outlet
    {
        type            calculated;
        value           nonuniform List<scalar> 
25
(
1
1
1
1
1
1
1
1
1
1
1
1
1
1
1
1
1
1
1
1
1
1
1
1
1
)
;
    }
    walls
    {
        type            calculated;
        value           nonuniform List<scalar> 
150
(
0.157739
0.123092
0.135041
0.146066
0.150965
0.155358
0.15895
0.161794
0.163363
0.164363
0.165212
0.165742
0.166046
0.165854
0.165052
0.163791
0.162685
0.161625
0.160448
0.159353
0.158439
0.157702
0.157131
0.156524
0.15642
0.156531
0.156012
0.155284
0.1546
0.15405
0.153427
0.152727
0.152117
0.151728
0.151714
0.151784
0.151736
0.151585
0.151234
0.150615
0.149751
0.14886
0.148074
0.147297
0.146826
0.146727
0.146054
0.145008
0.143934
0.142511
0.141511
0.141896
0.143272
0.154146
0.171068
0.187371
0.203029
0.218799
0.235001
0.251831
0.268652
0.286044
0.303324
0.319546
0.336487
0.357011
0.384131
0.552434
0.902094
0.995609
0.99995
0.999999
1
1
1
0.171383
0.126398
0.13345
0.143086
0.148839
0.154638
0.158418
0.160497
0.162335
0.163541
0.163742
0.164269
0.165375
0.166717
0.166885
0.166488
0.166515
0.166052
0.164591
0.162491
0.160611
0.159426
0.158693
0.158196
0.157916
0.157574
0.156523
0.155084
0.153682
0.152423
0.151312
0.150634
0.150463
0.150381
0.150353
0.150142
0.150064
0.14976
0.149178
0.148335
0.147715
0.147239
0.14674
0.146806
0.146408
0.145369
0.144312
0.143111
0.142082
0.140894
0.139622
0.13871
0.138235
0.147987
0.165505
0.183413
0.200771
0.21805
0.234816
0.250792
0.266942
0.283016
0.299259
0.315235
0.330776
0.348259
0.376907
0.556679
0.911285
0.996447
0.999974
1
1
1
1
)
;
    }
    defaultFaces
    {
        type            empty;
    }
}


// ************************************************************************* //
