/*--------------------------------*- C++ -*----------------------------------*\
| =========                 |                                                 |
| \\      /  F ield         | OpenFOAM: The Open Source CFD Toolbox           |
|  \\    /   O peration     | Version:  2.3.0                                 |
|   \\  /    A nd           | Web:      www.OpenFOAM.org                      |
|    \\/     M anipulation  |                                                 |
\*---------------------------------------------------------------------------*/
FoamFile
{
    version     2.0;
    format      ascii;
    class       volScalarField;
    location    "13";
    object      epsilon.water;
}
// * * * * * * * * * * * * * * * * * * * * * * * * * * * * * * * * * * * * * //

dimensions      [0 2 -3 0 0 0 0];

internalField   nonuniform List<scalar> 
1875
(
0.368978
0.442646
0.441237
0.435163
0.421736
0.40437
0.376669
0.350293
0.341607
0.345246
0.368514
0.506599
0.582237
0.430127
0.130671
0.23924
0.404181
0.588503
0.461751
0.372072
0.381224
0.429645
0.47267
0.489231
0.484955
0.618705
0.862518
0.747894
0.682622
0.614147
0.559601
0.510663
0.482799
0.480132
0.518012
0.636742
0.891457
0.931882
0.806576
0.444775
0.493633
0.975309
0.827765
0.592399
0.504554
0.518123
0.608989
0.672823
0.711037
0.561449
0.556599
0.663989
0.7043
0.636966
0.531971
0.462752
0.399176
0.376529
0.395214
0.458224
0.606103
0.85086
0.879111
0.699928
0.420239
0.428996
0.759728
0.709685
0.602849
0.581602
0.546111
0.469458
0.37454
0.266984
0.357202
0.533487
0.319652
0.288606
0.242792
0.259362
0.287243
0.311531
0.290693
0.304024
0.372733
0.516131
0.629582
0.569326
0.401522
0.33586
0.300485
0.535981
0.606959
0.518695
0.431354
0.39009
0.358103
0.264339
0.16456
0.362228
0.436027
0.252119
0.164859
0.135735
0.182426
0.232782
0.258006
0.230424
0.227121
0.290664
0.368994
0.386956
0.346649
0.265353
0.227542
0.23933
0.384401
0.373494
0.329116
0.252955
0.194658
0.173794
0.131076
0.127829
0.3664
0.464753
0.238813
0.137772
0.117788
0.176987
0.27219
0.282992
0.243174
0.223296
0.264435
0.300332
0.284639
0.21771
0.178502
0.161429
0.16109
0.240686
0.243803
0.202851
0.156565
0.124333
0.116918
0.104649
0.154424
0.333504
0.363436
0.251651
0.138513
0.119089
0.172413
0.259205
0.293209
0.259107
0.232458
0.256437
0.263186
0.23156
0.169868
0.15824
0.152058
0.15509
0.193203
0.212626
0.199359
0.177764
0.145318
0.135875
0.125714
0.203682
0.343109
0.391008
0.304117
0.16859
0.133917
0.167502
0.242585
0.269869
0.250882
0.218155
0.227074
0.235687
0.19559
0.164223
0.158075
0.168067
0.176933
0.206544
0.241825
0.245531
0.241732
0.224462
0.196657
0.180509
0.291271
0.330436
0.415405
0.356345
0.216196
0.167152
0.18166
0.211852
0.239749
0.23185
0.209298
0.242287
0.240212
0.197901
0.185912
0.189126
0.196447
0.218323
0.228349
0.257346
0.287865
0.309168
0.297734
0.257702
0.286015
0.339918
0.313961
0.380633
0.408585
0.269597
0.209228
0.235691
0.243416
0.251659
0.266552
0.262331
0.289384
0.262409
0.233787
0.222975
0.231041
0.254769
0.24743
0.260304
0.272767
0.299339
0.330784
0.324314
0.322406
0.388629
0.34103
0.314749
0.385727
0.443162
0.325323
0.232794
0.250542
0.351201
0.306909
0.324535
0.296862
0.291013
0.27074
0.231136
0.210323
0.211738
0.211596
0.212286
0.22207
0.250789
0.29555
0.332581
0.348677
0.370386
0.442532
0.283679
0.306705
0.39611
0.451556
0.374407
0.255233
0.226504
0.305112
0.395878
0.375355
0.332388
0.3059
0.269193
0.222936
0.20339
0.177736
0.164112
0.190542
0.22207
0.256408
0.308065
0.348974
0.403797
0.502558
0.402705
0.227167
0.331163
0.371422
0.442871
0.400627
0.266365
0.220353
0.240712
0.386323
0.403469
0.355233
0.334304
0.30073
0.234074
0.163065
0.159403
0.204553
0.239835
0.265951
0.310485
0.357471
0.401442
0.443112
0.421538
0.352415
0.16333
0.316465
0.386258
0.448951
0.41424
0.270736
0.22316
0.224996
0.264612
0.404626
0.436039
0.383603
0.345155
0.312825
0.246836
0.167875
0.171365
0.248748
0.29828
0.319761
0.325208
0.361373
0.353031
0.317845
0.262196
0.136278
0.358831
0.335883
0.470896
0.416013
0.261355
0.22598
0.225877
0.245875
0.298181
0.380358
0.451317
0.439724
0.386705
0.341409
0.277911
0.205888
0.217638
0.246487
0.267448
0.289751
0.30682
0.285299
0.243539
0.193829
0.12968
0.349813
0.338692
0.488637
0.421986
0.250317
0.233096
0.24474
0.260956
0.281447
0.329126
0.390459
0.44718
0.473903
0.434801
0.36847
0.306948
0.239037
0.225057
0.242848
0.263971
0.275227
0.245471
0.193338
0.178807
0.151957
0.384861
0.348454
0.490042
0.521121
0.262528
0.240927
0.237731
0.242408
0.255382
0.284608
0.342065
0.412154
0.465769
0.452421
0.405838
0.35936
0.3014
0.261249
0.250067
0.25749
0.26432
0.25636
0.256046
0.221462
0.200305
0.432476
0.305896
0.420662
0.716233
0.302705
0.215288
0.204101
0.202512
0.190962
0.202095
0.270382
0.334202
0.389528
0.420562
0.400758
0.357731
0.311536
0.30907
0.311972
0.313947
0.349562
0.337283
0.315637
0.291628
0.310047
0.467274
0.315099
0.387202
0.962915
0.449457
0.277089
0.216558
0.185068
0.165612
0.182047
0.254325
0.284086
0.318863
0.341693
0.342114
0.335206
0.34131
0.343882
0.377174
0.418808
0.396634
0.368045
0.325092
0.372394
0.460628
0.37137
0.293108
0.35602
0.981099
0.725267
0.469062
0.307625
0.232351
0.179811
0.18545
0.250081
0.264011
0.273454
0.29948
0.32089
0.322612
0.320194
0.357918
0.405232
0.41655
0.396699
0.312155
0.336582
0.393915
0.378631
0.378792
0.300085
0.270397
0.868768
0.899532
0.677448
0.434751
0.278297
0.214214
0.239843
0.255347
0.265704
0.288746
0.303711
0.300637
0.311453
0.341486
0.3763
0.401664
0.355155
0.284272
0.269058
0.303757
0.332282
0.286878
0.358498
0.323126
0.195874
0.603547
0.818556
0.748913
0.416234
0.262416
0.228551
0.238377
0.274204
0.295806
0.302162
0.300383
0.31056
0.330076
0.366849
0.37184
0.321642
0.262858
0.251574
0.242658
0.266812
0.305508
0.266646
0.333841
0.307931
0.164667
0.392377
0.550169
0.4894
0.258541
0.212614
0.228098
0.269527
0.311089
0.324004
0.329321
0.329277
0.356072
0.367312
0.34762
0.287729
0.249977
0.250359
0.250917
0.251722
0.294155
0.334001
0.329261
0.313023
0.358198
0.145945
0.279903
0.406315
0.322254
0.214448
0.212226
0.243318
0.294034
0.329948
0.337361
0.345808
0.362838
0.354083
0.319263
0.280871
0.266986
0.270584
0.272455
0.271684
0.304356
0.351933
0.391261
0.35462
0.286481
0.344454
0.173899
0.224783
0.311152
0.287839
0.231249
0.243702
0.299284
0.354533
0.373438
0.383495
0.388024
0.365422
0.347573
0.339551
0.336472
0.333511
0.30838
0.28549
0.278557
0.313029
0.364484
0.391211
0.340319
0.280095
0.390565
0.224585
0.267321
0.321249
0.310414
0.281269
0.314674
0.395421
0.4271
0.43124
0.423644
0.399576
0.377189
0.369016
0.384223
0.393961
0.365044
0.312687
0.269523
0.25603
0.270945
0.320596
0.342613
0.281946
0.23902
0.448301
0.322504
0.317044
0.381921
0.390412
0.368482
0.38989
0.426441
0.425912
0.428369
0.421114
0.365734
0.322496
0.322531
0.31055
0.299889
0.269006
0.248162
0.224218
0.209051
0.21536
0.248531
0.281557
0.242328
0.249821
0.398788
0.417312
0.32635
0.365874
0.445731
0.423493
0.413947
0.427413
0.429495
0.41399
0.36992
0.299577
0.25154
0.244429
0.24532
0.222499
0.187235
0.185687
0.191195
0.194523
0.206164
0.235259
0.262179
0.228128
0.228593
0.40537
0.389746
0.348986
0.29249
0.376026
0.44037
0.425396
0.39945
0.381925
0.356006
0.311871
0.271383
0.252754
0.254562
0.252197
0.221733
0.200159
0.201138
0.204353
0.205905
0.217715
0.247367
0.262467
0.216615
0.234754
0.40149
0.341494
0.337883
0.271295
0.286698
0.383842
0.448068
0.415006
0.388432
0.365893
0.323156
0.273018
0.265588
0.283334
0.286128
0.252576
0.23443
0.227027
0.226923
0.227042
0.237593
0.258328
0.259149
0.189237
0.258435
0.367686
0.323223
0.338803
0.279665
0.275298
0.312
0.410585
0.495425
0.455843
0.401072
0.367963
0.310723
0.310545
0.309917
0.306914
0.261254
0.224922
0.215906
0.206285
0.196833
0.200395
0.206046
0.201253
0.153187
0.231681
0.363068
0.282209
0.282901
0.23492
0.212262
0.240589
0.307355
0.424333
0.443971
0.401263
0.355703
0.316525
0.3115
0.308292
0.301763
0.269787
0.225815
0.192984
0.177447
0.164704
0.160434
0.160943
0.156696
0.140874
0.239771
0.332947
0.260569
0.243836
0.184493
0.173067
0.206259
0.228003
0.273538
0.336617
0.338009
0.309525
0.290041
0.287682
0.292435
0.287862
0.266611
0.242749
0.220917
0.193305
0.173128
0.164647
0.154812
0.145975
0.140218
0.280698
0.339854
0.267596
0.250636
0.190735
0.175478
0.205642
0.224416
0.260952
0.292575
0.305429
0.302237
0.295687
0.295976
0.300641
0.300734
0.294066
0.281029
0.26294
0.245835
0.22837
0.203662
0.177462
0.176823
0.189257
0.269927
0.352708
0.303933
0.291059
0.260748
0.24605
0.250982
0.260874
0.288563
0.319031
0.329376
0.335771
0.339153
0.342191
0.339533
0.33592
0.336556
0.331846
0.321307
0.296933
0.264814
0.220279
0.211273
0.231427
0.230676
0.34973
0.374001
0.318796
0.334189
0.325762
0.329165
0.349582
0.369678
0.3864
0.392997
0.398869
0.408111
0.407611
0.40674
0.40473
0.383495
0.353654
0.326604
0.303688
0.283194
0.274088
0.269998
0.27579
0.258124
0.267689
0.31505
0.33329
0.306302
0.323377
0.339022
0.338311
0.338561
0.35433
0.389179
0.426395
0.44376
0.454335
0.447865
0.416938
0.369604
0.327549
0.316531
0.321431
0.328823
0.320442
0.316113
0.320806
0.295223
0.279066
0.314495
0.327335
0.340992
0.282729
0.266025
0.272066
0.27606
0.286513
0.290444
0.290697
0.306271
0.3213
0.316345
0.311007
0.3213
0.333577
0.341306
0.349124
0.362711
0.377847
0.37579
0.341885
0.302807
0.289195
0.308094
0.336147
0.306563
0.322945
0.273356
0.245093
0.234871
0.237913
0.236016
0.214668
0.206236
0.217342
0.234032
0.270007
0.317286
0.333405
0.353894
0.388691
0.418793
0.401808
0.360767
0.347508
0.339188
0.334311
0.344465
0.375249
0.375064
0.303802
0.326519
0.279456
0.243349
0.22953
0.237897
0.239444
0.226971
0.209466
0.215597
0.241242
0.2911
0.351206
0.381019
0.411652
0.421112
0.394698
0.391449
0.398083
0.422579
0.447139
0.468976
0.482593
0.46431
0.407156
0.292868
0.336714
0.284783
0.260857
0.256772
0.276789
0.29148
0.294779
0.277145
0.247679
0.268833
0.330404
0.356947
0.379732
0.38984
0.381692
0.386385
0.420647
0.450952
0.454432
0.41918
0.396838
0.350849
0.321765
0.286438
0.281036
0.317592
0.286926
0.278223
0.290171
0.29893
0.314528
0.341359
0.369799
0.337468
0.307435
0.318882
0.336531
0.342343
0.318133
0.277572
0.276285
0.296002
0.302937
0.295239
0.292095
0.272101
0.242109
0.218943
0.191568
0.270252
0.339804
0.289068
0.282473
0.304803
0.313967
0.304283
0.334099
0.365276
0.370065
0.342486
0.319357
0.300602
0.283726
0.259135
0.225413
0.200678
0.192887
0.186716
0.187849
0.192446
0.203041
0.209758
0.198359
0.169899
0.266223
0.325391
0.284433
0.267757
0.265891
0.266632
0.280733
0.277815
0.308558
0.334817
0.325057
0.312235
0.29454
0.276783
0.253637
0.229242
0.211418
0.203668
0.202882
0.206295
0.20986
0.207835
0.206084
0.199624
0.195557
0.287203
0.338155
0.291057
0.239496
0.22742
0.223592
0.233345
0.253013
0.273947
0.295226
0.30262
0.303962
0.301207
0.295899
0.288645
0.288919
0.294522
0.285656
0.288334
0.2887
0.28639
0.274832
0.25711
0.243599
0.259367
0.342165
0.320479
0.330593
0.259786
0.231226
0.233741
0.264722
0.283014
0.301523
0.324127
0.339125
0.349096
0.357987
0.372565
0.375026
0.362406
0.348639
0.342052
0.322503
0.308704
0.308796
0.290862
0.290406
0.285749
0.311288
0.306317
0.330874
0.357089
0.312999
0.273651
0.256013
0.27338
0.298098
0.31899
0.349908
0.366695
0.376501
0.384291
0.382467
0.367353
0.346924
0.322825
0.304866
0.287015
0.278698
0.291943
0.305304
0.298716
0.293944
0.324197
0.323865
0.309487
0.348155
0.332437
0.312447
0.289898
0.288365
0.30717
0.311858
0.314198
0.320791
0.330863
0.331646
0.324061
0.317558
0.310645
0.299543
0.29137
0.27781
0.273006
0.284249
0.324457
0.307835
0.294938
0.327194
0.314672
0.317403
0.319599
0.317706
0.311709
0.297195
0.294478
0.308201
0.314966
0.313757
0.308267
0.29994
0.290204
0.284288
0.284088
0.290725
0.30732
0.309507
0.30083
0.270488
0.263454
0.294361
0.305869
0.30384
0.34867
0.326731
0.30751
0.325593
0.30688
0.313031
0.313271
0.31328
0.316682
0.323324
0.325293
0.321206
0.310738
0.307107
0.312569
0.317893
0.325046
0.324847
0.318701
0.310411
0.285482
0.264691
0.274341
0.306496
0.31774
0.364683
0.310351
0.305491
0.344395
0.317925
0.315408
0.319027
0.317373
0.317648
0.31813
0.311502
0.314729
0.327794
0.357718
0.360394
0.354866
0.361633
0.364919
0.358484
0.350074
0.327708
0.283135
0.282417
0.311173
0.326291
0.366496
0.31665
0.291627
0.34894
0.334298
0.31876
0.311921
0.303965
0.292306
0.300189
0.320208
0.357695
0.379614
0.369486
0.351577
0.338003
0.351118
0.366673
0.365748
0.351008
0.320284
0.280831
0.287441
0.319192
0.336473
0.367949
0.310051
0.283919
0.338495
0.36054
0.335141
0.321902
0.29872
0.289032
0.300028
0.334633
0.370208
0.38479
0.380691
0.330024
0.308115
0.308618
0.319015
0.319038
0.307917
0.289988
0.279981
0.303799
0.325403
0.341389
0.360804
0.314097
0.264684
0.318378
0.393327
0.375175
0.337316
0.312547
0.300828
0.306131
0.32116
0.353597
0.364951
0.361446
0.33174
0.291723
0.281427
0.297654
0.318494
0.306318
0.288636
0.289398
0.317362
0.325944
0.331543
0.33309
0.304643
0.252666
0.320807
0.361091
0.404405
0.377796
0.335233
0.307613
0.309731
0.322104
0.324303
0.311594
0.298457
0.282051
0.276887
0.262148
0.262684
0.30768
0.334431
0.317147
0.309022
0.309115
0.314425
0.314406
0.300166
0.303636
0.254226
0.309078
0.335588
0.398324
0.394683
0.35969
0.326372
0.31755
0.327531
0.325016
0.316138
0.29437
0.276266
0.265858
0.246622
0.240524
0.261866
0.308422
0.323061
0.317048
0.315824
0.315179
0.312077
0.29739
0.304225
0.250737
0.284068
0.321915
0.358043
0.380657
0.359371
0.327982
0.312871
0.314584
0.32282
0.323648
0.3094
0.285684
0.280283
0.271933
0.245682
0.247851
0.289268
0.315564
0.325685
0.327432
0.325129
0.317585
0.296115
0.305592
0.25272
0.26008
0.289678
0.314594
0.337394
0.338009
0.31772
0.301442
0.302962
0.314306
0.318784
0.320052
0.312944
0.301441
0.29645
0.268013
0.260711
0.29127
0.318422
0.327657
0.336339
0.339209
0.332092
0.295093
0.318991
0.256405
0.253138
0.268456
0.281687
0.297011
0.304084
0.301938
0.296877
0.298554
0.308588
0.320641
0.323497
0.321772
0.318713
0.309161
0.281919
0.262355
0.280868
0.30645
0.316018
0.320061
0.320991
0.321153
0.303205
0.316511
0.285876
0.263714
0.271627
0.286286
0.290207
0.291995
0.293536
0.295181
0.296974
0.307973
0.323342
0.331266
0.329008
0.326715
0.321243
0.29763
0.267291
0.271346
0.28897
0.30057
0.301905
0.301109
0.297786
0.304145
0.313305
0.291033
0.285039
0.288621
0.296952
0.300789
0.295438
0.295989
0.297663
0.302561
0.314262
0.328205
0.333629
0.329224
0.326098
0.326242
0.31192
0.283992
0.273631
0.280779
0.290191
0.290288
0.28741
0.279879
0.28647
0.306271
0.316051
0.291952
0.289109
0.292608
0.29496
0.295428
0.30378
0.310033
0.31299
0.317388
0.324752
0.331283
0.331526
0.328601
0.327141
0.324362
0.30907
0.303674
0.304227
0.311589
0.312556
0.312097
0.279397
0.274759
0.303326
0.338135
0.287431
0.287532
0.287089
0.276828
0.255604
0.258034
0.27983
0.292892
0.304048
0.313032
0.322234
0.329783
0.33748
0.347275
0.360735
0.371923
0.361366
0.351434
0.359116
0.318634
0.289584
0.280666
0.284725
0.311417
0.434378
0.303391
0.287632
0.26765
0.254854
0.28493
0.316695
0.315681
0.310137
0.314548
0.329154
0.333413
0.341839
0.350456
0.366718
0.386997
0.379496
0.328288
0.296932
0.282681
0.294599
0.304903
0.313897
0.328361
0.33846
0.512468
0.337521
0.317453
0.283431
0.262875
0.27851
0.296902
0.31152
0.338346
0.354822
0.358689
0.361538
0.33979
0.329749
0.308193
0.284626
0.231723
0.197785
0.199779
0.207191
0.256978
0.307475
0.324095
0.301424
0.368634
0.559971
0.316473
0.330193
0.317897
0.301096
0.290389
0.299752
0.296575
0.294139
0.304761
0.340258
0.396538
0.421195
0.406738
0.379689
0.360046
0.335625
0.281783
0.17085
0.194985
0.263945
0.255814
0.283386
0.280867
0.500553
0.721922
0.292129
0.329301
0.31072
0.303642
0.300744
0.307027
0.311466
0.313225
0.318679
0.316151
0.253441
0.249832
0.260264
0.306542
0.328913
0.333992
0.358663
0.673294
1.26628
0.328663
0.36891
0.328424
0.222354
0.611307
1.24237
1.42784
1.51646
1.3568
1.2218
1.23016
1.24882
1.20033
1.20812
1.39601
1.55464
1.53103
1.3397
1.29832
1.59162
1.67543
1.61715
1.2306
1.03599
0.562916
1.72219
1.75855
1.6949
1.22599
1.21092
0.340735
0.0754852
0.0774609
0.070604
0.0644173
0.0633119
0.0651962
0.0642836
0.064475
0.0689001
0.0706417
0.0651913
0.05739
0.0581575
0.0670538
0.069931
0.0689833
0.0581512
0.060206
0.130079
0.0722562
0.0609635
0.0521679
0.0361225
0.104178
0.195806
0.0124213
0.0125145
0.0136571
0.0133835
0.0124309
0.01399
0.0140887
0.0134877
0.0103446
0.00810151
0.00779275
0.00745282
0.00777659
0.00731158
0.00809751
0.00984562
0.00933784
0.00642359
0.00928807
0.00943744
0.00723371
0.0063035
0.00619635
0.0689597
0.000517446
2.62326e-05
2.70815e-05
4.85519e-05
3.24222e-05
2.81544e-05
8.34672e-05
7.78522e-05
3.22343e-05
1.53047e-05
6.02753e-05
0.000259733
0.000229323
9.16652e-05
3.82045e-05
4.11172e-05
0.000120083
5.23171e-05
3.58394e-05
9.65215e-05
0.000166745
0.000197513
0.000158276
0.000160334
0.0388745
0.000443828
2.54804e-05
2.91236e-05
3.42675e-05
3.97643e-05
4.21412e-05
4.12116e-05
3.8577e-05
2.95646e-05
1.35568e-05
8.37548e-06
9.16207e-06
2.52007e-06
1.81654e-05
1.96618e-05
2.7714e-05
3.29907e-05
3.44987e-05
3.24704e-05
3.20267e-05
3.36673e-05
1.95985e-05
3.25251e-06
0.00579869
0.033557
0.000433077
2.95338e-05
4.41944e-05
5.40224e-05
6.42208e-05
6.75628e-05
6.67834e-05
6.23164e-05
5.05048e-05
2.59352e-05
1.05268e-05
3.24758e-06
2.3194e-06
7.20632e-06
2.10111e-05
4.63052e-05
5.59649e-05
5.6024e-05
5.03548e-05
3.83029e-05
3.21201e-05
1.68482e-05
1.20349e-05
4.48675e-10
0.0258906
0.000285405
5.97905e-05
6.46848e-05
7.73936e-05
8.93322e-05
9.39974e-05
9.2871e-05
8.39962e-05
6.04175e-05
2.91231e-05
9.98742e-06
2.19266e-06
2.51198e-06
8.99933e-06
5.1724e-05
8.16545e-05
8.2115e-05
7.07913e-05
4.42709e-05
3.0618e-05
2.5955e-05
1.43258e-05
1.50813e-05
0.00317993
0.0184285
0.000229866
8.33601e-05
0.000102994
0.000116746
0.000125366
0.000128691
0.000126945
0.000105454
3.77429e-05
1.69165e-05
5.11775e-06
3.98856e-06
2.50365e-05
7.6336e-05
0.000120904
0.000124308
0.000114671
6.05812e-05
9.43635e-06
7.9518e-06
9.24395e-06
6.80053e-06
5.75527e-06
0.00293281
0.0170046
)
;

boundaryField
{
    inlet
    {
        type            fixedValue;
        value           uniform 0.00015;
    }
    outlet
    {
        type            inletOutlet;
        phi             phi.water;
        inletValue      uniform 0.00015;
        value           nonuniform List<scalar> 
25
(
0.000229866
0.00015
0.00015
0.00015
0.00015
0.00015
0.00015
0.00015
3.77429e-05
1.69165e-05
5.11775e-06
3.98856e-06
2.50365e-05
7.6336e-05
0.00015
0.00015
0.00015
0.00015
9.43635e-06
7.9518e-06
9.24395e-06
6.80053e-06
5.75527e-06
0.00293281
0.0170046
)
;
    }
    walls
    {
        type            epsilonWallFunction;
        value           nonuniform List<scalar> 
150
(
0.0251297
0.0120292
5.25621e-20
4.22451e-21
4.22451e-21
4.22451e-21
4.22451e-21
4.22451e-21
4.22451e-21
4.22451e-21
4.2245e-21
4.22449e-21
4.22449e-21
4.22449e-21
4.22449e-21
4.22449e-21
4.22449e-21
4.22449e-21
4.22451e-21
4.22451e-21
4.2245e-21
4.22449e-21
4.22451e-21
4.22451e-21
4.22451e-21
4.22451e-21
4.22451e-21
1.50298e-20
8.59221e-21
4.22451e-21
4.22451e-21
4.22451e-21
4.22451e-21
4.22451e-21
4.22451e-21
4.22451e-21
4.22451e-21
4.22451e-21
4.22451e-21
4.22451e-21
4.22451e-21
4.22451e-21
4.22451e-21
4.22451e-21
4.22451e-21
4.22451e-21
4.22451e-21
4.22451e-21
4.22451e-21
4.22451e-21
4.22451e-21
4.22451e-21
4.31179e-21
5.09105e-20
1.7768e-16
4.69674e-13
1.17283e-09
3.1414e-17
8.92152e-21
2.65686e-20
2.45448e-20
4.22451e-21
4.22451e-21
8.76669e-20
4.22451e-21
3.10013e-20
4.22451e-21
0.0628258
4.22451e-21
4.22451e-21
4.22451e-21
4.22451e-21
4.22451e-21
4.22451e-21
0.000117797
0.0616221
0.108389
1.08543e-15
4.22451e-21
4.22451e-21
4.22451e-21
4.22451e-21
4.22451e-21
4.22451e-21
4.22451e-21
4.22451e-21
4.22451e-21
4.22451e-21
4.22451e-21
4.22451e-21
4.22451e-21
4.22451e-21
4.22451e-21
2.08584e-20
6.51799e-20
6.80335e-21
4.22451e-21
4.22451e-21
4.22451e-21
4.22451e-21
4.22451e-21
4.22451e-21
4.22451e-21
4.22451e-21
4.22451e-21
4.22451e-21
4.22451e-21
4.22451e-21
4.22451e-21
4.22451e-21
5.15557e-21
3.37017e-20
6.44605e-17
2.11285e-18
2.34075e-18
8.098e-20
4.22451e-21
4.22451e-21
4.22451e-21
4.22451e-21
4.22451e-21
4.22451e-21
4.22451e-21
4.22451e-21
4.22451e-21
4.22451e-21
4.22451e-21
4.22451e-21
4.22451e-21
4.22451e-21
4.4711e-21
5.08101e-21
4.22451e-21
4.22451e-21
4.22451e-21
4.22451e-21
4.22451e-21
4.22451e-21
4.22451e-21
4.22451e-21
4.22451e-21
4.22451e-21
0.188253
4.22451e-21
4.22451e-21
4.22451e-21
4.22451e-21
4.22451e-21
4.22451e-21
4.22451e-21
)
;
        Cmu             0.09;
        kappa           0.41;
        E               9.8;
        value           nonuniform List<scalar> 
150
(
0.0251297
0.0120292
5.25621e-20
4.22451e-21
4.22451e-21
4.22451e-21
4.22451e-21
4.22451e-21
4.22451e-21
4.22451e-21
4.2245e-21
4.22449e-21
4.22449e-21
4.22449e-21
4.22449e-21
4.22449e-21
4.22449e-21
4.22449e-21
4.22451e-21
4.22451e-21
4.2245e-21
4.22449e-21
4.22451e-21
4.22451e-21
4.22451e-21
4.22451e-21
4.22451e-21
1.50298e-20
8.59221e-21
4.22451e-21
4.22451e-21
4.22451e-21
4.22451e-21
4.22451e-21
4.22451e-21
4.22451e-21
4.22451e-21
4.22451e-21
4.22451e-21
4.22451e-21
4.22451e-21
4.22451e-21
4.22451e-21
4.22451e-21
4.22451e-21
4.22451e-21
4.22451e-21
4.22451e-21
4.22451e-21
4.22451e-21
4.22451e-21
4.22451e-21
4.31179e-21
5.09105e-20
1.7768e-16
4.69674e-13
1.17283e-09
3.1414e-17
8.92152e-21
2.65686e-20
2.45448e-20
4.22451e-21
4.22451e-21
8.76669e-20
4.22451e-21
3.10013e-20
4.22451e-21
0.0628258
4.22451e-21
4.22451e-21
4.22451e-21
4.22451e-21
4.22451e-21
4.22451e-21
0.000117797
0.0616221
0.108389
1.08543e-15
4.22451e-21
4.22451e-21
4.22451e-21
4.22451e-21
4.22451e-21
4.22451e-21
4.22451e-21
4.22451e-21
4.22451e-21
4.22451e-21
4.22451e-21
4.22451e-21
4.22451e-21
4.22451e-21
4.22451e-21
2.08584e-20
6.51799e-20
6.80335e-21
4.22451e-21
4.22451e-21
4.22451e-21
4.22451e-21
4.22451e-21
4.22451e-21
4.22451e-21
4.22451e-21
4.22451e-21
4.22451e-21
4.22451e-21
4.22451e-21
4.22451e-21
4.22451e-21
5.15557e-21
3.37017e-20
6.44605e-17
2.11285e-18
2.34075e-18
8.098e-20
4.22451e-21
4.22451e-21
4.22451e-21
4.22451e-21
4.22451e-21
4.22451e-21
4.22451e-21
4.22451e-21
4.22451e-21
4.22451e-21
4.22451e-21
4.22451e-21
4.22451e-21
4.22451e-21
4.4711e-21
5.08101e-21
4.22451e-21
4.22451e-21
4.22451e-21
4.22451e-21
4.22451e-21
4.22451e-21
4.22451e-21
4.22451e-21
4.22451e-21
4.22451e-21
0.188253
4.22451e-21
4.22451e-21
4.22451e-21
4.22451e-21
4.22451e-21
4.22451e-21
4.22451e-21
)
;
    }
    defaultFaces
    {
        type            empty;
    }
}


// ************************************************************************* //
