/*--------------------------------*- C++ -*----------------------------------*\
| =========                 |                                                 |
| \\      /  F ield         | OpenFOAM: The Open Source CFD Toolbox           |
|  \\    /   O peration     | Version:  2.3.0                                 |
|   \\  /    A nd           | Web:      www.OpenFOAM.org                      |
|    \\/     M anipulation  |                                                 |
\*---------------------------------------------------------------------------*/
FoamFile
{
    version     2.0;
    format      ascii;
    class       volScalarField;
    location    "1.67";
    object      alpha.particlesMean;
}
// * * * * * * * * * * * * * * * * * * * * * * * * * * * * * * * * * * * * * //

dimensions      [0 0 0 0 0 0 0];

internalField   nonuniform List<scalar> 
6000
(
0.41764
0.427282
0.426798
0.424447
0.421937
0.412898
0.414569
0.414132
0.416688
0.41569
0.415686
0.41786
0.411497
0.41082
0.417994
0.421211
0.422339
0.419331
0.419225
0.423353
0.424997
0.421693
0.419918
0.424776
0.427518
0.427969
0.427493
0.420758
0.420119
0.418147
0.392889
0.394848
0.395235
0.390003
0.382734
0.380707
0.381439
0.380421
0.380023
0.385174
0.385727
0.382417
0.380365
0.376849
0.381731
0.392025
0.392127
0.387408
0.387741
0.387033
0.389165
0.390548
0.39112
0.393336
0.389324
0.389864
0.389283
0.389346
0.389988
0.398839
0.396624
0.399903
0.39806
0.387403
0.385502
0.387499
0.386354
0.38057
0.382179
0.391418
0.390524
0.381754
0.377669
0.376573
0.385386
0.395125
0.396028
0.392384
0.390358
0.391952
0.392644
0.391653
0.391073
0.385658
0.383186
0.391316
0.396977
0.39588
0.393529
0.402753
0.398404
0.397661
0.39041
0.381427
0.385669
0.387142
0.38333
0.379392
0.381137
0.390788
0.391884
0.377339
0.372539
0.37407
0.382
0.390087
0.393078
0.38987
0.389197
0.392004
0.390824
0.387468
0.38083
0.371583
0.37631
0.38487
0.397195
0.39577
0.388356
0.401376
0.395018
0.395075
0.383014
0.380444
0.385064
0.38439
0.377752
0.375707
0.378732
0.388286
0.388536
0.370783
0.361634
0.358816
0.368265
0.382259
0.390751
0.385942
0.388147
0.389862
0.388438
0.383258
0.373421
0.368945
0.372765
0.380809
0.395297
0.394989
0.381941
0.394534
0.391724
0.39111
0.38152
0.382527
0.384793
0.380792
0.372199
0.371006
0.374388
0.380695
0.381154
0.362851
0.349457
0.350303
0.360043
0.378786
0.389642
0.385303
0.384966
0.385522
0.381698
0.375591
0.371007
0.367367
0.370989
0.378668
0.395613
0.392076
0.375357
0.387989
0.388915
0.386987
0.383325
0.381136
0.382548
0.378337
0.368006
0.366584
0.3661
0.373502
0.371945
0.355862
0.346459
0.352994
0.363877
0.381104
0.386794
0.377493
0.380906
0.380783
0.378068
0.373904
0.369985
0.367106
0.371932
0.380204
0.393232
0.389737
0.36899
0.382937
0.385877
0.389283
0.383291
0.377929
0.37904
0.376905
0.366724
0.361442
0.35981
0.36642
0.363586
0.351202
0.350787
0.357382
0.370393
0.385163
0.377675
0.372399
0.37967
0.383775
0.380694
0.37517
0.370143
0.370798
0.377558
0.381808
0.388079
0.382293
0.363142
0.379853
0.389969
0.392444
0.38225
0.374331
0.377653
0.376929
0.369441
0.360661
0.354675
0.356688
0.355284
0.351097
0.355503
0.362803
0.378763
0.387002
0.37541
0.373417
0.377983
0.386996
0.386036
0.380142
0.37511
0.377995
0.381545
0.384694
0.38258
0.374154
0.36008
0.37959
0.394385
0.392453
0.379119
0.371486
0.376985
0.379082
0.375102
0.361774
0.352419
0.348119
0.350898
0.353897
0.360569
0.367546
0.382671
0.384805
0.373973
0.373875
0.380139
0.387212
0.391391
0.387777
0.382736
0.384349
0.386967
0.384874
0.37697
0.368609
0.360627
0.379894
0.395857
0.388921
0.37418
0.369923
0.374993
0.37995
0.377323
0.366207
0.352532
0.343368
0.350392
0.36104
0.36252
0.369542
0.381658
0.379585
0.374395
0.376487
0.384709
0.388725
0.396047
0.393222
0.39039
0.392219
0.391466
0.384332
0.372033
0.36776
0.364816
0.381769
0.394227
0.382791
0.366008
0.366624
0.371208
0.37602
0.3767
0.371668
0.355189
0.340116
0.351881
0.364012
0.363026
0.36683
0.375663
0.376046
0.375383
0.380939
0.386109
0.389055
0.398054
0.397319
0.398342
0.399523
0.396103
0.38297
0.371517
0.369391
0.372611
0.388779
0.390435
0.374669
0.358317
0.360292
0.363632
0.369791
0.374853
0.378019
0.357424
0.341683
0.348766
0.364833
0.361289
0.362676
0.369998
0.374083
0.378345
0.38416
0.382715
0.388301
0.399288
0.404008
0.406502
0.406946
0.398587
0.385334
0.374147
0.374847
0.382358
0.399999
0.386068
0.367161
0.35341
0.352429
0.356124
0.362477
0.371061
0.377275
0.362476
0.347098
0.346908
0.359666
0.361666
0.360606
0.367441
0.375486
0.382364
0.383832
0.379447
0.388798
0.403216
0.410765
0.41255
0.409629
0.399828
0.387614
0.380529
0.384879
0.396373
0.416318
0.38283
0.362152
0.350074
0.345896
0.348678
0.354846
0.362941
0.372708
0.365839
0.354632
0.346721
0.353751
0.36154
0.36044
0.368533
0.378002
0.385721
0.381666
0.378002
0.389613
0.40812
0.415452
0.412746
0.40496
0.394553
0.387074
0.385505
0.396627
0.410075
0.433296
0.381087
0.357364
0.349587
0.342381
0.343279
0.345886
0.352241
0.362465
0.363586
0.356706
0.349741
0.346294
0.359495
0.360511
0.370447
0.381394
0.38614
0.379576
0.37754
0.389806
0.407205
0.409882
0.400268
0.385392
0.37827
0.37847
0.385944
0.401777
0.417751
0.44308
0.380264
0.353461
0.352193
0.345204
0.34052
0.340309
0.339602
0.350972
0.355218
0.354701
0.349667
0.344794
0.352691
0.361019
0.372678
0.38365
0.3859
0.37955
0.379504
0.390477
0.404746
0.403999
0.383224
0.367588
0.362894
0.372436
0.384512
0.403506
0.418332
0.44327
0.375363
0.354703
0.359508
0.353325
0.34277
0.340348
0.336562
0.343312
0.352391
0.34917
0.347824
0.343796
0.347643
0.361615
0.373601
0.384197
0.387023
0.384333
0.386806
0.396167
0.405781
0.399974
0.375883
0.362561
0.361398
0.373837
0.38893
0.405617
0.417271
0.444327
0.367122
0.359862
0.368999
0.367546
0.351424
0.346733
0.342674
0.34183
0.350974
0.349809
0.344892
0.343111
0.34505
0.360875
0.373877
0.383062
0.39108
0.393888
0.396815
0.404011
0.407248
0.396897
0.372447
0.360337
0.361696
0.374888
0.394634
0.408082
0.41788
0.447653
0.365549
0.36628
0.37875
0.378913
0.35914
0.353495
0.350481
0.347122
0.348945
0.351573
0.346423
0.341466
0.346741
0.360192
0.372648
0.38013
0.394169
0.40439
0.405501
0.407831
0.409171
0.394451
0.370474
0.357602
0.36319
0.373523
0.396347
0.408159
0.415621
0.446867
0.369644
0.372314
0.386184
0.388182
0.366981
0.359066
0.356848
0.353903
0.348611
0.351677
0.348637
0.341843
0.34636
0.359616
0.370184
0.376202
0.393121
0.411451
0.408911
0.41163
0.409111
0.39446
0.370921
0.357029
0.362588
0.371633
0.395578
0.405587
0.413862
0.442738
0.375092
0.378763
0.392535
0.395748
0.375482
0.364074
0.362473
0.357394
0.349043
0.34916
0.350703
0.343501
0.34553
0.356165
0.368914
0.372605
0.38792
0.411452
0.41257
0.413188
0.408952
0.394874
0.374667
0.357829
0.361174
0.369715
0.394522
0.404927
0.414693
0.44319
0.380234
0.385208
0.39912
0.403394
0.384356
0.369668
0.366056
0.35848
0.346709
0.347178
0.350049
0.34683
0.344512
0.352609
0.36525
0.367584
0.379088
0.410484
0.414997
0.413653
0.407941
0.39623
0.378096
0.360812
0.359792
0.37038
0.395243
0.407523
0.419415
0.445884
0.38515
0.389514
0.403891
0.413131
0.394997
0.37581
0.368755
0.35767
0.344741
0.344434
0.347806
0.349124
0.346209
0.351438
0.359278
0.359906
0.37543
0.408358
0.414934
0.412441
0.406953
0.394333
0.380274
0.364316
0.361324
0.373142
0.396749
0.41367
0.426925
0.449068
0.389357
0.391077
0.408265
0.424018
0.406846
0.380866
0.368651
0.356499
0.342749
0.34218
0.345296
0.349637
0.349236
0.352169
0.354868
0.354784
0.375505
0.404679
0.413027
0.410386
0.40265
0.389721
0.375555
0.365243
0.363619
0.377971
0.400481
0.420364
0.434327
0.451729
0.392836
0.392432
0.412945
0.432974
0.417818
0.384451
0.367105
0.353264
0.341633
0.339191
0.343851
0.34876
0.352095
0.353716
0.351983
0.355713
0.374124
0.399473
0.40731
0.401456
0.39283
0.37808
0.365269
0.357689
0.363269
0.382673
0.405373
0.423001
0.436738
0.454706
0.396626
0.39656
0.41855
0.439251
0.425465
0.387356
0.364758
0.350611
0.339204
0.337886
0.342965
0.349182
0.352468
0.354817
0.351979
0.358687
0.369532
0.390851
0.392306
0.385022
0.377501
0.365689
0.354362
0.351273
0.358263
0.381999
0.404769
0.418983
0.428525
0.452364
0.400814
0.403906
0.424581
0.441958
0.42934
0.389162
0.363119
0.347008
0.33801
0.336286
0.342699
0.348914
0.352302
0.353529
0.353925
0.358218
0.363327
0.379735
0.38099
0.375265
0.369308
0.359332
0.352032
0.351807
0.355261
0.380241
0.401714
0.412942
0.418731
0.437442
0.406102
0.410594
0.42881
0.442583
0.430826
0.389607
0.360296
0.343694
0.334515
0.334992
0.341289
0.34796
0.350584
0.350437
0.354497
0.356333
0.357641
0.371262
0.376622
0.371346
0.365286
0.359078
0.355205
0.355907
0.356934
0.382974
0.401122
0.411707
0.41778
0.431146
0.413633
0.413284
0.429554
0.441847
0.430946
0.389231
0.356884
0.33821
0.331088
0.333056
0.339359
0.346528
0.348112
0.348058
0.353
0.355604
0.356171
0.370249
0.376928
0.37064
0.366221
0.362793
0.361899
0.358789
0.361059
0.388605
0.403214
0.412833
0.418375
0.427697
0.423949
0.414067
0.429423
0.438899
0.428597
0.38929
0.351697
0.333196
0.327309
0.331549
0.336865
0.343185
0.345198
0.345176
0.350214
0.355252
0.358379
0.375151
0.379058
0.371583
0.36874
0.369043
0.367107
0.362119
0.367595
0.395322
0.406109
0.414031
0.417603
0.424251
0.434639
0.417333
0.430425
0.434002
0.424668
0.388461
0.347661
0.328674
0.325542
0.329484
0.335528
0.340132
0.340694
0.34215
0.348523
0.356659
0.363228
0.382606
0.384674
0.373917
0.371933
0.373938
0.371553
0.366027
0.374938
0.401191
0.408502
0.414491
0.414428
0.420822
0.442764
0.422748
0.432255
0.428902
0.420225
0.389388
0.345064
0.326427
0.323687
0.328229
0.334344
0.338492
0.338614
0.341303
0.349108
0.359233
0.370483
0.3917
0.389504
0.376704
0.374777
0.377257
0.374732
0.369199
0.381052
0.403956
0.40972
0.413107
0.409918
0.417765
0.44541
0.428582
0.434538
0.426051
0.41552
0.389535
0.343976
0.324664
0.323889
0.327147
0.334013
0.33889
0.339969
0.34408
0.351123
0.363592
0.378058
0.398072
0.392269
0.378178
0.377582
0.379504
0.376474
0.370558
0.384434
0.405437
0.409201
0.410115
0.403495
0.414942
0.44529
0.431044
0.434738
0.424439
0.410104
0.390383
0.343347
0.324187
0.324486
0.327869
0.334071
0.339893
0.345331
0.349615
0.35594
0.367833
0.385497
0.402726
0.394539
0.38028
0.380523
0.381442
0.375719
0.369702
0.388748
0.408506
0.411696
0.408694
0.399042
0.411055
0.444201
0.428452
0.431095
0.42274
0.407227
0.390651
0.347245
0.324656
0.325452
0.329003
0.333794
0.341453
0.350632
0.35695
0.361801
0.373048
0.390046
0.406062
0.39684
0.382228
0.38348
0.381372
0.373234
0.370782
0.395808
0.415109
0.41366
0.407004
0.395319
0.406612
0.440743
0.422925
0.426298
0.421152
0.405285
0.393192
0.351262
0.328521
0.326449
0.330006
0.333572
0.342761
0.355157
0.361436
0.368621
0.37748
0.392842
0.40686
0.399034
0.383756
0.384756
0.379813
0.371463
0.374935
0.404928
0.419719
0.413258
0.403993
0.391028
0.402292
0.435739
0.419795
0.420749
0.415521
0.40432
0.396118
0.357828
0.333388
0.328289
0.330724
0.332816
0.345559
0.357077
0.363702
0.372656
0.382924
0.393917
0.406291
0.400163
0.384527
0.383892
0.378575
0.374068
0.382543
0.413697
0.420874
0.411426
0.400981
0.387361
0.399164
0.430881
0.421342
0.416108
0.408835
0.402605
0.399252
0.365285
0.339387
0.330375
0.331111
0.33318
0.34734
0.359116
0.363475
0.37452
0.386058
0.395966
0.403978
0.400244
0.385623
0.382548
0.379177
0.380634
0.392286
0.419464
0.41954
0.408913
0.397429
0.386566
0.397411
0.431034
0.426018
0.415285
0.401744
0.400379
0.400047
0.373528
0.345527
0.333392
0.3321
0.3348
0.350571
0.360338
0.365493
0.373952
0.387923
0.397544
0.401334
0.399385
0.386495
0.380883
0.382153
0.388997
0.401285
0.420675
0.416316
0.404338
0.395005
0.386779
0.396914
0.433068
0.428007
0.412832
0.397269
0.39736
0.39966
0.38118
0.353242
0.336924
0.333325
0.338363
0.354127
0.363386
0.368229
0.377065
0.388526
0.399565
0.398801
0.39822
0.387098
0.380757
0.387025
0.397723
0.407447
0.419664
0.411896
0.401313
0.394517
0.38712
0.399432
0.435747
0.424655
0.408045
0.395375
0.393995
0.397599
0.387269
0.360692
0.340928
0.335509
0.341404
0.359125
0.367089
0.373721
0.381471
0.392233
0.400394
0.398078
0.397366
0.389061
0.38198
0.391532
0.404549
0.410838
0.419183
0.409508
0.400012
0.394325
0.386452
0.403754
0.437896
0.418733
0.402055
0.392649
0.390038
0.395188
0.389272
0.36637
0.344945
0.337072
0.344879
0.363115
0.372555
0.378879
0.38778
0.395541
0.402671
0.398464
0.398076
0.392022
0.383946
0.394564
0.408022
0.413849
0.419545
0.408747
0.40126
0.396335
0.389547
0.408552
0.438101
0.410978
0.395442
0.38837
0.386601
0.393713
0.391637
0.368213
0.347549
0.337511
0.34772
0.36696
0.375673
0.383406
0.390963
0.399039
0.403671
0.400268
0.399575
0.395949
0.387565
0.397263
0.408661
0.416298
0.419332
0.410184
0.404238
0.400062
0.394931
0.412593
0.431605
0.401312
0.389094
0.384361
0.386199
0.392311
0.39235
0.36846
0.348869
0.336989
0.34994
0.369738
0.377534
0.38416
0.393295
0.400532
0.405759
0.401955
0.402232
0.400902
0.395146
0.399212
0.407796
0.418698
0.419926
0.412264
0.408701
0.405988
0.401062
0.416907
0.423514
0.392091
0.383617
0.383796
0.386742
0.390323
0.390504
0.367391
0.350465
0.338381
0.350711
0.371904
0.376814
0.385306
0.394031
0.402484
0.405742
0.404088
0.405026
0.407119
0.402672
0.400774
0.407415
0.421705
0.421984
0.417165
0.415355
0.412743
0.407306
0.424085
0.416548
0.386369
0.381902
0.38521
0.387473
0.388948
0.387832
0.366924
0.353072
0.342137
0.352399
0.37211
0.377618
0.38522
0.396122
0.402407
0.406119
0.405016
0.407809
0.409269
0.407332
0.403342
0.409759
0.426721
0.426404
0.42396
0.421835
0.419613
0.416839
0.431623
0.408785
0.385106
0.383211
0.38638
0.389422
0.388829
0.387245
0.368027
0.357005
0.348056
0.354547
0.373376
0.38022
0.389591
0.396881
0.404106
0.406565
0.406734
0.407124
0.409525
0.410166
0.407606
0.415324
0.433819
0.432728
0.43115
0.4298
0.428313
0.424854
0.437065
0.405564
0.385842
0.385322
0.387319
0.391471
0.3915
0.389024
0.371457
0.361702
0.353244
0.356178
0.373944
0.387015
0.39472
0.401844
0.407366
0.409507
0.407376
0.407518
0.411039
0.41373
0.411555
0.42229
0.441797
0.438787
0.438931
0.438623
0.434105
0.428767
0.439653
0.407842
0.390749
0.388695
0.388745
0.393589
0.395407
0.393168
0.375611
0.365176
0.357378
0.35602
0.373146
0.389099
0.397937
0.403883
0.410632
0.411096
0.410076
0.409658
0.414999
0.416377
0.415493
0.429232
0.44796
0.444912
0.446326
0.442906
0.438234
0.430635
0.439101
0.413311
0.39997
0.396675
0.395991
0.396904
0.400115
0.399588
0.379733
0.366718
0.358573
0.357695
0.369124
0.381854
0.393987
0.403831
0.410313
0.41394
0.413016
0.414601
0.419445
0.420463
0.418563
0.434236
0.452667
0.450757
0.448794
0.446132
0.443177
0.433627
0.437485
0.421351
0.403745
0.405066
0.405097
0.403388
0.405304
0.405601
0.383904
0.364634
0.355997
0.358447
0.364781
0.373323
0.389753
0.398041
0.407603
0.412697
0.416199
0.422153
0.425274
0.424873
0.422073
0.434759
0.454221
0.452912
0.451421
0.449214
0.446491
0.436744
0.43691
0.429042
0.404174
0.405411
0.41004
0.40991
0.410883
0.410084
0.38552
0.356733
0.349413
0.354963
0.359093
0.370804
0.383124
0.39611
0.40531
0.412764
0.420795
0.430054
0.430456
0.429067
0.424784
0.43152
0.454107
0.455761
0.453553
0.451497
0.448921
0.438439
0.436635
0.43178
0.403267
0.400772
0.405524
0.412048
0.415711
0.413348
0.38207
0.345534
0.340872
0.346823
0.356117
0.367059
0.378274
0.388638
0.401513
0.415482
0.429093
0.432498
0.435078
0.431341
0.426828
0.427995
0.450413
0.45702
0.455171
0.453117
0.450155
0.437511
0.436131
0.431906
0.396553
0.392843
0.398616
0.407542
0.416048
0.412494
0.37073
0.338108
0.33564
0.342902
0.350197
0.360273
0.367344
0.37755
0.392291
0.41609
0.433221
0.43622
0.437479
0.433991
0.426562
0.426157
0.442007
0.455984
0.456466
0.454909
0.450338
0.434146
0.434691
0.427568
0.385783
0.385732
0.392605
0.402313
0.411581
0.403437
0.358047
0.336121
0.336963
0.338282
0.338605
0.341216
0.347262
0.360768
0.383554
0.409258
0.429135
0.438847
0.440587
0.435314
0.426308
0.424267
0.434292
0.451192
0.457659
0.455924
0.448755
0.431285
0.433801
0.417094
0.379676
0.381028
0.388665
0.396311
0.406405
0.39108
0.351245
0.336994
0.337051
0.331813
0.325296
0.323347
0.324893
0.337761
0.366237
0.397281
0.416433
0.43684
0.441513
0.432154
0.419229
0.420409
0.428132
0.44394
0.456902
0.45535
0.445956
0.428379
0.433652
0.414027
0.376581
0.376858
0.3842
0.39132
0.400294
0.382975
0.350417
0.337687
0.331675
0.323338
0.318301
0.316531
0.320981
0.33079
0.349727
0.374872
0.396267
0.417842
0.430472
0.418554
0.41032
0.411549
0.421706
0.435338
0.454001
0.454087
0.442652
0.426664
0.432251
0.415069
0.373846
0.374375
0.381059
0.38886
0.397991
0.37852
0.352644
0.337075
0.323133
0.317033
0.314523
0.317025
0.32005
0.329788
0.341981
0.35614
0.373357
0.393662
0.418888
0.412436
0.402094
0.402449
0.412263
0.426626
0.4482
0.450418
0.438334
0.425759
0.43056
0.418411
0.375881
0.374111
0.380449
0.388019
0.394834
0.376732
0.354432
0.335863
0.316662
0.313166
0.315206
0.316578
0.320073
0.32726
0.336572
0.344449
0.361944
0.381131
0.409706
0.409739
0.396614
0.395752
0.405535
0.417831
0.438944
0.445216
0.432512
0.425197
0.430817
0.420687
0.381525
0.380416
0.381621
0.386616
0.390983
0.376787
0.353985
0.335054
0.313833
0.312583
0.313631
0.316109
0.318108
0.325407
0.331887
0.338499
0.35464
0.37471
0.400793
0.406244
0.394425
0.392281
0.40167
0.411673
0.431442
0.438364
0.425082
0.420655
0.434256
0.420648
0.38903
0.390173
0.386447
0.386115
0.388776
0.37783
0.355561
0.335838
0.316302
0.311927
0.314224
0.315196
0.317863
0.323582
0.330247
0.335218
0.347247
0.365679
0.395523
0.402057
0.393741
0.391893
0.401141
0.410428
0.428154
0.427794
0.413415
0.405139
0.433887
0.416417
0.393586
0.39635
0.392016
0.386394
0.388066
0.380494
0.359255
0.340692
0.322152
0.315826
0.315621
0.316766
0.318175
0.324583
0.330759
0.33635
0.343057
0.354912
0.383434
0.399068
0.39487
0.396047
0.405175
0.414291
0.427809
0.420087
0.41208
0.405354
0.425038
0.403768
0.392108
0.394354
0.393092
0.386839
0.389508
0.384893
0.364071
0.347821
0.332088
0.322939
0.323234
0.321394
0.321755
0.326207
0.333468
0.338688
0.343956
0.352425
0.369749
0.390379
0.400318
0.4026
0.412706
0.421971
0.432681
0.421742
0.415601
0.407381
0.420745
0.389587
0.384514
0.388924
0.392074
0.38906
0.39318
0.390933
0.36954
0.356213
0.344428
0.332214
0.33
0.331003
0.329081
0.330727
0.335244
0.340945
0.344572
0.352293
0.363755
0.387222
0.403301
0.409697
0.419198
0.431153
0.438532
0.423311
0.417033
0.408258
0.418184
0.383345
0.377466
0.385124
0.392617
0.392263
0.396918
0.396294
0.375107
0.363496
0.35496
0.342084
0.33752
0.336646
0.338966
0.337889
0.33927
0.342816
0.345716
0.353258
0.37079
0.391894
0.408511
0.412666
0.421297
0.436894
0.437987
0.42047
0.415392
0.403752
0.414054
0.383833
0.375542
0.383536
0.393005
0.395979
0.401071
0.400361
0.379238
0.369938
0.361348
0.352343
0.346109
0.342987
0.343794
0.345643
0.345697
0.348331
0.350384
0.362713
0.384674
0.401437
0.412231
0.41548
0.420181
0.437792
0.432067
0.416597
0.411087
0.399579
0.408854
0.388038
0.375815
0.38154
0.392486
0.398621
0.40646
0.403659
0.382432
0.373601
0.366873
0.359493
0.354699
0.349179
0.348713
0.349986
0.352768
0.354573
0.357975
0.373003
0.399027
0.40957
0.415718
0.416225
0.419632
0.436547
0.428875
0.413102
0.407576
0.397823
0.408698
0.397085
0.379218
0.380021
0.389252
0.400101
0.411313
0.407148
0.384756
0.377003
0.370508
0.366322
0.36046
0.356094
0.353767
0.355234
0.358091
0.360557
0.364999
0.383478
0.409423
0.418202
0.417657
0.418121
0.42007
0.438891
0.428568
0.412777
0.40657
0.399506
0.411994
0.412359
0.387683
0.384708
0.388374
0.398093
0.413658
0.409418
0.387177
0.37811
0.374319
0.370756
0.365925
0.360634
0.358847
0.35926
0.362485
0.365233
0.372559
0.392775
0.416896
0.424128
0.421895
0.420743
0.421613
0.443099
0.430916
0.415523
0.410425
0.403201
0.411795
0.424528
0.403318
0.397337
0.395814
0.398625
0.411953
0.409415
0.388862
0.379579
0.376838
0.374285
0.369703
0.364745
0.360745
0.362767
0.365054
0.370331
0.379011
0.40032
0.422534
0.429563
0.427193
0.425805
0.4256
0.44773
0.433826
0.418425
0.411121
0.401939
0.411188
0.430915
0.419081
0.413908
0.409008
0.407381
0.413161
0.406557
0.389693
0.381628
0.379949
0.375362
0.370402
0.364689
0.360769
0.363623
0.367365
0.373904
0.384415
0.404431
0.427707
0.433242
0.431842
0.428827
0.429549
0.449757
0.433918
0.418567
0.4095
0.398955
0.41196
0.435113
0.42918
0.428775
0.425468
0.420751
0.418265
0.406628
0.390486
0.382631
0.378584
0.373595
0.368125
0.362381
0.357692
0.362836
0.367675
0.375108
0.387773
0.407351
0.428021
0.434494
0.433578
0.431488
0.432903
0.450447
0.433535
0.418032
0.407084
0.395821
0.413009
0.437287
0.436059
0.438391
0.438356
0.434041
0.425865
0.411069
0.393462
0.38251
0.373089
0.367377
0.364464
0.357655
0.355292
0.360738
0.368109
0.375356
0.3893
0.408981
0.426876
0.434847
0.434896
0.432298
0.435229
0.449685
0.435255
0.419866
0.407141
0.393416
0.414096
0.436811
0.439672
0.444222
0.444997
0.443129
0.434819
0.416213
0.397009
0.381888
0.364933
0.360691
0.356935
0.353415
0.353779
0.361616
0.368682
0.377786
0.392249
0.411439
0.425662
0.43429
0.432217
0.431129
0.43536
0.448656
0.438585
0.426843
0.415175
0.400364
0.419524
0.437015
0.441523
0.448168
0.448794
0.448782
0.440913
0.419461
0.398525
0.373716
0.358009
0.353973
0.352182
0.349509
0.35414
0.361867
0.369701
0.378596
0.393932
0.410919
0.423733
0.429646
0.425217
0.424962
0.433358
0.44743
0.442348
0.437032
0.431967
0.416195
0.42333
0.4375
0.442608
0.451245
0.452313
0.452148
0.441762
0.416645
0.388901
0.362899
0.350669
0.348992
0.346968
0.348373
0.35311
0.362659
0.370345
0.379897
0.392888
0.407246
0.419138
0.421692
0.415412
0.419478
0.432714
0.44879
0.447567
0.448637
0.449057
0.430947
0.425511
0.437269
0.438414
0.45033
0.451443
0.453949
0.44088
0.408101
0.378103
0.356426
0.345901
0.344453
0.345528
0.347099
0.353672
0.362737
0.37289
0.38171
0.393967
0.405046
0.41518
0.413009
0.404586
0.412532
0.432164
0.451589
0.454963
0.45964
0.45746
0.438518
0.429072
0.436416
0.432465
0.446558
0.450423
0.452027
0.439077
0.402708
0.371565
0.350172
0.342274
0.34341
0.345171
0.349911
0.35615
0.366361
0.376696
0.385907
0.396799
0.407714
0.412262
0.404897
0.392874
0.402864
0.427902
0.451451
0.460126
0.462031
0.45417
0.439451
0.433203
0.428538
0.427361
0.445421
0.450559
0.450589
0.431794
0.398087
0.367443
0.346968
0.343068
0.344464
0.349741
0.354961
0.362272
0.370951
0.381368
0.390207
0.402682
0.411168
0.409942
0.400584
0.387862
0.392042
0.418116
0.445955
0.45632
0.454805
0.446857
0.434408
0.43596
0.420684
0.426321
0.446504
0.452471
0.449697
0.426177
0.390396
0.36388
0.351787
0.347703
0.350131
0.355396
0.361821
0.367773
0.375971
0.383206
0.395292
0.407831
0.415013
0.409496
0.396611
0.384887
0.385531
0.409165
0.441397
0.451194
0.449041
0.441153
0.430491
0.43682
0.423772
0.427405
0.446238
0.454571
0.450448
0.422603
0.38539
0.3646
0.356531
0.356153
0.357573
0.36227
0.366127
0.372453
0.379229
0.385307
0.397748
0.410365
0.414131
0.406014
0.391305
0.383391
0.384884
0.402843
0.43996
0.452421
0.448015
0.438784
0.431586
0.435234
0.436461
0.42939
0.444653
0.455444
0.453205
0.42094
0.387873
0.366917
0.362085
0.361715
0.365583
0.368867
0.372182
0.376561
0.382964
0.387863
0.399407
0.409099
0.409243
0.399169
0.389456
0.384839
0.388562
0.398576
0.433047
0.452434
0.448152
0.438388
0.432213
0.435018
0.44498
0.434698
0.445606
0.455765
0.454678
0.423844
0.394917
0.374284
0.367818
0.367709
0.370358
0.374537
0.377934
0.383883
0.388525
0.392797
0.401325
0.405814
0.401566
0.39677
0.390973
0.387178
0.388982
0.394272
0.420444
0.445051
0.445145
0.437873
0.431027
0.440135
0.444577
0.440275
0.450651
0.457935
0.454152
0.425763
0.399871
0.383964
0.375566
0.372631
0.375158
0.378448
0.384657
0.390563
0.395749
0.397986
0.403294
0.401543
0.398336
0.39723
0.390232
0.384749
0.388248
0.391079
0.406529
0.435459
0.436318
0.436068
0.436014
0.441171
0.439275
0.440054
0.453947
0.463738
0.452282
0.426233
0.400773
0.389938
0.381713
0.377038
0.378036
0.382992
0.389755
0.396732
0.400302
0.402649
0.40274
0.400901
0.397654
0.394517
0.385953
0.381548
0.384264
0.386367
0.392388
0.423637
0.42876
0.42947
0.432444
0.437743
0.433868
0.439103
0.455479
0.46803
0.4526
0.42354
0.402217
0.392444
0.385467
0.378326
0.380229
0.386081
0.394132
0.399437
0.403467
0.403742
0.40244
0.40003
0.394325
0.388567
0.380982
0.375473
0.377684
0.379857
0.383415
0.405373
0.420309
0.418679
0.420967
0.429893
0.431271
0.438626
0.457261
0.469496
0.45318
0.420309
0.403049
0.394797
0.385413
0.379469
0.38153
0.389407
0.396349
0.401473
0.403022
0.403198
0.402328
0.395983
0.387399
0.381488
0.37385
0.368015
0.369979
0.374457
0.378256
0.392523
0.410182
0.40813
0.408547
0.420904
0.431175
0.439635
0.459466
0.47076
0.450468
0.417479
0.403005
0.394397
0.385889
0.381653
0.38543
0.39222
0.399326
0.403055
0.405124
0.406136
0.406108
0.394291
0.384142
0.377495
0.36804
0.362979
0.365826
0.370073
0.374606
0.383871
0.394221
0.394461
0.391771
0.407558
0.435319
0.442167
0.461491
0.472049
0.444805
0.415016
0.401051
0.394437
0.386357
0.385165
0.388454
0.394601
0.399268
0.405221
0.409207
0.412852
0.408856
0.394001
0.38366
0.371763
0.361065
0.356641
0.358348
0.364317
0.370431
0.380322
0.382054
0.377684
0.373037
0.39309
0.442966
0.445038
0.463633
0.47112
0.440089
0.41168
0.400096
0.39425
0.388818
0.387522
0.391739
0.396919
0.402882
0.408146
0.412105
0.409135
0.400125
0.387436
0.374515
0.362802
0.356649
0.352331
0.353609
0.359325
0.368346
0.379186
0.377568
0.368688
0.365713
0.38522
0.448002
0.455025
0.466791
0.464236
0.435463
0.410607
0.399832
0.394659
0.391237
0.391762
0.395367
0.401779
0.405914
0.408287
0.405916
0.401337
0.391307
0.379155
0.368593
0.361575
0.357843
0.354907
0.35343
0.359173
0.368772
0.378154
0.374666
0.364676
0.362021
0.383107
0.447785
0.460529
0.469621
0.456389
0.428993
0.41106
0.401706
0.39597
0.39443
0.394665
0.398812
0.404245
0.407244
0.403935
0.4011
0.395228
0.384264
0.374834
0.368729
0.364044
0.360848
0.358093
0.35621
0.360412
0.368641
0.37641
0.37239
0.363317
0.359756
0.383632
0.446342
0.461315
0.471973
0.450938
0.424578
0.412678
0.404117
0.398989
0.396796
0.39788
0.399733
0.404945
0.404046
0.401328
0.39769
0.391033
0.380065
0.373916
0.370569
0.366493
0.363366
0.359943
0.356879
0.360253
0.367524
0.37429
0.370932
0.36388
0.359342
0.388321
0.447583
0.461374
0.469313
0.443653
0.421027
0.413442
0.406697
0.402026
0.400554
0.39981
0.400336
0.401849
0.400212
0.399381
0.397372
0.387532
0.379081
0.375224
0.37288
0.368827
0.366021
0.361434
0.357802
0.359292
0.367343
0.373258
0.370532
0.365974
0.36282
0.401403
0.451783
0.461526
0.462208
0.434551
0.41863
0.413919
0.408096
0.405339
0.402523
0.401918
0.399746
0.397177
0.395109
0.397723
0.394872
0.385697
0.378688
0.377475
0.376011
0.372498
0.36953
0.364614
0.359838
0.359598
0.368738
0.374445
0.373061
0.37245
0.374287
0.417933
0.452384
0.456342
0.454044
0.428481
0.418047
0.413746
0.409374
0.40644
0.404387
0.402823
0.399019
0.390343
0.388249
0.391753
0.389256
0.38126
0.379791
0.380627
0.380405
0.377257
0.373901
0.368495
0.363723
0.362384
0.37278
0.379669
0.381063
0.384026
0.38982
0.437159
0.449539
0.450084
0.446341
0.425708
0.417301
0.413463
0.410371
0.408298
0.405227
0.403838
0.395504
0.385608
0.381235
0.383233
0.379036
0.37601
0.380533
0.384297
0.385297
0.38264
0.378905
0.37331
0.36904
0.368249
0.379769
0.389586
0.3933
0.396944
0.408366
0.455193
0.44585
0.442027
0.439279
0.425406
0.418049
0.41334
0.412134
0.409815
0.407415
0.404108
0.393993
0.383813
0.380922
0.376873
0.371049
0.371154
0.382153
0.38999
0.391862
0.390556
0.386373
0.379917
0.376064
0.376926
0.39025
0.402974
0.406811
0.411813
0.424348
0.45734
0.439354
0.431514
0.436348
0.426833
0.419322
0.412094
0.41181
0.411982
0.409008
0.404122
0.396666
0.389529
0.385051
0.378382
0.367838
0.368036
0.381379
0.396157
0.401913
0.400781
0.396021
0.388203
0.384614
0.38858
0.403197
0.417087
0.420555
0.418412
0.424323
0.452859
0.432832
0.426281
0.43595
0.427462
0.418854
0.410958
0.410701
0.411034
0.411112
0.409642
0.405788
0.39688
0.39204
0.381324
0.36933
0.362332
0.373142
0.39103
0.404389
0.409717
0.405687
0.397735
0.394919
0.40162
0.416531
0.42937
0.424818
0.415656
0.420117
0.445585
0.427493
0.422486
0.43327
0.428035
0.419233
0.412111
0.41077
0.410785
0.412747
0.415526
0.412699
0.403788
0.395256
0.383587
0.369193
0.360097
0.362288
0.382213
0.39988
0.411427
0.413717
0.407875
0.406821
0.415139
0.429303
0.433384
0.423698
0.410586
0.413732
0.431646
0.42133
0.418458
0.43048
0.429982
0.421901
0.414141
0.411728
0.411843
0.413582
0.414976
0.414932
0.40629
0.397002
0.384679
0.371846
0.359398
0.355072
0.369168
0.392128
0.409208
0.417573
0.417067
0.4192
0.427585
0.435698
0.433208
0.420801
0.403617
0.398864
0.412276
0.415451
0.415511
0.428099
0.4313
0.424925
0.416365
0.413761
0.414084
0.412679
0.413266
0.411321
0.40556
0.396813
0.387495
0.373966
0.36073
0.352016
0.357355
0.382724
0.404823
0.41818
0.42329
0.430022
0.435738
0.436989
0.430964
0.415195
0.390292
0.377873
0.388273
0.411028
0.411356
0.425093
0.431039
0.426928
0.41915
0.417101
0.414632
0.412316
0.409972
0.407259
0.401546
0.396029
0.388008
0.376288
0.361769
0.353467
0.353711
0.373921
0.400084
0.417647
0.425299
0.436139
0.4389
0.434437
0.423098
0.401129
0.36702
0.350101
0.367527
0.407076
0.406339
0.421322
0.429421
0.427953
0.420516
0.418231
0.415516
0.411695
0.407027
0.402499
0.397966
0.393401
0.387197
0.376306
0.364976
0.356418
0.355844
0.36883
0.396189
0.415795
0.425199
0.435738
0.437568
0.429383
0.412484
0.383911
0.342624
0.339366
0.364467
0.404055
0.402421
0.41803
0.427759
0.428307
0.419598
0.417567
0.415277
0.411434
0.40461
0.400627
0.396131
0.392845
0.385269
0.376704
0.36697
0.359971
0.358562
0.36691
0.391691
0.412462
0.422413
0.429509
0.433551
0.42511
0.404132
0.369449
0.337779
0.339969
0.362486
0.402895
0.400071
0.417888
0.427754
0.430516
0.420976
0.418649
0.418167
0.411806
0.405524
0.401248
0.39765
0.391528
0.382591
0.374294
0.367944
0.361264
0.360169
0.365645
0.385065
0.408087
0.418167
0.422088
0.426392
0.422643
0.402863
0.366121
0.341346
0.342942
0.361932
0.403304
0.399745
0.420356
0.430506
0.435144
0.425988
0.423165
0.421612
0.414435
0.406809
0.403006
0.397884
0.388898
0.378384
0.372475
0.365923
0.36111
0.359789
0.362927
0.375983
0.404427
0.416277
0.418932
0.420318
0.418632
0.405087
0.370797
0.347699
0.347627
0.363634
0.406948
0.402816
0.423625
0.434277
0.44045
0.432273
0.426784
0.424331