/*--------------------------------*- C++ -*----------------------------------*\
| =========                 |                                                 |
| \\      /  F ield         | OpenFOAM: The Open Source CFD Toolbox           |
|  \\    /   O peration     | Version:  2.3.0                                 |
|   \\  /    A nd           | Web:      www.OpenFOAM.org                      |
|    \\/     M anipulation  |                                                 |
\*---------------------------------------------------------------------------*/
FoamFile
{
    version     2.0;
    format      ascii;
    class       volScalarField;
    location    "1.67";
    object      nut.air;
}
// * * * * * * * * * * * * * * * * * * * * * * * * * * * * * * * * * * * * * //

dimensions      [0 2 -1 0 0 0 0];

internalField   nonuniform List<scalar> 
6000
(
0.00050768
0.00441598
0.00748537
0.00840339
0.0087549
0.00890167
0.00898844
0.00906077
0.00911649
0.00914939
0.00913201
0.00912531
0.00916234
0.00927662
0.00938331
0.00946968
0.00950764
0.00948314
0.00941773
0.00938124
0.0093576
0.00931014
0.00923752
0.00916028
0.0090141
0.00875955
0.00832609
0.00733198
0.00435355
0.000510734
0.000447145
0.00314407
0.0059528
0.0076653
0.00850488
0.00894174
0.00919322
0.009361
0.00947431
0.00957506
0.00965938
0.00971311
0.0098513
0.0100706
0.0102308
0.010345
0.0104258
0.0104673
0.0104614
0.0103645
0.0102471
0.0101287
0.0099929
0.00974278
0.00932656
0.00866907
0.00760357
0.00574047
0.00300546
0.000435322
0.000412039
0.00275368
0.00528144
0.00703311
0.0080993
0.00872976
0.00914884
0.00944966
0.0096772
0.00985028
0.00999922
0.0101877
0.0105024
0.010764
0.0109462
0.0110308
0.0111184
0.011168
0.0111597
0.0110845
0.010962
0.0107723
0.0104861
0.0100567
0.0094485
0.00857647
0.00722062
0.0052137
0.00263579
0.000388895
0.000375637
0.0023523
0.00466397
0.00647264
0.00775034
0.00857488
0.00914573
0.00955956
0.00985326
0.0101028
0.0103497
0.010682
0.0111256
0.0113441
0.0115275
0.0116387
0.0117292
0.0117781
0.0117644
0.0116989
0.0115643
0.0113352
0.0109656
0.0104232
0.00968162
0.00866098
0.00718487
0.00506145
0.00249488
0.000354388
0.000334799
0.00192718
0.00409213
0.00591806
0.00733157
0.00839347
0.0091402
0.00965074
0.0100297
0.0103632
0.0107138
0.0111861
0.0116677
0.0118743
0.0120197
0.0122007
0.0123111
0.0123795
0.0123682
0.0122869
0.0121255
0.0118508
0.0114233
0.0108125
0.00999193
0.0088971
0.00737687
0.00516795
0.00244429
0.000329675
0.00030193
0.0017602
0.00372175
0.00552158
0.00703425
0.00824011
0.00911856
0.00973459
0.0101968
0.010613
0.0110594
0.0116286
0.012134
0.0123922
0.0126098
0.0128272
0.0130028
0.0130833
0.0130409
0.0129294
0.0127222
0.0123845
0.0118834
0.0112056
0.0103305
0.0092027
0.00765979
0.0054142
0.00259123
0.000321926
0.000279332
0.00173008
0.00356625
0.00525874
0.00680738
0.00809718
0.00907047
0.00980379
0.0103576
0.0108479
0.0113551
0.011974
0.0125391
0.0128631
0.0131165
0.0134401
0.0137891
0.0139241
0.0138512
0.0136618
0.0133952
0.0130022
0.0124214
0.0116379
0.0106766
0.0095136
0.00791556
0.00560843
0.00277177
0.000323834
0.000261726
0.00176889
0.00359684
0.0052733
0.00674466
0.0079896
0.00902032
0.00984974
0.0105422
0.0110959
0.0116369
0.0122446
0.0128685
0.0133056
0.0135742
0.013944
0.0144456
0.0146945
0.0147391
0.0144766
0.0141298
0.0136885
0.0130636
0.0121612
0.011068
0.00981854
0.0081169
0.00569385
0.00279786
0.000327099
0.000249531
0.00188703
0.00385514
0.00555836
0.0069714
0.00814814
0.00914226
0.00998784
0.0107439
0.0113797
0.0119308
0.0124938
0.0130888
0.01365
0.0140179
0.0143945
0.0149155
0.0152965
0.0155129
0.0152983
0.0148758
0.0143808
0.0137
0.0127375
0.0115135
0.0101372
0.00830901
0.00574555
0.00269539
0.000326309
0.000249188
0.00208812
0.00424553
0.00599073
0.00735323
0.00845682
0.00940339
0.0102612
0.0110262
0.0117246
0.0123314
0.0128894
0.01345
0.0140018
0.0144622
0.0148671
0.0154214
0.015866
0.0161422
0.0159939
0.0155423
0.0150026
0.0142311
0.013234
0.0119648
0.010492
0.00857101
0.0059003
0.00270512
0.000329059
0.000256722
0.00237151
0.00468937
0.00650051
0.00789495
0.00900299
0.00990336
0.0106847
0.0114376
0.0121655
0.0128284
0.0134325
0.0140222
0.0146069
0.0150925
0.0154402
0.0159373
0.0163872
0.0167103
0.0165587
0.016054
0.015479
0.0146643
0.0136386
0.0123562
0.0108393
0.0089245
0.00625384
0.00295163
0.000343691
0.000276069
0.0026788
0.00513322
0.00700569
0.00843148
0.0095678
0.0104949
0.0112953
0.0120258
0.0126927
0.0133935
0.0140733
0.0147242
0.0153383
0.0158218
0.01612
0.016476
0.0168484
0.0171882
0.0170297
0.0164553
0.0158172
0.0150114
0.0139911
0.0127077
0.0111867
0.00932244
0.00671539
0.00332935
0.000365414
0.000294974
0.00288523
0.00546611
0.00742675
0.00892404
0.0100973
0.0110724
0.0119067
0.0126844
0.0134101
0.0140767
0.0148131
0.015551
0.0162214
0.0166468
0.016893
0.017091
0.0173322
0.0176209
0.0174606
0.016845
0.0161443
0.0153171
0.0142932
0.0130211
0.0115249
0.00970081
0.00713416
0.00368408
0.000381347
0.000311575
0.00306628
0.0057383
0.00777376
0.00933479
0.010576
0.0115932
0.0124762
0.0133048
0.0141016
0.0148648
0.0155943
0.0163156
0.0169304
0.0173647
0.0176383
0.0177762
0.0178804
0.0180791
0.0179056
0.0172576
0.0165059
0.0156205
0.0145611
0.0132872
0.0118212
0.00999222
0.00740349
0.00387998
0.000395116
0.000342201
0.00320909
0.00594525
0.00803502
0.00966782
0.0109799
0.0120722
0.0129947
0.0138747
0.0147423
0.0155452
0.0162633
0.0169223
0.0175025
0.0180238
0.0183514
0.0184612
0.0184806
0.018563
0.0183771
0.0176733
0.0168573
0.0159046
0.0148016
0.0135216
0.0120533
0.0101207
0.00745633
0.0039155
0.000408019
0.000360378
0.00326806
0.00602976
0.00817016
0.00989867
0.0113067
0.0124889
0.0134987
0.0143992
0.015288
0.0160681
0.0167837
0.0174662
0.0181109
0.018643
0.0189872
0.0190778
0.0190344
0.0190252
0.0188383
0.0180729
0.0171616
0.0161203
0.0149738
0.0136536
0.0121118
0.0100794
0.00735896
0.00379779
0.000412973
0.000392901
0.00313484
0.00586019
0.00813565
0.0100066
0.0115355
0.0128159
0.0138727
0.0147876
0.0156385
0.0163691
0.0170965
0.0178523
0.0185609
0.0191379
0.0194856
0.0195436
0.0194622
0.0193547
0.0192136
0.0184556
0.0174204
0.0162877
0.0150837
0.0137061
0.0120646
0.00995013
0.00715107
0.00352948
0.000396727
0.000390566
0.00314172
0.00592703
0.00816328
0.0100376
0.0116482
0.0129652
0.0140432
0.0149487
0.0157534
0.0164631
0.0171867
0.0180114
0.0187957
0.0194307
0.0198126
0.0198505
0.0197405
0.0196005
0.0194528
0.0188142
0.0176956
0.0164474
0.0151542
0.0137171
0.0119883
0.00976327
0.00686721
0.00324855
0.000372248
0.000377192
0.00308998
0.00586936
0.00813076
0.0100055
0.0115927
0.0129253
0.0140439
0.0149531
0.0157026
0.0163949
0.0170991
0.0179168
0.0187541
0.0194817
0.0199598
0.0200158
0.0199194
0.0197539
0.0194544
0.018995
0.0180146
0.0166794
0.0152732
0.0137557
0.0119755
0.0097307
0.00689641
0.00343474
0.000379386
0.00036488
0.00295996
0.00560954
0.00782132
0.00969034
0.011288
0.012687
0.0138838
0.0148348
0.015585
0.0162571
0.0169402
0.0177096
0.0185677
0.0193879
0.019964
0.0200671
0.0199988
0.0197897
0.0193922
0.0188738
0.0181638
0.0169782
0.0155084
0.0139033
0.0120861
0.00985963
0.00717107
0.00387118
0.000397637
0.00034989
0.00271735
0.00516891
0.00729864
0.00915274
0.0107805
0.0122404
0.0135192
0.014551
0.0153645
0.0160681
0.0167557
0.0174961
0.0183442
0.0192346
0.0198835
0.0200323
0.0199628
0.0197199
0.0192831
0.018691
0.0179734
0.0170346
0.0157676
0.0142066
0.0123629
0.0101848
0.00764462
0.00423215
0.000408498
0.000329099
0.00234612
0.00459684
0.00665238
0.00850471
0.0101849
0.0117108
0.0130695
0.0141869
0.0150825
0.0158448
0.0165589
0.0172935
0.0181314
0.0190486
0.0196889
0.0198738
0.0198262
0.0195718
0.0191349
0.018537
0.0177945
0.0168917
0.0158105
0.014483
0.0128156
0.0107771
0.008124
0.00437955
0.000426467
0.000304154
0.00189102
0.00398467
0.00597776
0.00783731
0.00959233
0.0111972
0.0126285
0.013819
0.0147889
0.0156089
0.0163539
0.0170944
0.0179227
0.0187977
0.0193742
0.0196118
0.0196133
0.0194022
0.0189978
0.0184278
0.0177027
0.0168267
0.0158011
0.0145867
0.0131169
0.0112488
0.00856382
0.00458873
0.000455027
0.000275974
0.00153006
0.00345464
0.00537782
0.00724984
0.00908403
0.0107675
0.0122567
0.0134988
0.0145203
0.0153838
0.0161546
0.0169013
0.0176942
0.0184759
0.0190176
0.0193187
0.0193878
0.0192389
0.0188916
0.018369
0.0176846
0.0168427
0.0158471
0.0146756
0.0132534
0.0114563
0.00879607
0.00476126
0.00047714
0.000248712
0.00130522
0.00307322
0.00492626
0.00683185
0.00873448
0.010468
0.0119794
0.013241
0.0142879
0.0151759
0.0159627
0.0167068
0.0174453
0.0181253
0.0186568
0.0190213
0.0191682
0.0190871
0.0188101
0.0183452
0.01771
0.0169059
0.0159282
0.0147462
0.0132763
0.011443
0.00876849
0.00480559
0.000486701
0.000224773
0.00116814
0.00284283
0.00468686
0.00666349
0.00857937
0.010311
0.0118017
0.0130518
0.0140994
0.0149917
0.0157776
0.0165021
0.0171839
0.0177888
0.0183029
0.018713
0.0189479
0.0189489
0.0187402
0.0183393
0.0177569
0.0169868
0.0160103
0.0147785
0.0132249
0.0112761
0.00859065
0.0047276
0.000488521
0.000202926
0.00109898
0.00281735
0.00474587
0.00673294
0.0086098
0.0102776
0.0117128
0.0129291
0.0139573
0.0148352
0.015603
0.016296
0.0169263
0.0174817
0.017968
0.0183844
0.0186906
0.0188066
0.0186753
0.0183408
0.0178094
0.0170703
0.016081
0.0147831
0.0131347
0.0110525
0.00838236
0.00462124
0.000485789
0.00019
0.00119512
0.00307491
0.00504386
0.006972
0.00874789
0.0103241
0.0116921
0.0128632
0.01386
0.0147117
0.0154505
0.0161052
0.0166899
0.017208
0.0176653
0.018065
0.018395
0.0186147
0.0186039
0.0183331
0.0178547
0.0171354
0.0161376
0.0147935
0.0130377
0.0108547
0.00820499
0.00452213
0.000476762
0.000190223
0.00136096
0.00338658
0.00537865
0.00724036
0.00892365
0.0104151
0.0117176
0.0128404
0.013801
0.0146222
0.0153293
0.0159465
0.0164905
0.0169723
0.0173983
0.0177714
0.0180921
0.0183545
0.0184861
0.0183229
0.017895
0.0172233
0.0162213
0.0148237
0.0129808
0.0107157
0.00807095
0.00437003
0.000465343
0.000201155
0.00170532
0.00380442
0.00574101
0.00750805
0.0091078
0.0105269
0.0117707
0.0128479
0.0137724
0.0145627
0.0152396
0.0158237
0.0163322
0.0167781
0.0171688
0.0175084
0.0178011
0.0180551
0.0182572
0.018252
0.0179173
0.0172889
0.0163047
0.0148861
0.0129968
0.0106985
0.00806463
0.00431053
0.00046297
0.000222356
0.0019359
0.00408224
0.00601963
0.00774054
0.0092761
0.0106428
0.011838
0.0128747
0.0137657
0.0145267
0.0151754
0.0157299
0.0162067
0.0166186
0.016974
0.0172781
0.0175368
0.0177601
0.0179581
0.0180672
0.0178515
0.0172985
0.0163646
0.0149726
0.0130886
0.0108104
0.00822888
0.00445774
0.000468981
0.000236763
0.00208439
0.00428102
0.00622193
0.00793014
0.00943086
0.0107514
0.0119104
0.0129129
0.0137737
0.0145072
0.0151291
0.0156559
0.0161028
0.0164827
0.0168051
0.0170766
0.017303
0.0174906
0.0176438
0.0177452
0.0176664
0.0172127
0.0163428
0.0150347
0.0132104
0.0110229
0.00850448
0.00469795
0.000484873
0.000246624
0.00218907
0.00442736
0.0063802
0.00808256
0.00956402
0.0108573
0.0119826
0.0129576
0.0137913
0.0144987
0.0150944
0.0155937
0.0160113
0.0163605
0.0166523
0.0168946
0.0170937
0.0172527
0.0173678
0.0174188
0.0173593
0.0169932
0.0161942
0.0150042
0.0132896
0.0112592
0.00880714
0.00492435
0.000503288
0.000254093
0.00226861
0.00454228
0.00651106
0.00821073
0.00967978
0.010955
0.0120577
0.0130056
0.0138158
0.0144981
0.0150675
0.0155387
0.0159263
0.0162444
0.0165056
0.0167198
0.0168941
0.0170316
0.0171241
0.0171407
0.017029
0.016717
0.0159922
0.0148619
0.0132863
0.011454
0.00907454
0.00513475
0.000520244
0.000260326
0.00233453
0.00464009
0.00662474
0.00832479
0.0097864
0.011047
0.0121327
0.0130609
0.0138462
0.0145048
0.0150477
0.0154895
0.0158454
0.0161305
0.0163588
0.0165425
0.0166906
0.0168102
0.0169011
0.0169292
0.016804
0.0164276
0.0157216
0.014651
0.0132478
0.0115737
0.00926304
0.00525115
0.000527394
0.000265962
0.00239388
0.00472974
0.00672964
0.00843193
0.00988862
0.0111382
0.0122089
0.01312
0.0138864
0.0145202
0.0150359
0.0154472
0.0157696
0.0160194
0.0162123
0.0163636
0.0164912
0.0166013
0.0166808
0.0167078
0.0166211
0.0163052
0.0156285
0.0146405
0.0133414
0.0117
0.00932473
0.00524536
0.000532306
0.000271384
0.00245073
0.00481631
0.00683096
0.0085366
0.00998974
0.0112307
0.0122892
0.0131851
0.0139331
0.0145458
0.0150356
0.0154169
0.0157048
0.0159177
0.0160757
0.0161946
0.0162871
0.0163694
0.0164477
0.0164725
0.0164064
0.0161265
0.0155503
0.0147074
0.013539
0.0118609
0.00925301
0.00515912
0.000559997
0.000276825
0.00250706
0.00490199
0.00693098
0.00864076
0.0100915
0.011326
0.0123747
0.0132575
0.0139889
0.0145805
0.0150443
0.0153943
0.0156487
0.0158278
0.0159517
0.0160365
0.0161024
0.0161643
0.0162272
0.0162719
0.0161695
0.0158262
0.0152616
0.0144453
0.0132879
0.0115569
0.0088645
0.00493281
0.000571826
0.000282426
0.00256347
0.00498696
0.00702988
0.00874457
0.0101943
0.0114242
0.0124651
0.0133368
0.0140532
0.0146251
0.015064
0.0153843
0.0156049
0.015749
0.0158413
0.0158962
0.0159363
0.0159661
0.0160409
0.0160015
0.0157629
0.0153945
0.0148542
0.01402
0.0128212
0.0110573
0.00841314
0.00465215
0.000554053
0.000288281
0.00261936
0.00507047
0.00712719
0.00884772
0.0102981
0.0115252
0.0125598
0.0134219
0.0141242
0.0146771
0.0150916
0.0153825
0.0155711
0.0156821
0.0157384
0.0157514
0.0157155
0.0157101
0.0157171
0.01558
0.015274
0.0148314
0.0141909
0.0133048
0.012053
0.0102646
0.00772596
0.00424858
0.000508451
0.00029454
0.00267204
0.00515198
0.00722392
0.00895173
0.0104044
0.0116295
0.0126587
0.0135115
0.0141997
0.0147329
0.0151218
0.0153822
0.0155369
0.0156136
0.0156227
0.0155644
0.0154524
0.0154391
0.0153845
0.0151782
0.014801
0.0142755
0.0135579
0.0126026
0.0113051
0.00950752
0.00705661
0.00378719
0.000467749
0.0003013
0.00272469
0.00523408
0.00732367
0.00906075
0.0105167
0.0117399
0.0127634
0.0136062
0.0142794
0.0147916
0.0151531
0.0153794
0.0154929
0.015523
0.015481
0.015346
0.0152022
0.0151359
0.0150399
0.0147786
0.0143461
0.0137345
0.0129426
0.0119139
0.0105783
0.00878796
0.00643144
0.00337822
0.000431424
0.0003089
0.00277883
0.00532021
0.00743216
0.00918138
0.010641
0.0118615
0.0128763
0.0137067
0.0143633
0.0148534
0.0151862
0.0153763
0.0154449
0.0154157
0.0153107
0.0151442
0.0149546
0.0148178
0.0146933
0.0143895
0.0139081
0.0132256
0.0123454
0.0112588
0.00989667
0.00816124
0.0059478
0.00316482
0.000400288
0.00031768
0.00283317
0.00541156
0.00755203
0.00931949
0.0107848
0.0119988
0.0129964
0.013811
0.0144503
0.0149179
0.0152217
0.0153749
0.0153944
0.015305
0.015128
0.0148947
0.0146598
0.014466
0.0143103
0.0140157
0.013501
0.0127614
0.0118089
0.010676
0.00933813
0.00768348
0.00564808
0.00311908
0.000382738
0.000327121
0.00287825
0.00549413
0.0076657
0.00946324
0.0109497
0.012156
0.0131329
0.0139174
0.0145369
0.0149848
0.015262
0.015381
0.0153579
0.0152131
0.0149718
0.0146683
0.0143566
0.0140929
0.0139001
0.0136297
0.0131162
0.0123546
0.0113796
0.0102907
0.00897377
0.00737106
0.00540225
0.00302035
0.000372574
0.000335629
0.00290532
0.00554969
0.00774925
0.00956971
0.0110689
0.0122891
0.0132634
0.0140344
0.0146305
0.0150542
0.0153093
0.0153995
0.0153394
0.0151476
0.0148498
0.0144794
0.0140847
0.0137322
0.0134798
0.0132216
0.012761
0.0120211
0.0111179
0.0101157
0.00881708
0.00721489
0.0052275
0.00285608
0.000352698
0.000345125
0.00289606
0.00554988
0.00778107
0.00962884
0.0111538
0.0123835
0.0133544
0.0141193
0.0147089
0.0151262
0.0153648
0.0154329
0.0153451
0.015116
0.0147715
0.0143437
0.0138767
0.0134328
0.013105
0.0128258
0.0124512
0.0117833
0.0110465
0.0101016
0.00881053
0.00719671
0.00515799
0.0026435
0.000328349
0.000350003
0.00287975
0.00551772
0.00778589
0.00967415
0.0112191
0.0124592
0.013439
0.0142091
0.0147889
0.0151903
0.0154173
0.0154743
0.0153674
0.0151143
0.0147393
0.0142687
0.0137452
0.0132298
0.012812
0.012506
0.0121982
0.0116581
0.0111026
0.010171
0.00885967
0.00724028
0.00518089
0.00252794
0.000306127
0.000345675
0.00283485
0.00551131
0.00783248
0.00975394
0.0113182
0.0125739
0.0135669
0.0143353
0.0149013
0.015281
0.0154834
0.0155156
0.0153946
0.0151305
0.0147406
0.0142485
0.0136883
0.0131252
0.0126416
0.0123247
0.0120266
0.0116265
0.0111957
0.010233
0.00890435
0.00730084
0.00525997
0.00259283
0.000294533
0.000333491
0.00277743
0.00556371
0.00793727
0.00988816
0.011473
0.0127435
0.0137403
0.0144997
0.0150461
0.0154045
0.01558
0.0155839
0.0154415
0.0151658
0.0147713
0.0142703
0.0136913
0.0131
0.0125826
0.0122145
0.0119493
0.0116311
0.0112093
0.0102285
0.00891558
0.00734759
0.00534901
0.00274888
0.000295221
0.000331523
0.00281094
0.00569487
0.00811027
0.0100853
0.0116879
0.012971
0.0139591
0.0146999
0.0152289
0.0155632
0.015719
0.0156978
0.0155297
0.0152428
0.0148427
0.0143397
0.0137509
0.0131424
0.0126045
0.0122093
0.0119487
0.01165
0.0111893
0.010188
0.00890208
0.00736318
0.00539624
0.00283873
0.000297996
0.000336891
0.00295149
0.00591172
0.0083646
0.0103633
0.0119785
0.0132572
0.0142174
0.0149424
0.015449
0.0157608
0.0158935
0.0158621
0.0156836
0.0153745
0.0149751
0.0144749
0.0138864
0.0132683
0.0127082
0.0122707
0.011964
0.0116768
0.0111576
0.0101633
0.00889684
0.00736232
0.00539145
0.00283521
0.00029874
0.000349569
0.00315525
0.00620279
0.008721
0.0107336
0.0123256
0.0135547
0.0144795
0.0151926
0.0156945
0.01599
0.016102
0.0160585
0.015883
0.015573
0.0151627
0.0146831
0.014124
0.0135066
0.0129282
0.0124446
0.0120541
0.0117732
0.0111777
0.0101898
0.00892587
0.00736615
0.00535399
0.0027783
0.000298368
0.000368355
0.00335494
0.00655832
0.00912115
0.0111189
0.0126325
0.0138194
0.0147386
0.0154494
0.01594
0.0162185
0.0163127
0.016267
0.0161208
0.0158602
0.0154603
0.0149693
0.0144393
0.0138559
0.0132887
0.0127823
0.0123586
0.0120207
0.0113356
0.0103035
0.00900423
0.00738711
0.00530306
0.0026897
0.000298109
0.000389247
0.00357982
0.00689139
0.00942519
0.0113621
0.012867
0.0140297
0.0149328
0.0156235
0.0161054
0.0163954
0.0165108
0.0164913
0.0163675
0.0161422
0.0158016
0.0153448
0.0148402
0.0142606
0.0136957
0.0131945
0.0127822
0.0123961
0.0115974
0.0104929
0.00912717
0.00742606
0.0052571
0.002547
0.000296803
0.000410251
0.00381114
0.0071687
0.00963312
0.0115032
0.0130078
0.0141781
0.0150718
0.0157584
0.0162493
0.0165602
0.0167077
0.0167207
0.016631
0.0164403
0.0161495
0.0157648
0.0153358
0.014831
0.0143236
0.0138438
0.0133855
0.0128449
0.0119245
0.0107309
0.00927805
0.00747336
0.00522089
0.00241187
0.000293417
0.00043391
0.0039997
0.00739623
0.00981319
0.0116862
0.0131548
0.014318
0.0152114
0.0158997
0.0164066
0.0167434
0.0169255
0.0169753
0.0169258
0.0167679
0.0165442
0.016241
0.015867
0.0154286
0.0149702
0.0145051
0.0140667
0.0133329
0.0122837
0.0109874
0.00942947
0.007541
0.00523363
0.00236859
0.000292565
0.000462453
0.0041754
0.00755226
0.0099441
0.0118197
0.0133007
0.0144619
0.015367
0.0160677
0.0165921
0.0169679
0.0171977
0.0172984
0.0172933
0.0171755
0.0170061
0.0167783
0.0164692
0.0160915
0.015677
0.0152041
0.0146824
0.01381
0.0126393
0.0112398
0.00958848
0.00760685
0.00527172
0.00241486
0.00029753
0.000485367
0.00425494
0.00759693
0.0100263
0.0118793
0.0133656
0.0145549
0.0155
0.0162525
0.0168296
0.0172566
0.017547
0.01771
0.0177638
0.0177147
0.0175639
0.0173859
0.0171288
0.0167964
0.0163924
0.0159465
0.0152665
0.014269
0.0129998
0.0114962
0.00971888
0.00764595
0.00530751
0.00264697
0.0003189
0.000528819
0.00408268
0.00735857
0.009926
0.0118546
0.0133979
0.0146508
0.0156648
0.0164797
0.0171262
0.0176117
0.0179737
0.0182136
0.0183417
0.018359
0.0182501
0.0180926
0.0178576
0.017539
0.0171642
0.0166271
0.0158278
0.0147262
0.0133606
0.0117432
0.00983021
0.00765579
0.00534866
0.00279355
0.000336107
0.000528523
0.00398826
0.00720376
0.00982514
0.0118552
0.0134656
0.0147805
0.0158524
0.0167183
0.0174182
0.0179661
0.018396
0.0187219
0.0189454
0.0190538
0.0190339
0.0189103
0.0186871
0.0183967
0.0179491
0.0172979
0.0163766
0.0151796
0.0137282
0.0119994
0.00995084
0.00770501
0.00539498
0.00281256
0.000331422
0.000502033
0.00381611
0.00714193
0.00983108
0.0119401
0.0135932
0.0149276
0.0160146
0.0169033
0.017634
0.0182319
0.0187233
0.0191197
0.0194231
0.0196273
0.0197254
0.0197241
0.0196069
0.0193747
0.0188356
0.0180198
0.0169494
0.0156509
0.0141222
0.0123093
0.0101687
0.00783335
0.00542013
0.00272779
0.000322995
0.000472937
0.00369714
0.00709528
0.00986458
0.012027
0.0137164
0.0150518
0.0161279
0.0170001
0.0177314
0.0183562
0.0188988
0.0193456
0.019703
0.0199721
0.0201569
0.0202803
0.0203627
0.0203122
0.0197713
0.0187923
0.0175409
0.0161304
0.0145358
0.01268
0.0105202
0.00810258
0.00548722
0.00264943
0.000316189
0.0004631
0.00378694
0.0071924
0.00994215
0.0120948
0.0137713
0.0150955
0.0161624
0.0170416
0.0177839
0.0184236
0.0189742
0.0194484
0.0198394
0.0201497
0.020372
0.0205352
0.0206828
0.0207932
0.020466
0.0194884
0.0180916
0.01657
0.0149191
0.0130497
0.0108982
0.00843805
0.0056451
0.00261309
0.00031388
0.000462027
0.0038589
0.00728328
0.0100102
0.0121408
0.0138081
0.0151282
0.0161944
0.0170743
0.0178218
0.0184746
0.019046
0.0195413
0.0199559
0.0202729
0.0205055
0.0206796
0.0208279
0.0208874
0.020666
0.0198406
0.018479
0.0169021
0.0152129
0.0133272
0.0111821
0.00872151
0.00588318
0.00265253
0.000315999
0.000461267
0.0038752
0.00730475
0.0100142
0.0121295
0.0137921
0.0151159
0.0161906
0.0170819
0.0178415
0.0185098
0.0190986
0.0196115
0.0200435
0.0203882
0.0206429
0.0208239
0.020968
0.0209986
0.0206568
0.0198626
0.0186251
0.0171102
0.0153994
0.0134988
0.0113622
0.0088971
0.00607075
0.00287266
0.000341202
0.000459157
0.00385171
0.00726789
0.00996172
0.0120681
0.0137315
0.0150646
0.0161542
0.017062
0.0178399
0.0185257
0.019131
0.0196591
0.0201055
0.0204646
0.0207372
0.0209416
0.0211031
0.0211044
0.0206876
0.0199
0.0187158
0.0172346
0.0155338
0.0136332
0.0114981
0.00902752
0.00621478
0.00305813
0.000355137
0.000455525
0.00380117
0.00719036
0.00986975
0.0119726
0.0136416
0.0149879
0.0160955
0.0170218
0.0178209
0.0185238
0.0191435
0.019684
0.0201422
0.0205146
0.020803
0.0210231
0.0212003
0.0211649
0.020704
0.0199197
0.0188052
0.0173977
0.0157336
0.0138271
0.0116719
0.00920556
0.00641136
0.00321902
0.000356128
0.000450651
0.00373527
0.00708824
0.00975338
0.011856
0.0135341
0.0148963
0.0160236
0.01697
0.0177901
0.0185083
0.0191393
0.0196887
0.0201555
0.0205377
0.0208357
0.0210581
0.0212254
0.0211677
0.0206791
0.0198998
0.0188567
0.0175426
0.0159611
0.0141034
0.011959
0.00949093
0.00665567
0.00338843
0.000368529
0.000445418
0.00366746
0.00697777
0.00962658
0.0117295
0.0134185
0.0147981
0.0159448
0.0169139
0.0177527
0.0184834
0.0191221
0.0196764
0.0201475
0.0205336
0.0208321
0.021043
0.0211812
0.0211183
0.0206268
0.0198681
0.0188893
0.0176567
0.0161577
0.0143722
0.0122778
0.00984073
0.00697871
0.00356661
0.000368397
0.000440134
0.00359752
0.00686428
0.00949631
0.0115995
0.0133001
0.0146978
0.0158635
0.0168555
0.0177105
0.0184508
0.0190934
0.0196487
0.0201188
0.0205012
0.0207886
0.0209757
0.0210742
0.0210138
0.0205527
0.0198272
0.0189
0.0177316
0.0162952
0.0145641
0.0125027
0.0100518
0.00712119
0.00361657
0.000363551
0.000434565
0.0035267
0.00675091
0.00936664
0.0114702
0.0131821
0.0145957
0.0157817
0.0167927
0.0176611
0.0184075
0.0190503
0.0196021
0.0200659
0.0204362
0.0207012
0.020856
0.0209116
0.0208399
0.0204485
0.0197794
0.0188924
0.0177725
0.0163828
0.0146842
0.01263
0.0101452
0.00714401
0.00357827
0.000361246
0.000429378
0.00346283
0.00664472
0.00924268
0.0113448
0.0130651
0.0144922
0.0156955
0.0167206
0.0175982
0.0183464
0.0189852
0.0195291
0.0199811
0.020332
0.0205686
0.0206931
0.0207136
0.020615
0.0203078
0.0197246
0.0188792
0.017798
0.016441
0.014764
0.0127094
0.0101926
0.0071188
0.00343775
0.000351644
0.000424278
0.00340138
0.00654455
0.00912458
0.0112232
0.0129478
0.0143856
0.0155994
0.0166324
0.0175132
0.0182584
0.0188885
0.0194195
0.0198544
0.0201811
0.0203928
0.020501
0.0205048
0.0203854
0.0201139
0.0196345
0.0188752
0.0178367
0.0165191
0.0148642
0.0128108
0.0102683
0.00713611
0.00343949
0.000355242
0.000419323
0.00334419
0.00645122
0.00901313
0.0111056
0.0128304
0.0142728
0.0154893
0.0165222
0.0173988
0.0181352
0.0187514
0.0192644
0.0196763
0.0199768
0.0201734
0.0202813
0.0202901
0.0201652
0.0198897
0.0194735
0.0188294
0.0178849
0.0166198
0.014995
0.0129552
0.0104318
0.00734569
0.00367157
0.000371867
0.000414749
0.00329448
0.00636759
0.00891005
0.0109928
0.0127134
0.0141526
0.0153635
0.0163873
0.0172512
0.0179721
0.0185691
0.0190583
0.0194413
0.0197176
0.0199079
0.0200219
0.020042
0.0199229
0.0196369
0.0192188
0.0186281
0.0177801
0.0166264
0.0150858
0.0131101
0.0106297
0.00753979
0.00379567
0.000382664
0.00041038
0.00324862
0.00629178
0.00881575
0.0108865
0.0125984
0.0140271
0.0152239
0.0162293
0.0170715
0.0177694
0.0183414
0.0188013
0.0191525
0.0194101
0.0195971
0.0197133
0.0197336
0.0196065
0.0193177
0.0188975
0.018307
0.0175058
0.0164202
0.0149536
0.0130614
0.0106661
0.00762024
0.00384607
0.000385837
0.000406515
0.00321213
0.00622927
0.00873486
0.0107909
0.0124893
0.0139004
0.0150747
0.0160526
0.0168639
0.017531
0.0180723
0.0184991
0.0188208
0.0190646
0.0192483
0.01936
0.0193692
0.01923
0.0189594
0.0185412
0.0179375
0.0171302
0.0160511
0.0146279
0.0128192
0.0105253
0.00756739
0.00383141
0.000377444
0.000403111
0.00318238
0.00617963
0.00866896
0.0107082
0.0123884
0.0137747
0.0149181
0.0158599
0.0166322
0.0172618
0.0177679
0.0181608
0.0184578
0.0186901
0.0188683
0.0189717
0.0189641
0.0188241
0.0185722
0.0181437
0.0175173
0.0166894
0.0156183
0.0142416
0.0124897
0.0102499
0.00735913
0.00372322
0.000364103
0.000400321
0.00316112
0.0061443
0.00861775
0.0106362
0.0122924
0.0136458
0.0147497
0.015648
0.0163757
0.0169639
0.017432
0.0177912
0.0180708
0.0182912
0.01846
0.0185523
0.018528
0.0184001
0.0181425
0.0176958
0.0170608
0.0162295
0.0151687
0.0138195
0.0121016
0.00990247
0.00708566
0.00358159
0.00035086
0.000398032
0.00314442
0.00611638
0.00857143
0.0105653
0.0121889
0.0135008
0.0145578
0.0154077
0.016089
0.0166339
0.0170629
0.0173942
0.0176569
0.0178684
0.0180244
0.0181003
0.018074
0.0179563
0.0176748
0.0172148
0.0165817
0.0157583
0.0147088
0.0133779
0.0116887
0.00953729
0.00680605
0.00343972
0.000338759
0.00039614
0.00312734
0.00608415
0.00851491
0.0104786
0.0120614
0.0133238
0.0143288
0.0151278
0.0157625
0.0162664
0.0166578
0.0169668
0.0172131
0.017414
0.0175579
0.0176226
0.0176058
0.0174812
0.0171811
0.016722
0.0160989
0.0152878
0.0142523
0.0129409
0.0112828
0.0091844
0.00654249
0.00330856
0.000328053
0.000394446
0.00310176
0.00603344
0.0084327
0.0103601
0.0118954
0.0131032
0.014052
0.0147991
0.0153893
0.0158539
0.0162159
0.0165026
0.0167363
0.0169273
0.0170598
0.0171215
0.0171198
0.0169794
0.0166775
0.0162293
0.0156195
0.0148228
0.0138043
0.0125167
0.0108951
0.00885408
0.00630109
0.00319065
0.000318842
0.000392529
0.00305923
0.00595234
0.00831278
0.0101975
0.0116809
0.0128326
0.0137224
0.014418
0.0149664
0.0153946
0.0157336
0.0160007
0.0162244
0.0164057
0.0165295
0.0166079
0.0166101
0.0164616
0.0161713
0.0157383
0.0151445
0.0143648
0.0133674
0.0121097
0.0105307
0.0085504
0.00608409
0.00308695
0.000311176
0.000389928
0.00299276
0.00583296
0.00814833
0.00998462
0.0114143
0.0125081
0.0133404
0.0139874
0.0144957
0.0148923
0.0152095
0.0154618
0.015675
0.0158467
0.0159752
0.0160785
0.016078
0.015935
0.0156632
0.0152495
0.0146744
0.0139156
0.0129458
0.0117258
0.0101961
0.00827892
0.00589528
0.0029992
0.000305113
0.000385963
0.00290555
0.00567376
0.00793654
0.00971807
0.011093
0.0121305
0.0129097
0.013512
0.0139829
0.0143516
0.0146447
0.014882
0.0150838
0.0152528
0.0154081
0.0155243
0.0155241
0.0154018
0.015155
0.0147645
0.0142118
0.0134798
0.0125476
0.0113762
0.00990262
0.00804894
0.00574138
0.00293029
0.000300725
0.000380915
0.00276975
0.00546537
0.00767032
0.00939436
0.0107174
0.0117047
0.0124358
0.012997
0.0134312
0.013771
0.0140376
0.0142579
0.0144532
0.0146369
0.0148253
0.014944
0.0149588
0.0148688
0.0146522
0.0142888
0.0137629
0.0130668
0.0121875
0.0110789
0.009665
0.00786994
0.00562708
0.00288143
0.00029835
0.000374742
0.00258922
0.00520333
0.00734774
0.00901398
0.0102898
0.0112355
0.0119244
0.0124456
0.012841
0.0131475
0.013386
0.0135935
0.0137963
0.014015
0.0142202
0.0143488
0.0144001
0.014346
0.0141646
0.013835
0.0133434
0.0127015
0.011893
0.0108476
0.0094831
0.0077318
0.00553952
0.00284549
0.000297465
0.000366944
0.00238951
0.00489279
0.00696921
0.00857955
0.00981428
0.0107291
0.0113818
0.0118601
0.0122135
0.0124802
0.012696
0.0129044
0.0131353
0.0133915
0.0136046
0.0137724
0.0138633
0.0138484
0.0137069
0.0134261
0.0129898
0.0123773
0.0115894
0.0105889
0.00928838
0.00759983
0.00545679
0.00281624
0.000296636
0.000357827
0.00218284
0.00454298
0.00653913
0.00809599
0.00929728
0.0101941
0.0108177
0.0112449
0.0115528
0.0117766
0.0119819
0.0122121
0.0124875
0.0127646
0.0130165
0.0132288
0.013361
0.0133863
0.0132866
0.0130463
0.0126477
0.0120673
0.0112991
0.0103217
0.00905836
0.00741311
0.00531896
0.00274887
0.000293607
0.000347186
0.00196083
0.00415133
0.00605562
0.00756552
0.00874269
0.00964361
0.0102464
0.0106052
0.010866
0.0110526
0.0112628
0.011533
0.0118508
0.0121576
0.0124604
0.0127175
0.012892
0.0129585
0.0128979
0.0126956
0.0123305
0.0117853
0.0110452
0.0100807
0.00883311
0.00721937
0.00515603
0.00262756
0.000287662
0.000334582
0.00170313
0.00370581
0.00550967
0.00698427
0.00816009
0.00908494
0.00967019
0.00995686
0.0101653
0.0103216
0.0105502
0.0108723
0.0112135
0.0115706
0.0119259
0.0122302
0.0124555
0.0125683
0.0125483
0.012381
0.0120542
0.0115429
0.0108298
0.00988636
0.00865642
0.00706822
0.00503931
0.00254156
0.000274423
0.000318586
0.00137807
0.00318963
0.00488927
0.00634916
0.00755139
0.00852415
0.00910711
0.00932512
0.00945915
0.00958977
0.00985221
0.0102014
0.0105763
0.0109925
0.0114037
0.011767
0.0120521
0.0122204
0.0122427
0.0121111
0.0118175
0.0113449
0.0106683
0.00975219
0.00855025
0.00699521
0.00499983
0.00252506
0.000272174
0.000295322
0.00103787
0.00261224
0.00420656
0.00566708
0.00691517
0.00795716
0.00855257
0.00871048
0.00875975
0.00886427
0.00915711
0.00951575
0.00994349
0.0104249
0.0108925
0.0113313
0.0116915
0.011912
0.011982
0.0118905
0.0116336
0.0111924
0.0105299
0.00963122
0.00846178
0.00695457
0.00501788
0.00257018
0.000275229
0.000263851
0.000767408
0.00209055
0.00352493
0.00497314
0.00625981
0.00738055
0.00798328
0.00809496
0.0080638
0.00815698
0.00844665
0.00883149
0.00931843
0.00986579
0.0104021