/*--------------------------------*- C++ -*----------------------------------*\
| =========                 |                                                 |
| \\      /  F ield         | OpenFOAM: The Open Source CFD Toolbox           |
|  \\    /   O peration     | Version:  2.3.0                                 |
|   \\  /    A nd           | Web:      www.OpenFOAM.org                      |
|    \\/     M anipulation  |                                                 |
\*---------------------------------------------------------------------------*/
FoamFile
{
    version     2.0;
    format      ascii;
    class       volVectorField;
    location    "0.15";
    object      U.particlesMean;
}
// * * * * * * * * * * * * * * * * * * * * * * * * * * * * * * * * * * * * * //

dimensions      [0 1 -1 0 0 0 0];

internalField   nonuniform List<vector> 
6000
(
(0.00571352 -0.232332 0)
(0.0141249 -0.235845 0)
(0.0250188 -0.23706 0)
(0.0308514 -0.238615 0)
(0.0341152 -0.238481 0)
(0.0353241 -0.238385 0)
(0.0349849 -0.238467 0)
(0.03334 -0.238482 0)
(0.0305968 -0.238328 0)
(0.0269542 -0.238318 0)
(0.0227031 -0.238328 0)
(0.0180136 -0.238415 0)
(0.0130424 -0.238547 0)
(0.0078846 -0.238649 0)
(0.00262144 -0.238694 0)
(-0.00268569 -0.238679 0)
(-0.00795233 -0.238646 0)
(-0.0131119 -0.238545 0)
(-0.0180833 -0.238409 0)
(-0.0227758 -0.238336 0)
(-0.0270334 -0.238311 0)
(-0.0306747 -0.238337 0)
(-0.0334249 -0.238481 0)
(-0.0350644 -0.238475 0)
(-0.0354042 -0.238397 0)
(-0.0341828 -0.238513 0)
(-0.0309128 -0.238623 0)
(-0.0250596 -0.237049 0)
(-0.0141572 -0.235857 0)
(-0.00570735 -0.23217 0)
(0.021462 -0.0555673 0)
(0.0279851 -0.0415405 0)
(0.0402629 -0.0329436 0)
(0.0458227 -0.029209 0)
(0.0480687 -0.0278567 0)
(0.0477885 -0.0259439 0)
(0.0458977 -0.0239262 0)
(0.0422626 -0.0221981 0)
(0.0378391 -0.021452 0)
(0.0328282 -0.0209013 0)
(0.0273397 -0.0205934 0)
(0.0214987 -0.0203065 0)
(0.0154315 -0.0201673 0)
(0.00925103 -0.0200497 0)
(0.00304954 -0.0200844 0)
(-0.00314072 -0.0201158 0)
(-0.00934101 -0.0200745 0)
(-0.0155192 -0.0201986 0)
(-0.0215865 -0.0203301 0)
(-0.0274286 -0.0206227 0)
(-0.0329215 -0.0209262 0)
(-0.037937 -0.0214768 0)
(-0.0423682 -0.0222254 0)
(-0.0460034 -0.0239522 0)
(-0.0478882 -0.0259676 0)
(-0.0481541 -0.0278744 0)
(-0.045869 -0.0292584 0)
(-0.0402676 -0.0329819 0)
(-0.0279601 -0.0415194 0)
(-0.0214427 -0.055596 0)
(0.0252726 -0.0718027 0)
(0.0378501 -0.057287 0)
(0.0533484 -0.0392934 0)
(0.0624995 -0.023466 0)
(0.0641883 -0.0122139 0)
(0.0608435 -0.00468974 0)
(0.0552696 0.000654476 0)
(0.0491416 0.004564 0)
(0.0428869 0.00767284 0)
(0.0365088 0.00993421 0)
(0.0299631 0.0115341 0)
(0.0232946 0.0125541 0)
(0.016585 0.0132139 0)
(0.0098895 0.013542 0)
(0.0032373 0.0136975 0)
(-0.00336995 0.0136739 0)
(-0.010005 0.0135284 0)
(-0.016689 0.0131845 0)
(-0.0233923 0.0125468 0)
(-0.0300597 0.0115108 0)
(-0.0366087 0.00993833 0)
(-0.0429952 0.00765763 0)
(-0.0492617 0.00457764 0)
(-0.055395 0.000643641 0)
(-0.0609652 -0.00467704 0)
(-0.0642906 -0.0122598 0)
(-0.0625475 -0.0235147 0)
(-0.0533355 -0.0393573 0)
(-0.0377774 -0.0572753 0)
(-0.0251941 -0.0717166 0)
(0.0275164 -0.0775625 0)
(0.0411708 -0.0573047 0)
(0.0567967 -0.0358017 0)
(0.0691032 -0.0162005 0)
(0.0742837 -0.000505493 0)
(0.0722536 0.0102938 0)
(0.0653522 0.0174706 0)
(0.0563967 0.0226529 0)
(0.0474 0.0263641 0)
(0.0390424 0.0289643 0)
(0.0312996 0.0306606 0)
(0.02396 0.0316849 0)
(0.0168919 0.0322428 0)
(0.0100219 0.0325261 0)
(0.00327932 0.0326198 0)
(-0.00341412 0.0326151 0)
(-0.0101403 0.0325158 0)
(-0.0169953 0.0322478 0)
(-0.0240544 0.0316904 0)
(-0.0313871 0.0306895 0)
(-0.0391328 0.0289949 0)
(-0.0474971 0.0264265 0)
(-0.0565204 0.0227199 0)
(-0.0655053 0.0175559 0)
(-0.0724419 0.0103333 0)
(-0.0744721 -0.000532146 0)
(-0.0692485 -0.0163183 0)
(-0.0568848 -0.0359639 0)
(-0.0411834 -0.0574102 0)
(-0.0274668 -0.0775216 0)
(0.0270777 -0.0717213 0)
(0.0412968 -0.0455219 0)
(0.0569949 -0.0201843 0)
(0.0700784 0.00287722 0)
(0.0775944 0.0221547 0)
(0.0778345 0.0354455 0)
(0.0717045 0.042888 0)
(0.0618758 0.0466861 0)
(0.0510862 0.0487422 0)
(0.0410338 0.0499503 0)
(0.0321259 0.0506369 0)
(0.0241566 0.0509438 0)
(0.0168412 0.0510401 0)
(0.00993972 0.0510349 0)
(0.00325593 0.0510053 0)
(-0.00336473 0.0509994 0)
(-0.0100468 0.0510384 0)
(-0.0169391 0.0510439 0)
(-0.0242418 0.0509598 0)
(-0.0322019 0.0506618 0)
(-0.0411058 0.0499997 0)
(-0.0511681 0.0488152 0)
(-0.0619958 0.0467933 0)
(-0.071895 0.0430103 0)
(-0.0781 0.0355363 0)
(-0.0779115 0.0221588 0)
(-0.0704138 0.00273294 0)
(-0.0573074 -0.0204471 0)
(-0.0414977 -0.0457903 0)
(-0.0271417 -0.0717835 0)
(0.0272633 -0.0644555 0)
(0.0424332 -0.031977 0)
(0.056897 -0.00116937 0)
(0.0684351 0.0266875 0)
(0.0755707 0.0502914 0)
(0.0767777 0.0664702 0)
(0.0719134 0.0749218 0)
(0.062703 0.0779575 0)
(0.0518098 0.0782922 0)
(0.0412754 0.0777549 0)
(0.031915 0.0771251 0)
(0.023733 0.0765801 0)
(0.0164184 0.0761419 0)
(0.00965167 0.0758224 0)
(0.00316391 0.0756556 0)
(-0.00325141 0.0756479 0)
(-0.00974622 0.0758254 0)
(-0.016509 0.0761362 0)
(-0.0238098 0.0765808 0)
(-0.0319754 0.0771323 0)
(-0.0413224 0.0777893 0)
(-0.0518629 0.0783561 0)
(-0.0627986 0.0780809 0)
(-0.0721071 0.0750923 0)
(-0.0770936 0.0666515 0)
(-0.076015 0.0504062 0)
(-0.0689986 0.0266165 0)
(-0.0575702 -0.00150751 0)
(-0.0430325 -0.0325063 0)
(-0.0276195 -0.064739 0)
(0.0284767 -0.0583667 0)
(0.0445765 -0.0187329 0)
(0.0566131 0.0184657 0)
(0.0649152 0.0516265 0)
(0.0701794 0.0797761 0)
(0.0709499 0.0993244 0)
(0.0668004 0.109353 0)
(0.05873 0.112563 0)
(0.0489357 0.112289 0)
(0.0391828 0.110772 0)
(0.0303393 0.109152 0)
(0.0225371 0.107835 0)
(0.015563 0.106863 0)
(0.00913271 0.10622 0)
(0.00298838 0.105886 0)
(-0.00307836 0.105881 0)
(-0.00922664 0.106195 0)
(-0.0156502 0.106839 0)
(-0.0226072 0.107805 0)
(-0.0303829 0.109131 0)
(-0.0391976 0.110772 0)
(-0.04893 0.112334 0)
(-0.0587407 0.112686 0)
(-0.0668771 0.109568 0)
(-0.0711623 0.0996084 0)
(-0.0705868 0.0800504 0)
(-0.0655439 0.0517735 0)
(-0.0574995 0.0182478 0)
(-0.0455177 -0.0194636 0)
(-0.0292128 -0.0589972 0)
(0.0285696 -0.0548749 0)
(0.0459052 -0.0070335 0)
(0.055665 0.0376442 0)
(0.0598674 0.0763053 0)
(0.0616615 0.108576 0)
(0.0612731 0.131072 0)
(0.0580843 0.142747 0)
(0.0518587 0.146459 0)
(0.0438116 0.145979 0)
(0.0355197 0.14395 0)
(0.027755 0.141765 0)
(0.0207345 0.13995 0)
(0.0143602 0.138628 0)
(0.00843258 0.137767 0)
(0.00275167 0.137332 0)
(-0.00285541 0.137323 0)
(-0.00853437 0.137735 0)
(-0.0144492 0.138584 0)
(-0.0207995 0.139899 0)
(-0.0277808 0.14171 0)
(-0.0354894 0.143906 0)
(-0.0437115 0.145979 0)
(-0.0517027 0.146548 0)
(-0.0579026 0.14298 0)
(-0.0611501 0.131483 0)
(-0.0617392 0.109143 0)
(-0.060338 0.0768411 0)
(-0.0565443 0.0376889 0)
(-0.0468545 -0.00780655 0)
(-0.0294179 -0.0559448 0)
(0.0267658 -0.0542936 0)
(0.0441463 0.00327029 0)
(0.0526534 0.0556599 0)
(0.0529164 0.100636 0)
(0.0505345 0.136488 0)
(0.0486677 0.160764 0)
(0.0465749 0.173814 0)
(0.0426656 0.178124 0)
(0.0371634 0.17783 0)
(0.0307754 0.175596 0)
(0.0244657 0.173101 0)
(0.0184856 0.170969 0)
(0.0128906 0.169387 0)
(0.0075934 0.168355 0)
(0.0024722 0.167847 0)
(-0.00259236 0.16783 0)
(-0.00770824 0.168327 0)
(-0.0129887 0.169328 0)
(-0.0185551 0.170893 0)
(-0.0244853 0.173004 0)
(-0.0307147 0.175496 0)
(-0.0369982 0.177749 0)
(-0.0423163 0.178104 0)
(-0.0460774 0.173959 0)
(-0.0480357 0.161187 0)
(-0.0499377 0.137264 0)
(-0.0527902 0.101706 0)
(-0.0529849 0.056222 0)
(-0.0445864 0.0027203 0)
(-0.0272284 -0.0558562 0)
(0.0217816 -0.0558711 0)
(0.0377682 0.0118594 0)
(0.0453736 0.0728842 0)
(0.0433357 0.123431 0)
(0.0374091 0.162411 0)
(0.0347289 0.187807 0)
(0.0340285 0.201848 0)
(0.0323952 0.206864 0)
(0.0297966 0.207269 0)
(0.0254937 0.205221 0)
(0.0207643 0.202689 0)
(0.0159689 0.200436 0)
(0.0112589 0.198707 0)
(0.00666951 0.197573 0)
(0.00216656 0.197014 0)
(-0.0023038 0.197002 0)
(-0.00680089 0.197529 0)
(-0.011375 0.198639 0)
(-0.0160556 0.200329 0)
(-0.0207987 0.202552 0)
(-0.0254476 0.20505 0)
(-0.0295847 0.207066 0)
(-0.0319726 0.20665 0)
(-0.03329 0.201775 0)
(-0.0335818 0.188018 0)
(-0.0358377 0.163138 0)
(-0.0419643 0.124689 0)
(-0.0443521 0.0744704 0)
(-0.0372303 0.0117125 0)
(-0.0215095 -0.0575033 0)
(0.013134 -0.0573691 0)
(0.0268458 0.018979 0)
(0.0338456 0.0875434 0)
(0.0309165 0.143905 0)
(0.0236545 0.1853 0)
(0.0213595 0.211629 0)
(0.022158 0.226479 0)
(0.0228885 0.2327 0)
(0.0221671 0.233808 0)
(0.0201275 0.232453 0)
(0.01697 0.230126 0)
(0.013378 0.227943 0)
(0.00958169 0.22622 0)
(0.00572318 0.225058 0)
(0.00185534 0.224467 0)
(-0.00201047 0.22445 0)
(-0.00587452 0.225011 0)
(-0.00972248 0.226137 0)
(-0.0134973 0.227818 0)
(-0.0170476 0.229945 0)
(-0.0201227 0.232205 0)
(-0.022019 0.233461 0)
(-0.02254 0.232295 0)
(-0.0214461 0.226061 0)
(-0.0200812 0.211369 0)
(-0.0216592 0.185499 0)
(-0.0283481 0.144907 0)
(-0.0317745 0.088216 0)
(-0.0248118 0.0195975 0)
(-0.0121426 -0.0583898 0)
(0.00474702 -0.0562864 0)
(0.0151009 0.0246721 0)
(0.0223205 0.100044 0)
(0.018562 0.16188 0)
(0.012228 0.204689 0)
(0.0104315 0.23206 0)
(0.0122564 0.247968 0)
(0.0144861 0.255544 0)
(0.01551 0.257672 0)
(0.0150363 0.25705 0)
(0.013353 0.255229 0)
(0.0108629 0.253275 0)
(0.00794355 0.251658 0)
(0.0047977 0.250538 0)
(0.0015511 0.249948 0)
(-0.00172371 0.249934 0)
(-0.0049702 0.250488 0)
(-0.00811396 0.251572 0)
(-0.0110252 0.253138 0)
(-0.0134965 0.255025 0)
(-0.0151324 0.25674 0)
(-0.0155161 0.257241 0)
(-0.0143417 0.254943 0)
(-0.011832 0.247209 0)
(-0.00949125 0.231234 0)
(-0.0104794 0.204138 0)
(-0.0157906 0.162439 0)
(-0.0191011 0.101708 0)
(-0.0125028 0.0257758 0)
(-0.00302779 -0.0557449 0)
(0.000601747 -0.0534304 0)
(0.00919384 0.0265422 0)
(0.0128667 0.112004 0)
(0.00982556 0.176815 0)
(0.00464949 0.220891 0)
(0.00284432 0.249529 0)
(0.00481906 0.266688 0)
(0.00775206 0.275541 0)
(0.00987774 0.278882 0)
(0.0105961 0.279092 0)
(0.0100358 0.277895 0)
(0.00851246 0.276297 0)
(0.00638608 0.274866 0)
(0.00391061 0.273844 0)
(0.00125918 0.273325 0)
(-0.00144756 0.273312 0)
(-0.00410314 0.2738 0)
(-0.00658568 0.274783 0)
(-0.00872208 0.276165 0)
(-0.0102539 0.277688 0)
(-0.0108186 0.278768 0)
(-0.0100866 0.278396 0)
(-0.00792224 0.274821 0)
(-0.00486954 0.265674 0)
(-0.00260448 0.248204 0)
(-0.0037627 0.21961 0)
(-0.00775685 0.176577 0)
(-0.00896752 0.113553 0)
(-0.00649377 0.0274456 0)
(0.00119817 -0.0509337 0)
(0.00170094 -0.0540455 0)
(0.00800732 0.0294536 0)
(0.00882607 0.120989 0)
(0.00573603 0.189026 0)
(0.000934293 0.234762 0)
(-0.00147082 0.264652 0)
(-0.000178597 0.283061 0)
(0.00272821 0.293118 0)
(0.00535229 0.297578 0)
(0.00683737 0.298692 0)
(0.00709927 0.298132 0)
(0.00636782 0.296958 0)
(0.00493245 0.295764 0)
(0.00307119 0.294865 0)
(0.000980889 0.294402 0)
(-0.00118075 0.29439 0)
(-0.00327809 0.294829 0)
(-0.00515638 0.295698 0)
(-0.00661965 0.296847 0)
(-0.00739203 0.297954 0)
(-0.00718931 0.298404 0)
(-0.00578216 0.297118 0)
(-0.00325538 0.292392 0)
(-0.000449127 0.281953 0)
(0.00085168 0.263027 0)
(-0.00127279 0.232583 0)
(-0.00474158 0.187194 0)
(-0.00540721 0.121597 0)
(-0.0022386 0.0340339 0)
(0.00218242 -0.0526818 0)
(0.00800996 -0.0632804 0)
(0.00907354 0.031336 0)
(0.0078242 0.128061 0)
(0.00504258 0.199109 0)
(0.000123658 0.246986 0)
(-0.00326623 0.278087 0)
(-0.00305972 0.297464 0)
(-0.000727743 0.308529 0)
(0.00189052 0.313976 0)
(0.00375999 0.315939 0)
(0.00457809 0.316019 0)
(0.00445177 0.31528 0)
(0.00360878 0.314362 0)
(0.00229453 0.313613 0)
(0.000724227 0.313211 0)
(-0.000927163 0.313203 0)
(-0.00250787 0.313591 0)
(-0.00384625 0.314319 0)
(-0.00473294 0.315209 0)
(-0.00492912 0.315898 0)
(-0.00422197 0.315735 0)
(-0.00251864 0.313625 0)
(-0.000145902 0.307927 0)
(0.00184203 0.296432 0)
(0.00160679 0.276352 0)
(-0.00182698 0.24441 0)
(-0.00589333 0.195783 0)
(-0.00710581 0.126234 0)
(-0.00292508 0.036495 0)
(-0.00246334 -0.0600228 0)
(0.00916227 -0.0712236 0)
(0.00835571 0.0310096 0)
(0.00530678 0.133727 0)
(0.00436212 0.208924 0)
(0.000200445 0.258828 0)
(-0.00348479 0.290254 0)
(-0.00434449 0.310187 0)
(-0.00282775 0.321988 0)
(-0.000570433 0.328247 0)
(0.00135722 0.330965 0)
(0.00249308 0.331652 0)
(0.0028013 0.331351 0)
(0.00243419 0.330723 0)
(0.00159773 0.330146 0)
(0.00049573 0.329818 0)
(-0.000692367 0.329816 0)
(-0.00180634 0.330139 0)
(-0.00267095 0.330711 0)
(-0.0030893 0.33133 0)
(-0.00287104 0.331614 0)
(-0.00188195 0.33089 0)
(-0.000196431 0.328091 0)
(0.00166105 0.321656 0)
(0.00250546 0.309465 0)
(0.000570289 0.288699 0)
(-0.00457151 0.255414 0)
(-0.00959682 0.203752 0)
(-0.0115045 0.129754 0)
(-0.0124969 0.0339256 0)
(-0.00824515 -0.064506 0)
(0.0017145 -0.0757278 0)
(0.00463312 0.0295445 0)
(0.00316409 0.137554 0)
(0.00240885 0.217553 0)
(0.000101923 0.268591 0)
(-0.00315059 0.301098 0)
(-0.00450146 0.321376 0)
(-0.0038072 0.333673 0)
(-0.00210463 0.340564 0)
(-0.000373719 0.343925 0)
(0.000858519 0.345163 0)
(0.00143778 0.345281 0)
(0.00143113 0.344943 0)
(0.000991302 0.344544 0)
(0.000298733 0.344299 0)
(-0.000479205 0.344301 0)
(-0.00118285 0.344553 0)
(-0.0016478 0.344961 0)
(-0.00170529 0.345315 0)
(-0.00121496 0.345218 0)
(-0.000137765 0.344011 0)
(0.00132001 0.340678 0)
(0.00252194 0.333787 0)
(0.00228446 0.321361 0)
(-0.000810385 0.300588 0)
(-0.00671981 0.266853 0)
(-0.0113117 0.212191 0)
(-0.0123559 0.132407 0)
(-0.0172338 0.0282041 0)
(-0.0155823 -0.0714247 0)
(-0.00775334 -0.0750075 0)
(-0.00263612 0.0340079 0)
(0.00124848 0.141928 0)
(0.000956174 0.22465 0)
(-0.000313941 0.278099 0)
(-0.00219285 0.310515 0)
(-0.00377104 0.331074 0)
(-0.00381754 0.34375 0)
(-0.00278985 0.351123 0)
(-0.00144613 0.355004 0)
(-0.000313436 0.356719 0)
(0.000377894 0.357221 0)
(0.000613172 0.357157 0)
(0.000486346 0.356932 0)
(0.000135839 0.356771 0)
(-0.000291306 0.356778 0)
(-0.000649081 0.356953 0)
(-0.000792648 0.357199 0)
(-0.000591362 0.3573 0)
(3.68119e-05 0.356862 0)
(0.00105408 0.35525 0)
(0.00218131 0.351532 0)
(0.00278109 0.344415 0)
(0.00188194 0.332097 0)
(-0.00134976 0.311811 0)
(-0.00590054 0.278229 0)
(-0.00888241 0.221387 0)
(-0.0107684 0.134401 0)
(-0.0140893 0.0246544 0)
(-0.00957556 -0.078972 0)
(-0.013868 -0.0721104 0)
(-0.00734207 0.0398257 0)
(-0.0018984 0.150099 0)
(3.42598e-05 0.229599 0)
(0.0010546 0.284046 0)
(-0.000304899 0.318452 0)
(-0.00208559 0.339546 0)
(-0.0029429 0.352506 0)
(-0.00270451 0.360207 0)
(-0.00190166 0.364466 0)
(-0.00102789 0.366559 0)
(-0.000368941 0.367387 0)
(-6.46145e-06 0.367572 0)
(8.89287e-05 0.367509 0)
(8.16355e-06 0.367428 0)
(-0.00013384 0.367435 0)
(-0.000215548 0.367533 0)
(-0.000121328 0.367624 0)
(0.00023637 0.367489 0)
(0.000886029 0.366748 0)
(0.00173709 0.36481 0)
(0.00249264 0.360825 0)
(0.00262174 0.353606 0)
(0.0015041 0.341462 0)
(-0.000887804 0.321534 0)
(-0.0031044 0.287731 0)
(-0.00586817 0.229551 0)
(-0.00891755 0.136507 0)
(-0.006031 0.0182217 0)
(0.00318978 -0.0761207 0)
(-0.00934149 -0.064369 0)
(-0.00712091 0.0498498 0)
(0.001062 0.153647 0)
(0.0043597 0.232351 0)
(0.00444893 0.289301 0)
(0.00261089 0.325842 0)
(0.00024391 0.347421 0)
(-0.00142066 0.360438 0)
(-0.00201338 0.368221 0)
(-0.00183582 0.372667 0)
(-0.00133162 0.375005 0)
(-0.000813334 0.376077 0)
(-0.000425851 0.376462 0)
(-0.000196015 0.376538 0)
(-8.41335e-05 0.376528 0)
(-1.27596e-05 0.376532 0)
(0.000106146 0.376554 0)
(0.000351575 0.376499 0)
(0.000770411 0.376159 0)
(0.00134448 0.375171 0)
(0.00194767 0.372986 0)
(0.00229989 0.368819 0)
(0.00202318 0.361546 0)
(0.000888121 0.349448 0)
(-0.000675078 0.32956 0)
(-0.000992365 0.295406 0)
(-0.00210525 0.236712 0)
(-0.00334351 0.144693 0)
(0.00159751 0.0249839 0)
(0.0140576 -0.074439 0)
(-0.000339271 -0.0614026 0)
(0.0090956 0.048685 0)
(0.0199298 0.148653 0)
(0.0154036 0.235573 0)
(0.0105126 0.296419 0)
(0.00684243 0.333662 0)
(0.00299586 0.355246 0)
(0.000432385 0.36803 0)
(-0.000956808 0.37562 0)
(-0.00140749 0.380021 0)
(-0.00131224 0.382437 0)
(-0.00100195 0.383647 0)
(-0.000666138 0.384181 0)
(-0.000377459 0.384365 0)
(-0.000144895 0.384406 0)
(6.83859e-05 0.384406 0)
(0.000314984 0.384367 0)
(0.000635969 0.384192 0)
(0.00103323 0.383678 0)
(0.00145036 0.382502 0)
(0.00174455 0.38017 0)
(0.00166166 0.375939 0)
(0.000949849 0.368688 0)
(-0.00038353 0.356574 0)
(-0.00168878 0.335967 0)
(-0.00181875 0.29997 0)
(-0.00100987 0.242263 0)
(0.00304428 0.158904 0)
(0.00751232 0.0385056 0)
(0.0185724 -0.0717161 0)
(0.0123089 -0.0548186 0)
(0.034563 0.0369902 0)
(0.0334335 0.143838 0)
(0.0270378 0.231965 0)
(0.0191251 0.301805 0)
(0.0121802 0.34281 0)
(0.00593122 0.363859 0)
(0.00225308 0.375846 0)
(0.000151788 0.382858 0)
(-0.000827503 0.386933 0)
(-0.00110297 0.389235 0)
(-0.00100333 0.390457 0)
(-0.000749189 0.391046 0)
(-0.000464136 0.391299 0)
(-0.000179669 0.391379 0)
(0.000105355 0.391369 0)
(0.000404784 0.391266 0)
(0.000721971 0.390989 0)
(0.00103794 0.390375 0)
(0.00127939 0.38913 0)
(0.00125146 0.386788 0)
(0.000736718 0.382658 0)
(-0.00045508 0.375607 0)
(-0.00230745 0.363568 0)
(-0.00451873 0.342503 0)
(-0.0060508 0.305282 0)
(-0.00792418 0.244635 0)
(-0.00465177 0.160023 0)
(0.00333702 0.0489417 0)
(0.00930778 -0.0662698 0)
(0.0226569 -0.064625 0)
(0.0335009 0.0243043 0)
(0.0319252 0.139715 0)
(0.0252867 0.23853 0)
(0.0186243 0.312351 0)
(0.0127352 0.354098 0)
(0.00704183 0.373682 0)
(0.00315902 0.384161 0)
(0.0008519 0.390164 0)
(-0.000372334 0.393661 0)
(-0.00086845 0.395671 0)
(-0.000921258 0.396767 0)
(-0.00075958 0.397314 0)
(-0.000496618 0.397561 0)
(-0.000200431 0.397646 0)
(0.000106758 0.397628 0)
(0.000415854 0.397507 0)
(0.00070706 0.397209 0)
(0.000925326 0.396589 0)
(0.000964682 0.395388 0)
(0.000644213 0.393189 0)
(-0.000254685 0.389352 0)
(-0.0019768 0.382714 0)
(-0.00478608 0.371107 0)
(-0.00929104 0.350259 0)
(-0.0143951 0.310315 0)
(-0.0248904 0.24217 0)
(-0.0309423 0.150453 0)
(-0.0245657 0.041242 0)
(-0.00217225 -0.0633733 0)
(0.011427 -0.0729013 0)
(0.0169185 0.0142616 0)
(0.0208406 0.131568 0)
(0.0230559 0.245714 0)
(0.014953 0.322356 0)
(0.00923963 0.364868 0)
(0.0059302 0.383342 0)
(0.00280437 0.392411 0)
(0.000879633 0.397399 0)
(-0.000227517 0.400262 0)
(-0.000743136 0.401898 0)
(-0.000864021 0.402804 0)
(-0.000747399 0.403281 0)
(-0.00050854 0.403502 0)
(-0.000215127 0.403576 0)
(9.37225e-05 0.403556 0)
(0.000388553 0.403436 0)
(0.000631911 0.40315 0)
(0.000759211 0.402572 0)
(0.000642619 0.40149 0)
(0.00013008 0.399576 0)
(-0.00100731 0.396238 0)
(-0.00309191 0.390385 0)
(-0.00662185 0.379946 0)
(-0.0124266 0.360493 0)
(-0.019711 0.316797 0)
(-0.0272048 0.243354 0)
(-0.0343391 0.14579 0)
(-0.0366002 0.0325103 0)
(-0.0188849 -0.0579463 0)
(0.00374948 -0.0702169 0)
(0.00584441 -0.00434062 0)
(0.0185713 0.1315 0)
(0.0209791 0.254377 0)
(0.0114536 0.332074 0)
(0.00527962 0.374066 0)
(0.00366046 0.391758 0)
(0.00167166 0.399982 0)
(0.000367277 0.404277 0)
(-0.000417087 0.406605 0)
(-0.000782124 0.407905 0)
(-0.000857773 0.408632 0)
(-0.000740158 0.409019 0)
(-0.000510138 0.409207 0)
(-0.000226806 0.409272 0)
(6.90086e-05 0.409253 0)
(0.000340775 0.40914 0)
(0.000544738 0.408889 0)
(0.000612816 0.408405 0)
(0.000443512 0.407531 0)
(-9.51136e-05 0.405989 0)
(-0.00118096 0.403254 0)
(-0.00307026 0.398393 0)
(-0.00617167 0.389416 0)
(-0.0102029 0.370727 0)
(-0.0169023 0.326929 0)
(-0.0229504 0.249831 0)
(-0.0247056 0.138556 0)
(-0.0242751 0.01836 0)
(-0.0153497 -0.0702717 0)
(-0.000220142 -0.0703405 0)
(0.0158794 -0.015278 0)
(0.0159303 0.140391 0)
(0.0162033 0.267643 0)
(0.00770363 0.342634 0)
(0.00230643 0.381821 0)
(0.00123578 0.398923 0)
(0.000320393 0.406722 0)
(-0.000394779 0.410633 0)
(-0.000786108 0.41264 0)
(-0.000942712 0.4137 0)
(-0.000914091 0.414264 0)
(-0.000755213 0.41456 0)
(-0.000516026 0.414703 0)
(-0.000237435 0.414757 0)
(4.58606e-05 0.414744 0)
(0.000301047 0.414661 0)
(0.000489301 0.414477 0)
(0.000558971 0.414126 0)
(0.00043758 0.413476 0)
(3.2963e-05 0.412288 0)
(-0.000774387 0.4101 0)
(-0.00212507 0.405987 0)
(-0.00420534 0.397994 0)
(-0.00622682 0.380394 0)
(-0.013465 0.336696 0)
(-0.0213672 0.257535 0)
(-0.0149662 0.128255 0)
(-0.00877328 0.00633674 0)
(-0.00335099 -0.0683119 0)
(-0.00536884 -0.0710836 0)
(0.0122654 -0.00163508 0)
(0.0100234 0.162331 0)
(0.0084671 0.284364 0)
(0.00319221 0.35401 0)
(4.75354e-05 0.388719 0)
(-0.000784091 0.405122 0)
(-0.000939197 0.412751 0)
(-0.00113396 0.41652 0)
(-0.00119922 0.418394 0)
(-0.00114947 0.419309 0)
(-0.00100487 0.419762 0)
(-0.000787336 0.419985 0)
(-0.000524445 0.420093 0)
(-0.000241223 0.420137 0)
(3.91992e-05 0.420136 0)
(0.000294128 0.42009 0)
(0.000496877 0.419977 0)
(0.000613672 0.419739 0)
(0.00059874 0.419267 0)
(0.000399038 0.418337 0)
(-4.58618e-05 0.416503 0)
(-0.000822206 0.41284 0)
(-0.00192676 0.405395 0)
(-0.00337945 0.388347 0)
(-0.00986832 0.346968 0)
(-0.0179497 0.268252 0)
(-0.01583 0.132026 0)
(-0.00884534 -0.0156207 0)
(-0.000408022 -0.0658599 0)
(-0.00408286 -0.0808139 0)
(0.0143221 0.025492 0)
(0.00285214 0.192758 0)
(0.000947256 0.301974 0)
(-0.000640585 0.36383 0)
(-0.00158973 0.394858 0)
(-0.00210298 0.410605 0)
(-0.00189637 0.418233 0)
(-0.00172297 0.421994 0)
(-0.00154648 0.423837 0)
(-0.00133038 0.424722 0)
(-0.00108491 0.425136 0)
(-0.000812576 0.425331 0)
(-0.000523923 0.425424 0)
(-0.000231788 0.425468 0)
(5.05372e-05 0.425481 0)
(0.000314685 0.425465 0)
(0.000545859 0.425403 0)
(0.000724053 0.42525 0)
(0.000826971 0.424898 0)
(0.000832195 0.424118 0)
(0.000715382 0.422446 0)
(0.000481144 0.418966 0)
(9.35795e-05 0.411764 0)
(-0.00109681 0.395558 0)
(-0.00525847 0.358521 0)
(-0.011883 0.283122 0)
(-0.0133128 0.147057 0)
(-0.0170048 -0.0179094 0)
(0.00251394 -0.0669765 0)
(0.0160097 -0.0953811 0)
(0.0177182 0.0293618 0)
(0.0022105 0.201909 0)
(2.56301e-05 0.312266 0)
(-0.00182308 0.371103 0)
(-0.00232895 0.400465 0)
(-0.00262402 0.4157 0)
(-0.00239093 0.423369 0)
(-0.00204851 0.427181 0)
(-0.00173351 0.429059 0)
(-0.0014213 0.429967 0)
(-0.00111153 0.430395 0)
(-0.000804231 0.430596 0)
(-0.00050084 0.430697 0)
(-0.00020613 0.430751 0)
(7.48135e-05 0.430779 0)
(0.000345991 0.430783 0)
(0.000603391 0.430751 0)
(0.000839148 0.430634 0)
(0.00104722 0.430324 0)
(0.00122318 0.429588 0)
(0.00136809 0.427958 0)
(0.00152238 0.424507 0)
(0.00159152 0.417372 0)
(0.000978088 0.402065 0)
(-0.000336363 0.369846 0)
(-0.00347852 0.302039 0)
(-0.00598877 0.177293 0)
(-0.0151702 0.00300572 0)
(0.00598869 -0.0665931 0)
(0.0192309 -0.111814 0)
(0.0144045 0.0291942 0)
(0.00193756 0.207036 0)
(0.000290442 0.320104 0)
(-0.00160244 0.377277 0)
(-0.00223903 0.405978 0)
(-0.00253328 0.420736 0)
(-0.00241598 0.428345 0)
(-0.00208493 0.4322 0)
(-0.00172768 0.434124 0)
(-0.00138486 0.435072 0)
(-0.0010555 0.435535 0)
(-0.000743901 0.435766 0)
(-0.000446541 0.435885 0)
(-0.000162595 0.435955 0)
(0.00010707 0.435994 0)
(0.000374875 0.436007 0)
(0.000644306 0.43598 0)
(0.000914991 0.435863 0)
(0.00118847 0.435543 0)
(0.00146987 0.434787 0)
(0.00178039 0.433118 0)
(0.0021176 0.429626 0)
(0.00238024 0.422456 0)
(0.0023769 0.407817 0)
(0.00278523 0.378351 0)
(0.00191723 0.317545 0)
(4.08361e-05 0.20339 0)
(-0.0153236 0.0258653 0)
(0.000323086 -0.0710235 0)
(0.00435925 -0.119659 0)
(0.00707781 0.0244554 0)
(0.00246425 0.211605 0)
(-0.000154762 0.326607 0)
(-0.00140228 0.383588 0)
(-0.00199047 0.411587 0)
(-0.00219665 0.425902 0)
(-0.00213403 0.43333 0)
(-0.00187396 0.437164 0)
(-0.00154634 0.439112 0)
(-0.00122492 0.440093 0)
(-0.000917628 0.440591 0)
(-0.000630259 0.440848 0)
(-0.000359062 0.440988 0)
(-0.000102182 0.44107 0)
(0.000143015 0.441115 0)
(0.000391708 0.441127 0)
(0.000651597 0.441093 0)
(0.000924869 0.440963 0)
(0.00121639 0.440621 0)
(0.00153193 0.439827 0)
(0.00189154 0.438102 0)
(0.00221972 0.434541 0)
(0.00247032 0.427352 0)
(0.0026682 0.412979 0)
(0.00278923 0.384412 0)
(0.00201754 0.326703 0)
(-0.000749262 0.214822 0)
(-0.014277 0.0327797 0)
(-0.0113948 -0.0821551 0)
(-0.00628904 -0.120539 0)
(0.00347399 0.0211347 0)
(0.00294018 0.216715 0)
(-0.000759035 0.333262 0)
(-0.00162633 0.389759 0)
(-0.00184883 0.417242 0)
(-0.00184539 0.431189 0)
(-0.00172725 0.438407 0)
(-0.00151122 0.442171 0)
(-0.00123882 0.444116 0)
(-0.000969159 0.445115 0)
(-0.00071264 0.445631 0)
(-0.000472757 0.445903 0)
(-0.00024609 0.446053 0)
(-3.08951e-05 0.446144 0)
(0.000176284 0.446191 0)
(0.000390634 0.446198 0)
(0.000619882 0.446156 0)
(0.00086546 0.446009 0)
(0.00112996 0.445641 0)
(0.00141426 0.444812 0)
(0.00171168 0.443047 0)
(0.00191722 0.439484 0)
(0.00202748 0.432376 0)
(0.00205923 0.418238 0)
(0.00188985 0.390198 0)
(0.000624852 0.333966 0)
(-0.00231291 0.222836 0)
(-0.0106049 0.0396983 0)
(-0.0105342 -0.0927609 0)
(-0.0142685 -0.120619 0)
(0.00062863 0.0277455 0)
(0.00139876 0.223476 0)
(-0.00263978 0.338635 0)
(-0.0024728 0.395326 0)
(-0.00189666 0.422641 0)
(-0.00145508 0.436431 0)
(-0.00120953 0.44355 0)
(-0.00101747 0.447259 0)
(-0.000823423 0.449192 0)
(-0.000634899 0.450193 0)
(-0.000455861 0.450715 0)
(-0.000283854 0.450993 0)
(-0.000116765 0.451148 0)
(4.4145e-05 0.451241 0)
(0.000202439 0.451285 0)
(0.000369697 0.451286 0)
(0.000550032 0.451233 0)
(0.000741911 0.451068 0)
(0.00094594 0.45068 0)
(0.00115561 0.449838 0)
(0.00133867 0.448081 0)
(0.00141478 0.444597 0)
(0.00139523 0.437642 0)
(0.0012347 0.423857 0)
(0.000631613 0.396467 0)
(-0.000782484 0.340979 0)
(-0.00341688 0.229907 0)
(-0.00605032 0.0449449 0)
(-0.00449318 -0.100023 0)
(-0.017111 -0.115073 0)
(-0.00333964 0.0475759 0)
(-0.00241563 0.233098 0)
(-0.00398937 0.344326 0)
(-0.00315554 0.399713 0)
(-0.0016698 0.427448 0)
(-0.000851951 0.441507 0)
(-0.000515388 0.448729 0)
(-0.000393188 0.452447 0)
(-0.000315878 0.454373 0)
(-0.000240039 0.455366 0)
(-0.000161 0.455883 0)
(-7.41338e-05 0.456157 0)
(1.98808e-05 0.456308 0)
(0.000117037 0.456395 0)
(0.000218416 0.456435 0)
(0.000328027 0.456423 0)
(0.000446863 0.456358 0)
(0.000572414 0.456186 0)
(0.000701982 0.4558 0)
(0.000821897 0.45498 0)
(0.000890201 0.453288 0)
(0.000869077 0.449949 0)
(0.000761032 0.44321 0)
(0.000449759 0.429821 0)
(-0.000175106 0.402885 0)
(-0.00145338 0.347586 0)
(-0.0036041 0.237015 0)
(-0.00380075 0.0509916 0)
(0.00116123 -0.105248 0)
(-0.0102865 -0.102971 0)
(-0.00852274 0.0749944 0)
(-0.010456 0.250359 0)
(-0.00636983 0.349115 0)
(-0.00257039 0.40297 0)
(-0.000268999 0.431715 0)
(0.000414048 0.446568 0)
(0.000489354 0.454054 0)
(0.000383076 0.457817 0)
(0.000266449 0.459715 0)
(0.000191697 0.460669 0)
(0.000152529 0.461156 0)
(0.000143632 0.461409 0)
(0.000156278 0.461546 0)
(0.000183003 0.461621 0)
(0.000221786 0.46165 0)
(0.000266815 0.461629 0)
(0.000318019 0.461561 0)
(0.000371218 0.461393 0)
(0.000420548 0.461025 0)
(0.00044812 0.460247 0)
(0.000413448 0.458649 0)
(0.00031363 0.455457 0)
(0.000142262 0.448926 0)
(-0.000172478 0.435815 0)
(-0.000618919 0.409139 0)
(-0.0014655 0.353973 0)
(-0.00327687 0.24379 0)
(-0.00285943 0.0580377 0)
(0.00314489 -0.111192 0)
(-0.00452428 -0.0926511 0)
(-0.00959537 0.0926642 0)
(-0.0115101 0.25978 0)
(0.000196502 0.348615 0)
(0.00307606 0.404904 0)
(0.00284143 0.436421 0)
(0.00264083 0.452135 0)
(0.00186882 0.459787 0)
(0.00127568 0.463468 0)
(0.000874795 0.465253 0)
(0.000619017 0.466126 0)
(0.000454724 0.466547 0)
(0.000349983 0.466756 0)
(0.000281054 0.466864 0)
(0.00023646 0.466919 0)
(0.000211598 0.466932 0)
(0.00019128 0.46691 0)
(0.000173494 0.466843 0)
(0.00015631 0.466685 0)
(0.000127259 0.466346 0)
(6.76831e-05 0.465627 0)
(-6.46658e-05 0.464136 0)
(-0.000255524 0.461069 0)
(-0.000521366 0.454713 0)
(-0.000912684 0.44177 0)
(-0.00146573 0.415142 0)
(-0.00225985 0.359993 0)
(-0.00272343 0.251286 0)
(-0.00300747 0.0660195 0)
(0.00166649 -0.113528 0)
(0.00113778 -0.085788 0)
(0.0064165 0.0931546 0)
(0.0228767 0.24422 0)
(0.0216796 0.342909 0)
(0.0152406 0.405353 0)
(0.00869062 0.442498 0)
(0.00537601 0.459093 0)
(0.00330332 0.466224 0)
(0.00211389 0.469524 0)
(0.00140976 0.471064 0)
(0.000980419 0.471734 0)
(0.000707081 0.47205 0)
(0.000520377 0.472191 0)
(0.000379922 0.472256 0)
(0.000272097 0.472282 0)
(0.000189136 0.472282 0)
(0.000108898 0.472261 0)
(2.81135e-05 0.472199 0)
(-5.51611e-05 0.472064 0)
(-0.000157874 0.471766 0)
(-0.000301759 0.471118 0)
(-0.000531614 0.469736 0)
(-0.000839881 0.466807 0)
(-0.00127242 0.46063 0)
(-0.0019258 0.447858 0)
(-0.00294833 0.421237 0)
(-0.00406774 0.365514 0)
(-0.00417558 0.255936 0)
(-0.00486825 0.0700104 0)
(-0.00133136 -0.111734 0)
(0.00905881 -0.0704018 0)
(0.0313276 0.0969253 0)
(0.033335 0.235146 0)
(0.0278717 0.337324 0)
(0.0198189 0.404731 0)
(0.014151 0.447374 0)
(0.00641461 0.46734 0)
(0.00399433 0.473351 0)
(0.00250976 0.47589 0)
(0.00170748 0.476969 0)
(0.00121403 0.477461 0)
(0.00087694 0.477636 0)
(0.000635804 0.477697 0)
(0.000444355 0.477715 0)
(0.000287952 0.477708 0)
(0.000156668 0.477697 0)
(2.69863e-05 0.477677 0)
(-0.000107836 0.477628 0)
(-0.000250402 0.477521 0)
(-0.00041887 0.477274 0)
(-0.000641744 0.47671 0)
(-0.000958565 0.475458 0)
(-0.00139302 0.472705 0)
(-0.00204604 0.466799 0)
(-0.00311913 0.45434 0)
(-0.00496611 0.42804 0)
(-0.00706543 0.372142 0)
(-0.010152 0.257756 0)
(-0.0117021 0.0679428 0)
(-0.00440744 -0.110095 0)
(0.00468092 -0.0517429 0)
(0.0219106 0.0902139 0)
(0.0225806 0.228343 0)
(0.0198943 0.340937 0)
(0.0161737 0.412155 0)
(0.0108173 0.457902 0)
(0.00493564 0.475549 0)
(0.00354597 0.480362 0)
(0.00246124 0.482186 0)
(0.00175869 0.482939 0)
(0.00128814 0.483214 0)
(0.000953492 0.483269 0)
(0.00069251 0.483255 0)
(0.000473834 0.483225 0)
(0.000285419 0.483192 0)
(0.000116669 0.483172 0)
(-5.16627e-05 0.483155 0)
(-0.000228931 0.483121 0)
(-0.000419953 0.483045 0)
(-0.000640192 0.482855 0)
(-0.000922673 0.482387 0)
(-0.00130195 0.481289 0)
(-0.00183383 0.478764 0)
(-0.00265439 0.473226 0)
(-0.00405862 0.461306 0)
(-0.00655239 0.435728 0)
(-0.00918274 0.376557 0)
(-0.0150073 0.255462 0)
(-0.0183452 0.0656312 0)
(-0.00811167 -0.106827 0)
(-0.00666873 -0.0281969 0)
(0.00346964 0.0799665 0)
(0.00793899 0.224818 0)
(0.00930888 0.345254 0)
(0.0133666 0.424608 0)
(0.00400907 0.468297 0)
(0.00300539 0.482509 0)
(0.00250917 0.486755 0)
(0.00203145 0.488315 0)
(0.00159523 0.488845 0)
(0.00123836 0.488938 0)
(0.000949452 0.488908 0)
(0.000699062 0.488838 0)