/*--------------------------------*- C++ -*----------------------------------*\
| =========                 |                                                 |
| \\      /  F ield         | OpenFOAM: The Open Source CFD Toolbox           |
|  \\    /   O peration     | Version:  2.3.0                                 |
|   \\  /    A nd           | Web:      www.OpenFOAM.org                      |
|    \\/     M anipulation  |                                                 |
\*---------------------------------------------------------------------------*/
FoamFile
{
    version     2.0;
    format      ascii;
    class       volScalarField;
    location    "80";
    object      alpha.water;
}
// * * * * * * * * * * * * * * * * * * * * * * * * * * * * * * * * * * * * * //

dimensions      [0 0 0 0 0 0 0];

internalField   nonuniform List<scalar> 
1875
(
0.702325
0.748081
0.772953
0.772096
0.768896
0.764289
0.75877
0.752616
0.74626
0.740107
0.7345
0.730595
0.728866
0.728147
0.728747
0.731854
0.738036
0.746115
0.755036
0.765071
0.773257
0.76896
0.742614
0.698074
0.70608
0.744055
0.774213
0.803221
0.813733
0.818097
0.817346
0.814963
0.810923
0.805216
0.797862
0.788638
0.777228
0.7657
0.755135
0.746824
0.739241
0.739652
0.74346
0.751264
0.762174
0.773267
0.786226
0.786089
0.764314
0.793223
0.810507
0.823806
0.837356
0.841745
0.842838
0.841995
0.840047
0.8373
0.833304
0.827985
0.821498
0.812911
0.799951
0.783714
0.76729
0.751017
0.740541
0.737149
0.743522
0.755647
0.770105
0.78623
0.789184
0.785342
0.809763
0.894859
0.886563
0.873087
0.865896
0.862179
0.857934
0.85256
0.84654
0.840044
0.832895
0.824665
0.815254
0.804692
0.791576
0.775443
0.75641
0.739222
0.73343
0.736878
0.749392
0.766858
0.784295
0.789249
0.789407
0.809763
0.948887
0.922186
0.88709
0.878662
0.873005
0.86598
0.857162
0.846306
0.837419
0.829263
0.820584
0.810656
0.799543
0.785981
0.769504
0.750476
0.734089
0.733383
0.737908
0.751569
0.769263
0.785234
0.79015
0.791584
0.809763
0.964413
0.925034
0.880495
0.880503
0.873001
0.861689
0.850345
0.838279
0.827166
0.817534
0.807643
0.796482
0.783816
0.769017
0.753025
0.739523
0.734091
0.73488
0.74318
0.758512
0.775151
0.787696
0.79238
0.794434
0.807743
0.964413
0.910882
0.866811
0.875699
0.861406
0.844197
0.830268
0.817163
0.804903
0.793632
0.782042
0.769841
0.757388
0.746107
0.738615
0.736357
0.736206
0.742332
0.754544
0.76945
0.782587
0.79114
0.795632
0.797968
0.803375
0.964413
0.881371
0.845932
0.855416
0.830893
0.81188
0.797001
0.783459
0.771562
0.760902
0.751463
0.7443
0.740367
0.739283
0.739262
0.740388
0.746275
0.756975
0.769419
0.780887
0.789476
0.795039
0.798977
0.799609
0.79784
0.957266
0.844948
0.818556
0.821662
0.791885
0.775084
0.761534
0.751245
0.744451
0.74157
0.739945
0.739939
0.74114
0.742648
0.747014
0.753827
0.763712
0.774203
0.783345
0.790372
0.795309
0.799027
0.802091
0.799722
0.790013
0.938156
0.810004
0.790586
0.788094
0.762189
0.750479
0.742156
0.738387
0.738171
0.738213
0.740482
0.743254
0.748717
0.755133
0.763557
0.772955
0.781891
0.789124
0.794438
0.79819
0.801035
0.803788
0.806009
0.798059
0.778257
0.916602
0.781985
0.769857
0.768237
0.749938
0.743027
0.739137
0.738171
0.738036
0.740411
0.746889
0.754455
0.763487
0.773031
0.782227
0.790203
0.796285
0.80064
0.80368
0.805873
0.807771
0.809893
0.811418
0.796168
0.765164
0.899254
0.763752
0.757899
0.759835
0.745906
0.741038
0.738528
0.73814
0.740853
0.748432
0.758891
0.769659
0.780168
0.789512
0.7971
0.802831
0.806929
0.809753
0.811648
0.813055
0.814105
0.814802
0.814822
0.795869
0.750527
0.887895
0.753063
0.750037
0.755184
0.743992
0.740225
0.738609
0.740027
0.748035
0.759967
0.772532
0.784167
0.794089
0.801803
0.807401
0.81125
0.813661
0.814749
0.814861
0.814822
0.81489
0.814822
0.815047
0.791672
0.722846
0.881705
0.745554
0.741465
0.751801
0.742523
0.739581
0.739115
0.744805
0.757384
0.771539
0.784682
0.795563
0.803711
0.809335
0.812739
0.814339
0.814822
0.814859
0.814822
0.815008
0.814822
0.81516
0.814822
0.776027
0.720427
0.878126
0.739851
0.734867
0.749161
0.741293
0.739329
0.740665
0.751071
0.766144
0.780936
0.793371
0.802038
0.807265
0.810516
0.812652
0.814142
0.814808
0.814822
0.815036
0.814822
0.815166
0.814822
0.806301
0.761415
0.720427
0.876473
0.736512
0.735054
0.747366
0.740289
0.739324
0.742575
0.756474
0.771982
0.785196
0.794894
0.801749
0.806573
0.809599
0.811598
0.812987
0.814041
0.814832
0.814822
0.814759
0.812571
0.808436
0.797317
0.778501
0.754818
0.87646
0.737371
0.734972
0.746849
0.74024
0.739329
0.742011
0.755579
0.770948
0.783995
0.79351
0.800057
0.804462
0.807313
0.80936
0.8109
0.81193
0.812201
0.81035
0.807083
0.803707
0.799213
0.798091
0.81943
0.829834
0.875264
0.743987
0.73614
0.745619
0.740942
0.739372
0.740801
0.751717
0.76669
0.780045
0.789908
0.796662
0.800994
0.803824
0.806043
0.807815
0.808642
0.807575
0.803444
0.800868
0.801066
0.798291
0.793101
0.844207
0.892992
0.868828
0.75965
0.740021
0.744281
0.742212
0.739879
0.740006
0.745885
0.758344
0.772116
0.783347
0.791354
0.796469
0.799665
0.802043
0.804019
0.80496
0.803757
0.800498
0.800401
0.801645
0.803218
0.789705
0.833896
0.915488
0.857808
0.782103
0.749298
0.745201
0.743457
0.741189
0.740251
0.741716
0.748464
0.760004
0.772354
0.782867
0.79023
0.7949
0.797962
0.800285
0.801761
0.801504
0.800401
0.800406
0.802066
0.806956
0.789705
0.812558
0.915488
0.844095
0.8049
0.7674
0.749883
0.745291
0.742886
0.741016
0.741019
0.742261
0.747943
0.757992
0.769415
0.779697
0.787454
0.79275
0.79646
0.799096
0.800327
0.80058
0.800953
0.80228
0.806984
0.791151
0.794821
0.91477
0.828506
0.822443
0.792946
0.763307
0.750218
0.745399
0.742567
0.741238
0.741238
0.742269
0.746876
0.750981
0.761121
0.772258
0.782095
0.78967
0.795184
0.798769
0.800761
0.802208
0.803133
0.806986
0.79326
0.785082
0.905248
0.81303
0.83479
0.818095
0.786123
0.762779
0.751397
0.745782
0.742447
0.741386
0.740766
0.739241
0.738659
0.739037
0.747862
0.761764
0.775392
0.786406
0.794494
0.799739
0.80327
0.804666
0.807197
0.793856
0.780201
0.894552
0.790321
0.835283
0.835325
0.811763
0.784282
0.764781
0.753313
0.746256
0.742477
0.740558
0.738659
0.737483
0.738659
0.738248
0.744307
0.756297
0.770918
0.784638
0.795339
0.802396
0.805854
0.807426
0.793592
0.777224
0.888152
0.75075
0.834397
0.837738
0.82978
0.808757
0.785961
0.767867
0.754976
0.746481
0.741433
0.738438
0.738659
0.737704
0.738659
0.73947
0.744312
0.755113
0.770364
0.786151
0.798759
0.805505
0.807501
0.793237
0.774334
0.884883
0.747315
0.829133
0.838238
0.837738
0.827497
0.808709
0.787907
0.76941
0.755009
0.744824
0.738659
0.737562
0.738659
0.73829
0.738732
0.740485
0.74608
0.75777
0.774576
0.791883
0.803713
0.807426
0.793007
0.771032
0.88273
0.747315
0.818028
0.837738
0.837852
0.835688
0.825202
0.807398
0.786696
0.767351
0.75163
0.739293
0.738659
0.738013
0.738659
0.738745
0.74006
0.74314
0.750653
0.764908
0.783759
0.800168
0.807506
0.792791
0.770846
0.881361
0.747315
0.798394
0.838012
0.837738
0.837743
0.833459
0.82149
0.802634
0.781265
0.761068
0.741896
0.738057
0.738659
0.73848
0.738687
0.740097
0.743236
0.748419
0.759222
0.776929
0.795772
0.807426
0.792475
0.770848
0.881091
0.755843
0.782692
0.814217
0.830202
0.837402
0.836512
0.829184
0.81398
0.79304
0.769912
0.74525
0.738659
0.738407
0.738659
0.738699
0.740293
0.743632
0.748722
0.757154
0.772616
0.792042
0.806565
0.791005
0.770846
0.881632
0.784647
0.782496
0.778767
0.809771
0.833977
0.836225
0.829971
0.815374
0.793032
0.769274
0.744584
0.738485
0.738659
0.738636
0.738864
0.740827
0.744451
0.749581
0.75761
0.77104
0.790677
0.804991
0.781905
0.77138
0.883311
0.83016
0.783401
0.778764
0.797725
0.828645
0.834621
0.828525
0.812936
0.789654
0.764643
0.742663
0.738659
0.73863
0.738684
0.739325
0.741804
0.745715
0.750973
0.75883
0.771697
0.791208
0.80301
0.752879
0.773266
0.883794
0.875391
0.782784
0.778808
0.80152
0.827286
0.831835
0.824307
0.805674
0.78036
0.755977
0.740639
0.738651
0.738696
0.738957
0.740189
0.743203
0.747317
0.752708
0.760682
0.773412
0.791505
0.799607
0.749029
0.777732
0.88178
0.902682
0.781825
0.778803
0.811419
0.827508
0.82752
0.815009
0.791645
0.766222
0.747429
0.739594
0.738881
0.738952
0.739585
0.741483
0.74491
0.749091
0.75461
0.763059
0.77616
0.79117
0.793912
0.747516
0.785395
0.876176
0.908627
0.782261
0.782409
0.820246
0.827413
0.818284
0.798041
0.772862
0.752989
0.742601
0.739762
0.739341
0.739473
0.740622
0.743169
0.74675
0.7509
0.756719
0.766056
0.779428
0.790209
0.78626
0.749029
0.795427
0.868126
0.90864
0.783673
0.790805
0.821268
0.82172
0.800636
0.776626
0.756865
0.745736
0.741484
0.740229
0.739905
0.740365
0.7421
0.74502
0.748529
0.752749
0.759252
0.769666
0.782298
0.788754
0.777972
0.746966
0.805884
0.859631
0.908655
0.78522
0.796906
0.818757
0.804766
0.778316
0.759749
0.748731
0.74379
0.74174
0.740728
0.740545
0.741597
0.743797
0.746763
0.750163
0.75478
0.762379
0.773596
0.784236
0.786899
0.770649
0.749029
0.813909
0.85177
0.908674
0.780904
0.794943
0.809729
0.781612
0.761548
0.751306
0.745899
0.74328
0.741833
0.741385
0.741661
0.742971
0.745443
0.748252
0.751747
0.757158
0.765994
0.777254
0.78497
0.784833
0.765232
0.746338
0.816487
0.845219
0.907427
0.759506
0.785172
0.793935
0.76515
0.754026
0.748384
0.745046
0.743202
0.742232
0.742153
0.742742
0.744418
0.746822
0.74955
0.753449
0.759909
0.769639
0.779913
0.784965
0.782952
0.762482
0.749029
0.813912
0.841832
0.903051
0.743664
0.762191
0.777554
0.758034
0.751999
0.747727
0.745031
0.743437
0.742922
0.742946
0.743814
0.74573
0.747957
0.750806
0.755377
0.762855
0.772823
0.781558
0.784858
0.781856
0.763292
0.746018
0.802448
0.843495
0.89704
0.745013
0.744112
0.765438
0.754636
0.751165
0.747432
0.745114
0.743909
0.743659
0.743651
0.744866
0.746791
0.748953
0.752129
0.757494
0.7657
0.775295
0.782505
0.784821
0.781263
0.764371
0.749029
0.774093
0.847006
0.891421
0.743569
0.745013
0.758109
0.752425
0.750466
0.747187
0.745312
0.744455
0.744247
0.744274
0.745801
0.747659
0.749881
0.75352
0.759598
0.768104
0.77696
0.782944
0.784705
0.780444
0.764292
0.745889
0.749029
0.849002
0.887044
0.745013
0.744135
0.753929
0.750974
0.749851
0.747025
0.745592
0.744955
0.74474
0.744923
0.746609
0.748409
0.750783
0.754901
0.761476
0.769882
0.777926
0.783028
0.784375
0.779134
0.762935
0.749029
0.74812
0.849055
0.883881
0.743932
0.745013
0.751483
0.75004
0.74939
0.74702
0.745879
0.745342
0.745155
0.745603
0.747326
0.749095
0.75164
0.756114
0.763008
0.771223
0.778552
0.783207
0.78432
0.777037
0.759877
0.745941
0.749029
0.8491
0.881513
0.745013
0.744455
0.749818
0.749372
0.749084
0.747042
0.74613
0.745669
0.745561
0.746307
0.747989
0.74969
0.752248
0.756813
0.763925
0.772192
0.779236
0.783658
0.784515
0.774219
0.755767
0.749029
0.748228
0.849542
0.879621
0.744348
0.745013
0.748647
0.748818
0.748857
0.747088
0.746368
0.746005
0.745956
0.747063
0.748601
0.750045
0.752261
0.756786
0.763887
0.772417
0.779926
0.784167
0.784582
0.772058
0.752612
0.746045
0.749029
0.851003
0.878016
0.745013
0.744713
0.748528
0.748578
0.748523
0.747132
0.746629
0.746311
0.746322
0.747746
0.749068
0.750218
0.752201
0.756575
0.76362
0.772281
0.780133
0.784403
0.784562
0.771629
0.751358
0.749029
0.74827
0.853739
0.87665
0.744665
0.745013
0.748631
0.748563
0.748159
0.747186
0.74685
0.746613
0.746843
0.747851
0.749213
0.750445
0.752092
0.756065
0.76303
0.77185
0.779988
0.784316
0.784658
0.771739
0.751325
0.746233
0.749029
0.858068
0.875327
0.745013
0.744861
0.748633
0.748572
0.748305
0.747308
0.746966
0.747109
0.747279
0.747905
0.749205
0.750425
0.751967
0.755452
0.762104
0.770907
0.779426
0.784045
0.78479
0.772543
0.751778
0.749029
0.748343
0.863914
0.874
0.744895
0.745013
0.748917
0.748672
0.748389
0.747478
0.747272
0.747469
0.747326
0.748149
0.74915
0.750148
0.751836
0.754972
0.760868
0.769278
0.778175
0.783406
0.784793
0.774566
0.753204
0.746542
0.749029
0.870989
0.872563
0.745013
0.744953
0.749426
0.748888
0.748288
0.747578
0.747597
0.747481
0.747608
0.748069
0.749068
0.750115
0.751658
0.754506
0.759435
0.767026
0.776061
0.782266
0.784693
0.777635
0.756014
0.749029
0.748407
0.878956
0.870556
0.745002
0.745013
0.749949
0.749108
0.748403
0.74766
0.747599
0.747643
0.74765
0.747863
0.748804
0.750024
0.751615
0.754205
0.758211
0.764523
0.773119
0.78053
0.784249
0.780584
0.760236
0.746934
0.749029
0.887208
0.867891
0.745396
0.744998
0.750797
0.749479
0.748507
0.747837
0.747703
0.747707
0.747649
0.747969
0.748476
0.749596
0.751453
0.753864
0.75731
0.762189
0.76973
0.778117
0.783229
0.781857
0.764873
0.749029
0.748522
0.89513
0.865269
0.746129
0.745087
0.751701
0.750022
0.748475
0.747841
0.747848
0.747708
0.747837
0.747968
0.748457
0.749524
0.751238
0.753482
0.756359
0.760318
0.766533
0.775162
0.781495
0.781665
0.768096
0.74732
0.749029
0.902023
0.862377
0.747156
0.745304
0.752495
0.750494
0.748626
0.747922
0.747846
0.74782
0.747927
0.747929
0.748373
0.74947
0.75106
0.753139
0.755621
0.758893
0.763996
0.772127
0.779076
0.78075
0.768735
0.749029
0.748591
0.906905
0.858999
0.748786
0.745306
0.753501
0.751123
0.748929
0.74811
0.747925
0.747821
0.74785
0.748055
0.748404
0.749213
0.750792
0.752647
0.755012
0.757713
0.762114
0.769513
0.776365
0.778703
0.768486
0.747601
0.749029
0.909603
0.85576
0.750621
0.745577
0.754191
0.751888
0.749324
0.748237
0.748108
0.747822
0.748012
0.748184
0.748501
0.749235
0.750528
0.752202
0.754266
0.756729
0.760674
0.767437
0.774082
0.775749
0.767532
0.749029
0.748644
0.910941
0.852242
0.75262
0.746095
0.754172
0.752472
0.750028
0.748525
0.74792
0.747889
0.748084
0.748169
0.748478
0.749259
0.750358
0.75183
0.753562
0.755929
0.759489
0.765668
0.772564
0.77284
0.765777
0.747823
0.749029
0.911668
0.84824
0.755188
0.746334
0.754276
0.753189
0.750921
0.748961
0.748043
0.747891
0.747932
0.748259
0.748524
0.7491
0.750112
0.751347
0.752926
0.755205
0.758475
0.764039
0.771517
0.770951
0.7637
0.749029
0.748711
0.912204
0.844753
0.757792
0.746856
0.754265
0.753994
0.751811
0.749444
0.748345
0.747894
0.748056
0.748354
0.748494
0.749022
0.749865
0.751007
0.752292
0.754553
0.757671
0.762613
0.770667
0.770104
0.761963
0.748094
0.749029
0.912769
0.841475
0.760426
0.747614
0.75414
0.754428
0.752857
0.750246
0.748425
0.748038
0.748135
0.748267
0.74824
0.748901
0.749706
0.750768
0.751851
0.754057
0.757103
0.76153
0.769901
0.769733
0.761066
0.749029
0.748806
0.913423
0.838184
0.763627
0.748285
0.754262
0.75476
0.753903
0.751347
0.748945
0.748346
0.748138
0.74816
0.747671
0.748452
0.749446
0.750455
0.751579
0.753669
0.756702
0.760806
0.769182
0.769519
0.761105
0.748426
0.749029
0.913785
0.837274
0.766531
0.749145
0.754257
0.754772
0.754495
0.752261
0.749897
0.748322
0.748236
0.748118
0.747628
0.74788
0.749081
0.750108
0.751244
0.753208
0.756264
0.760142
0.768277
0.769181
0.761254
0.749029
0.748917
0.913787
0.837504
0.768411
0.749095
0.753777
0.754741
0.754404
0.752497
0.750005
0.748267
0.748132
0.747916
0.747592
0.747628
0.748509
0.749513
0.750625
0.752363
0.755283
0.758883
0.766497
0.768229
0.761355
0.74877
0.74903
0.913787
0.838577
0.769278
0.749087
0.752645
0.754124
0.754116
0.752444
0.749925
0.748342
0.747749
0.747618
0.747628
0.747609
0.747694
0.748474
0.749608
0.751184
0.753706
0.757048
0.764015
0.766807
0.761593
0.749029
0.749009
0.913794
0.843618
0.770183
0.749363
0.753012
0.754513
0.754939
0.753469
0.751071
0.7496
0.748837
0.748543
0.748621
0.748596
0.748655
0.749337
0.750438
0.752041
0.754516
0.757948
0.76479
0.76846
0.764528
0.751072
0.751784
0.912925
0.856983
0.773432
0.75451
0.757945
0.759355
0.76033
0.759337
0.757581
0.756464
0.755793
0.755297
0.75541
0.755433
0.755591
0.756253
0.757468
0.759327
0.762225
0.765565
0.771927
0.776518
0.774665
0.763314
0.763818
0.912924
0.853894
0.770994
0.76263
0.762999
0.762999
0.762999
0.762999
0.762999
0.762999
0.762992
0.762408
0.762286
0.762138
0.762088
0.762442
0.763478
0.765163
0.767521
0.77054
0.775517
0.776518
0.776518
0.775707
0.771851
0.900272
0.731297
0.68697
0.688021
0.683706
0.679328
0.680573
0.68198
0.682774
0.683157
0.683086
0.682305
0.681341
0.67984
0.677789
0.675951
0.6746
0.673537
0.672654
0.671797
0.672395
0.67122
0.672129
0.67515
0.670254
0.730705
0.236283
0.286706
0.300743
0.296452
0.29422
0.29812
0.302745
0.306582
0.309111
0.310299
0.310105
0.30877
0.305912
0.30142
0.296372
0.290698
0.284073
0.2764
0.267758
0.258736
0.250537
0.245187
0.244554
0.234123
0.187414
0.0134243
0.0238895
0.0300915
0.0313019
0.0318722
0.0327265
0.0336824
0.0345722
0.035237
0.0356275
0.0357141
0.0355059
0.0349579
0.0340705
0.0329885
0.0317117
0.0302274
0.0285523
0.026785
0.0250362
0.0235301
0.0223635
0.0212673
0.016717
0.00858293
4.46063e-05
0.000257509
0.000712771
0.000897627
0.000909239
0.00090675
0.000914431
0.00093113
0.000949272
0.000962929
0.000967544
0.000961273
0.000943335
0.000914756
0.000879222
0.000838373
0.000793376
0.000746507
0.000701658
0.000662681
0.000635304
0.000616849
0.00052738
0.000211518
4.22923e-05
3.76176e-08
3.23502e-07
3.71362e-06
6.25123e-06
5.80511e-06
5.27272e-06
5.02908e-06
4.97266e-06
5.03867e-06
5.18193e-06
5.32126e-06
5.37674e-06
5.3374e-06
5.23244e-06
5.09956e-06
4.96995e-06
4.85295e-06
4.74861e-06
4.66744e-06
4.63488e-06
4.69135e-06
4.95806e-06
3.99334e-06
4.3226e-07
4.31077e-08
1.46344e-10
8.48699e-10
6.31234e-09
7.58769e-09
3.81709e-09
2.24754e-09
1.41713e-09
1.06344e-09
1.13089e-09
1.89565e-09
3.01348e-09
4.01297e-09
4.66079e-09
5.10065e-09
5.61569e-09
6.2529e-09
7.03732e-09
7.91153e-09
8.76673e-09
9.5544e-09
1.01409e-08
1.10766e-08
1.17738e-08
1.25483e-09
1.29361e-10
1.42647e-11
5.85243e-12
6.00697e-12
2.23954e-12
4.04676e-13
5.69544e-14
5.44009e-15
4.10783e-15
3.66374e-15
2.22045e-15
2.44249e-15
8.46323e-13
3.96128e-13
4.79283e-13
9.01057e-13
1.58551e-12
2.69329e-12
4.32965e-12
6.71396e-12
1.01682e-11
1.43772e-11
1.81656e-11
2.38241e-11
1.28627e-11
2.5579e-11
1.31232e-11
6.60616e-12
5.43454e-12
1.91858e-12
9.58122e-14
1.11022e-16
-6.66134e-16
-8.88178e-16
-6.66134e-16
-6.66134e-16
-8.88178e-16
-6.66134e-16
-6.66134e-16
1.66533e-15
1.22125e-14
1.01918e-13
4.71068e-13
1.20171e-12
2.62779e-12
5.14366e-12
8.84659e-12
1.31725e-11
1.11365e-11
1.18959e-11
2.25324e-11
)
;

boundaryField
{
    inlet
    {
        type            calculated;
        value           uniform 0.5;
    }
    outlet
    {
        type            calculated;
        value           nonuniform List<scalar> 
25
(
1.31232e-11
6.60616e-12
5.43454e-12
0
0
0
0
0
0
0
0
0
0
0
0
0
0
1.20171e-12
2.62779e-12
5.14366e-12
8.84659e-12
1.31725e-11
1.11365e-11
1.18959e-11
2.25324e-11
)
;
    }
    walls
    {
        type            calculated;
        value           nonuniform List<scalar> 
150
(
0.702325
0.744055
0.810507
0.894859
0.948887
0.964413
0.964413
0.964413
0.957266
0.938156
0.916602
0.899254
0.887895
0.881705
0.878126
0.876473
0.87646
0.875264
0.868828
0.857808
0.844095
0.828506
0.81303
0.790321
0.75075
0.747315
0.747315
0.747315
0.755843
0.784647
0.83016
0.875391
0.902682
0.908627
0.90864
0.908655
0.908674
0.907427
0.903051
0.89704
0.891421
0.887044
0.883881
0.881513
0.879621
0.878016
0.87665
0.875327
0.874
0.872563
0.870556
0.867891
0.865269
0.862377
0.858999
0.85576
0.852242
0.84824
0.844753
0.841475
0.838184
0.837274
0.837504
0.838577
0.843618
0.856983
0.853894
0.731297
0.236283
0.0134243
4.46063e-05
3.76176e-08
1.46344e-10
1.42647e-11
1.31232e-11
0.70608
0.793223
0.809763
0.809763
0.809763
0.807743
0.803375
0.79784
0.790013
0.778257
0.765164
0.750527
0.722846
0.720427
0.720427
0.754818
0.829834
0.892992
0.915488
0.915488
0.91477
0.905248
0.894552
0.888152
0.884883
0.88273
0.881361
0.881091
0.881632
0.883311
0.883794
0.88178
0.876176
0.868126
0.859631
0.85177
0.845219
0.841832
0.843495
0.847006
0.849002
0.849055
0.8491
0.849542
0.851003
0.853739
0.858068
0.863914
0.870989
0.878956
0.887208
0.89513
0.902023
0.906905
0.909603
0.910941
0.911668
0.912204
0.912769
0.913423
0.913785
0.913787
0.913787
0.913794
0.912925
0.912924
0.900272
0.730705
0.187414
0.00858293
4.22923e-05
4.31077e-08
1.29361e-10
2.5579e-11
2.25324e-11
)
;
    }
    defaultFaces
    {
        type            empty;
    }
}


// ************************************************************************* //
