/*--------------------------------*- C++ -*----------------------------------*\
| =========                 |                                                 |
| \\      /  F ield         | OpenFOAM: The Open Source CFD Toolbox           |
|  \\    /   O peration     | Version:  2.3.0                                 |
|   \\  /    A nd           | Web:      www.OpenFOAM.org                      |
|    \\/     M anipulation  |                                                 |
\*---------------------------------------------------------------------------*/
FoamFile
{
    version     2.0;
    format      ascii;
    class       volVectorField;
    location    "0.32";
    object      U;
}
// * * * * * * * * * * * * * * * * * * * * * * * * * * * * * * * * * * * * * //

dimensions      [0 1 -1 0 0 0 0];

internalField   nonuniform List<vector> 
545
(
(0.454632 0.0864695 4.22638e-29)
(0.403961 0.00703116 3.80617e-30)
(0.362313 0.00334914 -1.90988e-31)
(0.332878 0.00332689 0)
(0.301707 0.00851977 -8.55927e-31)
(0.460348 0.0266362 8.52691e-29)
(0.416313 0.0219391 1.06405e-29)
(0.36247 0.0213612 1.06211e-30)
(0.329946 0.018691 0)
(0.298118 0.0212015 -1.24739e-30)
(0.466132 0.0431935 1.32161e-30)
(0.414866 0.0383396 5.74607e-31)
(0.358099 0.0340508 4.43365e-31)
(0.324512 0.0288942 0)
(0.292026 0.0316147 -4.32513e-31)
(0.464054 0.060885 -1.65547e-28)
(0.399197 0.0526771 -3.40227e-30)
(0.349801 0.0465511 -2.82676e-31)
(0.315823 0.0386836 0)
(0.282524 0.0401843 -2.42907e-29)
(0.469106 0.00369498 -3.25207e-28)
(0.371647 0.0753369 1.2729e-30)
(0.339688 0.0631779 2.14623e-30)
(0.301912 0.0562104 7.87946e-30)
(0.263647 0.0765377 -4.03507e-29)
(0.271377 0.00724535 0)
(0.257314 0.00154823 0)
(0.257752 1.64821e-05 0)
(0.258492 -0.000530796 0)
(0.259471 -0.000227073 0)
(0.259767 -0.000189602 0)
(0.25999 1.52865e-05 0)
(0.25995 -7.43483e-05 0)
(0.260036 5.7805e-05 0)
(0.259963 -6.26455e-05 0)
(0.260037 6.26055e-05 0)
(0.259964 -6.28579e-05 0)
(0.260035 6.38328e-05 0)
(0.259965 -6.40004e-05 0)
(0.260033 6.47402e-05 0)
(0.259966 -6.49898e-05 0)
(0.260032 6.56186e-05 0)
(0.259968 -6.59138e-05 0)
(0.26003 6.65091e-05 0)
(0.25997 -6.68313e-05 0)
(0.260029 6.73366e-05 0)
(0.259971 -6.75699e-05 0)
(0.260027 6.80936e-05 0)
(0.259973 -6.82638e-05 0)
(0.260025 6.87569e-05 0)
(0.259974 -6.89544e-05 0)
(0.260023 6.9338e-05 0)
(0.259976 -6.95631e-05 0)
(0.260021 6.99439e-05 0)
(0.259978 -7.01865e-05 0)
(0.260019 7.04784e-05 0)
(0.25998 -7.06126e-05 0)
(0.260017 7.08644e-05 0)
(0.259982 -7.09594e-05 0)
(0.260015 7.12619e-05 0)
(0.259984 -7.13092e-05 0)
(0.260013 7.15319e-05 0)
(0.259986 -7.15743e-05 0)
(0.260011 7.17296e-05 0)
(0.259989 -7.17996e-05 0)
(0.260008 7.18586e-05 0)
(0.259991 -7.18231e-05 0)
(0.260006 7.17095e-05 0)
(0.259994 -7.14322e-05 0)
(0.260003 7.04671e-05 0)
(0.26937 0.0149991 0)
(0.257316 0.00339066 0)
(0.258255 -7.10338e-05 0)
(0.25894 -0.000513274 0)
(0.259531 -0.000420863 0)
(0.259885 -0.000100191 0)
(0.259918 -0.000114523 0)
(0.260027 4.50793e-05 0)
(0.25996 -6.5539e-05 0)
(0.260037 6.12367e-05 0)
(0.259964 -6.26539e-05 0)
(0.260036 6.33925e-05 0)
(0.259965 -6.36103e-05 0)
(0.260035 6.42951e-05 0)
(0.259967 -6.47304e-05 0)
(0.260033 6.52251e-05 0)
(0.259968 -6.57068e-05 0)
(0.260032 6.61188e-05 0)
(0.259969 -6.6558e-05 0)
(0.26003 6.6904e-05 0)
(0.259971 -6.739e-05 0)
(0.260029 6.77975e-05 0)
(0.259973 -6.81377e-05 0)
(0.260027 6.85475e-05 0)
(0.259974 -6.88334e-05 0)
(0.260025 6.91625e-05 0)
(0.259976 -6.95537e-05 0)
(0.260023 6.98033e-05 0)
(0.259978 -7.00893e-05 0)
(0.260021 7.02409e-05 0)
(0.25998 -7.05505e-05 0)
(0.260019 7.0801e-05 0)
(0.259982 -7.10753e-05 0)
(0.260017 7.13105e-05 0)
(0.259984 -7.13873e-05 0)
(0.260015 7.1613e-05 0)
(0.259986 -7.17101e-05 0)
(0.260013 7.18688e-05 0)
(0.259989 -7.1963e-05 0)
(0.260011 7.19983e-05 0)
(0.259991 -7.20711e-05 0)
(0.260008 7.20679e-05 0)
(0.259993 -7.20175e-05 0)
(0.260006 7.16349e-05 0)
(0.259996 -7.13051e-05 0)
(0.26622 0.0241058 0)
(0.256715 0.00461056 0)
(0.259237 -0.000206775 0)
(0.259507 -0.000918272 0)
(0.259918 -0.000459048 0)
(0.259915 -0.000284844 0)
(0.260029 -1.59952e-05 0)
(0.259958 -8.36008e-05 0)
(0.260036 5.57393e-05 0)
(0.259963 -6.37357e-05 0)
(0.260036 6.28463e-05 0)
(0.259965 -6.331e-05 0)
(0.260035 6.42477e-05 0)
(0.259966 -6.45371e-05 0)
(0.260034 6.51001e-05 0)
(0.259967 -6.55503e-05 0)
(0.260032 6.59938e-05 0)
(0.259969 -6.64925e-05 0)
(0.260031 6.69728e-05 0)
(0.25997 -6.74985e-05 0)
(0.260029 6.78061e-05 0)
(0.259972 -6.81396e-05 0)
(0.260028 6.85725e-05 0)
(0.259973 -6.8815e-05 0)
(0.260026 6.92367e-05 0)
(0.259975 -6.95225e-05 0)
(0.260024 6.96838e-05 0)
(0.259977 -7.00509e-05 0)
(0.260022 7.03966e-05 0)
(0.259979 -7.09047e-05 0)
(0.26002 7.10746e-05 0)
(0.259981 -7.12393e-05 0)
(0.260018 7.13437e-05 0)
(0.259983 -7.14954e-05 0)
(0.260016 7.18432e-05 0)
(0.259985 -7.18978e-05 0)
(0.260014 7.21086e-05 0)
(0.259987 -7.21827e-05 0)
(0.260012 7.23215e-05 0)
(0.25999 -7.25047e-05 0)
(0.26001 7.25269e-05 0)
(0.259992 -7.25011e-05 0)
(0.260007 7.23668e-05 0)
(0.259995 -7.23901e-05 0)
(0.260005 7.18344e-05 0)
(0.262006 0.0307553 0)
(0.25694 0.00469779 0)
(0.260553 -0.000725328 0)
(0.260452 -0.000888923 0)
(0.260214 -0.000579807 0)
(0.260128 -0.000156092 0)
(0.259991 -0.000131454 0)
(0.260045 4.02154e-05 0)
(0.259963 -6.72055e-05 0)
(0.260037 6.06602e-05 0)
(0.259964 -6.28504e-05 0)
(0.260036 6.33921e-05 0)
(0.259965 -6.35265e-05 0)
(0.260034 6.42794e-05 0)
(0.259966 -6.4707e-05 0)
(0.260033 6.52267e-05 0)
(0.259968 -6.57085e-05 0)
(0.260032 6.61263e-05 0)
(0.259969 -6.64848e-05 0)
(0.26003 6.6802e-05 0)
(0.259971 -6.73516e-05 0)
(0.260028 6.78431e-05 0)
(0.259973 -6.81492e-05 0)
(0.260027 6.86391e-05 0)
(0.259974 -6.88707e-05 0)
(0.260025 6.9274e-05 0)
(0.259976 -6.98439e-05 0)
(0.260023 7.00921e-05 0)
(0.259978 -7.02329e-05 0)
(0.260021 7.01541e-05 0)
(0.25998 -7.05035e-05 0)
(0.260019 7.08806e-05 0)
(0.259982 -7.12687e-05 0)
(0.260017 7.15239e-05 0)
(0.259984 -7.14689e-05 0)
(0.260015 7.17448e-05 0)
(0.259986 -7.18178e-05 0)
(0.260013 7.20192e-05 0)
(0.259988 -7.20969e-05 0)
(0.260011 7.20492e-05 0)
(0.259991 -7.21724e-05 0)
(0.260008 7.23119e-05 0)
(0.259993 -7.23291e-05 0)
(0.260006 7.21388e-05 0)
(0.259994 -7.18972e-05 0)
(0.259391 0.051622 0)
(0.259966 0.00419291 0)
(0.262602 -0.000675045 0)
(0.261263 -0.000857943 0)
(0.260607 -0.000341682 0)
(0.260139 -0.000216736 0)
(0.260093 1.53888e-05 0)
(0.259975 -7.33862e-05 0)
(0.26004 5.88676e-05 0)
(0.259963 -6.38413e-05 0)
(0.260036 6.32411e-05 0)
(0.259964 -6.38935e-05 0)
(0.260035 6.47726e-05 0)
(0.259966 -6.51264e-05 0)
(0.260034 6.56702e-05 0)
(0.259967 -6.6125e-05 0)
(0.260033 6.65624e-05 0)
(0.259969 -6.70927e-05 0)
(0.260031 6.76836e-05 0)
(0.25997 -6.82298e-05 0)
(0.260029 6.84912e-05 0)
(0.259972 -6.87677e-05 0)
(0.260028 6.92098e-05 0)
(0.259974 -6.94272e-05 0)
(0.260026 6.98393e-05 0)
(0.259975 -7.00555e-05 0)
(0.260024 7.00581e-05 0)
(0.259977 -7.04366e-05 0)
(0.260022 7.09735e-05 0)
(0.259979 -7.16821e-05 0)
(0.26002 7.18677e-05 0)
(0.259981 -7.19145e-05 0)
(0.260018 7.19133e-05 0)
(0.259983 -7.20636e-05 0)
(0.260016 7.25115e-05 0)
(0.259985 -7.25814e-05 0)
(0.260014 7.27824e-05 0)
(0.259987 -7.28669e-05 0)
(0.260012 7.30247e-05 0)
(0.25999 -7.33044e-05 0)
(0.26001 7.33498e-05 0)
(0.259992 -7.32336e-05 0)
(0.260007 7.32798e-05 0)
(0.259994 -7.28863e-05 0)
(0.260002 7.36285e-05 0)
(0.268835 -5.90569e-05 0)
(0.262068 5.85801e-05 0)
(0.264325 -5.96177e-05 0)
(0.261994 6.0269e-05 0)
(0.26067 -6.11053e-05 0)
(0.260229 6.16862e-05 0)
(0.26001 -6.23397e-05 0)
(0.260051 6.2888e-05 0)
(0.259965 -6.34989e-05 0)
(0.260037 6.41176e-05 0)
(0.259963 -6.47359e-05 0)
(0.260035 6.53182e-05 0)
(0.259965 -6.58818e-05 0)
(0.260034 6.64275e-05 0)
(0.259966 -6.69414e-05 0)
(0.260033 6.74011e-05 0)
(0.259968 -6.78873e-05 0)
(0.260031 6.84075e-05 0)
(0.259969 -6.88868e-05 0)
(0.26003 6.93252e-05 0)
(0.25997 -6.97636e-05 0)
(0.260028 7.01796e-05 0)
(0.259972 -7.05585e-05 0)
(0.260027 7.09024e-05 0)
(0.259974 -7.12393e-05 0)
(0.260025 7.15951e-05 0)
(0.259976 -7.19826e-05 0)
(0.260022 7.23046e-05 0)
(0.259978 -7.25953e-05 0)
(0.26002 7.28686e-05 0)
(0.259979 -7.31426e-05 0)
(0.260019 7.33925e-05 0)
(0.259981 -7.3629e-05 0)
(0.260016 7.38185e-05 0)
(0.259984 -7.39841e-05 0)
(0.260015 7.41483e-05 0)
(0.259986 -7.43032e-05 0)
(0.260013 7.44469e-05 0)
(0.259988 -7.45691e-05 0)
(0.26001 7.47411e-05 0)
(0.25999 -7.48286e-05 0)
(0.260008 7.49799e-05 0)
(0.259992 -7.48342e-05 0)
(0.260005 7.57375e-05 0)
(0.259995 -7.41043e-05 0)
(0.469105 -0.00380377 0)
(0.371648 -0.0752278 2.49916e-31)
(0.339687 -0.0632878 -2.00038e-30)
(0.301914 -0.0560996 -7.87953e-30)
(0.263646 -0.0766495 0)
(0.464055 -0.0607762 0)
(0.399196 -0.0527863 0)
(0.349802 -0.0464413 0)
(0.315822 -0.0387945 -2.46226e-30)
(0.282526 -0.040072 0)
(0.466131 -0.0433022 0)
(0.414866 -0.0382305 0)
(0.358098 -0.0341607 0)
(0.324513 -0.0287835 -1.39182e-30)
(0.292025 -0.0317265 0)
(0.460349 -0.0265274 0)
(0.416311 -0.0220483 0)
(0.362471 -0.0212513 0)
(0.329944 -0.0188019 5.93242e-31)
(0.298119 -0.0210895 0)
(0.454631 -0.0865782 0)
(0.403962 -0.00692199 0)
(0.362312 -0.00345894 0)
(0.332879 -0.00321602 9.07787e-32)
(0.301707 -0.00863181 0)
(0.259394 -0.0515089 0)
(0.259966 -0.00430868 0)
(0.262602 0.000791787 0)
(0.261263 0.000740037 0)
(0.260607 0.000461145 0)
(0.260139 9.59522e-05 0)
(0.260093 0.000106779 0)
(0.259975 -5.0125e-05 0)
(0.26004 6.57088e-05 0)
(0.259963 -6.19145e-05 0)
(0.260036 6.36519e-05 0)
(0.259964 -6.41356e-05 0)
(0.260035 6.43684e-05 0)
(0.259966 -6.50673e-05 0)
(0.260034 6.56256e-05 0)
(0.259967 -6.61768e-05 0)
(0.260032 6.66264e-05 0)
(0.259969 -6.69964e-05 0)
(0.260031 6.73284e-05 0)
(0.25997 -6.76728e-05 0)
(0.260029 6.82466e-05 0)
(0.259972 -6.87964e-05 0)
(0.260028 6.91988e-05 0)
(0.259974 -6.97424e-05 0)
(0.260026 7.00012e-05 0)
(0.259975 -7.03803e-05 0)
(0.260024 7.09555e-05 0)
(0.259977 -7.12035e-05 0)
(0.260022 7.12751e-05 0)
(0.259979 -7.11167e-05 0)
(0.26002 7.14546e-05 0)
(0.259981 -7.18888e-05 0)
(0.260018 7.23656e-05 0)
(0.259983 -7.27195e-05 0)
(0.260016 7.27168e-05 0)
(0.259985 -7.29777e-05 0)
(0.260014 7.30816e-05 0)
(0.259988 -7.32461e-05 0)
(0.260012 7.33006e-05 0)
(0.25999 -7.31192e-05 0)
(0.26001 7.33495e-05 0)
(0.259992 -7.35511e-05 0)
(0.260008 7.39108e-05 0)
(0.259994 -7.35853e-05 0)
(0.260009 7.39031e-05 0)
(0.262006 -0.0308682 0)
(0.256941 -0.00458364 0)
(0.260552 0.000609494 0)
(0.260452 0.00100617 0)
(0.260214 0.00046117 0)
(0.260128 0.000275957 0)
(0.259991 1.03883e-05 0)
(0.260045 8.19453e-05 0)
(0.259963 -5.62451e-05 0)
(0.260037 6.39427e-05 0)
(0.259964 -6.29333e-05 0)
(0.260036 6.35248e-05 0)
(0.259965 -6.4458e-05 0)
(0.260034 6.47712e-05 0)
(0.259966 -6.53163e-05 0)
(0.260033 6.57493e-05 0)
(0.259968 -6.62483e-05 0)
(0.260032 6.67981e-05 0)
(0.259969 -6.73531e-05 0)
(0.26003 6.7891e-05 0)
(0.259971 -6.819e-05 0)
(0.260028 6.84916e-05 0)
(0.259973 -6.89165e-05 0)
(0.260027 6.91207e-05 0)
(0.259974 -6.95792e-05 0)
(0.260025 6.98882e-05 0)
(0.259976 -7.00142e-05 0)
(0.260023 7.03864e-05 0)
(0.259978 -7.08087e-05 0)
(0.260021 7.14334e-05 0)
(0.25998 -7.15991e-05 0)
(0.260019 7.17131e-05 0)
(0.259982 -7.17657e-05 0)
(0.260017 7.18893e-05 0)
(0.259984 -7.22717e-05 0)
(0.260015 7.23265e-05 0)
(0.259986 -7.25503e-05 0)
(0.260013 7.26354e-05 0)
(0.259988 -7.28064e-05 0)
(0.260011 7.31597e-05 0)
(0.259991 -7.31955e-05 0)
(0.260009 7.32966e-05 0)
(0.259993 -7.33152e-05 0)
(0.260007 7.35882e-05 0)
(0.259995 -7.40467e-05 0)
(0.266221 -0.023992 0)
(0.256715 -0.00472579 0)
(0.259237 0.000323085 0)
(0.259507 0.000800561 0)
(0.259918 0.000578037 0)
(0.259915 0.000164493 0)
(0.260029 0.000137661 0)
(0.259958 -3.93633e-05 0)
(0.260036 6.8305e-05 0)
(0.259963 -6.15435e-05 0)
(0.260036 6.35792e-05 0)
(0.259965 -6.42307e-05 0)
(0.260035 6.43972e-05 0)
(0.259966 -6.51467e-05 0)
(0.260034 6.56259e-05 0)
(0.259967 -6.61659e-05 0)
(0.260032 6.6668e-05 0)
(0.259969 -6.71033e-05 0)
(0.260031 6.75325e-05 0)
(0.25997 -6.78869e-05 0)
(0.260029 6.84098e-05 0)
(0.259972 -6.88816e-05 0)
(0.260028 6.92305e-05 0)
(0.259973 -6.97219e-05 0)
(0.260026 6.99982e-05 0)
(0.259975 -7.03748e-05 0)
(0.260024 7.08464e-05 0)
(0.259977 -7.11028e-05 0)
(0.260022 7.13477e-05 0)
(0.259979 -7.1389e-05 0)
(0.26002 7.17343e-05 0)
(0.259981 -7.20476e-05 0)
(0.260018 7.23924e-05 0)
(0.259983 -7.2669e-05 0)
(0.260016 7.27074e-05 0)
(0.259985 -7.29783e-05 0)
(0.260014 7.30733e-05 0)
(0.259987 -7.32659e-05 0)
(0.260012 7.33843e-05 0)
(0.25999 -7.33775e-05 0)
(0.26001 7.35923e-05 0)
(0.259992 -7.37341e-05 0)
(0.260008 7.40206e-05 0)
(0.259994 -7.43484e-05 0)
(0.260006 7.44859e-05 0)
(0.269369 -0.0151122 0)
(0.257317 -0.00327609 0)
(0.258255 -4.50358e-05 0)
(0.258941 0.000630831 0)
(0.259531 0.000302046 0)
(0.259885 0.000220336 0)
(0.259918 -6.79844e-06 0)
(0.260027 7.74029e-05 0)
(0.25996 -5.82535e-05 0)
(0.260037 6.36601e-05 0)
(0.259964 -6.34097e-05 0)
(0.260036 6.38074e-05 0)
(0.259965 -6.46494e-05 0)
(0.260035 6.50428e-05 0)
(0.259967 -6.56086e-05 0)
(0.260033 6.60987e-05 0)
(0.259968 -6.65805e-05 0)
(0.260032 6.71034e-05 0)
(0.259969 -6.75729e-05 0)
(0.26003 6.80875e-05 0)
(0.259971 -6.84465e-05 0)
(0.260029 6.88413e-05 0)
(0.259973 -6.92644e-05 0)
(0.260027 6.95825e-05 0)
(0.259974 -6.99877e-05 0)
(0.260025 7.03356e-05 0)
(0.259976 -7.05951e-05 0)
(0.260023 7.09614e-05 0)
(0.259978 -7.12513e-05 0)
(0.260021 7.16493e-05 0)
(0.25998 -7.18495e-05 0)
(0.260019 7.20878e-05 0)
(0.259982 -7.22645e-05 0)
(0.260017 7.24427e-05 0)
(0.259984 -7.27293e-05 0)
(0.260015 7.28424e-05 0)
(0.259986 -7.30414e-05 0)
(0.260013 7.31571e-05 0)
(0.259989 -7.3291e-05 0)
(0.260011 7.34983e-05 0)
(0.259991 -7.35924e-05 0)
(0.260009 7.37801e-05 0)
(0.259993 -7.39356e-05 0)
(0.260007 7.43231e-05 0)
(0.259994 -7.51235e-05 0)
(0.271378 -0.00713172 0)
(0.257314 -0.00166303 0)
(0.257752 9.96524e-05 0)
(0.258492 0.000413506 0)
(0.259472 0.000345864 0)
(0.259768 6.96525e-05 0)
(0.25999 0.000106081 0)
(0.259951 -4.82959e-05 0)
(0.260036 6.58329e-05 0)
(0.259963 -6.23261e-05 0)
(0.260037 6.34567e-05 0)
(0.259964 -6.43176e-05 0)
(0.260035 6.4464e-05 0)
(0.259965 -6.53056e-05 0)
(0.260033 6.56175e-05 0)
(0.259966 -6.63267e-05 0)
(0.260032 6.66744e-05 0)
(0.259968 -6.73128e-05 0)
(0.26003 6.76162e-05 0)
(0.25997 -6.81752e-05 0)
(0.260029 6.84955e-05 0)
(0.259971 -6.90688e-05 0)
(0.260027 6.93062e-05 0)
(0.259973 -6.98603e-05 0)
(0.260025 7.00725e-05 0)
(0.259975 -7.05469e-05 0)
(0.260023 7.08167e-05 0)
(0.259976 -7.12012e-05 0)
(0.260021 7.14127e-05 0)
(0.259978 -7.17085e-05 0)
(0.260019 7.19376e-05 0)
(0.25998 -7.22749e-05 0)
(0.260017 7.24779e-05 0)
(0.259982 -7.2783e-05 0)
(0.260015 7.28555e-05 0)
(0.259984 -7.3129e-05 0)
(0.260013 7.32138e-05 0)
(0.259986 -7.34304e-05 0)
(0.260011 7.35323e-05 0)
(0.259989 -7.36603e-05 0)
(0.260009 7.37973e-05 0)
(0.259991 -7.39657e-05 0)
(0.260007 7.42333e-05 0)
(0.259993 -7.46866e-05 0)
(0.260004 7.5918e-05 0)
)
;

boundaryField
{
    AirInlet
    {
        type            fixedValue;
        value           uniform (0.1 0 0);
    }
    WaterInlet
    {
        type            fixedValue;
        value           uniform (0.5 0 0);
    }
    ChannelWall
    {
        type            fixedValue;
        value           uniform (0 0 0);
    }
    Outlet
    {
        type            pressureInletOutletVelocity;
        value           nonuniform List<vector> 
11
(
(0.260003 7.04671e-05 0)
(0.259996 -7.13051e-05 0)
(0.260005 7.18344e-05 0)
(0.259994 -7.18972e-05 0)
(0.260002 7.36285e-05 0)
(0.259995 -7.41043e-05 0)
(0.260009 7.39031e-05 0)
(0.259995 -7.40467e-05 0)
(0.260006 7.44859e-05 0)
(0.259994 -7.51235e-05 0)
(0.260004 7.5918e-05 0)
)
;
    }
    FrontAndBack
    {
        type            empty;
    }
}


// ************************************************************************* //
