/*--------------------------------*- C++ -*----------------------------------*\
| =========                 |                                                 |
| \\      /  F ield         | OpenFOAM: The Open Source CFD Toolbox           |
|  \\    /   O peration     | Version:  2.3.0                                 |
|   \\  /    A nd           | Web:      www.OpenFOAM.org                      |
|    \\/     M anipulation  |                                                 |
\*---------------------------------------------------------------------------*/
FoamFile
{
    version     2.0;
    format      ascii;
    class       surfaceScalarField;
    location    "1.60137";
    object      phi;
}
// * * * * * * * * * * * * * * * * * * * * * * * * * * * * * * * * * * * * * //

dimensions      [0 3 -1 0 0 0 0];

internalField   nonuniform List<scalar> 
2650
(
6.54542e-08
-9.39323e-08
3.18381e-08
7.0853e-08
-1.82003e-08
1.61615e-08
5.48404e-08
4.34059e-09
1.50323e-08
4.90076e-08
-3.84454e-09
1.30374e-08
5.07531e-08
-1.77093e-08
1.93237e-08
4.48314e-08
-4.02832e-08
4.95645e-08
3.52707e-08
-4.57364e-08
5.86568e-08
-9.73122e-11
-2.24291e-08
6.11569e-08
-2.00574e-08
-2.59442e-08
4.92638e-08
-1.82966e-09
-5.44383e-08
3.95698e-08
-4.84959e-09
-4.27513e-08
4.91307e-08
-3.74887e-08
-1.53398e-08
5.13387e-08
-4.83186e-08
-4.18179e-08
5.60075e-08
-4.86787e-08
-5.0728e-08
5.44477e-08
-5.67153e-08
-2.99634e-08
4.13597e-08
-6.14605e-08
-1.26461e-08
2.07512e-08
-8.08506e-08
7.64114e-09
1.51091e-08
-9.75647e-08
5.24561e-09
1.48287e-08
-7.76783e-08
-2.39061e-08
7.37983e-09
-7.07251e-08
-3.59318e-09
3.97172e-08
-1.11034e-07
-2.26158e-08
4.45689e-08
-1.72751e-08
-5.77712e-09
5.55008e-08
-1.77311e-11
-6.57354e-09
6.7591e-08
-1.63653e-08
4.30404e-10
7.48422e-08
-1.96401e-08
-5.32072e-09
6.62605e-08
-1.16281e-08
-2.00738e-08
4.4134e-08
-1.42066e-08
-9.40391e-09
2.28832e-08
-3.30399e-09
2.1253e-09
1.85595e-09
-2.81729e-09
-2.10044e-09
-9.2809e-09
-4.2664e-08
-6.38842e-10
-3.48263e-08
-1.11273e-08
-6.07943e-09
-4.1591e-08
-2.17146e-08
1.31391e-08
-5.83086e-08
-3.70819e-08
1.1981e-08
-8.47648e-08
-3.03719e-08
6.09936e-09
-8.6675e-08
-9.59807e-09
-1.84555e-08
-8.10959e-08
-1.05971e-08
-7.62839e-09
-7.35632e-08
3.01461e-09
-2.90604e-09
-5.90952e-08
3.02034e-09
-1.22428e-08
-3.34507e-08
-4.64602e-08
-3.09067e-09
-1.0157e-07
-2.60609e-09
1.14501e-08
-1.15465e-07
-7.01892e-09
2.2784e-08
-1.96177e-08
-8.99167e-09
5.43601e-08
-2.50038e-08
-6.59019e-09
7.06239e-08
-3.23305e-08
-2.98863e-10
7.30527e-08
-1.91631e-08
-2.90597e-09
6.21008e-08
1.5381e-08
-1.60573e-08
3.94319e-08
3.2316e-08
-2.38535e-08
1.76373e-08
4.61743e-08
-2.7683e-08
6.37307e-09
3.03781e-08
-2.19307e-08
1.04505e-09
-2.36758e-08
-1.36612e-08
-6.39266e-09
1.68607e-08
-2.05503e-08
-3.65844e-08
4.42882e-09
4.04815e-09
-7.40782e-08
-1.94018e-09
2.35172e-09
-9.19078e-08
5.88334e-09
-1.84259e-08
-9.20358e-08
7.1639e-09
-1.66339e-08
-8.69014e-08
-1.2449e-08
-3.28268e-09
-6.59798e-08
-1.40312e-08
-3.87584e-09
-2.83071e-08
-1.97902e-08
-1.48622e-08
-7.62268e-09
-5.88086e-08
-8.33641e-09
-1.0807e-07
-1.1221e-09
-6.43907e-09
-1.0342e-07
-5.60647e-09
3.48218e-08
-4.77702e-08
-1.31087e-08
6.55437e-08
-5.14536e-08
-4.27231e-09
7.44386e-08
-3.81383e-08
-3.08741e-09
6.94566e-08
-1.38644e-08
-3.1686e-10
4.86126e-08
4.00523e-08
-3.82703e-09
2.89804e-08
5.80538e-08
-6.10494e-09
1.84025e-08
6.71976e-08
-1.04432e-08
1.9266e-08
3.52647e-08
-5.74893e-09
1.67184e-08
-2.52453e-08
4.11642e-09
1.35168e-08
2.07599e-08
-6.97226e-10
-3.67521e-08
5.78402e-08
-3.14178e-09
-8.28949e-08
4.37492e-08
4.53567e-10
-1.01894e-07
4.25365e-08
-1.76542e-08
-1.06931e-07
2.60652e-08
-1.38636e-08
-1.04034e-07
-3.11866e-09
-1.22275e-08
-9.24827e-08
-1.94713e-08
-6.11122e-09
-3.43505e-08
-6.29365e-08
-1.4986e-08
3.55206e-09
-7.85731e-08
-1.81382e-08
-9.95668e-08
-4.95164e-09
4.12978e-09
-1.03667e-07
-3.88295e-09
5.35143e-08
-8.24834e-08
-1.46713e-08
6.84456e-08
-7.51646e-08
8.77952e-09
6.98741e-08
-4.1344e-08
1.77686e-09
4.29241e-08
1.20617e-08
1.02392e-09
1.99268e-08
7.11079e-08
-8.05761e-09
1.12932e-08
7.01324e-08
-3.44387e-09
1.6367e-08
6.56203e-08
-3.49382e-09
3.08596e-08
2.11449e-08
-3.71776e-10
2.94471e-08
-2.81865e-08
4.35309e-09
2.40375e-08
2.42842e-08
1.8856e-09
-1.15708e-08
1.00925e-07
-7.47482e-09
-4.92501e-08
1.00081e-07
-1.8651e-08
-8.08347e-08
9.51467e-08
-2.1025e-08
-9.79323e-08
4.59773e-08
-2.81435e-09
-1.05573e-07
2.83971e-09
1.68188e-09
-9.54186e-08
-3.71551e-08
7.52967e-09
-5.94743e-08
-9.84194e-08
-4.61457e-10
-1.88274e-08
-1.12583e-07
-6.63741e-09
-1.17184e-07
-1.21042e-09
6.91111e-09
-1.09603e-07
-9.74814e-10
3.39541e-08
-1.04856e-07
-4.67003e-09
4.02848e-08
-9.45042e-08
1.30086e-08
2.23077e-08
-3.2335e-08
8.96743e-09
-7.65098e-09
4.46022e-08
-2.58109e-09
-8.47005e-09
7.77843e-08
-5.85618e-09
-1.55023e-09
6.38066e-08
-5.92404e-10
1.48208e-08
5.02764e-08
-1.02483e-09
4.16052e-08
-7.44686e-09
1.80755e-09
3.88911e-08
-3.03166e-08
4.84378e-09
2.49723e-08
3.24379e-08
5.76544e-09
5.92564e-09
1.24314e-07
-4.3401e-09
8.45983e-09
1.08454e-07
-1.09058e-08
-7.8424e-09
1.2496e-07
-1.35098e-08
-3.38623e-08
7.37929e-08
-1.79518e-09
-6.69276e-08
2.43157e-08
1.15896e-08
-6.3472e-08
-5.81187e-08
1.75071e-08
-4.57192e-08
-1.23647e-07
7.47452e-09
-1.84237e-08
-1.38461e-07
-1.41718e-09
-1.34944e-07
-6.63992e-10
1.22281e-09
-1.10691e-07
-1.34903e-10
2.76737e-09
-1.07962e-07
1.56138e-09
-3.9602e-09
-9.25685e-08
4.79123e-09
-1.86037e-08
-2.49659e-08
7.27354e-09
-2.10318e-08
4.1446e-08
5.58568e-09
-1.25857e-08
6.81574e-08
1.18257e-09
-7.17488e-10
4.74676e-08
4.47246e-09
1.75924e-08
2.94585e-08
2.50927e-09
4.48489e-08
-3.25346e-08
-2.16906e-09
4.11109e-08
-2.65584e-08
-2.05013e-11
1.55609e-08
5.11301e-08
6.85825e-09
8.35698e-09
1.343e-07
-2.77939e-09
2.57919e-08
9.58033e-08
-4.78129e-09
3.04375e-08
1.25666e-07
-5.34964e-09
1.59389e-08
8.64843e-08
1.8082e-09
-4.27518e-09
4.07737e-08
3.75695e-09
-2.18677e-08
-4.73463e-08
6.81873e-09
-1.93449e-08
-1.32572e-07
6.40195e-09
-9.54866e-09
-1.47618e-07
-6.3924e-10
-1.43871e-07
-6.21219e-10
-5.00285e-09
-1.06014e-07
3.25962e-10
-1.09547e-08
-1.02164e-07
1.5341e-10
-2.17512e-08
-7.06788e-08
-1.10936e-08
-2.28265e-08
-2.0689e-08
-3.20218e-09
-1.73128e-08
3.05006e-08
5.43307e-09
-8.3335e-09
5.51368e-08
4.04328e-09
8.86273e-09
2.36049e-08
6.66752e-09
3.19774e-08
4.02308e-09
2.32123e-09
4.79598e-08
-4.01946e-08
-8.32267e-09
3.21019e-08
-7.77215e-09
-2.92856e-09
3.34472e-09
7.9665e-08
2.23076e-10
6.60543e-09
1.33573e-07
-2.53047e-09
2.30066e-08
7.85408e-08
8.64284e-10
3.05212e-08
1.21312e-07
-3.15819e-09
2.43887e-08
9.26915e-08
-7.30788e-11
1.36459e-08
4.85163e-08
3.00174e-09
3.44069e-09
-3.46965e-08
-2.4458e-09
-9.92379e-10
-1.23491e-07
-4.64876e-09
-2.92175e-09
-1.45714e-07
2.50648e-11
-1.46722e-07
-7.09319e-11
-5.57096e-09
-1.00717e-07
2.73894e-10
-1.78824e-08
-9.02446e-08
3.92143e-10
-2.64447e-08
-5.32136e-08
-8.90298e-09
-1.94835e-08
-6.36539e-09
-2.1285e-08
-1.00844e-08
1.77172e-08
3.38506e-09
-2.19212e-09
4.42216e-08
3.02485e-09
1.44429e-08
6.97468e-09
-4.46799e-12
3.19254e-08
1.62433e-09
-1.50836e-08
3.58267e-08
-3.6032e-08
-8.06394e-09
7.92382e-09
2.24912e-08
-2.36043e-09
-5.5171e-09
9.82588e-08
-5.15141e-09
3.24149e-09
1.28011e-07
-3.19348e-09
1.55424e-08
6.11422e-08
5.10009e-09
2.21504e-08
1.15797e-07
-1.08954e-09
1.86617e-08
9.56138e-08
5.68764e-10
9.91389e-09
4.91289e-08
8.13698e-09
1.32754e-08
-2.97605e-08
-8.29788e-09
4.94621e-09
-1.09365e-07
-5.79609e-09
1.66982e-10
-1.41014e-07
7.91474e-11
-1.46563e-07
8.51261e-12
-9.14033e-10
1.17944e-10
-3.47329e-09
-2.69805e-10
-5.61806e-09
-8.03652e-10
-2.32966e-09
-5.4703e-09
-1.65604e-09
-6.38424e-10
-3.06692e-10
2.78758e-10
1.59557e-09
2.99912e-09
6.86857e-09
-4.60708e-09
8.48873e-09
-1.87815e-09
-1.73742e-09
2.16038e-09
-4.05214e-09
5.6699e-10
1.79936e-09
-9.52569e-10
5.12298e-09
5.56714e-10
9.53858e-09
-1.38093e-09
6.82321e-09
1.7713e-09
-2.94128e-10
3.27622e-09
2.14056e-09
-2.50108e-09
1.35441e-09
-1.30934e-09
2.04884e-10
-4.87121e-12
2.77204e-10
6.98118e-08
-6.79665e-08
3.33524e-08
7.0315e-08
2.34132e-09
1.66773e-08
5.22535e-08
2.3693e-08
1.27615e-08
4.11227e-08
1.38783e-08
1.36503e-08
4.25353e-08
9.81865e-09
1.14528e-08
3.81502e-08
2.37683e-08
3.3542e-08
2.78752e-08
3.8763e-08
3.35297e-08
-6.8721e-09
6.722e-08
3.20458e-08
-2.42219e-08
4.46928e-08
2.52818e-08
3.49568e-09
-1.00894e-08
2.53015e-08
9.17234e-09
2.48096e-08
2.20049e-08
-2.77956e-08
6.12322e-08
3.04356e-08
-4.40204e-08
4.78143e-08
2.77788e-08
-4.08264e-08
8.67332e-09
4.59406e-08
-4.52048e-08
2.02478e-08
2.88507e-08
-5.14421e-08
1.37214e-08
1.66274e-08
-7.67776e-08
2.61e-08
1.7705e-08
-9.73256e-08
2.49664e-08
1.37708e-08
-8.21743e-08
-1.3397e-08
8.98568e-09
-8.08543e-08
-1.55322e-09
4.39947e-08
-1.13573e-07
-2.10045e-08
4.59064e-08
7.39001e-09
-1.27373e-08
5.3532e-08
1.49506e-08
-5.45606e-09
6.5855e-08
3.54001e-09
-1.55389e-09
6.67457e-08
3.72623e-09
-1.18715e-10
4.71708e-08
3.04683e-08
-7.19774e-09
2.5754e-08
4.61262e-08
4.65137e-09
6.345e-09
7.388e-08
1.48774e-08
-6.51303e-09
4.99585e-08
5.49402e-09
-7.105e-09
-8.05018e-09
-2.08667e-09
-2.27662e-08
3.52411e-08
-8.48709e-10
-2.99278e-08
6.08139e-08
2.07213e-08
-3.71168e-08
5.18167e-08
1.5169e-08
-5.76982e-08
3.38855e-08
1.46934e-09
-7.56465e-08
2.77166e-08
-7.97495e-09
-7.76163e-08
1.1757e-08
-3.69361e-09
-7.05753e-08
1.96834e-08
-3.5298e-09
-6.55202e-08
1.89542e-08
-1.12853e-08
-3.52691e-08
-3.91259e-08
-7.61311e-09
-1.16421e-07
-2.30863e-09
1.19435e-08
-1.25406e-07
-7.12996e-09
2.5663e-08
-7.78566e-09
-7.53557e-09
5.15817e-08
-1.19931e-08
-5.56503e-09
7.06236e-08
-1.62092e-08
4.08456e-10
7.18869e-08
9.36612e-10
-1.37954e-09
5.5804e-08
4.05333e-08
-1.00382e-08
3.34752e-08
5.946e-08
-1.48561e-08
1.57508e-08
8.10992e-08
-1.71739e-08
6.89575e-09
5.23655e-08
-1.54801e-08
1.82055e-09
-8.20572e-09
-8.43109e-09
-6.17018e-09
3.40723e-08
-1.13895e-08
-2.27185e-08
8.21093e-08
-6.96443e-10
-4.37689e-08
7.33496e-08
1.87127e-09
-8.30229e-08
6.8294e-08
-1.35782e-08
-9.17111e-08
3.16328e-08
-1.18609e-08
-8.43594e-08
5.56177e-09
-4.43885e-09
-6.10892e-08
-3.57148e-09
-3.89093e-09
-3.20157e-08
-1.5011e-08
-9.97054e-09
-9.21899e-09
-6.2812e-08
-7.44739e-09
-1.25983e-07
-7.7889e-10
-7.26018e-09
-1.20733e-07
-3.01953e-09
2.98272e-08
-5.02756e-08
-7.70645e-09
6.23105e-08
-4.51905e-08
-3.55857e-09
7.59596e-08
-2.95129e-08
-3.43316e-09
7.00411e-08
6.64194e-09
-1.03627e-10
4.70498e-08
6.25509e-08
-2.8518e-09
2.63539e-08
7.7612e-08
-3.55813e-09
1.76095e-08
9.09027e-08
-1.1497e-08
1.85839e-08
5.17271e-08
-6.08179e-09
2.0072e-08
-8.28713e-09
2.70911e-09
1.67947e-08
3.68741e-08
-2.20293e-10
-1.95372e-08
1.24455e-07
-9.15149e-09
-5.36179e-08
1.1403e-07
-6.14307e-09
-1.00673e-07
1.05677e-07
-7.97878e-09
-1.10496e-07
3.87683e-08
-1.1175e-08
-1.08479e-07
-1.9492e-10
-8.48829e-09
-8.99647e-08
-2.24048e-08
-5.7921e-09
-3.38146e-08
-7.81108e-08
-8.03626e-09
7.15732e-10
-1.06254e-07
-9.22687e-09
-1.27649e-07
-2.57042e-09
2.74994e-09
-1.2515e-07
-2.21629e-09
4.57962e-08
-1.00207e-07
-7.78633e-09
7.29702e-08
-6.80496e-08
4.46411e-09
7.42609e-08
-3.09808e-08
1.95364e-09
5.07165e-08
3.25228e-08
-1.31215e-09
2.10108e-08
9.06921e-08
-6.49128e-09
1.10945e-08
8.5672e-08
-1.58431e-09
1.76227e-08
8.47922e-08
-3.9058e-09
2.94634e-08
3.96109e-08
-9.34616e-11
3.22068e-08
-8.93537e-09
2.25736e-09
2.52794e-08
4.35359e-08
2.15288e-09
-6.79818e-09
1.56274e-07
-7.20988e-09
-4.14507e-08
1.4081e-07
-1.07725e-08
-8.98946e-08
1.41706e-07
-8.60542e-09
-1.08062e-07
5.95374e-08
-5.41545e-09
-1.14858e-07
7.05608e-09
1.22692e-09
-9.2088e-08
-4.09052e-08
3.2597e-09
-5.66194e-08
-1.14543e-07
5.02036e-10
-2.00828e-08
-1.45944e-07
-3.48369e-09
-1.4828e-07
-6.62141e-10
5.11744e-09
-1.30929e-07
-3.12883e-10
2.45545e-08
-1.22727e-07
-1.58731e-09
4.67617e-08
-8.57184e-08
8.46911e-09
2.38708e-08
-3.29107e-09
4.16819e-09
5.90443e-11
5.8898e-08
-5.14351e-09
-6.84843e-09
9.52363e-08
-3.49044e-09
-6.77264e-10
7.91141e-08
-2.02229e-10
1.52518e-08
6.88e-08
-9.56572e-10
4.05901e-08
1.52461e-08
8.35513e-10
3.80118e-08
-4.0344e-09
2.52077e-09
2.20705e-08
6.13871e-08
3.85756e-09
5.14291e-09
1.72792e-07
-3.92211e-09
5.93937e-09
1.36709e-07
-7.59569e-09
-2.16668e-08
1.62754e-07
-6.94743e-09
-4.66448e-08
8.76859e-08
-4.96474e-09
-6.92409e-08
3.50837e-08
6.1585e-09
-6.42077e-08
-4.21063e-08
1.36741e-08
-3.82267e-08
-1.37242e-07
4.19198e-09
-1.6978e-08
-1.68603e-07
-7.07215e-12
-1.66081e-07
1.59041e-10
8.37454e-11
-1.31191e-07
4.38979e-11
2.44609e-09
-1.2479e-07
1.26208e-09
-4.42427e-09
-7.55827e-08
1.52447e-09
-1.81877e-08
1.3154e-08
4.59217e-09
-2.00485e-08
6.35749e-08
2.77125e-09
-1.3093e-08
8.84753e-08
9.90887e-10
1.86966e-11
6.83915e-08
2.08659e-09
1.66288e-08
5.35787e-08
1.12398e-09
4.38744e-08
-1.15746e-08
-2.59387e-09
3.50087e-08
4.57533e-09
2.35436e-10
9.79803e-09
8.9994e-08
3.46478e-09
7.72968e-09
1.74738e-07
-2.64739e-09
2.35567e-08
1.20147e-07
-4.04022e-09
2.59851e-08
1.58178e-07
-3.19732e-09
1.13892e-08
1.02891e-07
1.20042e-09
-3.77708e-09
5.0784e-08
3.22389e-09
-2.27491e-08
-2.05412e-08
4.22467e-09
-1.69027e-08
-1.40171e-07
3.48338e-09
-8.34895e-09
-1.77833e-07
3.73173e-11
-1.74924e-07
-1.27056e-10
-4.90396e-09
-1.26343e-07
3.81302e-10
-1.02976e-08
-1.19432e-07
1.89452e-10
-2.25525e-08
-6.84253e-08
-5.99717e-09
-2.32061e-08
1.40874e-08
-3.48134e-09
-1.79571e-08
6.16298e-08
2.13135e-09
-9.67581e-09
8.26437e-08
1.59668e-09
8.71612e-09
5.43633e-08
2.30643e-09
3.12717e-08
3.33686e-08
-2.21291e-11
4.49765e-08
-2.75931e-08
-6.00948e-09
2.44034e-08
2.38609e-08
-1.64077e-09
-1.27469e-09
1.17126e-07
-1.22742e-09
5.94774e-09
1.67832e-07
-2.83834e-09
2.25819e-08
1.04241e-07
1.42179e-10
3.03592e-08
1.49598e-07
-2.34977e-09
2.435e-08
1.08414e-07
4.15493e-10
1.58748e-08
6.01071e-08
2.15518e-09
3.88212e-09
-9.56442e-09
-1.43034e-09
-1.48228e-09
-1.37565e-07
-1.89092e-09
-2.57618e-09
-1.77203e-07
4.887e-10
-1.77688e-07
1.16728e-10
-5.03383e-09
-1.21354e-07
3.19016e-10
-1.46295e-08
-1.09751e-07
3.0676e-10
-2.42885e-08
-6.37156e-08
-3.95402e-09
-2.29973e-08
1.56469e-09
-1.00529e-08
-1.17549e-08
5.40159e-08
-2.40909e-10
-1.8534e-09
7.59252e-08
-1.54788e-10
1.72323e-08
3.70627e-08
-1.78741e-09
2.95595e-08
1.42441e-08
-8.2852e-09
3.30944e-08
-3.37575e-08
-5.43464e-09
4.62539e-09
5.11645e-08
-1.1942e-09
-7.70362e-09
1.26691e-07
-2.38273e-09
2.89276e-09
1.56463e-07
-2.41222e-09
1.512e-08
9.50247e-08
2.09444e-09
2.36266e-08
1.41268e-07
-1.25986e-09
2.0328e-08
1.11672e-07
6.12229e-10
1.37658e-08
7.06152e-08
4.19293e-09
1.34157e-08
-1.37998e-08
-3.71253e-09
4.21889e-09
-1.3182e-07
-2.34417e-09
8.02685e-11
-1.73395e-07
4.09736e-10
-1.77682e-07
8.29909e-11
-7.56817e-10
8.08428e-11
-3.01474e-09
-7.472e-11
-5.08756e-09
-2.10272e-10
-4.88417e-09
-3.13505e-09
-3.92745e-09
-8.65929e-10
5.65078e-10
-9.06713e-11
7.05657e-09
8.72096e-10
7.7e-09
-2.22139e-09
7.61245e-09
1.02348e-11
-5.93067e-09
-4.42927e-10
-5.36536e-09
3.79343e-10
9.60812e-10
-4.85816e-10
6.29032e-09
7.84988e-10
1.04977e-08
-6.36217e-10
1.04205e-08
1.1856e-09
3.39553e-09
1.65131e-09
2.18445e-09
-3.6847e-09
1.14447e-09
-5.56037e-10
1.6854e-10
5.33797e-11
1.51879e-10
7.27391e-08
-2.82454e-09
-3.32021e-08
6.44462e-08
4.47784e-08
-1.64472e-08
5.08221e-08
4.28631e-08
-1.31162e-08
4.62321e-08
3.42608e-08
-1.26592e-08
4.87164e-08
2.34118e-08
-1.10823e-08
4.56385e-08
7.13572e-08
-3.13744e-08
4.02275e-08
7.59052e-08
-3.36018e-08
6.56101e-09
9.89469e-08
-2.98711e-08
-1.36652e-08
7.80955e-08
-2.9225e-08
2.35552e-08
1.65191e-08
-2.50776e-08
1.89452e-08
5.23273e-08
-2.2351e-08
-2.38135e-08
1.0405e-07
-2.74914e-08
-5.57592e-08
9.19892e-08
-2.89021e-08
-5.20183e-08
9.24842e-08
-4.69215e-08
-5.39347e-08
6.48766e-08
-3.0747e-08
-5.6959e-08
4.07391e-08
-1.77259e-08
-6.50025e-08
4.59586e-08
-1.68487e-08
-8.55064e-08
5.16924e-08
-1.40567e-08
-8.3215e-08
1.91474e-08
-9.09277e-09
-8.30422e-08
1.63391e-09
5.8261e-08
-1.03016e-07
2.09256e-08
4.58864e-08
3.1562e-08
1.2855e-08
5.0084e-08
2.78521e-08
5.35888e-09
6.25022e-08
1.98849e-08
4.05636e-10
6.00156e-08
2.56794e-08
1.02074e-10
4.92303e-08
7.05346e-08
4.41557e-09
3.64915e-08
9.89016e-08
-5.60002e-09
1.73312e-08
1.45857e-07
-1.28632e-08
3.49764e-10
1.05083e-07
-4.50645e-09
-4.04054e-09
1.70745e-08
1.74889e-09
-2.01305e-08
6.62843e-08
1.28726e-09
-2.6413e-08
1.53057e-07
-2.19947e-08
-3.04041e-08
1.24972e-07
-1.38163e-08
-5.19836e-08
1.13853e-07
1.68663e-09
-6.82943e-08
6.3225e-08
9.99234e-09
-7.17535e-08
3.55676e-08
4.93977e-09
-6.5863e-08
3.39057e-08
2.63478e-09
-6.72402e-08
3.02831e-08
1.15023e-08
-3.68991e-08
-2.63478e-08
7.5409e-09
-1.2459e-07
2.33998e-09
1.18162e-08
-1.2906e-07
7.09726e-09
2.64705e-08
1.94964e-09
7.42299e-09
4.77433e-08
-4.26228e-09
5.27699e-09
6.90659e-08
-8.56966e-10
-1.71592e-10
6.74242e-08
2.40831e-08
1.85996e-09
5.11845e-08
6.6532e-08
1.02091e-08
3.42092e-08
8.6119e-08
1.49084e-08
1.73899e-08
1.31494e-07
1.40188e-08
7.31863e-09
8.21029e-08
1.75783e-08
1.69816e-09
5.75608e-09
8.50814e-09
-5.38399e-09
5.0208e-08
1.17721e-08
-2.16408e-08
1.69354e-07
-7.26572e-10
-4.07599e-08
1.46018e-07
-4.84044e-11
-6.92657e-08
1.16091e-07
1.26972e-08
-8.67297e-08
5.76996e-08
1.1133e-08
-8.09273e-08
2.08846e-08
4.4435e-09
-5.66574e-08
1.83288e-09
3.91269e-09
-3.39201e-08
-1.2575e-08
1.01506e-08
-9.64922e-09
-6.58696e-08
7.8032e-09
-1.35825e-07
8.0699e-10
-8.27662e-09
-1.26821e-07
3.01782e-09
2.84624e-08
-5.04453e-08
7.9493e-09
5.74691e-08
-4.04807e-08
3.65285e-09
7.31697e-08
-2.36618e-08
3.67096e-09
6.65088e-08
3.03117e-08
3.2995e-10
4.02887e-08
8.65569e-08
3.34816e-09
2.44568e-08
9.40269e-08
4.37232e-09
1.73559e-08
1.16788e-07
1.03189e-08
1.81012e-08
6.90555e-08
6.22622e-09
2.08508e-08
8.25616e-09
-2.5404e-09
1.94259e-08
5.11316e-08
2.83818e-10
-1.60742e-08
1.87692e-07
8.02306e-09
-4.73695e-08
1.64377e-07
6.80273e-09
-8.65334e-08
1.41125e-07
6.16048e-09
-1.07345e-07
5.61061e-08
1.12327e-08
-1.07269e-07
3.65178e-09
8.66993e-09
-8.90352e-08
-2.80723e-08
5.87898e-09
-3.29827e-08
-8.4551e-08
7.88711e-09
1.91423e-10
-1.17275e-07
9.00405e-09
-1.40777e-07
2.57297e-09
1.86285e-09
-1.33108e-07
2.20828e-09
4.26643e-08
-1.06681e-07
7.64739e-09
7.53082e-08
-6.42311e-08
-4.43005e-09
7.69069e-08
-2.13756e-08
-1.93161e-09
5.37715e-08
5.11566e-08
9.79523e-10
1.91293e-08
1.08281e-07
6.4317e-09
1.14186e-08
9.8023e-08
2.13691e-09
1.73263e-08
1.03413e-07
3.5713e-09
2.87684e-08
5.7528e-08
-2.93971e-12
3.28699e-08
8.73731e-09
-2.32489e-09
2.70119e-08
6.13907e-08
-2.24474e-09
-5.24292e-09
2.0583e-07
6.92106e-09
-3.39209e-08
1.72396e-07
9.89727e-09
-8.60323e-08
1.76689e-07
7.9514e-09
-1.14712e-07
7.38613e-08
5.51093e-09
-1.17048e-07
8.46656e-09
-1.25155e-09
-9.3153e-08
-4.54534e-08
-3.25514e-09
-5.44161e-08
-1.22181e-07
-6.05411e-10
-1.92599e-08
-1.59234e-07
3.31927e-09
-1.61323e-07
6.23097e-10
4.26421e-09
-1.38008e-07
3.23384e-10
2.31881e-08
-1.28698e-07
1.50584e-09
5.45676e-08
-7.86396e-08
-8.50304e-09
3.58419e-08
5.5624e-09
-4.0441e-09
5.03329e-09
7.19019e-08
4.92136e-09
-5.38063e-09
1.11807e-07
3.40278e-09
2.55449e-10
9.19501e-08
2.41111e-10
1.48542e-08
8.71688e-08
6.96663e-10
3.99571e-08
3.40469e-08
-7.82452e-10
3.71807e-08
1.65539e-08
-2.51853e-09
2.01673e-08
8.62216e-08
-3.95508e-09
3.97477e-09
2.13923e-07
4.19246e-09
3.53287e-09
1.57854e-07
7.39852e-09
-2.79383e-08
1.94122e-07
7.10062e-09
-6.20468e-08
9.78668e-08
5.13987e-09
-7.82086e-08
3.69545e-08
-6.16721e-09
-6.4247e-08
-3.20347e-08
-1.37068e-08
-3.60385e-08
-1.41992e-07
-4.20556e-09
-1.58493e-08
-1.79449e-07
1.91527e-11
-1.76883e-07
-1.30204e-10
-2.8616e-10
-1.37647e-07
-3.1049e-11
3.36641e-09
-1.29819e-07
-1.2695e-09
-3.19726e-09
-6.89731e-08
-1.57985e-09
-1.81842e-08
2.98772e-08
-4.73494e-09
-1.91976e-08
7.86411e-08
-2.95217e-09
-1.12585e-08
1.05892e-07
-1.02712e-09
1.02175e-09
8.38349e-08
-2.07264e-09
1.78501e-08
7.26852e-08
-1.21384e-09
4.21931e-08
4.4021e-09
2.70932e-09
3.19624e-08
2.72553e-08
-2.33881e-10
6.74102e-09
1.18435e-07
-3.52081e-09
6.85779e-09
2.08401e-07
2.77233e-09
1.98724e-08
1.36785e-07
4.02447e-09
2.31264e-08
1.84455e-07
3.22513e-09
6.49888e-09
1.16882e-07
-1.18413e-09
-6.91448e-09
5.68259e-08
-3.23316e-09
-2.40572e-08
-6.49421e-09
-4.17351e-09
-1.6429e-08
-1.4265e-07
-3.48795e-09
-7.90932e-09
-1.87879e-07
-5.24264e-11
-1.8505e-07
1.30952e-10
-4.8143e-09
-1.32071e-07
-3.8031e-10
-1.01395e-08
-1.24112e-07
-1.92128e-10
-2.26843e-08
-6.83958e-08
5.96929e-09
-2.48066e-08
2.51923e-08
3.32717e-09
-1.87532e-08
7.69254e-08
-2.20297e-09
-8.46537e-09
9.88478e-08
-1.6406e-09
8.93365e-09
7.09891e-08
-2.2418e-09
3.07968e-08
5.06592e-08
1.45715e-10
4.10022e-08
-1.78601e-08
6.04718e-09
2.0213e-08
4.47834e-08
1.62169e-09
-3.88014e-09
1.4016e-07
1.14801e-09
5.34043e-09
1.93502e-07
2.85525e-09
1.97825e-08
1.226e-07
-1.06343e-10
2.92272e-08
1.70334e-07
2.33644e-09
2.37624e-08
1.23147e-07
-3.81314e-10
1.64591e-08
6.84467e-08
-2.16079e-09
3.65368e-09
3.53202e-09
1.34893e-09
-1.53616e-09
-1.41234e-07
1.88167e-09
-2.37773e-09
-1.86057e-07
-4.92075e-10
-1.87195e-07
-1.15739e-10
-4.63237e-09
-1.26799e-07
-3.20773e-10
-1.38557e-08
-1.14286e-07
-2.95694e-10
-2.36764e-08
-6.65049e-08
3.97533e-09
-2.39458e-08
5.3734e-09
1.00362e-08
-1.30287e-08
6.54786e-08
2.92657e-10
-1.8311e-09
8.72916e-08
2.09483e-10
1.50284e-08
5.03775e-08
1.96861e-09
2.59091e-08
2.30072e-08
8.48859e-09
2.90834e-08
-3.19137e-08
5.44451e-09
1.07734e-09
7.04165e-08
1.18032e-09
-9.02353e-09
1.45541e-07
2.34549e-09
2.43489e-09
1.77268e-07
2.37696e-09
1.34558e-08
1.15683e-07
-2.00075e-09
2.29258e-08
1.58342e-07
1.2724e-09
2.08924e-08
1.26348e-07
-5.50009e-10
1.58218e-08
8.19169e-08
-4.20439e-09
1.3565e-08
-1.61117e-09
3.68759e-09
4.24545e-09
-1.36599e-07
2.34009e-09
1.97817e-10
-1.81191e-07
-4.08825e-10
-1.86831e-07
-8.30958e-11
-7.52066e-10
-7.95114e-11
-2.91719e-09
7.53394e-11
-4.57796e-09
2.13936e-10
-5.51241e-09
3.15068e-09
-4.58125e-09
8.85571e-10
6.08623e-10
8.9617e-11
7.61941e-09
-8.3508e-10
7.21104e-09
2.27291e-09
7.35167e-09
2.71799e-12
-7.88125e-09
4.12738e-10
-6.00805e-09
-3.77975e-10
7.846e-10
4.62891e-10
5.72281e-09
-7.70781e-10
1.05168e-08
6.37336e-10
1.20292e-08
-1.15927e-09
5.01887e-09
-1.66211e-09
2.2654e-09
3.67826e-09
1.14644e-09
5.58443e-10
1.42757e-10
-5.21243e-11
-1.53361e-10
6.98262e-08
-6.79725e-08
-3.16962e-08
7.04193e-08
2.34047e-09
-1.60205e-08
5.23711e-08
2.34974e-08
-1.52048e-08
4.1167e-08
1.46593e-08
-1.2754e-08
4.27392e-08
9.85682e-09
-1.9151e-08
3.8119e-08
2.55283e-08
-4.89219e-08
2.76008e-08
3.92556e-08
-5.89783e-08
-7.29523e-09
6.93772e-08
-6.09906e-08
-2.45664e-08
4.07401e-08
-4.93329e-08
3.42778e-09
-9.94999e-09
-3.9762e-08
9.38313e-09
2.41055e-08
-4.90514e-08
-2.87764e-08
6.37612e-08
-4.97319e-08
-4.41649e-08
4.52591e-08
-5.54118e-08
-4.09265e-08
6.76937e-09
-5.35691e-08
-4.56039e-08
1.82425e-08
-4.09517e-08
-5.16059e-08
1.24262e-08
-2.07898e-08
-7.6794e-08
2.65921e-08
-1.48922e-08
-9.73174e-08
2.47976e-08
-1.49705e-08
-8.21884e-08
-1.34578e-08
-7.40383e-09
-8.08119e-08
3.61743e-09
4.39499e-08
-1.13538e-07
2.2541e-08
4.58787e-08
7.44004e-09
5.8268e-09
5.3553e-08
1.47454e-08
6.43716e-09
6.5884e-08
3.55026e-09
-8.15913e-10
6.68529e-08
3.69707e-09
5.2933e-09
4.75214e-08
2.98233e-08
1.94531e-08
2.61693e-08
4.53554e-08
9.65399e-09
6.4035e-09
7.81206e-08
-1.83747e-09
-6.76739e-09
4.7796e-08
1.61038e-09
-7.28566e-09
-8.207e-09
5.23572e-10
-2.27087e-08
3.4583e-08
6.23382e-09
-2.99302e-08
6.23454e-08
-1.33548e-08
-3.66165e-08
4.9785e-08
-1.16546e-08
-5.73325e-08
3.52636e-08
-6.09073e-09
-7.57139e-08
2.81111e-08
1.85062e-08
-7.75973e-08
1.1726e-08
7.5238e-09
-7.06763e-08
1.96507e-08
2.65591e-09
-6.55005e-08
1.88955e-08
1.22289e-08
-3.52988e-08
-3.91682e-08
3.04936e-09
-1.16399e-07
2.62844e-09
1.19281e-08
-1.25335e-07
6.96509e-09
2.56724e-08
-7.81556e-09
8.93416e-09
5.14895e-08
-1.22707e-08
6.47612e-09
7.06411e-08
-1.61506e-08
3.77616e-10
7.18999e-08
1.15954e-09
3.13881e-09
5.5987e-08
4.01099e-08
1.58366e-08
3.37845e-08
5.8766e-08
2.37026e-08
1.62811e-08
8.23857e-08
2.72611e-08
7.13691e-09
5.23308e-08
2.21903e-08
1.8658e-09
-8.22706e-09
1.37987e-08
-6.17237e-09
3.39178e-08
2.04767e-08
-2.27835e-08
8.29127e-08
-4.68023e-09
-4.34002e-08
7.29253e-08
-2.56997e-09
-8.31386e-08
6.96628e-08
1.80388e-08
-9.17074e-08
3.15799e-08
1.62341e-08
-8.43488e-08
5.56304e-09
3.24809e-09
-6.11039e-08
-3.58459e-09
3.90334e-09
-3.20322e-08
-1.49478e-08
1.49222e-08
-9.22862e-09
-6.26672e-08
8.49818e-09
-1.25961e-07
1.13953e-09
-7.21443e-09
-1.20713e-07
5.61081e-09
2.99711e-08
-5.02386e-08
1.31866e-08
6.20942e-08
-4.50769e-08
4.33548e-09
7.59423e-08
-2.95429e-08
3.2148e-09
7.00246e-08
6.9792e-09
4.28163e-10
4.68883e-08
6.25874e-08
4.00838e-09
2.63859e-08
7.71792e-08
6.46433e-09
1.76873e-08
9.11326e-08
1.02758e-08
1.8629e-08
5.18395e-08
5.77903e-09
2.01319e-08
-8.17668e-09
-4.09434e-09
1.6671e-08
3.69636e-08
7.00412e-10
-1.94597e-08
1.24412e-07
2.65823e-09
-5.35032e-08
1.1451e-07
-7.3446e-10
-1.00908e-07
1.06077e-07
1.7154e-08
-1.10511e-07
3.86046e-08
1.38118e-08
-1.08445e-07
-1.64739e-10
1.23324e-08
-8.98817e-08
-2.24132e-08
6.14407e-09
-3.37952e-08
-7.80008e-08
1.48535e-08
7.14702e-10
-1.06138e-07
1.79646e-08
-1.27639e-07
4.96627e-09
2.75606e-09
-1.25148e-07
3.88705e-09
4.57426e-08
-1.00154e-07
1.45765e-08
7.29651e-08
-6.79902e-08
-8.73959e-09
7.42423e-08
-3.09501e-08
-1.80203e-09
5.06674e-08
3.27321e-08
-1.1981e-09
2.08394e-08
9.0764e-08
8.08497e-09
1.10953e-08
8.53225e-08
3.74091e-09
1.75719e-08
8.48468e-08
3.38632e-09
2.9454e-08
3.96929e-08
2.64424e-10
3.22203e-08
-8.82438e-09
-4.4441e-09
2.51562e-08
4.37203e-08
-1.93571e-09
-6.82681e-09
1.56148e-07
7.1756e-09
-4.16741e-08
1.40848e-07
1.84109e-08
-8.9862e-08
1.41495e-07
2.07255e-08
-1.0802e-07
5.94105e-08
2.8639e-09
-1.1485e-07
7.08704e-09
-1.67307e-09
-9.20925e-08
-4.08845e-08
-7.54223e-09
-5.66117e-08
-1.1452e-07
4.32484e-10
-2.0078e-08
-1.45911e-07
6.55905e-09
-1.48281e-07
1.18653e-09
5.11425e-09
-1.30927e-07
9.87724e-10
2.45476e-08
-1.22714e-07
4.6324e-09
4.67706e-08
-8.5682e-08
-1.30354e-08
2.38788e-08
-3.10483e-09
-8.99787e-09
4.03233e-11
5.90097e-08
2.48315e-09
-6.83925e-09
9.5185e-08
5.86387e-09
-7.04178e-10
7.8831e-08
6.00998e-10
1.516e-08
6.88287e-08
8.55526e-10
4.0613e-08
1.53482e-08
-1.88932e-09
3.80051e-08
-3.90525e-09
-4.83016e-09
2.19489e-08
6.16396e-08
-5.8161e-09
5.10162e-09
1.72762e-07
4.43365e-09
5.87965e-09
1.36681e-07
1.07941e-08
-2.16714e-08
1.62628e-07
1.35227e-08
-4.66254e-08
8.76501e-08
1.85527e-09
-6.92292e-08
3.51163e-08
-1.15923e-08
-6.42102e-08
-4.20808e-08
-1.75304e-08
-3.8242e-08
-1.37236e-07
-7.45833e-09
-1.6986e-08
-1.68593e-07
1.4449e-09
-1.66077e-07
6.79796e-10
8.61056e-11
-1.31187e-07
1.42995e-10
2.44917e-09
-1.24786e-07
-1.56108e-09
-4.43023e-09
-7.5557e-08
-4.82683e-09
-1.82068e-08
1.33038e-08
-7.36669e-09
-2.00535e-08
6.36545e-08
-5.74847e-09
-1.3077e-08
8.8402e-08
-1.21778e-09
-2.35279e-11
6.82815e-08
-4.57356e-09
1.66048e-08
5.36946e-08
-2.70448e-09
4.39018e-08
-1.15252e-08
2.28583e-09
3.49719e-08
4.70455e-09
8.61537e-11
9.73115e-09
9.01721e-08
-6.80973e-09
7.6758e-09
1.74739e-07
2.85988e-09
2.36026e-08
1.20101e-07
4.68368e-09
2.59789e-08
1.58185e-07
5.29687e-09
1.13984e-08
1.02861e-07
-1.81246e-09
-3.77324e-09
5.08027e-08
-3.74694e-09
-2.27421e-08
-2.04952e-08
-6.79123e-09
-1.69013e-08
-1.40166e-07
-6.39924e-09
-8.34962e-09
-1.77824e-07
6.27268e-10
-1.74922e-07
6.26997e-10
-4.902e-09
-1.26341e-07
-3.24342e-10
-1.02968e-08
-1.19429e-07
-1.54159e-10
-2.2551e-08
-6.84201e-08
1.10855e-08
-2.32178e-08
1.41386e-08
3.1599e-09
-1.79597e-08
6.17054e-08
-5.50977e-09
-9.71645e-09
8.26163e-08
-4.09516e-09
8.62863e-09
5.44e-08
-6.70272e-09
3.13e-08
3.34235e-08
-2.25244e-09
4.49606e-08
-2.75559e-08
8.41674e-09
2.43655e-08
2.39424e-08
2.97927e-09
-1.28574e-09
1.17171e-07
-1.96011e-10
5.91302e-09
1.67842e-07
2.56238e-09
2.2618e-08
1.04235e-07
-9.38923e-10
3.03714e-08
1.49666e-07
3.10827e-09
2.4364e-08
1.08422e-07
6.70795e-11
1.58821e-08
6.01526e-08
-3.02751e-09
3.88254e-09
-9.5389e-09
2.39181e-09
-1.482e-09
-1.37564e-07
4.64377e-09
-2.57662e-09
-1.77198e-07
-2.33444e-11
-1.77688e-07
7.27912e-11
-5.03398e-09
-1.21354e-07
-2.74016e-10
-1.46244e-08
-1.09751e-07
-3.83672e-10
-2.4286e-08
-6.37129e-08
8.92947e-09
-2.3015e-08
1.56445e-09
2.13398e-08
-1.17558e-08
5.4033e-08
-3.29154e-09
-1.87405e-09
7.59415e-08
-2.99415e-09
1.72484e-08
3.70828e-08
1.65482e-10
2.9541e-08
1.42341e-08
1.53865e-08
3.30618e-08
-3.37499e-08
8.11748e-09
4.60544e-09
5.12172e-08
2.36259e-09
-7.69667e-09
1.26696e-07
5.12665e-09
2.87167e-09
1.5646e-07
3.19949e-09
1.51277e-08
9.51044e-08
-5.12112e-09
2.36328e-08
1.41359e-07
1.08033e-09
2.03412e-08
1.11728e-07
-5.61821e-10
1.37827e-08
7.06868e-08
-8.17817e-09
1.34172e-08
-1.37817e-08
8.29571e-09
4.2182e-09
-1.31822e-07
5.79674e-09
7.98095e-11
-1.73392e-07
-7.64951e-11
-1.77683e-07
-8.29939e-12
-7.56493e-10
-1.16624e-10
-3.0147e-09
2.70272e-10
-5.08554e-09
8.06231e-10
-4.88138e-09
5.49006e-09
-3.92393e-09
6.79427e-10
5.58869e-10
-2.60976e-10
7.04345e-09
-2.93389e-09
7.6923e-09
4.67227e-09
7.60972e-09
1.87835e-09
-5.93338e-09
-2.17327e-09
-5.36173e-09
-5.70204e-10
9.5244e-10
9.55217e-10
6.29197e-09
-6.0857e-10
1.04926e-08
1.38615e-09
1.04248e-08
-1.77316e-09
3.39687e-09
-3.29303e-09
2.18241e-09
2.50332e-09
1.14449e-09
1.31171e-09
1.68531e-10
5.45306e-12
-2.78681e-10
6.5466e-08
-9.38022e-08
7.09904e-08
-1.81848e-08
5.47949e-08
4.35101e-09
4.88606e-08
-3.4596e-09
5.06472e-08
-1.75776e-08
4.49163e-08
-3.98312e-08
3.5506e-08
-4.62083e-08
-8.00494e-11
-2.20449e-08
-2.00747e-08
-2.59788e-08
-1.79099e-09
-5.46863e-08
-4.58288e-09
-4.29e-08
-3.74078e-08
-1.35472e-08
-4.81499e-08
-4.131e-08
-4.84862e-08
-4.98733e-08
-5.65325e-08
-2.95458e-08
-6.134e-08
-1.26224e-08
-8.0752e-08
7.87993e-09
-9.75733e-08
5.211e-09
-7.76753e-08
-2.39417e-08
-7.06978e-08
3.97107e-08
-1.10972e-07
4.45476e-08
-1.71952e-08
5.54508e-08
-1.15037e-10
6.75331e-08
-1.63579e-08
7.49192e-08
-1.96708e-08
6.64757e-08
-1.19351e-08
4.4357e-08
-1.44361e-08
2.31663e-08
-2.69214e-09
1.88974e-09
-3.09258e-09
-9.22066e-09
-4.30538e-08
-3.46647e-08
-1.12229e-08
-4.12932e-08
-2.0274e-08
-5.79339e-08
-3.63244e-08
-8.45488e-08
-2.93499e-08
-8.64068e-08
-9.18197e-09
-8.10158e-08
-1.04898e-08
-7.35028e-08
3.02283e-09
-5.90804e-08
3.01751e-09
-3.34717e-08
-4.65013e-08
-1.01541e-07
1.14599e-08
-1.15467e-07