/*--------------------------------*- C++ -*----------------------------------*\
| =========                 |                                                 |
| \\      /  F ield         | OpenFOAM: The Open Source CFD Toolbox           |
|  \\    /   O peration     | Version:  2.3.0                                 |
|   \\  /    A nd           | Web:      www.OpenFOAM.org                      |
|    \\/     M anipulation  |                                                 |
\*---------------------------------------------------------------------------*/
FoamFile
{
    version     2.0;
    format      ascii;
    class       surfaceScalarField;
    location    "1.60137";
    object      phi.air;
}
// * * * * * * * * * * * * * * * * * * * * * * * * * * * * * * * * * * * * * //

dimensions      [0 3 -1 0 0 0 0];

internalField   nonuniform List<scalar> 
2650
(
6.55216e-08
-9.10028e-08
3.20992e-08
7.07777e-08
-1.53229e-08
1.6207e-08
5.49067e-08
6.88252e-09
1.50235e-08
4.91451e-08
-1.66727e-09
1.30862e-08
5.07967e-08
-1.56715e-08
1.93148e-08
4.4728e-08
-3.82067e-08
4.9692e-08
3.51455e-08
-4.33865e-08
5.88528e-08
-1.43797e-10
-2.01572e-08
6.13307e-08
-2.01366e-08
-2.38741e-08
4.93904e-08
-1.79633e-09
-5.2305e-08
3.9634e-08
-4.89022e-09
-4.05576e-08
4.91727e-08
-3.73843e-08
-1.28675e-08
5.14687e-08
-4.8134e-08
-3.91685e-08
5.60839e-08
-4.85845e-08
-4.84613e-08
5.46245e-08
-5.67801e-08
-2.7949e-08
4.14215e-08
-6.15928e-08
-1.05738e-08
2.07789e-08
-8.07399e-08
1.00938e-08
1.51581e-08
-9.75388e-08
8.14576e-09
1.48467e-08
-7.79608e-08
-2.06428e-08
7.49244e-09
-6.76711e-08
-3.73053e-09
4.0051e-08
-1.07895e-07
-2.29147e-08
4.45479e-08
-1.42925e-08
-5.79635e-09
5.55971e-08
2.57336e-09
-6.7275e-09
6.77369e-08
-1.38388e-08
3.05392e-10
7.49039e-08
-1.71434e-08
-5.12476e-09
6.61718e-08
-9.26351e-09
-1.98533e-08
4.39648e-08
-1.18576e-08
-9.55749e-09
2.27555e-08
-9.72376e-10
1.9917e-09
1.8472e-09
-7.36234e-10
-2.17862e-09
-9.3051e-09
-4.04516e-08
-4.55268e-10
-3.47625e-08
-8.96706e-09
-6.19012e-09
-4.14352e-08
-1.91605e-08
1.32118e-08
-5.80901e-08
-3.44541e-08
1.21347e-08
-8.46967e-08
-2.79461e-08
6.41486e-09
-8.67556e-08
-7.23886e-09
-1.81339e-08
-8.11875e-08
-8.17214e-09
-7.524e-09
-7.3565e-08
5.68686e-09
-3.05901e-09
-5.90995e-08
6.02691e-09
-1.24652e-08
-3.39214e-08
-4.29627e-08
-3.092e-09
-9.86204e-08
-2.71436e-09
1.17298e-08
-1.12295e-07
-7.17971e-09
2.2731e-08
-1.67483e-08
-9.13014e-09
5.44513e-08
-2.21375e-08
-6.73503e-09
7.06963e-08
-2.96181e-08
-3.09189e-10
7.30368e-08
-1.64524e-08
-2.94867e-09
6.19699e-08
1.81443e-08
-1.62768e-08
3.92767e-08
3.48594e-08
-2.39823e-08
1.75923e-08
4.83868e-08
-2.78031e-08
6.40124e-09
3.24157e-08
-2.21556e-08
1.06457e-09
-2.14282e-08
-1.37886e-08
-6.30634e-09
1.91366e-08
-2.09936e-08
-3.63215e-08
7.03756e-09
4.04853e-09
-7.39113e-08
6.24357e-10
2.57163e-09
-9.18697e-08
8.37499e-09
-1.8064e-08
-9.20259e-08
9.6687e-09
-1.65711e-08
-8.68891e-08
-9.98487e-09
-3.32209e-09
-6.60495e-08
-1.12201e-08
-3.84496e-09
-2.83388e-08
-1.63404e-08
-1.51053e-08
-7.7819e-09
-5.52009e-08
-8.30637e-09
-1.05204e-07
-1.187e-09
-6.46237e-09
-1.00226e-07
-5.75761e-09
3.48543e-08
-4.40522e-08
-1.34669e-08
6.54793e-08
-4.82608e-08
-4.27381e-09
7.43855e-08
-3.53856e-08
-3.12203e-09
6.93304e-08
-1.10371e-08
-4.52839e-10
4.83425e-08
4.30523e-08
-3.98486e-09
2.8834e-08
6.07688e-08
-6.09006e-09
1.84027e-08
6.94628e-08
-1.05033e-08
1.92972e-08
3.73724e-08
-5.94471e-09
1.67187e-08
-2.2931e-08
4.02805e-09
1.35754e-08
2.33026e-08
-7.87736e-10
-3.64116e-08
6.0552e-08
-3.1719e-09
-8.26249e-08
4.66054e-08
4.12392e-10
-1.01858e-07
4.5291e-08
-1.74164e-08
-1.06904e-07
2.88841e-08
-1.38436e-08
-1.04075e-07
-2.01763e-10
-1.24386e-08
-9.26778e-08
-1.62386e-08
-6.13432e-09
-3.444e-08
-5.90373e-08
-1.51335e-08
4.00802e-09
-7.46569e-08
-1.85703e-08
-9.62754e-08
-5.08174e-09
4.00389e-09
-1.00284e-07
-4.01436e-09
5.38185e-08
-7.87181e-08
-1.49472e-08
6.86136e-08
-7.19881e-08
8.80853e-09
6.98065e-08
-3.84843e-08
1.69823e-09
4.27534e-08
1.5027e-08
8.54678e-10
1.96957e-08
7.41012e-08
-8.27657e-09
1.12337e-08
7.27511e-08
-3.4253e-09
1.63826e-08
6.7859e-08
-3.65868e-09
3.0868e-08
2.3335e-08
-5.51418e-10
2.94419e-08
-2.58204e-08
4.24007e-09
2.39585e-08
2.69644e-08
1.88198e-09
-1.13632e-08
1.0361e-07
-7.61871e-09
-4.87333e-08
1.02901e-07
-1.89481e-08
-8.05296e-08
9.8282e-08
-2.12863e-08
-9.78985e-08
4.91982e-08
-2.92663e-09
-1.05785e-07
5.98591e-09
1.45092e-09
-9.58332e-08
-3.39048e-08
7.44955e-09
-5.9712e-08
-9.4798e-08
-6.18178e-10
-1.86295e-08
-1.08957e-07
-6.89276e-09
-1.15184e-07
-1.2159e-09
6.82019e-09
-1.07111e-07
-9.07173e-10
3.42067e-08
-1.01343e-07
-4.79931e-09
4.05226e-08
-9.13208e-08
1.29476e-08
2.23013e-08
-2.96565e-08
8.90778e-09
-7.75083e-09
4.71773e-08
-2.65199e-09
-8.46955e-09
8.05037e-08
-5.92647e-09
-1.49283e-09
6.62826e-08
-6.08166e-10
1.47599e-08
5.25506e-08
-1.2876e-09
4.16104e-08
-5.0864e-09
1.80329e-09
3.88715e-08
-2.77779e-08
4.83572e-09
2.47317e-08
3.5229e-08
5.9468e-09
5.93634e-09
1.2692e-07
-4.46625e-09
8.89424e-09
1.10965e-07
-1.11934e-08
-7.22176e-09
1.27881e-07
-1.37342e-08
-3.35661e-08
7.68696e-08
-1.91973e-09
-6.69447e-08
2.71273e-08
1.15631e-08
-6.3967e-08
-5.50575e-08
1.75102e-08
-4.59483e-08
-1.20091e-07
7.42517e-09
-1.85018e-08
-1.34921e-07
-1.37673e-09
-1.34509e-07
-6.13643e-10
1.25276e-09
-1.08896e-07
-1.65888e-10
2.94102e-09
-1.04545e-07
1.54888e-09
-3.80321e-09
-8.9507e-08
4.84542e-09
-1.85146e-08
-2.25823e-08
7.32543e-09
-2.09714e-08
4.38334e-08
5.57387e-09
-1.24569e-08
7.06475e-08
1.23865e-09
-6.17548e-10
4.99334e-08
4.40936e-09
1.75106e-08
3.1787e-08
2.36839e-09
4.48189e-08
-2.9989e-08
-1.93063e-09
4.09943e-08
-2.37869e-08
3.78552e-11
1.52518e-08
5.40261e-08
7.08074e-09
8.33267e-09
1.36783e-07
-2.90337e-09
2.5855e-08
9.81133e-08
-4.93324e-09
3.06862e-08
1.28242e-07
-5.44936e-09
1.60835e-08
8.92943e-08
1.69897e-09
-4.27025e-09
4.33648e-08
3.77647e-09
-2.21422e-08
-4.47971e-08
6.89946e-09
-1.94394e-08
-1.29169e-07
6.42003e-09
-9.57308e-09
-1.44123e-07
-6.57766e-10
-1.43386e-07
-6.00546e-10
-4.94834e-09
-1.04732e-07
2.75253e-10
-1.09162e-08
-9.8746e-08
1.15438e-10
-2.16382e-08
-6.77204e-08
-1.11318e-08
-2.27043e-08
-1.81859e-08
-2.96339e-09
-1.72184e-08
3.28711e-08
5.53368e-09
-8.19622e-09
5.75087e-08
4.18241e-09
8.94646e-09
2.60006e-08
6.77393e-09
3.19158e-08
6.4042e-09
2.72279e-09
4.78664e-08
-3.74329e-08
-8.21194e-09
3.18711e-08
-4.79876e-09
-2.90354e-09
3.10784e-09
8.25744e-08
1.73654e-10
6.60938e-09
1.35918e-07
-2.6223e-09
2.29349e-08
8.08594e-08
7.34871e-10
3.0515e-08
1.23754e-07
-3.24103e-09
2.43477e-08
9.53576e-08
-1.51073e-10
1.35855e-08
5.09577e-08
3.03175e-09
3.39766e-09
-3.22104e-08
-2.35353e-09
-9.7509e-10
-1.20204e-07
-4.65051e-09
-2.8899e-09
-1.42238e-07
-1.69923e-11
-1.46269e-07
3.84908e-11
-5.55752e-09
-1.00236e-07
2.57934e-10
-1.78515e-08
-8.82659e-08
3.25279e-10
-2.63731e-08
-4.99749e-08
-8.96219e-09
-1.93469e-08
-3.3523e-09
-2.1145e-08
-9.99595e-09
2.04303e-08
3.78428e-09
-2.1341e-09
4.67293e-08
3.3571e-09
1.44328e-08
9.78121e-09
5.45725e-10
3.18638e-08
4.47243e-09
-1.4674e-08
3.56191e-08
-3.29919e-08
-8.12982e-09
7.69027e-09
2.54687e-08
-2.36739e-09
-5.60711e-09
1.00924e-07
-5.32624e-09
3.26934e-09
1.30237e-07
-3.21461e-09
1.54491e-08
6.35959e-08
5.0119e-09
2.2062e-08
1.18202e-07
-1.13878e-09
1.85766e-08
9.812e-08
5.90399e-10
9.80005e-09
5.15739e-08
8.2141e-09
1.33599e-08
-2.65572e-08
-8.23482e-09
4.97997e-09
-1.05943e-07
-5.91292e-09
1.79068e-10
-1.38982e-07
-4.89128e-11
-1.46103e-07
5.7206e-13
-8.91426e-10
8.22207e-11
-3.41973e-09
-2.52605e-10
-5.57159e-09
-7.5918e-10
-2.27729e-09
-5.4532e-09
-1.61476e-09
-5.04128e-10
-2.42766e-10
4.12521e-10
1.58878e-09
3.25622e-09
6.82465e-09
-4.5219e-09
8.44583e-09
-1.90208e-09
-1.85422e-09
2.13987e-09
-4.07187e-09
5.86562e-10
1.81002e-09
-9.06826e-10
5.08083e-09
4.85465e-10
9.47115e-09
-1.38624e-09
6.78477e-09
1.8212e-09
-3.3819e-10
3.30285e-09
2.09691e-09
-2.56673e-09
1.31741e-09
-1.25097e-09
2.00591e-10
-7.50808e-11
2.11184e-10
6.98172e-08
-6.47844e-08
3.32526e-08
7.01653e-08
5.28849e-09
1.67059e-08
5.22308e-08
2.60576e-08
1.27962e-08
4.11891e-08
1.57757e-08
1.37965e-08
4.25726e-08
1.1625e-08
1.14172e-08
3.81032e-08
2.57419e-08
3.34197e-08
2.7814e-08
4.08806e-08
3.35529e-08
-6.89405e-09
6.92042e-08
3.22483e-08
-2.4289e-08
4.67118e-08
2.53583e-08
3.52898e-09
-7.92565e-09
2.52559e-08
9.12589e-09
2.69727e-08
2.19986e-08
-2.77591e-08
6.3321e-08
3.05864e-08
-4.39138e-08
5.01092e-08
2.77805e-08
-4.07851e-08
1.08817e-08
4.5827e-08
-4.52562e-08
2.21261e-08
2.87292e-08
-5.15071e-08
1.55333e-08
1.66647e-08
-7.65378e-08
2.82733e-08
1.79213e-08
-9.71409e-08
2.7809e-08
1.37815e-08
-8.23911e-08
-9.81094e-09
8.89901e-09
-7.74968e-08
-1.84074e-09
4.42581e-08
-1.10057e-07
-2.12006e-08
4.57406e-08
1.04544e-08
-1.27934e-08
5.3522e-08
1.73414e-08
-5.5822e-09
6.59026e-08
5.74602e-09
-1.73953e-09
6.67008e-08
5.89619e-09
-1.23599e-10
4.70806e-08
3.26848e-08
-7.36891e-09
2.56794e-08
4.82786e-08
4.4098e-09
6.32578e-09
7.59155e-08
1.46397e-08
-6.49105e-09
5.19122e-08
5.23721e-09
-7.11533e-09
-5.99437e-09
-2.27626e-09
-2.27292e-08
3.74407e-08
-1.11063e-09
-2.98405e-08
6.31832e-08
2.05782e-08
-3.69797e-08
5.4334e-08
1.49879e-08
-5.76021e-08
3.60954e-08
1.18094e-09
-7.5571e-08
2.98572e-08
-8.17981e-09
-7.75813e-08
1.38914e-08
-3.79575e-09
-7.04076e-08
2.20933e-08
-3.72769e-09
-6.53692e-08
2.19618e-08
-1.14934e-08
-3.57766e-08
-3.518e-08
-7.74002e-09
-1.13294e-07
-2.43263e-09
1.22122e-08
-1.22151e-07
-7.15283e-09
2.5476e-08
-4.87536e-09
-7.65851e-09
5.1648e-08
-9.44793e-09
-5.69497e-09
7.06662e-08
-1.3627e-08
3.99161e-10
7.17827e-08
3.55127e-09
-1.38327e-09
5.56091e-08
4.31143e-08
-1.01623e-08
3.33239e-08
6.16437e-08
-1.50614e-08
1.57311e-08
8.29177e-08
-1.73128e-08
6.95034e-09
5.40666e-08
-1.56604e-08
1.89404e-09
-6.30133e-09
-8.59414e-09
-6.04933e-09
3.62051e-08
-1.17381e-08
-2.25469e-08
8.4479e-08
-1.02735e-09
-4.36598e-08
7.58421e-08
1.71606e-09
-8.29207e-08
7.05587e-08
-1.39231e-08
-9.16638e-08
3.40343e-08
-1.20135e-08
-8.43309e-08
7.95193e-09
-4.58525e-09
-6.10692e-08
-9.478e-10
-3.98502e-09
-3.20298e-08
-1.13961e-08
-1.01674e-08
-9.39564e-09
-5.85155e-08
-7.53815e-09
-1.23016e-07
-7.12713e-10
-7.31557e-09
-1.17418e-07
-3.02822e-09
2.97581e-08
-4.6261e-08
-8.00804e-09
6.21406e-08
-4.21926e-08
-3.56714e-09
7.58377e-08
-2.68017e-08
-3.46332e-09
6.98397e-08
9.55314e-09
-9.72191e-11
4.67235e-08
6.54255e-08
-2.90165e-09
2.6212e-08
7.98801e-08
-3.5509e-09
1.76125e-08
9.26672e-08
-1.16152e-08
1.86602e-08
5.33664e-08
-6.25939e-09
2.01609e-08
-6.44922e-09
2.73121e-09
1.69113e-08
3.90786e-08
-2.0545e-10
-1.93396e-08
1.26882e-07
-9.42331e-09
-5.33663e-08
1.16521e-07
-6.18553e-09
-1.0044e-07
1.08352e-07
-8.16411e-09
-1.10357e-07
4.17187e-08
-1.1328e-08
-1.08365e-07
2.70805e-09
-8.63677e-09
-9.01115e-08
-1.92466e-08
-5.85748e-09
-3.38726e-08
-7.39638e-08
-8.08878e-09
1.19032e-09
-1.01878e-07
-9.42082e-09
-1.24293e-07
-2.68217e-09
2.56341e-09
-1.21682e-07
-2.27807e-09
4.61056e-08
-9.61609e-08
-7.93095e-09
7.29946e-08
-6.49802e-08
4.53584e-09
7.41159e-08
-2.81627e-08
2.01744e-09
5.03724e-08
3.55381e-08
-1.33892e-09
2.0716e-08
9.34726e-08
-6.64362e-09
1.10475e-08
8.78189e-08
-1.57336e-09
1.76432e-08
8.64914e-08
-4.02111e-09
2.95409e-08
4.11969e-08
-1.55469e-10
3.22564e-08
-7.10851e-09
2.29853e-09
2.52875e-08
4.58231e-08
2.22162e-09
-6.702e-09
1.58669e-07
-7.3042e-09
-4.08594e-08
1.43079e-07
-1.07649e-08
-8.9252e-08
1.44749e-07
-8.75607e-09
-1.07834e-07
6.2885e-08
-5.54645e-09
-1.14989e-07
1.01313e-08
1.19731e-09
-9.26552e-08
-3.76986e-08
3.26277e-09
-5.69215e-08
-1.10873e-07
4.99691e-10
-1.98749e-08
-1.4223e-07
-3.59478e-09
-1.46212e-07
-6.838e-10
5.02102e-09
-1.27331e-07
-3.17633e-10
2.49631e-08
-1.19124e-07
-1.64875e-09
4.69245e-08
-8.26757e-08
8.45913e-09
2.38186e-08
-7.52767e-10
4.21021e-09
-1.51048e-10
6.15612e-08
-5.19977e-09
-6.86809e-09
9.76754e-08
-3.51516e-09
-6.06276e-10
8.11214e-08
-1.72505e-10
1.52659e-08
7.04678e-08
-1.02179e-09
4.0679e-08
1.69564e-08
8.66223e-10
3.80168e-08
-1.9822e-09
2.58043e-09
2.1908e-08
6.38856e-08
3.97243e-09
5.11326e-09
1.75004e-07
-3.92314e-09
6.30673e-09
1.38684e-07
-7.59577e-09
-2.08321e-08
1.6545e-07
-7.00696e-09
-4.61727e-08
9.08407e-08
-5.06206e-09
-6.92529e-08
3.78732e-08
6.21212e-09
-6.46981e-08
-3.91897e-08
1.37359e-08
-3.85581e-08
-1.33607e-07
4.17674e-09
-1.70505e-08
-1.64956e-07
2.31771e-12
-1.65546e-07
1.77027e-10
1.14389e-10
-1.27596e-07
3.71023e-11
2.63081e-09
-1.21269e-07
1.25413e-09
-4.31513e-09
-7.27551e-08
1.54706e-09
-1.81653e-08
1.5347e-08
4.60615e-09
-2.00064e-08
6.59174e-08
2.83425e-09
-1.29773e-08
9.07492e-08
1.05617e-09
1.62628e-10
7.0295e-08
2.10884e-09
1.66952e-08
5.52402e-08
1.09198e-09
4.38858e-08
-9.47576e-09
-2.49589e-09
3.48741e-08
7.03198e-09
3.12352e-10
9.51149e-09
9.27039e-08
3.55433e-09
7.6876e-09
1.76744e-07
-2.63768e-09
2.35646e-08
1.21956e-07
-4.05575e-09
2.62497e-08
1.60541e-07
-3.15626e-09
1.15749e-08
1.05686e-07
1.21049e-09
-3.72e-09
5.34438e-08
3.24255e-09
-2.29528e-08
-1.81124e-08
4.2731e-09
-1.70023e-08
-1.36713e-07
3.53101e-09
-8.35345e-09
-1.74188e-07
6.31254e-11
-1.74324e-07
-1.46388e-10
-4.86359e-09
-1.24158e-07
3.90187e-10
-1.0293e-08
-1.15916e-07
2.01467e-10
-2.25246e-08
-6.55328e-08
-6.01725e-09
-2.31844e-08
1.63238e-08
-3.45976e-09
-1.78877e-08
6.37738e-08
2.16928e-09
-9.54054e-09
8.47868e-08
1.65029e-09
8.85662e-09
5.62212e-08
2.33909e-09
3.13275e-08
3.52078e-08
5.60407e-11
4.48845e-08
-2.50005e-08
-5.93284e-09
2.4139e-08
2.66333e-08
-1.57299e-09
-1.50494e-09
1.19742e-07
-1.24339e-09
5.92834e-09
1.69741e-07
-2.84108e-09
2.24828e-08
1.06e-07
1.14475e-10
3.03387e-08
1.51834e-07
-2.34845e-09
2.4342e-08
1.11059e-07
4.31113e-10
1.58662e-08
6.26573e-08
2.20236e-09
3.89286e-09
-7.21409e-09
-1.40342e-09
-1.44805e-09
-1.34139e-07
-1.85633e-09
-2.54197e-09
-1.73516e-07
5.17325e-10
-1.76986e-07
1.39852e-10
-5.01214e-09
-1.20742e-07
3.06944e-10
-1.46588e-08
-1.07564e-07
3.06801e-10
-2.43112e-08
-6.04531e-08
-3.98178e-09
-2.29282e-08
4.45456e-09
-9.97406e-09
-1.17134e-08
5.63018e-08
-1.93269e-10
-1.77404e-09
7.80928e-08
-1.1853e-10
1.72296e-08
3.9453e-08
-1.66991e-09
2.95439e-08
1.68769e-08
-8.07147e-09
3.28644e-08
-3.07376e-08
-5.4542e-09
4.34771e-09
5.40637e-08
-1.18562e-09
-7.77801e-09
1.2903e-07
-2.442e-09
2.88745e-09
1.58325e-07
-2.42243e-09
1.50164e-08
9.67898e-08
2.07782e-09
2.35136e-08
1.43428e-07
-1.27856e-09
2.02915e-08
1.14152e-07
6.52993e-10
1.37474e-08
7.30253e-08
4.25483e-09
1.35504e-08
-1.07407e-08
-3.65655e-09
4.27109e-09
-1.28302e-07
-2.3849e-09
1.03215e-10
-1.71301e-07
4.07297e-10
-1.77478e-07
5.3779e-11
-7.34152e-10
5.46389e-11
-2.96257e-09
-7.45944e-11
-5.0664e-09
-2.1729e-10
-4.84736e-09
-3.11315e-09
-3.9031e-09
-8.81288e-10
6.06962e-10
-1.27112e-10
7.0124e-09
9.17558e-10
7.68117e-09
-2.13402e-09
7.54106e-09
-5.284e-12
-6.04215e-09
-4.96956e-10
-5.36157e-09
4.08167e-10
9.61768e-10
-4.7979e-10
6.23371e-09
7.45746e-10
1.04235e-08
-6.38606e-10
1.03975e-08
1.21751e-09
3.39366e-09
1.66293e-09
2.17006e-09
-3.7148e-09
1.11762e-09
-5.95279e-10
1.68923e-10
1.97826e-11
9.64676e-11
7.27456e-08
2.1399e-10
-3.31003e-08
6.43342e-08
4.7529e-08
-1.64685e-08
5.09029e-08
4.50472e-08
-1.3146e-08
4.63992e-08
3.6627e-08
-1.2818e-08
4.8778e-08
2.59757e-08
-1.10547e-08
4.56471e-08
7.33624e-08
-3.12653e-08
4.02649e-08
7.80264e-08
-3.36341e-08
6.5438e-09
1.01575e-07
-3.00783e-08
-1.37457e-08
8.02019e-08
-2.93002e-08
2.35825e-08
1.85419e-08
-2.50298e-08
1.89178e-08
5.43024e-08
-2.23375e-08
-2.39147e-08
1.06674e-07
-2.76572e-08
-5.57383e-08
9.41388e-08
-2.88755e-08
-5.20195e-08
9.44172e-08
-4.68079e-08
-5.40468e-08
6.68288e-08
-3.06302e-08
-5.71788e-08
4.31653e-08
-1.77438e-08
-6.49578e-08
4.84451e-08
-1.70715e-08
-8.53162e-08
5.42898e-08
-1.40691e-08
-8.34229e-08
2.27861e-08
-9.00393e-09
-7.94331e-08
1.922e-09
5.84154e-08
-9.91801e-08
2.11216e-08
4.57416e-08
3.46316e-08
1.29109e-08
5.00832e-08
3.01106e-08
5.48368e-09
6.24933e-08
2.18426e-08
5.73659e-10
5.99347e-08
2.76229e-08
1.15079e-10
4.91708e-08
7.25345e-08
4.58089e-09
3.64771e-08
1.00749e-07
-5.36477e-09
1.73421e-08
1.47953e-07
-1.26538e-08
3.7565e-10
1.07082e-07
-4.24715e-09
-4.06477e-09
1.91073e-08
1.93492e-09
-2.01607e-08
6.82713e-08
1.55597e-09
-2.63812e-08
1.55074e-07
-2.18547e-08
-3.0317e-08
1.27096e-07
-1.3622e-08
-5.19121e-08
1.15812e-07
1.97825e-09
-6.8216e-08
6.51654e-08
1.01941e-08
-7.17026e-08
3.75207e-08
5.04354e-09
-6.57076e-08
3.61121e-08
2.82263e-09
-6.70668e-08
3.32758e-08
1.17117e-08
-3.73625e-08
-2.23826e-08
7.67024e-09
-1.21414e-07
2.46238e-09
1.20691e-08
-1.25726e-07
7.11863e-09
2.62723e-08
4.76552e-09
7.54504e-09
4.78219e-08
-1.82088e-09
5.4069e-09
6.90791e-08
1.5218e-09
-1.62539e-10
6.732e-08
2.64313e-08
1.87162e-09
5.1051e-08
6.8736e-08
1.03446e-08
3.41447e-08
8.79833e-08
1.51266e-08
1.74041e-08
1.33533e-07
1.41603e-08
7.36069e-09
8.40769e-08
1.77525e-08
1.72821e-09
7.6678e-09
8.66831e-09
-5.33055e-09
5.21732e-08
1.21224e-08
-2.15771e-08
1.7133e-07
-4.02741e-10
-4.06213e-08
1.48127e-07
9.56236e-11
-6.9128e-08
1.18135e-07
1.30214e-08
-8.666e-08
5.98942e-08
1.12773e-08
-8.09089e-08
2.31421e-08
4.58774e-09
-5.66743e-08
4.36276e-09
4.0033e-09
-3.39438e-08
-8.88984e-09
1.03472e-08
-9.88726e-09
-6.15589e-08
7.90398e-09
-1.32752e-07
7.40292e-10
-8.32392e-09
-1.2342e-07
3.02439e-09
2.84155e-08
-4.63886e-08
8.25382e-09
5.73322e-08
-3.75186e-08
3.66205e-09
7.30736e-08
-2.09672e-08
3.69956e-09
6.63276e-08
3.31367e-08
3.25084e-10
4.00676e-08
8.90708e-08
3.39907e-09
2.43791e-08
9.59639e-08
4.37256e-09
1.73568e-08
1.18844e-07
1.04398e-08
1.81427e-08
7.10084e-08
6.40206e-09
2.08927e-08
1.00259e-08
-2.56123e-09
1.9493e-08
5.32308e-08
2.66756e-10
-1.5982e-08
1.89833e-07
8.293e-09
-4.71378e-08
1.66513e-07
6.81803e-09
-8.62557e-08
1.43595e-07
6.33949e-09
-1.07142e-07
5.9062e-08
1.13835e-08
-1.07112e-07
6.49362e-09
8.82277e-09
-8.91992e-08
-2.49577e-08
5.94825e-09
-3.2961e-08
-8.03379e-08
7.94182e-09
7.93947e-10
-1.12911e-07
9.19526e-09
-1.37364e-07
2.68078e-09
1.65971e-09
-1.29598e-07
2.26821e-09
4.30035e-08
-1.02575e-07
7.79321e-09
7.53064e-08
-6.11707e-08
-4.5003e-09
7.67444e-08
-1.85479e-08
-1.99791e-09
5.3424e-08
5.4203e-08
9.9827e-10
1.89006e-08
1.10812e-07
6.57832e-09
1.13855e-08
9.99375e-08
2.12832e-09
1.73232e-08
1.05427e-07
3.68794e-09
2.88159e-08
5.94441e-08
6.31362e-11
3.28785e-08
1.04706e-08
-2.36359e-09
2.70006e-08
6.3634e-08
-2.31462e-09
-5.20671e-09
2.08036e-07
7.02115e-09
-3.34919e-08
1.7444e-07
9.87585e-09
-8.53626e-08
1.7944e-07
8.1032e-09
-1.14394e-07
7.72295e-08
5.64062e-09
-1.17246e-07
1.1501e-08
-1.22115e-09
-9.37586e-08
-4.22197e-08
-3.25651e-09
-5.47624e-08
-1.18496e-07
-6.05556e-10
-1.90636e-08
-1.55533e-07
3.41886e-09
-1.59269e-07
6.41156e-10
4.16784e-09
-1.34391e-07
3.28583e-10
2.36383e-08
-1.25101e-07
1.56196e-09
5.4739e-08
-7.5629e-08
-8.49313e-09
3.57449e-08
8.30528e-09
-4.08573e-09
4.79593e-09
7.4749e-08
4.97802e-09
-5.39926e-09
1.14097e-07
3.42754e-09
2.92641e-10
9.39168e-08
2.12047e-10
1.48391e-08
8.91398e-08
7.60255e-10
4.00335e-08
3.5864e-08
-8.07448e-10
3.71333e-08
1.84574e-08
-2.57717e-09
2.00205e-08
8.86438e-08
-4.07049e-09
3.96303e-09
2.1604e-07
4.19668e-09
3.79901e-09
1.59744e-07
7.40082e-09
-2.71566e-08
1.96601e-07
7.16683e-09
-6.15448e-08
1.00984e-07
5.23751e-09
-7.82594e-08
3.98476e-08
-6.22038e-09
-6.47777e-08
-2.90097e-08
-1.3769e-08
-3.64133e-08
-1.38345e-07
-4.19203e-09
-1.59354e-08
-1.75806e-07
7.61169e-12
-1.76315e-07
-1.48047e-10
-2.49269e-10
-1.34039e-07
-2.50475e-11
3.56596e-09
-1.26319e-07
-1.2614e-09
-3.08113e-09
-6.61775e-08
-1.60291e-09
-1.81917e-08
3.21685e-08
-4.74955e-09
-1.91855e-08
8.12536e-08
-3.01499e-09
-1.1174e-08
1.08142e-07
-1.08983e-09
1.10323e-09
8.59488e-08
-2.09688e-09
1.78666e-08
7.46051e-08
-1.18344e-09
4.21907e-08
6.34859e-09
2.61362e-09
3.18139e-08
2.95367e-08
-3.10897e-10
6.52798e-09
1.20916e-07
-3.61123e-09
6.84715e-09
2.10382e-07
2.76296e-09
1.98654e-08
1.3861e-07
4.04637e-09
2.33739e-08
1.86672e-07
3.18411e-09
6.71977e-09
1.19555e-07
-1.19385e-09
-6.8512e-09
5.96094e-08
-3.2514e-09
-2.42616e-08
-3.96156e-09
-4.222e-09
-1.65259e-08
-1.3918e-07
-3.53574e-09
-7.90503e-09
-1.84225e-07
-7.89392e-11
-1.84405e-07
1.49695e-10
-4.77546e-09
-1.29864e-07
-3.88753e-10
-1.01364e-08
-1.20605e-07
-2.05738e-10
-2.26544e-08
-6.54874e-08
5.98971e-09
-2.48013e-08
2.74026e-08
3.30567e-09
-1.87143e-08
7.92632e-08
-2.23965e-09
-8.35539e-09
1.00998e-07
-1.69375e-09
9.03707e-09
7.30465e-08
-2.28066e-09
3.08109e-08
5.25433e-08
6.74082e-11
4.08953e-08
-1.53654e-08
5.97392e-09
1.9979e-08
4.74941e-08
1.55423e-09
-4.038e-09
1.425e-07
1.16464e-09
5.33411e-09
1.95401e-07
2.85783e-09
1.96908e-08
1.24446e-07
-7.28949e-11
2.92006e-08
1.72423e-07
2.3343e-09
2.37933e-08
1.25652e-07
-3.95872e-10
1.64674e-08
7.11735e-08
-2.20804e-09
3.66776e-09
5.90264e-09
1.32217e-09
-1.50255e-09
-1.37783e-07
1.8476e-09
-2.34569e-09
-1.82361e-07
-5.2013e-10
-1.8643e-07
-1.38406e-10
-4.60739e-09
-1.26147e-07
-3.1022e-10
-1.38793e-08
-1.12114e-07
-2.95175e-10
-2.36914e-08
-6.32254e-08
4.0039e-09
-2.38885e-08
8.20274e-09
9.95799e-09
-1.30063e-08
6.76984e-08
2.42466e-10
-1.77124e-09
8.93685e-08
1.70326e-10
1.50287e-08
5.2633e-08
1.84146e-09
2.58974e-08
2.54934e-08
8.26847e-09
2.88649e-08
-2.88625e-08
5.46203e-09
8.32215e-10
7.32938e-08
1.17146e-09
-9.06972e-09
1.47681e-07
2.40432e-09
2.4327e-09
1.79125e-07
2.38757e-09
1.33672e-08
1.17533e-07
-1.98091e-09
2.28271e-08
1.60332e-07
1.29141e-09
2.09152e-08
1.28708e-07
-5.90619e-10
1.5832e-08
8.4502e-08
-4.26595e-09
1.37035e-08
1.32578e-09
3.63215e-09
4.29125e-09
-1.33053e-07
2.38037e-09
2.16209e-10
-1.79254e-07
-4.07302e-10
-1.86702e-07
-5.51884e-11
-7.31115e-10
-5.26442e-11
-2.87717e-09
7.48199e-11
-4.57735e-09
2.21011e-10
-5.47496e-09
3.12832e-09
-4.55736e-09
8.97995e-10
6.37242e-10
1.23158e-10
7.56861e-09
-8.87287e-10
7.19967e-09
2.18294e-09
7.26562e-09
1.76805e-11
-7.99168e-09
4.66101e-10
-6.0027e-09
-4.06185e-10
7.88232e-10
4.57356e-10
5.67757e-09
-7.28098e-10
1.04536e-08
6.39663e-10
1.20339e-08
-1.19152e-09
5.0363e-09
-1.67341e-09
2.26282e-09
3.70847e-09
1.11926e-09
5.97952e-10
1.43192e-10
-1.8635e-11
-9.67776e-11
6.9832e-08
-6.4792e-08
-3.19531e-08
7.02718e-08
5.28579e-09
-1.60628e-08
5.2354e-08
2.58661e-08
-1.51941e-08
4.12378e-08
1.6577e-08
-1.28158e-08
4.27765e-08
1.16869e-08
-1.91435e-08
3.80752e-08
2.74896e-08
-4.90538e-08
2.75421e-08
4.13707e-08
-5.91853e-08
-7.31464e-09
7.13588e-08
-6.11624e-08
-2.46314e-08
4.27685e-08
-4.94611e-08
3.46104e-09
-7.78265e-09
-3.9825e-08
9.334e-09
2.62681e-08
-4.90911e-08
-2.8735e-08
6.58303e-08
-4.98518e-08
-4.40562e-08
4.75643e-08
-5.54807e-08
-4.08896e-08
8.96162e-09
-5.37281e-08
-4.56648e-08
2.01175e-08
-4.10156e-08
-5.16758e-08
1.42379e-08
-2.08289e-08
-7.65531e-08
2.87683e-08
-1.49468e-08
-9.71313e-08
2.76414e-08
-1.49888e-08
-8.24045e-08
-9.8726e-09
-7.51728e-09
-7.74549e-08
3.75599e-09
4.42132e-08
-1.10022e-07
2.28379e-08
4.57124e-08
1.05028e-08
5.84591e-09
5.35412e-08
1.71384e-08
6.58942e-09
6.59317e-08
5.76121e-09
-6.87638e-10
6.68073e-08
5.86824e-09
5.09773e-09
4.74285e-08
3.20576e-08
1.92235e-08
2.6097e-08
4.75228e-08
9.80964e-09
6.38869e-09
8.01704e-08
-1.69968e-09
-6.74536e-09
4.97494e-08
1.68917e-09
-7.29645e-09
-6.14997e-09
3.38952e-10
-2.26744e-08
3.67737e-08
6.34292e-09
-2.98453e-08
6.47072e-08
-1.34291e-08
-3.64873e-08
5.22852e-08
-1.18029e-08
-5.72408e-08
3.74418e-08
-6.39967e-09
-7.56355e-08
3.02412e-08
1.81873e-08
-7.75608e-08
1.38633e-08
7.41762e-09
-7.0506e-08
2.20662e-08
2.811e-09
-6.53496e-08
2.19008e-08
1.24502e-08
-3.58058e-08
-3.52229e-08
3.05e-09
-1.13272e-07
2.73578e-09
1.21966e-08
-1.22079e-07
7.12534e-09
2.54849e-08
-4.9067e-09
9.072e-09
5.15567e-08
-9.72185e-09
6.62043e-09
7.06851e-08
-1.35686e-08
3.87982e-10
7.17969e-08
3.77233e-09
3.18336e-09
5.57893e-08
4.26884e-08
1.60518e-08
3.363e-08
6.09573e-08
2.38306e-08
1.62589e-08
8.42214e-08
2.73832e-08
7.19121e-09
5.40233e-08
2.24097e-08
1.93884e-09
-6.32933e-09
1.39268e-08
-6.0518e-09
3.60436e-08
2.09146e-08
-2.26143e-08
8.52815e-08
-4.68578e-09
-4.32987e-08
7.54044e-08
-2.78532e-09
-8.3036e-08
7.19202e-08
1.76699e-08
-9.166e-08
3.39826e-08
1.61634e-08
-8.43198e-08
7.95323e-09
3.28427e-09
-6.10829e-08
-9.63304e-10
3.87152e-09
-3.20467e-08
-1.13346e-08
1.51644e-08
-9.4063e-09
-5.83665e-08
8.47202e-09
-1.22993e-07
1.20487e-09
-7.26978e-09
-1.17399e-07
5.7649e-09
2.99005e-08
-4.62239e-08
1.3544e-08
6.19262e-08
-4.20833e-08
4.33598e-09
7.58212e-08
-2.68314e-08
3.2482e-09
6.9824e-08
9.89151e-09
5.6699e-10
4.65638e-08
6.54529e-08
4.1673e-09
2.62418e-08
7.94477e-08
6.44946e-09
1.7689e-08
9.29088e-08
1.03417e-08
1.87048e-08
5.34753e-08
5.97539e-09
2.02201e-08
-6.34368e-09
-4.00382e-09
1.67869e-08
3.91627e-08
7.88213e-10
-1.92657e-08
1.26844e-07
2.6805e-09
-5.32518e-08
1.16988e-07
-6.96171e-10
-1.00669e-07
1.08754e-07
1.69039e-08
-1.10371e-07
4.15535e-08
1.37868e-08
-1.08331e-07
2.73821e-09
1.25469e-08
-9.00274e-08
-1.92558e-08
6.16827e-09
-3.38505e-08
-7.38534e-08
1.50036e-08
1.19049e-09
-1.01757e-07
1.83996e-08
-1.24283e-07
5.09392e-09
2.56951e-09
-1.21681e-07
4.01994e-09
4.60524e-08
-9.61075e-08
1.48548e-08
7.29891e-08
-6.49219e-08
-8.76772e-09
7.40968e-08
-2.81323e-08
-1.72606e-09
5.0323e-08
3.57475e-08
-1.02916e-09
2.05479e-08
9.35371e-08
8.30836e-09
1.10474e-08
8.74716e-08
3.71926e-09
1.75927e-08
8.65553e-08
3.55272e-09
2.9531e-08
4.12785e-08
4.4493e-10
3.22691e-08
-6.99706e-09
-4.3307e-09
2.51649e-08
4.6006e-08
-1.935e-09
-6.7317e-09
1.58547e-07
7.31964e-09
-4.10784e-08
1.43111e-07
1.87078e-08
-8.92193e-08
1.44543e-07
2.09886e-08
-1.07793e-07
6.27577e-08
2.9761e-09
-1.14981e-07
1.01627e-08
-1.44099e-09
-9.2659e-08
-3.76779e-08
-7.46174e-09
-5.69136e-08
-1.10849e-07
5.88774e-10
-1.98697e-08
-1.42195e-07
6.81165e-09
-1.46212e-07
1.19025e-09
5.01754e-09
-1.27328e-07
9.20216e-10
2.49563e-08
-1.19111e-07
4.75974e-09
4.69332e-08
-8.26394e-08
-1.29755e-08
2.38265e-08
-5.6687e-10
-8.93878e-09
-1.69977e-10
6.16726e-08
2.55226e-09
-6.85814e-09
9.76201e-08
5.93323e-09
-6.33113e-10
8.08436e-08
6.12573e-10
1.51747e-08
7.05012e-08
1.11742e-09
4.07011e-08
1.7061e-08
-1.88863e-09
3.80091e-08
-1.85191e-09
-4.82515e-09
2.1787e-08
6.41388e-08
-5.99732e-09
5.0716e-09
1.74976e-07
4.56538e-09
6.25065e-09
1.38651e-07
1.10841e-08
-2.08362e-08
1.6533e-07
1.37498e-08
-4.61534e-08
9.08043e-08
1.97975e-09
-6.92405e-08
3.7906e-08
-1.15653e-08
-6.47002e-08
-3.91643e-08
-1.75342e-08
-3.85733e-08
-1.33601e-07
-7.41014e-09
-1.70586e-08
-1.64946e-07
1.40403e-09
-1.65542e-07
6.2942e-10
1.16729e-10
-1.27591e-07
1.73375e-10
2.63385e-09
-1.21264e-07
-1.54811e-09
-4.32108e-09
-7.27296e-08
-4.88053e-09
-1.81843e-08
1.54979e-08
-7.41906e-09
-2.00113e-08
6.59995e-08
-5.74007e-09
-1.29611e-08
9.06765e-08
-1.27702e-09
1.20192e-10
7.01922e-08
-4.5134e-09
1.66706e-08
5.53625e-08
-2.57353e-09
4.39115e-08
-9.42221e-09
2.04535e-09
3.48366e-08
7.16023e-09
3.16788e-11
9.44501e-09
9.28806e-08
-7.02493e-09
7.63428e-09
1.76748e-07
2.98645e-09
2.36115e-08
1.21906e-07
4.83334e-09
2.62451e-08
1.6055e-07
5.39252e-09
1.15841e-08
1.05657e-07
-1.70176e-09
-3.71604e-09
5.3463e-08
-3.76563e-09
-2.29457e-08
-1.80666e-08
-6.87206e-09
-1.70008e-08
-1.36708e-07
-6.41744e-09
-8.35387e-09
-1.74179e-07
6.44902e-10
-1.74322e-07
6.06118e-10
-4.86167e-09
-1.24156e-07
-2.73761e-10
-1.02922e-08
-1.15911e-07
-1.17636e-10
-2.25229e-08
-6.55277e-08
1.11242e-08
-2.31956e-08
1.63759e-08
2.92261e-09
-1.78898e-08
6.38559e-08
-5.61432e-09
-9.5806e-09
8.47644e-08
-4.23742e-09
8.76762e-09
5.62696e-08
-6.82579e-09
3.13522e-08
3.52715e-08
-2.66025e-09
4.48675e-08
-2.49627e-08
8.31118e-09
2.41014e-08
2.67137e-08
2.95621e-09
-1.51568e-09
1.19784e-07
-1.37478e-10
5.8945e-09
1.69753e-07
2.65433e-09
2.25189e-08
1.05994e-07
-8.15161e-10
3.03511e-08
1.51903e-07
3.18851e-09
2.43556e-08
1.11069e-07
1.44336e-10
1.58734e-08
6.27033e-08
-3.05822e-09
3.89326e-09
-7.18875e-09
2.29903e-09
-1.44777e-09
-1.34138e-07
4.64595e-09
-2.54241e-09
-1.73511e-07
1.92397e-11
-1.76985e-07
-3.61972e-11
-5.01241e-09
-1.20735e-07
-2.59116e-10
-1.4653e-08
-1.07564e-07
-3.16044e-10
-2.43087e-08
-6.04506e-08
8.98883e-09
-2.29455e-08
4.45463e-09
2.1201e-08
-1.17141e-08
5.63229e-08
-3.68798e-09
-1.79548e-09
7.8114e-08
-3.32779e-09
1.72448e-08
3.94802e-08
-3.85226e-10
2.95259e-08
1.68685e-08
1.49851e-08
3.2832e-08
-3.07301e-08
8.1834e-09
4.328e-09
5.41158e-08
2.36875e-09
-7.77099e-09
1.29034e-07
5.30137e-09
2.867e-09
1.58323e-07
3.22086e-09
1.50236e-08
9.68763e-08
-5.03879e-09
2.35193e-08
1.43519e-07
1.12763e-09
2.03043e-08
1.14209e-07
-5.86345e-10
1.37642e-08
7.30969e-08
-8.25676e-09
1.35519e-08
-1.07228e-08
8.23234e-09
4.2704e-09
-1.28304e-07
5.91334e-09
1.02755e-10
-1.71273e-07
5.04748e-11
-1.77478e-07
2.60201e-12
-7.34666e-10
-8.02082e-11
-2.96315e-09
2.52879e-10
-5.06441e-09
7.61817e-10
-4.84476e-09
5.47269e-09
-3.8995e-09
5.51346e-10
6.00856e-10
-3.91791e-10
6.99975e-09
-3.18063e-09
7.67355e-09
4.58573e-09
7.53832e-09
1.90199e-09
-6.04471e-09
-2.15313e-09
-5.3578e-09
-5.91864e-10
9.53744e-10
9.09715e-10
6.23501e-09
-5.4516e-10
1.04182e-08
1.39135e-09
1.04018e-08
-1.82444e-09
3.39493e-09
-3.32041e-09
2.16804e-09
2.56899e-09
1.11775e-09
1.25371e-09
1.68965e-10
7.5854e-11
-2.07704e-10
6.55341e-08
-9.08719e-08
7.09177e-08
-1.53098e-08
5.48659e-08
6.89398e-09
4.90008e-08
-1.28081e-09
5.06923e-08
-1.55438e-08
4.48123e-08
-3.77544e-08
3.53794e-08
-4.38573e-08
-1.26341e-10
-1.97723e-08
-2.01541e-08
-2.39109e-08
-1.75722e-09
-5.25528e-08
-4.62519e-09
-4.07094e-08
-3.73061e-08
-1.10882e-08
-4.79703e-08
-3.86699e-08
-4.83957e-08
-4.76159e-08
-5.65966e-08
-2.75374e-08
-6.14733e-08
-1.05558e-08
-8.06406e-08
1.03331e-08
-9.75468e-08
8.11105e-09
-7.79573e-08
-2.06796e-08
-6.76439e-08
4.00446e-08
-1.07831e-07
4.45259e-08
-1.42141e-08
5.55463e-08
2.47704e-09
6.76815e-08
-1.38288e-08
7.49798e-08
-1.71778e-08
6.63829e-08
-9.56181e-09
4.41848e-08
-1.20829e-08
2.30359e-08
-3.5111e-10
1.88135e-09
-1.01595e-09
-9.24464e-09
-4.0845e-08
-3.46021e-08
-9.06973e-09
-4.11413e-08
-1.7725e-08
-5.77208e-08
-3.37012e-08
-8.44826e-08
-2.69294e-08
-8.64855e-08
-6.82117e-09
-8.11044e-08
-8.06325e-09
-7.35032e-08
5.69495e-09
-5.9084e-08
6.02258e-09
-3.39424e-08
-4.30033e-08
-9.85912e-08
1.17393e-08
-1.12297e-07