/*--------------------------------*- C++ -*----------------------------------*\
| =========                 |                                                 |
| \\      /  F ield         | OpenFOAM: The Open Source CFD Toolbox           |
|  \\    /   O peration     | Version:  2.3.0                                 |
|   \\  /    A nd           | Web:      www.OpenFOAM.org                      |
|    \\/     M anipulation  |                                                 |
\*---------------------------------------------------------------------------*/
FoamFile
{
    version     2.0;
    format      ascii;
    class       volScalarField;
    location    "4.30002";
    object      alpha.air;
}
// * * * * * * * * * * * * * * * * * * * * * * * * * * * * * * * * * * * * * //

dimensions      [0 0 0 0 0 0 0];

internalField   nonuniform List<scalar> 
10000
(
0.00297238
0.00298878
0.00447053
0.00739924
0.1552
0.285713
0.309466
0.501319
0.634619
0.680148
0.522551
0.767198
0.531397
0.428207
0.171264
0.0267467
0.00561023
0.00376178
0.00298543
0.00276028
4.28518e-09
1.0487e-10
3.96785e-08
0.00170671
0.235598
0.24166
0.248626
0.209145
0.244989
0.239082
0.184301
0.712703
0.854026
0.820149
0.468841
0.0363576
1.28058e-06
5.81599e-09
3.21622e-09
2.12684e-09
3.94031e-14
1.72412e-12
4.24925e-11
4.4208e-06
0.015664
0.22571
0.398771
0.358476
0.366112
0.360349
0.391905
0.304363
0.522355
0.399459
0.28003
0.00680703
1.86844e-06
6.89449e-11
3.27085e-13
5.03652e-16
6.16052e-14
2.56665e-12
6.90547e-11
5.94919e-08
0.00740601
0.356936
0.330526
0.386591
0.374544
0.383307
0.435414
0.356469
0.417918
0.350588
0.31385
0.00801712
2.11314e-06
5.16491e-12
1.53679e-14
5.32476e-16
5.84834e-14
2.42899e-12
6.98775e-11
7.75047e-09
0.00567448
0.394607
0.36301
0.419766
0.379558
0.367105
0.401839
0.35487
0.374337
0.333233
0.34056
0.00884636
1.98353e-06
6.48509e-12
9.29575e-15
3.42931e-16
2.04505e-14
1.40089e-12
8.78743e-11
7.23374e-09
0.00349477
0.357006
0.398944
0.400243
0.370707
0.384266
0.401437
0.375775
0.389719
0.338729
0.358874
0.00828611
1.10278e-06
6.32646e-12
4.2898e-15
1.83187e-16
1.20332e-15
4.10244e-13
4.01208e-11
4.45587e-11
0.00156817
0.305169
0.306587
0.369123
0.395202
0.338402
0.391761
0.392703
0.365531
0.34463
0.311885
0.00232716
3.32039e-08
4.46911e-12
2.17286e-15
7.95269e-17
9.88807e-18
3.01051e-14
4.06782e-12
2.60435e-11
0.000433406
0.281348
0.335471
0.377951
0.323268
0.285887
0.279486
0.311092
0.306009
0.322985
0.172916
0.000171256
1.43934e-09
2.00161e-12
2.06931e-15
2.45178e-17
1.47706e-19
8.82826e-18
1.15899e-14
6.97832e-11
3.58182e-06
0.000945721
0.00109944
0.0017423
0.00147985
0.00173646
0.00129408
0.0016031
0.00111425
0.00109013
0.000536131
2.8383e-06
7.2541e-10
4.17799e-13
1.6818e-15
8.93071e-18
1.10242e-38
4.42182e-36
3.82894e-34
6.56921e-36
1.72867e-33
1.57951e-30
1.111e-27
4.58673e-21
5.46395e-17
3.03194e-16
4.44871e-15
4.90272e-15
2.16915e-13
6.12048e-14
1.31202e-15
7.05042e-18
1.24897e-18
2.46953e-20
6.49632e-21
3.03718e-22
7.17332e-47
1.40013e-44
5.46589e-42
1.08082e-38
1.43567e-35
2.77992e-33
5.04518e-31
6.734e-28
1.21058e-25
1.21451e-22
3.77683e-16
3.21203e-17
2.78183e-16
3.97559e-18
5.0307e-20
5.9472e-22
2.46933e-25
1.73073e-29
1.29135e-32
6.10472e-34
0
0
0
0
0
0
0
0
0
0
0
0
0
0
1.91063e-47
9.05853e-45
2.09833e-44
4.49613e-42
3.63898e-43
7.30562e-44
0
0
0
0
0
0
0
0
0
0
0
0
0
0
0
0
0
0
0
0
0
0
0
0
0
0
0
0
0
0
0
0
0
0
0
0
0
0
0
0
0
0
0
0
0
0
0
0
0
0
0
0
0
0
0
0
0
0
0
0
0
0
0
0
0
0
0
0
0
0
0
0
0
0
0
0
0
0
0
0
0
0
0
0
0
0
0
0
0
0
0
0
0
0
0
0
0
0
0
0
0
0
0
0
0
0
0
0
0
0
0
0
0
0
0
0
0
0
0
0
0
0
0
0
0
0
0
0
0
0
0
0
0
0
0
0
0
0
0
0
0
0
0
0
0
0
0
0
0
0
0
0
0
0
0
0
0
0
0
0
0.00315469
0.00310661
0.00450054
0.00738308
0.171869
0.289928
0.314543
0.542931
0.658885
0.698156
0.533287
0.786516
0.545487
0.429627
0.173265
0.0279945
0.00555342
0.00388437
0.00305419
0.00290693
1.0448e-08
4.00566e-10
4.01938e-08
0.00107548
0.268758
0.241256
0.246493
0.206203
0.241972
0.236437
0.18142
0.726447
0.863178
0.834318
0.487045
0.0394071
1.41841e-06
1.27043e-08
7.9373e-09
6.45867e-09
5.32125e-14
2.2636e-12
3.87693e-11
2.64605e-06
0.0174598
0.221003
0.401705
0.357151
0.365578
0.358486
0.389134
0.301614
0.519102
0.400476
0.281954
0.00669736
1.99834e-06
6.77183e-11
3.87359e-13
2.3207e-16
8.2112e-14
3.25218e-12
5.15475e-11
5.48893e-08
0.00696276
0.354319
0.330014
0.384814
0.374155
0.383928
0.436476
0.356428
0.419972
0.351113
0.313643
0.00750312
2.20261e-06
1.96854e-12
1.19733e-14
2.47937e-16
8.21919e-14
3.2952e-12
8.83553e-11
8.02658e-09
0.00599472
0.395629
0.361416
0.419774
0.379849
0.366287
0.401763
0.35439
0.373998
0.332978
0.339771
0.00816861
1.69087e-06
2.76387e-12
6.73664e-15
1.72606e-16
3.15096e-14
2.07661e-12
1.13106e-10
7.80464e-09
0.00423457
0.359992
0.400995
0.402199
0.36968
0.385153
0.401402
0.374611
0.39098
0.338406
0.359294
0.00782339
9.07831e-07
3.18817e-12
2.53787e-15
1.17782e-16
1.88657e-15
6.19196e-13
4.95808e-11
9.9696e-11
0.0019676
0.308124
0.305874
0.368699
0.395585
0.339861
0.393184
0.393315
0.366318
0.344628
0.3172
0.00224671
2.63086e-08
2.34538e-12
1.07005e-15
5.34467e-17
1.48396e-17
5.10456e-14
5.2856e-12
2.46234e-11
0.000547502
0.290593
0.342848
0.386141
0.336192
0.299347
0.292005
0.324774
0.316825
0.330446
0.18643
0.000241436
9.99804e-10
9.54355e-13
1.08016e-15
1.4592e-17
9.8301e-20
5.56368e-18
1.52251e-14
6.97142e-11
4.45284e-06
0.0010107
0.00115606
0.00181285
0.00158002
0.00189854
0.00139336
0.0017157
0.00119096
0.00114583
0.000597824
3.0628e-06
1.41815e-10
1.86148e-13
7.75512e-16
5.20472e-18
1.35551e-38
5.93914e-36
5.57677e-34
1.40058e-35
1.84066e-33
1.6782e-30
1.18027e-27
5.14818e-21
5.91019e-17
3.2767e-16
4.89807e-15
5.24194e-15
2.27791e-13
6.51119e-14
1.355e-15
1.06608e-17
5.14878e-17
1.35766e-19
7.84263e-21
3.57029e-22
4.16556e-47
7.57756e-45
4.52153e-42
1.25563e-38
1.88262e-35
3.88572e-33
7.46865e-31
1.10347e-27
2.14448e-25
2.59532e-22
9.22313e-16
7.29075e-17
5.88019e-16
7.63612e-18
8.85394e-20
9.94794e-22
2.3649e-25
1.96719e-29
6.46952e-33
3.42045e-34
0
0
0
0
0
0
0
0
0
0
0
0
0
0
2.97519e-46
1.41427e-43
1.05257e-43
1.83794e-41
6.94909e-43
1.19492e-43
0
0
0
0
0
0
0
0
0
0
0
0
0
0
0
0
0
0
0
0
0
0
0
0
0
0
0
0
0
0
0
0
0
0
0
0
0
0
0
0
0
0
0
0
0
0
0
0
0
0
0
0
0
0
0
0
0
0
0
0
0
0
0
0
0
0
0
0
0
0
0
0
0
0
0
0
0
0
0
0
0
0
0
0
0
0
0
0
0
0
0
0
0
0
0
0
0
0
0
0
0
0
0
0
0
0
0
0
0
0
0
0
0
0
0
0
0
0
0
0
0
0
0
0
0
0
0
0
0
0
0
0
0
0
0
0
0
0
0
0
0
0
0
0
0
0
0
0
0
0
0
0
0
0
0
0
0
0
0
0
0.00323069
0.00317047
0.00452515
0.00748917
0.181179
0.291864
0.317525
0.573034
0.673126
0.709037
0.537163
0.799541
0.554779
0.429613
0.175134
0.0288264
0.00555414
0.00394175
0.00308468
0.00296504
1.27839e-08
1.28172e-09
3.34357e-08
0.000250883
0.286523
0.241048
0.245318
0.204815
0.240302
0.235131
0.179933
0.735543
0.868438
0.842087
0.500397
0.0415197
1.57108e-06
1.23687e-08
8.23021e-09
8.35549e-09
7.90673e-14
3.22224e-12
4.1853e-11
8.47911e-07
0.0189667
0.218281
0.403338
0.356377
0.365332
0.357384
0.387664
0.300115
0.514563
0.40055
0.282826
0.00680256
1.70842e-06
6.7644e-11
3.75375e-13
1.08911e-16
1.19841e-13
4.58324e-12
5.93979e-11
5.01249e-08
0.00691425
0.352773
0.329767
0.383825
0.373924
0.384301
0.437072
0.356418
0.421157
0.351387
0.313014
0.00740464
1.66954e-06
6.85075e-13
7.40485e-15
1.0323e-16
1.21913e-13
4.70775e-12
1.16827e-10
1.21803e-08
0.00621636
0.39613
0.360499
0.419766
0.380028
0.365804
0.401713
0.354149
0.373768
0.332838
0.33921
0.00791938
1.11502e-06
9.83362e-13
4.14984e-15
7.3144e-17
4.93542e-14
3.04742e-12
1.41449e-10
1.03781e-08
0.00469715
0.361761
0.402128
0.403294
0.369098
0.385688
0.401374
0.37394
0.391718
0.338233
0.359425
0.00773522
7.40244e-07
1.31026e-12
1.2644e-15
5.5201e-17
3.16781e-15
8.98994e-13
5.93648e-11
3.24587e-10
0.00228361
0.310154
0.305379
0.368312
0.395717
0.340505
0.393811
0.393548
0.366688
0.344595
0.319627
0.00222754
2.22375e-08
1.13144e-12
3.87395e-16
2.86584e-17
2.78151e-17
7.4706e-14
6.64648e-12
1.6953e-11
0.000670403
0.295475
0.346835
0.390592
0.343121
0.306586
0.298788
0.332137
0.322634
0.334396
0.19387
0.000292566
1.31545e-09
4.96796e-13
5.27702e-16
6.21155e-18
5.23141e-20
2.8519e-18
8.41076e-15
6.88249e-11
5.17644e-06
0.0010522
0.00118823
0.00185357
0.00163286
0.00198195
0.00144836
0.00177598
0.00123422
0.00117643
0.000632718
3.06201e-06
5.07826e-10
7.72296e-14
1.94555e-16
1.17965e-18
2.02393e-38
8.14261e-36
8.67991e-34
8.74922e-35
2.43696e-33
1.9926e-30
1.33039e-27
6.32883e-21
6.87489e-17
3.82044e-16
6.31734e-15
5.91595e-15
2.51333e-13
7.30106e-14
1.57133e-15
9.85304e-17
1.85665e-15
1.24481e-18
7.95553e-21
3.48389e-22
2.76656e-47
4.96648e-45
3.59744e-42
1.5455e-38
2.7454e-35
5.74528e-33
1.25354e-30
2.26165e-27
4.82268e-25
6.96431e-22
3.00861e-15
2.07023e-16
1.59112e-15
1.84791e-17
1.84031e-19
1.86522e-21
2.50129e-25
2.48906e-29
2.43994e-33
1.45537e-34
0
0
0
0
0
0
0
0
0
0
0
0
0
0
3.63414e-45
1.83132e-42
9.38103e-43
6.77387e-41
1.21964e-42
1.74299e-43
0
0
0
0
0
0
0
0
0
0
0
0
0
0
0
0
0
0
0
0
0
0
0
0
0
0
0
0
0
0
0
0
0
0
0
0
0
0
0
0
0
0
0
0
0
0
0
0
0
0
0
0
0
0
0
0
0
0
0
0
0
0
0
0
0
0
0
0
0
0
0
0
0
0
0
0
0
0
0
0
0
0
0
0
0
0
0
0
0
0
0
0
0
0
0
0
0
0
0
0
0
0
0
0
0
0
0
0
0
0
0
0
0
0
0
0
0
0
0
0
0
0
0
0
0
0
0
0
0
0
0
0
0
0
0
0
0
0
0
0
0
0
0
0
0
0
0
0
0
0
0
0
0
0
0
0
0
0
0
0
0.00323057
0.00317843
0.00445768
0.00757166
0.189314
0.293639
0.320522
0.604056
0.687501
0.720807
0.541858
0.811359
0.56319
0.429441
0.177378
0.0294705
0.00550856
0.00393238
0.00306011
0.00295563
1.8551e-08
6.55114e-09
3.29709e-08
6.39883e-06
0.307301
0.240737
0.244041
0.20364
0.238447
0.23379
0.178319
0.744484
0.874869
0.851215
0.521996
0.0446137
1.46111e-06
1.86883e-08
1.16814e-08
1.35693e-08
1.19644e-13
4.64035e-12
4.8623e-11
3.24685e-07
0.0210337
0.214798
0.405134
0.355558
0.365091
0.35608
0.386061
0.298373
0.510871
0.399491
0.282823
0.00692212
1.36621e-06
6.20385e-11
3.28946e-13
7.32017e-17
1.78842e-13
6.54743e-12
7.76566e-11
4.47176e-08
0.00692285
0.351036
0.329529
0.382732
0.373658
0.384733
0.437733
0.356433
0.422419
0.351691
0.312083
0.00741339
1.27636e-06
5.28914e-13
4.28714e-15
5.08272e-17
1.84519e-13
6.71173e-12
1.53483e-10
1.87613e-08
0.00642158
0.396608
0.35947
0.419674
0.380241
0.365245
0.401656
0.353889
0.373486
0.332693
0.338412
0.00776288
8.15818e-07
6.83246e-13
2.36532e-15
3.13387e-17
7.68231e-14
4.34613e-12
1.70763e-10
1.3375e-08
0.00523382
0.363724
0.40339
0.404545
0.36845
0.386322
0.401334
0.373188
0.392568
0.338049
0.359531
0.00773007
6.49385e-07
9.0856e-13
6.76925e-16
2.36556e-17
5.20473e-15
1.25465e-12
6.90078e-11
9.16057e-10
0.00280556
0.312415
0.304777
0.367835
0.395818
0.341117
0.394414
0.393746
0.367061
0.344565
0.322038
0.00238021
1.94713e-08
8.88096e-13
3.69469e-16
1.5168e-17
5.263e-17
1.02712e-13
8.1305e-12
2.47978e-12
0.000976179
0.300843
0.351198
0.39548
0.35064
0.314422
0.306207
0.340135
0.328966
0.338681
0.202137
0.000362889
1.39292e-09
4.6941e-13
8.53472e-16
4.66143e-18
2.41182e-20
1.92145e-18
3.56608e-16
3.3928e-12
6.06201e-06
0.00109888
0.00122681
0.001904
0.00169732
0.0020781
0.00151434
0.00185523
0.00128677
0.00121094
0.000674259
3.41269e-06
6.19292e-11
4.31736e-14
7.664e-17
5.52642e-19
2.99507e-38
1.03505e-35
1.6298e-33
9.7434e-34
6.38283e-33
3.82113e-30
1.9675e-27
1.08953e-20
1.01662e-16
5.67698e-16
1.32217e-14
8.251e-15
3.29521e-13
1.00029e-13
2.5882e-15
2.03479e-15
3.72764e-14
1.09707e-17
5.7185e-21
2.69124e-22
1.34099e-47
2.38041e-45
1.62276e-42
1.44229e-38
3.67799e-35
7.81298e-33
2.13872e-30
5.59303e-27
1.39113e-24
2.51027e-21
1.47482e-14
7.85518e-16
5.92678e-15
6.10455e-17
4.7057e-19
3.99808e-21
2.94552e-25
3.00289e-29
9.29808e-34
5.24957e-35
0
0
0
0
0
0
0
0
0
0
0
0
0
0
3.63761e-44
2.00301e-41
1.73003e-41
2.2405e-40
1.96519e-42
2.3083e-43
0
0
0
0
0
0
0
0
0
0
0
0
0
0
0
0
0
0
0
0
0
0
0
0
0
0
0
0
0
0
0
0
0
0
0
0
0
0
0
0
0
0
0
0
0
0
0
0
0
0
0
0
0
0
0
0
0
0
0
0
0
0
0
0
0
0
0
0
0
0
0
0
0
0
0
0
0
0
0
0
0
0
0
0
0
0
0
0
0
0
0
0
0
0
0
0
0
0
0
0
0
0
0
0
0
0
0
0
0
0
0
0
0
0
0
0
0
0
0
0
0
0
0
0
0
0
0
0
0
0
0
0
0
0
0
0
0
0
0
0
0
0
0
0
0
0
0
0
0
0
0
0
0
0
0
0
0
0
0
0
0.00325607
0.00321062
0.00443281
0.00785136
0.198315
0.295598
0.324509
0.63665
0.700994
0.731645
0.54518
0.823091
0.571318
0.430498
0.179933
0.0302348
0.00551407
0.00394031
0.00305541
0.00296662
2.33869e-08
1.11172e-08
3.35364e-08
2.24934e-06
0.328312
0.24018
0.242832
0.202542
0.236719
0.232562
0.176902
0.753251
0.88122
0.859714
0.541938
0.0477097
1.21927e-06
2.34892e-08
1.4163e-08
1.78318e-08
1.7607e-13
6.52935e-12
5.97648e-11
1.71451e-07
0.0236597
0.211598
0.406889
0.354924
0.364897
0.35485
0.384554
0.296714
0.506729
0.398336
0.283323
0.0071061
1.04063e-06
4.99541e-11
2.22978e-13
8.30327e-17
2.65697e-13
9.15213e-12
1.03534e-10
4.09153e-08
0.00696442
0.34933
0.329298
0.381688
0.373396
0.385145
0.438348
0.356431
0.423556
0.351946
0.311274
0.00756308
9.30644e-07
6.28723e-13
2.71474e-15
4.17683e-17
2.74782e-13
9.31843e-12
1.95873e-10
2.54818e-08
0.00658503
0.396968
0.358484
0.419575
0.380452
0.364706
0.401603
0.35367
0.373194
0.332552
0.337493
0.00765969
5.99233e-07
7.81435e-13
1.33892e-15
1.71246e-17
1.16966e-13
5.96555e-12
1.98329e-10
1.45667e-08
0.00574573
0.365564
0.404558
0.405736
0.367835
0.386969
0.401285
0.372468
0.393387
0.337877
0.359567
0.00783778
5.84279e-07
1.06753e-12
5.59593e-16
1.13515e-17
8.19817e-15
1.67343e-12
7.79764e-11
1.25474e-09
0.0034915
0.314587
0.304157
0.367354
0.395869
0.341583
0.394889
0.393874
0.367369
0.344534
0.323989
0.00275564
1.82369e-08
1.11133e-12
8.87548e-16
1.14668e-17
9.75479e-17
1.34732e-13
9.70693e-12
1.18654e-12
0.00145712
0.305696
0.355153
0.399924
0.357402
0.321455
0.312937
0.347343
0.33469
0.342516
0.20975
0.000465011
1.7806e-09
6.42345e-13
1.99146e-15
9.07548e-18
1.04238e-20
2.02209e-18
3.47493e-16
2.0575e-13
8.00063e-06
0.00113412
0.00125894
0.00194475
0.00175282
0.00215637
0.00156914
0.00192837
0.00133208
0.0012366
0.000710198
4.04304e-06
5.81585e-11
2.83554e-14
3.78983e-17
3.44803e-19
4.45436e-38
1.22481e-35
4.54159e-33
1.31671e-31
3.48352e-28
5.55072e-25
8.64696e-26
8.05263e-19
6.7574e-16
3.34547e-15
1.12347e-13
3.08858e-14
6.81715e-13
2.75589e-13
3.1082e-12
1.49861e-10
3.09291e-13
5.44565e-17
2.12599e-21
1.59388e-22
2.48753e-48
4.88066e-46
2.6948e-43
6.95194e-39
2.95169e-35
5.60866e-33
2.22909e-30
1.39554e-26
5.73573e-24
1.38364e-20
1.45574e-13
4.51826e-15
3.5114e-14
3.2449e-16
1.50852e-18
8.27892e-21
3.28838e-25
2.66943e-29
2.86156e-34
1.3962e-35
0
0
0
0
0
0
0
0
0
0
0
0
0
0
3.02045e-43
1.9759e-40
3.78661e-40
6.63048e-40
2.89995e-42
2.811e-43
0
0
0
0
0
0
0
0
0
0
0
0
0
0
0
0
0
0
0
0
0
0
0
0
0
0
0
0
0
0
0
0
0
0
0
0
0
0
0
0
0
0
0
0
0
0
0
0
0
0
0
0
0
0
0
0
0
0
0
0
0
0
0
0
0
0
0
0
0
0
0
0
0
0
0
0
0
0
0
0
0
0
0
0
0
0
0
0
0
0
0
0
0
0
0
0
0
0
0
0
0
0
0
0
0
0
0
0
0
0
0
0
0
0
0
0
0
0
0
0
0
0
0
0
0
0
0
0
0
0
0
0
0
0
0
0
0
0
0
0
0
0
0
0
0
0
0
0
0
0
0
0
0
0
0
0
0
0
0
0
0.00327447
0.00323386
0.00440011
0.00822715
0.20727
0.297402
0.328605
0.667146
0.713863
0.74187
0.547944
0.834553
0.578735
0.431373
0.182362
0.0310179
0.0055235
0.003943
0.00304553
0.00297498
2.83415e-08
1.59907e-08
3.48069e-08
1.88094e-06
0.349552
0.239609
0.241635
0.201514
0.235036
0.231426
0.175561
0.761768
0.888023
0.868253
0.562746
0.0511531
9.94116e-07
2.92025e-08
1.69757e-08
2.22402e-08
2.48198e-13
8.79376e-12
7.69348e-11
9.48111e-08
0.0269904
0.208373
0.408599
0.354339
0.364739
0.353585
0.383079
0.294883
0.502323
0.396908
0.283747
0.00741009
7.65021e-07
1.55913e-12
1.58568e-14
1.28013e-16
3.81759e-13
1.22868e-11
1.39322e-10
3.78395e-08
0.0070173
0.347603
0.329076
0.380662
0.373129
0.385566
0.438949
0.356439
0.424616
0.352191
0.310508
0.00803504
6.65395e-07
8.04265e-13
2.23136e-15
5.45655e-17
3.95001e-13
1.24129e-11
2.39922e-10
2.9692e-08
0.00672479
0.397239
0.3575
0.419457
0.380674
0.364156
0.401551
0.353467
0.372877
0.33242
0.336449
0.00761162
4.4052e-07
9.6614e-13
8.53446e-16
1.6274e-17
1.71878e-13
7.81337e-12
2.21449e-10
1.4203e-08
0.00621768
0.367354
0.405705
0.406932
0.367229
0.387671
0.40123
0.371753
0.394225
0.337716
0.359576
0.00799325
5.20683e-07
1.36056e-12
7.75072e-16
8.5809e-18
1.24069e-14
2.12145e-12
8.57803e-11
1.55178e-09
0.0042874
0.316713
0.303499
0.36692
0.395891
0.341944
0.395281
0.39396
0.367639
0.344493
0.325699
0.00325399
1.72515e-08
1.45155e-12
1.80344e-15
1.54299e-17
1.79509e-16
1.69392e-13
1.13363e-11
7.37507e-13
0.00195689
0.31041
0.358953
0.404228
0.363843
0.328143
0.319414
0.354219
0.340173
0.34618
0.217185
0.000635537
2.29223e-09
8.47652e-13
3.54824e-15
1.94326e-17
4.88376e-21
2.66967e-18
4.50928e-16
5.6229e-14
1.16436e-05
0.00115536
0.00128046
0.00197084
0.00179119
0.0022034
0.00160517
0.00197957
0.00136408
0.00124999
0.000735503
4.90007e-06
5.70274e-11
1.98298e-14
2.74561e-17
3.32935e-19
6.35473e-38
1.32814e-35
2.50473e-32
1.20388e-28
8.27689e-21
0
1.15144e-23
0
1.00615e-20
1.82666e-16
0
4.32113e-16
1.27679e-15
1.91078e-16
1.02268e-14
1.89861e-08
4.37934e-12
1.28478e-16
1.71479e-21
1.05666e-22
2.61498e-49
6.41156e-47
2.58446e-44
1.25352e-42
3.09368e-44
0
0
0
0
0
0
0
0
0
0
8.49578e-28
2.1751e-25
1.43705e-29
6.18049e-35
2.61713e-36
0
0
0
0
0
0
0
0
0
0
0
0
0
0
3.50463e-53
8.68739e-39
7.54745e-39
1.75281e-39
3.91374e-42
3.18324e-43
0
0
0
0
0
0
0
0
0
0
0
0
0
0
0
0
0
0
0
0
0
0
0
0
0
0
0
0
0
0
0
0
0
0
0
0
0
0
0
0
0
0
0
0
0
0
0
0
0
0
0
0
0
0
0
0
0
0
0
0
0
0
0
0
0
0
0
0
0
0
0
0
0
0
0
0
0
0
0
0
0
0
0
0
0
0
0
0
0
0
0
0
0
0
0
0
0
0
0
0
0
0
0
0
0
0
0
0
0
0
0
0
0
0
0
0
0
0
0
0
0
0
0
0
0
0
0
0
0
0
0
0
0
0
0
0
0
0
0
0
0
0
0
0
0
0
0
0
0
0
0
0
0
0
0
0
0
0
0
0
0.00330109
0.00326437
0.00437516
0.00881598
0.216203
0.299216
0.333265
0.695665
0.725861
0.751362
0.549851
0.845776
0.584274
0.432244
0.184955
0.031853
0.00553291
0.00394916
0.00303835
0.00298949
3.28879e-08
2.10225e-08
3.68357e-08
4.47506e-06
0.366575
0.239139
0.240465
0.20052
0.233439
0.230368
0.174334
0.769926
0.894908
0.876442
0.583877
0.054789
8.08752e-07
3.52038e-08
1.97373e-08
2.6238e-08
3.32259e-13
1.12161e-11
1.05532e-10
6.72813e-08
0.0308531
0.205472
0.41025
0.353863
0.364616
0.352356
0.381658
0.292999
0.497134
0.395411
0.284346
0.0078793
5.65506e-07
2.15247e-12
2.18133e-14
2.1911e-16
5.26222e-13
1.57424e-11
1.96283e-10
3.89998e-08
0.00708113
0.345902
0.328847
0.379673
0.372866
0.385978
0.439518
0.35644
0.425591
0.352408
0.309764
0.00882617
4.83905e-07
1.01944e-12
2.43429e-15
8.3227e-17
5.48675e-13
1.58026e-11
2.80351e-10
3.55191e-08
0.00685209
0.397432
0.356544
0.419315
0.380899
0.363611
0.401501
0.353289
0.372548
0.332295
0.335395
0.00760713
3.28849e-07
1.13488e-12
6.07208e-16
2.15198e-17
2.42337e-13
9.73199e-12
2.3816e-10
1.51836e-08
0.00662424
0.369039
0.406788
0.408106
0.366647
0.388417
0.401174
0.371059
0.395069
0.337583
0.359564
0.00815549
4.4334e-07
1.62482e-12
9.04533e-16
7.95318e-18
1.82676e-14
2.55801e-12
9.20489e-11
1.66296e-09
0.00510285
0.31878
0.302831
0.366586
0.395894
0.342194
0.395593
0.394013
0.367863
0.344392
0.327118
0.00390664
1.60991e-08
1.74564e-12
2.25338e-15
1.80897e-17
3.35204e-16
2.06421e-13
1.29663e-11
6.71569e-13
0.00229571
0.314828
0.362475
0.408261
0.369791
0.334306
0.325446
0.36058
0.345268
0.349582
0.224193
0.000898377
3.08257e-09
1.00374e-12
4.32148e-15
2.50425e-17
3.37949e-21
3.56962e-18
5.8405e-16
1.97309e-14
1.47872e-05
0.00115841
0.00128648
0.00197568
0.00180094
0.00220857
0.00161249
0.00199147
0.00137507
0.00124925
0.000744021
5.34645e-06
3.50235e-11
1.33205e-14
1.70356e-17
2.54113e-19
7.59837e-38
1.17082e-35
1.30351e-32
3.93834e-29
9.93282e-22
0
0
0
0
0
0
0
0
0
0
1.16833e-15
1.37587e-12
1.17903e-16
2.39578e-21
9.00594e-23
3.24129e-50
6.9821e-48
1.57768e-45
5.23854e-43
6.41617e-45
0
0
0
0
0
0
0
0
0
0
1.93464e-28
1.04815e-25
6.15918e-30
1.146e-35
4.18309e-37
0
0
0
0
0
0
0
0
0
0
0
0
0
0
0
2.33337e-41
1.21618e-37
4.13649e-39
4.82631e-42
3.38452e-43
0
0
0
0
0
0
0
0
0
0
0
0
0
0
0
0
0
0
0
0
0
0
0
0
0
0
0
0
0
0
0
0
0
0
0
0
0
0
0
0
0
0
0
0
0
0
0
0
0
0
0
0
0
0
0
0
0
0
0
0
0
0
0
0
0
0
0
0
0
0
0
0
0
0
0
0
0
0
0
0
0
0
0
0
0
0
0
0
0
0
0
0
0
0
0
0
0
0
0
0
0
0
0
0
0
0
0
0
0
0
0
0
0
0
0
0
0
0
0
0
0
0
0
0
0
0
0
0
0
0
0
0
0
0
0
0
0
0
0
0
0
0
0
0
0
0
0
0
0
0
0
0
0
0
0
0
0
0
0
0
0.00332766
0.00329603
0.00435339
0.00964933
0.224624
0.300961
0.338233
0.724301
0.737216
0.760707
0.551147
0.856983
0.590137
0.432969
0.187504
0.0327193
0.00554428
0.00395474
0.0030286
0.00300302
3.69284e-08
2.60426e-08
3.96216e-08
4.69851e-05
0.37885
0.238749
0.239308
0.199592
0.231916
0.22939
0.173192
0.777694
0.902098
0.884561
0.605244
0.0586469
6.87141e-07
4.12833e-08
2.23761e-08
2.97764e-08
4.20623e-13
1.34605e-11
1.41123e-10
1.77314e-07
0.0349457
0.202804
0.411837
0.353452
0.364519
0.351132
0.380271
0.290972
0.492417
0.393943
0.2849
0.00853971
4.27389e-07
2.92847e-12
3.02716e-14
3.83913e-16
6.85033e-13
1.90315e-11
2.42921e-10
1.041e-07
0.00716257
0.344215
0.328614
0.378715
0.372602
0.386388
0.440062
0.356445
0.426424
0.352618
0.309038
0.0098132
3.58805e-07
1.31978e-12
3.10396e-15
1.31023e-16
7.30944e-13
1.91817e-11
3.12726e-10
5.40191e-08
0.00698334
0.397577
0.355606
0.41916
0.381128
0.363065
0.401448
0.353127
0.372202
0.332177
0.334363
0.00769446
2.49186e-07
1.33196e-12
4.5119e-16
3.09638e-17
3.28537e-13
1.15665e-11
2.48052e-10
1.9996e-08
0.0069857
0.370638
0.40783
0.409264
0.366079
0.389221
0.401118
0.370381
0.395933
0.337473
0.359487
0.00835924
3.64163e-07
1.90747e-12
8.67869e-16
7.05345e-18
2.67544e-14
2.9699e-12
9.66097e-11
1.27189e-09
0.00586478
0.32077
0.302144
0.366366
0.395887
0.342342
0.395847
0.394042
0.368049
0.344232
0.328338
0.00465112
1.44778e-08
2.05382e-12
2.23438e-15
1.70016e-17
6.31804e-16
2.45486e-13
1.45131e-11
8.29391e-13
0.00245062
0.318975
0.365723
0.41202
0.375262
0.339954
0.331055
0.366446
0.35
0.352748
0.23086
0.00121615
4.25883e-09
1.16682e-12
4.35012e-15
2.44353e-17
4.15279e-21
4.57218e-18
7.53905e-16
5.93079e-15
1.65574e-05
0.00116005
0.0012914
0.00197886
0.00181049
0.0022272
0.00161921
0.00199926
0.00138585
0.00124973
0.000753544
6.10918e-06
2.61649e-11
8.30829e-15
9.54376e-18
1.46044e-19
8.99896e-38
1.11915e-35
6.26169e-33
8.64206e-30
1.76437e-22
0
0
0
0
0
0
0
0
0
0
3.88599e-17
2.64159e-13
7.02113e-17
3.21692e-21
8.44187e-23
7.46173e-51
8.48439e-49
7.43669e-47
1.72965e-43
1.73512e-45
0
0
0
0
0
0
0
0
0
0
6.05125e-29
4.09005e-26
2.5646e-30
1.7354e-36
5.49008e-38
0
0
0
0
0
0
0
0
0
0
0
0
0
0
0
1.7456e-40
1.43803e-36
8.72403e-39
5.43866e-42
3.4082e-43
0
0
0
0
0
0
0
0
0
0
0
0
0
0
0
0
0
0
0
0
0
0
0
0
0
0
0
0
0
0
0
0
0
0
0
0
0
0
0
0
0
0
0
0
0
0
0
0
0
0
0
0
0
0
0
0
0
0
0
0
0
0
0
0
0
0
0
0
0
0
0
0
0
0
0
0
0
0
0
0
0
0
0
0
0
0
0
0
0
0
0
0
0
0
0
0
0
0
0
0
0
0
0
0
0
0
0
0
0
0
0
0
0
0
0
0
0
0
0
0
0
0
0
0
0
0
0
0
0
0
0
0
0
0
0
0
0
0
0
0
0
0
0
0
0
0
0
0
0
0
0
0
0
0
0
0
0
0
0
0
0.00335699
0.00333153
0.00433538
0.0107147
0.232719
0.302834
0.343745
0.750149
0.747814
0.770067
0.551561
0.868077
0.595338
0.433362
0.190081
0.0336239
0.00555875
0.00396253
0.00301767
0.00301783
4.04252e-08
3.06571e-08
4.36656e-08
0.000668447
0.393244
0.238408
0.238184
0.198718
0.23048
0.228475
0.172147
0.785051
0.908953
0.89231
0.626512
0.0626798
6.1276e-07
4.71515e-08
2.48407e-08
3.27818e-08
5.02229e-13
1.51944e-11
2.21828e-10
2.93985e-06
0.0394632
0.200386
0.413364
0.35313
0.364446
0.349946
0.378942
0.289027
0.489033
0.392073
0.285385
0.00930505
3.32516e-07
3.89991e-12
4.21308e-14
6.55192e-16
8.36209e-13
2.19873e-11
3.49771e-10
3.22018e-07
0.00727689
0.342574
0.328375
0.377796
0.372343
0.386786
0.440573
0.356446
0.427199
0.352803
0.308353
0.0108008
2.77357e-07
1.70681e-12
4.29763e-15
2.08483e-16
9.182e-13
2.20983e-11
3.34476e-10
1.26054e-07
0.00713648
0.397687
0.354701
0.41899
0.381353
0.362526
0.40139
0.352984
0.37185
0.332065
0.333384
0.00802834
1.87439e-07
1.53724e-12
3.35331e-16
4.67799e-17
4.26394e-13
1.31585e-11
2.52616e-10
4.04088e-08
0.00737084
0.372122
0.408811
0.410388
0.365536
0.39006
0.40106
0.369735
0.396814
0.337378
0.359407
0.00859882
2.92069e-07
2.17324e-12
6.76675e-16
6.16159e-18
3.92018e-14
3.35856e-12
9.95542e-11
1.26924e-09
0.00645661
0.322672
0.301451
0.366261
0.395839
0.342399
0.396054
0.394051
0.368195
0.344035
0.329344
0.00537041
1.31731e-08
2.33853e-12
1.79865e-15
1.26022e-17
1.13793e-15
2.88174e-13
1.58694e-11
1.13564e-12
0.00249604
0.322801
0.368656
0.415478
0.380242
0.345067
0.336193
0.371776
0.354328
0.355636
0.237094
0.00150166
5.37152e-09
1.31623e-12
3.73607e-15
1.88488e-17
7.01154e-21
5.66752e-18
9.63685e-16
1.53178e-15
1.67055e-05
0.00115846
0.0012936
0.00197941
0.00181373
0.00224364
0.00162246
0.00200077
0.00139332
0.00125235
0.000761594
6.72291e-06
2.22785e-11
4.85138e-15
5.32516e-18
7.40313e-20
1.16598e-37
1.30389e-35
4.78562e-33
1.79775e-30
2.59419e-23
0
0
0
0
0
0
0
0
0
0
5.21688e-18
3.91347e-14
3.41929e-17
2.99453e-21
6.10642e-23
2.33839e-51
1.51568e-49
1.01377e-47
4.67523e-44
6.27625e-46
0
0
0
0
0
0
0
0
0
0
2.21659e-29
1.36344e-26
1.14103e-30
2.65716e-37
7.47596e-39
0
0
0
0
0
0
0
0
0
0
0
0
0
0
0
1.03738e-39
1.25771e-35
1.6527e-38
5.63771e-42
3.29688e-43
0
0
0
0
0
0
0
0
0
0
0
0
0
0
0
0
0
0
0
0
0
0
0
0
0
0
0
0
0
0
0
0
0
0
0
0
0
0
0
0
0
0
0
0
0
0
0
0
0
0
0
0
0
0
0
0
0
0
0
0
0
0
0
0
0
0
0
0
0
0
0
0
0
0
0
0
0
0
0
0
0
0
0
0
0
0
0
0
0
0
0
0
0
0
0
0
0
0
0
0
0
0
0
0
0
0
0
0
0
0
0
0
0
0
0
0
0
0
0
0
0
0
0
0
0
0
0
0
0
0
0
0
0
0
0
0
0
0
0
0
0
0
0
0
0
0
0
0
0
0
0
0
0
0
0
0
0
0
0
0
0.00338917
0.00337267
0.00432073
0.0116127
0.241657
0.304848
0.349665
0.773971
0.757801
0.779479
0.551165
0.879184
0.602433
0.433433
0.192666
0.0345523
0.0055768
0.00397346
0.00300631
0.00303322
4.33304e-08
3.40047e-08
5.76663e-08
0.00262287
0.430463
0.238059
0.2371
0.197917
0.229127
0.227632
0.171184
0.791994
0.915651
0.899922
0.647582
0.0668668
5.8861e-07
5.23631e-08
2.72805e-08
3.52211e-08
5.65197e-13
1.60455e-11
3.31681e-10
1.36214e-05
0.0456376
0.19804
0.414845
0.352867
0.364393
0.34878
0.377656
0.287071
0.485712
0.389976
0.285754
0.0100649
2.8695e-07
5.08482e-12
5.80543e-14
1.08898e-15
9.53709e-13
2.39694e-11
4.83437e-10
6.23873e-07
0.00742289
0.340958
0.328141
0.376914
0.372086
0.387175
0.441055
0.356448
0.427912
0.352976
0.30771
0.011605
2.47004e-07
2.14542e-12
6.41617e-15
3.35341e-16
1.07769e-12
2.41168e-11
3.45465e-10
2.78396e-07
0.00732016
0.397775
0.353825
0.418809
0.381574
0.361991
0.401324
0.352855
0.371488
0.331958
0.332435
0.00857414
1.47471e-07
1.83538e-12
2.936e-16
7.37183e-17
5.2559e-13
1.43771e-11
2.54713e-10
8.07118e-08
0.00788381
0.373499
0.409747
0.411479
0.365013
0.390887
0.401001
0.369116
0.39772
0.337296
0.359319
0.00881229
2.27442e-07
3.44681e-12
4.38675e-16
6.15811e-18
5.52035e-14
3.7107e-12
1.01252e-10
1.29806e-09
0.00677964
0.324483
0.30074
0.366232
0.395799
0.342394
0.396226
0.394049
0.3683
0.34381
0.330191
0.00593925
1.50747e-08
2.33851e-12
1.15628e-15
7.44031e-18
1.89277e-15
3.37366e-13
1.69482e-11
3.76401e-12
0.00249994
0.326363
0.371297
0.418654
0.38477
0.349758
0.340918
0.376626
0.358303
0.358273
0.242987
0.00169135
5.05739e-09
1.29372e-12
2.57682e-15
1.13669e-17
1.27753e-20
7.20147e-18
1.21551e-15
4.22262e-16
1.46678e-05
0.00115363
0.0012958
0.00198024
0.00181568
0.00225412
0.00162656
0.00200211
0.0014013
0.00125735
0.000771491
6.91385e-06
1.73383e-11
2.36939e-15
2.37012e-18
2.7562e-20
1.64337e-37
1.78766e-35
5.48307e-33
3.78223e-31
3.37214e-24
0
0
0
0
0
0
0
0
0
0
1.56751e-18
4.85326e-15
1.56437e-17
1.59867e-21
2.52123e-23
8.12643e-52
3.69847e-50
4.98517e-48
1.1016e-44
2.38339e-46
0
0
0
0
0
0
0
0
0
0
9.04776e-30
4.00211e-27
5.43844e-31
6.12592e-38
1.66739e-39
0
0
0
0
0
0
0
0
0
0
0
0
0
0
0
5.29028e-39
7.98975e-35
2.83517e-38
5.44548e-42
3.05697e-43
0
0
0
0
0
0
0
0
0
0
0
0
0
0
0
0
0
0
0
0
0
0
0
0
0
0
0
0
0
0
0
0
0
0
0
0
0
0
0
0
0
0
0
0
0
0
0
0
0
0
0
0
0
0
0
0
0
0
0
0
0
0
0
0
0
0
0
0
0
0
0
0
0
0
0
0
0
0
0
0
0
0
0
0
0
0
0
0
0
0
0
0
0
0
0
0
0
0
0
0
0
0
0
0
0
0
0
0
0
0
0
0
0
0
0
0
0
0
0
0
0
0
0
0
0
0
0
0
0
0
0
0
0
0
0
0
0
0
0
0
0
0
0
0
0
0
0
0
0
0
0
0
0
0
0
0
0
0
0
0
0.00342475
0.0034215
0.00430979
0.0118092
0.249559
0.307123
0.356196
0.795992
0.766794
0.788254
0.549282
0.890105
0.611609
0.433348
0.195296
0.03551
0.00559937
0.00398845
0.00299727
0.00305027
4.56168e-08
3.54024e-08
7.81001e-08
0.00333876
0.502515
0.237711
0.236067
0.197189
0.227859
0.226853
0.170308
0.79844
0.922071
0.907202
0.668016
0.0711677
6.49007e-07
5.63721e-08
2.98628e-08
3.70336e-08
5.99522e-13
1.59197e-11
4.81123e-10
2.04037e-05
0.0528164
0.195672
0.416285
0.352662
0.364358
0.347655
0.376427
0.285196
0.481549
0.387822
0.28601
0.010733
3.1143e-07
6.60428e-12
8.2075e-14
1.77865e-15
1.02282e-12
2.48207e-11
6.3965e-10
9.50064e-07
0.00758747
0.33939
0.327914
0.376075
0.371835
0.38755
0.441504
0.356444
0.428552
0.353126
0.307106
0.0121243
2.61837e-07
2.83517e-12
1.03716e-14
5.47657e-16
1.18831e-12
2.50856e-11
3.49915e-10
4.81905e-07
0.00752709
0.397842
0.352989
0.418623
0.381785
0.361469
0.401253
0.352739
0.371123
0.331854
0.331512
0.00910326
1.32932e-07
4.15673e-12
4.19182e-16
1.19978e-16
6.11601e-13
1.51899e-11
2.57301e-10
1.32099e-07
0.00848385
0.374728
0.410628
0.412531
0.364516
0.391665
0.40094
0.368529
0.398645
0.337224
0.359182
0.00892573
1.6909e-07
1.95847e-11
2.54014e-16
7.7143e-18
7.23783e-14
4.00339e-12
1.0228e-10
2.83856e-09
0.00687968
0.326222
0.300035
0.366257
0.395753
0.342219
0.396366
0.394031
0.368364
0.34357
0.330864
0.00628034
2.02515e-08
1.71456e-12
5.15445e-16
3.29514e-18
2.8736e-15
3.92523e-13
1.7709e-11
2.93893e-10
0.0024705
0.329646
0.373613
0.421496
0.388815
0.354021
0.345189
0.380966
0.361889
0.360616
0.248495
0.00178461
2.97972e-09
9.02712e-13
1.23948e-15
4.80869e-18
2.32057e-20
9.75226e-18
1.51523e-15
2.43202e-16
1.05802e-05
0.00114311
0.00129659
0.00197657
0.00181586
0.00225594
0.00162879
0.00200076
0.00140713
0.0012582
0.000780986
6.81483e-06
6.36529e-13
8.06019e-16
6.85251e-19
6.02665e-21
2.42636e-37
2.87999e-35
7.33109e-33
8.02828e-32
5.16857e-25
0
0
0
0
0
0
0
0
0
0
9.70835e-19
5.24613e-16
7.16429e-18
5.91348e-22
6.70508e-24
3.08195e-52
1.13561e-50
2.14892e-48
2.64487e-45
9.32075e-47
0
0
0
0
0
0
0
0
0
0
4.43045e-30
1.05395e-27
2.70869e-31
1.95922e-38
4.85106e-40
0
0
0
0
0
0
0
0
0
0
0
0
0
0
0
2.38618e-38
3.55377e-34
4.44649e-38
4.96549e-42
2.7236e-43
0
0
0
0
0
0
0
0
0
0
0
0
0
0
0
0
0
0
0
0
0
0
0
0
0
0
0
0
0
0
0
0
0
0
0
0
0
0
0
0
0
0
0
0
0
0
0
0
0
0
0
0
0
0
0
0
0
0
0
0
0
0
0
0
0
0
0
0
0
0
0
0
0
0
0
0
0
0
0
0
0
0
0
0
0
0
0
0
0
0
0
0
0
0
0
0
0
0
0
0
0
0
0
0
0
0
0
0
0
0
0
0
0
0
0
0
0
0
0
0
0
0
0
0
0
0
0
0
0
0
0
0
0
0
0
0
0
0
0
0
0
0
0
0
0
0
0
0
0
0
0
0
0