/*--------------------------------*- C++ -*----------------------------------*\
| =========                 |                                                 |
| \\      /  F ield         | OpenFOAM: The Open Source CFD Toolbox           |
|  \\    /   O peration     | Version:  2.3.0                                 |
|   \\  /    A nd           | Web:      www.OpenFOAM.org                      |
|    \\/     M anipulation  |                                                 |
\*---------------------------------------------------------------------------*/
FoamFile
{
    version     2.0;
    format      ascii;
    class       volScalarField;
    location    "4.30002";
    object      rhom;
}
// * * * * * * * * * * * * * * * * * * * * * * * * * * * * * * * * * * * * * //

dimensions      [1 -3 0 0 0 0 0];

internalField   nonuniform List<scalar> 
10000
(
1025.59
1025.58
1024.82
1023.32
947.587
880.712
868.542
770.237
701.934
678.605
759.357
634.001
754.825
807.699
939.356
1013.41
1024.24
1025.18
1025.58
1025.7
1027.11
1027.11
1027.11
1026.24
906.391
903.285
899.716
919.946
901.579
904.606
932.676
661.924
589.511
606.869
786.879
1008.48
1027.11
1027.11
1027.11
1027.11
1027.11
1027.11
1027.11
1027.11
1019.08
911.458
822.782
843.429
839.517
842.47
826.3
871.156
759.458
822.43
883.624
1023.62
1027.11
1027.11
1027.11
1027.11
1027.11
1027.11
1027.11
1027.11
1023.32
844.218
857.751
829.023
835.196
830.706
804.006
844.457
812.971
847.471
866.295
1023
1027.11
1027.11
1027.11
1027.11
1027.11
1027.11
1027.11
1027.11
1024.2
824.916
841.106
812.024
832.627
839.008
821.21
845.277
835.302
856.364
852.609
1022.58
1027.11
1027.11
1027.11
1027.11
1027.11
1027.11
1027.11
1027.11
1025.32
844.182
822.694
822.028
837.162
830.214
821.416
834.565
827.42
853.547
843.225
1022.87
1027.11
1027.11
1027.11
1027.11
1027.11
1027.11
1027.11
1027.11
1026.31
870.743
870.017
837.974
824.611
853.715
826.374
825.891
839.814
850.524
867.302
1025.92
1027.11
1027.11
1027.11
1027.11
1027.11
1027.11
1027.11
1027.11
1026.89
882.949
855.217
833.45
861.47
880.623
883.903
867.709
870.313
861.615
938.51
1027.02
1027.11
1027.11
1027.11
1027.11
1027.11
1027.11
1027.11
1027.11
1027.11
1026.63
1026.55
1026.22
1026.35
1026.22
1026.45
1026.29
1026.54
1026.55
1026.84
1027.11
1027.11
1027.11
1027.11
1027.11
1027.11
1027.11
1027.11
1027.11
1027.11
1027.11
1027.11
1027.11
1027.11
1027.11
1027.11
1027.11
1027.11
1027.11
1027.11
1027.11
1027.11
1027.11
1027.11
1027.11
1027.11
1027.11
1027.11
1027.11
1027.11
1027.11
1027.11
1027.11
1027.11
1027.11
1027.11
1027.11
1027.11
1027.11
1027.11
1027.11
1027.11
1027.11
1027.11
1027.11
1027.11
1027.11
1027.11
1027.11
1027.11
1027.11
1027.11
1027.11
1027.11
1027.11
1027.11
1027.11
1027.11
1027.11
1027.11
1027.11
1027.11
1027.11
1027.11
1027.11
1027.11
1027.11
1027.11
1027.11
1027.11
1027.11
1027.11
1027.11
1027.11
1027.11
1027.11
1027.11
1027.11
1027.11
1027.11
1027.11
1027.11
1027.11
1027.11
1027.11
1027.11
1027.11
1027.11
1027.11
1027.11
1027.11
1027.11
1027.11
1027.11
1027.11
1027.11
1027.11
1027.11
1027.11
1027.11
1027.11
1027.11
1027.11
1027.11
1027.11
1027.11
1027.11
1027.11
1027.11
1027.11
1027.11
1027.11
1027.11
1027.11
1027.11
1027.11
1027.11
1027.11
1027.11
1027.11
1027.11
1027.11
1027.11
1027.11
1027.11
1027.11
1027.11
1027.11
1027.11
1027.11
1027.11
1027.11
1027.11
1027.11
1027.11
1027.11
1027.11
1027.11
1027.11
1027.11
1027.11
1027.11
1027.11
1027.11
1027.11
1027.11
1027.11
1027.11
1027.11
1027.11
1027.11
1027.11
1027.11
1027.11
1027.11
1027.11
1027.11
1027.11
1027.11
1027.11
1027.11
1027.11
1027.11
1027.11
1027.11
1027.11
1027.11
1027.11
1027.11
1027.11
1027.11
1027.11
1027.11
1027.11
1027.11
1027.11
1027.11
1027.11
1027.11
1027.11
1027.11
1027.11
1027.11
1027.11
1027.11
1027.11
1027.11
1027.11
1027.11
1027.11
1027.11
1027.11
1027.11
1027.11
1027.11
1027.11
1027.11
1027.11
1027.11
1027.11
1027.11
1027.11
1027.11
1027.11
1027.11
1027.11
1027.11
1027.11
1027.11
1027.11
1027.11
1027.11
1027.11
1027.11
1027.11
1027.11
1027.11
1027.11
1027.11
1027.11
1027.11
1027.11
1027.11
1027.11
1027.11
1025.49
1025.52
1024.81
1023.33
939.046
878.553
865.94
748.915
689.501
669.378
753.857
624.103
747.605
806.971
938.331
1012.77
1024.27
1025.12
1025.55
1025.62
1027.11
1027.11
1027.11
1026.56
889.4
903.492
900.809
921.453
903.125
905.961
934.152
654.882
584.821
599.609
777.551
1006.92
1027.11
1027.11
1027.11
1027.11
1027.11
1027.11
1027.11
1027.11
1018.16
913.87
821.279
844.108
839.79
843.424
827.72
872.565
761.125
821.908
882.639
1023.68
1027.11
1027.11
1027.11
1027.11
1027.11
1027.11
1027.11
1027.11
1023.54
845.559
858.013
829.934
835.395
830.388
803.462
844.478
811.919
847.202
866.401
1023.27
1027.11
1027.11
1027.11
1027.11
1027.11
1027.11
1027.11
1027.11
1024.04
824.392
841.923
812.02
832.478
839.427
821.249
845.523
835.475
856.494
853.014
1022.93
1027.11
1027.11
1027.11
1027.11
1027.11
1027.11
1027.11
1027.11
1024.94
842.652
821.643
821.026
837.688
829.76
821.434
835.162
826.774
853.713
843.01
1023.1
1027.11
1027.11
1027.11
1027.11
1027.11
1027.11
1027.11
1027.11
1026.1
869.229
870.382
838.191
824.414
852.967
825.645
825.577
839.411
850.525
864.579
1025.96
1027.11
1027.11
1027.11
1027.11
1027.11
1027.11
1027.11
1027.11
1026.83
878.212
851.437
829.254
854.847
873.727
877.489
860.698
864.771
857.791
931.585
1026.99
1027.11
1027.11
1027.11
1027.11
1027.11
1027.11
1027.11
1027.11
1027.11
1026.59
1026.52
1026.18
1026.3
1026.14
1026.4
1026.23
1026.5
1026.52
1026.8
1027.11
1027.11
1027.11
1027.11
1027.11
1027.11
1027.11
1027.11
1027.11
1027.11
1027.11
1027.11
1027.11
1027.11
1027.11
1027.11
1027.11
1027.11
1027.11
1027.11
1027.11
1027.11
1027.11
1027.11
1027.11
1027.11
1027.11
1027.11
1027.11
1027.11
1027.11
1027.11
1027.11
1027.11
1027.11
1027.11
1027.11
1027.11
1027.11
1027.11
1027.11
1027.11
1027.11
1027.11
1027.11
1027.11
1027.11
1027.11
1027.11
1027.11
1027.11
1027.11
1027.11
1027.11
1027.11
1027.11
1027.11
1027.11
1027.11
1027.11
1027.11
1027.11
1027.11
1027.11
1027.11
1027.11
1027.11
1027.11
1027.11
1027.11
1027.11
1027.11
1027.11
1027.11
1027.11
1027.11
1027.11
1027.11
1027.11
1027.11
1027.11
1027.11
1027.11
1027.11
1027.11
1027.11
1027.11
1027.11
1027.11
1027.11
1027.11
1027.11
1027.11
1027.11
1027.11
1027.11
1027.11
1027.11
1027.11
1027.11
1027.11
1027.11
1027.11
1027.11
1027.11
1027.11
1027.11
1027.11
1027.11
1027.11
1027.11
1027.11
1027.11
1027.11
1027.11
1027.11
1027.11
1027.11
1027.11
1027.11
1027.11
1027.11
1027.11
1027.11
1027.11
1027.11
1027.11
1027.11
1027.11
1027.11
1027.11
1027.11
1027.11
1027.11
1027.11
1027.11
1027.11
1027.11
1027.11
1027.11
1027.11
1027.11
1027.11
1027.11
1027.11
1027.11
1027.11
1027.11
1027.11
1027.11
1027.11
1027.11
1027.11
1027.11
1027.11
1027.11
1027.11
1027.11
1027.11
1027.11
1027.11
1027.11
1027.11
1027.11
1027.11
1027.11
1027.11
1027.11
1027.11
1027.11
1027.11
1027.11
1027.11
1027.11
1027.11
1027.11
1027.11
1027.11
1027.11
1027.11
1027.11
1027.11
1027.11
1027.11
1027.11
1027.11
1027.11
1027.11
1027.11
1027.11
1027.11
1027.11
1027.11
1027.11
1027.11
1027.11
1027.11
1027.11
1027.11
1027.11
1027.11
1027.11
1027.11
1027.11
1027.11
1027.11
1027.11
1027.11
1027.11
1027.11
1027.11
1027.11
1027.11
1027.11
1027.11
1027.11
1027.11
1027.11
1027.11
1027.11
1027.11
1027.11
1027.11
1027.11
1027.11
1025.46
1025.49
1024.79
1023.27
934.275
877.561
864.412
733.49
682.203
663.803
751.87
617.429
742.844
806.979
937.373
1012.34
1024.27
1025.09
1025.53
1025.59
1027.11
1027.11
1027.11
1026.98
880.298
903.599
901.411
922.164
903.981
906.631
934.914
650.221
582.126
595.628
770.709
1005.84
1027.11
1027.11
1027.11
1027.11
1027.11
1027.11
1027.11
1027.11
1017.39
915.265
820.442
844.505
839.916
843.988
828.473
873.333
763.451
821.871
882.192
1023.63
1027.11
1027.11
1027.11
1027.11
1027.11
1027.11
1027.11
1027.11
1023.57
846.351
858.139
830.44
835.514
830.196
803.157
844.483
811.312
847.061
866.724
1023.32
1027.11
1027.11
1027.11
1027.11
1027.11
1027.11
1027.11
1027.11
1023.93
824.135
842.392
812.024
832.386
839.674
821.275
845.646
835.594
856.566
853.301
1023.05
1027.11
1027.11
1027.11
1027.11
1027.11
1027.11
1027.11
1027.11
1024.7
841.746
821.062
820.465
837.987
829.486
821.448
835.506
826.396
853.802
842.943
1023.15
1027.11
1027.11
1027.11
1027.11
1027.11
1027.11
1027.11
1027.11
1025.94
868.189
870.636
838.389
824.347
852.637
825.323
825.458
839.221
850.542
863.335
1025.97
1027.11
1027.11
1027.11
1027.11
1027.11
1027.11
1027.11
1027.11
1026.77
875.711
849.394
826.973
851.297
870.018
874.013
856.925
861.795
855.768
927.773
1026.96
1027.11
1027.11
1027.11
1027.11
1027.11
1027.11
1027.11
1027.11
1027.11
1026.57
1026.5
1026.16
1026.27
1026.1
1026.37
1026.2
1026.48
1026.51
1026.79
1027.11
1027.11
1027.11
1027.11
1027.11
1027.11
1027.11
1027.11
1027.11
1027.11
1027.11
1027.11
1027.11
1027.11
1027.11
1027.11
1027.11
1027.11
1027.11
1027.11
1027.11
1027.11
1027.11
1027.11
1027.11
1027.11
1027.11
1027.11
1027.11
1027.11
1027.11
1027.11
1027.11
1027.11
1027.11
1027.11
1027.11
1027.11
1027.11
1027.11
1027.11
1027.11
1027.11
1027.11
1027.11
1027.11
1027.11
1027.11
1027.11
1027.11
1027.11
1027.11
1027.11
1027.11
1027.11
1027.11
1027.11
1027.11
1027.11
1027.11
1027.11
1027.11
1027.11
1027.11
1027.11
1027.11
1027.11
1027.11
1027.11
1027.11
1027.11
1027.11
1027.11
1027.11
1027.11
1027.11
1027.11
1027.11
1027.11
1027.11
1027.11
1027.11
1027.11
1027.11
1027.11
1027.11
1027.11
1027.11
1027.11
1027.11
1027.11
1027.11
1027.11
1027.11
1027.11
1027.11
1027.11
1027.11
1027.11
1027.11
1027.11
1027.11
1027.11
1027.11
1027.11
1027.11
1027.11
1027.11
1027.11
1027.11
1027.11
1027.11
1027.11
1027.11
1027.11
1027.11
1027.11
1027.11
1027.11
1027.11
1027.11
1027.11
1027.11
1027.11
1027.11
1027.11
1027.11
1027.11
1027.11
1027.11
1027.11
1027.11
1027.11
1027.11
1027.11
1027.11
1027.11
1027.11
1027.11
1027.11
1027.11
1027.11
1027.11
1027.11
1027.11
1027.11
1027.11
1027.11
1027.11
1027.11
1027.11
1027.11
1027.11
1027.11
1027.11
1027.11
1027.11
1027.11
1027.11
1027.11
1027.11
1027.11
1027.11
1027.11
1027.11
1027.11
1027.11
1027.11
1027.11
1027.11
1027.11
1027.11
1027.11
1027.11
1027.11
1027.11
1027.11
1027.11
1027.11
1027.11
1027.11
1027.11
1027.11
1027.11
1027.11
1027.11
1027.11
1027.11
1027.11
1027.11
1027.11
1027.11
1027.11
1027.11
1027.11
1027.11
1027.11
1027.11
1027.11
1027.11
1027.11
1027.11
1027.11
1027.11
1027.11
1027.11
1027.11
1027.11
1027.11
1027.11
1027.11
1027.11
1027.11
1027.11
1027.11
1027.11
1027.11
1027.11
1027.11
1027.11
1027.11
1027.11
1027.11
1027.11
1027.11
1025.46
1025.48
1024.83
1023.23
930.107
876.651
862.877
717.595
674.838
657.772
749.465
611.373
738.534
807.067
936.223
1012.01
1024.29
1025.1
1025.54
1025.6
1027.11
1027.11
1027.11
1027.11
869.651
903.758
902.065
922.766
904.932
907.318
935.741
645.64
578.831
590.951
759.642
1004.25
1027.11
1027.11
1027.11
1027.11
1027.11
1027.11
1027.11
1027.11
1016.33
917.049
819.522
844.924
840.04
844.657
829.295
874.226
765.343
822.413
882.193
1023.56
1027.11
1027.11
1027.11
1027.11
1027.11
1027.11
1027.11
1027.11
1023.56
847.241
858.261
831.001
835.65
829.975
802.818
844.476
810.665
846.906
867.201
1023.31
1027.11
1027.11
1027.11
1027.11
1027.11
1027.11
1027.11
1027.11
1023.82
823.89
842.92
812.071
832.277
839.96
821.304
845.78
835.738
856.64
853.71
1023.13
1027.11
1027.11
1027.11
1027.11
1027.11
1027.11
1027.11
1027.11
1024.43
840.74
820.416
819.824
838.319
829.161
821.469
835.891
825.961
853.896
842.889
1023.15
1027.11
1027.11
1027.11
1027.11
1027.11
1027.11
1027.11
1027.11
1025.67
867.031
870.944
838.633
824.295
852.324
825.015
825.357
839.03
850.557
862.1
1025.89
1027.11
1027.11
1027.11
1027.11
1027.11
1027.11
1027.11
1027.11
1026.61
872.96
847.158
824.469
847.444
866.002
870.211
852.827
858.55
853.572
923.537
1026.93
1027.11
1027.11
1027.11
1027.11
1027.11
1027.11
1027.11
1027.11
1027.11
1026.55
1026.48
1026.14
1026.24
1026.05
1026.34
1026.16
1026.45
1026.49
1026.77
1027.11
1027.11
1027.11
1027.11
1027.11
1027.11
1027.11
1027.11
1027.11
1027.11
1027.11
1027.11
1027.11
1027.11
1027.11
1027.11
1027.11
1027.11
1027.11
1027.11
1027.11
1027.11
1027.11
1027.11
1027.11
1027.11
1027.11
1027.11
1027.11
1027.11
1027.11
1027.11
1027.11
1027.11
1027.11
1027.11
1027.11
1027.11
1027.11
1027.11
1027.11
1027.11
1027.11
1027.11
1027.11
1027.11
1027.11
1027.11
1027.11
1027.11
1027.11
1027.11
1027.11
1027.11
1027.11
1027.11
1027.11
1027.11
1027.11
1027.11
1027.11
1027.11
1027.11
1027.11
1027.11
1027.11
1027.11
1027.11
1027.11
1027.11
1027.11
1027.11
1027.11
1027.11
1027.11
1027.11
1027.11
1027.11
1027.11
1027.11
1027.11
1027.11
1027.11
1027.11
1027.11
1027.11
1027.11
1027.11
1027.11
1027.11
1027.11
1027.11
1027.11
1027.11
1027.11
1027.11
1027.11
1027.11
1027.11
1027.11
1027.11
1027.11
1027.11
1027.11
1027.11
1027.11
1027.11
1027.11
1027.11
1027.11
1027.11
1027.11
1027.11
1027.11
1027.11
1027.11
1027.11
1027.11
1027.11
1027.11
1027.11
1027.11
1027.11
1027.11
1027.11
1027.11
1027.11
1027.11
1027.11
1027.11
1027.11
1027.11
1027.11
1027.11
1027.11
1027.11
1027.11
1027.11
1027.11
1027.11
1027.11
1027.11
1027.11
1027.11
1027.11
1027.11
1027.11
1027.11
1027.11
1027.11
1027.11
1027.11
1027.11
1027.11
1027.11
1027.11
1027.11
1027.11
1027.11
1027.11
1027.11
1027.11
1027.11
1027.11
1027.11
1027.11
1027.11
1027.11
1027.11
1027.11
1027.11
1027.11
1027.11
1027.11
1027.11
1027.11
1027.11
1027.11
1027.11
1027.11
1027.11
1027.11
1027.11
1027.11
1027.11
1027.11
1027.11
1027.11
1027.11
1027.11
1027.11
1027.11
1027.11
1027.11
1027.11
1027.11
1027.11
1027.11
1027.11
1027.11
1027.11
1027.11
1027.11
1027.11
1027.11
1027.11
1027.11
1027.11
1027.11
1027.11
1027.11
1027.11
1027.11
1027.11
1027.11
1027.11
1027.11
1027.11
1027.11
1027.11
1027.11
1027.11
1027.11
1027.11
1027.11
1025.44
1025.47
1024.84
1023.09
925.495
875.648
860.834
700.894
667.924
652.218
747.763
605.362
734.37
806.525
934.914
1011.62
1024.29
1025.09
1025.55
1025.59
1027.11
1027.11
1027.11
1027.11
858.885
904.044
902.685
923.329
905.817
907.947
936.467
641.148
575.576
586.596
749.424
1002.66
1027.11
1027.11
1027.11
1027.11
1027.11
1027.11
1027.11
1027.11
1014.99
918.689
818.622
845.249
840.139
845.287
830.067
875.076
767.464
823.005
881.937
1023.47
1027.11
1027.11
1027.11
1027.11
1027.11
1027.11
1027.11
1027.11
1023.54
848.116
858.38
831.535
835.784
829.764
802.503
844.477
810.082
846.775
867.615
1023.24
1027.11
1027.11
1027.11
1027.11
1027.11
1027.11
1027.11
1027.11
1023.74
823.706
843.425
812.122
832.169
840.237
821.331
845.892
835.888
856.712
854.181
1023.19
1027.11
1027.11
1027.11
1027.11
1027.11
1027.11
1027.11
1027.11
1024.17
839.797
819.817
819.213
838.633
828.829
821.494
836.26
825.541
853.984
842.87
1023.1
1027.11
1027.11
1027.11
1027.11
1027.11
1027.11
1027.11
1027.11
1025.32
865.918
871.262
838.88
824.269
852.085
824.771
825.291
838.872
850.573
861.1
1025.7
1027.11
1027.11
1027.11
1027.11
1027.11
1027.11
1027.11
1027.11
1026.36
870.474
845.132
822.191
843.98
862.398
866.763
849.134
855.617
851.607
919.636
1026.87
1027.11
1027.11
1027.11
1027.11
1027.11
1027.11
1027.11
1027.11
1027.11
1026.53
1026.47
1026.11
1026.21
1026.01
1026.31
1026.12
1026.43
1026.48
1026.75
1027.11
1027.11
1027.11
1027.11
1027.11
1027.11
1027.11
1027.11
1027.11
1027.11
1027.11
1027.11
1027.11
1027.11
1027.11
1027.11
1027.11
1027.11
1027.11
1027.11
1027.11
1027.11
1027.11
1027.11
1027.11
1027.11
1027.11
1027.11
1027.11
1027.11
1027.11
1027.11
1027.11
1027.11
1027.11
1027.11
1027.11
1027.11
1027.11
1027.11
1027.11
1027.11
1027.11
1027.11
1027.11
1027.11
1027.11
1027.11
1027.11
1027.11
1027.11
1027.11
1027.11
1027.11
1027.11
1027.11
1027.11
1027.11
1027.11
1027.11
1027.11
1027.11
1027.11
1027.11
1027.11
1027.11
1027.11
1027.11
1027.11
1027.11
1027.11
1027.11
1027.11
1027.11
1027.11
1027.11
1027.11
1027.11
1027.11
1027.11
1027.11
1027.11
1027.11
1027.11
1027.11
1027.11
1027.11
1027.11
1027.11
1027.11
1027.11
1027.11
1027.11
1027.11
1027.11
1027.11
1027.11
1027.11
1027.11
1027.11
1027.11
1027.11
1027.11
1027.11
1027.11
1027.11
1027.11
1027.11
1027.11
1027.11
1027.11
1027.11
1027.11
1027.11
1027.11
1027.11
1027.11
1027.11
1027.11
1027.11
1027.11
1027.11
1027.11
1027.11
1027.11
1027.11
1027.11
1027.11
1027.11
1027.11
1027.11
1027.11
1027.11
1027.11
1027.11
1027.11
1027.11
1027.11
1027.11
1027.11
1027.11
1027.11
1027.11
1027.11
1027.11
1027.11
1027.11
1027.11
1027.11
1027.11
1027.11
1027.11
1027.11
1027.11
1027.11
1027.11
1027.11
1027.11
1027.11
1027.11
1027.11
1027.11
1027.11
1027.11
1027.11
1027.11
1027.11
1027.11
1027.11
1027.11
1027.11
1027.11
1027.11
1027.11
1027.11
1027.11
1027.11
1027.11
1027.11
1027.11
1027.11
1027.11
1027.11
1027.11
1027.11
1027.11
1027.11
1027.11
1027.11
1027.11
1027.11
1027.11
1027.11
1027.11
1027.11
1027.11
1027.11
1027.11
1027.11
1027.11
1027.11
1027.11
1027.11
1027.11
1027.11
1027.11
1027.11
1027.11
1027.11
1027.11
1027.11
1027.11
1027.11
1027.11
1027.11
1027.11
1027.11
1027.11
1027.11
1027.11
1027.11
1027.11
1027.11
1027.11
1027.11
1025.43
1025.45
1024.86
1022.9
920.906
874.723
858.735
685.268
661.33
646.979
746.346
599.489
730.569
806.077
933.669
1011.22
1024.28
1025.09
1025.55
1025.59
1027.11
1027.11
1027.11
1027.11
848.002
904.336
903.298
923.856
906.679
908.529
937.154
636.784
572.091
582.221
738.762
1000.9
1027.11
1027.11
1027.11
1027.11
1027.11
1027.11
1027.11
1027.11
1013.28
920.341
817.746
845.549
840.22
845.935
830.823
876.014
769.722
823.737
881.72
1023.31
1027.11
1027.11
1027.11
1027.11
1027.11
1027.11
1027.11
1027.11
1023.52
849
858.493
832.061
835.921
829.548
802.195
844.473
809.539
846.649
868.008
1022.99
1027.11
1027.11
1027.11
1027.11
1027.11
1027.11
1027.11
1027.11
1023.67
823.567
843.929
812.183
832.055
840.519
821.358
845.996
836.05
856.78
854.716
1023.21
1027.11
1027.11
1027.11
1027.11
1027.11
1027.11
1027.11
1027.11
1023.93
838.88
819.229
818.6
838.944
828.47
821.522
836.626
825.112
854.066
842.865
1023.02
1027.11
1027.11
1027.11
1027.11
1027.11
1027.11
1027.11
1027.11
1024.91
864.828
871.599
839.102
824.258
851.9
824.57
825.247
838.734
850.594
860.224
1025.44
1027.11
1027.11
1027.11
1027.11
1027.11
1027.11
1027.11
1027.11
1026.11
868.058
843.185
819.986
840.679
858.972
863.444
845.61
852.807
849.729
915.826
1026.79
1027.11
1027.11
1027.11
1027.11
1027.11
1027.11
1027.11
1027.11
1027.11
1026.52
1026.46
1026.1
1026.19
1025.98
1026.29
1026.1
1026.41
1026.47
1026.73
1027.11
1027.11
1027.11
1027.11
1027.11
1027.11
1027.11
1027.11
1027.11
1027.11
1027.11
1027.11
1027.11
1027.11
1027.11
1027.11
1027.11
1027.11
1027.11
1027.11
1027.11
1027.11
1027.11
1027.11
1027.11
1027.11
1027.11
1027.11
1027.11
1027.11
1027.11
1027.11
1027.11
1027.11
1027.11
1027.11
1027.11
1027.11
1027.11
1027.11
1027.11
1027.11
1027.11
1027.11
1027.11
1027.11
1027.11
1027.11
1027.11
1027.11
1027.11
1027.11
1027.11
1027.11
1027.11
1027.11
1027.11
1027.11
1027.11
1027.11
1027.11
1027.11
1027.11
1027.11
1027.11
1027.11
1027.11
1027.11
1027.11
1027.11
1027.11
1027.11
1027.11
1027.11
1027.11
1027.11
1027.11
1027.11
1027.11
1027.11
1027.11
1027.11
1027.11
1027.11
1027.11
1027.11
1027.11
1027.11
1027.11
1027.11
1027.11
1027.11
1027.11
1027.11
1027.11
1027.11
1027.11
1027.11
1027.11
1027.11
1027.11
1027.11
1027.11
1027.11
1027.11
1027.11
1027.11
1027.11
1027.11
1027.11
1027.11
1027.11
1027.11
1027.11
1027.11
1027.11
1027.11
1027.11
1027.11
1027.11
1027.11
1027.11
1027.11
1027.11
1027.11
1027.11
1027.11
1027.11
1027.11
1027.11
1027.11
1027.11
1027.11
1027.11
1027.11
1027.11
1027.11
1027.11
1027.11
1027.11
1027.11
1027.11
1027.11
1027.11
1027.11
1027.11
1027.11
1027.11
1027.11
1027.11
1027.11
1027.11
1027.11
1027.11
1027.11
1027.11
1027.11
1027.11
1027.11
1027.11
1027.11
1027.11
1027.11
1027.11
1027.11
1027.11
1027.11
1027.11
1027.11
1027.11
1027.11
1027.11
1027.11
1027.11
1027.11
1027.11
1027.11
1027.11
1027.11
1027.11
1027.11
1027.11
1027.11
1027.11
1027.11
1027.11
1027.11
1027.11
1027.11
1027.11
1027.11
1027.11
1027.11
1027.11
1027.11
1027.11
1027.11
1027.11
1027.11
1027.11
1027.11
1027.11
1027.11
1027.11
1027.11
1027.11
1027.11
1027.11
1027.11
1027.11
1027.11
1027.11
1027.11
1027.11
1027.11
1027.11
1027.11
1027.11
1027.11
1027.11
1027.11
1027.11
1027.11
1027.11
1027.11
1025.42
1025.44
1024.87
1022.59
916.329
873.794
856.347
670.654
655.182
642.115
745.369
593.738
727.731
805.63
932.341
1010.79
1024.28
1025.09
1025.55
1025.58
1027.11
1027.11
1027.11
1027.11
839.279
904.577
903.898
924.365
907.498
909.071
937.783
632.603
568.563
578.025
727.934
999.037
1027.11
1027.11
1027.11
1027.11
1027.11
1027.11
1027.11
1027.11
1011.3
921.828
816.9
845.793
840.283
846.565
831.551
876.98
772.381
824.504
881.413
1023.07
1027.11
1027.11
1027.11
1027.11
1027.11
1027.11
1027.11
1027.11
1023.48
849.872
858.611
832.568
836.056
829.337
801.903
844.472
809.04
846.538
868.389
1022.59
1027.11
1027.11
1027.11
1027.11
1027.11
1027.11
1027.11
1027.11
1023.6
823.468
844.419
812.255
831.94
840.798
821.383
846.087
836.219
856.844
855.256
1023.21
1027.11
1027.11
1027.11
1027.11
1027.11
1027.11
1027.11
1027.11
1023.72
838.017
818.674
817.999
839.243
828.087
821.551
836.982
824.679
854.135
842.871
1022.93
1027.11
1027.11
1027.11
1027.11
1027.11
1027.11
1027.11
1027.11
1024.5
863.769
871.941
839.274
824.256
851.772
824.41
825.22
838.619
850.646
859.497
1025.11
1027.11
1027.11
1027.11
1027.11
1027.11
1027.11
1027.11
1027.11
1025.93
865.794
841.38
817.919
837.631
855.814
860.354
842.351
850.197
847.986
912.236
1026.65
1027.11
1027.11
1027.11
1027.11
1027.11
1027.11
1027.11
1027.11
1027.1
1026.52
1026.45
1026.1
1026.19
1025.98
1026.28
1026.09
1026.41
1026.47
1026.73
1027.11
1027.11
1027.11
1027.11
1027.11
1027.11
1027.11
1027.11
1027.11
1027.11
1027.11
1027.11
1027.11
1027.11
1027.11
1027.11
1027.11
1027.11
1027.11
1027.11
1027.11
1027.11
1027.11
1027.11
1027.11
1027.11
1027.11
1027.11
1027.11
1027.11
1027.11
1027.11
1027.11
1027.11
1027.11
1027.11
1027.11
1027.11
1027.11
1027.11
1027.11
1027.11
1027.11
1027.11
1027.11
1027.11
1027.11
1027.11
1027.11
1027.11
1027.11
1027.11
1027.11
1027.11
1027.11
1027.11
1027.11
1027.11
1027.11
1027.11
1027.11
1027.11
1027.11
1027.11
1027.11
1027.11
1027.11
1027.11
1027.11
1027.11
1027.11
1027.11
1027.11
1027.11
1027.11
1027.11
1027.11
1027.11
1027.11
1027.11
1027.11
1027.11
1027.11
1027.11
1027.11
1027.11
1027.11
1027.11
1027.11
1027.11
1027.11
1027.11
1027.11
1027.11
1027.11
1027.11
1027.11
1027.11
1027.11
1027.11
1027.11
1027.11
1027.11
1027.11
1027.11
1027.11
1027.11
1027.11
1027.11
1027.11
1027.11
1027.11
1027.11
1027.11
1027.11
1027.11
1027.11
1027.11
1027.11
1027.11
1027.11
1027.11
1027.11
1027.11
1027.11
1027.11
1027.11
1027.11
1027.11
1027.11
1027.11
1027.11
1027.11
1027.11
1027.11
1027.11
1027.11
1027.11
1027.11
1027.11
1027.11
1027.11
1027.11
1027.11
1027.11
1027.11
1027.11
1027.11
1027.11
1027.11
1027.11
1027.11
1027.11
1027.11
1027.11
1027.11
1027.11
1027.11
1027.11
1027.11
1027.11
1027.11
1027.11
1027.11
1027.11
1027.11
1027.11
1027.11
1027.11
1027.11
1027.11
1027.11
1027.11
1027.11
1027.11
1027.11
1027.11
1027.11
1027.11
1027.11
1027.11
1027.11
1027.11
1027.11
1027.11
1027.11
1027.11
1027.11
1027.11
1027.11
1027.11
1027.11
1027.11
1027.11
1027.11
1027.11
1027.11
1027.11
1027.11
1027.11
1027.11
1027.11
1027.11
1027.11
1027.11
1027.11
1027.11
1027.11
1027.11
1027.11
1027.11
1027.11
1027.11
1027.11
1027.11
1027.11
1027.11
1027.11
1027.11
1027.11
1027.11
1027.11
1027.11
1027.11
1027.11
1025.41
1025.42
1024.88
1022.17
912.014
872.9
853.801
655.982
649.364
637.327
744.705
587.996
724.727
805.259
931.035
1010.35
1024.27
1025.09
1025.56
1025.57
1027.11
1027.11
1027.11
1027.09
832.989
904.777
904.49
924.841
908.278
909.573
938.368
628.623
564.879
573.865
716.986
997.061
1027.11
1027.11
1027.11
1027.11
1027.11
1027.11
1027.11
1027.11
1009.21
923.195
816.087
846.003
840.332
847.192
832.261
878.018
774.798
825.256
881.129
1022.74
1027.11
1027.11
1027.11
1027.11
1027.11
1027.11
1027.11
1027.11
1023.44
850.736
858.73
833.059
836.191
829.127
801.625
844.47
808.613
846.431
868.761
1022.08
1027.11
1027.11
1027.11
1027.11
1027.11
1027.11
1027.11
1027.11
1023.53
823.394
844.9
812.335
831.822
841.078
821.411
846.17
836.396
856.905
855.785
1023.17
1027.11
1027.11
1027.11
1027.11
1027.11
1027.11
1027.11
1027.11
1023.53
837.198
818.14
817.406
839.533
827.675
821.58
837.329
824.236
854.191
842.911
1022.83
1027.11
1027.11
1027.11
1027.11
1027.11
1027.11
1027.11
1027.11
1024.11
862.75
872.294
839.386
824.26
851.696
824.28
825.205
838.524
850.728
858.872
1024.73
1027.11
1027.11
1027.11
1027.11
1027.11
1027.11
1027.11
1027.11
1025.86
863.67
839.716
815.993
834.828
852.92
857.48
839.345
847.772
846.364
908.819
1026.49
1027.11
1027.11
1027.11
1027.11
1027.11
1027.11
1027.11
1027.11
1027.1
1026.52
1026.45
1026.1
1026.18
1025.97
1026.28
1026.09
1026.4
1026.47
1026.72
1027.11
1027.11
1027.11
1027.11
1027.11
1027.11
1027.11
1027.11
1027.11
1027.11
1027.11
1027.11
1027.11
1027.11
1027.11
1027.11
1027.11
1027.11
1027.11
1027.11
1027.11
1027.11
1027.11
1027.11
1027.11
1027.11
1027.11
1027.11
1027.11
1027.11
1027.11
1027.11
1027.11
1027.11
1027.11
1027.11
1027.11
1027.11
1027.11
1027.11
1027.11
1027.11
1027.11
1027.11
1027.11
1027.11
1027.11
1027.11
1027.11
1027.11
1027.11
1027.11
1027.11
1027.11
1027.11
1027.11
1027.11
1027.11
1027.11
1027.11
1027.11
1027.11
1027.11
1027.11
1027.11
1027.11
1027.11
1027.11
1027.11
1027.11
1027.11
1027.11
1027.11
1027.11
1027.11
1027.11
1027.11
1027.11
1027.11
1027.11
1027.11
1027.11
1027.11
1027.11
1027.11
1027.11
1027.11
1027.11
1027.11
1027.11
1027.11
1027.11
1027.11
1027.11
1027.11
1027.11
1027.11
1027.11
1027.11
1027.11
1027.11
1027.11
1027.11
1027.11
1027.11
1027.11
1027.11
1027.11
1027.11
1027.11
1027.11
1027.11
1027.11
1027.11
1027.11
1027.11
1027.11
1027.11
1027.11
1027.11
1027.11
1027.11
1027.11
1027.11
1027.11
1027.11
1027.11
1027.11
1027.11
1027.11
1027.11
1027.11
1027.11
1027.11
1027.11
1027.11
1027.11
1027.11
1027.11
1027.11
1027.11
1027.11
1027.11
1027.11
1027.11
1027.11
1027.11
1027.11
1027.11
1027.11
1027.11
1027.11
1027.11
1027.11
1027.11
1027.11
1027.11
1027.11
1027.11
1027.11
1027.11
1027.11
1027.11
1027.11
1027.11
1027.11
1027.11
1027.11
1027.11
1027.11
1027.11
1027.11
1027.11
1027.11
1027.11
1027.11
1027.11
1027.11
1027.11
1027.11
1027.11
1027.11
1027.11
1027.11
1027.11
1027.11
1027.11
1027.11
1027.11
1027.11
1027.11
1027.11
1027.11
1027.11
1027.11
1027.11
1027.11
1027.11
1027.11
1027.11
1027.11
1027.11
1027.11
1027.11
1027.11
1027.11
1027.11
1027.11
1027.11
1027.11
1027.11
1027.11
1027.11
1027.11
1027.11
1027.11
1027.11
1027.11
1027.11
1027.11
1027.11
1027.11
1027.11
1027.11
1027.11
1025.39
1025.4
1024.89
1021.62
907.866
871.94
850.977
642.737
643.934
632.531
744.493
582.311
722.062
805.058
929.714
1009.88
1024.26
1025.08
1025.57
1025.57
1027.11
1027.11
1027.11
1026.77
825.614
904.952
905.066
925.288
909.014
910.041
938.903
624.854
561.367
569.894
706.088
994.994
1027.11
1027.11
1027.11
1027.11
1027.11
1027.11
1027.11
1027.11
1006.89
924.434
815.305
846.169
840.37
847.8
832.943
879.015
776.532
826.214
880.881
1022.34
1027.11
1027.11
1027.11
1027.11
1027.11
1027.11
1027.11
1027.11
1023.38
851.577
858.853
833.529
836.324
828.923
801.363
844.469
808.216
846.336
869.112
1021.58
1027.11
1027.11
1027.11
1027.11
1027.11
1027.11
1027.11
1027.11
1023.45
823.338
845.363
812.422
831.707
841.354
821.44
846.243
836.576
856.962
856.286
1023
1027.11
1027.11
1027.11
1027.11
1027.11
1027.11
1027.11
1027.11
1023.33
836.437
817.638
816.83
839.812
827.246
821.609
837.66
823.785
854.239
842.952
1022.71
1027.11
1027.11
1027.11
1027.11
1027.11
1027.11
1027.11
1027.11
1023.8
861.775
872.649
839.44
824.284
851.667
824.174
825.201
838.449
850.828
858.356
1024.36
1027.11
1027.11
1027.11
1027.11
1027.11
1027.11
1027.11
1027.11
1025.83
861.709
838.213
814.222
832.276
850.3
854.847
836.614
845.554
844.884
905.625
1026.34
1027.11
1027.11
1027.11
1027.11
1027.11
1027.11
1027.11
1027.11
1027.1
1026.52
1026.45
1026.1
1026.18
1025.96
1026.28
1026.09
1026.4
1026.47
1026.72
1027.11
1027.11
1027.11
1027.11
1027.11
1027.11
1027.11
1027.11
1027.11
1027.11
1027.11
1027.11
1027.11
1027.11
1027.11
1027.11
1027.11
1027.11
1027.11
1027.11
1027.11
1027.11
1027.11
1027.11
1027.11
1027.11
1027.11
1027.11
1027.11
1027.11
1027.11
1027.11
1027.11
1027.11
1027.11
1027.11
1027.11
1027.11
1027.11
1027.11
1027.11
1027.11
1027.11
1027.11
1027.11
1027.11
1027.11
1027.11
1027.11
1027.11
1027.11
1027.11
1027.11
1027.11
1027.11
1027.11
1027.11
1027.11
1027.11
1027.11
1027.11
1027.11
1027.11
1027.11
1027.11
1027.11
1027.11
1027.11
1027.11
1027.11
1027.11
1027.11
1027.11
1027.11
1027.11
1027.11
1027.11
1027.11
1027.11
1027.11
1027.11
1027.11
1027.11
1027.11
1027.11
1027.11
1027.11
1027.11
1027.11
1027.11
1027.11
1027.11
1027.11
1027.11
1027.11
1027.11
1027.11
1027.11
1027.11
1027.11
1027.11
1027.11
1027.11
1027.11
1027.11
1027.11
1027.11
1027.11
1027.11
1027.11
1027.11
1027.11
1027.11
1027.11
1027.11
1027.11
1027.11
1027.11
1027.11
1027.11
1027.11
1027.11
1027.11
1027.11
1027.11
1027.11
1027.11
1027.11
1027.11
1027.11
1027.11
1027.11
1027.11
1027.11
1027.11
1027.11
1027.11
1027.11
1027.11
1027.11
1027.11
1027.11
1027.11
1027.11
1027.11
1027.11
1027.11
1027.11
1027.11
1027.11
1027.11
1027.11
1027.11
1027.11
1027.11
1027.11
1027.11
1027.11
1027.11
1027.11
1027.11
1027.11
1027.11
1027.11
1027.11
1027.11
1027.11
1027.11
1027.11
1027.11
1027.11
1027.11
1027.11
1027.11
1027.11
1027.11
1027.11
1027.11
1027.11
1027.11
1027.11
1027.11
1027.11
1027.11
1027.11
1027.11
1027.11
1027.11
1027.11
1027.11
1027.11
1027.11
1027.11
1027.11
1027.11
1027.11
1027.11
1027.11
1027.11
1027.11
1027.11
1027.11
1027.11
1027.11
1027.11
1027.11
1027.11
1027.11
1027.11
1027.11
1027.11
1027.11
1027.11
1027.11
1027.11
1027.11
1027.11
1027.11
1027.11
1027.11
1027.11
1027.11
1027.11
1027.11
1027.11
1025.38
1025.38
1024.9
1021.16
903.287
870.908
847.944
630.531
638.816
627.709
744.696
576.62
718.427
805.021
928.39
1009.41
1024.25
1025.08
1025.57
1025.56
1027.11
1027.11
1027.11
1025.77
806.543
905.131
905.622
925.699
909.707
910.473
939.397
621.296
557.934
565.994
695.292
992.849
1027.11
1027.11
1027.11
1027.11
1027.11
1027.11
1027.11
1027.1
1003.73
925.636
814.546
846.303
840.397
848.397
833.601
880.017
778.234
827.289
880.692
1021.95
1027.11
1027.11
1027.11