/*--------------------------------*- C++ -*----------------------------------*\
| =========                 |                                                 |
| \\      /  F ield         | OpenFOAM: The Open Source CFD Toolbox           |
|  \\    /   O peration     | Version:  2.3.0                                 |
|   \\  /    A nd           | Web:      www.OpenFOAM.org                      |
|    \\/     M anipulation  |                                                 |
\*---------------------------------------------------------------------------*/
FoamFile
{
    version     2.0;
    format      ascii;
    class       volVectorField;
    location    "4.30002";
    object      U;
}
// * * * * * * * * * * * * * * * * * * * * * * * * * * * * * * * * * * * * * //

dimensions      [0 1 -1 0 0 0 0];

internalField   nonuniform List<vector> 
10000
(
(-0.252515 -1.32742 -0.710767)
(0.0625888 -1.38042 -0.655956)
(0.152181 -0.894199 -0.567839)
(0.161919 -0.648066 -0.372594)
(0.222648 -0.399445 -0.203551)
(0.257113 -0.299483 -0.400408)
(0.243908 -0.213491 -0.337353)
(0.0686677 -0.137972 -0.371679)
(0.00776138 -0.126339 -0.326309)
(0.00117125 -0.116446 -0.335401)
(0.00876009 -0.107397 -0.338397)
(-0.0449371 -0.268442 -0.3344)
(-0.129349 -0.285184 -0.194306)
(-0.215303 -0.189751 -0.171318)
(-0.274953 -0.246928 -0.27134)
(-0.345481 -0.410352 -0.341856)
(-0.170891 -0.710972 -0.384221)
(-0.150655 -1.05956 -0.638693)
(-0.06249 -1.37102 -0.770335)
(0.288255 -1.42881 -0.778522)
(0.00685134 -1.53583 -0.172763)
(-0.00705768 -1.57011 -0.135702)
(0.0163906 -0.877453 -0.0371543)
(-0.0231091 -0.473381 0.00535816)
(0.00563109 -0.247554 -0.142589)
(0.0776318 -0.0277796 -1.00342)
(0.00541226 -0.0432178 -0.578382)
(-0.00339669 -0.0666882 -0.410582)
(0.00102261 -0.109018 -0.347329)
(-0.00135873 -0.0912275 -0.352228)
(0.0500418 -0.110284 -0.527807)
(0.0137992 -0.0660967 -0.47922)
(0.00231679 -0.111803 -0.18435)
(-0.0308975 -0.0800129 -0.241212)
(-0.0951396 -0.0923438 -0.425212)
(-0.16248 -0.171965 -0.427976)
(0.0135893 -0.544203 0.0199557)
(0.000919867 -1.17953 -0.102285)
(0.013631 -1.51963 -0.100602)
(-0.020501 -1.64642 -0.136444)
(0.00379917 -1.57059 -0.096231)
(-0.0247656 -1.58326 -0.10336)
(0.00855491 -0.896535 0.0060788)
(-0.00122712 -0.252584 0.0280203)
(0.000991264 -0.303675 -0.0885061)
(0.00338118 -0.132617 -0.198602)
(0.0018561 -0.10316 -0.245648)
(0.000632889 -0.10355 -0.231919)
(-0.000142889 -0.107246 -0.224533)
(0.000624934 -0.117966 -0.208426)
(3.87498e-05 -0.102912 -0.233966)
(0.00490238 -0.125318 -0.201226)
(0.00295321 -0.120805 -0.180541)
(0.00698862 -0.092215 -0.217316)
(-0.0099436 -0.147251 -0.191825)
(-0.017108 -0.345074 -0.0931883)
(0.00282982 -0.838738 -0.0166631)
(0.000213198 -1.25498 -0.0627926)
(0.00936617 -1.56131 -0.0348959)
(-0.0140621 -1.68467 -0.0576666)
(-0.00227325 -1.44032 -0.0142658)
(-0.0740819 -1.47827 -0.074492)
(-0.00847315 -0.998584 -0.0146149)
(0.00281808 -0.135673 0.0299352)
(0.000130411 -0.310906 -0.0866014)
(-0.00111886 -0.103875 -0.239437)
(0.00017562 -0.0849288 -0.29079)
(-0.000512501 -0.0924562 -0.264647)
(-0.00052468 -0.106046 -0.231468)
(-0.000169617 -0.109404 -0.222218)
(-3.7305e-05 -0.0987859 -0.244898)
(0.000506702 -0.102035 -0.239381)
(0.000162289 -0.0941109 -0.265265)
(-0.000721222 -0.0868282 -0.283812)
(0.00303519 -0.112876 -0.219084)
(-0.00370385 -0.333038 -0.08182)
(0.000325426 -0.796918 -0.0106568)
(-0.0208585 -1.25015 -0.00388783)
(0.00126958 -1.45744 0.017115)
(0.015753 -1.59777 -0.031718)
(-0.000786428 -1.30303 -0.00602384)
(-0.0757245 -1.39045 -0.0256877)
(-0.0112464 -1.11049 -0.143737)
(0.0087427 -0.261875 -0.00727248)
(0.0040592 -0.309057 -0.087757)
(-0.00183617 -0.110324 -0.224434)
(0.000181919 -0.0874939 -0.282387)
(-0.000298183 -0.0915086 -0.264024)
(-0.000440479 -0.105731 -0.230596)
(-2.51623e-05 -0.113817 -0.216347)
(4.60256e-05 -0.102992 -0.239638)
(0.000301869 -0.11085 -0.221073)
(0.000431226 -0.101934 -0.243293)
(1.86883e-05 -0.0876631 -0.279437)
(0.0041474 -0.129164 -0.187828)
(0.00137511 -0.286586 -0.098665)
(0.00648811 -0.735666 -0.0163789)
(-0.035147 -1.2465 -0.0058347)
(-0.0104588 -1.54659 0.0327477)
(0.0203277 -1.48342 -0.0233236)
(-0.00224743 -1.12721 -0.000924463)
(-0.0337586 -1.3114 -0.000820594)
(-0.0125231 -1.10559 -0.254315)
(0.0131372 -0.442309 -0.0315302)
(0.00776388 -0.294769 -0.0974012)
(-0.00018474 -0.106039 -0.23753)
(0.000714448 -0.0825915 -0.291178)
(-6.89288e-05 -0.0883483 -0.276567)
(-0.000380299 -0.105973 -0.232175)
(-0.00017465 -0.11156 -0.217043)
(0.000123429 -0.100682 -0.243227)
(0.000374751 -0.107888 -0.226722)
(6.46412e-05 -0.0946955 -0.256665)
(0.000403873 -0.0857684 -0.286763)
(0.000883864 -0.119382 -0.203089)
(0.00464041 -0.268123 -0.108038)
(0.00924678 -0.665888 -0.0231932)
(-0.0279306 -1.18153 0.00351411)
(-0.0089065 -1.77374 0.0286741)
(0.0262546 -1.36532 0.0237729)
(0.0126324 -1.05227 0.0172849)
(-0.00151872 -1.27208 -0.00193352)
(-0.0159214 -1.34101 -0.219308)
(0.0252848 -0.570523 -0.0239328)
(0.0098618 -0.27695 -0.0968033)
(0.00099306 -0.106405 -0.234506)
(0.0008112 -0.0849976 -0.29378)
(8.5086e-05 -0.0879113 -0.280814)
(-0.000334862 -0.102837 -0.232636)
(-0.000358299 -0.114033 -0.213898)
(0.000158165 -0.101966 -0.235513)
(0.000335708 -0.10702 -0.223582)
(-9.82526e-05 -0.0944583 -0.257101)
(0.00012585 -0.0852628 -0.285704)
(-0.00101177 -0.119891 -0.206411)
(0.00309436 -0.261695 -0.10178)
(-0.00149992 -0.636435 -0.0252412)
(-0.0182314 -1.23516 0.00893379)
(-0.0018155 -2.01279 0.00824664)
(0.0443575 -1.46015 0.032144)
(0.0302556 -1.03906 0.0178196)
(0.0226418 -1.21748 -0.00595182)
(-0.00999958 -1.41375 -0.0697756)
(0.0146484 -0.541784 0.00335733)
(0.00446828 -0.221984 -0.0894052)
(0.00318337 -0.100898 -0.229794)
(0.000544132 -0.081315 -0.289045)
(0.000336601 -0.0822559 -0.274623)
(-0.000303709 -0.101608 -0.22435)
(6.7646e-05 -0.110928 -0.201293)
(8.77805e-05 -0.102037 -0.2243)
(-9.55489e-07 -0.10504 -0.216492)
(-0.000263906 -0.0926752 -0.253604)
(-0.000201672 -0.0855394 -0.275292)
(-0.00150976 -0.113358 -0.204196)
(0.000407337 -0.237494 -0.0842423)
(-0.00819185 -0.609607 -0.00886517)
(0.000803023 -1.32165 0.00849923)
(0.00274116 -2.09338 -0.0472092)
(0.0253274 -1.72667 0.0091345)
(0.0172129 -1.13857 0.00987647)
(0.0238715 -1.07976 0.0106391)
(-0.00200303 -1.31468 0.00311962)
(-7.19195e-05 -0.507563 0.00672108)
(-0.0042892 -0.162828 -0.0368558)
(-9.62947e-06 -0.0729932 -0.184787)
(0.000534036 -0.0635445 -0.217416)
(0.000123317 -0.0608887 -0.222473)
(-0.0011438 -0.0715152 -0.172124)
(0.00106356 -0.0800192 -0.142357)
(-0.000268325 -0.0742356 -0.160328)
(-0.00122833 -0.0742624 -0.162519)
(6.80077e-05 -0.0674121 -0.190839)
(-0.000628965 -0.0646022 -0.212199)
(0.00104489 -0.0830203 -0.154144)
(0.00647906 -0.175254 -0.041259)
(-0.0160959 -0.517932 0.00256179)
(0.00576503 -1.48549 0.004705)
(0.00415113 -2.104 -0.0525158)
(0.0180773 -1.84295 -0.0242658)
(-0.0239227 -1.30207 0.00779381)
(0.0136453 -1.05625 0.0203113)
(0.0041287 -1.40674 0.00129564)
(0.00169996 -0.618119 -0.00530884)
(0.00318036 -0.0604556 0.010828)
(0.000506882 -0.0260739 0.00414157)
(0.000344157 -0.0231237 0.00438197)
(3.56142e-05 -0.0145677 0.00431075)
(9.96508e-05 -0.0274328 0.00502426)
(5.91155e-06 -0.0303545 0.00587298)
(-8.57552e-05 -0.0208794 0.00540349)
(-0.000116834 -0.028861 0.00513395)
(-0.000230823 -0.0265761 0.00434099)
(-0.00053072 -0.0272894 0.00376165)
(-0.00046106 -0.0443589 0.00398711)
(0.00144354 -0.0790176 0.00797783)
(-0.0170818 -0.524439 0.00311864)
(-0.00458044 -1.52446 -0.0157851)
(0.00111557 -2.11076 -0.0414467)
(0.011005 -1.83055 -0.0492644)
(-0.0215649 -1.44435 -0.0120479)
(-0.0113941 -1.13843 0.00954026)
(0.00532293 -1.45983 -0.00725502)
(0.00948001 -0.640439 -0.011927)
(0.00373331 -0.111687 -0.00299484)
(-0.000221343 -0.04427 -0.00178859)
(-2.17543e-06 -0.0319613 -0.00184495)
(-3.81047e-05 -0.0297204 -0.00133293)
(-8.94496e-05 -0.0356264 -0.00251112)
(8.22361e-05 -0.0373863 -0.0025861)
(-2.57657e-05 -0.0353631 -0.00208852)
(-9.98486e-05 -0.0380201 -0.00296044)
(3.39076e-05 -0.0375514 -0.00294175)
(0.000169671 -0.040675 -0.002936)
(0.000731819 -0.0663901 -0.00338173)
(0.00116526 -0.146411 -0.00394416)
(-0.0113098 -0.545122 0.00435407)
(-0.00450724 -1.53513 -0.0251844)
(-0.000441427 -2.10877 -0.0394301)
(0.0117446 -1.78698 -0.0373045)
(0.0160581 -1.43585 -0.024914)
(-0.00622254 -1.28528 -0.00801898)
(0.00524611 -1.40055 -0.00978139)
(0.00870026 -0.632658 -0.0114126)
(-0.00165845 -0.116838 -0.00282344)
(-0.000700541 -0.049652 -0.00209289)
(-0.00016638 -0.0518829 -0.00494179)
(0.000448511 -0.0360671 -0.00198912)
(0.000437606 -0.0614385 -0.00319045)
(5.91431e-05 -0.0645879 -0.00315324)
(-1.94186e-05 -0.0501093 -0.00173966)
(-3.8635e-06 -0.0670882 -0.00342027)
(8.90421e-05 -0.0653264 -0.00319656)
(0.000346243 -0.0671544 -0.00296176)
(0.000489298 -0.0909705 -0.0017567)
(0.00280832 -0.147354 -0.00404365)
(-0.0100453 -0.552291 0.00196647)
(-0.00150863 -1.52786 -0.0451614)
(-0.000389775 -2.10654 -0.0397851)
(0.0112835 -1.76697 -0.031935)
(0.0310986 -1.37531 -0.0317808)
(0.00947189 -1.26886 -0.0210121)
(0.000152729 -1.29863 -0.00930283)
(0.00219092 -0.642522 -0.00424441)
(-0.000437128 -0.134703 -0.00117145)
(-0.000128441 -0.0687507 -0.0014757)
(-0.000113452 -0.0771775 -0.00217885)
(0.000348076 -0.052557 -0.00148634)
(0.000574411 -0.0533228 0.000326413)
(-0.000198885 -0.0537719 0.000741667)
(-6.54073e-05 -0.0478219 -6.26976e-05)
(0.000246026 -0.0564278 0.000463143)
(6.02612e-05 -0.054881 0.000527971)
(0.000221034 -0.0551493 0.000664639)
(-0.000371462 -0.0620066 0.00242559)
(0.00116634 -0.154052 -0.000366518)
(-0.0100958 -0.539 0.00339396)
(0.000112712 -1.5281 -0.0517992)
(-0.000779432 -2.10447 -0.0326248)
(0.00883609 -1.72804 -0.0306606)
(0.0156824 -1.34283 -0.0296856)
(0.0065792 -1.18048 -0.0175885)
(-0.000895653 -1.24282 -0.00120392)
(0.00942022 -0.600952 0.000757063)
(-0.00129036 -0.115122 0.000669269)
(0.000289913 -0.0549847 0.000692652)
(-2.05323e-06 -0.0602727 0.00107044)
(-0.000233519 -0.0464016 0.000247364)
(-3.89082e-05 -0.0504087 0.0013141)
(-4.15257e-05 -0.0496706 0.00150912)
(-4.93361e-05 -0.0448617 0.000933935)
(8.84972e-05 -0.0537726 0.00137657)
(1.86716e-05 -0.0520746 0.0013822)
(-4.95644e-05 -0.0521448 0.00136285)
(-0.000287947 -0.0586987 0.00149143)
(-0.00184757 -0.108667 0.00211301)
(-0.00513196 -0.506215 0.00868885)
(0.00219603 -1.53042 -0.0268525)
(-0.00196773 -2.10408 -0.0252164)
(0.010303 -1.69009 -0.0273571)
(-0.0078053 -1.27726 -0.00866034)
(-0.0135308 -1.04903 -0.00160828)
(0.000359904 -1.34312 0.00575305)
(0.0179592 -0.586543 0.00535675)
(0.00279008 -0.0968264 0.000704516)
(1.89151e-05 -0.0531455 0.000749669)
(9.00629e-05 -0.0559967 0.00180544)
(-0.000414727 -0.0436186 0.000910107)
(-0.000303988 -0.0441988 0.00120256)
(0.000385685 -0.0433489 0.00123707)
(0.000426812 -0.0395966 0.00110628)
(0.000107257 -0.0469218 0.00164872)
(-5.54831e-05 -0.0450743 0.00156289)
(-0.000539905 -0.0454746 0.00147103)
(-0.000387543 -0.0539341 0.000639397)
(0.000254034 -0.0996885 0.00164737)
(-0.00169724 -0.476139 0.00787725)
(0.00209603 -1.53285 -0.00396518)
(-0.00158129 -2.10498 -0.0233758)
(0.00788155 -1.66368 -0.0296552)
(-0.00888939 -1.16238 -0.00741818)
(-0.0125636 -0.996625 0.00423616)
(0.00350118 -1.51469 -0.0197963)
(0.0140998 -0.654453 -0.00225101)
(0.00383776 -0.0866382 0.00130444)
(8.64033e-05 -0.0478245 0.00108303)
(-5.00905e-06 -0.0488375 0.00161023)
(-0.000588933 -0.0385909 0.000891437)
(-0.000406909 -0.0467255 -0.000211537)
(0.000423984 -0.0453714 -0.000112759)
(0.000518137 -0.0351901 0.000784538)
(-0.000411546 -0.0417002 0.00113362)
(-0.000507671 -0.0403002 0.000780079)
(-0.000213663 -0.0413371 0.00064756)
(0.000576245 -0.0635965 -0.000121123)
(0.000461525 -0.0912473 0.00279448)
(0.00284275 -0.407646 0.0153259)
(0.00152849 -1.53583 -0.00224522)
(-0.00192038 -2.10429 -0.0198084)
(0.00939596 -1.61045 -0.0139476)
(-0.0142445 -0.948838 0.00930337)
(0.00746046 -0.921355 0.00376233)
(0.00267166 -1.52613 -0.0367453)
(-0.0053474 -0.605003 -0.0115591)
(-0.00635319 -0.0751121 0.00277513)
(-0.000686041 -0.0418617 0.00151797)
(-0.000159087 -0.0452082 0.000361313)
(0.000391351 -0.0357834 0.000341438)
(0.000638661 -0.0520979 -0.000507731)
(-0.000552979 -0.050043 -0.000407936)
(-0.00042849 -0.0317963 0.000526314)
(-0.000501718 -0.0378033 8.41967e-05)
(-0.000156984 -0.0432784 -0.00122333)
(0.000399413 -0.0457958 -0.00164897)
(0.000978344 -0.0628586 -0.00109929)
(0.00220242 -0.0821248 0.00165182)
(0.00586914 -0.305696 0.0267678)
(0.000987447 -1.54592 -0.00785812)
(-0.00256224 -2.10408 -0.0138168)
(-0.0057231 -1.56091 -0.0227229)
(-0.0156479 -0.821844 0.0119167)
(0.0110097 -0.733643 0.0105631)
(-0.00554353 -1.56305 -0.0196442)
(-0.0155462 -0.516048 0.0105701)
(-0.00162381 -0.0640114 0.00502181)
(-0.000480547 -0.0462463 -0.000574889)
(-0.000223182 -0.0534077 -0.00132793)
(0.000467114 -0.0402227 -0.00210253)
(0.000910637 -0.0458172 0.000646052)
(-0.000389222 -0.0435477 0.00110734)
(-0.000486565 -0.0329395 -0.000241768)
(-2.28625e-05 -0.045842 -0.00109743)
(0.000223576 -0.0574626 -0.00385725)
(0.000389627 -0.0632039 -0.00423967)
(0.000337436 -0.076501 -0.00283411)
(0.00523557 -0.108021 -0.000926073)
(0.00958506 -0.211428 0.033973)
(0.000617868 -1.55395 -0.0108694)
(-0.00933064 -2.10714 -0.01061)
(-0.0127575 -1.47026 0.00102807)
(-0.00412007 -0.629577 0.0096186)
(0.00465527 -0.491255 0.00846078)
(-0.00269915 -1.57777 -0.00852565)
(-0.0194887 -0.475289 0.0129689)
(0.006518 -0.0485642 0.00235209)
(-0.000175914 -0.0550868 -0.00579673)
(-0.000199183 -0.0753637 -0.00892512)
(-0.000281631 -0.0654724 -0.00943298)
(1.31865e-05 -0.0521601 -0.00358494)
(0.000171767 -0.0438777 -0.00156006)
(6.83557e-05 -0.0379301 -0.00289113)
(0.000323803 -0.0613582 -0.00736267)
(0.000276283 -0.0977228 -0.011428)
(0.000308869 -0.105323 -0.0116595)
(0.000515296 -0.114027 -0.0106461)
(-0.0016846 -0.149601 -0.00637323)
(0.0108552 -0.145357 0.0186664)
(-0.000607338 -1.56063 -0.00614898)
(-0.00689678 -2.11621 -0.00521509)
(-0.0111411 -1.4501 0.0112901)
(-0.00357968 -0.218061 0.0122197)
(0.00441908 -0.286209 0.00533581)
(0.000309269 -1.58187 -0.00168562)
(-0.00417504 -0.655951 -0.0070366)
(-0.00494161 -0.0766379 -0.00195695)
(0.000930762 -0.104979 -0.00399263)
(-2.01359e-05 -0.175658 -0.00820974)
(-0.000319719 -0.156775 -0.00763788)
(-0.000547752 -0.100535 -0.00435577)
(-0.000337238 -0.0736501 -0.00260453)
(0.00065625 -0.0657537 -0.00242561)
(0.000951477 -0.142152 -0.00693911)
(0.000396686 -0.222519 -0.009378)
(0.000121429 -0.23539 -0.00954881)
(0.000378339 -0.236073 -0.0092759)
(-0.00353723 -0.243428 -0.00562296)
(0.00573921 -0.107009 0.000943147)
(-0.000432538 -1.56258 -0.00143178)
(-0.000389822 -2.11659 -0.00145508)
(-0.00355676 -1.65644 -0.00602957)
(-0.266921 -1.31312 -0.62857)
(0.0689013 -1.35927 -0.564767)
(0.159929 -0.893438 -0.503683)
(0.17034 -0.650478 -0.331843)
(0.237486 -0.401382 -0.181287)
(0.26441 -0.301126 -0.386036)
(0.253897 -0.208943 -0.315341)
(0.0668092 -0.134533 -0.34081)
(0.00852893 -0.12298 -0.313578)
(0.00201014 -0.11287 -0.327056)
(0.00654447 -0.10717 -0.326138)
(-0.0467053 -0.267977 -0.317128)
(-0.127211 -0.286408 -0.172053)
(-0.211387 -0.183305 -0.151653)
(-0.277018 -0.238173 -0.249292)
(-0.354072 -0.40987 -0.323719)
(-0.18316 -0.717112 -0.339702)
(-0.161388 -1.04728 -0.563006)
(-0.0669598 -1.36219 -0.682102)
(0.306359 -1.41487 -0.690079)
(0.00494627 -1.52463 -0.163195)
(-0.00151132 -1.54946 -0.127666)
(0.0155062 -0.890135 -0.0279266)
(-0.0198288 -0.545059 -0.00842069)
(0.00744418 -0.233466 -0.152269)
(0.0770121 -0.0247049 -1.01082)
(0.00473172 -0.0400097 -0.579586)
(-0.00336356 -0.0662291 -0.412273)
(0.000991936 -0.103979 -0.348633)
(-0.00134848 -0.0860484 -0.354856)
(0.0502375 -0.105517 -0.528955)
(0.0196511 -0.0584262 -0.485278)
(0.00351993 -0.098592 -0.1876)
(-0.0447601 -0.0697896 -0.239975)
(-0.104475 -0.08308 -0.422739)
(-0.1731 -0.156005 -0.436206)
(0.00964537 -0.642953 0.0194172)
(8.8326e-05 -1.17146 -0.0945093)
(0.0143818 -1.51955 -0.092474)
(-0.0178535 -1.63659 -0.126112)
(0.00206998 -1.57333 -0.0997212)
(-0.0188746 -1.58267 -0.107804)
(0.00639495 -0.949432 0.00864469)
(-3.34749e-05 -0.362835 0.0155991)
(0.00280622 -0.292586 -0.086264)
(0.00359905 -0.128449 -0.194964)
(0.00188903 -0.0977582 -0.243434)
(0.000691592 -0.0975724 -0.23049)
(-0.00019866 -0.10045 -0.22468)
(0.000607989 -0.110976 -0.207522)
(1.72135e-05 -0.0965696 -0.234734)
(0.00366105 -0.118144 -0.199295)
(0.00420139 -0.114746 -0.180193)
(0.00700983 -0.0844915 -0.21649)
(-0.00982606 -0.135971 -0.189382)
(-0.0174131 -0.335723 -0.0876936)
(0.00106729 -0.838566 -0.010628)
(0.0042744 -1.26108 -0.0613097)
(0.00980092 -1.57695 -0.0232232)
(-0.0168584 -1.69049 -0.0587027)
(-0.00392024 -1.45898 -0.0215563)
(-0.0729947 -1.50019 -0.0819063)
(-0.0080609 -1.00534 -0.0155238)
(0.00613262 -0.259748 0.0282959)
(0.00118531 -0.30212 -0.0860832)
(-0.00120043 -0.0967459 -0.240617)
(0.000223434 -0.0792625 -0.291606)
(-0.000519078 -0.0864525 -0.265199)
(-0.000525868 -0.0992483 -0.23156)
(-0.000177306 -0.102195 -0.222447)
(-4.27942e-05 -0.0922965 -0.244933)
(0.000491707 -0.0951112 -0.240092)
(0.00013709 -0.0874398 -0.266479)
(-0.000786948 -0.0810549 -0.284167)
(0.00318837 -0.104062 -0.219824)
(-0.00256155 -0.320595 -0.0841247)
(0.000304954 -0.796699 -0.0137445)
(-0.0206561 -1.26123 -0.00330437)
(0.0016474 -1.51529 0.0255561)
(0.0114064 -1.61667 -0.0391059)
(-0.000420251 -1.32068 -0.00320434)
(-0.0784763 -1.41329 -0.0320385)
(-0.00957278 -1.08656 -0.143253)
(0.00925405 -0.318681 0.0037671)
(0.00434423 -0.301631 -0.0879252)
(-0.00167151 -0.103185 -0.224113)
(0.000242556 -0.081927 -0.282577)
(-0.00028206 -0.0856116 -0.264187)
(-0.000438923 -0.0988863 -0.230613)
(-2.29892e-05 -0.10662 -0.216264)
(4.44517e-05 -0.0964166 -0.239557)
(0.000304131 -0.103833 -0.220806)
(0.000430007 -0.0955325 -0.243237)
(1.91875e-05 -0.0819482 -0.279671)
(0.00439013 -0.120871 -0.187549)
(0.000311793 -0.276688 -0.10147)
(0.00772066 -0.739457 -0.0200586)
(-0.0339478 -1.26376 0.00304408)
(-0.0107651 -1.6197 0.0390984)
(0.0199012 -1.50859 -0.0189184)
(-0.00116353 -1.16937 -0.000302805)
(-0.0360244 -1.32769 -0.00492429)
(-0.0120282 -1.08009 -0.247583)
(0.0150915 -0.460564 -0.0209001)
(0.00799506 -0.286898 -0.0982006)
(0.000486887 -0.0989756 -0.237333)
(0.000760446 -0.0771477 -0.291302)
(-4.22099e-05 -0.0825424 -0.276692)
(-0.00037479 -0.0992043 -0.232312)
(-0.000171651 -0.10433 -0.217062)
(0.000122116 -0.0941785 -0.243305)
(0.000366355 -0.100925 -0.226907)
(5.41868e-05 -0.0884704 -0.257027)
(0.000376243 -0.080187 -0.286922)
(0.00070155 -0.111535 -0.203789)
(0.00361286 -0.258529 -0.109411)
(0.0115309 -0.671216 -0.025228)
(-0.0295183 -1.2248 0.0113016)
(-0.00975282 -1.83803 0.0267874)
(0.0273204 -1.43518 0.0305668)
(0.0139548 -1.10377 0.0148534)
(-0.00188448 -1.28424 -0.0039228)
(-0.0163165 -1.32526 -0.206451)
(0.0293448 -0.584529 -0.0182368)
(0.0100108 -0.270731 -0.0988384)
(0.00163028 -0.0991007 -0.23425)
(0.000831087 -0.0794546 -0.293803)
(0.000114905 -0.0822154 -0.281065)
(-0.000324417 -0.0960804 -0.232839)
(-0.000362256 -0.106554 -0.213968)
(0.000160749 -0.0952356 -0.235495)
(0.000336406 -0.100023 -0.223721)
(-9.00929e-05 -0.088291 -0.2572)
(5.63312e-05 -0.0796756 -0.28568)
(-0.000851473 -0.111871 -0.20692)
(0.00200246 -0.254706 -0.103005)
(-0.00100046 -0.640648 -0.0259973)
(-0.0193696 -1.27651 0.0116747)
(-0.00251485 -2.02947 -0.00574862)
(0.0459986 -1.54332 0.035422)
(0.031409 -1.0921 0.0199024)
(0.0232799 -1.23584 -0.00159099)
(-0.0115577 -1.43063 -0.0591088)
(0.0168187 -0.592807 0.00273342)
(0.00474192 -0.216429 -0.0936022)
(0.00328462 -0.0939967 -0.231483)
(0.000501309 -0.0757341 -0.290129)
(0.000337489 -0.0765593 -0.276101)
(-0.000275188 -0.0947455 -0.226154)
(2.86156e-05 -0.103612 -0.203268)
(9.57705e-05 -0.0951565 -0.225928)
(2.18476e-05 -0.097993 -0.218367)
(-0.000258748 -0.0864211 -0.255161)
(-0.000245935 -0.0797588 -0.276446)
(-0.00127923 -0.106151 -0.206237)
(-0.000333938 -0.231777 -0.0874615)
(-0.0085618 -0.620685 -0.0102105)
(0.0012492 -1.36051 0.00560874)
(0.00299413 -2.09524 -0.0510812)
(0.0263144 -1.78968 0.00425812)
(0.0158993 -1.18948 0.0135428)
(0.0251216 -1.13251 0.0125936)
(-0.00230728 -1.37582 0.00362902)
(0.000552051 -0.552909 0.00734832)
(-0.00344551 -0.16105 -0.0430472)
(-0.000394409 -0.0668746 -0.187549)
(0.000476361 -0.0581441 -0.219259)
(0.00012027 -0.0555742 -0.22476)
(-0.00112622 -0.0658341 -0.17461)
(0.0010753 -0.074322 -0.145036)
(-0.000267515 -0.0682725 -0.163115)
(-0.00124246 -0.0686185 -0.165033)
(6.45948e-05 -0.0619046 -0.193005)
(-0.000611997 -0.0591614 -0.214015)
(0.00109011 -0.076483 -0.15661)
(0.00597159 -0.172872 -0.0463639)
(-0.0179561 -0.572164 0.00202192)
(0.00392758 -1.48746 -0.00244575)
(0.00505057 -2.10966 -0.0518903)
(0.021409 -1.86413 -0.0403429)
(-0.0264866 -1.37141 0.00442418)
(0.0140753 -1.11799 0.0184304)
(0.00516869 -1.41591 -0.000220077)
(0.00239859 -0.622425 -0.00246046)
(0.00451909 -0.0893091 0.00874249)
(0.000637871 -0.0291275 0.00334342)
(0.000352918 -0.0274844 0.00347029)
(2.34728e-05 -0.0178698 0.00338273)
(7.29352e-05 -0.0310604 0.00395749)
(-4.44798e-06 -0.0336085 0.00458617)
(-7.19335e-05 -0.0232257 0.00421871)
(-9.38812e-05 -0.0323605 0.00405504)
(-0.00020681 -0.0304765 0.00347884)
(-0.000535743 -0.0316552 0.00307418)
(-0.000553157 -0.049492 0.00341521)
(0.00244334 -0.107002 0.00770981)
(-0.0170133 -0.56693 0.00542895)
(-0.00641793 -1.52628 -0.0140833)
(0.000478832 -2.11478 -0.0421583)
(0.0101688 -1.84168 -0.051145)
(-0.023254 -1.46516 -0.0165697)
(-0.0120679 -1.19627 0.00703596)
(0.00828748 -1.46787 -0.00917501)
(0.0093287 -0.641506 -0.0112685)
(0.00353679 -0.102497 -0.000852561)
(-0.000229117 -0.0407058 -0.000997883)
(-3.98821e-06 -0.0294241 -0.00106033)
(-3.51219e-05 -0.0273621 -0.000741152)
(-8.28573e-05 -0.0327717 -0.00155954)
(7.66133e-05 -0.034383 -0.00162521)
(-2.31113e-05 -0.0325097 -0.00124665)
(-9.21091e-05 -0.0349577 -0.00186872)
(3.21999e-05 -0.0345299 -0.00183771)
(0.000160886 -0.0373907 -0.00180297)
(0.000697746 -0.0608505 -0.00199493)
(0.00159989 -0.128948 -0.000866648)
(-0.0110176 -0.578942 0.0063053)
(-0.0064816 -1.537 -0.0259808)
(-0.000589913 -2.11297 -0.0402894)
(0.0122872 -1.80021 -0.0401477)
(0.0159739 -1.45071 -0.0261901)
(-0.00587406 -1.30025 -0.0105537)
(0.00683367 -1.41331 -0.0156862)
(0.00775199 -0.63338 -0.0110515)
(-0.00139525 -0.106609 -0.00154496)
(-0.00065077 -0.0455632 -0.00131827)
(-0.000155649 -0.0488332 -0.00351305)
(0.000414133 -0.0331269 -0.00126749)
(0.000407675 -0.0578918 -0.00239025)
(5.87106e-05 -0.060834 -0.00238743)
(-1.85962e-05 -0.0460538 -0.00119221)
(-7.92609e-06 -0.0631955 -0.00259629)
(8.29757e-05 -0.061546 -0.00242442)
(0.000313111 -0.0632648 -0.00228494)
(0.000427746 -0.0857429 -0.0017456)
(0.00323684 -0.134264 -0.00312954)
(-0.00924746 -0.581202 0.00236635)
(-0.00140092 -1.52878 -0.045999)
(0.000370609 -2.11014 -0.0404814)
(0.0112441 -1.78 -0.0344752)
(0.0293784 -1.39678 -0.0341451)
(0.0101368 -1.28472 -0.0233655)
(0.000328343 -1.3245 -0.00390493)
(0.000292905 -0.644905 -0.00217105)
(-0.000572408 -0.121945 -0.000734609)
(-0.000126451 -0.0631272 -0.0010961)
(-0.000101587 -0.0726664 -0.00167921)
(0.000317083 -0.048297 -0.00100443)
(0.000551234 -0.0557717 0.000105779)
(-0.000200924 -0.056638 0.000420348)
(-6.80596e-05 -0.0488018 -0.000127597)
(0.000247966 -0.0599502 0.000134546)
(6.26788e-05 -0.0578492 0.000221737)
(0.000194724 -0.0582509 0.000322166)
(-0.000438352 -0.0701507 0.00140162)
(0.00159668 -0.142415 -0.00102123)
(-0.00931883 -0.565679 0.0020685)
(-0.000309814 -1.52938 -0.0524775)
(0.000580445 -2.10688 -0.0330617)
(0.00916741 -1.74171 -0.0337373)
(0.0151755 -1.36782 -0.0329142)
(0.00650408 -1.19861 -0.0152821)
(-0.0012985 -1.2929 0.00472888)
(0.00840666 -0.638797 0.00169745)
(-0.00218534 -0.122614 -0.000297064)
(0.000328699 -0.0594477 0.000194543)
(7.8209e-06 -0.0660929 0.000495988)
(-0.000229734 -0.0477491 4.50999e-05)
(-5.65963e-05 -0.0522764 0.00101617)
(-4.07313e-05 -0.0514268 0.00117806)
(-5.21803e-05 -0.0459712 0.000679414)
(8.86358e-05 -0.0566636 0.00104786)
(2.11245e-05 -0.0544103 0.00105954)
(-4.7562e-05 -0.0544499 0.00105289)
(-0.000326535 -0.0628704 0.00128032)
(-0.00221292 -0.126229 0.000425061)
(-0.00470894 -0.537152 0.00624773)
(0.00244619 -1.53116 -0.0269491)
(-0.00180935 -2.10658 -0.0254484)
(0.0100477 -1.70434 -0.0301024)
(-0.00819236 -1.2989 -0.0147827)
(-0.0140023 -1.09133 -0.00158277)
(0.00082606 -1.40195 0.00258484)
(0.0184579 -0.618018 0.00472227)
(0.00313507 -0.10999 0.000397626)
(1.22727e-05 -0.0567172 0.000569538)
(9.42134e-05 -0.059941 0.00142591)
(-0.000426053 -0.0443963 0.000656557)
(-0.000319121 -0.0446434 0.000868123)
(0.000396273 -0.043703 0.000888536)
(0.000433235 -0.0397234 0.000797001)
(0.000106762 -0.048231 0.00127941)
(-5.10132e-05 -0.0459229 0.00122643)
(-0.000541476 -0.0463322 0.00116037)
(-0.000402294 -0.0558348 0.000562632)
(3.42205e-05 -0.11581 0.000965702)
(-0.00163212 -0.507715 0.00411581)
(0.00253632 -1.534 -0.00359128)
(-0.00154482 -2.10745 -0.0234163)
(0.00753108 -1.67896 -0.0327588)
(-0.00970403 -1.19071 -0.0108177)
(-0.0122928 -1.04537 -0.00215716)
(0.00653752 -1.5147 -0.0279098)
(0.0134784 -0.65327 -0.00407593)
(0.00420045 -0.0896405 0.000987019)
(9.79073e-05 -0.0496911 0.000824846)
(1.11635e-06 -0.0503765 0.00129939)
(-0.000571317 -0.038417 0.000658116)
(-0.000388908 -0.0440915 -0.000110137)
(0.000404323 -0.0428184 -4.69608e-05)
(0.000501472 -0.0346489 0.000571)
(-0.000420064 -0.0419836 0.000908523)
(-0.000505713 -0.0401899 0.000545211)
(-0.000189254 -0.0412301 0.000453552)
(0.000552805 -0.0600298 1.89726e-05)
(4.27631e-05 -0.107078 0.00195309)
(0.00302892 -0.447268 0.00900044)
(0.00211808 -1.53566 -0.00154794)
(-0.00118547 -2.10665 -0.0198703)
(0.00839307 -1.62629 -0.0177245)
(-0.0152936 -1.02174 0.00262071)
(0.00897142 -0.981092 -0.00742425)
(0.00538301 -1.5286 -0.0338264)
(-0.00527184 -0.605501 -0.0122038)
(-0.00735187 -0.0778638 0.00164762)
(-0.000645966 -0.0420809 0.00106311)
(-0.000142939 -0.0454965 0.000294789)
(0.000409887 -0.0350178 0.0002264)
(0.000612666 -0.0491574 -0.000340872)
(-0.00053364 -0.0472318 -0.000277155)
(-0.00043699 -0.0308984 0.000320097)
(-0.000463307 -0.0373887 5.98547e-05)
(-0.000147031 -0.0408244 -0.000845059)
(0.000382298 -0.0431791 -0.00113293)
(0.000921102 -0.0592045 -0.000722394)
(0.00183808 -0.0905413 0.00164435)
(0.00659467 -0.355766 0.0193809)
(0.00169691 -1.54261 -0.00662244)
(-0.00140074 -2.10667 -0.0129439)
(-0.00703729 -1.58334 -0.0142073)
(-0.0176739 -0.921158 -0.00283494)
(0.0126351 -0.832593 -0.00756577)
(-0.003143 -1.56101 -0.0156558)
(-0.0159288 -0.543594 0.00842833)
(-0.00158077 -0.0692382 0.00296706)
(-0.000415495 -0.0423963 -0.000281784)
(-0.000208476 -0.0502469 -0.000495239)
(0.000428013 -0.0369247 -0.00128932)
(0.000865704 -0.046256 0.000678241)
(-0.000387003 -0.0439678 0.000959411)
(-0.000447818 -0.0303043 -0.000150015)
(-4.03925e-07 -0.0431756 -0.000487563)
(0.00022643 -0.0539353 -0.0020878)
(0.000362486 -0.0592717 -0.00227628)
(0.000318989 -0.0717155 -0.00124804)
(0.0045324 -0.10107 0.00106796)
(0.0113852 -0.266688 0.028007)
(0.00138262 -1.54692 -0.00926221)
(-0.0107645 -2.10882 -0.00899038)
(-0.0127763 -1.53103 0.00129402)
(-0.00612312 -0.788308 -0.0128601)
(0.00629116 -0.666737 -0.0115376)
(-0.00237582 -1.57268 -0.00642384)
(-0.0217304 -0.544951 0.0101013)
(0.00733414 -0.0489442 0.00181844)
(-0.000126419 -0.0503474 -0.00360468)
(-0.000167997 -0.0681313 -0.00488598)
(-0.000280102 -0.0594114 -0.00562003)
(-7.73059e-06 -0.0477714 -0.00194931)
(0.000154209 -0.0402947 -0.000710937)
(8.18537e-05 -0.0348017 -0.00183213)
(0.000330328 -0.0558417 -0.00419877)
(0.000276196 -0.087326 -0.00597373)
(0.000284144 -0.0938208 -0.00597054)
(0.000465355 -0.101472 -0.0052292)
(-0.00180438 -0.132573 -0.00190998)
(0.0144816 -0.225033 0.014349)
(-0.000303792 -1.55184 -0.00507232)
(-0.0103197 -2.11527 -0.00422035)
(-0.00789369 -1.57278 -0.00158464)
(-0.00626307 -0.618704 -0.0112428)
(0.00538255 -0.581811 -0.00590569)
(0.000623457 -1.57575 -0.00124335)
(-0.00269455 -0.655328 -0.000942511)
(-0.00459273 -0.0704797 -0.0012396)
(0.000847428 -0.0952337 -0.00230737)
(-2.82962e-05 -0.149505 -0.00391346)
(-0.000268334 -0.135541 -0.0037995)
(-0.00048257 -0.0913517 -0.00253937)
(-0.00030639 -0.0674124 -0.00158722)
(0.000588935 -0.0602542 -0.0014976)
(0.000825278 -0.125431 -0.00364067)
(0.000355948 -0.180139 -0.00393116)
(0.000109079 -0.188814 -0.00389587)
(0.00034705 -0.189734 -0.0038172)
(-0.00418407 -0.197526 -0.00179155)
(0.0090309 -0.232513 -0.00108448)
(-0.000410685 -1.55278 -0.00107631)
(-0.000727299 -2.11516 -0.00136356)
(0.000229562 -1.68554 -0.00515107)
(-0.283808 -1.29557 -0.552972)
(0.0741554 -1.33732 -0.49372)
(0.165929 -0.893568 -0.457209)
(0.179264 -0.651927 -0.299126)
(0.254061 -0.403974 -0.166082)
(0.268321 -0.301687 -0.380387)
(0.257349 -0.205211 -0.307958)
(0.0667017 -0.131582 -0.330773)
(0.00865761 -0.12188 -0.306119)
(0.00268409 -0.110973 -0.321995)
(0.00517044 -0.108018 -0.320193)
(-0.0490337 -0.266796 -0.305046)
(-0.127268 -0.286958 -0.160657)
(-0.210075 -0.177061 -0.145386)
(-0.276762 -0.229455 -0.240464)
(-0.362283 -0.408492 -0.309831)
(-0.193858 -0.718385 -0.307131)
(-0.172262 -1.03462 -0.501843)
(-0.0705472 -1.35452 -0.612685)
(0.32723 -1.39874 -0.609717)
(0.00394487 -1.51178 -0.154516)
(0.0025158 -1.52991 -0.120491)
(0.0137837 -0.911317 -0.0296074)
(-0.0126994 -0.582184 -0.0146064)
(0.00809083 -0.226374 -0.155436)
(0.0766544 -0.0234161 -1.01349)
(0.00429121 -0.0386968 -0.57979)
(-0.0032434 -0.066351 -0.413221)
(0.000925417 -0.101628 -0.349098)
(-0.00126012 -0.0835445 -0.355603)
(0.0481139 -0.102377 -0.529993)
(0.0235159 -0.054902 -0.486639)
(0.00451163 -0.0880556 -0.190008)
(-0.0580433 -0.0607288 -0.238798)
(-0.136094 -0.072021 -0.424228)
(-0.179259 -0.14914 -0.440769)
(0.00709031 -0.706661 0.0184193)
(-0.000848038 -1.16302 -0.0872068)
(0.0158126 -1.52411 -0.0852284)
(-0.0146367 -1.6278 -0.115677)
(-0.00220544 -1.57865 -0.100075)
(-0.0144914 -1.57815 -0.10862)
(0.00531093 -0.996003 0.0116312)
(0.000203784 -0.4692 0.00785727)
(0.00421151 -0.284532 -0.0849853)
(0.00355273 -0.125625 -0.193816)
(0.00189897 -0.0951118 -0.242892)