/*--------------------------------*- C++ -*----------------------------------*\
| =========                 |                                                 |
| \\      /  F ield         | OpenFOAM: The Open Source CFD Toolbox           |
|  \\    /   O peration     | Version:  2.3.0                                 |
|   \\  /    A nd           | Web:      www.OpenFOAM.org                      |
|    \\/     M anipulation  |                                                 |
\*---------------------------------------------------------------------------*/
FoamFile
{
    version     2.0;
    format      ascii;
    class       surfaceScalarField;
    location    "1.44";
    object      phi.particles;
}
// * * * * * * * * * * * * * * * * * * * * * * * * * * * * * * * * * * * * * //

dimensions      [0 3 -1 0 0 0 0];

internalField   nonuniform List<scalar> 
11770
(
6.45071e-07
-2.38243e-05
3.22237e-07
-2.75197e-05
-6.72336e-07
-2.78994e-05
6.02112e-08
-2.51816e-05
2.37133e-06
-2.10877e-05
4.77518e-06
-1.91936e-05
3.05874e-06
-1.83239e-05
-4.46943e-06
-3.10065e-05
-8.6029e-06
-3.33698e-05
-8.22723e-06
-2.56798e-05
-7.6249e-06
-2.10214e-05
-7.67289e-06
-2.07456e-05
-9.92342e-06
-2.4846e-05
-1.35226e-05
-2.63882e-05
-1.60568e-05
-2.52952e-05
-1.6139e-05
-2.28968e-05
-1.42252e-05
-2.05593e-05
-1.10458e-05
-2.06965e-05
-8.38258e-06
-2.34308e-05
-7.26805e-06
-2.63734e-05
-9.8063e-06
-2.78489e-05
-1.43626e-05
-2.73125e-05
-1.40021e-05
-2.19022e-05
-8.80902e-06
-1.85128e-05
-1.63647e-06
-1.70792e-05
5.25679e-06
-1.53525e-05
9.92848e-06
-1.27471e-05
9.3718e-06
-1.00946e-05
5.58424e-06
-1.24637e-05
-1.25053e-05
1.64156e-06
-1.19811e-05
3.5781e-06
-1.39783e-05
6.01574e-06
-1.39892e-05
7.67974e-06
-1.20075e-05
8.14875e-06
-9.85057e-06
7.33444e-06
-5.99361e-06
5.73159e-06
-1.92344e-06
1.90054e-06
-1.1571e-05
-4.33252e-06
-1.30092e-05
-8.91231e-06
-4.91299e-06
-1.19842e-05
6.25508e-07
-1.45843e-05
1.11202e-06
-1.70148e-05
-4.30033e-06
-1.82278e-05
-8.43136e-06
-1.92138e-05
-8.75651e-06
-1.96024e-05
-8.07246e-06
-1.9728e-05
-8.439e-06
-1.94615e-05
-9.84313e-06
-1.8586e-05
-1.21595e-05
-1.67567e-05
-1.43874e-05
-1.46665e-05
-1.51809e-05
-1.02714e-05
-1.52366e-05
-1.22876e-06
-1.4357e-05
5.56211e-06
-1.6496e-05
7.70834e-06
-1.62231e-05
1.03657e-05
-1.47579e-05
1.40796e-05
-1.09668e-05
1.53695e-05
-1.66765e-06
8.44691e-06
8.73054e-06
8.63205e-06
2.35093e-06
-1.39106e-05
6.09988e-06
-1.6128e-05
8.32892e-06
-1.6287e-05
1.02078e-05
-1.50589e-05
1.0034e-05
-1.22105e-05
8.16664e-06
-8.33278e-06
6.54727e-06
-5.29372e-06
4.53403e-06
-6.67562e-06
-6.32491e-07
-8.66535e-06
-8.30715e-06
-6.58335e-06
-1.46464e-05
-3.50304e-06
-1.89165e-05
-3.37654e-06
-2.06013e-05
-7.16279e-06
-1.98887e-05
-9.9145e-06
-1.93924e-05
-1.08401e-05
-1.93903e-05
-1.11811e-05
-1.91162e-05
-1.20114e-05
-1.7766e-05
-1.33802e-05
-1.41139e-05
-1.4823e-05
-9.42052e-06
-1.56525e-05
-4.74836e-06
-1.54185e-05
2.47849e-06
-1.49739e-05
1.17257e-05
-1.57702e-05
1.85358e-05
-1.71079e-05
2.088e-05
-1.68702e-05
2.00374e-05
-1.50511e-05
1.922e-05
-1.12021e-05
1.86099e-05
-5.19636e-06
1.23892e-05
9.82038e-06
1.37708e-05
4.16021e-06
-1.39914e-05
7.42445e-06
-1.44828e-05
9.92081e-06
-1.30077e-05
1.26795e-05
-9.83937e-06
1.42173e-05
-6.29114e-06
1.12597e-05
-3.77462e-06
6.99477e-06
-1.30198e-06
4.9052e-06
-3.68543e-06
1.59858e-07
-5.49743e-06
-9.61422e-06
-3.57688e-06
-1.83657e-05
-1.4743e-06
-2.3676e-05
-1.62658e-06
-2.4078e-05
-4.70141e-06
-2.35364e-05
-6.36916e-06
-2.29817e-05
-7.14369e-06
-2.17355e-05
-7.96124e-06
-1.87887e-05
-1.01546e-05
-1.43749e-05
-1.29295e-05
-8.31785e-06
-1.6267e-05
-1.7377e-06
-1.8031e-05
4.36412e-06
-1.75293e-05
1.1306e-05
-1.65314e-05
1.86162e-05
-1.62208e-05
2.49644e-05
-1.51182e-05
2.90816e-05
-1.3173e-05
3.01717e-05
-9.94768e-06
2.82632e-05
-5.47621e-06
2.41931e-05
-1.20858e-06
1.5974e-05
1.26117e-05
1.98489e-05
2.8034e-06
-1.06553e-05
4.04654e-06
-1.04008e-05
6.30185e-06
-8.73622e-06
8.99308e-06
-5.3358e-06
1.04166e-05
-1.37773e-06
8.58197e-06
7.44455e-07
5.2843e-06
1.47735e-06
3.88034e-06
-1.29629e-06
-4.97054e-07
-2.05074e-06
-1.09987e-05
1.11775e-06
-2.18006e-05
3.40769e-06
-2.70059e-05
2.75686e-06
-2.76764e-05
-3.22187e-07
-2.74161e-05
-2.05224e-06
-2.59595e-05
-3.48677e-06
-2.24833e-05
-6.77892e-06
-1.71745e-05
-1.1622e-05
-1.07444e-05
-1.48478e-05
-4.14644e-06
-1.86861e-05
1.8289e-06
-2.03041e-05
7.67127e-06
-1.96804e-05
1.40209e-05
-1.81499e-05
2.06873e-05
-1.62348e-05
2.71177e-05
-1.35641e-05
3.18167e-05
-9.57513e-06
3.383e-05
-4.74654e-06
3.27849e-05
4.0222e-07
2.93945e-05
4.53987e-06
1.99392e-05
1.69853e-05
2.71897e-05
1.09953e-06
-4.63994e-06
1.12144e-06
-4.16002e-06
1.82934e-06
-2.19162e-06
3.37397e-06
1.1617e-08
4.55482e-06
1.8198e-06
4.38526e-06
3.31879e-06
3.30372e-06
4.36421e-06
2.41306e-06
2.29225e-06
-2.16848e-06
2.49088e-06
-1.26852e-05
6.25981e-06
-2.39382e-05
9.8574e-06
-2.87603e-05
8.80877e-06
-2.9224e-05
4.29564e-06
-2.82151e-05
1.36383e-06
-2.54493e-05
-9.89647e-07
-1.97355e-05
-7.22457e-06
-1.28529e-05
-1.32082e-05
-6.233e-06
-1.74531e-05
-1.12354e-06
-2.07577e-05
3.25969e-06
-2.18274e-05
7.97925e-06
-2.11056e-05
1.39753e-05
-1.8934e-05
2.07587e-05
-1.58232e-05
2.708e-05
-1.17854e-05
3.17686e-05
-6.09522e-06
3.43937e-05
5.32705e-08
3.36375e-05
5.85018e-06
3.04754e-05
1.07639e-05
2.07476e-05
2.34872e-05
3.48952e-05
3.50178e-06
-2.54227e-07
4.81425e-06
1.16991e-06
5.40886e-06
4.08266e-06
5.6151e-06
6.50406e-06
5.64875e-06
6.89552e-06
3.70085e-06
6.14297e-06
1.64062e-06
7.76107e-06
1.22635e-06
7.19352e-06
-3.35086e-06
7.77067e-06
-1.27632e-05
1.21408e-05
-2.27242e-05
1.65214e-05
-2.77882e-05
1.52837e-05
-2.83032e-05
9.63002e-06
-2.58404e-05
4.66075e-06
-2.05956e-05
-6.48767e-07
-1.44231e-05
-8.58844e-06
-9.42916e-06
-1.49711e-05
-4.73293e-06
-2.02508e-05
-7.93925e-07
-2.34652e-05
3.04346e-06
-2.46475e-05
7.47701e-06
-2.40783e-05
1.32066e-05
-2.16359e-05
1.9433e-05
-1.7473e-05
2.49556e-05
-1.19413e-05
2.93577e-05
-4.86714e-06
3.20284e-05
2.77541e-06
3.17545e-05
9.77184e-06
2.75435e-05
1.52861e-05
1.78991e-05
2.85618e-05
4.03696e-05
4.67656e-06
2.58853e-06
6.04296e-06
5.06073e-06
6.44823e-06
8.38507e-06
5.93226e-06
1.12574e-05
4.7841e-06
1.21024e-05
2.74466e-07
1.05106e-05
-1.11101e-06
1.18244e-05
1.0437e-07
1.26549e-05
-4.89871e-06
1.4102e-05
-1.41344e-05
1.89268e-05
-2.3051e-05
2.29469e-05
-2.59077e-05
2.0991e-05
-2.58936e-05
1.45699e-05
-2.25024e-05
7.0021e-06
-1.70252e-05
-2.75743e-06
-1.27542e-05
-1.10992e-05
-8.44518e-06
-1.81186e-05
-4.50875e-06
-2.34574e-05
-8.22079e-07
-2.65651e-05
2.9359e-06
-2.7742e-05
7.22712e-06
-2.72617e-05
1.21938e-05
-2.46376e-05
1.71013e-05
-1.96803e-05
2.14577e-05
-1.30296e-05
2.49849e-05
-4.46832e-06
2.74327e-05
5.13585e-06
2.71909e-05
1.25466e-05
2.20017e-05
1.782e-05
1.46311e-05
3.2035e-05
4.5017e-05
5.32965e-06
3.28864e-06
6.54108e-06
6.88462e-06
6.40434e-06
1.07585e-05
5.31118e-06
1.43224e-05
3.13625e-06
1.64056e-05
-9.67455e-07
1.54957e-05
-2.02894e-06
1.59449e-05
-1.61616e-06
1.69216e-05
-6.25659e-06
2.13692e-05
-1.32038e-05
2.45834e-05
-2.01223e-05
2.92302e-05
-2.43598e-05
2.66327e-05
-2.33778e-05
1.8234e-05
-2.00827e-05
6.53681e-06
-1.61969e-05
-5.39438e-06
-1.21781e-05
-1.39886e-05
-8.3206e-06
-2.10722e-05
-4.75401e-06
-2.63949e-05
-1.43611e-06
-2.93475e-05
1.92931e-06
-3.03982e-05
5.68631e-06
-2.97049e-05
9.62136e-06
-2.66335e-05
1.31327e-05
-2.10109e-05
1.61519e-05
-1.34665e-05
1.85376e-05
-3.52235e-06
2.02731e-05
8.22721e-06
1.90055e-05
1.7492e-05
1.4543e-05
2.63021e-05
9.39313e-06
4.1153e-05
5.10456e-05
4.72232e-06
2.97519e-06
5.48745e-06
7.77655e-06
5.18334e-06
1.23034e-05
4.01595e-06
1.65988e-05
1.5505e-06
2.00476e-05
-2.26013e-06
2.07624e-05
-4.52952e-06
2.03283e-05
-3.4652e-06
1.9829e-05
-3.77641e-06
2.67976e-05
-9.87536e-06
2.9493e-05
-1.73316e-05
3.59575e-05
-2.21248e-05
3.19387e-05
-2.02234e-05
2.02625e-05
-1.70927e-05
4.7348e-06
-1.50696e-05
-7.43993e-06
-1.20387e-05
-1.64616e-05
-8.6345e-06
-2.35942e-05
-5.41941e-06
-2.88573e-05
-2.54209e-06
-3.16359e-05
1.72426e-07
-3.2405e-05
3.00369e-06
-3.12709e-05
5.60712e-06
-2.76797e-05
7.49437e-06
-2.15606e-05
8.4808e-06
-1.33326e-05
8.54306e-06
-1.84292e-06
6.88326e-06
1.31713e-05
3.38858e-06
2.92835e-05
9.66998e-07
4.22552e-05
-4.23227e-07
5.20873e-05
5.38742e-05
2.88806e-06
2.89759e-06
3.25265e-06
8.48549e-06
2.7143e-06
1.35972e-05
1.51797e-06
1.85366e-05
-6.13448e-07
2.29469e-05
-4.11898e-06
2.56086e-05
-6.10304e-06
2.47655e-05
-3.67602e-06
2.33953e-05
-1.01775e-06
2.96012e-05
-7.33963e-06
3.64385e-05
-1.68181e-05
4.29302e-05
-2.05828e-05
3.60653e-05
-1.82273e-05
2.06986e-05
-1.54143e-05
3.23833e-06
-1.34804e-05
-9.79918e-06
-1.13443e-05
-1.86888e-05
-8.82924e-06
-2.56508e-05
-6.23732e-06
-3.09285e-05
-4.02211e-06
-3.36635e-05
-2.13384e-06
-3.40768e-05
-4.51245e-07
-3.22952e-05
9.3094e-07
-2.83781e-05
1.50988e-06
-2.22598e-05
-2.46202e-07
-1.43557e-05
-5.83228e-06
-2.60331e-06
-1.43784e-05
1.67955e-05
-1.90295e-05
3.87972e-05
-1.4619e-05
5.10592e-05
-7.97007e-06
5.57479e-05
5.12987e-05
4.73265e-07
3.62432e-06
-1.76118e-08
9.52378e-06
-9.94699e-07
1.50073e-05
-2.36461e-06
2.03023e-05
-3.95617e-06
2.50239e-05
-7.04896e-06
2.88381e-05
-8.58911e-06
2.89724e-05
-4.64379e-06
2.70705e-05
-1.84364e-07
3.13505e-05
-7.51193e-06
4.61919e-05
-1.99889e-05
4.8607e-05
-2.15209e-05
3.82382e-05
-1.79751e-05
2.15032e-05
-1.51398e-05
2.15419e-06
-1.27572e-05
-1.23494e-05
-1.09024e-05
-2.11319e-05
-9.06603e-06
-2.80295e-05
-7.21726e-06
-3.33639e-05
-5.8258e-06
-3.59689e-05
-4.90886e-06
-3.58226e-05
-4.40819e-06
-3.33618e-05
-4.06521e-06
-2.91605e-05
-4.26944e-06
-2.32727e-05
-8.28302e-06
-1.55289e-05
-1.80727e-05
-6.94793e-06
-2.51667e-05
1.24418e-05
-2.75082e-05
3.55888e-05
-2.11185e-05
4.54168e-05
-1.03616e-05
4.73835e-05
3.8107e-05
-2.23593e-06
4.05478e-06
-4.09606e-06
1.05642e-05
-5.77354e-06
1.65904e-05
-7.48195e-06
2.19626e-05
-8.83815e-06
2.6471e-05
-1.05269e-05
3.0257e-05
-1.28111e-05
3.20265e-05
-8.03954e-06
2.95735e-05
-1.46151e-06
3.32756e-05
-8.32934e-06
5.56327e-05
-2.19818e-05
5.2898e-05
-2.23294e-05
3.89534e-05
-1.98738e-05
2.18918e-05
-1.64135e-05
2.03746e-06
-1.3522e-05
-1.41796e-05
-1.12406e-05
-2.35206e-05
-9.71371e-06
-3.07447e-05
-8.52295e-06
-3.61881e-05
-7.76932e-06
-3.84096e-05
-7.90065e-06
-3.77717e-05
-8.67641e-06
-3.44425e-05
-9.90389e-06
-3.04874e-05
-1.07472e-05
-2.49762e-05
-1.78442e-05
-1.88166e-05
-2.0655e-05
-1.07793e-05
-2.18279e-05
3.44418e-06
-2.4603e-05
2.18161e-05
-1.96475e-05
2.87695e-05
-9.28645e-06
2.72365e-05
1.65451e-05
-6.1856e-06
5.58554e-06
-9.26065e-06
1.19984e-05
-1.14987e-05
1.81773e-05
-1.33535e-05
2.33272e-05
-1.45397e-05
2.72379e-05
-1.52055e-05
3.05479e-05
-1.78438e-05
3.28618e-05
-1.24221e-05
3.11008e-05
-3.90432e-06
3.47898e-05
-7.3599e-06
6.06825e-05
-1.94982e-05
6.20934e-05
-2.09361e-05
3.97666e-05
-2.00329e-05
2.14403e-05
-1.74836e-05
2.26058e-06
-1.43282e-05
-1.45794e-05
-1.18772e-05
-2.53695e-05
-1.06605e-05
-3.35968e-05
-9.76394e-06
-3.91522e-05
-9.66502e-06
-4.14845e-05
-1.03786e-05
-4.02196e-05
-1.26789e-05
-3.68172e-05
-1.57831e-05
-3.33244e-05
-1.90704e-05
-3.04238e-05
-2.40353e-05
-3.28836e-05
-2.107e-05
-2.57755e-05
-1.64343e-05
-1.45633e-05
-1.54691e-05
1.67145e-06
-1.2668e-05
8.42924e-06
-7.05798e-06
4.8158e-06
-5.75091e-06
-1.529e-05
-4.49815e-06
-1.72164e-05
1.26303e-05
-1.84958e-05
1.89399e-05
-1.93091e-05
2.37994e-05
-1.96741e-05
2.70821e-05
-1.99828e-05
2.98701e-05
-2.12706e-05
3.21349e-05
-1.53927e-05
3.22983e-05
-5.62903e-06
3.55968e-05
-3.09636e-06
5.97531e-05
-1.08298e-05
7.5396e-05
-1.53818e-05
4.38511e-05
-1.62476e-05
2.13239e-05
-1.52862e-05
2.03099e-06
-1.37161e-05
-1.50053e-05
-1.24531e-05
-2.73903e-05
-1.15874e-05
-3.64755e-05
-1.1312e-05
-4.28232e-05
-1.12009e-05
-4.56422e-05
-1.24322e-05
-4.63075e-05
-1.50146e-05
-4.15789e-05
-2.05994e-05
-4.95224e-05
-2.33196e-05
-5.02566e-05
-2.38001e-05
-5.32315e-05
-2.07345e-05
-4.6796e-05
-1.7153e-05
-3.80764e-05
-1.43082e-05
-2.62845e-05
-1.0716e-05
-1.99896e-05
-5.95666e-06
-2.1898e-05
-3.06234e-05
-1.21806e-05
-2.15263e-05
-2.38722e-05
-6.0321e-06
-2.32545e-05
1.70009e-05
-2.26877e-05
2.24718e-05
-2.22408e-05
2.58374e-05
-2.2019e-05
2.85149e-05
-2.18169e-05
3.12917e-05
-1.59147e-05
3.32311e-05
-6.10524e-06
3.64474e-05
9.26186e-07
5.54334e-05
-2.16766e-06
7.86864e-05
-9.95001e-06
4.99227e-05
-1.23478e-05
2.09214e-05
-1.2943e-05
8.92175e-08
-1.33692e-05
-1.75007e-05
-1.32906e-05
-2.99931e-05
-1.3257e-05
-3.98134e-05
-1.33311e-05
-4.69448e-05
-1.39325e-05
-5.18192e-05
-1.61491e-05
-6.03628e-05
-1.64183e-05
-6.13594e-05
-1.61652e-05
-6.40248e-05
-1.6408e-05
-6.14081e-05
-1.74014e-05
-6.04542e-05
-1.66965e-05
-5.71904e-05
-1.42001e-05
-5.25121e-05
-1.03277e-05
-4.81704e-05
-6.09557e-06
-4.56587e-05
-2.31579e-06
-4.6501e-05
-4.94399e-05
3.28253e-06
-2.53635e-05
-8.43049e-06
-2.36217e-05
-2.16038e-05
-3.3115e-06
-2.1433e-05
1.6117e-05
-2.15151e-05
2.47456e-05
-2.11365e-05
2.74222e-05
-2.00748e-05
3.14089e-05
-1.52111e-05
3.36433e-05
-7.51192e-06
3.66021e-05
-8.75133e-07
5.11122e-05
-1.051e-06
7.07543e-05
-6.6173e-06
5.40541e-05
-9.94358e-06
1.88777e-05
-1.28413e-05
-4.03164e-06
-1.43777e-05
-2.10667e-05
-1.54792e-05
-3.32048e-05
-1.67432e-05
-4.3202e-05
-1.89468e-05
-5.49138e-05
-2.10418e-05
-6.262e-05
-2.12174e-05
-6.57771e-05
-1.85906e-05
-6.54485e-05
-1.58318e-05
-6.13438e-05
-1.3666e-05
-5.77853e-05
-1.2798e-05
-5.70507e-05
-1.1856e-05
-5.6587e-05
-9.56831e-06
-5.53294e-05
-6.47836e-06
-5.37772e-05
-2.93343e-06
-5.31692e-05
1.48838e-07
-5.37542e-05
-5.43273e-05
6.31524e-06
-2.20278e-05
8.22577e-06
-2.1727e-05
-1.01273e-07
-1.84409e-05
-1.27994e-05
-4.22695e-06
-1.61069e-05
1.00713e-05
-1.64578e-05
1.95276e-05
-1.71592e-05
2.99889e-05
-1.51146e-05
3.38542e-05
-1.11128e-05
3.48655e-05
-7.75683e-06
4.59377e-05
-5.27319e-06
6.11685e-05
-5.46794e-06
4.99203e-05
-9.0954e-06
1.15819e-05
-1.44702e-05
-1.06363e-05
-1.79481e-05
-2.67976e-05
-1.94967e-05
-3.72106e-05
-2.40005e-05
-5.1963e-05
-2.62138e-05
-5.87736e-05
-2.59452e-05
-6.18075e-05
-2.44838e-05
-6.28699e-05
-2.08332e-05
-6.20474e-05
-1.71181e-05
-5.76485e-05
-1.3788e-05
-5.35845e-05
-1.15375e-05
-5.22353e-05
-1.04409e-05
-5.24014e-05
-8.89407e-06
-5.30198e-05
-6.31741e-06
-5.33176e-05
-3.39321e-06
-5.34306e-05
-1.23918e-08
-5.40299e-05
-5.38168e-05
6.17547e-06
-1.75543e-05
9.53706e-06
-1.65658e-05
1.24096e-05
-1.41959e-05
1.10225e-05
-1.23444e-05
4.32817e-06
-7.89765e-06
-4.74542e-06
-9.33425e-08
-1.2259e-05
1.39151e-05
-1.55218e-05
2.61002e-05
-1.54463e-05
2.81887e-05
-1.54931e-05
3.44357e-05
-1.13383e-05
4.35664e-05
-1.00387e-05
2.78243e-05
-1.42877e-05
2.98169e-07
-2.00934e-05
-1.77463e-05
-2.32344e-05
-3.23315e-05
-2.73099e-05
-4.33882e-05
-2.84504e-05
-5.27674e-05
-2.8178e-05
-5.66534e-05
-2.67901e-05
-5.89547e-05
-2.50035e-05
-6.00329e-05
-2.20962e-05
-5.90742e-05
-1.93696e-05
-5.41846e-05
-1.65484e-05
-5.03912e-05
-1.38061e-05
-4.89498e-05
-1.12366e-05
-4.92124e-05
-8.40266e-06
-4.96828e-05
-6.23784e-06
-5.04698e-05
-4.14253e-06
-5.10423e-05
-3.44275e-07
-5.17484e-05
-5.18712e-05
5.00618e-06
-1.1896e-05
7.69547e-06
-1.06243e-05
1.01046e-05
-9.12359e-06
1.12555e-05
-8.59845e-06
1.07934e-05
-8.46629e-06
8.23581e-06
-9.1065e-06
3.11664e-07
-5.3693e-06
-9.31885e-06
6.43222e-06
-1.46603e-05
1.43198e-05
-1.92767e-05
1.99253e-05
-1.94455e-05
2.33466e-05
-1.88487e-05
1.11431e-05
-2.07098e-05
-3.13737e-06
-2.62304e-05
-2.09415e-05
-2.89484e-05
-3.56396e-05
-2.85186e-05
-4.29939e-05
-2.8603e-05
-5.10307e-05
-2.84052e-05
-5.51639e-05
-2.77171e-05
-5.72332e-05
-2.63876e-05
-5.78837e-05
-2.40932e-05
-5.66672e-05
-2.15018e-05
-5.13466e-05
-1.8132e-05
-4.72685e-05
-1.47488e-05
-4.58343e-05
-1.28162e-05
-4.65417e-05
-1.04979e-05
-4.71223e-05
-7.22489e-06
-4.79234e-05
-4.37655e-06
-4.8701e-05
-5.69875e-07
-4.92564e-05
-5.01545e-05
3.78452e-06
-6.58729e-06
5.81885e-06
-5.24351e-06
6.9306e-06
-4.28647e-06
6.89566e-06
-4.70331e-06
6.69643e-06
-5.10917e-06
7.96583e-06
-6.52353e-06
9.3285e-06
-1.0635e-05
4.96406e-06
-7.64963e-06
-8.35639e-06
1.93344e-06
-1.77964e-05
1.69525e-05
-1.91138e-05
1.89337e-05
-1.83303e-05
1.29739e-05
-2.01942e-05
-3.47728e-07
-2.65724e-05
-1.83604e-05
-2.84577e-05
-3.31966e-05
-2.74313e-05
-4.12985e-05
-2.76398e-05
-4.97458e-05
-2.74517e-05
-5.39221e-05
-2.70304e-05
-5.58854e-05
-2.65416e-05
-5.63237e-05
-2.60117e-05
-5.43679e-05
-2.48912e-05
-4.85871e-05
-2.16706e-05
-4.50453e-05
-1.74537e-05
-4.37842e-05
-1.39268e-05
-4.42488e-05
-1.0533e-05
-4.50728e-05
-7.28465e-06
-4.60169e-05
-4.42446e-06
-4.67281e-05
-1.48765e-07
-4.68092e-05
-4.8029e-05
2.88997e-06
-2.81918e-06
3.9558e-06
-1.2866e-06
3.93401e-06
-1.56033e-07
3.0742e-06
-6.62308e-07
2.44076e-06
-1.5879e-06
4.6237e-06
-2.89722e-06
9.52115e-06
-8.5375e-06
1.01328e-05
-9.31692e-06
-6.61154e-07
-1.56073e-06
-1.26389e-05
1.86799e-05
-1.61742e-05
2.23437e-05
-1.60658e-05
1.89061e-05
-1.87482e-05
3.75685e-06
-2.53868e-05
-1.52368e-05
-2.76757e-05
-3.05273e-05
-2.65385e-05
-3.94362e-05
-2.72743e-05
-4.83381e-05
-2.78262e-05
-5.26758e-05
-2.76305e-05
-5.47468e-05
-2.77142e-05
-5.51437e-05
-2.79424e-05
-5.23392e-05
-2.67236e-05
-4.61741e-05
-2.32383e-05
-4.30639e-05
-1.91032e-05
-4.19098e-05
-1.5733e-05
-4.23772e-05
-1.23628e-05
-4.29217e-05
-8.4561e-06
-4.37532e-05
-4.93058e-06
-4.42846e-05
1.38935e-07
-4.41044e-05
-4.54743e-05
2.12617e-06
-7.59858e-07
2.46773e-06
1.30582e-06
1.61182e-06
3.28516e-06
-1.06387e-07
3.4123e-06
-1.35903e-06
2.04715e-06
6.15203e-07
-5.72299e-08
7.52564e-06
-4.73618e-06
1.16189e-05
-7.9283e-06
5.92564e-06
-9.41412e-07
-6.71238e-06
1.88766e-05
-1.381e-05
2.54533e-05
-1.38522e-05
2.31318e-05
-1.754e-05
7.47627e-06
-2.48791e-05
-1.21137e-05
-2.70943e-05
-2.77587e-05
-2.51671e-05
-3.72773e-05
-2.53568e-05
-4.70101e-05
-2.59089e-05
-5.19828e-05
-2.60045e-05
-5.40443e-05
-2.68577e-05
-5.42656e-05
-2.85951e-05
-5.03006e-05
-2.88667e-05
-4.39723e-05
-2.55356e-05
-4.06918e-05
-2.05146e-05
-3.96121e-05
-1.61424e-05
-4.08296e-05
-1.21505e-05
-4.06777e-05
-8.05084e-06
-4.14835e-05
-4.67314e-06
-4.18e-05
6.46881e-07
-4.11008e-05
-4.20905e-05
1.18149e-06
5.5437e-07
1.1498e-06
3.17039e-06
-6.19427e-08
6.29353e-06
-2.67287e-06
7.75021e-06
-4.92693e-06
5.78697e-06
-3.17907e-06
2.62897e-06
5.05188e-06
-1.43347e-06
1.16145e-05
-6.27971e-06
9.74259e-06
5.01204e-07
-2.48604e-06
1.86012e-05
-1.17991e-05
2.67881e-05
-1.25221e-05
2.50523e-05
-1.70293e-05
1.00636e-05
-2.49631e-05
-8.97896e-06
-2.68829e-05
-2.45162e-05
-2.44643e-05
-3.50761e-05
-2.42247e-05
-4.53134e-05
-2.47077e-05
-5.09242e-05
-2.52555e-05
-5.30443e-05
-2.70443e-05
-5.30855e-05
-2.93859e-05
-4.79642e-05
-2.92014e-05
-4.18186e-05
-2.5376e-05
-3.84214e-05
-2.09184e-05
-3.77661e-05
-1.71001e-05
-3.85728e-05
-1.26141e-05
-3.83038e-05
-8.2728e-06
-3.84941e-05
-4.79188e-06
-3.84667e-05
8.51503e-07
-3.73126e-05
-3.7485e-05
-3.06885e-07
1.68266e-06
-1.05543e-06
4.92291e-06
-2.31493e-06
8.93484e-06
-5.29072e-06
1.23333e-05
-8.53145e-06
1.0458e-05
-6.43437e-06
6.2296e-06
1.058e-06
2.78624e-06
8.71321e-06
-3.98491e-06
1.07136e-05
2.82032e-06
1.73088e-06
1.9777e-05
-8.59507e-06
2.80024e-05
-1.19531e-05
2.60288e-05
-1.66937e-05
1.26329e-05
-2.48799e-05
-4.43321e-06
-2.62751e-05
-2.07995e-05
-2.36851e-05
-3.35093e-05
-2.31543e-05
-4.29476e-05
-2.28471e-05
-4.91722e-05
-2.36688e-05
-5.1454e-05
-2.64002e-05
-5.13305e-05
-2.93843e-05
-4.55497e-05
-2.86119e-05
-4.01104e-05
-2.49814e-05
-3.70774e-05
-2.09208e-05
-3.63782e-05
-1.6577e-05
-3.5533e-05
-1.24298e-05
-3.52802e-05
-8.04708e-06
-3.50543e-05
-4.16266e-06
-3.46717e-05
1.06586e-06
-3.31412e-05
-3.23955e-05
-2.81104e-06
2.31516e-06
-5.16118e-06
6.35981e-06
-6.56027e-06
1.13297e-05
-8.76388e-06
1.59608e-05
-1.23294e-05
1.70998e-05
-1.03648e-05
1.37305e-05
-3.17322e-06
1.24522e-05
6.38365e-06
4.78923e-06
1.11226e-05
9.92114e-06
4.93086e-06
2.45525e-05
-5.95689e-06
3.12283e-05
-1.14003e-05
2.83687e-05
-1.59271e-05
1.69968e-05
-2.47938e-05
9.23102e-07
-2.60952e-05
-1.76101e-05
-2.33591e-05
-3.14701e-05
-2.29273e-05
-4.07171e-05
-2.19025e-05
-4.67938e-05
-2.2504e-05
-4.90488e-05
-2.52449e-05
-4.86805e-05
-2.73417e-05
-4.34257e-05
-2.57526e-05
-3.8535e-05
-2.3296e-05
-3.63466e-05
-2.02284e-05
-3.45205e-05
-1.63101e-05
-3.29038e-05
-1.20243e-05
-3.21368e-05
-7.52778e-06
-3.1471e-05
-3.94944e-06
-3.0531e-05
1.14473e-06
-2.8356e-05
-2.65833e-05
-5.89096e-06
2.55137e-06
-1.07599e-05
6.92677e-06
-1.37072e-05
1.27783e-05
-1.48468e-05
1.79728e-05
-1.9816e-05
2.18321e-05
-2.01536e-05
2.42667e-05
-9.53198e-06
2.98525e-05
3.74751e-06
2.77246e-05
8.13719e-06
2.74925e-05
3.92235e-06
3.5283e-05
-5.26285e-06
3.88163e-05
-1.13588e-05
3.58094e-05
-1.75295e-05
2.58151e-05
-2.57448e-05
5.87207e-06
-2.65809e-05
-1.43053e-05
-2.36741e-05
-2.85772e-05
-2.23351e-05
-3.86114e-05
-2.12591e-05
-4.40219e-05
-2.19026e-05
-4.59562e-05
-2.42245e-05
-4.50217e-05
-2.48198e-05
-4.08149e-05
-2.32949e-05
-3.66127e-05
-2.17608e-05
-3.48564e-05
-1.87304e-05
-3.21609e-05
-1.49599e-05
-3.05439e-05
-1.10756e-05
-2.89898e-05
-6.8138e-06
-2.75754e-05
-3.31127e-06
-2.5989e-05
1.46586e-06
-2.33061e-05
-2.00289e-05
-9.79333e-06
2.30031e-07
-1.74767e-05
6.39124e-06
-2.21538e-05
1.60838e-05
-2.44288e-05
1.78798e-05
-2.95214e-05
2.03503e-05
-3.50928e-05
2.63969e-05
-2.56122e-05
4.06659e-05
-1.1545e-05
4.41398e-05
-4.4491e-06
3.98126e-05
-1.89006e-06
4.46056e-05
-3.02623e-06
4.76673e-05
-5.7501e-06
4.58754e-05
-1.75073e-05
3.54306e-05
-2.7019e-05
9.85167e-06
-2.66845e-05
-1.05743e-05
-2.42821e-05
-2.63891e-05
-2.19031e-05
-3.67566e-05
-2.01769e-05
-4.18994e-05
-2.05298e-05
-4.34528e-05
-2.31631e-05
-4.11149e-05
-2.30551e-05
-3.74684e-05
-2.11135e-05
-3.44104e-05
-1.9075e-05
-3.2516e-05
-1.63825e-05
-3.03744e-05
-1.32741e-05
-2.81587e-05
-9.33384e-06
-2.60637e-05
-5.3767e-06
-2.40627e-05
-2.07258e-06
-2.16404e-05
2.34379e-06
-1.81329e-05
-1.30132e-05
-1.3056e-05
-3.48953e-05
-2.45107e-05
-2.70891e-05
-3.09158e-05
-8.15298e-06
-3.35109e-05
8.30398e-06
-3.71999e-05
8.45812e-06
-4.28345e-05
1.05971e-05
-3.38707e-05
2.72336e-05
-2.0126e-05
2.98144e-05
-1.12523e-05
2.88014e-05
-5.49824e-06
4.33072e-05
-6.91298e-07
5.02452e-05
-1.96508e-06
4.95743e-05
-1.44479e-05
4.17294e-05
-1.87574e-05
1.33998e-05
-2.03065e-05
-8.11984e-06
-2.05829e-05
-2.44097e-05
-1.99746e-05
-3.50745e-05
-1.89934e-05
-4.04742e-05
-1.96989e-05
-4.19585e-05
-2.21727e-05
-3.775e-05
-2.12639e-05
-3.38955e-05
-1.84459e-05
-3.19755e-05
-1.64832e-05
-3.0225e-05
-1.38387e-05
-2.82227e-05
-1.0552e-05
-2.58356e-05
-7.0476e-06
-2.35381e-05
-3.28671e-06
-2.13032e-05
-2.92361e-08
-1.80842e-05
2.9514e-06
-1.34594e-05
-7.71304e-06
-8.7025e-07
-6.25962e-05
-6.10234e-06
-5.44496e-05
-1.73091e-05
-4.68937e-05
-2.60879e-05
-3.15532e-05
-3.17547e-05
-2.75396e-05
-3.70668e-05
-2.05223e-05
-3.35688e-05
-6.31587e-06
-2.53572e-05
-4.08299e-06
-1.7378e-05
-7.04686e-07
-9.02368e-06
2.06963e-05
-1.52353e-06
3.42264e-05
4.081e-06
3.48145e-05
-2.99652e-07
3.57736e-05
-7.60943e-06
1.51406e-05
-1.25913e-05
-9.0637e-06
-1.61644e-05
-2.58118e-05
-1.80488e-05
-3.57677e-05
-1.82059e-05
-4.0208e-05
-2.04335e-05
-4.129e-05
-2.23835e-05
-3.57207e-05
-1.99269e-05
-3.14346e-05
-1.68316e-05
-3.00232e-05
-1.40136e-05
-2.82446e-05
-1.10815e-05
-2.61734e-05
-7.7932e-06
-2.40617e-05
-4.0029e-06
-2.19677e-05
-6.89523e-07
-1.945e-05
1.18771e-06
-1.61147e-05
1.51484e-06
-1.10635e-05
-4.8938e-06
-5.77992e-07
-6.03585e-05
-3.98916e-07
-5.29168e-05
-1.49308e-06
-5.44895e-05
-5.07965e-06
-5.34512e-05
-1.05765e-05
-5.02029e-05
-1.65531e-05
-4.34102e-05
-1.84465e-05
-3.51225e-05
-1.84863e-05
-3.2321e-05
-1.87822e-05
-2.89634e-05
-1.45969e-05
-1.52835e-05
-7.02364e-06
-2.44009e-06
2.92926e-07
-1.09243e-06
4.17382e-06
2.45395e-06
-1.38633e-07
-5.61708e-06
-7.38675e-06
-2.29949e-05
-1.33097e-05
-3.03586e-05
-1.68463e-05
-3.93521e-05
-1.81684e-05
-4.1945e-05
-2.14438e-05
-4.14468e-05
-2.12751e-05
-3.43595e-05
-1.74905e-05
-3.10409e-05
-1.43329e-05
-2.89785e-05
-1.12189e-05
-2.68992e-05
-7.76809e-06
-2.51294e-05
-4.27968e-06
-2.30898e-05
-1.60081e-06
-2.14449e-05
-7.95761e-08
-1.86499e-05
4.91922e-07
-1.48553e-05
4.90719e-07
-1.0127e-05
-4.22398e-06
-1.62523e-06
-5.70935e-05
-7.6363e-07
-4.9221e-05
-1.14481e-06
-5.0801e-05
-3.22382e-06
-5.00925e-05
-6.04467e-06
-4.87372e-05
-8.27426e-06
-4.50584e-05
-9.09432e-06
-4.25395e-05
-1.00503e-05
-4.18438e-05
-1.21631e-05
-4.17281e-05
-1.31236e-05
-3.82472e-05
-1.08118e-05
-3.22745e-05
-7.16998e-06
-3.12405e-05
-4.03519e-06
-3.18017e-05
-2.08844e-06
-3.50696e-05
-5.3494e-06
-4.88261e-05
-1.33725e-05
-4.9329e-05
-1.67931e-05
-4.48787e-05
-1.76632e-05
-4.39725e-05
-1.99314e-05
-4.08393e-05
-1.75776e-05
-3.43628e-05
-1.42945e-05
-3.10724e-05
-1.10456e-05
-2.85451e-05
-7.58282e-06
-2.65034e-05
-4.5088e-06
-2.48555e-05
-2.38635e-06
-2.32501e-05
-1.1048e-06
-2.10703e-05
-5.0061e-07
-1.81568e-05
-2.90048e-07
-1.45837e-05
-3.99614e-07
-1.0358e-05
-4.59256e-06
-2.37653e-06
-5.39697e-05
-1.34981e-06
-4.65845e-05
-9.295e-07
-4.68398e-05
-2.69769e-06
-4.67651e-05
-5.18847e-06
-4.6092e-05
-6.87685e-06
-4.25223e-05
-7.53906e-06
-4.04051e-05
-8.26568e-06
-4.06758e-05
-8.91051e-06
-4.19125e-05
-9.28398e-06
-4.17942e-05
-9.01244e-06
-3.95052e-05
-7.88884e-06
-3.90493e-05
-5.5441e-06
-4.11174e-05
3.57417e-07
-4.50363e-05
4.3288e-06
-5.2891e-05
-5.11404e-06
-6.21796e-05
-1.63669e-05
-5.80502e-05
-1.74149e-05
-4.89373e-05
-1.59653e-05
-4.10522e-05
-1.32415e-05
-3.5196e-05
-1.039e-05
-3.13193e-05
-7.5159e-06
-2.89896e-05
-5.0734e-06
-2.70181e-05
-3.28958e-06
-2.51743e-05
-2.07212e-06
-2.33038e-05
-1.31773e-06
-2.10125e-05
-1.03427e-06
-1.82229e-05
-1.0271e-06
-1.48801e-05
-7.57491e-07
-1.06015e-05
-4.84385e-06
-2.31716e-06
-5.1083e-05
-1.42731e-06
-4.51707e-05
-1.0585e-06
-4.27909e-05
-2.57135e-06
-4.35454e-05
-4.93762e-06
-4.35101e-05
-6.86004e-06
-4.0274e-05
-7.68094e-06
-3.77817e-05
-8.04666e-06
-3.80107e-05
-8.10658e-06
-3.92514e-05
-7.96658e-06
-3.88919e-05
-7.67145e-06
-3.78618e-05
-6.2205e-06
-3.83732e-05
-3.21006e-06
-4.04545e-05
3.6236e-06
-4.51891e-05
1.00203e-05
-4.8815e-05
2.15821e-06
-6.04235e-05
-1.05871e-05
-6.05966e-05
-1.3483e-05
-5.05548e-05
-1.17325e-05
-4.22887e-05
-9.85545e-06
-3.62141e-05
-7.76162e-06
-3.23262e-05
-5.75842e-06
-2.96178e-05
-4.16538e-06
-2.75204e-05
-2.97285e-06
-2.55898e-05
-2.10845e-06
-2.35665e-05
-1.58363e-06
-2.12604e-05
-1.37239e-06
-1.8564e-05
-1.27728e-06
-1.54321e-05
-9.04272e-07
-1.1075e-05
-4.8987e-06
-2.13416e-06
-4.82481e-05
-1.53709e-06
-4.40814e-05
-9.5369e-07
-3.93421e-05
-2.1586e-06
-4.05317e-05
-4.28372e-06
-4.12028e-05
-6.52877e-06
-3.76243e-05
-7.63842e-06
-3.48629e-05
-7.92985e-06
-3.52007e-05
-7.8172e-06
-3.66306e-05
-7.45924e-06
-3.6496e-05
-6.36222e-06
-3.64409e-05
-4.06248e-06
-3.82687e-05
-1.14836e-06
-4.05789e-05
5.4985e-06
-4.39533e-05
1.20691e-05
-4.58246e-05
4.24057e-06
-5.81084e-05
-7.51442e-06
-5.80654e-05
-9.89637e-06
-5.00419e-05
-9.30181e-06
-4.29125e-05
-8.01779e-06
-3.69502e-05
-6.38567e-06
-3.29925e-05
-4.82156e-06
-3.03406e-05
-3.63221e-06
-2.81696e-05
-2.74726e-06
-2.60922e-05
-2.08081e-06
-2.39912e-05
-1.65215e-06
-2.16846e-05
-1.38291e-06
-1.91207e-05
-1.12978e-06
-1.58646e-05
-6.12202e-07
-1.09667e-05
-4.88744e-06
-2.25125e-06
-4.49751e-05
-1.5368e-06
-4.28242e-05
-6.0516e-07
-3.63268e-05
-2.00014e-06
-3.73713e-05
-4.65096e-06
-3.88861e-05
-7.08306e-06
-3.48824e-05
-8.28467e-06
-3.14572e-05
-8.55846e-06
-3.18288e-05
-8.14934e-06
-3.37812e-05
-7.2116e-06
-3.48149e-05
-5.45271e-06
-3.62128e-05
-3.08533e-06
-3.94804e-05
-8.49019e-08
-4.26081e-05
6.53926e-06
-4.29404e-05
1.34907e-05
-4.53433e-05
6.27919e-06
-5.71021e-05
-5.1015e-06
-5.61753e-05
-6.73232e-06
-4.96023e-05
-6.78145e-06
-4.31351e-05
-5.99372e-06
-3.70388e-05
-4.69925e-06
-3.35385e-05
-3.64035e-06
-3.10508e-05
-2.87571e-06
-2.87702e-05
-2.29763e-06
-2.66345e-05
-1.8015e-06
-2.4497e-05
-1.3907e-06
-2.22335e-05
-1.14925e-06
-1.95494e-05
-7.78452e-07
-1.55705e-05
-1.51735e-07
-9.81226e-06
-4.33168e-06
-1.91909e-06
-4.20431e-05
-1.23191e-06
-4.17704e-05
-3.34058e-07
-3.42572e-05
-1.32393e-06
-3.41224e-05
-3.95702e-06
-3.6152e-05
-7.19623e-06
-3.20004e-05
-9.2339e-06
-2.7832e-05
-9.5376e-06
-2.81872e-05
-8.55463e-06
-3.07297e-05
-7.02702e-06
-3.35552e-05
-5.41164e-06
-3.74687e-05
-3.64584e-06
-4.2023e-05
-6.76e-07
-4.53969e-05
6.10009e-06
-4.42761e-05
1.37662e-05
-4.86331e-05
9.76169e-06
-5.67078e-05
-3.09003e-07
-5.4433e-05
-3.18063e-06
-4.81342e-05
-3.47147e-06
-4.20647e-05
-3.27076e-06
-3.69064e-05
-2.67747e-06
-3.39845e-05
-2.21366e-06
-3.15273e-05
-1.87483e-06
-2.92906e-05
-1.53124e-06
-2.71986e-05
-1.15294e-06
-2.49741e-05
-9.76946e-07
-2.27031e-05
-7.2839e-07
-1.90821e-05
-7.43646e-07
-1.43079e-05
8.18347e-08
-7.42253e-06
-3.32796e-06
-5.25986e-07
-4.00695e-05
-2.46418e-07
-4.07704e-05
1.78871e-07
-3.34725e-05
-1.07844e-06
-3.1121e-05
-4.12201e-06
-3.34984e-05
-7.64464e-06
-2.88914e-05
-1.00005e-05
-2.38665e-05
-1.04578e-05
-2.40854e-05
-9.57799e-06
-2.77894e-05
-7.92569e-06
-3.35966e-05
-6.36287e-06
-3.92201e-05
-4.67324e-06
-4.35171e-05
-1.45337e-06
-4.67879e-05
5.28527e-06
-4.74313e-05
1.21822e-05
-5.23953e-05
1.0692e-05
-5.54946e-05
2.97864e-06
-5.15648e-05
-2.05474e-07
-4.56068e-05
-6.26986e-07
-4.03048e-05
-9.20591e-07
-3.67732e-05
-8.64198e-07
-3.41503e-05
-8.21561e-07
-3.18841e-05
-7.42172e-07
-2.97053e-05
-4.78234e-07
-2.74146e-05
-3.75272e-07
-2.53098e-05
-3.05871e-07
-2.21148e-05
-4.90848e-07
-1.75293e-05
-4.89095e-07
-1.11447e-05
1.31913e-07
-5.44958e-06
-2.51726e-06
7.93535e-07
-3.82223e-05
1.10865e-06
-3.90277e-05
1.73974e-06
-3.34859e-05
2.43831e-07
-2.83176e-05
-3.30808e-06
-3.09605e-05
-7.26863e-06
-2.59493e-05
-9.99412e-06
-1.97192e-05
-1.09517e-05
-1.98152e-05
-1.08899e-05
-2.58676e-05
-9.00524e-06
-3.4614e-05
-6.70839e-06
-3.97135e-05
-4.51225e-06
-4.31767e-05
-1.09417e-06
-4.64585e-05
5.38403e-06
-4.99764e-05
1.04846e-05
-5.31006e-05
9.11113e-06
-5.21805e-05
4.26761e-06
-4.69972e-05
1.82303e-06
-4.26621e-05
1.0059e-06
-3.92604e-05
6.93653e-07
-3.65881e-05
4.99154e-07
-3.43041e-05
3.9179e-07
-3.19667e-05
4.90982e-07
-2.96047e-05
5.051e-07
-2.74547e-05
3.8995e-07
-2.46114e-05
5.61666e-08
-2.01966e-05
-6.14163e-08
-1.40632e-05
1.49337e-07
-8.26279e-06
1.8488e-07
-4.82341e-06
-1.92983e-06
2.00807e-06
-3.52987e-05
2.32559e-06
-3.71153e-05
3.11646e-06
-3.39811e-05
1.63297e-06