/*--------------------------------*- C++ -*----------------------------------*\
| =========                 |                                                 |
| \\      /  F ield         | OpenFOAM: The Open Source CFD Toolbox           |
|  \\    /   O peration     | Version:  2.3.0                                 |
|   \\  /    A nd           | Web:      www.OpenFOAM.org                      |
|    \\/     M anipulation  |                                                 |
\*---------------------------------------------------------------------------*/
FoamFile
{
    version     2.0;
    format      ascii;
    class       volVectorField;
    location    "1.44";
    object      Ur;
}
// * * * * * * * * * * * * * * * * * * * * * * * * * * * * * * * * * * * * * //

dimensions      [0 1 -1 0 0 0 0];

internalField   nonuniform List<vector> 
6000
(
(0.0278619 -0.585403 0)
(0.0584063 -0.613084 0)
(0.0802132 -0.634035 0)
(0.135569 -0.622944 0)
(0.192666 -0.593308 0)
(0.202582 -0.586677 0)
(0.202794 -0.62186 0)
(0.223761 -0.74808 0)
(0.205992 -0.739934 0)
(0.112086 -0.659232 0)
(0.0230569 -0.643102 0)
(-0.0308356 -0.653868 0)
(-0.0580266 -0.709694 0)
(-0.0580805 -0.726724 0)
(-0.0519575 -0.70579 0)
(-0.0531015 -0.664384 0)
(-0.0633144 -0.622526 0)
(-0.086434 -0.600693 0)
(-0.110033 -0.615613 0)
(-0.139806 -0.62318 0)
(-0.195155 -0.615417 0)
(-0.221977 -0.678116 0)
(-0.0465424 -0.751178 0)
(0.214385 -0.57769 0)
(0.310432 -0.518114 0)
(0.306733 -0.530415 0)
(0.299991 -0.550699 0)
(0.297197 -0.573153 0)
(0.23292 -0.590114 0)
(0.0866268 -0.579022 0)
(0.0142615 -1.10193 0)
(0.0455866 -1.13039 0)
(0.0805622 -1.14916 0)
(0.130067 -1.15835 0)
(0.193111 -1.04937 0)
(0.208981 -0.970899 0)
(0.160634 -1.01558 0)
(0.167485 -1.35149 0)
(0.211658 -1.23636 0)
(0.163168 -0.961775 0)
(0.032431 -0.930774 0)
(-0.0731378 -0.959149 0)
(-0.0923883 -1.12316 0)
(-0.0355341 -1.17976 0)
(0.00420767 -1.13981 0)
(0.0172401 -1.05609 0)
(-0.00294227 -0.98806 0)
(-0.0503433 -0.951145 0)
(-0.0987588 -0.999825 0)
(-0.122552 -1.0352 0)
(-0.120084 -1.08674 0)
(-0.097831 -1.18736 0)
(-0.0735572 -1.22181 0)
(0.0348396 -1.16536 0)
(0.189879 -1.01006 0)
(0.277904 -0.970105 0)
(0.294964 -0.989668 0)
(0.27235 -0.977353 0)
(0.201511 -0.938218 0)
(0.076629 -0.905125 0)
(0.00886093 -0.964415 0)
(0.0322511 -0.973337 0)
(0.0520952 -0.995514 0)
(0.0616264 -1.02746 0)
(0.11506 -1.02687 0)
(0.145255 -0.845119 0)
(0.116193 -0.876737 0)
(0.115622 -1.18254 0)
(0.196753 -1.18197 0)
(0.172518 -0.761559 0)
(0.0314593 -0.731798 0)
(-0.0775539 -0.786798 0)
(-0.061013 -1.06209 0)
(0.0151438 -1.10475 0)
(0.0536034 -1.05442 0)
(0.0602846 -0.955702 0)
(0.0460773 -0.874557 0)
(0.0197003 -0.820689 0)
(-0.0239407 -0.846226 0)
(-0.0822229 -0.867338 0)
(-0.133784 -0.895306 0)
(-0.159842 -0.988102 0)
(-0.148447 -1.07786 0)
(-0.102542 -1.12126 0)
(0.0274104 -1.08637 0)
(0.173734 -0.968582 0)
(0.247452 -0.927467 0)
(0.247361 -0.866375 0)
(0.186697 -0.760931 0)
(0.0712736 -0.716702 0)
(0.00721168 -0.939528 0)
(0.015809 -0.932654 0)
(0.0177807 -0.948935 0)
(0.0250562 -0.97304 0)
(0.0362967 -0.9871 0)
(0.0501867 -0.854096 0)
(0.0777258 -0.891506 0)
(0.102055 -1.1529 0)
(0.0942067 -1.16741 0)
(0.100276 -0.80517 0)
(0.0370371 -0.712197 0)
(0.0034375 -0.878512 0)
(0.0784587 -1.09245 0)
(0.1081 -1.04755 0)
(0.117664 -0.976828 0)
(0.123015 -0.896909 0)
(0.117735 -0.818572 0)
(0.0977477 -0.762915 0)
(0.0410041 -0.709446 0)
(-0.0595758 -0.698167 0)
(-0.165744 -0.756231 0)
(-0.235206 -0.897106 0)
(-0.238363 -1.00611 0)
(-0.202441 -1.07321 0)
(-0.134283 -1.11967 0)
(-0.0194776 -1.03108 0)
(0.0852093 -0.936992 0)
(0.146482 -0.894239 0)
(0.155924 -0.792109 0)
(0.0711946 -0.741872 0)
(0.0186973 -0.891073 0)
(0.0189783 -0.858577 0)
(0.000139525 -0.87092 0)
(-0.00256043 -0.879707 0)
(-0.042406 -0.880659 0)
(-0.0719563 -0.827662 0)
(-0.0169307 -0.957543 0)
(0.0468891 -1.13853 0)
(0.0332361 -1.17145 0)
(0.0606174 -0.932098 0)
(0.0766515 -0.703045 0)
(0.112006 -0.981957 0)
(0.17153 -1.06162 0)
(0.188852 -1.00025 0)
(0.200509 -0.922949 0)
(0.183653 -0.830814 0)
(0.135727 -0.722978 0)
(0.0764602 -0.654296 0)
(0.0119443 -0.591643 0)
(-0.0555369 -0.582711 0)
(-0.124986 -0.647348 0)
(-0.192577 -0.802455 0)
(-0.232206 -0.949345 0)
(-0.237492 -1.02254 0)
(-0.233089 -1.07708 0)
(-0.192591 -1.04258 0)
(-0.110794 -0.959573 0)
(-0.012255 -0.953947 0)
(0.0835334 -0.90054 0)
(0.060827 -0.828475 0)
(0.0283392 -0.856281 0)
(0.0270126 -0.757621 0)
(-0.0136619 -0.783058 0)
(-0.0466986 -0.778714 0)
(-0.11554 -0.744705 0)
(-0.179549 -0.788527 0)
(-0.126333 -1.05823 0)
(-0.0107173 -1.16298 0)
(0.0300535 -1.1634 0)
(0.0558202 -1.04032 0)
(0.120251 -0.8025 0)
(0.201571 -1.02634 0)
(0.232178 -1.02497 0)
(0.24367 -0.963576 0)
(0.205058 -0.839861 0)
(0.129116 -0.719195 0)
(0.0572141 -0.627907 0)
(0.00233043 -0.572348 0)
(-0.0382812 -0.537198 0)
(-0.0585834 -0.545058 0)
(-0.073517 -0.601401 0)
(-0.10054 -0.729109 0)
(-0.14548 -0.857355 0)
(-0.199226 -0.924153 0)
(-0.252201 -0.98649 0)
(-0.27053 -1.02008 0)
(-0.226709 -0.991715 0)
(-0.145337 -1.03123 0)
(-0.00640429 -1.0854 0)
(0.0395998 -0.977384 0)
(0.0217527 -0.813132 0)
(0.0210848 -0.64874 0)
(-0.0257848 -0.667141 0)
(-0.0858033 -0.658216 0)
(-0.142566 -0.636987 0)
(-0.203424 -0.732452 0)
(-0.185535 -1.15347 0)
(-0.0378798 -1.20057 0)
(0.0568816 -1.20088 0)
(0.102409 -1.12671 0)
(0.177764 -0.963009 0)
(0.246756 -1.03255 0)
(0.246469 -0.992219 0)
(0.201601 -0.86939 0)
(0.106501 -0.701481 0)
(0.022189 -0.602503 0)
(-0.0317069 -0.558166 0)
(-0.0603744 -0.538115 0)
(-0.0710656 -0.530178 0)
(-0.0666128 -0.547375 0)
(-0.0563594 -0.597696 0)
(-0.0568621 -0.692235 0)
(-0.0924198 -0.776976 0)
(-0.157946 -0.82753 0)
(-0.230265 -0.892782 0)
(-0.280503 -0.972117 0)
(-0.271802 -1.00848 0)
(-0.222683 -1.08807 0)
(-0.109094 -1.27584 0)
(-0.0100748 -1.14098 0)
(0.00447 -0.760113 0)
(0.00266412 -0.579482 0)
(-0.0292381 -0.574332 0)
(-0.0836727 -0.566126 0)
(-0.124858 -0.565705 0)
(-0.171025 -0.672521 0)
(-0.180012 -1.23086 0)
(-0.0288915 -1.26449 0)
(0.0896843 -1.25338 0)
(0.162464 -1.20581 0)
(0.216547 -1.07403 0)
(0.235595 -1.0132 0)
(0.177854 -0.897332 0)
(0.0819919 -0.724611 0)
(-0.00253825 -0.587454 0)
(-0.0603292 -0.542855 0)
(-0.0840296 -0.535886 0)
(-0.0911262 -0.531794 0)
(-0.090281 -0.533717 0)
(-0.0837095 -0.554925 0)
(-0.0723631 -0.603186 0)
(-0.0689599 -0.670331 0)
(-0.0945374 -0.716104 0)
(-0.148024 -0.746549 0)
(-0.215468 -0.795025 0)
(-0.278479 -0.886551 0)
(-0.302725 -0.984819 0)
(-0.261637 -1.13035 0)
(-0.16666 -1.38816 0)
(-0.0506195 -1.27066 0)
(-0.00600181 -0.712099 0)
(-0.01103 -0.555075 0)
(-0.0224346 -0.534339 0)
(-0.0485033 -0.520255 0)
(-0.0734812 -0.517942 0)
(-0.0994294 -0.622749 0)
(-0.122268 -1.25567 0)
(-0.0273704 -1.31876 0)
(0.104672 -1.33816 0)
(0.200905 -1.29197 0)
(0.240887 -1.13569 0)
(0.167484 -0.923237 0)
(0.0529647 -0.778334 0)
(-0.0162794 -0.627786 0)
(-0.0689277 -0.533332 0)
(-0.0973908 -0.523809 0)
(-0.103578 -0.527679 0)
(-0.10387 -0.526941 0)
(-0.103436 -0.530617 0)
(-0.101497 -0.551542 0)
(-0.0967762 -0.594833 0)
(-0.0964544 -0.640415 0)
(-0.112166 -0.659483 0)
(-0.145311 -0.66797 0)
(-0.192174 -0.689255 0)
(-0.253816 -0.749189 0)
(-0.28956 -0.898551 0)
(-0.195767 -1.15808 0)
(-0.0544509 -1.41266 0)
(-0.00405712 -1.38025 0)
(-0.00604508 -0.663656 0)
(-0.00727925 -0.551512 0)
(-2.72148e-05 -0.524787 0)
(0.00231375 -0.5039 0)
(-0.00331167 -0.490198 0)
(-0.0128683 -0.58702 0)
(-0.0741067 -1.20704 0)
(-0.0534473 -1.40173 0)
(0.108468 -1.40672 0)
(0.232033 -1.38777 0)
(0.21327 -1.10925 0)
(0.0536956 -0.7912 0)
(-0.0520873 -0.697983 0)
(-0.066358 -0.597518 0)
(-0.0829414 -0.511055 0)
(-0.102938 -0.505822 0)
(-0.111885 -0.51373 0)
(-0.114558 -0.516362 0)
(-0.116362 -0.52201 0)
(-0.117232 -0.541705 0)
(-0.115783 -0.57794 0)
(-0.115382 -0.609779 0)
(-0.121378 -0.617642 0)
(-0.132847 -0.615144 0)
(-0.13612 -0.623667 0)
(-0.153894 -0.614216 0)
(-0.142245 -0.789286 0)
(-0.0100406 -1.16959 0)
(0.108857 -1.29926 0)
(0.0560412 -1.25236 0)
(0.00152349 -0.625633 0)
(0.0144626 -0.558437 0)
(0.0374137 -0.532435 0)
(0.0577594 -0.507006 0)
(0.068933 -0.483165 0)
(0.0598395 -0.558879 0)
(-0.0408545 -1.08536 0)
(-0.0646973 -1.46058 0)
(0.101522 -1.4882 0)
(0.235417 -1.47415 0)
(0.150868 -0.990906 0)
(-0.0446306 -0.670954 0)
(-0.110923 -0.658181 0)
(-0.0923852 -0.594006 0)
(-0.0864382 -0.506693 0)
(-0.100528 -0.490456 0)
(-0.115202 -0.496575 0)
(-0.123777 -0.502034 0)
(-0.13018 -0.511995 0)
(-0.134816 -0.532788 0)
(-0.135367 -0.564593 0)
(-0.133292 -0.593375 0)
(-0.131197 -0.607749 0)
(-0.137512 -0.626072 0)
(-0.0738869 -0.714126 0)
(0.0261873 -0.629569 0)
(0.106558 -0.763097 0)
(0.196989 -1.0791 0)
(0.199875 -1.15298 0)
(0.0846587 -1.06482 0)
(0.0122557 -0.617723 0)
(0.0432075 -0.580752 0)
(0.0794981 -0.55649 0)
(0.111207 -0.52704 0)
(0.133838 -0.496189 0)
(0.118717 -0.535051 0)
(0.00344348 -0.929772 0)
(-0.0513099 -1.4827 0)
(0.075317 -1.52725 0)
(0.193375 -1.52342 0)
(0.0812135 -0.859129 0)
(-0.0926316 -0.578008 0)
(-0.131923 -0.621091 0)
(-0.112095 -0.586891 0)
(-0.0968183 -0.512559 0)
(-0.101685 -0.483747 0)
(-0.118649 -0.485947 0)
(-0.134828 -0.49398 0)
(-0.1494 -0.510694 0)
(-0.159939 -0.535592 0)
(-0.162806 -0.567898 0)
(-0.160583 -0.597182 0)
(-0.163934 -0.620802 0)
(-0.186978 -0.670011 0)
(-0.0414027 -1.01576 0)
(0.241909 -0.877264 0)
(0.358904 -0.858889 0)
(0.329878 -1.01288 0)
(0.224259 -1.02777 0)
(0.080512 -0.928961 0)
(0.0242917 -0.670009 0)
(0.0743795 -0.632553 0)
(0.122155 -0.596424 0)
(0.161047 -0.560399 0)
(0.189378 -0.523271 0)
(0.18256 -0.52879 0)
(0.0866653 -0.788872 0)
(-0.0178066 -1.44009 0)
(0.034909 -1.54655 0)
(0.104047 -1.51282 0)
(0.010645 -0.825118 0)
(-0.0808167 -0.512999 0)
(-0.127639 -0.554605 0)
(-0.134633 -0.562521 0)
(-0.115858 -0.516539 0)
(-0.109808 -0.48172 0)
(-0.125063 -0.484367 0)
(-0.150593 -0.49768 0)
(-0.174237 -0.520848 0)
(-0.192074 -0.556486 0)
(-0.195286 -0.599016 0)
(-0.188116 -0.635451 0)
(-0.183186 -0.65442 0)
(-0.20063 -0.755466 0)
(-0.0370275 -1.43848 0)
(0.369186 -1.25101 0)
(0.482123 -1.03678 0)
(0.343383 -1.06082 0)
(0.188134 -1.04083 0)
(0.0576282 -0.990274 0)
(0.0494653 -0.800649 0)
(0.131286 -0.713345 0)
(0.182389 -0.64456 0)
(0.215159 -0.598047 0)
(0.240028 -0.557332 0)
(0.248232 -0.547498 0)
(0.187772 -0.715646 0)
(0.0676504 -1.31101 0)
(0.0334785 -1.51479 0)
(-0.0122959 -1.43482 0)
(-0.0738264 -0.880799 0)
(-0.0663493 -0.483699 0)
(-0.10948 -0.495727 0)
(-0.138282 -0.515888 0)
(-0.132547 -0.498631 0)
(-0.12282 -0.475312 0)
(-0.139217 -0.486567 0)
(-0.173527 -0.505948 0)
(-0.211058 -0.54154 0)
(-0.240321 -0.595614 0)
(-0.242875 -0.680178 0)
(-0.213981 -0.72727 0)
(-0.150512 -0.748457 0)
(-0.054123 -0.936435 0)
(0.0474406 -1.66222 0)
(0.245434 -1.6034 0)
(0.380602 -1.21214 0)
(0.342798 -1.22132 0)
(0.206206 -1.21583 0)
(0.0668948 -1.18011 0)
(0.104042 -1.04902 0)
(0.241624 -0.766628 0)
(0.27588 -0.667681 0)
(0.27546 -0.617785 0)
(0.281979 -0.586942 0)
(0.29505 -0.59025 0)
(0.278919 -0.730825 0)
(0.207021 -1.16985 0)
(0.113978 -1.4042 0)
(-0.0491371 -1.28244 0)
(-0.146739 -0.91446 0)
(-0.099249 -0.499498 0)
(-0.103516 -0.479681 0)
(-0.121555 -0.478906 0)
(-0.130198 -0.469748 0)
(-0.137865 -0.471036 0)
(-0.162297 -0.491481 0)
(-0.209067 -0.518414 0)
(-0.268524 -0.566515 0)
(-0.334087 -0.641528 0)
(-0.298171 -0.745912 0)
(-0.182854 -0.812508 0)
(-0.0631181 -0.873127 0)
(0.116937 -1.20179 0)
(0.165836 -1.70503 0)
(0.0899795 -1.77185 0)
(0.150678 -1.42155 0)
(0.220444 -1.30834 0)
(0.205602 -1.32093 0)
(0.0948501 -1.2662 0)
(0.175269 -1.41823 0)
(0.31048 -0.872802 0)
(0.326475 -0.640292 0)
(0.311811 -0.605069 0)
(0.290121 -0.605178 0)
(0.303468 -0.648267 0)
(0.331441 -0.797545 0)
(0.314565 -1.06893 0)
(0.211288 -1.21475 0)
(0.0218501 -1.09466 0)
(-0.151247 -0.872746 0)
(-0.154321 -0.593425 0)
(-0.103987 -0.523763 0)
(-0.105784 -0.489699 0)
(-0.130844 -0.477217 0)
(-0.157617 -0.48818 0)
(-0.19086 -0.509694 0)
(-0.252437 -0.52659 0)
(-0.319629 -0.573898 0)
(-0.385867 -0.64985 0)
(-0.451758 -0.879132 0)
(-0.359743 -1.19397 0)
(-0.10853 -1.34472 0)
(0.110698 -1.57463 0)
(0.130542 -1.7625 0)
(0.0144994 -1.85273 0)
(-0.0306958 -1.7587 0)
(0.0262994 -1.57044 0)
(0.0686334 -1.43677 0)
(0.0361654 -1.20609 0)
(0.111168 -1.85114 0)
(0.295059 -1.2471 0)
(0.287297 -0.712355 0)
(0.260011 -0.59139 0)
(0.252237 -0.614586 0)
(0.270006 -0.710096 0)
(0.321188 -0.863836 0)
(0.325169 -0.989634 0)
(0.227578 -1.03401 0)
(0.0707376 -0.960299 0)
(-0.119707 -0.863026 0)
(-0.151536 -0.755078 0)
(-0.0584511 -0.639588 0)
(-0.0699129 -0.55652 0)
(-0.127262 -0.521118 0)
(-0.171944 -0.532832 0)
(-0.198883 -0.53618 0)
(-0.244363 -0.532989 0)
(-0.339177 -0.57703 0)
(-0.429585 -0.689658 0)
(-0.47687 -0.998989 0)
(-0.406095 -1.26899 0)
(-0.216971 -1.40195 0)
(-0.0625327 -1.54274 0)
(-0.023813 -1.67184 0)
(-0.0643177 -1.75636 0)
(-0.135715 -1.74055 0)
(-0.165223 -1.71364 0)
(-0.136576 -1.67183 0)
(-0.0503775 -1.39336 0)
(-0.061604 -1.63752 0)
(-0.0722706 -1.49279 0)
(0.0753525 -1.13635 0)
(0.11725 -0.75197 0)
(0.129445 -0.696582 0)
(0.182689 -0.792231 0)
(0.262846 -0.91722 0)
(0.282012 -0.917731 0)
(0.18786 -0.883406 0)
(0.043381 -0.886769 0)
(-0.104574 -0.908832 0)
(-0.0903709 -0.942035 0)
(0.0409136 -0.839227 0)
(0.0184749 -0.672908 0)
(-0.102268 -0.587861 0)
(-0.133555 -0.593659 0)
(-0.13444 -0.613529 0)
(-0.180257 -0.600729 0)
(-0.191417 -0.559338 0)
(-0.207498 -0.538244 0)
(-0.275001 -0.767699 0)
(-0.347749 -1.14731 0)
(-0.285655 -1.39536 0)
(-0.160855 -1.485 0)
(-0.0988594 -1.54763 0)
(-0.0965585 -1.57362 0)
(-0.117522 -1.56612 0)
(-0.133798 -1.51779 0)
(-0.13108 -1.47051 0)
(-0.0609406 -1.35469 0)
(-0.135167 -1.34293 0)
(-0.382186 -1.266 0)
(-0.507128 -1.27281 0)
(-0.404138 -1.19848 0)
(-0.196066 -1.04403 0)
(0.00267307 -1.00361 0)
(0.175024 -1.03137 0)
(0.262303 -0.907831 0)
(0.163655 -0.779136 0)
(-0.0243429 -0.873115 0)
(-0.11346 -0.95792 0)
(-0.0368898 -1.15603 0)
(0.137381 -1.04733 0)
(0.148538 -0.752594 0)
(0.0517963 -0.637258 0)
(0.026663 -0.739597 0)
(0.0354552 -0.695561 0)
(0.022129 -0.565053 0)
(-0.00346649 -0.463342 0)
(-0.0352989 -0.422171 0)
(-0.103917 -0.586121 0)
(-0.227546 -1.01934 0)
(-0.279468 -1.4066 0)
(-0.194991 -1.50298 0)
(-0.1282 -1.51553 0)
(-0.0941036 -1.52002 0)
(-0.0822889 -1.49792 0)
(-0.0796914 -1.46567 0)
(-0.0577941 -1.41288 0)
(-0.0185418 -1.34418 0)
(-0.120963 -0.984678 0)
(-0.365756 -0.905887 0)
(-0.631802 -1.00548 0)
(-0.799395 -1.19307 0)
(-0.738969 -1.43408 0)
(-0.413307 -1.58032 0)
(-0.0725175 -1.50653 0)
(0.132746 -1.0776 0)
(0.131008 -0.727881 0)
(-0.00732745 -0.905968 0)
(-0.0243512 -1.10915 0)
(0.15795 -1.49576 0)
(0.380368 -1.26924 0)
(0.360552 -0.78237 0)
(0.276354 -0.690189 0)
(0.225713 -0.762369 0)
(0.1768 -0.643667 0)
(0.123447 -0.494388 0)
(0.0833346 -0.399379 0)
(0.0527394 -0.347465 0)
(0.00567497 -0.447722 0)
(-0.0942773 -0.844993 0)
(-0.189918 -1.33077 0)
(-0.160036 -1.49377 0)
(-0.103722 -1.49837 0)
(-0.0783897 -1.47735 0)
(-0.051304 -1.4551 0)
(-0.0305404 -1.4181 0)
(0.00237395 -1.38934 0)
(0.016277 -1.32975 0)
(-0.0795533 -0.747606 0)
(-0.236508 -0.65689 0)
(-0.429106 -0.71182 0)
(-0.651402 -0.952589 0)
(-0.788566 -1.43639 0)
(-0.637937 -1.78564 0)
(-0.378618 -1.85451 0)
(-0.110296 -1.67599 0)
(0.116481 -0.960852 0)
(0.160393 -1.02471 0)
(0.207584 -1.38396 0)
(0.396595 -1.72355 0)
(0.492337 -1.22786 0)
(0.401057 -0.678093 0)
(0.315793 -0.618164 0)
(0.269666 -0.675208 0)
(0.219718 -0.566736 0)
(0.169368 -0.432621 0)
(0.136122 -0.350541 0)
(0.108717 -0.292431 0)
(0.0749316 -0.357894 0)
(0.0165823 -0.713117 0)
(-0.0679691 -1.24723 0)
(-0.0922334 -1.46503 0)
(-0.0633573 -1.46205 0)
(-0.0339579 -1.43876 0)
(-0.00818358 -1.40983 0)
(0.0112881 -1.38473 0)
(0.0489005 -1.34931 0)
(0.0403713 -1.26783 0)
(-0.0495283 -0.594182 0)
(-0.138076 -0.51564 0)
(-0.234036 -0.521723 0)
(-0.373576 -0.690842 0)
(-0.586751 -1.30231 0)
(-0.581081 -1.86378 0)
(-0.348262 -1.88917 0)
(-0.162228 -1.82811 0)
(0.142986 -1.49612 0)
(0.275878 -1.08136 0)
(0.281115 -1.38493 0)
(0.371657 -1.64296 0)
(0.408728 -1.10976 0)
(0.328664 -0.568691 0)
(0.266812 -0.533681 0)
(0.251967 -0.602639 0)
(0.228854 -0.5025 0)
(0.192664 -0.377192 0)
(0.168939 -0.306885 0)
(0.14818 -0.255226 0)
(0.127393 -0.313987 0)
(0.1109 -0.635561 0)
(0.0720619 -1.13794 0)
(0.0161219 -1.39449 0)
(-0.00143021 -1.42694 0)
(0.00822972 -1.39777 0)
(0.0304888 -1.367 0)
(0.0493182 -1.33239 0)
(0.0809508 -1.30635 0)
(0.0525469 -1.15016 0)
(-0.0301321 -0.488078 0)
(-0.0782787 -0.436367 0)
(-0.116164 -0.423005 0)
(-0.178966 -0.509571 0)
(-0.353773 -1.06714 0)
(-0.463294 -1.91247 0)
(-0.268833 -1.98754 0)
(-0.063054 -1.92417 0)
(0.171563 -1.77522 0)
(0.264846 -1.17621 0)
(0.24398 -1.38306 0)
(0.296909 -1.64201 0)
(0.325517 -1.05541 0)
(0.271034 -0.517641 0)
(0.231616 -0.490552 0)
(0.237318 -0.545175 0)
(0.233994 -0.450391 0)
(0.212287 -0.336389 0)
(0.199654 -0.276014 0)
(0.183988 -0.236149 0)
(0.174387 -0.312781 0)
(0.19153 -0.620466 0)
(0.193507 -1.05545 0)
(0.144171 -1.28668 0)
(0.0934454 -1.35708 0)
(0.0732207 -1.34464 0)
(0.0810901 -1.30772 0)
(0.0916123 -1.27426 0)
(0.115314 -1.24137 0)
(0.0677024 -1.05568 0)
(-0.0143319 -0.416391 0)
(-0.0348811 -0.38995 0)
(-0.0445918 -0.374833 0)
(-0.0644562 -0.408725 0)
(-0.175187 -0.836949 0)
(-0.334424 -1.91319 0)
(-0.205174 -2.01133 0)
(-0.0161658 -2.03515 0)
(0.138197 -1.92597 0)
(0.238939 -1.36053 0)
(0.249761 -1.41688 0)
(0.270679 -1.66085 0)
(0.284937 -1.0547 0)
(0.250723 -0.504988 0)
(0.224547 -0.459768 0)
(0.235817 -0.488135 0)
(0.237071 -0.399 0)
(0.22962 -0.30667 0)
(0.228924 -0.255919 0)
(0.218371 -0.235511 0)
(0.230402 -0.356498 0)
(0.287788 -0.658206 0)
(0.322984 -0.995853 0)
(0.281253 -1.18914 0)
(0.206226 -1.25501 0)
(0.161238 -1.27408 0)
(0.143621 -1.25261 0)
(0.135349 -1.21215 0)
(0.15248 -1.17857 0)
(0.0780238 -0.884271 0)
(-0.00252091 -0.380453 0)
(-0.00122418 -0.36867 0)
(0.00881511 -0.35422 0)
(0.0112723 -0.36007 0)
(-0.0446725 -0.660292 0)
(-0.214058 -1.80748 0)
(-0.181749 -2.05107 0)
(-0.0154509 -2.05905 0)
(0.10028 -2.01559 0)
(0.227129 -1.60118 0)
(0.291518 -1.49345 0)
(0.290929 -1.6582 0)
(0.293462 -1.08224 0)
(0.259481 -0.496291 0)
(0.227667 -0.419792 0)
(0.233734 -0.4299 0)
(0.237614 -0.346887 0)
(0.253756 -0.28074 0)
(0.267196 -0.238664 0)
(0.267477 -0.256392 0)
(0.305006 -0.435396 0)
(0.384484 -0.720797 0)
(0.423745 -0.949135 0)
(0.381659 -1.08296 0)
(0.322825 -1.16297 0)
(0.263892 -1.16287 0)
(0.213595 -1.15296 0)
(0.174641 -1.11782 0)
(0.162354 -1.08094 0)
(0.0709114 -0.69634 0)
(0.00427771 -0.402115 0)
(0.0226279 -0.390379 0)
(0.0587749 -0.364633 0)
(0.0871829 -0.345437 0)
(0.0604891 -0.540126 0)
(-0.124924 -1.5819 0)
(-0.178928 -1.998 0)
(0.00656631 -2.06602 0)
(0.150376 -1.98337 0)
(0.25351 -1.78993 0)
(0.304283 -1.58991 0)
(0.315809 -1.66316 0)
(0.320818 -1.09107 0)
(0.256761 -0.450447 0)
(0.201273 -0.366994 0)
(0.219058 -0.382026 0)
(0.239053 -0.308444 0)
(0.277138 -0.260607 0)
(0.305727 -0.227231 0)
(0.326462 -0.300551 0)
(0.379348 -0.529859 0)
(0.458214 -0.774629 0)
(0.481788 -0.915056 0)
(0.449001 -1.00572 0)
(0.400736 -1.05355 0)
(0.341608 -1.06313 0)
(0.278546 -1.04517 0)
(0.197438 -1.00449 0)
(0.141183 -0.985746 0)
(0.0480678 -0.522967 0)
(0.0121413 -0.505215 0)
(0.0518544 -0.49085 0)
(0.11539 -0.433444 0)
(0.177311 -0.379621 0)
(0.158063 -0.453692 0)
(-0.0519904 -1.26358 0)
(-0.168958 -1.88663 0)
(0.0856208 -1.92918 0)
(0.241324 -1.85973 0)
(0.277723 -1.76962 0)
(0.278863 -1.66142 0)
(0.308095 -1.66341 0)
(0.306541 -1.04888 0)
(0.20677 -0.375974 0)
(0.160418 -0.331924 0)
(0.200881 -0.34088 0)
(0.243999 -0.287916 0)
(0.290816 -0.244766 0)
(0.324719 -0.225215 0)
(0.352374 -0.345079 0)
(0.412559 -0.607796 0)
(0.481305 -0.803908 0)
(0.494895 -0.892173 0)
(0.474493 -0.941263 0)
(0.428698 -0.957945 0)
(0.363169 -0.942673 0)
(0.283459 -0.893848 0)
(0.185969 -0.832296 0)
(0.0930975 -0.827523 0)
(0.0195339 -0.395797 0)
(0.0189777 -0.644462 0)
(0.0983564 -0.6349 0)
(0.197839 -0.525893 0)
(0.268561 -0.477567 0)
(0.258323 -0.495847 0)
(0.114139 -1.04182 0)
(-0.0126573 -1.77417 0)
(0.155631 -1.79646 0)
(0.243039 -1.71302 0)
(0.216847 -1.69277 0)
(0.207396 -1.67276 0)
(0.265307 -1.64592 0)
(0.236822 -0.973064 0)
(0.115917 -0.334799 0)
(0.118674 -0.319857 0)
(0.180965 -0.308376 0)
(0.234991 -0.267954 0)
(0.288582 -0.233057 0)
(0.319825 -0.232349 0)
(0.34435 -0.38886 0)
(0.404098 -0.664685 0)
(0.462939 -0.814071 0)
(0.473249 -0.859058 0)
(0.451047 -0.869493 0)
(0.396405 -0.860083 0)
(0.32783 -0.82402 0)
(0.243202 -0.753227 0)
(0.149082 -0.676806 0)
(0.0457659 -0.65884 0)
(-0.00378359 -0.324907 0)
(0.0211069 -0.854858 0)
(0.110636 -0.850528 0)
(0.192113 -0.660794 0)
(0.27407 -0.613883 0)
(0.356492 -0.712238 0)
(0.358734 -1.17021 0)
(0.289793 -1.74731 0)
(0.254923 -1.75313 0)
(0.209602 -1.62159 0)
(0.135862 -1.59999 0)
(0.110459 -1.67364 0)
(0.139889 -1.64718 0)
(0.0499942 -0.965797 0)
(0.0364102 -0.398401 0)
(0.11837 -0.353337 0)
(0.180565 -0.306564 0)
(0.228723 -0.261778 0)
(0.276639 -0.234875 0)
(0.30269 -0.255415 0)
(0.328377 -0.445531 0)
(0.382676 -0.704255 0)
(0.420027 -0.800165 0)
(0.413052 -0.805684 0)
(0.379731 -0.794041 0)
(0.325878 -0.757093 0)
(0.248884 -0.697713 0)
(0.165117 -0.620161 0)
(0.0872161 -0.541294 0)
(0.00630408 -0.503078 0)
(-0.0170621 -0.309437 0)
(0.0308934 -1.58945 0)
(0.194788 -1.59881 0)
(0.323751 -1.16334 0)
(0.358162 -0.85124 0)
(0.472663 -1.02988 0)
(0.59426 -1.50199 0)
(0.507589 -1.8558 0)
(0.328817 -1.87482 0)
(0.231646 -1.74013 0)
(0.162763 -1.62036 0)
(0.0924445 -1.69736 0)
(0.005047 -1.68888 0)
(-0.0814243 -1.03516 0)
(0.00772477 -0.595824 0)
(0.175456 -0.496064 0)
(0.231528 -0.387045 0)
(0.252367 -0.305609 0)
(0.277699 -0.265373 0)
(0.294857 -0.307529 0)
(0.321295 -0.518599 0)
(0.361091 -0.711884 0)
(0.359955 -0.750489 0)
(0.331686 -0.741131 0)
(0.287813 -0.705078 0)
(0.223251 -0.646087 0)
(0.147781 -0.575413 0)
(0.0779975 -0.508528 0)
(0.0253939 -0.450835 0)
(-0.0220148 -0.416297 0)
(-0.0234249 -0.334632 0)
(-0.00340776 -1.53942 0)
(0.0601075 -1.71316 0)
(0.24483 -1.66013 0)
(0.462875 -1.58852 0)
(0.647587 -1.67644 0)
(0.695251 -1.85802 0)
(0.56508 -1.99453 0)
(0.4097 -2.05771 0)
(0.319927 -1.94094 0)
(0.252855 -1.81498 0)
(0.130256 -1.80492 0)
(-0.0537314 -1.77945 0)
(-0.165961 -1.20315 0)
(-0.022321 -0.883416 0)
(0.24595 -0.716873 0)
(0.357151 -0.540991 0)
(0.334311 -0.404025 0)
(0.314515 -0.329601 0)
(0.317057 -0.394488 0)
(0.340703 -0.582159 0)
(0.343775 -0.681422 0)
(0.301291 -0.683313 0)
(0.249881 -0.658694 0)
(0.188162 -0.607068 0)
(0.121691 -0.53991 0)
(0.0592673 -0.481057 0)
(0.011656 -0.438272 0)
(-0.0153576 -0.410315 0)
(-0.0278091 -0.39021 0)
(-0.0161052 -0.366376 0)
(0.0109423 -1.42063 0)
(0.0614041 -1.60525 0)
(0.163519 -1.59731 0)
(0.302292 -1.61742 0)
(0.438747 -1.7457 0)
(0.500013 -1.93558 0)
(0.474251 -2.07432 0)
(0.4017 -2.16036 0)
(0.340484 -2.14281 0)
(0.261967 -2.00986 0)
(0.141958 -1.94105 0)
(-0.0184865 -1.89544 0)
(-0.0864572 -1.51423 0)
(0.0859642 -1.40964 0)
(0.430238 -1.14589 0)
(0.492487 -0.657019 0)
(0.456296 -0.479391 0)
(0.39123 -0.389426 0)
(0.3756 -0.47672 0)
(0.361445 -0.582491 0)
(0.309515 -0.614426 0)
(0.242819 -0.601979 0)
(0.174544 -0.566362 0)
(0.107114 -0.514357 0)
(0.0477284 -0.461243 0)
(0.00678963 -0.428942 0)
(-0.01378 -0.408435 0)
(-0.0223881 -0.394493 0)
(-0.0237012 -0.39008 0)
(-0.0114424 -0.391031 0)
(0.0259569 -1.44897 0)
(0.0842447 -1.61567 0)
(0.167618 -1.62071 0)
(0.248364 -1.61295 0)
(0.304524 -1.64706 0)
(0.325775 -1.73863 0)
(0.332629 -1.8591 0)
(0.315325 -1.9745 0)
(0.284423 -2.04114 0)
(0.257626 -2.05533 0)
(0.221232 -2.04216 0)
(0.1692 -1.99599 0)
(0.194432 -1.82293 0)
(0.341805 -1.73699 0)
(0.702354 -1.54087 0)
(0.880383 -0.946618 0)
(0.654765 -0.459128 0)
(0.493338 -0.395672 0)
(0.413131 -0.472268 0)
(0.339232 -0.516334 0)
(0.256554 -0.52535 0)
(0.182004 -0.514433 0)
(0.113321 -0.481674 0)
(0.0555468 -0.445752 0)
(0.0162648 -0.417585 0)
(-0.00530476 -0.400854 0)
(-0.0175576 -0.392577 0)
(-0.0238002 -0.39143 0)
(-0.0163163 -0.397997 0)
(-0.00369386 -0.397826 0)
(0.0396873 -1.4998 0)
(0.103794 -1.64339 0)
(0.168888 -1.65138 0)
(0.227805 -1.65077 0)
(0.26196 -1.65477 0)
(0.272446 -1.68189 0)
(0.283275 -1.7291 0)
(0.285985 -1.77372 0)
(0.28294 -1.80276 0)
(0.287596 -1.81224 0)
(0.299187 -1.79498 0)
(0.307903 -1.76206 0)
(0.351905 -1.67535 0)
(0.424121 -1.62561 0)
(0.65715 -1.44852 0)
(0.823621 -0.916353 0)
(0.607859 -0.365746 0)
(0.494265 -0.31941 0)
(0.379265 -0.383833 0)
(0.281845 -0.423914 0)
(0.202897 -0.441352 0)
(0.137739 -0.438431 0)
(0.0833108 -0.419981 0)
(0.0407527 -0.399769 0)
(0.0118655 -0.385565 0)
(-0.00587857 -0.380452 0)
(-0.0157489 -0.384031 0)
(-0.0154904 -0.394801 0)
(-0.00584486 -0.407285 0)
(0.000310514 -0.385384 0)
(0.0530328 -1.57714 0)
(0.118109 -1.66987 0)
(0.169616 -1.67033 0)
(0.212289 -1.67495 0)
(0.240301 -1.67574 0)
(0.252228 -1.69145 0)
(0.265819 -1.7166 0)
(0.281956 -1.74113 0)
(0.300069 -1.75464 0)
(0.322086 -1.73916 0)
(0.347016 -1.72122 0)
(0.371678 -1.68525 0)
(0.400823 -1.63283 0)
(0.418835 -1.57408 0)
(0.541589 -1.37272 0)
(0.613469 -0.839461 0)
(0.411783 -0.242565 0)
(0.362044 -0.212316 0)
(0.295122 -0.290871 0)
(0.227415 -0.347127 0)
(0.169981 -0.372093 0)
(0.117623 -0.374425 0)
(0.0709184 -0.367883 0)
(0.0347324 -0.361195 0)
(0.0101698 -0.359407 0)
(-0.00468502 -0.365392 0)
(-0.00687678 -0.382011 0)
(-0.00138027 -0.400829 0)
(0.00311905 -0.404282 0)
(0.00255193 -0.366552 0)
(0.0644998 -1.66342 0)
(0.133015 -1.68743 0)
(0.171764 -1.67218 0)
(0.200443 -1.68207 0)
(0.216877 -1.69301 0)
(0.225237 -1.69748 0)
(0.243273 -1.71463 0)
(0.26862 -1.74037 0)
(0.302315 -1.75572 0)
(0.340535 -1.75361 0)
(0.379729 -1.72897 0)
(0.419167 -1.70515 0)
(0.440814 -1.63323 0)
(0.439261 -1.51665 0)
(0.475589 -1.28932 0)
(0.482503 -0.785525 0)
(0.28033 -0.178977 0)
(0.254452 -0.156018 0)
(0.220764 -0.236023 0)
(0.179039 -0.286309 0)
(0.137625 -0.309455 0)
(0.0942629 -0.319417 0)
(0.0557275 -0.325771 0)
(0.0262333 -0.331296 0)
(0.0067485 -0.34006 0)
(0.0015793 -0.357827 0)
(0.004763 -0.385183 0)
(0.00418182 -0.391683 0)
(0.00959642 -0.387537 0)
(0.00840741 -0.342713 0)
(0.0770921 -1.76431 0)
(0.147144 -1.6986 0)
(0.168075 -1.66773 0)
(0.185096 -1.68083 0)
(0.200866 -1.70593 0)
(0.206711 -1.71183 0)
(0.216408 -1.71591 0)
(0.245139 -1.73752 0)
(0.292239 -1.76161 0)
(0.349924 -1.76848 0)
(0.407552 -1.76957 0)
(0.461609 -1.73762 0)
(0.504349 -1.6574 0)
(0.496109 -1.45111 0)
(0.448922 -1.16987 0)
(0.382605 -0.716261 0)
(0.192918 -0.1504 0)
(0.171946 -0.13064 0)
(0.158054 -0.202413 0)
(0.13441 -0.23982 0)
(0.0993899 -0.261705 0)
(0.0657492 -0.280738 0)
(0.0373808 -0.297366 0)
(0.0156759 -0.311801 0)
(0.0074417 -0.330141 0)
(0.00972837 -0.359806 0)
(0.00925183 -0.374217 0)
(0.00786199 -0.370462 0)
(0.0200261 -0.354375 0)
(0.0157205 -0.304977 0)
(0.0851894 -1.88358 0)
(0.152939 -1.70631 0)
(0.157875 -1.65316 0)
(0.162609 -1.67446 0)
(0.174546 -1.7124 0)
(0.179665 -1.71811 0)
(0.187281 -1.71722 0)
(0.214408 -1.74262 0)
(0.266481 -1.77509 0)
(0.331404 -1.81106 0)
(0.404795 -1.83115 0)
(0.49011 -1.82392 0)
(0.569079 -1.6926 0)
(0.538239 -1.36017 0)
(0.412541 -1.02068 0)
(0.250234 -0.585779 0)
(0.106967 -0.13926 0)
(0.101656 -0.121575 0)
(0.103453 -0.174549 0)
(0.0878409 -0.206556 0)
(0.0606027 -0.232557 0)
(0.037905 -0.258991 0)
(0.0183409 -0.28096 0)
(0.00955567 -0.300894 0)
(0.0115243 -0.330196 0)
(0.0120904 -0.351154 0)
(0.0119554 -0.351559 0)
(0.0241415 -0.337217 0)
(0.0322634 -0.3066 0)
(0.0144517 -0.262873 0)
(0.0782537 -1.99479 0)
(0.141364 -1.71802 0)
(0.13983 -1.63075 0)
(0.140335 -1.67374 0)
(0.151322 -1.72949 0)
(0.159048 -1.73158 0)
(0.158905 -1.7138 0)
(0.175296 -1.74147 0)
(0.214378 -1.79895 0)
(0.272653 -1.86777 0)
(0.365507 -1.92011 0)
(0.469945 -1.89132 0)
(0.573051 -1.7101 0)
(0.49954 -1.22815 0)
(0.322506 -0.794774 0)
(0.103159 -0.393682 0)
(0.0296239 -0.133968 0)
(0.0462051 -0.122021 0)
(0.0532946 -0.156114 0)
(0.0417897 -0.187141 0)
(0.0253609 -0.217929 0)
(0.0116961 -0.24682 0)
(0.00614297 -0.269885 0)
(0.00879713 -0.297677 0)
(0.0109232 -0.3228 0)
(0.0120098 -0.327441 0)
(0.0254281 -0.316666 0)
(0.0400931 -0.289933 0)
(0.0273183 -0.261148 0)
(0.00612978 -0.23571 0)
(0.0701883 -2.04403 0)
(0.127132 -1.7211 0)
(0.113127 -1.60425 0)
(0.112506 -1.67982 0)
(0.128609 -1.74888 0)
(0.139383 -1.75079 0)
(0.131865 -1.70199 0)
(0.121742 -1.73108 0)
(0.139162 -1.83291 0)
(0.191093 -1.93548 0)
(0.281017 -1.97326 0)
(0.387434 -1.96766 0)
(0.498678 -1.68901 0)
(0.397826 -1.04518 0)
(0.188424 -0.54258 0)
(0.018509 -0.250916 0)
(-0.0114731 -0.130279 0)
(0.00564957 -0.12608 0)
(0.0111992 -0.150104 0)
(0.00354473 -0.179236 0)
(-0.00431441 -0.209986 0)
(-0.00515074 -0.238859 0)
(-0.00124842 -0.264182 0)
(0.00282032 -0.289862 0)
(0.00763873 -0.298454 0)
(0.0222232 -0.290433 0)
(0.036962 -0.27133 0)
(0.027973 -0.248488 0)
(0.00950964 -0.235383 0)
(0.00141354 -0.224339 0)
(0.0693213 -2.08182 0)
(0.118426 -1.71523 0)
(0.0885289 -1.5711 0)
(0.0875647 -1.69491 0)
(0.102704 -1.77528 0)
(0.11534 -1.77049 0)
(0.106295 -1.68349 0)
(0.0639696 -1.70131 0)
(0.0479407 -1.86438 0)
(0.0935574 -1.96221 0)
(0.167017 -2.01705 0)
(0.249232 -1.98075 0)
(0.36869 -1.63679 0)
(0.266333 -0.849506 0)
(0.0766333 -0.328037 0)
(-0.0142275 -0.175486 0)
(-0.0256819 -0.126991 0)
(-0.0196269 -0.128857 0)
(-0.0205727 -0.150093 0)
(-0.0231804 -0.177484 0)
(-0.0232312 -0.209239 0)
(-0.0214709 -0.237357 0)
(-0.0150489 -0.256746 0)
(-0.00399201 -0.266457 0)
(0.0131573 -0.261033 0)
(0.0255784 -0.249202 0)
(0.0190986 -0.23501 0)
(0.00576724 -0.228144 0)
(-0.000647931 -0.223458 0)
(-0.00103983 -0.219471 0)
(0.0687004 -2.08802 0)
(0.100949 -1.68767 0)
(0.0661825 -1.53531 0)
(0.0654098 -1.72485 0)
(0.0739564 -1.79316 0)
(0.0811072 -1.79488 0)
(0.0768524 -1.66489 0)
(0.0146016 -1.64634 0)
(-0.0263737 -1.87071 0)
(0.000907908 -1.97212 0)
(0.0484462 -1.99588 0)
(0.103567 -1.95715 0)
(0.218459 -1.58032 0)
(0.132791 -0.680203 0)
(0.0226661 -0.203434 0)
(-0.0245103 -0.134584 0)
(-0.034468 -0.119986 0)
(-0.0394478 -0.130169 0)
(-0.0428498 -0.152748 0)
(-0.0436133 -0.18232 0)
(-0.0430916 -0.21095 0)
(-0.0379736 -0.228396 0)
(-0.0227991 -0.235143 0)
(-0.00287673 -0.23292 0)
(0.00754628 -0.224483 0)
(0.00428029 -0.2205 0)
(-0.0032827 -0.218637 0)