/*--------------------------------*- C++ -*----------------------------------*\
| =========                 |                                                 |
| \\      /  F ield         | OpenFOAM: The Open Source CFD Toolbox           |
|  \\    /   O peration     | Version:  2.3.0                                 |
|   \\  /    A nd           | Web:      www.OpenFOAM.org                      |
|    \\/     M anipulation  |                                                 |
\*---------------------------------------------------------------------------*/
FoamFile
{
    version     2.0;
    format      ascii;
    class       volScalarField;
    location    "0.48";
    object      alpha.particles;
}
// * * * * * * * * * * * * * * * * * * * * * * * * * * * * * * * * * * * * * //

dimensions      [0 0 0 0 0 0 0];

internalField   nonuniform List<scalar> 
6000
(
0.426941
0.397664
0.397464
0.428816
0.470431
0.456817
0.446482
0.435457
0.419457
0.411203
0.408349
0.415945
0.400075
0.347097
0.35558
0.345493
0.379716
0.422531
0.420393
0.419534
0.421454
0.433477
0.449462
0.448047
0.460295
0.462655
0.423933
0.406438
0.40055
0.435556
0.401674
0.397464
0.397182
0.3969
0.39662
0.385736
0.37245
0.355907
0.343211
0.343181
0.343211
0.34318
0.343211
0.343178
0.345482
0.343034
0.34306
0.343035
0.344104
0.345331
0.345397
0.353834
0.373327
0.373666
0.384737
0.391891
0.39217
0.392451
0.392734
0.415803
0.466095
0.455645
0.449941
0.44453
0.452035
0.446852
0.422672
0.379032
0.354922
0.355051
0.354026
0.354688
0.350613
0.346279
0.367329
0.350737
0.344363
0.357782
0.359005
0.360278
0.362509
0.378995
0.426933
0.442047
0.449609
0.452528
0.450748
0.456898
0.45386
0.478283
0.524895
0.524799
0.524116
0.519703
0.52122
0.518107
0.497368
0.447931
0.406769
0.39818
0.393509
0.379041
0.348454
0.346402
0.386939
0.349611
0.344555
0.376216
0.397308
0.40831
0.41789
0.450015
0.502208
0.520536
0.523503
0.524384
0.524458
0.524429
0.524379
0.524351
0.524962
0.524886
0.525031
0.524829
0.525099
0.524772
0.525034
0.523206
0.496006
0.485837
0.469006
0.430056
0.376278
0.367268
0.426837
0.371395
0.369145
0.419436
0.468717
0.496378
0.504199
0.524047
0.524446
0.524492
0.524527
0.524558
0.524502
0.524454
0.524115
0.524261
0.479807
0.452133
0.48882
0.523534
0.524761
0.525079
0.524709
0.525017
0.524687
0.524948
0.518517
0.477513
0.432752
0.426837
0.482578
0.428293
0.428189
0.468867
0.51721
0.52435
0.524392
0.524438
0.524491
0.524515
0.524581
0.524554
0.50095
0.454991
0.388375
0.466443
0.306439
0.276114
0.297906
0.331938
0.389325
0.440198
0.487239
0.515941
0.524925
0.524678
0.524881
0.50676
0.492548
0.502335
0.524654
0.50163
0.491168
0.503699
0.52428
0.524297
0.524369
0.524394
0.515466
0.471935
0.43294
0.381324
0.307993
0.270495
0.245349
0.293236
0.244727
0.244784
0.242724
0.244836
0.242761
0.246893
0.281014
0.339021
0.387908
0.490377
0.524662
0.523197
0.527898
0.532449
0.532673
0.532448
0.527537
0.521844
0.524204
0.499599
0.41193
0.385381
0.317673
0.268267
0.252885
0.245629
0.243098
0.24443
0.242358
0.24439
0.244742
0.243355
0.244824
0.24242
0.244905
0.240806
0.244986
0.243002
0.24507
0.328167
0.490686
0.530616
0.532459
0.532871
0.532608
0.532828
0.532459
0.530769
0.501372
0.358498
0.249042
0.248985
0.244736
0.242031
0.244582
0.243463
0.24443
0.242567
0.244277
0.244133
0.248319
0.244824
0.242975
0.244905
0.241558
0.244986
0.241037
0.245069
0.241132
0.245158
0.441819
0.532432
0.533163
0.53261
0.533378
0.53261
0.533079
0.532436
0.457527
0.254725
0.242386
0.244735
0.24177
0.244583
0.242708
0.24443
0.242932
0.244277
0.242505
0.244125
0.258991
0.244027
0.244905
0.242716
0.244986
0.240747
0.245069
0.24152
0.245158
0.241643
0.418528
0.533017
0.532611
0.533761
0.532746
0.533646
0.53261
0.533083
0.434913
0.243309
0.244888
0.242519
0.244735
0.241659
0.244582
0.243456
0.24443
0.242718
0.244277
0.25269
0.274768
0.244905
0.243358
0.244986
0.241676
0.245069
0.240571
0.245163
0.241016
0.245248
0.342099
0.532535
0.533991
0.532746
0.534002
0.532746
0.533845
0.532556
0.380818
0.245042
0.242238
0.244892
0.240959
0.244735
0.242765
0.244582
0.243366
0.24443
0.243763
0.277346
0.296738
0.244755
0.244986
0.242952
0.245069
0.240617
0.245158
0.240549
0.245259
0.241599
0.253966
0.489952
0.532729
0.534117
0.532877
0.534052
0.532741
0.524333
0.308198
0.242953
0.245049
0.241333
0.244888
0.241415
0.244735
0.243912
0.244582
0.243696
0.24443
0.317043
0.329033
0.250286
0.244186
0.245069
0.241765
0.245158
0.240175
0.245248
0.240735
0.245345
0.243373
0.366645
0.534021
0.532877
0.534135
0.532877
0.534107
0.441001
0.259875
0.245195
0.241717
0.245042
0.240316
0.244888
0.243248
0.244735
0.244391
0.244582
0.26157
0.376497
0.373183
0.270033
0.245069
0.243602
0.245158
0.240635
0.245248
0.240272
0.245346
0.241409
0.245442
0.284096
0.486825
0.533951
0.528815
0.533994
0.532677
0.353832
0.245349
0.242928
0.245195
0.240919
0.245042
0.241687
0.244888
0.24983
0.263052
0.272108
0.310406
0.447167
0.415062
0.304011
0.254988
0.245158
0.242298
0.245248
0.240312
0.245344
0.240749
0.245442
0.243476
0.263142
0.402493
0.532692
0.528329
0.532731
0.504712
0.314667
0.244874
0.245349
0.242039
0.245195
0.240265
0.245042
0.244428
0.276398
0.310923
0.345999
0.400484
0.493078
0.442805
0.348172
0.294187
0.244801
0.245248
0.241055
0.245344
0.240319
0.245442
0.242042
0.245545
0.259513
0.382078
0.523847
0.532481
0.533696
0.48368
0.310911
0.245503
0.243568
0.245349
0.241268
0.245195
0.24307
0.255138
0.318945
0.368744
0.435542
0.491281
0.518991
0.462999
0.395218
0.351199
0.265773
0.243506
0.245344
0.240622
0.245442
0.241372
0.245545
0.244143
0.262604
0.382271
0.520388
0.533344
0.532579
0.490778
0.323147
0.245706
0.245503
0.242796
0.245349
0.240428
0.245195
0.284633
0.371551
0.430853
0.504088
0.523247
0.523625
0.483275
0.434862
0.402187
0.304317
0.245344
0.242213
0.245442
0.24091
0.245545
0.242749
0.245648
0.276985
0.403509
0.520138
0.527592
0.533521
0.500875
0.363776
0.260542
0.244597
0.245503
0.242075
0.245349
0.244855
0.332893
0.429966
0.497818
0.521816
0.516416
0.506392
0.50242
0.467908
0.434508
0.343506
0.244988
0.245442
0.241503
0.245545
0.242197
0.245648
0.245233
0.310299
0.451087
0.520025
0.471186
0.505996
0.511643
0.430947
0.300423
0.245657
0.24396
0.245503
0.241718
0.245825
0.393079
0.480604
0.519816
0.521739
0.473363
0.488269
0.519045
0.496275
0.460093
0.3817
0.260833
0.243848
0.245545
0.241894
0.245648
0.243898
0.255985
0.368602
0.501231
0.519896
0.373637
0.371637
0.511562
0.501209
0.380478
0.267358
0.245657
0.243352
0.245503
0.245441
0.434026
0.498096
0.514431
0.492167
0.472853
0.506961
0.531617
0.517288
0.490655
0.4214
0.301757
0.245545
0.242863
0.245648
0.24387
0.245756
0.300777
0.44667
0.501766
0.466707
0.317233
0.318062
0.460292
0.501708
0.481117
0.349364
0.257321
0.245657
0.243169
0.245657
0.417393
0.463835
0.45626
0.456569
0.472544
0.53372
0.540092
0.531076
0.515599
0.466778
0.352252
0.248279
0.245648
0.243889
0.245756
0.271071
0.391831
0.501294
0.496166
0.345448
0.318061
0.316917
0.334634
0.482619
0.481967
0.462377
0.324288
0.252372
0.245657
0.245655
0.39267
0.425815
0.418745
0.461508
0.525511
0.551385
0.54592
0.540542
0.530978
0.503447
0.405965
0.282668
0.24514
0.245756
0.263701
0.350696
0.483239
0.501464
0.411243
0.318061
0.31758
0.318061
0.317713
0.358418
0.469829
0.46796
0.425226
0.301137
0.245242
0.247107
0.393176
0.417975
0.418367
0.517087
0.549582
0.556694
0.549569
0.546925
0.541416
0.527007
0.465341
0.342481
0.260717
0.271283
0.335529
0.443958
0.520802
0.488414
0.331252
0.317648
0.320761
0.324461
0.318574
0.318847
0.365851
0.454288
0.450568
0.364817
0.252735
0.257558
0.406932
0.42758
0.490348
0.5438
0.556046
0.557015
0.549996
0.549979
0.54801
0.541159
0.511183
0.410455
0.330488
0.356018
0.439726
0.510503
0.520975
0.440487
0.33072
0.332505
0.369042
0.380944
0.365054
0.342698
0.348147
0.389097
0.4401
0.378033
0.267174
0.286733
0.43459
0.45591
0.530443
0.553418
0.556853
0.55627
0.549999
0.549989
0.549984
0.548004
0.533029
0.476637
0.432712
0.467304
0.516527
0.534184
0.520505
0.409168
0.353065
0.401815
0.459257
0.472538
0.458699
0.422817
0.388958
0.389116
0.401161
0.36033
0.283149
0.356247
0.476702
0.488065
0.542785
0.556809
0.556859
0.554068
0.54999
0.547341
0.549972
0.549942
0.54209
0.522347
0.514467
0.532178
0.543519
0.540338
0.515116
0.430557
0.431636
0.490744
0.521812
0.527857
0.524593
0.508713
0.477888
0.440142
0.401757
0.352197
0.304305
0.44552
0.51734
0.523599
0.55113
0.556845
0.556913
0.55094
0.549698
0.487679
0.548055
0.546468
0.546079
0.544228
0.546287
0.546958
0.546851
0.537463
0.52181
0.48643
0.510195
0.532581
0.53323
0.533002
0.533373
0.532995
0.532651
0.513103
0.453806
0.391011
0.352154
0.449211
0.539849
0.549925
0.556797
0.556935
0.556581
0.547777
0.400058
0.313931
0.41462
0.524875
0.546809
0.546937
0.546985
0.546897
0.538052
0.53267
0.532434
0.531906
0.532994
0.533533
0.533006
0.534012
0.533006
0.533993
0.533005
0.533597
0.526477
0.479069
0.434091
0.459231
0.545642
0.556729
0.5569
0.555879
0.463407
0.545783
0.28441
0.254777
0.265703
0.358693
0.523123
0.546925
0.546808
0.53146
0.391522
0.467982
0.50997
0.527529
0.533904
0.532952
0.533983
0.532963
0.533977
0.532955
0.533914
0.532939
0.533642
0.522932
0.510187
0.49129
0.450357
0.556212
0.556573
0.512094
0.3212
0.419469
0.301949
0.254971
0.254789
0.262806
0.379705
0.537025
0.478118
0.314832
0.194396
0.245718
0.311198
0.355
0.395116
0.426966
0.44629
0.450056
0.442118
0.432865
0.422692
0.407044
0.38268
0.395578
0.406952
0.38295
0.299594
0.432803
0.532494
0.365109
0.310691
0.329767
0.343944
0.257178
0.26709
0.291086
0.339933
0.406289
0.326349
0.192816
0.192607
0.187437
0.192612
0.190033
0.194674
0.200898
0.209961
0.209019
0.207638
0.20179
0.20093
0.194768
0.19347
0.196207
0.211061
0.218109
0.253924
0.366574
0.40443
0.313358
0.315022
0.324076
0.378359
0.273896
0.298318
0.327201
0.358519
0.390788
0.30099
0.192607
0.186826
0.192607
0.187342
0.192607
0.188106
0.192607
0.188626
0.192607
0.188325
0.192607
0.187783
0.192607
0.187332
0.192607
0.188641
0.192607
0.258072
0.380951
0.324188
0.315022
0.310401
0.326739
0.396683
0.296727
0.319783
0.337628
0.356565
0.395597
0.304556
0.191549
0.192607
0.187104
0.192607
0.187725
0.192607
0.188324
0.192607
0.188404
0.192607
0.188001
0.192607
0.187448
0.192607
0.187488
0.192607
0.191959
0.27978
0.396403
0.315026
0.312352
0.314867
0.335982
0.404023
0.306567
0.319637
0.320432
0.332639
0.395246
0.304655
0.192607
0.187557
0.192607
0.187539
0.192607
0.188013
0.192607
0.188389
0.192607
0.188169
0.192607
0.1878
0.192607
0.187336
0.192607
0.189776
0.192607
0.31316
0.400669
0.312844
0.314866
0.310466
0.346185
0.406919
0.306716
0.307137
0.307313
0.313016
0.380122
0.311007
0.192279
0.192607
0.187337
0.192607
0.187815
0.192607
0.188251
0.192607
0.188268
0.192607
0.188034
0.192607
0.187644
0.192607
0.187982
0.192607
0.193997
0.348062
0.400465
0.314866
0.312126
0.314695
0.350798
0.414212
0.306866
0.307017
0.307168
0.307321
0.359766
0.331412
0.199675
0.187765
0.192607
0.18761
0.192607
0.187998
0.192607
0.188292
0.192607
0.18814
0.192607
0.187902
0.192607
0.187481
0.192607
0.191135
0.203094
0.368071
0.375973
0.312241
0.314695
0.31065
0.348521
0.435208
0.319835
0.30825
0.307321
0.307473
0.350986
0.350112
0.215098
0.192607
0.187347
0.192607
0.187818
0.192607
0.188204
0.192607
0.188217
0.192607
0.188078
0.192607
0.187754
0.192607
0.188331
0.192607
0.237279
0.367337
0.35109
0.314866
0.312479
0.314695
0.338798
0.458821
0.366352
0.345923
0.322996
0.30922
0.351751
0.364146
0.232232
0.187642
0.192607
0.187619
0.192607
0.187984
0.192607
0.188258
0.192607
0.188148
0.192607
0.187973
0.192607
0.187493
0.192607
0.192312
0.284401
0.366029
0.330097
0.312505
0.314866
0.311791
0.330628
0.484161
0.42416
0.401822
0.361417
0.324464
0.363465
0.378048
0.243836
0.192607
0.187364
0.192607
0.187854
0.192607
0.18821
0.192607
0.188223
0.192607
0.18814
0.192607
0.187816
0.192607
0.18859
0.200549
0.321661
0.367359
0.317236
0.315022
0.313347
0.314866
0.329784
0.504479
0.471696
0.450785
0.409858
0.355656
0.381946
0.391528
0.247932
0.187506
0.192607
0.187723
0.192607
0.18804
0.192607
0.188286
0.192607
0.188207
0.192607
0.188069
0.192607
0.187507
0.192607
0.214926
0.349252
0.379355
0.315142
0.313507
0.315022
0.313403
0.35796
0.516388
0.500553
0.486614
0.452761
0.394946
0.398287
0.409434
0.24738
0.192607
0.187587
0.192607
0.188
0.192607
0.188287
0.192607
0.188298
0.192607
0.188261
0.192607
0.187917
0.192607
0.188795
0.233522
0.374703
0.385096
0.315292
0.315142
0.314609
0.315022
0.42596
0.518238
0.506564
0.502133
0.478794
0.430584
0.406681
0.436025
0.246685
0.187715
0.192607
0.187965
0.192607
0.188187
0.192607
0.188389
0.192607
0.188349
0.192607
0.188258
0.192607
0.187624
0.192607
0.250947
0.403503
0.387436
0.324076
0.314891
0.326419
0.366434
0.50737
0.517722
0.492021
0.499699
0.4867
0.448852
0.409127
0.466784
0.241072
0.192607
0.187945
0.192607
0.188239
0.192607
0.188439
0.192607
0.188466
0.192607
0.188488
0.192607
0.188191
0.192607
0.189125
0.262839
0.439511
0.396039
0.339136
0.336795
0.402387
0.491704
0.545353
0.527341
0.484545
0.476935
0.479332
0.451687
0.409425
0.494622
0.228278
0.188277
0.192607
0.188284
0.192607
0.188402
0.192607
0.188582
0.192607
0.188589
0.192607
0.188572
0.192607
0.188016
0.192607
0.266741
0.470111
0.412126
0.361541
0.405802
0.495503
0.543439
0.556969
0.540877
0.509886
0.461135
0.459268
0.447018
0.409902
0.508985
0.219299
0.192607
0.188313
0.192607
0.188518
0.192607
0.188654
0.192607
0.188729
0.192607
0.188826
0.192607
0.188616
0.192607
0.189752
0.265649
0.486688
0.427532
0.402708
0.484698
0.539571
0.556382
0.557067
0.54949
0.533197
0.486142
0.445801
0.439337
0.411351
0.508945
0.224358
0.188819
0.192607
0.188583
0.192607
0.188661
0.192607
0.188832
0.192607
0.188914
0.192607
0.18898
0.192607
0.188512
0.192607
0.263755
0.49612
0.438261
0.461995
0.526884
0.55303
0.557145
0.557041
0.552419
0.545563
0.517991
0.455641
0.436567
0.417253
0.507439
0.231606
0.192607
0.188583
0.192607
0.188823
0.192607
0.188921
0.192607
0.189007
0.192607
0.189145
0.192607
0.189103
0.192607
0.189312
0.262904
0.506697
0.450566
0.505351
0.542636
0.557037
0.557015
0.550159
0.552462
0.550872
0.534367
0.485954
0.439293
0.427428
0.510698
0.241323
0.189312
0.192607
0.188877
0.192607
0.188967
0.192607
0.189131
0.192607
0.1892
0.192607
0.18942
0.192607
0.188875
0.192607
0.262108
0.51402
0.471918
0.522956
0.548714
0.556981
0.557276
0.536092
0.552462
0.552889
0.543614
0.511105
0.450923
0.441091
0.515
0.253268
0.192607
0.18889
0.192607
0.189176
0.192607
0.189262
0.192607
0.189343
0.192607
0.189487
0.192607
0.18955
0.192607
0.18971
0.2619
0.517001
0.491914
0.530759
0.55147
0.557261
0.556946
0.536064
0.54838
0.552873
0.548385
0.525902
0.47077
0.457782
0.517027
0.267187
0.189776
0.192607
0.189277
0.192607
0.189362
0.192607
0.18952
0.192607
0.18958
0.192607
0.18987
0.192607
0.189457
0.192607
0.260985
0.518221
0.510328
0.536557
0.553751
0.556971
0.557242
0.536256
0.548262
0.552958
0.550489
0.534222
0.492525
0.476248
0.517005
0.282759
0.192607
0.189382
0.192607
0.189628
0.192607
0.189706
0.192607
0.189771
0.192607
0.189945
0.192607
0.190018
0.192607
0.190452
0.259006
0.518319
0.527749
0.542518
0.556193
0.557246
0.555667
0.536269
0.548291
0.552887
0.551824
0.539888
0.509373
0.494111
0.517458
0.293573
0.190339
0.192607
0.189818
0.192607
0.189871
0.192607
0.189995
0.192607
0.190054
0.192607
0.190379
0.192607
0.190043
0.192607
0.2548
0.448475
0.535717
0.547764
0.557056
0.556941
0.550423
0.544059
0.548365
0.552966
0.552804
0.544378
0.522192
0.509262
0.517004
0.287184
0.192607
0.190061
0.192607
0.190134
0.192607
0.190179
0.192607
0.190233
0.192607
0.190423
0.192607
0.190523
0.192607
0.190791
0.231109
0.331714
0.527652
0.549222
0.556888
0.556472
0.498602
0.529566
0.548419
0.552898
0.553568
0.548473
0.532818
0.524133
0.48782
0.253654
0.190679
0.192607
0.190312
0.192607
0.190316
0.192607
0.190396
0.192607
0.190467
0.192607
0.190824
0.192607
0.190543
0.192607
0.194839
0.215444
0.35149
0.536777
0.554854
0.543444
0.418639
0.464347
0.550145
0.553594
0.553774
0.552895
0.540059
0.528276
0.349781
0.207109
0.192607
0.190432
0.192607
0.190457
0.192607
0.190483
0.192607
0.190542
0.192607
0.190738
0.192607
0.190957
0.192607
0.190542
0.192607
0.190341
0.23429
0.462072
0.54677
0.526721
0.410604
0.433559
0.532327
0.553593
0.553607
0.553758
0.544989
0.499268
0.267052
0.192608
0.190567
0.192607
0.190572
0.192607
0.190538
0.192607
0.190613
0.192607
0.190669
0.192607
0.191052
0.192607
0.190756
0.192607
0.1901
0.192607
0.203854
0.38844
0.538522
0.47624
0.409581
0.436773
0.483133
0.504345
0.552364
0.553514
0.547007
0.414824
0.234545
0.191497
0.192607
0.190653
0.192607
0.1906
0.192607
0.190642
0.192607
0.190706
0.192607
0.190873
0.192607
0.191109
0.192607
0.190546
0.192607
0.19004
0.197863
0.36901
0.510621
0.451384
0.410585
0.443697
0.456394
0.463435
0.508555
0.53071
0.501244
0.371574
0.233577
0.192607
0.190598
0.192607
0.190725
0.192607
0.190718
0.192607
0.190808
0.192607
0.190851
0.192607
0.191216
0.192607
0.190848
0.192607
0.190244
0.192607
0.19645
0.382197
0.489693
0.449567
0.40993
0.453751
0.456393
0.456393
0.48536
0.497639
0.47482
0.383403
0.247842
0.191867
0.192607
0.190856
0.192607
0.190872
0.192607
0.19094
0.192607
0.191017
0.192607
0.191147
0.192607
0.191394
0.192607
0.190827
0.192607
0.190186
0.196729
0.400857
0.486794
0.452656
0.410585
0.466069
0.461099
0.456393
0.482792
0.48906
0.478711
0.405889
0.279433
0.192607
0.190999
0.192607
0.19116
0.192607
0.191167
0.192607
0.191273
0.192607
0.191305
0.192607
0.191662
0.192607
0.191319
0.192607
0.190602
0.192607
0.199026
0.420571
0.485571
0.457813
0.430166
0.481269
0.467591
0.461833
0.485595
0.489615
0.478838
0.425427
0.316889
0.192847
0.192607
0.191466
0.192607
0.191491
0.192607
0.191559
0.192607
0.191635
0.192607
0.191735
0.192607
0.191867
0.192607
0.191321
0.192607
0.190788
0.206681
0.441084
0.487763
0.465772
0.455802
0.500837
0.473661
0.469586
0.48844
0.490108
0.479434
0.441055
0.349387
0.207443
0.191868
0.192607
0.191945
0.192607
0.191943
0.192607
0.192028
0.192607
0.192057
0.192607
0.192386
0.192607
0.192003
0.192607
0.191101
0.192607
0.223421
0.462098
0.495315
0.478784
0.487272
0.520988
0.478741
0.474585
0.490129
0.491368
0.482068
0.454741
0.379457
0.238179
0.192607
0.192358
0.192607
0.192369
0.192607
0.192395
0.192607
0.192428
0.192607
0.192474
0.193333
0.192495
0.192607
0.191991
0.192607
0.191696
0.252548
0.486186
0.505728
0.498136
0.515543
0.535948
0.482151
0.476743
0.490406
0.492594
0.485175
0.466242
0.410823
0.276495
0.200304
0.197354
0.197998
0.196269
0.196353
0.197556
0.199849
0.200937
0.202384
0.206411
0.211984
0.208804
0.196774
0.192607
0.191826
0.192607
0.296365
0.504384
0.516847
0.517784
0.532425
0.543481
0.484068
0.477366
0.48951
0.493048
0.487735
0.476354
0.440866
0.317575
0.230153
0.224109
0.226576
0.222105
0.22214
0.224956
0.230425
0.232986
0.236919
0.245297
0.2532
0.246361
0.217678
0.19412
0.192607
0.195811
0.3475
0.513579
0.528518
0.531414
0.540552
0.546106
0.485702
0.478651
0.488722
0.493283
0.491462
0.486981
0.469182
0.358129
0.269187
0.26538
0.273017
0.267934
0.267641
0.270519
0.276631
0.279674
0.285494
0.29483
0.300714
0.289254
0.249459
0.209626
0.195573
0.224299
0.394507
0.516344
0.536242
0.539105
0.544238
0.546718
0.488233
0.481973
0.490398
0.497747
0.500197
0.498289
0.497469
0.395752
0.293434
0.291194
0.307641
0.306398
0.306165
0.307708
0.311679
0.31452
0.320772
0.327985
0.329986
0.313618
0.274574
0.236933
0.217855
0.279379
0.435368
0.512928
0.535839
0.541785
0.545967
0.54673
0.492222
0.488231
0.498088
0.507605
0.511293
0.50988
0.510898
0.422548
0.300139
0.291896
0.314939
0.318876
0.319193
0.319918
0.321887
0.3246
0.330076
0.334198
0.334192
0.315519
0.283386
0.256644
0.251477
0.334109
0.470264
0.507194
0.516726
0.539911
0.546027
0.546627
0.497703
0.497448
0.508884
0.516452
0.518335
0.515477
0.510837
0.430015
0.298688
0.281096
0.302404
0.310097
0.310862
0.311615
0.312994
0.315466
0.319869
0.323106
0.321425
0.304545
0.278796
0.259306
0.271844
0.36065
0.489892
0.509567
0.509627
0.518196
0.535466
0.533381
0.503886
0.50695
0.516379
0.519985
0.518964
0.51418
0.505021
0.427339
0.295659
0.263974
0.274984
0.285244
0.286102
0.287017
0.287725
0.289365
0.291501
0.292236
0.289265
0.278377
0.265762
0.259548
0.274529
0.365248
0.501485
0.519524
0.511819
0.511358
0.511452
0.513119
0.510199
0.514549
0.520031
0.520527
0.517756
0.512755
0.503842
0.430358
0.297232
0.261993
0.261992
0.262688
0.262857
0.263661
0.264037
0.264834
0.265536
0.264613
0.261857
0.259921
0.259938
0.25979
0.274661
0.374537
0.509459
0.526071
0.523067
0.518459
0.513266
0.511146
0.517151
0.521738
0.524564
0.523402
0.52029
0.516793
0.51136
0.450752
0.312999
0.262052
0.261944
0.261696
0.261377
0.261347
0.26122
0.260972
0.26073
0.260652
0.260501
0.260255
0.259857
0.259938
0.280858
0.40072
0.515753
0.528185
0.530873
0.52941
0.524961
0.520591
0.527685
0.532576
0.533896
0.532217
0.529482
0.526268
0.52116
0.481677
0.348977
0.26215
0.262054
0.261948
0.261698
0.26139
0.261348
0.26122
0.260972
0.260692
0.260652
0.260501
0.260255
0.2602
0.306822
0.448386
0.523857
0.530038
0.534852
0.536253
0.534713
0.531382
0.542768
0.546039
0.545786
0.544004
0.541055
0.536532
0.529545
0.504923
0.393426
0.27101
0.262118
0.262054
0.261949
0.261698
0.261429
0.261358
0.261232
0.260972
0.260675
0.260652
0.260704
0.277665
0.363413
0.498556
0.53123
0.534275
0.538337
0.540936
0.541512
0.539468
0.556138
0.55668
0.555463
0.553466
0.550408
0.545536
0.538219
0.521887
0.437921
0.299214
0.264216
0.266794
0.267291
0.268593
0.270179
0.272134
0.273005
0.270306
0.267332
0.268455
0.279691
0.324629
0.432571
0.523796
0.537577
0.540422
0.543051
0.54542
0.547097
0.546644
0.561905
0.561847
0.560535
0.558235
0.555491
0.551615
0.546103
0.535508
0.482049
0.349848
0.290081
0.292342
0.294034
0.29716
0.30088
0.30497
0.306605
0.302519
0.298422
0.305538
0.332242
0.391246
0.48088
0.53358
0.542779
0.545818
0.547781
0.549679
0.551645
0.552406
0.56194
0.561931
0.560789
0.557626
0.555069
0.552457
0.549803
0.544562
0.516985
0.418985
0.352035
0.346712
0.346531
0.34948
0.353799
0.358663
0.360797
0.358368
0.359213
0.375773
0.410661
0.457791
0.505605
0.531618
0.543536
0.548206
0.550566
0.552643
0.554278
0.554522
0.561703
0.561815
0.557436
0.551833
0.549296
0.548193
0.548
0.546977
0.535353
0.48561
0.435099
0.420832
0.413825
0.413819
0.417213
0.421521
0.424273
0.426258
0.434167
0.455606
0.483447
0.503865
0.515833
0.522257
0.539129
0.547528
0.551161
0.553844
0.554528
0.554533
0.496821
0.545837
0.546894
0.539911
0.538034
0.539632
0.542958
0.544151
0.537056
0.521093
0.502407
0.488505
0.474741
0.471203
0.473148
0.476247
0.479573
0.48487
0.494269
0.508747
0.521049
0.52457
0.521609
0.518726
0.527696
0.544422
0.550463
0.553085
0.554519
0.554573
0.296023
0.464244
0.533934
0.533494
0.533466
0.537275
0.540114
0.539612
0.534873
0.531528
0.529544
0.521841
0.510451
0.50686
0.5078
0.509782
0.512925
0.517548
0.522246
0.526411
0.530974
0.533814
0.529714
0.51869
0.516432
0.539049
0.548476
0.549264
0.553203
0.554396
0.173106
0.273039
0.470979
0.535666
0.536354
0.538531
0.538879
0.537114
0.536198
0.537126
0.53455
0.526748
0.522656
0.523164
0.524055
0.525307
0.527374
0.529568
0.530909
0.531659
0.533987
0.537808
0.537751
0.525833
0.516205
0.529703
0.543558
0.539081
0.527098
0.472705
0.168824
0.173755
0.269368
0.458456
0.538244
0.538391
0.538632
0.538185
0.539521
0.540144
0.534035
0.526829
0.527643
0.530513
0.531444
0.532234
0.533408
0.534474
0.535068
0.535178
0.536068
0.538631
0.539746
0.536956
0.519555
0.518205
0.537928
0.527172
0.42559
0.310546
0.168824
0.16897
0.181975
0.264701
0.423408
0.527559
0.538238
0.540424
0.54051
0.540126
0.530306
0.52786
0.532986
0.535575
0.535867
0.53629
0.53697
0.537545
0.537887
0.537927
0.538092
0.539218
0.539731
0.53979
0.531155
0.518198
0.503137
0.412925
0.296337
0.262394
0.168824
0.169212
0.184331
0.220817
0.272047
0.383971
0.505833
0.539942
0.540425
0.536964
0.530356
0.53283
0.538252
0.539072
0.538806
0.538921
0.539179
0.539376
0.539439
0.53943
0.539382
0.539645
0.539828
0.539762
0.536308
0.516037
0.428495
0.316789
0.262734
0.262568
0.169079
0.17426
0.199922
0.238933
0.273193
0.292894
0.365399
0.495096
0.540189
0.529541
0.532865
0.539226
0.539551
0.539591
0.539595
0.539633
0.539639
0.539676
0.539682
0.539703
0.539723
0.539744
0.539767
0.539835
0.53778
0.511634
0.406157
0.314753
0.266438
0.262743
0.169413
0.190064
0.225495
0.270594
0.30689
0.314276
0.320947
0.376493
0.493336
0.527322
0.536765
0.539497
0.539542
0.539549
0.539582
0.539398
0.539718
0.539682
0.539726
0.539724
0.539745
0.539765
0.539835
0.539817
0.538888
0.515225
0.424163
0.34134
0.284897
0.262918
0.177636
0.217512
0.258913
0.30563
0.344469
0.359317
0.346736
0.353354
0.424067
0.516192
0.532114
0.535143
0.53693
0.536077
0.531014
0.531383
0.53962
0.539748
0.539683
0.539727
0.539724
0.539685
0.539818
0.539903
0.539574
0.525029
0.467423
0.393359
0.322371
0.266292
0.206693
0.257134
0.302439
0.347003
0.381584
0.401088
0.392124
0.37524
0.418532
0.499139
0.527528
0.531235
0.531777
0.529307
0.517043
0.503446
0.526584
0.539628
0.53977
0.539683
0.539631
0.539538
0.539862
0.539858
0.539603
0.533154
0.506126
0.45317
0.378121
0.299798
0.257383
0.311329
0.35897
0.39824
0.422745
0.434919
0.43003
0.414185
0.43477
0.497432
0.52769
0.53144
0.531643
0.531407
0.518728
0.494597
0.50328
0.539196
0.539636
0.539691
0.539414
0.539329
0.539853
0.539882
0.539567
0.536959
0.526299
0.501471
0.445743
0.371196
0.323276
0.380433
0.425952
0.454631
0.46602
0.466783
0.459718
0.446115
0.459767
0.504933
0.52922
0.531387
0.531516
0.531384
0.525576
0.494717
0.495431
0.528164
0.536785
0.539436
0.539099
0.538715
0.539452
0.539904
0.540052
0.539527
0.535953
0.527073
0.501668
0.450079
0.396463
0.453289
0.488289
0.50203
0.504073
0.499788
0.487794
0.46817
0.479166
0.511785
0.529212
0.531258
0.531376
0.528045
0.520859
0.498929
0.497181
0.506448
0.507271
0.536135
0.537429
0.536857
0.538407
0.540186
0.54185
0.542946
0.542677
0.539649
0.528672
0.499647
0.46234
0.507169
0.525091
0.529398
0.529191
0.525575
0.515048
0.492316
0.489154
0.505303
0.5138
0.506796
0.499668
0.466364
0.481245
0.498861
0.498796
0.46494
0.442213
0.516128
0.532516
0.53326
0.538061
0.542241
0.54558
0.54771
0.548704
0.548033
0.541369
0.52001
0.503956
0.533009
0.541682
0.542745
0.542255
0.540482
0.534973
0.518937
0.498657
0.490054
0.464732
0.435088
0.428581
0.428227
0.428257
0.490228
0.489485
0.428268
0.427397
0.465902
0.515829
0.531535
0.540816
0.547054
0.55028
0.552104
0.553414
0.553986
0.550433
0.534813
0.525532
0.545061
0.549046
0.547906
0.546952
0.546712
0.545095
0.538019
0.516098
0.483776
0.42907
0.427049
0.428227
0.427056
0.428227
0.446828
0.442694
0.427433
0.428227
0.433225
0.501781
0.535486
0.547209
0.551758
0.553075
0.553693
0.555121
0.556625
0.556376
0.548527
0.53999
0.551077
0.550434
0.546878
0.545233
0.546539
0.546723
0.546332
0.534287
0.495229
0.430728
0.428227
0.427056
0.428227
0.427205
0.428227
0.427479
0.428227
0.427667
0.430072
0.509475
0.544165
0.551809
0.551865
0.551621
0.551051
0.552995
0.556631
0.558191
0.556514
0.549473
0.553088
0.548325
0.542234
0.537302
0.542145
0.5467
0.546998
0.543936
0.519526
0.456111
0.427865
0.428227
0.427514
0.428227
0.427364
0.428227
0.427598
0.428227
0.446692
0.526479
0.550845
0.551857
0.550245
0.543497
0.542516
0.546604
0.553067
0.558204
0.558224
0.553986
0.553574
0.546521
0.539812
0.532429
0.532528
0.541996
0.547009
0.547008
0.536133
0.498845
0.440719
0.427927
0.428227
0.427621
0.428227
0.427601
0.428227
0.43535
0.48858
0.540871
0.551115
0.550658
0.541453
0.528713
0.535001
0.54273
0.549769
0.558181
0.558234
0.554005
0.553975
0.54802
0.542759
0.533255
0.524805
0.535228
0.545252
0.547025
0.54222
0.525115
0.482838
0.447357
0.439803
0.428227
0.427614
0.428227
0.429367
0.466279
0.523167
0.547594
0.551047
0.545412
0.530422
0.527297
0.537244
0.544784
0.549234
0.556888
0.5581
0.553875
0.553175
0.548369
0.545509
0.535336
0.524157
0.531963
0.543312
0.547037
0.543975
0.535175
0.519422
0.494143
0.477742
0.439716
0.428227
0.429476
0.452678
0.503627
0.536477
0.548311
0.54983
0.54241
0.527484
0.527366
0.536492
0.542347
0.542406
0.538965
0.518399
0.500805
0.532189
0.540048
0.541851
0.532091
0.524123
0.533129
0.543876
0.547073
0.54523
0.539639
0.532819
0.52449
0.512765
0.475141
0.442949
0.45477
0.491082
0.522831
0.539701
0.547771
0.548494
0.543379
0.530572
0.527291
0.530993
0.534779
0.530486
0.449743
0.308149
0.273551
0.412196
0.524651
0.534515
0.526152
0.524431
0.537563
0.545637
0.547685
0.546832
0.542313
0.535984
0.530911
0.526137
0.50936
0.48531
0.497175
0.515965
0.528378
0.540142
0.547211
0.548451
0.54546
0.537411
0.52833
0.525648
0.525377
0.422151
0.220456
0.117668
0.110618
0.185072
0.366899
0.511351
0.522481
0.530927
0.542334
0.547009
0.54793
0.547922
0.54337
0.535804
0.531401
0.530402
0.526003
0.519811
0.523344
0.526389
0.531137
0.540692
0.547203
0.548233
0.546559
0.541166
0.528485
0.519514
0.364821
0.1754
0.0993487
0.0832968
0.0971352
0.103256
0.156143
0.330218
0.518496
0.532619
0.544022
0.547028
0.546701
0.546019
0.540341
0.534173
0.53318
0.53281
0.532626
0.532073
0.531903
0.532388
0.535107
0.540988
0.545112
0.545255
0.545044
0.541014
0.520457
0.338527
0.159579
0.104213
0.088342
0.0833608
0.0971767
0.101093
0.119665
0.168761
0.349873
0.525332
0.544466
0.546898
0.535579
0.505835
0.489926
0.493981
0.505829
0.525547
0.532638
0.532672
0.532638
0.529264
0.519864
0.507793
0.50558
0.513451
0.521162
0.479215
0.329612
0.179199
0.135362
0.110913
0.0931513
0.0834247
0.0972477
0.110017
0.133132
0.164866
0.214107
0.353692
0.46036
0.476085
0.455388
0.426229
0.412339
0.414416
0.425485
0.45745
0.497218
0.512158
0.49392
0.46697
0.440418
0.420386
0.409781
0.407267
0.390063
0.310792
0.221404
0.181513
0.153741
0.129649
0.105361
0.0834884
0.0973169
0.129436
0.161289
0.193855
0.229351
0.277588
0.341734
0.374315
0.378724
0.383086
0.383082
0.383083
0.383682
0.393475
0.422668
0.439648
0.415722
0.392271
0.38293
0.377129
0.363791
0.350908
0.326416
0.281377
0.239945
0.211845
0.184147
0.154331
0.123948
0.0864728
0.107504
0.156662
0.196677
0.23739
0.274707
0.307185
0.342449
0.364907
0.375974
0.384757
0.385682
0.384832
0.384608
0.388944
0.401473
0.405739
0.390846
0.379952
0.378943
0.377169
0.367718
0.359391
0.341602
0.309004
0.28036
0.251796
0.219211
0.183937