/*--------------------------------*- C++ -*----------------------------------*\
| =========                 |                                                 |
| \\      /  F ield         | OpenFOAM: The Open Source CFD Toolbox           |
|  \\    /   O peration     | Version:  2.3.0                                 |
|   \\  /    A nd           | Web:      www.OpenFOAM.org                      |
|    \\/     M anipulation  |                                                 |
\*---------------------------------------------------------------------------*/
FoamFile
{
    version     2.0;
    format      ascii;
    class       volScalarField;
    location    "0.48";
    object      epsilon.air;
}
// * * * * * * * * * * * * * * * * * * * * * * * * * * * * * * * * * * * * * //

dimensions      [0 2 -3 0 0 0 0];

internalField   nonuniform List<scalar> 
6000
(
121.397
18.1076
11.0295
9.93009
9.56832
9.46561
9.49374
9.61006
9.67868
9.54417
9.39123
9.33535
9.35489
9.41318
9.36265
9.44498
9.42794
9.32801
9.3017
9.3694
9.47982
9.45472
9.33525
9.32105
9.35859
9.515
9.94999
11.1475
18.7374
121.304
69.1452
22.9582
14.6301
12.4054
11.7124
11.3464
11.322
11.5122
11.5008
11.0728
10.7638
10.7838
10.9954
10.9408
10.651
10.9671
11.1822
10.8771
10.649
10.7343
10.9951
11.0473
10.8383
10.8396
10.9985
11.365
12.2137
14.8411
23.7086
68.596
43.5372
19.7511
13.7895
11.8597
11.1047
10.7725
10.7684
10.9673
11.1438
11.0866
10.8823
10.7132
10.6323
10.537
10.4761
10.588
10.7188
10.7454
10.8095
10.8844
10.83
10.5822
10.3102
10.2199
10.2967
10.6672
11.5594
13.7983
20.2204
44.6846
33.0713
16.1817
12.4639
11.1468
10.7217
10.6037
10.6227
10.7946
11.1637
11.2975
11.0482
10.7432
10.6076
10.5281
10.4386
10.5985
10.6858
10.7952
11.0175
11.184
10.975
10.4855
10.1543
9.931
9.86156
10.0859
10.8129
12.4697
16.5153
33.6226
28.8946
14.8085
11.6638
10.6331
10.4951
10.6759
10.8713
11.181
11.7559
12.1054
11.721
11.189
10.9312
10.868
10.7688
10.9639
11.0483
11.2773
11.7353
12.0919
11.7192
10.932
10.4302
10.0592
9.81599
9.88487
10.4836
12.0794
16.2179
29.6763
31.6656
16.1913
12.6485
11.4062
11.1026
11.215
11.5885
12.2705
13.3023
13.902
13.2246
12.3614
11.9771
11.835
11.6616
11.9425
12.1623
12.4911
13.2806
14.0259
13.4139
12.1249
11.2778
10.7914
10.5673
10.7286
11.4808
13.3126
17.6495
33.2737
36.6071
17.5409
14.0182
12.9656
12.7746
13.0823
13.7589
14.7031
15.9108
16.435
15.4315
14.366
13.8729
13.4228
13.1449
13.5203
14.073
14.5372
15.5367
16.6317
16.0599
14.6388
13.6362
12.9693
12.541
12.4185
12.8219
14.2129
18.0865
36.0863
34.3356
16.8535
13.6737
12.9095
13.2249
14.1441
15.5264
17.3054
19.0681
19.708
18.1111
16.8509
16.0545
15.3524
15.0141
15.4348
16.2264
17.0422
18.1963
19.7419
19.2997
17.5879
15.7919
14.3784
13.3333
12.6097
12.5693
13.7301
17.2077
32.8424
28.9197
15.1094
12.658
12.2454
12.7605
13.9413
15.6986
18.009
20.5064
22.749
20.7056
18.965
17.8225
17.0445
16.7449
17.1211
17.9746
19.1405
20.7198
22.7598
20.8009
18.6691
16.2709
14.3262
12.911
11.9848
11.7065
12.3508
14.8146
26.4914
24.6603
13.7755
11.7431
11.5523
12.1674
13.4119
15.238
17.5418
20.1607
22.9509
22.3918
20.2307
18.8735
18.0442
17.7869
18.1388
19.0577
20.4284
22.4842
23.5067
20.6602
18.2271
15.8545
13.882
12.3847
11.3491
10.8815
11.1303
13.0283
22.1666
21.0624
12.7388
11.0084
10.9598
11.631
12.8856
14.6704
16.8948
19.45
22.36
24.2334
21.5062
19.6493
18.61
18.3123
18.7345
19.8713
21.6764
24.2273
23.132
20.15
17.6423
15.4052
13.5121
12.0336
10.9374
10.3117
10.2767
11.7941
18.2455
17.9506
11.8426
10.3869
10.4371
11.1166
12.3453
14.0553
16.222
18.8017
21.9533
26.0923
23.4414
20.7166
19.2613
18.8573
19.437
21.017
23.6294
26.4681
22.9518
19.6746
17.1394
15.0173
13.2751
11.8716
10.7652
9.96018
9.65642
10.6228
14.4467
15.3048
11.0632
9.87503
9.97929
10.6536
11.805
13.4053
15.4879
18.0765
21.3066
25.9674
25.6533
22.1724
20.2249
19.655
20.4836
22.6169
26.2013
28.0593
22.9031
19.3441
16.7432
14.7495
13.1923
11.9325
10.8341
9.87419
9.35302
9.84808
12.4125
13.7475
10.6566
9.56715
9.65757
10.2641
11.3171
12.7785
14.7269
17.241
20.4398
24.7624
27.4792
23.97
21.4073
20.6872
21.7733
24.5836
28.8167
28.4386
22.9168
19.1488
16.5323
14.6791
13.3133
12.2005
11.1298
10.0965
9.57513
9.98474
13.0272
13.9011
10.7431
9.65394
9.5851
10.0282
10.9301
12.2456
14.0392
16.4198
19.4828
23.4929
27.3395
25.1378
22.488
21.7325
23.0607
26.3667
30.4401
28.1954
22.9691
19.2188
16.648
14.9148
13.7395
12.843
11.8714
10.9661
10.5658
10.7871
16.8813
15.6335
11.1157
10.2173
9.81941
10.031
10.7147
11.8688
13.514
15.7345
18.626
22.3125
26.1825
25.5896
23.3443
22.7235
24.1425
27.3827
30.7215
27.9607
23.2561
19.6945
17.2395
15.6688
14.7408
14.1913
13.5812
12.6799
12.1059
12.2263
22.9747
18.6888
11.5794
11.3509
10.5542
10.2874
10.7296
11.7056
13.1984
15.2629
17.9483
21.2766
24.7724
25.1761
23.8581
23.7484
25.1954
27.9197
30.491
28.068
23.9614
20.7746
18.5472
17.2195
16.6691
16.7785
16.3283
14.8586
13.7363
13.9989
27.6583
21.4755
12.0697
12.0814
11.8052
10.9213
10.9927
11.7526
13.1038
15.0071
17.4685
20.4497
23.5704
24.4631
24.414
25.1913
26.4712
28.1447
30.0023
28.4027
25.0553
22.3956
20.5816
19.6657
19.7133
20.7983
19.6775
17.4083
15.7778
16.3636
32.1522
23.8121
12.6499
12.4153
12.995
11.9192
11.5276
12.0075
13.1866
14.9404
17.196
19.9346
22.7532
23.8374
25.2452
27.3479
28.4391
28.6666
29.7307
29.2734
26.6332
24.4691
23.1891
22.8326
23.7923
25.8439
23.361
20.3259
18.4009
19.0656
36.4758
25.9839
13.2753
12.6611
13.8012
13.1011
12.2526
12.4789
13.4463
15.0444
17.1691
19.7926
22.3243
23.526
26.2104
29.5992
30.7232
29.5297
29.8818
30.7397
28.9123
27.067
26.2319
26.5416
28.7226
31.2479
27.5049
23.9399
21.7095
22.5261
42.3042
27.8548
13.8206
12.8391
14.056
14.288
13.1428
13.0833
13.8783
15.3429
17.3712
19.9711
21.8922
23.3608
26.7048
29.9255
31.0863
29.9739
29.9982
31.7366
31.8345
30.2831
29.7961
30.7806
34.5237
37.4238
32.6172
28.3251
25.5816
26.8008
49.8631
29.319
14.2504
12.9137
13.868
14.9683
13.9814
13.7384
14.408
15.7646
17.7385
20.1691
21.3716
23.3765
26.7469
28.3554
29.2878
29.8517
29.9591
31.8291
34.2594
34.0563
33.8686
35.9021
41.869
44.9406
38.7001
33.224
29.6809
30.742
59.9088
30.5489
14.6254
12.9707
13.5447
14.9132
14.606
14.3096
14.9114
16.0719
17.9233
19.6974
21.003
23.6474
26.0683
26.6342
27.5263
28.876
29.9323
31.6721
34.9518
37.8308
38.3148
42.0047
51.0099
53.3227
44.9115
37.9341
33.1918
33.8885
67.1602
31.7137
15.0081
13.1007
13.3297
14.491
14.9647
14.7778
15.3084
16.4376
17.8771
19.1331
21.1813
23.9874
24.757
25.2495
26.128
27.3264
29.3978
31.7201
35.171
39.8471
43.0812
48.4013
60.9311
61.0732
50.1794
41.5024
35.9624
36.7294
72.0507
32.7916
15.4264
13.3532
13.3756
14.266
15.238
15.4093
15.988
16.8503
17.6623
19.1725
21.6573
23.6287
23.6028
23.9569
24.7356
25.9191
28.0434
31.3051
35.5015
41.2179
47.162
53.7044
68.7474
66.2285
53.8352
43.8778
37.9949
38.6691
75.2934
33.663
15.8866
13.7216
13.6698
14.4754
15.7412
16.4814
16.8758
17.0385
17.8148
19.6046
21.8539
22.3664
22.2481
22.4674
23.1399
24.4493
26.6283
30.1574
35.467
42.7859
50.9606
57.4965
72.7847
68.0401
55.4788
45.4559
39.2077
39.6521
76.8324
34.3329
16.4538
14.1927
14.1575
15.0487
16.5097
17.5224
17.4403
17.4694
18.3282
19.7537
20.9465
20.6789
20.7073
20.8696
21.5832
23.01
25.3909
29.1114
34.91
43.6744
53.5156
58.9664
72.4171
67.0337
55.5438
46.0324
39.6661
39.8347
76.2102
34.4872
17.5872
14.8885
14.8323
15.9206
17.6204
18.6046
18.4247
18.5075
18.9629
19.3102
19.2976
19.2437
19.3337
19.6591
20.4684
21.9507
24.3853
28.2256
34.1425
43.0016
52.9734
57.95
68.9228
64.8121
55.2286
46.2015
39.7117
39.5607
73.8039
34.1406
18.1081
15.8425
15.8261
17.2656
19.3445
20.6376
20.7168
20.6383
19.9886
19.0809
18.5012
18.4086
18.4592
18.779
19.5985
21.1438
23.6472
27.5322
33.299
41.3308
50.4584
56.1988
66.6151
65.1224
56.2354
46.8369
40.059
39.9539
70.7504
35.0203
19.0709
16.9336
16.8256
18.9629
21.881
24.3214
25.2687
24.5519
21.8986
19.8021
18.6418
18.1079
17.9499
18.1938
19.0494
20.6685
23.2557
27.1137
32.6318
39.9584
48.5364
56.8991
67.9853
70.1173
59.7182
48.5924
41.3716
38.848
68.8692
33.0826
18.7918
17.5723
18.2443
20.2934
24.8846
29.7133
32.1236
29.9339
25.0637
21.6673
19.579
18.4763
18.0452
18.2356
19.1119
20.8131
23.4542
27.3286
32.7349
39.8264
48.5765
59.8614
72.9319
79.7924
66.136
50.5034
39.9118
38.3118
71.0875
26.8037
17.5462
16.8406
18.515
21.5105
27.3183
34.5658
38.3478
33.0887
27.3994
23.4862
21.026
19.5337
18.9041
19.0722
20.0445
21.8806
24.6922
28.6822
34.1099
41.1028
49.9877
61.76
75.3068
83.1035
68.805
49.5246
39.3127
37.5005
69.3024
24.6001
16.3757
16.447
18.87
22.549
27.655
35.0598
37.2532
31.8513
27.0451
23.6078
21.3211
19.9419
19.3869
19.6142
20.5731
22.3576
25.0851
28.9657
34.1623
40.9619
49.6386
60.6357
73.2278
79.7291
64.503
47.3036
38.4196
36.1008
60.7038
25.096
15.8029
16.4807
19.4473
23.7393
27.7218
33.9246
34.3253
29.9234
25.9299
22.8782
20.718
19.3804
18.8254
18.9832
19.8506
21.4798
24.0148
27.6036
32.4232
38.6431
46.3745
55.5134
65.465
71.0182
56.5529
45.0344
36.5287
33.8863
54.0749
26.2131
15.9305
16.6469
19.782
24.5199
28.3682
34.7463
33.6594
28.806
24.9091
22.0188
19.9891
18.7281
18.1641
18.2572
18.9984
20.4446
22.6936
25.8767
30.1116
35.5533
42.2879
50.2745
59.3858
64.0135
50.5276
41.7446
34.1714
31.5593
49.822
27.0348
16.4469
16.9841
20.0364
24.9781
29.323
36.3581
34.3829
28.5701
24.3122
21.3154
19.2778
18.0114
17.4184
17.4351
18.0593
19.321
21.312
24.1305
27.9108
32.7858
38.9437
46.5572
55.7644
58.7707
46.3181
38.595
31.8324
29.5883
47.7653
27.6726
17.0733
17.2863
20.1055
25.0566
30.1441
37.8512
35.8742
28.9817
24.1579
20.859
18.6726
17.3264
16.6586
16.5921
17.0975
18.2048
19.9775
22.5244
25.9756
30.5249
36.4478
44.1229
53.5009
54.0676
43.1794
35.8374
29.7431
27.9455
46.4839
28.4282
17.4214
17.43
19.9987
24.8184
30.4791
38.6419
37.6332
29.9096
24.3435
20.6312
18.2096
16.7183
15.9517
15.79
16.1938
17.1716
18.7903
21.155
24.4369
28.8818
34.9016
43.0926
52.9024
50.0731
40.6095
33.3987
27.9324
26.5863
45.5574
29.7565
17.5082
17.4938
19.7973
24.4375
30.3306
38.6665
39.0652
30.9898
24.7428
20.5717
17.8618
16.2004
15.3158
15.0642
15.3783
16.2655
17.7849
20.0679
23.315
27.8696
34.27
43.3699
53.3233
46.733
38.203
31.2
26.2741
25.3425
43.7787
31.3715
17.4642
17.4874
19.6867
24.0372
29.9142
38.1834
40.3395
31.9252
25.1507
20.5625
17.5866
15.7501
14.7537
14.417
14.6646
15.4902
16.9688
19.2441
22.576
27.369
34.2848
44.2042
52.9319
43.7925
35.7429
29.1126
24.6991
24.0058
40.7155
31.7714
17.3257
17.3227
19.694
23.8105
29.6179
37.7458
41.1453
32.5989
25.4208
20.5283
17.3311
15.3493
14.252
13.8485
14.0453
14.8429
16.3194
18.6544
22.1434
27.2775
34.6887
45.4168
51.1978
40.9119
33.1989
27.1087
23.2009
22.7886
36.8989
31.2691
17.0593
17.0638
19.6511
23.8128
29.6816
37.8048
42.0902
33.0439
25.547
20.4339
17.0769
14.9784
13.8052
13.3473
13.514
14.3029
15.8122
18.2438
21.9487
27.4663
35.6175
46.7716
49.0847
38.2899
30.8044
25.2164
21.7874
21.6961
34.2737
30.0139
16.6032
16.7528
19.5388
23.9077
30.0577
38.4014
42.9939
33.3652
25.5682
20.2895
16.8131
14.6332
13.4
12.9073
13.0551
13.8549
15.4117
17.9662
21.9123
27.885
36.8028
48.3344
47.134
36.0678
28.6716
23.4611
20.4105
20.6425
34.6101
28.471
16.1015
16.437
19.3984
24.0548
30.6176
39.5238
44.4381
33.6686
25.5691
20.126
16.5556
14.3093
13.0335
12.5148
12.6572
13.472
15.0859
17.754
21.9204
28.276
37.8157
49.4538
45.2927
34.1876
26.8635
21.863
19.0738
19.274
34.2325
27.5525
15.7585
16.178
19.2706
24.2143
31.2104
40.9233
45.9759
34.1092
25.6083
19.9862
16.3182
14.0155
12.7028
12.1653
12.3032
13.1359
14.7971
17.5625
21.8922
28.5195
38.5016
50.4903
43.857
32.713
25.4563
20.6254
17.8822
17.4048
30.7188
26.8829
15.3527
15.9357
19.1225
24.3013
31.7368
42.4796
47.8288
34.7342
25.7389
19.8958
16.1192
13.7553
12.4091
11.8521
11.9859
12.8301
14.5262
17.3548
21.7991
28.5957
38.9166
51.0835
42.9676
31.6975
24.4281
19.6953
16.5448
15.5481
26.6913
25.6212
14.6761
15.5531
18.8586
24.1825
31.9728
43.6605
49.0265
35.3986
25.9582
19.8693
15.9633
13.5321
12.1473
11.57
11.6953
12.5438
14.2565
17.121
21.6248
28.5357
39.0539
51.5347
42.5834
31.0386
23.6345
18.636
15.096
13.8343
23.3673
23.9449
13.8541
14.9486
18.4161
23.7993
31.7866
44.073
49.8297
36.0177
26.2138
19.8808
15.8437
13.3377
11.9122
11.3103
11.4235
12.2667
13.9819
16.8583
21.3913
28.3648
38.9966
51.5066
42.3046
30.472
22.7996
17.3933
13.687
12.2748
20.7716
22.0992
12.9261
14.1616
17.7465
23.1245
31.1415
43.6973
49.9782
36.4707
26.4169
19.8952
15.7378
13.1617
11.694
11.067
11.1626
11.9928
13.6958
16.5611
21.0798
28.0509
38.6771
51.1954
41.8648
29.7497
21.786
16.1466
12.4531
10.9712
17.872
20.3816
11.9868
13.253
16.8471
22.2027
30.0902
42.6333
49.7014
36.6432
26.4981
19.8672
15.6221
12.9878
11.4845
10.8318
10.9074
11.7127
13.3883
16.2096
20.6623
27.5231
37.9424
50.1293
40.9918
28.7324
20.6674
15.0679
11.4927
10.1187
16.1023
18.8008
11.0655
12.3022
15.8003
21.0787
28.7148
40.8997
48.6736
36.51
26.4083
19.756
15.4655
12.7995
11.271
10.5975
10.6483
11.4191
13.043
15.778
20.0724
26.6314
36.4238
47.993
39.4521
27.4697
19.5828
14.2015
10.81
9.56407
15.3303
17.1977
10.1997
11.385
14.7109
19.8243
27.163
38.7335
47.0163
35.8803
26.0511
19.492
15.2341
12.576
11.0425
10.3543
10.3795
11.1023
12.6456
15.2369
19.2625
25.2883
34.0002
44.2698
37.2819
26.1463
18.6986
13.6011
10.3348
9.15322
14.7889
15.8971
9.45051
10.5582
13.6813
18.5585
25.5729
36.2852
44.3754
34.4621
25.2531
19.0017
14.8912
12.2988
10.7869
10.095
10.0922
10.7553
12.1884
14.5769
18.2173
23.4925
30.6992
39.2334
35.0467
25.263
18.3115
13.3939
10.1319
8.86895
14.4078
14.7098
8.7972
9.85282
12.8059
17.4609
24.1653
34.0084
41.1701
32.1392
23.9772
18.2635
14.419
11.9509
10.4925
9.80831
9.78031
10.3739
11.6737
13.8184
17.0173
21.4806
27.166
33.8702
33.4401
25.6073
18.766
13.7222
10.2995
8.77814
14.0538
13.6528
8.26114
9.29347
12.1499
16.6946
23.2606
32.4629
37.707
29.4105
22.4015
17.3277
13.823
11.5303
10.1506
9.48971
9.43863
9.95845
11.113
13.0044
15.7732
19.5465
24.1512
29.6349
33.3684
27.8661
20.3362
14.7304
11.0255
9.1735
15.2815
12.7569
7.84075
8.8791
11.717
16.3268
23.1265
32.2597
34.8933
26.8539
20.7698
16.2865
13.1393
11.0472
9.76822
9.14026
9.06875
9.514
10.5229
12.1661
14.5411
17.7086
21.5544
26.118
31.8387
31.1324
22.7911
16.2064
12.114
10.4722
18.1814
12.0083
7.54829
8.58327
11.4347
16.1875
23.6538
32.9073
31.8886
24.5211
19.1555
15.2076
12.4058
10.5207
9.35176
8.76435
8.67697
9.05121
9.91785
11.3231
13.3193
15.9382
19.1524
23.0712
28.099
31.4522
24.3394
17.4371
12.9458
11.7194
20.7573
11.6897
7.55691
8.42215
11.152
15.8561
23.185
31.6002
28.5611
22.2655
17.5707
14.1222
11.6551
9.97338
8.91722
8.37409
8.2749
8.58099
9.31363
10.4968
12.1559
14.3134
17.0137
20.3907
24.7189
29.1746
24.9667
18.1341
13.781
12.7093
22.3814
13.594
7.72602
8.43869
10.9008
15.2869
22.0792
28.4708
25.2732
20.1121
16.0825
13.0865
10.9197
9.42778
8.47884
7.98129
7.87328
8.12068
8.73291
9.72414
11.1091
12.9243
15.2459
18.2324
22.1464
26.9201
25.0433
18.4173
14.4018
13.3488
23.7485
15.1473
8.21852
8.50814
10.6423
14.5896
20.6847
25.3881
22.6382
18.2728
14.7839
12.1522
10.2346
8.90373
8.05064
7.595
7.48325
7.68203
8.19413
9.02931
10.2082
11.782
13.8508
16.6045
20.3879
25.5793
24.8057
18.5389
14.5873
13.6652
24.8676
15.3082
8.36635
8.54677
10.5061
14.1074
19.2677
23.2995
20.805
16.8659
13.7213
11.3504
9.62126
8.41905
7.64453
7.22552
7.11104
7.27105
7.70204
8.41695
9.44489
10.8554
12.7746
15.434
19.2534
24.8072
24.2978
18.2397
14.4305
13.6782
25.6244
15.3072
8.25857
8.37945
10.1622
13.3093
17.8001
21.7574
19.6039
15.8247
12.8817
10.6815
9.08521
7.9788
7.26547
6.87519
6.75929
6.88864
7.25776
7.88182
8.80259
10.112
11.9652
14.6313
18.5673
24.2815
23.4872
17.6248
14.0008
13.4288
25.673
15.1752
8.0557
8.06903
9.62942
12.3496
16.2028
20.0625
18.6399
15.0068
12.1995
10.1142
8.61288
7.57602
6.90843
6.54007
6.42299
6.53002
6.85409
7.41503
8.26833
9.53032
11.386
14.1292
18.2117
23.9369
22.4241
16.7529
13.3407
12.9037
24.9025
14.9265
7.80722
7.71657
9.05868
11.3763
14.6339
18.209
17.8118
14.3015
11.6016
9.60398
8.17337
7.1898
6.55605
6.20312
6.08477
6.17701
6.47498
7.00198
7.83063
9.09882
11.0114
13.8821
18.1196
23.5141
21.0438
15.6638
12.4815
12.0413
23.1751
14.6295
7.5456
7.3616
8.50841
10.4796
13.2016
16.3389
16.8641
13.5552
10.9916
9.08359
7.72196
6.78475
6.17882
5.83559
5.71549
5.79854
6.08575
6.60781
7.45295
8.79056
10.8203
13.8301
18.1585
22.8345
19.4099
14.4215
11.4651
10.9475
20.9658
14.304
7.28004
7.02196
8.01178
9.71699
12.0277
14.7811
15.8312
12.7798
10.3206
8.50205
7.21459
6.32915
5.75154
5.42447
5.31375
5.40278
5.69744
6.23095
7.10606
8.53504
10.7462
13.8865
18.2232
21.696
17.5924
13.0701
10.3488
9.81036
18.8
13.9389
7.00453
6.69261
7.5646
9.08602
11.1442
13.6763
15.0031
12.2242
9.68061
7.91106
6.68193
5.85041
5.31439
5.01443
4.91934
5.02178
5.32755
5.87313
6.80441
8.31259
10.6738
13.9671
18.2566
20.1752
15.7701
11.6983
9.22667
8.73489
16.8501
13.4945
6.7012
6.34986
7.12854
8.52372
10.4592
12.9645
14.665
12.1085
9.28741
7.45889
6.24411
5.44418
4.93878
4.66254
4.58449
4.70172
5.02359
5.59778
6.59023
8.17496
10.5165
13.9978
18.322
18.4381
14.0416
10.3842
8.16647
7.74342
15.079
12.9314
6.35545
5.97055
6.65878
7.94218
9.78386
12.2871
14.4145
12.245
9.1752
7.21931
5.96359
5.16493
4.67315
4.41421
4.35255
4.48935
4.84254
5.47321
6.54643
8.15163
10.4152
13.9668
18.1717
16.5883
12.378
9.14164
7.19148
6.8331
13.4311
12.2392
5.96818
5.55481
6.15243
7.31438
9.0151
11.3816
13.7725
12.2491
9.14506
7.12829
5.82034
5.001
4.50601
4.25399
4.20527
4.36016
4.74374
5.42898
6.55293
8.15254
10.3667
13.85
17.2413
14.6646
10.7895
8.00334
6.30748
6.00147
11.8378
11.4647
5.56093
5.13418
5.64872
6.6754
8.18043
10.2795
12.6205
11.9399
9.03213
7.06403
5.73627
4.89972
4.39912
4.14933
4.10802
4.27465
4.68043
5.39652
6.52126
8.08492
10.2263
13.4292
15.5489
12.6594
9.27328
6.96377
5.54353
5.30947
10.6087
10.6966
5.17047
4.74226
5.17646
6.06105
7.34574
9.10759
11.18
11.2401
8.72887
6.89358
5.61128
4.78074
4.28364
4.03784
3.99951
4.16927
4.58134
5.29452
6.36503
7.84033
9.84001
12.4947
13.5071
10.6838
7.84208
5.96208
4.87968
4.83271
9.93086
10.0135
4.8228
4.38795
4.73968
5.47876
6.53428
7.94409
9.70795
10.2644
8.19714
6.53138
5.36323
4.58548
4.11094
3.87288
3.8309
3.98591
4.36966
5.02776
5.99158
7.31031
9.04121
11.1444
11.2789
8.78752
6.5348
5.04526
4.21171
4.29042
9.03038
9.44885
4.52101
4.06438
4.3239
4.91342
5.74493
6.82804
8.24813
9.11819
7.50206
6.05593
5.03436
4.33511
3.89663
3.67064
3.62292
3.75428
4.08935
4.65733
5.478
6.57454
7.99811
9.57293
9.07006
7.05237
5.38964
4.25807
3.62605
3.76239
8.00551
9.0017
4.25978
3.76522
3.92638
4.36856
4.99682
5.7895
6.80154
7.69713
6.67807
5.50941
4.65721
4.05166
3.65894
3.45013
3.39929
3.50625
3.78738
4.25538
4.9142
5.77462
6.8727
7.87008
7.0421
5.58154
4.43001
3.60542
3.14429
3.32588
7.15058
8.74383
4.05999
3.51248
3.57452
3.88201
4.334
4.88035
5.51635
6.17029
5.76685
4.91042
4.2399
3.73313
3.39149
3.20543
3.15626
3.24177
3.47041
3.84331
4.35155
4.97928
5.72444
6.08839
5.3457
4.41906
3.65127
3.07177
2.75471
2.97944
6.48775
8.75356
3.95763
3.32629
3.29126
3.47805
3.78181
4.13762
4.50409
4.87866
4.8672
4.29741
3.79704
3.38413
3.09614
2.93657
2.8924
2.96119
3.14626
3.43872
3.81941
4.24685
4.59963
4.57214
4.11997
3.55544
3.04102
2.64165
2.442
2.70811
5.99089
8.97992
3.96302
3.20888
3.07552
3.15264
3.33469
3.55243
3.7522
3.95437
4.06303
3.75256
3.37755
3.03788
2.79574
2.65789
2.6161
2.66999
2.82137
3.05446
3.34082
3.60042
3.67338
3.56905
3.31537
2.94303
2.57868
2.30334
2.19734
2.50504
5.6393
9.76114
4.10633
3.16362
2.91143
2.88784
2.96903
3.09348
3.21559
3.3349
3.44434
3.3245
3.02149
2.72467
2.51305
2.38925
2.3465
2.38489
2.5046
2.68718
2.8909
3.02645
3.00607
2.91315
2.77591
2.50498
2.22858
2.04152
2.01625
2.37579
5.45014
12.5345
4.56275
3.1778
2.76952
2.66029
2.66437
2.73249
2.83283
2.94754
3.03993
2.99622
2.72343
2.45524
2.26469
2.14949
2.10338
2.1255
2.21331
2.34623
2.47976
2.55131
2.52339
2.43624
2.34456
2.16335
1.95371
1.84027
1.89274
2.33922
5.4918
16.597
5.14259
3.20348
2.62877
2.45323
2.41982
2.46872
2.57178
2.69802
2.7832
2.71785
2.46916
2.23243
2.05918
1.94723
1.89534
1.90146
1.96011
2.05005
2.1337
2.1752
2.15521
2.08118
1.98978
1.86853
1.72898
1.68709
1.82499
2.40548
5.92947
20.1494
6.13976
3.38516
2.59202
2.33407
2.27122
2.2999
2.39335
2.50405
2.55238
2.45407
2.24518
2.04809
1.89071
1.77854
1.71919
1.71004
1.74294
1.7998
1.85306
1.87678
1.86021
1.81106
1.74459
1.65593
1.56284
1.57274
1.7925
2.64495
7.7415
19.1532
7.8994
4.04523
2.75345
2.3335
2.20879
2.19643
2.25047
2.30753
2.30939
2.20867
2.04607
1.88306
1.7365
1.62431
1.5583
1.53623
1.54942
1.583
1.61715
1.63269
1.62358
1.59985
1.57853
1.54862
1.48263
1.5106
1.78317
2.79279
9.51022
15.424
7.52308
5.02065
3.13527
2.45175
2.22095
2.14542
2.12832
2.12876
2.09377
2.00192
1.87072
1.72394
1.58317
1.47224
1.40232
1.37165
1.37189
1.3911
1.41579
1.43275
1.43723
1.43689
1.4525
1.48621
1.47055
1.49956
1.81423
3.22064
9.77937
12.0882
6.07896
4.6217
3.35345
2.65637
2.33629
2.16872
2.06234
2.00077
1.94142
1.84866
1.72094
1.57392
1.43662
1.32763
1.25592
1.22035
1.21326
1.22532
1.24719
1.27019
1.29055
1.31437
1.35538
1.4217
1.4527
1.51672
2.01256
3.53798
8.936
10.3115
4.9328
3.77098
3.07655
2.75064
2.60249
2.31498
2.09595
1.9493
1.8589
1.74728
1.59738
1.44471
1.30954
1.20217
1.12915
1.09042
1.07917
1.08793
1.10985
1.13899
1.17271
1.2157
1.27492
1.35343
1.39468
1.49863
2.02668
3.27501
7.42071
9.23297
4.12707
3.21901
2.73002
2.63787
2.70856
2.57604
2.22886
1.96823
1.82305
1.67393
1.50218
1.34338
1.21014
1.10476
1.03048
0.988562
0.973915
0.980086
1.00162
1.03322
1.07245
1.12127
1.18259
1.24589
1.27103
1.37864
1.85511
2.78841
6.54017
8.35063
3.59482
2.86251
2.40831
2.33717
2.51928
2.5206
2.34271
2.01403
1.79337
1.61502
1.43422
1.27217
1.14066
1.03922
0.965623
0.918716
0.898937
0.900971
0.918928
0.94685
0.980882
1.0203
1.06347
1.09669
1.10158
1.19537
1.64192
2.45173
5.9376
7.26461
3.30066
2.56534
2.07368
1.96532
2.09315
2.19939
2.16057
1.98774
1.73816
1.56322
1.38133
1.21889
1.09219
0.997552
0.928055
0.879656
0.852126
0.847711
0.858227
0.875557
0.895261
0.914813
0.931041
0.935266
0.927955
1.00167
1.38609
2.18241
4.90991
5.998
3.12909
2.25141
1.74235
1.61434
1.69017
1.80272
1.80072
1.77689
1.63015
1.48864
1.32832
1.17435
1.05323
0.965459
0.902333
0.859321
0.829872
0.820135
0.818824
0.819033
0.81833
0.814953
0.806603
0.790038
0.774615
0.81936
1.10317
1.87332
3.64704
4.60065
2.73291
1.84833
1.40074
1.29267
1.34991
1.46319
1.48945
1.50758
1.46607
1.3892
1.2726
1.13867
1.02321
0.931964
0.870895
0.838855
0.827096
0.823185
0.803958
0.779107
0.754814
0.730234
0.703644
0.674886
0.654757
0.673557
0.851529
1.44653
2.56865
3.37677
2.082
1.37477
1.06661
1.01622
1.07036
1.18284
1.24336
1.2812
1.29533
1.2829
1.21815
1.11437
1.01541
0.912359
0.845551
0.818164
0.836189
0.857388
0.812175
0.755636
0.707411
0.665853
0.627991
0.593949
0.571694
0.574244
0.673007
1.06047
1.82253
2.47943
1.48384
0.969244
0.811422
0.814389
0.873246
0.978127
1.06847
1.11666
1.15589
1.18971
1.16812
1.10014
1.02243
0.913543
0.841336
0.817327
0.84735
0.8968
0.835147
0.74549
0.677234
0.625101
0.583394
0.549369
0.523977
0.514621
0.557214
0.791715
1.35658
1.83615
1.05817
0.719239
0.667183
0.698771
0.767197
0.862063
0.971927
1.03461
1.07179
1.12796
1.1306
1.08002
1.0098
0.914638
0.836099
0.81139
0.837348
0.875479
0.844155
0.742212
0.667107
0.613687
0.573295
0.540627
0.512462
0.493089
0.499472
0.630149
1.12558
1.39968
0.791549
0.591782
0.601654
0.659897
0.734175
0.821522
0.931781
1.01575
1.03724
1.08871
1.08193
1.03356
0.964306
0.893714
0.831672
0.80666
0.80666
0.825216
0.837079
0.742222
0.673791
0.624467
0.586444
0.553778
0.523047
0.498236
0.494198
0.576173
1.08102
1.19189
0.651481
0.557135
0.595693
0.665027
0.741322
0.823046
0.915986
0.997746
1.01575
1.03474
1.01642
0.97105
0.914297
0.861029
0.831973
0.807503
0.783889
0.795907
0.811564
0.743133
0.690897
0.655079
0.624244
0.592874
0.558176
0.525947
0.513794
0.585783
1.14209
1.17996
0.628805
0.569671
0.617682
0.696453
0.772948
0.840734
0.908547
0.963567
0.993587
1.01871
0.982179
0.931101
0.878427
0.832523
0.811205
0.787782
0.769446
0.792559
0.815934
0.751178
0.710103
0.689698
0.671924
0.65099
0.620688
0.589638
0.575382
0.646215
1.39739
1.30687
0.666811
0.623781
0.67934
0.759139
0.823803
0.865217
0.895905
0.925349
0.961135
1.0185
0.97442
0.912441
0.854487
0.805868
0.779087
0.764466
0.768766
0.81116
0.847869
0.76951
0.726352
0.714942
0.715099
0.712637
0.698711
0.687635
0.700538
0.807567
1.85896
1.72855
0.81446
0.746081
0.770372
0.825245
0.871129
0.881904
0.878831
0.8836
0.91324
0.976715
0.969097
0.907144
0.842555
0.791321
0.763285
0.759258
0.783152
0.853588
0.857416
0.776408
0.73116
0.729793
0.746739
0.763405
0.773355
0.80895
0.901232
1.15012
2.72503
2.75221
1.1737
0.955587
0.894016
0.8952
0.914973
0.899806
0.865207
0.848906
0.861436
0.901667
0.927913
0.89442
0.837994
0.788364
0.764905
0.769391
0.814183
0.869706
0.838013
0.768876
0.733799
0.739918
0.771226
0.802938
0.840835
0.937167
1.15934
1.73751
4.80923
4.85907
1.79681
1.25333
1.07015
1.00935
0.988186
0.934407
0.869013
0.83601
0.831345
0.847587
0.858603
0.849373
0.823005
0.796528
0.783541
0.800335
0.84778
0.856589
0.81523
0.766388
0.744086
0.758969
0.806904
0.866065
0.933574
1.07406
1.399
2.32804
7.66848
8.39729
2.47635
1.60316
1.3157
1.20242
1.11681
0.996893
0.896735
0.846998
0.829022
0.824123
0.815571
0.80071
0.798179
0.819452
0.83833
0.861629
0.876043
0.857396
0.817037
0.781317
0.772973
0.799245
0.868707
0.969852
1.08474
1.27976
1.77904
3.54076
14.8509
15.671
4.04555
2.11913
1.64004
1.45091
1.27014
1.08695
0.958905
0.886344
0.848103
0.82551
0.800313
0.779817
0.787171
0.835591
0.891624
0.908918
0.900023
0.874132
0.839673
0.820474
0.828454
0.870019
0.961742
1.10827
1.29452
1.66811
2.71192
6.2057
16.9439
16.2565
6.45577
3.21696
2.04262
1.66428
1.41708
1.19496
1.05075
0.960432
0.897135
0.847269
0.804759
0.774175
0.779218
0.829409
0.887349
0.903051
0.896371
0.884116
0.871905
0.87815
0.911075
0.975847
1.08707
1.26345
1.55578
2.23188
3.88001
6.42358
15.5901
14.5344
6.28674
3.96288
2.48562
1.80783
1.51976
1.30101
1.15524
1.05719
0.979219
0.897813
0.824661
0.771754
0.761039
0.797968
0.84454
0.858226
0.864641
0.879808
0.907499
0.954992
1.0213
1.10115
1.2304
1.41225
1.79194
2.49902
3.66547
5.79138
12.7552
11.8919
5.47133
3.59586
2.55816
1.90153
1.57182
1.40414
1.25575
1.14168
1.03887
0.944905
0.854632
0.776703
0.73908
0.751611
0.77972
0.793444
0.819123
0.870916
0.936619
1.01524
1.11267
1.22371
1.3385
1.53358
1.85474
2.32904
3.23796
4.98274
11.1418
10.5513
4.73662
3.23183
2.34372
1.89273
1.59887
1.45242
1.32293
1.191
1.0692
0.961451
0.865872
0.784107
0.73084
0.71408
0.72497
0.747915
0.79728
0.872828
0.964385
1.07507
1.20258
1.3127
1.4014
1.54602
1.73907
2.09757
2.9161
4.37866
10.1709
9.4236
4.24853
2.92429
2.12957
1.73397
1.54618
1.43762
1.32692
1.19391
1.05808
0.943944
0.849365
0.771037
0.714903
0.690308
0.694014
0.722652
0.778159
0.860095
0.95812
1.07935
1.21495
1.31131
1.3584
1.41775
1.55536
1.90821
2.65311
4.04459
9.09028
8.13915
3.95527
2.68571
1.97052
1.546
1.36816
1.32252
1.26124
1.14638
1.01644
0.900699
0.805624
0.732083
0.68187
0.661592
0.666611
0.692139
0.744276
0.82632
0.929109
1.04895
1.1643
1.2165
1.2165
1.25284
1.41612
1.77742
2.46504
3.89939
7.9293
6.80067
3.72829
2.51019
1.77367
1.35919
1.19031
1.15201
1.11748
1.03971
0.93716
0.835077
0.747337
0.681257
0.641257
0.629469
0.636734
0.657944
0.704203
0.779677
0.874452
0.9761
1.06099
1.09078
1.0815
1.11446
1.28324
1.6608
2.33617
3.65568
6.67688
5.5833
3.36861
2.18778
1.49323
1.14834
1.0194
0.991102
0.967334
0.915162
0.841267
0.760436
0.687117
0.631917
0.600642
0.593375
0.600707
0.618669
0.658342
0.723247
0.803471
0.885224
0.949976
0.970534
0.958976
0.977973
1.12074
1.46714
2.1363
3.29867
5.55042
4.46786
2.76591
1.70261
1.15324
0.907074
0.834271
0.830199
0.824876
0.797627
0.748748
0.690356
0.634204
0.590811
0.565799
0.558584
0.563504
0.578907
0.611217
0.662303
0.724312
0.785625
0.829399
0.838976
0.821966
0.822209
0.917267
1.18129
1.73407
2.78189
4.55174
3.44237
2.10717
1.23048
0.837822
0.683825
0.669107
0.689738
0.704919
0.697191
0.669517
0.629624
0.588638
0.555435
0.534955
0.527435
0.530515
0.543759
0.569665
0.608289
0.653763
0.696365
0.721129
0.718765
0.689782
0.668736
0.705012
0.88294
1.28551
2.16891
3.58199
2.64467
1.5846
0.885574
0.602858
0.522548
0.539776
0.581149
0.609291
0.614886
0.601986
0.576239
0.547113
0.522115
0.505614
0.498674
0.500649
0.511499
0.531838
0.560572
0.592982
0.620762
0.632737
0.621369
0.584525
0.544485
0.538942
0.648062
0.938589
1.65392
2.76938
2.07441
1.1836
0.642106
0.444714
0.420655
0.454187
0.504013
0.537984
0.551491
0.547758
0.532234
0.511707
0.492958
0.479903
0.473967
0.475216
0.483766
0.49946
0.52077
0.543664
0.56082
0.56427
0.547483
0.50834
0.45606
0.428534
0.479227
0.699536
1.27218
2.17767
1.61765
0.849567
0.466937
0.355699
0.364707
0.409105
0.457036
0.490321
0.506487
0.507882
0.498929
0.484533
0.470517
0.46034
0.45546
0.456353
0.46303
0.475071
0.490902
0.5068
0.516688
0.514958
0.496944
0.460082
0.406643
0.36388
0.368672
0.51497
0.945719
1.72789
1.23234
0.612469
0.369925
0.329959
0.352439
0.396095
0.436399
0.464697
0.47956
0.483066
0.478306
0.468549
0.458244
0.450566
0.446794
0.447534
0.452635
0.461584
0.472909
0.483105
0.487405
0.482791
0.466811
0.436647
0.392731
0.344323
0.32249
0.386842
0.677416
1.33018
1.02375
0.499642
0.352646
0.336132
0.35999
0.400312
0.436435
0.460068
0.471408
0.474568
0.472504
0.46623
0.458249
0.45189
0.448765
0.449476
0.453732
0.460998
0.469081
0.474085
0.473407
0.467632
0.455408
0.432609
0.395551
0.350667
0.323074
0.341755
0.51137
1.07017
1.00186
0.488706
0.370109
0.363879
0.387115
0.421163
0.450904
0.469363
0.477157
0.478978
0.478226
0.474607
0.468897
0.464292
0.462101
0.462775
0.465765
0.470868
0.476176
0.477411
0.473929
0.467936
0.457706
0.438967
0.410307
0.37549
0.346797
0.351441
0.4619
1.01497
1.09551
0.524214
0.426898
0.424369
0.443512
0.469811
0.49109
0.500263
0.500942
0.499484
0.499855
0.500286
0.497487
0.494643
0.493426
0.494014
0.495549
0.49835
0.499547
0.495009
0.487657
0.481225
0.472995
0.459623
0.442949
0.424465
0.40837
0.406252
0.489641
1.09054
1.37828
0.632879
0.528774
0.512658
0.524934
0.546219
0.56137
0.561649
0.553046
0.54586
0.545145