/*--------------------------------*- C++ -*----------------------------------*\
| =========                 |                                                 |
| \\      /  F ield         | OpenFOAM: The Open Source CFD Toolbox           |
|  \\    /   O peration     | Version:  2.3.0                                 |
|   \\  /    A nd           | Web:      www.OpenFOAM.org                      |
|    \\/     M anipulation  |                                                 |
\*---------------------------------------------------------------------------*/
FoamFile
{
    version     2.0;
    format      ascii;
    class       volVectorField;
    location    "0.48";
    object      U.particles;
}
// * * * * * * * * * * * * * * * * * * * * * * * * * * * * * * * * * * * * * //

dimensions      [0 1 -1 0 0 0 0];

internalField   nonuniform List<vector> 
6000
(
(0.0186041 -0.190675 0)
(0.0458527 -0.236653 0)
(0.0288734 -0.251754 0)
(-0.00607614 -0.269845 0)
(-0.0404238 -0.312315 0)
(-0.0401691 -0.341252 0)
(-0.0392247 -0.341425 0)
(-0.0582966 -0.331586 0)
(-0.0890898 -0.36249 0)
(-0.0993669 -0.378681 0)
(-0.0845836 -0.382586 0)
(-0.0540705 -0.41676 0)
(-0.0252688 -0.496127 0)
(-0.0255973 -0.571676 0)
(-0.0143937 -0.49985 0)
(0.00468398 -0.576192 0)
(-0.000637043 -0.551727 0)
(0.0136333 -0.432478 0)
(0.0479415 -0.372826 0)
(0.07536 -0.362868 0)
(0.0703703 -0.354533 0)
(0.0447979 -0.332098 0)
(0.027712 -0.339763 0)
(0.0231184 -0.371582 0)
(0.0311579 -0.351152 0)
(0.0165356 -0.299035 0)
(-0.0110452 -0.275473 0)
(-0.0343938 -0.257503 0)
(-0.0534363 -0.23801 0)
(-0.0261297 -0.177018 0)
(0.0159485 0.0882402 0)
(0.058616 0.129089 0)
(0.0670309 0.13236 0)
(0.0557626 0.120065 0)
(0.0135169 0.134273 0)
(-0.0388547 0.144116 0)
(-0.0836061 0.123068 0)
(-0.135484 0.0800921 0)
(-0.153318 0.0639094 0)
(-0.143371 0.0445297 0)
(-0.09818 -0.00600659 0)
(-0.0497604 0.00689251 0)
(-0.0330097 0.039294 0)
(-0.0215731 0.0226168 0)
(-0.011674 0.0150478 0)
(-0.0146153 0.0258125 0)
(0.00774401 0.049638 0)
(0.0192147 0.0216146 0)
(0.0619272 -0.000888047 0)
(0.0957098 0.0326472 0)
(0.124399 0.06522 0)
(0.111397 0.0741953 0)
(0.0740135 0.114562 0)
(0.0277352 0.147476 0)
(0.00265674 0.141405 0)
(-0.0328131 0.133641 0)
(-0.048482 0.138832 0)
(-0.0540617 0.154491 0)
(-0.0536324 0.141974 0)
(-0.0179227 0.073471 0)
(-0.00109941 0.0280074 0)
(0.0269129 0.101259 0)
(0.0290305 0.17997 0)
(0.0180837 0.212213 0)
(-0.0136611 0.190605 0)
(-0.0615913 0.185276 0)
(-0.111429 0.180502 0)
(-0.168965 0.141117 0)
(-0.174638 0.0480846 0)
(-0.14923 -0.0705119 0)
(-0.0995571 -0.10071 0)
(-0.0564358 -0.115436 0)
(-0.00728621 -0.101155 0)
(0.00256845 -0.0373002 0)
(-0.0135719 -0.0542156 0)
(-0.0318494 -0.044271 0)
(-0.021045 -0.0804674 0)
(0.0174007 -0.11871 0)
(0.0664305 -0.105009 0)
(0.115176 -0.0766224 0)
(0.143638 0.0258131 0)
(0.13242 0.133536 0)
(0.0779987 0.162367 0)
(0.0355634 0.168706 0)
(0.0165064 0.161237 0)
(-0.00196826 0.1655 0)
(-0.000220266 0.177513 0)
(0.00660155 0.169492 0)
(-0.0136417 0.138371 0)
(0.00587183 0.0138453 0)
(-0.00836738 0.052328 0)
(-0.0179372 0.117306 0)
(-0.0394666 0.174836 0)
(-0.0345891 0.211419 0)
(-0.0492655 0.21327 0)
(-0.0784564 0.223509 0)
(-0.11809 0.236994 0)
(-0.157006 0.225322 0)
(-0.172533 0.144353 0)
(-0.145702 0.0333608 0)
(-0.107886 -0.0410983 0)
(-0.0645825 -0.0617481 0)
(-0.0258641 -0.0257027 0)
(0.0037366 0.0253908 0)
(-0.0139648 0.00761431 0)
(-0.0358005 0.0183685 0)
(-0.00945519 -0.00510557 0)
(0.0334575 -0.0658967 0)
(0.0759737 -0.0504955 0)
(0.119364 0.0219105 0)
(0.135072 0.125363 0)
(0.106942 0.224779 0)
(0.0696497 0.209593 0)
(0.0438169 0.180848 0)
(0.0335452 0.162946 0)
(0.0346507 0.146401 0)
(0.0521957 0.141883 0)
(0.0683868 0.142764 0)
(0.0370846 0.14498 0)
(0.0121743 0.0416992 0)
(-0.00836849 -0.00585627 0)
(-0.0297041 0.0496432 0)
(-0.0663907 0.0995315 0)
(-0.0664188 0.141592 0)
(-0.068893 0.175214 0)
(-0.0918072 0.209388 0)
(-0.12615 0.234932 0)
(-0.158561 0.239343 0)
(-0.189708 0.18418 0)
(-0.189501 0.033679 0)
(-0.146052 -0.0477964 0)
(-0.0990179 -0.0615679 0)
(-0.0526015 -0.00277409 0)
(-0.00537229 0.0801877 0)
(-0.0175228 0.0688273 0)
(-0.0352079 0.0736536 0)
(0.0153703 0.0163958 0)
(0.0621332 -0.067181 0)
(0.116788 -0.0583146 0)
(0.15026 0.0160107 0)
(0.142861 0.169307 0)
(0.104515 0.233723 0)
(0.0742906 0.199169 0)
(0.0510289 0.145878 0)
(0.0430739 0.100924 0)
(0.0487847 0.0501931 0)
(0.0662647 0.0337869 0)
(0.0671289 0.0385937 0)
(0.0320085 0.0495287 0)
(0.00595693 -0.0431473 0)
(-0.00273447 -0.224521 0)
(-0.00859226 -0.176792 0)
(-0.0328152 -0.134786 0)
(-0.0440406 -0.080846 0)
(-0.0559223 0.0147422 0)
(-0.084808 0.10908 0)
(-0.118155 0.170144 0)
(-0.154613 0.202575 0)
(-0.194637 0.150817 0)
(-0.210691 0.00202363 0)
(-0.18976 -0.062708 0)
(-0.143496 -0.0614373 0)
(-0.0886264 0.027402 0)
(-0.0319198 0.108945 0)
(-0.0180568 0.095592 0)
(-0.0142658 0.105178 0)
(0.0543585 0.0349545 0)
(0.109026 -0.0616091 0)
(0.156537 -0.0732978 0)
(0.168228 -0.0123542 0)
(0.143646 0.137342 0)
(0.0994573 0.189434 0)
(0.071641 0.118116 0)
(0.0430186 0.0268841 0)
(0.0253722 -0.0558478 0)
(0.0130436 -0.140242 0)
(0.00722915 -0.19452 0)
(0.000556142 -0.20461 0)
(-0.00156912 -0.216905 0)
(0.00928546 -0.265057 0)
(-0.0101318 -0.363864 0)
(0.0213727 -0.342171 0)
(0.0284104 -0.328435 0)
(0.0196957 -0.319185 0)
(-0.00220378 -0.254063 0)
(-0.0276153 -0.157052 0)
(-0.0553851 -0.0585296 0)
(-0.113955 0.056981 0)
(-0.18073 0.0642034 0)
(-0.213642 -0.0606288 0)
(-0.212013 -0.109611 0)
(-0.176254 -0.0938552 0)
(-0.105219 -0.00262355 0)
(-0.0427472 0.0764716 0)
(-0.019679 0.0788503 0)
(-0.000942179 0.0730178 0)
(0.0690834 -0.0026645 0)
(0.140109 -0.0920812 0)
(0.179204 -0.119375 0)
(0.173915 -0.0724525 0)
(0.135171 0.0507154 0)
(0.0695832 0.0516365 0)
(0.0252026 -0.0794719 0)
(-0.014928 -0.200174 0)
(-0.0318693 -0.282845 0)
(-0.0509914 -0.336354 0)
(-0.0620999 -0.370299 0)
(-0.0529091 -0.359855 0)
(-0.0264375 -0.359489 0)
(0.0242027 -0.383592 0)
(-0.0100692 -0.381517 0)
(0.0295558 -0.367283 0)
(0.0451316 -0.353997 0)
(0.0487859 -0.362275 0)
(0.0395602 -0.36643 0)
(0.032343 -0.343362 0)
(0.0163468 -0.244565 0)
(-0.0434505 -0.121853 0)
(-0.113527 -0.0733863 0)
(-0.172173 -0.149284 0)
(-0.205529 -0.157151 0)
(-0.168444 -0.124632 0)
(-0.109127 -0.0553719 0)
(-0.0590903 0.00710521 0)
(-0.0196485 0.0300278 0)
(0.0195881 0.00406813 0)
(0.0699593 -0.0564166 0)
(0.129051 -0.124016 0)
(0.171495 -0.161679 0)
(0.131032 -0.149686 0)
(0.0805034 -0.0715778 0)
(0.0138699 -0.103444 0)
(-0.0550072 -0.24983 0)
(-0.0806245 -0.359455 0)
(-0.085104 -0.391011 0)
(-0.101073 -0.395784 0)
(-0.0884111 -0.389925 0)
(-0.0603256 -0.383315 0)
(-0.0385232 -0.391274 0)
(0.0337086 -0.398727 0)
(-0.0100558 -0.374073 0)
(0.0348529 -0.36711 0)
(0.0534213 -0.346322 0)
(0.0657759 -0.352645 0)
(0.0570339 -0.356872 0)
(0.0455862 -0.344757 0)
(0.0389022 -0.263605 0)
(-0.0157586 -0.134351 0)
(-0.0572122 -0.138208 0)
(-0.0777763 -0.205808 0)
(-0.152924 -0.201007 0)
(-0.150765 -0.156343 0)
(-0.110389 -0.110367 0)
(-0.0668253 -0.0530989 0)
(-0.0188623 -0.0338947 0)
(0.0287089 -0.0545685 0)
(0.071444 -0.110235 0)
(0.108948 -0.154047 0)
(0.116909 -0.196271 0)
(0.0234659 -0.183925 0)
(0.0274245 -0.124076 0)
(-0.0164956 -0.135331 0)
(-0.089223 -0.279529 0)
(-0.110633 -0.36795 0)
(-0.118744 -0.380537 0)
(-0.129122 -0.381697 0)
(-0.101301 -0.393486 0)
(-0.0671714 -0.397197 0)
(-0.0437792 -0.399402 0)
(0.0505998 -0.385833 0)
(-0.0116093 -0.366541 0)
(0.0353973 -0.359315 0)
(0.0573855 -0.337433 0)
(0.0756667 -0.333498 0)
(0.0750863 -0.341006 0)
(0.0673751 -0.338695 0)
(0.071981 -0.289307 0)
(0.00305174 -0.142112 0)
(-0.0371396 -0.120516 0)
(0.0132904 -0.167768 0)
(-0.057848 -0.207636 0)
(-0.104483 -0.183842 0)
(-0.0807192 -0.161216 0)
(-0.0526471 -0.123909 0)
(-0.0180698 -0.106995 0)
(0.0161022 -0.123344 0)
(0.0427213 -0.158425 0)
(0.0639768 -0.1777 0)
(0.0159744 -0.199238 0)
(-0.0773666 -0.136031 0)
(-0.0246771 -0.104658 0)
(-0.055128 -0.139304 0)
(-0.124047 -0.301337 0)
(-0.137915 -0.35609 0)
(-0.148403 -0.365987 0)
(-0.141464 -0.380012 0)
(-0.110874 -0.40986 0)
(-0.0684085 -0.403805 0)
(-0.0482433 -0.395387 0)
(0.0622288 -0.364594 0)
(-0.0159227 -0.357412 0)
(0.0373373 -0.344742 0)
(0.0618632 -0.335213 0)
(0.0820125 -0.321623 0)
(0.0992052 -0.325877 0)
(0.093369 -0.324116 0)
(0.0986311 -0.289913 0)
(0.0446944 -0.15025 0)
(0.0199914 -0.0871299 0)
(0.0854698 -0.100623 0)
(0.0473804 -0.158039 0)
(-0.0323216 -0.192263 0)
(-0.026328 -0.192321 0)
(-0.0246126 -0.172343 0)
(-0.0162642 -0.162476 0)
(-0.00839404 -0.170065 0)
(-0.00824905 -0.187439 0)
(-0.00531564 -0.185793 0)
(-0.0929596 -0.152974 0)
(-0.15084 -0.0887564 0)
(-0.0943941 -0.0764064 0)
(-0.103711 -0.150209 0)
(-0.149258 -0.302896 0)
(-0.163822 -0.34319 0)
(-0.17182 -0.35284 0)
(-0.144379 -0.385299 0)
(-0.115709 -0.417914 0)
(-0.0685631 -0.402459 0)
(-0.0465008 -0.368733 0)
(0.067263 -0.33571 0)
(-0.0144934 -0.347172 0)
(0.0374643 -0.324217 0)
(0.0638507 -0.326835 0)
(0.0922346 -0.318969 0)
(0.106984 -0.318334 0)
(0.114885 -0.312331 0)
(0.117142 -0.289342 0)
(0.081833 -0.177492 0)
(0.0825267 -0.0741615 0)
(0.151928 -0.0754118 0)
(0.114642 -0.146705 0)
(0.0387596 -0.19199 0)
(0.0283342 -0.199911 0)
(0.00980106 -0.193027 0)
(-0.0119278 -0.187772 0)
(-0.0340154 -0.18896 0)
(-0.0541017 -0.19295 0)
(-0.0636455 -0.185437 0)
(-0.152855 -0.147061 0)
(-0.215182 -0.0907026 0)
(-0.158977 -0.082811 0)
(-0.140235 -0.201663 0)
(-0.17519 -0.306788 0)
(-0.193889 -0.327337 0)
(-0.182157 -0.348493 0)
(-0.145795 -0.388389 0)
(-0.119989 -0.415484 0)
(-0.0628182 -0.387942 0)
(-0.0372661 -0.326815 0)
(0.0578898 -0.311002 0)
(-0.0177988 -0.329951 0)
(0.0320258 -0.314516 0)
(0.0714259 -0.310206 0)
(0.101518 -0.315719 0)
(0.110168 -0.310322 0)
(0.129682 -0.310313 0)
(0.140812 -0.2911 0)
(0.113806 -0.230793 0)
(0.130984 -0.109818 0)
(0.197243 -0.101772 0)
(0.249956 -0.180988 0)
(0.144324 -0.193755 0)
(0.0675986 -0.187062 0)
(0.0442676 -0.191024 0)
(-0.00529243 -0.192186 0)
(-0.0557898 -0.185498 0)
(-0.0839658 -0.180005 0)
(-0.121238 -0.174698 0)
(-0.228294 -0.152478 0)
(-0.268363 -0.141448 0)
(-0.195928 -0.150245 0)
(-0.181554 -0.250401 0)
(-0.209395 -0.299564 0)
(-0.214673 -0.314331 0)
(-0.182951 -0.338599 0)
(-0.149739 -0.385526 0)
(-0.122521 -0.396636 0)
(-0.055221 -0.353333 0)
(-0.0319722 -0.290799 0)
(0.0516486 -0.275461 0)
(-0.0201941 -0.306245 0)
(0.0279345 -0.303682 0)
(0.0726996 -0.293921 0)
(0.101344 -0.301201 0)
(0.116169 -0.296716 0)
(0.141224 -0.304632 0)
(0.159386 -0.292677 0)
(0.146805 -0.259408 0)
(0.161175 -0.181024 0)
(0.231717 -0.165176 0)
(0.277624 -0.185919 0)
(0.169772 -0.176551 0)
(0.0881385 -0.176199 0)
(0.0762831 -0.176542 0)
(0.00385578 -0.179434 0)
(-0.0752464 -0.166309 0)
(-0.0945359 -0.161208 0)
(-0.172522 -0.156795 0)
(-0.296592 -0.151957 0)
(-0.29092 -0.166899 0)
(-0.231793 -0.204371 0)
(-0.218258 -0.255107 0)
(-0.228925 -0.282979 0)
(-0.220796 -0.295127 0)
(-0.163866 -0.324103 0)
(-0.149666 -0.363954 0)
(-0.119063 -0.365672 0)
(-0.0520992 -0.313246 0)
(-0.0289981 -0.264846 0)
(0.047738 -0.227742 0)
(-0.0242329 -0.274906 0)
(0.0175702 -0.283449 0)
(0.0612281 -0.285215 0)
(0.091955 -0.284262 0)
(0.12403 -0.285872 0)
(0.146038 -0.293717 0)
(0.174621 -0.290945 0)
(0.173171 -0.272925 0)
(0.190832 -0.235051 0)
(0.253534 -0.207423 0)
(0.284566 -0.176092 0)
(0.274727 -0.176067 0)
(0.156209 -0.161386 0)
(0.104998 -0.143334 0)
(0.0150309 -0.140865 0)
(-0.0908642 -0.133133 0)
(-0.100743 -0.140937 0)
(-0.178966 -0.122917 0)
(-0.294032 -0.122145 0)
(-0.295715 -0.167866 0)
(-0.259712 -0.211815 0)
(-0.239573 -0.245175 0)
(-0.236292 -0.265306 0)
(-0.207958 -0.274557 0)
(-0.151914 -0.312341 0)
(-0.135135 -0.346022 0)
(-0.100441 -0.345508 0)
(-0.0447933 -0.277312 0)
(-0.0103648 -0.226752 0)
(0.0516008 -0.178022 0)
(-0.0262515 -0.238549 0)
(0.00688678 -0.261405 0)
(0.045048 -0.272154 0)
(0.0766965 -0.267888 0)
(0.112729 -0.265914 0)
(0.145643 -0.272901 0)
(0.179831 -0.282618 0)
(0.192926 -0.274393 0)
(0.214686 -0.251249 0)
(0.259757 -0.211139 0)
(0.288783 -0.15718 0)
(0.276994 -0.137194 0)
(0.192084 -0.125382 0)
(0.123906 -0.111856 0)
(0.0328965 -0.083937 0)
(-0.0882671 -0.0846206 0)
(-0.148769 -0.108949 0)
(-0.256194 -0.088557 0)
(-0.282184 -0.0818138 0)
(-0.29245 -0.136791 0)
(-0.270458 -0.197873 0)
(-0.250884 -0.228046 0)
(-0.233011 -0.242891 0)
(-0.193766 -0.243091 0)
(-0.138813 -0.307359 0)
(-0.116209 -0.335927 0)
(-0.0710861 -0.320007 0)
(-0.0339467 -0.239101 0)
(0.00823724 -0.183995 0)
(0.0433134 -0.11597 0)
(-0.0262785 -0.199958 0)
(-0.00210147 -0.230056 0)
(0.0262706 -0.258137 0)
(0.0546345 -0.250204 0)
(0.100936 -0.247162 0)
(0.134603 -0.258401 0)
(0.180133 -0.266599 0)
(0.203781 -0.266203 0)
(0.224994 -0.244622 0)
(0.260962 -0.190042 0)
(0.278752 -0.121619 0)
(0.274047 -0.0970706 0)
(0.231308 -0.0891362 0)
(0.156302 -0.0684182 0)
(0.0292946 -0.0276603 0)
(-0.0841137 -0.0331022 0)
(-0.161288 -0.0486978 0)
(-0.24472 -0.0458961 0)
(-0.262162 -0.0345826 0)
(-0.275098 -0.0755601 0)
(-0.267217 -0.151419 0)
(-0.254464 -0.198734 0)
(-0.231785 -0.215509 0)
(-0.174733 -0.223179 0)
(-0.130163 -0.309848 0)
(-0.0973516 -0.327117 0)
(-0.0548437 -0.281917 0)
(-0.0178699 -0.213471 0)
(0.0149887 -0.15409 0)
(0.0125372 -0.0752268 0)
(-0.0241559 -0.160854 0)
(-0.00519173 -0.197008 0)
(0.00719251 -0.235 0)
(0.0384017 -0.241855 0)
(0.0749679 -0.23465 0)
(0.124555 -0.235123 0)
(0.171445 -0.243424 0)
(0.205552 -0.245189 0)
(0.22869 -0.216207 0)
(0.261004 -0.144652 0)
(0.273668 -0.0809089 0)
(0.272719 -0.0574607 0)
(0.243099 -0.0409273 0)
(0.178916 -0.0121898 0)
(0.0429808 0.0201212 0)
(-0.0856383 0.0183219 0)
(-0.171486 0.0042785 0)
(-0.23294 -0.000659713 0)
(-0.245493 0.012379 0)
(-0.253694 -0.00620064 0)
(-0.254015 -0.0796948 0)
(-0.248595 -0.152724 0)
(-0.225166 -0.188097 0)
(-0.152965 -0.19913 0)
(-0.119141 -0.301633 0)
(-0.0794192 -0.316595 0)
(-0.0411852 -0.250667 0)
(-0.00886412 -0.201465 0)
(-0.00565619 -0.140502 0)
(-0.0084152 -0.066045 0)
(-0.0224418 -0.122192 0)
(-0.00669018 -0.164333 0)
(-0.00563272 -0.210823 0)
(0.0136051 -0.232575 0)
(0.0456516 -0.224158 0)
(0.115433 -0.209209 0)
(0.153803 -0.219858 0)
(0.195296 -0.217109 0)
(0.22946 -0.177345 0)
(0.266008 -0.107895 0)
(0.277555 -0.0448868 0)
(0.275804 -0.0170958 0)
(0.255155 0.00945542 0)
(0.203694 0.0380011 0)
(0.0612402 0.07071 0)
(-0.0942974 0.0663182 0)
(-0.1784 0.0546653 0)
(-0.225581 0.04688 0)
(-0.240722 0.0566921 0)
(-0.246631 0.0494797 0)
(-0.243862 -0.00121081 0)
(-0.236183 -0.077987 0)
(-0.212373 -0.137512 0)
(-0.124698 -0.183877 0)
(-0.100921 -0.288756 0)
(-0.0568396 -0.303226 0)
(-0.0272508 -0.241996 0)
(-0.0160312 -0.200857 0)
(-0.0242092 -0.148522 0)
(-0.0298747 -0.0864669 0)
(-0.0188673 -0.0842958 0)
(-0.00718688 -0.129727 0)
(-0.0140711 -0.181805 0)
(-0.00954277 -0.217509 0)
(0.0246128 -0.215251 0)
(0.0979969 -0.190718 0)
(0.131985 -0.197317 0)
(0.177758 -0.188055 0)
(0.239032 -0.146245 0)
(0.278441 -0.0794218 0)
(0.285307 -0.0132939 0)
(0.281638 0.0303513 0)
(0.259618 0.0633541 0)
(0.201401 0.0845757 0)
(0.0883196 0.100097 0)
(-0.0772229 0.100778 0)
(-0.179132 0.104359 0)
(-0.215381 0.102748 0)
(-0.227574 0.108357 0)
(-0.234188 0.101502 0)
(-0.241302 0.0643544 0)
(-0.224278 0.00220967 0)
(-0.18747 -0.0713635 0)
(-0.0934003 -0.172966 0)
(-0.0774704 -0.281147 0)
(-0.0446656 -0.294714 0)
(-0.0195656 -0.247184 0)
(-0.021003 -0.205581 0)
(-0.0248618 -0.163358 0)
(0.0236469 -0.105662 0)
(-0.0114324 -0.0520019 0)
(-0.00625068 -0.0934188 0)
(-0.0176911 -0.143127 0)
(-0.0241268 -0.191811 0)
(0.00452825 -0.198715 0)
(0.056036 -0.170202 0)
(0.12156 -0.15703 0)
(0.165363 -0.159218 0)
(0.249565 -0.111149 0)
(0.286688 -0.0353121 0)
(0.286408 0.043847 0)
(0.277519 0.0977784 0)
(0.241583 0.121861 0)
(0.14836 0.115819 0)
(0.0520177 0.0969006 0)
(-0.00367626 0.0971956 0)
(-0.101445 0.130306 0)
(-0.179141 0.161706 0)
(-0.193845 0.174169 0)
(-0.194761 0.172129 0)
(-0.213826 0.135463 0)
(-0.222641 0.0678415 0)
(-0.157002 -0.0166291 0)
(-0.0608895 -0.149412 0)
(-0.0507101 -0.291143 0)
(-0.023994 -0.3161 0)
(-0.0116726 -0.26722 0)
(-0.0214316 -0.21502 0)
(-0.0106728 -0.161704 0)
(0.0493545 -0.0719378 0)
(-0.00476383 -0.0315636 0)
(-0.0038602 -0.0626978 0)
(-0.0147541 -0.0975045 0)
(-0.029225 -0.151108 0)
(-0.0265438 -0.173185 0)
(0.0207769 -0.13331 0)
(0.0938095 -0.147772 0)
(0.198587 -0.104349 0)
(0.226764 -0.0347725 0)
(0.230235 0.0641249 0)
(0.238187 0.13219 0)
(0.226717 0.164544 0)
(0.173936 0.157221 0)
(0.0519597 0.110268 0)
(0.0112749 0.0861302 0)
(0.0440918 0.0864974 0)
(0.0189299 0.109487 0)
(-0.0823356 0.173081 0)
(-0.128957 0.22272 0)
(-0.130872 0.247673 0)
(-0.139458 0.243875 0)
(-0.186501 0.176111 0)
(-0.152161 0.0274901 0)
(-0.0437001 -0.134145 0)
(-0.0344597 -0.304982 0)
(-0.0246365 -0.342707 0)
(-0.0012085 -0.299177 0)
(-0.00156216 -0.212958 0)
(-0.0095095 -0.0942453 0)
(0.0190429 -0.0407709 0)
(-0.00133802 -0.0195222 0)
(-0.00235393 -0.0409564 0)
(-0.00910229 -0.0616815 0)
(-0.0250766 -0.0977853 0)
(-0.0492263 -0.134268 0)
(0.00734976 -0.112398 0)
(0.0601141 -0.0783401 0)
(0.199463 -0.0273961 0)
(0.245594 0.0913037 0)
(0.197404 0.201665 0)
(0.172991 0.216149 0)
(0.148131 0.199346 0)
(0.060552 0.151215 0)
(-0.00781901 0.100559 0)
(0.00824683 0.0887438 0)
(0.0511425 0.0891626 0)
(0.078634 0.0963541 0)
(0.0440009 0.141648 0)
(-0.0189435 0.211781 0)
(-0.0491449 0.272999 0)
(-0.0434197 0.324823 0)
(-0.0911911 0.320051 0)
(-0.130241 0.125925 0)
(-0.0378836 -0.0994914 0)
(-0.0233327 -0.300223 0)
(-0.0235446 -0.34474 0)
(0.00113973 -0.297458 0)
(-0.00807963 -0.129879 0)
(0.00170777 -0.0672768 0)
(0.00510708 -0.0267155 0)
(-0.000331964 -0.0116781 0)
(-0.00302751 -0.0256504 0)
(-0.00763996 -0.0367439 0)
(-0.0180814 -0.0524741 0)
(-0.0407551 -0.0847522 0)
(-0.0229805 -0.0784789 0)
(0.0537601 -0.0485815 0)
(0.168709 0.0559303 0)
(0.217206 0.191355 0)
(0.195397 0.268335 0)
(0.184799 0.271216 0)
(0.107195 0.224333 0)
(0.00287318 0.154704 0)
(-0.015686 0.117389 0)
(0.0144582 0.110404 0)
(0.0494333 0.108186 0)
(0.0840717 0.11108 0)
(0.10056 0.134184 0)
(0.0778879 0.186909 0)
(0.0377285 0.254563 0)
(0.0333042 0.348568 0)
(0.000803053 0.404219 0)
(-0.054819 0.308755 0)
(-0.02714 0.00399732 0)
(-0.0291423 -0.271232 0)
(-0.0225414 -0.313165 0)
(-0.0242131 -0.185325 0)
(-0.00788088 -0.09867 0)
(2.64861e-05 -0.0609756 0)
(0.000697606 -0.0221278 0)
(-0.00108275 -0.00593106 0)
(-0.00642318 -0.0143102 0)
(-0.0115978 -0.0201511 0)
(-0.0167036 -0.0250445 0)
(-0.0301342 -0.035249 0)
(-0.0504818 -0.0403788 0)
(0.0458201 0.00689077 0)
(0.158668 0.104025 0)
(0.218685 0.226021 0)
(0.223735 0.31186 0)
(0.210867 0.314272 0)
(0.0997666 0.256513 0)
(-0.00926472 0.189328 0)
(-0.000484015 0.168717 0)
(0.0231181 0.154059 0)
(0.0458555 0.149234 0)
(0.0695535 0.15411 0)
(0.0978858 0.162006 0)
(0.113356 0.193984 0)
(0.0989151 0.246407 0)
(0.0813601 0.3387 0)
(0.0623612 0.424687 0)
(0.0040584 0.426341 0)
(-0.0120884 0.108226 0)
(-0.0369711 -0.234174 0)
(-0.0197723 -0.254822 0)
(-0.023898 -0.134438 0)
(-0.00800476 -0.0970858 0)
(-0.00278896 -0.0607563 0)
(-0.00118598 -0.0217188 0)
(-0.00329007 -0.00167481 0)
(-0.0124429 -0.00551899 0)
(-0.0198376 -0.00936145 0)
(-0.0244329 -0.0108701 0)
(-0.030469 -0.00840818 0)
(-0.0525309 -0.00442492 0)
(0.0432035 0.0480302 0)
(0.152652 0.12852 0)
(0.218941 0.238694 0)
(0.224867 0.337194 0)
(0.204951 0.354366 0)
(0.0695429 0.315895 0)
(0.00301897 0.264922 0)
(0.0227038 0.231311 0)
(0.0334378 0.208923 0)
(0.0405531 0.201953 0)
(0.049668 0.205174 0)
(0.0650875 0.220502 0)
(0.0947745 0.233737 0)
(0.111399 0.262599 0)
(0.0983177 0.33075 0)
(0.107492 0.430173 0)
(0.0469993 0.484274 0)
(0.00493998 0.227905 0)
(-0.0743025 -0.18103 0)
(-0.035327 -0.178895 0)
(-0.0185103 -0.126911 0)
(-0.00836382 -0.099609 0)
(-0.00457943 -0.0651005 0)
(-0.00244401 -0.0233148 0)
(-0.00515742 0.00123111 0)
(-0.0179034 0.00212627 0)
(-0.0296327 -0.00314201 0)
(-0.0349018 -0.00483363 0)
(-0.0371171 -0.00649761 0)
(-0.0355455 -0.00239739 0)
(0.0515008 0.0439906 0)
(0.143455 0.132247 0)
(0.176535 0.248038 0)
(0.176433 0.350253 0)
(0.156254 0.420764 0)
(0.0355291 0.396793 0)
(0.0315687 0.340983 0)
(0.0404831 0.287516 0)
(0.037406 0.261604 0)
(0.0312069 0.251907 0)
(0.0261938 0.252522 0)
(0.0277476 0.264134 0)
(0.0407193 0.286096 0)
(0.0701652 0.304444 0)
(0.0905485 0.344824 0)
(0.137655 0.467274 0)
(0.0691936 0.555284 0)
(0.0154383 0.383665 0)
(-0.124696 -0.115839 0)
(-0.0374442 -0.151735 0)
(-0.0164967 -0.129566 0)
(-0.00790933 -0.104608 0)
(-0.00405481 -0.0741953 0)
(-0.00333491 -0.0282994 0)
(-0.00605411 -1.01681e-05 0)
(-0.0213968 0.0113523 0)
(-0.0394668 -0.00369206 0)
(-0.0445294 -0.00380455 0)
(-0.042407 -0.0129905 0)
(-0.0220608 -0.0260417 0)
(0.0515237 0.0263073 0)
(0.0879551 0.13718 0)
(0.0945226 0.251544 0)
(0.0933375 0.360944 0)
(0.0723374 0.469301 0)
(0.0221868 0.431335 0)
(0.039368 0.364578 0)
(0.0392715 0.315411 0)
(0.0325247 0.287842 0)
(0.0233325 0.276126 0)
(0.0129948 0.27661 0)
(0.00353753 0.289776 0)
(-0.00151267 0.310961 0)
(0.00394176 0.341497 0)
(0.0275518 0.394187 0)
(0.115536 0.573364 0)
(0.0706927 0.676491 0)
(-0.00527841 0.374251 0)
(-0.11503 -0.0576202 0)
(-0.0297783 -0.13894 0)
(-0.00464142 -0.13258 0)
(0.00055729 -0.113668 0)
(-0.000345587 -0.0861835 0)
(-0.0036123 -0.0390306 0)
(-0.0073614 -0.0043493 0)
(-0.0233101 0.00920544 0)
(-0.0527356 -0.0105234 0)
(-0.0597548 -0.00856877 0)
(-0.0446457 -0.0247531 0)
(-0.0217657 -0.0307777 0)
(0.008194 0.0191452 0)
(0.0190927 0.123584 0)
(0.0115159 0.24873 0)
(0.00861953 0.363872 0)
(0.0021036 0.446475 0)
(0.0156762 0.418071 0)
(0.0382556 0.362921 0)
(0.0417135 0.321537 0)
(0.0351445 0.295324 0)
(0.0185901 0.280585 0)
(-0.00177508 0.280669 0)
(-0.0209996 0.292905 0)
(-0.0342594 0.314737 0)
(-0.0394614 0.351418 0)
(-0.0324255 0.416462 0)
(0.0221093 0.65072 0)
(0.0574236 0.767156 0)
(-0.00798347 0.238392 0)
(-0.0355449 -0.0402161 0)
(0.0074028 -0.126811 0)
(0.0223475 -0.137614 0)
(0.0231467 -0.126733 0)
(0.00758182 -0.0937533 0)
(-0.00828014 -0.0584933 0)
(-0.0151007 -0.249746 0)
(0.0334815 -0.428886 0)
(-0.0225231 -0.206151 0)
(-0.0583774 -0.0295868 0)
(-0.0391522 -0.0399222 0)
(-0.0258267 -0.0542122 0)
(-0.0229223 -0.0059899 0)
(-0.0387799 0.10131 0)
(-0.0601312 0.241179 0)
(-0.0404646 0.372536 0)
(-0.00455564 0.414904 0)
(0.0219709 0.390293 0)
(0.0426651 0.344978 0)
(0.0464898 0.306408 0)
(0.0349559 0.275412 0)
(0.0148058 0.260414 0)
(-0.0104366 0.259695 0)
(-0.0373324 0.272359 0)
(-0.062841 0.296521 0)
(-0.0844424 0.340592 0)
(-0.097978 0.422488 0)
(-0.0788577 0.61627 0)
(0.0272343 0.764843 0)
(0.105419 0.375297 0)
(0.0677422 -0.0393173 0)
(0.0596956 -0.143541 0)
(0.0596568 -0.153538 0)
(0.0697167 -0.146936 0)
(0.0505502 -0.139892 0)
(-0.0348734 -0.0727688 0)
(-0.0147759 -0.431319 0)
(0.0217907 -0.436236 0)
(0.0321587 -0.476183 0)
(0.0240247 -0.456135 0)
(-0.00952188 -0.0966794 0)
(-0.00746788 -0.105662 0)
(-0.0291496 -0.0657849 0)
(-0.0667628 0.0172227 0)
(0.00013111 -0.0227977 0)
(-0.0439573 0.213772 0)
(0.00787975 0.321925 0)
(0.0512891 0.323578 0)
(0.0630547 0.291058 0)
(0.0544367 0.25634 0)
(0.0363494 0.22731 0)
(0.0119522 0.213804 0)
(-0.0171306 0.212527 0)
(-0.0482245 0.223491 0)
(-0.0800114 0.243709 0)
(-0.115543 0.282912 0)
(-0.151825 0.350876 0)
(-0.129329 0.467373 0)
(-0.0234669 0.575475 0)
(0.108941 0.366518 0)
(0.126158 -0.248222 0)
(0.0623623 -0.19832 0)
(0.0703169 -0.176718 0)
(0.0990714 -0.173623 0)
(0.0112352 -0.566838 0)
(-0.0155206 -0.377257 0)
(-0.0187543 -0.395924 0)
(0.0100114 -0.406026 0)
(0.0197692 -0.459058 0)
(0.0516619 -0.489241 0)
(0.0756582 -0.551261 0)
(0.0371862 -0.298744 0)
(0.029611 -0.24248 0)
(0.13377 -0.497402 0)
(0.121328 -0.504589 0)
(0.0719231 -0.336171 0)
(0.058703 -0.188331 0)
(0.0596971 -0.116216 0)
(0.0596054 -0.0324856 0)
(0.050498 -0.00460943 0)
(0.0309057 0.00690907 0)
(0.00441119 -0.0042859 0)
(-0.0246462 -0.00746467 0)
(-0.0545774 -0.0212567 0)
(-0.0830184 -0.0165764 0)
(-0.110819 -0.0339388 0)
(-0.12966 -0.0650328 0)
(-0.121723 -0.0406854 0)
(-0.0797613 -0.0191432 0)
(-0.0173222 -0.142876 0)
(0.00538865 -0.60575 0)
(-0.000832343 -0.447149 0)
(0.0787607 -0.234917 0)
(0.0225117 -0.600663 0)
(-0.0115797 -0.59998 0)
(0.017326 -0.481071 0)
(-0.0203878 -0.360919 0)
(0.00716896 -0.355524 0)
(0.0218031 -0.421405 0)
(0.0547938 -0.480547 0)
(0.0911068 -0.594352 0)
(0.123959 -0.693887 0)
(0.0978005 -0.671678 0)
(0.0862075 -0.564265 0)
(0.111856 -0.533703 0)
(0.0999819 -0.501498 0)
(0.0871521 -0.474559 0)
(0.0722513 -0.459371 0)
(0.0550106 -0.445724 0)
(0.0349157 -0.429009 0)
(0.0124968 -0.415751 0)
(-0.0100095 -0.414364 0)
(-0.0318444 -0.417323 0)
(-0.0509319 -0.424894 0)
(-0.0681863 -0.428438 0)
(-0.0827407 -0.4393 0)
(-0.0901202 -0.44014 0)
(-0.090661 -0.405171 0)
(-0.0726409 -0.367121 0)
(-0.0414624 -0.394649 0)
(0.0219546 -0.64135 0)
(0.0227721 -0.778572 0)
(0.00822327 -0.715172 0)
(-0.00332202 -0.638121 0)
(-0.0166597 -0.588638 0)
(0.0189478 -0.476433 0)
(-0.0220075 -0.326648 0)
(0.0114509 -0.318611 0)
(0.0312681 -0.398534 0)
(0.054565 -0.479179 0)
(0.0688423 -0.614214 0)
(0.0868741 -0.733156 0)
(0.0301023 -0.639261 0)
(0.0529412 -0.497181 0)
(0.0898999 -0.506784 0)
(0.0892779 -0.494219 0)
(0.0775725 -0.476656 0)
(0.0645371 -0.461613 0)
(0.048571 -0.456245 0)
(0.0302891 -0.444431 0)
(0.0108379 -0.442108 0)
(-0.00860664 -0.437994 0)
(-0.0263871 -0.442352 0)
(-0.0420387 -0.44382 0)
(-0.0553149 -0.45115 0)
(-0.0680698 -0.45566 0)
(-0.0731088 -0.456655 0)
(-0.0738371 -0.441667 0)
(-0.043257 -0.401626 0)
(-0.0071407 -0.395392 0)
(0.0371805 -0.64288 0)
(0.0396657 -0.770601 0)
(0.012908 -0.726181 0)
(-0.00491959 -0.626455 0)
(-0.0177575 -0.575794 0)
(0.0208929 -0.46786 0)
(-0.0210376 -0.304757 0)
(0.0260448 -0.304495 0)
(0.039517 -0.390887 0)
(0.0485269 -0.486122 0)
(0.0507942 -0.626956 0)
(0.0615663 -0.73253 0)
(0.00348347 -0.611477 0)
(0.0303352 -0.460732 0)
(0.0666253 -0.476561 0)
(0.0707243 -0.471282 0)
(0.0642647 -0.451138 0)
(0.0536611 -0.442186 0)
(0.0407282 -0.431517 0)
(0.0255316 -0.425586 0)
(0.0093301 -0.418553 0)
(-0.00601128 -0.41999 0)
(-0.0203689 -0.419633 0)
(-0.0325642 -0.427043 0)
(-0.0424618 -0.428798 0)
(-0.051678 -0.439794 0)
(-0.0586719 -0.444831 0)
(-0.0597135 -0.440058 0)
(-0.0338239 -0.410399 0)
(0.0150238 -0.397336 0)
(0.0490157 -0.649174 0)
(0.0462882 -0.753748 0)
(0.0171764 -0.708588 0)
(-0.00402663 -0.610153 0)
(-0.0144318 -0.565735 0)
(0.0253402 -0.458838 0)
(-0.0240625 -0.296477 0)
(0.034621 -0.305038 0)
(0.0423824 -0.388925 0)
(0.0483371 -0.490298 0)
(0.0372865 -0.621564 0)
(0.0480311 -0.719653 0)
(-0.0043768 -0.6038 0)
(0.0268702 -0.436091 0)
(0.0512145 -0.457132 0)
(0.0565334 -0.451647 0)
(0.0530201 -0.434176 0)
(0.0448554 -0.418692 0)
(0.0340889 -0.41367 0)
(0.0212493 -0.402664 0)
(0.0080648 -0.401386 0)
(-0.00456896 -0.398306 0)
(-0.0159332 -0.403632 0)
(-0.0253357 -0.405819 0)
(-0.0324341 -0.414087 0)
(-0.0382529 -0.419888 0)
(-0.0429203 -0.432956 0)
(-0.0450919 -0.4329 0)
(-0.023712 -0.419282 0)
(0.0285734 -0.404249 0)
(0.0521115 -0.664493 0)
(0.045732 -0.735765 0)
(0.017421 -0.688989 0)
(-0.000581444 -0.596195 0)
(-0.0116896 -0.550247 0)
(0.0310209 -0.447637 0)
(-0.0324425 -0.287436 0)
(0.0345724 -0.304381 0)
(0.0424085 -0.381637 0)
(0.0493812 -0.47996 0)
(0.0337547 -0.592515 0)
(0.0456066 -0.698404 0)
(-0.00272144 -0.603812 0)
(0.0273868 -0.424983 0)
(0.0425423 -0.443998 0)
(0.0459668 -0.437247 0)
(0.0446375 -0.41282 0)
(0.0376286 -0.403173 0)
(0.0284438 -0.392555 0)
(0.0174123 -0.387166 0)
(0.00641979 -0.381539 0)
(-0.00392437 -0.383732 0)
(-0.0130239 -0.384575 0)
(-0.0203051 -0.392396 0)
(-0.0252981 -0.395321 0)
(-0.0282722 -0.406629 0)
(-0.0293431 -0.420506 0)
(-0.0297533 -0.42729 0)
(-0.0119078 -0.414233 0)
(0.0398031 -0.416362 0)
(0.0551021 -0.671052 0)
(0.0410509 -0.713962 0)
(0.0121675 -0.665285 0)
(0.003025 -0.57775 0)
(-0.00923816 -0.536414 0)
(0.038975 -0.435284 0)
(-0.0350845 -0.269436 0)
(0.0266533 -0.296345 0)
(0.0444553 -0.349813 0)
(0.0596781 -0.430859 0)
(0.0470656 -0.54588 0)
(0.0524839 -0.667875 0)
(0.0210655 -0.616152 0)
(0.0264066 -0.426745 0)
(0.0368683 -0.430676 0)
(0.0399642 -0.420149 0)
(0.0379764 -0.398133 0)
(0.0315634 -0.38295 0)
(0.0232393 -0.377594 0)
(0.0135835 -0.368271 0)
(0.00449279 -0.367767 0)
(-0.00396931 -0.365943 0)
(-0.0114204 -0.371455 0)
(-0.0171144 -0.375043 0)
(-0.0207632 -0.384055 0)
(-0.0221744 -0.391014 0)
(-0.0206468 -0.411811 0)
(-0.0203163 -0.417961 0)
(-0.00771235 -0.404485 0)
(0.0422445 -0.441166 0)
(0.0507402 -0.675654 0)
(0.0298717 -0.691148 0)
(0.00416362 -0.636998 0)
(0.00381002 -0.555658 0)
(-0.0070384 -0.517966 0)
(0.0467493 -0.417183 0)
(-0.0349069 -0.238501 0)
(0.0108335 -0.281545 0)
(0.0409225 -0.321945 0)
(0.0682171 -0.378677 0)
(0.0627446 -0.493487 0)
(0.0633572 -0.630735 0)
(0.0487754 -0.621492 0)
(0.0278219 -0.442325 0)
(0.0365541 -0.419084 0)
(0.0372093 -0.406323 0)
(0.0323665 -0.379049 0)
(0.0258319 -0.368085 0)
(0.0182316 -0.359482 0)
(0.00988987 -0.354436 0)
(0.00225869 -0.35053 0)
(-0.00482577 -0.353111 0)
(-0.0108905 -0.354854 0)
(-0.0155471 -0.362927 0)
(-0.0186278 -0.368184 0)
(-0.0190158 -0.381069 0)
(-0.0175001 -0.401153 0)
(-0.0158919 -0.409634 0)
(-0.0156267 -0.38395 0)
(0.030635 -0.484709 0)
(0.0368139 -0.687132 0)
(0.0160457 -0.664746 0)
(-0.00360534 -0.602961 0)
(0.00136446 -0.527729 0)
(-0.00814874 -0.490966 0)
(0.0561827 -0.392523 0)
(-0.0355204 -0.198347 0)
(0.00117467 -0.252677 0)
(0.0233123 -0.310094 0)
(0.0592532 -0.357698 0)
(0.0694466 -0.446791 0)
(0.0739571 -0.596102 0)
(0.0654318 -0.601685 0)
(0.0313722 -0.444056 0)
(0.0377088 -0.407192 0)
(0.0341063 -0.388073 0)
(0.0263969 -0.36231 0)
(0.0200584 -0.350104 0)
(0.0133685 -0.34502 0)
(0.00615699 -0.33809 0)
(-0.000306647 -0.337487 0)
(-0.00614646 -0.337228 0)
(-0.0113226 -0.342255 0)
(-0.0153408 -0.347576 0)
(-0.0182722 -0.356222 0)
(-0.0185338 -0.367197 0)
(-0.0182128 -0.392653 0)
(-0.0171645 -0.397316 0)
(-0.0236788 -0.367186 0)
(0.00139453 -0.546685 0)
(0.0140001 -0.67433 0)
(-0.00367752 -0.633135 0)
(-0.0142469 -0.565217 0)
(0.00175767 -0.49481 0)
(-0.0108351 -0.45341 0)
(0.064437 -0.356323 0)
(-0.0331577 -0.154335 0)
(-0.00367776 -0.218299 0)
(0.00753546 -0.289641 0)
(0.0383821 -0.34798 0)
(0.0640553 -0.414938 0)
(0.0810792 -0.569673 0)