/*--------------------------------*- C++ -*----------------------------------*\
| =========                 |                                                 |
| \\      /  F ield         | OpenFOAM: The Open Source CFD Toolbox           |
|  \\    /   O peration     | Version:  2.3.0                                 |
|   \\  /    A nd           | Web:      www.OpenFOAM.org                      |
|    \\/     M anipulation  |                                                 |
\*---------------------------------------------------------------------------*/
FoamFile
{
    version     2.0;
    format      ascii;
    class       volScalarField;
    location    "0.400009";
    object      nut.water;
}
// * * * * * * * * * * * * * * * * * * * * * * * * * * * * * * * * * * * * * //

dimensions      [0 2 -1 0 0 0 0];

internalField   nonuniform List<scalar> 
10000
(
4.24098e-05
4.01205e-05
3.7585e-05
3.80415e-05
2.54358e-05
2.00133e-05
1.05615e-05
2.33261e-06
2.65283e-07
1.96863e-06
2.14384e-06
1.3035e-06
7.53964e-07
5.81076e-06
1.64275e-05
2.53861e-05
0.000127491
0.000369121
0.000518346
0.000592868
1.2564e-05
2.59467e-05
6.13469e-06
1.6377e-05
9.52323e-06
7.32356e-07
4.74515e-07
1.11654e-06
9.2253e-07
9.14205e-07
9.04419e-07
9.15916e-07
9.13065e-07
3.4129e-07
2.58289e-06
0.000107223
0.000621377
0.00120387
0.0015016
0.00168045
3.22172e-05
2.11989e-05
4.76971e-06
1.87278e-05
8.03735e-06
6.11928e-06
2.75538e-06
1.2605e-06
1.05963e-06
1.05804e-06
1.05457e-06
1.04464e-06
3.04684e-07
2.08098e-06
0.000113068
0.000771402
0.0017052
0.00227441
0.00274577
0.00295403
3.93704e-05
1.53638e-05
2.93842e-06
1.77707e-05
7.39176e-06
4.70863e-07
9.24191e-07
9.19153e-07
9.26682e-07
9.60958e-07
9.45422e-07
4.05524e-07
1.3453e-06
9.73941e-05
0.000768451
0.00169215
0.00249226
0.00315137
0.0035187
0.00372812
1.51498e-05
2.1898e-05
6.15112e-06
8.84946e-06
7.3839e-06
4.82356e-07
1.03366e-06
9.53556e-07
9.51427e-07
9.77137e-07
6.23305e-07
7.62043e-07
6.4984e-05
0.000634017
0.0015193
0.00232295
0.00297656
0.00363532
0.00396873
0.00425591
1.41656e-05
4.0879e-05
2.88359e-05
3.15655e-06
6.73616e-06
4.63908e-07
9.97436e-07
9.20593e-07
9.26263e-07
7.21408e-07
4.78179e-07
3.85518e-05
0.000480663
0.00129346
0.00208687
0.00277071
0.00323141
0.00381322
0.0042641
0.00451364
1.30039e-05
8.36816e-05
3.18747e-05
1.43405e-05
3.46717e-06
5.02485e-07
7.22285e-07
7.18387e-07
6.68091e-07
4.34627e-07
2.5958e-05
0.000371897
0.00109574
0.00182752
0.00256661
0.00324982
0.00373967
0.00404892
0.00446398
0.00466436
3.69423e-05
4.56874e-05
3.18146e-05
2.01705e-05
2.2346e-06
7.40891e-07
5.57277e-07
5.12521e-07
5.86964e-07
2.17229e-05
0.000324331
0.000973749
0.001624
0.00228215
0.00295147
0.00358698
0.0039891
0.00328933
0.00437913
0.00477686
8.6011e-05
7.98422e-06
4.20023e-05
2.50299e-05
1.24387e-07
2.7794e-06
2.95772e-06
2.5947e-06
1.92486e-05
0.000299916
0.000920468
0.0015163
0.00210586
0.00268801
0.00327324
0.00385207
0.00438248
0.00445903
0.00457894
0.0049166
8.93915e-05
1.16524e-05
5.1342e-05
2.79725e-05
1.498e-06
1.34363e-05
1.62655e-05
2.14966e-05
0.000265695
0.00104152
0.00173864
0.00235845
0.00291581
0.00340945
0.0038361
0.00423335
0.00466024
0.00458713
0.0047808
0.0050503
8.56573e-05
1.78512e-05
4.76503e-05
2.76672e-05
2.22264e-06
2.15422e-05
2.36494e-05
0.000114373
0.000753941
0.00157633
0.00229208
0.00293903
0.00351023
0.00399312
0.00436523
0.0046179
0.0048392
0.00446315
0.00390523
0.00503522
3.44362e-05
2.74727e-05
6.04419e-05
2.64296e-05
2.38876e-06
1.60671e-05
3.3251e-05
0.00027451
0.00105552
0.0018754
0.00261017
0.00331589
0.00392463
0.00444075
0.00484456
0.00514543
0.00535684
0.00523606
0.00508473
0.00512065
1.90127e-05
4.37693e-05
5.94179e-05
2.77761e-05
2.79289e-06
2.29288e-05
6.66372e-05
0.000527641
0.00133268
0.00210958
0.00283046
0.00354487
0.00418286
0.0047355
0.00517852
0.00550242
0.00567302
0.00552584
0.00516444
0.00487677
1.94652e-05
8.39558e-05
5.59081e-05
1.76415e-05
2.63005e-06
2.14628e-05
0.000127741
0.000792025
0.00156095
0.0022913
0.00297818
0.00365745
0.00432445
0.00489631
0.00535744
0.0056828
0.00577353
0.00565804
0.00540774
0.00525071
2.47478e-05
7.64226e-05
4.78329e-05
1.19599e-05
2.825e-06
2.1449e-05
0.000243483
0.00101851
0.00174922
0.0024412
0.00309086
0.00373378
0.00436905
0.00490709
0.00533846
0.00568324
0.00565609
0.00561492
0.00550961
0.00541167
3.71744e-05
6.87949e-05
4.26461e-05
2.25774e-05
3.07639e-06
3.03957e-05
0.000368525
0.00118428
0.00189532
0.00255971
0.00317163
0.0037609
0.0042871
0.00468359
0.00499074
0.00557825
0.00579942
0.00564699
0.0054357
0.00537261
7.17303e-05
5.53402e-05
4.01944e-05
2.24315e-05
4.00783e-06
4.86245e-05
0.000463616
0.00129167
0.00199134
0.00263452
0.00321089
0.0037391
0.00413672
0.00426744
0.00408903
0.00518893
0.0056924
0.00540405
0.00499676
0.00497243
4.05016e-05
4.20938e-05
2.91799e-05
1.65618e-05
7.90766e-06
6.56068e-05
0.00051517
0.00136208
0.00203782
0.00265991
0.00320194
0.00367747
0.00402417
0.00418826
0.00423511
0.00480944
0.00525727
0.00480988
0.00443696
0.00440008
1.84037e-05
1.90612e-05
1.37881e-05
1.12262e-05
9.81949e-06
7.09003e-05
0.000557692
0.00138082
0.00204443
0.00264648
0.00315759
0.00356538
0.00383406
0.00391853
0.00383254
0.00392827
0.00482189
0.00445951
0.00426775
0.00429668
2.85426e-06
6.94023e-06
2.82819e-06
1.96007e-06
1.03751e-05
5.3541e-05
0.000545126
0.0013466
0.00203689
0.00263337
0.00312574
0.00349785
0.00370987
0.00367632
0.00318065
0.0010037
0.00429699
0.00392853
0.00354453
0.00338202
4.57738e-05
4.05166e-05
3.96708e-05
3.89298e-05
2.59792e-05
2.00542e-05
1.03602e-05
2.1972e-06
2.52145e-07
1.87692e-06
2.02834e-06
1.24104e-06
7.14091e-07
5.71034e-06
1.64355e-05
2.58827e-05
0.000128644
0.000368859
0.00051852
0.000592719
1.36533e-05
2.56157e-05
8.95679e-06
1.69808e-05
1.02941e-05
6.628e-07
4.58857e-07
1.12023e-06
9.14817e-07
9.05184e-07
8.95803e-07
9.06522e-07
9.15314e-07
3.42982e-07
2.47272e-06
0.000107752
0.000623895
0.00120306
0.00150257
0.00168144
3.08597e-05
2.15263e-05
7.66787e-06
1.95503e-05
8.92288e-06
6.04173e-06
2.82106e-06
1.2478e-06
1.05239e-06
1.05129e-06
1.04871e-06
1.04128e-06
3.20146e-07
1.99754e-06
0.000112855
0.00077154
0.00169882
0.00227431
0.00273693
0.00294699
3.63045e-05
1.66621e-05
5.42627e-06
1.92396e-05
8.30531e-06
4.64929e-07
9.21824e-07
9.14427e-07
9.22157e-07
9.54463e-07
9.4113e-07
4.31682e-07
1.27418e-06
9.68931e-05
0.000767909
0.00169215
0.00249323
0.00314331
0.00351848
0.00372817
2.13677e-05
2.34074e-05
5.91831e-06
1.30008e-05
8.30541e-06
4.90244e-07
1.03132e-06
9.49402e-07
9.47119e-07
9.72786e-07
6.60683e-07
7.13819e-07
6.44881e-05
0.000633272
0.00151896
0.00232332
0.00297832
0.00363606
0.00397044
0.00424621
1.89067e-05
4.20461e-05
1.97898e-05
5.23589e-06
7.9314e-06
4.66063e-07
9.99612e-07
9.22162e-07
9.279e-07
7.70555e-07
4.4458e-07
3.81098e-05
0.000479824
0.00129277
0.00208647
0.00277134
0.0032267
0.00381528
0.00425104
0.00451456
1.53955e-05
7.04484e-05
2.89109e-05
1.02572e-05
5.68156e-06
4.98756e-07
7.64043e-07
7.53864e-07
7.20429e-07
3.91547e-07
2.55518e-05
0.00037117
0.001095
0.00182683
0.00256606
0.00324965
0.00374111
0.00403653
0.00444398
0.00466474
3.43679e-05
3.16657e-05
3.04816e-05
1.72354e-05
3.85223e-06
6.95587e-07
5.29502e-07
4.96323e-07
5.26557e-07
2.08758e-05
0.000323887
0.000973026
0.00162328
0.00228144
0.00295084
0.00358661
0.00399032
0.00331385
0.00438131
0.00477664
7.63364e-05
9.84746e-06
3.79039e-05
2.22793e-05
7.56603e-07
2.60205e-06
2.71367e-06
2.38972e-06
1.82699e-05
0.000297596
0.00091832
0.0015141
0.00210374
0.00268611
0.00327175
0.00385257
0.00438284
0.00446127
0.00458287
0.00491568
8.0036e-05
1.37772e-05
4.56022e-05
2.50774e-05
2.85115e-06
1.4849e-05
1.77184e-05
2.30476e-05
0.000266285
0.00104293
0.00174008
0.00235995
0.00291732
0.00341101
0.00383781
0.00423572
0.00466219
0.00459088
0.00476747
0.00504876
7.44456e-05
2.01044e-05
4.6585e-05
2.53563e-05
3.37729e-06
2.17033e-05
2.47838e-05
0.000115829
0.000755322
0.00157635
0.00229209
0.00293904
0.00351023
0.00399314
0.00436525
0.0046193
0.00484005
0.00446971
0.00392266
0.00503468
3.24545e-05
2.88856e-05
5.33675e-05
2.45114e-05
3.50641e-06
1.7147e-05
4.16364e-05
0.000276007
0.00105668
0.00187676
0.00261151
0.003316
0.00392479
0.00444096
0.00484483
0.00514571
0.00535687
0.00523502
0.00508377
0.0051195
2.06069e-05
4.52691e-05
5.28637e-05
2.49616e-05
3.76643e-06
2.30998e-05
6.73985e-05
0.000529058
0.00133395
0.00211096
0.0028318
0.00354497
0.00418301
0.00473572
0.00517881
0.0055027
0.005673
0.00552423
0.00516038
0.00487457
2.09871e-05
7.47967e-05
5.00663e-05
1.8483e-05
3.81419e-06
2.16441e-05
0.000128143
0.000793403
0.00156227
0.00229269
0.00297954
0.00365888
0.00432461
0.00489653
0.00535776
0.0056831
0.00577338
0.00565711
0.00540746
0.00522661
2.59418e-05
6.79761e-05
4.31434e-05
1.42144e-05
4.08308e-06
2.20707e-05
0.00024397
0.00101987
0.00175057
0.0024426
0.00309221
0.00373523
0.00436923
0.00490736
0.00533881
0.0056835
0.00565453
0.00561274
0.00550666
0.00540938
3.81155e-05
5.98646e-05
3.72927e-05
1.75061e-05
4.49806e-06
3.18541e-05
0.00036929
0.00118564
0.0018967
0.00256113
0.00317298
0.00376239
0.00428867
0.00468521
0.00499097
0.00557873
0.00579937
0.0056451
0.00543274
0.00536988
6.09369e-05
4.709e-05
3.39487e-05
2.09197e-05
5.69786e-06
4.99401e-05
0.000464478
0.00129302
0.00199274
0.00263596
0.00321224
0.00374063
0.0041383
0.0042689
0.00408934
0.00518953
0.00569412
0.00540375
0.00499411
0.00497149
3.11585e-05
3.46737e-05
2.41857e-05
1.63173e-05
9.44753e-06
6.56667e-05
0.000516054
0.0013621
0.00203922
0.00266136
0.00320329
0.00367901
0.0040258
0.00418997
0.00423675
0.00481161
0.00526061
0.00481298
0.00443864
0.00440326
1.27332e-05
1.4774e-05
1.02675e-05
1.01439e-05
1.1156e-05
7.10184e-05
0.000559072
0.00138083
0.00204578
0.00264783
0.00315894
0.00356673
0.0038354
0.00391987
0.00383396
0.00393
0.00482197
0.00444958
0.0042495
0.00427817
1.43206e-06
3.23138e-06
1.25135e-06
1.27414e-06
1.15319e-05
5.37096e-05
0.000545154
0.00134795
0.00203825
0.00263472
0.00312708
0.00349919
0.00371121
0.00367765
0.00318162
0.00112537
0.00430076
0.00392197
0.00353988
0.00338044
4.94445e-05
4.04191e-05
4.1492e-05
3.96161e-05
2.63721e-05
2.00715e-05
1.01493e-05
2.1294e-06
2.46941e-07
1.82642e-06
1.96242e-06
1.21046e-06
6.95448e-07
5.59899e-06
1.64273e-05
2.63472e-05
0.000130362
0.000368346
0.00051887
0.000592485
1.55228e-05
2.49304e-05
1.22024e-05
1.79956e-05
1.12671e-05
6.33768e-07
4.52841e-07
1.12081e-06
9.10991e-07
9.00642e-07
8.89698e-07
9.01719e-07
9.15461e-07
3.4496e-07
2.4189e-06
0.000108203
0.000627954
0.0012014
0.00150458
0.00168283
2.85538e-05
2.17822e-05
1.0999e-05
2.08655e-05
1.00463e-05
5.89932e-06
2.80141e-06
1.23174e-06
1.04186e-06
1.04049e-06
1.03803e-06
1.03203e-06
3.24763e-07
1.94232e-06
0.000112412
0.000772045
0.00169392
0.00227383
0.00273038
0.00294127
3.12502e-05
1.81862e-05
8.54385e-06
2.11503e-05
9.49177e-06
4.57569e-07
9.17794e-07
9.08858e-07
9.16573e-07
9.46931e-07
9.34409e-07
4.40878e-07
1.22864e-06
9.5996e-05
0.000766832
0.00169213
0.00249483
0.00313837
0.00351782
0.003728
2.88956e-05
2.52858e-05
7.93939e-06
1.7481e-05
9.51122e-06
4.93732e-07
1.02114e-06
9.42925e-07
9.4074e-07
9.65038e-07
6.67928e-07
6.86246e-07
6.36373e-05
0.000631799
0.00151826
0.00232404
0.00298183
0.00363747
0.00397356
0.00423984
2.48313e-05
4.19935e-05
1.54773e-05
9.3499e-06
9.30566e-06
4.64747e-07
9.89727e-07
9.17212e-07
9.22776e-07
7.81896e-07
4.28042e-07
3.74226e-05
0.000478173
0.0012914
0.00208568
0.00277248
0.00322565
0.00381911
0.00424261
0.00451608
1.84828e-05
5.88729e-05
2.61597e-05
8.4989e-06
7.94921e-06
4.88308e-07
7.80339e-07
7.673e-07
7.44063e-07
3.72009e-07
2.50185e-05
0.000369746
0.00109354
0.00182548
0.00256497
0.0032493
0.00374369
0.00402979
0.00442932
0.00466529
3.41328e-05
2.14237e-05
2.98927e-05
1.51072e-05
6.00359e-06
6.7557e-07
5.1908e-07
4.90245e-07
5.02697e-07
1.98047e-05
0.000323026
0.000971596
0.00162184
0.00228003
0.00294958
0.00358586
0.00399268
0.00336544
0.00438557
0.0047762
6.84889e-05
1.20448e-05
3.55274e-05
2.02684e-05
2.5142e-06
2.36926e-06
2.48225e-06
2.27014e-06
1.66426e-05
0.00029301
0.000914008
0.00150967
0.0020995
0.00268229
0.00326873
0.00385183
0.00438361
0.00446575
0.00459016
0.00491381
7.23775e-05
1.63287e-05
4.15905e-05
2.30136e-05
4.72121e-06
1.59153e-05
1.89375e-05
2.4104e-05
0.000265204
0.00104376
0.00174114
0.0023612
0.00291863
0.00341242
0.00383938
0.00423794
0.004666
0.00459769
0.00476142
0.00504546
6.50747e-05
2.2701e-05
4.43022e-05
2.36903e-05
5.04687e-06
2.19408e-05
2.56846e-05
0.000116901
0.000756341
0.00157637
0.00229211
0.00293905
0.00351025
0.00399315
0.00436528
0.0046204
0.00484085
0.004481
0.00397047
0.00503367
2.89285e-05
3.07589e-05
4.77427e-05
2.33045e-05
5.05084e-06
1.80686e-05
4.43743e-05
0.000277136
0.00105729
0.00187779
0.0026125
0.00331622
0.0039251
0.00444139
0.00484538
0.00514626
0.00535691
0.00523299
0.00508185
0.00511717
2.24987e-05
4.61742e-05
4.75164e-05
2.33803e-05
5.38416e-06
2.32961e-05
6.74062e-05
0.00053012
0.00133479
0.00211202
0.00283281
0.00354518
0.0041833
0.00473614
0.00517939
0.00550328
0.00567296
0.00552102
0.00515223
0.00486954
2.25092e-05
6.71642e-05
4.52181e-05
1.94758e-05
5.40582e-06
2.18678e-05
0.000127279
0.000794434
0.00156321
0.00229376
0.00298055
0.00366006
0.00432491
0.00489698
0.00535838
0.0056837
0.0057731
0.00565527
0.00540646
0.0052065
2.70278e-05
6.10121e-05
3.93062e-05
1.70097e-05
5.57545e-06
2.24982e-05
0.000243208
0.00102089
0.00175158
0.0024437
0.00309323
0.00373645
0.0043696
0.00490791
0.00533951
0.00568402
0.00565142
0.00560841
0.00550078
0.00540453
3.77682e-05
5.24782e-05
3.31107e-05
1.6338e-05
6.11508e-06
3.3064e-05
0.000369041
0.00118665
0.00189777
0.00256229
0.003174
0.00376369
0.00429013
0.00468679
0.00499143
0.00557968
0.00579927
0.00564135
0.00542687
0.00536444
5.13666e-05
4.0418e-05
2.8873e-05
1.97897e-05
7.49073e-06
5.09543e-05
0.000464458
0.00129402
0.00199384
0.00263716
0.00321325
0.003742
0.0041398
0.00427016
0.00408822
0.00519071
0.00569755
0.00540312
0.00498877
0.00496957
2.31739e-05
2.86653e-05
1.97649e-05
1.65316e-05
1.09019e-05
6.57385e-05
0.000516074
0.00136212
0.00204032
0.00266257
0.00320431
0.00368041
0.00402737
0.00419172
0.00423833
0.00481415
0.00526711
0.00481845
0.00444087
0.00440855
8.00615e-06
1.0808e-05
6.98267e-06
8.86174e-06
1.23298e-05
7.11927e-05
0.00056009
0.00138086
0.00204678
0.00264884
0.00315995
0.00356774
0.00383642
0.00392089
0.00383503
0.00393162
0.00482782
0.00444446
0.00423638
0.00426522
1.94925e-07
1.0248e-06
3.30523e-07
6.84216e-07
1.2518e-05
5.39948e-05
0.000545193
0.00134896
0.00203926
0.00263573
0.00312809
0.0035002
0.00371222
0.00367865
0.00318218
0.00121505
0.00431181
0.0039189
0.00353804
0.00338182
5.2733e-05
4.03241e-05
4.30269e-05
4.02929e-05
2.67256e-05
2.00899e-05
9.94023e-06
2.02059e-06
2.38152e-07
1.76743e-06
1.88467e-06
1.17261e-06
6.61238e-07
5.52332e-06
1.63881e-05
2.6808e-05
0.000132214
0.000367511
0.000519198
0.000592017
1.86733e-05
2.39935e-05
1.56134e-05
1.92762e-05
1.21659e-05
5.79256e-07
4.43043e-07
1.1248e-06
9.0644e-07
8.9534e-07
8.8566e-07
8.96143e-07
9.18741e-07
3.50668e-07
2.31409e-06
0.000109423
0.000633047
0.00119881
0.00150703
0.00168412
2.61823e-05
2.17783e-05
1.44971e-05
2.2395e-05
1.10932e-05
5.72968e-06
2.84247e-06
1.22426e-06
1.03732e-06
1.03583e-06
1.03358e-06
1.02887e-06
3.45139e-07
1.8581e-06
0.000111731
0.000772498
0.00168994
0.00227295
0.00272545
0.00293639
2.70086e-05
1.95115e-05
1.19232e-05
2.31476e-05
1.06275e-05
4.47167e-07
9.19038e-07
9.06342e-07
9.14068e-07
9.43423e-07
9.31707e-07
4.70097e-07
1.16052e-06
9.47874e-05
0.000765222
0.00169206
0.00249681
0.0031357
0.00351657
0.00372741
3.60957e-05
2.70636e-05
1.02445e-05
2.1346e-05
1.06498e-05
4.91087e-07
1.02236e-06
9.40161e-07
9.3797e-07
9.61818e-07
6.98618e-07
6.43762e-07
6.25287e-05
0.000629612
0.00151721
0.00232504
0.0029865
0.00363933
0.00397782
0.00423615
3.09725e-05
4.05692e-05
1.37808e-05
1.45965e-05
1.05215e-05
4.56623e-07
9.93376e-07
9.1596e-07
9.21455e-07
8.14608e-07
4.02909e-07
3.65798e-05
0.000475737
0.00128935
0.00208449
0.00277401
0.00322791
0.00382448
0.00423811
0.00451797
2.24137e-05
4.85368e-05
2.43462e-05
1.06065e-05
9.77289e-06
4.75353e-07
8.1137e-07
7.92919e-07
7.83339e-07
3.46705e-07
2.4435e-05
0.000367652
0.00109136
0.00182345
0.00256333
0.00324877
0.00374714
0.00402792
0.00441912
0.0046659
3.37258e-05
1.57095e-05
2.98746e-05
1.43471e-05
8.20436e-06
6.38684e-07
5.04741e-07
4.80967e-07
4.75247e-07
1.87814e-05
0.00032179
0.000969478
0.00161971
0.00227794
0.0029477
0.00358473
0.00399605
0.00343037
0.00439169
0.00477553
6.22445e-05
1.41579e-05
3.44929e-05
1.90065e-05
5.05787e-06
2.14462e-06
2.24794e-06
2.11415e-06
1.43186e-05
0.000286243
0.0009075
0.00150299
0.00209309
0.00267653
0.00326417
0.00384983
0.00438478
0.0044723
0.0046002
0.00491095
6.61151e-05
1.87389e-05
3.89158e-05
2.18285e-05
6.48163e-06
1.66065e-05
1.98591e-05
2.47344e-05
0.000262491
0.00104403
0.00174183
0.0023622
0.00291975
0.00341368
0.00384083
0.00424001
0.00467156
0.00460703
0.00476139
0.0050402
5.6907e-05
2.50369e-05
4.15618e-05
2.26933e-05
6.59899e-06
2.21823e-05
2.62958e-05
0.000117594
0.000757009
0.00157638
0.00229213
0.00293906
0.00351026
0.00399317
0.00436531
0.00462117
0.00484085
0.00449557
0.00403328
0.0050322
2.55297e-05
3.2562e-05
4.3322e-05
2.28005e-05
6.43569e-06
1.8711e-05
4.50259e-05
0.00027789
0.00105734
0.0018785
0.00261317
0.00331655
0.00392556
0.00444203
0.0048462
0.00514709
0.00535696
0.00523004
0.00507897
0.00511362
2.38512e-05
4.63076e-05
4.31559e-05
2.27549e-05
6.79464e-06
2.34674e-05
6.65262e-05
0.000530828
0.00133519
0.00211277
0.00283348
0.00354547
0.00418374
0.00473677
0.00518027
0.00550416
0.00567295
0.00551623
0.00513984
0.00486106
2.34007e-05
6.07444e-05
4.11528e-05
2.07906e-05
6.76819e-06
2.20603e-05
0.00012506
0.000795119
0.00156377
0.00229453
0.00298123
0.003661
0.00432537
0.00489766
0.00535933
0.00568462
0.00577271
0.0056525
0.00540439
0.00518899
2.74627e-05
5.51526e-05
3.60614e-05
1.98117e-05
6.76978e-06
2.27172e-05
0.000241224
0.00102156
0.00175225
0.00244452
0.00309391
0.00373743
0.00437013
0.00490872
0.00534056
0.00568482
0.00564681
0.00560197
0.00549202
0.00539689
3.57722e-05
4.61941e-05
2.97788e-05
1.79514e-05
7.33182e-06
3.38327e-05
0.000367789
0.00118732
0.00189852
0.00256319
0.00317468
0.0037648
0.00429148
0.00468834
0.00499211
0.00558113
0.00579918
0.00563577
0.00541816
0.00535639
4.22988e-05
3.47655e-05
2.46498e-05
1.94158e-05
8.92721e-06
5.16027e-05
0.000463566
0.00129469
0.00199464
0.00263812
0.00321393
0.00374323
0.00414121
0.00427119
0.00408567
0.00519248
0.00570272
0.00540213
0.0049807
0.00496664
1.52558e-05
2.28562e-05
1.55328e-05
1.67058e-05
1.20095e-05
6.57916e-05
0.000515242
0.00136213
0.00204113
0.00266355
0.00320499
0.00368168
0.0040289
0.0041935
0.00423985
0.00481705
0.00527662
0.0048257
0.00444268
0.0044151
3.11103e-06
6.59919e-06
4.08305e-06
7.38031e-06
1.31711e-05
7.13609e-05
0.000560759
0.00138088
0.00204746
0.00264952
0.00316062
0.00356842
0.0038371
0.00392156
0.00383574
0.00393294
0.00483913
0.0044436
0.00422782
0.00425704
2.83306e-08
1.00752e-07
6.33437e-08
3.3766e-07
1.32484e-05
5.43074e-05
0.000545231
0.00134964
0.00203993
0.0026364
0.00312877
0.00350087
0.00371289
0.00367932
0.00318249
0.00127491
0.00433012
0.00391905
0.00353874
0.00338576
5.5938e-05
4.04905e-05
4.43912e-05
4.09632e-05
2.70667e-05
2.00967e-05
9.71443e-06
1.92633e-06
2.33667e-07
1.69114e-06
1.79218e-06
1.12846e-06
6.34473e-07
5.40142e-06
1.63538e-05
2.72312e-05
0.000133942
0.000366295
0.000519302
0.000591195
2.1322e-05
2.29934e-05
1.88984e-05
2.06973e-05
1.2884e-05
5.51989e-07
4.38039e-07
1.12179e-06
9.02494e-07
8.90758e-07
8.80047e-07
8.91411e-07
9.18563e-07
3.55193e-07
2.2298e-06
0.000109958
0.000637874
0.00119519
0.00150935
0.00168491
2.61662e-05
2.15719e-05
1.78302e-05
2.39949e-05
1.19371e-05
5.55939e-06
2.83499e-06
1.2087e-06
1.02783e-06
1.02586e-06
1.02398e-06
1.0206e-06
3.54159e-07
1.78268e-06
0.000110807
0.000772772
0.00168665
0.00227167
0.00272151
0.00293196
2.72547e-05
2.06449e-05
1.53181e-05
2.50637e-05
1.1577e-05
4.32078e-07
9.15175e-07
9.01386e-07
9.09049e-07
9.36439e-07
9.25672e-07
4.84217e-07
1.10194e-06
9.3328e-05
0.000763078
0.0016919
0.00249898
0.00313453
0.00351466
0.0037262
4.25009e-05
2.86193e-05
1.30937e-05
2.44471e-05
1.15852e-05
4.80748e-07
1.01221e-06
9.34355e-07
9.32184e-07
9.54592e-07
7.08894e-07
6.09143e-07
6.12182e-05
0.000626724
0.0015158
0.00232625
0.00299197
0.00364144
0.00398302
0.00423458
3.6419e-05
3.7815e-05
1.41199e-05
1.96819e-05
1.14788e-05
4.43809e-07
9.82431e-07
9.12424e-07
9.17498e-07
8.15623e-07
3.85466e-07
3.56142e-05
0.000472537
0.00128664
0.0020829
0.00277586
0.00323296
0.00383118
0.00423693
0.00452006
2.70065e-05
3.96368e-05
2.34103e-05
1.49467e-05
1.11541e-05
4.54261e-07
8.21617e-07
8.01758e-07
7.97991e-07
3.34341e-07
2.38291e-05
0.000364917
0.00108847
0.00182075
0.00256116
0.00324803
0.00375126
0.00403007
0.00441257
0.00466647
3.3976e-05
1.37656e-05
3.02632e-05
1.54991e-05
1.00448e-05
6.16012e-07
4.9778e-07
4.76658e-07
4.59879e-07
1.81081e-05
0.000320231
0.0009667
0.0016169
0.00227518
0.00294522
0.00358322
0.00400027
0.00350124
0.00439938
0.00477462
5.74573e-05
1.602e-05
3.42472e-05
1.88108e-05
7.84085e-06
1.91255e-06
2.00609e-06
1.97407e-06
1.09794e-05
0.000277407
0.000898746
0.00149398
0.00208447
0.00266877
0.00325801
0.00384655
0.00438626
0.00448065
0.00461241
0.00490704
6.08917e-05
2.0732e-05
3.73146e-05
2.15391e-05
7.53416e-06
1.69519e-05
2.0468e-05
2.50119e-05
0.000258217
0.00104375
0.00174216
0.00236297
0.00292071
0.00341483
0.00384219
0.00424194
0.00467881
0.00461849
0.0047661
0.00503282
4.9983e-05
2.68163e-05
3.90979e-05
2.25402e-05
7.53807e-06
2.23457e-05
2.66023e-05
0.000117927
0.000757337
0.00157639
0.00229214
0.00293907
0.00351027
0.00399318
0.00436532
0.00462156
0.00483934
0.00451228
0.00410282
0.00503022
2.37081e-05
3.39896e-05
3.99133e-05
2.31159e-05
7.26296e-06
1.90377e-05
4.50691e-05
0.000278266
0.00105684
0.0018789
0.0026135
0.00331698
0.00392619
0.00444288
0.00484732
0.00514823
0.00535701
0.00522613
0.00507507
0.00510877
2.42547e-05
4.57024e-05
3.95903e-05
2.31751e-05
7.61341e-06
2.35733e-05
6.46739e-05
0.000531181
0.00133515
0.00211321
0.00283381
0.00354586
0.00418433
0.00473762
0.00518144
0.00550537
0.00567302
0.00550988
0.00512307
0.00484855
2.33277e-05
5.52541e-05
3.76788e-05
2.26269e-05
7.55606e-06
2.21714e-05
0.00012141
0.000795461
0.00156396
0.00229499
0.00298157
0.0036617
0.00432597
0.00489856
0.00536061
0.00568586
0.00577225
0.00564885
0.00540101
0.00517279
2.69971e-05
4.99963e-05
3.31729e-05
2.29659e-05
7.44559e-06
2.27958e-05
0.000238057
0.0010219
0.00175258
0.00244505
0.00309425
0.00373819
0.00437084
0.0049098
0.00534197
0.00568592
0.00564074
0.00559351
0.00548046
0.00538629
3.19038e-05
4.04724e-05
2.69238e-05
2.09069e-05
7.98785e-06
3.41663e-05
0.000365549
0.00118766
0.00189897
0.00256383
0.00317502
0.00376572
0.00429272
0.00468985
0.00499302
0.00558308
0.00579913
0.00562841
0.00540671
0.00534584
3.28551e-05
2.92352e-05
2.08534e-05
2.01614e-05
9.71119e-06
5.19019e-05
0.000461814
0.00129502
0.00199515
0.00263884
0.00321427
0.00374431
0.00414253
0.00427202
0.00408171
0.00519484
0.00570963
0.00540075
0.00496981
0.00496262
7.45318e-06
1.59137e-05
1.11693e-05
1.681e-05
1.2615e-05
6.58143e-05
0.000513567
0.00136214
0.00204165
0.0026643
0.00320533
0.00368282
0.00403038
0.00419533
0.00424131
0.00482027
0.00528898
0.00483422
0.00444312
0.00442221
4.6055e-07
2.55824e-06
1.84189e-06
5.83612e-06
1.36111e-05
7.14666e-05
0.000561088
0.00138089
0.00204779
0.00264986
0.00316096
0.00356876
0.00383744
0.00392191
0.00383611
0.00393373
0.00485566
0.00444652
0.00422321
0.00425278
2.72247e-07
3.83354e-08
9.08169e-08
2.40094e-07
1.36639e-05
5.45295e-05
0.000545255
0.00134997
0.00204027
0.00263674
0.0031291
0.00350121
0.00371323
0.00367965
0.00318263
0.00130501
0.00435563
0.00392217
0.00354185
0.00339205
5.91622e-05
4.08988e-05
4.55734e-05
4.16247e-05
2.73809e-05
2.00814e-05
9.46808e-06
1.81733e-06
2.27187e-07
1.63871e-06
1.71885e-06
1.09873e-06
6.00115e-07
5.28393e-06
1.62793e-05
2.75999e-05
0.000135345
0.000364621
0.000518961
0.000589855
2.41653e-05
2.20949e-05
2.18455e-05
2.21439e-05
1.33916e-05
5.01219e-07
4.32176e-07
1.12654e-06
8.98781e-07
8.86487e-07
8.76934e-07
8.8694e-07
9.21463e-07
3.63962e-07
2.11166e-06
0.000109906
0.000641406
0.00119041
0.00151102
0.00168482
2.96685e-05
2.13907e-05
2.07837e-05
2.55774e-05
1.25367e-05
5.39967e-06
2.83877e-06
1.20085e-06
1.02318e-06
1.02093e-06
1.01924e-06
1.01687e-06
3.77573e-07
1.69353e-06
0.000109633
0.000772677
0.00168382
0.00227
0.00271802
0.00292761
3.33958e-05
2.17137e-05
1.84648e-05
2.68056e-05
1.22782e-05
4.18427e-07
9.16315e-07
8.98974e-07
9.066e-07
9.33003e-07
9.22841e-07
5.15146e-07
1.03255e-06
9.16541e-05
0.000760398
0.0016916
0.00250116
0.00313421
0.003512
0.00372423
4.85543e-05
3.00948e-05
1.60923e-05
2.6903e-05
1.22715e-05
4.6802e-07
1.01174e-06
9.31504e-07
9.29341e-07
9.51104e-07
7.32976e-07
5.68236e-07
5.97349e-05
0.000623142
0.00151402
0.0023276
0.00299794
0.0036436
0.00398895
0.00423463
4.07756e-05
3.37309e-05
1.65986e-05
2.40017e-05
1.21369e-05
4.25511e-07
9.84494e-07
9.10729e-07
9.1559e-07
8.31755e-07
3.64869e-07
3.45426e-05
0.000468596
0.00128326
0.00208089
0.00277794
0.00324035
0.00383899
0.0042385
0.00452222
3.15377e-05
3.23149e-05
2.29516e-05
1.98665e-05
1.2105e-05
4.2823e-07
8.54292e-07
8.27356e-07
8.21576e-07
3.20683e-07
2.32193e-05
0.000361566
0.00108488
0.0018174
0.00255845
0.00324706
0.00375583
0.00403542
0.00440891
0.00466692
3.50803e-05
1.44014e-05
3.07847e-05
1.85118e-05
1.1442e-05
5.82364e-07
4.87094e-07
4.70183e-07
4.49832e-07
1.78467e-05
0.000318412
0.000963297
0.00161344
0.00227177
0.00294215
0.0035813
0.00400518
0.00357373
0.00440839
0.00477348
5.39145e-05
1.76273e-05
3.43981e-05
2e-05
1.03891e-05
1.77677e-06
1.85887e-06
1.86117e-06
7.18738e-06
0.000266658
0.00088768
0.00148258
0.00207356
0.00265896
0.00325022
0.00384197
0.00438797
0.00449046
0.00462619
0.00490201
5.65314e-05
2.21705e-05
3.64779e-05
2.23164e-05
1.6027e-05
7.81536e-07
2.07532e-05
7.81536e-07
0.000252491
0.00104294
7.81536e-07
0.00236354
0.00292152
0.00341589
0.00384347
0.00424373
0.00468759
0.00463164
0.00477432
0.00502321
4.44345e-05
2.78913e-05
3.72091e-05
2.3445e-05
1.79735e-05
7.81536e-07
7.81536e-07
7.81536e-07
7.81536e-07
7.81536e-07
7.81536e-07
7.81536e-07
7.81536e-07
7.81536e-07
7.81536e-07
0.0053138
0.00483565
0.0045302
0.00417431
0.0050277
2.31718e-05
3.48648e-05
3.73442e-05
2.43407e-05
2.08305e-05
7.81536e-07
4.54302e-05
7.81536e-07
0.00105578
0.00187898
7.81536e-07
0.00331753
0.00392697
0.00444396
0.00484873
0.00514968
0.00535703
0.00522125
0.00507004
0.00510252
2.34898e-05
4.43919e-05
3.66186e-05
2.46903e-05
3.23589e-05
7.81536e-07
6.2346e-05
7.81536e-07
0.00133468
0.00211335
7.81536e-07
0.00354634
0.00418506
0.00473868
0.00518293
0.00550693
0.00567323
0.00550201
0.00510179
0.00483141
2.21147e-05
5.04119e-05
3.46097e-05
2.51864e-05
3.60581e-05
7.81536e-07
0.00011641
7.81536e-07
0.00156377
0.00229516
7.81536e-07
0.00366217
0.00432672
0.00489969
0.00536221
0.00568745
0.00577178
0.00564433
0.00539615
0.0051567
2.55171e-05
4.51092e-05
3.0421e-05
2.64855e-05
4.47064e-05
7.81536e-07
0.000233767
7.81536e-07
0.00175257
0.0024453
7.81536e-07
0.00373873
0.00437171
0.00491115
0.00534374
0.00568734
0.0056333
0.00558312
0.00546621
0.00537259
2.61408e-05
3.47044e-05
2.41312e-05
2.47179e-05
4.97086e-05
7.81536e-07
0.000362343
7.81536e-07
0.0018991
0.00256421
7.81536e-07
0.00376645
0.00429387
0.00469133
0.00499416
0.00558555
0.00579919
0.00561935
0.00539269
0.00533294
2.28668e-05
2.29478e-05
1.70175e-05
2.21395e-05
5.28914e-05
7.81536e-07
0.000459216
7.81536e-07
0.00199537
0.00263933
7.81536e-07
0.00374524
0.00414376
0.00427263
0.00407634
0.00519776
0.00571832
0.00539893
0.00495604
0.00495747
2.08084e-06
8.06616e-06
6.5794e-06
1.7009e-05
6.00485e-05
7.81536e-07
0.000511056
7.81536e-07
0.00204188
0.00266482
7.81536e-07
0.00368382
0.00403182
0.0041972
0.00424275
0.00482377
0.00530407
0.00484356
0.00444126
0.00442928
5.79308e-07
6.47778e-07
9.3488e-07
5.36345e-06
6.0391e-05
7.81536e-07
7.81536e-07
7.81536e-07
7.81536e-07
7.81536e-07
7.81536e-07
7.81536e-07
7.81536e-07
7.81536e-07
7.81536e-07
0.00563473
0.00487716
0.00445273
0.00422194
0.00425154
5.81741e-06
6.80558e-07
1.49192e-06
1.02685e-06
6.25913e-05
8.11938e-07
8.11938e-07
8.11938e-07
8.11938e-07
8.11938e-07
8.11938e-07
8.11938e-07
8.11938e-07
8.11938e-07
8.11938e-07
0.00517502
0.00438824
0.00392798
0.00354721
0.00340048
6.2116e-05
4.14512e-05
4.65749e-05
4.22633e-05
2.76623e-05
2.0054e-05
9.20629e-06
1.70952e-06
2.2469e-07
1.56315e-06
1.62969e-06
1.05183e-06
5.68214e-07
5.14895e-06
1.61636e-05
2.78974e-05
0.000136316
0.000362425
0.000517998
0.00058787
2.75957e-05
2.15548e-05
2.43958e-05
2.35317e-05
1.36697e-05
4.75792e-07
4.29072e-07
1.12013e-06
8.94791e-07
8.82131e-07
8.71997e-07
8.82484e-07
9.20731e-07
3.71161e-07
2.00784e-06
0.000109423
0.000643305
0.00118438
0.00151162
0.00168352
3.59454e-05
2.14859e-05
2.3299e-05
2.70264e-05
1.28589e-05
5.27111e-06
2.82127e-06
1.1851e-06
1.01333e-06
1.01067e-06
1.0093e-06
1.00806e-06
3.91723e-07
1.60675e-06
0.000108209
0.000772083
0.00168119
0.00226777
0.00271452
0.00292307
4.22211e-05
2.26652e-05
2.12083e-05
2.83136e-05
1.26838e-05
4.00416e-07
9.12247e-07
8.94311e-07
9.01775e-07
9.26307e-07
9.1692e-07
5.34538e-07
9.69371e-07
8.97899e-05
0.000757175
0.00169111
0.00250323
0.0031343
0.0035085
0.00372138
5.48176e-05
2.95711e-05
1.88676e-05
2.88514e-05
1.26855e-05
4.48002e-07
1.0018e-06
9.25662e-07
9.23542e-07
9.4374e-07
7.42491e-07
5.31721e-07
5.80991e-05
0.000618874
0.00151184
0.00232902
0.00300411
0.00364559
0.00399542
0.00423588
4.3749e-05
2.99638e-05
1.91838e-05
2.7465e-05
1.24923e-05
4.02795e-07
9.73299e-07
9.06601e-07
9.11044e-07
8.32016e-07
3.48651e-07
3.33796e-05
0.000463932
0.00127923
0.00207847
0.00278019
0.00324967
0.00384769
0.00424228
0.00452435
3.55494e-05
2.65365e-05
2.36616e-05
2.45038e-05
1.26449e-05
3.99013e-07
8.60359e-07
8.32995e-07
8.26782e-07
3.15735e-07
2.26205e-05
0.000357621
0.00108059
0.00181338
0.0025552
0.00324584
0.00376069
0.00404315
0.00440743
0.00466724
3.66809e-05
1.62367e-05
3.14224e-05
2.25117e-05
1.2388e-05