/*--------------------------------*- C++ -*----------------------------------*\
| =========                 |                                                 |
| \\      /  F ield         | OpenFOAM: The Open Source CFD Toolbox           |
|  \\    /   O peration     | Version:  2.3.0                                 |
|   \\  /    A nd           | Web:      www.OpenFOAM.org                      |
|    \\/     M anipulation  |                                                 |
\*---------------------------------------------------------------------------*/
FoamFile
{
    version     2.0;
    format      ascii;
    class       volVectorField;
    location    "0.400009";
    object      U.airMean;
}
// * * * * * * * * * * * * * * * * * * * * * * * * * * * * * * * * * * * * * //

dimensions      [0 1 -1 0 0 0 0];

internalField   nonuniform List<vector> 
10000
(
(-0.216478 -0.816923 -0.590656)
(-0.00159006 -0.878267 -0.640816)
(0.0721807 -0.832074 -0.606169)
(0.145561 -0.55534 -0.399101)
(0.108787 -0.370633 -0.28032)
(0.092665 -0.30421 -0.249831)
(0.0626805 -0.248851 -0.229704)
(0.0245344 -0.237715 -0.20469)
(0.0139366 -0.221057 -0.191271)
(-0.0026494 -0.220541 -0.186344)
(0.000212653 -0.237589 -0.186244)
(0.00230005 -0.220122 -0.186156)
(-0.0135065 -0.213549 -0.195268)
(-0.0464497 -0.220112 -0.217082)
(-0.0936657 -0.258995 -0.24933)
(-0.121541 -0.357439 -0.248598)
(-0.101053 -0.538044 -0.372267)
(-0.0480013 -0.667948 -0.49236)
(-0.0288107 -0.735471 -0.48958)
(0.183884 -0.766219 -0.558777)
(0.00483322 -0.838654 -0.0680209)
(-0.00283997 -0.869695 -0.0686077)
(-0.00387105 -0.872461 -0.0628587)
(0.00194293 -0.439238 -0.00275734)
(-0.0042453 -0.213558 -0.00837841)
(-0.00117861 -0.189902 -0.178819)
(0.00331489 -0.179241 -0.192629)
(0.00160258 -0.182221 -0.113818)
(0.00122947 -0.184328 -0.133222)
(0.000141123 -0.189231 -0.123257)
(-5.9614e-05 -0.190473 -0.0985712)
(-0.000119228 -0.187791 -0.12481)
(-0.00114589 -0.179277 -0.139636)
(-0.0040413 -0.168142 -0.175103)
(-0.00258073 -0.163716 -0.24758)
(-0.00426756 -0.277318 -0.0948529)
(-0.00155027 -0.486198 -0.0265295)
(-0.0011699 -0.670244 -0.0495521)
(0.00235386 -0.732393 -0.0540115)
(-0.00180489 -0.775256 -0.0691488)
(0.00123114 -0.834232 -0.0208237)
(-0.00198458 -0.847552 -0.0143467)
(0.000174533 -0.870784 -0.0174417)
(0.000638634 -0.443418 -0.00313755)
(-0.00187475 -0.192854 -0.000742678)
(0.00218869 -0.188349 -0.0498081)
(0.00119214 -0.190937 -0.0897001)
(0.000438297 -0.174012 -0.0776274)
(0.000613996 -0.182185 -0.0992095)
(-0.000361485 -0.184192 -0.0984466)
(3.29906e-05 -0.17541 -0.0784241)
(0.000359749 -0.183282 -0.0990832)
(-0.000107102 -0.179261 -0.103313)
(-0.000946485 -0.177512 -0.103911)
(-0.00181421 -0.193115 -0.0898534)
(-0.00388911 -0.296746 -0.0575886)
(-0.00146639 -0.470885 -0.00867637)
(-0.00405467 -0.662516 -0.0185988)
(-0.000288291 -0.729652 -0.0176853)
(0.00360315 -0.759903 -0.0189336)
(0.00434962 -0.790739 -0.0059573)
(-0.00241892 -0.813919 -0.00483152)
(-0.00133924 -0.839516 -0.00155641)
(0.00279842 -0.401473 0.010123)
(-0.00233213 -0.152273 0.00750033)
(0.000659426 -0.162473 -0.0545124)
(0.000406409 -0.168129 -0.107172)
(1.54688e-05 -0.15022 -0.0903784)
(0.000274048 -0.162376 -0.114547)
(-0.000284575 -0.164739 -0.111428)
(1.65085e-05 -0.155355 -0.0889995)
(0.000289223 -0.16391 -0.112222)
(0.00011155 -0.16023 -0.11864)
(-0.00024263 -0.157573 -0.122745)
(0.000136081 -0.172528 -0.103563)
(-0.00129834 -0.271932 -0.0551994)
(-0.00230176 -0.434508 0.00023056)
(-0.00434951 -0.638118 -0.00621804)
(-0.000646177 -0.711011 -0.00958488)
(0.00125286 -0.716626 -0.0064639)
(0.00305971 -0.802376 -0.00726937)
(-0.00238976 -0.81748 -0.00747292)
(-0.00132625 -0.87134 -0.00323927)
(0.00562446 -0.41782 0.00674916)
(-0.00100397 -0.136747 0.00745122)
(0.000998782 -0.151284 -0.0556473)
(0.000371158 -0.159844 -0.108897)
(3.32379e-05 -0.139275 -0.092317)
(0.000257851 -0.153912 -0.116965)
(-0.000288789 -0.156174 -0.113731)
(5.32079e-06 -0.144403 -0.0908213)
(0.000261339 -0.155445 -0.114295)
(8.05007e-05 -0.151771 -0.120261)
(-0.000182368 -0.149386 -0.123763)
(3.3812e-05 -0.165545 -0.103871)
(-0.00337828 -0.260115 -0.0569728)
(-0.00209805 -0.437183 -0.000729326)
(-0.00540076 -0.664318 -0.00827298)
(-0.00164279 -0.734373 -0.00892019)
(0.00268883 -0.730425 -0.00815281)
(0.00384196 -0.798546 -0.00578075)
(-0.00223709 -0.80662 -0.00506777)
(-0.0013796 -0.884214 -0.00343437)
(0.00448688 -0.416922 0.00798839)
(-0.00272178 -0.102725 0.0124153)
(0.000690151 -0.125743 -0.0595872)
(0.000315909 -0.138488 -0.118081)
(-3.45151e-05 -0.118563 -0.100301)
(0.000252956 -0.134296 -0.126533)
(-0.000379276 -0.136643 -0.121803)
(-1.44816e-05 -0.121838 -0.0978678)
(0.00035678 -0.136066 -0.121936)
(0.000154811 -0.13386 -0.127938)
(-0.000123288 -0.13165 -0.132436)
(8.30221e-05 -0.144491 -0.112197)
(-0.00224117 -0.232105 -0.0587358)
(-0.00043482 -0.420571 9.99365e-05)
(-0.00509772 -0.675341 -0.00658502)
(-0.00105376 -0.744045 -0.0094108)
(0.00253249 -0.733215 -0.0101162)
(0.00356305 -0.804736 -0.00559156)
(-0.0030293 -0.798221 -0.0037475)
(-0.000718404 -0.900169 -0.0025442)
(0.00613325 -0.418637 0.00764713)
(-0.00110064 -0.074025 0.0189264)
(0.000971746 -0.110657 -0.0593827)
(0.000305857 -0.125184 -0.120582)
(5.23542e-05 -0.105076 -0.102603)
(0.000268851 -0.122253 -0.129352)
(-0.000336892 -0.12458 -0.123693)
(-3.72178e-06 -0.107826 -0.0992377)
(0.000316829 -0.124072 -0.123322)
(0.000150328 -0.121784 -0.129357)
(-0.000182109 -0.119951 -0.134386)
(-0.000116954 -0.132856 -0.1139)
(-0.00394951 -0.211348 -0.0568075)
(-0.00107336 -0.413416 0.00147071)
(-0.00450215 -0.685956 -0.00636763)
(-0.000626446 -0.759159 -0.00937848)
(0.00238194 -0.734797 -0.00911849)
(0.00322566 -0.799496 -0.00423937)
(-0.00332073 -0.784762 -0.00152664)
(-0.000405867 -0.919197 -0.00226725)
(0.00632221 -0.421358 0.00791317)
(-0.000640717 -0.0315964 0.0270829)
(0.00092532 -0.0866239 -0.0569438)
(0.000304665 -0.0986839 -0.11971)
(5.70767e-05 -0.0840931 -0.101063)
(0.000280718 -0.0979659 -0.128319)
(-0.000307527 -0.099624 -0.121438)
(1.30993e-05 -0.0842173 -0.0966028)
(0.000377024 -0.0993187 -0.11985)
(0.000164889 -0.099135 -0.125776)
(-0.000108741 -0.0975583 -0.132013)
(-0.000647902 -0.107331 -0.112237)
(-0.00270165 -0.167305 -0.0491848)
(-0.0012588 -0.405505 0.00207093)
(-0.00448064 -0.69691 -0.00432418)
(-0.000513158 -0.774876 -0.0100671)
(0.00330473 -0.735006 -0.00788037)
(0.00215451 -0.794686 -0.00221856)
(-0.00310399 -0.77433 0.00158858)
(0.000760687 -0.947366 -0.00254278)
(0.0062356 -0.433815 0.00821632)
(0.000380397 -0.0148328 0.0553786)
(-0.00207954 -0.0591569 -0.0261352)
(0.000444222 -0.0669416 -0.0846324)
(1.58532e-05 -0.0551539 -0.0686046)
(-0.000150281 -0.0659377 -0.0921559)
(0.000364467 -0.0674702 -0.0841614)
(0.000134518 -0.0563097 -0.0628278)
(-0.000124708 -0.0676762 -0.080968)
(0.000226241 -0.0676962 -0.0861246)
(-0.000481869 -0.0667293 -0.0936199)
(0.000966622 -0.0723094 -0.0772751)
(-0.00026879 -0.116064 -0.00825331)
(-0.00254377 -0.406317 0.00285924)
(-0.00408616 -0.710549 -0.00374322)
(-0.00126009 -0.788981 -0.0097463)
(0.00304736 -0.73999 -0.005372)
(0.00207849 -0.78872 4.58609e-05)
(-0.00224574 -0.770733 0.00254001)
(0.000872732 -0.975123 -0.00472172)
(0.00271304 -0.453357 0.00545606)
(0.00293418 -0.0986342 0.000646338)
(0.000801558 -0.0480969 0.00441263)
(0.000377765 -0.0441336 0.00609008)
(0.000104637 -0.0395122 0.00510331)
(0.000335361 -0.0412323 0.00623603)
(-0.000187297 -0.0413514 0.00649085)
(5.4633e-05 -0.0385698 0.00549248)
(0.000354304 -0.0408767 0.00659166)
(2.41983e-05 -0.0396837 0.00651169)
(-0.000226439 -0.0398066 0.00625838)
(-0.000647135 -0.0444035 0.00621052)
(-0.00222894 -0.0629523 0.00886932)
(-0.00226119 -0.417625 0.000216196)
(-0.00432696 -0.719636 -0.00157716)
(-0.0003505 -0.801305 -0.0100712)
(0.00350391 -0.747012 -0.00573451)
(0.00273412 -0.782395 0.00131494)
(-0.00209879 -0.76704 0.00332944)
(0.00109907 -1.00037 -0.00444546)
(0.00467588 -0.471179 0.00315321)
(0.00192995 -0.0744142 0.0018509)
(-0.000369506 -0.0551861 0.000484651)
(0.000209806 -0.0394564 0.000974713)
(6.50805e-05 -0.0390007 0.00110989)
(-0.000256942 -0.0361532 0.00116049)
(0.000298657 -0.0359139 0.00119496)
(9.69237e-06 -0.0376794 0.00113321)
(-0.000269544 -0.0353832 0.00116415)
(-4.10279e-05 -0.0345295 0.00111826)
(-0.000192698 -0.0352929 0.000935063)
(-0.000440091 -0.0415138 0.000437437)
(-0.000231663 -0.0934705 -0.00160411)
(-0.00174399 -0.414429 -0.000459322)
(-0.00437373 -0.729491 -0.00175588)
(-0.000752265 -0.809205 -0.0110193)
(0.00145723 -0.742904 -0.00472957)
(0.000710316 -0.774613 0.00466122)
(-0.000642377 -0.76025 0.00383889)
(0.00107868 -1.02981 -0.00560791)
(0.00576423 -0.48377 0.00368995)
(0.00290591 -0.0755255 0.000844459)
(-0.000377043 -0.0450545 0.000846105)
(-2.42281e-05 -0.0467489 -0.000550285)
(2.70323e-05 -0.0322493 0.000996456)
(-0.00021456 -0.0411587 -0.000475032)
(0.000228329 -0.040799 -0.00046566)
(4.91757e-06 -0.0308556 0.000941802)
(-0.000210471 -0.0401151 -0.000487292)
(-8.81143e-06 -0.0391541 -0.000530798)
(-3.33947e-05 -0.0409266 -0.000652021)
(0.000185761 -0.051477 -0.0011207)
(0.00140854 -0.099547 -0.00189292)
(-0.00223918 -0.402463 0.000565012)
(-0.00480471 -0.738685 -0.000637607)
(-0.0011336 -0.813764 -0.0113063)
(0.00159118 -0.735359 -0.00371843)
(-0.00272172 -0.773509 0.00629056)
(0.00125187 -0.747713 0.00528747)
(0.00119966 -1.06221 -0.00804354)
(0.00525136 -0.493658 0.00268619)
(0.00328645 -0.0667829 0.00110933)
(-0.000240841 -0.0434014 0.000297328)
(-0.000216996 -0.0426463 -0.000300028)
(-7.01714e-05 -0.0305682 3.74862e-05)
(0.000105673 -0.0381989 -0.000904457)
(-0.0001158 -0.0378626 -0.000937999)
(5.19882e-06 -0.0293328 -9.26637e-05)
(0.000116694 -0.0372791 -0.000927232)
(2.8477e-05 -0.0368003 -0.00100789)
(0.000126361 -0.0387538 -0.000947269)
(0.000460822 -0.0501278 -0.000884977)
(0.00114283 -0.0868884 -6.42345e-05)
(-0.00213269 -0.389628 0.0016479)
(-0.00484009 -0.746002 -0.00104687)
(-0.00148409 -0.821813 -0.0105962)
(0.00178214 -0.726091 -0.00175732)
(-0.00634243 -0.772796 0.00597214)
(0.0022763 -0.73187 0.00782809)
(0.0017567 -1.09616 -0.0104294)
(0.00209546 -0.501807 -0.000127907)
(0.001926 -0.0610082 0.000618902)
(-0.00046401 -0.0424806 -0.000131666)
(-0.000359201 -0.0495682 -0.00228415)
(-0.000116772 -0.0350199 -0.00172208)
(-1.13241e-06 -0.0499294 -0.0036477)
(-1.33278e-05 -0.0498632 -0.00370589)
(5.07325e-06 -0.0348263 -0.00199253)
(2.28415e-05 -0.0492068 -0.00365277)
(8.61435e-05 -0.0490684 -0.003557)
(0.000357512 -0.0506388 -0.00325027)
(0.000790415 -0.0611064 -0.00248692)
(0.000987296 -0.089026 -0.000190411)
(-0.00159292 -0.37657 0.00260953)
(-0.00394567 -0.75206 -0.0011821)
(-0.00140032 -0.830252 -0.0116506)
(0.00316559 -0.715572 -0.000625779)
(-0.00815354 -0.763432 0.00530204)
(0.00373127 -0.719481 0.00807153)
(0.00128885 -1.11185 -0.0118435)
(-0.00114967 -0.504277 -0.00257117)
(0.00113293 -0.0593882 0.000436804)
(-5.5753e-05 -0.0430082 -0.000173589)
(-8.5085e-05 -0.0658156 -0.00155255)
(-6.33506e-05 -0.0515445 -0.00192047)
(0.000211397 -0.0746813 -0.00253827)
(-0.000199391 -0.0748409 -0.00258772)
(1.06274e-05 -0.0529724 -0.00200931)
(0.000229077 -0.0738459 -0.00252142)
(0.000100213 -0.0727374 -0.00248704)
(0.000307559 -0.0719708 -0.00207584)
(0.000353153 -0.0748641 -0.00103494)
(0.000211817 -0.0819202 0.000519628)
(-0.00109373 -0.363252 0.00296646)
(-0.0031411 -0.750309 -0.00176018)
(-0.00184414 -0.837127 -0.0108079)
(0.00270799 -0.697506 0.00157158)
(-0.00723498 -0.736551 0.00303844)
(0.00413056 -0.698892 0.00749481)
(0.000426651 -1.12213 -0.010565)
(-0.00269622 -0.508802 -0.0038143)
(0.000981015 -0.058384 0.000415502)
(0.000181867 -0.0417671 0.000135735)
(0.000212814 -0.0552967 0.000356492)
(-1.5665e-05 -0.04941 -6.11432e-06)
(0.000139037 -0.0613699 0.000288643)
(-0.000126758 -0.0616494 0.000257574)
(2.03539e-05 -0.0497972 2.61118e-05)
(0.000202323 -0.060945 0.000340017)
(2.84687e-05 -0.0616015 0.000516391)
(-0.00012182 -0.0598805 0.000528138)
(-0.000235826 -0.0600647 0.00061445)
(-8.18975e-06 -0.0779591 0.000807234)
(0.00072445 -0.347936 0.00333078)
(-0.00199358 -0.741222 -0.00131396)
(-0.00295568 -0.837042 -0.00997851)
(0.00262131 -0.669493 0.00237008)
(-0.00628267 -0.657531 0.00458188)
(0.00450746 -0.656179 0.00727167)
(-0.000151806 -1.13197 -0.0096568)
(-0.00346385 -0.514735 -0.00384579)
(0.00103321 -0.0589436 0.000401226)
(0.000120248 -0.0406393 0.000111889)
(0.000308117 -0.0533882 0.000999446)
(-1.71277e-05 -0.0448057 0.00105347)
(-1.42477e-05 -0.0591697 0.00114567)
(6.60302e-06 -0.0593667 0.00111541)
(2.27171e-05 -0.0457859 0.00104982)
(2.82893e-06 -0.0583721 0.00116885)
(-0.000167345 -0.0569459 0.00113404)
(-0.000250993 -0.0572772 0.000813289)
(-4.03738e-05 -0.0611101 0.000340838)
(0.000303545 -0.0759481 0.000816628)
(0.00172027 -0.328036 0.00506818)
(-0.0006564 -0.71688 -0.00236916)
(-0.00180654 -0.814694 -0.00787662)
(0.00237048 -0.622798 0.00287714)
(-0.00487742 -0.540056 0.00679875)
(0.00426431 -0.576807 0.00738446)
(-0.000594802 -1.14006 -0.00745186)
(-0.00359163 -0.528486 -0.00286738)
(-0.000218352 -0.0607999 -7.26161e-05)
(0.000229798 -0.0422961 -0.000256071)
(0.000120702 -0.0476215 0.00239267)
(9.56906e-05 -0.0407066 0.000890853)
(0.00044638 -0.0528573 0.00288579)
(-0.000387412 -0.0531303 0.00290389)
(1.38795e-05 -0.0415905 0.000960182)
(-3.43258e-05 -0.05206 0.00289975)
(-0.000510218 -0.053717 0.0017957)
(-6.13399e-05 -0.0566432 0.00110959)
(0.000203943 -0.0609428 0.000733542)
(0.000663404 -0.0752385 0.00174753)
(0.00183791 -0.295701 0.00570626)
(-3.86563e-05 -0.679409 0.000465666)
(-0.00109525 -0.769892 -0.00501376)
(0.00099978 -0.540683 0.00354279)
(-0.00250125 -0.346073 0.0075325)
(0.00318472 -0.441762 0.00613753)
(-0.00119713 -1.15153 -0.00439799)
(-0.00354818 -0.533908 0.00116059)
(-0.0030399 -0.0678042 -0.00244186)
(-9.71015e-05 -0.046193 -0.00144004)
(-5.64298e-05 -0.0413505 0.00060831)
(0.000102527 -0.0417727 -0.000655546)
(0.00027487 -0.043901 0.00154539)
(-0.000191207 -0.043838 0.00166288)
(-5.11221e-05 -0.0421365 -0.000367076)
(-0.000335949 -0.0423778 0.00163603)
(-4.88508e-05 -0.0560605 -0.00193335)
(0.000145152 -0.0644554 -0.00349108)
(0.000291145 -0.0716051 -0.00346528)
(0.000995477 -0.0821032 -0.00169514)
(0.00201646 -0.242879 0.00943753)
(0.00143796 -0.629684 0.00528994)
(-0.000113003 -0.701111 -0.00193041)
(-0.00201068 -0.41036 0.00433753)
(-0.00115519 -0.195262 0.00374523)
(0.00196529 -0.336376 0.00306005)
(-0.00106671 -1.27157 -0.00245352)
(-0.00430286 -0.549165 0.00163187)
(-0.00713638 -0.0973494 -0.00190767)
(-0.00075373 -0.0620061 -0.000765207)
(-0.000154601 -0.0561753 -0.00101705)
(-7.09403e-05 -0.0524359 -0.000946718)
(-0.00018754 -0.0541597 -0.000472927)
(0.0001473 -0.0533068 -0.000381481)
(2.52189e-05 -0.0500566 -0.000644838)
(0.000377064 -0.0528084 -0.000429555)
(0.000461103 -0.0966949 -0.00333469)
(0.000207256 -0.121477 -0.00440163)
(0.000174902 -0.126781 -0.00405315)
(0.000913065 -0.129414 -0.00315528)
(0.000658247 -0.171767 0.00631306)
(0.00112273 -0.607966 0.00225849)
(0.000619034 -0.670342 0.00312581)
(-0.00217099 -0.284144 0.00790295)
(-0.236207 -0.813696 -0.511205)
(-0.00169393 -0.877953 -0.562097)
(0.0799341 -0.825553 -0.523496)
(0.156364 -0.554165 -0.349489)
(0.114322 -0.371712 -0.248212)
(0.0966176 -0.30402 -0.22344)
(0.0645288 -0.246368 -0.205612)
(0.0252197 -0.236041 -0.182001)
(0.014671 -0.218201 -0.170208)
(-0.00289388 -0.217509 -0.165746)
(0.000234536 -0.235714 -0.165672)
(0.00252713 -0.217112 -0.165645)
(-0.0138269 -0.210705 -0.173779)
(-0.0471894 -0.217647 -0.194395)
(-0.0963007 -0.257188 -0.224952)
(-0.128612 -0.355374 -0.216098)
(-0.108986 -0.5364 -0.32305)
(-0.0521234 -0.663191 -0.425964)
(-0.0314367 -0.732693 -0.423727)
(0.200303 -0.764209 -0.486797)
(0.00258297 -0.843827 -0.0661582)
(-0.00306151 -0.881288 -0.0679394)
(-0.00334785 -0.874264 -0.0602343)
(0.00333708 -0.456981 -0.00590986)
(-0.0043587 -0.24573 -0.0147684)
(-0.00110677 -0.198139 -0.183511)
(0.00346102 -0.177749 -0.194855)
(0.00168333 -0.189155 -0.115859)
(0.00132712 -0.183116 -0.134446)
(0.000112774 -0.188027 -0.124406)
(-6.15318e-05 -0.196514 -0.100687)
(-7.50248e-05 -0.186563 -0.126002)
(-0.00120922 -0.177924 -0.140541)
(-0.00421686 -0.166871 -0.176457)
(-0.00266025 -0.161232 -0.250034)
(-0.00486675 -0.272019 -0.0970965)
(-0.00348191 -0.498141 -0.0284749)
(-0.00145069 -0.677935 -0.0486885)
(0.00236367 -0.741862 -0.0530359)
(0.000377583 -0.782779 -0.0682873)
(0.000854508 -0.859662 -0.0201801)
(-0.00186999 -0.880865 -0.0146261)
(1.94452e-06 -0.892731 -0.0157937)
(0.000649694 -0.472002 -0.00334904)
(-0.00176732 -0.236629 -0.00309814)
(0.00254575 -0.209546 -0.0507788)
(0.00126127 -0.197332 -0.0898149)
(0.000463366 -0.188751 -0.0786352)
(0.00065464 -0.188471 -0.0998155)
(-0.000383594 -0.190416 -0.0991792)
(3.48032e-05 -0.190278 -0.0796124)
(0.000390886 -0.18944 -0.0998051)
(-0.000109649 -0.184902 -0.103776)
(-0.000965109 -0.183203 -0.103985)
(-0.0019317 -0.197888 -0.0890557)
(-0.00447119 -0.302513 -0.0575752)
(-0.00212755 -0.49871 -0.00990837)
(-0.00388755 -0.689706 -0.0175404)
(-0.000250299 -0.755896 -0.0167881)
(0.00390597 -0.787032 -0.0188577)
(0.00463586 -0.826402 -0.00534361)
(-0.00242223 -0.854197 -0.00502391)
(-0.00145049 -0.873506 -0.000502604)
(0.00275187 -0.438752 0.0102254)
(-0.00286823 -0.197521 0.00538494)
(0.000672459 -0.183967 -0.0562327)
(0.000426079 -0.174324 -0.10846)
(3.78941e-05 -0.166106 -0.091781)
(0.000298213 -0.168455 -0.115692)
(-0.000293016 -0.170763 -0.112551)
(1.96285e-05 -0.17015 -0.0902807)
(0.000302158 -0.169873 -0.11335)
(0.000110935 -0.165458 -0.119726)
(-0.000255238 -0.16256 -0.123891)
(7.85713e-05 -0.176232 -0.104679)
(-0.00139597 -0.27778 -0.0565649)
(-0.0027759 -0.469574 -0.000298935)
(-0.00430306 -0.674416 -0.00523909)
(-0.000414818 -0.745526 -0.00861303)
(0.00117378 -0.754983 -0.00595616)
(0.00325444 -0.836032 -0.00672902)
(-0.00237487 -0.855631 -0.0074986)
(-0.00136515 -0.901093 -0.00245675)
(0.00596011 -0.451872 0.00761601)
(-0.000731771 -0.183522 0.00573623)
(0.00109348 -0.173348 -0.0572709)
(0.00037897 -0.166756 -0.110091)
(5.09992e-05 -0.15584 -0.0936075)
(0.00024822 -0.160629 -0.118102)
(-0.000280886 -0.162842 -0.114864)
(8.15663e-06 -0.159891 -0.0922086)
(0.00025351 -0.162079 -0.115428)
(7.78807e-05 -0.157766 -0.121304)
(-0.000183015 -0.155232 -0.124803)
(4.19335e-05 -0.170137 -0.104865)
(-0.00341316 -0.267684 -0.058465)
(-0.00292829 -0.469145 -0.00091803)
(-0.00546827 -0.698086 -0.00735522)
(-0.00153406 -0.767605 -0.00832774)
(0.00272022 -0.768126 -0.00834002)
(0.00410263 -0.83345 -0.00519369)
(-0.00224484 -0.844295 -0.00505689)
(-0.0015047 -0.914155 -0.00239838)
(0.00463573 -0.450525 0.00842928)
(-0.0030152 -0.146636 0.0100508)
(0.000577806 -0.147731 -0.0614689)
(0.00031529 -0.146294 -0.119504)
(-2.98034e-05 -0.135156 -0.101749)
(0.000231858 -0.141804 -0.127836)
(-0.00035849 -0.144132 -0.123099)
(-1.11602e-05 -0.138148 -0.0994325)
(0.000336059 -0.143519 -0.123236)
(0.000148578 -0.14048 -0.129155)
(-0.000125726 -0.138131 -0.133655)
(8.31086e-05 -0.150472 -0.113448)
(-0.00228024 -0.24237 -0.0606904)
(-0.001045 -0.454232 -0.00017719)
(-0.00507567 -0.708303 -0.00568046)
(-0.000945682 -0.778738 -0.00871967)
(0.00252034 -0.769725 -0.0101084)
(0.00386245 -0.837885 -0.00503147)
(-0.00304105 -0.83544 -0.00349998)
(-0.000815013 -0.932702 -0.00157206)
(0.00636318 -0.453224 0.00847977)
(-0.00173532 -0.117499 0.0162438)
(0.000846644 -0.129993 -0.0611356)
(0.000308078 -0.132713 -0.122187)
(4.57147e-05 -0.119207 -0.104078)
(0.000241265 -0.129269 -0.130828)
(-0.000313916 -0.131663 -0.125193)
(-2.83353e-06 -0.122219 -0.100854)
(0.000291181 -0.131177 -0.124823)
(0.000147216 -0.12831 -0.130747)
(-0.000185234 -0.12625 -0.135769)
(-8.50982e-05 -0.138808 -0.115253)
(-0.00414675 -0.221693 -0.0593334)
(-0.00163331 -0.447385 0.00139019)
(-0.00465661 -0.719445 -0.005222)
(-0.000519678 -0.794648 -0.00864432)
(0.00219358 -0.771995 -0.0083331)
(0.00353909 -0.83331 -0.00382926)
(-0.00339038 -0.822577 -0.000772748)
(-0.000474698 -0.953608 -0.00151958)
(0.00641481 -0.456546 0.00908736)
(-0.00205367 -0.0761401 0.02472)
(0.000835636 -0.100488 -0.0592206)
(0.000307425 -0.106162 -0.12208)
(6.40719e-05 -0.094214 -0.103161)
(0.000246598 -0.104663 -0.130619)
(-0.000274623 -0.106526 -0.123774)
(1.51371e-05 -0.0952672 -0.0987895)
(0.000341797 -0.106269 -0.122165)
(0.000156877 -0.105264 -0.12797)
(-0.00010873 -0.103509 -0.13415)
(-0.000676643 -0.113233 -0.114604)
(-0.00323959 -0.177492 -0.0529013)
(-0.00172833 -0.440498 0.00244446)
(-0.00464195 -0.731265 -0.003606)
(-0.000459419 -0.809615 -0.00948776)
(0.00324618 -0.7732 -0.00724824)
(0.00227468 -0.828374 -0.00178104)
(-0.00309186 -0.813716 0.0019872)
(0.000797131 -0.980947 -0.00199979)
(0.00610442 -0.468117 0.00957677)
(0.000671297 -0.0462608 0.0582078)
(-0.00254156 -0.0684747 -0.0274018)
(0.000429309 -0.0723824 -0.0865243)
(9.26068e-06 -0.0621486 -0.0700568)
(-0.000229987 -0.0709435 -0.0940409)
(0.000446504 -0.0726782 -0.0861145)
(0.000133604 -0.0634365 -0.0643455)
(-0.000216196 -0.0729187 -0.0829228)
(0.000220876 -0.0723966 -0.0880982)
(-0.000483139 -0.0711789 -0.0955602)
(0.00105585 -0.0767323 -0.0793728)
(-0.00110797 -0.125486 -0.011744)
(-0.00268909 -0.441767 0.00351599)
(-0.00418611 -0.745343 -0.00298798)
(-0.00125725 -0.822905 -0.00924843)
(0.00302955 -0.778406 -0.00527799)
(0.00207052 -0.822908 0.000202723)
(-0.00212315 -0.810846 0.00268893)
(0.000976079 -1.00751 -0.00363913)
(0.00267914 -0.484759 0.00627452)
(0.00318893 -0.104234 0.00309527)
(0.000836846 -0.0528041 0.00430113)
(0.000398849 -0.0491039 0.00530976)
(0.000113024 -0.0428239 0.00460308)
(0.000349976 -0.0458338 0.0053869)
(-0.000207536 -0.0458604 0.00558426)
(5.49576e-05 -0.0417468 0.00489501)
(0.000377712 -0.0452661 0.0056579)
(3.31267e-05 -0.0439037 0.00558297)
(-0.000238073 -0.0441641 0.00539031)
(-0.000750821 -0.0491619 0.00536191)
(-0.0026587 -0.0799567 0.00793963)
(-0.00230484 -0.449514 0.000423211)
(-0.00436927 -0.754899 -0.00126936)
(-0.000346362 -0.834293 -0.00998412)
(0.00341768 -0.78298 -0.00579156)
(0.00275129 -0.817699 0.0022602)
(-0.00202464 -0.806378 0.0032459)
(0.00133058 -1.03196 -0.00369402)
(0.00469246 -0.499268 0.00384647)
(0.00249246 -0.0845864 0.00118597)
(-0.00035974 -0.0539632 0.00044467)
(0.000199149 -0.038785 0.000798843)
(6.1688e-05 -0.0389519 0.00092685)
(-0.000259695 -0.0352935 0.000922658)
(0.000299409 -0.0350508 0.000941992)
(9.92608e-06 -0.0375298 0.000937865)
(-0.000270322 -0.0345004 0.000917842)
(-3.5747e-05 -0.0335365 0.000882603)
(-0.000173449 -0.0343059 0.000761668)
(-0.000376808 -0.0402126 0.000430474)
(-0.000252283 -0.0861857 -0.000516069)
(-0.0017589 -0.444517 -0.00075152)
(-0.00442862 -0.765727 -0.00176269)
(-0.000776086 -0.84195 -0.0104847)
(0.00129766 -0.778789 -0.00474062)
(0.000614257 -0.812572 0.00518088)
(-0.000439846 -0.799872 0.00377914)
(0.00131583 -1.05991 -0.00534831)
(0.00570692 -0.508275 0.00404153)
(0.00341369 -0.0793475 0.000830892)
(-0.000401596 -0.0460316 0.00054698)
(-2.48422e-05 -0.0442472 -0.000526153)
(2.46652e-05 -0.0313919 0.000702567)
(-0.000206389 -0.0389883 -0.000457964)
(0.000219819 -0.038649 -0.000449903)
(5.16378e-06 -0.0299806 0.000661733)
(-0.000201855 -0.0380088 -0.000463047)
(-7.23887e-06 -0.0371131 -0.000486968)
(-2.80643e-05 -0.0387907 -0.00057567)
(0.000181702 -0.0487158 -0.000925446)
(0.00132831 -0.0961432 -0.00190242)
(-0.00220591 -0.433721 0.000231334)
(-0.00493994 -0.772477 -0.000445789)
(-0.00119659 -0.847461 -0.0107529)
(0.00142259 -0.772017 -0.00366665)
(-0.00298895 -0.81282 0.00605829)
(0.00161916 -0.788645 0.00532712)
(0.00151422 -1.08897 -0.00791785)
(0.00494201 -0.514557 0.00254695)
(0.00349941 -0.0682233 0.000849694)
(-0.000229238 -0.0420131 0.000245785)
(-0.000207685 -0.0406084 -0.000198875)
(-6.38297e-05 -0.0288116 -1.26397e-05)
(0.000105793 -0.0364247 -0.000623313)
(-0.000114376 -0.0361142 -0.000646593)
(5.07149e-06 -0.0276462 -0.000102788)
(0.00011589 -0.0355811 -0.000639685)
(2.70431e-05 -0.0351641 -0.00069816)
(0.000119261 -0.0370148 -0.000653757)
(0.000430236 -0.0477242 -0.000599606)
(0.00114974 -0.0902079 -0.000275867)
(-0.0021284 -0.422475 0.0011959)
(-0.00507953 -0.779425 -0.000962199)
(-0.00159849 -0.85532 -0.0103301)
(0.00164019 -0.763771 -0.00188338)
(-0.00680913 -0.81282 0.0050406)
(0.00278076 -0.776959 0.00694937)
(0.00250307 -1.1132 -0.0101676)
(0.00202909 -0.51869 -0.000218824)
(0.00186483 -0.0612151 0.000470692)
(-0.000428498 -0.0403993 -6.41501e-05)
(-0.000337028 -0.0469292 -0.0016224)
(-0.000106243 -0.0323724 -0.00115859)
(1.51558e-07 -0.0472301 -0.00256944)
(-1.18949e-05 -0.0471655 -0.00260864)
(4.98036e-06 -0.0321894 -0.00133159)
(2.15669e-05 -0.04655 -0.00257324)
(8.11784e-05 -0.0464221 -0.00251205)
(0.000336809 -0.0479013 -0.00229631)
(0.000741713 -0.0577597 -0.00174706)
(0.000962733 -0.0926767 -0.000287242)
(-0.00154397 -0.410558 0.00203021)
(-0.00416742 -0.783678 -0.00120472)
(-0.00165723 -0.863817 -0.0114556)
(0.00305813 -0.75438 -0.00116734)
(-0.00869189 -0.805023 0.00332704)
(0.0043388 -0.767967 0.00606282)
(0.00239815 -1.12518 -0.0106613)
(-0.00104683 -0.520115 -0.00245019)
(0.00107182 -0.0589076 0.000321208)
(-3.54735e-05 -0.0412428 -9.20361e-05)
(-7.43717e-05 -0.0624473 -0.00115286)
(-5.99104e-05 -0.047649 -0.00130717)
(0.0001946 -0.0707708 -0.00191427)
(-0.000182073 -0.0709228 -0.00195007)
(1.07175e-05 -0.0489506 -0.00137057)
(0.000211775 -0.0699929 -0.00189884)
(9.55618e-05 -0.0689487 -0.00185881)
(0.000288892 -0.0682538 -0.0015591)
(0.000326479 -0.0714132 -0.0008322)
(0.000105853 -0.0890371 0.000249237)
(-0.00109871 -0.398941 0.002269)
(-0.00324173 -0.78094 -0.00245587)
(-0.00210696 -0.870994 -0.0110138)
(0.00261273 -0.739091 0.000320026)
(-0.00789864 -0.781295 -0.000722524)
(0.00475867 -0.751609 0.00434595)
(0.00167235 -1.135 -0.00946728)
(-0.00251506 -0.523879 -0.00352062)
(0.00095319 -0.0576251 0.000334234)
(0.000174278 -0.04061 0.000105265)
(0.000225625 -0.0586391 0.000171423)
(-2.60758e-05 -0.0510661 -4.97469e-05)
(0.000133434 -0.0674882 -4.43181e-05)
(-0.000124402 -0.06785 -7.99112e-05)
(2.16487e-05 -0.0518459 -5.13877e-05)
(0.000209914 -0.0668996 8.633e-06)
(3.59292e-05 -0.0666003 0.000213459)
(-0.000132739 -0.0645017 0.000253033)
(-0.000261332 -0.0643031 0.00029592)
(-0.000141166 -0.0850856 0.000558593)
(0.000748776 -0.386292 0.00240516)
(-0.0020499 -0.77289 -0.00243534)
(-0.00335763 -0.872942 -0.010707)
(0.00269927 -0.716345 -0.000183858)
(-0.00721241 -0.71585 -0.00256155)
(0.00536267 -0.718796 0.00224247)
(0.00114634 -1.14348 -0.00847965)
(-0.00321216 -0.529195 -0.00324642)
(0.000976099 -0.0571719 0.000338973)
(0.000109522 -0.0390918 7.32353e-05)
(0.000314423 -0.0564035 0.000761642)
(-2.2701e-05 -0.0459996 0.000768544)
(-2.06931e-05 -0.0649369 0.000850153)
(1.10711e-05 -0.0653451 0.000818584)
(2.38088e-05 -0.0474139 0.000764493)
(3.09704e-06 -0.0638778 0.000872064)
(-0.000165945 -0.061157 0.000900312)
(-0.000253443 -0.0606558 0.000672497)
(-5.47871e-05 -0.0638186 0.000309399)
(0.000196792 -0.0821807 0.000588509)
(0.0016942 -0.371246 0.00342039)
(-0.000848069 -0.752628 -0.00390144)
(-0.00233614 -0.859275 -0.00986115)
(0.00265173 -0.67971 -0.00160388)
(-0.00616276 -0.623924 -0.00515022)
(0.00516123 -0.660337 -0.000954783)
(0.000472044 -1.14931 -0.00655261)
(-0.00344437 -0.540958 -0.00189216)
(-0.00023446 -0.0572051 2.47526e-05)
(0.000209593 -0.0395521 -0.000172592)
(0.000101999 -0.0497972 0.00192554)
(9.13572e-05 -0.0403068 0.000606686)
(0.000468669 -0.0573471 0.00235938)
(-0.00040688 -0.0579281 0.00236753)
(1.488e-05 -0.0414909 0.000668625)
(-3.97022e-05 -0.0563417 0.00236518)
(-0.00050136 -0.0564412 0.00160424)
(-5.4957e-05 -0.0581714 0.00118246)
(0.000200175 -0.0625426 0.000955548)
(0.000450824 -0.0796803 0.00179431)
(0.00170559 -0.349494 0.00318716)
(-0.000440386 -0.724711 -0.00215914)
(-0.00161309 -0.830089 -0.0091269)
(0.00164984 -0.618188 -0.00422595)
(-0.00414236 -0.494311 -0.00725305)
(0.00378448 -0.575654 -0.00454941)
(-0.00088873 -1.15815 -0.00418742)
(-0.00377957 -0.549645 0.00118458)
(-0.00275576 -0.0628038 -0.00149503)
(-8.78047e-05 -0.0428435 -0.000936548)
(-6.44346e-05 -0.0402069 0.000684185)
(9.51853e-05 -0.038851 -0.000411244)
(0.0002541 -0.0443653 0.00140954)
(-0.000175343 -0.0446533 0.00149577)
(-4.87893e-05 -0.03947 -0.000206727)
(-0.000291421 -0.0428956 0.00144121)
(-3.27771e-05 -0.0528257 -0.000754492)
(0.000138379 -0.0600741 -0.00158799)
(0.000262446 -0.0667754 -0.00150989)
(0.000612583 -0.0781434 -0.000177175)
(0.00160855 -0.324969 0.00511809)
(0.00116209 -0.697197 0.000953993)
(-0.000410787 -0.795005 -0.00776222)
(-0.000828767 -0.53842 -0.00607082)
(-0.00246103 -0.441646 -0.00436572)
(0.00186838 -0.551961 -0.00333163)
(-0.00139442 -1.28159 -0.0027888)
(-0.00485841 -0.574459 0.000323589)
(-0.00647973 -0.0883077 -0.00104658)
(-0.000688813 -0.0573015 -0.000506678)
(-0.000142087 -0.0522114 -0.000696992)
(-6.78511e-05 -0.0485374 -0.000632297)
(-0.000190225 -0.0508665 -0.000352077)
(0.000150834 -0.0502562 -0.000291577)
(2.42843e-05 -0.0464137 -0.000445743)
(0.000338532 -0.0491741 -0.000297209)
(0.00042102 -0.0869606 -0.00186075)
(0.000186404 -0.104841 -0.00218079)
(0.000155769 -0.109537 -0.00195041)
(0.000974846 -0.111016 -0.00141415)
(0.000122333 -0.318865 0.00200415)
(0.000965475 -0.720342 -0.00196856)
(0.000530975 -0.82152 -0.00171785)
(-0.000948487 -0.507938 0.000356149)
(-0.252987 -0.81211 -0.470053)
(-0.00184259 -0.879428 -0.523085)
(0.086075 -0.821538 -0.482389)
(0.165922 -0.553638 -0.321395)
(0.119818 -0.372906 -0.228226)
(0.10048 -0.303816 -0.20785)
(0.0658544 -0.2444 -0.192103)
(0.025632 -0.234827 -0.169588)
(0.0152282 -0.216113 -0.159142)
(-0.00313904 -0.215235 -0.154743)
(0.000256661 -0.234347 -0.154272)
(0.00279714 -0.214873 -0.154754)
(-0.0139651 -0.208554 -0.162496)
(-0.0477026 -0.215548 -0.181832)
(-0.0986615 -0.255462 -0.210712)
(-0.135929 -0.353373 -0.196844)
(-0.116224 -0.535282 -0.295059)
(-0.05544 -0.659972 -0.391442)
(-0.0338926 -0.731211 -0.389602)
(0.213789 -0.763827 -0.449459)
(-0.000504147 -0.855305 -0.0643651)
(-0.0032801 -0.899947 -0.0673817)
(-0.00265556 -0.881252 -0.0582567)
(0.00571587 -0.475991 -0.00814308)
(-0.00351623 -0.274968 -0.0173222)