/*--------------------------------*- C++ -*----------------------------------*\
| =========                 |                                                 |
| \\      /  F ield         | OpenFOAM: The Open Source CFD Toolbox           |
|  \\    /   O peration     | Version:  2.3.0                                 |
|   \\  /    A nd           | Web:      www.OpenFOAM.org                      |
|    \\/     M anipulation  |                                                 |
\*---------------------------------------------------------------------------*/
FoamFile
{
    version     2.0;
    format      ascii;
    class       volScalarField;
    location    "0.88";
    object      nut.particles;
}
// * * * * * * * * * * * * * * * * * * * * * * * * * * * * * * * * * * * * * //

dimensions      [0 2 -1 0 0 0 0];

internalField   nonuniform List<scalar> 
6000
(
6.98047e-06
6.35327e-06
6.8951e-06
6.96128e-06
4.66236e-06
4.77572e-06
7.84491e-06
1.05846e-05
1.40418e-05
2.1295e-05
2.18797e-05
1.95963e-05
1.70712e-05
1.21398e-05
9.19063e-06
1.06724e-05
1.18947e-05
5.81535e-06
6.62286e-06
6.23775e-06
7.14185e-06
7.85373e-06
8.75207e-06
9.56286e-06
1.192e-05
2.04294e-05
2.54119e-05
2.48977e-05
1.71305e-05
1.2743e-05
2.25966e-06
1.24251e-06
1.20627e-06
1.12799e-06
1.35695e-06
1.72674e-06
2.25726e-06
4.09148e-06
7.01465e-06
8.30791e-06
7.74629e-06
6.78273e-06
5.05421e-06
2.96796e-06
7.38691e-07
1.91657e-06
1.43562e-06
1.51565e-06
2.069e-06
2.33393e-06
1.5265e-06
1.28466e-06
1.2704e-06
2.48867e-06
1.30086e-06
8.90784e-07
4.88409e-06
4.85769e-06
1.62453e-06
2.86421e-06
3.87515e-07
4.6893e-06
4.00874e-06
6.32066e-06
1.05558e-05
1.41853e-05
1.60576e-05
1.70405e-05
1.72825e-05
1.52675e-05
1.55602e-05
1.61352e-05
1.47573e-05
5.43195e-06
6.66152e-06
7.84876e-06
6.39694e-06
5.02544e-06
5.70678e-06
1.07595e-05
1.36388e-05
1.50157e-05
1.74113e-05
7.80736e-06
1.84442e-06
5.8246e-07
2.30052e-06
3.54886e-06
4.59446e-07
6.69709e-06
2.02496e-06
5.76321e-06
5.03749e-06
6.80346e-06
1.03574e-05
1.3678e-05
1.25951e-05
8.86418e-06
8.99063e-06
1.30224e-05
1.57861e-05
1.46036e-05
5.1251e-06
1.42784e-06
6.14393e-07
4.06476e-06
5.04532e-06
5.00054e-06
6.11818e-06
1.08589e-05
1.16593e-05
1.12771e-05
5.62102e-06
7.33223e-07
1.10498e-06
5.25357e-07
1.62346e-06
1.13649e-06
1.80252e-07
4.05277e-06
1.25235e-05
1.15626e-05
1.14421e-05
1.13597e-05
8.30809e-06
4.06964e-06
1.85988e-06
1.08013e-06
1.17803e-06
1.6569e-06
1.87445e-06
1.85287e-06
8.46155e-07
4.07134e-07
1.52444e-07
1.32357e-06
2.72259e-06
6.77533e-06
1.27345e-05
1.27302e-05
1.00829e-05
2.72077e-06
2.86349e-07
2.13161e-07
6.52786e-07
7.12618e-07
7.80801e-07
3.97867e-07
1.7568e-07
3.12127e-06
2.01006e-05
1.08316e-05
7.20034e-06
4.11921e-06
8.99191e-07
2.35492e-07
1.69008e-07
1.87946e-07
2.39989e-07
1.60562e-07
2.45387e-07
4.34882e-07
2.8081e-07
2.12078e-07
1.4057e-07
1.55561e-06
2.95782e-06
1.20547e-05
6.28766e-06
2.21562e-06
5.26284e-07
1.77635e-07
2.13036e-07
1.76169e-07
2.51691e-07
5.79759e-07
3.25942e-07
2.78901e-07
1.78353e-07
4.75489e-06
3.46509e-06
9.53353e-07
5.58055e-07
5.52338e-07
3.88658e-07
1.50512e-07
1.34167e-07
9.37439e-08
1.24039e-07
9.4532e-08
1.11256e-07
2.56687e-07
1.71015e-07
2.05794e-07
8.21931e-07
4.57909e-06
6.74463e-06
2.31935e-06
2.03157e-07
1.44041e-07
1.62859e-07
2.04574e-07
1.79665e-07
1.66823e-07
1.60046e-07
2.29129e-07
1.7989e-07
2.79411e-07
1.81643e-07
7.62241e-06
6.90397e-07
3.7314e-08
6.35165e-08
1.51663e-07
4.16485e-07
2.91045e-07
1.20754e-07
5.27925e-08
9.36082e-08
8.3322e-08
8.64906e-08
1.64455e-07
1.89442e-07
4.08877e-07
2.49506e-06
5.60974e-06
2.45928e-06
2.19148e-07
1.94275e-07
1.35777e-07
2.10001e-07
1.98921e-07
1.99943e-07
1.7486e-07
1.62415e-07
1.13903e-07
9.68045e-08
2.23633e-07
2.52207e-07
8.25827e-06
5.224e-07
4.12063e-08
6.0304e-08
1.15999e-07
2.40037e-07
4.00268e-07
2.52139e-07
6.75448e-08
8.34769e-08
8.34025e-08
7.9887e-08
8.4002e-08
1.57109e-07
7.5278e-07
6.42403e-06
4.95407e-06
4.66669e-07
2.14623e-07
1.93273e-07
1.41527e-07
2.93505e-07
2.17035e-07
1.85944e-07
1.92455e-07
1.84894e-07
1.79049e-07
9.86221e-08
1.86548e-07
3.17726e-07
8.05771e-06
4.29161e-07
4.81212e-08
6.68008e-08
9.67144e-08
1.79907e-07
3.12453e-07
3.00294e-07
1.06777e-07
1.00032e-07
9.58327e-08
9.66056e-08
7.57998e-08
1.1131e-07
6.84872e-07
6.91309e-06
2.73597e-06
2.02588e-07
2.60877e-07
1.87125e-07
1.72223e-07
3.04821e-07
3.15337e-07
2.16554e-07
2.13201e-07
2.16946e-07
2.13738e-07
1.90237e-07
1.69441e-07
3.27032e-07
7.56443e-06
3.51434e-07
5.15278e-08
8.0979e-08
1.27869e-07
1.72828e-07
2.40333e-07
2.65846e-07
1.61537e-07
1.1085e-07
1.09047e-07
9.98166e-08
1.13434e-07
9.60028e-08
4.6842e-07
3.89491e-06
1.58635e-06
1.29338e-07
2.81242e-07
2.45703e-07
4.20263e-07
5.424e-07
4.84429e-07
2.97509e-07
2.40683e-07
2.48528e-07
2.73142e-07
2.89287e-07
2.25834e-07
3.88849e-07
6.53237e-06
2.80837e-07
5.79715e-08
1.18313e-07
1.81964e-07
2.13383e-07
1.96612e-07
2.08658e-07
1.81476e-07
1.25531e-07
1.20127e-07
1.16325e-07
1.10546e-07
1.21975e-07
3.42088e-07
1.83875e-06
6.67167e-07
1.5018e-07
2.4806e-07
3.10164e-07
9.76037e-07
6.40592e-07
7.11414e-07
5.60692e-07
2.91801e-07
3.00678e-07
3.62247e-07
4.31727e-07
3.73653e-07
5.6397e-07
2.9181e-06
2.25067e-07
7.40496e-08
1.60503e-07
2.61721e-07
3.52451e-07
1.91051e-07
2.09626e-07
2.21233e-07
1.53027e-07
1.43724e-07
1.28213e-07
1.31707e-07
1.27062e-07
1.99959e-07
5.71022e-07
3.76983e-07
1.27445e-07
2.79951e-07
3.73999e-07
9.42112e-07
7.76939e-07
1.04268e-06
1.09831e-06
5.8768e-07
3.45313e-07
4.59182e-07
5.36717e-07
5.83103e-07
4.98004e-07
8.32156e-07
1.86049e-07
1.05688e-07
2.26422e-07
3.88162e-07
4.85235e-07
2.74753e-07
2.04302e-07
2.03922e-07
2.01592e-07
1.55068e-07
1.47103e-07
1.36344e-07
1.81119e-07
2.23072e-07
3.49431e-07
5.70599e-07
2.51714e-07
2.7079e-07
4.48337e-07
6.77423e-07
1.03704e-06
1.70764e-06
2.17291e-06
1.63018e-06
5.92642e-07
4.61746e-07
5.71753e-07
5.92196e-07
4.58692e-07
1.24416e-06
1.87631e-07
1.68203e-07
3.46611e-07
6.19417e-07
6.53758e-07
5.88402e-07
2.35201e-07
1.88521e-07
1.67914e-07
1.6376e-07
1.56009e-07
1.45042e-07
1.92952e-07
2.98142e-07
5.16737e-07
1.00259e-06
4.30632e-07
4.28082e-07
4.34166e-07
5.69803e-07
1.42395e-06
2.79086e-06
1.90286e-05
3.94051e-06
1.98159e-06
5.20545e-07
4.49357e-07
4.95679e-07
1.39278e-06
4.94081e-06
2.50133e-07
2.91662e-07
5.77865e-07
1.05887e-06
1.11725e-06
8.55285e-07
2.79343e-07
2.11072e-07
1.61209e-07
1.55182e-07
1.65234e-07
1.8614e-07
1.6366e-07
4.06213e-07
8.42506e-07
1.13008e-06
6.6124e-07
5.6709e-07
5.08627e-07
5.59458e-07
1.30896e-05
0.000873256
0.00101709
0.00099122
6.55353e-05
2.11104e-06
5.09565e-07
1.81918e-06
1.41911e-05
1.28177e-05
4.32124e-07
4.9723e-07
9.41979e-07
1.61972e-06
1.96193e-06
1.58277e-06
4.35698e-07
2.42427e-07
1.83555e-07
1.63539e-07
1.5256e-07
1.95501e-07
1.7277e-07
3.13782e-07
1.01583e-06
1.8077e-06
7.76628e-07
5.92945e-07
6.58123e-07
7.07328e-07
0.000216935
0.001069
0.00101998
0.00106495
0.00101487
0.000437283
2.40563e-05
2.49098e-05
2.72909e-05
1.84271e-05
8.83062e-07
6.90903e-07
6.33883e-06
7.81376e-05
4.76613e-05
3.05901e-06
1.27085e-06
3.2171e-07
2.39444e-07
1.69538e-07
1.55785e-07
1.48561e-07
2.5279e-07
1.89016e-07
6.23472e-07
3.13334e-06
1.48775e-06
1.44625e-06
1.12637e-06
1.88657e-06
0.000421926
0.0010209
0.000172506
2.66061e-05
2.84882e-05
2.43727e-05
1.6747e-05
1.20876e-05
8.14848e-06
1.65433e-05
1.55435e-06
0.00051228
0.00234579
0.00297658
0.00239877
0.000901242
4.0492e-06
1.00645e-06
2.88983e-07
2.19491e-07
1.8177e-07
1.45414e-07
2.27982e-07
2.05856e-07
3.59658e-07
4.41697e-06
1.57541e-05
4.32579e-05
1.21899e-05
6.71695e-06
1.44718e-05
1.1065e-05
3.01308e-06
2.55766e-06
3.18282e-06
2.42911e-06
9.97052e-07
5.61515e-07
1.34895e-07
2.33038e-06
0.000974333
0.00631158
0.00935045
0.00928923
0.0077926
0.00528991
0.00139299
4.03957e-06
6.45018e-07
2.67307e-07
2.22288e-07
1.59487e-07
1.35276e-07
3.29769e-07
4.36794e-07
4.8673e-06
1.21749e-05
4.55748e-05
3.31215e-05
1.06541e-05
5.38245e-06
7.0572e-07
5.03502e-08
5.16847e-08
3.94791e-08
4.80683e-08
4.83283e-08
5.11289e-08
6.58598e-08
1.27117e-06
0.00829496
0.013913
0.0144388
0.0127033
0.0107182
0.00920537
0.00613174
0.0011413
2.94445e-06
3.57328e-07
2.70599e-07
2.0984e-07
2.37512e-07
3.6501e-07
1.00379e-06
8.22912e-06
6.98478e-06
6.57725e-06
5.99288e-06
5.58254e-06
1.69281e-06
1.55164e-07
7.76614e-08
7.4943e-08
6.44698e-08
6.74991e-08
6.42985e-08
6.5588e-08
8.85173e-08
1.33986e-06
0.0146832
0.0147165
0.0146318
0.0109581
0.00967819
0.00946103
0.00897967
0.00543409
0.000289345
5.40454e-07
3.16138e-07
3.60769e-07
5.28309e-07
3.96892e-07
7.99856e-06
0.000200249
7.78022e-05
7.43559e-06
4.61332e-06
3.01284e-06
1.02834e-06
1.85192e-07
1.15061e-07
1.0344e-07
9.21108e-08
8.8655e-08
8.72506e-08
9.08514e-08
1.31531e-07
1.33077e-06
0.0147316
0.0146955
0.0106115
0.00513228
0.00639693
0.00833518
0.00947832
0.00856821
0.00197556
5.91874e-07
4.94814e-07
7.82695e-07
7.32132e-07
8.69887e-06
0.000846177
0.00605997
0.00417524
0.00179196
0.000310922
4.01143e-06
1.68489e-06
3.198e-07
1.97683e-07
1.75504e-07
1.46738e-07
1.43429e-07
1.39444e-07
1.44518e-07
1.95241e-07
1.2229e-06
0.014717
0.0145885
0.00451388
0.00148336
0.00340453
0.00696439
0.00971064
0.00968561
0.00216505
1.67277e-06
1.43507e-06
1.21563e-06
4.03734e-06
0.00201714
0.00634815
0.00667781
0.00639057
0.00659306
0.00627267
0.00150248
3.71707e-06
7.34781e-07
3.03719e-07
3.05709e-07
2.4323e-07
2.29978e-07
2.22991e-07
2.2162e-07
2.69496e-07
1.07986e-06
0.0108951
0.00583943
0.00204651
0.000952338
0.00209648
0.00707501
0.010058
0.00928144
0.00129706
2.53076e-06
2.45692e-06
4.62539e-05
0.00437952
0.00636873
0.00705401
0.00640373
0.00718433
0.00640376
0.00667961
0.00635176
0.00165703
2.35017e-06
3.98279e-07
5.11241e-07
3.94408e-07
3.65377e-07
3.43778e-07
3.25862e-07
3.54468e-07
8.99943e-07
3.2968e-05
3.26917e-05
0.000902421
0.000961329
0.00299882
0.00916727
0.0101301
0.00703167
0.000497596
2.80381e-06
0.000126849
0.004244
0.006373
0.00707021
0.00639905
0.00758746
0.00641078
0.00761825
0.00640798
0.00699593
0.00634873
0.00095459
5.94806e-07
7.0756e-07
6.58973e-07
5.71209e-07
5.09323e-07
4.50449e-07
4.27575e-07
6.86317e-07
3.50703e-06
6.49258e-06
2.62002e-05
0.00146706
0.00501262
0.0101537
0.0100497
0.0043768
0.00031512
5.70304e-05
0.00243056
0.00633954
0.00690631
0.00637776
0.00594608
0.00618513
0.00754764
0.0063229
0.00759201
0.00640576
0.00693699
0.00632445
0.000198809
1.65588e-06
1.34571e-06
9.8053e-07
7.62813e-07
5.97238e-07
4.74607e-07
4.83864e-07
7.38217e-07
1.42783e-07
2.71699e-06
2.15169e-05
0.00392476
0.0100378
0.0101665
0.00241876
0.000389745
0.000777297
0.00600632
0.00666946
0.00635786
0.00422652
1.64133e-05
1.59927e-05
1.95338e-05
2.4962e-05
0.00117772
0.00744195
0.00639847
0.00660509
0.00126217
4.33765e-05
9.68696e-06
2.32967e-06
1.52259e-06
9.99695e-07
6.68523e-07
4.19909e-07
6.75071e-07
7.1605e-08
5.48484e-08
4.21845e-06
0.000239537
0.0101411
0.00997049
0.000834547
0.000757581
0.00162455
0.00632378
0.00634077
0.00653451
1.60825e-05
4.64012e-06
3.82121e-06
3.03816e-06
3.06244e-06
5.80258e-06
2.29617e-05
0.0072096
0.00634721
0.000957071
8.48606e-05
6.76167e-05
2.27243e-05
2.84045e-06
1.8541e-06
1.27175e-06
7.04221e-07
7.78627e-07
9.94672e-08
9.82825e-08
9.90855e-07
2.81838e-05
0.00940195
0.00414925
2.71121e-05
2.05004e-05
4.09776e-05
0.00398622
0.00659774
0.000102497
3.29375e-06
6.54258e-07
8.75689e-07
2.79319e-07
9.4798e-08
2.4428e-07
2.90633e-06
1.92746e-05
0.0024057
0.000319097
9.36783e-05
6.15022e-05
2.0174e-05
3.3759e-06
2.31026e-06
1.88826e-06
1.35268e-06
8.97724e-07
1.55817e-07
1.62461e-07
1.63556e-07
8.93283e-06
2.42736e-05
9.1295e-06
4.37764e-06
2.44173e-06
8.66598e-06
0.000197966
0.00437644
1.29034e-05
5.5239e-07
2.67733e-07
6.65317e-08
1.717e-07
1.73312e-07
2.27556e-07
1.48813e-07
4.86119e-06
8.14574e-05
0.000225776
0.00012929
7.06288e-05
1.95733e-05
3.08342e-06
2.26716e-06
2.11183e-06
2.49926e-06
1.18461e-06
2.34446e-07
2.47601e-07
3.40263e-07
1.01396e-06
4.21218e-06
1.50953e-06
5.62919e-08
9.77185e-08
1.01371e-06
9.78709e-06
0.000194898
4.9877e-06
1.83068e-07
2.87873e-07
1.11035e-07
9.68335e-08
1.75687e-07
1.60347e-07
3.25862e-07
1.96106e-06
2.33271e-05
0.000223353
0.000202089
0.000100911
2.18461e-05
2.99055e-06
2.17339e-06
2.13992e-06
4.49017e-06
1.75247e-06
3.47522e-07
3.65319e-07
7.02981e-07
9.46785e-07
2.76765e-07
7.21568e-08
1.1451e-07
1.1833e-07
1.11092e-07
1.48078e-06
1.35674e-05
4.01091e-06
7.68163e-08
2.43127e-07
1.68201e-07
7.37642e-08
1.26001e-07
3.37099e-07
3.7728e-07
8.38046e-07
5.64113e-06
0.000221358
0.000210558
9.34674e-05
1.31956e-05
2.14563e-06
2.06609e-06
2.00798e-06
4.84938e-06
2.37133e-06
4.93093e-07
6.18665e-07
7.3925e-07
5.18551e-07
1.8486e-07
6.97829e-08
1.12009e-07
1.2075e-07
1.15416e-07
1.8429e-07
2.91519e-06
4.69357e-06
3.43902e-07
1.73357e-07
2.02475e-07
1.08381e-07
2.35824e-07
2.26999e-07
2.23393e-07
5.22956e-07
1.71791e-06
4.39849e-06
1.63661e-05
5.85972e-06
1.79581e-06
1.66775e-06
1.76294e-06
1.5111e-06
4.1393e-06
3.15784e-06
7.22276e-07
8.28346e-07
6.78017e-07
3.98476e-07
2.05874e-07
7.87145e-08
1.09521e-07
1.39566e-07
8.66633e-08
1.54209e-07
1.66777e-06
4.15318e-06
5.73441e-07
1.44142e-07
2.03699e-07
1.29769e-07
1.45976e-07
1.57815e-07
2.81506e-07
6.2391e-07
8.55568e-07
1.0126e-06
1.58256e-06
1.54988e-06
1.15084e-06
1.08523e-06
1.33492e-06
1.21306e-06
4.04006e-06
4.75e-06
1.14852e-06
1.10984e-06
7.67962e-07
4.57956e-07
3.0464e-07
1.41828e-07
1.20977e-07
1.27676e-07
7.10729e-08
1.45203e-07
1.4906e-06
4.26676e-06
6.75685e-07
1.38748e-07
2.16801e-07
1.63392e-07
1.38128e-07
2.06699e-07
4.52892e-07
7.90269e-07
7.49438e-07
6.3124e-07
6.84467e-07
7.65403e-07
6.83859e-07
6.52074e-07
9.46399e-07
1.04326e-06
3.82165e-06
0.000540827
1.68926e-06
1.48379e-06
1.07781e-06
7.29984e-07
4.99979e-07
2.69867e-07
1.2244e-07
9.85081e-08
1.11725e-07
1.5624e-07
1.4608e-06
4.93842e-06
1.00487e-06
1.77878e-07
2.26928e-07
1.78046e-07
1.75247e-07
3.32864e-07
7.19753e-07
8.65554e-07
6.87814e-07
6.4192e-07
7.00985e-07
7.06486e-07
6.03004e-07
5.63211e-07
8.13359e-07
1.01104e-06
6.26098e-06
0.00322627
0.000685499
8.02549e-05
1.49422e-06
1.11882e-06
7.19444e-07
4.06469e-07
1.80392e-07
1.34014e-07
1.46971e-07
1.39472e-07
1.18432e-06
6.14059e-06
2.32921e-06
2.58821e-07
2.70369e-07
2.0134e-07
2.63116e-07
5.52112e-07
9.46196e-07
8.66308e-07
7.46043e-07
7.89296e-07
8.66912e-07
8.03767e-07
6.64735e-07
6.32547e-07
8.76442e-07
1.14196e-06
9.32922e-05
0.00776148
0.00363802
0.00137214
0.000394984
5.16987e-05
9.69387e-07
6.03561e-07
3.6593e-07
1.56386e-07
1.592e-07
1.76436e-07
5.69519e-07
4.89542e-06
6.69785e-06
3.66151e-07
4.30453e-07
3.43477e-07
4.40723e-07
7.71404e-07
1.01572e-06
9.52611e-07
9.61187e-07
1.0705e-06
1.05057e-06
8.73947e-07
7.2775e-07
7.41766e-07
1.03765e-06
1.11129e-05
0.000634187
0.0117577
0.00812779
0.00457653
0.00219123
0.00086471
0.000180004
7.07194e-07
4.83165e-07
1.65465e-07
1.76022e-07
2.10982e-07
1.29983e-07
1.88874e-06
1.12428e-05
2.45367e-06
7.50287e-07
7.30956e-07
7.4982e-07
9.59046e-07
1.1737e-06
1.30344e-06
1.60403e-06
1.52604e-05
2.86473e-05
3.0206e-05
2.84025e-05
2.67714e-05
6.27666e-05
0.000411319
0.00221899
0.0137303
0.0119303
0.00875592
0.00523446
0.00274098
0.0011475
0.000240628
4.96911e-07
3.85844e-07
2.05915e-07
2.30098e-07
1.47739e-07
4.72099e-07
7.00476e-06
1.32599e-05
7.80089e-07
1.46761e-06
1.26923e-06
1.31689e-06
1.68361e-06
7.71963e-06
4.72383e-05
9.85066e-05
0.000143749
0.000176971
0.000215033
0.000287751
0.000636882
0.00191877
0.00486513
0.0130949
0.0130843
0.0120315
0.00860486
0.00524154
0.0027154
0.000997854
0.00011601
1.68399e-06
2.77894e-07
2.17423e-07
1.95467e-07
7.58482e-08
1.89578e-06
1.88025e-05
0.00086095
2.44738e-06
2.0298e-06
1.93967e-06
1.21226e-05
0.0001081
0.00019235
0.000294827
0.000422999
0.000580537
0.000810017
0.00124465
0.0023986
0.00479608
0.00784575
0.0100503
0.0124276
0.0124227
0.0106903
0.00746339
0.00452266
0.00209742
0.000534646
2.78819e-06
5.22088e-07
2.70289e-07
2.4277e-07
1.50746e-07
4.63625e-07
8.54681e-06
0.000882171
0.000765963
6.6657e-05
4.49308e-05
0.00024021
0.000472381
0.000612343
0.000779793
0.00104403
0.00147094
0.00216866
0.00337926
0.00566982
0.00828277
0.00998339
0.00473485
0.00456738
0.0113396
0.0105152
0.00821032
0.00580513
0.00331254
0.00126553
8.48239e-05
8.76987e-07
3.46173e-07
2.32768e-07
2.02924e-07
8.16493e-08
2.31916e-06
1.97941e-05
0.00103578
0.000768899
0.000689206
0.0010606
0.00144626
0.00167543
0.00187899
0.00227852
0.00305219
0.00436498
0.00638388
0.00924125
0.0100803
0.0101045
1.61406e-05
1.51457e-05
0.0026381
0.00694735
0.00709495
0.00591377
0.00410007
0.00161707
7.71689e-06
1.17798e-06
8.91524e-07
1.76332e-07
2.15495e-07
1.77232e-07
9.27123e-07
4.71741e-06
0.00103046
0.0019317
0.00231459
0.002827
0.0033944
0.00373604
0.00394895
0.00435829
0.00518767
0.00655817
0.00835316
0.00926743
0.00701999
0.00812917
4.73405e-06
2.14379e-06
1.3942e-05
0.0015279
0.00455449
0.00517355
0.00430237
0.00104942
3.38318e-06
1.55705e-06
1.53226e-06
9.41115e-07
1.6378e-07
1.86621e-07
2.95401e-07
1.57024e-06
0.00034259
0.0028958
0.00410849
0.00500481
0.00597341
0.00663568
0.00686241
0.007059
0.00731392
0.00745588
0.00726225
0.00690693
0.0017761
0.005068
1.7167e-06
4.88e-07
1.60516e-06
1.25955e-05
0.00150138
0.00370631
0.00333093
1.76151e-05
1.93901e-06
2.22194e-06
1.97752e-06
2.16891e-06
2.76227e-07
1.10719e-07
2.69428e-07
1.72964e-06
9.82906e-06
0.00238319
0.00486027
0.0064029
0.00820177
0.00913919
0.0092837
0.00925898
0.00893329
0.00755984
0.0048892
0.0023232
0.000176447
0.00117891
2.50751e-06
6.11404e-07
4.97281e-07
1.31387e-06
1.32743e-05
0.00159729
0.001558
1.93538e-06
2.68522e-06
3.14875e-06
4.13307e-06
3.93066e-06
4.14326e-07
1.54984e-07
4.03054e-07
3.20128e-06
7.3964e-06
0.00194834
0.0046356
0.00645002
0.0093113
0.00931608
0.00942175
0.00932053
0.00935309
0.00843715
0.00495093
0.00201172
0.000168256
0.00109214
3.96844e-05
1.32734e-06
7.77239e-07
6.63784e-07
1.4256e-06
9.08544e-06
1.21697e-05
2.56862e-06
3.03582e-06
4.78042e-06
0.000203705
6.16131e-06
4.97515e-07
3.09936e-07
7.88429e-07
5.31386e-06
5.09363e-06
0.0011082
0.00211672
0.00343724
0.00661234
0.00959795
0.00930736
0.00971565
0.00932427
0.0093309
0.00704801
0.00405797
0.00152218
0.00352567
0.000659827
0.000154438
1.46118e-06
1.14976e-06
8.70435e-07
8.10337e-07
2.06676e-06
4.03621e-06
0.00013345
0.00113781
0.000351177
4.33148e-06
7.7158e-07
2.99515e-07
2.05954e-06
6.60595e-06
4.77127e-06
0.000811662
5.67819e-05
0.000163999
0.000538738
0.00084147
0.00559121
0.00931069
0.00972656
0.00932069
0.00895606
0.00721483
0.00633975
0.00745758
0.000665853
0.00123147
0.000623554
9.96251e-05
1.35395e-06
8.15072e-07
1.37159e-06
0.000146706
0.00229429
0.00135931
6.37278e-06
2.2206e-06
8.3937e-07
5.15944e-07
3.94694e-06
6.45021e-06
1.8202e-05
2.16708e-05
6.76983e-06
6.23974e-06
6.62646e-06
5.30659e-06
1.30025e-05
0.00959196
0.00932586
0.00948038
0.00931282
0.00854363
0.00807702
0.00751787
0.000337792
0.0015826
0.00193041
0.00138631
0.000512872
6.70407e-06
6.96658e-05
0.00206838
0.00247434
0.000410438
3.07062e-06
1.66996e-06
5.51845e-07
1.01681e-06
4.85981e-06
7.75953e-06
2.20335e-05
4.127e-06
5.50397e-07
2.98657e-07
3.8711e-07
4.33401e-07
8.19336e-06
0.00443304
0.00973605
0.00932314
0.00933647
0.00868033
0.00710456
0.00469673
0.000274
0.00174147
0.00248511
0.00249941
0.00236249
0.00127249
0.00213999
0.00253098
0.00246717
6.11621e-06
2.7476e-06
1.14301e-06
2.66273e-07
1.20464e-06
5.35616e-06
2.8074e-05
9.04728e-06
9.97847e-07
5.85013e-07
4.38532e-07
6.07984e-07
2.01817e-05
0.000254841
0.0025831
0.00928704
0.00953065
0.00931555
0.00861895
0.00543765
0.00252209
0.00043386
0.00140291
0.00252526
0.00249012
0.00259118
0.0024913
0.00260071
0.00248828
0.00251714
1.03001e-05
2.68339e-06
5.97285e-07
3.21513e-07
1.57407e-06
5.29372e-06
0.00016289
6.38167e-06
1.03971e-06
8.28084e-07
8.23462e-07
0.000144833
0.000781801
0.00118465
0.00299708
0.00966282
0.0093212
0.00936673
0.00865861
0.00393955
0.0016581
0.000460782
1.41867e-05
1.85828e-05
0.000190064
0.00246929
0.00258858
0.00246429
3.74005e-05
2.28067e-05
1.4312e-05
4.8533e-06
6.60537e-07
4.79761e-07
2.74168e-06
4.28856e-05
0.000377673
6.80825e-06
1.82092e-06
1.5071e-06
0.000155977
0.00129954
0.00213288
0.00274575
0.00391234
0.0092843
0.00953151
0.00931615
0.00889301
0.00262577
0.00148161
1.53966e-05
2.64144e-06
3.99292e-06
4.06174e-06
8.45835e-06
1.65533e-05
1.27762e-05
3.95012e-06
6.04605e-06
2.13035e-05
1.89507e-05
3.7527e-06
1.94403e-06
8.91058e-06
0.000385649
0.000382023
1.20839e-05
2.14356e-06
4.96303e-06
0.00139821
0.00251037
0.00253163
0.00417328
0.00483412
0.00808262
0.00931263
0.00951141
0.0064164
0.000974583
0.00147894
4.49288e-06
2.25739e-07
2.92529e-07
3.29605e-07
9.6337e-07
1.84644e-06
1.43198e-06
2.51517e-07
1.22915e-06
1.00017e-05
3.34249e-05
2.06071e-05
1.60065e-05
1.52464e-05
2.66955e-05
0.000120474
7.95115e-06
7.39489e-07
1.12262e-05
0.00140725
0.00122515
0.000122604
0.00187663
0.00487788
0.00662715
0.00949666
0.00920289
0.000391264
1.0701e-05
0.00147376
2.78021e-06
3.27224e-07
3.16111e-07
2.98463e-07
3.63475e-07
2.90946e-07
1.02926e-07
1.39638e-07
3.60025e-07
1.92548e-06
1.73581e-05
2.5809e-05
2.02057e-05
7.49864e-06
5.67145e-06
5.06131e-06
9.97854e-07
4.73144e-07
3.6885e-06
1.77318e-05
9.01015e-06
6.13925e-06
1.59313e-05
0.000843168
0.00349883
0.00596855
0.00235456
7.11065e-06
2.71744e-06
1.6234e-05
3.12246e-06
3.96132e-07
4.75411e-07
4.32315e-07
3.82661e-07
2.96321e-07
1.57797e-07
1.0433e-07
1.80345e-07
4.51357e-07
2.01227e-06
6.09397e-06
3.74608e-06
1.19763e-06
6.80223e-07
6.48775e-07
1.38867e-07
5.9738e-07
1.63239e-06
2.36818e-06
6.64101e-07
3.41973e-08
1.5067e-06
6.98642e-06
2.13223e-05
0.000139331
9.63282e-06
4.9733e-07
3.82664e-07
5.87329e-06
4.12386e-06
7.3837e-07
7.16925e-07
5.75454e-07
5.32848e-07
4.05527e-07
2.86844e-07
1.24471e-07
1.82187e-07
2.45856e-07
4.05755e-07
9.60435e-07
3.8804e-07
1.58303e-07
2.4252e-07
2.65726e-07
1.09275e-07
8.05689e-07
1.54551e-06
5.3814e-07
1.13435e-07
1.03505e-07
7.93513e-08
9.59438e-08
2.85621e-06
5.07301e-06
1.17399e-06
7.697e-07
4.98126e-07
3.05855e-06
0.000261442
1.80528e-06
1.4149e-06
9.2721e-07
7.3865e-07
6.40979e-07
5.15983e-07
2.74096e-07
2.69434e-07
2.56607e-07
2.0871e-07
4.46225e-07
1.59282e-07
1.35607e-07
2.46553e-07
2.10359e-07
1.36075e-07
1.51323e-06
1.43916e-06
3.61463e-07
1.08099e-07
8.50402e-08
9.29131e-08
1.96177e-07
3.2167e-07
5.65662e-07
8.55027e-07
8.33226e-07
6.0441e-07
3.23619e-06
0.00430439
0.000663098
8.70287e-06
1.82444e-06
1.25882e-06
1.00344e-06
9.40095e-07
4.78969e-07
3.14218e-07
3.59663e-07
1.55834e-07
3.6936e-07
2.4972e-07
1.90094e-07
2.60374e-07
1.72105e-07
4.02507e-07
2.51508e-06
8.84622e-07
2.59115e-07
1.11635e-07
1.02806e-07
1.70333e-07
2.90693e-07
4.27547e-07
6.63344e-07
9.42312e-07
1.07982e-06
9.11521e-07
3.81248e-06
0.01026
0.00595946
0.00223469
0.000346773
2.26809e-06
1.86529e-06
1.42568e-06
7.34371e-07
3.15058e-07
4.45987e-07
1.83454e-07
1.78521e-07
2.61682e-07
2.68014e-07
2.91729e-07
1.31494e-07
9.58369e-07
2.20241e-06
4.53517e-07
1.66282e-07
1.12292e-07
1.44531e-07
2.83564e-07
5.00982e-07
7.33872e-07
1.04969e-06
1.37316e-06
1.74765e-06
1.77542e-06
0.000239877
0.0105964
0.0101511
0.00716659
0.00371904
0.00119606
0.000103954
2.18423e-06
1.17535e-06
5.22075e-07
3.99147e-07
3.54577e-07
1.57775e-07
1.86432e-07
3.05224e-07
3.37403e-07
1.25747e-07
1.54303e-06
1.68712e-06
2.46276e-07
1.46181e-07
1.38831e-07
2.69089e-07
5.54873e-07
8.89266e-07
1.24826e-06
1.83864e-06
2.29434e-06
9.10668e-05
0.000805669
0.00382251
0.00791418
0.00962651
0.00909613
0.00697241
0.00439742
0.0018747
0.000268567
1.61072e-06
1.02882e-06
5.05708e-07
5.5891e-07
2.76891e-07
2.58226e-07
3.52746e-07
3.42118e-07
1.71874e-07
2.24136e-06
9.88341e-07
1.93983e-07
1.69111e-07
2.53464e-07
5.19654e-07
9.51247e-07
1.5005e-06
7.79564e-06
0.000391887
0.00160931
0.00385608
0.00727062
0.0128492
0.00501287
0.00743865
0.00843538
0.0074751
0.00608699
0.00414145
0.00195198
0.000436395
1.78564e-05
9.05265e-07
7.76699e-07
5.12932e-07
3.48228e-07
4.59724e-07
4.08449e-07
3.62433e-07
2.08892e-06
5.57996e-07
1.91876e-07
2.41475e-07
4.80859e-07
7.60163e-07
1.73516e-06
0.000607519
0.00271803
0.00576574
0.00910218
0.0125151
0.0160216
0.0191899
0.0038095
0.00514226
0.00754927
0.0068574
0.00612228
0.00483457
0.00339175
0.00173899
0.000372108
3.04957e-06
1.25427e-06
1.35452e-06
8.27491e-07
5.85341e-07
5.0316e-07
5.50152e-07
1.87351e-06
4.17024e-07
2.26515e-07
6.19107e-07
1.33189e-06
7.88538e-05
0.00136293
0.00452441
0.0085651
0.0122976
0.0153793
0.0176707
0.0192038
0.0192601
0.00365625
0.00204124
0.00704705
0.00581177
0.00588724
0.0046347
0.00375313
0.00257292
0.000418409
3.64328e-06
3.34773e-06
2.42624e-06
1.99633e-06
1.05838e-06
5.92378e-07
1.15617e-06
1.85844e-06
2.76763e-07
3.87228e-07
2.58284e-06
0.00022186
0.00119684
0.00384961
0.00811064
0.0122805
0.015463
0.017272
0.0174712
0.0172429
0.0192026
0.00297596
2.32277e-05
0.00263197
0.00317178
0.00525037
0.00408346
0.00350786
0.00279996
0.000435335
2.71605e-06
3.63092e-06
4.14018e-06
3.18323e-06
1.8098e-06
7.58648e-07
2.15548e-06
1.69915e-06
3.88876e-07
7.54345e-07
4.30079e-06
0.000851783
0.00303943
0.00639341
0.0107304
0.0146553
0.0165575
0.0165532
0.0144476
0.0104426
0.0133856
1.86712e-05
4.34967e-06
1.05319e-05
2.63112e-05
0.00256948
0.00260497
0.00294215
0.00260353
0.0004917
2.80975e-06
3.00165e-06
6.27494e-06
5.70308e-06
2.69002e-06
9.47497e-07
2.93514e-06
2.1024e-06
6.1405e-07
1.05131e-06
3.69924e-06
0.000893526
0.00504552
0.00972926
0.0136866
0.0164937
0.0165016
0.0135452
0.00784174
0.00251669
0.00700187
6.23558e-06
4.42204e-07
6.9296e-07
4.14023e-06
1.3122e-05
2.10958e-05
0.00151464
0.00219859
0.000630395
3.88512e-06
3.8416e-06
8.41504e-06
1.0418e-05
3.67655e-06
1.40955e-06
3.91273e-06
3.18414e-06
9.64019e-07
1.61402e-06
5.06397e-06
0.000120974
0.00472843
0.0127014
0.0164536
0.0164722
0.0167848
0.0085097
0.00216026
9.71054e-05
0.0025685
4.87564e-06
6.76224e-07
5.39039e-07
4.99327e-07
1.54045e-06
4.42721e-06
1.12428e-05
4.06106e-05
0.000292673
6.48092e-05
7.05092e-06
6.14277e-05
1.35691e-05
4.13289e-06
2.33341e-06
6.30421e-06
5.38743e-06
1.81906e-06
3.72717e-06
7.13035e-06
3.95677e-06
0.00183613
0.0126125
0.016422
0.0170353
0.016331
0.00280695
2.25775e-05
6.87733e-06
2.39208e-05
0.000131258
1.82549e-06
1.47936e-06
1.21926e-06
9.30251e-07
9.87136e-07
1.66056e-06
4.50817e-06
6.29785e-06
6.90955e-06
4.40144e-05
6.33215e-05
1.14224e-05
4.47393e-06
3.34166e-06
9.82321e-06
7.91908e-06
3.20101e-06
5.95919e-06
5.70501e-06
3.33369e-06
0.000559676
0.0103131
0.0168593
0.0164396
0.0136553
4.24411e-05
3.84429e-06
3.5952e-08
4.13297e-06
0.00112844
0.000376868
8.97925e-05
8.19147e-05
2.8613e-06
2.02324e-06
1.59513e-06
1.34709e-06
1.17313e-06
1.71677e-06
6.03281e-06
8.23454e-06
3.73639e-06
3.34114e-06
3.25534e-06
1.17631e-05
8.97061e-06
5.03473e-06
5.36668e-06
4.46724e-06
3.1681e-06
7.21208e-05
0.00620024
0.0163374
0.0176454
0.00519688
9.67645e-06
6.24622e-08
1.29822e-07
7.87694e-07
0.000958673
0.0018489
0.00165469
0.0015912
0.00117081
0.000295552
2.69522e-06
1.68916e-06
8.72348e-07
2.43814e-07
1.39454e-06
1.02048e-06
1.38232e-06
1.79559e-06
2.72973e-06
9.47245e-06
6.74995e-06
5.7814e-06
3.55217e-06
2.43998e-06
2.53568e-06
3.42113e-06
0.00335317
0.0173922
0.016311
0.00324218
1.5423e-06
2.8019e-07
1.26734e-07
5.38332e-07
0.000958983
0.00183791
0.00208499
0.00204358
0.00210261
0.00203585
0.000388651
1.80194e-06
3.23293e-07
7.13682e-07
1.8964e-07
5.7926e-07
1.09204e-06
1.08595e-06
1.895e-06
5.5203e-06
1.91392e-06
1.63522e-06
6.94985e-07
1.17586e-06
2.22626e-06
1.06927e-05
0.00220939
0.0161858
0.0178291
0.00573831
1.86245e-06
1.33115e-06
1.70393e-07
3.89344e-07
0.000959997
0.00105616
0.00204462
0.00210353
0.00204221
0.00211405
0.00121289
8.0942e-05
9.21558e-07
4.79644e-07
5.17936e-07
6.99846e-07
8.47321e-07
7.15295e-07
1.38265e-06
2.07216e-06
3.92678e-07
5.58883e-07
1.21685e-06
2.39872e-06
1.06608e-05
0.000627597
0.00454723
0.0169514
0.0162515
0.0108962
0.00121266
4.49106e-06
3.81257e-07
3.92671e-07
0.00103176
2.10254e-05
9.76917e-05
1.20177e-05
2.05287e-05
0.00203122
0.00147818
0.000189263
3.85564e-06
7.52654e-07
7.3938e-07
6.32514e-07
4.18931e-07
4.86879e-07
1.59842e-06
6.49602e-07
4.01768e-07
5.13871e-07
1.6607e-06
5.27231e-06
0.000529526
0.00763833
0.0157803
0.0162208
0.0176797
0.0160768
0.00432482
1.62444e-05
1.92264e-06
7.29505e-07
3.24895e-05
4.36835e-06
4.16848e-06
1.18133e-06
3.68464e-06
0.00119352
0.00145263
0.000413987
6.71942e-06
8.88347e-07
5.98708e-07
3.93042e-07
2.2065e-07
3.76482e-07
1.13196e-06
5.00382e-07
4.57052e-07
3.62619e-07
1.64503e-06
1.11313e-05
0.00351716
0.00993827
0.011238
0.0173943
0.0162306
0.01642
0.0031137
1.90444e-05
1.28913e-05
4.87803e-06
7.85092e-06
5.37566e-07
2.60145e-07
3.79452e-07
4.68723e-07
1.58326e-05
0.00182963
0.00175309
8.81608e-06
9.82526e-07
2.98748e-07
2.16136e-07
2.26657e-07
3.84853e-07
7.46148e-07
1.60691e-06
2.31244e-06
2.31256e-06
4.37877e-06
0.000400622
0.00345525
5.91483e-05
3.93847e-05
0.00696776
0.017334
0.0158948
0.000118172
6.1212e-06
9.38082e-06
2.61667e-05
3.6766e-06
5.83491e-07
6.98483e-07
8.56224e-07
3.86451e-07
1.40803e-05
0.0019204
0.00183275
1.35814e-05
2.50477e-06
8.41277e-07
1.25614e-06
1.87903e-06
2.42023e-06
4.49899e-06
1.16213e-05
2.87013e-05
3.65112e-05
4.85546e-05
5.91861e-05
3.9024e-05
7.43637e-06
3.6678e-06
1.73425e-05
0.0054587
0.0159672
3.17471e-05
1.05358e-06
1.85209e-06
2.02151e-05
4.07384e-06
7.98156e-07
2.25845e-06
2.81639e-06
1.28346e-06
1.63344e-05
0.00182056
4.29836e-05
3.76023e-05
3.18759e-05
2.17942e-05
2.35515e-05
2.73929e-05
2.93672e-05
3.53993e-05
4.31753e-05
3.58451e-05
2.42163e-05
1.82381e-05
9.49523e-06
3.26037e-06
5.07865e-07
3.63397e-07
2.60077e-06
1.52933e-05
0.000396228
1.75118e-05
1.35119e-06
1.22064e-06
8.30646e-06
6.84305e-06
1.49262e-06
8.29281e-06
1.21704e-05
1.06848e-05
1.24652e-05
7.98251e-06
3.92341e-06
2.34151e-05
4.7467e-05
4.70448e-05
4.6797e-05
4.76476e-05
4.94405e-05
5.15721e-05
1.92407e-05
4.91659e-06
2.57195e-06
1.73297e-06
8.39959e-07
1.17074e-07
4.48855e-08
6.6184e-08
1.60917e-07
2.57053e-06
1.53804e-05
5.77116e-06
1.72693e-06
1.44929e-06
5.3269e-06
1.37606e-05
5.25955e-06
1.06295e-05
1.62481e-05
1.35787e-05
2.69883e-06
5.16391e-07
3.28635e-07
1.82041e-06
5.36161e-06
9.7054e-06
1.41055e-05
1.51516e-05
1.06748e-05
5.49211e-06