/*--------------------------------*- C++ -*----------------------------------*\
| =========                 |                                                 |
| \\      /  F ield         | OpenFOAM: The Open Source CFD Toolbox           |
|  \\    /   O peration     | Version:  2.3.0                                 |
|   \\  /    A nd           | Web:      www.OpenFOAM.org                      |
|    \\/     M anipulation  |                                                 |
\*---------------------------------------------------------------------------*/
FoamFile
{
    version     2.0;
    format      ascii;
    class       volVectorField;
    location    "0.88";
    object      Ur;
}
// * * * * * * * * * * * * * * * * * * * * * * * * * * * * * * * * * * * * * //

dimensions      [0 1 -1 0 0 0 0];

internalField   nonuniform List<vector> 
6000
(
(0.0723281 -0.598067 0)
(0.0921239 -0.465976 0)
(0.0376388 -0.475254 0)
(-0.0166009 -0.47297 0)
(-0.0265568 -0.515443 0)
(0.0462728 -0.546315 0)
(0.11709 -0.54138 0)
(0.151791 -0.588372 0)
(0.159801 -0.628327 0)
(0.102391 -0.656819 0)
(-0.00355929 -0.663562 0)
(-0.0905945 -0.656325 0)
(-0.161027 -0.635515 0)
(-0.156374 -0.631797 0)
(-0.0614319 -0.574665 0)
(-0.0336547 -0.504306 0)
(-0.120302 -0.475161 0)
(-0.142643 -0.554095 0)
(-0.100555 -0.571434 0)
(-0.0961312 -0.566945 0)
(-0.109833 -0.503513 0)
(-0.153722 -0.480715 0)
(-0.220568 -0.474937 0)
(-0.275758 -0.502022 0)
(-0.171331 -0.62207 0)
(0.165588 -0.759548 0)
(0.2605 -0.714009 0)
(0.0587101 -0.726256 0)
(-0.0155638 -0.704301 0)
(0.00151014 -0.580762 0)
(0.0187574 -0.992719 0)
(0.024671 -0.818958 0)
(0.00516425 -0.832039 0)
(-0.0168255 -0.828022 0)
(-0.0445602 -0.868229 0)
(-0.0624114 -0.913223 0)
(-0.0468688 -0.962063 0)
(0.00521608 -1.02303 0)
(0.0613957 -1.05841 0)
(0.060935 -1.08263 0)
(-0.00447223 -1.07984 0)
(-0.0744709 -1.07504 0)
(-0.139575 -1.114 0)
(-0.0636709 -1.20878 0)
(0.0908763 -1.08302 0)
(0.097873 -0.884213 0)
(0.0290873 -0.825378 0)
(-0.0272987 -0.895867 0)
(-0.0689022 -0.860688 0)
(-0.12374 -0.822842 0)
(-0.195406 -0.808578 0)
(-0.261387 -0.801932 0)
(-0.322836 -0.80753 0)
(-0.348003 -0.911562 0)
(-0.204099 -1.24966 0)
(0.0450842 -1.64424 0)
(0.0957516 -1.20008 0)
(0.0633648 -1.17809 0)
(0.126232 -1.23395 0)
(0.110707 -0.970128 0)
(-0.0104269 -0.877417 0)
(-0.0255942 -0.761931 0)
(-0.032867 -0.780376 0)
(-0.0413032 -0.798564 0)
(-0.0666437 -0.853768 0)
(-0.105418 -0.918245 0)
(-0.130478 -0.998263 0)
(-0.0893763 -1.08448 0)
(0.0180946 -1.10742 0)
(0.0659211 -1.05817 0)
(0.00165239 -1.02388 0)
(-0.126275 -1.0042 0)
(-0.172147 -1.09437 0)
(0.0150416 -1.35514 0)
(0.256777 -1.152 0)
(0.260072 -0.819262 0)
(0.154028 -0.739603 0)
(0.059371 -0.757472 0)
(-0.0111144 -0.731852 0)
(-0.0761223 -0.700902 0)
(-0.171954 -0.724946 0)
(-0.274513 -0.771392 0)
(-0.338503 -0.821028 0)
(-0.239521 -1.04352 0)
(-0.0429415 -1.44571 0)
(-0.0036617 -1.49939 0)
(-0.00823354 -1.3707 0)
(0.0281888 -1.23631 0)
(0.147043 -1.32555 0)
(0.104779 -0.759368 0)
(-0.0336193 -0.874226 0)
(-0.0685052 -0.840472 0)
(-0.0796659 -0.862895 0)
(-0.111434 -0.897342 0)
(-0.157591 -0.983845 0)
(-0.182369 -1.06767 0)
(-0.161683 -1.15121 0)
(-0.0881586 -1.28192 0)
(0.0142313 -1.31153 0)
(0.0602395 -1.15544 0)
(0.0424145 -1.08859 0)
(0.00449281 -1.05467 0)
(0.045283 -1.30734 0)
(0.184359 -1.59497 0)
(0.32731 -1.25837 0)
(0.30769 -0.757648 0)
(0.187729 -0.713918 0)
(0.0599305 -0.752463 0)
(-0.0324734 -0.787518 0)
(-0.109491 -0.814383 0)
(-0.215889 -0.844546 0)
(-0.270237 -0.890514 0)
(-0.158951 -0.996462 0)
(0.0590373 -1.40395 0)
(0.128883 -1.44443 0)
(0.0694703 -1.42549 0)
(0.0107976 -1.35195 0)
(-0.0124476 -1.33187 0)
(0.0455109 -1.31754 0)
(0.0337316 -0.635324 0)
(-0.0397724 -0.954245 0)
(-0.0852425 -0.962263 0)
(-0.106765 -0.961449 0)
(-0.143519 -0.955803 0)
(-0.143292 -1.03699 0)
(-0.0843316 -1.15783 0)
(0.00700676 -1.301 0)
(0.0851734 -1.48171 0)
(0.106835 -1.53808 0)
(0.124249 -1.40769 0)
(0.176202 -1.33417 0)
(0.246876 -1.31959 0)
(0.312224 -1.49977 0)
(0.300587 -1.54002 0)
(0.298075 -1.24275 0)
(0.20626 -0.660312 0)
(0.102686 -0.637586 0)
(-0.0103112 -0.753128 0)
(-0.095632 -0.858439 0)
(-0.144553 -0.883473 0)
(-0.150299 -0.866381 0)
(-0.0631948 -1.00836 0)
(0.132081 -1.29325 0)
(0.222148 -1.3782 0)
(0.173043 -1.41802 0)
(0.108996 -1.37497 0)
(0.0525268 -1.37511 0)
(0.0204421 -1.32853 0)
(0.0554486 -1.29694 0)
(0.0344306 -0.56377 0)
(-0.0193322 -1.00404 0)
(-0.0235211 -1.01622 0)
(0.0125478 -1.00328 0)
(0.0582613 -1.00607 0)
(0.125688 -1.15389 0)
(0.203543 -1.26314 0)
(0.252286 -1.34159 0)
(0.238374 -1.37278 0)
(0.186354 -1.36643 0)
(0.171606 -1.33982 0)
(0.214605 -1.30993 0)
(0.274823 -1.34183 0)
(0.292838 -1.40238 0)
(0.292317 -1.42056 0)
(0.193257 -1.07658 0)
(0.0126922 -0.523175 0)
(-0.0864176 -0.570635 0)
(-0.122795 -0.772639 0)
(-0.0886284 -0.92095 0)
(-0.0314424 -0.921335 0)
(0.0495224 -1.0032 0)
(0.168055 -1.15259 0)
(0.216501 -1.24097 0)
(0.194815 -1.32025 0)
(0.162023 -1.34984 0)
(0.123766 -1.37753 0)
(0.0758982 -1.35067 0)
(0.0591784 -1.35147 0)
(0.106734 -1.29734 0)
(0.0565035 -0.468668 0)
(0.0431306 -1.10534 0)
(0.145393 -1.13936 0)
(0.272365 -1.13509 0)
(0.38468 -1.11696 0)
(0.397794 -1.1289 0)
(0.341579 -1.17414 0)
(0.278167 -1.23563 0)
(0.224709 -1.27389 0)
(0.19273 -1.31632 0)
(0.181849 -1.30764 0)
(0.201874 -1.33184 0)
(0.2227 -1.34748 0)
(0.241197 -1.40897 0)
(0.273797 -1.39005 0)
(0.0821415 -0.836381 0)
(-0.127652 -0.447697 0)
(-0.169485 -0.556514 0)
(-0.107817 -0.976187 0)
(0.0456175 -1.08789 0)
(0.152546 -0.978497 0)
(0.165506 -0.952041 0)
(0.137897 -1.05705 0)
(0.128986 -1.17538 0)
(0.123558 -1.24459 0)
(0.124163 -1.31696 0)
(0.112095 -1.33117 0)
(0.0889662 -1.35726 0)
(0.0789938 -1.32471 0)
(0.111138 -1.31225 0)
(0.0490337 -0.399695 0)
(0.10273 -1.29815 0)
(0.271864 -1.2237 0)
(0.392581 -1.17218 0)
(0.428481 -1.07332 0)
(0.382492 -1.01388 0)
(0.29963 -1.07749 0)
(0.227458 -1.16299 0)
(0.178988 -1.23023 0)
(0.157269 -1.26685 0)
(0.157226 -1.31146 0)
(0.162529 -1.3263 0)
(0.172642 -1.37545 0)
(0.17993 -1.40226 0)
(0.200815 -1.3648 0)
(-0.00406601 -0.597432 0)
(-0.189341 -0.425768 0)
(-0.129426 -0.69352 0)
(0.0667599 -1.05282 0)
(0.193059 -1.01694 0)
(0.207454 -0.859354 0)
(0.102747 -0.770381 0)
(0.0154507 -0.972422 0)
(0.0106539 -1.11144 0)
(0.0425584 -1.19926 0)
(0.0668481 -1.25181 0)
(0.0837693 -1.31482 0)
(0.0840755 -1.31334 0)
(0.0854829 -1.33311 0)
(0.0981636 -1.29577 0)
(0.0388971 -0.371538 0)
(0.0765962 -1.23862 0)
(0.209822 -1.19056 0)
(0.288938 -1.11181 0)
(0.295767 -0.995126 0)
(0.261436 -0.932715 0)
(0.209455 -1.00229 0)
(0.151383 -1.11042 0)
(0.110485 -1.17204 0)
(0.10376 -1.24022 0)
(0.105503 -1.27036 0)
(0.112569 -1.32691 0)
(0.115361 -1.35511 0)
(0.111531 -1.40848 0)
(0.101086 -1.34671 0)
(-0.0453642 -0.462101 0)
(-0.141748 -0.425041 0)
(-0.0591449 -0.935077 0)
(0.117503 -1.04365 0)
(0.226524 -1.01724 0)
(0.179703 -0.700776 0)
(0.0508208 -0.580367 0)
(-0.0477169 -0.850123 0)
(-0.0760255 -1.07025 0)
(-0.0366064 -1.14249 0)
(0.00252345 -1.21479 0)
(0.0397546 -1.25365 0)
(0.0647719 -1.30275 0)
(0.0811182 -1.29558 0)
(0.0955091 -1.29562 0)
(0.0360982 -0.362101 0)
(0.0654815 -1.27957 0)
(0.170039 -1.20606 0)
(0.188112 -1.04016 0)
(0.152053 -0.921368 0)
(0.119773 -0.877703 0)
(0.0951059 -0.967423 0)
(0.0595383 -1.06445 0)
(0.0356553 -1.13742 0)
(0.0369295 -1.18867 0)
(0.0462217 -1.24803 0)
(0.0535831 -1.28003 0)
(0.0583562 -1.3368 0)
(0.0473281 -1.36002 0)
(-0.000315111 -1.33795 0)
(-0.0726013 -0.454269 0)
(-0.0669795 -0.495167 0)
(0.008807 -0.974326 0)
(0.099163 -1.03619 0)
(0.18152 -0.996227 0)
(0.116852 -0.563321 0)
(0.0421456 -0.479427 0)
(-0.0238677 -0.723281 0)
(-0.100313 -1.00555 0)
(-0.105715 -1.09551 0)
(-0.0625501 -1.15189 0)
(-0.0144969 -1.21837 0)
(0.0310014 -1.24856 0)
(0.0676011 -1.28173 0)
(0.086153 -1.26632 0)
(0.0325278 -0.362178 0)
(0.0579944 -1.3021 0)
(0.136655 -1.20411 0)
(0.113075 -0.940472 0)
(0.0434464 -0.826328 0)
(-0.00622556 -0.82637 0)
(-0.0285816 -0.93848 0)
(-0.0342269 -1.03758 0)
(-0.0403791 -1.09711 0)
(-0.0304022 -1.16343 0)
(-0.0128361 -1.20139 0)
(-0.00010388 -1.24979 0)
(0.00770855 -1.2732 0)
(0.00167132 -1.31177 0)
(-0.0643557 -1.27954 0)
(-0.0783431 -0.54876 0)
(-0.015974 -0.600278 0)
(0.0333086 -0.95448 0)
(0.0740428 -0.988778 0)
(0.107126 -0.92314 0)
(0.0699146 -0.487065 0)
(0.051613 -0.439869 0)
(0.0245667 -0.612868 0)
(-0.0775813 -0.843009 0)
(-0.157765 -1.01994 0)
(-0.129058 -1.09958 0)
(-0.073425 -1.15006 0)
(-0.00957142 -1.20749 0)
(0.0422535 -1.21732 0)
(0.0538927 -1.22591 0)
(0.0171952 -0.37399 0)
(0.0516304 -1.29796 0)
(0.0962186 -1.16003 0)
(0.0471003 -0.825914 0)
(-0.0277567 -0.701898 0)
(-0.101441 -0.75111 0)
(-0.141731 -0.91727 0)
(-0.125204 -1.01447 0)
(-0.112415 -1.08742 0)
(-0.0926286 -1.1301 0)
(-0.06444 -1.18289 0)
(-0.0399578 -1.20311 0)
(-0.0239848 -1.23119 0)
(-0.02014 -1.2361 0)
(-0.0741358 -1.21094 0)
(-0.0528304 -0.697929 0)
(0.0228231 -0.680266 0)
(0.0241152 -0.884346 0)
(0.024177 -0.933212 0)
(0.0384362 -0.849403 0)
(0.0380928 -0.46301 0)
(0.055539 -0.418165 0)
(0.0513612 -0.524995 0)
(-0.0274736 -0.639493 0)
(-0.164132 -0.898592 0)
(-0.197189 -1.01492 0)
(-0.135455 -1.08798 0)
(-0.049583 -1.12491 0)
(0.0248669 -1.15403 0)
(0.0276555 -1.12286 0)
(0.00087301 -0.405385 0)
(0.0396242 -1.26501 0)
(0.039475 -1.06964 0)
(-0.021537 -0.717678 0)
(-0.0800053 -0.583055 0)
(-0.153191 -0.654917 0)
(-0.22625 -0.878419 0)
(-0.214687 -1.01162 0)
(-0.177928 -1.07366 0)
(-0.147923 -1.12362 0)
(-0.105326 -1.15119 0)
(-0.0678094 -1.18611 0)
(-0.0352182 -1.19122 0)
(-0.0157045 -1.19723 0)
(-0.0275566 -1.15125 0)
(0.0216364 -0.836084 0)
(0.0666465 -0.681077 0)
(-0.00397468 -0.776152 0)
(-0.0621879 -0.868178 0)
(-0.037588 -0.819494 0)
(0.00753424 -0.489538 0)
(0.0452872 -0.395217 0)
(0.049988 -0.453799 0)
(0.0211649 -0.485776 0)
(-0.095676 -0.665759 0)
(-0.224269 -0.920501 0)
(-0.192812 -1.00588 0)
(-0.0820908 -1.05372 0)
(0.0326241 -1.05688 0)
(0.0386536 -0.992645 0)
(-0.0013738 -0.414388 0)
(0.013985 -1.21202 0)
(-0.0292844 -0.965893 0)
(-0.0892188 -0.615838 0)
(-0.124835 -0.488471 0)
(-0.175927 -0.557118 0)
(-0.264512 -0.799727 0)
(-0.286902 -0.998865 0)
(-0.232313 -1.07084 0)
(-0.19027 -1.10363 0)
(-0.14413 -1.14541 0)
(-0.0906288 -1.1625 0)
(-0.0388486 -1.18188 0)
(0.00833568 -1.17108 0)
(0.0496224 -1.14297 0)
(0.109183 -0.898287 0)
(0.0820279 -0.6094 0)
(-0.0349924 -0.62867 0)
(-0.125576 -0.789443 0)
(-0.120454 -0.798278 0)
(-0.0411024 -0.544893 0)
(0.00968195 -0.364114 0)
(0.0242642 -0.393391 0)
(0.0361264 -0.399962 0)
(-0.00380934 -0.4708 0)
(-0.135695 -0.731009 0)
(-0.209027 -0.952482 0)
(-0.104555 -1.00918 0)
(0.0592376 -1.01045 0)
(0.0626291 -0.856221 0)
(-0.00654246 -0.379213 0)
(-0.0174167 -1.10016 0)
(-0.0849154 -0.808121 0)
(-0.134045 -0.525304 0)
(-0.149268 -0.418405 0)
(-0.178288 -0.468186 0)
(-0.261432 -0.687809 0)
(-0.338147 -0.985485 0)
(-0.282413 -1.05158 0)
(-0.233777 -1.10192 0)
(-0.178001 -1.12923 0)
(-0.117306 -1.16386 0)
(-0.0466743 -1.17566 0)
(0.0229196 -1.18795 0)
(0.101209 -1.16024 0)
(0.140659 -0.902985 0)
(0.058359 -0.508567 0)
(-0.0400934 -0.484464 0)
(-0.129476 -0.671799 0)
(-0.168195 -0.772616 0)
(-0.099065 -0.603235 0)
(-0.0411886 -0.342174 0)
(-0.0185521 -0.357455 0)
(0.0182874 -0.386592 0)
(0.0513742 -0.427771 0)
(0.00646648 -0.573897 0)
(-0.109723 -0.864037 0)
(-0.096353 -1.03465 0)
(0.0380633 -1.03323 0)
(0.00974565 -0.695394 0)
(-0.0311735 -0.408212 0)
(-0.0358777 -0.957574 0)
(-0.102595 -0.666448 0)
(-0.135739 -0.452751 0)
(-0.135831 -0.366777 0)
(-0.147664 -0.385976 0)
(-0.220255 -0.55266 0)
(-0.351347 -0.92565 0)
(-0.340995 -1.03143 0)
(-0.279051 -1.0836 0)
(-0.216724 -1.13107 0)
(-0.147335 -1.15543 0)
(-0.0727913 -1.19145 0)
(0.0111313 -1.2081 0)
(0.0896847 -1.21348 0)
(0.0953152 -0.880086 0)
(0.0180141 -0.412896 0)
(-0.0375384 -0.399663 0)
(-0.100283 -0.548089 0)
(-0.166138 -0.71656 0)
(-0.141504 -0.648707 0)
(-0.101162 -0.353551 0)
(-0.0805943 -0.369027 0)
(-0.0312859 -0.436388 0)
(0.0454095 -0.501842 0)
(0.0978524 -0.59511 0)
(0.0364655 -0.816619 0)
(-0.0430127 -1.04027 0)
(-0.0465677 -1.06407 0)
(-0.0687806 -0.721318 0)
(-0.0467804 -0.601231 0)
(-0.0326049 -0.808824 0)
(-0.0861253 -0.557597 0)
(-0.10367 -0.403705 0)
(-0.0867006 -0.33952 0)
(-0.0756578 -0.327449 0)
(-0.121695 -0.405642 0)
(-0.290531 -0.757429 0)
(-0.385558 -0.982581 0)
(-0.336027 -1.06935 0)
(-0.26197 -1.11837 0)
(-0.18723 -1.16301 0)
(-0.114247 -1.18447 0)
(-0.0348839 -1.23456 0)
(0.0258711 -1.24326 0)
(0.0263769 -0.865014 0)
(-0.0242054 -0.338147 0)
(-0.0507726 -0.357502 0)
(-0.0803329 -0.450892 0)
(-0.148759 -0.626946 0)
(-0.179995 -0.660769 0)
(-0.166446 -0.421517 0)
(-0.159785 -0.466277 0)
(-0.119311 -0.565187 0)
(-0.0236466 -0.644649 0)
(0.070396 -0.70813 0)
(0.0703673 -0.890028 0)
(-0.0117263 -1.15418 0)
(-0.100047 -1.22257 0)
(-0.060089 -1.00677 0)
(0.00709562 -0.837117 0)
(-0.0250898 -0.71521 0)
(-0.0645611 -0.503242 0)
(-0.0701094 -0.402107 0)
(-0.0407235 -0.35801 0)
(-0.00635711 -0.331657 0)
(-0.00557016 -0.334185 0)
(-0.127369 -0.520899 0)
(-0.349773 -0.857754 0)
(-0.388499 -1.03759 0)
(-0.316263 -1.11576 0)
(-0.22763 -1.15707 0)
(-0.155101 -1.17829 0)
(-0.0903536 -1.20885 0)
(-0.0490315 -1.2389 0)
(-0.0464127 -0.861437 0)
(-0.0723486 -0.300684 0)
(-0.0915333 -0.329528 0)
(-0.100323 -0.394119 0)
(-0.152581 -0.533106 0)
(-0.229535 -0.624385 0)
(-0.266285 -0.519939 0)
(-0.262064 -0.611119 0)
(-0.173271 -0.741354 0)
(-0.0564315 -0.807323 0)
(0.00455648 -0.821045 0)
(0.0197968 -0.993091 0)
(-0.0085783 -1.28859 0)
(-0.0570022 -1.36687 0)
(-0.0131844 -1.18329 0)
(0.0208302 -0.878085 0)
(-0.0283338 -0.65812 0)
(-0.0606801 -0.504528 0)
(-0.0473976 -0.438861 0)
(-0.00667454 -0.403539 0)
(0.0388806 -0.376173 0)
(0.080725 -0.356682 0)
(0.0414694 -0.400164 0)
(-0.150337 -0.612535 0)
(-0.361988 -0.942435 0)
(-0.355423 -1.11048 0)
(-0.259176 -1.16038 0)
(-0.174193 -1.16442 0)
(-0.130697 -1.15997 0)
(-0.100352 -1.18092 0)
(-0.109151 -0.828473 0)
(-0.137229 -0.295828 0)
(-0.15761 -0.314258 0)
(-0.154741 -0.373434 0)
(-0.187991 -0.460052 0)
(-0.286671 -0.541852 0)
(-0.38772 -0.579638 0)
(-0.405597 -0.735529 0)
(-0.310907 -1.06353 0)
(-0.120267 -1.16156 0)
(-0.0261931 -1.12645 0)
(0.0308107 -1.25512 0)
(0.0423292 -1.46836 0)
(0.0245163 -1.52961 0)
(0.0410106 -1.35256 0)
(0.0269479 -0.913901 0)
(-0.0230723 -0.617391 0)
(-0.0390035 -0.52232 0)
(-0.0146424 -0.475331 0)
(0.0241954 -0.445912 0)
(0.0691701 -0.421678 0)
(0.117937 -0.402648 0)
(0.145425 -0.40646 0)
(0.0622139 -0.463276 0)
(-0.159697 -0.716237 0)
(-0.309402 -1.0643 0)
(-0.246216 -1.17345 0)
(-0.156578 -1.1581 0)
(-0.133925 -1.10355 0)
(-0.130024 -1.08591 0)
(-0.173398 -0.744151 0)
(-0.234692 -0.309426 0)
(-0.244889 -0.324749 0)
(-0.217859 -0.375329 0)
(-0.230874 -0.416051 0)
(-0.311733 -0.444161 0)
(-0.41457 -0.54394 0)
(-0.470291 -0.915398 0)
(-0.321409 -1.21045 0)
(-0.142902 -1.2281 0)
(-0.0540594 -1.20385 0)
(0.0359574 -1.24864 0)
(0.080624 -1.30673 0)
(0.0845248 -1.31894 0)
(0.0765064 -1.14573 0)
(0.0298586 -0.734299 0)
(-0.00850567 -0.588667 0)
(-0.00819315 -0.538483 0)
(0.0162294 -0.50774 0)
(0.0522277 -0.486032 0)
(0.0944078 -0.463891 0)
(0.138691 -0.444479 0)
(0.180173 -0.437174 0)
(0.185099 -0.452751 0)
(0.0689331 -0.549134 0)
(-0.118749 -0.933095 0)
(-0.138793 -1.1698 0)
(-0.0645136 -1.14155 0)
(-0.0455194 -1.04902 0)
(-0.103315 -0.948799 0)
(-0.225587 -0.579088 0)
(-0.341172 -0.319423 0)
(-0.338733 -0.343952 0)
(-0.279687 -0.378191 0)
(-0.246571 -0.388066 0)
(-0.23884 -0.372713 0)
(-0.234218 -0.448107 0)
(-0.247563 -0.838353 0)
(-0.186661 -1.09179 0)
(-0.10054 -1.11434 0)
(-0.0519355 -1.08359 0)
(0.000212 -1.1143 0)
(0.0384163 -1.14436 0)
(0.0527089 -1.14803 0)
(0.0403301 -1.01212 0)
(0.00996249 -0.592556 0)
(0.00354723 -0.585963 0)
(0.015997 -0.562888 0)
(0.0411517 -0.541808 0)
(0.0790273 -0.528033 0)
(0.120295 -0.502812 0)
(0.158059 -0.480002 0)
(0.194224 -0.467367 0)
(0.225803 -0.472366 0)
(0.199663 -0.524581 0)
(0.100209 -0.82962 0)
(0.0376645 -1.13572 0)
(0.0830841 -1.12424 0)
(0.12087 -0.987438 0)
(0.00296989 -0.781734 0)
(-0.226186 -0.479275 0)
(-0.332295 -0.366668 0)
(-0.310552 -0.358765 0)
(-0.255442 -0.352519 0)
(-0.19456 -0.341299 0)
(-0.11642 -0.331723 0)
(-0.0474768 -0.410205 0)
(-0.0501178 -0.741417 0)
(-0.0755694 -1.01808 0)
(-0.0512069 -1.05982 0)
(-0.0370975 -1.02848 0)
(-0.0197955 -1.06274 0)
(-0.00438261 -1.08348 0)
(0.00312486 -1.07339 0)
(-0.0167057 -0.902044 0)
(-0.0152098 -0.559671 0)
(0.0112267 -0.615406 0)
(0.0366562 -0.600451 0)
(0.0702659 -0.580582 0)
(0.111624 -0.571229 0)
(0.148457 -0.533813 0)
(0.176608 -0.50464 0)
(0.20243 -0.49073 0)
(0.230996 -0.495553 0)
(0.24785 -0.551974 0)
(0.223855 -0.824054 0)
(0.193961 -1.12269 0)
(0.196994 -1.09843 0)
(0.167394 -0.898685 0)
(-0.0551079 -0.701209 0)
(-0.248631 -0.54435 0)
(-0.252083 -0.46618 0)
(-0.187288 -0.415475 0)
(-0.132556 -0.369745 0)
(-0.0759709 -0.327665 0)
(0.00218013 -0.307885 0)
(0.0744155 -0.376389 0)
(0.0634649 -0.628735 0)
(-0.000400035 -0.923493 0)
(-0.0118561 -1.00282 0)
(-0.0162402 -0.974569 0)
(-0.0236179 -1.01131 0)
(-0.0335203 -1.02955 0)
(-0.0476288 -1.01007 0)
(-0.0566172 -0.834081 0)
(-0.0261754 -0.563306 0)
(0.0196158 -0.680654 0)
(0.0730366 -0.651232 0)
(0.12638 -0.622009 0)
(0.157958 -0.605441 0)
(0.17691 -0.550972 0)
(0.189815 -0.513207 0)
(0.201893 -0.503666 0)
(0.221407 -0.518946 0)
(0.245695 -0.599796 0)
(0.273464 -0.877927 0)
(0.274943 -1.09574 0)
(0.195727 -1.0077 0)
(0.0199704 -0.823724 0)
(-0.156697 -0.733891 0)
(-0.221053 -0.649505 0)
(-0.178936 -0.57854 0)
(-0.112079 -0.521329 0)
(-0.0505354 -0.46033 0)
(0.0169217 -0.395953 0)
(0.0928002 -0.351703 0)
(0.143345 -0.371345 0)
(0.125471 -0.533836 0)
(0.052318 -0.799607 0)
(0.0193738 -0.912404 0)
(0.00652323 -0.890731 0)
(-0.0151023 -0.918663 0)
(-0.0428323 -0.936359 0)
(-0.0717496 -0.922857 0)
(-0.0733456 -0.79544 0)
(-0.0290995 -0.579573 0)
(0.0506252 -0.742489 0)
(0.154731 -0.707365 0)
(0.21364 -0.65193 0)
(0.213375 -0.611348 0)
(0.202169 -0.546204 0)
(0.192072 -0.502755 0)
(0.186836 -0.505331 0)
(0.195859 -0.53981 0)
(0.22098 -0.656406 0)
(0.264188 -0.91471 0)
(0.23924 -0.99856 0)
(0.0740662 -0.885457 0)
(-0.0886629 -0.794977 0)
(-0.168104 -0.770768 0)
(-0.171493 -0.744542 0)
(-0.117857 -0.703682 0)
(-0.0456721 -0.651251 0)
(0.0249096 -0.586181 0)
(0.0900895 -0.507751 0)
(0.153811 -0.446599 0)
(0.203479 -0.426529 0)
(0.183713 -0.492937 0)
(0.10181 -0.702136 0)
(0.0543606 -0.828145 0)
(0.0305526 -0.813778 0)
(0.00101382 -0.830384 0)
(-0.0349651 -0.848153 0)
(-0.0685763 -0.846049 0)
(-0.0710945 -0.76873 0)
(-0.0283135 -0.598551 0)
(0.0559524 -0.914808 0)
(0.190694 -0.85582 0)
(0.281241 -0.687385 0)
(0.271251 -0.580712 0)
(0.219448 -0.510131 0)
(0.181356 -0.476837 0)
(0.157778 -0.498913 0)
(0.158469 -0.556108 0)
(0.18831 -0.69973 0)
(0.213651 -0.886516 0)
(0.131916 -0.856449 0)
(-0.0179752 -0.786963 0)
(-0.126464 -0.771664 0)
(-0.179908 -0.802132 0)
(-0.157871 -0.844217 0)
(-0.0770447 -0.833062 0)
(0.0137437 -0.806181 0)
(0.101389 -0.740888 0)
(0.168746 -0.645628 0)
(0.214696 -0.562302 0)
(0.250935 -0.508738 0)
(0.24271 -0.519283 0)
(0.171476 -0.641108 0)
(0.0966037 -0.754492 0)
(0.0586366 -0.745098 0)
(0.024216 -0.752464 0)
(-0.0151738 -0.768823 0)
(-0.0502923 -0.777472 0)
(-0.058144 -0.745588 0)
(-0.0246478 -0.61663 0)
(0.0702805 -1.42814 0)
(0.240589 -1.26441 0)
(0.317759 -0.824437 0)
(0.301844 -0.552588 0)
(0.22779 -0.451021 0)
(0.159002 -0.443487 0)
(0.116345 -0.486584 0)
(0.1138 -0.571413 0)
(0.148518 -0.712032 0)
(0.142824 -0.803657 0)
(0.0495079 -0.735054 0)
(-0.0654181 -0.70772 0)
(-0.17149 -0.73243 0)
(-0.249378 -0.799804 0)
(-0.20409 -0.901001 0)
(-0.0779219 -0.897734 0)
(0.0515984 -0.903378 0)
(0.191123 -0.876888 0)
(0.273531 -0.782982 0)
(0.29804 -0.686223 0)
(0.302076 -0.591331 0)
(0.286858 -0.550844 0)
(0.224372 -0.619201 0)
(0.140583 -0.709238 0)
(0.0909319 -0.695677 0)
(0.0527734 -0.693348 0)
(0.0130233 -0.707159 0)
(-0.021512 -0.724339 0)
(-0.0364895 -0.724432 0)
(-0.0177063 -0.63125 0)
(-0.0357134 -1.53904 0)
(0.0536072 -1.61352 0)
(0.362797 -1.37141 0)
(0.337667 -0.656769 0)
(0.221654 -0.350312 0)
(0.117886 -0.396848 0)
(0.058484 -0.468478 0)
(0.0605433 -0.594417 0)
(0.103731 -0.711828 0)
(0.0915419 -0.720747 0)
(0.0150311 -0.641546 0)
(-0.0909478 -0.629115 0)
(-0.229889 -0.655777 0)
(-0.296548 -0.746935 0)
(-0.213474 -0.959829 0)
(-0.0638055 -0.950314 0)
(0.0529429 -1.00649 0)
(0.17372 -0.994036 0)
(0.298572 -0.901938 0)
(0.397863 -0.756495 0)
(0.399187 -0.646951 0)
(0.335399 -0.566587 0)
(0.256137 -0.610322 0)
(0.179592 -0.68236 0)
(0.126504 -0.661856 0)
(0.0841983 -0.656755 0)
(0.0457776 -0.667868 0)
(0.0135515 -0.68743 0)
(-0.00897821 -0.701149 0)
(-0.00837007 -0.638306 0)
(-0.0708972 -1.28497 0)
(-0.112858 -1.50622 0)
(0.0603159 -1.53092 0)
(0.274457 -1.02239 0)
(0.134938 -0.291068 0)
(0.0070857 -0.341993 0)
(-0.0317403 -0.457614 0)
(-0.0180659 -0.632937 0)
(0.063217 -0.760945 0)
(0.0936625 -0.669444 0)
(0.0298534 -0.557235 0)
(-0.0966084 -0.521359 0)
(-0.23091 -0.513172 0)
(-0.252708 -0.776171 0)
(-0.152731 -1.25831 0)
(-0.0102801 -1.31435 0)
(0.088599 -1.46899 0)
(0.209995 -1.43826 0)
(0.359106 -1.17423 0)
(0.445865 -0.79884 0)
(0.474887 -0.63243 0)
(0.406168 -0.554771 0)
(0.292364 -0.597236 0)
(0.213791 -0.645226 0)
(0.158423 -0.628064 0)
(0.111896 -0.630376 0)
(0.0748123 -0.643036 0)
(0.0437964 -0.660027 0)
(0.0163044 -0.674304 0)
(0.00179973 -0.633135 0)
(-0.0700593 -1.11691 0)
(-0.156183 -1.41022 0)
(-0.147056 -1.48281 0)
(-0.0199135 -1.2957 0)
(-0.0973572 -0.490895 0)
(-0.176331 -0.335678 0)
(-0.126613 -0.484047 0)
(-0.0723022 -0.729961 0)
(0.0567895 -0.964014 0)
(0.122047 -0.73031 0)
(0.0786394 -0.456914 0)
(-0.0328201 -0.387772 0)
(-0.167549 -0.412147 0)
(-0.18375 -1.06271 0)
(0.0458379 -1.44027 0)
(0.104032 -1.41692 0)
(0.121984 -1.45537 0)
(0.160608 -1.43592 0)
(0.328053 -1.38425 0)
(0.594911 -1.07525 0)
(0.601974 -0.621549 0)
(0.473909 -0.506771 0)
(0.338339 -0.561716 0)
(0.244282 -0.585299 0)
(0.17821 -0.585028 0)
(0.128392 -0.599678 0)
(0.0909558 -0.619135 0)
(0.0594628 -0.634504 0)
(0.0309608 -0.646188 0)
(0.0088411 -0.616046 0)
(-0.0619476 -0.935877 0)
(-0.184437 -1.28794 0)
(-0.307192 -1.35087 0)
(-0.438468 -1.29367 0)
(-0.476923 -0.937391 0)
(-0.50762 -0.570079 0)
(-0.391407 -0.684865 0)
(-0.16712 -1.15972 0)
(0.0158937 -1.51895 0)
(0.142854 -1.15954 0)
(0.11071 -0.454614 0)
(0.0499142 -0.269363 0)
(-0.0376134 -0.488887 0)
(-0.0770191 -1.23479 0)
(0.105807 -1.39937 0)
(0.139925 -1.41141 0)
(0.149583 -1.39093 0)
(0.187121 -1.38894 0)
(0.296639 -1.31827 0)
(0.560439 -1.19609 0)
(0.592855 -0.658374 0)
(0.477455 -0.435377 0)
(0.344442 -0.482209 0)
(0.249059 -0.514959 0)
(0.180672 -0.536419 0)
(0.131439 -0.564316 0)
(0.0940775 -0.590619 0)
(0.0621125 -0.606914 0)
(0.0355194 -0.62023 0)
(0.012101 -0.591844 0)
(-0.0555699 -0.772347 0)
(-0.193063 -1.09463 0)
(-0.373985 -1.11528 0)
(-0.6109 -1.09079 0)
(-0.791843 -1.05482 0)
(-0.816249 -1.04328 0)
(-0.684909 -1.19139 0)
(-0.35445 -1.35828 0)
(-0.15422 -1.51369 0)
(-0.00320639 -1.47582 0)
(0.164528 -0.857152 0)
(0.145149 -0.31353 0)
(0.0359287 -0.656541 0)
(0.00834381 -1.25234 0)
(0.091175 -1.39353 0)
(0.162227 -1.3923 0)
(0.188347 -1.37251 0)
(0.223583 -1.32928 0)
(0.306684 -1.27903 0)
(0.415079 -1.18277 0)
(0.39517 -0.619216 0)
(0.350119 -0.360834 0)
(0.287804 -0.407769 0)
(0.219234 -0.456114 0)
(0.165726 -0.49348 0)
(0.124856 -0.53222 0)
(0.0911179 -0.561635 0)
(0.0592898 -0.57786 0)
(0.0353977 -0.597939 0)
(0.0135996 -0.563915 0)
(-0.05012 -0.624971 0)
(-0.182871 -0.910164 0)
(-0.35218 -0.901451 0)
(-0.53782 -0.880348 0)
(-0.685541 -0.917532 0)
(-0.741006 -1.08937 0)
(-0.635608 -1.30469 0)
(-0.418853 -1.40388 0)
(-0.252298 -1.48087 0)
(-0.128021 -1.50813 0)
(0.123317 -1.35902 0)
(0.223559 -0.655985 0)
(0.176567 -0.707771 0)
(0.0782235 -1.18364 0)
(0.0765412 -1.36341 0)
(0.188447 -1.39035 0)
(0.231129 -1.34467 0)
(0.2574 -1.30946 0)
(0.300728 -1.2709 0)
(0.294638 -1.14843 0)
(0.236191 -0.589924 0)
(0.228116 -0.338064 0)
(0.216854 -0.37486 0)
(0.181335 -0.423112 0)
(0.14698 -0.465309 0)
(0.116831 -0.507885 0)
(0.0876582 -0.53442 0)
(0.0563381 -0.548346 0)
(0.0350479 -0.580067 0)
(0.0148345 -0.532943 0)
(-0.036901 -0.498459 0)
(-0.144362 -0.731425 0)
(-0.285353 -0.714321 0)
(-0.417453 -0.728271 0)
(-0.499693 -0.800387 0)
(-0.559445 -1.02494 0)
(-0.573898 -1.33782 0)
(-0.46512 -1.4507 0)
(-0.299459 -1.54457 0)
(-0.146745 -1.54165 0)
(0.0283501 -1.51779 0)
(0.262454 -1.08392 0)
(0.254532 -0.748854 0)
(0.125557 -1.07895 0)
(0.0861844 -1.3376 0)
(0.195126 -1.36351 0)
(0.258917 -1.35028 0)
(0.283438 -1.3099 0)
(0.29459 -1.25897 0)
(0.221253 -1.00779 0)
(0.123099 -0.534911 0)
(0.139193 -0.36392 0)
(0.164357 -0.380223 0)
(0.157509 -0.416766 0)
(0.136975 -0.450975 0)
(0.112352 -0.487602 0)
(0.0852916 -0.508388 0)
(0.0574142 -0.520161 0)
(0.0354358 -0.560348 0)
(0.0132277 -0.500003 0)
(-0.0215472 -0.40004 0)
(-0.0928396 -0.575497 0)
(-0.18921 -0.563496 0)
(-0.274737 -0.601104 0)
(-0.330258 -0.699803 0)
(-0.394001 -0.90261 0)
(-0.50593 -1.2555 0)
(-0.507345 -1.4903 0)
(-0.335688 -1.60427 0)
(-0.165951 -1.64067 0)
(0.0227079 -1.62865 0)
(0.268912 -1.37567 0)
(0.248209 -0.797581 0)
(0.141521 -0.991256 0)
(0.103947 -1.30204 0)
(0.195282 -1.35132 0)
(0.276953 -1.33512 0)
(0.31169 -1.30625 0)
(0.298813 -1.17796 0)
(0.152824 -0.792545 0)
(0.0495291 -0.464252 0)
(0.0686466 -0.393519 0)
(0.117412 -0.412451 0)
(0.137 -0.423401 0)
(0.125118 -0.435844 0)
(0.100819 -0.46196 0)
(0.0757364 -0.481136 0)
(0.0538145 -0.494278 0)
(0.0329878 -0.526364 0)
(0.010891 -0.46607 0)
(-0.00815719 -0.336594 0)
(-0.0438207 -0.450169 0)
(-0.0939832 -0.455277 0)
(-0.13584 -0.49736 0)
(-0.181027 -0.588292 0)
(-0.250461 -0.739259 0)
(-0.39514 -1.07776 0)
(-0.50417 -1.47117 0)
(-0.39949 -1.67046 0)
(-0.193868 -1.76538 0)
(0.0283534 -1.81207 0)
(0.285694 -1.64146 0)
(0.248502 -0.866294 0)
(0.161857 -0.919858 0)
(0.121955 -1.26065 0)
(0.190276 -1.31171 0)
(0.289886 -1.31783 0)
(0.321781 -1.2596 0)
(0.237385 -0.991883 0)
(0.0718872 -0.589142 0)
(0.00803699 -0.418137 0)
(0.0282142 -0.408648 0)
(0.0637523 -0.42271 0)
(0.0825467 -0.412146 0)
(0.081715 -0.411108 0)
(0.0696074 -0.431888 0)
(0.0541758 -0.452551 0)
(0.0397473 -0.468685 0)
(0.0277289 -0.488408 0)
(0.0112296 -0.42817 0)
(0.0016599 -0.307417 0)
(-0.00876327 -0.367753 0)
(-0.0275165 -0.385373 0)
(-0.0428814 -0.419684 0)
(-0.0761144 -0.482143 0)
(-0.138961 -0.597101 0)
(-0.257866 -0.870568 0)
(-0.429621 -1.32956 0)
(-0.476095 -1.73406 0)
(-0.270824 -1.9358 0)
(0.0105046 -1.98553 0)
(0.284156 -1.91001 0)
(0.282603 -0.997374 0)
(0.218481 -0.860393 0)
(0.159841 -1.18588 0)
(0.195404 -1.27334 0)
(0.278809 -1.27228 0)
(0.263157 -1.1441 0)
(0.120312 -0.76763 0)
(0.0103165 -0.464128 0)
(-0.00893059 -0.398083 0)
(0.00893378 -0.411509 0)
(0.0245032 -0.412228 0)
(0.0303972 -0.391851 0)
(0.0336767 -0.388989 0)
(0.0338646 -0.406718 0)
(0.0297745 -0.42626 0)
(0.0234431 -0.441738 0)
(0.0207111 -0.450093 0)
(0.0107629 -0.385016 0)
(0.006008 -0.303077 0)
(0.0108796 -0.333231 0)
(0.00917763 -0.349785 0)
(0.00485842 -0.370991 0)
(-0.0132408 -0.405586 0)
(-0.0521358 -0.486111 0)
(-0.136301 -0.676157 0)
(-0.320924 -1.08819 0)
(-0.502295 -1.71647 0)
(-0.375749 -2.08484 0)
(-0.0713439 -2.2141 0)
(0.209245 -2.16157 0)
(0.32319 -1.23956 0)
(0.322121 -0.831208 0)
(0.242559 -1.05828 0)
(0.20447 -1.22339 0)
(0.219663 -1.20843 0)
(0.12872 -0.954562 0)
(0.0123175 -0.608192 0)
(-0.0236466 -0.416552 0)
(-0.0145185 -0.389154 0)
(-0.00418236 -0.397641 0)
(-0.00343577 -0.388884 0)
(-0.00320888 -0.373293 0)
(0.00284721 -0.374849 0)
(0.00953029 -0.388673 0)
(0.0129326 -0.404122 0)
(0.0136706 -0.414931 0)
(0.0131442 -0.409304 0)
(0.00643114 -0.344359 0)
(0.00749122 -0.310603 0)
(0.0188785 -0.325903 0)
(0.0250368 -0.338282 0)
(0.028052 -0.351141 0)
(0.0251915 -0.367792 0)
(0.00584296 -0.410455 0)
(-0.0539512 -0.527654 0)
(-0.198756 -0.831278 0)
(-0.450797 -1.5295 0)
(-0.485481 -2.20423 0)
(-0.181602 -2.35463 0)
(0.055044 -2.39229 0)
(0.342874 -1.66396 0)
(0.435973 -0.88747 0)
(0.334859 -0.880724 0)
(0.201788 -1.06743 0)
(0.109566 -1.08082 0)
(-0.00408441 -0.788504 0)
(-0.051537 -0.541423 0)
(-0.0403486 -0.410281 0)
(-0.0226364 -0.382872 0)
(-0.0181168 -0.379467 0)
(-0.0205723 -0.369806 0)
(-0.0183645 -0.362703 0)
(-0.0101701 -0.36622 0)
(-0.00153019 -0.374953 0)
(0.00495128 -0.384724 0)
(0.00852112 -0.387453 0)
(0.00559848 -0.36783 0)
(0.000983666 -0.317287 0)
(0.00839054 -0.322921 0)
(0.022802 -0.32959 0)
(0.0324519 -0.336487 0)
(0.0382112 -0.344383 0)
(0.0409743 -0.354727 0)
(0.035555 -0.376769 0)
(0.00326648 -0.435155 0)
(-0.0933632 -0.612417 0)
(-0.340282 -1.23024 0)
(-0.533185 -2.2607 0)
(-0.301693 -2.47485 0)
(-0.0802383 -2.51823 0)
(0.262017 -2.23222 0)
(0.430105 -1.0713 0)
(0.368201 -0.729701 0)
(0.193744 -0.825081 0)
(0.024531 -0.890357 0)
(-0.0713827 -0.695475 0)
(-0.0722132 -0.524339 0)
(-0.0496653 -0.415022 0)
(-0.0355804 -0.379225 0)
(-0.0317978 -0.369558 0)
(-0.0293437 -0.3623 0)
(-0.0228732 -0.358471 0)
(-0.0139479 -0.359857 0)
(-0.00551619 -0.363252 0)
(0.000819007 -0.366761 0)
(0.00281143 -0.361171 0)
(-0.000414507 -0.337995 0)
(-0.00152121 -0.304895 0)
(0.00953802 -0.338387 0)
(0.0266194 -0.33879 0)
(0.0387871 -0.339135 0)
(0.045616 -0.341704 0)
(0.048098 -0.347258 0)
(0.0456331 -0.359593 0)
(0.031039 -0.388415 0)
(-0.0211913 -0.473859 0)
(-0.205295 -0.917321 0)
(-0.485923 -2.18927 0)
(-0.379759 -2.49747 0)
(-0.210377 -2.60909 0)
(-0.0176838 -2.46851 0)
(0.294925 -1.42707 0)
(0.37642 -0.703382 0)
(0.203084 -0.629556 0)
(0.0264259 -0.700106 0)
(-0.0614639 -0.630874 0)
(-0.0628652 -0.514573 0)
(-0.0527909 -0.417809 0)
(-0.0462874 -0.38032 0)
(-0.0399514 -0.368998 0)
(-0.0322831 -0.361451 0)
(-0.0236076 -0.356352 0)
(-0.0150216 -0.354002 0)
(-0.00766637 -0.352527 0)
(-0.00295597 -0.350278 0)
(-0.00243829 -0.339937 0)
(-0.00402526 -0.320615 0)
(-0.00230554 -0.300681 0)
(0.0116149 -0.35838 0)
(0.0324764 -0.354852 0)
(0.0472441 -0.344837 0)
(0.0546699 -0.340717 0)
(0.0562177 -0.3407 0)
(0.0527632 -0.345676 0)
(0.0426582 -0.359733 0)
(0.0189753 -0.400011 0)
(-0.0937741 -0.650484 0)
(-0.386675 -1.96359 0)
(-0.419884 -2.49117 0)
(-0.314083 -2.54581 0)
(-0.244723 -2.55163 0)