/*--------------------------------*- C++ -*----------------------------------*\
| =========                 |                                                 |
| \\      /  F ield         | OpenFOAM: The Open Source CFD Toolbox           |
|  \\    /   O peration     | Version:  2.3.0                                 |
|   \\  /    A nd           | Web:      www.OpenFOAM.org                      |
|    \\/     M anipulation  |                                                 |
\*---------------------------------------------------------------------------*/
FoamFile
{
    version     2.0;
    format      ascii;
    class       volScalarField;
    location    "1.39797";
    object      rho;
}
// * * * * * * * * * * * * * * * * * * * * * * * * * * * * * * * * * * * * * //

dimensions      [1 -3 0 0 0 0 0];

internalField   nonuniform List<scalar> 
1000
(
931.412
895.759
801.729
800.148
869.064
883.185
845.78
796.163
834.897
914.953
903.321
811.175
832.578
900.398
904.594
858.406
798.325
814.091
914.972
951.877
969.655
953.399
928.708
942.877
962.396
953.056
909.99
857.698
877.432
949.003
944.629
887.425
914.885
967.301
974.598
963.449
935.733
931.579
972.729
1002.76
976.386
907.394
930.295
975.995
974.41
953.277
894.94
853.134
886.582
951.184
946.239
904.494
895.304
970.283
985.258
991.314
965.438
928.953
921.556
1011.14
997.595
907.732
976.691
991.086
973.392
936.88
881.282
877.057
911.492
959.911
957.236
916.455
875.209
963.321
996.146
1000.66
1003.01
983.605
965.103
1018.28
1014.22
955.64
1005.48
989.302
926.323
865.618
885.527
904.884
935.498
969.894
955.873
893.999
872.074
898.834
933.774
976.692
1011.6
1017.83
1002.81
1025.14
1026.74
1023.23
1024.23
971.749
881.334
845.238
903.043
930.38
962.938
986.093
944.415
862.695
887.428
876.019
862.084
900.456
985.298
1025.96
1026.81
1027.1
1027.11
1027.09
1022.34
967.045
903.912
866.944
921.907
954.797
1009.27
993.715
896.139
847.608
930.982
879.913
843.51
860.023
958.125
1024.86
1027.11
1027.11
1027.11
1027.11
1026.54
1010.68
963.076
926.965
990.509
1011.78
1024.93
971.842
867.894
844.363
951.501
875.045
842.994
868.031
966.503
1024
1027.11
1027.11
1027.11
1027.11
1027.11
1026.96
1023.31
1012.73
1026.26
1027.07
1023.72
953.299
871.92
849.631
963.052
860.489
850.663
896.269
993.56
1026.23
1027.11
1027.11
1027.11
1027.11
1027.11
1027.11
1027.11
1027.01
1027.11
1027.11
1026.8
1006.41
940.473
904.621
1018.1
881.9
922.746
1003.41
1026.6
1027.11
1027.11
1027.11
899.153
866.998
745.908
746.24
790.632
812.393
748.582
701.198
760.818
886.324
849.315
738.136
738.693
851.308
850.21
799.306
742.068
758.685
881.759
911.918
903.586
878.864
869.874
888.31
903.951
897.075
839.656
757.104
835.244
904.964
873.701
799.818
825.628
920.644
897.351
893.581
882.366
871.025
905.043
943.77
904.251
880.951
870.36
896.834
882.541
863.778
834.504
774.194
818.523
851.334
850.963
816.677
838.543
887.343
869.822
879.321
880.166
856.037
922.237
977.19
952.396
875.56
906.016
910.881
895.931
869.823
847.545
814.616
831.118
856.15
854.369
840.01
829.16
906.107
917.018
939.411
942.517
910.849
866.073
999.206
992.151
856.762
981.417
946.72
881.264
859.021
847.32
832.404
813.051
860.799
862.668
837.907
813.945
903.372
929.282
968.393
984.98
999.381
962.113
1019.44
1025.81
1014.44
1013.17
880.856
835.696
838.39
825.39
815.033
830.106
903.411
877.259
830.409
807.867
890.719
909.277
905.969
933.605
1016.16
1026.14
1027.06
1027.11
1026.94
1002.15
853.869
799.093
805.413
802.553
805.758
941.391
944.202
868.599
812.288
806.075
867.425
879.865
847.483
868.367
1007.32
1027.05
1027.11
1027.11
1027.09
1021.27
936.176
815.661
804.362
851.524
912.693
1009
910.561
842.453
789.523
799.823
841.957
844.036
809.598
867.302
1007.97
1027.01
1027.11
1027.11
1027.11
1027.08
1022.45
965.887
914.617
1002.68
1024.71
1009.54
879.457
817.251
788.994
813.297
816.111
805.736
803.895
923.245
1022.12
1027.1
1027.11
1027.11
1027.11
1027.11
1027.11
1026.25
1021.39
1027
1027.11
1023.34
928.895
838.434
812.012
927.713
816.817
820.608
891.8
1020.98
1027.09
1027.11
1027.11
851.837
822.124
659.963
613.556
640.642
640.315
594.74
554.724
584.621
787.688
723.546
599.038
621.851
723.429
710.638
677.35
618.945
652.406
819.123
856.241
831.414
817.082
739.401
738.107
788.683
746.392
695.602
611.655
677.079
847.159
734.336
650.403
700.64
780.995
775.137
774.885
737.605
740.506
842.327
868.69
875.651
800.505
745.413
758.938
787.69
784.281
736.426
649.592
708.012
844.052
745.166
647.234
702.377
780.654
782.702
766.066
747.91
743.266
841.657
949.434
918.108
781.287
847.305
782.003
781.23
786.175
758.996
689.083
737.59
836.233
775.966
651.731
710.802
784.417
795.974
812.82
868.887
857.717
805.135
986.385
983.313
790.854
968.66
911.57
797.263
786.095
771.717
726.317
758.646
831.768
801.929
667.671
720.001
792.339
832.913
910.929
976.535
986.158
927.153
1014.91
1025.25
1008.97
1007.49
885.065
785.973
783.539
778.382
756.709
780.506
862.495
830.953
680.554
728.592
795.359
828.505
896.009
937.437
1011.59
1025.32
1027.02
1027.11
1026.83
994.041
834.932
780.651
780.74
783.504
779.141
910.54
926.792
828.23
688.063
737.662
794.163
818.56
853.911
865.365
1000.98
1027.01
1027.11
1027.11
1027.08
1018.2
911.761
792.94
785.318
816.518
850.736
995.434
907.522
808.007
698.524
749.856
792.096
809.222
810.927
854.606
1003.76
1026.97
1027.11
1027.11
1027.11
1027.02
1016.91
928.464
875.126
968.316
1007.22
1006.56
872.492
785.54
713.691
775.738
790.291
794.523
796.271
911.867
1020.87
1027.1
1027.11
1027.11
1027.11
1027.11
1027.09
1024.22
1012.94
1026.2
1027.04
1021.9
910.216
804.904
763.404
881.202
794.553
799.706
862.888
1018.13
1027.08
1027.11
1027.11
899.184
867.267
747.453
732.639
787.142
805.432
749.001
701.926
772.342
885.22
850.338
730.674
743.431
858.449
859.442
804.362
735.163
759.054
881.653
912.006
903.669
878.84
870.445
889.447
904.739
896.707
837.679
747.08
841.364
908.138
875.824
795.487
830.722
922.354
893.838
890.757
883.209
871.352
905.463
943.869
904.286
880.965
868.786
898.031
887.944
873.168
839.237
768.778
816.936
853.849
851.567
812.991
841.197
880.928
866.16
880.147
881.685
856.044
922.571
977.068
952.375
875.766
907.296
907.914
893.728
874.521
851.678
811.594
830.094
855.945
854.864
840.159
830.785
902.814
915.886
939.518
942.539
910.983
865.898
999.131
992.15
856.675
981.392
946.764
879.28
861.371
849.624
829.451
811.805
860.465
862.704
838.274
815.309
900.999
928.733
968.869
984.936
999.356
962.035
1019.43
1025.81
1014.44
1013.15
880.437
833.86
838.845
825.673
812.749
829.329
903.443
877.233
830.687
808.642
889.278
908.409
906.045
933.582
1016.16
1026.14
1027.06
1027.11
1026.94
1002.11
853.533
798.416
805.216
802.49
805.125
941.136
944.111
868.675
812.617
806.245
866.769
878.874
847.225
868.281
1007.32
1027.05
1027.11
1027.11
1027.09
1021.27
936.137
815.43
804.253
851.488
912.754
1009.02
910.498
842.604
789.828
799.974
841.67
843.33
809.343
867.26
1007.98
1027.01
1027.11
1027.11
1027.11
1027.08
1022.46
965.935
914.597
1002.67
1024.72
1009.52
879.35
817.282
789.235
813.445
815.981
805.487
803.782
923.231
1022.12
1027.1
1027.11
1027.11
1027.11
1027.11
1027.11
1026.25
1021.39
1027
1027.11
1023.34
928.793
838.33
812.006
927.666
816.738
820.514
891.762
1020.98
1027.09
1027.11
1027.11
931.463
895.839
801.9
798.105
867.344
883.417
847.034
796.238
834.75
914.742
903.494
808.939
833.04
900.882
904.849
857.984
797.369
813.89
914.945
951.886
969.702
953.406
928.587
942.295
961.672
952.457
910.383
856.445
876.85
948.635
944.647
886.589
914.964
967.21
974.184
963.324
935.706
931.612
972.813
1002.75
976.404
907.24
930.854
975.99
974.027
953.523
895.326
851.112
885.661
950.837
946.234
904.13
895.807
969.887
984.658
991.318
965.538
929.165
921.737
1011.11
997.559
907.836
977.242
990.917
973.433
936.212
881.024
876.193
910.795
959.639
957.039
916.106
875.68
963.469
996.171
1000.66
1003.03
983.733
965.234
1018.27
1014.22
955.558
1005.41
989.423
926.363
864.722
885.656
904.472
935.001
969.735
955.677
893.867
872.495
899.136
934.095
976.658
1011.59
1017.82
1002.77
1025.15
1026.74
1023.22
1024.22
971.639
880.981
845.02
903.026
930.139
962.725
986.014
944.166
862.302
887.744
876.023
862.164
900.354
985.25
1025.96
1026.81
1027.1
1027.11
1027.09
1022.31
966.835
903.789
866.828
921.866
954.673
1009.23
993.654
895.779
846.994
931.136
879.868
843.487
859.991
958.066
1024.86
1027.11
1027.11
1027.11
1027.11
1026.54
1010.69
963.06
926.925
990.494
1011.82
1024.93
971.716
867.349
843.711
951.415
874.941
842.978
868.033
966.532
1024.01
1027.11
1027.11
1027.11
1027.11
1027.11
1026.96
1023.31
1012.73
1026.26
1027.07
1023.72
953.148
871.404
849.005
963.05
860.424
850.663
896.262
993.55
1026.23
1027.11
1027.11
1027.11
1027.11
1027.11
1027.11
1027.11
1027.01
1027.11
1027.11
1026.8
1006.36
940.223
904.237
1018.09
881.899
922.78
1003.41
1026.6
1027.11
1027.11
1027.11
)
;

boundaryField
{
    aeration
    {
        type            calculated;
        value           nonuniform List<scalar> 
100
(
514.136
514.136
514.136
514.136
514.136
514.136
514.136
514.136
514.136
514.136
514.136
514.136
514.136
514.136
514.136
514.136
514.136
514.136
514.136
514.136
514.136
514.136
514.136
514.136
514.136
514.136
514.136
514.136
514.136
514.136
514.136
514.136
514.136
514.136
514.136
514.136
514.136
514.136
514.136
514.136
514.136
514.136
514.136
514.136
514.136
514.136
514.136
514.136
514.136
514.136
514.136
514.136
514.136
514.136
514.136
514.136
514.136
514.136
514.136
514.136
514.136
514.136
514.136
514.136
514.136
514.136
514.136
514.136
514.136
514.136
514.136
514.136
514.136
514.136
514.136
514.136
514.136
514.136
514.136
514.136
514.136
514.136
514.136
514.136
514.136
514.136
514.136
514.136
514.136
514.136
514.136
514.136
514.136
514.136
514.136
514.137
514.137
514.137
514.137
514.137
)
;
    }
    xsides
    {
        type            calculated;
        value           nonuniform List<scalar> 
100
(
931.412
969.655
976.386
997.595
1014.22
1026.74
1027.11
1027.11
1027.11
1027.11
899.153
903.586
904.251
952.396
992.151
1025.81
1027.11
1027.11
1027.11
1027.11
851.837
831.414
875.651
918.108
983.313
1025.25
1027.11
1027.11
1027.11
1027.11
899.184
903.669
904.286
952.375
992.15
1025.81
1027.11
1027.11
1027.11
1027.11
931.463
969.702
976.404
997.559
1014.22
1026.74
1027.11
1027.11
1027.11
1027.11
951.877
1002.76
1011.14
1018.28
1025.14
1027.1
1027.11
1027.11
1027.11
1027.11
911.918
943.77
977.19
999.206
1019.44
1027.06
1027.11
1027.11
1027.11
1027.11
856.241
868.69
949.434
986.385
1014.91
1027.02
1027.11
1027.11
1027.11
1027.11
912.006
943.869
977.068
999.131
1019.43
1027.06
1027.11
1027.11
1027.11
1027.11
951.886
1002.75
1011.11
1018.27
1025.15
1027.1
1027.11
1027.11
1027.11
1027.11
)
;
    }
    zsides
    {
        type            calculated;
        value           nonuniform List<scalar> 
400
(
931.412
969.655
976.386
997.595
1014.22
1026.74
1027.11
1027.11
1027.11
1027.11
895.759
953.399
907.394
907.732
955.64
1023.23
1027.09
1027.11
1027.11
1027.11
801.729
928.708
930.295
976.691
1005.48
1024.23
1022.34
1026.54
1027.11
1027.11
800.148
942.877
975.995
991.086
989.302
971.749
967.045
1010.68
1026.96
1027.11
869.064
962.396
974.41
973.392
926.323
881.334
903.912
963.076
1023.31
1027.11
883.185
953.056
953.277
936.88
865.618
845.238
866.944
926.965
1012.73
1027.01
845.78
909.99
894.94
881.282
885.527
903.043
921.907
990.509
1026.26
1027.11
796.163
857.698
853.134
877.057
904.884
930.38
954.797
1011.78
1027.07
1027.11
834.897
877.432
886.582
911.492
935.498
962.938
1009.27
1024.93
1023.72
1026.8
914.953
949.003
951.184
959.911
969.894
986.093
993.715
971.842
953.299
1006.41
903.321
944.629
946.239
957.236
955.873
944.415
896.139
867.894
871.92
940.473
811.175
887.425
904.494
916.455
893.999
862.695
847.608
844.363
849.631
904.621
832.578
914.885
895.304
875.209
872.074
887.428
930.982
951.501
963.052
1018.1
900.398
967.301
970.283
963.321
898.834
876.019
879.913
875.045
860.489
881.9
904.594
974.598
985.258
996.146
933.774
862.084
843.51
842.994
850.663
922.746
858.406
963.449
991.314
1000.66
976.692
900.456
860.023
868.031
896.269
1003.41
798.325
935.733
965.438
1003.01
1011.6
985.298
958.125
966.503
993.56
1026.6
814.091
931.579
928.953
983.605
1017.83
1025.96
1024.86
1024
1026.23
1027.11
914.972
972.729
921.556
965.103
1002.81
1026.81
1027.11
1027.11
1027.11
1027.11
951.877
1002.76
1011.14
1018.28
1025.14
1027.1
1027.11
1027.11
1027.11
1027.11
931.463
969.702
976.404
997.559
1014.22
1026.74
1027.11
1027.11
1027.11
1027.11
895.839
953.406
907.24
907.836
955.558
1023.22
1027.09
1027.11
1027.11
1027.11
801.9
928.587
930.854
977.242
1005.41
1024.22
1022.31
1026.54
1027.11
1027.11
798.105
942.295
975.99
990.917
989.423
971.639
966.835
1010.69
1026.96
1027.11
867.344
961.672
974.027
973.433
926.363
880.981
903.789
963.06
1023.31
1027.11
883.417
952.457
953.523
936.212
864.722
845.02
866.828
926.925
1012.73
1027.01
847.034
910.383
895.326
881.024
885.656
903.026
921.866
990.494
1026.26
1027.11
796.238
856.445
851.112
876.193
904.472
930.139
954.673
1011.82
1027.07
1027.11
834.75
876.85
885.661
910.795
935.001
962.725
1009.23
1024.93
1023.72
1026.8
914.742
948.635
950.837
959.639
969.735
986.014
993.654
971.716
953.148
1006.36
903.494
944.647
946.234
957.039
955.677
944.166
895.779
867.349
871.404
940.223
808.939
886.589
904.13
916.106
893.867
862.302
846.994
843.711
849.005
904.237
833.04
914.964
895.807
875.68
872.495
887.744
931.136
951.415
963.05
1018.09
900.882
967.21
969.887
963.469
899.136
876.023
879.868
874.941
860.424
881.899
904.849
974.184
984.658
996.171
934.095
862.164
843.487
842.978
850.663
922.78
857.984
963.324
991.318
1000.66
976.658
900.354
859.991
868.033
896.262
1003.41
797.369
935.706
965.538
1003.03
1011.59
985.25
958.066
966.532
993.55
1026.6
813.89
931.612
929.165
983.733
1017.82
1025.96
1024.86
1024.01
1026.23
1027.11
914.945
972.813
921.737
965.234
1002.77
1026.81
1027.11
1027.11
1027.11
1027.11
951.886
1002.75
1011.11
1018.27
1025.15
1027.1
1027.11
1027.11
1027.11
1027.11
)
;
    }
    outlet
    {
        type            calculated;
        value           nonuniform List<scalar> 
100
(
1027.11
1027.11
1027.11
1027.11
1027.11
1027.11
1027.11
1027.11
1027.11
1027.11
1027.11
1027.11
1027.11
1027.11
1027.11
1027.11
1027.11
1027.11
1027.11
1027.11
1027.11
1026.25
1024.22
1026.25
1027.11
1027.01
1021.39
1012.94
1021.39
1027.01
1027.11
1027
1026.2
1027
1027.11
1027.11
1027.11
1027.04
1027.11
1027.11
1027.11
1027.11
1027.11
1027.11
1027.11
1006.41
928.895
910.216
928.793
1006.36
940.473
838.434
804.904
838.33
940.223
904.621
812.012
763.404
812.006
904.237
1018.1
927.713
881.202
927.666
1018.09
881.9
816.817
794.553
816.738
881.899
922.746
820.608
799.706
820.514
922.78
1003.41
891.8
862.888
891.762
1003.41
1027.11
1027.11
1027.11
1027.11
1027.11
1027.11
1027.11
1027.11
1027.11
1027.11
1027.11
1027.11
1027.11
1027.11
1027.11
1027.11
1027.11
1027.11
1027.11
1027.11
)
;
    }
}


// ************************************************************************* //
