/*--------------------------------*- C++ -*----------------------------------*\
| =========                 |                                                 |
| \\      /  F ield         | OpenFOAM: The Open Source CFD Toolbox           |
|  \\    /   O peration     | Version:  2.3.0                                 |
|   \\  /    A nd           | Web:      www.OpenFOAM.org                      |
|    \\/     M anipulation  |                                                 |
\*---------------------------------------------------------------------------*/
FoamFile
{
    version     2.0;
    format      ascii;
    class       volScalarField;
    location    "3.79972";
    object      Ct2;
}
// * * * * * * * * * * * * * * * * * * * * * * * * * * * * * * * * * * * * * //

dimensions      [0 0 0 0 0 0 0];

internalField   nonuniform List<scalar> 
18816
(
1
1
1
1
1
1
1
1
1
1
1
1
1
1
1
1
1
1
1
1
1
1
1
1
1
1
1
1
1
1
1
1
1
1
1
1
1
1
1
1
1
1
1
1
1
1
1
1
1
1
1
1
1
1
1
1
1
1
1
1
1
1
1
1
1
1
1
1
1
1
1
1
1
1
1
1
1
1
1
1
1
1
1
1
1
1
1
1
1
1
1
1
1
1
1
1
1
1
1
1
1
1
1
1
1
1
1
1
1
1
1
1
1
1
1
1
1
1
1
1
1
1
1
1
1
1
1
1
1
1.00049
1.28982
1.369
1.31446
1.01151
1
1
1
1
1
1
1
1
1
1
1
1
1
1
1
1
1
1
1
1
1
1.02148
1.41015
2.10744
4.00066
5.44542
5.30665
1.74874
1.20541
1
1
1
1
1
1
1
1
1
1
1
1
1
1
1
1
1
1
1
1
1.03604
1.07365
1.1167
1.44677
4.90707
8.57181
5.78174
1.52731
1
1
1
1
1
1
1
1
1
1
1
1
1
1
1
1
1
1
1
1
1.00005
1
1
1.04436
1.81579
8.6731
8.73256
3.93738
1.31941
1
1
1
1
1
1
1
1
1
1
1
1
1
1
1
1
1
1
1
1
1
1
1
1.38475
8.29302
8.94914
7.72279
1.60969
1
1
1
1
1
1
1
1
1
1
1
1
1
1
1
1
1
1
1
1
1
1
1
1.27836
7.53239
8.95869
8.85333
3.92888
1.02038
1
1
1
1
1
1
1
1
1
1
1
1
1
1
1
1
1
1
1
1
1
1
1.0501
6.69126
8.95904
8.9544
7.77883
1.44467
1
1
1
1
1
1
1
1
1
1
1
1
1
1
1
1
1
1
1
1
1
1
1.01239
6.14767
8.95906
8.95907
8.74727
2.58383
1
1
1
1
1
1
1
1
1
1
1
1
1
1
1
1
1
1
1
1
1
1
1.30634
7.30398
8.9591
8.95933
8.90711
3.96701
1.00087
1
1
1
1
1
1
1
1
1
1
1
1
1
1
1
1
1
1
1
1
1.00013
1.68063
8.5854
8.95909
8.95937
8.94607
5.23895
1.00618
1
1
1
1
1
1
1
1
1
1
1
1
1
1
1
1
1
1
1
1.01902
1.42069
5.68337
8.935
8.9591
8.95939
8.95528
6.11975
1.01535
1
1
1
1
1
1
1
1
1
1
1
1
1
1
1
1
1
1
1.29318
2.03615
5.92121
8.82199
8.95827
8.9591
8.9594
8.95796
6.73391
1.03188
1
1
1
1
1
1
1
1
1
1
1
1
1
1
1
1
1
1.40942
3.9175
8.04921
8.88898
8.95706
8.95857
8.95916
8.95942
8.95874
7.37686
1.08082
1
1
1
1
1
1
1
1
1
1
1
1
1
1
1
1
1.36139
5.05308
8.71137
8.95068
8.95775
8.95816
8.95881
8.95922
8.95943
8.95934
8.24654
1.28807
1
1
1
1
1
1
1
1
1
1
1
1
1
1
1
1.35412
6.75121
8.8794
8.95611
8.95743
8.95804
8.95843
8.95894
8.95928
8.95945
8.95947
8.80144
1.40023
1
1
1
1
1
1
1
1
1
1
1
1
1
1
1
4.16177
8.91729
8.94895
8.95701
8.9577
8.95845
8.95867
8.95906
8.95934
8.95947
8.95949
8.94829
2.05259
1
1
1
1
1
1
1
1
1
1
1
1
1
1
2.30115
8.81729
8.94421
8.95001
8.95691
8.95698
8.95862
8.95884
8.9592
8.95941
8.95948
8.9595
8.95946
5.2881
1
1
1
1
1
1
1
1
1
1
1
1
1
1
4.94503
8.86895
8.89943
8.91193
8.93162
8.94895
8.95773
8.95903
8.95941
8.95949
8.9595
8.9595
8.9595
8.15767
1
1
1
1
1
1
1
1
1
1
1.00001
1.38963
1
1
1.69271
8.8638
8.92947
8.93677
8.94668
8.95742
8.95894
8.95934
8.95947
8.9595
8.95951
8.95951
8.95951
8.39237
1
1
1
1
1
1
1
1
1
1
1.93266
6.98897
1.22228
1
1.54303
8.84099
8.95568
8.95943
8.9595
8.95951
8.95951
8.95951
8.95951
8.95951
8.95951
8.95951
8.95951
8.62829
1
1
1
1
1
1
1
1
1
1
3.3092
8.95139
6.96528
1.35959
6.35757
8.95368
8.95946
8.9595
8.95951
8.95951
8.95951
8.95951
8.95951
8.95951
8.95951
8.95951
8.95951
8.79164
1
1
1
1
1
1
1
1
1
1.40729
8.61079
8.95932
8.95854
8.66909
8.95272
8.95951
8.95951
8.95952
8.95952
8.95952
8.95952
8.95952
8.95952
8.95952
8.95952
8.95952
8.95952
8.89062
1
1
1
1
1
1
1
1
1
1.41207
8.43962
8.95941
8.95952
8.95952
8.95952
8.95952
8.95952
8.95952
8.95952
8.95952
8.95952
8.95952
8.95952
8.95952
8.95952
8.95952
8.95952
8.9314
1
1
1
1
1
1
1
1
1
4.2186
8.93721
8.95951
8.95953
8.95953
8.95953
8.95953
8.95953
8.95953
8.95953
8.95953
8.95953
8.95953
8.95953
8.95953
8.95953
8.95953
8.95953
8.95287
1
1
1
1
1
1
1
1
1
1
1
1
1
1
1
1
1
1
1
1
1
1
1
1
1
1
1
1
1
1
1
1
1
1
1
1
1
1
1
1
1
1
1
1
1
1
1
1
1
1
1.00001
1
1
1
1
1
1
1
1
1
1
1
1
1
1
1
1
1
1
1
1
1
1
1
1
1
1
1.00033
1.005
1.01276
1.01871
1.03395
1.00773
1
1
1
1
1
1
1
1
1
1
1
1
1
1
1
1
1
1
1
1
1
1
1
1
1
1
1
1.00001
1
1
1
1
1
1
1
1
1
1
1
1
1
1
1
1
1
1
1
1
1.1408
1.37807
1.45144
1.38498
1.25505
1.00003
1
1
1
1
1
1
1
1
1
1
1
1
1
1
1
1
1
1
1
1
1.07329
1.42048
1.9455
3.66068
6.29664
6.88856
2.63623
1.34893
1
1
1
1
1
1
1
1
1
1
1
1
1
1
1
1
1
1
1
1.00001
1.02785
1.04378
1.04967
1.36093
3.73775
8.64805
7.30291
2.03313
1.1033
1
1
1
1
1
1
1
1
1
1
1
1
1
1
1
1
1
1
1
1
1
1
1.00633
1.60972
8.66442
8.8731
5.73995
1.4091
1
1
1
1
1
1
1
1
1
1
1
1
1
1
1
1
1
1
1
1
1
1
1
1.34682
8.10656
8.95628
8.42758
2.29967
1.0196
1
1
1
1
1
1
1
1
1
1
1
1
1
1
1
1
1
1
1
1
1
1
1.25272
7.37611
8.95914
8.93338
6.00855
1.30785
1
1
1
1
1
1
1
1
1
1
1
1
1
1
1
1
1
1
1
1
1
1
1.08807
6.63559
8.95921
8.95901
8.70386
2.18261
1
1
1
1
1
1
1
1
1
1
1
1
1
1
1
1
1
1
1
1
1
1
1.05863
6.19159
8.95927
8.95936
8.93695
5.74749
1.25668
1
1
1
1
1
1
1
1
1
1
1
1
1
1
1
1
1
1
1
1
1
1.33304
7.59634
8.95927
8.95938
8.95466
7.09569
1.32238
1
1
1
1
1
1
1
1
1
1
1
1
1
1
1
1
1
1
1
1
1.06322
2.0253
8.69179
8.95926
8.95937
8.95824
7.78792
1.34083
1
1
1
1
1
1
1
1
1
1
1
1
1
1
1
1
1
1
1
1.21607
1.61524
6.67847
8.94492
8.95929
8.95943
8.95889
8.13128
1.35361
1
1
1
1
1
1
1
1
1
1
1
1
1
1
1
1
1
1.00616
1.33443
2.83685
6.79601
8.87454
8.95883
8.9593
8.95945
8.95924
8.33553
1.36445
1
1
1
1
1
1
1
1
1
1
1
1
1
1
1
1
1.00213
1.80539
6.20082
8.56826
8.92458
8.9581
8.959
8.95933
8.95945
8.95939
8.54411
1.37703
1
1
1
1
1
1
1
1
1
1
1
1
1
1
1
1
1.55396
6.73672
8.88338
8.95753
8.95833
8.95868
8.95914
8.95937
8.95946
8.95945
8.80666
1.49628
1
1
1
1
1
1
1
1
1
1
1
1
1
1
1.0003
1.57407
7.91965
8.92151
8.95742
8.95844
8.95874
8.95888
8.95922
8.9594
8.95947
8.95947
8.93238
2.09418
1
1
1
1
1
1
1
1
1
1
1
1
1
1
1.32152
7.6664
8.94069
8.95331
8.95803
8.95865
8.95909
8.95909
8.95931
8.95944
8.95948
8.95949
8.95819
4.42199
1
1
1
1
1
1
1
1
1
1
1
1.46719
1.42814
1.3323
7.01396
8.93036
8.94442
8.94952
8.95652
8.95864
8.95919
8.95926
8.95939
8.95947
8.95949
8.9595
8.9595
7.72233
1
1
1
1
1
1
1
1
1
1
1
1.03723
1.00377
1.20384
4.92974
8.87097
8.91252
8.92281
8.94197
8.95383
8.95867
8.9593
8.95947
8.9595
8.9595
8.9595
8.9595
8.7321
1
1
1
1
1
1
1
1
1
1
1.00007
1.40939
1
1.00001
1.65919
8.81818
8.95064
8.95278
8.95631
8.95911
8.9594
8.95948
8.9595
8.9595
8.95951
8.95951
8.95951
8.79844
1
1
1
1
1
1
1
1
1
1
1.45618
6.37222
1.23871
1
1.50453
8.73171
8.95914
8.95949
8.95951
8.95951
8.95951
8.95951
8.95951
8.95951
8.95951
8.95951
8.95951
8.8635
1
1
1
1
1
1
1
1
1
1
1.42771
8.76219
6.81568
1.36561
6.08532
8.94782
8.9595
8.95951
8.95951
8.95951
8.95951
8.95951
8.95951
8.95951
8.95951
8.95951
8.95951
8.90848
1
1
1
1
1
1
1
1
1
1
5.35549
8.9583
8.9585
8.64694
8.9511
8.95951
8.95952
8.95952
8.95952
8.95952
8.95952
8.95952
8.95952
8.95952
8.95952
8.95952
8.95952
8.9401
1
1
1
1
1
1
1
1
1
1.34721
7.83768
8.95904
8.95952
8.95952
8.95952
8.95952
8.95952
8.95952
8.95952
8.95952
8.95952
8.95952
8.95952
8.95952
8.95952
8.95952
8.95952
8.95558
1
1
1
1
1
1
1
1
1
5.5069
8.93624
8.95951
8.95953
8.95953
8.95953
8.95953
8.95953
8.95953
8.95953
8.95953
8.95953
8.95953
8.95953
8.95953
8.95953
8.95953
8.95953
8.95864
1
1
1
1
1
1
1
1
1
1
1
1
1
1
1
1
1
1
1
1
1
1
1
1
1
1
1
1
1
1
1
1
1
1
1
1
1
1
1
1
1
1
1
1.00001
1.00918
1.13652
1.30948
1.36889
1.39714
1.43269
1.46248
1.47397
1.45833
1.45849
1.38847
1.10273
1
1
1
1
1
1
1
1
1
1
1
1.00001
1.00001
1.00027
1.0233
1.15239
1.28168
1.34435
1.36944
1.3866
1.40315
1.41388
1.41198
1.38554
1.37471
1.35558
1.3717
1.35646
1.00238
1
1
1
1
1
1
1
1
1.00004
1.00006
1
1
1.00004
1.00232
1.00894
1.00223
1.00005
1.00001
1.00005
1.00762
1.05911
1.10576
1.10383
1.0296
1.01216
1.08044
1.29098
1.0022
1
1
1
1
1
1
1
1.00003
1.00009
1.00002
1
1
1
1
1
1
1
1.06975
1.37129
1.73926
2.12216
2.1465
1.51264
1.29457
1.02931
1
1.09408
1.00143
1
1
1
1
1
1
1
1
1.00001
1
1
1
1
1
1
1
1.23333
1.43295
1.66327
2.8487
6.8215
8.37829
6.1533
1.931
1.24519
1
1.00381
1.00034
1
1
1
1
1
1
1
1
1
1
1
1
1
1
1
1.00436
1.034
1.01633
1.00804
1.30756
2.92932
8.71309
8.66086
4.60928
1.4115
1.04391
1.00357
1.00004
1
1
1
1
1
1
1
1
1
1
1
1
1
1
1
1
1
1
1
1.03652
1.55853
8.58336
8.94561
7.92062
2.15877
1.24634
1.01131
1
1
1
1
1
1
1
1
1
1
1
1
1
1
1
1
1
1
1
1
1.00478
1.33782
8.01444
8.95888
8.84426
4.59011
1.33688
1.00348
1
1
1
1
1
1
1
1
1
1
1
1
1
1
1
1
1
1
1
1
1.0606
1.29193
7.40323
8.95929
8.95605
8.00072
1.48646
1
1.00001
1
1
1
1
1
1
1
1
1
1
1
1
1
1
1
1
1
1.04301
1.02214
1.00347
1.26201
6.83429
8.95932
8.95937
8.93382
5.55416
1.26431
1.00001
1
1
1
1
1
1
1
1
1
1
1
1
1
1
1
1
1.01366
1.13968
1.11345
1.14978
1.29337
6.54089
8.95933
8.95939
8.95808
8.33942
1.74139
1.00001
1
1
1
1
1
1
1
1
1
1
1
1
1
1
1
1
1.00015
1.00249
1.0593
1.13082
1.45137
8.07499
8.95934
8.95941
8.95908
8.60199
1.86661
1.00002
1
1
1
1
1
1
1
1
1
1
1
1
1
1
1
1
1.00268
1.00045
1.18304
1.33913
3.39782
8.83415
8.95935
8.95945
8.9593
8.73509
1.91344
1.00001
1
1
1
1
1
1
1
1
1
1
1
1
1
1.00592
1
1.00672
1.00198
1.04749
1.37146
2.69082
7.94683
8.95467
8.95938
8.95946
8.9594
8.80129
1.98203
1
1
1
1
1
1
1
1
1
1
1
1
1
1
1.01205
1
1.14269
1.3013
1.56472
4.55991
7.78609
8.92525
8.95918
8.95939
8.95946
8.95944
8.84271
2.07125
1
1
1
1
1
1
1
1
1
1
1
1
1
1
1.04519
1.05282
1.30413
4.1649
7.89189
8.82948
8.94186
8.95869
8.95924
8.95941
8.95947
8.95945
8.8829
2.1365
1
1
1
1
1
1
1
1
1
1
1
1
1
1
1.07351
1.28386
3.66518
8.44655
8.94631
8.95878
8.9589
8.95904
8.95932
8.95944
8.95948
8.95947
8.93511
2.95601
1
1
1
1
1
1
1
1
1
1
1
1
1.07145
1
1.42342
3.20028
8.6578
8.94881
8.95831
8.95901
8.95912
8.95916
8.95937
8.95946
8.95948
8.95949
8.95598
4.81924
1.00001
1
1
1
1
1
1
1
1
1
1
1.48333
1.6653
1.14541
3.78821
8.7149
8.9491
8.95645
8.95868
8.95921
8.95938
8.95932
8.95943
8.95948
8.95949
8.95949
8.95932
7.30366
1.00068
1
1
1
1
1
1
1
1
1
1
3.00175
3.12692
5.75716
8.16023
8.93743
8.94981
8.95453
8.95881
8.95927
8.95941
8.95943
8.95947
8.95949
8.9595
8.9595
8.9595
8.7034
1.00494
1
1
1
1
1
1
1
1
1
1
1.29739
1.3609
2.40031
4.29973
8.87079
8.92822
8.93711
8.95322
8.95867
8.95922
8.95944
8.95949
8.9595
8.9595
8.9595
8.9595
8.90721
1.01454
1
1
1
1
1
1
1
1
1
1.04314
1.53476
1.00027
1.31948
1.74233
8.80736
8.95585
8.95709
8.95931
8.95946
8.95949
8.9595
8.9595
8.95951
8.95951
8.95951
8.95951
8.92265
1.03514
1
1
1
1
1
1
1
1
1
1.31575
6.67412
1.28502
1.00002
1.58083
8.70602
8.95944
8.95951
8.95951
8.95951
8.95951
8.95951
8.95951
8.95951
8.95951
8.95951
8.95951
8.93615
1.045
1
1
1
1
1
1
1
1
1
1.31972
8.66004
7.24441
1.45808
6.47409
8.94801
8.9595
8.95951
8.95951
8.95951
8.95951
8.95951
8.95951
8.95951
8.95951
8.95951
8.95951
8.94602
1.04132
1
1
1
1
1
1
1
1
1
4.16606
8.95596
8.95904
8.74011
8.95354
8.95951
8.95952
8.95952
8.95952
8.95952
8.95952
8.95952
8.95952
8.95952
8.95952
8.95952
8.95952
8.95392
1.0357
1
1
1
1
1
1
1
1
1.34381
7.89907
8.95903
8.95952
8.95952
8.95952
8.95952
8.95952
8.95952
8.95952
8.95952
8.95952
8.95952
8.95952
8.95952
8.95952
8.95952
8.95952
8.95947
1.01429
1
1
1
1
1
1
1
1
7.24413
8.94681
8.95949
8.95953
8.95953
8.95953
8.95953
8.95953
8.95953
8.95953
8.95953
8.95953
8.95953
8.95953
8.95953
8.95953
8.95953
8.95953
8.95953
1.00045
1
1
1
1
1
1
1
1
1
1
1
1
1
1
1
1
1
1
1
1
1
1
1
1
1
1
1
1
1
1
1
1
1
1
1
1
1
1
1.00026
1.01505
1.13114
1.3105
1.37087
1.42874
1.56464
1.79834
2.16124
2.62803
3.08387
3.34449
3.30494
3.04282
2.84428
2.2663
1.49354
1.13718
1
1
1
1.00023
1.02779
1.16385
1.26548
1.32179
1.34646
1.35735
1.36062
1.36624
1.38283
1.41492
1.46684
1.52037
1.57167
1.60579
1.57556
1.52525
1.49897
1.49239
1.49679
1.42858
1.38675
1.37235
1.41916
1.36411
1
1
1.00459
1.15989
1.26261
1.29216
1.30942
1.32149
1.32792
1.32811
1.32678
1.33549
1.35242
1.36286
1.34271
1.28677
1.18599
1.14769
1.26091
1.34914
1.38906
1.43867
1.45008
1.36595
1.32301
1.20072
1.33162
1.34585
1
1
1.0012
1.25118
1.27599
1.29197
1.29957
1.30245
1.30257
1.29525
1.28621
1.27021
1.2034
1.07411
1.00639
1.00146
1.10533
1.34366
1.72323
2.85357
4.6282
5.50681
4.04962
1.94217
1.32584
1.07661
1.22462
1.32481
1
1
1
1.17109
1.26028
1.27931
1.28386
1.28158
1.27785
1.24893
1.18302
1.05279
1.00179
1.00006
1.00003
1.04652
1.29702
1.38973
1.46469
2.42075
6.60936
8.78734
8.59228
4.97995
1.50672
1.17161
1.13191
1.29758
1
1
1
1.00646
1.16529
1.24615
1.29123
1.32431
1.25978
1.16627
1.03525
1.00076
1.00002
1.00001
1.00326
1.04589
1.03344
1.00624
1.00164
1.2935
2.91731
8.81024
8.93444
7.75287
2.38679
1.29321
1.10071
1.26404
1
1
1
1
1.00078
1.01157
1.0709
1.22538
1.25315
1.04976
1.00305
1.00031
1.0001
1.00001
1.00069
1.00029
1.00004
1
1
1.14116
1.77139
8.5064
8.95837
8.78155
4.54484
1.36458
1.1921
1.22696
1
1
1
1
1
1.00004
1.00592
1.06683
1.06813
1.00149
1
1.00001
1
1
1
1
1
1
1
1.06874
1.52618
8.08628
8.95924
8.94734
7.431
1.56673
1.0705
1.2302
1
1
1
1
1
1
1.00199
1.03242
1.01448
1
1
1
1
1
1
1
1
1
1.00096
1.26737
1.46336
7.69004
8.95931
8.95912
8.76398
2.77087
1.0921
1.23783
1
1
1
1
1
1
1.00111
1.01734
1.00025
1
1
1
1
1.01139
1
1.27307
1.1862
1.1261
1.549
1.53872
1.46728
7.42232
8.95935
8.95938
8.95687
8.20604
1.79083
1.24999
1
1
1
1
1
1
1.00118
1.01184
1
1
1
1
1
1.28907
1.26521
1.48985
1.84901
1.91779
2.52011
3.01947
1.70209
7.34003
8.95936
8.95939
8.95901
8.72704
3.21094
1.27512
1
1
1
1
1
1
1.00143
1.01215
1
1
1
1
1
1.46741
1.37426
1.65323
1.91077
1.82529
2.40413
2.56382
2.80306
8.42191
8.95936
8.95944
8.95924
8.8012
3.30267
1.30323
1
1
1
1
1
1
1.00212
1.01438
1
1
1
1
1
2.19634
1.3287
1.8559
1.75139
1.667
2.49052
3.75508
6.56721
8.91443
8.95936
8.95946
8.95939
8.84882
3.30728
1.30957
1
1
1
1
1
1.00001
1.00359
1.01332
1
1
1.0126
1.16865
1
2.2329
1.16431
2.18714
1.62872
1.67061
3.44907
6.5251
8.7243
8.95845
8.95938
8.95946
8.95943
8.87627
3.29716
1.29667
1
1
1
1
1
1.00003
1.0051
1.00914
1
1
1.19244
1.32831
1.00027
2.05903
1.00456
2.78515
2.71775
3.27712
7.2277
8.52895
8.94739
8.95932
8.95943
8.95947
8.95945
8.89833
3.32858
1.23421
1
1
1
1
1
1.00008
1.00379
1.00185
1
1
1.36746
1.4256
1.17435
2.42607
1.70713
3.54184
7.71966
8.3893
8.87856
8.92952
8.95766
8.95936
8.95945
8.95948
8.95946
8.92177
3.5231
1.18753
1
1
1
1
1
1.00012
1.00164
1
1
1
1.5547
1.81267
1.33743
3.08371
4.78476
7.9966
8.9035
8.94899
8.95712
8.95799
8.9591
8.95938
8.95946
8.95948
8.95947
8.94729
4.27855
1.11551
1
1
1
1
1
1.00003
1.00007
1
1
1
1.46191
2.36905
1.10606
6.08712
7.11389
8.88208
8.95347
8.95772
8.95904
8.95919
8.9593
8.95944
8.95948
8.95949
8.95949
8.95793
5.97068
1.10171
1
1
1
1
1
1.00013
1.00075
1
1
1
3.36818
3.48193
1.64602
7.24599
8.83148
8.95256
8.95696
8.95912
8.95939
8.95945
8.95941
8.95947
8.95949
8.95949
8.95949
8.95944
7.92554
1.1277
1
1
1
1
1
1.00096
1.00068
1
1
1.11415
3.25327
4.66747
7.71674
7.46664
8.93699
8.95362
8.95727
8.95929
8.95943
8.95947
8.95948
8.95949
8.9595
8.9595
8.9595
8.9595
8.89991
1.18325
1
1
1
1
1
1.00295
1.00014
1
1
1.00001
1.37627
1.33498
3.57392
3.71462
8.87998
8.94002
8.94853
8.95867
8.95932
8.95946
8.95949
8.9595
8.9595
8.9595
8.9595
8.9595
8.93767
1.24835
1
1
1
1
1.00004
1.00504
1.00001
1
1
1.26037
1.78166
1.01442
1.36565
2.00222
8.8463
8.95847
8.95939
8.95949
8.9595
8.9595
8.95951
8.95951
8.95951
8.95951
8.95951
8.95951
8.94648
1.30254
1
1
1
1
1.00048
1.00815
1
1
1
1.29529
7.35527
1.34751
1.00816
1.78771
8.76016
8.95949
8.95951
8.95951
8.95951
8.95951
8.95951
8.95951
8.95951
8.95951
8.95951
8.95951
8.95239
1.33347
1
1
1
1
1.00162
1.00785
1
1
1
1.34345
8.69586
8.01502
1.87786
7.19147
8.95138
8.95951
8.95951
8.95951
8.95951
8.95951
8.95951
8.95951
8.95951
8.95951
8.95951
8.95951
8.95599
1.35228
1
1
1
1
1.00343
1.00623
1
1
1
4.31096
8.95595
8.95945
8.87041
8.95706
8.95951
8.95952
8.95952
8.95952
8.95952
8.95952
8.95952
8.95952
8.95952
8.95952
8.95952
8.95952
8.95877
1.36297
1
1
1
1.00003
1.00838
1.0028
1
1
1.39804
8.22766
8.95925
8.95952
8.95952
8.95952
8.95952
8.95952
8.95952
8.95952
8.95952
8.95952
8.95952
8.95952
8.95952
8.95952
8.95952
8.95952
8.95952
1.35542
1
1
1
1.00063
1.00803
1
1
1
8.06308
8.95326
8.9595
8.95953
8.95953
8.95953
8.95953
8.95953
8.95953
8.95953
8.95953
8.95953
8.95953
8.95953
8.95953
8.95953
8.95953
8.95953
8.95953
1.33369
1
1
1
1
1
1
1
1
1
1
1
1
1
1
1
1
1
1
1
1
1
1
1
1
1
1
1
1
1
1
1
1.00001
1.00016
1.01066
1.05529
1.1529
1.25801
1.32275
1.3567
1.40089
1.49911
1.72029
2.12641
2.74435
3.65954
4.73415
5.65426
6.05746
6.10732
6.12921
5.91985
5.2352
4.48315
3.24651
2.24493
1.38995
1
1
1.30447
1.42761
1.55297
1.68569
1.75921
1.83193
1.8864
1.9047
1.85213
1.81711
1.81374
1.97965
2.1375
2.25271
2.26669
2.18485
2.16219
2.59391
3.20845
3.82179
3.97797
3.06563
2.25292
1.47771
1.58528
1.50556
1
1
1.42999
1.59519
1.61158
1.63283
1.66376
1.70001
1.7144
1.65819
1.5825
1.51894
1.46571
1.41044
1.365
1.34139
1.32922
1.35048
1.44754
1.81845
2.59153
3.52636
3.92233
2.87193
1.91978
1.3369
1.35836
1.42472
1
1
1.42145
1.56973
1.55215
1.5706
1.57062
1.51024
1.42956
1.35867
1.31966
1.30436
1.28744
1.23168
1.17616
1.20243
1.33115
1.55181
2.56628
4.54686
7.09053
8.27729
8.11342
5.39659
1.99864
1.30331
1.30723
1.37933
1
1
1.3805
1.5027
1.50664
1.51455
1.43295
1.3413
1.28179
1.24834
1.21551
1.15589
1.08998
1.06601
1.1294
1.26481
1.30979
1.32433
1.33705
2.19905
6.34269
8.90243
8.93804
8.06308
3.15311
1.33829
1.22809
1.35249
1
1
1.3461
1.42462
1.49297
1.49705
1.39885
1.32377
1.23263
1.18303
1.12012
1.06993
1.05883
1.06265
1.09751
1.04651
1.00497
1.00294
1.00032
1.26044
3.81728
8.78906
8.95776
8.78866
5.39264
1.52393
1.26579
1.33801
1
1
1.29494
1.36668
1.41
1.41905
1.36915
1.336
1.26706
1.18875
1.10697
1.06484
1.07572
1.0547
1.05733
1.0001
1.00001
1.00001
1
1.03273
3.1449
8.56573
8.95912
8.94063
7.54291
2.02719
1.31917
1.32888
1
1
1.23662
1.33372
1.36443
1.3765
1.34788
1.314
1.24862
1.1421
1.03088
1.01716
1.02291
1
1.00014
1
1
1
1
1.00001
3.11337
8.35407
8.95924
8.95852
8.66292
3.17589
1.31043
1.32749
1
1
1.19678
1.29974
1.34789
1.3632
1.33727
1.29815
1.20647
1.02577
1
1
1
1
1
1
1
1
1
1.06867
3.09822
8.23528
8.95936
8.95936
8.93221
5.98812
1.36096
1.32688
1
1
1.17434
1.27469
1.3387
1.35792
1.33188
1.28705
1.12419
1.00008
1
1.17619
1
4.78959
1
8.63184
1
1
8.86441
1.48948
3.6843
8.21022
8.95937
8.9594
8.95816
8.57295
2.92424
1.32904
1.00001
1
1.17337
1.2616
1.33893
1.35772
1.33038
1.27855
1.06396
1
8.95953
6.27235
8.95953
7.38711
8.95953
8.93236
8.95953
8.95953
8.90325
8.95953
4.5479
8.45484
8.95937
8.95941
8.95906
8.73501
3.52037
1.33617
1.00001
1
1.17583
1.26254
1.34038
1.358
1.33059
1.27641
1.02845
1
8.65813
6.81788
6.75452
8.92007
8.62817
8.92855
8.89607
8.84585
8.73852
8.8647
6.68503
8.81492
8.95936
8.95945
8.95928
8.80798
3.57746
1.3455
1.00002
1
1.18149
1.26686
1.34227
1.35833
1.3312
1.27841
1.0155
1
8.95953
6.17497
8.95953
8.93479
8.95953
8.93253
8.95953
8.95953
8.7688
8.95953
8.60258
8.94322
8.95938
8.95946
8.95941
8.85194
3.5872
1.35696
1.00003
1
1.19065
1.27287
1.34396
1.35828
1.33174
1.27838
1.00374
1
8.79513
8.90973
8.74654
8.90308
8.82867
8.91631
8.86134
8.82904
8.88394
8.91084
8.94127
8.95871
8.95941
8.95947
8.95944
8.87921
3.57426
1.35159
1.00004
1
1.20083
1.27994
1.34554
1.35806
1.33168
1.27543
1.00014
1
8.95953
8.9278
8.95953
8.9178
8.95953
8.92765
8.95953
8.95953
8.94066
8.95953
8.95892
8.95939
8.95946
8.95948
8.95946
8.90254
3.59948
1.33277
1.00003
1
1.20922
1.28597
1.34737
1.35748
1.33026
1.25768
1
1
8.95953
8.91729
8.95953
8.91969
8.95953
8.90761
8.95953
8.95953
8.95948
8.95953
8.95935
8.95944
8.95947
8.95948
8.95946
8.92697
3.72647
1.29173
1.00003
1.00001
1.21882
1.29536
1.35021
1.3566
1.32541
1.15147
1
1
8.88997
8.91222
8.85817
8.92945
8.95205
8.95953
8.95935
8.95949
8.95953
8.95949
8.95939
8.95945
8.95948
8.95949
8.95948
8.95069
4.44529
1.1457
1.00003
1.00001
1.23268
1.30522
1.34982
1.35296
1.30717
1.02519
1
1
8.95953
8.93657
8.95953
8.94621
8.95953
8.66899
8.95953
8.95953
8.92799
8.95953
8.9594
8.95947
8.95949
8.95949
8.95949
8.95863
6.35264
1.13561
1.00003
1.00001
1.24927
1.31596
1.35029
1.34947
1.26669
1.00311
1
1
8.95953
8.43772
8.95953
8.58404
8.95953
8.42405
8.95953
8.95953
8.92526
8.95953
8.95945
8.95948
8.95949
8.95949
8.95949
8.95947
8.24758
1.21375
1.00003
1.00002
1.2707
1.32885
1.35171
1.3421
1.16577
1.00017
1
1.07869
4.54134
5.63193
7.76764
7.28061
8.94256
8.95617
8.95866
8.95942
8.95946
8.95948
8.95949
8.9595
8.9595
8.9595
8.9595
8.9595
8.94418
1.2991
1.00003
1.00004
1.29302
1.3394
1.35194
1.3262
1.04811
1
1
1.00243
1.74569
1.41263
3.42962
3.77173
8.90188
8.94861
8.95533
8.9594
8.95948
8.9595
8.9595
8.9595
8.9595
8.9595
8.9595
8.9595
8.95393
1.34556
1.00003
1.00007
1.31233
1.34598
1.35095
1.28499
1.00723
1
1.0002
1.32507
2.15284
1.06579
1.31644
2.47764
8.89832
8.95944
8.95949
8.9595
8.9595
8.95951
8.95951
8.95951
8.95951
8.95951
8.95951
8.95951
8.95666
1.42627
1.00004
1.00011
1.3278
1.35034
1.34792
1.22226
1.00178
1
1
1.3495
7.93842
1.62993
1.05939
2.16264
8.83804
8.9595
8.95951
8.95951
8.95951
8.95951
8.95951
8.95951
8.95951
8.95951
8.95951
8.95951
8.95844
1.57277
1.00005
1.0002
1.33954
1.35356
1.34182
1.14979
1.00016
1
1
1.46978
8.77065
8.52625
2.94108
7.78782
8.95512
8.95951
8.95951
8.95951
8.95951
8.95951
8.95951
8.95951
8.95951
8.95951
8.95951
8.95951
8.95925
1.71199
1.00007
1.00038
1.3475
1.35427
1.33097
1.07537
1
1
1.00002
5.33337
8.95747
8.9595
8.92717
8.95865
8.95952
8.95952
8.95952
8.95952
8.95952
8.95952
8.95952
8.95952
8.95952
8.95952
8.95952
8.95952
8.95952
1.8447
1.0001
1.00061
1.35269
1.3541
1.31279
1.02125
1
1
1.62423
8.55256
8.95941
8.95952
8.95952
8.95952
8.95952
8.95952
8.95952
8.95952
8.95952
8.95952
8.95952
8.95952
8.95952
8.95952
8.95952
8.95952
8.95952
1.79458
1.00013
1.00172
1.35994
1.35165
1.241
1.00006
1
1
8.42989
8.95663
8.95951
8.95953
8.95953
8.95953
8.95953
8.95953
8.95953
8.95953
8.95953
8.95953
8.95953
8.95953
8.95953
8.95953
8.95953
8.95953
8.95953
1.71616
1.00017
1
1
1
1
1
1
1
1
1
1
1
1
1
1
1
1
1
1
1
1.00002
1.00008
1.00012
1.00005
1.00002
1
1
1
1
1
1.07494
1.26499
1.2928
1.33899
1.38283
1.46026
1.57914
1.77005
2.07085
2.52151
3.19368
4.13261
5.22916
6.09876
6.6236
6.95859
7.31367
7.64193
7.87453
7.98155
7.98169
7.4893
6.72615
4.8673
4.21537
1.91907
1
1
1.92598
2.76779
2.93771
3.07664
3.1068
3.12342
3.13408
3.09355
3.02053
2.9736
2.97135
3.10551
3.15279
3.16549
3.27829
3.72619
4.84333
6.41054
7.63108
8.14277
8.18525
7.11072
5.26038
2.64067
2.31549
1.9646
1
1
2.2867
2.66137
2.68776
2.51347
2.34151
2.16953
2.00309
1.84595
1.70621
1.59066
1.50474
1.4468
1.41854
1.41451
1.49387
1.77966
2.65272
4.67089
6.85558
8.03632
8.2806
7.06692
4.69698
1.97477
1.48893
1.65438
1
1
2.24115
2.46042
2.08987
1.7556
1.538
1.40909
1.33793
1.30553
1.29423
1.29725
1.30715
1.31227
1.31118
1.35021
1.53946
2.32554
3.50371
6.08799
8.13758
8.88271
8.91315
8.28232
4.73824
1.73402
1.33318
1.49728
1
1
2.05827
2.14316
1.64131
1.41481
1.31326
1.26741
1.24698
1.24384
1.25039
1.25844
1.27246
1.28365
1.29491
1.29319
1.27202
1.25632
1.26119
2.01507
7.05926
8.91529
8.95855
8.86897
6.7897
1.96707
1.28277
1.40707
1
1.00004
1.8279
1.92759
1.5035
1.36936
1.31739
1.27394
1.23777
1.23202
1.22614
1.21796
1.21169
1.16955
1.05286
1.0018
1.00006
1.00042
1.00002
1.20714
6.21354
8.81832
8.95924
8.94513
8.09977
3.10085
1.42843
1.37995
1.00002
1.00035
1.66741
1.73537
1.47077
1.38239
1.34553
1.32161
1.2724
1.25962
1.23421
1.1891
1.1758
1.13391
1.03292
1.00001
1
1.00001
1
1.00001
6.58163
8.72956
8.95932
8.95821
8.73327
4.61693
1.56207
1.36442
1.00006
1.00119
1.58073
1.62218
1.43658
1.36923
1.3382
1.32
1.30218
1.28559
1.20275
1.10343
1.08945
1.00106
1.00001
1
1
1
1
1
7.10932
8.69301
8.95936
8.95933
8.91764
6.25393
1.56437
1.3601
1.00009
1.00324
1.53859
1.56295
1.41633
1.35944
1.33046
1.31062
1.28795
1.15955
1.00001
1
1
1
1
1
1
1
1
1
7.33244
8.71755
8.95939
8.95939
8.95417
7.93021
1.92585
1.35594
1.0001
1.0055
1.51634
1.5325
1.40513
1.35364
1.32493
1.30217
1.25551
1.06324
1
1
1
1
1
1
1
1
8.95953
1
7.92095
8.80985
8.9594
8.95941
8.95852
8.639
3.42383
1.35749
1.00014
1.00818
1.51009
1.51796
1.3987
1.3499
1.32095
1.29506
1.23423
1.03445
1
8.95953
8.95953
8.95953
8.95953
8.95953
8.95953
8.95953
8.95953
8.95953
8.15081
8.90359
8.95941
8.95943
8.95918
8.75714
3.66768
1.36421
1.00022
1.01112
1.50827
1.51197
1.39485
1.34785
1.31842
1.28957
1.20964
1.01652
8.95953
8.95953
8.95953
8.95953
8.95953
8.95953
8.95953
8.95953
8.95953
2.04208
8.70159
8.94917
8.95942
8.95946
8.95934
8.8272
3.69958
1.37733
1.00032
1.01433
1.50907
1.50724
1.39214
1.34645
1.31657
1.28514
1.19808
1.0092
1
8.95953
8.95953
8.95953
8.95953
8.95953
8.95953
8.95953
8.95953
8.95953
8.94061
8.95804
8.95944
8.95947
8.95943
8.86917
3.68309
1.38185
1.00049
1.01769
1.51111
1.50245
1.38971
1.34504
1.31454
1.28082
1.17072
1.00184
8.95953
8.95953
8.95953
8.95953
8.95953
8.95953
8.95953
8.95953
8.95953
8.95953
8.95905
8.9594
8.95946
8.95947
8.95945
8.8956
3.66854
1.3651
1.00054
1.02122
1.51332
1.49725
1.38702
1.34296
1.31146
1.27532
1.11908
1.0004
1.00132
8.95953
8.95953
8.95953
8.95953
8.95953
8.95953
8.95953
8.95953
8.95953
8.95937
8.95944
8.95947
8.95948
8.95946
8.91823
3.70036
1.32012
1.0005
1.02523
1.51471
1.49137
1.38335
1.34018
1.30803
1.26675
1.04892
1
1.10791
8.95953
8.95953
8.95953
8.95953
8.95953
8.95953
8.95953
8.95953
8.95953
8.95941
8.95945
8.95948
8.95948
8.95947
8.93875
3.89099
1.24414
1.00045
1.02944
1.51674
1.48423
1.3782
1.33615
1.30275
1.21571
1.00065
1
8.95953
8.95953
8.95953
8.95953
8.95953
8.95953
8.95953
8.95953
8.95953
8.95953
8.95944
8.95947
8.95948
8.95949
8.95949
8.95455
4.81784
1.1027
1.0004
1.03493
1.52071
1.47473
1.37206
1.33177
1.28874
1.12246
1.001
1.0001
1.34812
8.95953
8.95953
8.95953
8.95953
8.95953
8.95953
8.95953
8.95953
8.95953
8.95945
8.95948
8.95949
8.95949
8.95949
8.95914
7.03006
1.14924
1.00037
1.0407
1.52571
1.46257
1.36394
1.32092
1.23736
1.0367
1.00027
1
1.62169
8.95953
8.95953
8.95953
8.95953
8.95953
8.95953
8.95953
8.95953
8.95953
8.95947
8.95949
8.95949
8.95949
8.95949
8.95947
8.68734
1.29338
1.00032
1.04946
1.53341
1.44431
1.35143
1.29075
1.11086
1.00799
1.00201
1.26305
6.03826
6.25309
7.2393
7.30432
8.94905
8.95752
8.95919
8.95944
8.95946
8.95948
8.95949
8.9595
8.9595
8.9595
8.9595
8.9595
8.95845
1.62053
1.00033
1.0591
1.53445
1.42355
1.33717
1.2191
1.02677
1.00228
1.00164
1.03958
2.92211
1.8137
2.87193
4.29985
8.92761
8.95413
8.9588
8.95948
8.9595
8.9595
8.9595
8.9595
8.9595
8.9595
8.9595
8.9595
8.9595
2.31482
1.00037
1.0718
1.53091
1.4011
1.31668
1.11751
1.01118
1.00474
1.12862
1.47906
2.60425
1.16084
1.26274
3.26556
8.933
8.95949
8.9595
8.9595
8.95951
8.95951
8.95951
8.95951
8.95951
8.95951
8.95951
8.95951
8.95951
2.78974
1.00051
1.08534
1.52183
1.37923
1.27826
1.0564
1.00636
1.00311
1.02295
1.54058
8.2316
2.26011
1.15796
2.77051
8.89687
8.9595
8.95951
8.95951
8.95951
8.95951
8.95951
8.95951
8.95951
8.95951
8.95951
8.95951
8.95951
3.15248
1.00072
1.10162
1.50782
1.35976
1.2226
1.02811
1.00165
1
1
1.65797
8.84381
8.73066
3.91638
8.1892
8.95785
8.95951
8.95951
8.95951
8.95951
8.95951
8.95951
8.95951
8.95951
8.95951
8.95951
8.95951
8.95951
3.33319
1.00102
1.11985
1.491
1.34429
1.15606
1.0119
1.00014
1
1.14019
6.87441
8.95883
8.95951
8.94393
8.95927
8.95952
8.95952
8.95952
8.95952
8.95952
8.95952
8.95952
8.95952
8.95952
8.95952
8.95952
8.95952
8.95952
3.5641
1.0014
1.13705
1.47271
1.32872
1.09999
1.00299
1
1
2.14886
8.75335
8.95947
8.95952
8.95952
8.95952
8.95952
8.95952
8.95952
8.95952
8.95952
8.95952
8.95952
8.95952
8.95952
8.95952
8.95952
8.95952
8.95952
3.41818
1.00184
1.17078
1.43589
1.28747
1.02985
1.00002
1
1
8.59814
8.9585
8.95952
8.95953
8.95953
8.95953
8.95953
8.95953
8.95953
8.95953
8.95953
8.95953
8.95953
8.95953
8.95953
8.95953
8.95953
8.95953
8.95953
3.28443
1.00224
1
1
1
1
1
1
1
1
1
1
1
1
1
1
1
1
1
1.00002
1.00027
1.00111
1.00216
1.00264
1.00141
1.00058
1
1
1
1
1
1.25982
1.42457
1.50718
1.8
2.12268
2.61391
3.16455
3.76495
4.35942
4.9054
5.46296
6.01387
6.53352
7.00987
7.43793
7.80394
8.10945
8.33755
8.45875
8.51073
8.51978
8.37551
7.88843
6.46652
5.26354
2.93851
1
1
3.04728
3.77417
3.88805
3.99318
4.05568
4.11328
4.16792
4.20112
4.14179
4.07625
4.04836
4.2554
4.59283
5.25088
6.20689
7.35432
8.25897
8.70204
8.87674
8.93088
8.93167
8.7432
7.99809
5.34362
3.40198
2.83516
1
1
2.90005
3.07726
2.57159
2.2586
2.01778
1.85212
1.75834
1.70298
1.66539
1.63966
1.63316
1.69518
1.88135
2.19411
2.67169
3.74512
5.58431
7.68232
8.70189
8.92709
8.93981
8.75322
7.73412
4.10201
1.82461
2.07029
1
1
2.67097
2.28534
1.81219
1.58475
1.4814
1.43609
1.42037
1.41425
1.41661
1.42575
1.44278
1.48128
1.52095
1.66881
1.93074
2.25831
3.10772
5.93406
8.56319
8.94637
8.95794
8.89098
7.73022
3.57128
1.49567
1.7577
1
1.00002
2.49567
1.87014
1.49556
1.37674
1.33663
1.32201
1.32152
1.32867
1.3318
1.33719
1.34398
1.33677
1.30242
1.25662
1.21973
1.19523
1.20522
1.69738
8.23224
8.92313
8.95928
8.95237
8.51299
4.19015
1.45847
1.59573
1.00001
1.00044
2.31817
1.71944
1.42866
1.36626
1.34412
1.31465
1.28544
1.26746
1.24433
1.22702
1.19407
1.08556
1.00159
1.00001
1
1
1
1.12605
8.17366
8.89024
8.95933
8.95811
8.79044
5.83964
2.02978
1.5306
1.00004
1.00231
2.17928
1.65247
1.43504
1.37895
1.34978
1.29125
1.20998
1.20042
1.19494
1.18472
1.13587
1.09467
1.00831
1.00001
1
1
1
1
8.41011
8.87999
8.95936
8.95925
8.90709
6.84305
2.23224
1.4765
1.00009
1.00596
2.08437
1.59427
1.41653
1.36456
1.33238
1.27971
1.17566
1.20023
1.19477
1.0884
1.01744
1.0018
1
1
1
1
1
1
8.4728
8.90034
8.95939
8.95936
8.94584
7.66688
2.28961
1.47804
1.00013
1.01136
2.0192
1.55286
1.39816
1.34997
1.31763
1.25972
1.1744
1.05756
1
1
1
1
1
1
1
1
1
1
8.64694
8.92722
8.95941
8.95939
8.95639
8.34759
2.85794
1.47615
1.00015
1.01745
1.97387
1.52581
1.3856
1.33856
1.30963
1.25432
1.17224
1.05059
1
1
1
1
1
1
1
1
8.95953
1
8.90614
8.94932
8.95942
8.95941
8.95867
8.65862
3.68951
1.46311
1.00021
1.02363
1.94164
1.50687
1.37531
1.32812
1.30324
1.24921
1.17339
1.0443
8.95953
8.95953
8.95953
8.95953
8.95953
8.95953
8.95953
8.95953
8.95953
8.95953
8.91674
8.95726
8.95942
8.95944
8.95923
8.77703
3.84277
1.4488
1.00034
1.02947
1.91677
1.49316
1.3662
1.31891
1.29595
1.23889
1.17066
1.03747
8.95953
8.95953
8.95953
8.95953
8.95953
8.95953
8.95953
8.95953
8.95953
8.95953
8.94916
8.95908
8.95943
8.95946
8.95937
8.84417
3.85973
1.44277
1.0005
1.0348
1.89452
1.48144
1.35773
1.31012
1.28307