/*--------------------------------*- C++ -*----------------------------------*\
| =========                 |                                                 |
| \\      /  F ield         | OpenFOAM: The Open Source CFD Toolbox           |
|  \\    /   O peration     | Version:  2.3.0                                 |
|   \\  /    A nd           | Web:      www.OpenFOAM.org                      |
|    \\/     M anipulation  |                                                 |
\*---------------------------------------------------------------------------*/
FoamFile
{
    version     2.0;
    format      ascii;
    class       volVectorField;
    location    "3.79972";
    object      U.air;
}
// * * * * * * * * * * * * * * * * * * * * * * * * * * * * * * * * * * * * * //

dimensions      [0 1 -1 0 0 0 0];

internalField   nonuniform List<vector> 
18816
(
(-0.00700036 0.0147631 -0.00290881)
(-0.0168881 0.0196555 -0.00059601)
(-0.029122 0.0175673 -0.00209752)
(-0.0344922 0.0173877 -0.00216648)
(-0.0439503 0.0179898 -0.00242689)
(-0.0492582 0.0175879 -0.0024108)
(-0.0571725 0.018156 -0.00255834)
(-0.0626995 0.0185378 -0.00262424)
(-0.0695362 0.0197089 -0.00273068)
(-0.0748137 0.0211158 -0.00280106)
(-0.0808186 0.023213 -0.00292097)
(-0.08577 0.025136 -0.00299387)
(-0.0907711 0.0249391 -0.00295923)
(-0.0940982 0.0258317 -0.00307391)
(-0.0961873 0.0267686 -0.00317672)
(-0.0964885 0.0281162 -0.00338359)
(-0.0938848 0.0290958 -0.00359896)
(-0.0875275 0.0300355 -0.00381454)
(-0.077272 0.030153 -0.00400266)
(-0.0617783 0.0287897 -0.00411489)
(-0.0426425 0.0278477 -0.00398015)
(-0.0175331 0.0271392 -0.00361347)
(0.00423094 0.0261835 -0.00332322)
(0.0277566 0.0249539 -0.00354137)
(0.0499828 0.0244486 -0.00319437)
(0.0523804 0.027225 -0.00257987)
(0.0408098 0.0290947 -0.00254705)
(0.019042 0.0227287 -0.00447549)
(-0.00923797 0.0802731 -0.00294507)
(-0.0219616 0.0913712 -0.00398328)
(-0.0284994 0.0809119 -0.00383856)
(-0.0337452 0.0779765 -0.00367947)
(-0.0407455 0.0736967 -0.00356111)
(-0.0461493 0.0722121 -0.00346206)
(-0.0533268 0.0707819 -0.00331587)
(-0.0589522 0.0694028 -0.00311806)
(-0.065281 0.0673375 -0.00292104)
(-0.0700432 0.0647668 -0.00268759)
(-0.0749877 0.0616388 -0.00216979)
(-0.0780788 0.0589423 -0.000574001)
(-0.0819444 0.0576234 -0.000572818)
(-0.0841575 0.0559034 -0.00047576)
(-0.0852985 0.0552556 -0.000401815)
(-0.0853513 0.0550768 -0.000340029)
(-0.083267 0.0555475 -0.000291202)
(-0.0780133 0.0558444 -0.000236797)
(-0.0692908 0.055492 -0.000178662)
(-0.05611 0.056089 -0.00019119)
(-0.040383 0.0559743 -0.000182316)
(-0.0201774 0.055209 -0.000173643)
(-0.00203467 0.0545179 -0.000132736)
(0.0180485 0.0490166 -0.000106865)
(0.0340415 0.0475381 -6.39987e-05)
(0.0369604 0.0513843 5.80413e-05)
(0.0288088 0.0658651 -7.81524e-05)
(0.0133302 0.102321 -0.00376098)
(-0.00280559 0.109583 -0.00162141)
(-0.00538826 0.104563 -0.00752764)
(-0.0173559 0.0963203 -0.00589455)
(-0.0210857 0.0943681 -0.00599663)
(-0.0274022 0.0909856 -0.00590655)
(-0.0322741 0.0888864 -0.00589903)
(-0.038048 0.0859821 -0.00595937)
(-0.0415308 0.0822675 -0.00581406)
(-0.044947 0.0786925 -0.00552762)
(-0.0482627 0.0748433 -0.00512761)
(-0.056692 0.0673158 -0.00759875)
(-0.0680044 0.0544777 -0.00176926)
(-0.0719446 0.0516769 0.000395006)
(-0.0740537 0.0491954 0.000246288)
(-0.0763876 0.0473283 0.000260753)
(-0.0771346 0.0457308 0.000303987)
(-0.0765608 0.0431766 0.000377438)
(-0.0737004 0.0400521 0.00039213)
(-0.0673666 0.0369965 0.000362219)
(-0.056202 0.0342403 0.000259792)
(-0.0412525 0.0308028 8.74909e-05)
(-0.0226661 0.0286932 -0.000130464)
(-0.00583302 0.027978 -0.00029035)
(0.0121787 0.0239446 -0.000353336)
(0.0239524 0.0292286 -0.00015498)
(0.0299866 0.0437489 0.000280551)
(0.0183454 0.0622265 0.000477032)
(0.00838536 0.11403 -0.00222387)
(0.000763719 0.132428 -0.000103717)
(0.000696825 0.126234 0.00688736)
(-0.0112347 0.104242 -0.00255912)
(-0.0111649 0.101118 -0.000466244)
(-0.016098 0.0967043 -0.000564148)
(-0.0192882 0.0941551 -0.00049362)
(-0.0233313 0.0907032 -0.000598664)
(-0.0254252 0.0872511 -0.000696894)
(-0.0271001 0.0829316 -0.00063313)
(-0.0283936 0.0792466 -0.000417733)
(-0.0339136 0.0722672 -0.000590736)
(-0.0478045 0.0597852 -0.00551118)
(-0.0601575 0.0489568 -0.000342532)
(-0.064578 0.046347 0.000446687)
(-0.0677299 0.0449704 0.000485817)
(-0.0691872 0.0419704 0.00079516)
(-0.0699004 0.0388843 0.00120376)
(-0.0686506 0.034855 0.00162519)
(-0.063824 0.0289973 0.00164835)
(-0.0528225 0.0234396 0.00144209)
(-0.0391603 0.0192792 0.00105888)
(-0.0219617 0.0170928 0.000637844)
(-0.00619169 0.0181355 0.000247731)
(0.00968941 0.0174889 0.000143134)
(0.0176556 0.0262866 0.000133243)
(0.0224577 0.0442788 0.000443203)
(0.011501 0.067389 0.000572053)
(0.00478023 0.122776 -0.00111064)
(0.00213461 0.139048 8.73003e-05)
(-0.00381022 0.131073 0.00437849)
(-0.00639928 0.116036 0.0070046)
(-0.00766493 0.1055 -0.00123668)
(-0.0117168 0.100202 -0.00102672)
(-0.0139248 0.0963393 -0.000909546)
(-0.0175112 0.0913917 -0.000874362)
(-0.0183582 0.0860485 -1.62835e-05)
(-0.01935 0.0818855 -6.0851e-05)
(-0.0200428 0.0777561 2.50054e-05)
(-0.0228799 0.0698514 0.000146462)
(-0.034983 0.0566531 -0.0024628)
(-0.0507844 0.047914 -0.000265848)
(-0.0537869 0.0445739 0.000388173)
(-0.0539331 0.0391186 0.000837371)
(-0.0515468 0.0295662 0.0014298)
(-0.0496058 0.019194 0.0015478)
(-0.0491604 0.00737786 0.00135291)
(-0.0482701 -0.00257765 0.00107299)
(-0.0438606 -0.00911374 0.000817279)
(-0.0364604 -0.011643 0.000730838)
(-0.0251736 -0.0126579 0.000626785)
(-0.0114188 -0.00690596 0.000585834)
(0.00216181 -0.00229821 0.000166285)
(0.0100795 0.0176561 6.53729e-05)
(0.0137658 0.0400411 0.000194815)
(0.00773332 0.0660998 0.000313401)
(0.00396828 0.12439 -0.000787936)
(0.00190348 0.140525 -3.97717e-05)
(-0.00500221 0.129288 0.00176611)
(-0.0107948 0.12043 0.00421948)
(-0.00534445 0.11218 0.00694919)
(-0.00849953 0.104756 0.00608851)
(-0.00972464 0.0997496 0.00569688)
(-0.0123947 0.0936216 0.00473903)
(-0.013133 0.086736 -0.000560329)
(-0.0143753 0.0827396 -0.000439383)
(-0.0145536 0.0782583 -0.000337829)
(-0.0156189 0.068049 0.0003981)
(-0.0234657 0.0544113 -0.00158168)
(-0.0359289 0.0459677 -1.075e-05)
(-0.0329714 0.0356655 0.000365076)
(-0.0245674 0.0209067 0.000504149)
(-0.0175697 0.00622112 0.00049197)
(-0.0189215 -0.000960554 0.000757397)
(-0.0285603 -0.00705156 0.00101595)
(-0.0376775 -0.0153105 0.00091672)
(-0.0390565 -0.0224239 0.000675115)
(-0.0359583 -0.0259942 0.000362295)
(-0.0284984 -0.0289249 0.000111174)
(-0.0182739 -0.0260846 0.000183213)
(-0.00663703 -0.012871 0.000161296)
(0.00233139 0.0126127 0.000339495)
(0.00798882 0.0397282 0.000142001)
(0.00403038 0.0671361 0.000278722)
(0.00270689 0.124512 -0.000384921)
(0.00129191 0.140191 -0.000298621)
(-0.00526764 0.128501 0.000776954)
(-0.010754 0.115826 0.00167695)
(-0.0113027 0.113779 0.00396366)
(-0.0161463 0.10457 0.00359029)
(-0.017366 0.0965035 0.0033823)
(-0.0191304 0.0887364 0.00323384)
(-0.0105051 0.0870584 0.0049902)
(-0.01057 0.0833537 0.00431288)
(-0.0110221 0.0773157 0.00368089)
(-0.0113174 0.0658068 -5.11696e-05)
(-0.0140185 0.0498242 -0.000729001)
(-0.0202656 0.037839 -7.76428e-05)
(-0.0136021 0.0221915 -3.25174e-05)
(-0.00569157 0.00672769 5.21426e-05)
(-0.000627609 0.000300951 5.88389e-05)
(-0.000664559 4.65411e-06 0.000200132)
(-0.00707466 -0.00551927 0.000731094)
(-0.0209611 -0.019961 0.000898075)
(-0.0280071 -0.0316672 0.000655909)
(-0.0297418 -0.0347831 0.000563834)
(-0.02715 -0.0372795 0.000188271)
(-0.0210902 -0.0374436 0.00020714)
(-0.0133034 -0.0283647 0.000260744)
(-0.00531941 -0.00430694 0.000330511)
(0.00513381 0.0342602 -5.5896e-05)
(0.00251847 0.0654505 0.000196119)
(0.0022462 0.124159 -0.00024917)
(0.000663319 0.139351 -0.000436159)
(-0.00443428 0.127204 0.00040904)
(-0.00888071 0.112984 0.000741585)
(-0.0108654 0.107371 0.00154621)
(-0.0138761 0.0976649 0.00139518)
(-0.0142724 0.0882667 0.00127714)
(-0.0155934 0.0813812 0.00128688)
(-0.0144612 0.0821452 0.00283795)
(-0.0152724 0.0800246 0.00267193)
(-0.0152908 0.0754704 0.0024809)
(-0.00884832 0.0630853 0.000623376)
(-0.00720199 0.045679 -0.000141011)
(-0.00813558 0.0307364 -7.29517e-05)
(-0.00278896 0.0152067 5.64161e-05)
(0.000129167 0.00243455 5.08594e-05)
(0.00222476 -0.00181328 -1.62923e-06)
(0.000896948 -0.00025285 1.03336e-05)
(0.00172366 -0.00797402 0.000182727)
(-0.00505748 -0.0163883 0.000531516)
(-0.01683 -0.0353832 0.000472574)
(-0.0222437 -0.0417312 0.000553759)
(-0.0232106 -0.0430256 0.000198127)
(-0.0197976 -0.0440865 0.000128165)
(-0.0146952 -0.0388913 0.000188334)
(-0.00916605 -0.0156847 0.000256517)
(0.00226381 0.0295302 -0.000234984)
(0.00183479 0.0642181 0.000160236)
(0.00152344 0.124359 -0.000177557)
(7.27719e-05 0.138593 -0.000427439)
(-0.0034884 0.12647 0.000212368)
(-0.00657104 0.111219 0.000345515)
(-0.00762651 0.103725 0.000477783)
(-0.00907674 0.0934884 0.000382814)
(-0.00847157 0.0840787 0.000327922)
(-0.00941992 0.0768474 0.000389733)
(-0.009085 0.0743361 0.000925593)
(-0.010086 0.07339 0.000929617)
(-0.00983618 0.067652 0.00114763)
(-0.00396772 0.0587056 0.000791409)
(-0.00321266 0.0405957 0.000109343)
(-0.00126068 0.0262611 0.00011002)
(0.00110579 0.0100486 0.000116668)
(-0.00028836 0.00137285 -7.58126e-05)
(0.00265678 0.00123478 -0.000179927)
(-0.00690951 0.000203587 2.34235e-05)
(0.00359126 -0.000338524 -0.00111482)
(0.00386454 -0.0097425 5.03234e-06)
(-0.00667083 -0.0294624 0.000152532)
(-0.0152619 -0.0433076 0.000422427)
(-0.0188838 -0.0461545 0.000196687)
(-0.0180877 -0.0472403 5.39818e-05)
(-0.0149541 -0.0453509 0.000151982)
(-0.011346 -0.0288569 0.000288964)
(-0.000324229 0.0232921 -0.000213949)
(-0.000587474 0.0627659 2.54245e-05)
(0.00106429 0.124139 -5.86631e-06)
(-0.00026181 0.138512 -0.000368951)
(-0.00271106 0.126049 0.000140726)
(-0.00462783 0.110634 0.000145241)
(-0.00490255 0.102336 0.000158299)
(-0.00569675 0.0921288 0.000107254)
(-0.0049091 0.0825977 8.08852e-05)
(-0.00589299 0.075506 0.000101023)
(-0.00546517 0.0718211 0.000208847)
(-0.0105616 0.072538 0.000495815)
(-0.0101259 0.056928 0.000483304)
(-0.00221714 0.0531506 0.000416692)
(-0.000953924 0.0345298 3.36732e-05)
(0.00401917 0.0182247 2.37756e-06)
(0.00376568 0.0121112 -0.000190725)
(0.00488158 0.002877 -0.000334903)
(0.00462732 0.00706699 -0.000345876)
(0.0114234 0.00410696 -0.000442007)
(0.00808512 0.00282727 0.0006738)
(0.000549847 -0.00114555 -0.000312538)
(-0.00177671 -0.0247518 0.00029852)
(-0.0112404 -0.0439627 0.000433408)
(-0.0154519 -0.0485847 0.000437946)
(-0.0155464 -0.0490168 5.12815e-05)
(-0.0140228 -0.0484347 9.67544e-05)
(-0.0127464 -0.0365881 0.000494901)
(-0.00245178 0.0189033 0.000361898)
(-0.000539576 0.0616277 3.93607e-06)
(0.00047205 0.124608 -1.03449e-05)
(-0.000523544 0.138633 -0.000284932)
(-0.00206781 0.125359 0.000101727)
(-0.0031512 0.110399 5.14999e-05)
(-0.00276373 0.101646 4.39055e-05)
(-0.00321252 0.0913095 3.43778e-05)
(-0.00182723 0.0819779 1.66437e-05)
(-0.0034727 0.0756514 0.000111321)
(-0.00223228 0.0733499 0.000231972)
(-0.0151536 0.0717302 0.000977884)
(-0.0130117 0.0502344 -0.00088814)
(0.00293114 0.0505577 0.00229346)
(0.00119121 0.0360233 0.00107922)
(0.00530358 0.0179049 -8.84189e-05)
(0.00549102 0.0132525 -0.000191436)
(0.00479367 0.00711689 -5.76657e-05)
(0.00404261 0.00595842 -9.52693e-05)
(0.00638102 0.00365666 -0.000140985)
(0.00671 -0.00208816 0.000108575)
(0.00554613 0.0021962 0.000182827)
(0.0017997 -0.0217398 0.000333694)
(-0.00657211 -0.0451202 0.000476258)
(-0.0116171 -0.0500977 0.000421971)
(-0.0123935 -0.0504119 -2.429e-06)
(-0.011887 -0.0501267 3.54233e-05)
(-0.0113451 -0.0439714 0.000233452)
(-0.00317647 -0.00445741 0.000456988)
(0.00225869 0.0605681 5.76589e-05)
(-0.000234736 0.126411 -0.000227384)
(-0.000638067 0.139136 -0.000225339)
(-0.00166589 0.124782 2.37225e-05)
(-0.00222408 0.110314 7.88531e-06)
(-0.00145647 0.101177 -3.39971e-06)
(-0.00164277 0.0906848 -1.13401e-05)
(-0.000276724 0.0816354 -1.00819e-05)
(-0.00162423 0.0754122 3.62178e-05)
(-0.000991727 0.0752025 0.000250263)
(-0.0120724 0.070983 0.000504396)
(-0.00960821 0.0477495 4.30518e-05)
(-0.00249181 0.0476657 0.0012917)
(0.000364516 0.0368896 0.000671974)
(0.00253073 0.0188027 -4.72924e-05)
(0.00339016 0.0171232 -0.00022921)
(0.00410578 0.00728154 -6.62753e-05)
(0.00422622 0.00931315 -0.000163933)
(0.00653901 0.00710695 -0.000134818)
(0.00586363 -0.00030465 -3.42846e-05)
(0.00848474 0.00156713 -1.92969e-05)
(0.00756836 -0.0199124 0.000626579)
(-0.00303146 -0.0455812 0.0005332)
(-0.00775789 -0.05045 0.000360396)
(-0.00916281 -0.0516406 3.27107e-05)
(-0.00852154 -0.050615 1.68994e-05)
(-0.00758524 -0.0468468 5.1573e-05)
(-0.00165691 -0.0165797 2.79607e-05)
(0.00465735 0.0578676 0.000118224)
(-0.000803733 0.128993 -0.000380116)
(-0.000690751 0.139588 -0.000178174)
(-0.00134889 0.124477 -2.44073e-05)
(-0.00162779 0.109922 4.5398e-06)
(-0.000633981 0.100706 -1.46753e-05)
(-0.000774551 0.0903438 -1.69716e-05)
(0.000563025 0.0815684 -1.67707e-05)
(-0.000723801 0.0760809 3.17458e-05)
(-0.00037111 0.0774494 0.000198426)
(-0.0104178 0.0721971 0.00054119)
(-0.0117249 0.0424753 0.000124169)
(-0.0052326 0.0384427 0.00022635)
(-0.000339123 0.0314999 0.000120515)
(0.00225964 0.0177887 -8.90013e-05)
(0.00339044 0.014924 -1.57904e-05)
(0.00365291 0.00744087 -4.4122e-05)
(0.00522955 0.00526378 8.0827e-07)
(0.00620709 0.00343505 -4.63993e-06)
(0.00679458 -0.00187866 3.49217e-05)
(0.0127148 -0.00380881 0.000236921)
(0.0104726 -0.0233309 0.000905688)
(-0.00057462 -0.0468042 0.000563406)
(-0.00454385 -0.0509182 0.000239358)
(-0.00631065 -0.0527755 3.94598e-05)
(-0.00575106 -0.0517311 1.76546e-06)
(-0.0047757 -0.0496595 2.29973e-05)
(-6.85611e-05 -0.0226481 3.22639e-05)
(0.00473507 0.0557729 0.000145158)
(-0.00083206 0.130752 -0.000352323)
(-0.000746005 0.140458 -0.000157631)
(-0.0011958 0.1242 2.04191e-05)
(-0.00132622 0.109381 1.03232e-05)
(-0.000253547 0.100341 -1.80946e-05)
(-0.000394577 0.0900608 -2.62595e-05)
(0.000972819 0.0815907 -3.67546e-05)
(0.000114728 0.0766294 1.56769e-05)
(0.000109653 0.0797963 0.000220318)
(-0.00966527 0.0741206 0.000557798)
(-0.0110042 0.0388364 2.11163e-05)
(-0.00561752 0.0342647 -0.000174334)
(-0.00127301 0.0298571 -5.77554e-05)
(0.00109113 0.0163555 -0.000119202)
(0.00231459 0.0176783 1.06752e-05)
(0.00225709 0.00584907 -5.09606e-05)
(0.00499779 0.00817044 -1.20803e-05)
(0.00641309 0.00662546 4.0186e-05)
(0.00944578 -0.00574192 8.39607e-05)
(0.0153568 -0.00689712 0.000267926)
(0.012294 -0.0274541 0.000966176)
(0.00100824 -0.0475484 0.000417474)
(-0.00132833 -0.0506955 0.000197563)
(-0.00368501 -0.0524373 2.25046e-05)
(-0.00313478 -0.0518956 1.45495e-06)
(-0.00267454 -0.0512756 2.21758e-05)
(0.000763352 -0.0275445 6.40216e-05)
(0.00462895 0.0532865 0.000230667)
(-0.000952596 0.130815 -0.000325056)
(-0.000734542 0.141151 -0.000132512)
(-0.00106823 0.123586 5.00993e-05)
(-0.00118026 0.108638 1.23972e-05)
(-0.000140982 0.0999304 -1.91264e-05)
(-0.000268711 0.0897077 -2.8726e-05)
(0.00116408 0.0814132 -3.28947e-05)
(0.000400876 0.0771258 5.84632e-05)
(-0.000910189 0.0819546 0.000310451)
(-0.0107093 0.0748073 0.000652631)
(-0.0129284 0.0370943 0.000149027)
(-0.00704307 0.0304181 -0.000142808)
(-0.00327452 0.0267534 -1.1493e-05)
(-0.00131043 0.0148614 -5.40908e-05)
(0.000178831 0.0146545 -3.86619e-06)
(0.000165163 0.00470403 1.89826e-05)
(0.00452338 0.00208726 0.000179308)
(0.0098043 -0.000960414 0.000320746)
(0.0135706 -0.011123 0.0001947)
(0.0160853 -0.0127775 0.000133136)
(0.0113251 -0.0309234 0.000746461)
(0.00236868 -0.0469017 0.000201526)
(0.00091259 -0.0498352 0.000128963)
(-0.00163446 -0.0517865 9.52145e-06)
(-0.00154039 -0.0522187 -1.45551e-05)
(-0.00163607 -0.0524416 1.28378e-05)
(0.00102408 -0.0315285 7.99424e-05)
(0.00382713 0.0503495 0.000281006)
(-0.00109377 0.129951 -0.000280446)
(-0.000694802 0.142165 -0.00013353)
(-0.00107287 0.123039 -7.09403e-06)
(-0.00121995 0.108229 -1.49142e-05)
(-0.000281477 0.0997022 -2.62572e-05)
(-0.000216186 0.0894208 -3.95996e-05)
(0.00100948 0.081326 -1.11716e-05)
(0.000104375 0.0782078 8.48636e-05)
(-0.00243037 0.0840886 0.000394239)
(-0.0120311 0.0748 0.000670686)
(-0.0120444 0.0332988 0.000160721)
(-0.00691326 0.0260128 -0.000182279)
(-0.00332738 0.0246927 9.71213e-05)
(-0.00192235 0.0129106 -4.6119e-05)
(-0.000889983 0.0149348 0.000191293)
(0.00173846 -0.000181826 7.2824e-05)
(0.00829769 -0.00522836 0.000362095)
(0.0105064 -0.0093052 0.000377856)
(0.0140249 -0.0153666 6.3356e-05)
(0.0134 -0.0135952 0.000396336)
(0.00975072 -0.0313713 0.000462293)
(0.00316855 -0.0455863 3.56121e-05)
(0.00274825 -0.0477794 4.87332e-05)
(7.31443e-05 -0.0498879 -8.61306e-06)
(-0.000427132 -0.0515954 -1.39625e-05)
(-0.00122068 -0.0526434 -1.2654e-05)
(-0.000101032 -0.03429 4.63813e-05)
(0.0022582 0.0475929 0.000230573)
(-0.0015555 0.127546 -0.000142368)
(-0.000602838 0.143103 -0.000136205)
(-0.00111996 0.123047 -3.59345e-05)
(-0.00146732 0.107978 -3.08205e-05)
(-0.000609146 0.0993896 -3.85987e-05)
(-0.00043701 0.0890496 -3.06011e-05)
(0.000604344 0.081095 3.80684e-05)
(-0.00126709 0.0787912 0.000215415)
(-0.00487439 0.0851726 0.000477938)
(-0.0140657 0.0724163 0.00070011)
(-0.0117293 0.0304692 -2.00445e-06)
(-0.00896429 0.0227341 -9.6992e-05)
(-0.0043283 0.0233531 -0.000185577)
(-0.00583735 0.0114488 4.98392e-06)
(0.00112272 0.0109737 -0.000254287)
(0.00525913 -0.00706543 0.000404886)
(0.00677867 -0.0114185 -0.00027517)
(0.0128449 -0.0136863 -0.000178368)
(0.0138669 -0.0180569 0.000346943)
(0.0121765 -0.0150411 -0.000117943)
(0.0121099 -0.0298715 0.000326268)
(0.00445132 -0.0424741 -2.40321e-05)
(0.00429074 -0.0447405 2.6917e-05)
(0.00108799 -0.0475167 -3.78854e-05)
(9.35844e-08 -0.0506537 -1.96571e-05)
(-0.00160868 -0.0512096 -3.90325e-05)
(-0.00223331 -0.0350418 4.22892e-05)
(1.27009e-05 0.0453949 9.83532e-06)
(-0.00150122 0.123784 -4.39728e-05)
(-0.000613536 0.144286 -0.000152438)
(-0.001269 0.123368 7.78559e-06)
(-0.00177416 0.108308 -5.90502e-05)
(-0.00110956 0.0996091 -3.66939e-05)
(-0.00130242 0.0887733 -4.55084e-06)
(-0.00122 0.0811981 9.38062e-05)
(-0.00495263 0.0801292 0.000225173)
(-0.0106225 0.0863912 0.000421705)
(-0.0155164 0.0702556 0.000347918)
(-0.0123753 0.0282917 0.000201165)
(-0.0088047 0.0213049 -0.000111575)
(-0.00583209 0.0241301 5.24388e-05)
(-0.00586849 0.00991692 0.000194195)
(0.00246293 0.004404 0.00030272)
(0.00682084 -0.0107838 0.000113854)
(0.00901586 -0.0135681 0.000111268)
(0.00915357 -0.0158731 -2.39109e-05)
(0.0122456 -0.0182819 1.12924e-05)
(0.0145087 -0.0173015 0.000334773)
(0.0118423 -0.0276246 0.000186211)
(0.00472191 -0.038872 -0.00015881)
(0.00537268 -0.0410913 6.6983e-07)
(0.0018665 -0.0441373 -5.9868e-05)
(0.000271296 -0.0481993 4.43594e-06)
(-0.00196159 -0.0487598 -8.74457e-05)
(-0.00374057 -0.0342286 4.75334e-05)
(-0.0014641 0.0453848 -0.000365879)
(-7.01334e-05 0.122608 -1.82422e-06)
(-0.000497205 0.145605 -0.000179)
(-0.00150043 0.123718 2.82134e-05)
(-0.00231368 0.10872 -4.12186e-05)
(-0.00217834 0.0996536 2.39903e-05)
(-0.00326485 0.0889767 6.39911e-05)
(-0.00534309 0.0827562 0.000149489)
(-0.0105731 0.0836293 1.62634e-05)
(-0.0134129 0.0869974 5.99137e-05)
(-0.0152592 0.0655251 0.000355032)
(-0.0117464 0.0214647 0.00029437)
(-0.00600863 0.0153191 -0.000136378)
(-0.0045649 0.0202188 0.000196031)
(-0.000843325 -0.00123669 0.000183249)
(0.00167599 -0.0075044 0.000260046)
(0.00522504 -0.0165019 -0.000286856)
(0.008042 -0.0157831 0.000289073)
(0.00566905 -0.0178901 0.000399017)
(0.0111743 -0.024973 -0.000415104)
(0.0187365 -0.0240954 0.000568559)
(0.0157468 -0.027916 0.000881428)
(0.00450001 -0.0353014 -0.000104117)
(0.00602507 -0.0381756 6.42868e-05)
(0.00227269 -0.0412587 -3.70554e-05)
(0.000744211 -0.04582 1.85301e-05)
(-0.00171523 -0.0456818 -7.30441e-05)
(-0.00351518 -0.0320584 6.23027e-05)
(-0.00188187 0.0472052 -0.000505059)
(0.00151236 0.123548 8.1494e-05)
(-0.000509826 0.147075 -0.000211136)
(-0.00179885 0.124513 -1.75078e-05)
(-0.00298443 0.109697 -2.7141e-05)
(-0.00360485 0.100647 -5.99661e-06)
(-0.00593889 0.0907672 -4.3787e-05)
(-0.00872554 0.0866396 -0.000121405)
(-0.0138498 0.0898183 -0.000183794)
(-0.0174571 0.0910863 0.000111962)
(-0.0216787 0.0655052 0.000261698)
(-0.012473 0.0206239 -0.000383663)
(-0.00593446 0.0170382 -0.000380684)
(0.000175505 0.0224263 -0.000662963)
(0.00181262 -0.00251026 -7.71228e-05)
(0.0015937 -0.00836404 -0.000468516)
(0.0011292 -0.0151256 -0.000292322)
(0.000443789 -0.015638 -0.000705222)
(0.00670004 -0.0202601 -0.000680262)
(0.00957761 -0.0270682 -0.000458079)
(0.023229 -0.0317912 -0.000603824)
(0.021219 -0.0352038 0.00145562)
(0.00740013 -0.0332744 -1.48625e-06)
(0.0070206 -0.0353841 8.73571e-05)
(0.00348445 -0.0383609 -1.51949e-05)
(0.00141716 -0.0428493 2.17952e-05)
(-0.000865305 -0.0434638 -9.52707e-05)
(-0.00193598 -0.0304483 1.93595e-05)
(-0.00118086 0.0489537 -0.000376682)
(0.00235814 0.125692 0.000106389)
(-0.000342497 0.149021 -0.000322852)
(-0.00218962 0.12586 -4.31442e-05)
(-0.00406107 0.111055 -1.68064e-07)
(-0.00564417 0.103233 5.91991e-06)
(-0.00905015 0.0958088 -1.48466e-05)
(-0.0130247 0.0950931 -4.11727e-05)
(-0.0185715 0.0993391 -0.000121423)
(-0.0229626 0.0955948 -0.00177153)
(-0.0282765 0.0560335 -0.00018995)
(-0.0158927 0.0184327 -0.000527011)
(-0.00755227 0.0165433 -0.00068101)
(-0.00701439 0.0244921 -0.000713245)
(-0.00578999 0.00318655 -0.0010135)
(-0.00486533 0.000585382 -0.00121119)
(-0.00325302 -0.00430186 -0.00149045)
(-0.00334773 -0.0056705 -0.00176918)
(0.00425482 -0.00898615 -0.00212003)
(0.00554176 -0.0143597 -0.00203314)
(0.0242535 -0.0188713 -0.00235922)
(0.0232599 -0.025804 4.44203e-05)
(0.0111106 -0.0255434 -0.000173519)
(0.00753354 -0.0293566 -4.72362e-05)
(0.0042382 -0.0347567 -4.39138e-05)
(0.00201687 -0.0400028 -8.13851e-06)
(0.000170269 -0.041858 -7.67713e-06)
(-0.000403735 -0.0289099 -3.10834e-05)
(-0.000652576 0.0489519 -0.000174726)
(0.00232429 0.127926 6.15814e-05)
(-0.000256875 0.151482 -0.000284545)
(-0.00213538 0.12864 -1.46304e-05)
(-0.00435457 0.11385 1.63531e-05)
(-0.00643027 0.107074 3.24297e-05)
(-0.00984461 0.100467 3.94717e-05)
(-0.0130701 0.0998595 5.11771e-05)
(-0.0162002 0.102891 0.00026911)
(-0.0164345 0.0961268 -0.00428211)
(-0.00933366 0.0461487 -0.00199963)
(0.000947436 0.0213427 0.0012294)
(-0.00144406 0.0373585 0.000957248)
(-0.00989581 0.0355687 0.000940533)
(-0.00697228 0.00997057 0.000717909)
(-0.00417723 0.00613519 0.000680901)
(-0.00218563 0.00742048 0.000577941)
(-0.00156314 0.00844858 0.000511155)
(0.00138493 0.00969386 0.000337786)
(0.00317694 0.00541925 0.000320395)
(0.00494815 0.00309906 0.000290926)
(0.00431919 -0.0158394 0.000176524)
(0.00341796 -0.0206828 -4.41068e-05)
(0.00371465 -0.0266131 -2.97049e-06)
(0.0024974 -0.0327012 -1.22262e-05)
(0.00151479 -0.0380127 5.84039e-06)
(0.000479523 -0.0394642 8.16429e-05)
(0.000336988 -0.0271142 -7.58142e-05)
(-0.000303049 0.0485817 -5.97769e-05)
(0.00187471 0.130626 2.97901e-05)
(-5.76455e-05 0.153242 -0.000328547)
(-0.0024489 0.130431 2.1415e-05)
(-0.00523721 0.11611 1.83564e-05)
(-0.00744524 0.110002 1.79077e-05)
(-0.0100337 0.104007 1.46603e-05)
(-0.0129381 0.103279 -2.27464e-05)
(-0.0142058 0.105825 0.000158489)
(-0.0159431 0.0858629 0.000475571)
(-0.0063882 0.00987581 -1.74247e-05)
(-0.00407863 -0.0079574 0.000130315)
(-0.00162576 0.0214256 0.000592919)
(-0.00405829 0.0251207 7.81569e-05)
(-0.00175922 -0.00761818 2.25897e-05)
(-0.00207022 -0.00961996 -0.000120343)
(-0.00114525 -0.00901014 -0.000125135)
(-0.000788834 -0.00979044 -7.68272e-05)
(0.00168088 -0.010095 -9.67481e-05)
(0.00318527 -0.0119171 -7.33393e-05)
(0.00589797 -0.0143929 -0.000152209)
(0.006419 -0.0182268 -3.75694e-05)
(0.00418691 -0.0204187 -5.72379e-05)
(0.00357261 -0.0249088 -1.5215e-05)
(0.00246499 -0.0311541 -2.60878e-05)
(0.00183416 -0.0366754 -2.3194e-05)
(0.000990875 -0.0343041 0.000250464)
(0.00101936 -0.0253851 -5.19802e-05)
(0.000260962 0.0477797 1.38256e-05)
(0.00148023 0.132387 -6.81848e-06)
(7.90583e-05 0.155621 -0.000304262)
(-0.00236001 0.133676 3.20017e-06)
(-0.00512457 0.119665 -1.17735e-05)
(-0.00646177 0.112926 6.37051e-07)
(-0.00863222 0.106677 5.70713e-05)
(-0.0107333 0.105853 3.53772e-05)
(-0.011538 0.10751 0.000380894)
(-0.0100438 0.0581717 0.00296832)
(-0.00313115 0.00140862 0.000267644)
(-0.00351247 -0.00347619 0.000220751)
(-0.00318615 0.00691799 0.000199966)
(0.00188807 0.0228305 0.000850555)
(0.00174338 0.00191935 0.000197186)
(-0.000454509 -0.00142854 9.88525e-05)
(-0.000349988 -0.0016453 9.75078e-05)
(-0.000566422 -0.0035607 9.82281e-05)
(0.000419035 -0.00423393 4.55562e-05)
(0.00119356 -0.00703414 5.91347e-05)
(0.00213725 -0.00964955 2.15747e-05)
(0.00245423 -0.0150377 1.95224e-05)
(0.00204424 -0.0187217 -1.85122e-05)
(0.0019057 -0.0239126 -1.27854e-05)
(0.00153179 -0.0302223 -1.59531e-05)
(0.00161698 -0.0357244 -2.18451e-05)
(0.000983224 -0.0284541 0.000209728)
(0.00125613 -0.0237504 -1.5699e-05)
(0.000579031 0.047409 7.20348e-05)
(0.000914356 0.134363 -4.97267e-05)
(0.000119892 0.156914 -0.000365321)
(-0.00269623 0.135796 -2.82763e-05)
(-0.00565885 0.121914 -1.7641e-05)
(-0.00760316 0.114935 5.49258e-05)
(-0.0110007 0.108977 8.60394e-05)
(-0.0130122 0.107391 2.87586e-05)
(-0.0172653 0.105272 0.000352459)
(-0.00199952 0.0320689 0.00187226)
(0.00290362 -0.00380679 0.000112905)
(-0.00141944 -0.0079105 -0.000140579)
(-0.00212039 -0.00393189 0.00014532)
(0.000306017 0.00193492 -0.000145355)
(0.0017385 -0.00452712 4.18324e-05)
(3.56578e-05 -0.00549872 -6.45484e-05)
(5.19139e-05 -0.00677107 -5.72738e-05)
(5.10785e-05 -0.00814358 -5.08948e-05)
(0.000751499 -0.00874231 -6.06367e-05)
(0.00115306 -0.0104411 -3.24223e-05)
(0.00171732 -0.0120576 -5.36343e-05)
(0.001826 -0.0153145 -1.79337e-05)
(0.00150458 -0.0185046 -1.06821e-05)
(0.0013565 -0.0230696 -4.74608e-06)
(0.00108887 -0.0294583 -1.90293e-05)
(0.00144673 -0.0351062 -4.08457e-05)
(0.00117505 -0.0265954 -0.000119539)
(0.00134013 -0.0225092 4.16874e-05)
(0.00080217 0.0468584 9.74524e-05)
(0.000484498 0.135385 -7.70949e-05)
(8.92795e-05 0.159552 -0.000344597)
(-0.00264315 0.139913 -1.08739e-05)
(-0.00556788 0.126096 -6.50293e-06)
(-0.00721453 0.11816 2.42244e-05)
(-0.0103867 0.111725 7.87903e-05)
(-0.0118728 0.110997 0.000158056)
(-0.022038 0.0945041 0.000405014)
(-0.00193421 0.010616 0.00131763)
(0.00293906 -0.0066991 7.92773e-05)
(-3.15424e-05 -0.00727283 7.31007e-05)
(-0.000540049 -0.00499936 0.000249613)
(0.000115153 -0.00208733 0.000141353)
(0.000564925 -0.0033769 0.000150437)
(-0.000188751 -0.00457065 4.74411e-05)
(-0.000197056 -0.0054968 3.68638e-05)
(-0.000187955 -0.00657901 1.72958e-05)
(0.000191602 -0.00762185 1.26034e-05)
(0.000415479 -0.00950049 9.15443e-06)
(0.000685279 -0.0112889 1.89682e-07)
(0.000806241 -0.0144014 2.51258e-06)
(0.000648029 -0.01786 -1.3005e-05)
(0.000662961 -0.0224187 -2.4959e-05)
(0.000645057 -0.028403 -4.6205e-05)
(0.00112936 -0.0340174 -6.01383e-05)
(0.00104367 -0.0248513 -6.5424e-05)
(0.00117537 -0.0206978 0.000179039)
(0.0010137 0.0464707 0.000101602)
(4.89873e-05 0.136901 -0.000112104)
(0.000143406 0.160143 -0.000371993)
(-0.00307285 0.141025 4.90465e-05)
(-0.0060509 0.127458 2.67329e-05)
(-0.00831824 0.119812 5.24045e-05)
(-0.0116369 0.114324 3.36386e-05)
(-0.0135911 0.11262 0.00012518)
(-0.0115046 0.0842716 -0.000306514)
(0.00151409 0.00522575 0.000583981)
(0.00189286 -0.00682216 -8.19376e-06)
(0.000352774 -0.00825955 -2.16704e-05)
(-7.19796e-05 -0.00693337 -9.11216e-06)
(3.99958e-05 -0.0052934 2.04875e-05)
(7.86264e-05 -0.00560436 -1.05086e-05)
(-0.000101484 -0.00593608 -2.00283e-05)
(-0.000115505 -0.00626751 -1.79206e-05)
(-3.12396e-05 -0.00694694 -3.58212e-05)
(0.000195959 -0.00813142 -1.77447e-05)
(0.000189394 -0.00964827 -1.6634e-05)
(0.00029922 -0.0114058 -1.79116e-05)
(0.000332999 -0.0140875 -1.5664e-05)
(0.000390459 -0.0171381 -1.51606e-05)
(0.000442246 -0.0210392 -1.33631e-05)
(0.000414155 -0.0263149 -3.26417e-05)
(0.000506961 -0.0318078 -3.12946e-05)
(0.000774791 -0.0241543 -0.000184908)
(0.000857786 -0.0179438 0.000484217)
(0.0009537 0.0462459 0.00012823)
(-0.000340389 0.137345 -6.68682e-05)
(-0.000101681 0.164979 -0.000548718)
(-0.00317089 0.146576 -0.000113352)
(-0.00549744 0.132903 -3.77033e-05)
(-0.00781416 0.124482 5.11612e-05)
(-0.0105258 0.117948 0.000213363)
(-0.0155683 0.106536 0.0003353)
(-0.00303052 0.0498722 -0.00315192)
(0.00101742 -0.00297706 -0.00015794)
(0.000639446 -0.00681698 -6.31638e-05)
(3.11581e-05 -0.00754017 -7.5229e-05)
(-5.10516e-05 -0.00657722 -8.00278e-05)
(-2.65695e-06 -0.00577216 -6.94357e-05)
(-1.88808e-05 -0.00566714 -7.22398e-05)
(-7.09725e-05 -0.00538079 -7.19513e-05)
(-9.72573e-05 -0.00570586 -7.47606e-05)
(-9.89619e-05 -0.00617422 -8.68909e-05)
(-4.46722e-05 -0.00739114 -9.88842e-05)
(-1.08666e-05 -0.00869697 -0.000115199)
(2.36746e-05 -0.0102325 -0.000128687)
(3.80328e-05 -0.012535 -0.000145099)
(6.09537e-05 -0.0151837 -0.000163562)
(0.000121013 -0.0185057 -0.000178726)
(0.000153698 -0.0222183 -0.000193629)
(0.000114098 -0.0269417 -0.00018783)
(0.000386535 -0.0286904 -0.000185001)
(0.000579021 -0.0100552 0.00136528)
(0.000853296 0.0446953 9.01273e-05)
(-0.000293538 0.1375 -5.42714e-05)
(-0.0137453 0.0191899 -0.00412557)
(-0.0243457 0.0189259 -0.00650194)
(-0.0363097 0.0189216 -0.00532517)
(-0.0420343 0.0191206 -0.00492825)
(-0.0523615 0.0201329 -0.00478763)
(-0.0581769 0.0192711 -0.00458212)
(-0.0669841 0.0190636 -0.0045034)
(-0.0730615 0.018303 -0.00437358)
(-0.0806034 0.0184691 -0.00425951)
(-0.0863085 0.0193958 -0.00420561)
(-0.0927827 0.0210929 -0.00423056)
(-0.0980361 0.0224244 -0.00433425)
(-0.1033 0.0226194 -0.004368)
(-0.106662 0.0237046 -0.00457876)
(-0.108597 0.02481 -0.00485409)
(-0.108605 0.0262868 -0.00532812)
(-0.105459 0.0272068 -0.00590389)
(-0.0980869 0.0279389 -0.00653992)
(-0.0864124 0.0276209 -0.00713346)
(-0.069059 0.0254874 -0.00772747)
(-0.0482947 0.0228076 -0.00828856)
(-0.0210755 0.0207139 -0.00877289)
(0.00355021 0.0196147 -0.00850848)
(0.0302627 0.0193159 -0.00790733)
(0.0548954 0.0202704 -0.00598841)
(0.0589147 0.0252308 -0.00413304)
(0.04666 0.0278851 -0.00348743)
(0.0265648 0.0243203 -0.00268134)
(-0.0235461 0.120647 -0.00341999)
(-0.0258509 0.09295 -0.00283217)
(-0.0337615 0.0852725 -0.00316065)