/*--------------------------------*- C++ -*----------------------------------*\
| =========                 |                                                 |
| \\      /  F ield         | OpenFOAM: The Open Source CFD Toolbox           |
|  \\    /   O peration     | Version:  2.3.0                                 |
|   \\  /    A nd           | Web:      www.OpenFOAM.org                      |
|    \\/     M anipulation  |                                                 |
\*---------------------------------------------------------------------------*/
FoamFile
{
    version     2.0;
    format      ascii;
    class       volScalarField;
    location    "0.136";
    object      epsilon;
}
// * * * * * * * * * * * * * * * * * * * * * * * * * * * * * * * * * * * * * //

dimensions      [0 2 -3 0 0 0 0];

internalField   nonuniform List<scalar> 
545
(
1.5994e+08
1.52306e+08
1.40125e+08
1.29616e+08
1.22423e+08
1.63035e+08
1.52657e+08
1.39752e+08
1.28974e+08
1.21222e+08
1.68357e+08
1.52943e+08
1.38858e+08
1.27643e+08
1.19073e+08
1.76404e+08
1.52711e+08
1.37424e+08
1.25738e+08
1.15787e+08
1.88334e+08
1.514e+08
1.35773e+08
1.23697e+08
1.11158e+08
1.18745e+08
1.16736e+08
1.16095e+08
1.15891e+08
1.15826e+08
1.15803e+08
1.15794e+08
1.15789e+08
1.15786e+08
1.15783e+08
1.1578e+08
1.15777e+08
1.15775e+08
1.15772e+08
1.1577e+08
1.15767e+08
1.15765e+08
1.15763e+08
1.15761e+08
1.15759e+08
1.15757e+08
1.15755e+08
1.15753e+08
1.15752e+08
1.1575e+08
1.15749e+08
1.15747e+08
1.15746e+08
1.15745e+08
1.15743e+08
1.15742e+08
1.15741e+08
1.1574e+08
1.15739e+08
1.15738e+08
1.15738e+08
1.15737e+08
1.15736e+08
1.15736e+08
1.15735e+08
1.15735e+08
1.15735e+08
1.15735e+08
1.15734e+08
1.15734e+08
1.17826e+08
1.16454e+08
1.16006e+08
1.15863e+08
1.15817e+08
1.158e+08
1.15793e+08
1.15789e+08
1.15786e+08
1.15783e+08
1.1578e+08
1.15777e+08
1.15775e+08
1.15772e+08
1.1577e+08
1.15767e+08
1.15765e+08
1.15763e+08
1.15761e+08
1.15759e+08
1.15757e+08
1.15755e+08
1.15753e+08
1.15752e+08
1.1575e+08
1.15749e+08
1.15747e+08
1.15746e+08
1.15744e+08
1.15743e+08
1.15742e+08
1.15741e+08
1.1574e+08
1.15739e+08
1.15738e+08
1.15738e+08
1.15737e+08
1.15736e+08
1.15736e+08
1.15735e+08
1.15735e+08
1.15735e+08
1.15734e+08
1.15734e+08
1.15734e+08
1.16488e+08
1.15983e+08
1.15854e+08
1.15816e+08
1.15802e+08
1.15796e+08
1.15792e+08
1.15788e+08
1.15785e+08
1.15782e+08
1.1578e+08
1.15777e+08
1.15774e+08
1.15772e+08
1.1577e+08
1.15767e+08
1.15765e+08
1.15763e+08
1.15761e+08
1.15759e+08
1.15757e+08
1.15755e+08
1.15753e+08
1.15752e+08
1.1575e+08
1.15748e+08
1.15747e+08
1.15746e+08
1.15744e+08
1.15743e+08
1.15742e+08
1.15741e+08
1.1574e+08
1.15739e+08
1.15738e+08
1.15737e+08
1.15737e+08
1.15736e+08
1.15736e+08
1.15735e+08
1.15735e+08
1.15735e+08
1.15734e+08
1.15734e+08
1.15734e+08
1.14747e+08
1.15432e+08
1.15685e+08
1.15763e+08
1.15786e+08
1.15791e+08
1.1579e+08
1.15788e+08
1.15785e+08
1.15782e+08
1.1578e+08
1.15777e+08
1.15774e+08
1.15772e+08
1.1577e+08
1.15767e+08
1.15765e+08
1.15763e+08
1.15761e+08
1.15759e+08
1.15757e+08
1.15755e+08
1.15753e+08
1.15752e+08
1.1575e+08
1.15748e+08
1.15747e+08
1.15746e+08
1.15744e+08
1.15743e+08
1.15742e+08
1.15741e+08
1.1574e+08
1.15739e+08
1.15738e+08
1.15737e+08
1.15737e+08
1.15736e+08
1.15736e+08
1.15735e+08
1.15735e+08
1.15735e+08
1.15734e+08
1.15734e+08
1.15734e+08
1.12718e+08
1.14967e+08
1.1555e+08
1.15722e+08
1.15773e+08
1.15787e+08
1.15789e+08
1.15787e+08
1.15785e+08
1.15782e+08
1.1578e+08
1.15777e+08
1.15774e+08
1.15772e+08
1.15769e+08
1.15767e+08
1.15765e+08
1.15763e+08
1.15761e+08
1.15759e+08
1.15757e+08
1.15755e+08
1.15753e+08
1.15751e+08
1.1575e+08
1.15748e+08
1.15747e+08
1.15746e+08
1.15744e+08
1.15743e+08
1.15742e+08
1.15741e+08
1.1574e+08
1.15739e+08
1.15738e+08
1.15737e+08
1.15737e+08
1.15736e+08
1.15736e+08
1.15735e+08
1.15735e+08
1.15734e+08
1.15734e+08
1.15734e+08
1.15734e+08
1.12944e+08
1.14825e+08
1.15496e+08
1.15705e+08
1.15768e+08
1.15785e+08
1.15788e+08
1.15787e+08
1.15785e+08
1.15782e+08
1.1578e+08
1.15777e+08
1.15774e+08
1.15772e+08
1.15769e+08
1.15767e+08
1.15765e+08
1.15763e+08
1.15761e+08
1.15759e+08
1.15757e+08
1.15755e+08
1.15753e+08
1.15751e+08
1.1575e+08
1.15748e+08
1.15747e+08
1.15746e+08
1.15744e+08
1.15743e+08
1.15742e+08
1.15741e+08
1.1574e+08
1.15739e+08
1.15738e+08
1.15737e+08
1.15737e+08
1.15736e+08
1.15736e+08
1.15735e+08
1.15735e+08
1.15734e+08
1.15734e+08
1.15734e+08
1.15734e+08
1.88334e+08
1.514e+08
1.35773e+08
1.23697e+08
1.11158e+08
1.76404e+08
1.52711e+08
1.37424e+08
1.25738e+08
1.15787e+08
1.68357e+08
1.52943e+08
1.38858e+08
1.27643e+08
1.19073e+08
1.63035e+08
1.52657e+08
1.39752e+08
1.28974e+08
1.21222e+08
1.5994e+08
1.52306e+08
1.40125e+08
1.29616e+08
1.22423e+08
1.12718e+08
1.14967e+08
1.1555e+08
1.15722e+08
1.15773e+08
1.15787e+08
1.15789e+08
1.15787e+08
1.15785e+08
1.15782e+08
1.1578e+08
1.15777e+08
1.15774e+08
1.15772e+08
1.15769e+08
1.15767e+08
1.15765e+08
1.15763e+08
1.15761e+08
1.15759e+08
1.15757e+08
1.15755e+08
1.15753e+08
1.15751e+08
1.1575e+08
1.15748e+08
1.15747e+08
1.15746e+08
1.15744e+08
1.15743e+08
1.15742e+08
1.15741e+08
1.1574e+08
1.15739e+08
1.15738e+08
1.15737e+08
1.15737e+08
1.15736e+08
1.15736e+08
1.15735e+08
1.15735e+08
1.15734e+08
1.15734e+08
1.15734e+08
1.15734e+08
1.14747e+08
1.15432e+08
1.15685e+08
1.15763e+08
1.15786e+08
1.15791e+08
1.1579e+08
1.15788e+08
1.15785e+08
1.15782e+08
1.1578e+08
1.15777e+08
1.15774e+08
1.15772e+08
1.1577e+08
1.15767e+08
1.15765e+08
1.15763e+08
1.15761e+08
1.15759e+08
1.15757e+08
1.15755e+08
1.15753e+08
1.15752e+08
1.1575e+08
1.15748e+08
1.15747e+08
1.15746e+08
1.15744e+08
1.15743e+08
1.15742e+08
1.15741e+08
1.1574e+08
1.15739e+08
1.15738e+08
1.15737e+08
1.15737e+08
1.15736e+08
1.15736e+08
1.15735e+08
1.15735e+08
1.15735e+08
1.15734e+08
1.15734e+08
1.15734e+08
1.16488e+08
1.15983e+08
1.15854e+08
1.15816e+08
1.15802e+08
1.15796e+08
1.15792e+08
1.15788e+08
1.15785e+08
1.15782e+08
1.1578e+08
1.15777e+08
1.15774e+08
1.15772e+08
1.1577e+08
1.15767e+08
1.15765e+08
1.15763e+08
1.15761e+08
1.15759e+08
1.15757e+08
1.15755e+08
1.15753e+08
1.15752e+08
1.1575e+08
1.15748e+08
1.15747e+08
1.15746e+08
1.15744e+08
1.15743e+08
1.15742e+08
1.15741e+08
1.1574e+08
1.15739e+08
1.15738e+08
1.15737e+08
1.15737e+08
1.15736e+08
1.15736e+08
1.15735e+08
1.15735e+08
1.15735e+08
1.15734e+08
1.15734e+08
1.15734e+08
1.17826e+08
1.16454e+08
1.16006e+08
1.15863e+08
1.15817e+08
1.158e+08
1.15793e+08
1.15789e+08
1.15786e+08
1.15783e+08
1.1578e+08
1.15777e+08
1.15775e+08
1.15772e+08
1.1577e+08
1.15767e+08
1.15765e+08
1.15763e+08
1.15761e+08
1.15759e+08
1.15757e+08
1.15755e+08
1.15753e+08
1.15752e+08
1.1575e+08
1.15749e+08
1.15747e+08
1.15746e+08
1.15744e+08
1.15743e+08
1.15742e+08
1.15741e+08
1.1574e+08
1.15739e+08
1.15738e+08
1.15738e+08
1.15737e+08
1.15736e+08
1.15736e+08
1.15735e+08
1.15735e+08
1.15735e+08
1.15734e+08
1.15734e+08
1.15734e+08
1.18745e+08
1.16736e+08
1.16095e+08
1.15891e+08
1.15826e+08
1.15803e+08
1.15794e+08
1.15789e+08
1.15786e+08
1.15783e+08
1.1578e+08
1.15777e+08
1.15775e+08
1.15772e+08
1.1577e+08
1.15767e+08
1.15765e+08
1.15763e+08
1.15761e+08
1.15759e+08
1.15757e+08
1.15755e+08
1.15753e+08
1.15752e+08
1.1575e+08
1.15749e+08
1.15747e+08
1.15746e+08
1.15745e+08
1.15743e+08
1.15742e+08
1.15741e+08
1.1574e+08
1.15739e+08
1.15738e+08
1.15738e+08
1.15737e+08
1.15736e+08
1.15736e+08
1.15735e+08
1.15735e+08
1.15735e+08
1.15735e+08
1.15734e+08
1.15734e+08
)
;

boundaryField
{
    AirInlet
    {
        type            fixedValue;
        value           uniform 0.1;
    }
    WaterInlet
    {
        type            fixedValue;
        value           uniform 0.1;
    }
    ChannelWall
    {
        type            fixedValue;
        value           uniform 0.1;
    }
    Outlet
    {
        type            inletOutlet;
        inletValue      uniform 0.1;
        value           nonuniform List<scalar> 
11
(
1.15734e+08
1.15734e+08
1.15734e+08
1.15734e+08
1.15734e+08
1.15734e+08
1.15734e+08
1.15734e+08
1.15734e+08
1.15734e+08
1.15734e+08
)
;
    }
    FrontAndBack
    {
        type            empty;
    }
}


// ************************************************************************* //
