/*--------------------------------*- C++ -*----------------------------------*\
| =========                 |                                                 |
| \\      /  F ield         | OpenFOAM: The Open Source CFD Toolbox           |
|  \\    /   O peration     | Version:  2.3.0                                 |
|   \\  /    A nd           | Web:      www.OpenFOAM.org                      |
|    \\/     M anipulation  |                                                 |
\*---------------------------------------------------------------------------*/
FoamFile
{
    version     2.0;
    format      ascii;
    class       volScalarField;
    location    "0.136";
    object      k;
}
// * * * * * * * * * * * * * * * * * * * * * * * * * * * * * * * * * * * * * //

dimensions      [0 2 -2 0 0 0 0];

internalField   nonuniform List<scalar> 
545
(
115118
109624
100855
93290.8
88113.8
117347
109877
100587
92828.9
87249
121178
110082
99943.4
91870.7
85701.9
126972
109915
98910.5
90499.3
83336.7
135561
108971
97722.1
89029.5
80004.4
85467.6
84022.1
83562.1
83416.8
83370.8
83355.7
83350.3
83347.9
83346.4
83345.3
83344.3
83343.3
83342.4
83341.5
83340.7
83339.9
83339.1
83338.3
83337.6
83336.9
83336.2
83335.6
83334.9
83334.3
83333.8
83333.2
83332.7
83332.2
83331.8
83331.4
83331
83330.6
83330.2
83329.9
83329.6
83329.4
83329.1
83328.9
83328.7
83328.6
83328.4
83328.3
83328.3
83328.2
83328.2
84805.6
83819.5
83498
83396.7
83364.4
83353.7
83349.6
83347.6
83346.3
83345.2
83344.2
83343.3
83342.4
83341.5
83340.7
83339.8
83339
83338.3
83337.5
83336.8
83336.2
83335.5
83334.9
83334.3
83333.7
83333.2
83332.7
83332.2
83331.7
83331.3
83330.9
83330.5
83330.2
83329.9
83329.6
83329.3
83329.1
83328.9
83328.7
83328.5
83328.4
83328.3
83328.2
83328.2
83328.1
83842.5
83480.1
83389.1
83362.5
83353.8
83350.4
83348.6
83347.3
83346.2
83345.2
83344.2
83343.3
83342.4
83341.5
83340.6
83339.8
83339
83338.3
83337.5
83336.8
83336.1
83335.5
83334.9
83334.3
83333.7
83333.2
83332.7
83332.2
83331.7
83331.3
83330.9
83330.5
83330.2
83329.9
83329.6
83329.3
83329.1
83328.8
83328.7
83328.5
83328.4
83328.3
83328.2
83328.1
83328.1
82589.6
83083.9
83267
83324.8
83342.1
83346.7
83347.4
83346.9
83346.1
83345.1
83344.2
83343.2
83342.3
83341.5
83340.6
83339.8
83339
83338.2
83337.5
83336.8
83336.1
83335.5
83334.9
83334.3
83333.7
83333.2
83332.6
83332.2
83331.7
83331.3
83330.9
83330.5
83330.2
83329.8
83329.5
83329.3
83329
83328.8
83328.6
83328.5
83328.4
83328.3
83328.2
83328.1
83328.1
81129
82748.8
83170.1
83295.3
83333
83343.9
83346.5
83346.6
83346
83345.1
83344.2
83343.2
83342.3
83341.5
83340.6
83339.8
83339
83338.2
83337.5
83336.8
83336.1
83335.5
83334.8
83334.2
83333.7
83333.1
83332.6
83332.1
83331.7
83331.3
83330.9
83330.5
83330.1
83329.8
83329.5
83329.3
83329
83328.8
83328.6
83328.5
83328.3
83328.2
83328.2
83328.1
83328.1
81291.4
82646.9
83130.9
83282.7
83329.1
83342.7
83346.2
83346.5
83345.9
83345.1
83344.2
83343.2
83342.3
83341.5
83340.6
83339.8
83339
83338.2
83337.5
83336.8
83336.1
83335.5
83334.8
83334.2
83333.7
83333.1
83332.6
83332.1
83331.7
83331.3
83330.9
83330.5
83330.1
83329.8
83329.5
83329.3
83329
83328.8
83328.6
83328.5
83328.3
83328.2
83328.2
83328.1
83328.1
135561
108971
97722.1
89029.5
80004.4
126972
109915
98910.5
90499.3
83336.7
121178
110082
99943.4
91870.7
85701.9
117347
109877
100587
92828.9
87248.9
115118
109624
100855
93290.8
88113.8
81129
82748.8
83170.1
83295.3
83333
83343.9
83346.5
83346.6
83346
83345.1
83344.2
83343.2
83342.3
83341.5
83340.6
83339.8
83339
83338.2
83337.5
83336.8
83336.1
83335.5
83334.8
83334.2
83333.7
83333.1
83332.6
83332.2
83331.7
83331.3
83330.9
83330.5
83330.1
83329.8
83329.5
83329.3
83329
83328.8
83328.6
83328.5
83328.3
83328.2
83328.2
83328.1
83328.1
82589.6
83083.9
83267
83324.8
83342.1
83346.7
83347.4
83346.9
83346.1
83345.1
83344.2
83343.2
83342.3
83341.5
83340.6
83339.8
83339
83338.2
83337.5
83336.8
83336.1
83335.5
83334.9
83334.3
83333.7
83333.2
83332.6
83332.2
83331.7
83331.3
83330.9
83330.5
83330.2
83329.8
83329.5
83329.3
83329
83328.8
83328.6
83328.5
83328.4
83328.3
83328.2
83328.1
83328.1
83842.5
83480.1
83389.1
83362.5
83353.8
83350.4
83348.6
83347.3
83346.2
83345.2
83344.2
83343.3
83342.4
83341.5
83340.6
83339.8
83339
83338.3
83337.5
83336.8
83336.1
83335.5
83334.9
83334.3
83333.7
83333.2
83332.7
83332.2
83331.7
83331.3
83330.9
83330.5
83330.2
83329.9
83329.6
83329.3
83329.1
83328.8
83328.7
83328.5
83328.4
83328.3
83328.2
83328.1
83328.1
84805.6
83819.5
83498
83396.7
83364.4
83353.7
83349.6
83347.6
83346.3
83345.2
83344.2
83343.3
83342.4
83341.5
83340.7
83339.8
83339
83338.3
83337.5
83336.8
83336.2
83335.5
83334.9
83334.3
83333.7
83333.2
83332.7
83332.2
83331.7
83331.3
83330.9
83330.5
83330.2
83329.9
83329.6
83329.3
83329.1
83328.9
83328.7
83328.5
83328.4
83328.3
83328.2
83328.2
83328.1
85467.6
84022.1
83562
83416.8
83370.7
83355.7
83350.2
83347.8
83346.4
83345.3
83344.3
83343.3
83342.4
83341.5
83340.7
83339.9
83339.1
83338.3
83337.6
83336.9
83336.2
83335.5
83334.9
83334.3
83333.8
83333.2
83332.7
83332.2
83331.8
83331.3
83330.9
83330.6
83330.2
83329.9
83329.6
83329.4
83329.1
83328.9
83328.7
83328.6
83328.4
83328.3
83328.3
83328.2
83328.2
)
;

boundaryField
{
    AirInlet
    {
        type            fixedValue;
        value           uniform 0.1;
    }
    WaterInlet
    {
        type            fixedValue;
        value           uniform 0.1;
    }
    ChannelWall
    {
        type            fixedValue;
        value           uniform 0.1;
    }
    Outlet
    {
        type            inletOutlet;
        inletValue      uniform 0.1;
        value           nonuniform List<scalar> 
11
(
83328.2
83328.1
83328.1
83328.1
83328.1
83328.1
83328.1
83328.1
83328.1
83328.1
83328.2
)
;
    }
    FrontAndBack
    {
        type            empty;
    }
}


// ************************************************************************* //
