/*--------------------------------*- C++ -*----------------------------------*\
| =========                 |                                                 |
| \\      /  F ield         | OpenFOAM: The Open Source CFD Toolbox           |
|  \\    /   O peration     | Version:  2.3.0                                 |
|   \\  /    A nd           | Web:      www.OpenFOAM.org                      |
|    \\/     M anipulation  |                                                 |
\*---------------------------------------------------------------------------*/
FoamFile
{
    version     2.0;
    format      ascii;
    class       volScalarField;
    location    "0.21";
    object      alpha.water;
}
// * * * * * * * * * * * * * * * * * * * * * * * * * * * * * * * * * * * * * //

dimensions      [0 0 0 0 0 0 0];

internalField   nonuniform List<scalar> 
545
(
1
1
1
1
1
1
1
1
1
1
1
1
1
1
1
1
1
1
1
1
1
1
1
1
1
1
1
1
1
1
1
1
1
1
1
1
1
1
1
1
1
1
1
1
1
1
1
1
1
1
1
1
1
1
1
1
1
1
1
1
1
1
1
1
1
1
1
1
1
1
1
1
1
1
1
1
1
1
1
1
1
1
1
1
1
1
1
1
1
1
1
1
1
1
1
1
1
1
1
1
1
1
1
1
1
1
1
1
1
1
1
1
1
1
1
1
1
1
1
0.999999
0.999999
0.999999
0.999999
0.999999
0.999999
0.999999
0.999999
0.999999
0.999999
0.999999
0.999999
0.999999
0.999999
0.999999
0.999999
0.999999
0.999999
0.999999
0.999999
0.999999
0.999999
0.999999
0.999999
0.999999
0.999999
0.999999
0.999999
0.999999
0.999999
0.999999
0.999999
0.999999
0.999999
0.999999
0.999999
0.999999
0.999999
0.999999
0.999999
0.999999
1
1
0.999987
0.999973
0.999958
0.999944
0.999936
0.999933
0.999934
0.999935
0.999937
0.999938
0.999939
0.999939
0.999939
0.999939
0.999938
0.999938
0.999938
0.999938
0.999938
0.999938
0.999938
0.999938
0.999938
0.999938
0.999938
0.999938
0.999938
0.999938
0.999938
0.999938
0.999938
0.999938
0.999938
0.999938
0.999938
0.999938
0.999938
0.999938
0.999938
0.999938
0.999938
0.999938
0.999938
1
1
0.998275
0.997981
0.997694
0.996683
0.994972
0.994716
0.994828
0.995005
0.995217
0.99539
0.995494
0.995528
0.995512
0.995471
0.995428
0.995394
0.995375
0.995369
0.995373
0.99538
0.995388
0.995394
0.995397
0.995398
0.995396
0.995394
0.995392
0.995389
0.995389
0.995389
0.995389
0.99539
0.995391
0.995391
0.99539
0.995389
0.995386
0.995384
0.995382
0.99538
0.995382
0.995382
0.995383
0.274716
0.361157
0.411964
0.630775
0.969835
0.630105
0.470559
0.466053
0.467372
0.47264
0.819503
0.937043
0.620842
0.555019
0.560205
0.556491
0.556518
0.895711
0.897631
0.495913
0.50687
0.542571
0.52726
0.529201
0.571923
0.938119
0.965363
0.698488
0.438016
0.461598
0.499344
0.475771
0.475792
0.572122
0.913112
0.995614
0.978214
0.889062
0.383945
0.195392
0.233829
0.305311
0.265098
0.265569
0.588793
1
1
1
1
1
1
1
1
1
1
1
1
1
1
1
1
1
1
1
1
1
1
1
1
1
1
1
0.998275
0.997981
0.997694
0.996683
0.99497
0.994716
0.994827
0.995004
0.995216
0.995389
0.995491
0.995524
0.995507
0.995466
0.995421
0.995387
0.995367
0.995361
0.995362
0.995369
0.995376
0.995382
0.995385
0.995386
0.995384
0.99538
0.995376
0.995373
0.99537
0.99537
0.995368
0.99537
0.99537
0.995369
0.995366
0.995361
0.995353
0.99535
0.995344
0.995342
0.99534
0.995341
0.99534
1
1
0.999987
0.999973
0.999958
0.999944
0.999936
0.999933
0.999934
0.999935
0.999937
0.999938
0.999939
0.999939
0.999939
0.999939
0.999938
0.999938
0.999938
0.999938
0.999938
0.999938
0.999938
0.999938
0.999938
0.999938
0.999938
0.999938
0.999938
0.999938
0.999938
0.999938
0.999938
0.999938
0.999938
0.999938
0.999938
0.999938
0.999938
0.999938
0.999938
0.999938
0.999938
0.999938
0.999938
1
1
1
1
0.999999
0.999999
0.999999
0.999999
0.999999
0.999999
0.999999
0.999999
0.999999
0.999999
0.999999
0.999999
0.999999
0.999999
0.999999
0.999999
0.999999
0.999999
0.999999
0.999999
0.999999
0.999999
0.999999
0.999999
0.999999
0.999999
0.999999
0.999999
0.999999
0.999999
0.999999
0.999999
0.999999
0.999999
0.999999
0.999999
0.999999
0.999999
0.999999
0.999999
0.999999
1
1
1
1
1
1
1
1
1
1
1
1
1
1
1
1
1
1
1
1
1
1
1
1
1
1
1
1
1
1
1
1
1
1
1
1
1
1
1
1
1
1
1
1
1
1
1
1
1
1
1
1
1
1
1
1
1
1
1
1
1
1
1
1
1
1
1
1
1
1
1
1
1
1
1
1
1
1
1
1
1
1
1
1
1
1
1
1
1
1
)
;

boundaryField
{
    AirInlet
    {
        type            fixedValue;
        value           uniform 0;
    }
    WaterInlet
    {
        type            fixedValue;
        value           uniform 1;
    }
    ChannelWall
    {
        type            zeroGradient;
    }
    Outlet
    {
        type            inletOutlet;
        inletValue      uniform 0;
        value           nonuniform List<scalar> 
11
(
1
1
0.999999
0.999938
0.995383
0.588793
0.99534
0.999938
0.999999
1
1
)
;
    }
    FrontAndBack
    {
        type            empty;
    }
}


// ************************************************************************* //
