/*--------------------------------*- C++ -*----------------------------------*\
| =========                 |                                                 |
| \\      /  F ield         | OpenFOAM: The Open Source CFD Toolbox           |
|  \\    /   O peration     | Version:  2.3.0                                 |
|   \\  /    A nd           | Web:      www.OpenFOAM.org                      |
|    \\/     M anipulation  |                                                 |
\*---------------------------------------------------------------------------*/
FoamFile
{
    version     2.0;
    format      ascii;
    class       volScalarField;
    location    "1.94";
    object      alpha.particles;
}
// * * * * * * * * * * * * * * * * * * * * * * * * * * * * * * * * * * * * * //

dimensions      [0 0 0 0 0 0 0];

internalField   nonuniform List<scalar> 
6000
(
0.358279
0.350553
0.349668
0.350878
0.353338
0.366095
0.416717
0.451987
0.451384
0.449533
0.452048
0.426591
0.394521
0.396608
0.415673
0.415673
0.413534
0.360159
0.339508
0.339452
0.3489
0.367716
0.390384
0.39948
0.385895
0.356305
0.375745
0.443278
0.459036
0.459038
0.349809
0.349807
0.349674
0.349805
0.349804
0.349948
0.34995
0.355125
0.372992
0.376847
0.371542
0.356933
0.356825
0.356684
0.361165
0.372666
0.349169
0.339051
0.339694
0.339062
0.339694
0.339275
0.342148
0.354118
0.354174
0.354228
0.354286
0.358919
0.397943
0.446803
0.349947
0.349814
0.349808
0.355653
0.349947
0.349948
0.350092
0.355236
0.393171
0.399039
0.36923
0.35683
0.356684
0.356538
0.356394
0.356251
0.346545
0.33986
0.339081
0.339694
0.340135
0.35337
0.361754
0.365715
0.358544
0.359204
0.354343
0.389224
0.409328
0.399819
0.374773
0.355744
0.354166
0.376054
0.364515
0.357717
0.356394
0.361392
0.41921
0.451569
0.399791
0.362427
0.357876
0.371277
0.37377
0.365083
0.341012
0.339222
0.33986
0.339496
0.36611
0.402966
0.413611
0.405535
0.386393
0.367768
0.37074
0.416025
0.409384
0.330273
0.46551
0.423368
0.397349
0.426569
0.415718
0.404227
0.396716
0.396531
0.465893
0.512
0.477261
0.434786
0.435432
0.462849
0.455104
0.42479
0.357023
0.340068
0.339537
0.361061
0.438642
0.481222
0.484047
0.467278
0.439061
0.412746
0.427016
0.434248
0.390106
0.323113
0.538772
0.515735
0.488094
0.495236
0.487256
0.477086
0.472503
0.475305
0.520908
0.534629
0.534048
0.522215
0.52659
0.526978
0.515288
0.493773
0.409992
0.351201
0.350478
0.423622
0.509583
0.523002
0.523591
0.515393
0.495434
0.477246
0.486557
0.4342
0.351359
0.323113
0.541524
0.541466
0.541253
0.536465
0.531682
0.528005
0.529443
0.531306
0.534899
0.534446
0.535171
0.534439
0.535167
0.494853
0.431779
0.484697
0.480966
0.417565
0.404379
0.498015
0.531379
0.534101
0.534104
0.534081
0.529619
0.522572
0.515819
0.424319
0.331645
0.323113
0.541611
0.541537
0.54149
0.541409
0.541358
0.541278
0.541201
0.530251
0.534444
0.535935
0.534449
0.535891
0.493731
0.315905
0.262458
0.372773
0.498329
0.509133
0.485423
0.531995
0.534262
0.534113
0.534468
0.534113
0.534276
0.534093
0.521808
0.431601
0.34847
0.324944
0.541649
0.54159
0.541537
0.54147
0.541414
0.541337
0.53151
0.451656
0.535824
0.5344
0.53596
0.476649
0.338499
0.256524
0.249514
0.256475
0.388838
0.51663
0.529653
0.534529
0.534115
0.534979
0.534118
0.534911
0.534114
0.534492
0.505947
0.457185
0.405248
0.37118
0.493919
0.508648
0.540907
0.541378
0.541357
0.541119
0.405769
0.298488
0.388042
0.431864
0.400953
0.3342
0.272802
0.251224
0.256467
0.249666
0.25658
0.374977
0.447944
0.525975
0.535729
0.534121
0.535889
0.53412
0.535311
0.532456
0.45462
0.458509
0.458319
0.445052
0.290124
0.311698
0.368328
0.470668
0.516689
0.433626
0.293655
0.285054
0.289556
0.294801
0.310391
0.304907
0.26266
0.256467
0.24957
0.256409
0.251179
0.256621
0.276
0.403323
0.53324
0.53643
0.534123
0.536429
0.534102
0.491987
0.421461
0.446016
0.45268
0.479363
0.15515
0.169604
0.208767
0.309123
0.391201
0.371283
0.288543
0.289554
0.287739
0.289554
0.301881
0.297321
0.259773
0.252026
0.256409
0.249759
0.256409
0.252553
0.256473
0.254892
0.383453
0.526795
0.536429
0.534123
0.535807
0.479662
0.421244
0.420111
0.409686
0.476319
0.154564
0.154556
0.183963
0.263949
0.366417
0.381291
0.289555
0.285406
0.289554
0.288962
0.297212
0.295154
0.260607
0.256467
0.250761
0.256409
0.250895
0.25647
0.252263
0.256531
0.254065
0.328396
0.490483
0.536389
0.5341
0.492058
0.443388
0.426117
0.40412
0.436001
0.154579
0.156736
0.189815
0.258014
0.374678
0.396436
0.287674
0.289554
0.288345
0.289554
0.298153
0.309234
0.276229
0.252711
0.256467
0.250576
0.256467
0.25173
0.256533
0.251949
0.256578
0.25394
0.288907
0.446274
0.533169
0.497074
0.464822
0.432708
0.405218
0.405025
0.154588
0.166125
0.20322
0.259438
0.394257
0.399266
0.289555
0.285842
0.289554
0.289353
0.315318
0.343017
0.303769
0.256523
0.251677
0.256467
0.250931
0.256523
0.251889
0.256573
0.252609
0.256622
0.255297
0.330285
0.466173
0.489792
0.448623
0.419714
0.404404
0.404996
0.154871
0.181191
0.219369
0.271536
0.416565
0.399734
0.286948
0.289554
0.289154
0.291559
0.35221
0.375015
0.318245
0.253608
0.256523
0.251412
0.256523
0.250924
0.256573
0.25178
0.256622
0.253659
0.256673
0.309642
0.441496
0.470672
0.427479
0.405206
0.405218
0.408259
0.169433
0.201716
0.237574
0.29468
0.434867
0.393632
0.289555
0.285901
0.289554
0.323101
0.389137
0.383358
0.308416
0.256573
0.252892
0.256523
0.25116
0.256573
0.251019
0.256622
0.252425
0.256673
0.255734
0.306211
0.431292
0.457764
0.4242
0.405442
0.405014
0.441719
0.200398
0.22931
0.261305
0.323819
0.450461
0.393676
0.286068
0.289554
0.306484
0.375862
0.40421
0.366448
0.280661
0.254584
0.256573
0.25256
0.256573
0.250981
0.256622
0.25139
0.256673
0.253978
0.256726
0.309153
0.42754
0.45454
0.438573
0.427428
0.425408
0.49885
0.23988
0.264858
0.293541
0.355537
0.470854
0.399408
0.289555
0.285474
0.346562
0.413322
0.403966
0.315457
0.257645
0.256622
0.254402
0.256573
0.251912
0.256622
0.251035
0.256673
0.252439
0.256726
0.256383
0.327927
0.437199
0.461992
0.46445
0.473319
0.494296
0.533563
0.282756
0.308042
0.335476
0.391124
0.489954
0.4112
0.284719
0.289554
0.384091
0.413328
0.353467
0.28277
0.256673
0.255788
0.256622
0.25414
0.256622
0.251312
0.256673
0.251552
0.256726
0.254958
0.26682
0.372678
0.458182
0.485159
0.498491
0.515546
0.534698
0.548846
0.328943
0.358479
0.386858
0.430843
0.495725
0.419206
0.289556
0.284246
0.400734
0.410879
0.315182
0.279187
0.259802
0.256673
0.256276
0.256622
0.252824
0.256673
0.251471
0.256726
0.253159
0.256784
0.307062
0.436804
0.490936
0.510489
0.524038
0.538004
0.548692
0.554278
0.379118
0.414573
0.443419
0.470098
0.495736
0.41011
0.284176
0.289554
0.385392
0.383621
0.311002
0.288748
0.278344
0.265926
0.25802
0.255775
0.256673
0.251748
0.256726
0.252337
0.256784
0.261475
0.379799
0.48744
0.51547
0.528298
0.538992
0.54811
0.553807
0.555172
0.431204
0.469475
0.491901
0.494532
0.495725
0.366734
0.289555
0.283782
0.332631
0.345889
0.311953
0.304875
0.306588
0.294602
0.270873
0.256673
0.254071
0.256726
0.252283
0.256784
0.255324
0.298794
0.46066
0.514377
0.5299
0.539303
0.546875
0.552942
0.555164
0.555167
0.479867
0.50933
0.516437
0.490158
0.459026
0.303894
0.284727
0.289554
0.287836
0.316193
0.312328
0.321395
0.333398
0.330625
0.295443
0.258715
0.256726
0.252646
0.256784
0.254109
0.256851
0.369244
0.50495
0.529021
0.539022
0.545694
0.55102
0.55514
0.555151
0.551527
0.516009
0.529363
0.523372
0.444231
0.330159
0.287436
0.289554
0.284101
0.289554
0.307531
0.320107
0.338156
0.360515
0.365203
0.332175
0.27815
0.255642
0.256784
0.253972
0.256851
0.279968
0.443582
0.522834
0.537238
0.54385
0.548509
0.551964
0.554438
0.553521
0.530356
0.535913
0.538058
0.506909
0.362342
0.287371
0.289554
0.285336
0.289554
0.288276
0.320378
0.341036
0.359049
0.387478
0.399099
0.381185
0.317651
0.256784
0.254299
0.256851
0.256411
0.340747
0.477635
0.530628
0.540281
0.544489
0.547235
0.548406
0.547397
0.535912
0.406315
0.541902
0.540105
0.462873
0.318105
0.289554
0.287285
0.289554
0.28615
0.291464
0.352114
0.375051
0.390563
0.416276
0.431154
0.431886
0.373868
0.275163
0.256851
0.256267
0.292855
0.409657
0.491858
0.527561
0.536288
0.539277
0.539973
0.537849
0.531022
0.475144
0.334417
0.541904
0.536429
0.460456
0.323813
0.288899
0.289554
0.287798
0.289554
0.305472
0.399809
0.420286
0.435815
0.452499
0.464211
0.471214
0.440924
0.335469
0.256503
0.265945
0.367345
0.467234
0.504695
0.517545
0.525426
0.528419
0.527666
0.523062
0.515471
0.445185
0.391077
0.541429
0.536639
0.488541
0.365033
0.299454
0.289167
0.289554
0.28879
0.33628
0.460948
0.473489
0.488181
0.495406
0.499175
0.502264
0.49658
0.416919
0.296772
0.327597
0.440298
0.50615
0.518024
0.519782
0.522469
0.524681
0.524995
0.522889
0.515603
0.488272
0.490326
0.541988
0.541906
0.523265
0.441682
0.352207
0.309457
0.293476
0.298162
0.391863
0.512169
0.518351
0.526265
0.529035
0.529057
0.528424
0.526345
0.489433
0.415125
0.431837
0.498406
0.525246
0.528209
0.528282
0.528684
0.529734
0.530482
0.530528
0.529523
0.528378
0.535002
0.541897
0.541067
0.536115
0.506694
0.442514
0.379336
0.332915
0.349756
0.473167
0.53489
0.542085
0.545108
0.545402
0.545207
0.543755
0.539198
0.525361
0.520371
0.513149
0.525372
0.532458
0.534658
0.535227
0.535403
0.535863
0.536665
0.537636
0.538735
0.540574
0.545081
0.452612
0.496499
0.528444
0.528113
0.520146
0.475173
0.419612
0.449482
0.529599
0.542494
0.543179
0.546077
0.545555
0.546059
0.545551
0.545483
0.535938
0.537671
0.53405
0.535024
0.537426
0.539077
0.539745
0.539904
0.54005
0.540527
0.541436
0.542725
0.544592
0.548243
0.189517
0.264248
0.371199
0.451431
0.487086
0.483319
0.479611
0.499948
0.529958
0.529399
0.514863
0.537433
0.546146
0.545558
0.546221
0.545545
0.540374
0.537857
0.538421
0.539981
0.541469
0.542623
0.543275
0.543514
0.543564
0.543747
0.544351
0.54548
0.547452
0.550863
0.0880854
0.10099
0.135355
0.195531
0.264019
0.329017
0.362236
0.37342
0.384523
0.358634
0.311736
0.337425
0.48844
0.546178
0.545559
0.546199
0.540392
0.537178
0.53919
0.541904
0.543938
0.545396
0.546388
0.546975
0.547243
0.547399
0.547761
0.548665
0.550671
0.553793
0.0833293
0.0834397
0.0833615
0.0872912
0.0996338
0.122786
0.145508
0.148603
0.147031
0.1343
0.118506
0.13003
0.24155
0.485416
0.546233
0.545528
0.533069
0.53375
0.538474
0.542779
0.54589
0.547981
0.549399
0.550327
0.550861
0.551151
0.551441
0.552168
0.553963
0.556551
0.0834235
0.0833945
0.0834854
0.0834129
0.083584
0.0834692
0.0848523
0.0853973
0.084522
0.0839137
0.084015
0.0922684
0.150973
0.344055
0.544261
0.542567
0.522899
0.531444
0.539806
0.545549
0.549017
0.55096
0.552187
0.553049
0.553693
0.554165
0.554544
0.555241
0.556785
0.558863
0.0834235
0.0834863
0.0834348
0.083584
0.0834322
0.0837001
0.0836951
0.0838072
0.0837993
0.0838916
0.0838489
0.100933
0.179851
0.345764
0.5077
0.519505
0.520793
0.537207
0.546304
0.550671
0.552506
0.553124
0.553525
0.554112
0.554947
0.555808
0.556593
0.557556
0.559078
0.560894
0.083485
0.0834541
0.083584
0.0835163
0.0837001
0.0836928
0.0859242
0.0852476
0.0838917
0.0839254
0.0867405
0.124801
0.237696
0.39364
0.501168
0.51868
0.536407
0.54772
0.552697
0.552766
0.552043
0.551316
0.551401
0.552474
0.554253
0.556119
0.557799
0.559421
0.561246
0.563068
0.0835049
0.083584
0.0835658
0.0837001
0.0837101
0.0859063
0.090983
0.0889057
0.0839601
0.0840296
0.0972942
0.16236
0.290971
0.441391
0.510643
0.535857
0.548301
0.552149
0.552115
0.548418
0.542134
0.542211
0.54482
0.548896
0.553073
0.556616
0.559451
0.561827
0.564047
0.565922
0.0840889
0.083867
0.0837001
0.0845011
0.0855436
0.0905933
0.096828
0.0932682
0.0864516
0.088293
0.116468
0.207234
0.340189
0.48107
0.53162
0.547125
0.548631
0.548562
0.535508
0.526982
0.52691
0.531015
0.542369
0.551143
0.556756
0.560595
0.563487
0.565807
0.567943
0.569665
0.0860139
0.0858701
0.0856785
0.0875303
0.0895151
0.0962288
0.102491
0.0973852
0.0909558
0.0975378
0.14357
0.251185
0.404447
0.517639
0.543343
0.545915
0.54094
0.522248
0.522149
0.522478
0.536152
0.546354
0.555083
0.561164
0.564847
0.56711
0.568793
0.570383
0.572181
0.573649
0.0889077
0.0892193
0.0895962
0.0916543
0.0940165
0.102534
0.108459
0.101467
0.0966063
0.110248
0.177921
0.304467
0.475258
0.535396
0.53967
0.52869
0.522042
0.522107
0.533215
0.544097
0.555476
0.562784
0.566972
0.569343
0.570821
0.571886
0.572828
0.57397
0.57534
0.575973
0.0927527
0.0932968
0.0943277
0.0958689
0.0986759
0.110033
0.11558
0.106379
0.104318
0.128458
0.222708
0.386384
0.516193
0.54031
0.537225
0.532413
0.536068
0.54406
0.554522
0.562483
0.567536
0.570484
0.572004
0.57268
0.5732
0.573897
0.574648
0.575505
0.575969
0.576001
0.0979353
0.0982371
0.0996965
0.100461
0.104028
0.11902
0.124507
0.113996
0.116213
0.158442
0.28777
0.464649
0.534748
0.545839
0.547448
0.550658
0.556977
0.563067
0.567609
0.570614
0.572284
0.573011
0.5732
0.573173
0.573238
0.573461
0.57338
0.573368
0.574344
0.575844
0.104838
0.104427
0.105751
0.106284
0.110863
0.129374
0.135863
0.127362
0.138215
0.210592
0.36542
0.50668
0.542561
0.551206
0.5573
0.56311
0.567618
0.570572
0.572319
0.573264
0.573717
0.57388
0.573722
0.573097
0.571955
0.569904
0.566272
0.56194
0.554733
0.557794
0.113793
0.112104
0.112383
0.113875
0.120579
0.141798
0.150857
0.152462
0.183477
0.291443
0.44571
0.531731
0.549467
0.556955
0.563151
0.567882
0.570806
0.572445
0.57343
0.574209
0.574854
0.575195
0.57498
0.573875
0.571402
0.56629
0.556445
0.541514
0.504718
0.483779
0.125127
0.121265
0.119867
0.123927
0.134988
0.159099
0.173588
0.197554
0.26927
0.397873
0.512859
0.547682
0.556864
0.562396
0.566671
0.569578
0.571436
0.57284
0.574117
0.575379
0.576607
0.577449
0.577533
0.576693
0.57449
0.570735
0.563599
0.544011
0.479363
0.439941
0.139566
0.13208
0.129626
0.137871
0.156619
0.185049
0.213103
0.271712
0.383127
0.49676
0.544896
0.557342
0.562441
0.56601
0.568646
0.570461
0.571932
0.573453
0.575142
0.576996
0.578728
0.579784
0.580164
0.580037
0.579105
0.577717
0.575234
0.567189
0.540868
0.464485
0.159307
0.146427
0.144679
0.158627
0.188249
0.222837
0.277079
0.375021
0.484921
0.540616
0.556475
0.562065
0.565342
0.567837
0.569757
0.571221
0.572636
0.574278
0.576233
0.578465
0.580297
0.580688
0.580735
0.580807
0.58083
0.580707
0.580715
0.580089
0.573581
0.550907
0.188781
0.169875
0.17089
0.19279
0.234298
0.283121
0.365662
0.473129
0.535027
0.55399
0.560648
0.564162
0.566746
0.568901
0.570611
0.571966
0.573325
0.57484
0.576465
0.578278
0.580022
0.580617
0.580683
0.580847
0.580918
0.580957
0.581038
0.581061
0.581103
0.580979
0.234118
0.212016
0.219117
0.251849
0.304675
0.37003
0.457655
0.526613
0.550128
0.558214
0.562438
0.565361
0.567782
0.569855
0.571394
0.572482
0.573414
0.574086
0.573975
0.572983
0.571878
0.571766
0.570015
0.580581
0.580906
0.581012
0.581064
0.581218
0.581176
0.581259
0.299782
0.282341
0.30093
0.343781
0.399195
0.45973
0.513722
0.542774
0.554038
0.559864
0.563597
0.566419
0.568867
0.570784
0.571849
0.572146
0.571571
0.568936
0.563029
0.553222
0.541872
0.528618
0.490098
0.559437
0.577259
0.579116
0.579843
0.580798
0.581308
0.581274
0.382685
0.378524
0.410016
0.449268
0.484779
0.512261
0.530963
0.54528
0.554882
0.560803
0.564597
0.567567
0.570002
0.571351
0.571392
0.569971
0.565259
0.553938
0.53415
0.512714
0.490351
0.414366
0.283287
0.452128
0.551327
0.567974
0.575186
0.576762
0.579154
0.581365
0.465336
0.472488
0.500338
0.517235
0.525142
0.528878
0.535337
0.545676
0.555152
0.561372
0.565583
0.568871
0.570881
0.571171
0.569584
0.564026
0.549997
0.520537
0.502568
0.499065
0.436733
0.228426
0.113453
0.236674
0.480149
0.542102
0.567348
0.570452
0.572517
0.575665
0.515108
0.522299
0.532495
0.53615
0.537608
0.537723
0.540607
0.546506
0.555029
0.561596
0.566771
0.570199
0.570848
0.57014
0.565503
0.552183
0.522213
0.50871
0.508687
0.477812
0.28225
0.107566
0.102385
0.112147
0.340829
0.522452
0.560333
0.562368
0.564295
0.570166
0.517874
0.519065
0.525305
0.532723
0.536043
0.532318
0.522232
0.536678
0.552789
0.561148
0.567902
0.570743
0.570789
0.568423
0.559065
0.536233
0.510737
0.51057
0.500888
0.344714
0.126064
0.102385
0.0986937
0.102385
0.252708
0.526112
0.556622
0.552895
0.550164
0.564318
0.493008
0.48372
0.484304
0.492362
0.495185
0.488714
0.4836
0.500933
0.536455
0.555163
0.567462
0.570685
0.570733
0.566435
0.552536
0.527865
0.513353
0.508321
0.394813
0.151353
0.102387
0.0997778
0.102385
0.100042
0.203393
0.505609
0.551533
0.546803
0.544157
0.556241
0.466711
0.450536
0.448498
0.450563
0.456343
0.463625
0.478049
0.496307
0.520457
0.544527
0.564538
0.570607
0.570658
0.564295
0.547957
0.528071
0.516427
0.428822
0.184572
0.102408
0.10035
0.102385
0.0987306
0.102385
0.152234
0.379553
0.550575
0.550193
0.545057
0.552898
0.478249
0.453654
0.448113
0.447938
0.453052
0.469204
0.491279
0.50893
0.519344
0.53806
0.560978
0.570517
0.570202
0.561932
0.545501
0.529646
0.461659
0.217982
0.102441
0.100661
0.102385
0.0997847
0.102385
0.100246
0.14055
0.258449
0.373052
0.398142
0.360892
0.504872
0.50982
0.482281
0.453044
0.448113
0.450809
0.465618
0.481712
0.488038
0.499137
0.523595
0.557105
0.570399
0.568655
0.559173
0.542265
0.488656
0.25936
0.103365
0.100745
0.102385
0.10043
0.102385
0.099185
0.102385
0.149223
0.251421
0.289464
0.292284
0.286695
0.373626
0.5283
0.517874
0.485812
0.45738
0.450878
0.454442
0.457737
0.457749
0.458096
0.501087
0.554206
0.569932
0.566248
0.551341
0.507273
0.309831
0.11079
0.100694
0.102385
0.100787
0.102385
0.100047
0.102385
0.100991
0.158181
0.262456
0.301021
0.298405
0.288068
0.337299
0.528548
0.532271
0.521282
0.493884
0.467628
0.459934
0.460137
0.457747
0.45778
0.508008
0.558766
0.568811
0.560086
0.529076
0.356448
0.142921
0.100964
0.102385
0.100999
0.102385
0.100736
0.102385
0.0998332
0.102385
0.166944
0.272109
0.310659
0.306868
0.286986
0.357523
0.522251
0.53392
0.533935
0.524454
0.504279
0.488811
0.486921
0.480356
0.483596
0.534822
0.564529
0.56545
0.5482
0.4373
0.197428
0.102066
0.102385
0.101021
0.102385
0.101194
0.102385
0.100498
0.102385
0.101719
0.180247
0.282751
0.319879
0.316241
0.288068
0.380357
0.515026
0.532755
0.536954
0.534143
0.526271
0.516603
0.51212
0.506975
0.519912
0.552241
0.564481
0.558494
0.530679
0.313244
0.123958
0.102385
0.101456
0.102385
0.101483
0.102385
0.101227
0.102385
0.100717
0.102385
0.200651
0.300252
0.331295
0.336061
0.289606
0.409482
0.515023
0.530924
0.53792
0.537231
0.533081
0.527524
0.523172
0.522337
0.53879
0.557339
0.560235
0.544342
0.451707
0.204382
0.108324
0.102036
0.102385
0.101591
0.102385
0.10149
0.102385
0.101172
0.102385
0.104736
0.231117
0.32497
0.351467
0.36256
0.347187
0.457103
0.515021
0.527482
0.537909
0.538716
0.536199
0.532209
0.529062
0.529878
0.545987
0.557259
0.554963
0.527137
0.279785
0.135248
0.105291
0.102385
0.101761
0.102385
0.101569
0.102385
0.101779
0.102385
0.101912
0.125285
0.279951
0.35739
0.382801
0.400682
0.427337
0.51311
0.515029
0.516414
0.534582
0.538707
0.537661
0.534837
0.531848
0.532109
0.544859
0.556116
0.544893
0.358604
0.141944
0.107341
0.102415
0.101876
0.102385
0.101384
0.102385
0.102049
0.102385
0.102148
0.103381
0.179008
0.349728
0.407396
0.429886
0.464004
0.511742
0.541504
0.515127
0.515175
0.526423
0.534183
0.535511
0.534556
0.531627
0.523636
0.516583
0.533111
0.450823
0.203139
0.107429
0.102385
0.101588
0.102396
0.101325
0.102385
0.102028
0.104357
0.112934
0.117871
0.139794
0.284952
0.446224
0.474141
0.49472
0.521242
0.541534
0.548832
0.51943
0.515217
0.517367
0.524382
0.527454
0.524862
0.504733
0.482167
0.481918
0.478419
0.360844
0.166276
0.103796
0.101413
0.102385
0.101268
0.102385
0.101531
0.103383
0.125427
0.149104
0.165524
0.218425
0.425779
0.519701
0.524115
0.532562
0.542499
0.548829
0.548872
0.52947
0.521857
0.520898
0.523654
0.524088
0.511797
0.485192
0.47391
0.473836
0.43051
0.305819
0.163886
0.103551
0.102385
0.101244
0.102385
0.10135
0.102385
0.116759
0.169362
0.200326
0.219321
0.28041
0.48329
0.537936
0.542119
0.54515
0.548196
0.548862
0.54884
0.536038
0.532502
0.530616
0.530981
0.531672
0.528263
0.520885
0.509346
0.463194
0.370081
0.257022
0.162611
0.105447
0.101575
0.102385
0.10145
0.102385
0.102259
0.144288
0.216104
0.236808
0.243274
0.273755
0.370367
0.511975
0.536477
0.540987
0.546912
0.548788
0.534491
0.536074
0.536043
0.536041
0.536018
0.536019
0.535992
0.535986
0.533855
0.463591
0.327984
0.240386
0.175192
0.118945
0.102385
0.101517
0.102385
0.102123
0.110416
0.181163
0.240213
0.241948
0.241738
0.242368
0.247154
0.299433
0.396171
0.482664
0.53167
0.544997
0.530375
0.536074
0.536075
0.536047
0.536048
0.536022
0.536021
0.535972
0.524101
0.439391
0.339873
0.283424
0.230707
0.16096
0.106395
0.102385
0.102143
0.104586
0.138721
0.206257
0.2362
0.233209
0.222447
0.212106
0.208016
0.208269
0.226215
0.271215
0.37824
0.529174
0.530331
0.536101
0.536074
0.536075
0.536043
0.536034
0.534044
0.50142
0.46041
0.439031
0.416966
0.396461
0.346664
0.247938
0.138916
0.10336
0.102607
0.121016
0.172517
0.205064
0.207089
0.207149
0.207333
0.207586
0.207804
0.208016
0.207908
0.208467
0.233544
0.363229
0.524751
0.535571
0.535609
0.535269
0.531506
0.509133
0.479094
0.469349
0.469227
0.479147
0.486094
0.475594
0.435729
0.341144
0.196405
0.115038
0.109992
0.143826
0.183593
0.183331
0.185549
0.199519
0.21422
0.220205
0.215948
0.208147
0.208467
0.208685
0.208898
0.26165
0.432244
0.527827
0.528957
0.524368
0.499382
0.477446
0.477432
0.482049
0.501319
0.51456
0.516151
0.50709
0.477027
0.387233
0.235939
0.13163
0.119368
0.152717
0.172155
0.17244
0.192686
0.228957
0.255234
0.25731
0.237864
0.210401
0.208685
0.208897
0.213597
0.275269
0.386019
0.522846
0.522651
0.506824
0.481927
0.477864
0.490174
0.511773
0.524079
0.52651
0.523825
0.517112
0.492858
0.403122
0.258224
0.147205
0.12101
0.144649
0.14359
0.172407
0.238929
0.30175
0.335852
0.324928
0.277477
0.22285
0.208897
0.209131
0.233107
0.317388
0.418294
0.520589
0.515205
0.498534
0.489
0.497847
0.516905
0.528269
0.528355
0.526599
0.521239
0.514622
0.489459
0.40289
0.275187
0.160573
0.121135
0.127727
0.127925
0.213386
0.338489
0.406263
0.436115
0.416611
0.343074
0.256574
0.221839
0.228812
0.278579
0.377553
0.458298
0.520566
0.512155
0.503842
0.507672
0.520223
0.529318
0.5294
0.527529
0.518644
0.506543
0.499605
0.488157
0.421825
0.303316
0.176394
0.121276
0.121418
0.145472
0.323836
0.45678
0.495836
0.50753
0.499674
0.438271
0.328887
0.271476
0.285125
0.353887
0.446138
0.488405
0.522627
0.515816
0.515319
0.522403
0.528661
0.530304
0.528018
0.519629
0.509317
0.506576
0.50751
0.506924
0.458368
0.339276
0.203264
0.129857
0.129771
0.239324
0.463575
0.518696
0.532451
0.534397
0.532352
0.510966
0.437646
0.365741
0.377709
0.445714
0.502213
0.50751
0.526923
0.523111
0.524808
0.528845
0.531128
0.530889
0.528896
0.526384
0.52523
0.526163
0.528224
0.523847
0.484325
0.386824
0.264014
0.184028
0.186684
0.405518
0.532694
0.53472
0.534626
0.53512
0.534626
0.534713
0.516268
0.472335
0.476325
0.511282
0.527825
0.523975
0.531459
0.529605
0.530553
0.532776
0.534666
0.536471
0.539044
0.542208
0.542275
0.540388
0.534378
0.525633
0.511953
0.465193
0.388357
0.327487
0.332195
0.493173
0.535473
0.534631
0.536231
0.534633
0.536295
0.53463
0.534948
0.530307
0.529947
0.533608
0.533835
0.533833
0.535192
0.534219
0.534897
0.537071
0.540306
0.544476
0.547349
0.547072
0.539337
0.530254
0.518786
0.518374
0.53429
0.538164
0.523792
0.505731
0.487544
0.50158
0.534601
0.537679
0.534628
0.537726
0.534607
0.536818
0.486308
0.463654
0.485627
0.514541
0.533798
0.533835
0.538182
0.537766
0.538776
0.541512
0.545349
0.547939
0.547232
0.526811
0.507865
0.496142
0.49408
0.515034
0.553301
0.563296
0.564328
0.562645
0.554725
0.519265
0.512075
0.513689
0.524676
0.516952
0.480271
0.399597
0.316862
0.297576
0.324434
0.373606
0.461752
0.528941
0.540586
0.540642
0.542091
0.544923
0.54774
0.54785
0.526393
0.492891
0.491134
0.492878
0.494064
0.544837
0.567423
0.567864
0.568149
0.567874
0.568107
0.550723
0.440892
0.426734
0.423413
0.402978
0.343323
0.270641
0.257717
0.258571
0.257721
0.258572
0.323372
0.435431
0.542449
0.542856
0.544427
0.546513
0.547046
0.54122
0.493002
0.490675
0.492878
0.493481
0.540915
0.567836
0.56792
0.568598
0.567945
0.569218
0.567939
0.56787
0.501265
0.448376
0.452009
0.437424
0.382791
0.290803
0.258571
0.257812
0.258571
0.258085
0.299169
0.399953
0.543777
0.544301
0.545465
0.546161
0.543885
0.532184
0.490756
0.492878
0.492227
0.538701
0.567825
0.567903
0.568995
0.567919
0.569034
0.567896
0.56925
0.567929
0.567728
0.527634
0.506072
0.503741
0.475984
0.373686
0.290311
0.273514
0.267327
0.277309
0.343444
0.432394
0.544632
0.544895
0.545039
0.543661
0.537114
0.5157
0.49288
0.492006
0.531135
0.567044
0.567875
0.568925
0.567833
0.566026
0.53606
0.56201
0.567674
0.569238
0.567919
0.568149
0.549117
0.53888
0.528823
0.466192
0.378097
0.343277
0.328649
0.353142
0.4289
0.480686
0.545255
0.544859
0.543386
0.538925
0.527637
0.496137
0.492184
0.52289
0.562452
0.567787
0.56881
0.5678
0.562781
0.522523
0.409954
0.414303
0.535199
0.567022
0.569112
0.567904
0.568206
0.56031
0.545432
0.512444
0.475242
0.449636
0.43428
0.460085
0.503009
0.508875
0.546123
0.544933
0.541852
0.535437
0.522088
0.497954
0.51803
0.55662
0.567618
0.568318
0.567807
0.564692
0.52744
0.403959
0.250205
0.225947
0.296734
0.438764
0.558822
0.568254
0.567227
0.552288
0.524998
0.527427
0.527576
0.521781
0.514089
0.521958
0.528863
0.521089
0.547805
0.54599
0.542178
0.535648
0.52325
0.522621
0.55056
0.565945
0.567952
0.567762
0.567053
0.542427
0.446114
0.282585
0.172999
0.13889
0.101792
0.175344
0.329571
0.454156
0.479549
0.429509
0.401429
0.468768
0.527536
0.530112
0.530125
0.530141
0.530138
0.530145
0.550112
0.548092
0.544165
0.537567
0.530519
0.54471
0.561196
0.567374
0.567716
0.56804
0.555295
0.513587
0.405741
0.234572
0.161952
0.0975059
0.0423011
0.0798577
0.18623
0.296303
0.332926
0.320372
0.303937
0.314135
0.386403
0.461733
0.505766
0.521126
0.504868
0.530105
0.55161
0.549476
0.546793
0.539144
0.537916
0.554404
0.565325
0.567663
0.567955
0.567491
0.549379
0.520433
0.401717
0.216966
0.146939
0.0610233
0.0240107
0.0608028
0.164395
0.267452
0.309728
0.313133
0.29246
0.276819
0.276856
0.298125
0.334175
0.355019
0.345208
0.425526
0.551825
0.543944
0.547038
0.539693
0.543762
0.560457
0.567538
0.56789
0.56758
0.561055
0.537522
0.518245
0.361247
0.189365
0.105718
0.0325168
0.0154223
0.0468279
0.157099
0.287486
0.345525
0.348534
0.318538
0.289741
0.279399
0.28253
0.284964
0.284722
0.284684
0.35399
0.548434
0.437354
0.546368
0.540188
0.548009
0.564409
0.567789
0.567569
0.563105
0.481537
0.443898
0.41981
0.259039
0.131983
0.0561109
0.0172378
0.0125759
0.0309816
0.133829
0.295299
0.386071
0.398618
0.367901
0.344255
0.340535
0.349054
0.352785
0.352808
0.372761
0.52238
0.322219
0.222297
0.325607
0.490395
0.543278
0.566163
0.567447
0.566383
0.428741
0.295892
0.261058
0.22022
0.128893
0.0659367
0.0254754
0.0126947
0.0131167
0.0186182
0.102564
0.282231
0.405307
0.434995
0.415435
0.401411
0.409697
0.42039
0.427877
0.45623
0.530071
0.559108
0.205216
0.198877
0.201227
0.306393
0.541587
0.564434
0.564541
0.444009
0.185168
0.107404
0.109993
0.0774323
0.0437822
0.0254394
0.0135604
0.0131166
0.0123257
0.0131582
0.0736977
0.258193
0.407555
0.452506
0.448121
0.439283
0.45774
0.475483
0.502749
0.541208
0.559143
0.559407
0.27714
0.198948
0.222171
0.251722
0.378225
0.473116
0.43866
0.283007
0.0915253
0.0300356
0.0379736
0.0253578
0.015062
0.0128695
0.0131165
0.0123771
0.0131166
0.0127057
0.0489249
0.229661
0.403434
0.456839
0.463432
0.465306
0.493416
0.522429
0.547073
0.559144
0.559482
0.559328
0.467195
0.292711
0.294625
0.302435
0.319285
0.369886
0.340079
0.204755
0.0571369
0.0135769
0.0160891
0.0131508
0.0127223
0.0131163
0.0124507
0.0131166
0.0123875
0.0131169
0.0299561
0.198421
0.405718
0.456314
0.467351
0.489716
0.526024
0.549571
0.559002
0.559546
0.559154
0.536112
0.551902
0.47447
0.39127
0.369224
0.372207
0.374274
0.322891
0.16525
0.0297807
0.0125314
0.0131177
0.0127193
0.0131163
0.0125058
0.0131164
0.012368
0.0131166
0.0126924
0.0193557
0.161701
0.412502
0.456551
0.470475
0.51471
0.546317
0.558842
0.55962
0.559038
0.55115
0.468687
0.553379
0.549415
0.502604
0.441619
0.427664
0.401745
0.294213
0.101875
0.0141176
0.0131163
0.0125795
0.0131162
0.0125344
0.0131164
0.0124392
0.0131165
0.0124978
0.0131167
0.015249
0.121138
0.41661
0.464556
0.484628
0.533809
0.556307
0.559234
0.558878
0.551189
0.468552
0.468228
0.553502
0.553363
0.547642
0.511831
0.473038
0.407272
0.213622
0.0446783
0.013117
0.012446
0.0131163
0.0124953
0.0131164
0.0124999
0.0131165
0.0124503
0.0131167
0.012767
0.0137631
0.0788029
0.415039
0.474015
0.508834
0.54591
0.558741
0.558698
0.553059
0.487375
0.468331
0.468406
0.552044
0.553606
0.553201
0.544698
0.502614
0.358567
0.103092
0.0188335
0.0126416
0.0131165
0.0124344
0.0131164
0.0125366
0.0131165
0.0125106
0.0131167
0.0125946
0.0131168
0.0130085
0.0462187
0.396106
0.483833
0.528967
0.551943
0.558478
0.555756
0.5078
0.468682
0.468629
0.468491
0.530639
0.553373
0.553697
0.553152
0.50529
0.215973
0.0299792
0.0127713
0.0131166
0.0124428
0.0131165
0.0125163
0.0131165
0.0125832
0.0131167
0.0125375
0.0131168
0.012834
0.013117
0.0315699
0.308992
0.493786
0.536598
0.552569
0.554829
0.53501
0.469018
0.469048
0.468695
0.515383
0.481486
0.55341
0.553277
0.544576
0.362764
0.0709862
0.0128703
0.0131167
0.012554
0.0131166
0.0125002
0.0131165
0.0126458
0.0131167
0.0125885
0.0131168
0.0126889
0.0131169
0.0130314
0.0226069
0.165542
0.488038
0.537811
0.548452
0.5441
0.52066
0.469302
0.469138
0.525852
0.544981
0.467042
0.542377
0.551463
0.468919
0.15708
0.0193576
0.0131168
0.0127089
0.0131167
0.0125345
0.0131166
0.0126519
0.0131167
0.0126632
0.0131168
0.0126232
0.0131169
0.0128725
0.0131171
0.0180597
0.0666944
0.350025
0.518752
0.540562
0.537751
0.518594
0.512527
0.535896
0.545052
0.545076
0.473816
0.477027
0.495369
0.325512
0.0948807
0.0162344
0.0128404
0.0131168
0.0126328
0.0131167
0.0126197
0.0131167
0.0127429
0.0131168
0.0126486
0.0131169
0.0127669
0.0131171
0.0130683
0.0174192
0.0412198
0.165557
0.399703
0.512789
0.535622
0.535957
0.541672
0.54511
0.54513
0.54512
0.473984
0.436726
0.423375
0.283186
0.0961932
0.0195323
0.013117
0.012737
0.0131169
0.0126372
0.0131167
0.0127558
0.0131168
0.012726
0.0131169
0.0126793
0.0131171
0.0128828
0.0131172
0.0191991
0.0408739
0.117971
0.260522
0.406897
0.501524
0.539812
0.545047
0.545111
0.545155
0.545153
0.473981
0.399757
0.393009
0.298915