/*--------------------------------*- C++ -*----------------------------------*\
| =========                 |                                                 |
| \\      /  F ield         | OpenFOAM: The Open Source CFD Toolbox           |
|  \\    /   O peration     | Version:  2.3.0                                 |
|   \\  /    A nd           | Web:      www.OpenFOAM.org                      |
|    \\/     M anipulation  |                                                 |
\*---------------------------------------------------------------------------*/
FoamFile
{
    version     2.0;
    format      ascii;
    class       volVectorField;
    location    "1.94";
    object      U.air;
}
// * * * * * * * * * * * * * * * * * * * * * * * * * * * * * * * * * * * * * //

dimensions      [0 1 -1 0 0 0 0];

internalField   nonuniform List<vector> 
6000
(
(-0.00608213 0.230293 0)
(-0.0056764 0.184841 0)
(0.0045307 0.155196 0)
(0.00501645 0.130979 0)
(-0.0139986 0.144699 0)
(-0.0588973 0.165197 0)
(-0.0885669 0.132685 0)
(-0.0862849 0.13648 0)
(-0.0466509 0.161583 0)
(0.00503774 0.202179 0)
(0.0416383 0.231736 0)
(0.0268787 0.255559 0)
(-0.0250576 0.27298 0)
(-0.0853829 0.267582 0)
(-0.118098 0.239721 0)
(-0.0968845 0.226958 0)
(-0.0844465 0.226251 0)
(-0.134539 0.2879 0)
(-0.235145 0.313143 0)
(-0.309399 0.30088 0)
(-0.346495 0.28787 0)
(-0.331106 0.258354 0)
(-0.274055 0.249587 0)
(-0.178354 0.247058 0)
(-0.0945905 0.275549 0)
(-0.0746931 0.275772 0)
(-0.12972 0.196624 0)
(-0.160664 0.117002 0)
(-0.145637 0.13261 0)
(-0.0512135 0.224105 0)
(0.0330369 0.867506 0)
(0.0499093 0.904113 0)
(0.0621467 0.91928 0)
(0.05578 0.959008 0)
(0.0498437 0.989076 0)
(0.0536477 1.00965 0)
(0.0406267 1.01496 0)
(-0.0156617 0.990367 0)
(-0.0388002 0.909259 0)
(0.0087974 0.888967 0)
(0.0268129 0.933136 0)
(-0.0272724 1.00358 0)
(-0.0602934 1.01138 0)
(-0.0542891 0.992782 0)
(-0.0501316 0.962588 0)
(-0.0790296 0.916735 0)
(-0.139981 0.98745 0)
(-0.230226 1.02219 0)
(-0.290658 0.974478 0)
(-0.332975 0.923232 0)
(-0.350384 0.842266 0)
(-0.332311 0.777748 0)
(-0.269666 0.732936 0)
(-0.183373 0.702417 0)
(-0.106896 0.749021 0)
(0.00267255 0.889015 0)
(0.0578548 0.984809 0)
(0.0293804 1.0339 0)
(0.0233861 1.00699 0)
(-0.000391259 0.919586 0)
(0.0301992 0.709088 0)
(0.0692462 0.74561 0)
(0.0675989 0.776036 0)
(0.0582254 0.752184 0)
(0.0736738 0.7971 0)
(0.0677533 0.820767 0)
(0.0471192 0.841221 0)
(-0.00832885 0.860036 0)
(-0.0359018 0.70472 0)
(0.0100003 0.665556 0)
(0.0450902 0.80473 0)
(0.0189976 0.879526 0)
(-0.00685945 0.834131 0)
(-0.000610027 0.782766 0)
(0.0122985 0.781413 0)
(-0.0108233 0.788102 0)
(-0.071111 0.91442 0)
(-0.16783 0.977332 0)
(-0.251892 0.940982 0)
(-0.323406 0.868747 0)
(-0.342703 0.752966 0)
(-0.293989 0.625278 0)
(-0.207008 0.556525 0)
(-0.125129 0.533569 0)
(-0.0595609 0.583123 0)
(0.0012639 0.642126 0)
(0.0656447 0.786623 0)
(0.121662 0.73987 0)
(0.212677 0.757601 0)
(0.122128 0.857316 0)
(0.0325635 0.644051 0)
(0.0820007 0.721329 0)
(0.0807674 0.799004 0)
(0.058855 0.738663 0)
(0.0814961 0.796674 0)
(0.0860419 0.833568 0)
(0.0759993 0.875864 0)
(0.0396824 0.927794 0)
(0.0116902 0.725704 0)
(-0.00208395 0.649676 0)
(0.028693 0.787732 0)
(0.0610227 0.907611 0)
(0.0818687 0.889702 0)
(0.0861178 0.835939 0)
(0.0697179 0.831127 0)
(0.0478411 0.852156 0)
(-0.0155634 1.01572 0)
(-0.120705 1.07423 0)
(-0.233849 1.02842 0)
(-0.325735 0.925283 0)
(-0.300633 0.709448 0)
(-0.2176 0.549675 0)
(-0.140081 0.487711 0)
(-0.0796409 0.479227 0)
(-0.0219683 0.529379 0)
(0.0161806 0.611542 0)
(0.11927 0.738452 0)
(0.209809 0.692013 0)
(0.228326 0.778622 0)
(0.117552 1.08189 0)
(0.0962324 0.637869 0)
(0.0161577 0.7621 0)
(0.0514289 0.841277 0)
(0.0402789 0.756662 0)
(0.0550494 0.799174 0)
(0.0828512 0.845974 0)
(0.0966739 0.900576 0)
(0.103761 0.979598 0)
(0.0799929 0.810077 0)
(0.0205822 0.715672 0)
(0.00427941 0.788708 0)
(0.0547306 0.87494 0)
(0.122251 0.864554 0)
(0.142813 0.851729 0)
(0.0564829 0.938986 0)
(-0.0195577 0.88545 0)
(-0.0586358 1.08344 0)
(-0.114593 1.16344 0)
(-0.240051 1.12672 0)
(-0.280998 0.924952 0)
(-0.205887 0.630452 0)
(-0.143669 0.50662 0)
(-0.116137 0.45651 0)
(-0.09299 0.437417 0)
(-0.0543145 0.470177 0)
(0.0020729 0.542071 0)
(0.113799 0.601922 0)
(0.203476 0.662045 0)
(0.117383 0.846256 0)
(0.0165403 1.16032 0)
(-0.00763458 0.685467 0)
(-0.0452361 0.845559 0)
(-0.0357949 0.885709 0)
(-0.00504963 0.79223 0)
(0.00988233 0.795829 0)
(0.0502612 0.840433 0)
(0.0955685 0.923401 0)
(0.116149 1.04308 0)
(0.10848 0.891337 0)
(0.0649118 0.806965 0)
(0.0389889 0.811201 0)
(0.101099 0.855244 0)
(0.203433 0.881866 0)
(0.192879 1.02907 0)
(-0.033006 1.21552 0)
(-0.294621 1.05505 0)
(-0.315052 1.10241 0)
(-0.224449 1.22567 0)
(-0.224537 1.21516 0)
(-0.191617 0.859141 0)
(-0.131079 0.604781 0)
(-0.120759 0.523089 0)
(-0.135419 0.469097 0)
(-0.135925 0.43336 0)
(-0.111744 0.43885 0)
(-0.0461733 0.47874 0)
(0.0515904 0.504116 0)
(0.101965 0.65678 0)
(0.0175856 0.963108 0)
(-0.02951 1.14004 0)
(-0.0423173 0.8222 0)
(-0.0941307 0.940116 0)
(-0.0805362 0.93015 0)
(-0.0467629 0.840319 0)
(-0.016849 0.806289 0)
(0.0343506 0.842821 0)
(0.0831255 0.960275 0)
(0.0842294 1.10975 0)
(0.070708 0.97129 0)
(0.0852682 0.877414 0)
(0.134609 0.828024 0)
(0.244374 0.821345 0)
(0.378692 0.879689 0)
(0.304149 1.19687 0)
(-0.134459 1.51883 0)
(-0.582124 1.26508 0)
(-0.603408 1.0571 0)
(-0.36954 1.13717 0)
(-0.180866 1.21242 0)
(-0.115704 0.823252 0)
(-0.104412 0.641221 0)
(-0.145487 0.560647 0)
(-0.170554 0.488075 0)
(-0.173933 0.431883 0)
(-0.155863 0.414267 0)
(-0.109378 0.428793 0)
(-0.0559349 0.451706 0)
(-0.0498696 0.663904 0)
(-0.0596895 1.00981 0)
(-0.0303071 1.06584 0)
(-0.0494063 0.947669 0)
(-0.118029 1.02067 0)
(-0.127163 0.955141 0)
(-0.0889469 0.847153 0)
(-0.0272 0.784144 0)
(0.0573996 0.8144 0)
(0.115011 0.977827 0)
(0.0241631 1.25324 0)
(-0.0390538 1.01216 0)
(0.0538397 0.890816 0)
(0.183683 0.795058 0)
(0.326067 0.750937 0)
(0.360151 0.794907 0)
(0.17383 1.43079 0)
(-0.142108 1.94259 0)
(-0.476177 1.46612 0)
(-0.615009 0.98347 0)
(-0.458089 1.01957 0)
(-0.184457 1.15 0)
(-0.120957 0.84992 0)
(-0.163033 0.706606 0)
(-0.206354 0.605464 0)
(-0.223491 0.5128 0)
(-0.21817 0.437458 0)
(-0.195007 0.400719 0)
(-0.166782 0.405628 0)
(-0.169899 0.469651 0)
(-0.202064 0.68468 0)
(-0.14471 0.955307 0)
(-0.0437783 1.01103 0)
(-0.080165 1.0472 0)
(-0.177828 1.09493 0)
(-0.202954 0.977675 0)
(-0.147371 0.831728 0)
(-0.046073 0.732566 0)
(0.0977522 0.745601 0)
(0.154555 0.996668 0)
(0.006294 1.37082 0)
(-0.0966307 0.968114 0)
(0.00160942 0.83033 0)
(0.125406 0.700049 0)
(0.208988 0.628402 0)
(0.0612765 0.904163 0)
(-0.159077 1.53339 0)
(-0.0504614 1.79367 0)
(-0.0358192 1.70654 0)
(-0.251867 0.999427 0)
(-0.393315 0.848903 0)
(-0.263839 1.11064 0)
(-0.249156 0.903785 0)
(-0.282314 0.766997 0)
(-0.295919 0.645817 0)
(-0.295929 0.533352 0)
(-0.271214 0.438004 0)
(-0.228933 0.390244 0)
(-0.189884 0.401454 0)
(-0.231717 0.563969 0)
(-0.286551 0.715145 0)
(-0.218887 0.857201 0)
(-0.0737153 0.906647 0)
(-0.129855 1.11832 0)
(-0.171702 1.1209 0)
(-0.243288 0.9842 0)
(-0.237994 0.795954 0)
(-0.0905465 0.633284 0)
(0.0646173 0.627017 0)
(0.0397235 0.996891 0)
(-0.00077532 1.46001 0)
(-0.00489942 0.904275 0)
(-0.0229179 0.697783 0)
(-0.00660646 0.606524 0)
(-0.0501128 0.692233 0)
(-0.19234 1.09365 0)
(-0.224298 1.42935 0)
(-0.0468033 1.52304 0)
(0.16533 1.55094 0)
(0.162495 1.31777 0)
(-0.078169 0.86904 0)
(-0.270648 1.05071 0)
(-0.378117 0.955817 0)
(-0.410332 0.785628 0)
(-0.393646 0.670313 0)
(-0.367416 0.542009 0)
(-0.325198 0.427464 0)
(-0.252092 0.360592 0)
(-0.195812 0.393242 0)
(-0.231951 0.666712 0)
(-0.265985 0.719945 0)
(-0.225788 0.789982 0)
(-0.088354 0.788363 0)
(-0.0744445 1.06482 0)
(-0.196757 0.979724 0)
(-0.310054 0.875372 0)
(-0.322726 0.687478 0)
(-0.235038 0.522126 0)
(-0.177995 0.558381 0)
(-0.187928 1.11685 0)
(-0.0786357 1.22513 0)
(0.0413023 0.955495 0)
(-0.0441524 0.7955 0)
(-0.124789 0.649687 0)
(-0.170185 0.704397 0)
(-0.199096 1.08728 0)
(-0.153502 1.29135 0)
(-0.0478381 1.39052 0)
(0.104934 1.3503 0)
(0.233466 1.24054 0)
(0.152142 1.15858 0)
(-0.0658714 1.27283 0)
(-0.250364 1.01591 0)
(-0.417047 0.790625 0)
(-0.453477 0.671306 0)
(-0.426809 0.543878 0)
(-0.371445 0.407597 0)
(-0.291247 0.307715 0)
(-0.224899 0.368152 0)
(-0.181623 0.710549 0)
(-0.156031 0.693234 0)
(-0.157705 0.771413 0)
(-0.079563 0.674957 0)
(-0.066929 1.24157 0)
(-0.254657 1.16628 0)
(-0.451529 1.01759 0)
(-0.498974 0.626136 0)
(-0.46516 0.451222 0)
(-0.41391 0.525163 0)
(-0.298656 1.01328 0)
(-0.151683 1.00412 0)
(-0.0622642 0.874792 0)
(-0.0806932 0.773683 0)
(-0.128286 0.631663 0)
(-0.150765 0.684016 0)
(-0.12897 1.04282 0)
(-0.0794321 1.22241 0)
(-0.0265029 1.26454 0)
(0.0475422 1.27424 0)
(0.107132 1.16135 0)
(0.10451 1.1635 0)
(0.0859126 1.25178 0)
(0.02052 1.24087 0)
(-0.225883 0.876663 0)
(-0.384906 0.693479 0)
(-0.4469 0.550229 0)
(-0.415272 0.398279 0)
(-0.339367 0.262037 0)
(-0.274215 0.344711 0)
(-0.161314 0.634309 0)
(-0.0781767 0.658253 0)
(-0.0569362 0.774747 0)
(-0.0208246 0.582988 0)
(-0.0431807 1.17451 0)
(-0.188795 1.14529 0)
(-0.313031 0.951283 0)
(-0.400581 0.611706 0)
(-0.380102 0.371008 0)
(-0.354198 0.416598 0)
(-0.259607 0.91688 0)
(-0.15787 0.913783 0)
(-0.119392 0.847608 0)
(-0.122433 0.787279 0)
(-0.14176 0.650527 0)
(-0.121382 0.652975 0)
(-0.0475317 0.976882 0)
(-0.00909271 1.16009 0)
(-0.00745876 1.23102 0)
(0.0141404 1.20626 0)
(0.0227248 1.16862 0)
(0.0174586 1.14484 0)
(0.0397248 1.23243 0)
(0.085454 1.20369 0)
(0.0195821 1.09837 0)
(-0.193569 0.795092 0)
(-0.351731 0.556123 0)
(-0.430254 0.385032 0)
(-0.393821 0.224892 0)
(-0.309007 0.294197 0)
(-0.175526 0.512609 0)
(-0.0748801 0.584377 0)
(-0.00237163 0.708884 0)
(0.0316169 0.561121 0)
(-0.0375845 1.25152 0)
(-0.127226 1.18973 0)
(-0.168778 0.953646 0)
(-0.239318 0.629158 0)
(-0.207624 0.317851 0)
(-0.222766 0.370163 0)
(-0.188065 0.873711 0)
(-0.136187 0.861637 0)
(-0.145091 0.847363 0)
(-0.163405 0.78711 0)
(-0.148509 0.638473 0)
(-0.0824137 0.582821 0)
(0.0260941 0.895715 0)
(0.0503447 1.18077 0)
(-0.00103213 1.2084 0)
(-0.0248196 1.21808 0)
(-0.0377893 1.15676 0)
(-0.0537154 1.16182 0)
(-0.0330417 1.19996 0)
(0.0105575 1.18656 0)
(0.0318126 1.08762 0)
(-0.0169818 0.937192 0)
(-0.250047 0.726393 0)
(-0.385752 0.374892 0)
(-0.404793 0.166528 0)
(-0.312205 0.230737 0)
(-0.19583 0.402831 0)
(-0.11324 0.511928 0)
(-0.0472431 0.618715 0)
(0.0190451 0.55714 0)
(-0.0285697 1.31649 0)
(-0.072363 1.20233 0)
(-0.0628601 0.986509 0)
(-0.0973419 0.664347 0)
(-0.0596891 0.299806 0)
(-0.109315 0.390956 0)
(-0.115057 0.869118 0)
(-0.113379 0.875261 0)
(-0.161945 0.864085 0)
(-0.183682 0.787367 0)
(-0.125758 0.573215 0)
(-0.0342921 0.483098 0)
(0.0514521 0.810342 0)
(0.043798 1.20532 0)
(-0.0123826 1.24901 0)
(-0.0609402 1.21167 0)
(-0.0862765 1.19521 0)
(-0.105042 1.1439 0)
(-0.0873674 1.1947 0)
(-0.0520768 1.1421 0)
(-0.0249872 1.07743 0)
(-0.0325752 0.940696 0)
(-0.149854 0.844712 0)
(-0.309606 0.469633 0)
(-0.368149 0.110696 0)
(-0.308911 0.148488 0)
(-0.223459 0.329311 0)
(-0.163636 0.455031 0)
(-0.112329 0.523139 0)
(-0.00618246 0.498376 0)
(0.00327177 1.38441 0)
(-0.00285035 1.1763 0)
(0.0299099 0.965118 0)
(0.0314474 0.676288 0)
(0.0648959 0.312041 0)
(-0.0133779 0.453718 0)
(-0.0536392 0.915317 0)
(-0.105234 0.908472 0)
(-0.17913 0.89741 0)
(-0.163812 0.771212 0)
(-0.0599161 0.47233 0)
(0.00201548 0.427413 0)
(-0.00176071 0.796969 0)
(-0.0460551 1.23713 0)
(-0.0755436 1.2432 0)
(-0.104899 1.24655 0)
(-0.128973 1.1862 0)
(-0.144113 1.16008 0)
(-0.121407 1.14703 0)
(-0.094817 1.13278 0)
(-0.0704678 1.05081 0)
(-0.0840607 0.973665 0)
(-0.142266 0.89353 0)
(-0.221533 0.536321 0)
(-0.264991 0.0732185 0)
(-0.266975 0.0858761 0)
(-0.229633 0.269478 0)
(-0.175007 0.391888 0)
(-0.140026 0.436251 0)
(-0.023352 0.411157 0)
(0.0401463 1.35766 0)
(0.0767421 1.17626 0)
(0.120792 0.947512 0)
(0.144595 0.674043 0)
(0.167795 0.355143 0)
(0.0668924 0.553071 0)
(-0.0092204 0.992924 0)
(-0.11545 1.00108 0)
(-0.190657 0.933966 0)
(-0.101438 0.669822 0)
(0.00731596 0.404663 0)
(-0.0067327 0.447045 0)
(-0.102854 0.859895 0)
(-0.178804 1.22201 0)
(-0.163763 1.24694 0)
(-0.166288 1.2309 0)
(-0.178968 1.20652 0)
(-0.184431 1.13645 0)
(-0.173683 1.13801 0)
(-0.146649 1.10061 0)
(-0.134077 1.06029 0)
(-0.144763 0.97974 0)
(-0.176225 0.934532 0)
(-0.186668 0.56151 0)
(-0.196459 0.0795883 0)
(-0.222034 0.0688935 0)
(-0.209754 0.218857 0)
(-0.159323 0.322523 0)
(-0.13179 0.369375 0)
(-0.0171259 0.298615 0)
(0.0713658 1.31046 0)
(0.146384 1.11011 0)
(0.208254 0.929778 0)
(0.235561 0.676254 0)
(0.247937 0.417308 0)
(0.139826 0.665626 0)
(0.0353859 1.13787 0)
(-0.133447 1.11556 0)
(-0.178338 0.916968 0)
(-0.0444522 0.542097 0)
(0.0250469 0.401371 0)
(-0.0792349 0.527662 0)
(-0.242704 0.964646 0)
(-0.303057 1.18221 0)
(-0.260763 1.19449 0)
(-0.24041 1.22061 0)
(-0.233076 1.17456 0)
(-0.231752 1.14148 0)
(-0.224493 1.09633 0)
(-0.212228 1.10182 0)
(-0.205238 1.0412 0)
(-0.224471 1.00054 0)
(-0.216311 0.924487 0)
(-0.168924 0.521731 0)
(-0.135149 0.0815838 0)
(-0.162666 0.0733247 0)
(-0.16567 0.180502 0)
(-0.126101 0.255492 0)
(-0.0873017 0.29664 0)
(0.0106299 0.228859 0)
(0.0894344 1.19932 0)
(0.186671 1.03892 0)
(0.268128 0.905329 0)
(0.298949 0.693509 0)
(0.300831 0.495495 0)
(0.18088 0.779129 0)
(0.069982 1.3036 0)
(-0.133582 1.28086 0)
(-0.147391 0.831463 0)
(-0.0388532 0.462711 0)
(-0.0603609 0.431474 0)
(-0.224763 0.69797 0)
(-0.371344 1.04015 0)
(-0.369257 1.11242 0)
(-0.326468 1.14454 0)
(-0.299326 1.16314 0)
(-0.279902 1.15686 0)
(-0.269861 1.10182 0)
(-0.277479 1.09688 0)
(-0.279223 1.07844 0)
(-0.298666 1.06613 0)
(-0.303383 0.992101 0)
(-0.253885 0.87512 0)
(-0.143749 0.415119 0)
(-0.076933 0.075413 0)
(-0.100372 0.0772455 0)
(-0.103433 0.150142 0)
(-0.075112 0.201866 0)
(-0.0334743 0.229936 0)
(0.011507 0.207287 0)
(0.0901511 1.09414 0)
(0.196363 0.957086 0)
(0.300799 0.864505 0)
(0.338957 0.720511 0)
(0.33213 0.598315 0)
(0.186854 0.892332 0)
(0.0849584 1.50113 0)
(-0.107547 1.41963 0)
(-0.130959 0.756713 0)
(-0.10479 0.456456 0)
(-0.205264 0.572179 0)
(-0.390488 0.839641 0)
(-0.446438 1.01655 0)
(-0.400529 1.04608 0)
(-0.360476 1.08971 0)
(-0.341179 1.13186 0)
(-0.315619 1.10742 0)
(-0.322333 1.10658 0)
(-0.336652 1.0884 0)
(-0.354464 1.10488 0)
(-0.356358 1.04499 0)
(-0.350731 0.964267 0)
(-0.263588 0.766357 0)
(-0.0899778 0.273586 0)
(-0.0187053 0.061476 0)
(-0.0408125 0.0762656 0)
(-0.046845 0.129691 0)
(-0.0333101 0.17085 0)
(-0.0101702 0.193171 0)
(0.00460587 0.2006 0)
(0.0889319 0.987454 0)
(0.197841 0.864849 0)
(0.313097 0.809391 0)
(0.354773 0.751411 0)
(0.342664 0.731821 0)
(0.158633 1.03021 0)
(0.0442252 1.64593 0)
(-0.0803763 1.55389 0)
(-0.138952 0.765671 0)
(-0.250452 0.51609 0)
(-0.396498 0.756569 0)
(-0.525574 0.89568 0)
(-0.513314 0.966988 0)
(-0.433384 0.977804 0)
(-0.375333 1.03377 0)
(-0.359672 1.08438 0)
(-0.342114 1.09884 0)
(-0.354957 1.08695 0)
(-0.371834 1.1072 0)
(-0.375889 1.07436 0)
(-0.375847 1.03519 0)
(-0.3659 0.937939 0)
(-0.20717 0.565446 0)
(-0.0148311 0.146756 0)
(0.015799 0.0579487 0)
(-0.00497434 0.0815115 0)
(-0.0146141 0.119579 0)
(-0.0104693 0.148913 0)
(-0.00157712 0.173113 0)
(0.00134941 0.19836 0)
(0.0893798 0.875573 0)
(0.198473 0.769604 0)
(0.308148 0.752777 0)
(0.338324 0.782202 0)
(0.327576 0.873566 0)
(0.090446 1.22307 0)
(-0.058328 1.75441 0)
(-0.0762639 1.59143 0)
(-0.17489 0.865805 0)
(-0.405053 0.666833 0)
(-0.575473 0.890837 0)
(-0.63195 0.90836 0)
(-0.582776 0.87815 0)
(-0.471971 0.88484 0)
(-0.370385 0.971049 0)
(-0.34473 1.05617 0)
(-0.33691 1.07805 0)
(-0.359582 1.0927 0)
(-0.365479 1.08496 0)
(-0.377912 1.0696 0)
(-0.385139 1.02172 0)
(-0.323748 0.857086 0)
(-0.102839 0.318976 0)
(0.0321201 0.0833959 0)
(0.02846 0.0655157 0)
(0.0126373 0.0870629 0)
(0.0034386 0.113804 0)
(0.00265092 0.138654 0)
(0.00410721 0.165669 0)
(0.00172569 0.200924 0)
(0.0910894 0.754027 0)
(0.197711 0.678651 0)
(0.290669 0.70462 0)
(0.298852 0.82454 0)
(0.260457 1.01465 0)
(-0.0286521 1.4948 0)
(-0.228506 1.74831 0)
(-0.154545 1.59048 0)
(-0.279411 1.07427 0)
(-0.549617 0.86012 0)
(-0.691146 0.966495 0)
(-0.699944 0.891495 0)
(-0.636791 0.784231 0)
(-0.514892 0.755201 0)
(-0.375826 0.870447 0)
(-0.309826 1.02702 0)
(-0.311603 1.07977 0)
(-0.327441 1.06787 0)
(-0.340705 1.0769 0)
(-0.355184 1.05152 0)
(-0.365498 1.00424 0)
(-0.206005 0.6486 0)
(-0.00170235 0.158039 0)
(0.0498795 0.0685881 0)
(0.0384862 0.0736357 0)
(0.0249978 0.0922178 0)
(0.0163136 0.114418 0)
(0.0126021 0.137182 0)
(0.0118227 0.166601 0)
(0.00469098 0.210138 0)
(0.0878234 0.623018 0)
(0.184114 0.595655 0)
(0.265499 0.654083 0)
(0.258392 0.873482 0)
(0.0988595 1.17975 0)
(-0.214116 1.80249 0)
(-0.371721 1.73882 0)
(-0.312144 1.54208 0)
(-0.450294 1.29178 0)
(-0.637149 1.02336 0)
(-0.730971 1.00303 0)
(-0.712597 0.860259 0)
(-0.660175 0.708727 0)
(-0.557015 0.635604 0)
(-0.41827 0.74284 0)
(-0.29514 0.976559 0)
(-0.263561 1.06607 0)
(-0.275523 1.07158 0)
(-0.310168 1.0531 0)
(-0.32799 1.04888 0)
(-0.284017 0.939379 0)
(-0.0738021 0.398006 0)
(0.0569553 0.0902451 0)
(0.0631338 0.0718172 0)
(0.05007 0.0826632 0)
(0.0375778 0.0998406 0)
(0.0287817 0.119419 0)
(0.0236887 0.14039 0)
(0.0239644 0.1723 0)
(0.00970582 0.232116 0)
(0.0681662 0.502801 0)
(0.144703 0.5186 0)
(0.21785 0.595863 0)
(0.135344 0.951199 0)
(-0.107297 1.49828 0)
(-0.313823 1.92595 0)
(-0.400839 1.73183 0)
(-0.418009 1.5848 0)
(-0.565365 1.39121 0)
(-0.665619 1.10634 0)
(-0.699154 0.992601 0)
(-0.666956 0.820375 0)
(-0.640085 0.64757 0)
(-0.576474 0.55163 0)
(-0.466813 0.605613 0)
(-0.298091 0.85719 0)
(-0.216071 1.05172 0)
(-0.219268 1.06536 0)
(-0.278961 1.06155 0)
(-0.279814 1.00577 0)
(-0.141981 0.781163 0)
(0.0457243 0.233723 0)
(0.0920785 0.0818024 0)
(0.0823962 0.0831355 0)
(0.0660884 0.0955109 0)
(0.05228 0.110624 0)
(0.0431028 0.126888 0)
(0.0405377 0.144068 0)
(0.0443121 0.172726 0)
(0.0227444 0.31046 0)
(0.0347013 0.417536 0)
(0.084874 0.453716 0)
(0.118896 0.575404 0)
(-0.0598298 1.10881 0)
(-0.229941 1.66693 0)
(-0.270467 1.91306 0)
(-0.351929 1.7947 0)
(-0.429104 1.6666 0)
(-0.598921 1.50639 0)
(-0.646991 1.12107 0)
(-0.621138 0.948837 0)
(-0.580792 0.784849 0)
(-0.578126 0.608992 0)
(-0.557166 0.503688 0)
(-0.490909 0.490122 0)
(-0.32584 0.682614 0)
(-0.193815 1.00874 0)
(-0.162945 1.08479 0)
(-0.23066 1.05535 0)
(-0.187389 0.939702 0)
(0.0233907 0.55544 0)
(0.141111 0.181478 0)
(0.130691 0.100328 0)
(0.108348 0.103555 0)
(0.0862721 0.114083 0)
(0.0686911 0.125162 0)
(0.0577879 0.135691 0)
(0.0570512 0.144225 0)
(0.077704 0.169828 0)
(0.0570571 0.331811 0)
(0.00206984 0.391993 0)
(0.00069557 0.433274 0)
(-0.0447564 0.640875 0)
(-0.169413 1.26173 0)
(-0.230966 1.67015 0)
(-0.217918 1.87961 0)
(-0.292321 1.85135 0)
(-0.426663 1.79178 0)
(-0.555257 1.59419 0)
(-0.569282 1.07816 0)
(-0.508153 0.901263 0)
(-0.478249 0.754309 0)
(-0.487947 0.59664 0)
(-0.499802 0.487172 0)
(-0.480664 0.42775 0)
(-0.368121 0.51878 0)
(-0.206353 0.90668 0)
(-0.119957 1.09137 0)
(-0.156008 1.04303 0)
(-0.03255 0.769694 0)
(0.167279 0.386327 0)
(0.220617 0.196791 0)
(0.179482 0.141365 0)
(0.140163 0.136682 0)
(0.109534 0.140842 0)
(0.084942 0.146338 0)
(0.068266 0.150325 0)
(0.0615642 0.142966 0)
(0.0664124 0.162817 0)
(0.00125813 0.444274 0)
(-0.0306052 0.43649 0)
(-0.097438 0.509836 0)
(-0.203465 0.734711 0)
(-0.218268 1.28904 0)
(-0.201162 1.65953 0)
(-0.183586 1.85323 0)
(-0.258278 1.93911 0)
(-0.414938 1.89188 0)
(-0.457591 1.61853 0)
(-0.444932 1.01429 0)
(-0.381998 0.868542 0)
(-0.376599 0.734483 0)
(-0.39337 0.597453 0)
(-0.423499 0.490561 0)
(-0.440525 0.416445 0)
(-0.391897 0.426895 0)
(-0.249669 0.732479 0)
(-0.117122 1.0981 0)
(-0.0317665 0.99175 0)
(0.132305 0.571346 0)
(0.253415 0.311642 0)
(0.259772 0.233783 0)
(0.217604 0.198229 0)
(0.168368 0.180282 0)
(0.129679 0.174008 0)
(0.0970556 0.172221 0)
(0.0660009 0.169512 0)
(0.0350522 0.157017 0)
(-0.0468194 0.25427 0)
(-0.0339383 0.401387 0)
(-0.0567098 0.533446 0)
(-0.173331 0.661928 0)
(-0.283125 0.845947 0)
(-0.280325 1.26431 0)
(-0.198474 1.64203 0)
(-0.16053 1.86923 0)
(-0.210646 2.02202 0)
(-0.363536 1.9962 0)
(-0.317572 1.56252 0)
(-0.287737 0.977632 0)
(-0.262109 0.874256 0)
(-0.288183 0.744239 0)
(-0.315148 0.613056 0)
(-0.348025 0.504506 0)
(-0.379559 0.429336 0)
(-0.374431 0.410592 0)
(-0.301002 0.604991 0)
(-0.134433 1.01826 0)
(0.116728 0.84366 0)
(0.246968 0.474411 0)
(0.278419 0.31559 0)
(0.253942 0.272636 0)
(0.211959 0.248125 0)
(0.166959 0.226482 0)
(0.124734 0.21222 0)
(0.0848112 0.206539 0)
(0.0428637 0.209106 0)
(-0.0103484 0.225873 0)
(-0.058359 0.307242 0)
(-0.0167838 0.364924 0)
(-0.0792938 0.688196 0)
(-0.242892 0.835814 0)
(-0.372592 0.989693 0)
(-0.390999 1.26319 0)
(-0.28221 1.59608 0)
(-0.171434 1.8763 0)
(-0.172884 2.12795 0)
(-0.222043 2.08174 0)
(-0.130954 1.46237 0)
(-0.105534 1.01173 0)
(-0.149498 0.92351 0)
(-0.204454 0.782023 0)
(-0.247229 0.639208 0)
(-0.279275 0.521966 0)
(-0.306651 0.44875 0)
(-0.327289 0.435172 0)
(-0.305023 0.56316 0)
(-0.121371 0.823529 0)
(0.180611 0.693602 0)
(0.266055 0.463516 0)
(0.252572 0.355123 0)
(0.214786 0.312924 0)
(0.177198 0.285262 0)
(0.140446 0.263215 0)
(0.103015 0.248065 0)
(0.065428 0.242399 0)
(0.0275889 0.247944 0)
(-0.00925808 0.269089 0)
(-0.0274031 0.319259 0)
(-0.00783929 0.354318 0)
(-0.131269 0.900108 0)
(-0.3353 1.01311 0)
(-0.47966 1.12705 0)
(-0.519504 1.30973 0)
(-0.422689 1.53753 0)
(-0.257452 1.82904 0)
(-0.171886 2.18305 0)
(-0.00371899 2.06603 0)
(0.0857012 1.41855 0)
(0.0805266 1.11949 0)
(-0.0392819 1.01216 0)
(-0.137527 0.847303 0)
(-0.197989 0.676351 0)
(-0.226825 0.539341 0)
(-0.240165 0.463229 0)
(-0.248863 0.456363 0)
(-0.227213 0.55083 0)
(-0.0693235 0.647967 0)
(0.126481 0.602758 0)
(0.195504 0.477682 0)
(0.186028 0.391713 0)
(0.160329 0.344721 0)
(0.134636 0.314625 0)
(0.108283 0.293142 0)
(0.0801553 0.278554 0)
(0.0511792 0.272278 0)
(0.0235966 0.276142 0)
(0.00106535 0.29243 0)
(-0.00928492 0.320688 0)
(-0.0035742 0.340601 0)
(-0.231694 1.07529 0)
(-0.421259 1.16021 0)
(-0.519018 1.24013 0)
(-0.540191 1.38237 0)
(-0.479798 1.54234 0)
(-0.351605 1.79956 0)
(-0.173149 2.12973 0)
(0.171578 1.96705 0)
(0.277547 1.47782 0)
(0.212245 1.26425 0)
(0.0470445 1.15006 0)
(-0.111802 0.965122 0)
(-0.199414 0.752144 0)
(-0.215019 0.566127 0)
(-0.197508 0.470198 0)
(-0.174778 0.452578 0)
(-0.132277 0.514478 0)
(-0.0440885 0.565347 0)
(0.0499317 0.543401 0)
(0.104369 0.467506 0)
(0.115257 0.403713 0)
(0.10815 0.361666 0)
(0.0947972 0.333694 0)
(0.0782059 0.314288 0)
(0.0592912 0.301221 0)
(0.0392871 0.294602 0)
(0.020388 0.295527 0)
(0.00545943 0.304825 0)
(-0.00224499 0.320417 0)
(-0.00136661 0.333108 0)
(-0.143252 1.29736 0)
(-0.344697 1.09613 0)
(-0.429526 1.06084 0)
(-0.452444 1.23796 0)
(-0.460098 1.47614 0)
(-0.397121 1.7516 0)
(-0.167858 1.9804 0)
(0.173861 1.85978 0)
(0.310659 1.54614 0)
(0.275099 1.39824 0)
(0.140704 1.34072 0)
(-0.0959181 1.15775 0)
(-0.258651 0.84662 0)
(-0.263176 0.596314 0)
(-0.192853 0.466281 0)
(-0.135385 0.434417 0)
(-0.0884419 0.471027 0)
(-0.0371805 0.498858 0)
(0.0120226 0.482591 0)
(0.0479104 0.438871 0)
(0.0644142 0.397405 0)
(0.0670549 0.365891 0)
(0.0619417 0.34322 0)
(0.0525788 0.327022 0)
(0.0407983 0.31587 0)
(0.027973 0.309471 0)
(0.0156836 0.308325 0)
(0.00577661 0.312944 0)
(0.000446523 0.321762 0)
(0.000115285 0.330165 0)
(-0.00707521 1.46817 0)
(-0.112803 1.34376 0)
(-0.273482 1.24582 0)
(-0.384375 1.2361 0)
(-0.414317 1.30632 0)
(-0.334593 1.39938 0)
(-0.142306 1.51599 0)
(0.0583324 1.45627 0)
(0.153623 1.34549 0)
(0.138824 1.31073 0)
(-0.00226418 1.36012 0)
(-0.234549 1.22991 0)
(-0.358671 0.924035 0)
(-0.3578 0.579953 0)
(-0.239665 0.431818 0)
(-0.131997 0.405024 0)
(-0.0799683 0.438709 0)
(-0.0450543 0.456104 0)
(-0.011838 0.439724 0)
(0.0154232 0.41097 0)
(0.0322011 0.384034 0)
(0.038936 0.362421 0)
(0.0384153 0.34578 0)
(0.0334982 0.333083 0)
(0.0262589 0.323778 0)
(0.0181705 0.317835 0)
(0.0104223 0.315624 0)
(0.00421901 0.317503 0)
(0.00106187 0.322464 0)
(0.000626762 0.328284 0)
(0.0124929 1.21617 0)
(-0.0129917 1.1957 0)
(-0.0919067 1.1972 0)
(-0.191274 1.26543 0)
(-0.271058 1.36514 0)
(-0.289664 1.4405 0)
(-0.244596 1.49309 0)
(-0.199427 1.49829 0)
(-0.215045 1.43967 0)
(-0.290779 1.45992 0)
(-0.400312 1.52867 0)
(-0.559655 1.39475 0)
(-0.629743 0.899549 0)
(-0.484554 0.449606 0)
(-0.301683 0.324335 0)
(-0.154807 0.352672 0)
(-0.093734 0.41033 0)
(-0.0611231 0.420274 0)
(-0.028081 0.40325 0)
(-0.000939842 0.38372 0)
(0.0163866 0.367827 0)
(0.0243056 0.355058 0)
(0.0252598 0.344141 0)
(0.0220115 0.334688 0)
(0.0167631 0.326876 0)
(0.0110335 0.321254 0)
(0.00582749 0.318404 0)
(0.00201769 0.318641 0)
(0.000453508 0.321194 0)
(0.000410407 0.325657 0)
(-0.0112593 1.1962 0)
(-0.0451812 1.17961 0)
(-0.101505 1.15222 0)
(-0.166278 1.14386 0)
(-0.232219 1.16217 0)
(-0.28223 1.19479 0)
(-0.325665 1.24037 0)
(-0.370288 1.2793 0)
(-0.434135 1.31031 0)
(-0.504544 1.35114 0)
(-0.5425 1.36382 0)
(-0.564853 1.20319 0)
(-0.55401 0.760328 0)
(-0.359027 0.218423 0)
(-0.284376 0.150215 0)
(-0.15449 0.274202 0)
(-0.102662 0.366317 0)
(-0.0660402 0.375353 0)
(-0.0258605 0.364968 0)
(0.0015118 0.357261 0)
(0.0166261 0.352146 0)
(0.0220572 0.347289 0)
(0.0212077 0.341178 0)
(0.0170513 0.334019 0)
(0.0117866 0.327062 0)
(0.00669961 0.321369 0)
(0.00254974 0.317858 0)
(-3.68899e-05 0.316786 0)
(-0.000663904 0.317697 0)
(-5.29714e-05 0.321453 0)
(-0.0209377 1.23505 0)
(-0.0676895 1.22452 0)
(-0.122242 1.20677 0)
(-0.181037 1.18628 0)
(-0.243335 1.17449 0)
(-0.292738 1.15942 0)
(-0.334197 1.16755 0)
(-0.37202 1.20649 0)
(-0.420424 1.2573 0)
(-0.463497 1.29321 0)
(-0.465317 1.26121 0)
(-0.382634 1.00626 0)
(-0.215075 0.500107 0)
(-0.0631657 0.0736513 0)
(-0.10363 0.0767667 0)
(-0.105552 0.232977 0)
(-0.0648873 0.317757 0)
(-0.0320342 0.32692 0)
(0.00183184 0.330728 0)
(0.0210048 0.336047 0)
(0.0284285 0.340673 0)
(0.0276273 0.341858 0)
(0.0224994 0.338827 0)
(0.0160866 0.332995 0)
(0.0100362 0.326173 0)
(0.00494297 0.319999 0)
(0.00111376 0.315534 0)
(-0.00106523 0.313165 0)
(-0.0013691 0.312944 0)
(-0.000301276 0.31609 0)
(-0.0227931 1.27109 0)
(-0.0732003 1.27413 0)
(-0.12608 1.26128 0)
(-0.18154 1.24612 0)
(-0.239058 1.23214 0)
(-0.280818 1.21218 0)
(-0.300755 1.1994 0)
(-0.315839 1.23974 0)
(-0.344469 1.29276 0)
(-0.362402 1.29867 0)
(-0.326271 1.19232 0)
(-0.164932 0.82384 0)
(0.0578313 0.311474 0)
(0.105245 0.051638 0)
(0.0254844 0.138099 0)
(-0.000321497 0.23457 0)
(0.0104792 0.273205 0)
(0.0296186 0.292839 0)
(0.0429911 0.308444 0)
(0.0483144 0.324163 0)
(0.0449215 0.334982 0)
(0.0355264 0.339535 0)
(0.0257161 0.337731 0)
(0.0177668 0.332428 0)
(0.011666 0.325423 0)
(0.00675813 0.318598 0)
(0.00284538 0.31311 0)
(0.00025505 0.309505 0)
(-0.000651281 0.308208 0)
(-1.48283e-05 0.310883 0)
(-0.0212563 1.31968 0)
(-0.0707381 1.32331 0)
(-0.120968 1.3146 0)
(-0.171014 1.2982 0)
(-0.219715 1.28027 0)
(-0.243409 1.23727 0)
(-0.241823 1.20332 0)
(-0.241613 1.25049 0)
(-0.255523 1.31204 0)
(-0.252348 1.28076 0)
(-0.165507 1.06945 0)
(0.0382521 0.621497 0)
(0.210902 0.186028 0)
(0.155935 0.109822 0)
(0.111292 0.189636 0)
(0.0941196 0.232673 0)
(0.0893541 0.258243 0)
(0.0888599 0.281057 0)
(0.0855219 0.299261 0)
(0.0749094 0.320407 0)
(0.0608188 0.336434 0)
(0.0450529 0.341966 0)
(0.0330136 0.339745 0)
(0.0262872 0.334135 0)
(0.0210172 0.326755 0)
(0.0155069 0.319383 0)
(0.0100588 0.313036 0)
(0.00539438 0.308178 0)
(0.00223804 0.305676 0)
(0.000829331 0.307822 0)
(-0.0194579 1.36336 0)
(-0.0655082 1.37117 0)
(-0.110351 1.3635 0)
(-0.151447 1.33987 0)
(-0.187171 1.30953 0)
(-0.191808 1.24 0)
(-0.178859 1.19509 0)
(-0.173003 1.25074 0)
(-0.175018 1.30808 0)
(-0.143053 1.22315 0)
(-0.0135279 0.914102 0)
(0.191318 0.466084 0)
(0.26446 0.163621 0)
(0.212015 0.187777 0)
(0.204572 0.22192 0)
(0.181228 0.242043 0)
(0.163739 0.26191 0)
(0.144276 0.284238 0)
(0.125439 0.307158 0)
(0.101217 0.330394 0)
(0.0801181 0.347504 0)
(0.0663467 0.357668 0)
(0.0591562 0.351011 0)
(0.051999 0.342945 0)
(0.0429011 0.335006 0)
(0.0330159 0.326863 0)
(0.0230635 0.318982 0)
(0.0139865 0.312254 0)
(0.00680605 0.307661 0)
(0.001742 0.308255 0)
(-0.0172204 1.39982 0)
(-0.0570071 1.40885 0)
(-0.0920601 1.40041 0)
(-0.12189 1.36739 0)
(-0.147331 1.32331 0)
(-0.139976 1.23112 0)
(-0.121412 1.18044 0)
(-0.111176 1.24431 0)
(-0.100975 1.28128 0)
(-0.0387565 1.13447 0)
(0.116469 0.751778 0)
(0.294947 0.33306 0)
(0.298989 0.194672 0)
(0.309949 0.232356 0)
(0.298931 0.246171 0)
(0.265681 0.257027 0)
(0.237533 0.270987 0)
(0.204318 0.294885 0)
(0.174675 0.325727 0)
(0.138887 0.369673 0)
(0.113636 0.375135 0)
(0.107158 0.377526 0)
(0.0980011 0.3708 0)
(0.0837666 0.36141 0)
(0.0674124 0.351545 0)
(0.051427 0.341217 0)
(0.0365729 0.330943 0)
(0.0231412 0.321743 0)
(0.0116592 0.31445 0)
(0.00263358 0.311888 0)
(-0.0133617 1.43263 0)
(-0.0436818 1.43854 0)
(-0.068357 1.42553 0)
(-0.0900215 1.38848 0)
(-0.111443 1.33248 0)
(-0.0968755 1.21503 0)
(-0.0733673 1.16136 0)
(-0.0570265 1.23074 0)
(-0.0323532 1.23604 0)
(0.0627319 1.02769 0)
(0.233918 0.6046 0)
(0.362018 0.259843 0)
(0.382007 0.226118 0)
(0.412698 0.250957 0)
(0.388512 0.263069 0)
(0.354349 0.275284 0)
(0.308841 0.301735 0)
(0.249158 0.356402 0)
(0.188908 0.380388 0)
(0.166785 0.403802 0)
(0.155566 0.408472 0)
(0.141552 0.405645 0)
(0.124283 0.39622 0)
(0.104949 0.38402 0)
(0.0851039 0.371341 0)
(0.0660849 0.358742 0)
(0.0483384 0.346766 0)
(0.0316248 0.335963 0)
(0.0160109 0.326471 0)
(0.00344058 0.319886 0)
(-0.00710323 1.45753 0)
(-0.02685 1.46303 0)
(-0.0443225 1.44443 0)
(-0.0627347 1.40888 0)
(-0.0823607 1.34071 0)
(-0.0636891 1.19337 0)
(-0.0361904 1.13567 0)
(-0.0120955 1.20642 0)
(0.0343856 1.17183 0)
(0.160999 0.907224 0)
(0.344864 0.479723 0)
(0.432498 0.219905 0)
(0.472572 0.246786 0)
(0.467937 0.281328 0)
(0.428577 0.308451 0)
(0.369238 0.346256 0)
(0.296076 0.382106 0)
(0.252684 0.416392 0)
(0.227743 0.434241 0)
(0.208403 0.44314 0)
(0.188988 0.439574 0)
(0.167134 0.430792 0)
(0.144038 0.419277 0)
(0.120875 0.406119 0)
(0.0987971 0.392057 0)
(0.0784785 0.377828 0)
(0.0597223 0.365067 0)
(0.0408067 0.355011 0)
(0.0207797 0.347638 0)