/*--------------------------------*- C++ -*----------------------------------*\
| =========                 |                                                 |
| \\      /  F ield         | OpenFOAM: The Open Source CFD Toolbox           |
|  \\    /   O peration     | Version:  2.3.0                                 |
|   \\  /    A nd           | Web:      www.OpenFOAM.org                      |
|    \\/     M anipulation  |                                                 |
\*---------------------------------------------------------------------------*/
FoamFile
{
    version     2.0;
    format      ascii;
    class       volScalarField;
    location    "3.3995";
    object      alpha.air;
}
// * * * * * * * * * * * * * * * * * * * * * * * * * * * * * * * * * * * * * //

dimensions      [0 0 0 0 0 0 0];

internalField   nonuniform List<scalar> 
18816
(
0.456025
0.485146
0.475583
0.47535
0.471216
0.470251
0.468424
0.468379
0.467831
0.4645
0.45981
0.456059
0.453638
0.446568
0.439253
0.429609
0.41855
0.405362
0.391137
0.377266
0.367256
0.362147
0.363357
0.360633
0.37443
0.404349
0.441889
0.457239
0.442086
0.458239
0.449529
0.449803
0.445933
0.445798
0.446094
0.445046
0.439786
0.434429
0.432464
0.432851
0.413877
0.399222
0.379999
0.357413
0.332451
0.30807
0.289424
0.279213
0.276355
0.280356
0.293214
0.293642
0.311513
0.349311
0.407277
0.439532
0.441524
0.42171
0.423796
0.419344
0.415864
0.417125
0.417796
0.414208
0.405893
0.401157
0.397141
0.400704
0.387375
0.361598
0.336552
0.31328
0.295945
0.285845
0.281421
0.27962
0.278978
0.280844
0.277535
0.269724
0.282414
0.317352
0.381991
0.428891
0.440343
0.430626
0.414043
0.415963
0.413902
0.415141
0.41445
0.406371
0.399445
0.393894
0.382581
0.36555
0.355206
0.33156
0.310836
0.295932
0.286592
0.281677
0.279478
0.278476
0.277886
0.278106
0.274029
0.258272
0.268701
0.298539
0.365895
0.42385
0.437857
0.471299
0.425843
0.413568
0.41184
0.412598
0.410271
0.404717
0.39792
0.390222
0.370054
0.34153
0.327508
0.306603
0.281469
0.252092
0.212102
0.161377
0.119922
0.0972649
0.0905534
0.111444
0.166957
0.23541
0.262556
0.288862
0.354188
0.420535
0.435229
0.483356
0.450924
0.425725
0.420715
0.419744
0.414711
0.402229
0.394749
0.383863
0.35863
0.322246
0.300533
0.264622
0.199993
0.112063
0.0408012
0.0108192
0.00485219
0.00315149
0.00443972
0.0111664
0.0393714
0.1249
0.253482
0.284881
0.34777
0.418915
0.433855
0.483356
0.464963
0.447567
0.438021
0.433939
0.426518
0.406778
0.399176
0.386027
0.34969
0.306562
0.271313
0.212337
0.127782
0.0724008
0.0500818
0.0239418
0.00279386
5.52235e-05
4.41559e-05
0.000725453
0.00812831
0.0592973
0.199548
0.278243
0.343362
0.41727
0.433047
0.483356
0.470194
0.460441
0.449022
0.44381
0.432979
0.417085
0.408764
0.392668
0.34175
0.294422
0.248974
0.182403
0.119969
0.107811
0.10243
0.059871
0.00905294
4.29645e-05
1.81739e-06
2.34736e-05
0.00104809
0.0193961
0.123174
0.273317
0.341111
0.416904
0.432675
0.483237
0.472353
0.463645
0.45114
0.443755
0.43355
0.423803
0.414911
0.392429
0.338584
0.288778
0.238827
0.16915
0.139489
0.134088
0.127534
0.0833832
0.0133592
6.39235e-05
1.54009e-06
6.48792e-07
0.000112261
0.00589156
0.0798802
0.283176
0.341479
0.416685
0.432417
0.483314
0.472453
0.46377
0.450982
0.443184
0.432987
0.423451
0.41492
0.38834
0.334756
0.288297
0.241834
0.175767
0.162111
0.151987
0.141815
0.0966895
0.011698
9.50429e-05
2.81214e-06
1.92148e-07
6.0981e-06
0.000922879
0.0290347
0.203868
0.341456
0.416161
0.432299
0.483038
0.47196
0.463496
0.450823
0.442267
0.433158
0.422941
0.41396
0.368953
0.335288
0.290575
0.250514
0.192617
0.179232
0.17213
0.153851
0.0774094
0.011095
0.000171879
3.77827e-06
1.89487e-07
4.17921e-07
0.000144593
0.00790376
0.0900738
0.33857
0.415047
0.432162
0.481565
0.471016
0.462989
0.450416
0.441607
0.433213
0.423227
0.409786
0.359984
0.337675
0.295127
0.25715
0.201117
0.191759
0.182435
0.148704
0.0605634
0.00761864
0.000200363
4.10872e-06
1.42012e-07
1.15053e-07
4.30152e-05
0.0046408
0.0772754
0.33411
0.4139
0.431977
0.481621
0.470838
0.462601
0.449927
0.441357
0.433459
0.423638
0.403448
0.352832
0.334998
0.297796
0.263574
0.210743
0.206509
0.195658
0.137489
0.0407716
0.00388225
0.000110627
4.11138e-06
1.48021e-07
5.13726e-08
1.13264e-05
0.00278113
0.0730897
0.33098
0.413114
0.431813
0.482609
0.471163
0.462534
0.449307
0.441426
0.434115
0.423653
0.395838
0.344656
0.32769
0.296964
0.267888
0.222332
0.219725
0.183598
0.0913932
0.0167257
0.00108514
6.22899e-05
3.25365e-06
1.65289e-07
4.53716e-08
2.46323e-06
0.00151118
0.0666562
0.328769
0.412572
0.431724
0.482264
0.471834
0.46235
0.448553
0.441603
0.434913
0.422787
0.38571
0.336391
0.318783
0.295154
0.266437
0.241783
0.214652
0.125123
0.0359492
0.00356003
0.000258344
4.47247e-05
2.44367e-06
1.74989e-07
4.6996e-08
4.03798e-07
0.000690352
0.0557621
0.32964
0.412458
0.431719
0.479841
0.472004
0.462138
0.4486
0.44242
0.435385
0.420377
0.375731
0.329679
0.312872
0.294845
0.266471
0.252771
0.147143
0.0427026
0.00533014
0.000387636
0.000126285
3.20572e-05
1.46249e-06
1.74908e-07
2.9659e-08
8.05536e-08
0.000239191
0.0402668
0.329555
0.412542
0.431673
0.479645
0.471632
0.461867
0.448144
0.442784
0.435152
0.41357
0.345803
0.283797
0.306772
0.293031
0.247859
0.159194
0.0422684
0.0039994
0.000449237
0.000159166
8.41878e-05
1.76211e-05
7.16327e-07
1.71726e-07
2.75618e-08
1.77404e-08
4.7218e-05
0.0232753
0.328559
0.412686
0.431651
0.480849
0.470362
0.461049
0.44819
0.443251
0.43322
0.376152
0.201757
0.131626
0.261906
0.287402
0.117199
0.0238622
0.00174937
0.000355875
0.000225398
0.000101318
3.55014e-05
4.5256e-06
3.71719e-07
1.15797e-07
2.15119e-08
1.14855e-08
4.32818e-06
0.00997063
0.326878
0.412795
0.431578
0.480701
0.469151
0.460385
0.44859
0.443881
0.424023
0.27587
0.011
0.00879584
0.0676401
0.17466
0.0214316
0.000480127
0.000185013
0.000230024
0.00013425
3.2817e-05
7.2093e-06
8.32313e-07
2.90331e-07
8.31597e-08
1.50065e-08
1.71503e-09
6.5803e-08
0.00265643
0.325407
0.412789
0.431485
0.479295
0.468521
0.459636
0.448727
0.442044
0.395671
0.137975
6.04449e-05
4.98031e-05
0.00140765
0.00742337
0.000216816
6.00863e-05
0.000163951
0.000145448
4.43211e-05
8.79267e-06
1.61178e-06
3.36411e-07
1.51308e-07
4.8168e-08
8.74364e-09
9.64213e-10
5.15804e-11
0.000705071
0.322611
0.412735
0.431341
0.479312
0.468506
0.459238
0.449006
0.437838
0.333583
0.0301743
9.09978e-06
1.30665e-06
1.96337e-06
1.36091e-05
1.54168e-05
7.44294e-05
0.000114358
9.36655e-05
1.84032e-05
4.38257e-06
7.12032e-07
1.81041e-07
7.97002e-08
2.20955e-08
3.41012e-09
3.19836e-10
1.71612e-11
0.000561785
0.314517
0.412607
0.431151
0.479312
0.469278
0.459385
0.449711
0.431487
0.27771
0.00388681
5.30232e-05
6.37588e-06
5.66263e-07
1.3474e-06
1.09915e-05
6.42011e-05
0.000118924
0.000121718
3.39545e-05
6.46033e-06
4.29296e-07
9.73918e-08
1.53757e-08
2.32764e-09
2.45959e-10
1.83235e-11
9.83641e-13
0.00038973
0.302153
0.412397
0.430908
0.478278
0.47018
0.45962
0.44968
0.420545
0.225598
0.00327122
3.30329e-05
8.78377e-07
9.27487e-08
2.42357e-07
2.16839e-06
1.21521e-05
2.56552e-05
2.46951e-05
8.39374e-06
5.84298e-07
1.3098e-07
3.4078e-08
5.89815e-09
7.28731e-10
5.89845e-11
3.58445e-12
1.89748e-13
0.000243919
0.286081
0.412123
0.430652
0.477524
0.470449
0.460597
0.449572
0.406509
0.179302
0.0127591
8.33295e-05
1.08738e-07
1.04519e-08
1.52069e-08
1.18792e-07
6.88852e-07
2.01258e-06
2.21463e-07
3.17474e-08
5.93684e-09
1.19805e-09
2.26582e-10
2.92093e-11
2.85447e-12
1.94346e-13
1.13918e-14
8.03335e-16
0.000133644
0.269579
0.411815
0.430501
0.478234
0.470342
0.460853
0.448507
0.395831
0.179421
0.021539
0.000114226
8.81357e-08
6.33428e-09
1.75485e-09
1.17213e-08
7.99814e-08
3.53536e-07
9.26745e-08
1.34962e-08
2.36042e-09
3.51486e-10
4.89359e-11
4.53108e-12
3.12436e-13
1.51633e-14
6.90166e-16
4.6535e-17
6.73557e-05
0.253936
0.411526
0.430162
0.47833
0.469321
0.461017
0.44648
0.391613
0.188569
0.0184019
9.00426e-05
4.35358e-08
3.19389e-09
2.00318e-10
1.22074e-10
1.3698e-09
8.47006e-09
4.29986e-09
2.17784e-10
1.32873e-11
9.13851e-13
6.39632e-14
2.94988e-15
1.04409e-16
3.01601e-18
9.35324e-20
1.25586e-20
2.3429e-05
0.24027
0.411173
0.429486
0.47833
0.469012
0.461374
0.444849
0.381999
0.128015
0.00242893
2.12385e-06
7.15718e-09
2.2658e-10
5.11365e-12
1.07348e-11
1.95561e-10
2.04699e-09
1.17743e-09
5.8804e-11
2.24387e-12
7.8487e-14
2.69657e-15
7.27495e-17
1.8457e-18
3.83589e-20
7.02287e-22
2.26059e-22
2.79217e-06
0.229698
0.410845
0.429362
0.476687
0.468684
0.461515
0.443131
0.351487
0.00996543
4.64722e-06
6.55681e-09
2.71962e-10
3.43853e-12
3.96054e-14
4.43698e-15
5.31425e-13
1.64547e-11
9.48632e-12
2.2232e-15
8.86147e-19
1.83181e-21
9.67805e-24
4.13837e-26
3.95508e-28
9.78614e-30
1.47032e-28
5.58728e-25
4.82612e-08
0.216328
0.410336
0.477186
0.461547
0.476644
0.477278
0.476603
0.475569
0.472261
0.465426
0.453971
0.440054
0.423722
0.406203
0.388092
0.36808
0.347505
0.326037
0.305203
0.285556
0.267961
0.253047
0.243795
0.24069
0.244291
0.241495
0.259927
0.305192
0.37538
0.471068
0.479174
0.461535
0.458666
0.459285
0.451554
0.441217
0.421581
0.393703
0.360102
0.324727
0.29293
0.266306
0.233772
0.202196
0.174294
0.150719
0.131789
0.11706
0.106664
0.10178
0.101336
0.106638
0.110105
0.110435
0.131341
0.179063
0.254707
0.41412
0.466607
0.462447
0.446736
0.435485
0.415033
0.389594
0.351909
0.311254
0.281443
0.271957
0.27288
0.229543
0.197779
0.178059
0.161325
0.146358
0.133235
0.122016
0.113591
0.106244
0.0966049
0.088639
0.0845242
0.0741719
0.0846741
0.133537
0.229129
0.377614
0.457174
0.443877
0.431093
0.408866
0.390159
0.360039
0.315676
0.280851
0.268992
0.274669
0.277173
0.243332
0.209295
0.189465
0.182413
0.181713
0.183705
0.181958
0.174267
0.16109
0.142854
0.130056
0.115712
0.0764752
0.076082
0.109863
0.217314
0.373295
0.448005
0.401276
0.409195
0.403473
0.377281
0.33529
0.28973
0.271565
0.26926
0.277848
0.283103
0.258001
0.2277
0.217065
0.21521
0.19693
0.16265
0.115658
0.0797979
0.0614307
0.0566339
0.073838
0.113262
0.152431
0.106601
0.113023
0.20166
0.369137
0.445937
0.396854
0.383038
0.385798
0.357128
0.316782
0.286439
0.2762
0.277574
0.288324
0.292598
0.26761
0.234191
0.209821
0.17408
0.0985197
0.0344104
0.00920966
0.00337966
0.0018067
0.00233814
0.00650185
0.0275349
0.0941114
0.180897
0.137694
0.199871
0.366704
0.445988
0.400612
0.37589
0.363132
0.339167
0.307122
0.278536
0.267616
0.278973
0.287749
0.29246
0.265578
0.226854
0.181526
0.119777
0.0707146
0.0523863
0.0261177
0.0027775
3.23971e-05
1.7861e-05
0.000332627
0.00515052
0.0431607
0.134675
0.136311
0.200967
0.363356
0.446156
0.405124
0.380122
0.364938
0.341921
0.312561
0.284753
0.273449
0.283678
0.286186
0.286782
0.255391
0.214621
0.162278
0.119047
0.107339
0.0933734
0.0592813
0.00914653
3.02236e-05
1.46491e-06
8.19301e-06
0.000505837
0.011673
0.0767031
0.137667
0.20643
0.362222
0.446437
0.408442
0.384627
0.368825
0.346063
0.317629
0.295007
0.285388
0.290603
0.293892
0.28467
0.256611
0.21806
0.163623
0.144787
0.12423
0.0995063
0.074842
0.0134898
5.67219e-05
1.3493e-06
1.85643e-07
3.4694e-05
0.0028375
0.0513764
0.196771
0.212957
0.35962
0.446787
0.410804
0.386655
0.371115
0.345692
0.315761
0.294889
0.290787
0.301947
0.30801
0.283207
0.254997
0.228659
0.175582
0.169158
0.136634
0.105239
0.0840176
0.0112537
9.96943e-05
2.45874e-06
8.92267e-08
8.44123e-07
0.000246198
0.0137806
0.136007
0.223375
0.357346
0.447131
0.41251
0.387395
0.370821
0.34475
0.312985
0.295269
0.301186
0.325454
0.283656
0.271944
0.244083
0.231133
0.1983
0.188868
0.171423
0.136967
0.0625213
0.00877007
0.000153132
3.04538e-06
7.85101e-08
5.63032e-08
1.55203e-05
0.00176472
0.0369852
0.222981
0.355855
0.447491
0.413795
0.387184
0.370037
0.343155
0.310395
0.295535
0.313137
0.332103
0.271863
0.264842
0.236873
0.229734
0.197997
0.187327
0.159079
0.120004
0.0440216
0.00510336
0.000160446
3.20842e-06
7.94943e-08
4.08577e-08
4.58948e-06
0.00102796
0.0321381
0.221388
0.355982
0.447836
0.41507
0.386891
0.369125
0.34159
0.310078
0.297602
0.323364
0.33545
0.270757
0.258349
0.237185
0.229512
0.204288
0.195854
0.174123
0.112138
0.0293317
0.0027181
9.5452e-05
2.67611e-06
8.46186e-08
3.25455e-08
1.10508e-06
0.000607966
0.0310272
0.219068
0.356599
0.448162
0.416307
0.386552
0.368547
0.340093
0.310608
0.302833
0.33183
0.334583
0.262562
0.247697
0.235723
0.227481
0.210577
0.19836
0.149919
0.0679231
0.0110491
0.000815206
5.63898e-05
2.05798e-06
8.96044e-08
3.33611e-08
2.26473e-07
0.000308793
0.0270279
0.219215
0.357374
0.44825
0.417155
0.38608
0.367705
0.338515
0.313112
0.313653
0.340543
0.329032
0.25216
0.235801
0.237536
0.223194
0.220963
0.180027
0.0954994
0.0250654
0.00235664
0.000255823
3.89326e-05
1.46193e-06
9.17918e-08
1.93536e-08
6.40029e-08
0.000133477
0.0221005
0.220115
0.358274
0.448403
0.417812
0.385151
0.366646
0.338629
0.320191
0.321821
0.345318
0.323461
0.248905
0.224763
0.247248
0.223191
0.224629
0.111629
0.0299307
0.00391742
0.000347415
0.000128701
2.58091e-05
8.47109e-07
9.37648e-08
1.79018e-08
1.79051e-08
4.02326e-05
0.0147101
0.21703
0.358776
0.448523
0.419321
0.383602
0.365008
0.337284
0.322642
0.32925
0.351021
0.304129
0.200263
0.232297
0.238902
0.175735
0.0980688
0.0250511
0.0022381
0.000372775
0.000145153
7.50285e-05
1.27025e-05
4.15969e-07
9.83042e-08
1.72321e-08
9.39511e-09
6.62034e-06
0.00777102
0.209935
0.358307
0.44881
0.421149
0.381818
0.362159
0.335231
0.325967
0.337772
0.335126
0.180193
0.0964996
0.209149
0.244337
0.0838658
0.0124548
0.000773657
0.000260542
0.000180019
7.34346e-05
2.50201e-05
2.81552e-06
2.27926e-07
7.14572e-08
1.40201e-08
1.52606e-09
4.43672e-07
0.00297046
0.202782
0.357428
0.448887
0.421238
0.380022
0.359067
0.333391
0.328637
0.336998
0.258334
0.00799198
0.0063172
0.0489411
0.150521
0.0164522
0.000300564
0.000108595
0.000144921
8.38408e-05
1.55475e-05
3.43024e-06
5.01522e-07
1.95771e-07
5.67944e-08
1.04894e-08
1.12121e-09
5.37325e-11
0.000694176
0.200437
0.356313
0.448921
0.420844
0.377863
0.355212
0.330808
0.326689
0.323429
0.132291
8.47751e-05
2.59548e-05
0.000805336
0.00499231
0.000136352
3.73388e-05
7.9987e-05
6.4489e-05
1.74315e-05
2.28013e-06
3.32254e-07
2.58472e-07
1.20831e-07
3.69318e-08
6.46136e-09
6.48762e-10
3.25421e-11
0.000218294
0.199654
0.354997
0.448729
0.419903
0.375284
0.351103
0.327839
0.321753
0.275092
0.0247141
1.35623e-05
1.19372e-06
7.59822e-07
5.93943e-06
9.8603e-06
3.93106e-05
5.19605e-05
3.42423e-05
5.87035e-06
1.04404e-06
2.51284e-07
1.63451e-07
6.69899e-08
1.70024e-08
2.43981e-09
2.0757e-10
9.98974e-12
0.000178367
0.197851
0.353594
0.44874
0.418477
0.372855
0.347668
0.327373
0.322826
0.229519
0.00306224
4.97091e-05
5.00317e-06
4.18414e-07
1.02699e-06
9.65481e-06
5.05785e-05
8.72191e-05
8.59974e-05
1.99246e-05
3.57476e-06
2.51891e-07
5.52353e-08
8.86299e-09
1.27653e-09
1.32118e-10
9.58003e-12
4.7804e-13
0.000126236
0.194216
0.352079
0.448616
0.415752
0.370277
0.343882
0.328167
0.321581
0.186184
0.00750417
6.18179e-05
1.92756e-07
1.40058e-08
3.92086e-08
8.96822e-07
6.45116e-06
1.17501e-05
1.1886e-05
2.99381e-06
1.6282e-07
4.12064e-08
1.12805e-08
2.15491e-09
2.80252e-10
2.38904e-11
1.4927e-12
6.99938e-14
8.32473e-05
0.188391
0.350837
0.448613
0.412312
0.368387
0.344056
0.330636
0.316
0.145138
0.0180241
0.000141352
3.23849e-08
2.89471e-09
3.19241e-09
1.65513e-08
9.36565e-08
2.4645e-07
2.1933e-07
4.21065e-08
8.0832e-09
1.76469e-09
3.25169e-10
4.04678e-11
3.58589e-12
2.18874e-13
1.14304e-14
5.55804e-16
4.96814e-05
0.182034
0.349783
0.448567
0.407853
0.366607
0.343322
0.329226
0.305712
0.146989
0.0235155
0.000164048
5.30155e-08
6.10073e-10
1.8582e-10
1.15753e-09
7.31862e-09
3.31436e-08
8.5335e-08
1.29884e-08
2.35392e-09
3.65105e-10
4.9068e-11
4.28393e-12
2.65387e-13
1.15097e-14
4.65378e-16
2.0125e-17
2.66282e-05
0.17584
0.34897
0.448346
0.403092
0.364574
0.341906
0.324823
0.302065
0.170986
0.0188227
0.000119847
8.75273e-08
3.15407e-10
2.52742e-11
7.58933e-11
7.09263e-10
3.64326e-09
6.79168e-09
2.45111e-10
1.46052e-11
1.01762e-12
6.88007e-14
3.02571e-15
9.38448e-17
2.24922e-18
5.78942e-20
2.11076e-21
8.7401e-06
0.170245
0.347965
0.448289
0.40044
0.362912
0.340479
0.325619
0.301053
0.121746
0.00245761
2.38869e-06
7.2664e-11
5.3566e-12
3.80634e-13
3.78481e-12
5.95765e-11
5.14851e-10
9.58889e-10
3.70267e-11
1.12099e-12
3.27294e-14
9.05043e-16
1.96991e-17
3.92986e-19
6.12308e-21
8.3283e-23
1.61946e-23
9.42844e-07
0.166617
0.347341
0.447639
0.397281
0.360016
0.340606
0.32982
0.284034
0.0054609
3.80556e-06
3.76964e-11
2.54209e-12
1.05968e-13
3.16871e-15
8.9466e-15
9.29403e-13
1.94386e-11
3.46642e-12
3.97674e-20
8.0589e-24
1.11698e-26
4.38362e-29
1.50118e-31
6.32178e-34
3.25011e-36
1.44825e-38
4.26865e-26
6.8185e-09
0.15589
0.347449
0.477904
0.466476
0.445168
0.435326
0.42241
0.411788
0.400071
0.38772
0.372759
0.355282
0.336187
0.316844
0.297645
0.277603
0.258288
0.239268
0.221624
0.205816
0.192432
0.181684
0.175375
0.173848
0.176151
0.175018
0.192351
0.235717
0.299993
0.426759
0.43251
0.332658
0.292764
0.280716
0.263635
0.248768
0.233114
0.215299
0.19726
0.178862
0.161245
0.142141
0.1201
0.100355
0.0824227
0.0667547
0.0534822
0.0430693
0.0356905
0.0311875
0.0289795
0.0282055
0.0280638
0.027068
0.0356565
0.0701453
0.136109
0.305641
0.368644
0.256404
0.20836
0.178597
0.158152
0.139755
0.121242
0.106454
0.0973976
0.094623
0.0959661
0.0909848
0.0773003
0.0650141
0.0556607
0.0481184
0.0422792
0.0375704
0.0339393
0.0314068
0.0298958
0.0295246
0.0306407
0.0311849
0.0324477
0.0395901
0.090519
0.240828
0.329621
0.198305
0.149459
0.135545
0.114814
0.102669
0.0960438
0.0915394
0.0909237
0.0971817
0.101555
0.0959883
0.0845043
0.0768834
0.0751401
0.0829081
0.0911073
0.0943972
0.0883296
0.0786788
0.0719011
0.0704611
0.0701646
0.0736869
0.0528517
0.0422252
0.0826529
0.232751
0.306045
0.216871
0.150518
0.115636
0.107144
0.10326
0.0946864
0.0918438
0.0936743
0.104849
0.115237
0.117039
0.11082
0.123999
0.136935
0.138536
0.104225
0.064368
0.0387325
0.0282067
0.0252092
0.035754
0.0642812
0.0975954
0.0833188
0.0488992
0.0736268
0.223177
0.297797
0.243797
0.179479
0.139536
0.13172
0.122727
0.10615
0.0968331
0.104026
0.121689
0.140826
0.147491
0.145959
0.148424
0.12184
0.070556
0.0244293
0.00757325
0.00182352
0.000637622
0.000592465
0.00190561
0.0111745
0.0519442
0.129319
0.0704278
0.0758385
0.216963
0.298666
0.264062
0.212052
0.181879
0.168816
0.148925
0.123062
0.109846
0.125064
0.143847
0.158824
0.162722
0.150322
0.1316
0.0951381
0.0675925
0.0536739
0.0293924
0.00279833
1.34206e-05
3.84631e-06
6.92106e-05
0.00169118
0.0187538
0.0665508
0.069653
0.0797783
0.210396
0.301215
0.278243
0.238624
0.219959
0.200406
0.173926
0.143483
0.135047
0.153296
0.162451
0.15541
0.153415
0.152463
0.131832
0.1079
0.102011
0.0893265
0.0609749
0.00820618
2.33711e-05
1.22822e-06
1.13174e-06
0.000142479
0.00481108
0.0384801
0.0700348
0.0855749
0.206924
0.303651
0.286849
0.25435
0.239029
0.21824
0.184826
0.161246
0.159378
0.171276
0.184536
0.161282
0.162045
0.170863
0.143563
0.140308
0.116451
0.0971088
0.0705282
0.0113047
4.80739e-05
1.20385e-06
1.12083e-07
7.03261e-06
0.000997106
0.0268902
0.127342
0.0905315
0.20267
0.304935
0.291889
0.262418
0.248341
0.217901
0.182211
0.162849
0.167641
0.191276
0.216939
0.183863
0.167632
0.199469
0.17824
0.135294
0.0908342
0.0697659
0.0544687
0.00589056
7.48113e-05
2.00008e-06
8.75245e-08
1.11198e-07
4.60113e-05
0.00447278
0.0615457
0.0979276
0.199311
0.306233
0.294854
0.265254
0.248304
0.216359
0.177933
0.162783
0.183137
0.223947
0.185334
0.18198
0.160603
0.180825
0.162469
0.115694
0.0700468
0.04292
0.0187182
0.00287469
9.18165e-05
2.38091e-06
7.62417e-08
4.54855e-08
4.95209e-07
0.000150685
0.0074739
0.0966713
0.197442
0.306226
0.296605
0.266568
0.247461
0.213421
0.173915
0.162881
0.201092
0.239096
0.18382
0.190652
0.165187
0.158717
0.113506
0.0919496
0.0550038
0.0341986
0.00974429
0.000877538
9.00789e-05
2.50125e-06
8.38424e-08
3.99517e-08
1.55056e-07
8.78817e-05
0.00639409
0.0936545
0.197866
0.305971
0.297887
0.266434
0.245979
0.210108
0.173348
0.165202
0.217742
0.249064
0.191395
0.190026
0.170556
0.152758
0.125185
0.0956977
0.0673435
0.038039
0.00768234
0.000693513
7.34491e-05
2.16793e-06
9.46536e-08
2.4329e-08
7.17818e-08
5.38511e-05
0.0062704
0.090566
0.199342
0.305638
0.298767
0.266023
0.244534
0.206746
0.174046
0.171477
0.233667
0.25848
0.178691
0.165114
0.164779
0.13382
0.118102
0.0916716
0.057376
0.0231441
0.00289246
0.000370359
5.43614e-05
1.6344e-06
1.05961e-07
1.99656e-08
3.09973e-08
2.73026e-05
0.00550595
0.0871045
0.200532
0.30508
0.299506
0.265452
0.242172
0.203455
0.177604
0.187281
0.250719
0.256256
0.151087
0.126017
0.164562
0.113359
0.12705
0.0846893
0.0401763
0.00915116
0.000828357
0.000238081
4.0133e-05
9.99321e-07
1.1233e-07
1.95112e-08
2.12073e-08
1.12482e-05
0.00444166
0.0864872
0.20199
0.304647
0.300882
0.264109
0.239587
0.204073
0.187203
0.201927
0.258637
0.254647
0.135163
0.0995287
0.175509
0.0809837
0.12041
0.0428577
0.0112165
0.00181686
0.000286048
0.000152191
2.36916e-05
5.15505e-07
1.1439e-07
1.99528e-08
1.2917e-08
3.07721e-06
0.00285368
0.0844341
0.201633
0.30391
0.304171
0.261342
0.236409
0.201903
0.192266
0.219857
0.276411
0.246575
0.0638587
0.112096
0.140631
0.0555637
0.0247768
0.00625716
0.000695495
0.000315868
0.000163042
8.59517e-05
1.0139e-05
3.21479e-07
8.55572e-08
1.72373e-08
5.2329e-09
4.08084e-07
0.00139902
0.0805096
0.200631
0.30344
0.305528
0.257654
0.230869
0.201928
0.20043
0.246833
0.275674
0.145528
0.0358568
0.0983951
0.15263
0.0336205
0.00223987
0.000174443
0.000216629
0.000189756
7.79252e-05
2.35125e-05
1.8401e-06
1.62894e-07
6.02536e-08
1.31713e-08
1.50631e-09
3.12821e-08
0.000470649
0.0765092
0.199292
0.302938
0.305166
0.254241
0.22668
0.202614
0.212244
0.25352
0.233673
0.00417427
0.00212337
0.0158641
0.0686064
0.00544308
8.47477e-05
7.33525e-05
0.00014574
8.07691e-05
1.25748e-05
2.28459e-06
3.35539e-07
1.44058e-07
4.62869e-08
9.09898e-09
9.93991e-10
4.95702e-11
8.71215e-05
0.0740091
0.197807
0.30252
0.303763
0.250166
0.221813
0.200517
0.22142
0.245493
0.126
7.3494e-05
4.74931e-06
0.00012727
0.00109514
3.09284e-05
2.61424e-05
4.70659e-05
5.34333e-05
1.4169e-05
1.15281e-06
2.70228e-07
2.07475e-07
9.38029e-08
2.88152e-08
5.0366e-09
5.01553e-10
2.52907e-11
4.00995e-05
0.0725114
0.196167
0.301616
0.301193
0.24592
0.218293
0.201787
0.221406
0.210434
0.0187278
1.40005e-05
9.98646e-07
3.08633e-07
1.10679e-06
6.22257e-06
2.4253e-05
3.08712e-05
1.87524e-05
2.78245e-06
4.08788e-07
2.21594e-07
1.31132e-07
5.02577e-08
1.21413e-08
1.6658e-09
1.37214e-10
6.43285e-12
3.40499e-05
0.0722827
0.194487
0.301109
0.297224
0.242097
0.21487
0.204759
0.225296
0.177311
0.00389493
6.67326e-05
3.32536e-06
3.17769e-07
7.82144e-07
7.92881e-06
3.57475e-05
5.49991e-05
4.86848e-05
7.35958e-06
6.06021e-07
1.83865e-07
4.32369e-08
7.44993e-09
1.08885e-09
1.1036e-10
7.79379e-12
3.77716e-13
2.64953e-05
0.0729646
0.192759
0.300253
0.290658
0.238511
0.213043
0.209438
0.230499
0.146228
0.0116394
0.000122124
4.51799e-08
7.46418e-09
4.46195e-08
3.55518e-07
3.43773e-06
5.36195e-06
5.1087e-06
6.86433e-07
9.18205e-08
2.60563e-08
8.03621e-09
1.66133e-09
2.21663e-10
1.85394e-11
1.12184e-12
4.99342e-14
1.99908e-05
0.0743215
0.191351
0.299868
0.283918
0.236499
0.215208
0.216689
0.228278
0.111916
0.0207709
0.000198828
1.3175e-08
7.1217e-10
1.19709e-09
7.0337e-09
3.57242e-08
1.09689e-07
1.77454e-07
3.70892e-08
1.14528e-08
2.51172e-09
4.58644e-10
5.53096e-11
4.60953e-12
2.54692e-13
1.20913e-14
5.10637e-16
1.39729e-05
0.0762238
0.190186
0.299394
0.277521
0.234847
0.21502
0.214928
0.219887
0.113321
0.0237077
0.000205226
1.07703e-08
8.81675e-11
1.81224e-10
1.44736e-09
8.9086e-09
3.60502e-08
6.51202e-08
1.16787e-08
2.22766e-09
3.54887e-10
4.73697e-11
3.97499e-12
2.32087e-13
9.05498e-15
3.28918e-16
1.19202e-17
8.14937e-06
0.0785543
0.189279
0.298299
0.272119
0.232483
0.212977
0.210276
0.215787
0.146167
0.0176364
0.000123422
8.85863e-09
3.63666e-11
5.55677e-12
5.06149e-11
5.16852e-10
3.17829e-09
9.72877e-09
3.75028e-10
2.00133e-11
1.30195e-12
8.14091e-14
3.1204e-15
7.81136e-17
1.45854e-18
2.95632e-20
7.95937e-22
2.79243e-06
0.07925
0.18834
0.29828
0.269208
0.230885
0.212921
0.212526
0.219109
0.101191
0.00184043
1.69757e-06
1.43736e-12
2.0173e-13
1.01798e-13
2.54018e-12
4.1159e-11
3.53395e-10
1.14027e-09
3.23227e-11
7.1762e-13
1.55528e-14
3.30794e-16
5.56853e-18
8.5723e-20
9.61414e-22
9.49099e-24
1.44547e-25
2.91186e-08
0.0806074
0.187423
0.297163
0.264463
0.228335
0.214366
0.220003
0.20944
0.00191963
1.65082e-06
3.95288e-13
4.64163e-14
3.14894e-15
1.37534e-16
1.30324e-15
1.35019e-13
2.7547e-12
1.61951e-12
1.45523e-24
2.75683e-28
3.05385e-31
1.04026e-33
3.13717e-36
1.10173e-38
1.40623e-36
9.18477e-39
6.42967e-41
1.59272e-28
0.0750384
0.187823
0.474773
0.438139
0.411555
0.397074
0.379109
0.364397
0.348419
0.332581
0.315689
0.297661
0.278811
0.259876
0.241323
0.22265
0.204881
0.187839
0.172577
0.159298
0.148548
0.140226
0.135666
0.13468
0.136572
0.136526
0.151236
0.18915
0.247416
0.401462
0.366948
0.216291
0.183325
0.170794
0.154154
0.140628
0.126799
0.112443
0.0989173
0.0856402
0.0732891
0.0606407
0.0476681
0.0369527
0.0282978
0.0217978
0.0171896
0.0137686
0.0115605
0.0103936
0.00982528
0.0097604
0.00991672
0.0100881
0.0130931
0.024494
0.0618178
0.24914
0.280153
0.128947
0.0880482
0.0682744
0.0553676
0.0472491
0.0405211
0.0358404
0.0334627
0.033013
0.033759
0.0339105
0.0294816
0.0260454
0.0237948
0.0223953
0.0218922
0.0252273
0.0289006
0.0326185
0.0357218
0.0382981
0.0401347
0.0396929
0.0354017
0.0281196
0.0368105
0.182075
0.232633
0.0801225
0.0576518
0.047097
0.0430443
0.0395675
0.03625
0.0339958
0.033299
0.0345961
0.0362437
0.0365728
0.03516
0.0361963
0.0433941
0.0526167
0.0596197
0.0607438
0.0491088
0.0412026
0.0367667
0.0381148
0.0469946
0.0509284
0.0658077
0.0440966
0.039953
0.160988
0.202946
0.0863962
0.0491411
0.0437825
0.0403118
0.0374835
0.0350443
0.0342018
0.0353464
0.0395828
0.0453263
0.0531289
0.0649352
0.0825785
0.0947535
0.0962586
0.0596958
0.0305559
0.0149941
0.00955965
0.00780944
0.0109699
0.0251389
0.0535679
0.0841718
0.0612002
0.0423259
0.147927
0.193358
0.106101
0.0603825
0.0468719
0.0428099
0.0402083
0.0374334
0.0369055
0.0433727
0.0534583
0.0679116
0.0851957
0.0982304
0.102873
0.0801006
0.0456802
0.016906
0.00634289
0.000868473
0.000120068
8.26643e-05
0.000223106
0.00239798
0.0212871
0.0840643
0.0744734
0.0458687
0.141026
0.187603
0.125372
0.0817397
0.0611517
0.0544908
0.0494384
0.0438569
0.0426346
0.0557955
0.0714337
0.0886798
0.0984687
0.101304
0.0900879
0.0722614
0.0640275
0.0557815
0.0344515
0.00286453
8.18653e-06
1.06027e-06
3.69325e-06
0.000206865
0.00503922
0.0359629
0.0752782
0.0505354
0.13535
0.187313
0.140392
0.105951
0.0891176
0.0771353
0.0666391
0.0543018
0.0531667
0.0708153
0.0841353
0.0905516
0.0948841
0.10108
0.0960825
0.0961129
0.102211
0.104029
0.0732282
0.00717635
2.40831e-05
7.83464e-07
1.65749e-07
1.74236e-05
0.00134655
0.021913
0.0759436
0.0539897
0.132152
0.187172
0.14975
0.122639
0.108778
0.095695
0.077232
0.0659152
0.0664457
0.0841473
0.103261
0.0969237
0.103794
0.126077
0.122604
0.101195
0.108835
0.152601
0.0867941
0.00949092
4.26114e-05
1.38616e-06
7.06079e-08
8.7561e-07
0.000247889
0.0119539
0.0866128
0.0568271
0.12914
0.186966
0.154883
0.132076
0.119805
0.0959995
0.0752446
0.0656732
0.0728329
0.105597
0.146
0.124209
0.11454
0.151243
0.147414
0.0593623
0.0662894
0.0862947
0.0324492
0.00177772
5.76448e-05
2.05346e-06
6.17802e-08
3.52767e-08
4.2805e-06
0.000837052
0.0220468
0.0576772
0.126943
0.186658
0.157537
0.135571
0.119773
0.0947147
0.0722477
0.065056
0.0870679
0.143566
0.131049
0.119001
0.133209
0.0901908
0.0874463
0.0197953
0.015312
0.0101634
0.0017323
0.000331706
6.65892e-05
2.54726e-06
6.9546e-08
2.7126e-08
6.58113e-08
2.77729e-05
0.00247465
0.0555552
0.125822
0.186094
0.158361
0.137033
0.118608
0.0918583
0.0696759
0.0645551
0.104384
0.16352
0.119692
0.113178
0.144257
0.0620104
0.024369
0.00849076
0.00286436
0.00107526
0.000238795
0.000100137
6.83754e-05
2.77314e-06
8.16339e-08
2.13657e-08
4.48751e-08
1.87737e-05
0.00230393
0.0519966
0.124953
0.185153
0.158357
0.136743
0.116535
0.0884543
0.0686581
0.0658591
0.122741
0.177003
0.0894687
0.0707639
0.144136
0.0407746
0.0175317
0.0107058
0.00411367
0.00156686
0.000266827
0.000101797
6.04858e-05
2.82549e-06
9.19053e-08
1.83007e-08
2.90923e-08
1.16855e-05
0.00230396
0.048934
0.124825
0.18414
0.158233
0.136017
0.114485
0.0852249
0.0690309
0.0700747
0.140986
0.180159
0.0342481
0.0245876
0.10997
0.0176251
0.0196481
0.0118047
0.00455207
0.00148631
0.000245354
0.000136844
4.85767e-05
1.41186e-06
9.86117e-08
1.73989e-08
2.4329e-08
5.92689e-06
0.00208808
0.0467593
0.124639
0.182854
0.158333
0.134984
0.111353
0.0820955
0.0716079
0.0839971
0.162875
0.172411
0.0246204
0.017605
0.055751
0.00858888
0.0246046
0.0116838
0.00508329
0.00100984
0.000236805
0.000159445
3.42268e-05
6.17317e-07
9.94958e-08
1.71655e-08
1.64694e-08
2.23832e-06
0.00164202
0.0474266
0.12451
0.181969
0.159103
0.132926
0.108228
0.0829072
0.0791666
0.100407
0.171718
0.170549
0.0291605
0.0174592
0.0980414
0.00517292
0.0298351
0.00535979
0.00170116
0.000522555
0.00022455
0.000157953
1.71661e-05
2.97293e-07
7.81828e-08
1.62672e-08
1.317e-08
5.70415e-07
0.00104325
0.0471382
0.124195
0.181084
0.160628
0.129156
0.104695
0.0817884
0.0842127
0.12315
0.187271
0.177801
0.00563708
0.0127327
0.0518744
0.00341882
0.00336939
0.000864596
0.000367578
0.000321622
0.000199247
9.60768e-05
6.92567e-06
1.81157e-07
6.06095e-08
1.35623e-08
1.61247e-09
1.03447e-07
0.000460064
0.0445677
0.12365
0.180774
0.16058
0.124444
0.099102
0.0820191
0.0947495
0.1571
0.207532
0.0948039
0.00285017
0.0101149
0.0238175
0.00267913
9.32425e-05
0.00010734
0.000292108
0.000278523
9.28163e-05
2.72951e-05
1.60907e-06
1.27201e-07
4.69712e-08
1.01709e-08
1.14546e-09
8.6992e-09
0.00012185
0.0401549
0.122982
0.180495
0.159484
0.120312
0.0958076
0.0832963
0.113872
0.181643
0.197046
0.00181873
0.000150319
0.000809205
0.00543089
0.000281135
2.65781e-05
7.84992e-05
0.000238524
0.000131145
1.328e-05
3.52283e-06
3.12769e-07
1.1613e-07
3.50952e-08
6.57043e-09
6.84025e-10
3.39169e-11
1.10031e-05
0.0361669
0.122258
0.180324
0.156792
0.115479
0.0919123
0.0862405
0.135323
0.178416
0.120681
5.19382e-05
8.83012e-07
3.19032e-06
3.83166e-05
4.01527e-06
2.2886e-05
3.86326e-05
5.77547e-05
1.50587e-05
9.21813e-07
2.814e-07