/*--------------------------------*- C++ -*----------------------------------*\
| =========                 |                                                 |
| \\      /  F ield         | OpenFOAM: The Open Source CFD Toolbox           |
|  \\    /   O peration     | Version:  2.3.0                                 |
|   \\  /    A nd           | Web:      www.OpenFOAM.org                      |
|    \\/     M anipulation  |                                                 |
\*---------------------------------------------------------------------------*/
FoamFile
{
    version     2.0;
    format      ascii;
    class       volScalarField;
    location    "3.3995";
    object      alpha.airMean;
}
// * * * * * * * * * * * * * * * * * * * * * * * * * * * * * * * * * * * * * //

dimensions      [0 0 0 0 0 0 0];

internalField   nonuniform List<scalar> 
18816
(
0.414841
0.428261
0.409579
0.40189
0.3988
0.400853
0.405247
0.411391
0.414606
0.422663
0.424991
0.419631
0.412599
0.404917
0.393834
0.384263
0.37578
0.36279
0.349988
0.339366
0.336334
0.336458
0.345898
0.354552
0.369949
0.391797
0.422267
0.411349
0.357705
0.336771
0.30092
0.280093
0.277524
0.282901
0.293992
0.303847
0.309334
0.323972
0.341657
0.341864
0.324358
0.305405
0.281181
0.258111
0.237767
0.219846
0.206986
0.199236
0.197413
0.202494
0.216983
0.232312
0.262402
0.303178
0.348198
0.348627
0.347044
0.303979
0.265993
0.248896
0.24478
0.245782
0.248485
0.2531
0.257271
0.275901
0.294184
0.301715
0.298731
0.275482
0.235981
0.207223
0.190267
0.18262
0.17583
0.17173
0.169694
0.169423
0.174438
0.184578
0.213095
0.267442
0.327307
0.335612
0.341635
0.304918
0.251105
0.235237
0.23575
0.236431
0.238594
0.241225
0.243448
0.253526
0.260783
0.260408
0.262194
0.233223
0.193522
0.158607
0.138278
0.127481
0.120415
0.11867
0.120998
0.124583
0.131902
0.138118
0.168111
0.235522
0.313374
0.328021
0.336518
0.323134
0.248113
0.228436
0.230958
0.233163
0.237015
0.239013
0.239775
0.245693
0.245602
0.235251
0.226056
0.180306
0.134831
0.0906987
0.0609476
0.0410543
0.0312162
0.0323819
0.046366
0.0668332
0.0925731
0.109568
0.135498
0.210539
0.300261
0.322107
0.330561
0.325977
0.25688
0.230942
0.231617
0.236025
0.239814
0.237227
0.236129
0.236695
0.230949
0.210877
0.186392
0.12694
0.0784798
0.0442721
0.0269098
0.0178709
0.00725842
0.00706343
0.0125254
0.0282604
0.0598707
0.0996057
0.12541
0.195806
0.289482
0.317089
0.325159
0.326463
0.260763
0.240604
0.237715
0.244358
0.247827
0.242321
0.240849
0.235449
0.218271
0.189665
0.152797
0.0959575
0.0664862
0.0571115
0.0478785
0.0350399
0.0121142
0.00590562
0.00706365
0.0136328
0.0357715
0.0829006
0.130444
0.190325
0.281526
0.313254
0.320643
0.311743
0.261239
0.245777
0.243149
0.249793
0.252349
0.249064
0.247479
0.238039
0.209655
0.175151
0.132978
0.090328
0.0828356
0.0757894
0.0667882
0.054639
0.0273372
0.00962508
0.00654738
0.00896531
0.0200138
0.0586643
0.127181
0.187446
0.275951
0.30992
0.316679
0.303865
0.263461
0.247175
0.245807
0.251502
0.254356
0.254164
0.251188
0.237662
0.207194
0.172036
0.13181
0.103063
0.0990682
0.0866458
0.0763792
0.0634778
0.0434319
0.0167681
0.00671219
0.00771043
0.0128365
0.0372591
0.108466
0.185855
0.271674
0.30676
0.312227
0.30234
0.266694
0.247247
0.248177
0.253668
0.256495
0.25543
0.25038
0.232333
0.202835
0.171699
0.14514
0.12431
0.114304
0.0971731
0.0821387
0.0708057
0.0559041
0.0267837
0.00704764
0.0069621
0.0101087
0.0235342
0.0835357
0.177892
0.26854
0.30351
0.306974
0.301989
0.267853
0.245775
0.248035
0.252939
0.255742
0.252903
0.245438
0.215417
0.199115
0.173145
0.152705
0.134038
0.120744
0.102218
0.0850036
0.0773224
0.0711847
0.0396925
0.00626958
0.0059485
0.00889024
0.0161815
0.0559472
0.156142
0.265608
0.299998
0.301552
0.300916
0.265645
0.243852
0.24661
0.251844
0.254335
0.250821
0.238231
0.205397
0.195507
0.172295
0.15001
0.132333
0.119609
0.10199
0.0861956
0.0802798
0.0764529
0.0480434
0.00522236
0.00454573
0.00764364
0.0131713
0.0352459
0.129578
0.262418
0.296699
0.296414
0.296277
0.262026
0.242016
0.243549
0.250042
0.252195
0.247956
0.229361
0.193418
0.183085
0.172198
0.141732
0.127164
0.115877
0.101793
0.0888852
0.0829082
0.0780402
0.0494377
0.00427693
0.00307812
0.00568457
0.0119892
0.0258652
0.0876415
0.258396
0.294633
0.292427
0.288322
0.257027
0.240221
0.241284
0.24824
0.249478
0.243581
0.211381
0.158105
0.147431
0.167697
0.125115
0.117178
0.108113
0.0980474
0.0904819
0.0787446
0.0679052
0.0316573
0.00276409
0.00181365
0.00372299
0.0101053
0.0264928
0.070446
0.254029
0.292736
0.289706
0.283102
0.251652
0.237281
0.240833
0.246404
0.246441
0.23547
0.176272
0.113393
0.115794
0.132761
0.100203
0.106523
0.0958344
0.0860363
0.0787024
0.0492463
0.0339699
0.0103826
0.00065437
0.000864129
0.00215381
0.00625198
0.0265338
0.063109
0.249975
0.290845
0.287084
0.279272
0.245679
0.231301
0.240513
0.244146
0.24259
0.221329
0.129358
0.080328
0.085589
0.094825
0.0702183
0.0876241
0.0631914
0.0412558
0.0256539
0.00986138
0.00464502
0.000853312
7.75207e-05
0.000302259
0.00105721
0.00341044
0.0252569
0.0596004
0.246384
0.289351
0.28336
0.275065
0.238881
0.22816
0.238461
0.241742
0.237593
0.198319
0.0878754
0.0537193
0.0563402
0.0561768
0.027824
0.051379
0.0241249
0.00690634
0.00176814
0.000385697
0.000122933
1.83657e-05
4.0877e-06
7.04865e-05
0.000451827
0.00177445
0.0210214
0.0561205
0.243401
0.288068
0.279588
0.270259
0.232806
0.229567
0.236308
0.238496
0.230228
0.170186
0.0599062
0.0310673
0.0291752
0.0274768
0.00539986
0.0118849
0.00222747
0.000265235
4.37151e-05
1.55227e-05
6.27727e-06
1.33153e-06
1.27056e-07
7.21317e-06
0.000263558
0.000885654
0.0155259
0.0489174
0.24058
0.286947
0.276271
0.26452
0.22858
0.229941
0.233938
0.234756
0.221143
0.142167
0.0330617
0.00683219
0.00547578
0.00731725
0.000326075
0.00035165
4.67211e-05
4.11128e-05
2.63773e-05
8.87058e-06
2.64302e-06
5.09853e-07
6.5365e-08
2.038e-06
0.000209402
0.00064156
0.0110171
0.0384581
0.237457
0.285998
0.273435
0.257445
0.22633
0.229364
0.231401
0.230351
0.207637
0.100354
0.00655269
0.000202844
0.000192976
0.00027247
3.77809e-05
3.82992e-05
3.88035e-05
4.67804e-05
2.08892e-05
4.53938e-06
9.02253e-07
1.52108e-07
3.88975e-08
2.57216e-06
0.000213546
0.000625661
0.00750566
0.0339868
0.23295
0.284885
0.270584
0.251593
0.225545
0.228548
0.228803
0.224982
0.183774
0.0540615
0.000300998
1.22073e-05
1.38957e-05
2.77241e-05
3.73817e-05
4.10408e-05
4.21739e-05
4.3166e-05
1.36279e-05
1.99364e-06
2.82862e-07
4.03976e-08
5.14516e-08
7.66288e-06
0.000319712
0.000702634
0.00359509
0.0323942
0.226699
0.283737
0.26765
0.248357
0.225285
0.227437
0.226205
0.219055
0.162094
0.0362659
0.00105427
2.76243e-05
5.03951e-06
1.51212e-05
2.71737e-05
3.96383e-05
2.61975e-05
1.95959e-05
5.61447e-06
7.62134e-07
3.47146e-08
8.61666e-09
2.11439e-07
2.62899e-05
0.000642286
0.00101914
0.00343516
0.0318696
0.219624
0.282447
0.264643
0.24568
0.225179
0.226054
0.223359
0.211327
0.137505
0.0185253
0.00016135
3.73204e-06
1.41257e-06
3.04575e-06
5.31921e-06
1.175e-05
1.4666e-05
4.75474e-06
5.62673e-07
4.39482e-08
8.40307e-09
1.1926e-08
8.23017e-07
7.61e-05
0.00115564
0.00156577
0.00430717
0.0314026
0.21177
0.281134
0.261656
0.244179
0.224915
0.224489
0.220588
0.202405
0.113077
0.00856092
2.14656e-05
6.62685e-07
1.00013e-06
7.52034e-07
1.83512e-07
1.43569e-06
7.35902e-06
1.32119e-06
1.23067e-08
1.51469e-09
2.98396e-10
3.73547e-08
2.20641e-06
0.000183668
0.00189616
0.00256333
0.0047612
0.0312401
0.20403
0.279796
0.258564
0.242813
0.224498
0.222867
0.217602
0.19125
0.0880128
0.00320304
7.97392e-06
4.85382e-07
8.69765e-07
5.88169e-07
1.43422e-07
1.11081e-07
2.01024e-06
2.14279e-07
1.33117e-08
1.10554e-09
2.47631e-10
7.96005e-08
4.16689e-06
0.000301894
0.00212682
0.00342427
0.00467118
0.0305183
0.196651
0.278235
0.255805
0.24198
0.223516
0.220908
0.214611
0.178226
0.0654305
0.00246932
7.13498e-06
4.63442e-08
4.55048e-08
3.70322e-08
6.61693e-09
7.79792e-09
1.00628e-07
3.82847e-08
7.52251e-10
5.13607e-12
2.28646e-10
9.96045e-08
5.39134e-06
0.000316761
0.0016995
0.00338125
0.00456856
0.0293111
0.189798
0.275575
0.253292
0.241037
0.222565
0.21916
0.211244
0.163574
0.0476249
0.00175708
5.32079e-06
1.0803e-08
2.49383e-09
6.57069e-10
1.15071e-10
2.44692e-09
1.01521e-07
2.57651e-08
8.14891e-10
3.46345e-12
3.03049e-10
5.91338e-08
3.92057e-06
0.000175695
0.00112495
0.00279698
0.00478459
0.0277131
0.184276
0.272848
0.248118
0.239881
0.221136
0.216886
0.205885
0.1455
0.0341897
0.000131724
3.07349e-07
4.36366e-10
4.01177e-11
5.43418e-13
1.03516e-12
1.68618e-10
1.85312e-09
9.099e-10
1.83504e-10
4.26331e-13
2.39048e-11
2.65289e-09
1.15484e-07
3.00883e-05
0.000479947
0.00181221
0.00470102
0.0259163
0.178847
0.269124
0.425177
0.39954
0.389328
0.38275
0.380981
0.384403
0.390022
0.395316
0.395568
0.398486
0.39945
0.3904
0.373732
0.351695
0.327526
0.306163
0.288645
0.27084
0.256454
0.245984
0.242962
0.244683
0.255212
0.266435
0.289399
0.329752
0.385234
0.425004
0.37735
0.334786
0.310005
0.293055
0.288471
0.286046
0.282296
0.27819
0.270377
0.263767
0.264117
0.247871
0.220813
0.186374
0.158532
0.136323
0.121301
0.107688
0.098207
0.0925667
0.0901535
0.0923643
0.101414
0.114031
0.141415
0.188142
0.255147
0.349693
0.362135
0.334598
0.297957
0.279735
0.265855
0.250492
0.228372
0.211749
0.203452
0.21727
0.235029
0.216079
0.195167
0.176015
0.14307
0.122343
0.113014
0.103875
0.0940078
0.0882039
0.0836164
0.0828825
0.0872964
0.0943571
0.116363
0.165835
0.24106
0.322946
0.348431
0.320708
0.277529
0.254156
0.243866
0.225508
0.203508
0.190143
0.187031
0.198844
0.212316
0.205492
0.183258
0.166389
0.138268
0.115378
0.102328
0.0895502
0.0786837
0.0749072
0.0723429
0.0736982
0.0775447
0.0796212
0.100827
0.152663
0.235255
0.311947
0.337463
0.299863
0.256659
0.244971
0.232777
0.210056
0.190537
0.183078
0.182544
0.194456
0.209575
0.20637
0.174461
0.141998
0.114848
0.0812867
0.0547482
0.0363368
0.0260668
0.026007
0.0367745
0.0566283
0.0776019
0.0853081
0.0911024
0.140311
0.229107
0.304772
0.328683
0.292814
0.234163
0.229485
0.215297
0.196126
0.185632
0.184907
0.187063
0.194341
0.203805
0.195132
0.154199
0.109365
0.0742285
0.0468925
0.0317909
0.0237072
0.0136079
0.0109258
0.0133372
0.0264302
0.0548996
0.0875598
0.0949063
0.133676
0.221629
0.298892
0.321277
0.29293
0.225582
0.213834
0.201387
0.188511
0.179451
0.179842
0.186989
0.19079
0.195999
0.180195
0.133397
0.0873257
0.0677656
0.0627724
0.0539647
0.0443638
0.0207008
0.011566
0.0107297
0.0156279
0.0339453
0.0729868
0.106588
0.13221
0.217815
0.293742
0.3149
0.276525
0.223102
0.209856
0.198988
0.189277
0.180477
0.181146
0.187498
0.187611
0.188664
0.169998
0.122392
0.0869108
0.0848086
0.0800361
0.0719954
0.0639448
0.0355321
0.0158224
0.0107671
0.0123923
0.0212346
0.0517996
0.103893
0.130309
0.214851
0.289249
0.309218
0.266159
0.223956
0.208986
0.199716
0.192226
0.185681
0.188275
0.190334
0.187426
0.182124
0.164631
0.128218
0.102498
0.0981737
0.087379
0.0796797
0.0683594
0.048364
0.0219919
0.0107999
0.0101812
0.0151499
0.0329527
0.0862497
0.132917
0.213037
0.284925
0.302787
0.263001
0.225364
0.208131
0.200075
0.193055
0.186356
0.190069
0.192333
0.188708
0.173946
0.15912
0.138479
0.120228
0.108255
0.0888554
0.0757199
0.0697749
0.057309
0.0291065
0.00988297
0.00800658
0.0116864
0.021043
0.0664247
0.13375
0.212592
0.280776
0.295171
0.262211
0.226572
0.206401
0.198976
0.190139
0.184098
0.190161
0.198704
0.168654
0.162421
0.151418
0.136184
0.1238
0.110623
0.0931698
0.0749853
0.0696125
0.0672954
0.0389332
0.00705918
0.00613177
0.00912353
0.0138738
0.0448399
0.12201
0.21132
0.276291
0.28735
0.26224
0.225632
0.204851
0.19826
0.187351
0.18349
0.194367
0.198495
0.157939
0.154905
0.144792
0.126155
0.111579
0.102671
0.0830855
0.0688817
0.0663653
0.0628238
0.0444747
0.00510756
0.00431115
0.00709309
0.0110944
0.0283511
0.101751
0.209155
0.272064
0.282008
0.259314
0.223952
0.204664
0.196744
0.185119
0.183625
0.197626
0.195957
0.149434
0.138691
0.144585
0.116422
0.106632
0.0988859
0.0871037
0.0757425
0.0701599
0.0656884
0.0440967
0.00402384
0.00287752
0.00514564
0.0106109
0.0220558
0.0650028
0.205784
0.269206
0.280433
0.252666
0.222654
0.205512
0.19521
0.183593
0.184722
0.20125
0.183549
0.115105
0.1059
0.134633
0.0991566
0.0968318
0.0900332
0.0817581
0.0792285
0.0640322
0.0558246
0.026913
0.00238759
0.00180211
0.00326478
0.00930595
0.0235917
0.0524834
0.201792
0.267347
0.280073
0.248646
0.220462
0.205861
0.194086
0.182926
0.186719
0.19947
0.154942
0.0842215
0.0856535
0.106716
0.0769172
0.0876605
0.0757964
0.06925
0.0649128
0.0363801
0.0253352
0.00804817
0.000523793
0.00109858
0.00196251
0.00577997
0.0240565
0.0487952
0.197399
0.266117
0.278783
0.246383
0.217077
0.20228
0.19268
0.182489
0.187686
0.191373
0.113238
0.059399
0.0615891
0.0767897
0.0486235
0.0739561
0.0476271
0.0301565
0.0188343
0.00620205
0.00311508
0.000583321
6.41801e-05
0.000674087
0.00131084
0.00346741
0.022813
0.0472827
0.192931
0.26526
0.274698
0.244083
0.212575
0.200975
0.190096
0.182062
0.18705
0.174437
0.0753268
0.0342284
0.0374605
0.0413193
0.0180918
0.0363318
0.0168822
0.00381078
0.000856404
0.00020557
6.96722e-05
1.03114e-05
7.94422e-06
0.00040935
0.00101511
0.00253489
0.0185174
0.0453517
0.188231
0.264161
0.269683
0.24081
0.208319
0.200639
0.186472
0.180101
0.183495
0.151542
0.0494466
0.0201763
0.0190209
0.0213395
0.00329872
0.00593099
0.00115681
0.000154623
4.51908e-05
1.73019e-05
5.88302e-06
9.77883e-07
2.29113e-06
0.000209
0.000953152
0.00205924
0.0146174
0.0395338
0.183632
0.262965
0.264864
0.23544
0.204823
0.197472
0.182662
0.176784
0.177681
0.127774
0.0269922
0.00377892
0.00302786
0.0060534
0.000229723
0.00017443
5.66002e-05
5.76476e-05
3.43599e-05
8.48939e-06
2.03536e-06
3.48612e-07
3.85791e-07
6.97889e-05
0.000915491
0.00191879
0.0121198
0.0283335
0.178888
0.262004
0.261026
0.228404
0.202042
0.193519
0.178378
0.1721
0.167829
0.0887821
0.00433397
7.72723e-05
8.93564e-05
0.000193603
4.11581e-05
5.36192e-05
5.89139e-05
6.49567e-05
2.73001e-05
3.70921e-06
5.24363e-07
9.02678e-08
7.29537e-08
1.49672e-05
0.000752654
0.00185177
0.0100511
0.0247535
0.173261
0.260833
0.257769
0.222819
0.199652
0.189454
0.173662
0.166505
0.14818
0.0454732
0.000283196
1.71023e-05
1.00215e-05
2.38569e-05
3.98375e-05
5.57198e-05
5.8813e-05
5.7771e-05
1.74727e-05
1.5417e-06
1.60708e-07
3.71554e-08
3.87986e-07
1.73193e-05
0.000630631
0.00183542
0.00661904
0.0236156
0.167129
0.259615
0.254675
0.219167
0.197442
0.185453
0.169351
0.161671
0.130697
0.0301639
0.000944351
2.92959e-05
6.28289e-06
1.23093e-05
2.29425e-05
4.09091e-05
2.66582e-05
1.68488e-05
4.02789e-06
4.84545e-07
1.92782e-08
1.15453e-07
3.11595e-06
5.78634e-05
0.000896197
0.00221346
0.00616958
0.0230629
0.161357
0.258141
0.251539
0.216339
0.195251
0.181408
0.165396
0.156373
0.110677
0.0151587
0.000132557
1.1556e-05
1.15011e-05
4.51546e-06
3.04672e-06
6.47032e-06
1.21724e-05
3.71277e-06
2.43624e-07
1.78333e-08
3.99104e-09
7.5424e-07
1.78626e-05
0.00018947
0.00169635
0.00299734
0.0070059
0.0229301
0.155805
0.256527
0.248472
0.214469
0.193162
0.177737
0.162451
0.151308
0.0918126
0.00707933
3.60241e-05
1.09491e-05
1.51368e-05
4.86841e-06
1.65173e-06
6.29226e-07
5.81975e-06
1.28635e-06
2.67236e-08
2.22237e-09
7.9846e-10
2.8155e-06
6.42643e-05
0.000580073
0.00296064
0.00416882
0.00764376
0.023261
0.150594
0.254584
0.245188
0.212857
0.191051
0.174532
0.160238
0.144794
0.0717467
0.00329795
3.04965e-05
1.14283e-05
1.47379e-05
3.67462e-06
1.69068e-06
5.13041e-07
7.83434e-06
1.93542e-06
3.41735e-08
1.46325e-09
1.09002e-09
5.87546e-06
0.000156107
0.00134275
0.00410018
0.00544522
0.0076394
0.0235321
0.145826
0.252088
0.242299
0.211563
0.188561
0.171567
0.15864
0.136943
0.0540952
0.00286355
2.72362e-05
6.67299e-07
6.12141e-07
1.41892e-07
8.29837e-08
6.75137e-08
1.50106e-05
3.97024e-06
2.28756e-08
3.4485e-11
1.4863e-09
6.81527e-06
0.000214092
0.0018357
0.00414358
0.00595421
0.00774749
0.0231973
0.14058
0.24712
0.240036
0.210798
0.186471
0.169473
0.157455
0.128052
0.0393867
0.00188669
1.48541e-05
5.44926e-08
1.94037e-08
3.17979e-09
4.9977e-10
3.16344e-08
2.19394e-05
5.85483e-06
3.83819e-08
3.3273e-11
1.69432e-09
2.82116e-06
0.00012702
0.00178846
0.00402596
0.00610078
0.00840602
0.0226842
0.136739
0.243204
0.233797
0.207956
0.183262
0.16707
0.155407
0.115318
0.0267662
0.000120161
4.81746e-07
1.03422e-09
5.54668e-10
5.27595e-12
1.39998e-11
4.64093e-09
1.26944e-06
2.9416e-07
2.85791e-09
7.22681e-12
1.87185e-10
2.90927e-08
5.2573e-06
0.000617102
0.00308011
0.0059867
0.00881977
0.0217202
0.132322
0.237621
0.419433
0.391812
0.365157
0.351615
0.343942
0.341849
0.343278
0.346103
0.346526
0.346781
0.350991
0.339903
0.316316
0.29214
0.267925
0.247331
0.231548
0.216664
0.205342
0.197818
0.1961
0.198094
0.206944
0.21796
0.240452
0.280433
0.337188
0.399653
0.35686
0.27642
0.237901
0.21646
0.204352
0.196205
0.191899
0.190334
0.189234
0.186963
0.189251
0.177076
0.150505
0.124274
0.10222
0.0848021
0.0751792
0.0660995
0.0598251
0.0571053
0.0562836
0.0563411
0.0597921
0.0671885
0.084166
0.119151
0.177048
0.288202
0.316794
0.24172
0.194821
0.165818
0.148337
0.136449
0.123885
0.117517
0.114136
0.120964
0.130696
0.131179
0.120861
0.110916
0.087768
0.0736363
0.0694169
0.0624316
0.055365
0.0544679
0.0560867
0.0585983
0.0619236
0.067844
0.0786016
0.101775
0.150407
0.243485
0.283576
0.213252
0.156616
0.130164
0.116287
0.109123
0.103788
0.0996774
0.0962296
0.100119
0.108702
0.111292
0.108269
0.109858
0.0899266
0.0755549
0.0699062
0.056171
0.0469675
0.0478025
0.0500843
0.0554533
0.061467
0.0658164
0.0782103
0.0994852
0.145527
0.224953
0.26291
0.220374
0.142607
0.114065
0.105703
0.101118
0.0974811
0.0954167
0.0926403
0.0980258
0.113311
0.12217
0.115446
0.10312
0.0883442
0.0652199
0.0454991
0.0310353
0.0224412
0.0210572
0.0279059
0.041723
0.0587173
0.0716262
0.0834277
0.0994431
0.143628
0.213812
0.249521
0.229715
0.147769
0.120449
0.113811
0.108003
0.101275
0.0978999
0.102044
0.107447
0.122203
0.129367
0.111057
0.085752
0.0639138
0.0466136
0.036513
0.0292958
0.0212217
0.017556
0.0177673
0.0248264
0.0444135
0.0708153
0.088413
0.100201
0.143642
0.206128
0.241104
0.233709
0.157843
0.138219
0.129266
0.117611
0.108006
0.106126
0.11305
0.115814
0.122682
0.124726
0.103861
0.0765486
0.0672767
0.0659066
0.0590455
0.0513859
0.0318062
0.0217098
0.0194201
0.0209204
0.0321399
0.059693
0.0873805
0.0984525
0.143064
0.199757
0.235109
0.221145
0.167219
0.155061
0.142108
0.125664
0.114715
0.117641
0.123547
0.123314
0.120783
0.123409
0.107126
0.0858504
0.0837786
0.0784612
0.072113
0.0675767
0.043548
0.0251833
0.0202535
0.0191407
0.0251342
0.0449127
0.0786729
0.0968049
0.142196
0.194221
0.229755
0.214741
0.173584
0.1633
0.148013
0.13251
0.121777
0.128167
0.128139
0.127821
0.122184
0.127333
0.118469
0.100973
0.0885653
0.0790591
0.0772408
0.0688075
0.0483576
0.0274994
0.019444
0.0163497
0.0218937
0.0333607
0.0676022
0.099816
0.141181
0.189
0.224311
0.212999
0.176926
0.165352
0.148023
0.133956
0.120538
0.127576
0.131001
0.138546
0.131516
0.12978
0.121466
0.105115
0.0856854
0.072202
0.0668972
0.0621102
0.0488617
0.0288805
0.0156423
0.0124421
0.0189351
0.0259955
0.0557204
0.0975473
0.140745
0.184879
0.218228
0.212033
0.179058
0.164692
0.146494
0.130296
0.116694
0.128488
0.143255
0.117324
0.115314
0.115459
0.0983729
0.0906996
0.071235
0.0560628
0.0476082
0.040456
0.0469927
0.0319523
0.00941412
0.00884061
0.0147318
0.0195374
0.0408585
0.0924858
0.139152
0.181267
0.212104
0.212322
0.179647
0.164698
0.146058
0.125466
0.115188
0.135707
0.149205
0.105533
0.103499
0.103466
0.0788251
0.0664272
0.053765
0.0349236
0.0308031
0.0310609
0.0305777
0.0339767
0.00536251
0.00587847
0.0110135
0.0155793
0.0294774
0.0790928
0.136664
0.178066
0.208559
0.210477
0.180533
0.1656
0.146326
0.122788
0.116872
0.144347
0.152831
0.0968693
0.084946
0.10181
0.0660866
0.0644732
0.0494857
0.0399491
0.0386634
0.032987
0.035181
0.0331055
0.00375946
0.00476042
0.00865068
0.0148742
0.0260153
0.0562621
0.13331
0.175869
0.20758
0.205363
0.181867
0.16729
0.146762
0.121636
0.120837
0.153383
0.148628
0.0642698
0.0540944
0.0817351
0.0477266
0.0559182
0.0389891
0.0340102
0.0396087
0.0288112
0.0287745
0.0182273
0.00207189
0.00418669
0.0068168
0.0144458
0.0276598
0.0503455
0.129117
0.17478
0.207103
0.203267
0.181462
0.169183
0.144734
0.120984
0.127526
0.160096
0.129608
0.0458305
0.0421662
0.0632999
0.0347739
0.052619
0.0306796
0.0330771
0.0360164
0.0180863
0.013283
0.00470245
0.000575144
0.00390275
0.00596459
0.0118325
0.0286915
0.0482712
0.124521
0.174606
0.205617
0.203132
0.179649
0.167527
0.141347
0.121366
0.133757
0.157203
0.0945505
0.0295768
0.0261455
0.0465963
0.0178991
0.0462769
0.017969
0.0136668
0.0105158
0.00303287
0.0016923
0.00029359
0.000207712
0.00336496
0.00588033
0.00954968
0.0273762
0.0469198
0.11974
0.174426
0.202224
0.202354
0.17687
0.165387
0.137284
0.122905
0.138215
0.146891
0.0609194
0.0117765
0.0140434
0.0203227
0.00579626
0.0118331
0.00675667
0.00136903
0.000410355
0.000109882
4.35706e-05
5.26155e-06
9.42634e-05
0.00257491
0.00593585
0.00845419
0.0233421
0.0443195
0.11516
0.173558
0.19779
0.200445
0.173728
0.160718
0.133109
0.124206
0.13832
0.130427
0.0375741
0.00764868
0.0071682
0.0108495
0.00100262
0.0012789
0.000397082
9.71952e-05
4.91208e-05
1.76415e-05
5.45754e-06
6.73805e-07
3.81795e-05
0.00158292
0.00608368
0.00792599
0.0200883
0.0378294
0.111402
0.172235
0.193116
0.196048
0.170143
0.154462
0.129407
0.124038
0.134475
0.111436
0.0204747
0.00134061
0.000988731
0.0027819
9.03967e-05
8.4196e-05
6.18816e-05
6.91295e-05
4.10716e-05
7.70725e-06
1.65639e-06
2.15274e-07
9.70815e-06
0.000794545
0.00583585
0.00770561
0.0181717
0.0294725
0.107308
0.170949
0.189239
0.189896
0.16611
0.148867
0.125044
0.120998
0.126357
0.0767666
0.00244674
4.16065e-05
3.30422e-05
8.18831e-05
3.96936e-05
5.83442e-05
6.89763e-05
7.55569e-05
3.11531e-05
3.07831e-06
3.99336e-07
6.97538e-08
3.20171e-06
0.000319978
0.00443593
0.00733614
0.0164959
0.0272679
0.103082
0.169646
0.185632
0.184119
0.161805
0.143329
0.120292
0.117538
0.111782
0.0378705
0.000306995
3.30423e-05
1.31405e-05
1.94286e-05
3.7337e-05
5.86662e-05
6.75912e-05
6.73147e-05
2.16665e-05
1.45434e-06
1.54883e-07
2.60399e-07
8.82285e-06
0.000254587
0.00352515
0.0071155
0.0134586
0.0260529
0.099234
0.168426
0.182222
0.17916
0.157664
0.137756
0.116373
0.11427
0.0989239
0.0240676
0.000828091
4.11651e-05
1.78503e-05
1.11697e-05
1.83147e-05
3.72038e-05
2.25485e-05
1.20598e-05
2.52019e-06
1.46029e-07
2.39788e-08
1.93263e-06
4.70287e-05
0.000521938
0.00327561
0.00720201
0.0124656
0.0249788
0.0965461
0.167002
0.178747
0.174623
0.153572
0.132463
0.11347
0.11154
0.084767
0.0125447
0.000203084
8.11055e-05
7.63369e-05
1.54126e-05
6.42615e-06
5.59876e-06
1e-05
3.3779e-06
1.92185e-07
2.16621e-08
7.63846e-09
1.08834e-05
0.000220295
0.0012342
0.00464551
0.00775316
0.0127228
0.0241264
0.0945956
0.165367
0.175551
0.171171
0.149809
0.127723
0.111594
0.108979
0.0715721
0.00682523
0.000176197
0.000103799
0.000115714
2.20343e-05
1.04444e-05
5.46103e-06
2.47528e-05
4.55073e-06
2.01935e-07
8.03987e-09
6.95071e-09
3.51339e-05
0.000669123
0.00238062
0.00641872
0.00858607
0.0130516
0.0238831
0.0932144
0.163287
0.172309
0.168342
0.146387
0.124243
0.110736
0.10579
0.0583015
0.00514728
0.000236219
0.000122869
0.00011845
1.44872e-05
1.15688e-05
9.38851e-06
0.00015173
3.09569e-05
6.28951e-07
3.62665e-09
1.25549e-08
6.43415e-05
0.0014784
0.00472236
0.00827267
0.00979345
0.0126256
0.0241403
0.0920815
0.160972
0.168806
0.165885
0.142975
0.121581
0.11059
0.101335
0.0456285
0.00523205
0.000177762
1.00951e-05
6.43715e-06
5.02762e-07
4.88741e-07
2.40915e-06
0.000371865
0.000101437
1.71756e-06
3.10652e-10
1.62607e-08
6.81813e-05
0.00184392
0.00610029
0.00842929
0.0104255
0.0125177
0.0243703
0.090053
0.157369
0.165622
0.164736
0.140915
0.12066
0.111793
0.0972458
0.0348899
0.00410071
9.28259e-05
1.71276e-06
1.03137e-06
1.56439e-08
2.25886e-09
1.35819e-06
0.000509788
0.000177069
2.83326e-06
3.51112e-10
1.08602e-08
2.32352e-05
0.00111319
0.0064017
0.00864101
0.0109978
0.0134507
0.0247745
0.0885432
0.151849
0.159665
0.16154
0.137474
0.119151
0.111494
0.0885335
0.0233751
0.000879193
7.71219e-06
1.50834e-08
6.12512e-09
6.40371e-11
1.25799e-10
8.68032e-08
3.15407e-05
8.74826e-06
9.03342e-08
1.4424e-10
1.26122e-10
1.96144e-07
9.76786e-05
0.0034032
0.0071782
0.0111121
0.0140887
0.024216
0.085301
0.143709
0.419389
0.374382
0.344613
0.328717
0.318548
0.313979
0.312419
0.313066
0.312927
0.312166
0.317942
0.306758
0.27936
0.254872
0.231611
0.212126
0.198297
0.186192
0.177482
0.172025
0.171413
0.173504
0.180841
0.190935
0.211263
0.247794
0.302144
0.387286
0.331582
0.21441
0.183894
0.165699
0.153696
0.146484
0.141867
0.140024
0.139591
0.13792
0.141482
0.131765
0.110554
0.0895862
0.0726584
0.0598576
0.055052
0.0524129
0.0491799
0.0479139
0.0487929
0.0496408
0.051531
0.0558695
0.0655353
0.0847738
0.126159
0.257222
0.274345
0.166151
0.131405
0.111399
0.100712
0.0961073
0.0895854
0.0869628
0.085106
0.0880057
0.0928779
0.0911449
0.0870693
0.0844599
0.0667968
0.0570491
0.0562144
0.0534806
0.0494107
0.0504316
0.0533499
0.0561385
0.0593037
0.0643227
0.0686225
0.0773932
0.0994751
0.20546
0.235946
0.141927
0.105344
0.0876617
0.082161
0.0807277
0.0782106
0.0755367
0.0710466
0.0678459
0.0705079
0.0710834
0.0741082
0.0838246
0.0683172
0.058255
0.0562342
0.0421531
0.0336565
0.0364274
0.0392803
0.0433932
0.0495716
0.0561724
0.0727733
0.0792622
0.0974907
0.181587
0.212916
0.14506
0.0899475
0.0769806
0.070636
0.0699345
0.0698332
0.0699623
0.0677591
0.0643694
0.0721621
0.0780145
0.0811394
0.079265
0.0697704
0.0532555
0.04012
0.0296761
0.0226142
0.0211095
0.0251802
0.0308093
0.0417033
0.0549554
0.0753013
0.0824017
0.0958656
0.16872
0.19776
0.154405
0.0894882
0.0744687
0.0681564
0.0695635
0.070897
0.0751278
0.0802692
0.0761435
0.0802618
0.0845484
0.080136
0.06831
0.0555512
0.0472824
0.042815
0.0370256
0.0287887
0.0260538
0.0241052
0.0250151
0.0337121
0.0514029
0.0731786
0.086171
0.0967158
0.158922
0.187879
0.157257
0.0963148
0.0811944
0.0747598
0.074216
0.0762872
0.0828727
0.0871196
0.0832994
0.0833589
0.0845583
0.0777292
0.0672353
0.0643163
0.0661032
0.0646811
0.0583007
0.0406361
0.0321131
0.0281358
0.0265039
0.0311454
0.0449747
0.065411
0.0846054
0.0973422
0.151942
0.181473
0.150189
0.106975
0.0969474
0.0882476
0.0807441
0.0805355
0.0892907
0.0896344
0.0860836
0.0831981
0.0886163
0.0892429
0.0811112
0.0764044
0.0756658
0.0750529
0.0725287
0.0478335
0.0332729
0.0289451
0.0258427
0.029681
0.0399437
0.0584559
0.0836491
0.0977837
0.146629
0.175631
0.150004
0.11583
0.108892
0.0968959
0.0879295
0.0851256
0.0938546
0.0887456
0.0876302
0.0846826
0.0967927
0.10225
0.0910261
0.0708274
0.0757515
0.0846757
0.0715054
0.0447855
0.0307046
0.0268786
0.0240169
0.0286426
0.0361468
0.0538629
0.0814319
0.097832
0.141748
0.169678
0.150808
0.121458
0.114235
0.0975741
0.092072
0.084204
0.0896616
0.0892947
0.10371
0.0984458
0.102453
0.085351
0.0794757
0.0574687
0.0633083
0.0760741
0.0481745
0.0313361
0.0259791
0.0210751
0.0214581
0.0279306
0.0322327
0.0492567
0.0765938
0.0976134
0.137885
0.162516
0.150613
0.125409
0.115673
0.0976181
0.0914193
0.0797019
0.0873967
0.101208
0.0880542
0.0585681
0.0832064
0.0476708
0.0484694
0.0193894
0.0263905
0.0338744
0.013134
0.0174941
0.022646
0.0131878
0.017647
0.0265773
0.0286051
0.0410546
0.0734399
0.0968949
0.13485
0.157521
0.151456
0.127956
0.117104
0.0980977
0.0880778
0.0761565
0.0929288
0.110633
0.0604379
0.0413847
0.0656846
0.0260391
0.0282516
0.00775975
0.00700863
0.0102446
0.00704382
0.00830274
0.0223077
0.00701211
0.0130407
0.0227817
0.0256153
0.0344637
0.0644764
0.0953807
0.132294
0.154923
0.150597
0.131114
0.118111
0.09901
0.0847018
0.0776781
0.10218
0.11206
0.0372297
0.0274436
0.0470744
0.0108826
0.0165899
0.00583618
0.00562925
0.00898968
0.00663775
0.00809181
0.020401
0.00430021
0.011205
0.0188642
0.0240314
0.0322185
0.0541383
0.0930935
0.130365
0.152739
0.147348
0.132552
0.119483
0.0998876
0.0825784
0.0819307
0.112778
0.110458
0.0158586
0.0113946
0.0240129
0.0049378
0.0125583
0.00450163
0.00603648
0.0104496
0.00571422
0.00669811
0.00966077
0.00240936
0.0101336
0.0155926
0.0227105
0.0322794
0.0507479
0.0901657
0.129488
0.150339
0.147302
0.132998
0.121395
0.0990057
0.0807089
0.0891489
0.124091
0.0966794
0.00824325
0.00575554
0.014428
0.00394995
0.0150922
0.00367791
0.00645863
0.00967439
0.00407311
0.00350765
0.00192528
0.00123518
0.00944529
0.0143126
0.0209321
0.0321561
0.0489049
0.0867437
0.129337
0.1475
0.147611
0.131986
0.120962
0.0959585
0.0794669
0.0962308
0.123643
0.070027
0.00574638
0.00325961
0.0162016
0.00198433
0.016363
0.00231446
0.00366072
0.00409794
0.000886693
0.000692407
0.000107983
0.00070859
0.00814036
0.0138252
0.0184079
0.0302876
0.0471565
0.082864
0.128905
0.143947
0.147291
0.130148
0.118347
0.0916179
0.0809814
0.102186
0.117879
0.0433668
0.00143405
0.0015002
0.0044323
0.000492956
0.00231409
0.00126792
0.000451974
0.000300569
7.18111e-05
3.68931e-05
4.17806e-06
0.000396948
0.00641009
0.0134636
0.016417
0.0277302
0.0432285
0.0790036
0.12769
0.140159
0.146255
0.127451
0.111993
0.0868027
0.0841673
0.104666
0.106565
0.0236533
0.000993234
0.00072517
0.00156537
9.14371e-05
0.000138024
0.000134586
7.87873e-05
4.80242e-05
1.33617e-05
4.86858e-06
6.93342e-07
0.000188549
0.00443597
0.0134272
0.0152381
0.0252805
0.0355879
0.0754607
0.126097
0.136424
0.143207
0.123676
0.105746
0.0836171
0.0874491
0.101775
0.0934595
0.0124487
0.000263204
0.000116167
0.00057699
3.89444e-05
5.76198e-05
6.73601e-05
7.16314e-05
4.29393e-05
5.8101e-06
1.69591e-06
1.82847e-07
8.17391e-05
0.00283562
0.0128848
0.0147886
0.0238125
0.0301272
0.0719908
0.124672
0.133433
0.13842
0.119186
0.100914
0.0813017
0.0886101
0.0949996
0.0650465
0.00106832
4.00665e-05
2.17225e-05
4.79305e-05
3.75284e-05
6.06422e-05
7.75134e-05
8.1948e-05
3.35548e-05
2.5952e-06
3.82708e-07
1.84299e-07
5.97829e-05
0.00179397
0.0111637
0.0144005
0.0223743
0.0284267
0.0688043
0.123339
0.130721
0.133631
0.114622
0.0964319
0.0800136
0.0879539
0.0839601
0.030811
0.000329664
6.3338e-05
2.81646e-05
1.94227e-05
3.51182e-05
5.92282e-05
7.5538e-05
7.95428e-05
2.71283e-05
1.52417e-06
2.08026e-07
2.53519e-06
0.000125026
0.0017242
0.00987481
0.0142612
0.0196047
0.0274191
0.0658243
0.121929
0.128293
0.129302
0.110695
0.09281
0.0799463
0.0868705
0.0751661
0.0191495