/*--------------------------------*- C++ -*----------------------------------*\
| =========                 |                                                 |
| \\      /  F ield         | OpenFOAM: The Open Source CFD Toolbox           |
|  \\    /   O peration     | Version:  2.3.0                                 |
|   \\  /    A nd           | Web:      www.OpenFOAM.org                      |
|    \\/     M anipulation  |                                                 |
\*---------------------------------------------------------------------------*/
FoamFile
{
    version     2.0;
    format      ascii;
    class       volScalarField;
    location    "3.3995";
    object      nut.water;
}
// * * * * * * * * * * * * * * * * * * * * * * * * * * * * * * * * * * * * * //

dimensions      [0 2 -1 0 0 0 0];

internalField   nonuniform List<scalar> 
18816
(
2.59526e-06
3.1677e-06
4.82417e-06
5.34405e-06
6.01431e-06
6.33905e-06
6.77955e-06
7.05281e-06
7.34619e-06
7.49636e-06
7.63885e-06
7.71201e-06
7.69879e-06
7.60759e-06
7.44125e-06
7.16297e-06
6.7769e-06
6.24115e-06
5.58368e-06
4.75998e-06
3.79382e-06
2.88711e-06
2.62363e-06
3.16681e-06
4.3637e-06
5.19687e-06
5.34383e-06
2.83743e-06
7.3826e-33
7.6638e-06
7.3969e-06
7.41972e-06
7.4445e-06
7.53525e-06
7.62528e-06
7.6185e-06
7.56756e-06
7.49084e-06
7.46983e-06
7.46962e-06
7.3064e-06
7.11848e-06
6.85934e-06
6.53714e-06
6.16399e-06
5.72901e-06
5.27511e-06
4.83039e-06
4.38628e-06
4.10844e-06
4.03245e-06
4.03578e-06
4.44357e-06
5.07944e-06
5.91844e-06
1.10715e-32
8.88753e-33
2.99046e-33
3.52447e-33
3.63329e-33
3.66842e-33
3.54917e-33
3.39083e-33
3.32739e-33
3.30268e-33
3.25917e-33
3.23511e-33
7.00923e-06
6.71211e-06
6.3882e-06
6.11068e-06
5.80655e-06
5.52783e-06
5.22541e-06
4.91645e-06
4.5585e-06
4.18107e-06
3.84045e-06
3.69272e-06
3.54732e-06
3.77327e-06
4.52452e-06
5.67596e-06
9.87795e-33
8.75618e-33
3.36341e-33
3.81725e-33
3.74605e-33
3.70623e-33
3.61866e-33
3.42778e-33
3.3501e-33
3.51854e-33
3.48943e-33
3.78775e-33
4.95264e-33
6.03541e-06
5.8106e-06
5.64596e-06
5.50371e-06
5.31193e-06
5.04946e-06
4.70196e-06
4.22389e-06
3.65693e-06
3.06398e-06
2.86099e-06
2.75192e-06
3.13737e-06
4.07045e-06
5.50701e-06
9.35808e-33
1.23405e-32
6.90986e-06
4.117e-33
4.09243e-33
4.10222e-33
3.74749e-33
3.71418e-33
3.73927e-33
3.53448e-33
3.63078e-33
4.33674e-33
6.47873e-33
5.5694e-06
5.41094e-06
5.14138e-06
4.73129e-06
4.15471e-06
3.38784e-06
2.74489e-06
2.27237e-06
2.04375e-06
1.88596e-06
2.02854e-06
2.22614e-06
2.89185e-06
3.7881e-06
5.30504e-06
9.12438e-33
6.96567e-33
9.53739e-06
6.19217e-06
4.28105e-33
4.15879e-33
3.86399e-33
3.79172e-33
3.53651e-33
3.78608e-33
3.76537e-33
4.6922e-33
7.52701e-33
4.99365e-06
4.40316e-06
3.44598e-06
2.33996e-06
1.76143e-06
1.57559e-06
1.51259e-06
1.53996e-06
1.57619e-06
1.6356e-06
1.73362e-06
1.91858e-06
2.60433e-06
3.74147e-06
5.27196e-06
9.02885e-33
6.55546e-33
9.86492e-06
8.69164e-06
6.17906e-06
5.80879e-06
5.48114e-06
4.82247e-06
3.9921e-33
3.93137e-33
4.2485e-33
4.87365e-33
1.40372e-32
4.18888e-06
3.12028e-06
1.84586e-06
1.16931e-06
1.23474e-06
1.39653e-06
1.36858e-06
1.49299e-06
1.57417e-06
1.60436e-06
1.67914e-06
1.801e-06
2.40241e-06
3.62938e-06
5.22938e-06
9.03795e-33
4.94128e-33
9.89563e-06
9.05723e-06
8.33068e-06
7.72821e-06
7.1926e-06
6.66141e-06
4.90618e-06
4.76816e-06
4.26385e-06
5.97591e-33
1.76151e-32
3.50681e-06
2.35385e-06
1.20477e-06
8.99858e-07
1.09447e-06
1.38528e-06
1.27365e-06
1.42592e-06
1.55517e-06
1.58658e-06
1.63024e-06
1.74089e-06
2.16161e-06
3.40417e-06
5.21814e-06
9.1083e-33
4.71996e-33
9.88397e-06
9.06443e-06
8.49865e-06
7.84234e-06
7.23988e-06
6.77936e-06
6.42256e-06
6.30824e-06
5.64755e-06
5.94543e-33
2.20783e-32
3.20076e-06
1.90336e-06
1.05614e-06
9.63788e-07
1.12653e-06
1.31249e-06
1.16504e-06
1.38461e-06
1.5461e-06
1.58031e-06
1.60927e-06
1.68765e-06
2.08088e-06
3.26235e-06
5.21268e-06
9.15116e-33
3.97029e-33
9.8789e-06
9.03049e-06
8.46895e-06
7.76918e-06
7.11915e-06
6.705e-06
6.52825e-06
6.50993e-06
5.55815e-06
7.01368e-33
2.49195e-32
2.64064e-06
1.84579e-06
1.30251e-06
1.16068e-06
1.40188e-06
1.52553e-06
1.19452e-06
1.37603e-06
1.54306e-06
1.56853e-06
1.59205e-06
1.63549e-06
1.65987e-06
2.79418e-06
5.18923e-06
9.34067e-33
3.73933e-33
9.8815e-06
9.01459e-06
8.43205e-06
7.70913e-06
7.05758e-06
6.71498e-06
6.60806e-06
6.58586e-06
4.88384e-06
8.39713e-33
3.56486e-32
2.39928e-06
1.89875e-06
1.52563e-06
1.24831e-06
1.28364e-06
1.44441e-06
1.27406e-06
1.33356e-06
1.53652e-06
1.55436e-06
1.57855e-06
1.62172e-06
1.68217e-06
2.01865e-06
5.07048e-06
9.3101e-33
3.65323e-33
9.9086e-06
9.02265e-06
8.40634e-06
7.64949e-06
7.01092e-06
6.7288e-06
6.76427e-06
6.52851e-06
4.85176e-06
3.21617e-06
2.96435e-06
2.61265e-06
2.03926e-06
1.53606e-06
1.2618e-06
1.30029e-06
1.36743e-06
1.30138e-06
1.32899e-06
1.5339e-06
1.5429e-06
1.562e-06
1.61137e-06
1.67712e-06
2.09112e-06
4.88836e-06
9.51698e-33
3.33125e-33
9.93351e-06
9.03723e-06
8.39205e-06
7.59983e-06
6.97924e-06
6.76063e-06
6.8923e-06
6.38342e-06
4.53315e-06
3.86565e-06
3.46782e-06
2.62657e-06
2.04547e-06
1.57687e-06
1.40948e-06
1.41891e-06
1.36283e-06
1.31213e-06
1.33794e-06
1.51654e-06
1.52176e-06
1.53904e-06
1.59116e-06
1.66028e-06
2.14123e-06
4.73205e-06
9.49169e-33
3.31354e-33
9.91049e-06
9.04679e-06
8.37157e-06
7.54595e-06
6.96272e-06
6.82173e-06
7.01935e-06
6.25806e-06
4.15545e-06
3.58313e-06
3.41344e-06
2.53582e-06
2.16371e-06
1.5367e-06
1.397e-06
1.30489e-06
1.2986e-06
1.30898e-06
1.31687e-06
1.46915e-06
1.48084e-06
1.50101e-06
1.56136e-06
1.62829e-06
2.14229e-06
4.57876e-06
9.71111e-33
3.07699e-33
9.88647e-06
9.03742e-06
8.34611e-06
7.50111e-06
6.97697e-06
6.92431e-06
7.11614e-06
6.03273e-06
3.76673e-06
3.23831e-06
3.19527e-06
2.35308e-06
2.15681e-06
1.60328e-06
1.43242e-06
1.27212e-06
1.30976e-06
1.31553e-06
1.28977e-06
1.40203e-06
1.43003e-06
1.45855e-06
1.52662e-06
1.59024e-06
2.10573e-06
4.4487e-06
9.86153e-33
3.06687e-33
9.91931e-06
9.01276e-06
8.31525e-06
7.46911e-06
7.02954e-06
7.01792e-06
7.1092e-06
5.72462e-06
3.30892e-06
2.83043e-06
3.09562e-06
2.15726e-06
1.9638e-06
1.53181e-06
1.18069e-06
1.1463e-06
1.29916e-06
1.27702e-06
1.23525e-06
1.32651e-06
1.36311e-06
1.40482e-06
1.48394e-06
1.54605e-06
1.96606e-06
4.31105e-06
9.82309e-33
2.87711e-33
9.97132e-06
8.98522e-06
8.28563e-06
7.46494e-06
7.12197e-06
7.22292e-06
7.07413e-06
5.01262e-06
2.48521e-06
2.6154e-06
2.93861e-06
1.6425e-06
1.32462e-06
1.11994e-06
1.10282e-06
1.12872e-06
1.30945e-06
1.35509e-06
1.23478e-06
1.26044e-06
1.30586e-06
1.3587e-06
1.44813e-06
1.50729e-06
1.80829e-06
4.22552e-06
1.02383e-32
2.86873e-33
9.99189e-06
8.98381e-06
8.27613e-06
7.53269e-06
7.40917e-06
7.55308e-06
6.54492e-06
2.8204e-06
1.54803e-06
2.34135e-06
2.9633e-06
1.56889e-06
1.09493e-06
1.13403e-06
1.17305e-06
1.20936e-06
1.3777e-06
1.50127e-06
1.29832e-06
1.21489e-06
1.25011e-06
1.31068e-06
1.41166e-06
1.47145e-06
1.67526e-06
4.1824e-06
1.04736e-32
2.71252e-33
9.99178e-06
9.01936e-06
8.31488e-06
7.76342e-06
7.75431e-06
7.52235e-06
4.82217e-06
1.27098e-06
1.10964e-06
1.26363e-06
1.60443e-06
1.3063e-06
1.08778e-06
1.30218e-06
1.15091e-06
1.18331e-06
1.38649e-06
1.52623e-06
1.38193e-06
1.18908e-06
1.20431e-06
1.27741e-06
1.38507e-06
1.43449e-06
1.57329e-06
4.15544e-06
1.04396e-32
2.7014e-33
1.00496e-05
9.09555e-06
8.41301e-06
7.99444e-06
7.96459e-06
7.20759e-06
2.78853e-06
1.15345e-06
1.3185e-06
1.69306e-06
2.37001e-06
1.89861e-06
1.68162e-06
1.51625e-06
1.28437e-06
1.20382e-06
1.27601e-06
1.36255e-06
1.26878e-06
1.13028e-06
1.12657e-06
1.23211e-06
1.35155e-06
1.38362e-06
1.54447e-06
4.11947e-06
1.09864e-32
2.56794e-33
1.00995e-05
9.18668e-06
8.58628e-06
8.29342e-06
8.13935e-06
6.33263e-06
1.6373e-06
1.00331e-06
1.42181e-06
2.5973e-06
3.31845e-06
4.07787e-06
4.13269e-06
2.93696e-06
2.32254e-06
1.75631e-06
1.02368e-06
7.38936e-07
8.79994e-07
9.40861e-07
1.05179e-06
1.20692e-06
1.33334e-06
1.29703e-06
1.50196e-06
4.02309e-06
1.09442e-32
2.57191e-33
1.01637e-05
9.31668e-06
8.76832e-06
8.52302e-06
8.17646e-06
5.49876e-06
4.32861e-32
4.23519e-30
8.22096e-07
8.13658e-07
9.72537e-07
9.16514e-07
9.25567e-07
7.5162e-07
7.13174e-07
6.53633e-07
7.42433e-07
7.92707e-07
8.51124e-07
9.40454e-07
1.05894e-06
1.20401e-06
1.31981e-06
1.10821e-06
1.43445e-06
3.91858e-06
1.1495e-32
2.44764e-33
1.01956e-05
9.39577e-06
8.92002e-06
8.66918e-06
8.07263e-06
4.38164e-06
1.01134e-31
7.42635e-07
7.14474e-07
6.45647e-07
6.1012e-07
5.885e-07
5.8022e-07
5.84299e-07
6.11111e-07
6.25208e-07
6.83206e-07
7.35989e-07
8.42238e-07
9.26696e-07
1.04239e-06
1.18722e-06
1.2984e-06
6.12117e-07
1.34568e-06
3.76244e-06
1.17545e-32
2.45834e-33
1.02846e-05
9.49778e-06
9.06729e-06
8.76273e-06
7.77348e-06
3.68028e-06
2.53014e-31
7.59795e-07
6.77414e-07
5.82798e-07
5.19502e-07
4.80875e-07
4.67049e-07
4.74019e-07
5.23994e-07
5.74357e-07
6.50604e-07
7.1671e-07
8.22325e-07
9.16282e-07
1.03566e-06
1.17527e-06
1.27673e-06
2.05577e-30
1.2697e-06
3.61853e-06
1.17455e-32
2.34876e-33
1.03078e-05
9.54673e-06
9.15578e-06
8.7558e-06
7.53842e-06
3.60655e-06
1.27002e-06
7.81391e-07
6.92005e-07
6.10004e-07
5.58115e-07
5.22115e-07
5.0673e-07
5.07491e-07
5.39474e-07
5.87414e-07
6.58642e-07
7.22509e-07
8.14801e-07
9.04547e-07
1.00945e-06
1.13587e-06
1.23513e-06
1.86995e-30
1.24417e-06
3.46483e-06
1.23014e-32
2.35733e-33
1.03671e-05
9.65455e-06
9.25901e-06
8.72765e-06
7.43596e-06
3.50263e-06
1.24292e-06
7.32569e-07
6.40675e-07
5.78022e-07
5.2901e-07
4.88937e-07
4.66217e-07
4.68734e-07
4.99724e-07
5.68452e-07
6.35542e-07
6.97395e-07
7.77724e-07
8.62035e-07
9.58497e-07
1.05993e-06
1.14694e-06
1.3739e-30
1.18322e-06
3.33314e-06
1.25871e-32
2.23458e-33
1.03972e-05
9.7215e-06
9.3264e-06
8.72362e-06
7.19714e-06
2.08123e-06
6.80213e-07
6.23883e-07
5.82946e-07
5.42773e-07
5.12742e-07
4.84862e-07
4.65388e-07
4.68034e-07
4.91219e-07
5.49532e-07
6.00164e-07
6.49759e-07
7.0833e-07
7.67229e-07
8.2929e-07
8.92188e-07
9.59709e-07
1.00826e-30
1.04454e-06
3.21683e-06
1.25806e-32
2.17987e-33
1.04979e-05
9.86522e-06
9.40995e-06
8.68555e-06
6.43987e-06
1.00348e-31
4.42936e-07
4.12241e-07
3.96002e-07
3.72105e-07
3.64149e-07
3.5462e-07
3.46474e-07
3.50158e-07
3.6423e-07
3.89489e-07
4.11209e-07
4.30745e-07
4.53335e-07
4.73755e-07
4.92833e-07
4.98843e-07
5.1797e-07
6.60274e-07
6.35519e-07
3.02063e-06
1.31645e-32
8.46318e-07
1.39769e-06
3.02602e-06
3.45011e-06
3.94509e-06
4.19181e-06
4.50947e-06
4.70157e-06
4.89519e-06
4.98196e-06
5.05359e-06
5.05399e-06
5.00263e-06
4.88555e-06
4.71136e-06
4.44587e-06
4.10315e-06
3.65682e-06
3.14011e-06
2.49861e-06
1.83069e-06
1.37236e-06
1.28461e-06
1.53962e-06
2.38362e-06
3.17937e-06
3.35908e-06
3.58774e-32
6.75746e-32
4.88998e-06
4.81404e-06
4.86593e-06
4.9343e-06
5.0149e-06
5.08229e-06
5.07645e-06
5.05236e-06
5.01707e-06
5.02597e-06
5.05292e-06
4.96178e-06
4.83987e-06
4.66799e-06
4.4591e-06
4.20543e-06
3.8886e-06
3.54295e-06
3.24134e-06
2.91669e-06
2.73599e-06
2.67714e-06
2.72463e-06
3.01301e-06
3.46909e-06
3.97604e-06
4.14755e-32
7.11415e-08
9.07767e-07
8.34741e-07
8.06219e-07
7.69056e-07
7.36768e-07
6.90364e-07
6.45182e-07
6.19776e-07
6.35612e-07
1.10971e-06
4.89011e-06
4.70742e-06
4.50838e-06
4.33837e-06
4.13275e-06
3.93808e-06
3.72458e-06
3.51454e-06
3.24962e-06
3.01599e-06
2.84327e-06
2.78867e-06
2.70206e-06
2.7751e-06
3.22944e-06
3.96494e-06
4.32318e-32
6.36862e-08
1.58557e-07
1.346e-07
1.20689e-07
1.02537e-07
7.4041e-08
6.29856e-08
5.77948e-08
6.16246e-08
4.4212e-08
7.69241e-08
9.3532e-07
4.31105e-06
4.17898e-06
4.08601e-06
4.00097e-06
3.85191e-06
3.65306e-06
3.38561e-06
3.02567e-06
2.61504e-06
2.29581e-06
2.26401e-06
2.18195e-06
2.29555e-06
2.8875e-06
3.84846e-06
3.41166e-32
1.18078e-31
3.49689e-06
6.109e-08
3.79059e-08
3.40399e-08
2.44828e-08
1.92781e-08
1.36015e-08
1.72294e-08
5.65627e-09
6.91067e-09
4.45755e-07
4.03562e-06
3.96413e-06
3.8051e-06
3.5702e-06
3.15564e-06
2.54526e-06
2.05017e-06
1.72804e-06
1.61363e-06
1.60341e-06
1.91409e-06
1.96669e-06
2.17087e-06
2.70429e-06
3.69737e-06
3.31554e-32
6.94489e-32
6.30325e-06
3.03267e-06
3.81222e-08
5.07355e-09
8.17841e-10
4.21868e-10
1.16849e-09
9.79301e-10
4.68727e-10
1.15623e-09
2.80959e-07
3.66892e-06
3.28017e-06
2.65682e-06
1.79746e-06
1.39047e-06
1.33135e-06
1.31205e-06
1.39297e-06
1.44265e-06
1.48908e-06
1.54115e-06
1.75845e-06
2.07643e-06
2.67896e-06
3.67338e-06
3.11661e-32
4.80504e-32
6.79525e-06
5.70895e-06
3.21506e-06
3.03592e-06
2.87229e-06
2.31494e-06
1.58733e-08
2.29692e-09
2.40448e-09
8.73698e-10
2.06865e-07
3.10955e-06
2.34375e-06
1.37952e-06
9.20783e-07
1.08783e-06
1.17926e-06
1.19094e-06
1.36081e-06
1.44932e-06
1.47915e-06
1.51249e-06
1.56548e-06
2.29075e-06
2.61571e-06
3.6536e-06
3.05994e-32
3.11483e-32
6.86504e-06
6.27288e-06
5.58532e-06
5.19101e-06
4.82935e-06
4.3665e-06
2.61832e-06
2.51968e-06
2.11488e-06
2.04294e-08
1.1263e-07
2.61974e-06
1.79302e-06
9.65429e-07
7.46658e-07
9.55426e-07
1.06984e-06
1.07014e-06
1.29304e-06
1.41658e-06
1.4543e-06
1.48941e-06
1.53412e-06
1.82306e-06
2.51758e-06
3.65454e-06
3.03592e-32
2.7416e-32
6.86656e-06
6.31414e-06
5.90545e-06
5.4429e-06
5.00897e-06
4.67899e-06
4.33502e-06
4.24357e-06
3.75124e-06
1.46451e-08
2.36513e-08
2.42343e-06
1.49253e-06
9.64609e-07
7.64831e-07
9.52556e-07
1.07819e-06
1.0294e-06
1.29389e-06
1.39697e-06
1.42817e-06
1.46029e-06
1.50153e-06
1.67448e-06
2.51794e-06
3.65565e-06
3.01794e-32
2.11704e-32
6.85795e-06
6.29446e-06
5.90533e-06
5.42273e-06
4.953e-06
4.65802e-06
4.53086e-06
4.53043e-06
3.87158e-06
2.73835e-08
2.33277e-08
2.02286e-06
1.44668e-06
1.14688e-06
8.91579e-07
9.67651e-07
1.32962e-06
1.12945e-06
1.32003e-06
1.38518e-06
1.40453e-06
1.43416e-06
1.47376e-06
1.4644e-06
2.42088e-06
3.65073e-06
3.10147e-32
2.0444e-32
6.86786e-06
6.29014e-06
5.87626e-06
5.37001e-06
4.89214e-06
4.65351e-06
4.61593e-06
4.66398e-06
3.38113e-06
4.93201e-08
4.92104e-08
1.74819e-06
1.45744e-06
1.36847e-06
1.05691e-06
1.07318e-06
1.29248e-06
1.28051e-06
1.32857e-06
1.36935e-06
1.37793e-06
1.40947e-06
1.47012e-06
1.50069e-06
1.7721e-06
3.59981e-06
3.13278e-32
1.77915e-32
6.89638e-06
6.30653e-06
5.85807e-06
5.32365e-06
4.8611e-06
4.66631e-06
4.73352e-06
4.6617e-06
3.48914e-06
1.88848e-06
1.81554e-06
1.95295e-06
1.53913e-06
1.40082e-06
1.01027e-06
1.10329e-06
1.30335e-06
1.38571e-06
1.34691e-06
1.35919e-06
1.35698e-06
1.37937e-06
1.44797e-06
1.49966e-06
1.8089e-06
3.47777e-06
3.08183e-32
1.68428e-32
6.90578e-06
6.32172e-06
5.84888e-06
5.28675e-06
4.84284e-06
4.6891e-06
4.82957e-06
4.55033e-06
3.32985e-06
2.76449e-06
2.51693e-06
2.00071e-06
1.63658e-06
1.41303e-06
1.34215e-06
1.24708e-06
1.35262e-06
1.49581e-06
1.33769e-06
1.3265e-06
1.31932e-06
1.34261e-06
1.41447e-06
1.47095e-06
1.79172e-06
3.37691e-06
3.06564e-32
1.66299e-32
6.8747e-06
6.32027e-06
5.8352e-06
5.24883e-06
4.83445e-06
4.74045e-06
4.9339e-06
4.46743e-06
3.06936e-06
2.63461e-06
2.53753e-06
1.94657e-06
1.64025e-06
1.44084e-06
1.15766e-06
1.12212e-06
1.40185e-06
1.46811e-06
1.30928e-06
1.25653e-06
1.26427e-06
1.2936e-06
1.3754e-06
1.44054e-06
1.76768e-06
3.27444e-06
3.06915e-32
1.53888e-32
6.86841e-06
6.30209e-06
5.81222e-06
5.21865e-06
4.84693e-06
4.83154e-06
5.02033e-06
4.30575e-06
2.75273e-06
2.38477e-06
2.3815e-06
1.81912e-06
1.68444e-06
1.52929e-06
1.25319e-06
1.24033e-06
1.51255e-06
1.54452e-06
1.25323e-06
1.17671e-06
1.20213e-06
1.244e-06
1.33523e-06
1.40177e-06
1.712e-06
3.18291e-06
3.04232e-32
1.53302e-32
6.91032e-06
6.26872e-06
5.78542e-06
5.19992e-06
4.89189e-06
4.89364e-06
5.02392e-06
4.11294e-06
2.43355e-06
2.09225e-06
2.30867e-06
1.68903e-06
1.4829e-06
1.33702e-06
1.05595e-06
1.16461e-06
1.50572e-06
1.40148e-06
1.18728e-06
1.097e-06
1.13233e-06
1.19028e-06
1.29495e-06
1.36535e-06
1.5945e-06
3.07446e-06
3.09063e-32
1.43817e-32
6.94446e-06
6.24068e-06
5.75436e-06
5.18951e-06
4.94787e-06
5.01279e-06
4.99299e-06
3.61089e-06
1.7697e-06
1.94596e-06
2.14608e-06
1.37192e-06
1.06047e-06
1.10429e-06
1.19767e-06
1.27041e-06
1.51164e-06
1.52853e-06
1.19708e-06
1.04208e-06
1.08037e-06
1.15029e-06
1.26497e-06
1.33372e-06
1.4804e-06
3.00081e-06
3.13357e-32
1.43082e-32
6.9263e-06
6.2384e-06
5.73478e-06
5.21411e-06
5.10991e-06
5.25562e-06
4.69394e-06
2.03867e-06
1.26196e-06
1.71294e-06
2.14608e-06
1.46058e-06
1.28855e-06
1.26542e-06
1.36913e-06
1.42497e-06
1.5761e-06
1.71168e-06
1.26472e-06
1.00874e-06
1.03172e-06
1.11343e-06
1.23835e-06
1.30342e-06
1.40519e-06
2.97096e-06
3.13072e-32
1.35603e-32
6.91847e-06
6.26775e-06
5.74458e-06
5.35176e-06
5.34181e-06
5.22871e-06
3.59968e-06
9.80933e-07
1.15187e-06
1.29277e-06
1.12343e-06
1.51318e-06
1.2281e-06
1.63532e-06
1.27757e-06
1.29684e-06
1.69919e-06
1.69195e-06
1.26201e-06
9.85097e-07
9.92195e-07
1.09001e-06
1.22054e-06
1.26653e-06
1.3698e-06
2.95897e-06
3.24662e-32
1.34636e-32
6.95766e-06
6.31736e-06
5.79996e-06
5.488e-06
5.46973e-06
5.03789e-06
2.07418e-06
1.07468e-06
1.60035e-06
2.15833e-06
2.47455e-06
2.41156e-06
2.07244e-06
1.95995e-06
1.60385e-06
1.46806e-06
1.63422e-06
1.64083e-06
1.09921e-06
8.81185e-07
9.14356e-07
1.06145e-06
1.2002e-06
1.21159e-06
1.36134e-06
2.93589e-06
3.21991e-32
1.2795e-32
6.97919e-06
6.36564e-06
5.91176e-06
5.68228e-06
5.58506e-06
4.50615e-06
1.1252e-06
9.71054e-07
1.81743e-06
3.03748e-06
3.78296e-06
4.39914e-06
4.45315e-06
3.41917e-06
2.7655e-06
2.2383e-06
1.40574e-06
8.88474e-07
7.0321e-07
7.74962e-07
8.94724e-07
1.06447e-06
1.19675e-06
1.11041e-06
1.30872e-06
2.87331e-06
3.37695e-32
1.26731e-32
7.01461e-06
6.43655e-06
6.03177e-06
5.85423e-06
5.66062e-06
4.04439e-06
2.87713e-08
1.70242e-07
7.31777e-07
7.60774e-07
9.52989e-07
8.8747e-07
9.12719e-07
7.04564e-07
6.45033e-07
5.83361e-07
6.66657e-07
7.14929e-07
7.32497e-07
8.08166e-07
9.26227e-07
1.07353e-06
1.18703e-06
9.00027e-07
1.24102e-06
2.80733e-06
3.44484e-32
1.22415e-32
7.04011e-06
6.47368e-06
6.13568e-06
5.97481e-06
5.65847e-06
3.22444e-06
5.39502e-08
6.15102e-07
5.64463e-07
4.90672e-07
4.43764e-07
4.2118e-07
4.13524e-07
4.26073e-07
4.64683e-07
4.88836e-07
5.50339e-07
5.97326e-07
6.99831e-07
7.9727e-07
9.1252e-07
1.05671e-06
1.16475e-06
5.61922e-07
1.15976e-06
2.71281e-06
3.43996e-32
1.21594e-32
7.0992e-06
6.53909e-06
6.24636e-06
6.05508e-06
5.48872e-06
2.7559e-06
1.24818e-07
6.44111e-07
5.68174e-07
4.85018e-07
4.2798e-07
3.93531e-07
3.84653e-07
3.94871e-07
4.44811e-07
5.09764e-07
5.72925e-07
6.3175e-07
7.08979e-07
7.96463e-07
9.1007e-07
1.04176e-06
1.13698e-06
4.19783e-07
1.10247e-06
2.62679e-06
3.57346e-32
1.16715e-32
7.09835e-06
6.57572e-06
6.30342e-06
6.04462e-06
5.31626e-06
2.76417e-06
9.94381e-07
6.41914e-07
5.52201e-07
4.80685e-07
4.30165e-07
3.94526e-07
3.81932e-07
3.8705e-07
4.18278e-07
4.8437e-07
5.49967e-07
6.11672e-07
6.91811e-07
7.76496e-07
8.71897e-07
9.85984e-07
1.07539e-06
3.73404e-07
1.07104e-06
2.53131e-06
3.55781e-32
1.17353e-32
7.12128e-06
6.65625e-06
6.36944e-06
6.02268e-06
5.25811e-06
2.72885e-06
8.76919e-07
5.74852e-07
4.92295e-07
4.42396e-07
4.03652e-07
3.7576e-07
3.60181e-07
3.67725e-07
3.97107e-07
4.66394e-07
5.28137e-07
5.83354e-07
6.48718e-07
7.18832e-07
7.99309e-07
8.83819e-07
9.52753e-07
3.04314e-07
9.84447e-07
2.449e-06
3.6976e-32
1.11219e-32
7.1583e-06
6.71288e-06
6.41841e-06
6.03763e-06
5.12013e-06
1.41357e-06
4.42668e-07
4.47497e-07
4.14958e-07
3.86823e-07
3.7156e-07
3.55775e-07
3.44013e-07
3.51937e-07
3.77171e-07
4.27265e-07
4.67675e-07
5.05705e-07
5.46766e-07
5.87578e-07
6.28834e-07
6.68307e-07
6.99271e-07
2.74096e-07
7.9416e-07
2.37771e-06
3.74532e-32
1.09942e-32
7.23817e-06
6.81831e-06
6.48925e-06
6.02946e-06
4.62651e-06
7.06004e-08
2.73433e-07
2.42817e-07
2.44077e-07
2.32767e-07
2.3629e-07
2.37737e-07
2.39658e-07
2.45015e-07
2.5618e-07
2.66527e-07
2.72336e-07
2.74933e-07
2.74078e-07
2.69368e-07
2.59329e-07
2.22915e-07
1.91772e-07
4.30093e-07
3.30022e-07
2.26341e-06
3.77768e-32
1.16517e-06
8.76277e-07
1.93107e-06
2.18867e-06
2.51115e-06
2.69111e-06
2.91741e-06
3.05903e-06
3.19465e-06
3.25119e-06
3.26958e-06
3.23277e-06
3.17546e-06
3.03907e-06
2.86259e-06
2.60656e-06
2.31015e-06
1.96811e-06
1.64469e-06
1.34808e-06
1.2404e-06
1.38578e-06
1.45133e-06
1.25338e-06
1.32229e-06
1.8367e-06
2.00584e-06
2.33446e-07
3.76876e-07
2.98857e-06
3.04817e-06
3.14037e-06
3.25505e-06
3.34959e-06
3.43928e-06
3.47065e-06
3.49803e-06
3.52005e-06
3.58183e-06
3.63502e-06
3.58726e-06
3.505e-06
3.37681e-06
3.20785e-06
2.99672e-06
2.75223e-06
2.50663e-06
2.31142e-06
2.12176e-06
2.04669e-06
2.02189e-06
2.06318e-06
2.20407e-06
2.51797e-06
2.82111e-06
1.51418e-07
2.16589e-07
1.31422e-06
1.26843e-06
1.24897e-06
1.23761e-06
1.21359e-06
1.16428e-06
1.12889e-06
1.12581e-06
1.25188e-06
1.87506e-06
3.65303e-06
3.56037e-06
3.41116e-06
3.28198e-06
3.12941e-06
2.98931e-06
2.84116e-06
2.69456e-06
2.53508e-06
2.43085e-06
2.39006e-06
2.39298e-06
2.33473e-06
2.26946e-06
2.47021e-06
2.9523e-06
2.04254e-31
3.93563e-31
6.85759e-07
6.3756e-07
6.31842e-07
5.708e-07
5.19261e-07
4.8752e-07
4.84543e-07
5.46605e-07
6.54561e-07
8.68482e-07
1.74756e-06
3.31256e-06
3.22811e-06
3.16476e-06
3.09905e-06
2.97629e-06
2.82037e-06
2.61103e-06
2.32794e-06
2.05839e-06
1.9982e-06
2.11575e-06
2.06978e-06
1.94872e-06
2.2175e-06
2.88984e-06
1.41252e-31
4.69472e-31
1.54079e-06
6.27649e-07
6.91197e-07
6.505e-07
6.07624e-07
5.80633e-07
5.77158e-07
6.28271e-07
6.2692e-07
6.59804e-07
1.26069e-06
3.10516e-06
3.07527e-06
2.96614e-06
2.82873e-06
2.49523e-06
1.96796e-06
1.60391e-06
1.47384e-06
1.49763e-06
1.61398e-06
1.98434e-06
2.10386e-06
1.94116e-06
2.10479e-06
2.76494e-06
1.38878e-31
2.21842e-31
4.11417e-06
1.26861e-06
5.83505e-07
5.25596e-07
4.79052e-07
5.38554e-07
6.36027e-07
6.40237e-07
6.04401e-07
5.58417e-07
1.04051e-06
2.82558e-06
2.56049e-06
2.12229e-06
1.44322e-06
1.18623e-06
1.20486e-06
1.25485e-06
1.40658e-06
1.47907e-06
1.52704e-06
1.56808e-06
1.81129e-06
2.03611e-06
2.10834e-06
2.74312e-06
1.25123e-31
1.16896e-31
4.82509e-06
3.6654e-06
1.50749e-06
1.45485e-06
1.41167e-06
1.00623e-06
5.99654e-07
6.12516e-07
6.23948e-07
5.27912e-07
8.33599e-07
2.39766e-06
1.80844e-06
1.0621e-06
8.61473e-07
1.01174e-06
1.07026e-06
1.14195e-06
1.3687e-06
1.44659e-06
1.48901e-06
1.5159e-06
1.57369e-06
2.34793e-06
2.09459e-06
2.73956e-06
1.25789e-31
9.28883e-32
4.95638e-06
4.48086e-06
3.78563e-06
3.55161e-06
3.33942e-06
2.89679e-06
1.35996e-06
1.26323e-06
9.43314e-07
6.30621e-07
6.20695e-07
2.03195e-06
1.40977e-06
8.219e-07
7.22616e-07
9.25132e-07
9.79718e-07
1.06109e-06
1.32999e-06
1.39781e-06
1.44748e-06
1.489e-06
1.52293e-06
1.73372e-06
2.09206e-06
2.74696e-06
1.25932e-31
7.31355e-32
4.963e-06
4.59682e-06
4.27219e-06
3.95566e-06
3.66467e-06
3.41483e-06
3.03508e-06
2.93352e-06
2.53818e-06
4.85238e-07
4.58592e-07
1.91799e-06
1.22966e-06
9.58949e-07
7.3885e-07
9.43086e-07
1.2035e-06
1.15942e-06
1.41323e-06
1.36346e-06
1.39401e-06
1.44326e-06
1.49586e-06
1.56052e-06
2.19994e-06
2.75231e-06
1.30867e-31
6.80066e-32
4.95227e-06
4.59315e-06
4.30684e-06
3.97579e-06
3.65443e-06
3.44067e-06
3.32795e-06
3.30818e-06
2.81475e-06
5.33696e-07
4.54192e-07
1.6679e-06
1.2041e-06
1.19412e-06
8.52804e-07
8.16921e-07
1.42351e-06
1.35381e-06
1.5675e-06
1.34664e-06
1.35482e-06
1.4014e-06
1.47127e-06
1.49517e-06
2.38422e-06
2.75907e-06
1.28846e-31
5.94837e-32
4.95687e-06
4.59471e-06
4.29403e-06
3.94161e-06
3.60672e-06
3.43871e-06
3.41677e-06
3.47921e-06
2.57125e-06
7.94935e-07
5.89081e-07
1.48451e-06
1.26025e-06
1.6105e-06
1.15603e-06
1.1607e-06
1.68652e-06
1.62046e-06
1.72012e-06
1.32203e-06
1.31114e-06
1.35901e-06
1.45825e-06
1.50333e-06
1.83291e-06
2.75041e-06
1.30163e-31
5.81402e-32
4.96765e-06
4.60594e-06
4.27825e-06
3.90536e-06
3.58919e-06
3.44964e-06
3.50209e-06
3.49995e-06
2.93961e-06
1.31907e-06
1.31371e-06
1.66828e-06
1.34895e-06
1.66462e-06
1.06753e-06
1.19876e-06
1.77683e-06
1.76256e-06
1.7674e-06
1.30631e-06
1.27324e-06
1.30817e-06
1.40952e-06
1.48461e-06
1.78365e-06
2.67413e-06
1.23402e-31
5.31477e-32
4.96322e-06
4.61296e-06
4.2703e-06
3.87831e-06
3.58042e-06
3.46746e-06
3.56634e-06
3.41465e-06
2.66531e-06
2.16855e-06
2.0115e-06
1.74737e-06
1.58581e-06
1.67032e-06
1.66351e-06
1.55048e-06
1.86347e-06
2.03595e-06
1.71495e-06
1.25722e-06
1.21356e-06
1.256e-06
1.36469e-06
1.43215e-06
1.69147e-06
2.61607e-06
1.20486e-31
5.13523e-32
4.94255e-06
4.6039e-06
4.26076e-06
3.85267e-06
3.57703e-06
3.50587e-06
3.64379e-06
3.34806e-06
2.61087e-06
2.13864e-06
2.18011e-06
1.73359e-06
1.43189e-06
1.74952e-06
1.22868e-06
1.29512e-06
1.96214e-06
1.85872e-06
1.70104e-06
1.17921e-06
1.1439e-06
1.19552e-06
1.31676e-06
1.39951e-06
1.63547e-06
2.5547e-06
1.1414e-31
5.10623e-32
4.94692e-06
4.58208e-06
4.23998e-06
3.83402e-06
3.58615e-06
3.57986e-06
3.7139e-06
3.20841e-06
2.21489e-06
1.96453e-06
1.97325e-06
1.67348e-06
1.58258e-06
1.83075e-06
1.53098e-06
1.67453e-06
2.10126e-06
2.08754e-06
1.61643e-06
1.09489e-06
1.07353e-06
1.14329e-06
1.27589e-06
1.35651e-06
1.54402e-06
2.49699e-06
1.13898e-31
4.80941e-32
4.97287e-06
4.55342e-06
4.21863e-06
3.82526e-06
3.61917e-06
3.6117e-06
3.71178e-06
3.08268e-06
2.02436e-06
1.77912e-06
1.97026e-06
1.62302e-06
1.24003e-06
1.5793e-06
1.31351e-06
1.46031e-06
2.06377e-06
1.75454e-06
1.49231e-06
1.02971e-06
1.00787e-06
1.09305e-06
1.24185e-06
1.32819e-06
1.45429e-06
2.42025e-06
1.12648e-31
4.82176e-32
4.97525e-06
4.53278e-06
4.19246e-06
3.8095e-06
3.6447e-06
3.66739e-06
3.67272e-06
2.73101e-06
1.40895e-06
1.68297e-06
1.81426e-06
1.54365e-06
1.09814e-06
1.53843e-06
1.54753e-06
1.68368e-06
2.06122e-06
1.91901e-06
1.4375e-06
9.70238e-07
9.63584e-07
1.06348e-06
1.2209e-06
1.29858e-06
1.38523e-06
2.36484e-06
1.18351e-31
4.57955e-32
4.94963e-06
4.53156e-06
4.16949e-06
3.81405e-06
3.72551e-06
3.83165e-06
3.48226e-06
1.57321e-06
1.3775e-06
1.46048e-06
1.72185e-06
1.74002e-06
1.76579e-06
1.60947e-06
1.84881e-06
1.94163e-06
2.01933e-06
2.20549e-06
1.39372e-06
9.29024e-07
9.22144e-07
1.04116e-06
1.20483e-06
1.26965e-06
1.36704e-06
2.34635e-06
1.16442e-31
4.57973e-32
4.94169e-06
4.55395e-06
4.16942e-06
3.88983e-06
3.87789e-06
3.80345e-06
2.80551e-06
9.36066e-07
1.44656e-06
1.71008e-06
8.50072e-07
1.97845e-06
1.51318e-06
2.20296e-06
1.62778e-06
1.65184e-06
2.37434e-06
2.15306e-06
1.31444e-06
8.89911e-07
8.82451e-07
1.02978e-06
1.19613e-06
1.2273e-06
1.35826e-06
2.34013e-06
1.24314e-31
4.36298e-32
4.96123e-06
4.58162e-06
4.19604e-06
3.96763e-06
3.95512e-06
3.65928e-06
1.61946e-06
1.13838e-06
2.04161e-06
2.69685e-06
2.67729e-06
2.9708e-06
2.48558e-06
2.5587e-06
2.07119e-06
1.95404e-06
2.3818e-06
2.31965e-06
1.11268e-06
7.73694e-07
8.4151e-07
1.03481e-06
1.19113e-06
1.16522e-06
1.3443e-06
2.31878e-06
1.25215e-31
4.37227e-32
4.96873e-06
4.60166e-06
4.27223e-06
4.09751e-06
4.02998e-06
3.28732e-06
8.73879e-07
1.06332e-06
2.35294e-06
3.42476e-06
4.16675e-06
4.65955e-06
4.72582e-06
3.84814e-06
3.18282e-06
2.75503e-06
1.94369e-06
1.4454e-06
7.52565e-07
7.4921e-07
8.6082e-07
1.05261e-06
1.19395e-06
1.0561e-06
1.27529e-06
2.2689e-06
1.31265e-31
4.19732e-32
4.99256e-06
4.63816e-06
4.35692e-06
4.23656e-06
4.12463e-06
3.07774e-06
1.2681e-07
3.55405e-07
6.92027e-07
7.28932e-07
8.98258e-07
8.65555e-07
8.88955e-07
6.8884e-07
6.26969e-07
5.86238e-07
6.47259e-07
7.01829e-07
6.92022e-07
7.72151e-07
9.01329e-07
1.06258e-06
1.17724e-06
8.88278e-07
1.20734e-06
2.22066e-06
1.2903e-31
4.15368e-32
5.01528e-06
4.66033e-06
4.43694e-06
4.34623e-06
4.16276e-06
2.44131e-06
2.03979e-07
5.59561e-07
4.8513e-07
3.96665e-07
3.58278e-07
3.22516e-07
3.22131e-07
3.26354e-07
3.77217e-07
4.28231e-07
5.06136e-07
5.59589e-07
6.53072e-07
7.61731e-07
8.86161e-07
1.03749e-06
1.1469e-06
7.49531e-07
1.13172e-06
2.16094e-06
1.35608e-31
4.05152e-32
5.0515e-06
4.71397e-06
4.52823e-06
4.42034e-06
4.07637e-06
2.11856e-06
4.01667e-07
5.80261e-07
5.00115e-07
4.2418e-07
3.69384e-07
3.39309e-07
3.33431e-07
3.49948e-07
4.05567e-07
4.89444e-07
5.50279e-07
6.11731e-07
6.76392e-07
7.66763e-07
8.77711e-07
1.00698e-06
1.0997e-06
6.89313e-07
1.07532e-06
2.11062e-06
1.34833e-31
3.98573e-32
5.05291e-06
4.74898e-06
4.56903e-06
4.40756e-06
3.93148e-06
2.19018e-06
8.23864e-07
5.44614e-07
4.5859e-07
3.95628e-07
3.48925e-07
3.19406e-07
3.09477e-07
3.22196e-07
3.62989e-07
4.41932e-07
5.06668e-07
5.70037e-07
6.39192e-07
7.2204e-07
8.14361e-07
9.23265e-07
1.00582e-06
6.42094e-07
1.00933e-06
2.05748e-06
1.40548e-31
3.88901e-32
5.0759e-06
4.81516e-06
4.6166e-06
4.39539e-06
3.89808e-06
2.22964e-06
6.22256e-07
4.48963e-07
3.93386e-07
3.5206e-07
3.26192e-07
3.07447e-07
3.00139e-07
3.14984e-07
3.54651e-07
4.29454e-07
4.8474e-07
5.34498e-07
5.8722e-07
6.45251e-07
7.15612e-07
7.91793e-07
8.42886e-07
5.40496e-07
8.67451e-07
2.01554e-06
1.41075e-31
3.85671e-32
5.11834e-06
4.86292e-06
4.65785e-06
4.42214e-06
3.81591e-06
1.02928e-06
3.13086e-07
3.47401e-07
3.25903e-07
3.01926e-07
2.96341e-07
2.90027e-07
2.86348e-07
2.99972e-07
3.32861e-07
3.74764e-07
4.07411e-07
4.36462e-07
4.65804e-07
4.9696e-07
5.33019e-07
5.77894e-07
5.65322e-07
4.48304e-07
5.99069e-07
1.98294e-06
1.44265e-31
3.70044e-32
5.18065e-06
4.94576e-06
4.72596e-06
4.42653e-06
3.47511e-06
1.01191e-07
3.37622e-07
3.0182e-07
3.02023e-07
2.96077e-07
2.931e-07
2.9396e-07
2.97109e-07
3.01466e-07
3.14397e-07
3.27727e-07
3.37227e-07
3.4926e-07
3.69181e-07
3.92474e-07
4.31473e-07
3.24471e-07
2.96912e-07
3.17497e-07
2.20583e-07
1.96369e-06
1.45163e-31
2.93213e-06
1.82332e-06
1.95349e-06
1.90369e-06
1.98132e-06
2.04829e-06
2.14659e-06
2.20714e-06
2.25769e-06
2.26679e-06
2.23288e-06
2.17889e-06
2.10459e-06
1.97854e-06
1.84788e-06
1.68978e-06
1.57008e-06
1.50353e-06
1.54869e-06
1.75591e-06
2.11404e-06
2.43714e-06
2.47731e-06
2.1244e-06
1.56997e-06
1.34026e-06
1.35574e-06
8.24002e-07
1.04941e-06
1.97152e-06
2.05613e-06
2.18068e-06
2.31512e-06
2.41074e-06
2.50194e-06
2.53968e-06
2.58172e-06
2.62097e-06
2.6892e-06
2.7187e-06
2.67813e-06
2.61441e-06
2.51612e-06
2.39605e-06
2.25257e-06
2.09998e-06
1.98517e-06
1.93932e-06
1.92867e-06
1.95183e-06
1.9528e-06
1.94931e-06
1.89545e-06
1.96723e-06
2.09464e-06
4.71016e-07
8.05335e-07
1.33337e-06
1.28925e-06
1.27689e-06
1.27008e-06
1.24671e-06
1.20797e-06
1.19896e-06
1.25369e-06
1.46415e-06
2.03452e-06
2.87036e-06
2.81949e-06
2.7211e-06
2.64239e-06
2.54329e-06
2.45527e-06
2.37867e-06
2.304e-06
2.24284e-06
2.2535e-06
2.32663e-06
2.37819e-06
2.32893e-06
2.13513e-06
2.06698e-06
2.32348e-06
2.91322e-07
3.08305e-07
8.88471e-07
8.11682e-07
7.78819e-07
7.15946e-07
6.77203e-07
6.81898e-07
7.22151e-07
8.51549e-07
1.00675e-06
1.26178e-06
1.9687e-06