/*--------------------------------*- C++ -*----------------------------------*\
| =========                 |                                                 |
| \\      /  F ield         | OpenFOAM: The Open Source CFD Toolbox           |
|  \\    /   O peration     | Version:  2.3.0                                 |
|   \\  /    A nd           | Web:      www.OpenFOAM.org                      |
|    \\/     M anipulation  |                                                 |
\*---------------------------------------------------------------------------*/
FoamFile
{
    version     2.0;
    format      ascii;
    class       volScalarField;
    location    "0.018";
    object      p_rgh;
}
// * * * * * * * * * * * * * * * * * * * * * * * * * * * * * * * * * * * * * //

dimensions      [1 -1 -2 0 0 0 0];

internalField   nonuniform List<scalar> 
545
(
-8.79818e+07
-1.57858e+07
-1.67589e+06
-2.34779e+06
-8.96977e+06
6.41953e+07
-2.79428e+06
-2.06775e+06
-2.23904e+06
-7.19782e+06
1.1124e+08
4.50523e+06
113740
54974.3
-7.5821e+06
6.47525e+07
-2.99549e+06
-1.55061e+06
353329
-6.72386e+06
-1.01313e+08
-2.07174e+06
8241.53
5.17552e+06
1.34144e+07
-7.28541e+06
-1.53823e+06
-358311
390997
507280
512064
497361
483106
478211
469034
467014
457816
453397
440899
432883
417960
408071
392532
381554
365405
353216
336225
322797
305202
291073
273295
258905
241491
227515
211522
199230
184602
173327
158927
147389
132182
120168
104216
91918.8
75433
63192.5
47312.5
37282.3
23806.2
15081.2
-6.36378e+06
-777218
-314327
261796
392041
454152
469550
474831
472740
469755
464761
459468
451395
442367
430839
419242
406194
393678
379856
366415
351698
337061
321304
305807
289674
273803
257604
242013
226349
212126
198250
185386
172406
159781
146332
133002
118986
105187
90676.6
76423.5
61804.4
48406.6
35505.2
23350.8
7326.98
-7.54848e+06
-135078
-2871.87
406290
432489
458689
468992
472559
473243
468530
465872
458549
452494
441400
431749
418288
407037
392853
380587
365637
352324
336271
321657
304840
289906
272965
257944
241429
226762
211709
198902
185105
173057
159356
146816
132303
119432
104509
91251.6
75689.2
62339.8
47631.4
35568.8
22042.7
11223.2
-8.01857e+06
1.14637e+06
625541
664353
515436
483861
473847
475840
472325
470261
464568
460254
451286
442902
430444
419677
405870
394145
379497
366721
351360
337093
320471
305227
288723
273412
257141
242189
226089
212623
198583
186115
172600
160208
146007
132889
118419
105264
90353.5
76612.2
61386.7
48388.8
34010.7
20651.2
3652.75
-1.52385e+06
4.07772e+06
1.70448e+06
878860
549749
491900
478455
474880
473507
469145
465889
459412
452706
441846
431502
418728
406822
393431
380282
365988
352186
336253
320828
303922
288922
272411
257680
241864
226548
212471
199624
185978
173484
159734
146577
131881
118841
104381
91107.1
75989.6
62178.7
47673.9
34167.4
19868.5
8730.33
-1.46942e+07
5.63631e+06
2.51929e+06
1.01567e+06
556961
490273
476419
477946
475420
473876
469453
464273
453129
443303
432154
423301
409894
396295
383440
369975
352742
337083
319693
306104
292108
279406
261422
244666
231757
217416
202923
187520
173129
160516
145836
132838
121574
110397
93944.5
80287.7
65224.9
51129.1
33438.7
20744.1
4621.72
-1.01328e+08
-2.08584e+06
-4173.49
5.16575e+06
1.34083e+07
6.47377e+07
-3.00976e+06
-1.56311e+06
343603
-6.73023e+06
1.11226e+08
4.49081e+06
101189
45047.1
-7.58903e+06
6.41812e+07
-2.80871e+06
-2.08034e+06
-2.24916e+06
-7.20528e+06
-8.79957e+07
-1.58001e+07
-1.6885e+06
-2.358e+06
-8.97755e+06
-1.52607e+06
4.07722e+06
1.70379e+06
879062
549604
492529
478695
475792
473989
470040
466191
459958
452723
442194
431444
418970
406726
393546
380047
365896
351786
335994
320323
303583
288501
272211
257501
241927
226650
212767
199964
186442
173846
159993
146609
131762
118638
104246
91131.6
76149.1
62345.4
47698.9
34132.7
19953.6
8912.09
-8.02211e+06
1.14483e+06
624502
664292
515584
484690
474792
477318
473710
471745
465524
461021
451596
443251
430582
419921
405915
394167
379211
366338
350720
336412
319611
304402
287921
272858
256848
242248
226403
213220
199370
186986
173338
160656
146091
132621
118007
104934
90365.8
76881.7
61740.1
48534.7
34067
20836.2
3955.57
-7.55288e+06
-137565
-4286.32
405965
432864
459751
470578
474542
475355
470491
467334
459464
452966
441688
431994
418531
407186
392805
380251
365014
351459
335226
320471
303605
288793
272123
257528
241487
227283
212612
200087
186329
174092
159950
146912
131914
118844
103996
91155.8
75971.6
62873.1
48069.7
35891.4
22242.8
11422.7
-6.36875e+06
-780339
-316091
261269
392530
455501
471585
477218
475297
472076
466523
460498
451889
442582
431062
419479
406373
393605
379455
365643
350647
335769
319859
304301
288319
272758
257074
242069
227008
213273
199732
186891
173655
160482
146417
132527
118266
104538
90442.7
76645.2
62466.2
49266.1
36233.6
23501.3
7265.55
-7.29067e+06
-1.54173e+06
-360289
390364
507805
513558
499625
485711
480961
471524
468908
458906
453872
441056
433050
418172
408239
392447
381115
364571
352066
334812
321217
303574
289596
272146
258299
241531
228231
212797
200862
186256
174680
159683
147464
131678
119396
103511
91586
75588.1
63938.6
48509.7
38322.5
23871
14670
)
;

boundaryField
{
    AirInlet
    {
        type            fixedFluxPressure;
        gradient        uniform 3.63631e+08;
        value           uniform -1.46906e+07;
    }
    WaterInlet
    {
        type            fixedFluxPressure;
        gradient        nonuniform List<scalar> 10(0 0 0 0 0 0 0 0 0 -0.0216989);
        value           nonuniform List<scalar> 10(-8.79818e+07 6.41953e+07 1.1124e+08 6.47525e+07 -1.01313e+08 -1.01328e+08 6.47377e+07 1.11226e+08 6.41812e+07 -8.79957e+07);
    }
    ChannelWall
    {
        type            fixedFluxPressure;
        gradient        uniform 0;
        value           nonuniform List<scalar> 
110
(
-1.01313e+08
-2.07174e+06
8241.53
5.17552e+06
1.34144e+07
-1.01328e+08
-2.08584e+06
-4173.49
5.16575e+06
1.34083e+07
-8.79957e+07
-1.58001e+07
-1.6885e+06
-2.358e+06
-8.97755e+06
-7.29067e+06
-1.54173e+06
-360289
390364
507805
513558
499625
485711
480961
471524
468908
458906
453872
441056
433050
418172
408239
392447
381115
364571
352066
334812
321217
303574
289596
272146
258299
241531
228231
212797
200862
186256
174680
159683
147464
131678
119396
103511
91586
75588.1
63938.6
48509.7
38322.5
23871
14670
-8.79818e+07
-1.57858e+07
-1.67589e+06
-2.34779e+06
-8.96977e+06
-7.28541e+06
-1.53823e+06
-358311
390997
507280
512064
497361
483106
478211
469034
467014
457816
453397
440899
432883
417960
408071
392532
381554
365405
353216
336225
322797
305202
291073
273295
258905
241491
227515
211522
199230
184602
173327
158927
147389
132182
120168
104216
91918.8
75433
63192.5
47312.5
37282.3
23806.2
15081.2
)
;
    }
    Outlet
    {
        type            totalPressure;
        rho             rho;
        psi             none;
        gamma           1;
        p0              uniform 0;
        value           uniform 0;
    }
    FrontAndBack
    {
        type            empty;
    }
}


// ************************************************************************* //
