/*--------------------------------*- C++ -*----------------------------------*\
| =========                 |                                                 |
| \\      /  F ield         | OpenFOAM: The Open Source CFD Toolbox           |
|  \\    /   O peration     | Version:  2.3.0                                 |
|   \\  /    A nd           | Web:      www.OpenFOAM.org                      |
|    \\/     M anipulation  |                                                 |
\*---------------------------------------------------------------------------*/
FoamFile
{
    version     2.0;
    format      ascii;
    class       surfaceScalarField;
    location    "0.01";
    object      phi;
}
// * * * * * * * * * * * * * * * * * * * * * * * * * * * * * * * * * * * * * //

dimensions      [0 3 -1 0 0 0 0];

internalField   nonuniform List<scalar> 
1024
(
1.34123e-12
6.58769e-13
1.10937e-12
2.31863e-13
1.0477e-12
6.16713e-14
7.85318e-13
2.62379e-13
1.31508e-12
-5.29765e-13
2.4067e-12
2.52073e-13
2.49601e-12
1.42545e-13
2.56054e-12
-2.85846e-15
2.58609e-12
2.36829e-13
4.11419e-13
3.48976e-12
2.6623e-12
-4.10228e-13
2.92842e-12
-1.23571e-13
3.05116e-12
-1.256e-13
3.43249e-12
-1.44505e-13
-3.42026e-14
3.87811e-12
2.34264e-12
-7.52865e-13
2.42665e-12
-2.07585e-13
2.40335e-12
-1.02303e-13
2.64167e-12
-3.82822e-13
-6.05742e-13
3.21321e-12
1.24714e-12
1.03955e-12
9.37248e-13
5.54426e-13
-5.13162e-14
4.79759e-12
-5.32736e-12
1.9472e-12
2.85039e-12
4.8511e-12
-2.9039e-12
3.02699e-12
1.82411e-12
1.19111e-12
1.83589e-12
6.3606e-13
5.55046e-13
4.73101e-13
1.62959e-13
4.57957e-13
1.5144e-14
4.6529e-13
-7.3326e-15
4.78323e-13
-1.30327e-14
4.73535e-13
4.78835e-15
4.90698e-13
-1.71638e-14
5.00191e-13
-9.49288e-15
5.05e-13
-4.80806e-15
5.02549e-13
2.45053e-15
5.01684e-13
8.64216e-16
4.93783e-13
7.90283e-15
4.7205e-13
2.17323e-14
6.11008e-13
-1.38958e-13
5.20747e-13
9.02615e-14
4.35347e-13
8.54001e-14
3.54931e-13
8.04161e-14
3.60671e-13
-5.73998e-15
5.5888e-13
-1.9821e-13
8.38217e-13
-2.79337e-13
1.06719e-12
-2.28969e-13
1.16856e-12
-1.01375e-13
9.72252e-13
1.9631e-13
7.35613e-13
2.36639e-13
5.48918e-13
1.86696e-13
4.40926e-13
1.07992e-13
5.13677e-13
-7.27508e-14
4.79381e-13
3.4295e-14
4.35343e-13
4.40375e-14
5.04826e-13
-6.94823e-14
5.11705e-13
-6.87927e-15
4.79361e-13
3.23442e-14
4.65572e-13
1.37885e-14
4.6797e-13
-2.39848e-15
5.05054e-13
-3.70838e-14
4.90895e-13
1.41588e-14
4.87201e-13
3.69399e-15
5.15093e-13
-2.78917e-14
5.40915e-13
-2.5822e-14
-3.18029e-14
6.51225e-12
-8.34985e-12
4.68413e-12
4.67851e-12
3.66556e-12
-1.88533e-12
1.88858e-12
3.60109e-12
1.74947e-12
1.975e-12
1.57827e-12
7.26243e-13
1.44444e-12
2.96792e-13
1.35346e-12
1.0612e-13
1.30239e-12
4.37434e-14
1.28726e-12
2.09424e-15
1.29463e-12
-2.58282e-15
1.30152e-12
-2.40498e-14
1.31155e-12
-1.95296e-14
1.31438e-12
-7.63245e-15
1.31267e-12
4.15518e-15
1.30379e-12
9.74702e-15
1.29163e-12
2.00638e-14
1.29441e-12
1.89561e-14
1.24873e-12
-9.32804e-14
1.24649e-12
9.25043e-14
1.17879e-12
1.53096e-13
1.12262e-12
1.36589e-13
1.22655e-12
-1.09674e-13
1.63036e-12
-6.02022e-13
1.94979e-12
-5.98759e-13
2.4538e-12
-7.32985e-13
2.69595e-12
-3.43527e-13
2.3874e-12
5.04861e-13
1.87454e-12
7.49501e-13
1.45532e-12
6.05915e-13
1.26033e-12
3.02985e-13
1.18598e-12
1.59264e-15
1.22758e-12
-7.29792e-15
1.27367e-12
-2.05278e-15
1.28059e-12
-7.64004e-14
1.30983e-12
-3.61195e-14
1.25773e-12
8.44362e-14
1.25561e-12
1.59088e-14
1.28086e-12
-2.76483e-14
1.25195e-12
-8.17115e-15
1.27954e-12
-1.3428e-14
1.32202e-12
-3.87909e-14
1.34673e-12
-5.26004e-14
1.41476e-12
-9.38515e-14
-1.30357e-14
5.79281e-12
-1.02645e-11
1.76876e-12
8.70257e-12
-2.2032e-12
2.08662e-12
-2.16099e-13
1.61399e-12
1.66804e-12
9.08567e-14
2.25287e-12
1.41419e-13
2.2765e-12
2.7316e-13
2.13196e-12
2.50659e-13
2.01502e-12
1.60679e-13
1.95114e-12
6.59748e-14
1.93869e-12
9.87378e-15
1.93991e-12
-2.52689e-14
1.94397e-12
-2.35878e-14
1.94386e-12
-7.52347e-15
1.93855e-12
9.45861e-15
1.92889e-12
1.94141e-14
1.91706e-12
3.18915e-14
1.90821e-12
2.7804e-14
1.84733e-12
-3.24048e-14
1.82713e-12
1.12706e-13
1.7797e-12
2.00528e-13
1.75345e-12
1.62837e-13
1.83119e-12
-1.87409e-13
2.24933e-12
-1.02016e-12
2.62452e-12
-9.73957e-13
3.12757e-12
-1.23603e-12
3.45323e-12
-6.69186e-13
3.18391e-12
7.7418e-13
2.59285e-12
1.34057e-12
2.12116e-12
1.0776e-12
1.86534e-12
5.58798e-13
1.79437e-12
7.257e-14
1.82555e-12
-3.84804e-14
1.87821e-12
-5.47166e-14
1.86746e-12
-6.56454e-14
1.90848e-12
-7.71428e-14
1.88885e-12
1.04064e-13
1.89544e-12
9.31721e-15
1.93194e-12
-6.41492e-14
1.90405e-12
1.97252e-14
1.93957e-12
-4.89533e-14
1.95949e-12
-5.87114e-14
1.98796e-12
-8.10646e-14
1.98849e-12
-9.43867e-14
-1.25255e-14
1.39929e-12
-8.45063e-12
6.24687e-14
1.00394e-11
-1.10547e-12
3.25456e-12
-1.06731e-13
6.15248e-13
1.84251e-12
-1.85839e-12
2.6632e-12
-6.79273e-13
2.79046e-12
1.45906e-13
2.66509e-12
3.76024e-13
2.52213e-12
3.03643e-13
2.43682e-12
1.51285e-13
2.4085e-12
3.81899e-14
2.40076e-12
-1.75282e-14
2.40013e-12
-2.29533e-14
2.39856e-12
-5.95176e-15
2.39464e-12
1.33774e-14
2.3871e-12
2.69564e-14
2.37607e-12
4.29134e-14
2.36009e-12
4.37892e-14
2.30883e-12
1.88501e-14
2.27363e-12
1.47908e-13
2.22327e-12
2.50887e-13
2.15811e-12
2.28e-13
2.16695e-12
-1.96252e-13
2.58957e-12
-1.44278e-12
2.9868e-12
-1.37118e-12
3.51563e-12
-1.76486e-12
3.78946e-12
-9.43014e-13
3.46161e-12
1.10203e-12
2.94675e-12
1.85542e-12
2.56233e-12
1.46202e-12
2.38571e-12
7.35421e-13
2.2742e-12
1.84083e-13
2.2886e-12
-5.28781e-14
2.33481e-12
-1.00933e-13
2.3671e-12
-9.79293e-14
2.35165e-12
-6.16959e-14
2.35437e-12
1.01339e-13
2.37165e-12
-7.96087e-15
2.42132e-12
-1.13823e-13
2.43131e-12
9.73994e-15
2.41577e-12
-3.34111e-14
2.42697e-12
-6.9912e-14
2.44656e-12
-1.0066e-13
2.41898e-12
-6.68039e-14
-1.95446e-14
-5.61715e-12
-2.88479e-12
-1.9658e-13
4.61882e-12
1.95455e-12
1.10343e-12
1.54023e-12
1.02956e-12
2.25143e-12
-2.56958e-12
2.85257e-12
-1.28041e-12
2.97266e-12
2.58186e-14
2.89495e-12
4.53731e-13
2.78669e-12
4.11904e-13
2.72145e-12
2.16524e-13
2.69633e-12
6.33125e-14
2.68511e-12
-6.31407e-15
2.67997e-12
-1.7811e-14
2.6765e-12
-2.4828e-15
2.67356e-12
1.63159e-14
2.66989e-12
3.06255e-14
2.66678e-12
4.60247e-14
2.65478e-12
5.57903e-14
2.6089e-12
6.47316e-14
2.57343e-12
1.83378e-13
2.51114e-12
3.13174e-13
2.39378e-12
3.45358e-13
2.27171e-12
-7.41748e-14
2.70519e-12
-1.87627e-12
3.09452e-12
-1.76051e-12
3.49881e-12
-2.16915e-12
3.30445e-12
-7.48656e-13
3.1386e-12
1.26788e-12
2.96689e-12
2.02713e-12
2.77188e-12
1.65703e-12
2.66515e-12
8.42152e-13
2.61813e-12
2.31107e-13
2.61603e-12
-5.07828e-14
2.64219e-12
-1.27093e-13
2.66382e-12
-1.19559e-13
2.66114e-12
-5.90137e-14
2.69764e-12
6.48374e-14
2.69505e-12
-5.37087e-15
2.67288e-12
-9.16472e-14
2.70447e-12
-2.18511e-14
2.70384e-12
-3.27873e-14
2.69939e-12
-6.54597e-14
2.67969e-12
-8.09563e-14
2.67076e-12
-5.78712e-14
-1.5271e-14
-1.01192e-12
-1.07286e-12
1.2145e-12
2.39239e-12
-3.44565e-13
2.6625e-12
2.16926e-12
-1.48426e-12
2.94572e-12
-3.34605e-12
3.16949e-12
-1.50418e-12
3.19175e-12
3.55455e-15
3.15182e-12
4.93665e-13
3.13023e-12
4.33494e-13
3.12465e-12
2.22104e-13
3.11799e-12
6.99708e-14
3.10688e-12
4.79653e-15
3.09587e-12
-6.79701e-15
3.08947e-12
3.91174e-15
3.08748e-12
1.83057e-14
3.0883e-12
2.98038e-14
3.09112e-12
4.32065e-14
3.08683e-12
6.00833e-14
3.05866e-12
9.29015e-14
3.02928e-12
2.12753e-13
2.95787e-12
3.84587e-13
2.75588e-12
5.47354e-13
2.37025e-12
3.11454e-13
2.72979e-12
-2.23581e-12
3.58632e-12
-2.61703e-12
2.71409e-12
-1.29693e-12
1.62925e-12
3.36183e-13
2.49422e-12
4.02909e-13
2.78823e-12
1.73312e-12
3.00097e-12
1.44429e-12
3.07771e-12
7.65416e-13
3.08128e-12
2.27537e-13
3.08582e-12
-5.53231e-14
3.09488e-12
-1.3615e-13
3.09943e-12
-1.24113e-13
3.10136e-12
-6.09458e-14
3.13333e-12
3.28715e-14
3.13215e-12
-4.18998e-15
3.10553e-12
-6.50267e-14
3.11561e-12
-3.19361e-14
3.11416e-12
-3.13351e-14
3.10361e-12
-5.4911e-14
3.08168e-12
-5.90203e-14
3.06174e-12
-3.79354e-14
4.36829e-15
1.2445e-12
7.55501e-13
1.02577e-12
2.18732e-13
8.93998e-13
1.3177e-13
8.005e-13
9.34975e-14
-3.81757e-12
4.61807e-12
2.34024e-12
4.15258e-13
2.41622e-12
1.42756e-13
2.35232e-12
1.95664e-13
2.26002e-12
1.85807e-13
6.09103e-13
-2.16666e-12
2.66235e-12
-2.47095e-13
2.93001e-12
-1.24903e-13
3.02619e-12
9.94878e-14
3.20127e-12
1.07271e-14
1.82154e-12
1.98883e-12
2.40879e-12
-6.5589e-13
2.50773e-12
-2.23836e-13
2.61898e-12
-1.17623e-14
2.83949e-12
-2.09784e-13
-7.68259e-13
5.42929e-12
1.34411e-12
1.12027e-12
1.10851e-12
8.98727e-13
1.30468e-13
-4.13104e-12
7.67625e-12
2.26395e-13
-1.96504e-12
9.30871e-13
1.95802e-12
2.76264e-12
-3.31603e-12
2.70181e-12
-3.28522e-12
2.49688e-12
-1.29925e-12
2.49453e-12
5.90495e-15
2.55906e-12
4.29137e-13
2.63533e-12
3.57226e-13
2.68535e-12
1.7208e-13
2.70103e-12
5.42859e-14
2.69417e-12
1.16605e-14
2.6848e-12
2.56948e-15
2.68017e-12
8.55024e-15
2.68109e-12
1.73766e-14
2.68583e-12
2.5071e-14
2.6934e-12
3.5636e-14
2.69911e-12
5.43703e-14
2.69414e-12
9.78692e-14
2.68957e-12
2.17326e-13
2.64666e-12
4.27499e-13
2.432e-12
7.6201e-13
1.83689e-12
9.06568e-13
2.24947e-12
-2.64839e-12
1.75029e-12
-2.11785e-12
1.65985e-12
-1.20649e-12
7.30254e-13
1.26578e-12
1.48529e-12
-3.52128e-13
1.95967e-12
1.25874e-12
2.44124e-12
9.62721e-13
2.65277e-12
5.53881e-13
2.71734e-12
1.62974e-13
2.72493e-12
-6.29122e-14
2.71644e-12
-1.27665e-13
2.70373e-12
-1.11406e-13
2.6988e-12
-5.60094e-14
2.71747e-12
1.4198e-14
2.71851e-12
-5.23074e-15
2.69977e-12
-4.62798e-14
2.6969e-12
-2.90701e-14
2.6932e-12
-2.7636e-14
2.68086e-12
-4.25705e-14
2.66102e-12
-3.91774e-14
2.63963e-12
-1.65531e-14
2.66059e-14
-4.95136e-12
1.04609e-11
-2.69594e-12
-4.22046e-12
2.37242e-12
-3.11034e-12
3.21147e-12
-4.15507e-12
2.50621e-12
-2.57995e-12
2.04599e-12
-8.39035e-13
2.05016e-12
1.7326e-15
2.19876e-12
2.80544e-13
2.31829e-12
2.37689e-13
2.39042e-12
9.99493e-14
2.41461e-12
3.01036e-14
2.41138e-12
1.48885e-14
2.40589e-12
8.05425e-15
2.40475e-12
9.68738e-15
2.4089e-12
1.32362e-14
2.41671e-12
1.72569e-14
2.42809e-12
2.42573e-14
2.44142e-12
4.10399e-14
2.45562e-12
8.36708e-14
2.48292e-12
1.90026e-13
2.49924e-12
4.11171e-13
2.35557e-12
9.05682e-13
1.69481e-12
1.56733e-12
1.24532e-12
-2.1989e-12
4.54711e-12
-5.41964e-12
1.51487e-12
1.82575e-12
2.67323e-13
2.51333e-12
8.77163e-13
-9.61969e-13
1.56647e-12
5.69429e-13
2.14723e-12
3.81969e-13
2.40725e-12
2.93854e-13
2.50035e-12
6.98739e-14
2.50307e-12
-6.56294e-14
2.4749e-12
-9.94918e-14
2.44715e-12
-8.36623e-14
2.43287e-12
-4.17255e-14
2.44135e-12
5.71483e-15
2.44094e-12
-4.81874e-15
2.42486e-12
-3.0202e-14
2.41701e-12
-2.122e-14
2.40929e-12
-1.99123e-14
2.39629e-12
-2.95674e-14
2.37864e-12
-2.15335e-14
2.3593e-12
2.79456e-15
4.8563e-14
4.93358e-12
7.5162e-12
3.05228e-12
-2.33917e-12
4.96597e-12
-5.02403e-12
3.65485e-12
-2.84395e-12
2.13217e-12
-1.05728e-12
1.58743e-12
-2.94293e-13
1.59637e-12
-7.21267e-15
1.74656e-12
1.3036e-13
1.86631e-12
1.17934e-13
1.92468e-12
4.15835e-14
1.94486e-12
9.92219e-15
1.9487e-12
1.10508e-14
1.94909e-12
7.65757e-15
1.95195e-12
6.8308e-15
1.95767e-12
7.51468e-15
1.96649e-12
8.43469e-15
1.97888e-12
1.18704e-14
1.99751e-12
2.24158e-14
2.02851e-12
5.26688e-14
2.09078e-12
1.27757e-13
2.19887e-12
3.03074e-13
2.29366e-12
8.10893e-13
2.03315e-12
1.82784e-12
2.20213e-12
-2.36788e-12
7.49617e-13
-3.96712e-12
7.48756e-13
1.82661e-12
3.32882e-13
2.9292e-12
5.2452e-13
-1.15361e-12
1.49187e-12
-3.97924e-13
1.82848e-12
4.53599e-14
2.02906e-12
9.32746e-14
2.09334e-12
5.59487e-15
2.07379e-12
-4.60789e-14
2.03278e-12
-5.84822e-14
1.99663e-12
-4.7515e-14
1.97835e-12
-2.34439e-14
1.98119e-12
2.88171e-15
1.97926e-12
-2.8871e-15
1.96589e-12
-1.68381e-14
1.95624e-12
-1.1564e-14
1.94768e-12
-1.13565e-14
1.936e-12
-1.78894e-14
1.92201e-12
-7.54493e-15
1.91175e-12
1.30588e-14
6.67847e-14
6.9623e-12
5.98319e-12
5.87694e-12
-1.25381e-12
3.79953e-12
-2.94662e-12
2.14268e-12
-1.1871e-12
1.13881e-12
-5.3407e-14
1.04693e-12
-2.02408e-13
1.07939e-12
-3.96786e-14
1.17423e-12
3.55262e-14
1.26201e-12
3.0148e-14
1.29957e-12
4.02981e-15
1.31159e-12
-2.10182e-15
1.31639e-12
6.25643e-15
1.3211e-12
2.94632e-15
1.32588e-12
2.04609e-15
1.3314e-12
1.99709e-15
1.33771e-12
2.12381e-15
1.34641e-12
3.17156e-15
1.36199e-12
6.83856e-15
1.39601e-12
1.86427e-14
1.4743e-12
4.94699e-14
1.64924e-12
1.28133e-13
2.05991e-12
4.00226e-13
2.79752e-12
1.09023e-12
1.7686e-12
-1.33897e-12
-5.46354e-13
-1.65217e-12
2.87696e-13
9.92558e-13
1.84575e-12
1.37115e-12
9.00178e-13
-2.08034e-13
1.47761e-12
-9.75353e-13
1.36176e-12
1.61209e-13
1.44129e-12
1.3746e-14
1.45666e-12
-9.77542e-15
1.42536e-12
-1.47859e-14
1.38557e-12
-1.86928e-14
1.35348e-12
-1.54223e-14
1.3379e-12
-7.85833e-15
1.33932e-12
1.45741e-15
1.33728e-12
-8.43792e-16
1.32627e-12
-5.82722e-15
1.31814e-12
-3.43115e-15
1.31015e-12
-3.36799e-15
1.29953e-12
-7.27197e-15
1.2907e-12
1.27919e-15
1.29981e-12
3.95157e-15
7.40846e-14
6.11366e-12
4.85985e-12
1.91323e-12
7.26126e-13
6.72719e-13
4.70311e-13
4.30633e-13
4.66159e-13
4.96307e-13
5.00336e-13
4.98234e-13
5.0449e-13
5.07437e-13
5.09483e-13
5.1148e-13
5.13604e-13
5.16776e-13
5.23614e-13
5.42257e-13
5.91727e-13
7.1986e-13
1.12009e-12
2.21032e-12
8.71347e-13
-7.80822e-13
2.11736e-13
1.58288e-12
1.37485e-12
3.99495e-13
5.60704e-13
5.7445e-13
5.64675e-13
5.49889e-13
5.31196e-13
5.15774e-13
5.07916e-13
5.09374e-13
5.0853e-13
5.02703e-13
4.99272e-13
4.95903e-13
4.88631e-13
4.8991e-13
4.93862e-13
)
;

boundaryField
{
    AirInlet
    {
        type            calculated;
        value           uniform -8e-13;
    }
    WaterInlet
    {
        type            calculated;
        value           nonuniform List<scalar> 10(-2e-12 -2e-12 -2e-12 -2e-12 -2e-12 -2e-12 -2e-12 -2e-12 -2e-12 -2e-12);
    }
    ChannelWall
    {
        type            calculated;
        value           uniform 0;
    }
    Outlet
    {
        type            calculated;
        value           nonuniform List<scalar> 
11
(
5.72718e-13
1.39599e-12
1.98798e-12
2.426e-12
2.66648e-12
3.0421e-12
2.6174e-12
2.33734e-12
1.89353e-12
1.29251e-12
5.67947e-13
)
;
    }
    FrontAndBack
    {
        type            empty;
        value           nonuniform 0();
    }
}


// ************************************************************************* //
