/*--------------------------------*- C++ -*----------------------------------*\
| =========                 |                                                 |
| \\      /  F ield         | OpenFOAM: The Open Source CFD Toolbox           |
|  \\    /   O peration     | Version:  2.3.0                                 |
|   \\  /    A nd           | Web:      www.OpenFOAM.org                      |
|    \\/     M anipulation  |                                                 |
\*---------------------------------------------------------------------------*/
FoamFile
{
    version     2.0;
    format      ascii;
    class       volVectorField;
    location    "61";
    object      U.air;
}
// * * * * * * * * * * * * * * * * * * * * * * * * * * * * * * * * * * * * * //

dimensions      [0 1 -1 0 0 0 0];

internalField   nonuniform List<vector> 
1875
(
(0.00768882 0.115319 0)
(0.0230874 0.109311 0)
(0.0678431 0.106406 0)
(0.110678 0.107205 0)
(0.150197 0.111441 0)
(0.185127 0.11761 0)
(0.214354 0.124413 0)
(0.237662 0.130549 0)
(0.255095 0.135973 0)
(0.266575 0.141842 0)
(0.272309 0.146467 0)
(0.272446 0.151671 0)
(0.26721 0.156499 0)
(0.255916 0.159694 0)
(0.237584 0.161765 0)
(0.212442 0.163875 0)
(0.18305 0.16765 0)
(0.151349 0.173186 0)
(0.120096 0.175017 0)
(0.0926578 0.173195 0)
(0.0716038 0.169032 0)
(0.0562083 0.163632 0)
(0.044651 0.156083 0)
(0.0184664 0.15335 0)
(0.00841472 0.152523 0)
(0.0241659 0.216313 0)
(0.0483329 0.211626 0)
(0.0913018 0.21093 0)
(0.124383 0.214946 0)
(0.154018 0.221205 0)
(0.180262 0.228865 0)
(0.202936 0.237542 0)
(0.221659 0.247395 0)
(0.236125 0.258185 0)
(0.246435 0.269339 0)
(0.251942 0.282102 0)
(0.251013 0.295545 0)
(0.244923 0.310034 0)
(0.234896 0.325762 0)
(0.220382 0.341901 0)
(0.20155 0.357242 0)
(0.177938 0.369138 0)
(0.155698 0.375345 0)
(0.130258 0.378219 0)
(0.103926 0.377573 0)
(0.0787101 0.374072 0)
(0.0561005 0.370506 0)
(0.0330124 0.371943 0)
(0.0115071 0.37371 0)
(0.00374911 0.372832 0)
(0.0221851 0.0912576 0)
(0.0573945 0.0987962 0)
(0.0957123 0.109388 0)
(0.122413 0.122129 0)
(0.143903 0.136546 0)
(0.161653 0.152272 0)
(0.176041 0.168906 0)
(0.187093 0.186221 0)
(0.194741 0.204077 0)
(0.198987 0.222229 0)
(0.199834 0.241104 0)
(0.200192 0.260728 0)
(0.19643 0.281998 0)
(0.187256 0.304276 0)
(0.174995 0.32705 0)
(0.160008 0.349034 0)
(0.141225 0.367811 0)
(0.118378 0.378849 0)
(0.0959593 0.384354 0)
(0.0739206 0.383732 0)
(0.0529011 0.3781 0)
(0.0350143 0.371601 0)
(0.022302 0.370522 0)
(0.00975152 0.367943 0)
(0.0048114 0.362752 0)
(0.0204646 0.0585146 0)
(0.0575645 0.0713045 0)
(0.0772166 0.0863563 0)
(0.0931811 0.102987 0)
(0.107513 0.121513 0)
(0.119034 0.141757 0)
(0.126975 0.163314 0)
(0.13141 0.185728 0)
(0.132801 0.208769 0)
(0.131473 0.232436 0)
(0.127718 0.256827 0)
(0.120564 0.282157 0)
(0.111859 0.307559 0)
(0.102027 0.334108 0)
(0.0909929 0.361173 0)
(0.0788832 0.387262 0)
(0.0654484 0.409434 0)
(0.0509552 0.425944 0)
(0.0387392 0.433511 0)
(0.0278867 0.431879 0)
(0.0184623 0.422812 0)
(0.0111137 0.411401 0)
(0.00625899 0.400742 0)
(0.00118573 0.393208 0)
(0.00078696 0.385553 0)
(0.0162266 0.0291851 0)
(0.0419179 0.0406005 0)
(0.0428141 0.0566187 0)
(0.0499443 0.0752556 0)
(0.0586976 0.0966377 0)
(0.0639494 0.120172 0)
(0.0654156 0.145171 0)
(0.0638634 0.171227 0)
(0.0598749 0.19792 0)
(0.0537628 0.225083 0)
(0.0458058 0.252739 0)
(0.0359833 0.281018 0)
(0.0247106 0.310405 0)
(0.012322 0.340608 0)
(-0.00069679 0.370738 0)
(-0.0128797 0.398968 0)
(-0.02198 0.422467 0)
(-0.0268897 0.438054 0)
(-0.0280683 0.442845 0)
(-0.0262207 0.437753 0)
(-0.0219147 0.42588 0)
(-0.0168416 0.411744 0)
(-0.0115431 0.399545 0)
(-0.00495181 0.391417 0)
(-0.00174615 0.384524 0)
(0.0143675 0.0163703 0)
(0.0253661 0.0285295 0)
(0.00989569 0.0461732 0)
(0.0107114 0.0669259 0)
(0.0120877 0.0910639 0)
(0.00850253 0.117604 0)
(0.00196327 0.145738 0)
(-0.00642571 0.174679 0)
(-0.0164766 0.203952 0)
(-0.0278856 0.233321 0)
(-0.0404556 0.262773 0)
(-0.0539282 0.292452 0)
(-0.0678276 0.322351 0)
(-0.0813675 0.352036 0)
(-0.0927379 0.380219 0)
(-0.0993809 0.40476 0)
(-0.099411 0.4229 0)
(-0.0935221 0.431963 0)
(-0.0834759 0.432073 0)
(-0.0696961 0.424154 0)
(-0.054172 0.410439 0)
(-0.039704 0.395794 0)
(-0.0265907 0.383714 0)
(-0.010393 0.375548 0)
(-0.00409717 0.369398 0)
(0.0103441 0.0198519 0)
(0.0107611 0.0327231 0)
(-0.0173922 0.0523428 0)
(-0.0236711 0.0749212 0)
(-0.0320702 0.100696 0)
(-0.0450921 0.128934 0)
(-0.0595452 0.158513 0)
(-0.0750417 0.188303 0)
(-0.0913684 0.217702 0)
(-0.108086 0.246612 0)
(-0.124548 0.275188 0)
(-0.139796 0.302986 0)
(-0.15262 0.329751 0)
(-0.161355 0.354554 0)
(-0.164241 0.376353 0)
(-0.160406 0.393416 0)
(-0.149916 0.403511 0)
(-0.134137 0.405734 0)
(-0.1144 0.400874 0)
(-0.0920728 0.39043 0)
(-0.0700832 0.377013 0)
(-0.0506362 0.364021 0)
(-0.0330796 0.353709 0)
(-0.0123998 0.345589 0)
(-0.00501553 0.340348 0)
(0.00614116 0.0424478 0)
(-0.000954037 0.0568229 0)
(-0.0396818 0.0779877 0)
(-0.0534158 0.101127 0)
(-0.0716362 0.127882 0)
(-0.0922894 0.156781 0)
(-0.113342 0.186003 0)
(-0.134955 0.214326 0)
(-0.155778 0.241177 0)
(-0.174157 0.266188 0)
(-0.189108 0.288063 0)
(-0.19983 0.309417 0)
(-0.205324 0.32862 0)
(-0.204687 0.346234 0)
(-0.197652 0.359023 0)
(-0.184346 0.366676 0)
(-0.165737 0.368843 0)
(-0.142996 0.365693 0)
(-0.117817 0.358208 0)
(-0.0924166 0.347903 0)
(-0.0691479 0.33687 0)
(-0.0489134 0.327291 0)
(-0.0306472 0.320574 0)
(-0.0106172 0.31707 0)
(-0.00417494 0.315207 0)
(0.000848365 0.0809264 0)
(-0.0112768 0.0962415 0)
(-0.055987 0.118089 0)
(-0.0767951 0.141527 0)
(-0.101597 0.16848 0)
(-0.125961 0.196307 0)
(-0.149399 0.222575 0)
(-0.170969 0.246052 0)
(-0.189288 0.265919 0)
(-0.203923 0.281183 0)
(-0.213483 0.296896 0)
(-0.217579 0.310589 0)
(-0.215465 0.321261 0)
(-0.208245 0.327322 0)
(-0.194802 0.330715 0)
(-0.175821 0.330315 0)
(-0.152979 0.326915 0)
(-0.127859 0.320929 0)
(-0.102463 0.313231 0)
(-0.0786662 0.305001 0)
(-0.0576729 0.297623 0)
(-0.0395695 0.29234 0)
(-0.0235073 0.290093 0)
(-0.007314 0.291334 0)
(-0.00279261 0.293457 0)
(-0.00316711 0.130495 0)
(-0.01824 0.147135 0)
(-0.0661177 0.168993 0)
(-0.0902678 0.192158 0)
(-0.116262 0.218105 0)
(-0.1395 0.24288 0)
(-0.160365 0.264149 0)
(-0.177717 0.281138 0)
(-0.191229 0.294641 0)
(-0.200698 0.307305 0)
(-0.20486 0.312816 0)
(-0.205701 0.311338 0)
(-0.200252 0.30756 0)
(-0.187042 0.302545 0)
(-0.169726 0.296975 0)
(-0.148952 0.291398 0)
(-0.126022 0.285002 0)
(-0.102701 0.278409 0)
(-0.0804538 0.272218 0)
(-0.0603885 0.267175 0)
(-0.0429517 0.264025 0)
(-0.0280711 0.263421 0)
(-0.015421 0.265999 0)
(-0.00388593 0.272306 0)
(-0.00143079 0.27909 0)
(-0.00507825 0.183958 0)
(-0.02144 0.201636 0)
(-0.0686512 0.22351 0)
(-0.0913083 0.245653 0)
(-0.113691 0.269098 0)
(-0.132899 0.288999 0)
(-0.149766 0.303352 0)
(-0.163823 0.311248 0)
(-0.175205 0.312994 0)
(-0.182207 0.308873 0)
(-0.184327 0.30194 0)
(-0.17887 0.293173 0)
(-0.168678 0.28324 0)
(-0.155043 0.273979 0)
(-0.138088 0.264509 0)
(-0.119131 0.255629 0)
(-0.0993409 0.247987 0)
(-0.0799432 0.241939 0)
(-0.0618158 0.237819 0)
(-0.0455205 0.235993 0)
(-0.0312761 0.236818 0)
(-0.0192156 0.240702 0)
(-0.00954305 0.248149 0)
(-0.00158943 0.259633 0)
(-0.000324296 0.27123 0)
(-0.00619481 0.234163 0)
(-0.0205649 0.252167 0)
(-0.0614757 0.27424 0)
(-0.0809677 0.294702 0)
(-0.0994063 0.314054 0)
(-0.114874 0.328388 0)
(-0.128428 0.335768 0)
(-0.139886 0.335722 0)
(-0.14877 0.328648 0)
(-0.15347 0.315268 0)
(-0.153027 0.29844 0)
(-0.147594 0.282008 0)
(-0.138451 0.265649 0)
(-0.126362 0.250296 0)
(-0.112154 0.237031 0)
(-0.0968943 0.226179 0)
(-0.0813495 0.2179 0)
(-0.0661272 0.212335 0)
(-0.0516498 0.209648 0)
(-0.0382171 0.210051 0)
(-0.026059 0.213827 0)
(-0.0154982 0.221365 0)
(-0.00676101 0.233148 0)
(0.000536169 0.249747 0)
(0.00137828 0.266457 0)
(-0.00625595 0.278453 0)
(-0.016353 0.297789 0)
(-0.0484698 0.318512 0)
(-0.0647291 0.335957 0)
(-0.0803388 0.351056 0)
(-0.0930773 0.360152 0)
(-0.104208 0.361467 0)
(-0.113811 0.3544 0)
(-0.120897 0.339474 0)
(-0.123924 0.318801 0)
(-0.122981 0.295409 0)
(-0.118817 0.272086 0)
(-0.112042 0.250569 0)
(-0.103346 0.23179 0)
(-0.0934159 0.21613 0)
(-0.082822 0.203706 0)
(-0.0719349 0.194505 0)
(-0.0609223 0.188524 0)
(-0.0498278 0.185871 0)
(-0.0387344 0.186789 0)
(-0.0278809 0.191683 0)
(-0.0175191 0.201124 0)
(-0.00763092 0.21596 0)
(0.00152537 0.237366 0)
(0.00214866 0.260873 0)
(-0.00482477 0.315367 0)
(-0.0112735 0.334944 0)
(-0.0357816 0.354077 0)
(-0.048131 0.368871 0)
(-0.0603922 0.380461 0)
(-0.0703245 0.385431 0)
(-0.079132 0.382068 0)
(-0.087121 0.3698 0)
(-0.0928193 0.34883 0)
(-0.0951592 0.322376 0)
(-0.0952006 0.293978 0)
(-0.0933918 0.266555 0)
(-0.0900961 0.241782 0)
(-0.085758 0.220395 0)
(-0.0806245 0.202599 0)
(-0.0747951 0.188355 0)
(-0.0682967 0.177562 0)
(-0.0611258 0.17019 0)
(-0.0532034 0.166309 0)
(-0.0445421 0.166213 0)
(-0.0352521 0.170425 0)
(-0.0253609 0.179875 0)
(-0.0144163 0.195768 0)
(-0.00397294 0.220351 0)
(-0.00227965 0.247641 0)
(-0.00287555 0.342465 0)
(-0.00634167 0.36147 0)
(-0.0229736 0.379315 0)
(-0.0312277 0.392251 0)
(-0.0397172 0.401437 0)
(-0.0467185 0.403857 0)
(-0.0531236 0.397706 0)
(-0.0594035 0.382105 0)
(-0.0642035 0.357354 0)
(-0.0669793 0.327345 0)
(-0.0691072 0.295972 0)
(-0.0705465 0.266005 0)
(-0.0712359 0.238944 0)
(-0.0711207 0.215471 0)
(-0.070161 0.195736 0)
(-0.0682355 0.179646 0)
(-0.0652602 0.167068 0)
(-0.0612692 0.157824 0)
(-0.0563211 0.152064 0)
(-0.0503911 0.150256 0)
(-0.043309 0.152684 0)
(-0.0346288 0.160231 0)
(-0.0244512 0.174786 0)
(-0.0124566 0.197584 0)
(-0.00848378 0.222017 0)
(-0.000763832 0.355992 0)
(-0.00171775 0.374587 0)
(-0.0102009 0.394102 0)
(-0.014193 0.406758 0)
(-0.0185172 0.415037 0)
(-0.022319 0.416142 0)
(-0.0261925 0.408653 0)
(-0.0305475 0.391784 0)
(-0.0350281 0.365558 0)
(-0.0393403 0.334056 0)
(-0.0439289 0.301262 0)
(-0.0484067 0.269821 0)
(-0.0523922 0.241277 0)
(-0.055533 0.216257 0)
(-0.0576509 0.194886 0)
(-0.0586304 0.177097 0)
(-0.0584626 0.162793 0)
(-0.0572482 0.151965 0)
(-0.0551272 0.144377 0)
(-0.0519044 0.139974 0)
(-0.0476562 0.139038 0)
(-0.0421651 0.14343 0)
(-0.0357594 0.153424 0)
(-0.0205027 0.168897 0)
(-0.0118119 0.186117 0)
(0.000380466 0.362253 0)
(0.00226186 0.380967 0)
(0.00148394 0.398729 0)
(0.00204383 0.411424 0)
(0.00200785 0.41964 0)
(0.00166662 0.420968 0)
(0.000425082 0.414265 0)
(-0.0018261 0.398657 0)
(-0.00599888 0.373366 0)
(-0.0119482 0.342316 0)
(-0.0185026 0.30952 0)
(-0.0250797 0.27761 0)
(-0.0312515 0.248161 0)
(-0.0367321 0.221913 0)
(-0.041264 0.199091 0)
(-0.0446412 0.179735 0)
(-0.0467761 0.163868 0)
(-0.0478226 0.151519 0)
(-0.0481159 0.142739 0)
(-0.0480411 0.136854 0)
(-0.0481646 0.134258 0)
(-0.0480771 0.133032 0)
(-0.0460594 0.13366 0)
(-0.0297615 0.138987 0)
(-0.0147387 0.143663 0)
(0.000899341 0.359005 0)
(0.00522793 0.377204 0)
(0.0130708 0.393631 0)
(0.0174312 0.407371 0)
(0.0212103 0.416773 0)
(0.0243562 0.420598 0)
(0.0258248 0.416143 0)
(0.0257448 0.40251 0)
(0.0224923 0.38025 0)
(0.0158306 0.351669 0)
(0.0079276 0.320166 0)
(-0.000227791 0.288574 0)
(-0.00806498 0.258662 0)
(-0.0152534 0.231397 0)
(-0.0215427 0.207215 0)
(-0.0267006 0.186353 0)
(-0.0306073 0.169014 0)
(-0.0332371 0.155213 0)
(-0.0358135 0.144869 0)
(-0.0394835 0.137185 0)
(-0.0427528 0.130614 0)
(-0.044486 0.124851 0)
(-0.0446605 0.120235 0)
(-0.0353612 0.114662 0)
(-0.0152279 0.108254 0)
(0.000852319 0.344183 0)
(0.00760248 0.360748 0)
(0.0234049 0.379673 0)
(0.0312765 0.395234 0)
(0.0382493 0.406732 0)
(0.0443496 0.412474 0)
(0.0484928 0.411789 0)
(0.0506092 0.403489 0)
(0.0492153 0.385743 0)
(0.043215 0.361109 0)
(0.034504 0.332212 0)
(0.0249991 0.30179 0)
(0.0157506 0.271902 0)
(0.00722334 0.24385 0)
(-0.00039385 0.218367 0)
(-0.0069543 0.195948 0)
(-0.012393 0.177017 0)
(-0.0168032 0.161799 0)
(-0.0212034 0.149865 0)
(-0.0258175 0.140075 0)
(-0.0290197 0.13135 0)
(-0.0295631 0.122884 0)
(-0.0292546 0.11313 0)
(-0.0305206 0.10205 0)
(-0.0138063 0.0907855 0)
(0.000583744 0.323725 0)
(0.00874001 0.338998 0)
(0.0302977 0.358875 0)
(0.0418305 0.376518 0)
(0.0514852 0.390671 0)
(0.0599747 0.399987 0)
(0.066619 0.403595 0)
(0.0705828 0.399231 0)
(0.0715009 0.387081 0)
(0.0676419 0.368809 0)
(0.0595407 0.344459 0)
(0.0491323 0.316542 0)
(0.0384518 0.287479 0)
(0.0285685 0.259034 0)
(0.0197345 0.232372 0)
(0.0119371 0.208319 0)
(0.0051267 0.187546 0)
(-0.000882984 0.170399 0)
(-0.00570935 0.156537 0)
(-0.00921801 0.144891 0)
(-0.0113458 0.133697 0)
(-0.0111458 0.122123 0)
(-0.00974744 0.109913 0)
(-0.0176594 0.0960531 0)
(-0.010063 0.0842584 0)
(0.000370285 0.301856 0)
(0.00841383 0.314907 0)
(0.0333473 0.33303 0)
(0.0485309 0.352371 0)
(0.0604674 0.369517 0)
(0.0707273 0.38264 0)
(0.0789902 0.39026 0)
(0.085032 0.393674 0)
(0.0877513 0.388413 0)
(0.0868483 0.374398 0)
(0.0809047 0.355843 0)
(0.0706769 0.331728 0)
(0.0587773 0.304573 0)
(0.0473567 0.276455 0)
(0.0371754 0.248973 0)
(0.0282267 0.223362 0)
(0.0204182 0.200583 0)
(0.0136068 0.181223 0)
(0.00873652 0.165192 0)
(0.00596283 0.151155 0)
(0.00392388 0.137846 0)
(0.00316813 0.124563 0)
(0.00405547 0.11069 0)
(-0.0045797 0.0947882 0)
(-0.00481322 0.0821514 0)
(0.000153192 0.278074 0)
(0.00685319 0.288288 0)
(0.0325824 0.304688 0)
(0.0509064 0.324812 0)
(0.0650723 0.344813 0)
(0.0765575 0.361904 0)
(0.0858974 0.374594 0)
(0.0928233 0.380932 0)
(0.0972497 0.383622 0)
(0.0984592 0.376718 0)
(0.0953048 0.363285 0)
(0.0875916 0.345334 0)
(0.0761259 0.321837 0)
(0.0634285 0.295177 0)
(0.0515713 0.267521 0)
(0.0412354 0.240628 0)
(0.0324999 0.215871 0)
(0.0252645 0.194119 0)
(0.0199666 0.17554 0)
(0.0168643 0.159142 0)
(0.0145732 0.143965 0)
(0.0124296 0.129522 0)
(0.0111236 0.1154 0)
(0.00331345 0.0988999 0)
(5.52706e-05 0.0843613 0)
(-0.000195139 0.25531 0)
(0.0045129 0.262043 0)
(0.0287386 0.276092 0)
(0.0486448 0.296004 0)
(0.0649613 0.318141 0)
(0.0777257 0.339072 0)
(0.0877101 0.356532 0)
(0.0951318 0.369205 0)
(0.099913 0.37517 0)
(0.101438 0.376678 0)
(0.100278 0.371048 0)
(0.0958707 0.357689 0)
(0.0875736 0.338401 0)
(0.0759098 0.314149 0)
(0.0630783 0.287226 0)
(0.0511764 0.259572 0)
(0.0411695 0.233038 0)
(0.0332885 0.208929 0)
(0.027363 0.187812 0)
(0.0233601 0.169316 0)
(0.020433 0.152637 0)
(0.0172297 0.137433 0)
(0.0138241 0.123507 0)
(0.0055653 0.107792 0)
(0.0023193 0.0919238 0)
(-0.000535465 0.235628 0)
(0.00191921 0.238255 0)
(0.0228389 0.249193 0)
(0.0420554 0.267989 0)
(0.0594798 0.291297 0)
(0.0735376 0.315526 0)
(0.084124 0.337632 0)
(0.0917036 0.355701 0)
(0.0965214 0.368316 0)
(0.0983462 0.378475 0)
(0.0981055 0.37651 0)
(0.0957997 0.366989 0)
(0.0904961 0.352152 0)
(0.0818323 0.332095 0)
(0.070302 0.306827 0)
(0.057947 0.279176 0)
(0.0467636 0.251331 0)
(0.0379713 0.225138 0)
(0.03148 0.201677 0)
(0.0265155 0.181322 0)
(0.0226723 0.163442 0)
(0.0189499 0.147734 0)
(0.0145856 0.134066 0)
(0.00531071 0.119343 0)
(0.00258122 0.103567 0)
(-0.000557628 0.219824 0)
(0.000526354 0.217864 0)
(0.01645 0.225459 0)
(0.032026 0.242171 0)
(0.0486395 0.265649 0)
(0.063437 0.292298 0)
(0.0747969 0.318573 0)
(0.0827699 0.341682 0)
(0.0874407 0.359757 0)
(0.0907995 0.371437 0)
(0.0907495 0.377374 0)
(0.0893886 0.376134 0)
(0.0859963 0.365496 0)
(0.0799932 0.347832 0)
(0.0713652 0.325147 0)
(0.060548 0.298227 0)
(0.0493556 0.269651 0)
(0.0397973 0.241781 0)
(0.0328688 0.216278 0)
(0.0274721 0.194179 0)
(0.0228317 0.175306 0)
(0.0187009 0.159236 0)
(0.0141632 0.145801 0)
(0.00432746 0.131517 0)
(0.00199512 0.1166 0)
(-0.00016282 0.207249 0)
(0.000596485 0.20122 0)
(0.0112167 0.205081 0)
(0.0220573 0.219649 0)
(0.0355831 0.242501 0)
(0.0493271 0.270445 0)
(0.0607858 0.29992 0)
(0.0690147 0.327492 0)
(0.0740714 0.350509 0)
(0.0767796 0.365851 0)
(0.0775373 0.37538 0)
(0.076859 0.377945 0)
(0.0748271 0.373777 0)
(0.0711725 0.360887 0)
(0.0655321 0.340711 0)
(0.0577031 0.315216 0)
(0.0482832 0.286595 0)
(0.0390427 0.25757 0)
(0.0319296 0.230517 0)
(0.0267632 0.206903 0)
(0.0221547 0.187189 0)
(0.0178833 0.170944 0)
(0.0129376 0.158014 0)
(0.00310232 0.143523 0)
(0.00139157 0.129198 0)
(0.000822073 0.19761 0)
(0.0014985 0.189204 0)
(0.00750709 0.190337 0)
(0.0144641 0.202197 0)
(0.0236561 0.223461 0)
(0.0343364 0.25155 0)
(0.0443504 0.282929 0)
(0.052118 0.313851 0)
(0.0572093 0.340946 0)
(0.0598725 0.361879 0)
(0.060894 0.375088 0)
(0.0608282 0.38118 0)
(0.0599037 0.379208 0)
(0.0579733 0.369153 0)
(0.0547809 0.351971 0)
(0.0500072 0.328561 0)
(0.0434409 0.30063 0)
(0.0359432 0.271065 0)
(0.0293774 0.242854 0)
(0.0248903 0.218149 0)
(0.0212823 0.197718 0)
(0.0180567 0.181363 0)
(0.0116814 0.169208 0)
(0.00124637 0.154041 0)
(0.000726243 0.139847 0)
(0.00225823 0.190861 0)
(0.00279282 0.182124 0)
(0.00390153 0.181621 0)
(0.00747421 0.19084 0)
(0.0130246 0.209743 0)
(0.0202893 0.236975 0)
(0.0277193 0.26897 0)
(0.0341198 0.301888 0)
(0.0387111 0.331895 0)
(0.041353 0.356037 0)
(0.0427956 0.372265 0)
(0.0435481 0.379851 0)
(0.0435679 0.380493 0)
(0.0429375 0.374169 0)
(0.0415902 0.359266 0)
(0.0392347 0.337634 0)
(0.0354654 0.31086 0)
(0.0303694 0.281362 0)
(0.0251101 0.252431 0)
(0.0215308 0.226912 0)
(0.0189409 0.20614 0)
(0.0165659 0.189884 0)
(0.010339 0.177263 0)
(0.000647441 0.162399 0)
(0.000368891 0.147994 0)
(0.00414463 0.184534 0)
(0.00537222 0.178077 0)
(0.000227723 0.176999 0)
(-0.000538558 0.182924 0)
(0.00333622 0.200932 0)
(0.00798362 0.226586 0)
(0.0128958 0.258388 0)
(0.0175367 0.292235 0)
(0.0212217 0.323993 0)
(0.0236699 0.350244 0)
(0.0253848 0.368469 0)
(0.02666 0.378585 0)
(0.0274039 0.380762 0)
(0.0277989 0.375414 0)
(0.0278587 0.362481 0)
(0.0272859 0.342684 0)
(0.0257159 0.317296 0)
(0.0228586 0.288459 0)
(0.0191726 0.259405 0)
(0.0164707 0.23355 0)
(0.0145146 0.21274 0)
(0.0120497 0.19685 0)
(0.00827133 0.184755 0)
(0.00166494 0.169377 0)
(0.000532843 0.154805 0)
(0.00495747 0.177095 0)
(0.00801684 0.172972 0)
(0.000344821 0.175311 0)
(-0.00497835 0.181941 0)
(-0.0035183 0.195441 0)
(-0.000977628 0.220338 0)
(0.00189684 0.251477 0)
(0.00445536 0.285421 0)
(0.00669256 0.317846 0)
(0.00856175 0.345063 0)
(0.0102742 0.364389 0)
(0.0118345 0.375643 0)
(0.0131629 0.378953 0)
(0.0143431 0.374635 0)
(0.0153703 0.362927 0)
(0.0160355 0.344461 0)
(0.0161013 0.320368 0)
(0.0151322 0.292535 0)
(0.0130558 0.263904 0)
(0.0113671 0.23812 0)
(0.010132 0.217683 0)
(0.00812189 0.202256 0)
(0.00579138 0.191297 0)
(0.00170163 0.175188 0)
(0.000634533 0.160574 0)
(0.0043069 0.170248 0)
(0.00817546 0.171784 0)
(0.00336796 0.174645 0)
(-0.00259729 0.182386 0)
(-0.00552999 0.196119 0)
(-0.00549824 0.21858 0)
(-0.00494427 0.24871 0)
(-0.00455502 0.28209 0)
(-0.00400992 0.314272 0)
(-0.00298668 0.341401 0)
(-0.00157115 0.360795 0)
(-5.03492e-05 0.372228 0)
(0.00156446 0.375903 0)
(0.00325464 0.372124 0)
(0.00496265 0.36117 0)
(0.00648959 0.343638 0)
(0.00766806 0.32064 0)
(0.00818367 0.293789 0)
(0.00769639 0.265869 0)
(0.00707279 0.240555 0)
(0.00655687 0.220628 0)
(0.00526985 0.205904 0)
(0.00373356 0.195183 0)
(0.00163281 0.179412 0)
(0.000901896 0.164864 0)
(0.00468281 0.165201 0)
(0.00861375 0.172053 0)
(0.0056915 0.177043 0)
(0.000835693 0.184543 0)
(-0.00554159 0.199441 0)
(-0.00777696 0.220955 0)
(-0.00933792 0.25005 0)
(-0.0107164 0.282347 0)
(-0.0115953 0.313436 0)
(-0.0114008 0.339538 0)
(-0.0103687 0.358225 0)
(-0.0090013 0.369265 0)
(-0.00727879 0.372704 0)
(-0.00527005 0.368773 0)
(-0.00309977 0.357956 0)
(-0.000936242 0.340904 0)
(0.00101907 0.318635 0)
(0.00260795 0.292711 0)
(0.00355127 0.265612 0)
(0.00396093 0.240951 0)
(0.00408432 0.221713 0)
(0.00349208 0.206941 0)
(0.00252122 0.197079 0)
(0.00177487 0.182076 0)
(0.00126637 0.16761 0)
(0.00614788 0.16395 0)
(0.0100878 0.172679 0)
(0.0049265 0.181837 0)
(0.00115497 0.190745 0)
(-0.00502496 0.20434 0)
(-0.0092763 0.226263 0)
(-0.0124629 0.25437 0)
(-0.0153075 0.285313 0)
(-0.0171956 0.314762 0)
(-0.0175369 0.339188 0)
(-0.0167765 0.356474 0)
(-0.0155297 0.366378 0)
(-0.0137595 0.369066 0)
(-0.0115232 0.364678 0)
(-0.00899079 0.353634 0)
(-0.00633402 0.336688 0)
(-0.00373732 0.314843 0)
(-0.00133423 0.289628 0)
(0.000715511 0.26344 0)
(0.00203091 0.239659 0)
(0.00274322 0.221304 0)
(0.00265457 0.207633 0)
(0.00209218 0.197979 0)
(0.00156999 0.183874 0)
(0.00117478 0.16948 0)
(0.00749088 0.165191 0)
(0.0106475 0.175603 0)
(0.00202917 0.18638 0)
(-6.10843e-05 0.197194 0)
(-0.00495884 0.212079 0)
(-0.0104765 0.233393 0)
(-0.0151165 0.260639 0)
(-0.0191092 0.290049 0)
(-0.0215143 0.317496 0)
(-0.022093 0.339784 0)
(-0.0215116 0.355272 0)
(-0.0202923 0.364004 0)
(-0.0184084 0.36554 0)
(-0.0159639 0.359989 0)
(-0.0131544 0.348426 0)
(-0.0101221 0.331304 0)
(-0.00701705 0.309631 0)
(-0.0039197 0.284957 0)
(-0.00103509 0.259667 0)
(0.000910023 0.236919 0)
(0.00212345 0.219574 0)
(0.00270072 0.208567 0)
(0.00314861 0.199285 0)
(0.00118811 0.184509 0)
(-1.88975e-05 0.170129 0)
(0.00677013 0.167939 0)
(0.00895617 0.179285 0)
(-0.00115437 0.192394 0)
(-0.00301958 0.204622 0)
(-0.00662312 0.220105 0)
(-0.0123878 0.241553 0)
(-0.0182199 0.267974 0)
(-0.0227709 0.295711 0)
(-0.0251615 0.320921 0)
(-0.0256659 0.340961 0)
(-0.0250274 0.35442 0)
(-0.0237115 0.360836 0)
(-0.0216721 0.360957 0)
(-0.0190659 0.354811 0)
(-0.0160304 0.34253 0)
(-0.0127278 0.325045 0)
(-0.00923429 0.303391 0)
(-0.00559348 0.279185 0)
(-0.00213569 0.254813 0)
(0.000121711 0.233179 0)
(0.00152699 0.216749 0)
(0.00259891 0.206168 0)
(0.00407805 0.198744 0)
(0.00114788 0.186138 0)
(-0.0012251 0.17083 0)
(0.00387689 0.173348 0)
(0.00459428 0.18522 0)
(-0.00472295 0.198619 0)
(-0.00634794 0.211852 0)
(-0.00905648 0.228309 0)
(-0.0151634 0.249956 0)
(-0.0217395 0.275531 0)
(-0.0261078 0.301451 0)
(-0.0280491 0.324219 0)
(-0.0283099 0.341412 0)
(-0.0274931 0.352759 0)
(-0.0260547 0.35801 0)
(-0.0239265 0.356679 0)
(-0.0211672 0.349208 0)
(-0.0179686 0.336121 0)
(-0.0144755 0.318191 0)
(-0.0106878 0.296524 0)
(-0.00667478 0.272839 0)
(-0.00297553 0.249494 0)
(-0.000759012 0.229073 0)
(0.000555023 0.213713 0)
(0.00145453 0.202547 0)
(0.00249045 0.19666 0)
(0.000647356 0.184591 0)
(-0.000684655 0.172903 0)
(0.00136255 0.179298 0)
(0.0006122 0.191733 0)
(-0.00739801 0.205332 0)
(-0.00877833 0.219308 0)
(-0.0118535 0.23651 0)
(-0.0185424 0.258231 0)
(-0.0250889 0.282813 0)
(-0.0286558 0.306765 0)
(-0.029919 0.327156 0)
(-0.0299034 0.34115 0)
(-0.0290805 0.350332 0)
(-0.0275143 0.35503 0)
(-0.0251889 0.351876 0)
(-0.0223057 0.343253 0)
(-0.01902 0.329364 0)
(-0.0153911 0.311011 0)
(-0.011381 0.289408 0)
(-0.00717691 0.266385 0)
(-0.00352645 0.244222 0)
(-0.0015098 0.22517 0)
(-0.00034285 0.210995 0)
(0.000219119 0.201751 0)
(0.000518646 0.195455 0)
(-0.000117743 0.18454 0)
(-0.000214674 0.171651 0)
(0.00033826 0.186225 0)
(-0.00122465 0.199068 0)
(-0.00871351 0.21268 0)
(-0.0102297 0.226908 0)
(-0.0146775 0.244697 0)
(-0.0218044 0.266194 0)
(-0.0274716 0.289521 0)
(-0.0299711 0.311295 0)
(-0.0306161 0.328612 0)
(-0.0303161 0.342502 0)
(-0.029444 0.350597 0)
(-0.0277549 0.350672 0)
(-0.0253367 0.346752 0)
(-0.0224225 0.337048 0)
(-0.019113 0.322423 0)
(-0.0153883 0.303733 0)
(-0.0112424 0.282325 0)
(-0.00705848 0.260099 0)
(-0.00368628 0.239188 0)
(-0.00192408 0.221506 0)
(-0.000877556 0.208463 0)
(-0.000458892 0.200336 0)
(-0.000183743 0.194602 0)
(-0.000273295 0.186833 0)
(-0.000113099 0.171315 0)
(0.000227753 0.194472 0)
(-0.00151667 0.207127 0)
(-0.00932304 0.220655 0)
(-0.0114651 0.234809 0)
(-0.017204 0.25283 0)
(-0.0241913 0.273771 0)
(-0.028399 0.295509 0)
(-0.0299192 0.314991 0)
(-0.0303476 0.329698 0)
(-0.029954 0.343337 0)
(-0.028781 0.349204 0)
(-0.0267123 0.347016 0)
(-0.024327 0.341509 0)
(-0.0214425 0.330808 0)
(-0.0181536 0.315528 0)
(-0.0143804 0.296611 0)
(-0.0102218 0.275535 0)
(-0.00625711 0.254211 0)
(-0.00327896 0.234583 0)
(-0.00172031 0.218228 0)
(-0.000877559 0.206252 0)
(-0.000686238 0.197872 0)
(-0.000702366 0.193635 0)
(-0.000646423 0.184206 0)
(-0.000159368 0.17335 0)
(0.000338691 0.203346 0)
(-0.001255 0.215543 0)
(-0.00957992 0.228823 0)
(-0.0128807 0.242976 0)
(-0.0192596 0.260742 0)
(-0.0252762 0.280818 0)
(-0.0280053 0.300697 0)
(-0.0289508 0.31801 0)
(-0.029058 0.333741 0)
(-0.0286218 0.341086 0)
(-0.0268474 0.342861 0)
(-0.0247535 0.342811 0)
(-0.0224063 0.336206 0)
(-0.0195802 0.324676 0)
(-0.0163218 0.30887 0)
(-0.0125574 0.289864 0)
(-0.00854633 0.269242 0)
(-0.00497743 0.248871 0)
(-0.00249167 0.230477 0)
(-0.00115471 0.215318 0)
(-0.000514111 0.204294 0)
(-0.000691446 0.197534 0)
(-0.000633041 0.194949 0)
(-0.000901351 0.183067 0)
(-0.000393656 0.170813 0)
(0.000425572 0.212214 0)
(-0.00100652 0.223962 0)
(-0.00955493 0.236938 0)
(-0.0140941 0.251018 0)
(-0.0204319 0.26824 0)
(-0.024908 0.28709 0)
(-0.026604 0.304943 0)
(-0.0271614 0.320272 0)
(-0.0271081 0.33265 0)
(-0.025725 0.337803 0)
(-0.0242026 0.340863 0)
(-0.0223036 0.338639 0)
(-0.0199555 0.33105 0)
(-0.0171678 0.318796 0)
(-0.0139278 0.30261 0)
(-0.010261 0.283683 0)
(-0.00658007 0.263652 0)
(-0.0035962 0.244282 0)
(-0.00175877 0.227024 0)
(-0.000763965 0.212919 0)
(-0.000331394 0.20275 0)
(-0.000706461 0.198089 0)
(-0.000593775 0.191524 0)
(-0.000762909 0.185122 0)
(-0.000345097 0.17036 0)
(0.000487985 0.220775 0)
(-0.000841746 0.232136 0)
(-0.00937069 0.244871 0)
(-0.0147292 0.258606 0)
(-0.0203617 0.275074 0)
(-0.0232473 0.292367 0)
(-0.0242617 0.308219 0)
(-0.0245532 0.321385 0)
(-0.0240251 0.329825 0)
(-0.022811 0.336856 0)
(-0.0213114 0.338247 0)
(-0.0193678 0.334441 0)
(-0.0170388 0.326019 0)
(-0.0142662 0.313212 0)
(-0.0110756 0.296843 0)
(-0.00762524 0.278187 0)
(-0.00442156 0.258876 0)
(-0.00218089 0.240507 0)
(-0.000980506 0.224239 0)
(-0.000205435 0.211091 0)
(0.000131899 0.201123 0)
(-0.00034053 0.195498 0)
(-0.000513896 0.190812 0)
(-0.00103761 0.182356 0)
(-0.00044192 0.172168 0)
(0.000550995 0.228784 0)
(-0.000739339 0.239808 0)
(-0.00915329 0.252276 0)
(-0.0147103 0.265503 0)
(-0.0192515 0.280989 0)
(-0.0209616 0.29658 0)
(-0.0215803 0.310594 0)
(-0.021591 0.322126 0)
(-0.0209615 0.33032 0)
(-0.0197842 0.33447 0)
(-0.0181149 0.334545 0)
(-0.0161502 0.33028 0)
(-0.0138372 0.321187 0)
(-0.0110926 0.308011 0)
(-0.00803274 0.291645 0)
(-0.00491922 0.273409 0)
(-0.00236898 0.254891 0)
(-0.000880067 0.237388 0)
(-8.65803e-05 0.22206 0)
(0.000581067 0.209566 0)
(0.000864117 0.201109 0)
(2.09119e-05 0.195447 0)
(-0.000253542 0.192883 0)
(-0.00122411 0.181989 0)
(-0.000700279 0.171136 0)
(0.000616951 0.236069 0)
(-0.000756146 0.246799 0)
(-0.00888223 0.258933 0)
(-0.0139945 0.271571 0)
(-0.0174281 0.28589 0)
(-0.0184698 0.29982 0)
(-0.0188492 0.312209 0)
(-0.018618 0.322245 0)
(-0.0177581 0.329211 0)
(-0.016473 0.332392 0)
(-0.0148063 0.33147 0)
(-0.0128718 0.326248 0)
(-0.0105863 0.316653 0)
(-0.00793161 0.303285 0)
(-0.0051201 0.287096 0)
(-0.00249019 0.269409 0)
(-0.000693345 0.251649 0)
(0.000214268 0.235004 0)
(0.000762921 0.220464 0)
(0.00126812 0.208719 0)
(0.00139604 0.201194 0)
(7.79222e-05 0.196236 0)
(-0.000310373 0.1907 0)
(-0.001284 0.184334 0)
(-0.000742514 0.17044 0)
(0.000672091 0.242564 0)
(-0.0008854 0.253017 0)
(-0.00846238 0.264769 0)
(-0.0126866 0.276737 0)
(-0.0151884 0.289811 0)
(-0.0158785 0.302245 0)
(-0.0160628 0.313217 0)
(-0.0156285 0.321946 0)
(-0.0146305 0.327695 0)
(-0.0132672 0.329902 0)
(-0.0115958 0.328237 0)
(-0.00968721 0.322425 0)
(-0.00746365 0.312498 0)
(-0.00497448 0.299113 0)
(-0.00248043 0.283237 0)
(-0.000466051 0.266184 0)
(0.000685214 0.249141 0)
(0.00126523 0.23329 0)
(0.00166476 0.219443 0)
(0.0020117 0.208192 0)
(0.00200321 0.200006 0)
(0.00048136 0.195556 0)
(-0.00041463 0.190512 0)
(-0.00154728 0.182443 0)
(-0.000797646 0.171761 0)
(0.000662208 0.248244 0)
(-0.00112374 0.258448 0)
(-0.00790548 0.269749 0)
(-0.0110312 0.280962 0)
(-0.012792 0.292826 0)
(-0.0132848 0.303961 0)
(-0.0132985 0.313695 0)
(-0.0127087 0.321276 0)
(-0.0116336 0.326021 0)
(-0.0102502 0.327416 0)
(-0.00861688 0.325111 0)
(-0.00676443 0.318864 0)
(-0.00463267 0.308747 0)
(-0.00239595 0.295464 0)
(-0.000325843 0.280035 0)
(0.00111038 0.26357 0)
(0.00182509 0.247271 0)
(0.00222251 0.23209 0)
(0.00253263 0.218845 0)
(0.00272938 0.208639 0)
(0.00245759 0.201476 0)
(0.000750269 0.196649 0)
(-0.00018552 0.193176 0)
(-0.00153939 0.182455 0)
(-0.000894167 0.172316 0)
(0.000657658 0.253066 0)
(-0.0013841 0.263109 0)
(-0.00730094 0.27388 0)
(-0.00928914 0.284305 0)
(-0.0104371 0.295097 0)
(-0.0107671 0.305077 0)
(-0.010638 0.313742 0)
(-0.00995821 0.320343 0)
(-0.00886051 0.324287 0)
(-0.00748914 0.32501 0)
(-0.00593673 0.322165 0)
(-0.00420221 0.315628 0)
(-0.00225222 0.305465 0)
(-0.000249031 0.292545 0)
(0.00136186 0.277485 0)
(0.00229735 0.261624 0)
(0.00274485 0.245977 0)
(0.0029587 0.231373 0)
(0.00316038 0.21865 0)
(0.00311616 0.209254 0)
(0.0023608 0.202517 0)
(0.000584824 0.197779 0)
(-7.05446e-05 0.191975 0)
(-0.00149323 0.184427 0)
(-0.000853774 0.172387 0)
(0.000748352 0.256914 0)
(-0.00154213 0.266788 0)
(-0.0066269 0.277094 0)
(-0.00764905 0.286799 0)
(-0.00831021 0.296267 0)
(-0.00838648 0.305695 0)
(-0.00814701 0.313457 0)
(-0.00740226 0.319231 0)
(-0.00632515 0.322362 0)
(-0.00500631 0.32256 0)
(-0.00355698 0.31948 0)
(-0.0019614 0.312779 0)
(-0.000229093 0.302692 0)
(0.00146617 0.288896 0)
(0.002661 0.275508 0)
(0.00320645 0.260294 0)
(0.00345372 0.24523 0)
(0.00353846 0.231145 0)
(0.00359627 0.218943 0)
(0.00322722 0.208887 0)
(0.00180826 0.202399 0)
(0.000299976 0.197888 0)
(0.000100301 0.192377 0)
(-0.00153622 0.184504 0)
(-0.000843442 0.17331 0)
(0.000590089 0.259802 0)
(-0.00135991 0.269199 0)
(-0.00519409 0.279391 0)
(-0.0057368 0.288462 0)
(-0.00620891 0.296429 0)
(-0.00628097 0.305783 0)
(-0.00587236 0.312828 0)
(-0.00508154 0.317947 0)
(-0.00403266 0.320603 0)
(-0.00277591 0.320397 0)
(-0.00141145 0.317004 0)
(9.6949e-05 0.310252 0)
(0.00162733 0.300327 0)
(0.00290119 0.287657 0)
(0.00348615 0.274071 0)
(0.00391336 0.259425 0)
(0.00400349 0.2449 0)
(0.00404373 0.231328 0)
(0.00401476 0.21959 0)
(0.00318582 0.210674 0)
(0.00113346 0.203542 0)
(6.36851e-06 0.198605 0)
(0.000230733 0.193222 0)
(-0.00168366 0.184658 0)
(-0.000956065 0.173662 0)
(8.06615e-05 0.26138 0)
(-0.000909991 0.27077 0)
(-0.00315619 0.280681 0)
(-0.00381289 0.289022 0)