/*--------------------------------*- C++ -*----------------------------------*\
| =========                 |                                                 |
| \\      /  F ield         | OpenFOAM: The Open Source CFD Toolbox           |
|  \\    /   O peration     | Version:  2.3.0                                 |
|   \\  /    A nd           | Web:      www.OpenFOAM.org                      |
|    \\/     M anipulation  |                                                 |
\*---------------------------------------------------------------------------*/
FoamFile
{
    version     2.0;
    format      ascii;
    class       volScalarField;
    location    "0.55";
    object      p_rgh;
}
// * * * * * * * * * * * * * * * * * * * * * * * * * * * * * * * * * * * * * //

dimensions      [1 -1 -2 0 0 0 0];

internalField   nonuniform List<scalar> 
2268
(
579.047
577.646
583.042
592.454
603.809
615.862
628.569
642.105
656.681
672.442
689.444
707.666
727.084
747.717
769.689
793.117
818.063
844.249
870.713
895.137
910.327
916.636
937.449
578.871
576.582
580.943
589.619
600.476
612.277
624.97
638.625
653.392
669.394
686.69
705.272
725.137
746.328
768.963
793.305
819.421
847.133
875.313
900.834
917.014
913.278
935.912
577.82
575.586
579.738
587.419
597.4
608.716
621.19
634.817
649.688
665.901
683.511
702.514
722.919
744.793
768.271
793.579
820.803
849.591
878.678
904.55
922.362
914.566
937.659
576.762
574.827
579.051
585.968
595.135
605.877
617.996
631.455
646.316
662.662
680.543
699.936
720.842
743.337
767.537
793.593
821.526
850.794
880.072
905.868
924.131
926.315
944.314
576.07
574.988
578.765
585.034
593.47
603.611
615.297
628.495
643.263
659.682
677.795
697.534
718.876
741.9
766.694
793.339
821.74
851.184
880.382
906.138
925.114
933.171
953.976
575.672
575.408
578.603
584.256
591.997
601.514
612.719
625.606
640.242
656.714
675.057
695.129
716.865
740.359
765.685
792.871
821.706
851.286
880.424
906.298
926.014
939.414
964.692
575.36
575.488
578.036
583.124
590.225
599.134
609.858
622.428
636.939
653.508
672.155
692.61
714.736
738.672
764.5
792.247
821.577
851.367
880.569
906.699
926.971
944.783
973.827
575.07
574.299
575.952
580.62
587.346
595.88
606.253
618.551
632.97
649.733
668.871
689.864
712.441
736.843
763.184
791.497
821.343
851.437
880.844
907.334
927.934
946.353
977.656
406.931
406.873
406.798
406.692
406.494
406.204
405.861
405.511
405.19
404.904
404.634
404.428
404.509
404.788
403.454
402.604
448.401
835.753
1521.11
406.922
406.869
406.818
406.724
406.525
406.227
405.878
405.529
405.213
404.94
404.686
404.422
404.043
403.305
401.866
401.894
421.81
678.678
1458.61
406.924
406.892
406.842
406.734
406.516
406.206
405.859
405.517
405.207
404.943
404.706
404.388
403.895
403.297
403.056
404.691
412.958
511.446
1349.16
406.938
406.938
406.862
406.716
406.47
406.153
405.811
405.476
405.167
404.889
404.612
404.244
403.746
403.263
403.092
404.75
411.684
441.951
1178.9
406.963
407.004
406.875
406.683
406.412
406.091
405.753
405.421
405.106
404.811
404.511
404.14
403.664
403.218
403.083
404.814
413.57
544.55
1084.48
406.979
407.09
406.877
406.641
406.352
406.03
405.695
405.363
405.044
404.738
404.432
404.07
403.616
403.22
403.144
405.29
506.276
709.335
1077.12
406.965
407.15
406.856
406.588
406.293
405.974
405.641
405.309
404.988
404.681
404.38
404.037
403.614
403.315
403.859
462.001
752.038
837.79
1137.13
412.931
408.359
406.746
406.52
406.238
405.927
405.598
405.266
404.946
404.643
404.355
404.037
403.66
403.69
420.54
698.744
889.518
956.157
1223.29
481.128
455.359
449.141
461.295
483.169
510.075
539.005
568.862
599.335
629.907
659.282
684.607
708.039
733.345
760.675
790.061
820.806
851.402
881.27
908.642
930.077
943.681
949.349
20.6783
22.6874
31.2609
42.6409
57.6312
77.9889
104.79
139.738
185.948
248.44
333.308
439.792
543.525
642.436
730.184
787.086
821.37
852.521
883.311
914.316
940.781
961.903
983.388
0.584799
0.631901
0.630986
0.629233
0.638953
0.645573
0.645841
0.644118
0.644597
0.649827
0.67489
2.37683
33.9685
95.4103
207.4
425.137
734.854
858.374
887.739
923.507
953.326
979.892
1006.86
0.587684
0.591716
0.601592
0.609401
0.616776
0.62208
0.624854
0.626046
0.627018
0.630245
0.64197
0.668783
0.679037
0.638527
0.605709
4.95267
49.6282
182.319
474.774
899.872
974.447
1000.58
1028.84
0.573457
0.576079
0.581835
0.589209
0.595325
0.599983
0.603411
0.606158
0.60915
0.613685
0.620505
0.625338
0.613255
0.607128
0.612847
0.618335
0.555217
0.35794
7.09052
96.6981
315.942
674.452
1036.04
0.56308
0.563958
0.566844
0.571322
0.575699
0.57951
0.582795
0.58587
0.589268
0.593494
0.598324
0.601433
0.598068
0.591417
0.588097
0.582718
0.570352
0.557308
0.513487
0.365395
0.206556
22.5836
125.026
0.548301
0.549103
0.550968
0.553953
0.557134
0.560188
0.563068
0.565902
0.568908
0.572205
0.575475
0.577392
0.575601
0.570849
0.564744
0.55544
0.541034
0.526205
0.526884
0.527818
0.512442
0.46283
0.375501
0.533723
0.534093
0.535151
0.537032
0.539267
0.541625
0.544017
0.546448
0.548949
0.551463
0.553683
0.554786
0.553626
0.550311
0.545116
0.537131
0.525153
0.511369
0.50034
0.490459
0.487794
0.504377
0.514644
0.518577
0.518664
0.519111
0.520233
0.52177
0.523555
0.52549
0.527517
0.529581
0.531559
0.533181
0.533941
0.533264
0.531061
0.527304
0.521566
0.513379
0.503625
0.493838
0.484004
0.478024
0.479069
0.474968
0.503346
0.503047
0.502975
0.503542
0.50456
0.505893
0.507437
0.509114
0.510832
0.512463
0.513793
0.514504
0.514271
0.512953
0.510466
0.506627
0.501342
0.49507
0.488555
0.482013
0.476902
0.474235
0.471254
0.488132
0.487428
0.486899
0.487025
0.48765
0.488628
0.489853
0.491241
0.492698
0.494109
0.495313
0.496104
0.496277
0.495701
0.494287
0.491956
0.488725
0.484887
0.48091
0.477076
0.474031
0.472233
0.471265
0.472996
0.471925
0.471005
0.470773
0.471082
0.471771
0.472737
0.473892
0.475155
0.476427
0.477594
0.478515
0.479051
0.479095
0.478569
0.47743
0.475711
0.473594
0.471379
0.46936
0.468008
0.467617
0.468196
0.457947
0.456593
0.455362
0.454835
0.454877
0.455325
0.456074
0.457043
0.458159
0.459344
0.460515
0.461575
0.462423
0.462974
0.463162
0.462949
0.462355
0.461492
0.460556
0.459804
0.45963
0.460272
0.461921
0.442963
0.441431
0.43998
0.439217
0.439033
0.439272
0.439836
0.440652
0.441654
0.44278
0.443969
0.44515
0.446251
0.4472
0.447936
0.448421
0.448655
0.448698
0.448683
0.448825
0.449464
0.450827
0.453202
0.428012
0.426406
0.424828
0.423889
0.423516
0.423576
0.42398
0.424663
0.42557
0.426649
0.427851
0.429124
0.430409
0.431648
0.432783
0.433768
0.434585
0.435258
0.435873
0.43661
0.437771
0.439575
0.442336
0.413064
0.411471
0.40985
0.408794
0.408274
0.408183
0.408448
0.409016
0.409836
0.410867
0.412067
0.413393
0.414795
0.416221
0.417616
0.418929
0.420124
0.421197
0.4222
0.423278
0.424705
0.426682
0.429509
0.398094
0.396581
0.394986
0.393866
0.393238
0.393025
0.393174
0.393638
0.394376
0.395352
0.396529
0.397868
0.399323
0.400845
0.402379
0.403867
0.405262
0.406538
0.407722
0.408925
0.41039
0.412295
0.414901
0.383089
0.381697
0.380176
0.379038
0.378339
0.378033
0.378084
0.378456
0.379115
0.380026
0.381158
0.382471
0.383923
0.385462
0.38703
0.388564
0.390007
0.391316
0.392498
0.393636
0.394938
0.396554
0.398692
0.368041
0.366791
0.365372
0.364251
0.363511
0.363137
0.363109
0.3634
0.36398
0.364818
0.365883
0.367137
0.368535
0.370022
0.371536
0.373007
0.374369
0.375567
0.376589
0.377493
0.378457
0.379594
0.381058
0.352949
0.351842
0.350538
0.349455
0.3487
0.34828
0.348188
0.348406
0.348908
0.349665
0.350646
0.351811
0.353111
0.354488
0.355873
0.35719
0.358363
0.359329
0.360058
0.360589
0.361064
0.361565
0.362191
0.33781
0.336834
0.335646
0.334614
0.333861
0.333414
0.333273
0.333426
0.333851
0.334521
0.335402
0.336452
0.337618
0.338838
0.340033
0.341121
0.34202
0.342658
0.342991
0.343038
0.34291
0.342659
0.342332
0.322623
0.321758
0.320674
0.319698
0.318963
0.318503
0.318326
0.318424
0.318775
0.319353
0.320122
0.321038
0.322043
0.323067
0.324028
0.324835
0.325399
0.32564
0.325506
0.324995
0.324194
0.323126
0.321783
0.307382
0.306605
0.305611
0.304691
0.303982
0.303522
0.303322
0.303375
0.303658
0.304145
0.304795
0.305562
0.306387
0.307193
0.307892
0.308387
0.308582
0.30839
0.30775
0.306648
0.305147
0.303249
0.300899
0.292084
0.291374
0.290453
0.289584
0.288906
0.288457
0.288246
0.288263
0.288486
0.288882
0.289413
0.29003
0.290668
0.291247
0.291674
0.291848
0.291664
0.291032
0.289884
0.288196
0.286013
0.28332
0.28003
0.276728
0.276068
0.275202
0.274376
0.273731
0.273299
0.273086
0.273076
0.273246
0.273562
0.27398
0.27445
0.274906
0.275264
0.275427
0.275289
0.274743
0.273692
0.272066
0.269835
0.267028
0.263622
0.259508
0.261312
0.26069
0.259861
0.259072
0.258457
0.258046
0.257837
0.25781
0.257937
0.258181
0.258499
0.258836
0.259124
0.259278
0.259199
0.258778
0.257906
0.256485
0.254443
0.251744
0.248409
0.244411
0.239631
0.245838
0.245245
0.24444
0.243676
0.24309
0.242703
0.242502
0.242464
0.242558
0.242745
0.242978
0.2432
0.243341
0.243317
0.243029
0.242368
0.241226
0.239506
0.237134
0.234073
0.230336
0.2259
0.220645
0.230305
0.229735
0.228942
0.228198
0.227638
0.227274
0.227085
0.227045
0.227117
0.227261
0.227426
0.227553
0.227572
0.227402
0.226945
0.226098
0.224755
0.22282
0.220224
0.216927
0.212941
0.20825
0.202739
0.214715
0.214161
0.213375
0.212646
0.212111
0.211771
0.211598
0.211562
0.211623
0.211736
0.211849
0.211901
0.211825
0.211543
0.210963
0.209987
0.208515
0.206459
0.203752
0.20036
0.196298
0.191556
0.186024
0.199069
0.198527
0.197747
0.197033
0.196521
0.196205
0.196051
0.196023
0.19608
0.196174
0.19625
0.196248
0.196104
0.195744
0.195084
0.194035
0.192506
0.190419
0.187718
0.184376
0.180414
0.175829
0.170517
0.183376
0.182841
0.182069
0.181368
0.180878
0.180585
0.18045
0.180434
0.180493
0.180577
0.18063
0.180594
0.180407
0.180001
0.1793
0.178225
0.176703
0.174669
0.17208
0.168925
0.165231
0.161002
0.156141
0.167642
0.167113
0.166349
0.16566
0.165189
0.164916
0.1648
0.164797
0.164863
0.164945
0.164988
0.164937
0.164731
0.164305
0.163595
0.162537
0.161074
0.159162
0.156776
0.153921
0.150635
0.146932
0.142721
0.151875
0.151345
0.150591
0.149911
0.149455
0.149201
0.149103
0.149115
0.149191
0.149278
0.149325
0.149275
0.149068
0.148647
0.147955
0.146946
0.145583
0.143843
0.141725
0.139251
0.136473
0.13342
0.130012
0.136088
0.135529
0.134786
0.134113
0.133674
0.13344
0.133361
0.13339
0.133478
0.133578
0.133636
0.1336
0.13341
0.133014
0.132365
0.131432
0.130196
0.128658
0.126841
0.12479
0.122576
0.120241
0.117725
0.120305
0.119638
0.118911
0.118254
0.117838
0.117629
0.117573
0.117621
0.117726
0.117841
0.117918
0.117905
0.117746
0.117394
0.116811
0.115973
0.114882
0.113557
0.112049
0.110427
0.108782
0.107173
0.105563
0.104537
0.103625
0.102928
0.102309
0.101935
0.101764
0.101739
0.101809
0.101931
0.102063
0.102162
0.102179
0.102065
0.101776
0.101278
0.100556
0.0996197
0.098508
0.0972927
0.0960712
0.0949526
0.0940136
0.0932482
0.0887796
0.0874359
0.086786
0.0862458
0.085947
0.0858332
0.0858478
0.0859426
0.0860822
0.0862328
0.0863561
0.0864103
0.0863526
0.0861435
0.085752
0.0851636
0.0843917
0.0834861
0.0825357
0.0816592
0.0809839
0.0806044
0.0805482
0.0730567
0.0710483
0.0704414
0.070036
0.0698573
0.0698235
0.0698846
0.0700053
0.0701624
0.070331
0.0704813
0.0705798
0.0705903
0.0704772
0.0702099
0.0697726
0.069177
0.0684743
0.0677594
0.0671613
0.0668191
0.0668443
0.0672983
0.0573498
0.0544757
0.053881
0.0537138
0.0537127
0.0537716
0.0538771
0.0540201
0.0541919
0.0543778
0.0545575
0.0547063
0.0547949
0.0547908
0.0546642
0.0543969
0.0539951
0.0535015
0.0530027
0.0526229
0.0525005
0.0527541
0.0534647
0.0414494
0.0375246
0.0370057
0.037443
0.0377305
0.037869
0.0379935
0.0381436
0.0383219
0.0385223
0.0387336
0.0389382
0.0391116
0.0392256
0.0392528
0.0391741
0.0389875
0.03872
0.038437
0.03824
0.0382469
0.0385637
0.0392507
0.0255852
0.0189672
0.0191633
0.0211268
0.0218715
0.0220588
0.0221727
0.0223174
0.0225006
0.0227202
0.0229697
0.0232364
0.0235015
0.0237436
0.0239407
0.0240734
0.0241309
0.0241212
0.0240811
0.024074
0.0241767
0.0244625
0.0250047
0.01188
-0.00330578
-0.000981448
0.00226267
0.00319194
0.0034298
0.00358365
0.00376589
0.0039917
0.00426368
0.00457904
0.00493081
0.0053087
0.00570018
0.00609077
0.00646431
0.00680565
0.00710603
0.00736798
0.00760582
0.00784173
0.00810338
0.00843876
925.652
933.862
943.513
942.743
994.653
1001.83
1008.03
1015.12
1023.27
1033.76
1044.75
1058.41
1046.28
1059.97
1075.58
1091.9
1083.58
1091.94
1103.78
1118.57
252.431
366.871
511.308
687.838
0.310215
0.200852
1.4637
10.2771
0.526478
0.531071
0.528714
0.50462
0.466329
0.466234
0.477123
0.497702
0.469766
0.469281
0.470377
0.473044
0.471152
0.471194
0.472036
0.472931
0.468699
0.469103
0.470337
0.472008
0.463
0.463768
0.465402
0.46774
0.454706
0.455722
0.457607
0.460269
0.444001
0.445076
0.447011
0.449741
0.431055
0.431963
0.433696
0.436229
0.416076
0.416617
0.417908
0.419997
0.399296
0.399317
0.399988
0.401441
0.380933
0.380335
0.380276
0.380973
0.361216
0.359938
0.359092
0.358977
0.340429
0.338439
0.336789
0.335854
0.318937
0.316242
0.313801
0.312064
0.297149
0.293795
0.29062
0.288132
0.275469
0.271539
0.267727
0.264584
0.254273
0.249881
0.245565
0.241897
0.233889
0.229171
0.224508
0.220476
0.214583
0.20968
0.204831
0.200609
0.196555
0.191605
0.186724
0.182472
0.179925
0.175065
0.170287
0.166139
0.16472
0.160086
0.155533
0.15159
0.150859
0.14659
0.142376
0.13872
0.138153
0.134385
0.130623
0.127327
0.126317
0.123176
0.119977
0.117116
0.115007
0.112588
0.110055
0.107706
0.103848
0.102205
0.100408
0.0986453
0.09248
0.0916018
0.0905621
0.0894282
0.0805856
0.0803902
0.0800559
0.0795419
0.0679215
0.0682533
0.0684942
0.0685281
0.0543793
0.0550188
0.0556332
0.0560789
0.0400524
0.0407101
0.0414409
0.0421309
0.0257017
0.0262343
0.0268284
0.0274493
0.00883874
0.00914638
0.00953896
0.0100364
573.79
405.8
406.56
406.417
406.163
405.873
405.552
405.224
404.91
404.625
404.374
404.104
403.823
439.812
674.74
938.511
1022.79
1135.24
1360.51
807.364
406.216
406.519
406.413
406.129
405.869
405.563
405.24
404.949
404.715
404.565
404.338
448.802
855.061
1067.81
1119.86
1194.84
1319.59
1495.16
1091.44
722.507
406.076
406.325
406.081
405.942
405.655
405.34
405.075
404.875
404.436
464.875
981.883
1176.71
1222.98
1273.75
1341.3
1461.04
1480.12
1121.11
1174.81
959.256
628.893
405.374
405.735
405.319
405.056
404.848
404.414
434.585
918.385
1274.16
1321.43
1368.84
1408.41
1459.33
1562.04
1511.56
1146.04
1190.25
1242.61
1259.86
1133.33
838.11
556.778
489.914
503.056
616.148
1032.45
1361.8
1406.42
1463.73
1513.71
1534.55
1544.69
1624.36
1524.35
1016.3
1210.06
1235.06
1270.71
1312.99
1345.63
1309.39
1249.46
1272.71
1360.49
1441.68
1473.94
1525.69
1593.17
1468.98
1457.37
1588.2
1645.56
1499.85
74.3657
279.619
626.227
964.117
1161.73
1266.24
1278.41
1295.54
1324.52
1361.37
1412.11
1415.57
1341.16
969.215
911.595
1245.93
1654.57
1643.36
1474.94
0.388087
0.188143
4.50831
57.4144
169.133
312.316
488.977
612.678
627.621
617.419
556.123
478.495
419.709
497.269
888.162
1615.25
1662.65
1631.34
1423.9
0.528741
0.527638
0.47227
0.29585
0.180427
0.230819
0.436007
2.29605
3.21656
5.30475
15.9248
61.769
179.705
685.987
1664.88
1711.67
1593.62
1097.19
1167.56
0.479383
0.487369
0.530291
0.614975
0.665403
0.711978
0.775826
0.950561
1.39975
2.38834
5.44096
16.0872
64.2195
828.418
1728.19
1753.09
684.811
220.671
387.402
0.475117
0.482771
0.506254
0.54854
0.591498
0.650455
0.744457
0.92003
1.21107
1.60714
2.29048
4.21664
14.2748
462.595
1607.72
1631.68
287.486
176.794
173.31
0.476604
0.488416
0.509044
0.539856
0.580019
0.639114
0.727869
0.86139
1.0395
1.22615
1.36778
1.44162
3.17715
131.047
1246.82
1682.82
419.357
176.529
173.253
0.474154
0.489333
0.512451
0.544682
0.587304
0.645541
0.723468
0.820897
0.92056
0.970946
0.915631
0.681263
0.591962
7.7989
730.845
1699.35
952.802
174.279
172.386
0.467416
0.484183
0.50876
0.541947
0.584352
0.638006
0.702827
0.771721
0.819964
0.794864
0.647577
0.385914
0.0632867
0.519842
217.814
1246.32
1272.32
268.417
170.37
0.456976
0.473936
0.498188
0.529977
0.569108
0.615568
0.666872
0.713969
0.734756
0.690397
0.547824
0.332417
0.132077
0.0434103
3.05767
528.438
1278.59
507.924
165.592
0.443084
0.45931
0.48211
0.511239
0.545842
0.584759
0.624598
0.65729
0.667478
0.632887
0.536794
0.39649
0.277669
0.252832
0.243338
83.4421
1312.14
846.69
159.544
0.426077
0.440902
0.461549
0.487442
0.517323
0.549579
0.581013
0.605942
0.615777
0.601237
0.558253
0.495865
0.446991
0.446938
0.490892
0.685013
1236.14
1152.39
203.466
0.406436
0.419381
0.437416
0.459805
0.48516
0.511978
0.537732
0.5595
0.574119
0.580558
0.582628
0.586021
0.598256
0.622535
0.65718
0.669034
77.433
1176.23
959.09
0.384678
0.395435
0.410588
0.429389
0.450576
0.472811
0.494746
0.515591
0.536136
0.559769
0.596119
0.650874
0.719488
0.778669
0.820993
0.80154
0.95558
1160.11
1188.72
0.361291
0.369696
0.381851
0.397075
0.414328
0.432605
0.451362
0.471301
0.495413
0.530614
0.588879
0.678637
0.797934
0.9074
0.996231
0.96272
1.40593
869.947
1223.83
0.336759
0.342762
0.35192
0.363648
0.37711
0.391555
0.40689
0.42438
0.447837
0.485135
0.549267
0.651287
0.78491
1.41258
1.69363
1.17419
1.81569
325.756
853.999
0.311591
0.315242
0.321497
0.329869
0.339616
0.350097
0.361171
0.37377
0.390842
0.418045
0.464282
0.534829
1.17357
2.69924
3.6544
2.19177
6.14852
177.322
690.763
0.286353
0.287789
0.291328
0.296538
0.302725
0.309103
0.315085
0.320492
0.325844
0.331673
0.337369
0.484767
2.26956
1.66149
9.35445
87.9349
276.303
242.953
807.412
0.261635
0.261078
0.262175
0.264529
0.26744
0.269938
0.270651
0.26813
0.259738
0.241051
0.201413
0.576264
1.59257
0.868218
10.3336
423.86
585.183
281.409
841.604
0.237988
0.235745
0.234771
0.234701
0.234832
0.234124
0.230376
0.223502
0.202067
0.165962
0.108778
0.437264
0.246549
0.667004
-0.617348
484.371
610.798
483.398
150.945
0.21586
0.212311
0.209718
0.207768
0.205792
0.202684
0.196067
0.18539
0.158771
0.116656
0.0535684
0.0371935
0.130072
-0.0230461
-0.638163
79.4815
629.171
486.34
120.855
0.195566
0.19113
0.187406
0.184149
0.18076
0.17613
0.168154
0.156118
0.129449
0.0900129
0.0291886
-0.0558279
0.0746497
-0.21177
-0.437721
-0.704083
577.412
634.235
130.758
0.17727
0.172355
0.167971
0.163929
0.159711
0.154592
0.146113
0.13438
0.135722
0.0976946
0.0451817
-0.0266255
-0.0637155
-0.130958
-0.203938
-0.464008
572.076
658.588
152.072
0.161001
0.15596
0.151306
0.146894
0.142254
0.138511
0.154727
0.117123
0.133585
0.104459
0.0665623
0.0179924
-0.0277091
-0.024552
0.0159032
0.224502
764.71
579.341
162.734
0.146682
0.141777
0.137129
0.132618
0.127792
0.12523
0.15077
0.102163
0.113751
0.0850213
0.0514881
0.00774523
-0.008659
0.0685881
0.160725
235.704
833.542
750.447
189.761
0.134149
0.129548
0.12505
0.12054
0.115534
0.111097
0.137566
0.113639
0.0811027
0.0516304
0.00525429
-0.045363
-0.0421568
0.194047
0.276544
765.661
860.762
840.835
219.199
0.123169
0.118962
0.114651
0.110102
0.10474
0.0974331
0.10044
0.178398
0.0629533
0.0353047
-0.0273029
-0.126224
-0.219928
-0.0207978
175.761
883.382
881.496
829.111
237.498
0.113435
0.10968
0.105556
0.10089
0.0949574
0.0858174
0.069698
0.0690903
0.680462
1.61287
1.32786
0.0547757
-0.372731
-0.614196
38.7919
797.583
902.144
855.457
246.106
0.104581
0.101343
0.0974585
0.0927213
0.0862878
0.0761981
0.0578933
0.0326393
1.96294
2.24281
2.21082
2.09953
0.479779
-0.56869
-0.475153
123.412
914.823
919.665
256.338
0.0961617
0.0935291
0.0900195
0.085459
0.0791492
0.0693615
0.0528388
0.0288749
0.468738
2.33407
2.26074
2.16955
1.17495
-0.374602
-0.376982
-0.324944
275.8
906.271
867.144
0.0876632
0.0857231
0.0827529
0.0786335
0.0729072
0.0643105
0.0507587
0.0299539
-0.00450044
0.480262
1.904
1.80276
0.457332
-0.250437
-0.231793
-0.156333
-0.426
202.779
533.682
0.0785364
0.0773511
0.0750592
0.0716027
0.0667678
0.0597491
0.0491711
0.0329757
0.00858964
-0.0276581
0.0229903
-0.0429606
-0.112049
-0.142812
-0.146263
-0.0665778
-0.0222325
11.2353
112.272
0.0682647
0.0678452
0.0663036
0.0636397
0.0598655
0.0545713
0.046837
0.0355246
0.0190644
-0.00416625
-0.0346063
-0.0686991
-0.0980231
-0.112114
-0.0993269
-0.0536567
0.00854201
-0.218616
0.0586815
0.0564784
0.0567907
0.0559407
0.054003
0.0512543
0.0475599
0.042481
0.0354889
0.0257594
0.0123292
-0.00541055
-0.0272968
-0.0493146
-0.0655306
-0.0686542
-0.0600588
-0.0398323
-0.0726667
0.173372
0.0431179
0.0441534
0.043743
0.0420539
0.0399035
0.0373016
0.034132
0.0304092
0.0260907
0.0208627
0.0141526
0.00431494
-0.0093013
-0.0253597
-0.0389458
-0.0536013
-0.0495307
0.0223663
0.166953
0.0285618
0.0305586
0.0300365
0.0274057
0.0250114
0.022637
0.0202416
0.0182671
0.0174591
0.0185611
0.0214552
0.0236238
0.0195253
0.00746673
-0.00573623
-0.0386614
-0.0841868
0.0191592
0.709536
0.0111682
0.0144379
0.013406
0.00986384
0.00739607
0.00520816
0.00324422
0.00210722
0.00293586
0.00773756
0.0190658
0.0363292
0.0363496
0.0137125
-0.0255345
-0.135579
-0.17602
-0.0847636
0.710211
)
;

boundaryField
{
    leftWall
    {
        type            fixedFluxPressure;
        gradient        uniform 0;
        value           nonuniform List<scalar> 
50
(
579.047
578.871
577.82
576.762
576.07
575.672
575.36
575.07
481.128
20.6783
0.584799
0.587684
0.573457
0.56308
0.548301
0.533723
0.518577
0.503346
0.488132
0.472996
0.457947
0.442963
0.428012
0.413064
0.398094
0.383089
0.368041
0.352949
0.33781
0.322623
0.307382
0.292084
0.276728
0.261312
0.245838
0.230305
0.214715
0.199069
0.183376
0.167642
0.151875
0.136088
0.120305
0.104537
0.0887796
0.0730567
0.0573498
0.0414494
0.0255852
0.01188
)
;
    }
    rightWall
    {
        type            fixedFluxPressure;
        gradient        uniform 0;
        value           nonuniform List<scalar> 
50
(
1521.11
1458.61
1349.16
1178.9
1084.48
1077.12
1137.13
1223.29
1360.51
1495.16
1480.12
1511.56
1524.35
1499.85
1474.94
1423.9
1167.56
387.402
173.31
173.253
172.386
170.37
165.592
159.544
203.466
959.09
1188.72
1223.83
853.999
690.763
807.412
841.604
150.945
120.855
130.758
152.072
162.734
189.761
219.199
237.498
246.106
256.338
867.144
533.682
112.272
0.0586815
0.173372
0.166953
0.709536
0.710211
)
;
    }
    lowerWall
    {
        type            fixedFluxPressure;
        gradient        uniform 0;
        value           nonuniform List<scalar> 
62
(
579.047
577.646
583.042
592.454
603.809
615.862
628.569
642.105
656.681
672.442
689.444
707.666
727.084
747.717
769.689
793.117
818.063
844.249
870.713
895.137
910.327
916.636
937.449
937.449
935.912
937.659
944.314
953.976
964.692
973.827
977.656
925.652
933.862
943.513
942.743
406.931
406.922
406.924
406.938
406.963
406.979
406.965
412.931
406.931
406.873
406.798
406.692
406.494
406.204
405.861
405.511
405.19
404.904
404.634
404.428
404.509
404.788
403.454
402.604
448.401
835.753
1521.11
)
;
    }
    atmosphere
    {
        type            totalPressure;
        rho             rho;
        psi             none;
        gamma           1;
        p0              uniform 0;
        value           nonuniform List<scalar> 
46
(
-0.000817933
-0.00758324
-0.00846876
-0.00838816
-0.00824657
-0.0080843
-0.00788854
-0.00765063
-0.00736732
-0.00703854
-0.00666613
-0.00625323
-0.00580412
-0.0053246
-0.00482277
-0.00430961
-0.00379918
-0.00330792
-0.00285268
-0.00244747
-0.00209919
-0.00180275
-0.00153641
-0.00132514
-0.00113893
-0.000893009
-0.000615816
-0.000223804
-1.57727e-06
0
0
0
0
0
0
0
0
0
0
-0.00033989
-0.00305366
-0.0086256
-0.00637996
0
0
0
)
;
    }
    defaultFaces
    {
        type            empty;
    }
}


// ************************************************************************* //
