/*--------------------------------*- C++ -*----------------------------------*\
| =========                 |                                                 |
| \\      /  F ield         | OpenFOAM: The Open Source CFD Toolbox           |
|  \\    /   O peration     | Version:  2.3.0                                 |
|   \\  /    A nd           | Web:      www.OpenFOAM.org                      |
|    \\/     M anipulation  |                                                 |
\*---------------------------------------------------------------------------*/
FoamFile
{
    version     2.0;
    format      ascii;
    class       volScalarField;
    location    "0.42";
    object      alpha.water;
}
// * * * * * * * * * * * * * * * * * * * * * * * * * * * * * * * * * * * * * //

dimensions      [0 0 0 0 0 0 0];

internalField   nonuniform List<scalar> 
545
(
1
1
1
1
1
1
1
1
1
1
1
1
1
1
1
1
1
1
1
1
1
1
1
1
1
1
1
1
1
1
1
1
1
1
1
1
1
1
1
1
1
1
1
1
1
1
1
1
1
1
1
1
1
1
1
1
1
1
1
1
1
1
1
1
1
1
1
1
1
1
1
1
1
1
1
1
1
1
1
1
1
1
1
1
1
1
1
1
1
1
1
1
1
1
1
1
1
1
1
1
1
1
1
1
1
1
1
1
1
1
1
1
1
1
1
1
1
1
1
0.999999
0.999999
0.999999
0.999999
0.999999
0.999999
0.999999
0.999999
0.999999
0.999999
0.999999
0.999999
0.999999
0.999999
0.999999
0.999999
0.999999
0.999999
0.999999
0.999999
0.999999
0.999999
0.999999
0.999999
0.999999
0.999999
0.999999
0.999999
0.999999
0.999999
0.999999
0.999999
0.999999
0.999999
0.999999
0.999999
0.999999
0.999999
0.999999
0.999999
0.999999
1
1
0.999987
0.999957
0.999938
0.999934
0.999936
0.999939
0.999941
0.999941
0.999941
0.99994
0.999939
0.999938
0.999937
0.999937
0.999937
0.999938
0.999938
0.999938
0.999938
0.999938
0.999938
0.999937
0.999937
0.999937
0.999937
0.999937
0.999937
0.999937
0.999937
0.999937
0.999937
0.999937
0.999937
0.999937
0.999937
0.999937
0.999936
0.999936
0.999936
0.999936
0.999936
0.999936
0.999936
1
1
0.999315
0.997074
0.994138
0.994234
0.994883
0.995391
0.995691
0.995781
0.995712
0.995578
0.99543
0.995326
0.995265
0.995253
0.995257
0.995267
0.995269
0.995276
0.995267
0.995265
0.995255
0.995255
0.995243
0.99522
0.995187
0.995164
0.995133
0.995123
0.995104
0.995104
0.995095
0.995112
0.995123
0.995135
0.995137
0.995128
0.995107
0.995076
0.995041
0.995021
0.994995
0.994993
0.994982
0.178104
0.46813
0.862501
0.47498
0.419737
0.419726
0.419765
0.712219
0.995785
0.836736
0.513101
0.528604
0.526289
0.52701
0.526464
0.833052
0.995428
0.631184
0.470081
0.520687
0.519435
0.519843
0.519674
0.86167
0.99534
0.934536
0.543587
0.345063
0.345041
0.345093
0.450351
0.383631
0.383631
0.4302
0.812029
0.997785
0.995292
0.995229
0.995206
0.646926
0.509714
0.499907
0.498179
0.499019
0.577797
1
1
1
1
1
1
1
1
1
1
1
1
1
1
1
1
1
1
1
1
1
1
1
1
1
1
1
0.999317
0.997074
0.994155
0.994218
0.994889
0.995378
0.995681
0.995767
0.995707
0.995566
0.995429
0.995318
0.995268
0.995253
0.99526
0.995266
0.995278
0.995274
0.995274
0.99526
0.995259
0.995251
0.99524
0.995215
0.995187
0.995151
0.995135
0.995109
0.995103
0.995088
0.995094
0.995097
0.995117
0.995127
0.99513
0.995121
0.995099
0.995063
0.995035
0.995003
0.994988
0.994975
0.994973
1
1
0.999987
0.999957
0.999938
0.999934
0.999936
0.999939
0.999941
0.999941
0.999941
0.999939
0.999938
0.999938
0.999937
0.999937
0.999937
0.999937
0.999938
0.999938
0.999938
0.999938
0.999938
0.999937
0.999937
0.999937
0.999937
0.999937
0.999937
0.999937
0.999937
0.999937
0.999937
0.999937
0.999937
0.999937
0.999937
0.999936
0.999936
0.999936
0.999936
0.999936
0.999936
0.999936
0.999936
1
1
1
1
0.999999
0.999999
0.999999
0.999999
0.999999
0.999999
0.999999
0.999999
0.999999
0.999999
0.999999
0.999999
0.999999
0.999999
0.999999
0.999999
0.999999
0.999999
0.999999
0.999999
0.999999
0.999999
0.999999
0.999999
0.999999
0.999999
0.999999
0.999999
0.999999
0.999999
0.999999
0.999999
0.999999
0.999999
0.999999
0.999999
0.999999
0.999999
0.999999
0.999999
0.999999
1
1
1
1
1
1
1
1
1
1
1
1
1
1
1
1
1
1
1
1
1
1
1
1
1
1
1
1
1
1
1
1
1
1
1
1
1
1
1
1
1
1
1
1
1
1
1
1
1
1
1
1
1
1
1
1
1
1
1
1
1
1
1
1
1
1
1
1
1
1
1
1
1
1
1
1
1
1
1
1
1
1
1
1
1
1
1
1
1
1
)
;

boundaryField
{
    AirInlet
    {
        type            fixedValue;
        value           uniform 0;
    }
    WaterInlet
    {
        type            fixedValue;
        value           uniform 1;
    }
    ChannelWall
    {
        type            zeroGradient;
    }
    Outlet
    {
        type            inletOutlet;
        inletValue      uniform 0;
        value           nonuniform List<scalar> 
11
(
1
1
0.999999
0.999936
0.994982
0.577797
0.994973
0.999936
0.999999
1
1
)
;
    }
    FrontAndBack
    {
        type            empty;
    }
}


// ************************************************************************* //
