/*--------------------------------*- C++ -*----------------------------------*\
| =========                 |                                                 |
| \\      /  F ield         | OpenFOAM: The Open Source CFD Toolbox           |
|  \\    /   O peration     | Version:  2.3.0                                 |
|   \\  /    A nd           | Web:      www.OpenFOAM.org                      |
|    \\/     M anipulation  |                                                 |
\*---------------------------------------------------------------------------*/
FoamFile
{
    version     2.0;
    format      ascii;
    class       volScalarField;
    location    "0.3";
    object      p_rgh;
}
// * * * * * * * * * * * * * * * * * * * * * * * * * * * * * * * * * * * * * //

dimensions      [1 -1 -2 0 0 0 0];

internalField   nonuniform List<scalar> 
545
(
-7.65374e+07
-1.43492e+07
-2.17923e+06
-2.77549e+06
-8.49172e+06
5.45611e+07
-3.15654e+06
-2.52634e+06
-2.68405e+06
-6.95424e+06
9.50921e+07
3.12969e+06
-642848
-701137
-7.27745e+06
5.50412e+07
-3.32874e+06
-2.076e+06
-426239
-6.50874e+06
-8.80263e+07
-2.53523e+06
-735574
3.73375e+06
1.09757e+07
-7.21792e+06
-2.01846e+06
-886014
-227310
-100049
-90633.4
-109137
-118937
-121864
-120464
-117910
-114716
-112440
-110085
-107929
-104814
-102008
-99051.6
-97560.9
-96343.3
-96246.9
-95253.2
-94356.6
-91993.3
-89567.9
-85844
-82386.9
-77994.2
-74077.2
-69377.4
-65286.4
-60433.4
-56313.9
-51568.3
-47556.1
-42940.7
-38951.8
-34187.1
-30166.5
-25240.2
-21175.5
-16219
-12333.2
-7392.94
-3672.21
-6.40975e+06
-1.36725e+06
-864022
-357647
-206486
-146098
-131972
-126721
-123952
-120842
-117767
-114667
-112306
-110186
-107780
-104778
-101729
-98991.7
-97363.2
-96429.2
-96157.3
-95438.5
-94235.9
-92141.3
-89408.3
-85956.3
-82201.1
-78108.1
-73895
-69503.7
-65090.2
-60537
-56084
-51694.7
-47347
-43121.9
-38762.3
-34356.4
-29984.8
-25403.5
-20961
-16368.8
-11999.1
-7292.82
-2394.59
-7.54529e+06
-819336
-582850
-235040
-167442
-137662
-132593
-127742
-124877
-120769
-118071
-114479
-112664
-110000
-108007
-104394
-101931
-98655.2
-97707.6
-96202.9
-96543.4
-95184.4
-94536
-91828.5
-89697.9
-85615.1
-82497.9
-77784.6
-74211.7
-69174
-65414.3
-60151.6
-56356.4
-51346.6
-47649.9
-42821.7
-39108.4
-34052.5
-30378.8
-25053.8
-21310.7
-15975.4
-12288
-6844.45
-3226.71
-7.96473e+06
320000
-9115.11
-9620.41
-85337.7
-112706
-127659
-126765
-125581
-120410
-118599
-114207
-113186
-109666
-108344
-103896
-102359
-98247.5
-98215.2
-95872.2
-97043.8
-94794.6
-94906.8
-91387.2
-90084
-85164.6
-82888.7
-77381.7
-74620.5
-68756.1
-65839.1
-59680.3
-56663.5
-50948.9
-47984.5
-42487.6
-39502.2
-33705.5
-30884.9
-24615.9
-21715.7
-15522.8
-12640.6
-6085.39
-2562.9
-1.56686e+06
3.03685e+06
1.01271e+06
201803
-56369.5
-114296
-132442
-128217
-126956
-119779
-119425
-113647
-113946
-109065
-108929
-103079
-103181
-97497.5
-99121.7
-95125.1
-97957.3
-93996.9
-95630.2
-90523.9
-90854
-84312.2
-83649.8
-76608.9
-75412.1
-67934.3
-66685.6
-58772.4
-57325
-50209.8
-48633.8
-41835.6
-40283
-32957.3
-31904.5
-23664.7
-22596
-14528.3
-13541
-5189.54
-4084.63
-1.18117e+07
4.60993e+06
1.93235e+06
321114
-49371.9
-118907
-132744
-128870
-125838
-121318
-115590
-112087
-109319
-106037
-104105
-101789
-101404
-99051
-95574.6
-92689.3
-91245
-92311.3
-90619.5
-88637
-86400.3
-85612.3
-79756.2
-75154.4
-71431.7
-68774.5
-64781.6
-59431.8
-51989
-47431
-44321.3
-38700.2
-34673.4
-32266.8
-29816
-25476.1
-20115.3
-12628.1
-6748.47
-3943.08
219.09
-8.80213e+07
-2.53126e+06
-732842
3.73592e+06
1.09781e+07
5.50462e+07
-3.32485e+06
-2.07323e+06
-423821
-6.50647e+06
9.50969e+07
3.13357e+06
-639962
-698537
-7.27545e+06
5.45657e+07
-3.15268e+06
-2.52314e+06
-2.68131e+06
-6.95245e+06
-7.6533e+07
-1.43453e+07
-2.17574e+06
-2.77267e+06
-8.49014e+06
-1.56421e+06
3.03431e+06
1.01506e+06
198830
-54401.5
-116951
-129515
-130329
-123842
-122602
-116783
-116537
-111339
-111779
-105994
-105745
-100126
-100717
-96410
-98104.5
-95187.6
-96880.2
-92625.8
-93316.3
-87767.7
-87398
-80522.5
-79653.7
-72294.5
-71099.3
-63337.1
-61959.1
-54310.4
-53251.5
-45626.8
-44927.7
-37321
-36147.6
-28629.1
-27085.2
-19313.3
-17665.3
-10652.5
-9437.92
-2054.19
-7.9628e+06
318190
-8343.31
-11961.1
-84988.4
-114349
-125457
-127242
-123450
-121798
-117260
-116070
-111937
-111103
-106474
-105141
-100683
-100247
-97064.7
-97784.3
-95626.6
-96343.6
-93075.8
-92718.7
-88194.2
-86725
-81081.9
-78987.9
-72867.8
-70438.5
-63957.4
-61390.9
-55000.1
-52646.8
-46362.1
-44267.5
-37948.1
-35543
-29165.1
-26527
-19971.8
-17311.4
-11233.5
-8619.36
-1464.97
-7.5443e+06
-820343
-583509
-236838
-168328
-138331
-131134
-126888
-123561
-120903
-117792
-115453
-112584
-110346
-107063
-104425
-101421
-99644.7
-97896.8
-97218
-96301.8
-95567
-93702
-91876.5
-88809.2
-85853.5
-81787.4
-78158.5
-73605.5
-69604.4
-64759
-60616.7
-55835.8
-51883.8
-47226.6
-43460.9
-38758.6
-34724.8
-29959.2
-25719.6
-20838.6
-16640.9
-12004.5
-8039.72
-3338.61
-6.40908e+06
-1.36806e+06
-865423
-359463
-207753
-146383
-130766
-125366
-122787
-120419
-117809
-115370
-112689
-110184
-107109
-104332
-101596
-99680.3
-98119.7
-97244.6
-96370.8
-95411.4
-93685.5
-91673.7
-88777.6
-85667.7
-81815.6
-78028
-73653.9
-69489.2
-64846.6
-60555.1
-55942
-51838.1
-47348
-43382.2
-38826.4
-34632.7
-30022.4
-25647.5
-20960.7
-16624.9
-12158.4
-7811.61
-2563.49
-7.21746e+06
-2.01912e+06
-887767
-229085
-101353
-90733.9
-108090
-117477
-120709
-119799
-118000
-115312
-112976
-110004
-107358
-104207
-101977
-99642.5
-98519.7
-97144.1
-96636
-95111.4
-93881.2
-91334.1
-88980.2
-85351
-82073.5
-77750.9
-73935
-69209.8
-65166.9
-60306.5
-56281.7
-51594.7
-47691.1
-43087.7
-39138.1
-34335.4
-30340
-25370.7
-21308.3
-16391
-12552.3
-7851.85
-4100.85
)
;

boundaryField
{
    AirInlet
    {
        type            fixedFluxPressure;
        gradient        uniform 2.6324e+08;
        value           uniform -1.18091e+07;
    }
    WaterInlet
    {
        type            fixedFluxPressure;
        gradient        nonuniform List<scalar> 10(0 -0.109867 0 0 -0.107654 0 0 -0.114169 -0.292979 -0.317794);
        value           nonuniform List<scalar> 10(-7.65374e+07 5.45611e+07 9.50921e+07 5.50412e+07 -8.80263e+07 -8.80213e+07 5.50462e+07 9.50969e+07 5.45657e+07 -7.6533e+07);
    }
    ChannelWall
    {
        type            fixedFluxPressure;
        gradient        uniform 0;
        value           nonuniform List<scalar> 
110
(
-8.80263e+07
-2.53523e+06
-735574
3.73375e+06
1.09757e+07
-8.80213e+07
-2.53126e+06
-732842
3.73592e+06
1.09781e+07
-7.6533e+07
-1.43453e+07
-2.17574e+06
-2.77267e+06
-8.49014e+06
-7.21746e+06
-2.01912e+06
-887767
-229085
-101353
-90733.9
-108090
-117477
-120709
-119799
-118000
-115312
-112976
-110004
-107358
-104207
-101977
-99642.5
-98519.7
-97144.1
-96636
-95111.4
-93881.2
-91334.1
-88980.2
-85351
-82073.5
-77750.9
-73935
-69209.8
-65166.9
-60306.5
-56281.7
-51594.7
-47691.1
-43087.7
-39138.1
-34335.4
-30340
-25370.7
-21308.3
-16391
-12552.3
-7851.85
-4100.85
-7.65374e+07
-1.43492e+07
-2.17923e+06
-2.77549e+06
-8.49172e+06
-7.21792e+06
-2.01846e+06
-886014
-227310
-100049
-90633.4
-109137
-118937
-121864
-120464
-117910
-114716
-112440
-110085
-107929
-104814
-102008
-99051.6
-97560.9
-96343.3
-96246.9
-95253.2
-94356.6
-91993.3
-89567.9
-85844
-82386.9
-77994.2
-74077.2
-69377.4
-65286.4
-60433.4
-56313.9
-51568.3
-47556.1
-42940.7
-38951.8
-34187.1
-30166.5
-25240.2
-21175.5
-16219
-12333.2
-7392.94
-3672.21
)
;
    }
    Outlet
    {
        type            totalPressure;
        rho             rho;
        psi             none;
        gamma           1;
        p0              uniform 0;
        value           uniform 0;
    }
    FrontAndBack
    {
        type            empty;
    }
}


// ************************************************************************* //
