/*--------------------------------*- C++ -*----------------------------------*\
| =========                 |                                                 |
| \\      /  F ield         | OpenFOAM: The Open Source CFD Toolbox           |
|  \\    /   O peration     | Version:  2.3.0                                 |
|   \\  /    A nd           | Web:      www.OpenFOAM.org                      |
|    \\/     M anipulation  |                                                 |
\*---------------------------------------------------------------------------*/
FoamFile
{
    version     2.0;
    format      ascii;
    class       volScalarField;
    location    "0.222";
    object      p_rgh;
}
// * * * * * * * * * * * * * * * * * * * * * * * * * * * * * * * * * * * * * //

dimensions      [1 -1 -2 0 0 0 0];

internalField   nonuniform List<scalar> 
545
(
-8.37538e+07
-1.53694e+07
-1.99476e+06
-2.63399e+06
-8.90038e+06
6.04021e+07
-3.06092e+06
-2.36939e+06
-2.52876e+06
-7.22353e+06
1.04969e+08
3.85189e+06
-301513
-357033
-7.58576e+06
6.09302e+07
-3.25095e+06
-1.87903e+06
-72479.3
-6.77364e+06
-9.6385e+07
-2.37377e+06
-398393
4.4937e+06
1.2304e+07
-7.30696e+06
-1.86045e+06
-745428
-33229
73984
81056.5
64330.4
53914.6
47244.5
42726.6
40252.6
37559.1
35712.3
32967.9
31043.8
28202.4
26265.9
23524.4
21868.3
19273.3
17890.6
15538
14512.5
12442.3
11689.6
9881.66
9364.96
7704.32
7479.74
6122.66
6137.74
5087.24
5517.43
4728.36
5425.15
4823.37
5733.5
5149.72
6016.42
5096.99
5628.67
4408.76
4422.27
3049.39
3177.97
-6.43196e+06
-1.14017e+06
-701706
-156523
-33124.8
25022.3
39953.3
44780.1
43996.2
42128.2
39945.7
37873
35585.6
33297
30848.2
28504.6
26038.2
23836.7
21612.6
19596.7
17632.2
15877.9
14228.6
12814.5
11387.8
10254.5
9049.55
8070.96
7128.1
6496.24
5781.9
5444.31
5164.77
5118.1
5068.31
5231.17
5364.49
5579.08
5635.5
5540.14
5227.13
4806.83
3872.52
2986.58
827.367
-7.55478e+06
-531134
-407338
-18926.9
4180.98
29807.1
38329.3
43256.3
43407
41589
40005.4
37650.4
35821.4
33082.9
31084.1
28272.4
26265.4
23597.9
21879.7
19359.1
17916
15615.7
14512.2
12554
11668.3
9991.74
9344.13
7767.04
7421.16
6203.9
6078.85
5128.67
5495.09
4817.15
5395.12
4910.22
5699.64
5255.51
5985.88
5212.03
5548.85
4490.02
4030.03
2637.9
2222.64
-7.99899e+06
681614
189124
223944
83702.5
51738.7
43957.6
44459.2
43612
41369.1
39889.1
37592.4
35847.5
33041.2
31082.7
28265.4
26227
23606.6
21898
19393.2
17934.6
15622
14505.8
12593
11628.6
10048.2
9322.49
7770.97
7369.62
6298.67
5988.4
5194.13
5462.92
4903.35
5345.49
4945.32
5647.94
5308.14
5928.28
5248.19
5470.27
4586.66
3799.35
2111.41
225.067
-1.84698e+06
3.45896e+06
1.21053e+06
427638
115248
59854.9
47200.6
43970.6
43500.4
40687
40059.2
37221.8
36269.3
32610.3
31477.8
27875.8
26561.3
23195.6
22390.3
18957.4
18469.9
15100.7
15043.5
12114.6
12101.2
9594.42
9874.12
7176.03
7891.81
5880.92
6422.1
4696.02
6032.39
4411.79
5920.56
4328.51
6284.72
4649.4
6593.68
4555.26
6004.66
4214.62
4055.42
1756.74
2191.46
-1.43223e+07
4.93541e+06
1.98301e+06
556984
122628
57588
45671.4
46081.7
45716.7
44574.8
43943.5
41410.4
37645.4
33581.4
31340.2
32039.9
30350
27380.3
24664.5
23116.9
20648.9
16438.6
16356.2
15517.8
14660.2
13040.3
10096.6
8142.38
7837.9
10770.7
11019.8
8946.66
8586.17
8827.06
7540.52
5508.86
5300.58
6076.14
9511.35
11140.5
8532.79
7315.06
8193.42
6149.62
322.136
-9.63891e+07
-2.37765e+06
-401855
4.49074e+06
1.23017e+07
6.09261e+07
-3.25482e+06
-1.88249e+06
-75439.6
-6.77598e+06
1.04965e+08
3.84802e+06
-304965
-359981
-7.5881e+06
6.0398e+07
-3.06476e+06
-2.37282e+06
-2.53168e+06
-7.22585e+06
-8.37578e+07
-1.53733e+07
-1.99817e+06
-2.63687e+06
-8.9027e+06
-1.84865e+06
3.45968e+06
1.2093e+06
428592
114044
60983.6
45902.2
45114.4
42333.7
41846.7
38878.7
38405.4
35042.2
33932.9
30172.1
29098
25326.4
24454.6
21148.8
20243.5
17228.9
16509.8
13755.6
13467.1
10792.1
10948.7
8507.16
8639.72
6503.23
7195.6
5133.34
6061.94
4727.64
5773.81
4580.05
5820.77
4814.32
6116.77
5254.34
5874.51
4641.16
5572.14
2734.4
3304.03
966.701
-8.00077e+06
681572
188156
224280
82878.6
52232.2
43160
45032.2
42950.1
41997.1
39231.7
38240.9
35172.6
33763.7
30364.4
28928.7
25555.9
24323.4
21246.3
20144.2
17307.6
16456.9
13857.1
13378.2
10948.3
10819.6
8604.83
8599.59
6638.74
7044.2
5313.72
5996.76
4791.31
5698.03
4653.96
5793.38
4865.8
6110.38
5183.35
5945.13
4695.1
5333.55
3093.01
2977.2
-464.446
-7.55645e+06
-531855
-408061
-19163.2
3676.31
29740.8
37935.8
43332.3
43168.1
41750.7
39797.8
37829.4
35616.3
33291.7
30859.1
28463.1
26084
23847.8
21744.5
19651.1
17820.5
15959.7
14408.7
12859.5
11531.2
10269.6
9180.65
8064.68
7251.06
6471.16
5945.37
5444.91
5378.67
5125.29
5263.62
5215.28
5491.15
5495.88
5737.54
5365.34
5266.41
4695.21
3818.64
2941.15
2101.04
-6.43365e+06
-1.14117e+06
-702431
-157016
-33591.3
24716.4
39649.8
44652.2
43876.9
42120.1
39880.8
37887.9
35528.6
33320.9
30788
28536.1
26025.2
23935.9
21663.4
19750.3
17730.4
16069.5
14325.6
12975
11448.9
10380.9
9084.53
8196.5
7162.56
6619.01
5847.17
5612.82
5253.44
5282.79
5139.05
5362.46
5360.21
5623.43
5547.26
5493.04
5096.2
4793.88
3821.81
3070.13
830.163
-7.30866e+06
-1.86159e+06
-746176
-33843.9
73495.1
80646.5
64015.1
53708.7
47142.3
42668.5
40218.8
37525.1
35688.6
32935.7
31022.3
28193.5
26296
23587.6
21972.1
19399
18047.6
15697.6
14670.5
12576.6
11811.6
9976.5
9459.87
7789.36
7573.3
6219.75
6263.19
5226.6
5668.36
4868.19
5558.67
4915.55
5787.1
5148.95
5960.51
5002.2
5515.76
4335.22
4383.69
3087.11
3272.17
)
;

boundaryField
{
    AirInlet
    {
        type            fixedFluxPressure;
        gradient        uniform 3.63632e+08;
        value           uniform -1.43186e+07;
    }
    WaterInlet
    {
        type            fixedFluxPressure;
        gradient        uniform 0;
        value           nonuniform List<scalar> 10(-8.37538e+07 6.04021e+07 1.04969e+08 6.09302e+07 -9.6385e+07 -9.63891e+07 6.09261e+07 1.04965e+08 6.0398e+07 -8.37578e+07);
    }
    ChannelWall
    {
        type            fixedFluxPressure;
        gradient        uniform 0;
        value           nonuniform List<scalar> 
110
(
-9.6385e+07
-2.37377e+06
-398393
4.4937e+06
1.2304e+07
-9.63891e+07
-2.37765e+06
-401855
4.49074e+06
1.23017e+07
-8.37578e+07
-1.53733e+07
-1.99817e+06
-2.63687e+06
-8.9027e+06
-7.30866e+06
-1.86159e+06
-746176
-33843.9
73495.1
80646.5
64015.1
53708.7
47142.3
42668.5
40218.8
37525.1
35688.6
32935.7
31022.3
28193.5
26296
23587.6
21972.1
19399
18047.6
15697.6
14670.5
12576.6
11811.6
9976.5
9459.87
7789.36
7573.3
6219.75
6263.19
5226.6
5668.36
4868.19
5558.67
4915.55
5787.1
5148.95
5960.51
5002.2
5515.76
4335.22
4383.69
3087.11
3272.17
-8.37538e+07
-1.53694e+07
-1.99476e+06
-2.63399e+06
-8.90038e+06
-7.30696e+06
-1.86045e+06
-745428
-33229
73984
81056.5
64330.4
53914.6
47244.5
42726.6
40252.6
37559.1
35712.3
32967.9
31043.8
28202.4
26265.9
23524.4
21868.3
19273.3
17890.6
15538
14512.5
12442.3
11689.6
9881.66
9364.96
7704.32
7479.74
6122.66
6137.74
5087.24
5517.43
4728.36
5425.15
4823.37
5733.5
5149.72
6016.42
5096.99
5628.67
4408.76
4422.27
3049.39
3177.97
)
;
    }
    Outlet
    {
        type            totalPressure;
        rho             rho;
        psi             none;
        gamma           1;
        p0              uniform 0;
        value           uniform 0;
    }
    FrontAndBack
    {
        type            empty;
    }
}


// ************************************************************************* //
