/*--------------------------------*- C++ -*----------------------------------*\
| =========                 |                                                 |
| \\      /  F ield         | OpenFOAM: The Open Source CFD Toolbox           |
|  \\    /   O peration     | Version:  2.3.0                                 |
|   \\  /    A nd           | Web:      www.OpenFOAM.org                      |
|    \\/     M anipulation  |                                                 |
\*---------------------------------------------------------------------------*/
FoamFile
{
    version     2.0;
    format      ascii;
    class       volScalarField;
    location    "2.6";
    object      nut.air;
}
// * * * * * * * * * * * * * * * * * * * * * * * * * * * * * * * * * * * * * //

dimensions      [0 2 -1 0 0 0 0];

internalField   nonuniform List<scalar> 
10000
(
1.56288e-06
1.53967e-06
1.18215e-06
1.02856e-06
4.10173e-07
1.91118e-07
3.29387e-08
1.19274e-08
2.20534e-08
4.39425e-08
4.15112e-09
8.15218e-09
1.40459e-08
9.69846e-08
2.53171e-07
9.05574e-07
2.68022e-06
2.11219e-06
1.48977e-06
1.75306e-06
1.30724e-06
1.03298e-06
1.92134e-06
1.85834e-06
6.6172e-08
5.92765e-09
2.14392e-08
7.74577e-09
1.82313e-08
6.01842e-08
3.33845e-08
3.1928e-08
1.36504e-09
1.01877e-09
2.4062e-09
5.48129e-07
4.85927e-06
2.86974e-06
3.88912e-06
2.65547e-06
2.95458e-06
1.36786e-06
4.60859e-06
2.32453e-06
8.13671e-08
8.34218e-08
3.76627e-08
2.73718e-08
2.68508e-08
2.84775e-08
1.23535e-07
1.0051e-07
1.09487e-09
5.74179e-10
2.53665e-08
9.5198e-07
3.15607e-06
5.18132e-06
3.66604e-06
2.8335e-06
6.76011e-06
3.76303e-06
4.29087e-06
2.02862e-06
8.65379e-08
1.79105e-08
1.99349e-08
2.09154e-08
2.22639e-08
2.17017e-08
1.99403e-08
1.99072e-08
1.24254e-08
1.56257e-08
3.37056e-08
1.10151e-06
3.09825e-06
5.11715e-06
3.44612e-06
2.57814e-06
6.92021e-06
2.3341e-06
2.81063e-06
1.52398e-06
1.27678e-07
2.08858e-08
2.12765e-08
2.11299e-08
2.26119e-08
2.28697e-08
2.15595e-08
2.27877e-08
2.37559e-08
1.82697e-08
4.27253e-08
1.63944e-06
5.61722e-06
5.3863e-06
3.59942e-06
2.51663e-06
6.21914e-07
6.95521e-07
3.50767e-06
9.05048e-07
2.13534e-07
1.74594e-08
2.04991e-08
2.09077e-08
2.15428e-08
2.14775e-08
2.09628e-08
2.06554e-08
2.07168e-08
1.53661e-08
5.29446e-08
3.44285e-06
5.76158e-06
5.4353e-06
3.17766e-06
1.3588e-06
7.95301e-07
2.28498e-06
3.64904e-06
1.92636e-06
3.10748e-07
1.02875e-08
1.54581e-08
1.52589e-08
1.35405e-08
1.34733e-08
1.4557e-08
1.40951e-08
1.49423e-08
1.22453e-08
6.39515e-08
4.26751e-06
6.16775e-06
5.6202e-06
2.95799e-06
8.47349e-07
1.72589e-06
3.51817e-06
3.95665e-06
2.02786e-06
5.57193e-07
1.41648e-08
1.65691e-08
1.61611e-08
2.28104e-08
2.36216e-08
1.77892e-08
1.99124e-08
1.84543e-08
1.38638e-08
6.82101e-08
5.21129e-06
6.59138e-06
5.90242e-06
2.33245e-06
5.4054e-07
4.82572e-06
3.39569e-06
2.3033e-06
2.38452e-06
8.31347e-07
4.6811e-07
6.01003e-07
6.41457e-07
8.67721e-07
1.00889e-06
7.23116e-07
7.8507e-07
7.37602e-07
5.33585e-07
1.0684e-06
7.32506e-06
7.81474e-06
6.349e-06
1.34423e-06
1.72316e-07
5.37028e-06
1.68646e-06
1.52263e-06
2.15487e-06
8.00297e-07
3.27628e-06
4.66037e-06
4.69909e-06
5.16355e-06
5.20304e-06
4.85495e-06
5.06244e-06
4.75844e-06
3.38484e-06
3.33074e-06
3.95046e-06
1.06019e-05
7.35716e-06
7.78412e-08
1.2456e-07
1.98111e-06
1.22629e-06
1.00662e-06
2.85445e-06
2.01383e-06
5.13683e-06
7.51251e-06
8.66421e-06
8.71178e-06
8.74758e-06
8.81252e-06
8.9708e-06
8.36497e-06
4.58047e-06
5.18706e-06
6.14598e-06
1.19691e-05
7.68554e-06
3.48554e-08
8.2712e-08
9.728e-07
7.30947e-07
7.63352e-07
2.15245e-06
1.31244e-06
3.61822e-06
5.28606e-06
7.32065e-06
6.03916e-06
6.01742e-06
6.6815e-06
7.41417e-06
8.60453e-06
7.06334e-06
7.92085e-06
8.64605e-06
1.3628e-05
7.536e-06
3.56624e-07
1.56454e-06
2.52566e-06
1.85709e-06
3.69116e-06
1.32281e-06
1.43824e-06
2.04416e-06
1.33349e-06
4.86071e-06
1.53415e-06
3.68825e-06
3.79765e-06
5.35575e-06
7.14858e-06
8.80551e-06
9.58481e-06
9.92203e-06
1.46125e-05
7.08985e-06
4.27795e-06
1.00323e-06
5.94502e-06
5.16285e-06
5.88063e-06
2.90254e-06
9.87361e-07
2.29014e-06
2.92792e-06
3.14237e-06
3.60529e-06
4.04783e-06
4.45367e-06
6.94301e-06
9.28165e-06
1.09108e-05
1.13707e-05
1.11539e-05
1.47118e-05
5.97604e-06
5.06563e-06
1.8623e-06
6.38825e-06
3.95274e-06
6.34226e-06
2.91334e-06
9.65508e-07
2.51289e-06
3.21185e-06
3.2539e-06
4.13611e-06
4.80697e-06
5.535e-06
8.73852e-06
1.12751e-05
1.28522e-05
1.30616e-05
1.22159e-05
1.37175e-05
4.85615e-06
2.06761e-06
1.05319e-06
3.67079e-06
1.49693e-06
4.5426e-06
2.64007e-06
1.06838e-06
2.84821e-06
3.41332e-06
3.46515e-06
4.51764e-06
5.525e-06
6.73563e-06
1.03692e-05
1.29884e-05
1.45061e-05
1.43805e-05
1.30866e-05
1.24837e-05
4.26281e-06
5.1221e-07
1.1823e-06
1.51516e-06
9.1661e-07
2.89214e-06
1.91109e-06
1.67202e-06
3.61822e-06
3.58645e-06
3.65251e-06
4.7185e-06
5.9945e-06
7.72343e-06
1.15187e-05
1.41082e-05
1.55137e-05
1.5301e-05
1.35259e-05
1.08401e-05
3.73435e-06
1.57423e-07
8.05166e-07
2.99899e-06
2.45546e-06
1.53749e-06
1.1592e-06
3.02375e-06
5.5661e-06
3.59827e-06
3.92444e-06
4.48312e-06
6.05044e-06
8.2586e-06
1.17731e-05
1.42605e-05
1.55851e-05
1.52782e-05
1.30786e-05
8.61379e-06
3.09307e-06
4.11363e-08
1.67004e-06
2.23444e-06
1.94819e-06
9.87038e-07
4.82168e-07
5.04969e-06
6.39186e-06
3.9352e-06
4.63227e-06
4.58536e-06
5.94683e-06
9.61599e-06
1.06964e-05
1.2805e-05
1.3978e-05
1.36207e-05
1.11396e-05
5.40052e-06
1.40314e-06
1.27143e-08
1.25549e-06
2.69341e-07
1.75495e-07
1.56422e-07
6.70058e-08
2.38558e-06
3.72231e-06
5.55568e-06
5.99391e-06
4.98622e-06
6.14451e-06
8.87277e-06
1.09285e-05
1.18658e-05
1.29687e-05
1.26174e-05
1.01112e-05
1.53242e-06
1.00267e-07
1.72209e-08
3.36498e-07
1.65634e-06
1.64122e-06
1.31076e-06
1.18575e-06
4.20019e-07
1.92158e-07
3.15515e-08
1.33513e-08
1.97785e-08
4.26249e-08
4.39777e-09
8.10148e-09
1.29855e-08
9.53846e-08
2.63588e-07
8.99238e-07
2.59617e-06
2.13859e-06
1.67999e-06
1.82752e-06
1.43838e-06
1.35229e-06
1.9525e-06
1.56463e-06
8.19995e-08
5.40473e-09
2.13407e-08
7.45425e-09
1.83486e-08
5.70809e-08
3.27487e-08
3.15518e-08
1.17823e-09
9.9771e-10
2.17614e-09
5.11993e-07
5.04171e-06
3.10278e-06
3.78039e-06
2.98036e-06
3.01021e-06
1.39557e-06
3.91969e-06
1.8675e-06
1.13332e-07
8.07679e-08
3.71488e-08
2.67808e-08
2.67161e-08
2.85161e-08
1.2012e-07
1.04177e-07
7.2782e-10
4.95838e-10
2.42893e-08
1.04789e-06
3.47502e-06
4.85485e-06
3.65413e-06
3.03327e-06
6.61903e-06
3.02243e-06
3.46405e-06
1.8375e-06
1.11988e-07
1.85888e-08
1.98378e-08
2.07931e-08
2.208e-08
2.14657e-08
2.00097e-08
1.99835e-08
1.32793e-08
1.75882e-08
3.10578e-08
1.30534e-06
3.3273e-06
4.87815e-06
3.49783e-06
2.85126e-06
6.65305e-06
2.39402e-06
1.97086e-06
1.67338e-06
1.34976e-07
2.14948e-08
2.11733e-08
2.10099e-08
2.24552e-08
2.27456e-08
2.1429e-08
2.26478e-08
2.34809e-08
1.87792e-08
3.97885e-08
2.02625e-06
5.19145e-06
5.11717e-06
3.576e-06
2.77585e-06
9.47675e-07
1.11956e-06
2.85373e-06
1.25134e-06
1.87776e-07
1.75802e-08
2.05593e-08
2.09566e-08
2.17919e-08
2.17267e-08
2.10556e-08
2.08165e-08
2.08077e-08
1.62847e-08
4.87852e-08
3.65697e-06
5.53553e-06
5.24936e-06
3.27597e-06
1.96432e-06
1.36408e-06
1.42366e-06
3.2548e-06
1.44233e-06
2.91299e-07
1.06572e-08
1.62818e-08
1.60381e-08
1.42181e-08
1.41155e-08
1.53262e-08
1.48792e-08
1.57828e-08
1.339e-08
5.84959e-08
4.44901e-06
5.94198e-06
5.44158e-06
3.11009e-06
1.5593e-06
1.6521e-06
2.88257e-06
3.49245e-06
1.87081e-06
6.08092e-07
1.28774e-08
1.53597e-08
1.5107e-08
2.04395e-08
2.10846e-08
1.6374e-08
1.81246e-08
1.71444e-08
1.32925e-08
6.12939e-08
5.46231e-06
6.34465e-06
5.72453e-06
2.69049e-06
1.25445e-06
4.00459e-06
3.0968e-06
2.38509e-06
2.15469e-06
1.01865e-06
4.24377e-07
5.44364e-07
5.89806e-07
7.95207e-07
9.35489e-07
6.64047e-07
7.25456e-07
6.90384e-07
4.96432e-07
9.74849e-07
7.37494e-06
8.05671e-06
6.22293e-06
2.08403e-06
8.16641e-07
4.44967e-06
1.78875e-06
1.73787e-06
2.2782e-06
1.1909e-06
3.54496e-06
4.94508e-06
4.99956e-06
5.45785e-06
5.50109e-06
5.16061e-06
5.35782e-06
5.05153e-06
3.67373e-06
3.6448e-06
4.41905e-06
1.05644e-05
7.22868e-06
7.03414e-07
3.83905e-08
2.07306e-06
1.43161e-06
1.37775e-06
3.1298e-06
2.12302e-06
5.15503e-06
7.5228e-06
8.67303e-06
8.72156e-06
8.75872e-06
8.82254e-06
8.97862e-06
8.37232e-06
4.81604e-06
5.43418e-06
6.47819e-06
1.19647e-05
7.58154e-06
1.38788e-07
1.45783e-07
1.14266e-06
9.31311e-07
1.01025e-06
2.74729e-06
1.53743e-06
3.67207e-06
5.34126e-06
7.33337e-06
6.08995e-06
6.07434e-06
6.71032e-06
7.44929e-06
8.62913e-06
7.2922e-06
8.16729e-06
8.98317e-06
1.35438e-05
7.56651e-06
8.57352e-07
2.23675e-06
1.93191e-06
1.80102e-06
2.58349e-06
1.62978e-06
1.67141e-06
2.26506e-06
1.92119e-06
4.90265e-06
2.03835e-06
3.90515e-06
4.02141e-06
5.58253e-06
7.38564e-06
9.05697e-06
9.84874e-06
1.02746e-05
1.4502e-05
7.2777e-06
4.467e-06
1.61394e-06
4.91623e-06
4.23602e-06
5.01408e-06
2.48477e-06
1.3252e-06
2.51425e-06
3.15271e-06
3.36347e-06
3.83727e-06
4.27157e-06
4.68556e-06
7.17974e-06
9.529e-06
1.11678e-05
1.16379e-05
1.14989e-05
1.47084e-05
6.4536e-06
5.30482e-06
1.18664e-06
5.35457e-06
3.73053e-06
5.42413e-06
2.68723e-06
1.28968e-06
2.73735e-06
3.42902e-06
3.47666e-06
4.35842e-06
5.03351e-06
5.77076e-06
8.98212e-06
1.15287e-05
1.31133e-05
1.33311e-05
1.25464e-05
1.38795e-05
5.55834e-06
2.18541e-06
1.17871e-06
3.59373e-06
1.47387e-06
4.48156e-06
2.53015e-06
1.37783e-06
3.07458e-06
3.63033e-06
3.68886e-06
4.73873e-06
5.75219e-06
6.97438e-06
1.06158e-05
1.32447e-05
1.47688e-05
1.46515e-05
1.34012e-05
1.27943e-05
5.0045e-06
5.90428e-07
1.25014e-06
1.73985e-06
9.03777e-07
2.78597e-06
1.87736e-06
1.9622e-06
3.84605e-06
3.80586e-06
3.8768e-06
4.93933e-06
6.22149e-06
7.96307e-06
1.17681e-05
1.43665e-05
1.57772e-05
1.55716e-05
1.38265e-05
1.12632e-05
4.29373e-06
2.05667e-07
9.85133e-07
1.76043e-06
1.75481e-06
1.41746e-06
1.15226e-06
3.28189e-06
5.78081e-06
3.83588e-06
4.15115e-06
4.71782e-06
6.28859e-06
8.49528e-06
1.20303e-05
1.45246e-05
1.5854e-05
1.55534e-05
1.33764e-05
9.07298e-06
3.27583e-06
6.45388e-08
1.19938e-06
1.72157e-06
1.32541e-06
4.32268e-07
4.63875e-07
5.08747e-06
6.40188e-06
4.17168e-06
4.85976e-06
4.82329e-06
6.18578e-06
9.62203e-06
1.09468e-05
1.30639e-05
1.42393e-05
1.38851e-05
1.1421e-05
5.83661e-06
1.40481e-06
2.02439e-08
1.10213e-06
1.14325e-07
3.11517e-08
3.75282e-08
6.31891e-08
2.436e-06
3.75024e-06
5.77253e-06
6.22041e-06
5.21259e-06
6.37398e-06
8.88384e-06
1.09383e-05
1.21201e-05
1.32264e-05
1.28778e-05
1.03782e-05
1.78565e-06
1.01668e-07
4.94061e-08
1.9718e-07
1.73177e-06
1.69872e-06
1.35649e-06
1.25539e-06
4.30852e-07
1.92491e-07
3.09518e-08
1.61459e-08
1.91494e-08
4.19788e-08
4.2723e-09
8.093e-09
1.2701e-08
9.32879e-08
2.71168e-07
8.99942e-07
2.56263e-06
2.20458e-06
1.86687e-06
1.91164e-06
1.62541e-06
1.74746e-06
1.96052e-06
1.53685e-06
8.42126e-08
5.21813e-09
2.13176e-08
7.33128e-09
1.85687e-08
5.57008e-08
3.25998e-08
3.14259e-08
1.19955e-09
1.03243e-09
2.02474e-09
4.84585e-07
5.31675e-06
3.42276e-06
3.8122e-06
3.43504e-06
3.08762e-06
1.463e-06
3.43432e-06
1.70012e-06
1.24037e-07
7.70346e-08
3.64322e-08
2.64404e-08
2.64494e-08
2.81362e-08
1.15775e-07
1.03713e-07
7.03007e-10
5.41229e-10
2.30608e-08
1.13915e-06
3.95547e-06
4.69426e-06
3.75965e-06
3.39894e-06
6.31377e-06
2.49614e-06
2.96864e-06
1.83598e-06
1.18934e-07
1.89056e-08
1.97662e-08
2.06751e-08
2.18841e-08
2.13255e-08
2.00175e-08
1.99974e-08
1.30934e-08
1.8464e-08
2.98449e-08
1.47851e-06
3.65621e-06
4.77942e-06
3.64566e-06
3.25866e-06
6.15562e-06
2.33016e-06
1.89682e-06
1.93034e-06
1.33792e-07
2.10624e-08
2.10513e-08
2.08845e-08
2.22513e-08
2.25291e-08
2.12887e-08
2.24734e-08
2.32426e-08
1.89275e-08
3.83738e-08
2.37246e-06
4.98027e-06
5.00409e-06
3.67507e-06
3.16543e-06
1.45454e-06
1.48444e-06
2.43151e-06
1.81033e-06
1.63815e-07
1.76162e-08
2.04396e-08
2.07901e-08
2.16014e-08
2.15967e-08
2.09e-08
2.06769e-08
2.06774e-08
1.66522e-08
4.67469e-08
3.82832e-06
5.47649e-06
5.20112e-06
3.47439e-06
2.52172e-06
2.21612e-06
1.17297e-06
2.98227e-06
1.39085e-06
2.40807e-07
1.07269e-08
1.66069e-08
1.63529e-08
1.45283e-08
1.44152e-08
1.56521e-08
1.52155e-08
1.61261e-08
1.38922e-08
5.56927e-08
4.66027e-06
5.89229e-06
5.41152e-06
3.35456e-06
2.17643e-06
1.73213e-06
2.42664e-06
3.26028e-06
1.86401e-06
6.0477e-07
1.23828e-08
1.4893e-08
1.47037e-08
1.94816e-08
2.00443e-08
1.58232e-08
1.74091e-08
1.66192e-08
1.30864e-08
5.7811e-08
5.73829e-06
6.37796e-06
5.71512e-06
3.11148e-06
1.85679e-06
3.47174e-06
2.73762e-06
2.50912e-06
2.13964e-06
1.1556e-06
3.84813e-07
4.91166e-07
5.5483e-07
7.15784e-07
8.4508e-07
6.19266e-07
6.59368e-07
6.34774e-07
4.6453e-07
8.82767e-07
7.44652e-06
8.42698e-06
6.26811e-06
2.68466e-06
1.36757e-06
3.90636e-06
1.89836e-06
2.05051e-06
2.51784e-06
1.56692e-06
3.73943e-06
5.16572e-06
5.21229e-06
5.68528e-06
5.7317e-06
5.37746e-06
5.58441e-06
5.27793e-06
3.90899e-06
3.8942e-06
4.839e-06
1.06996e-05
7.26425e-06
1.41725e-06
5.41153e-08
2.17112e-06
1.6504e-06
1.83823e-06
3.579e-06
2.27813e-06
5.18222e-06
7.54062e-06
8.68803e-06
8.73831e-06
8.77749e-06
8.83947e-06
8.99166e-06
8.38336e-06
5.00301e-06
5.61892e-06
6.7663e-06
1.21113e-05
7.61424e-06
5.0152e-07
1.92518e-07
1.34486e-06
1.21304e-06
1.36461e-06
3.63664e-06
1.81156e-06
3.74736e-06
5.42765e-06
7.35563e-06
6.16987e-06
6.16246e-06
6.75419e-06
7.50495e-06
8.66777e-06
7.4791e-06
8.36549e-06
9.30449e-06
1.36148e-05
7.70983e-06
1.48472e-06
2.66908e-06
1.73889e-06
1.72176e-06
2.29277e-06
2.39188e-06
1.95655e-06
2.47957e-06
2.36014e-06
4.96334e-06
2.46801e-06
4.12381e-06
4.20969e-06
5.783e-06
7.58172e-06
9.25846e-06
1.00615e-05
1.06071e-05
1.45396e-05
7.58022e-06
4.76011e-06
2.40373e-06
4.1196e-06
3.51888e-06
4.35342e-06
2.47959e-06
1.70596e-06
2.72555e-06
3.39268e-06
3.55719e-06
4.06903e-06
4.49049e-06
4.87332e-06
7.3801e-06
9.72885e-06
1.13725e-05
1.18536e-05
1.18197e-05
1.48389e-05
7.00506e-06
5.56892e-06
1.07316e-06
4.542e-06
3.38721e-06
4.713e-06
2.74658e-06
1.65699e-06
2.94271e-06
3.65926e-06
3.6714e-06
4.57658e-06
5.24481e-06
5.9558e-06
9.18146e-06
1.17311e-05
1.33212e-05
1.35481e-05
1.28454e-05
1.41564e-05
6.3184e-06
2.36546e-06
1.22974e-06
3.36455e-06
1.41372e-06
4.23063e-06
2.65456e-06
1.71384e-06
3.27355e-06
3.85585e-06
3.8812e-06
4.9512e-06
5.95891e-06
7.15787e-06
1.08146e-05
1.34488e-05
1.49779e-05
1.48696e-05
1.36784e-05
1.3219e-05
5.78875e-06
6.95431e-07
1.35822e-06
1.69845e-06
8.20747e-07
2.56817e-06
1.98776e-06
2.25089e-06
4.03492e-06
4.03005e-06
4.06763e-06
5.15019e-06
6.4249e-06
8.14548e-06
1.19685e-05
1.4573e-05
1.5988e-05
1.57891e-05
1.40865e-05
1.18036e-05
4.94513e-06
2.5726e-07
1.1318e-06
1.22914e-06
1.07921e-06
1.12988e-06
1.19087e-06
3.52655e-06
5.95699e-06
4.07052e-06
4.34058e-06
4.93956e-06
6.49886e-06
8.67357e-06
1.22374e-05
1.4736e-05
1.60692e-05
1.57747e-05
1.36314e-05
9.65493e-06
3.5663e-06
8.70325e-08
9.82771e-07
1.14832e-06
7.26152e-07
2.33048e-07
3.37884e-07
5.14166e-06
6.41858e-06
4.36798e-06
5.04451e-06
5.01731e-06
6.37227e-06
9.63128e-06
1.11322e-05
1.32565e-05
1.44335e-05
1.40814e-05
1.16424e-05
6.40879e-06
1.39743e-06
2.90147e-08
8.9655e-07
1.6108e-08
1.32958e-08
1.03961e-08
2.718e-08
2.53886e-06
3.80349e-06
5.96501e-06
6.41435e-06
5.40573e-06
6.5599e-06
8.90286e-06
1.09545e-05
1.23122e-05
1.34209e-05
1.30741e-05
1.05853e-05
2.17486e-06
1.02219e-07
1.0718e-07
7.53971e-08
1.83272e-06
1.77064e-06
1.39929e-06
1.32177e-06
4.42568e-07
1.9224e-07
3.01872e-08
2.1497e-08
1.90039e-08
4.08918e-08
4.08229e-09
7.96357e-09
1.17043e-08
8.94226e-08
2.76073e-07
9.00207e-07
2.58345e-06
2.31072e-06
2.0607e-06
2.03028e-06
1.8578e-06
2.12709e-06
2.00143e-06
1.76698e-06
8.61706e-08
4.94826e-09
2.1359e-08
7.2472e-09
1.86103e-08
5.34817e-08
3.19212e-08
3.12037e-08
1.18904e-09
1.11555e-09
1.85348e-09
4.5895e-07
5.62632e-06
3.81128e-06
3.96433e-06
3.9684e-06
3.14278e-06
1.61831e-06
3.11409e-06
1.82859e-06
1.25318e-07
7.42096e-08
3.613e-08
2.61051e-08
2.63441e-08
2.81711e-08
1.13319e-07
1.05163e-07
7.74092e-10
9.10837e-10
2.1819e-08
1.26857e-06
4.51597e-06
4.68504e-06
3.9489e-06
3.86261e-06
5.85777e-06
2.20179e-06
2.75053e-06
1.94736e-06
1.2228e-07
1.96251e-08
1.97139e-08
2.06157e-08
2.17875e-08
2.11954e-08
2.00649e-08
2.00814e-08
1.38504e-08
1.97505e-08
2.75864e-08
1.66961e-06
4.08191e-06
4.80489e-06
3.8587e-06
3.73655e-06
5.5123e-06
2.25201e-06
2.15517e-06
2.24529e-06
1.32114e-07
2.11054e-08
2.0993e-08
2.08229e-08
2.21583e-08
2.24358e-08
2.122e-08
2.23921e-08
2.31097e-08
1.93194e-08
3.56303e-08
2.68213e-06
5.00901e-06
5.03509e-06
3.86762e-06
3.63183e-06
2.09638e-06
1.7571e-06
2.2202e-06
2.3389e-06
1.43402e-07
1.75818e-08
2.05065e-08
2.08693e-08
2.18115e-08
2.17743e-08
2.10017e-08
2.0819e-08
2.07657e-08
1.73362e-08
4.29937e-08
3.91729e-06
5.57998e-06
5.27497e-06
3.74166e-06
3.06865e-06
3.04533e-06
1.36907e-06
2.88176e-06
1.85838e-06
1.90729e-07
1.04076e-08
1.72201e-08
1.6959e-08
1.51709e-08
1.50523e-08
1.63081e-08
1.58865e-08
1.67774e-08
1.48341e-08
5.07696e-08
4.84461e-06
6.01918e-06
5.51844e-06
3.66117e-06
2.73978e-06
2.1617e-06
2.12011e-06
3.13092e-06
2.04848e-06
5.74509e-07
1.17422e-08
1.42236e-08
1.40887e-08
1.81368e-08
1.8586e-08
1.49987e-08
1.63748e-08
1.58234e-08
1.27878e-08
5.23381e-08
5.97467e-06
6.65998e-06
5.85575e-06
3.55033e-06
2.40065e-06
3.21755e-06
2.48442e-06
2.65268e-06
2.33762e-06
1.20747e-06
3.4747e-07
4.40644e-07
5.13004e-07
6.39102e-07
7.53275e-07
5.69704e-07
5.94961e-07
5.83084e-07
4.33909e-07
7.94848e-07
7.51438e-06
8.89126e-06
6.46883e-06
3.21745e-06
1.86832e-06
3.62245e-06
2.01022e-06
2.4023e-06
2.88116e-06
1.85058e-06
3.86471e-06
5.32313e-06
5.34943e-06
5.84653e-06
5.89552e-06
5.51708e-06
5.7439e-06
5.4385e-06
4.08491e-06
4.07952e-06
5.18382e-06
1.09869e-05
7.43819e-06
2.08538e-06
1.89384e-07
2.25528e-06
1.82845e-06
2.33973e-06
4.11514e-06
2.4242e-06
5.2125e-06
7.56117e-06
8.70472e-06
8.75744e-06
8.79834e-06
8.85823e-06
9.00612e-06
8.39481e-06
5.13121e-06
5.74178e-06
6.98051e-06
1.23916e-05
7.77112e-06
1.16235e-06
2.43791e-07
1.53563e-06
1.49361e-06
1.81787e-06
4.5902e-06
2.01308e-06
3.81902e-06
5.52483e-06
7.38112e-06
6.26027e-06
6.25905e-06
6.79936e-06
7.56757e-06
8.71151e-06
7.62008e-06
8.51731e-06
9.57884e-06
1.38281e-05
7.95126e-06
2.15869e-06
2.88558e-06
1.66668e-06
1.71284e-06
2.32856e-06
3.67838e-06
2.18038e-06
2.63967e-06
2.67912e-06
5.02239e-06
2.77523e-06
4.30961e-06
4.34362e-06
5.94012e-06
7.7308e-06
9.40966e-06
1.02251e-05
1.08882e-05
1.47175e-05
7.97033e-06
5.11214e-06
2.91714e-06
3.51025e-06
3.03293e-06
3.85457e-06
3.13986e-06
1.99059e-06
2.8809e-06
3.6019e-06
3.69811e-06
4.26425e-06
4.67429e-06
5.00354e-06
7.53474e-06
9.8793e-06
1.15262e-05
1.20199e-05
1.20897e-05
1.50943e-05
7.59098e-06
5.84208e-06
1.28181e-06
3.91797e-06
3.07115e-06
4.15672e-06
3.26249e-06
1.94869e-06
3.0925e-06
3.86044e-06
3.81229e-06
4.7605e-06
5.41788e-06
6.08277e-06
9.33242e-06
1.1883e-05
1.34777e-05
1.37147e-05
1.30925e-05
1.45367e-05
7.06988e-06
2.56972e-06
1.2512e-06
3.102e-06
1.34009e-06
3.80076e-06
3.13016e-06
1.97811e-06
3.41607e-06
4.05167e-06
4.01933e-06
5.12911e-06
6.12657e-06
7.28229e-06
1.09643e-05
1.36019e-05
1.51355e-05
1.50371e-05
1.39037e-05
1.37415e-05
6.57045e-06
8.08818e-07
1.41588e-06
1.41436e-06
5.56052e-07
2.25556e-06
2.36341e-06
2.47012e-06
4.16565e-06
4.22285e-06
4.20414e-06
5.32631e-06
6.58892e-06
8.26873e-06
1.21201e-05
1.47289e-05
1.61477e-05
1.59556e-05
1.42951e-05
1.24386e-05
5.597e-06
3.12169e-07
1.13643e-06
7.30979e-07
3.73475e-07
7.17872e-07
1.46927e-06
3.71396e-06
6.08009e-06
4.26638e-06
4.4745e-06
5.12222e-06
6.66639e-06
8.79337e-06
1.23944e-05
1.48959e-05
1.62325e-05
1.5944e-05
1.38344e-05
1.03324e-05
3.89084e-06
1.09682e-07
8.56174e-07
3.85419e-07
2.13813e-07
8.35559e-08
3.21298e-07
5.19887e-06
6.43817e-06
4.50468e-06
5.17262e-06
5.15225e-06
6.49962e-06
9.64079e-06
1.12555e-05
1.33848e-05
1.45627e-05
1.42119e-05
1.17968e-05
7.09217e-06
1.39246e-06
4.11453e-08
5.78162e-07
8.53853e-08
1.16832e-07
2.44394e-08
6.85657e-08
2.66298e-06
3.86902e-06
6.10651e-06
6.55614e-06
5.5474e-06
6.69277e-06
8.92437e-06
1.09722e-05
1.24428e-05
1.3553e-05
1.32073e-05
1.07293e-05
2.72542e-06
1.09083e-07
1.37945e-07
2.22291e-08
1.92232e-06
1.81848e-06
1.42649e-06
1.3715e-06
4.53472e-07
1.91749e-07
2.8485e-08
2.48875e-08
2.05138e-08
4.03863e-08
3.66685e-09
7.9442e-09
1.13582e-08
8.89181e-08
2.7813e-07
8.98952e-07
2.60925e-06
2.40736e-06
2.21551e-06
2.13738e-06
2.12419e-06
2.43479e-06
2.07922e-06
2.09909e-06
8.77986e-08
4.77797e-09
2.13784e-08
7.45939e-09
1.85466e-08
5.18319e-08
3.16631e-08
3.05077e-08
1.21415e-09
1.12963e-09
1.56598e-09
4.44322e-07
5.93414e-06
4.24983e-06
4.22153e-06
4.52588e-06
3.09525e-06
1.83544e-06
2.91082e-06
2.10229e-06
1.20362e-07
7.08693e-08
3.52828e-08
2.56733e-08
2.61107e-08
2.77997e-08
1.08696e-07
1.03988e-07
8.1487e-10
7.50917e-10
2.04689e-08
1.41606e-06
5.0921e-06
4.81424e-06
4.20365e-06
4.37746e-06
5.29957e-06
2.108e-06
2.69128e-06
2.18186e-06
1.20768e-07
1.97813e-08
1.96395e-08
2.0496e-08
2.15883e-08
2.10404e-08
2.00222e-08
2.00755e-08
1.36135e-08
2.02076e-08
2.59061e-08
1.86081e-06
4.64813e-06
4.94551e-06
4.12917e-06
4.25284e-06
4.82862e-06
2.24682e-06
2.40257e-06
2.59261e-06
1.27452e-07
2.03738e-08
2.08679e-08
2.0695e-08
2.19603e-08
2.22248e-08
2.10788e-08
2.22118e-08
2.28336e-08
1.94009e-08
3.3505e-08
2.90538e-06
5.25889e-06
5.20118e-06
4.13927e-06
4.13895e-06
2.84809e-06
1.96521e-06
2.34021e-06
2.84515e-06
1.25903e-07
1.73436e-08
2.03631e-08
2.06942e-08
2.15704e-08
2.15575e-08
2.08187e-08
2.06503e-08
2.0605e-08
1.76237e-08
3.98976e-08
3.93989e-06
5.82594e-06
5.46415e-06
4.06429e-06
3.59272e-06
3.6502e-06
1.68945e-06
2.92926e-06
2.56339e-06
1.58905e-07
1.01908e-08
1.74786e-08
1.72271e-08
1.55186e-08
1.53966e-08
1.66124e-08
1.6213e-08
1.70799e-08
1.5358e-08
4.64956e-08
4.94965e-06
6.30623e-06
5.74971e-06
4.02005e-06
3.25865e-06
2.72344e-06
1.96685e-06
3.09814e-06
2.44223e-06
5.4979e-07
1.14526e-08
1.38951e-08
1.37893e-08
1.74651e-08
1.78557e-08
1.45918e-08
1.58611e-08
1.54285e-08
1.26488e-08
4.77714e-08
6.12996e-06
7.13348e-06
6.13179e-06
4.00291e-06
2.89823e-06
3.1746e-06
2.32327e-06
2.76748e-06
2.75728e-06
1.19754e-06
3.11811e-07
3.885e-07
4.74039e-07
5.64807e-07
6.64375e-07
5.22538e-07
5.29546e-07
5.27745e-07
4.0315e-07
7.10007e-07
7.57049e-06
9.41648e-06
6.80245e-06
3.72928e-06
2.33985e-06
3.48956e-06
2.12385e-06
2.77114e-06
3.3817e-06
1.99965e-06
3.92768e-06
5.42406e-06
5.41757e-06
5.94769e-06
5.9983e-06
5.58627e-06
5.84334e-06
5.53944e-06
4.20177e-06
4.20302e-06
5.432e-06
1.14032e-05
7.72753e-06
2.71553e-06
5.29802e-07
2.31116e-06
1.93855e-06
2.8466e-06
4.67626e-06
2.51582e-06
5.23503e-06
7.57676e-06
8.71685e-06
8.77192e-06
8.81358e-06
8.87183e-06
9.01668e-06
8.40287e-06
5.19651e-06
5.80332e-06
7.0976e-06
1.27902e-05
8.03945e-06
1.85609e-06
3.04413e-07
1.64253e-06
1.69322e-06
2.37323e-06
5.48023e-06
2.11811e-06
3.8664e-06
5.61374e-06
7.40017e-06
6.34333e-06
6.34371e-06
6.83077e-06
7.62427e-06
8.75283e-06
7.71369e-06
8.62443e-06
9.78295e-06
1.41664e-05
8.28394e-06
2.83474e-06
3.07622e-06
1.67091e-06
1.74903e-06
2.51297e-06
5.21704e-06
2.30137e-06
2.72477e-06
2.88424e-06
5.06153e-06
2.96561e-06
4.44161e-06
4.4136e-06
6.04455e-06
7.82932e-06
9.51094e-06
1.03409e-05
1.10951e-05
1.50219e-05
8.43698e-06
5.49607e-06
3.33177e-06
3.03661e-06
2.72225e-06
3.48645e-06
4.39143e-06
2.13963e-06
2.96268e-06
3.75179e-06
3.77294e-06
4.4017e-06
4.80376e-06
5.07041e-06
7.63826e-06
9.9797e-06
1.163e-05
1.21383e-05
1.22884e-05
1.54637e-05
8.21554e-06
6.12444e-06
1.53948e-06
3.39516e-06
2.79431e-06
3.70227e-06
4.31396e-06
2.10886e-06
3.17122e-06
4.00545e-06
3.88653e-06
4.89094e-06
5.53861e-06
6.14774e-06
9.43327e-06
1.19847e-05
1.35841e-05
1.38326e-05
1.3272e-05
1.50148e-05
7.81239e-06
2.77818e-06
1.27682e-06
2.77811e-06
1.13587e-06
3.28642e-06
4.05626e-06
2.12367e-06
3.49019e-06
4.19276e-06
4.09186e-06
5.25546e-06
6.24357e-06
7.34558e-06
1.10648e-05
1.37049e-05
1.5243e-05
1.51551e-05
1.40653e-05
1.4359e-05
7.34337e-06
9.23496e-07
1.35605e-06
9.96303e-07
2.94908e-07
1.74252e-06
3.19913e-06
2.58778e-06
4.23175e-06
4.36095e-06
4.27573e-06
5.45142e-06
6.7034e-06
8.33138e-06
1.22228e-05
1.4835e-05
1.62573e-05
1.60724e-05
1.44434e-05
1.31658e-05
6.23468e-06
3.67496e-07
1.12228e-06
2.76554e-07
1.65732e-07
3.28098e-07
2.45904e-06
3.81487e-06
6.14305e-06
4.40266e-06
4.54411e-06
5.25004e-06
6.7822e-06
8.85411e-06
1.25015e-05
1.50054e-05
1.63452e-05
1.60627e-05
1.39778e-05
1.11033e-05
4.21482e-06
1.32988e-07
6.96059e-07
1.82081e-07
2.38149e-07
4.6503e-08
1.04139e-06
5.23718e-06
6.45357e-06
4.57482e-06
5.23816e-06
5.22177e-06
6.56483e-06
9.64729e-06
1.13176e-05
1.34494e-05
1.46277e-05
1.42773e-05
1.18774e-05
7.88902e-06
1.40166e-06
5.67285e-08
2.5279e-07
1.09351e-06
8.33937e-07
1.41184e-07
5.21258e-07
2.75464e-06
3.92004e-06
6.18228e-06
6.63251e-06
5.62466e-06
6.76432e-06
8.94036e-06
1.09849e-05
1.25102e-05
1.36209e-05
1.32758e-05
1.08049e-05
3.45343e-06
1.21443e-07
1.53435e-07
3.59933e-08
2.00973e-06
1.85718e-06
1.45923e-06
1.41018e-06
4.62883e-07
1.90387e-07
2.73671e-08
3.03301e-08
2.46281e-08
4.05435e-08
3.32157e-09
7.75273e-09
9.15506e-09
8.6144e-08
2.78422e-07
8.95939e-07
2.62492e-06
2.50293e-06
2.34061e-06
2.23577e-06
2.42399e-06
2.65446e-06
2.13752e-06
2.4397e-06
8.75307e-08
4.55807e-09
2.14777e-08
7.62456e-09
1.85979e-08
4.99574e-08
3.10905e-08
3.0441e-08
1.21667e-09
1.23984e-09
1.51214e-09
4.3512e-07
6.21411e-06
4.71342e-06
4.57731e-06
5.07686e-06
2.92063e-06
2.06731e-06
2.78401e-06
2.43349e-06
1.11656e-07
6.85192e-08
3.49416e-08
2.53874e-08
2.59979e-08
2.77051e-08
1.05149e-07
1.03736e-07
8.40715e-10
1.40719e-09
1.8751e-08
1.52306e-06
5.63313e-06
5.05547e-06
4.51178e-06
4.90128e-06
4.72688e-06
2.14137e-06
2.70815e-06
2.51968e-06
1.17105e-07
2.01342e-08
1.96008e-08
2.04374e-08
2.14903e-08
2.09547e-08
2.00372e-08
2.01808e-08
1.43683e-08
2.02218e-08
2.36198e-08
2.01623e-06
5.2981e-06
5.18229e-06
4.44879e-06
4.77693e-06
4.19838e-06
2.30647e-06
2.65315e-06
2.96608e-06
1.21532e-07
2.02616e-08
2.08068e-08
2.06326e-08
2.18637e-08
2.21223e-08
2.10096e-08
2.21233e-08
2.26975e-08
1.97721e-08
3.07163e-08
3.00992e-06
5.66678e-06
5.48331e-06
4.47278e-06
4.65008e-06
3.63629e-06
2.15294e-06
2.68144e-06
3.3231e-06
1.1029e-07
1.713e-08
2.04036e-08
2.07233e-08
2.16899e-08
2.16843e-08
2.08763e-08
2.07265e-08
2.06586e-08
1.82354e-08
3.5995e-08
3.89682e-06
6.18995e-06
5.75826e-06
4.42907e-06
4.08858e-06
4.00286e-06
1.95175e-06
3.05607e-06
3.25985e-06
1.3864e-07
9.5876e-09
1.8103e-08
1.78377e-08
1.62817e-08
1.61781e-08
1.73232e-08
1.69619e-08
1.77609e-08
1.62886e-08
4.1473e-08
4.96269e-06
6.7113e-06
6.08548e-06
4.41582e-06
3.73932e-06
3.22244e-06
1.9572e-06
3.14841e-06
2.99206e-06
5.45732e-07
1.11403e-08
1.34157e-08
1.33274e-08
1.65179e-08
1.68386e-08
1.39805e-08
1.51163e-08
1.4816e-08
1.24167e-08
4.26374e-08
6.18832e-06
7.72323e-06
6.51932e-06
4.45759e-06
3.35654e-06
3.23756e-06
2.2335e-06
2.89432e-06
3.35519e-06
1.14779e-06
2.9156e-07
3.52517e-07
4.42852e-07
5.07238e-07
5.94069e-07
4.85182e-07
4.7836e-07
4.84485e-07
3.82903e-07
6.30744e-07
7.60404e-06
9.9723e-06
7.23176e-06
4.21412e-06
2.78145e-06
3.44018e-06
2.23388e-06
3.14086e-06
3.97468e-06
5.00523e-06
1.37941e-07
5.47019e-06
1.37941e-07
5.99137e-06
6.04268e-06
1.37941e-07
5.88471e-06
5.58222e-06
4.25647e-06
4.26363e-06
5.56552e-06
1.19161e-05
8.10533e-06
3.30654e-06
8.89808e-07
2.31946e-06
1.98433e-06
3.32561e-06
5.22092e-06
5.62989e-06
1.37941e-07
1.37941e-07
1.37941e-07
1.37941e-07
1.37941e-07
1.37941e-07
1.37941e-07
1.37941e-07
1.37941e-07
1.37941e-07
1.91716e-05
1.32849e-05
8.39852e-06
2.53191e-06
3.74602e-07
1.62875e-06
1.78856e-06
2.99729e-06
6.26834e-06
6.64141e-06
1.37941e-07
5.6749e-06
1.37941e-07
6.40029e-06
6.39885e-06
1.37941e-07
7.66239e-06
8.78505e-06
7.75964e-06
8.68828e-06
9.89844e-06
1.46047e-05
8.69687e-06
3.49482e-06
3.3343e-06
1.6222e-06
1.74413e-06
2.84978e-06
6.70184e-06
8.22092e-06
1.37941e-07
2.97987e-06
1.37941e-07
3.04707e-06
4.5095e-06
1.37941e-07
6.092e-06
7.8748e-06
9.56264e-06
1.04098e-05
1.12097e-05
1.54327e-05
8.96643e-06
5.89413e-06
3.70965e-06
2.61219e-06
2.4429e-06
3.24538e-06
5.97116e-06
1.00105e-05
1.37941e-07
3.83064e-06
1.37941e-07
4.47253e-06
4.86998e-06
1.37941e-07
7.68842e-06
1.00298e-05
1.16847e-05
1.22095e-05
1.2399e-05
1.59311e-05
8.87358e-06
6.41102e-06
1.77549e-06
2.8992e-06
2.47954e-06
3.33855e-06
5.78165e-06
1.19449e-05
1.37941e-07
4.08223e-06
1.37941e-07
4.95868e-06
5.60035e-06
1.37941e-07
9.48323e-06
1.20365e-05
1.3641e-05
1.39031e-05
1.33706e-05
1.55827e-05
8.55061e-06
2.98156e-06
1.30152e-06
2.33566e-06
8.96055e-07
2.746e-06
5.41209e-06
1.41329e-05
1.37941e-07
4.26749e-06
1.37941e-07
5.32139e-06
6.30391e-06
1.37941e-07
1.11157e-05
1.37584e-05
1.53012e-05
1.52244e-05
1.41532e-05
1.5066e-05
8.10281e-06
1.03629e-06
1.28287e-06
6.02085e-07
1.60158e-07
1.07318e-06
4.50326e-06
1.71012e-05
1.37941e-07
4.43348e-06
1.37941e-07
5.51687e-06
6.76267e-06
1.37941e-07
1.22764e-05
1.48914e-05
1.63172e-05
1.61401e-05
1.45234e-05
1.39806e-05
6.8545e-06
4.21197e-07
1.05312e-06
1.54469e-07
2.23183e-07
1.08363e-07
4.10009e-06
2.28473e-05
1.37941e-07
4.47074e-06
1.37941e-07
5.31511e-06
6.84152e-06
1.37941e-07
1.25584e-05
1.50646e-05
1.64076e-05
1.61314e-05
1.40547e-05
1.19622e-05
4.52514e-06
1.55138e-07
5.1575e-07
4.26271e-07
4.28079e-07
1.00796e-07
2.21125e-06
2.58466e-05
1.37941e-07
1.37941e-07
1.37941e-07
1.37941e-07
1.37941e-07
1.37941e-07
1.37941e-07
1.37941e-07
1.37941e-07
1.37941e-07
2.93094e-05
8.79313e-06
1.41304e-06
7.16515e-08
1.18709e-07
1.37957e-06
7.12486e-07
3.18347e-07
1.49756e-06
2.55073e-05
9.61161e-08
9.61161e-08
9.61161e-08
9.61161e-08
9.61161e-08
9.61161e-08
9.61161e-08
9.61161e-08
9.61161e-08
9.61161e-08
2.53829e-05
4.33401e-06
1.36877e-07
1.64073e-07
8.00577e-08
2.08324e-06
1.88737e-06
1.48344e-06
1.4393e-06
4.70292e-07
1.88994e-07
2.62137e-08
3.14428e-08
2.82446e-08
3.97871e-08
3.2222e-09
7.89404e-09
8.55095e-09
8.34594e-08
2.77036e-07
8.90908e-07
2.63702e-06
2.58849e-06
2.44793e-06
2.32186e-06
2.79534e-06
2.79068e-06
2.17776e-06
2.75688e-06
8.41139e-08
4.43739e-09
2.14948e-08
8.10092e-09
1.84876e-08
4.81384e-08
3.04112e-08
2.94503e-08
1.25041e-09
1.39511e-09
1.46256e-09
4.24591e-07
6.45121e-06
5.18184e-06
4.97126e-06
5.59387e-06
2.79639e-06
2.28492e-06
2.72112e-06
2.79615e-06
9.98919e-08
6.70894e-08
3.40615e-08
2.49142e-08
2.57243e-08
2.73144e-08