/*--------------------------------*- C++ -*----------------------------------*\
| =========                 |                                                 |
| \\      /  F ield         | OpenFOAM: The Open Source CFD Toolbox           |
|  \\    /   O peration     | Version:  2.3.0                                 |
|   \\  /    A nd           | Web:      www.OpenFOAM.org                      |
|    \\/     M anipulation  |                                                 |
\*---------------------------------------------------------------------------*/
FoamFile
{
    version     2.0;
    format      ascii;
    class       surfaceScalarField;
    location    "2.6";
    object      phi.air;
}
// * * * * * * * * * * * * * * * * * * * * * * * * * * * * * * * * * * * * * //

dimensions      [0 3 -1 0 0 0 0];

internalField   nonuniform List<scalar> 
23061
(
-1.75839e-08
-1.01494e-07
-1.38663e-06
4.16035e-09
-1.08432e-07
-1.60938e-06
1.62237e-08
-1.04255e-07
-1.5684e-06
2.24379e-08
-6.38507e-08
-1.07551e-06
2.34941e-08
-5.90597e-08
-5.82856e-07
2.27976e-08
-2.41275e-08
-8.99602e-07
1.20685e-08
-1.58386e-08
-8.2429e-07
1.32924e-09
-1.54615e-08
-8.71934e-07
-5.12979e-10
-1.82816e-08
-8.90981e-07
-2.82637e-09
-1.4376e-08
-8.08657e-07
-1.21384e-08
-9.08882e-09
-1.1992e-06
-2.37276e-08
-2.78043e-08
-1.08452e-06
-3.10476e-08
-3.32425e-08
-5.84702e-07
-3.49576e-08
-3.15022e-08
-4.83957e-07
-2.47492e-08
-3.64974e-08
-3.34756e-07
-1.37287e-08
-6.93031e-08
-5.81517e-07
-7.07702e-09
-8.75114e-08
-9.06224e-07
-6.03391e-10
-8.0081e-08
-9.92556e-07
1.11576e-08
-5.99691e-08
-8.80687e-07
-4.53817e-08
-7.29108e-07
-5.25643e-11
-1.33487e-07
-1.93689e-07
1.29036e-09
-1.04052e-07
-1.5071e-07
3.7876e-10
-8.40621e-08
-8.86122e-08
1.85671e-10
-4.69689e-08
1.72512e-09
1.5271e-10
-5.63089e-08
-2.4132e-07
2.16902e-10
-1.46754e-08
-2.17414e-06
2.70438e-10
-1.28796e-08
-1.63637e-06
7.12344e-11
-1.41355e-08
-1.2557e-06
-1.94927e-10
-1.71882e-08
-1.1464e-06
4.25001e-09
-1.46343e-08
-1.30043e-06
7.02614e-09
-9.67356e-09
-3.14916e-06
2.50698e-09
-1.38432e-08
-2.92014e-06
2.9706e-10
-1.7476e-08
-7.3523e-07
-5.2774e-11
-1.69116e-08
-7.03042e-07
-4.04715e-10
-2.60755e-08
-3.97522e-07
-6.85066e-10
-7.13242e-08
-1.88936e-07
-1.21848e-09
-9.20785e-08
-1.30712e-07
-1.76097e-09
-6.71353e-08
-6.3606e-08
-1.56733e-09
-4.25323e-08
3.03467e-08
-2.78389e-08
7.59265e-08
6.2671e-10
-1.71542e-07
-1.32775e-07
1.6912e-09
-9.47051e-08
-2.37895e-08
-4.72686e-11
-7.74575e-08
1.23573e-08
-2.49138e-10
-4.73329e-08
5.15604e-10
8.90474e-11
-5.36343e-08
-2.71722e-07
-1.09998e-10
-2.06542e-08
-6.21895e-07
1.33132e-11
-1.58336e-08
-8.20776e-07
-8.67286e-13
-1.58588e-08
-8.8614e-07
2.52852e-12
-1.74948e-08
-8.18874e-07
-1.2618e-11
-1.71433e-08
-8.02437e-07
3.60529e-09
-1.47654e-08
-9.42814e-07
4.26173e-09
-1.82877e-08
-9.34209e-07
1.38739e-09
-1.75008e-08
-6.85376e-07
2.0187e-09
-1.61001e-08
-7.09773e-07
1.23898e-09
-2.57649e-08
-5.14515e-07
-7.86232e-10
-7.08014e-08
-1.7411e-07
-1.70187e-09
-8.46578e-08
-6.22159e-08
-1.97934e-09
-5.45469e-08
2.97983e-08
-1.84788e-09
-3.97083e-08
7.25187e-08
-2.73393e-08
7.47082e-08
3.29981e-10
-1.77289e-07
-2.52876e-08
-2.59479e-10
-9.30832e-08
3.33012e-08
-3.43529e-10
-8.62255e-08
1.64784e-08
-2.075e-10
-5.43902e-08
7.33042e-09
-2.29712e-10
-4.9964e-08
-3.00905e-07
-2.4541e-10
-1.88738e-08
-7.7552e-07
-6.66063e-11
-1.50282e-08
-9.69605e-07
-7.94853e-11
-1.56374e-08
-9.12698e-07
-5.48198e-11
-1.77929e-08
-8.18317e-07
4.68744e-11
-1.71905e-08
-8.59533e-07
1.07298e-10
-1.4863e-08
-9.94376e-07
2.82205e-11
-1.5649e-08
-9.79442e-07
1.859e-11
-1.5277e-08
-1.11964e-06
2.46128e-10
-1.43722e-08
-1.08579e-06
1.07538e-09
-2.55742e-08
-6.11061e-07
-4.86764e-10
-6.59654e-08
-1.56033e-07
-2.4696e-09
-6.63836e-08
-8.49188e-09
-1.61957e-09
-5.28233e-08
5.09201e-08
-1.47435e-09
-3.89155e-08
8.29384e-08
-2.50404e-08
8.37767e-08
-8.81098e-11
-1.80091e-07
-1.31098e-08
3.95381e-10
-1.09534e-07
4.59444e-10
-3.77485e-10
-8.39254e-08
6.51462e-09
-8.05778e-12
-6.93618e-08
-3.0329e-08
1.2135e-11
-4.75472e-08
-3.03282e-07
-1.76904e-10
-1.90045e-08
-7.43552e-07
-4.19397e-11
-1.51847e-08
-9.31931e-07
-6.78499e-11
-1.56482e-08
-9.11767e-07
-3.33889e-11
-1.81858e-08
-7.89544e-07
9.22902e-12
-1.77975e-08
-8.0995e-07
3.66586e-11
-1.54601e-08
-9.28084e-07
7.68474e-11
-1.65783e-08
-8.58893e-07
1.18544e-10
-1.56508e-08
-9.05628e-07
4.97795e-10
-1.47411e-08
-9.53986e-07
5.74858e-10
-2.48598e-08
-6.24775e-07
2.84081e-11
-5.95104e-08
-1.68739e-07
-1.41007e-09
-5.25239e-08
9.37292e-09
-1.86144e-09
-5.09818e-08
4.17926e-08
-1.66933e-09
-3.69436e-08
6.30911e-08
-1.91387e-08
7.95891e-08
-1.81604e-10
-1.76037e-07
-8.42251e-08
1.0722e-09
-1.01533e-07
-1.4346e-08
-5.90323e-10
-6.95455e-08
3.4231e-08
-4.20886e-10
-6.50627e-08
-2.01963e-08
3.67569e-11
-4.47233e-08
-3.20211e-07
-1.89639e-10
-1.84468e-08
-7.7572e-07
-3.04759e-12
-1.53528e-08
-9.51122e-07
-3.7779e-11
-1.56865e-08
-9.12821e-07
-5.70111e-11
-1.83928e-08
-7.79893e-07
-1.36989e-11
-1.82912e-08
-7.98194e-07
2.1381e-11
-1.59336e-08
-9.26612e-07
4.67963e-11
-1.67735e-08
-8.747e-07
1.94049e-11
-1.58963e-08
-9.28223e-07
2.37031e-10
-1.44245e-08
-9.96246e-07
-6.15902e-10
-2.42269e-08
-6.53633e-07
-1.09829e-09
-5.18378e-08
-1.8919e-07
-1.21415e-09
-4.83424e-08
3.43616e-08
-1.44684e-09
-4.84573e-08
4.91374e-08
-1.25379e-09
-3.28512e-08
7.71826e-08
-1.12573e-08
1.3703e-07
6.46878e-10
-1.55829e-07
-1.83526e-07
-3.33202e-11
-8.28593e-08
1.78347e-08
-5.73227e-10
-6.39359e-08
5.54501e-08
-3.40043e-10
-5.01908e-08
1.43779e-08
1.64848e-10
-3.99969e-08
-3.30859e-07
-1.71094e-10
-1.82939e-08
-7.70496e-07
4.51132e-11
-1.60231e-08
-9.13619e-07
3.20028e-12
-1.56755e-08
-9.07127e-07
-5.73276e-11
-1.84321e-08
-7.63085e-07
-3.97998e-11
-1.85201e-08
-7.65183e-07
-1.24408e-11
-1.63321e-08
-8.69518e-07
2.55249e-11
-1.72142e-08
-8.30165e-07
5.63371e-11
-1.63835e-08
-8.74785e-07
1.84414e-10
-1.46776e-08
-9.79131e-07
-1.23985e-09
-2.21122e-08
-6.36815e-07
-1.67144e-09
-4.20449e-08
-1.86112e-07
-8.90271e-10
-4.86403e-08
3.12484e-08
-8.41685e-10
-4.7615e-08
4.59426e-08
-7.91656e-10
-2.71951e-08
8.11625e-08
-7.63515e-09
1.53023e-07
-5.53756e-10
-1.17688e-07
-8.48205e-08
-5.42446e-10
-8.56558e-08
4.83431e-08
-2.42327e-10
-8.32252e-08
3.5675e-08
9.40891e-11
-4.48928e-08
4.70612e-08
4.18309e-10
-3.17305e-08
-3.20542e-07
3.14188e-11
-1.57604e-08
-7.42622e-07
6.39757e-11
-1.42247e-08
-8.40851e-07
7.03495e-12
-1.36835e-08
-8.6376e-07
-3.65524e-11
-1.56671e-08
-7.30015e-07
-1.57201e-11
-1.60874e-08
-7.16326e-07
-1.92766e-11
-1.44222e-08
-8.19605e-07
-6.14304e-12
-1.51009e-08
-7.8372e-07
9.32282e-11
-1.45468e-08
-8.25506e-07
2.28204e-10
-1.30111e-08
-9.4316e-07
-6.39435e-10
-1.65536e-08
-6.66313e-07
-1.2451e-09
-2.94792e-08
-1.61234e-07
-8.68394e-10
-5.15296e-08
1.42122e-08
-7.08539e-10
-4.58466e-08
3.81578e-08
-6.28592e-10
-1.76508e-08
1.13235e-07
-4.48072e-09
1.61088e-07
-1.21128e-09
-9.48253e-08
4.60254e-08
-1.16783e-09
-1.12858e-07
1.12293e-08
2.85388e-10
-1.21184e-07
-4.39068e-08
4.2601e-10
-5.89047e-08
2.64594e-08
6.98191e-11
-1.84588e-08
-1.70696e-07
-1.27768e-10
-9.42892e-09
-5.47625e-07
7.56464e-12
-8.80402e-09
-5.88131e-07
-1.2429e-10
-7.55918e-09
-6.09106e-07
-4.49165e-11
-9.0896e-09
-5.0497e-07
6.13874e-11
-9.50631e-09
-4.71826e-07
-1.01906e-10
-8.00072e-09
-5.50435e-07
-1.10264e-10
-9.06525e-09
-5.15974e-07
-2.28166e-11
-8.93984e-09
-5.48971e-07
6.60275e-10
-8.64351e-09
-6.6475e-07
1.6238e-09
-9.50648e-09
-5.61271e-07
1.57135e-10
-1.52999e-08
-2.95549e-08
-1.16276e-09
-4.60004e-08
-5.37865e-09
-4.74651e-10
-4.37477e-08
4.047e-08
-2.21264e-10
-7.01418e-09
1.88628e-07
-1.90092e-09
2.13482e-07
-2.88784e-10
-1.14474e-07
2.71359e-08
-1.57361e-10
-1.3869e-07
-7.1552e-08
7.19812e-10
-1.43533e-07
-9.548e-08
7.77946e-10
-7.91244e-08
-2.52324e-08
1.95481e-10
-1.43192e-08
2.75077e-08
7.64187e-11
-7.22871e-09
1.10417e-08
6.41167e-11
-5.81117e-09
1.26384e-08
4.07793e-11
-4.29055e-09
1.33741e-08
1.72889e-11
-5.25797e-09
1.53881e-08
-9.30432e-12
-5.27357e-09
1.70732e-08
-1.10268e-11
-4.28895e-09
1.50026e-08
-2.27395e-11
-5.1246e-09
1.56769e-08
8.29324e-12
-5.33266e-09
1.47848e-08
1.96256e-10
-5.99068e-09
1.10817e-08
6.01559e-10
-5.73069e-09
1.63038e-08
3.76802e-10
-7.06916e-09
3.6727e-08
1.03567e-10
-3.73023e-08
2.20984e-08
2.00771e-10
-4.23597e-08
3.32943e-08
1.23988e-11
-1.29559e-09
2.98202e-07
-2.79644e-09
2.87715e-07
5.32841e-10
-1.36565e-07
-3.32206e-08
8.74492e-10
-1.44368e-07
-1.25902e-07
5.05211e-10
-1.42647e-07
-9.48833e-08
3.94934e-10
-8.84046e-08
-4.40161e-08
4.59081e-11
-1.55905e-08
-3.07915e-09
-5.52831e-11
-1.02209e-08
-5.98201e-09
2.8264e-13
-8.67121e-09
-5.54733e-09
-7.44522e-12
-5.86577e-09
-2.44661e-09
5.02828e-12
-7.66154e-09
-4.61425e-09
1.9288e-11
-7.40848e-09
-3.88818e-09
1.06031e-11
-5.91072e-09
-2.67959e-09
4.13583e-11
-6.60238e-09
-1.70239e-09
8.88801e-11
-6.28904e-09
1.5099e-10
6.70312e-11
-5.96614e-09
3.06516e-09
1.1339e-10
-5.44527e-09
3.90736e-09
1.88571e-10
-6.3094e-09
4.29197e-09
7.87585e-10
-3.6176e-08
3.56627e-08
6.74894e-10
-3.95072e-08
3.77462e-08
1.52352e-10
-3.12676e-09
2.59714e-07
-2.76214e-08
-1.99339e-08
5.6239e-10
-1.34184e-07
-4.59278e-08
1.07575e-09
-1.34206e-07
-9.83206e-08
2.55828e-10
-1.20687e-07
-6.93357e-08
1.34632e-10
-8.82924e-08
-3.70578e-08
4.152e-11
-1.2476e-08
3.34592e-09
-1.3236e-10
-1.00453e-08
-2.26385e-09
-5.77193e-11
-1.12118e-08
-1.14885e-08
1.98758e-11
-7.41457e-09
-3.7802e-09
6.26557e-11
-1.0214e-08
-1.16969e-08
4.45107e-11
-8.86258e-09
-7.55006e-09
2.39477e-11
-6.53173e-09
-2.59754e-09
2.31933e-11
-7.31092e-09
-4.48243e-09
1.38107e-11
-6.32708e-09
-2.15299e-09
2.45616e-12
-5.44306e-09
3.84713e-10
4.7404e-11
-5.01286e-09
3.0655e-10
2.46063e-10
-6.0963e-09
-2.82957e-10
1.71378e-10
-3.53884e-08
1.30367e-08
-3.04377e-10
-3.49969e-08
5.90224e-08
3.00913e-09
-2.96842e-08
9.96554e-08
-7.00843e-08
-4.22033e-07
5.84239e-10
-1.14924e-07
-1.36897e-08
5.57531e-10
-1.10376e-07
-2.27116e-08
-3.96004e-10
-9.50391e-08
-1.31543e-08
-4.42916e-10
-7.24695e-08
-1.34388e-08
3.53031e-11
-1.17047e-08
3.59616e-09
-1.40789e-11
-8.69066e-09
1.42948e-09
-3.28139e-11
-1.05325e-08
-4.64545e-10
3.39663e-11
-7.94198e-09
-2.37265e-09
2.42362e-11
-9.68493e-09
-3.50965e-10
9.11458e-12
-8.34249e-09
-8.59363e-11
5.7524e-11
-6.28635e-09
-1.3199e-11
3.07933e-11
-6.37134e-09
2.08613e-09
-2.84504e-11
-5.29125e-09
2.54401e-09
-2.44402e-11
-4.6142e-09
2.90235e-09
-2.0595e-12
-4.36559e-09
2.26599e-09
2.75059e-10
-5.56151e-09
2.49809e-09
-6.89584e-10
-3.32891e-08
3.7616e-09
-2.84097e-09
-2.93543e-08
8.68842e-08
2.63197e-09
-6.97156e-08
-1.11191e-07
-7.58057e-08
-2.57915e-07
3.67054e-10
-1.00148e-07
4.0334e-09
-9.85919e-11
-1.02939e-07
3.74929e-08
-5.28545e-10
-8.80666e-08
1.31789e-08
-6.56036e-10
-5.38091e-08
1.43259e-08
-1.45198e-10
-1.09041e-08
3.93293e-09
4.23951e-11
-8.32802e-09
2.01803e-09
2.99539e-11
-9.33054e-09
4.00216e-09
-9.70551e-13
-7.35283e-09
1.57812e-10
-3.42112e-11
-8.41645e-09
5.043e-09
-5.92765e-12
-7.81095e-09
2.25314e-09
3.20719e-11
-5.64098e-09
2.19439e-09
1.32139e-11
-5.49317e-09
3.22855e-09
-7.70709e-12
-4.54468e-09
2.60583e-09
-4.42563e-12
-4.01637e-09
2.06887e-09
4.3432e-11
-3.89786e-09
1.6802e-09
5.69979e-10
-5.12009e-09
2.93295e-09
-4.35226e-10
-2.98609e-08
1.98894e-08
-1.01917e-09
-2.28801e-08
1.52275e-07
1.79473e-09
-8.79511e-08
-1.05638e-07
-4.4502e-08
3.21965e-08
1.00752e-11
-1.06111e-07
2.49966e-08
6.01965e-12
-1.16381e-07
-1.47738e-09
9.66814e-11
-9.61576e-08
1.57651e-08
-2.53356e-10
-4.61626e-08
3.27641e-08
-1.34938e-10
-1.05137e-08
1.78276e-09
-7.07273e-12
-7.86283e-09
2.04023e-09
-2.76807e-12
-9.05023e-09
1.36741e-09
2.19176e-11
-7.17591e-09
7.01106e-10
2.8155e-11
-8.00018e-09
1.87382e-09
2.20825e-11
-7.18466e-09
2.46937e-09
1.65877e-11
-4.94403e-09
2.16928e-09
1.00436e-12
-4.76194e-09
2.55571e-09
-7.37808e-12
-3.98247e-09
1.89479e-09
7.81978e-12
-3.59252e-09
1.45871e-09
1.64624e-10
-3.55778e-09
1.48212e-09
8.61919e-10
-4.7366e-09
3.31161e-09
3.65685e-10
-2.61473e-08
5.09741e-08
6.67008e-10
-1.83495e-08
1.90905e-07
1.31224e-09
-9.06986e-08
-3.71379e-08
-3.45822e-08
8.06688e-08
-4.19776e-10
-1.16225e-07
-1.64634e-09
6.35986e-11
-1.18199e-07
-4.65319e-08
2.97628e-10
-1.04018e-07
-2.34293e-09
4.72083e-11
-3.98324e-08
5.06196e-08
-6.62643e-11
-9.88816e-09
2.41439e-09
-1.38849e-11
-7.2079e-09
2.44315e-09
-7.02744e-12
-8.76129e-09
1.17374e-09
1.12902e-11
-6.92452e-09
8.84463e-10
1.99569e-11
-7.69933e-09
1.21088e-09
1.73902e-11
-6.73744e-09
1.71236e-09
8.19632e-12
-4.43599e-09
1.5232e-09
-2.42542e-12
-4.28406e-09
1.61556e-09
-2.04873e-12
-3.63365e-09
1.16317e-09
1.79658e-11
-3.32345e-09
9.3503e-10
2.7658e-10
-3.33739e-09
1.31738e-09
9.55494e-10
-4.44914e-09
3.03208e-09
5.82967e-10
-2.29125e-08
7.91427e-08
8.34577e-10
-1.70844e-08
1.87119e-07
1.19529e-09
-9.162e-08
-2.28266e-08
-5.07091e-08
6.37333e-10
-4.3222e-10
-1.05836e-07
-3.67621e-08
-3.29012e-10
-9.30551e-08
-2.20249e-08
-1.66426e-10
-9.74808e-08
-2.10301e-08
1.25515e-10
-3.28053e-08
5.09122e-08
2.61796e-11
-9.00771e-09
4.01614e-09
-1.2357e-11
-6.35558e-09
2.83906e-09
-4.10951e-12
-8.38401e-09
1.30829e-09
8.17243e-13
-6.63994e-09
9.2201e-10
9.61681e-12
-7.49148e-09
6.61837e-10
9.02738e-12
-6.4162e-09
1.11768e-09
2.74694e-12
-4.14201e-09
8.49454e-10
-2.29488e-12
-4.0299e-09
8.40112e-10
2.42401e-12
-3.45345e-09
6.02155e-10
2.18128e-11
-3.18956e-09
4.84063e-10
3.55561e-10
-3.23034e-09
1.11729e-09
8.85592e-10
-4.2874e-09
2.22365e-09
5.85933e-10
-2.05872e-08
1.01791e-07
4.56029e-10
-1.91132e-08
1.50918e-07
6.32018e-10
-9.27834e-08
-2.51629e-08
-5.30529e-08
-2.30166e-08
-2.44132e-10
-7.57544e-08
-1.67624e-08
-6.26864e-10
-6.71453e-08
1.19259e-08
-4.08271e-10
-7.82928e-08
-2.28934e-08
8.08967e-11
-2.60797e-08
2.59012e-08
8.02518e-11
-9.4799e-09
1.20887e-09
7.36691e-11
-6.6299e-09
2.54861e-10
3.38171e-11
-7.2685e-09
5.68432e-09
6.83296e-12
-6.14484e-09
1.50766e-09
-2.57935e-11
-6.61372e-09
4.48332e-09
-4.26948e-11
-5.63741e-09
3.90654e-09
1.69859e-11
-4.26002e-09
2.00177e-10
2.05048e-11
-3.6e-09
2.19996e-09
4.53853e-12
-3.0938e-09
1.79592e-09
2.16192e-11
-2.87058e-09
1.70137e-09
3.70654e-10
-2.92528e-09
2.42911e-09
6.22582e-10
-3.85048e-09
3.1883e-09
5.93416e-10
-1.87459e-08
1.09787e-07
5.52746e-10
-2.86912e-08
7.01925e-08
2.85658e-10
-9.34562e-08
-3.07823e-08
-3.97111e-08
5.08299e-10
-8.83487e-11
-4.54779e-08
-5.73579e-10
-2.12614e-10
-4.92836e-08
-1.20835e-09
-1.38696e-10
-5.56999e-08
-1.43878e-08
-5.02759e-11
-2.38249e-08
8.7125e-10
-1.65644e-11
-1.30633e-08
-7.75293e-09
9.38155e-11
-9.06663e-09
-5.36904e-09
5.65665e-11
-6.06682e-09
6.18609e-09
3.43074e-12
-5.46739e-09
2.07498e-09
-3.1958e-11
-5.67658e-09
4.80956e-09
-5.42058e-11
-4.90233e-09
3.74169e-09
4.17408e-13
-4.59198e-09
-4.29248e-10
2.44986e-11
-3.46642e-09
1.6118e-09
1.08182e-11
-2.81378e-09
1.54729e-09
1.16977e-11
-2.6107e-09
1.46478e-09
2.84745e-10
-2.67488e-09
1.97257e-09
3.09884e-10
-3.44991e-09
2.29596e-09
9.53408e-10
-1.57898e-08
1.0074e-07
9.85205e-10
-3.76325e-08
-2.5814e-08
4.43625e-11
-9.42768e-08
-2.02417e-08
-2.79143e-08
1.04463e-08
4.00373e-11
-5.21971e-09
3.82983e-11
-8.18344e-09
-2.7533e-11
-3.12558e-09
-3.22474e-10
-5.46165e-09
-3.89113e-10
-6.97247e-09
-1.19592e-10
-3.54915e-09
-4.28448e-11
1.44114e-09
-1.81021e-11
1.21997e-09
3.45024e-13
6.03519e-10
4.2225e-12
3.39959e-10
-4.13632e-11
-4.61143e-10
-4.70158e-11
-4.49886e-10
-9.09799e-12
3.67186e-11
1.74238e-11
1.94259e-11
2.85901e-10
5.40656e-10
4.48225e-10
8.97675e-10
7.92563e-10
5.77498e-08
5.63042e-10
-1.91537e-08
-7.75744e-11
-3.85745e-09
1.58335e-09
-1.89694e-08
-1.03256e-07
-1.2705e-06
4.47214e-09
-1.11789e-07
-1.49441e-06
1.74128e-08
-1.06429e-07
-1.44898e-06
2.39495e-08
-7.07367e-08
-9.9691e-07
2.47178e-08
-5.76409e-08
-5.05984e-07
2.35283e-08
-2.39028e-08
-8.71221e-07
1.24161e-08
-1.52434e-08
-7.94852e-07
2.6964e-09
-1.47915e-08
-8.39307e-07
-1.98976e-10
-1.85376e-08
-8.60662e-07
-3.24087e-09
-1.36679e-08
-7.90404e-07
-1.37898e-08
-8.61732e-09
-1.17955e-06
-2.48805e-08
-2.75599e-08
-1.04216e-06
-3.18141e-08
-3.13889e-08
-5.3666e-07
-3.55875e-08
-3.00822e-08
-4.3833e-07
-2.57814e-08
-3.5283e-08
-3.03754e-07
-1.44803e-08
-6.87513e-08
-4.93003e-07
-7.34863e-09
-8.67337e-08
-7.75235e-07
-5.41325e-10
-8.03616e-08
-8.82513e-07
1.16155e-08
-6.45409e-08
-8.1275e-07
-5.02084e-08
-6.72168e-07
-2.49629e-10
-1.35248e-07
-1.57508e-07
1.34417e-09
-1.10768e-07
-1.52959e-07
6.021e-10
-9.06931e-08
-1.05308e-07
4.08441e-10
-5.84079e-08
-1.69996e-08
1.52072e-10
-5.39533e-08
-2.45206e-07
2.0437e-10
-1.388e-08
-2.18414e-06
2.71e-10
-1.20713e-08
-1.63955e-06
6.59964e-11
-1.31355e-08
-1.2574e-06
-1.96586e-10
-1.63367e-08
-1.14774e-06
4.59465e-09
-1.37046e-08
-1.30433e-06
9.42371e-09
-9.0732e-09
-3.14984e-06
3.37427e-09
-1.31143e-08
-2.92558e-06
5.2874e-10
-1.61329e-08
-7.5131e-07
-9.75834e-11
-1.57961e-08
-7.20052e-07
-5.9448e-10
-2.44206e-08
-4.13813e-07
-7.66698e-10
-7.09326e-08
-1.85347e-07
-1.32272e-09
-9.1762e-08
-1.21503e-07
-2.04838e-09
-7.1235e-08
-7.51109e-08
-1.94917e-09
-5.13863e-08
1.19966e-08
-3.65711e-08
5.63459e-08
5.96394e-10
-1.72416e-07
-9.2995e-08
1.69143e-09
-1.06083e-07
-3.13311e-08
4.62885e-11
-8.70568e-08
9.50957e-09
-1.73385e-10
-5.82428e-08
-1.54586e-10
9.43735e-11
-5.12533e-08
-2.75181e-07
-1.00385e-10
-1.94902e-08
-6.15371e-07
8.59631e-12
-1.48385e-08
-8.18028e-07
2.98532e-12
-1.48438e-08
-8.84342e-07
6.92799e-12
-1.63726e-08
-8.18689e-07
-1.524e-11
-1.60564e-08
-7.99984e-07
3.6298e-09
-1.38863e-08
-9.4129e-07
4.69725e-09
-1.73997e-08
-9.29578e-07
1.84083e-09
-1.70156e-08
-6.90394e-07
2.63659e-09
-1.5423e-08
-7.2015e-07
1.21541e-09
-2.43108e-08
-5.14269e-07
-8.68081e-10
-7.05644e-08
-1.71819e-07
-1.96509e-09
-8.52742e-08
-7.13467e-08
-2.42007e-09
-6.18465e-08
1.92091e-08
-2.24946e-09
-4.91341e-08
6.90525e-08
-3.57935e-08
7.36252e-08
2.96007e-10
-1.78327e-07
-1.7937e-08
-3.48913e-10
-1.02729e-07
3.04642e-08
-2.40353e-10
-9.61966e-08
2.61371e-08
-4.93178e-11
-6.17961e-08
1.68842e-08
-1.72604e-10
-4.76935e-08
-3.04992e-07
-2.31202e-10
-1.76348e-08
-7.77422e-07
-6.2914e-11
-1.40455e-08
-9.7058e-07
-7.91486e-11
-1.46165e-08
-9.12919e-07
-5.50476e-11
-1.66457e-08
-8.18049e-07
4.68198e-11
-1.60758e-08
-8.59605e-07
1.06024e-10
-1.38974e-08
-9.94395e-07
2.38194e-11
-1.46212e-08
-9.82077e-07
1.82296e-11
-1.4312e-08
-1.12202e-06
2.61374e-10
-1.34022e-08
-1.08797e-06
1.04684e-09
-2.4179e-08
-6.1211e-07
-5.84088e-10
-6.57451e-08
-1.60821e-07
-2.71875e-09
-6.98674e-08
-3.59957e-08
-1.99441e-09
-5.97594e-08
4.77232e-08
-1.86324e-09
-4.79243e-08
8.14763e-08
-3.32404e-08
8.13483e-08
-9.88326e-11
-1.81608e-07
-1.08689e-08
3.81198e-10
-1.15452e-07
1.37179e-08
-3.84646e-10
-9.63574e-08
7.12041e-09
4.78167e-12
-7.30597e-08
-1.59859e-08
3.05717e-11
-4.56069e-08
-3.05958e-07
-1.64768e-10
-1.77808e-08
-7.43204e-07
-3.9539e-11
-1.42031e-08
-9.31904e-07
-6.75589e-11
-1.46321e-08
-9.11723e-07
-3.30611e-11
-1.70135e-08
-7.89187e-07
9.26184e-12
-1.66541e-08
-8.0938e-07
3.6635e-11
-1.44623e-08
-9.27518e-07
7.70875e-11
-1.55207e-08
-8.57992e-07
1.13194e-10
-1.46485e-08
-9.05276e-07
4.8297e-10
-1.37832e-08
-9.53962e-07
5.09817e-10
-2.33921e-08
-6.2563e-07
-1.95052e-10
-5.93115e-08
-1.77245e-07
-1.76303e-09
-5.80003e-08
-1.50585e-08
-2.24834e-09
-5.74219e-08
3.97822e-08
-2.11502e-09
-4.56824e-08
6.04271e-08
-2.7718e-08
7.3461e-08
-2.26508e-10
-1.78896e-07
-8.93022e-08
1.05367e-09
-1.16805e-07
-1.55032e-08
-6.0732e-10
-8.34843e-08
2.12156e-08
-4.73627e-10
-7.40835e-08
-2.10826e-08
2.46864e-11
-4.30361e-08
-3.23971e-07
-1.86559e-10
-1.72053e-08
-7.76096e-07
-2.96102e-12
-1.43458e-08
-9.51152e-07
-3.71756e-11
-1.46602e-08
-9.12754e-07
-5.63925e-11
-1.71906e-08
-7.79678e-07
-1.35304e-11
-1.70942e-08
-7.97766e-07
2.13115e-11
-1.48901e-08
-9.26183e-07
4.57719e-11
-1.56738e-08
-8.74551e-07
1.47257e-11
-1.4856e-08
-9.27961e-07
2.2011e-10
-1.34725e-08
-9.96771e-07
-6.62837e-10
-2.2766e-08
-6.53324e-07
-1.32497e-09
-5.16697e-08
-1.99771e-07
-1.57044e-09
-5.32345e-08
2.72897e-08
-1.80997e-09
-5.45421e-08
4.62352e-08
-1.86042e-09
-4.1779e-08
7.2553e-08
-2.04041e-08
1.28639e-07
4.40658e-10
-1.61571e-07
-2.03385e-07
-1.49101e-10
-1.02933e-07
1.84649e-09
-5.34282e-10
-7.60909e-08
4.78205e-08
-3.69174e-10
-6.42892e-08
1.62802e-09
1.19308e-10
-3.85908e-08
-3.36731e-07
-1.71036e-10
-1.70626e-08
-7.70294e-07
4.19168e-11
-1.49623e-08
-9.13158e-07
2.98564e-12
-1.4636e-08
-9.07093e-07
-5.77405e-11
-1.7233e-08
-7.62956e-07
-4.02702e-11
-1.7316e-08
-7.64947e-07
-1.20847e-11
-1.52536e-08
-8.69135e-07
2.58218e-11
-1.60887e-08
-8.29742e-07
5.52625e-11
-1.53081e-08
-8.7431e-07
1.73518e-10
-1.37e-08
-9.78991e-07
-1.27811e-09
-2.08043e-08
-6.37362e-07
-1.88014e-09
-4.19023e-08
-2.00259e-07
-1.1993e-09
-5.25621e-08
2.99558e-08
-1.1233e-09
-5.31332e-08
4.44217e-08
-1.3978e-09
-3.6357e-08
7.50118e-08
-1.65305e-08
1.48972e-07
-6.1168e-10
-1.28544e-07
-1.22379e-07
-7.47588e-10
-9.77604e-08
4.39258e-08
-1.27481e-10
-8.98978e-08
5.08708e-08
1.90667e-10
-5.72932e-08
3.90381e-08
4.15874e-10
-3.10096e-08
-3.301e-07
2.20536e-11
-1.45592e-08
-7.44962e-07
6.12963e-11
-1.31605e-08
-8.42844e-07
1.00351e-11
-1.26394e-08
-8.65879e-07
-3.61171e-11
-1.45964e-08
-7.32894e-07
-1.8215e-11
-1.50317e-08
-7.18865e-07
-1.82601e-11
-1.33674e-08
-8.21648e-07
-5.50838e-12
-1.4046e-08
-7.85958e-07
8.96537e-11
-1.3492e-08
-8.27578e-07
1.94744e-10
-1.1971e-08
-9.45141e-07
-7.14612e-10
-1.55086e-08
-6.71397e-07
-1.43979e-09
-2.92861e-08
-1.80029e-07
-1.16486e-09
-5.32823e-08
1.47896e-08
-1.04849e-09
-5.07822e-08
3.55837e-08
-1.29952e-09
-2.7323e-08
1.0274e-07
-1.26516e-08
1.5705e-07
-1.25831e-09
-1.06818e-07
2.43876e-08
-1.22717e-09
-1.18179e-07
3.45094e-08
3.50659e-10
-1.23854e-07
-6.40311e-09
5.54931e-10
-6.52143e-08
3.63286e-08
1.3072e-10
-1.94906e-08
-1.85047e-07
-1.45221e-10
-9.10251e-09
-5.53332e-07
3.66089e-12
-8.62746e-09
-5.93793e-07
-1.26523e-10
-7.27749e-09
-6.1509e-07
-4.64414e-11
-8.89503e-09
-5.12458e-07
6.13887e-11
-9.29724e-09
-4.79549e-07
-1.02424e-10
-7.69457e-09
-5.57014e-07
-1.11247e-10
-8.86297e-09
-5.2262e-07
-2.69042e-11
-8.75034e-09
-5.55023e-07
6.26993e-10
-8.56846e-09
-6.69188e-07
1.5886e-09
-9.44518e-09
-5.7015e-07
1.47703e-10
-1.54857e-08
-5.18109e-08
-1.35596e-09
-4.71321e-08
-1.04258e-08
-7.91346e-10
-4.79372e-08
3.68816e-08
-8.95619e-10
-1.57154e-08
1.75397e-07
-6.58495e-09
2.07775e-07
-2.15656e-10
-1.20682e-07
4.26172e-08
-7.15598e-11
-1.42504e-07
-4.3222e-08
7.45906e-10
-1.46367e-07
-7.0138e-08
7.85461e-10
-8.04008e-08
-7.17507e-09
2.34184e-10
-1.47607e-08
2.28004e-08
8.36502e-11
-7.1064e-09
8.78341e-09
6.23753e-11
-5.89029e-09
9.46047e-09
3.76744e-11
-4.31816e-09
9.97599e-09
1.56715e-11
-5.32408e-09
1.12942e-08
-8.73709e-12
-5.3266e-09
1.25679e-08
-1.03406e-11
-4.29306e-09
1.10885e-08
-2.04069e-11
-5.21206e-09
1.14817e-08
1.05983e-11
-5.43875e-09
1.09239e-08
1.92927e-10
-6.38191e-09
8.30499e-09
6.27355e-10
-6.07672e-09
1.1962e-08
4.07999e-10
-7.16792e-09
2.76504e-08
-6.15453e-11
-3.9277e-08
1.47027e-08
9.68585e-11
-4.59695e-08
3.10943e-08
1.34906e-10
-6.50862e-09
2.88456e-07
-5.38896e-09
2.8721e-07
5.86754e-10
-1.39856e-07
-1.24647e-08
1.03709e-09
-1.4913e-07
-1.1852e-07
5.94007e-10
-1.46535e-07
-9.43284e-08
3.83191e-10
-8.90034e-08
-3.37946e-08
4.56078e-11
-1.55195e-08
-1.64044e-09
-5.20011e-11
-9.39131e-09
-3.21931e-09
-1.33635e-13
-8.10213e-09
-3.0855e-09
-7.10736e-12
-5.39518e-09
-1.19311e-09
4.4736e-12
-7.16424e-09
-2.55235e-09
1.76717e-11
-6.92357e-09
-2.10347e-09
9.66042e-12
-5.43949e-09
-1.35998e-09
3.83626e-11
-6.16891e-09
-6.37152e-10
8.34457e-11
-5.87311e-09
6.01682e-10
6.33879e-11
-5.86716e-09
2.65617e-09
9.4735e-11
-5.3227e-09
3.16191e-09
1.51222e-10
-6.12185e-09
3.15017e-09
6.60668e-10
-3.77519e-08
3.36122e-08
4.33271e-10
-4.31584e-08
3.4818e-08
2.62012e-10
-8.00425e-09
2.61942e-07
-3.10194e-08
8.32366e-09
5.61845e-10
-1.39958e-07
-4.67983e-08
1.18986e-09
-1.40056e-07
-1.10135e-07
3.45757e-10
-1.29013e-07
-8.90704e-08
1.41172e-10
-8.96522e-08
-3.63294e-08
5.579e-11
-1.37562e-08
1.19326e-09
-1.22986e-10
-9.78302e-09
-1.70154e-09
-5.39687e-11
-1.10985e-08
-8.30518e-09
1.90044e-11
-6.8168e-09
-2.25627e-09
5.98232e-11
-1.02303e-08
-8.39542e-09
4.23607e-11
-8.69559e-09
-5.53106e-09
2.2194e-11
-6.23503e-09
-1.66846e-09
2.1062e-11
-7.09632e-09
-3.4124e-09
1.07005e-11
-6.09867e-09
-1.84508e-09
7.15348e-13
-5.35626e-09
-1.33281e-10
4.0068e-11
-4.91106e-09
-1.55102e-10
2.00399e-10
-5.95908e-09
-6.17104e-10
5.44334e-11
-3.65844e-08
1.21015e-08
-9.39104e-10
-3.89863e-08
5.52535e-08
2.82815e-09
-3.35215e-08
1.2556e-07
-7.4189e-08
-3.77861e-07
5.89285e-10
-1.24055e-07
-3.14604e-08
5.2538e-10
-1.19743e-07
-4.56856e-08
-3.53766e-10
-1.05537e-07
-3.78827e-08
-4.21488e-10
-7.92062e-08
-2.61426e-08
3.06447e-11
-1.30179e-08
2.15133e-09
-8.01585e-12
-9.02421e-09
5.26603e-10
-3.00317e-11
-1.09428e-08
-6.70609e-10
3.38106e-11
-7.61165e-09
-1.56751e-09
2.40725e-11
-1.01042e-08
-5.06403e-10
8.32102e-12
-8.51244e-09
-2.70421e-10
5.58862e-11
-6.19763e-09
-1.01408e-10
2.92711e-11
-6.347e-09
1.32013e-09
-2.88736e-11
-5.20461e-09
1.68178e-09
-2.39623e-11
-4.5068e-09
1.98671e-09
-4.16807e-12
-4.25274e-09
1.54296e-09
2.19998e-10
-5.42252e-09
1.66487e-09
-7.88614e-10
-3.44688e-08
2.56258e-09
-2.94045e-09
-3.41199e-08
8.36403e-08
2.60137e-09
-7.04156e-08
-7.53719e-08
-8.71599e-08
-2.50885e-07
3.61367e-10
-1.10128e-07
-9.67266e-09
-1.31755e-10
-1.11277e-07
2.85679e-08
-5.814e-10
-9.65744e-08
4.26209e-09
-7.05015e-10
-6.49478e-08
-2.12383e-09
-1.53882e-10
-1.23149e-08
2.36822e-09
4.71342e-11
-8.56805e-09
1.30567e-09
3.1526e-11
-9.69973e-09
2.68425e-09
-2.57835e-12
-7.36593e-09
-9.74215e-11
-3.53237e-11
-8.60969e-09
3.48996e-09
-5.98893e-12
-7.91252e-09
1.56009e-09
3.12609e-11
-5.51067e-09
1.39683e-09
1.37877e-11
-5.41138e-09
2.24075e-09
-6.24322e-12
-4.43175e-09
1.80175e-09
-4.50735e-12
-3.89752e-09
1.42186e-09
2.96417e-11
-3.77902e-09
1.13909e-09
4.67401e-10
-4.98014e-09
1.95908e-09
-6.24297e-10
-3.12549e-08
1.74451e-08
-1.10426e-09
-2.83823e-08
1.46181e-07
2.10449e-09
-8.84323e-08
-8.88954e-08
-6.34485e-08
1.3344e-09
-2.68525e-11
-1.1291e-07
2.77952e-08
-2.08787e-11
-1.21106e-07
8.8298e-09
9.44806e-11
-1.01612e-07
2.07155e-08
-2.48656e-10
-5.75688e-08
2.44612e-08
-1.42129e-10
-1.18208e-08
1.0728e-09
-5.21306e-12
-8.01424e-09
1.29436e-09
-2.40884e-12
-9.33105e-09
9.72714e-10
2.11817e-11
-7.16765e-09
4.49039e-10
2.72257e-11
-8.10123e-09
1.32587e-09
2.14648e-11
-7.20745e-09
1.71938e-09
1.65193e-11
-4.77668e-09
1.38041e-09
2.0106e-12
-4.65198e-09
1.76282e-09
-6.27111e-12
-3.86195e-09
1.30083e-09
6.18209e-12
-3.47272e-09
9.9735e-10
1.30529e-10
-3.43919e-09
9.82663e-10
7.25583e-10
-4.59937e-09
2.22922e-09
2.2575e-10
-2.77906e-08
4.75749e-08
6.70206e-10
-2.39218e-08
1.85303e-07
1.4383e-09
-9.13734e-08
-3.45553e-08
-4.95487e-08
6.53938e-08
-4.64894e-10
-1.21033e-07
5.78047e-09
6.13598e-11
-1.25556e-07
-4.21849e-08
3.23565e-10
-1.07618e-07
3.1422e-09
8.82614e-11
-5.27597e-08
4.50113e-08
-5.50374e-11
-1.08326e-08
1.53672e-09
-1.2398e-11
-7.24494e-09
1.56123e-09
-6.40603e-12
-8.99946e-09
8.07086e-10
1.10596e-11
-6.88911e-09
5.62047e-10
1.94036e-11
-7.76373e-09
8.37845e-10
1.69253e-11
-6.71641e-09
1.18728e-09
8.32654e-12
-4.25298e-09
9.68152e-10
-1.59543e-12
-4.16589e-09
1.11018e-09
-1.74366e-12
-3.51361e-09
7.95898e-10
1.52577e-11
-3.20612e-09
6.3618e-10
2.24362e-10
-3.221e-09
8.52448e-10
8.14752e-10
-4.31571e-09
2.06375e-09
5.27863e-10
-2.47791e-08
7.60133e-08
9.43458e-10
-2.24818e-08
1.85031e-07
1.3071e-09
-9.24842e-08
-2.19258e-08
-5.87187e-08
1.32523e-08
-5.07651e-10
-1.16779e-07
-4.21752e-08
-3.68198e-10
-1.09242e-07
-4.17079e-08
-1.51125e-10
-1.03874e-07
-2.57592e-08
2.04197e-10
-4.83935e-08
4.46923e-08
6.36244e-11
-9.36227e-09
2.70074e-09
-1.10414e-11
-6.24085e-09
1.85034e-09
-3.14121e-12
-8.61634e-09
8.65409e-10
1.02568e-12
-6.58118e-09
5.80837e-10
9.47918e-12
-7.56791e-09
4.25856e-10
9.07834e-12
-6.38737e-09
7.55643e-10
3.00563e-12
-3.9535e-09
5.38815e-10
-1.82223e-12
-3.91292e-09
5.73665e-10
2.12575e-12
-3.33678e-09
4.0898e-10
1.88157e-11
-3.07565e-09
3.25902e-10
2.89e-10
-3.11658e-09
7.02121e-10
7.58975e-10
-4.16019e-09
1.52726e-09
6.33328e-10
-2.27345e-08
9.95206e-08
6.24225e-10
-2.42301e-08
1.52965e-07
6.87891e-10
-9.37317e-08
-2.38146e-08
-6.27894e-08
-1.80832e-08
-2.84713e-10
-9.71708e-08
-4.00978e-08
-6.19476e-10
-9.22657e-08
-8.14973e-09
-3.33833e-10
-9.5708e-08
-3.42117e-08
1.66198e-10
-4.56824e-08
2.11979e-08
1.07841e-10
-9.09199e-09
1.11259e-09
7.06465e-11
-6.23025e-09
2.83781e-10
3.50425e-11
-7.36482e-09
4.33207e-09
6.38452e-12
-6.04969e-09
9.54333e-10
-2.46878e-11
-6.61055e-09
3.43777e-09
-3.94986e-11
-5.54444e-09
2.98368e-09
1.69784e-11
-3.98628e-09
1.38093e-10
1.96694e-11
-3.45357e-09
1.69201e-09
4.1576e-12
-2.95522e-09
1.38825e-09
1.87689e-11
-2.73657e-09
1.30791e-09
3.00572e-10
-2.79016e-09
1.7488e-09
5.35868e-10
-3.69848e-09
2.4059e-09
7.59294e-10
-2.14106e-08
1.07854e-07
8.00295e-10
-3.18537e-08
7.90397e-08
3.39624e-10
-9.4377e-08
-2.95167e-08
-5.44598e-08
-9.498e-09
-1.62688e-10
-8.29522e-08
-2.02866e-08
-7.77216e-11
-9.35593e-08
-3.84606e-09
2.21475e-11
-9.05451e-08
-2.43373e-08
1.5619e-11
-4.71067e-08
1.62852e-09
-1.39793e-11
-1.19955e-08
-4.38526e-09
8.72821e-11
-8.32089e-09
-3.16058e-09
5.3041e-11
-5.94714e-09
4.70253e-09
2.9118e-12
-5.31728e-09
1.34382e-09
-2.96317e-11
-5.54908e-09
3.67995e-09
-5.0072e-11
-4.73239e-09
2.87341e-09
-3.85281e-13
-4.22532e-09
-2.51956e-10
2.2898e-11
-3.23062e-09
1.28815e-09
1.02262e-11
-2.65026e-09
1.22312e-09
9.71229e-12
-2.45406e-09
1.15012e-09
2.17793e-10
-2.51546e-09
1.42923e-09
2.61856e-10
-3.27227e-09
1.7694e-09
1.03255e-09
-1.98711e-08
9.76522e-08
1.01657e-09
-3.91737e-08
-1.71264e-08
4.27875e-11
-9.50503e-08
-1.87446e-08
-4.71944e-08
1.14559e-09
-8.56329e-11
-9.82611e-09
1.33679e-10
-7.50539e-09
7.99454e-11
-7.1571e-09
-2.86186e-10
-2.81308e-09
-3.89504e-10
-4.05998e-09
-1.17515e-10
-2.04083e-09
-4.49183e-11
8.25041e-10
-1.66148e-11
6.63776e-10
2.29428e-12
2.91188e-10
6.87858e-12
1.293e-10
-3.81721e-11
-2.88647e-10
-4.47719e-11
-2.9752e-10
-9.49192e-12
-5.53902e-11
1.52969e-11
-6.61604e-11
2.44395e-10
2.20423e-10
4.71758e-10
5.51631e-10
8.98514e-10
5.55316e-08
5.75673e-10
-1.69293e-08
-4.03482e-11
-3.10781e-09
-9.93339e-10
-2.02861e-08
-1.05945e-07