/*--------------------------------*- C++ -*----------------------------------*\
| =========                 |                                                 |
| \\      /  F ield         | OpenFOAM: The Open Source CFD Toolbox           |
|  \\    /   O peration     | Version:  2.3.0                                 |
|   \\  /    A nd           | Web:      www.OpenFOAM.org                      |
|    \\/     M anipulation  |                                                 |
\*---------------------------------------------------------------------------*/
FoamFile
{
    version     2.0;
    format      ascii;
    class       volScalarField;
    location    "2.6";
    object      rho;
}
// * * * * * * * * * * * * * * * * * * * * * * * * * * * * * * * * * * * * * //

dimensions      [1 -3 0 0 0 0 0];

internalField   nonuniform List<scalar> 
10000
(
1019.74
1020.55
1020.42
1018.24
952.979
814.988
648.127
541.967
519.94
562.236
598.343
333.559
313.504
400.612
573.159
948.486
1018.07
1018.05
1017.02
1015.31
1027.11
1027.11
1027.11
1027.11
982.298
856.377
675.46
818.145
815.437
677.015
863.794
256.043
103.636
108.005
242.614
974.833
1027.08
1027.11
1027.11
1027.11
1027.11
1027.11
1027.11
1027.11
1018.07
779.855
672.294
646.282
676.162
645.204
719.09
767.006
503.464
501.954
631.806
1011.71
1027.09
1027.11
1027.11
1027.11
1027.11
1027.11
1027.11
1027.11
1019.13
760.962
636.901
667.947
676.545
656.406
669.148
651.309
629.991
626.796
729.757
1016.23
1027.09
1027.11
1027.11
1027.11
1027.11
1027.11
1027.11
1027.11
1020.62
747.341
644.259
650.166
669.733
675.499
678.691
680.823
633.203
637.661
721.78
1022.44
1027.1
1027.11
1027.11
1027.11
1027.11
1027.11
1027.11
1027.11
1023.21
716.378
629.453
667.711
677.49
663.431
692.072
667.864
652.132
649.949
728.262
1026.3
1027.11
1027.11
1027.11
1027.11
1027.11
1027.11
1027.11
1027.11
1025.16
655.146
701.059
681.052
676.757
708.454
684.424
711.006
670.556
631.391
774.821
1026.77
1027.11
1027.11
1027.11
1027.11
1027.11
1027.11
1027.11
1027.11
1026.46
762.01
747.77
822.081
800.284
869.029
834.558
812.548
818.183
756.434
885.887
1027.01
1027.11
1027.11
1027.11
1027.11
1027.11
1027.11
1027.11
1027.11
1027.11
1026.05
1025.81
1026.4
1026.03
1026.41
1026.34
1026.05
1026.31
1026.19
1026.65
1027.08
1027.11
1027.11
1027.11
1027.11
1027.11
1027.11
1027.11
1027.11
1027.11
1027.11
1027.11
1027.11
1027.11
1027.11
1027.11
1027.11
1027.11
1027.11
1027.11
1027.11
1027.11
1027.11
1027.11
1027.11
1027.11
1027.11
1027.11
1027.11
1027.11
1027.11
1027.11
1027.11
1027.11
1027.11
1027.11
1027.11
1027.11
1027.11
1027.11
1027.11
1027.11
1027.11
1027.11
1027.11
1027.11
1027.11
1027.11
1027.11
1027.11
1027.11
1027.11
1027.11
1027.11
1027.11
1027.11
1027.11
1027.11
1027.11
1027.11
1027.11
1027.11
1027.11
1027.11
1027.11
1027.11
1027.11
1027.11
1027.11
1027.11
1027.11
1027.11
1027.11
1027.11
1027.11
1027.11
1027.11
1027.11
1027.11
1027.11
1027.11
1027.11
1027.11
1027.11
1027.11
1027.11
1027.11
1027.11
1027.11
1027.11
1027.11
1027.11
1027.11
1027.11
1027.11
1027.11
1027.11
1027.11
1027.11
1027.11
1027.11
1027.11
1027.11
1027.11
1027.11
1027.11
1027.11
1027.11
1027.11
1027.11
1027.11
1027.11
1027.11
1027.11
1027.11
1027.11
1027.11
1027.11
1027.11
1027.11
1027.11
1027.11
1027.11
1027.11
1027.11
1027.11
1027.11
1027.11
1027.11
1027.11
1027.11
1027.11
1027.11
1027.11
1027.11
1027.11
1027.11
1027.11
1027.11
1027.11
1027.11
1027.11
1027.11
1027.11
1027.11
1027.11
1027.11
1027.11
1027.11
1027.11
1027.11
1027.11
1027.11
1027.11
1027.11
1027.11
1027.11
1027.11
1027.11
1027.11
1027.11
1027.11
1027.11
1027.11
1027.11
1027.11
1027.11
1027.11
1027.11
1027.11
1027.11
1027.11
1027.11
1027.11
1027.11
1027.11
1027.11
1027.11
1027.11
1027.11
1027.11
1027.11
1027.11
1027.11
1027.11
1027.11
1027.11
1027.11
1027.11
1027.11
1027.11
1027.11
1027.11
1027.11
1027.11
1027.11
1027.11
1027.11
1027.11
1027.11
1027.11
1027.11
1027.11
1027.11
1027.11
1027.11
1027.11
1027.11
1027.11
1027.11
1027.11
1027.11
1027.11
1027.11
1027.11
1027.11
1027.11
1027.11
1027.11
1027.11
1027.11
1027.11
1027.11
1027.11
1027.11
1019.85
1020.67
1020.52
1018.53
946.549
808.33
642.869
530.132
505.07
558.512
597.996
333.012
310.844
389.965
561.949
940.276
1017.46
1017.76
1017.17
1015.46
1027.11
1027.11
1027.11
1027.11
967.175
857.252
675.808
821.257
818.724
677.318
864.958
248.949
97.2207
101.416
221.852
966.615
1027.08
1027.11
1027.11
1027.11
1027.11
1027.11
1027.11
1027.11
1017.43
779.928
673.414
645.648
676.154
645.078
720.852
770.642
500.738
504.18
618.563
1014.04
1027.11
1027.11
1027.11
1027.11
1027.11
1027.11
1027.11
1027.11
1019.1
760.68
636.909
668.213
676.892
655.721
669.144
650.736
630.002
626.7
731.71
1018.32
1027.1
1027.11
1027.11
1027.11
1027.11
1027.11
1027.11
1027.11
1020.32
743.89
644.736
648.611
669.546
676.037
678.307
681.202
632.934
637.407
722.885
1023.4
1027.11
1027.11
1027.11
1027.11
1027.11
1027.11
1027.11
1027.11
1022.12
715.984
628.369
667.56
677.648
663.198
692.293
667.538
651.949
650.414
727.545
1026.31
1027.11
1027.11
1027.11
1027.11
1027.11
1027.11
1027.11
1027.11
1023.85
651.702
700.177
679.314
675.314
704.363
682.744
709.062
668.534
629.979
769.75
1026.72
1027.11
1027.11
1027.11
1027.11
1027.11
1027.11
1027.11
1027.11
1026.08
750.052
740.1
815.049
790.179
860.716
827.061
804.342
810.237
749.12
877.304
1027.01
1027.11
1027.11
1027.11
1027.11
1027.11
1027.11
1027.11
1027.11
1027.11
1025.96
1025.73
1026.36
1025.94
1026.36
1026.29
1025.98
1026.25
1026.15
1026.63
1027.09
1027.11
1027.11
1027.11
1027.11
1027.11
1027.11
1027.11
1027.11
1027.11
1027.11
1027.11
1027.11
1027.11
1027.11
1027.11
1027.11
1027.11
1027.11
1027.11
1027.11
1027.11
1027.11
1027.11
1027.11
1027.11
1027.11
1027.11
1027.11
1027.11
1027.11
1027.11
1027.11
1027.11
1027.11
1027.11
1027.11
1027.11
1027.11
1027.11
1027.11
1027.11
1027.11
1027.11
1027.11
1027.11
1027.11
1027.11
1027.11
1027.11
1027.11
1027.11
1027.11
1027.11
1027.11
1027.11
1027.11
1027.11
1027.11
1027.11
1027.11
1027.11
1027.11
1027.11
1027.11
1027.11
1027.11
1027.11
1027.11
1027.11
1027.11
1027.11
1027.11
1027.11
1027.11
1027.11
1027.11
1027.11
1027.11
1027.11
1027.11
1027.11
1027.11
1027.11
1027.11
1027.11
1027.11
1027.11
1027.11
1027.11
1027.11
1027.11
1027.11
1027.11
1027.11
1027.11
1027.11
1027.11
1027.11
1027.11
1027.11
1027.11
1027.11
1027.11
1027.11
1027.11
1027.11
1027.11
1027.11
1027.11
1027.11
1027.11
1027.11
1027.11
1027.11
1027.11
1027.11
1027.11
1027.11
1027.11
1027.11
1027.11
1027.11
1027.11
1027.11
1027.11
1027.11
1027.11
1027.11
1027.11
1027.11
1027.11
1027.11
1027.11
1027.11
1027.11
1027.11
1027.11
1027.11
1027.11
1027.11
1027.11
1027.11
1027.11
1027.11
1027.11
1027.11
1027.11
1027.11
1027.11
1027.11
1027.11
1027.11
1027.11
1027.11
1027.11
1027.11
1027.11
1027.11
1027.11
1027.11
1027.11
1027.11
1027.11
1027.11
1027.11
1027.11
1027.11
1027.11
1027.11
1027.11
1027.11
1027.11
1027.11
1027.11
1027.11
1027.11
1027.11
1027.11
1027.11
1027.11
1027.11
1027.11
1027.11
1027.11
1027.11
1027.11
1027.11
1027.11
1027.11
1027.11
1027.11
1027.11
1027.11
1027.11
1027.11
1027.11
1027.11
1027.11
1027.11
1027.11
1027.11
1027.11
1027.11
1027.11
1027.11
1027.11
1027.11
1027.11
1027.11
1027.11
1027.11
1027.11
1027.11
1027.11
1027.11
1027.11
1027.11
1027.11
1027.11
1027.11
1027.11
1027.11
1027.11
1027.11
1019.89
1020.73
1020.55
1018.65
941.824
804.041
639.876
521.539
497.376
557.158
599.846
337.315
312.5
388.088
559.917
935.766
1017.15
1017.62
1017.25
1015.53
1027.11
1027.11
1027.11
1027.11
955.609
857.788
675.987
822.999
820.492
677.375
865.594
244.126
93.7851
97.5547
210.351
960.55
1027.08
1027.11
1027.11
1027.11
1027.11
1027.11
1027.11
1027.11
1017
779.776
674.061
645.318
676.102
645.05
721.818
772.639
500.418
507.255
610.493
1015.56
1027.11
1027.11
1027.11
1027.11
1027.11
1027.11
1027.11
1027.11
1019.15
760.625
636.894
668.398
677.096
655.327
669.154
650.375
629.923
626.618
732.809
1019.41
1027.11
1027.11
1027.11
1027.11
1027.11
1027.11
1027.11
1027.11
1020.18
741.973
645.018
647.738
669.443
676.351
678.099
681.426
632.791
637.265
723.509
1023.87
1027.11
1027.11
1027.11
1027.11
1027.11
1027.11
1027.11
1027.11
1021.36
715.781
627.752
667.483
677.771
663.1
692.439
667.369
651.867
650.69
727.161
1026.21
1027.11
1027.11
1027.11
1027.11
1027.11
1027.11
1027.11
1027.11
1022.84
650.042
699.753
678.458
674.65
702.302
681.923
708.096
667.545
629.274
767.111
1026.65
1027.11
1027.11
1027.11
1027.11
1027.11
1027.11
1027.11
1027.11
1025.95
743.702
736.016
811.246
784.69
856.125
822.978
799.889
805.912
745.187
872.536
1026.98
1027.11
1027.11
1027.11
1027.11
1027.11
1027.11
1027.11
1027.11
1027.11
1025.91
1025.68
1026.34
1025.9
1026.32
1026.27
1025.95
1026.22
1026.13
1026.61
1027.09
1027.11
1027.11
1027.11
1027.11
1027.11
1027.11
1027.11
1027.11
1027.11
1027.11
1027.11
1027.11
1027.11
1027.11
1027.11
1027.11
1027.11
1027.11
1027.11
1027.11
1027.11
1027.11
1027.11
1027.11
1027.11
1027.11
1027.11
1027.11
1027.11
1027.11
1027.11
1027.11
1027.11
1027.11
1027.11
1027.11
1027.11
1027.11
1027.11
1027.11
1027.11
1027.11
1027.11
1027.11
1027.11
1027.11
1027.11
1027.11
1027.11
1027.11
1027.11
1027.11
1027.11
1027.11
1027.11
1027.11
1027.11
1027.11
1027.11
1027.11
1027.11
1027.11
1027.11
1027.11
1027.11
1027.11
1027.11
1027.11
1027.11
1027.11
1027.11
1027.11
1027.11
1027.11
1027.11
1027.11
1027.11
1027.11
1027.11
1027.11
1027.11
1027.11
1027.11
1027.11
1027.11
1027.11
1027.11
1027.11
1027.11
1027.11
1027.11
1027.11
1027.11
1027.11
1027.11
1027.11
1027.11
1027.11
1027.11
1027.11
1027.11
1027.11
1027.11
1027.11
1027.11
1027.11
1027.11
1027.11
1027.11
1027.11
1027.11
1027.11
1027.11
1027.11
1027.11
1027.11
1027.11
1027.11
1027.11
1027.11
1027.11
1027.11
1027.11
1027.11
1027.11
1027.11
1027.11
1027.11
1027.11
1027.11
1027.11
1027.11
1027.11
1027.11
1027.11
1027.11
1027.11
1027.11
1027.11
1027.11
1027.11
1027.11
1027.11
1027.11
1027.11
1027.11
1027.11
1027.11
1027.11
1027.11
1027.11
1027.11
1027.11
1027.11
1027.11
1027.11
1027.11
1027.11
1027.11
1027.11
1027.11
1027.11
1027.11
1027.11
1027.11
1027.11
1027.11
1027.11
1027.11
1027.11
1027.11
1027.11
1027.11
1027.11
1027.11
1027.11
1027.11
1027.11
1027.11
1027.11
1027.11
1027.11
1027.11
1027.11
1027.11
1027.11
1027.11
1027.11
1027.11
1027.11
1027.11
1027.11
1027.11
1027.11
1027.11
1027.11
1027.11
1027.11
1027.11
1027.11
1027.11
1027.11
1027.11
1027.11
1027.11
1027.11
1027.11
1027.11
1027.11
1027.11
1027.11
1027.11
1027.11
1027.11
1027.11
1027.11
1027.11
1027.11
1027.11
1027.11
1027.11
1027.11
1027.11
1027.11
1020.08
1020.89
1020.7
1018.85
937.518
799.505
636.499
506.743
491.062
555.53
601.498
339.332
313.328
388.18
559.923
933.859
1017.14
1017.73
1017.49
1015.86
1027.11
1027.11
1027.11
1027.11
939.631
858.354
676.187
824.95
822.461
677.393
866.322
239.411
89.7308
92.9312
199.847
952.853
1027.07
1027.11
1027.11
1027.11
1027.11
1027.11
1027.11
1027.11
1016.34
779.805
674.829
644.981
676.058
645.054
722.913
774.903
499.554
509.865
603.545
1017.2
1027.11
1027.11
1027.11
1027.11
1027.11
1027.11
1027.11
1027.11
1019.2
760.592
636.881
668.622
677.333
654.891
669.172
649.942
629.884
626.564
733.996
1020.35
1027.11
1027.11
1027.11
1027.11
1027.11
1027.11
1027.11
1027.11
1020.01
739.814
645.343
646.76
669.335
676.716
677.879
681.694
632.641
637.107
724.168
1024.18
1027.11
1027.11
1027.11
1027.11
1027.11
1027.11
1027.11
1027.11
1020.61
715.549
627.061
667.402
677.928
663.016
692.62
667.193
651.797
651.002
726.706
1026.02
1027.11
1027.11
1027.11
1027.11
1027.11
1027.11
1027.11
1027.11
1021.85
648.471
699.329
677.573
673.993
700.142
681.083
707.095
666.532
628.532
764.239
1026.57
1027.11
1027.11
1027.11
1027.11
1027.11
1027.11
1027.11
1027.11
1025.91
736.853
731.6
807.068
778.686
851.043
818.489
795.019
801.167
740.888
867.155
1026.96
1027.11
1027.11
1027.11
1027.11
1027.11
1027.11
1027.11
1027.11
1027.1
1025.86
1025.63
1026.32
1025.85
1026.28
1026.24
1025.9
1026.18
1026.11
1026.6
1027.09
1027.11
1027.11
1027.11
1027.11
1027.11
1027.11
1027.11
1027.11
1027.11
1027.11
1027.11
1027.11
1027.11
1027.11
1027.11
1027.11
1027.11
1027.11
1027.11
1027.11
1027.11
1027.11
1027.11
1027.11
1027.11
1027.11
1027.11
1027.11
1027.11
1027.11
1027.11
1027.11
1027.11
1027.11
1027.11
1027.11
1027.11
1027.11
1027.11
1027.11
1027.11
1027.11
1027.11
1027.11
1027.11
1027.11
1027.11
1027.11
1027.11
1027.11
1027.11
1027.11
1027.11
1027.11
1027.11
1027.11
1027.11
1027.11
1027.11
1027.11
1027.11
1027.11
1027.11
1027.11
1027.11
1027.11
1027.11
1027.11
1027.11
1027.11
1027.11
1027.11
1027.11
1027.11
1027.11
1027.11
1027.11
1027.11
1027.11
1027.11
1027.11
1027.11
1027.11
1027.11
1027.11
1027.11
1027.11
1027.11
1027.11
1027.11
1027.11
1027.11
1027.11
1027.11
1027.11
1027.11
1027.11
1027.11
1027.11
1027.11
1027.11
1027.11
1027.11
1027.11
1027.11
1027.11
1027.11
1027.11
1027.11
1027.11
1027.11
1027.11
1027.11
1027.11
1027.11
1027.11
1027.11
1027.11
1027.11
1027.11
1027.11
1027.11
1027.11
1027.11
1027.11
1027.11
1027.11
1027.11
1027.11
1027.11
1027.11
1027.11
1027.11
1027.11
1027.11
1027.11
1027.11
1027.11
1027.11
1027.11
1027.11
1027.11
1027.11
1027.11
1027.11
1027.11
1027.11
1027.11
1027.11
1027.11
1027.11
1027.11
1027.11
1027.11
1027.11
1027.11
1027.11
1027.11
1027.11
1027.11
1027.11
1027.11
1027.11
1027.11
1027.11
1027.11
1027.11
1027.11
1027.11
1027.11
1027.11
1027.11
1027.11
1027.11
1027.11
1027.11
1027.11
1027.11
1027.11
1027.11
1027.11
1027.11
1027.11
1027.11
1027.11
1027.11
1027.11
1027.11
1027.11
1027.11
1027.11
1027.11
1027.11
1027.11
1027.11
1027.11
1027.11
1027.11
1027.11
1027.11
1027.11
1027.11
1027.11
1027.11
1027.11
1027.11
1027.11
1027.11
1027.11
1027.11
1027.11
1027.11
1027.11
1027.11
1027.11
1027.11
1027.11
1027.11
1027.11
1027.11
1027.11
1027.11
1027.11
1027.11
1020.2
1020.99
1020.8
1018.99
930.554
794.109
631.789
490.707
486.525
553.817
603.509
341.617
314.821
388.187
558.064
931.417
1017.16
1017.8
1017.63
1016.06
1027.11
1027.11
1027.11
1027.11
921.007
858.871
676.389
826.771
824.269
677.424
866.996
234.833
85.8748
88.4286
190.681
944.307
1027.06
1027.11
1027.11
1027.11
1027.11
1027.11
1027.11
1027.11
1015.42
779.458
675.506
644.652
675.999
645.05
723.897
776.947
499.145
512.897
598.916
1018.6
1027.11
1027.11
1027.11
1027.11
1027.11
1027.11
1027.11
1027.11
1019.25
760.681
636.88
668.856
677.558
654.479
669.189
649.567
629.852
626.545
735.16
1021.14
1027.11
1027.11
1027.11
1027.11
1027.11
1027.11
1027.11
1027.11
1019.86
737.711
645.658
645.824
669.228
677.056
677.669
681.936
632.502
636.962
724.794
1024.33
1027.11
1027.11
1027.11
1027.11
1027.11
1027.11
1027.11
1027.11
1019.97
715.217
626.406
667.332
678.088
662.948
692.793
667.035
651.742
651.313
726.223
1025.82
1027.11
1027.11
1027.11
1027.11
1027.11
1027.11
1027.11
1027.11
1021.19
647.241
698.966
676.815
673.457
698.25
680.361
706.219
665.659
627.872
761.628
1026.49
1027.11
1027.11
1027.11
1027.11
1027.11
1027.11
1027.11
1027.11
1025.9
730.756
727.645
803.278
773.259
846.391
814.4
790.609
796.85
737.003
862.207
1026.93
1027.11
1027.11
1027.11
1027.11
1027.11
1027.11
1027.11
1027.11
1027.1
1025.81
1025.58
1026.3
1025.82
1026.24
1026.21
1025.86
1026.15
1026.09
1026.58
1027.09
1027.11
1027.11
1027.11
1027.11
1027.11
1027.11
1027.11
1027.11
1027.11
1027.11
1027.11
1027.11
1027.11
1027.11
1027.11
1027.11
1027.11
1027.11
1027.11
1027.11
1027.11
1027.11
1027.11
1027.11
1027.11
1027.11
1027.11
1027.11
1027.11
1027.11
1027.11
1027.11
1027.11
1027.11
1027.11
1027.11
1027.11
1027.11
1027.11
1027.11
1027.11
1027.11
1027.11
1027.11
1027.11
1027.11
1027.11
1027.11
1027.11
1027.11
1027.11
1027.11
1027.11
1027.11
1027.11
1027.11
1027.11
1027.11
1027.11
1027.11
1027.11
1027.11
1027.11
1027.11
1027.11
1027.11
1027.11
1027.11
1027.11
1027.11
1027.11
1027.11
1027.11
1027.11
1027.11
1027.11
1027.11
1027.11
1027.11
1027.11
1027.11
1027.11
1027.11
1027.11
1027.11
1027.11
1027.11
1027.11
1027.11
1027.11
1027.11
1027.11
1027.11
1027.11
1027.11
1027.11
1027.11
1027.11
1027.11
1027.11
1027.11
1027.11
1027.11
1027.11
1027.11
1027.11
1027.11
1027.11
1027.11
1027.11
1027.11
1027.11
1027.11
1027.11
1027.11
1027.11
1027.11
1027.11
1027.11
1027.11
1027.11
1027.11
1027.11
1027.11
1027.11
1027.11
1027.11
1027.11
1027.11
1027.11
1027.11
1027.11
1027.11
1027.11
1027.11
1027.11
1027.11
1027.11
1027.11
1027.11
1027.11
1027.11
1027.11
1027.11
1027.11
1027.11
1027.11
1027.11
1027.11
1027.11
1027.11
1027.11
1027.11
1027.11
1027.11
1027.11
1027.11
1027.11
1027.11
1027.11
1027.11
1027.11
1027.11
1027.11
1027.11
1027.11
1027.11
1027.11
1027.11
1027.11
1027.11
1027.11
1027.11
1027.11
1027.11
1027.11
1027.11
1027.11
1027.11
1027.11
1027.11
1027.11
1027.11
1027.11
1027.11
1027.11
1027.11
1027.11
1027.11
1027.11
1027.11
1027.11
1027.11
1027.11
1027.11
1027.11
1027.11
1027.11
1027.11
1027.11
1027.11
1027.11
1027.11
1027.11
1027.11
1027.11
1027.11
1027.11
1027.11
1027.11
1027.11
1027.11
1027.11
1027.11
1027.11
1027.11
1027.11
1027.11
1027.11
1027.11
1027.11
1027.11
1027.11
1027.11
1020.31
1021.1
1020.9
1019.11
922.045
788.577
626.966
474.824
480.852
551.968
605.583
343.614
315.838
387.34
556.231
928.158
1017.13
1017.85
1017.76
1016.23
1027.11
1027.11
1027.11
1027.1
896.24
859.31
676.583
828.532
826.035
677.424
867.656
230.465
81.8199
83.686
181.591
934.7
1027.05
1027.11
1027.11
1027.11
1027.11
1027.11
1027.11
1027.11
1013.9
779.157
676.194
644.337
675.94
645.054
724.865
778.966
498.912
515.681
595.404
1019.44
1027.11
1027.11
1027.11
1027.11
1027.11
1027.11
1027.11
1027.11
1019.26
760.972
636.879
669.109
677.788
654.081
669.212
649.187
629.834
626.556
736.324
1021.69
1027.11
1027.11
1027.11
1027.11
1027.11
1027.11
1027.11
1027.11
1019.69
735.595
645.978
644.893
669.124
677.399
677.469
682.182
632.368
636.824
725.352
1024.33
1027.11
1027.11
1027.11
1027.11
1027.11
1027.11
1027.11
1027.11
1019.42
714.825
625.75
667.272
678.263
662.896
692.977
666.887
651.701
651.63
725.685
1025.59
1027.11
1027.11
1027.11
1027.11
1027.11
1027.11
1027.11
1027.11
1020.94
646.201
698.644
676.124
672.993
696.5
679.709
705.412
664.867
627.265
759.098
1026.38
1027.11
1027.11
1027.11
1027.11
1027.11
1027.11
1027.11
1027.11
1025.97
724.971
723.89
799.617
768.051
841.872
810.444
786.374
792.688
733.268
857.335
1026.9
1027.11
1027.11
1027.11
1027.11
1027.11
1027.11
1027.11
1027.11
1027.1
1025.78
1025.56
1026.29
1025.8
1026.22
1026.2
1025.83
1026.13
1026.08
1026.57
1027.09
1027.11
1027.11
1027.11
1027.11
1027.11
1027.11
1027.11
1027.11
1027.11
1027.11
1027.11
1027.11
1027.11
1027.11
1027.11
1027.11
1027.11
1027.11
1027.11
1027.11
1027.11
1027.11
1027.11
1027.11
1027.11
1027.11
1027.11
1027.11
1027.11
1027.11
1027.11
1027.11
1027.11
1027.11
1027.11
1027.11
1027.11
1027.11
1027.11
1027.11
1027.11
1027.11
1027.11
1027.11
1027.11
1027.11
1027.11
1027.11
1027.11
1027.11
1027.11
1027.11
1027.11
1027.11
1027.11
1027.11
1027.11
1027.11
1027.11
1027.11
1027.11
1027.11
1027.11
1027.11
1027.11
1027.11
1027.11
1027.11
1027.11
1027.11
1027.11
1027.11
1027.11
1027.11
1027.11
1027.11
1027.11
1027.11
1027.11
1027.11
1027.11
1027.11
1027.11
1027.11
1027.11
1027.11
1027.11
1027.11
1027.11
1027.11
1027.11
1027.11
1027.11
1027.11
1027.11
1027.11
1027.11
1027.11
1027.11
1027.11
1027.11
1027.11
1027.11
1027.11
1027.11
1027.11
1027.11
1027.11
1027.11
1027.11
1027.11
1027.11
1027.11
1027.11
1027.11
1027.11
1027.11
1027.11
1027.11
1027.11
1027.11
1027.11
1027.11
1027.11
1027.11
1027.11
1027.11
1027.11
1027.11
1027.11
1027.11
1027.11
1027.11
1027.11
1027.11
1027.11
1027.11
1027.11
1027.11
1027.11
1027.11
1027.11
1027.11
1027.11
1027.11
1027.11
1027.11
1027.11
1027.11
1027.11
1027.11
1027.11
1027.11
1027.11
1027.11
1027.11
1027.11
1027.11
1027.11
1027.11
1027.11
1027.11
1027.11
1027.11
1027.11
1027.11
1027.11
1027.11
1027.11
1027.11
1027.11
1027.11
1027.11
1027.11
1027.11
1027.11
1027.11
1027.11
1027.11
1027.11
1027.11
1027.11
1027.11
1027.11
1027.11
1027.11
1027.11
1027.11
1027.11
1027.11
1027.11
1027.11
1027.11
1027.11
1027.11
1027.11
1027.11
1027.11
1027.11
1027.11
1027.11
1027.11
1027.11
1027.11
1027.11
1027.11
1027.11
1027.11
1027.11
1027.11
1027.11
1027.11
1027.11
1027.11
1027.11
1027.11
1027.11
1027.11
1027.11
1027.11
1027.11
1027.11
1027.11
1027.11
1020.41
1021.2
1020.98
1019.22
911.611
782.682
622.039
459.191
472.642
550.081
607.61
345.571
317.524
386.306
553.886
924.189
1017.1
1017.89
1017.86
1016.37
1027.11
1027.11
1027.11
1027.1
863.1
859.713
676.795
830.15
827.7
677.393
868.289
226.338
77.8118
78.9812
172.441
924.45
1027.04
1027.11
1027.11
1027.11
1027.11
1027.11
1027.11
1027.11
1011.41
778.644
676.835
644.026
675.88
645.079
725.763
780.881
499.222
518.103
591.316
1019.77
1027.11
1027.11
1027.11
1027.11
1027.11
1027.11
1027.11
1027.11
1019.23
761.3
636.884
669.37
678.014
653.7
669.236
648.836
629.824
626.667
737.494
1021.94
1027.11
1027.11
1027.11
1027.11
1027.11
1027.11
1027.11
1027.11
1019.52
733.468
646.293
643.98
669.022
677.729
677.279
682.413
632.238
636.697
725.752
1024.08
1027.11
1027.11
1027.11
1027.11
1027.11
1027.11
1027.11
1027.11
1018.98
714.333
625.112
667.222
678.441
662.857
693.158
666.753
651.669
651.948
725.097
1025.34
1027.11
1027.11
1027.11
1027.11
1027.11
1027.11
1027.11
1027.11
1020.91
645.334
698.363
675.514
672.606
694.925
679.138
704.686
664.166
626.742
756.695
1026.26
1027.11
1027.11
1027.11
1027.11
1027.11
1027.11
1027.11
1027.11
1026.05
719.605
720.439
796.21
763.222
837.639
806.751
782.443
788.812
729.799
852.694
1026.86
1027.11
1027.11
1027.11
1027.11
1027.11
1027.11
1027.11
1027.11
1027.1
1025.78
1025.56
1026.29
1025.8
1026.22
1026.19
1025.82
1026.13
1026.08
1026.57
1027.1
1027.11
1027.11
1027.11
1027.11
1027.11
1027.11
1027.11
1027.11
1027.11
1027.11
1027.11
1027.11
1027.11
1027.11
1027.11
1027.11
1027.11
1027.11
1027.11
1027.11
1027.11
1027.11
1027.11
1027.11
1027.11
1027.11
1027.11
1027.11
1027.11
1027.11
1027.11
1027.11
1027.11
1027.11
1027.11
1027.11
1027.11
1027.11
1027.11
1027.11
1027.11
1027.11
1027.11
1027.11
1027.11
1027.11
1027.11
1027.11
1027.11
1027.11
1027.11
1027.11
1027.11
1027.11
1027.11
1027.11
1027.11
1027.11
1027.11
1027.11
1027.11
1027.11
1027.11
1027.11
1027.11
1027.11
1027.11
1027.11
1027.11
1027.11
1027.11
1027.11
1027.11
1027.11
1027.11
1027.11
1027.11
1027.11
1027.11
1027.11
1027.11
1027.11
1027.11
1027.11
1027.11
1027.11
1027.11
1027.11
1027.11
1027.11
1027.11
1027.11
1027.11
1027.11
1027.11
1027.11
1027.11
1027.11
1027.11
1027.11
1027.11
1027.11
1027.11
1027.11
1027.11
1027.11
1027.11
1027.11
1027.11
1027.11
1027.11
1027.11
1027.11
1027.11
1027.11
1027.11
1027.11
1027.11
1027.11
1027.11
1027.11
1027.11
1027.11
1027.11
1027.11
1027.11
1027.11
1027.11
1027.11
1027.11
1027.11
1027.11
1027.11
1027.11
1027.11
1027.11
1027.11
1027.11
1027.11
1027.11
1027.11
1027.11
1027.11
1027.11
1027.11
1027.11
1027.11
1027.11
1027.11
1027.11
1027.11
1027.11
1027.11
1027.11
1027.11
1027.11
1027.11
1027.11
1027.11
1027.11
1027.11
1027.11
1027.11
1027.11
1027.11
1027.11
1027.11
1027.11
1027.11
1027.11
1027.11
1027.11
1027.11
1027.11
1027.11
1027.11
1027.11
1027.11
1027.11
1027.11
1027.11
1027.11
1027.11
1027.11
1027.11
1027.11
1027.11
1027.11
1027.11
1027.11
1027.11
1027.11
1027.11
1027.11
1027.11
1027.11
1027.11
1027.11
1027.11
1027.11
1027.11
1027.11
1027.11
1027.11
1027.11
1027.11
1027.11
1027.11
1027.11
1027.11
1027.11
1027.11
1027.11
1027.11
1027.11
1027.11
1027.11
1027.11
1027.11
1027.11
1027.11
1027.11
1027.11
1027.11
1020.51
1021.3
1021.06
1019.31
899.073
776.699
616.913
444.492
459.783
548.221
609.419
346.862
319.104
385.38
551.286
919.615
1017.06
1017.92
1017.95
1016.49
1027.11
1027.11
1027.11
1027.1
820.689
860.13
677.038
831.684
829.303
677.367
868.908
222.504
73.6724
74.2414
162.885
913.863
1027.04
1027.11
1027.11
1027.11
1027.11
1027.11
1027.11
1027.11
1007.66
778.023
677.467
643.724
675.822
645.106
726.614
782.756
499.895
519.838
587.305
1019.83
1027.11
1027.11
1027.11
1027.11
1027.11
1027.11
1027.11
1027.11
1019.18
761.665
636.886
669.643
678.242
653.336
669.27
648.495
629.84
626.754
738.628
1021.97
1027.11
1027.11
1027.11
1027.11
1027.11
1027.11
1027.11
1027.11
1019.37
731.335
646.606
643.08
668.924
678.054
677.1
682.639
632.105
636.577
726.008
1023.66
1027.11
1027.11
1027.11
1027.11
1027.11
1027.11
1027.11
1027.11
1018.71
713.773
624.481
667.185
678.627
662.832
693.341
666.631
651.644
652.269
724.422
1025.05
1027.11
1027.11
1027.11
1027.11
1027.11
1027.11
1027.11
1027.11
1021.18
644.614
698.117
674.96
672.276
693.486
678.63
704.022
663.534
626.316
754.384
1026.13
1027.11
1027.11
1027.11
1027.11
1027.11
1027.11
1027.11
1027.11
1026.07
714.561
717.279
793.021
758.737
833.656
803.291
778.791
785.188
726.561
848.28
1026.81
1027.11
1027.11
1027.11
1027.11
1027.11
1027.11
1027.11
1027.11
1027.11
1025.77
1025.57
1026.29
1025.79
1026.22
1026.19
1025.82
1026.13
1026.07
1026.57
1027.1
1027.11
1027.11
1027.11
1027.11
1027.11
1027.11
1027.11
1027.11
1027.11
1027.11
1027.11
1027.11
1027.11
1027.11
1027.11
1027.11
1027.11
1027.11
1027.11
1027.11
1027.11
1027.11
1027.11
1027.11
1027.11
1027.11
1027.11
1027.11
1027.11
1027.11
1027.11
1027.11
1027.11
1027.11
1027.11
1027.11
1027.11
1027.11
1027.11
1027.11
1027.11
1027.11
1027.11
1027.11
1027.11
1027.11
1027.11
1027.11
1027.11
1027.11
1027.11
1027.11
1027.11
1027.11
1027.11
1027.11
1027.11
1027.11
1027.11
1027.11
1027.11
1027.11
1027.11
1027.11
1027.11
1027.11
1027.11
1027.11
1027.11
1027.11
1027.11
1027.11
1027.11
1027.11
1027.11
1027.11
1027.11
1027.11
1027.11
1027.11
1027.11
1027.11
1027.11
1027.11
1027.11
1027.11
1027.11
1027.11
1027.11
1027.11
1027.11
1027.11
1027.11
1027.11
1027.11
1027.11
1027.11
1027.11
1027.11
1027.11
1027.11
1027.11
1027.11
1027.11
1027.11
1027.11
1027.11
1027.11
1027.11
1027.11
1027.11
1027.11
1027.11
1027.11
1027.11
1027.11
1027.11
1027.11
1027.11
1027.11
1027.11
1027.11
1027.11
1027.11
1027.11
1027.11
1027.11
1027.11
1027.11
1027.11
1027.11
1027.11
1027.11
1027.11
1027.11
1027.11
1027.11
1027.11
1027.11
1027.11
1027.11
1027.11
1027.11
1027.11
1027.11
1027.11
1027.11
1027.11
1027.11
1027.11
1027.11
1027.11
1027.11
1027.11
1027.11
1027.11
1027.11
1027.11
1027.11
1027.11
1027.11
1027.11
1027.11
1027.11
1027.11
1027.11
1027.11
1027.11
1027.11
1027.11
1027.11
1027.11
1027.11
1027.11
1027.11
1027.11
1027.11
1027.11
1027.11
1027.11
1027.11
1027.11
1027.11
1027.11
1027.11
1027.11
1027.11
1027.11
1027.11
1027.11
1027.11
1027.11
1027.11
1027.11
1027.11
1027.11
1027.11
1027.11
1027.11
1027.11
1027.11
1027.11
1027.11
1027.11
1027.11
1027.11
1027.11
1027.11
1027.11
1027.11
1027.11
1027.11
1027.11
1027.11
1027.11
1027.11
1027.11
1027.11
1027.11
1027.11
1027.11
1027.11
1027.11
1027.11
1020.61
1021.4
1021.13
1019.39
884.573
770.778
611.645
432.042
446.482
546.554
611.068
347.746
321.043
384.867
548.283
915.026
1017.03
1017.94
1018.02
1016.59
1027.11
1027.11
1027.11
1027.1
770.516
860.611
677.302
833.1
830.813
677.344
869.509
218.974
69.6024
69.6843
152.938
902.959
1027.03
1027.11
1027.11
1027.11
1027.11
1027.11
1027.11
1027.11
1002.43
777.21
678.065
643.427
675.766
645.129
727.409
784.548
501.468
521.306
583.717
1019.67
1027.11
1027.11
1027.11
1027.11
1027.11
1027.11
1027.11
1027.11
1019.13
762.103
636.89
669.92
678.466
652.994
669.309
648.178
629.871
626.862
739.747
1021.79
1027.11
1027.11
1027.11
1027.11
1027.11
1027.11
1027.11
1027.11
1019.24
729.189
646.912
642.198
668.831
678.365
676.933
682.851
631.973
636.469
726.152
1023.16
1027.11
1027.11
1027.11
1027.11
1027.11
1027.11
1027.11
1027.11
1018.63
713.115
623.873
667.157
678.815
662.816
693.518
666.521
651.625
652.586
723.658
1024.7
1027.11
1027.11
1027.11
1027.11
1027.11
1027.11
1027.11
1027.11
1021.9
644.031
697.902
674.467
672
692.191
678.185
703.419
662.972
625.996
752.173
1025.99
1027.11
1027.11
1027.11
1027.11
1027.11
1027.11
1027.11
1027.11
1026.07
709.863
714.443
790.104
754.666
829.995
800.121
775.475
781.877
723.609
844.155
1026.76
1027.11
1027.11
1027.11
1027.11
1027.11
1027.11
1027.11
1027.11
1027.11
1025.77
1025.58
1026.28
1025.78
1026.23
1026.19
1025.82
1026.14
1026.07
1026.57
1027.11
1027.11
1027.11
1027.11
1027.11
1027.11
1027.11
1027.11
1027.11
1027.11
1027.11
1027.11
1027.11
1027.11
1027.11
1027.11
1027.11
1027.11
1027.11
1027.11
1027.11
1027.11
1027.11
1027.11
1027.11
1027.11
1027.11
1027.11
1027.11
1027.11
1027.11
1027.11
1027.11
1027.11
1027.11
1027.11
1027.11
1027.11
1027.11
1027.11
1027.11
1027.11
1027.11
1027.11
1027.11
1027.11
1027.11
1027.11
1027.11
1027.11
1027.11
1027.11
1027.11
1027.11
1027.11
1027.11
1027.11
1027.11
1027.11
1027.11
1027.11
1027.11
1027.11
1027.11
1027.11
1027.11
1027.11
1027.11
1027.11
1027.11
1027.11
1027.11
1027.11
1027.11
1027.11
1027.11
1027.11
1027.11
1027.11
1027.11
1027.11
1027.11
1027.11
1027.11
1027.11
1027.11
1027.11
1027.11
1027.11
1027.11
1027.11
1027.11
1027.11
1027.11
1027.11
1027.11
1027.11
1027.11
1027.11
1027.11
1027.11
1027.11
1027.11
1027.11
1027.11
1027.11
1027.11
1027.11
1027.11
1027.11
1027.11
1027.11
1027.11
1027.11
1027.11
1027.11
1027.11
1027.11
1027.11
1027.11
1027.11
1027.11
1027.11
1027.11
1027.11
1027.11
1027.11
1027.11
1027.11
1027.11
1027.11
1027.11
1027.11
1027.11
1027.11
1027.11
1027.11
1027.11
1027.11
1027.11
1027.11
1027.11
1027.11
1027.11
1027.11
1027.11
1027.11
1027.11
1027.11
1027.11
1027.11
1027.11
1027.11
1027.11
1027.11
1027.11
1027.11
1027.11
1027.11
1027.11
1027.11
1027.11
1027.11
1027.11
1027.11
1027.11
1027.11
1027.11
1027.11
1027.11
1027.11
1027.11
1027.11
1027.11
1027.11
1027.11
1027.11
1027.11
1027.11
1027.11
1027.11
1027.11
1027.11
1027.11
1027.11
1027.11
1027.11
1027.11
1027.11
1027.11
1027.11
1027.11
1027.11
1027.11
1027.11
1027.11
1027.11
1027.11
1027.11
1027.11
1027.11
1027.11
1027.11
1027.11
1027.11
1027.11
1027.11
1027.11
1027.11
1027.11
1027.11
1027.11
1027.11
1027.11
1027.11
1027.11
1027.11
1027.11
1027.11
1027.11
1027.11
1027.11
1027.11
1027.11
1027.11
1020.7
1021.5
1021.2
1019.46
868.82
765.144
606.36
421.825
435.116
545.074
612.635
347.939
322.767
385.284
544.949
910.511
1017
1017.95
1018.08
1016.68
1027.11
1027.11
1027.11
1027.1
718.322
861.148
677.553
834.427
832.25
677.319
870.094
215.795
65.4072
65.1209
142.511
891.992
1027.02
1027.11
1027.11
1027.11
1027.11
1027.11
1027.11
1027.11
995.563
776.261
678.647
643.135
675.711
645.159
728.172
786.253
503.501
523.36
580.081
1019.23
1027.11
1027.11
1027.11
1027.11