/*--------------------------------*- C++ -*----------------------------------*\
| =========                 |                                                 |
| \\      /  F ield         | OpenFOAM: The Open Source CFD Toolbox           |
|  \\    /   O peration     | Version:  2.3.0                                 |
|   \\  /    A nd           | Web:      www.OpenFOAM.org                      |
|    \\/     M anipulation  |                                                 |
\*---------------------------------------------------------------------------*/
FoamFile
{
    version     2.0;
    format      ascii;
    class       volVectorField;
    location    "1.87";
    object      Ur;
}
// * * * * * * * * * * * * * * * * * * * * * * * * * * * * * * * * * * * * * //

dimensions      [0 1 -1 0 0 0 0];

internalField   nonuniform List<vector> 
6000
(
(0.0586678 -0.602163 0)
(0.132401 -0.601793 0)
(0.181477 -0.643741 0)
(0.177924 -0.68028 0)
(0.0967059 -0.701889 0)
(0.00680588 -0.695245 0)
(-0.0619936 -0.670008 0)
(-0.0959723 -0.657775 0)
(-0.0877441 -0.658145 0)
(-0.0833507 -0.68688 0)
(-0.109432 -0.722874 0)
(-0.14373 -0.713397 0)
(-0.101755 -0.671397 0)
(0.0192567 -0.593502 0)
(0.116148 -0.537196 0)
(0.179511 -0.524193 0)
(0.241642 -0.515585 0)
(0.305709 -0.510759 0)
(0.393474 -0.500405 0)
(0.438021 -0.430307 0)
(0.389462 -0.38868 0)
(0.25057 -0.379209 0)
(0.0669013 -0.404113 0)
(-0.122232 -0.422944 0)
(-0.256202 -0.505686 0)
(-0.259496 -0.590371 0)
(-0.18926 -0.580022 0)
(-0.155174 -0.541736 0)
(-0.127142 -0.573637 0)
(-0.0565323 -0.630547 0)
(0.0484535 -1.129 0)
(0.0891208 -1.05183 0)
(0.100849 -1.09166 0)
(0.11236 -1.09587 0)
(0.0849054 -1.09504 0)
(0.0429133 -1.07524 0)
(-0.00887738 -1.04589 0)
(-0.0712932 -1.03089 0)
(-0.129846 -1.04562 0)
(-0.165785 -1.12805 0)
(-0.132165 -1.23723 0)
(-0.0409919 -1.24282 0)
(0.0969504 -1.22904 0)
(0.257031 -1.13354 0)
(0.348282 -1.00292 0)
(0.368862 -0.93006 0)
(0.354256 -0.877931 0)
(0.337834 -0.852198 0)
(0.339437 -0.850718 0)
(0.296526 -0.720294 0)
(0.213283 -0.649384 0)
(0.10392 -0.665726 0)
(-0.01845 -0.739632 0)
(-0.138877 -0.807828 0)
(-0.202189 -0.966771 0)
(-0.177556 -1.06507 0)
(-0.121395 -1.01903 0)
(-0.0915431 -0.937069 0)
(-0.0686225 -1.01337 0)
(-0.0224162 -1.08019 0)
(0.0698312 -1.19755 0)
(0.0916139 -0.998673 0)
(0.0828537 -1.07156 0)
(0.133522 -1.04043 0)
(0.121412 -0.972548 0)
(0.069795 -0.948972 0)
(0.016964 -0.935311 0)
(-0.0702384 -0.910355 0)
(-0.190715 -0.917301 0)
(-0.223785 -1.0423 0)
(-0.112976 -1.2066 0)
(0.0636741 -1.26091 0)
(0.237944 -1.29863 0)
(0.375984 -1.21598 0)
(0.438381 -1.02929 0)
(0.423586 -0.90063 0)
(0.352814 -0.795409 0)
(0.284051 -0.764836 0)
(0.214693 -0.728979 0)
(0.118015 -0.600847 0)
(0.0435867 -0.577947 0)
(-0.0206213 -0.648851 0)
(-0.111416 -0.769047 0)
(-0.0765446 -0.97322 0)
(0.0305244 -1.02746 0)
(0.0355158 -0.994338 0)
(0.032255 -0.962328 0)
(0.0431459 -0.842041 0)
(-0.00642388 -0.854521 0)
(-0.0271843 -0.958775 0)
(0.0644813 -1.35482 0)
(0.0826657 -1.00346 0)
(0.0667155 -1.17854 0)
(0.112231 -1.14325 0)
(0.123423 -1.01872 0)
(0.0801505 -0.993098 0)
(0.0430003 -0.993702 0)
(-0.0166209 -0.942293 0)
(-0.0734264 -0.949326 0)
(-0.0224275 -1.19895 0)
(0.103388 -1.37753 0)
(0.204334 -1.36797 0)
(0.279912 -1.38521 0)
(0.355254 -1.32 0)
(0.424018 -1.10667 0)
(0.432771 -0.915886 0)
(0.347025 -0.750356 0)
(0.226983 -0.680339 0)
(0.100159 -0.627236 0)
(0.00569079 -0.567265 0)
(-0.0469139 -0.588425 0)
(-0.131199 -0.653001 0)
(-0.157497 -0.898596 0)
(0.0890175 -1.37835 0)
(0.270543 -1.09635 0)
(0.168048 -0.968463 0)
(0.14237 -1.06661 0)
(0.193395 -0.908899 0)
(0.134807 -0.784276 0)
(0.0322666 -0.904562 0)
(0.0079495 -1.45313 0)
(0.0643368 -1.04485 0)
(0.0886153 -1.17267 0)
(0.0760814 -1.2052 0)
(0.0998303 -1.06282 0)
(0.102407 -1.00932 0)
(0.0961528 -1.02785 0)
(0.115802 -0.97445 0)
(0.182198 -1.07144 0)
(0.260238 -1.29006 0)
(0.26163 -1.30679 0)
(0.244845 -1.28215 0)
(0.239634 -1.29631 0)
(0.256272 -1.30089 0)
(0.319398 -1.16245 0)
(0.355269 -0.910085 0)
(0.288752 -0.669211 0)
(0.158879 -0.55751 0)
(0.0429609 -0.54461 0)
(-0.0286693 -0.541728 0)
(-0.0860911 -0.558483 0)
(-0.16575 -0.5688 0)
(-0.044944 -1.19879 0)
(0.354602 -1.79045 0)
(0.412589 -1.04993 0)
(0.261741 -0.820646 0)
(0.20985 -1.09836 0)
(0.258565 -0.927587 0)
(0.203288 -0.66902 0)
(0.0697087 -0.745596 0)
(-0.023018 -1.3291 0)
(0.0436639 -1.12341 0)
(0.10028 -1.08415 0)
(0.069594 -1.11034 0)
(0.0836067 -1.06353 0)
(0.120419 -1.00827 0)
(0.153318 -1.04136 0)
(0.222359 -1.0716 0)
(0.291206 -1.13303 0)
(0.29717 -1.22323 0)
(0.263426 -1.24283 0)
(0.23778 -1.26277 0)
(0.217584 -1.27367 0)
(0.212438 -1.27514 0)
(0.220997 -1.16166 0)
(0.21865 -0.876963 0)
(0.158188 -0.573383 0)
(0.072381 -0.46867 0)
(0.00598572 -0.492604 0)
(-0.0414686 -0.512959 0)
(-0.0679678 -0.517099 0)
(-0.0372297 -0.56429 0)
(0.172645 -1.65853 0)
(0.446385 -1.88976 0)
(0.400268 -0.958546 0)
(0.272797 -0.678983 0)
(0.209839 -1.04221 0)
(0.23384 -0.960876 0)
(0.190102 -0.604932 0)
(0.0712661 -0.592669 0)
(0.00199587 -1.23765 0)
(0.0414425 -1.13511 0)
(0.0739074 -1.02287 0)
(0.0612039 -1.03025 0)
(0.0748347 -1.03792 0)
(0.102667 -0.986029 0)
(0.131307 -1.01756 0)
(0.173707 -1.05696 0)
(0.216929 -1.12235 0)
(0.229614 -1.18582 0)
(0.223192 -1.23614 0)
(0.207757 -1.26842 0)
(0.203237 -1.27614 0)
(0.176715 -1.24782 0)
(0.118173 -1.11158 0)
(0.0682466 -0.814924 0)
(0.0192122 -0.506979 0)
(-0.0177647 -0.43555 0)
(-0.0357647 -0.46825 0)
(-0.0453311 -0.486453 0)
(-0.0185037 -0.519652 0)
(0.174141 -0.834928 0)
(0.391282 -1.82264 0)
(0.436308 -1.8207 0)
(0.37682 -0.900454 0)
(0.27951 -0.589266 0)
(0.211935 -0.935147 0)
(0.176292 -0.950334 0)
(0.129574 -0.569913 0)
(0.0526533 -0.47805 0)
(0.0278447 -1.2019 0)
(0.0433019 -1.10167 0)
(0.0294302 -0.992242 0)
(0.0297463 -1.01794 0)
(0.0493437 -1.04371 0)
(0.0664231 -0.997802 0)
(0.0821687 -1.03488 0)
(0.113173 -1.08265 0)
(0.146302 -1.13257 0)
(0.164578 -1.19061 0)
(0.168866 -1.23571 0)
(0.181557 -1.26433 0)
(0.175605 -1.24136 0)
(0.0800323 -1.12957 0)
(-0.0371209 -1.01436 0)
(-0.0702882 -0.800257 0)
(-0.0630693 -0.518391 0)
(-0.0596697 -0.445425 0)
(-0.048607 -0.457462 0)
(-0.0051366 -0.4921 0)
(0.131616 -0.659609 0)
(0.421252 -1.29598 0)
(0.508132 -1.7747 0)
(0.471156 -1.74075 0)
(0.381597 -0.883206 0)
(0.303002 -0.532813 0)
(0.216256 -0.790725 0)
(0.127052 -0.859676 0)
(0.07259 -0.541939 0)
(0.02732 -0.404055 0)
(0.045112 -1.17874 0)
(0.0364267 -1.00814 0)
(-0.0229835 -0.952589 0)
(-0.0220137 -1.02226 0)
(0.0135092 -1.07033 0)
(0.029485 -1.0082 0)
(0.0313298 -1.04786 0)
(0.0541732 -1.09986 0)
(0.0862278 -1.14681 0)
(0.107473 -1.18757 0)
(0.129481 -1.22702 0)
(0.152608 -1.22219 0)
(0.0818282 -1.10611 0)
(-0.0905429 -0.945778 0)
(-0.214133 -0.948226 0)
(-0.198738 -0.879219 0)
(-0.0998658 -0.60869 0)
(-0.0390306 -0.464687 0)
(0.0104527 -0.472946 0)
(0.141861 -0.606039 0)
(0.389044 -1.01925 0)
(0.557764 -1.48014 0)
(0.525616 -1.65444 0)
(0.464721 -1.61052 0)
(0.387676 -0.893581 0)
(0.32844 -0.493451 0)
(0.233989 -0.636057 0)
(0.11876 -0.735087 0)
(0.0281711 -0.489006 0)
(-0.00299446 -0.373084 0)
(0.0427022 -1.1501 0)
(0.0130808 -0.871016 0)
(-0.0735416 -0.881667 0)
(-0.0895207 -1.03016 0)
(-0.0335375 -1.11763 0)
(0.00325003 -1.02638 0)
(-0.00799061 -1.04837 0)
(0.00258889 -1.12369 0)
(0.0377872 -1.15049 0)
(0.0740255 -1.18144 0)
(0.110478 -1.18877 0)
(0.0866122 -1.1349 0)
(-0.0754352 -0.87068 0)
(-0.249719 -0.836458 0)
(-0.31728 -0.957193 0)
(-0.262466 -1.03892 0)
(-0.127072 -0.833235 0)
(0.0020692 -0.600465 0)
(0.142382 -0.651323 0)
(0.358134 -0.926386 0)
(0.525948 -1.23289 0)
(0.543062 -1.42842 0)
(0.481318 -1.48841 0)
(0.431756 -1.51871 0)
(0.379728 -0.912434 0)
(0.324477 -0.459673 0)
(0.231317 -0.498209 0)
(0.104653 -0.57254 0)
(-0.00950401 -0.416815 0)
(-0.0255824 -0.381411 0)
(0.0071778 -1.09621 0)
(-0.0345877 -0.731722 0)
(-0.115978 -0.78273 0)
(-0.153428 -1.02526 0)
(-0.086143 -1.18777 0)
(-0.0216816 -1.06487 0)
(-0.0284629 -1.06054 0)
(-0.0189054 -1.14627 0)
(0.020683 -1.14291 0)
(0.0609855 -1.15867 0)
(0.0912703 -1.13295 0)
(-0.0277655 -0.907218 0)
(-0.198428 -0.710374 0)
(-0.285411 -0.771943 0)
(-0.266434 -1.0243 0)
(-0.169098 -1.152 0)
(-0.0548852 -1.06019 0)
(0.0990616 -0.956341 0)
(0.249702 -0.939393 0)
(0.372462 -1.05927 0)
(0.431693 -1.22502 0)
(0.430953 -1.32281 0)
(0.416025 -1.41975 0)
(0.382342 -1.41759 0)
(0.342064 -0.912893 0)
(0.259287 -0.406472 0)
(0.17173 -0.396443 0)
(0.0653489 -0.443503 0)
(-0.0136518 -0.373583 0)
(-0.0172158 -0.39334 0)
(-0.0299284 -0.973208 0)
(-0.0791314 -0.619169 0)
(-0.143293 -0.674091 0)
(-0.196834 -1.00479 0)
(-0.130275 -1.28294 0)
(-0.033583 -1.14036 0)
(-0.0136585 -1.10063 0)
(0.0101977 -1.15968 0)
(0.0284596 -1.12117 0)
(0.0451178 -1.14169 0)
(0.0278545 -1.02459 0)
(-0.107478 -0.692358 0)
(-0.217143 -0.636156 0)
(-0.217344 -0.775525 0)
(-0.160819 -1.03716 0)
(-0.0871728 -1.08954 0)
(0.00876691 -1.08161 0)
(0.139055 -1.08358 0)
(0.209087 -1.05243 0)
(0.25495 -1.12905 0)
(0.297646 -1.20655 0)
(0.343 -1.30585 0)
(0.344713 -1.34464 0)
(0.356336 -1.35501 0)
(0.285524 -0.856062 0)
(0.163191 -0.334545 0)
(0.099227 -0.333966 0)
(0.0463282 -0.370161 0)
(0.0151054 -0.349384 0)
(0.00626684 -0.379423 0)
(-0.038596 -0.828529 0)
(-0.088955 -0.533451 0)
(-0.141027 -0.56958 0)
(-0.207122 -0.962002 0)
(-0.155705 -1.39125 0)
(-0.0186375 -1.26125 0)
(0.038925 -1.1519 0)
(0.0536989 -1.15519 0)
(0.041661 -1.08013 0)
(0.0255162 -1.08676 0)
(-0.0366469 -0.860201 0)
(-0.118165 -0.603526 0)
(-0.119889 -0.610117 0)
(-0.0868182 -0.742085 0)
(-0.102866 -0.933884 0)
(-0.109691 -1.05122 0)
(-0.0183517 -1.11937 0)
(0.110416 -1.17294 0)
(0.185425 -1.21161 0)
(0.192511 -1.20999 0)
(0.234692 -1.2532 0)
(0.274224 -1.28464 0)
(0.306317 -1.32773 0)
(0.337485 -1.29562 0)
(0.215336 -0.74223 0)
(0.0803828 -0.276737 0)
(0.0522363 -0.296393 0)
(0.0388817 -0.316054 0)
(0.0292112 -0.316828 0)
(0.0141319 -0.33642 0)
(-0.0312665 -0.701725 0)
(-0.0715026 -0.470801 0)
(-0.109295 -0.480538 0)
(-0.182251 -0.889133 0)
(-0.165592 -1.49075 0)
(-0.00379963 -1.42338 0)
(0.0831375 -1.21095 0)
(0.0804949 -1.11999 0)
(0.0565964 -1.02014 0)
(0.0181926 -0.966435 0)
(-0.0514173 -0.741114 0)
(-0.0569336 -0.588004 0)
(0.000290761 -0.606581 0)
(0.01422 -0.643592 0)
(-0.0624263 -0.763589 0)
(-0.138716 -0.999888 0)
(-0.0850195 -1.1572 0)
(0.0432982 -1.24584 0)
(0.14449 -1.28108 0)
(0.185854 -1.29718 0)
(0.216582 -1.2789 0)
(0.251048 -1.29717 0)
(0.281293 -1.28878 0)
(0.311248 -1.26024 0)
(0.139292 -0.599401 0)
(0.0305196 -0.250033 0)
(0.0289597 -0.267111 0)
(0.0292341 -0.274462 0)
(0.0252211 -0.277523 0)
(0.0120007 -0.283611 0)
(-0.0213445 -0.592832 0)
(-0.0458663 -0.43242 0)
(-0.0620023 -0.423282 0)
(-0.128405 -0.797509 0)
(-0.166527 -1.54709 0)
(-0.0371215 -1.59094 0)
(0.0691961 -1.29318 0)
(0.0957871 -1.06266 0)
(0.0760388 -0.938535 0)
(0.0301762 -0.829052 0)
(-0.0200999 -0.675019 0)
(0.0112507 -0.605721 0)
(0.0576452 -0.586765 0)
(0.0483945 -0.553455 0)
(-0.00109141 -0.616752 0)
(-0.0956524 -0.855628 0)
(-0.128198 -1.18422 0)
(-0.00984622 -1.27877 0)
(0.111897 -1.32947 0)
(0.182971 -1.31412 0)
(0.229471 -1.30705 0)
(0.254641 -1.27985 0)
(0.284681 -1.27556 0)
(0.282487 -1.21252 0)
(0.0907132 -0.465068 0)
(0.00669464 -0.22924 0)
(0.0133912 -0.236338 0)
(0.0156161 -0.237674 0)
(0.013119 -0.239415 0)
(0.00594803 -0.242107 0)
(-0.0107387 -0.512401 0)
(-0.0171252 -0.419242 0)
(-0.00993024 -0.402271 0)
(-0.0563677 -0.707257 0)
(-0.163998 -1.53362 0)
(-0.136317 -1.67832 0)
(-0.00854176 -1.42896 0)
(0.100715 -1.02637 0)
(0.103095 -0.819728 0)
(0.0496778 -0.700291 0)
(0.0243941 -0.626432 0)
(0.0455626 -0.598102 0)
(0.0636709 -0.553486 0)
(0.0657771 -0.509834 0)
(0.0579305 -0.537598 0)
(-0.0072809 -0.676001 0)
(-0.102793 -1.13247 0)
(-0.0377513 -1.31749 0)
(0.104386 -1.32688 0)
(0.19872 -1.32148 0)
(0.252629 -1.2758 0)
(0.284124 -1.26106 0)
(0.305407 -1.21744 0)
(0.258887 -1.12765 0)
(0.060141 -0.35649 0)
(-0.00402894 -0.210092 0)
(-0.00266075 -0.208993 0)
(-0.0022681 -0.209888 0)
(-0.00168666 -0.214958 0)
(-0.000702612 -0.220966 0)
(0.00157497 -0.474895 0)
(0.0174068 -0.428806 0)
(0.0442482 -0.413443 0)
(0.0263724 -0.636471 0)
(-0.139439 -1.4017 0)
(-0.264904 -1.67944 0)
(-0.159832 -1.59626 0)
(0.050116 -1.07668 0)
(0.10837 -0.69936 0)
(0.0649843 -0.603059 0)
(0.0527679 -0.584136 0)
(0.0601943 -0.567704 0)
(0.0706347 -0.531947 0)
(0.0896387 -0.500283 0)
(0.104063 -0.499781 0)
(0.0711359 -0.541293 0)
(-0.0227346 -0.978431 0)
(-0.00497355 -1.33234 0)
(0.138021 -1.33666 0)
(0.241397 -1.27531 0)
(0.294994 -1.23726 0)
(0.319566 -1.19093 0)
(0.345011 -1.14246 0)
(0.233822 -0.970287 0)
(0.0279796 -0.271452 0)
(-0.0183989 -0.193185 0)
(-0.0193968 -0.192506 0)
(-0.0183479 -0.197636 0)
(-0.0156688 -0.211521 0)
(-0.00687305 -0.231647 0)
(0.0133259 -0.491497 0)
(0.0512735 -0.467444 0)
(0.101266 -0.459671 0)
(0.114112 -0.605844 0)
(-0.0605943 -1.13505 0)
(-0.350899 -1.56752 0)
(-0.359534 -1.69254 0)
(-0.0916499 -1.22488 0)
(0.0673281 -0.646865 0)
(0.0727229 -0.563299 0)
(0.0767778 -0.560842 0)
(0.0865933 -0.546728 0)
(0.105575 -0.524663 0)
(0.130604 -0.494558 0)
(0.139377 -0.457508 0)
(0.11502 -0.460482 0)
(0.0751307 -0.876934 0)
(0.107124 -1.33991 0)
(0.223986 -1.30863 0)
(0.313264 -1.24708 0)
(0.355313 -1.1731 0)
(0.377983 -1.11189 0)
(0.383167 -1.03181 0)
(0.187101 -0.736586 0)
(-0.00701241 -0.216657 0)
(-0.0390684 -0.182217 0)
(-0.036516 -0.186923 0)
(-0.0377513 -0.202181 0)
(-0.0435032 -0.235576 0)
(-0.0230813 -0.294953 0)
(0.0233748 -0.580832 0)
(0.084643 -0.540956 0)
(0.155687 -0.532984 0)
(0.186171 -0.607469 0)
(0.0496046 -0.860114 0)
(-0.303111 -1.30269 0)
(-0.494148 -1.69079 0)
(-0.287088 -1.41218 0)
(-0.0173925 -0.757633 0)
(0.0831672 -0.575014 0)
(0.102592 -0.565165 0)
(0.130166 -0.54603 0)
(0.156849 -0.522626 0)
(0.180635 -0.47983 0)
(0.184871 -0.410018 0)
(0.167323 -0.41452 0)
(0.18376 -0.857223 0)
(0.235692 -1.29857 0)
(0.322057 -1.27632 0)
(0.400286 -1.1867 0)
(0.439767 -1.1052 0)
(0.436519 -1.0158 0)
(0.360979 -0.881403 0)
(0.0965457 -0.471852 0)
(-0.0445141 -0.198988 0)
(-0.0591361 -0.182614 0)
(-0.0569948 -0.193266 0)
(-0.0735092 -0.220391 0)
(-0.111604 -0.267697 0)
(-0.0673594 -0.362689 0)
(0.063143 -0.729547 0)
(0.157564 -0.624295 0)
(0.204604 -0.583454 0)
(0.208248 -0.5984 0)
(0.12153 -0.691605 0)
(-0.146826 -0.99509 0)
(-0.469961 -1.57127 0)
(-0.452849 -1.53449 0)
(-0.116369 -1.0714 0)
(0.107966 -0.606205 0)
(0.14065 -0.582766 0)
(0.178405 -0.5485 0)
(0.206028 -0.514092 0)
(0.231922 -0.460965 0)
(0.250278 -0.381138 0)
(0.242919 -0.394779 0)
(0.278365 -0.849968 0)
(0.32983 -1.25175 0)
(0.407808 -1.22456 0)
(0.490843 -1.1424 0)
(0.497489 -1.03847 0)
(0.410877 -0.878196 0)
(0.228039 -0.639171 0)
(0.0121757 -0.30761 0)
(-0.0706352 -0.203456 0)
(-0.0729523 -0.188455 0)
(-0.0817465 -0.193277 0)
(-0.108589 -0.215595 0)
(-0.143909 -0.321842 0)
(-0.0937396 -0.513315 0)
(0.116311 -0.924553 0)
(0.243702 -0.70587 0)
(0.239429 -0.555726 0)
(0.183993 -0.551175 0)
(0.106594 -0.611669 0)
(-0.0107369 -0.880606 0)
(-0.277503 -1.33104 0)
(-0.426605 -1.63768 0)
(-0.14507 -1.49738 0)
(0.108158 -0.658046 0)
(0.161045 -0.573744 0)
(0.195893 -0.531584 0)
(0.227575 -0.497639 0)
(0.266252 -0.448816 0)
(0.307536 -0.384245 0)
(0.317289 -0.426222 0)
(0.348873 -0.842407 0)
(0.398743 -1.21853 0)
(0.465238 -1.21519 0)
(0.493883 -1.07576 0)
(0.395446 -0.859186 0)
(0.235552 -0.651596 0)
(0.0678101 -0.441724 0)
(-0.0397086 -0.270305 0)
(-0.0662961 -0.2139 0)
(-0.0669891 -0.189389 0)
(-0.0866778 -0.174883 0)
(-0.150265 -0.185211 0)
(-0.20568 -0.459499 0)
(-0.153632 -1.04696 0)
(0.12901 -1.24514 0)
(0.263233 -0.834337 0)
(0.237768 -0.527876 0)
(0.140748 -0.489289 0)
(0.0411426 -0.559586 0)
(0.064998 -0.952953 0)
(-0.0436273 -1.15117 0)
(-0.219664 -1.73455 0)
(-0.0783847 -1.58624 0)
(0.050392 -0.66224 0)
(0.107075 -0.560674 0)
(0.162725 -0.537341 0)
(0.222971 -0.507024 0)
(0.28073 -0.461573 0)
(0.335991 -0.4249 0)
(0.375285 -0.53562 0)
(0.403349 -0.878949 0)
(0.427615 -1.16934 0)
(0.419372 -1.14702 0)
(0.334366 -0.903639 0)
(0.192242 -0.646557 0)
(0.0781616 -0.501249 0)
(-0.000962268 -0.378993 0)
(-0.0374143 -0.279123 0)
(-0.0364195 -0.224533 0)
(-0.0374124 -0.182649 0)
(-0.0600146 -0.133085 0)
(-0.145448 -0.201161 0)
(-0.252645 -0.74292 0)
(-0.0500077 -1.13419 0)
(0.00225792 -1.19621 0)
(0.0758186 -0.993436 0)
(0.12778 -0.608892 0)
(0.0863992 -0.455706 0)
(0.0415137 -0.571594 0)
(0.0826335 -1.11283 0)
(0.0521545 -1.14003 0)
(-0.0446599 -1.68743 0)
(-0.0558299 -1.54246 0)
(-0.0675329 -0.71199 0)
(0.012384 -0.650379 0)
(0.14365 -0.648728 0)
(0.24075 -0.587239 0)
(0.302928 -0.513327 0)
(0.343983 -0.499014 0)
(0.414066 -0.708997 0)
(0.445341 -0.950957 0)
(0.40899 -1.10056 0)
(0.305749 -0.996565 0)
(0.165568 -0.73358 0)
(0.0665254 -0.542947 0)
(0.0199802 -0.454057 0)
(0.00407824 -0.378759 0)
(0.00782319 -0.30196 0)
(0.0209644 -0.240259 0)
(0.030604 -0.18131 0)
(-0.00958108 -0.0924152 0)
(-0.111756 -0.293883 0)
(-0.190475 -0.901231 0)
(-0.0173633 -1.07542 0)
(-0.0608171 -0.984338 0)
(-0.149844 -0.887148 0)
(-0.113425 -0.698394 0)
(-0.0350406 -0.522771 0)
(0.0312175 -0.686699 0)
(0.0462167 -1.0908 0)
(0.0116675 -1.17194 0)
(-0.0931831 -1.56294 0)
(-0.269846 -1.51377 0)
(-0.261008 -1.02664 0)
(-0.075964 -0.929057 0)
(0.166372 -0.868754 0)
(0.334458 -0.720687 0)
(0.368087 -0.606648 0)
(0.365094 -0.622323 0)
(0.434552 -0.870376 0)
(0.467311 -1.00916 0)
(0.38522 -1.01437 0)
(0.230076 -0.851106 0)
(0.0997373 -0.641929 0)
(0.0455294 -0.516212 0)
(0.0376359 -0.448758 0)
(0.0475636 -0.389609 0)
(0.0681285 -0.329381 0)
(0.0935954 -0.270168 0)
(0.123681 -0.202409 0)
(0.0756566 -0.10044 0)
(-0.0446792 -0.402942 0)
(-0.129409 -0.93462 0)
(-0.0398894 -1.05267 0)
(-0.0549898 -0.777785 0)
(-0.156916 -0.749209 0)
(-0.196 -0.699754 0)
(-0.128516 -0.615071 0)
(-0.0386603 -0.745986 0)
(-0.0579236 -1.04121 0)
(-0.158294 -1.23209 0)
(-0.314603 -1.53542 0)
(-0.5013 -1.63283 0)
(-0.406515 -1.49459 0)
(-0.0272425 -1.45577 0)
(0.347394 -1.25839 0)
(0.453168 -0.871386 0)
(0.459406 -0.71735 0)
(0.48459 -0.805906 0)
(0.508157 -0.952206 0)
(0.47975 -0.998229 0)
(0.36476 -0.894887 0)
(0.214079 -0.721389 0)
(0.113587 -0.582691 0)
(0.077813 -0.501868 0)
(0.0753539 -0.45008 0)
(0.09089 -0.405828 0)
(0.120617 -0.362686 0)
(0.162343 -0.317607 0)
(0.220194 -0.259823 0)
(0.217777 -0.176485 0)
(0.135478 -0.362739 0)
(-0.0708538 -0.88178 0)
(-0.0782436 -1.04663 0)
(-0.0298334 -0.73025 0)
(-0.0833577 -0.705851 0)
(-0.125265 -0.683606 0)
(-0.116136 -0.67777 0)
(-0.0998817 -0.787793 0)
(-0.177441 -1.05786 0)
(-0.281923 -1.39206 0)
(-0.326771 -1.6976 0)
(-0.303859 -1.91266 0)
(-0.0643374 -2.12928 0)
(0.360607 -2.12569 0)
(0.78078 -1.85887 0)
(0.939407 -1.29609 0)
(0.840724 -0.887486 0)
(0.749927 -0.894322 0)
(0.626833 -0.906253 0)
(0.487782 -0.881909 0)
(0.339732 -0.732656 0)
(0.210318 -0.599975 0)
(0.133981 -0.525851 0)
(0.102889 -0.48317 0)
(0.0998251 -0.452606 0)
(0.117053 -0.425836 0)
(0.151791 -0.400814 0)
(0.204053 -0.375016 0)
(0.277997 -0.341543 0)
(0.348586 -0.293787 0)
(0.29433 -0.303619 0)
(0.059158 -0.741839 0)
(-0.0967458 -1.1055 0)
(-0.00491215 -0.847196 0)
(-0.0232691 -0.791267 0)
(-0.059861 -0.735173 0)
(-0.0976015 -0.75035 0)
(-0.106606 -0.917098 0)
(-0.0905579 -1.26654 0)
(-0.0285384 -1.69498 0)
(0.136037 -2.03607 0)
(0.371704 -2.19374 0)
(0.580587 -2.22188 0)
(0.736149 -2.09254 0)
(0.914299 -1.78004 0)
(0.984638 -1.27543 0)
(0.909881 -0.895495 0)
(0.759612 -0.75136 0)
(0.594085 -0.735519 0)
(0.426328 -0.679656 0)
(0.276174 -0.564028 0)
(0.176884 -0.501662 0)
(0.124926 -0.478903 0)
(0.103412 -0.466603 0)
(0.103209 -0.456357 0)
(0.121154 -0.447292 0)
(0.156898 -0.440753 0)
(0.211627 -0.435882 0)
(0.288646 -0.4286 0)
(0.387225 -0.414094 0)
(0.381763 -0.388478 0)
(0.240432 -0.602784 0)
(0.0336266 -1.10879 0)
(0.00264126 -1.01122 0)
(0.00484218 -0.940026 0)
(0.00662184 -0.879869 0)
(0.0342199 -1.00329 0)
(0.14981 -1.38662 0)
(0.367185 -1.70844 0)
(0.595006 -1.93813 0)
(0.750305 -2.06845 0)
(0.832623 -2.09973 0)
(0.825002 -2.09551 0)
(0.813798 -1.98215 0)
(0.805021 -1.63999 0)
(0.718454 -1.11819 0)
(0.584564 -0.698972 0)
(0.486212 -0.55283 0)
(0.389711 -0.52822 0)
(0.275803 -0.480864 0)
(0.179164 -0.443831 0)
(0.124086 -0.440161 0)
(0.0962709 -0.447902 0)
(0.0852599 -0.455273 0)
(0.0886546 -0.461355 0)
(0.106237 -0.4686 0)
(0.139146 -0.48 0)
(0.190488 -0.496949 0)
(0.265975 -0.518645 0)
(0.368635 -0.538233 0)
(0.459949 -0.561973 0)
(0.391558 -0.664212 0)
(0.162364 -0.979736 0)
(0.0240876 -1.40964 0)
(0.111664 -1.38379 0)
(0.256257 -1.3617 0)
(0.443561 -1.43623 0)
(0.642685 -1.58299 0)
(0.795469 -1.70308 0)
(0.881099 -1.81183 0)
(0.903489 -1.90549 0)
(0.87631 -1.95369 0)
(0.790375 -1.95995 0)
(0.715996 -1.84106 0)
(0.59488 -1.46148 0)
(0.431249 -0.951121 0)
(0.297171 -0.543023 0)
(0.239888 -0.408768 0)
(0.188899 -0.373247 0)
(0.13381 -0.367026 0)
(0.0938384 -0.383208 0)
(0.0715483 -0.407053 0)
(0.0598184 -0.429754 0)
(0.0568029 -0.449282 0)
(0.0628867 -0.467728 0)
(0.0798113 -0.489048 0)
(0.108359 -0.520214 0)
(0.151353 -0.56191 0)
(0.221795 -0.620985 0)
(0.320486 -0.67783 0)
(0.421743 -0.72549 0)
(0.428908 -0.840225 0)
(0.201935 -1.06731 0)
(0.0496524 -1.23316 0)
(0.180462 -1.2886 0)
(0.360733 -1.31614 0)
(0.547478 -1.38504 0)
(0.693768 -1.50042 0)
(0.787546 -1.62316 0)
(0.831495 -1.73274 0)
(0.817236 -1.80522 0)
(0.751695 -1.81804 0)
(0.645944 -1.79271 0)
(0.550165 -1.64292 0)
(0.386088 -1.25674 0)
(0.211136 -0.791183 0)
(0.102341 -0.420232 0)
(0.06753 -0.3026 0)
(0.0489427 -0.294586 0)
(0.0346607 -0.322156 0)
(0.0267152 -0.357441 0)
(0.0223836 -0.391091 0)
(0.0212373 -0.420962 0)
(0.0240076 -0.447823 0)
(0.0311683 -0.474412 0)
(0.0419042 -0.504884 0)
(0.0609221 -0.547471 0)
(0.0894406 -0.6057 0)
(0.14449 -0.71178 0)
(0.247704 -0.800694 0)
(0.335542 -0.851508 0)
(0.322376 -0.942779 0)
(0.143407 -1.12185 0)
(0.0566274 -1.24038 0)
(0.178618 -1.31801 0)
(0.328007 -1.37793 0)
(0.474235 -1.44413 0)
(0.588565 -1.53031 0)
(0.655854 -1.61698 0)
(0.674737 -1.68081 0)
(0.649398 -1.69618 0)
(0.582134 -1.67129 0)
(0.493217 -1.62738 0)
(0.397056 -1.44142 0)
(0.219637 -1.07601 0)
(0.0496533 -0.637769 0)
(-0.0292792 -0.322687 0)
(-0.0470078 -0.249797 0)
(-0.0449411 -0.271497 0)
(-0.0368783 -0.31038 0)
(-0.0293848 -0.349846 0)
(-0.0228471 -0.386162 0)
(-0.0160081 -0.419091 0)
(-0.00795035 -0.449726 0)
(0.00295129 -0.47985 0)
(0.0213723 -0.515257 0)
(0.0477164 -0.56675 0)
(0.0647028 -0.600566 0)
(0.0926633 -0.742107 0)
(0.140735 -0.886509 0)
(0.217612 -0.914119 0)
(0.227386 -0.913379 0)
(0.0914559 -0.98674 0)
(0.0491317 -1.29916 0)
(0.150543 -1.38602 0)
(0.262103 -1.455 0)
(0.365444 -1.50133 0)
(0.444551 -1.55218 0)
(0.489892 -1.59596 0)
(0.501388 -1.6188 0)
(0.488433 -1.59796 0)
(0.433743 -1.54669 0)
(0.372018 -1.46913 0)
(0.263398 -1.22927 0)
(0.0731862 -0.86842 0)
(-0.0758925 -0.487873 0)
(-0.124786 -0.26254 0)
(-0.1308 -0.242118 0)
(-0.114159 -0.274559 0)
(-0.0941324 -0.314285 0)
(-0.0776476 -0.352802 0)
(-0.0634524 -0.388672 0)
(-0.0497099 -0.421923 0)
(-0.0337686 -0.452698 0)
(-0.0115917 -0.482113 0)
(0.0196839 -0.51714 0)
(0.0712582 -0.559031 0)
(0.0895634 -0.555471 0)
(0.00185705 -0.668786 0)
(-0.0299383 -0.865068 0)
(0.0584646 -0.964857 0)
(0.113139 -0.826445 0)
(0.060033 -0.835664 0)
(0.0398369 -1.3465 0)
(0.12227 -1.43305 0)
(0.20443 -1.49177 0)
(0.272883 -1.52198 0)
(0.322817 -1.54709 0)
(0.351586 -1.56332 0)
(0.360995 -1.55862 0)
(0.358891 -1.51268 0)
(0.323482 -1.43847 0)
(0.275389 -1.30624 0)
(0.133226 -1.04396 0)
(-0.0527437 -0.681617 0)
(-0.161746 -0.365492 0)
(-0.193806 -0.248275 0)
(-0.19304 -0.258402 0)
(-0.166464 -0.29089 0)
(-0.140773 -0.327476 0)
(-0.119005 -0.363318 0)
(-0.0992925 -0.397597 0)
(-0.0789119 -0.430216 0)
(-0.0525917 -0.460519 0)
(-0.0134664 -0.488795 0)
(0.0324016 -0.513724 0)
(0.0705563 -0.541701 0)
(0.0909137 -0.551772 0)
(-0.0136336 -0.633193 0)
(-0.139993 -0.835409 0)
(-0.111338 -0.934663 0)
(-0.0137735 -0.795579 0)
(0.0250221 -0.713923 0)
(0.0326787 -1.37452 0)
(0.0992766 -1.4573 0)
(0.160207 -1.50241 0)
(0.205382 -1.51608 0)
(0.236157 -1.52048 0)
(0.253577 -1.51865 0)
(0.259283 -1.49487 0)
(0.256683 -1.43059 0)
(0.23365 -1.33073 0)
(0.172916 -1.12421 0)
(0.0033474 -0.82434 0)
(-0.151009 -0.518591 0)
(-0.221992 -0.29497 0)
(-0.249169 -0.266373 0)
(-0.236119 -0.284266 0)
(-0.206664 -0.313894 0)
(-0.17969 -0.346835 0)
(-0.155504 -0.380502 0)
(-0.133165 -0.415529 0)
(-0.10979 -0.452067 0)
(-0.0778785 -0.492499 0)
(-0.0236544 -0.536683 0)
(0.0305101 -0.533097 0)
(0.0534675 -0.549022 0)
(0.0581213 -0.564116 0)
(-0.00420813 -0.634873 0)
(-0.121922 -0.841449 0)
(-0.155702 -0.886463 0)
(-0.0822471 -0.837137 0)
(-0.0131103 -0.647433 0)
(0.0278026 -1.38644 0)
(0.0827796 -1.462 0)
(0.128347 -1.48916 0)
(0.158626 -1.48871 0)
(0.175231 -1.47894 0)
(0.18204 -1.46567 0)
(0.183554 -1.42444 0)
(0.170409 -1.34691 0)
(0.154078 -1.20655 0)
(0.055353 -0.945256 0)
(-0.110992 -0.636439 0)
(-0.222224 -0.38834 0)
(-0.272035 -0.288424 0)
(-0.290143 -0.293919 0)
(-0.267564 -0.312829 0)
(-0.23969 -0.339522 0)
(-0.21416 -0.3696 0)
(-0.191598 -0.402865 0)
(-0.172517 -0.441438 0)
(-0.156284 -0.489858 0)
(-0.133972 -0.558989 0)
(-0.0380186 -0.656126 0)
(0.0531545 -0.574694 0)
(0.0591071 -0.556877 0)
(0.0503657 -0.557616 0)
(0.0205475 -0.601139 0)
(-0.0729433 -0.812634 0)
(-0.132773 -0.850241 0)
(-0.0938361 -0.831258 0)
(-0.0307719 -0.633269 0)
(0.0248891 -1.38628 0)
(0.0715756 -1.4508 0)
(0.105781 -1.46075 0)
(0.12432 -1.44625 0)
(0.130594 -1.4238 0)
(0.128271 -1.39863 0)
(0.12449 -1.34538 0)
(0.104437 -1.25224 0)
(0.0702475 -1.0869 0)
(-0.0689396 -0.741766 0)
(-0.200541 -0.481925 0)
(-0.275378 -0.324545 0)
(-0.317947 -0.312754 0)
(-0.315924 -0.322251 0)
(-0.292817 -0.340866 0)
(-0.268622 -0.364995 0)
(-0.246526 -0.392305 0)
(-0.229248 -0.424704 0)
(-0.221984 -0.46312 0)
(-0.227603 -0.512923 0)
(-0.204819 -0.606963 0)
(-0.0270909 -0.885046 0)
(0.116463 -0.613394 0)
(0.0864153 -0.546329 0)
(0.0550979 -0.533309 0)
(0.0353803 -0.568767 0)
(-0.0321971 -0.776601 0)
(-0.0927306 -0.847419 0)
(-0.0784168 -0.79854 0)
(-0.0305645 -0.652895 0)
(0.0232393 -1.3774 0)
(0.0638523 -1.42704 0)
(0.0887018 -1.41867 0)
(0.0970099 -1.3894 0)
(0.0944944 -1.35712 0)
(0.08389 -1.31825 0)
(0.0699265 -1.2578 0)
(0.0428525 -1.13461 0)
(-0.0387382 -0.901158 0)
(-0.175289 -0.578046 0)
(-0.270043 -0.376681 0)
(-0.32563 -0.329651 0)
(-0.349012 -0.337839 0)
(-0.335884 -0.349393 0)
(-0.315119 -0.36735 0)
(-0.294501 -0.38891 0)
(-0.276491 -0.412403 0)
(-0.263871 -0.437572 0)
(-0.261207 -0.462279 0)
(-0.274983 -0.495681 0)
(-0.264846 -0.655445 0)
(-0.00503545 -1.25236 0)
(0.155788 -0.686851 0)
(0.0891241 -0.488055 0)
(0.0372027 -0.490694 0)
(0.0167207 -0.550158 0)
(-0.0219862 -0.755736 0)
(-0.0601054 -0.85274 0)
(-0.0611545 -0.824389 0)
(-0.0303448 -0.804127 0)
(0.0220172 -1.35923 0)
(0.057561 -1.38959 0)
(0.0738842 -1.36449 0)
(0.0715669 -1.31833 0)
(0.0621009 -1.27523 0)
(0.0450894 -1.22188 0)
(0.0154493 -1.15868 0)
(-0.0341248 -1.01467 0)
(-0.144439 -0.717858 0)
(-0.255184 -0.459013 0)
(-0.327169 -0.352971 0)
(-0.36882 -0.355032 0)
(-0.368962 -0.361687 0)
(-0.354243 -0.374477 0)
(-0.336011 -0.391863 0)
(-0.317347 -0.411105 0)
(-0.29944 -0.429917 0)
(-0.28267 -0.444674 0)
(-0.276063 -0.449674 0)
(-0.282456 -0.463061 0)
(-0.192074 -0.80073 0)
(0.0388971 -1.65915 0)
(0.0922029 -0.882346 0)
(0.0289862 -0.398702 0)
(-0.0295796 -0.44153 0)
(-0.0414248 -0.540785 0)
(-0.0559797 -0.736829 0)
(-0.123666 -0.845852 0)
(-0.156792 -1.01348 0)
(-0.0678903 -1.09379 0)
(0.0200861 -1.32418 0)
(0.0501498 -1.33733 0)
(0.0602135 -1.29373 0)
(0.0536278 -1.2357 0)
(0.0339507 -1.21108 0)
(-0.00215636 -1.13264 0)
(-0.0562724 -1.04025 0)
(-0.12545 -0.85486 0)
(-0.230007 -0.579177 0)
(-0.320398 -0.409177 0)
(-0.377071 -0.379191 0)
(-0.392677 -0.378641 0)
(-0.385339 -0.384507 0)
(-0.372011 -0.397326 0)
(-0.355598 -0.414094 0)
(-0.33603 -0.431527 0)
(-0.311198 -0.446324 0)
(-0.278483 -0.453122 0)
(-0.247153 -0.433191 0)
(-0.228481 -0.467468 0)
(-0.0839003 -1.06765 0)
(0.0356338 -1.7118 0)
(-0.0612897 -1.10585 0)
(-0.0898684 -0.392951 0)
(-0.116176 -0.421824 0)
(-0.108965 -0.538102 0)
(-0.101703 -0.741193 0)
(-0.128104 -0.910801 0)
(-0.146814 -1.32407 0)
(-0.0719786 -1.54635 0)
(0.0155964 -1.32739 0)
(0.0350164 -1.31757 0)
(0.0340917 -1.2454 0)
(0.0196586 -1.16283 0)
(-0.0148846 -1.08642 0)
(-0.0688824 -0.993493 0)
(-0.139153 -0.884465 0)
(-0.213642 -0.721285 0)
(-0.298067 -0.518239 0)
(-0.369894 -0.425713 0)
(-0.402716 -0.405787 0)
(-0.404881 -0.398844 0)
(-0.399258 -0.403577 0)
(-0.388859 -0.416399 0)
(-0.372807 -0.433067 0)
(-0.34751 -0.449758 0)
(-0.305595 -0.463444 0)
(-0.250143 -0.465622 0)
(-0.200837 -0.421479 0)
(-0.152183 -0.581479 0)
(-0.046778 -1.36858 0)
(-0.0739863 -1.76076 0)
(-0.238879 -1.28251 0)
(-0.21998 -0.628974 0)
(-0.146218 -0.483151 0)
(-0.0754319 -0.618348 0)
(0.00696593 -0.97793 0)
(0.10137 -1.35391 0)
(0.158032 -1.61921 0)
(0.0842882 -1.67355 0)
(0.00458919 -1.255 0)
(0.00435313 -1.22739 0)
(-0.0123678 -1.14374 0)
(-0.0424405 -1.04978 0)
(-0.0859741 -0.960714 0)
(-0.139721 -0.863216 0)
(-0.205765 -0.753889 0)
(-0.276126 -0.648556 0)
(-0.34396 -0.525199 0)
(-0.391482 -0.45633 0)
(-0.406902 -0.423399 0)
(-0.41158 -0.412544 0)
(-0.410964 -0.416429 0)
(-0.403341 -0.429586 0)
(-0.384906 -0.447303 0)
(-0.3474 -0.465754 0)
(-0.284185 -0.487221 0)
(-0.196226 -0.469274 0)
(-0.16059 -0.432254 0)
(-0.0871034 -0.860684 0)
(-0.0438439 -1.55485 0)
(-0.207169 -1.71641 0)
(-0.41458 -1.37142 0)
(-0.337244 -1.08333 0)
(-0.0704066 -0.825704 0)
(0.18403 -1.13004 0)
(0.441033 -1.35031 0)
(0.518997 -1.32617 0)
(0.390316 -1.27213 0)
(0.13606 -1.19492 0)
(-0.00978433 -1.17219 0)
(-0.0329228 -1.13606 0)
(-0.0624034 -1.04631 0)
(-0.102045 -0.942362 0)
(-0.150362 -0.851922 0)
(-0.199573 -0.768625 0)
(-0.25436 -0.684794 0)
(-0.312419 -0.632438 0)
(-0.35589 -0.552955 0)
(-0.384887 -0.477103 0)
(-0.403464 -0.434264 0)
(-0.415076 -0.418563 0)
(-0.420143 -0.421562 0)
(-0.414106 -0.435309 0)
(-0.388904 -0.456465 0)
(-0.335558 -0.481996 0)
(-0.2515 -0.506492 0)
(-0.155209 -0.478096 0)
(-0.126743 -0.547221 0)
(-0.104539 -1.2401 0)
(-0.0286321 -1.76804 0)
(-0.15599 -1.75671 0)
(-0.187069 -1.50305 0)
(0.042568 -1.49864 0)