/*--------------------------------*- C++ -*----------------------------------*\
| =========                 |                                                 |
| \\      /  F ield         | OpenFOAM: The Open Source CFD Toolbox           |
|  \\    /   O peration     | Version:  2.3.0                                 |
|   \\  /    A nd           | Web:      www.OpenFOAM.org                      |
|    \\/     M anipulation  |                                                 |
\*---------------------------------------------------------------------------*/
FoamFile
{
    version     2.0;
    format      ascii;
    class       volScalarField;
    location    "1.98";
    object      nut.particles;
}
// * * * * * * * * * * * * * * * * * * * * * * * * * * * * * * * * * * * * * //

dimensions      [0 2 -1 0 0 0 0];

internalField   nonuniform List<scalar> 
6000
(
2.02159e-05
1.96815e-05
2.00904e-05
1.97004e-05
2.29193e-05
2.08367e-05
1.4074e-05
1.25859e-05
1.20367e-05
1.38344e-05
1.887e-05
1.80203e-05
1.33893e-05
1.24955e-05
1.12405e-05
1.22177e-05
1.57862e-05
8.52268e-06
7.75875e-06
9.93369e-06
1.04222e-05
1.00312e-05
9.82606e-06
9.97173e-06
1.09153e-05
1.24534e-05
1.98037e-05
1.54289e-05
1.03998e-05
1.2064e-05
1.13156e-06
1.28242e-06
1.38597e-06
1.52685e-06
1.57547e-06
1.61237e-06
2.3468e-06
2.06389e-06
1.91795e-06
2.06085e-06
1.27825e-06
7.66425e-07
7.43674e-07
9.23331e-07
1.09665e-06
1.41963e-06
9.73012e-07
8.75705e-07
8.36659e-07
5.80512e-07
5.76441e-07
6.29032e-07
5.54204e-07
5.37734e-07
4.9683e-07
6.43035e-07
1.27209e-06
2.0958e-06
2.22506e-06
1.73362e-06
6.70506e-07
5.93419e-08
1.48578e-07
9.01912e-07
6.00088e-07
7.91375e-07
2.49669e-06
2.86879e-06
2.70148e-06
1.06877e-06
2.10959e-07
1.58162e-07
1.93817e-07
4.51395e-07
1.03475e-06
1.64477e-06
9.48067e-07
2.66918e-07
2.19881e-07
1.71425e-07
9.84792e-08
7.76074e-08
1.05391e-07
1.34036e-07
1.7606e-07
4.41255e-07
5.71308e-07
2.1613e-06
3.81849e-06
5.05976e-06
2.4949e-07
2.99962e-07
3.08254e-07
3.16139e-07
2.69132e-07
2.85048e-07
6.79596e-07
1.99725e-06
1.0271e-06
3.66712e-07
3.59843e-07
4.02239e-07
4.81956e-07
4.2838e-07
4.02187e-07
4.16299e-07
5.29704e-07
3.17837e-07
2.72089e-07
2.63883e-07
2.67439e-07
2.44522e-07
2.35656e-07
1.97893e-07
1.8425e-07
3.06299e-07
3.53258e-07
4.03307e-07
1.138e-06
4.65368e-06
2.7026e-07
8.25835e-07
3.27432e-07
3.04669e-07
3.04704e-07
3.11169e-07
3.73931e-07
1.04823e-06
1.21034e-06
5.31309e-07
3.77465e-07
4.39791e-07
4.09786e-07
4.24753e-07
5.71838e-07
4.7501e-07
3.38404e-07
2.74435e-07
3.00227e-07
3.34429e-07
4.07351e-07
3.52817e-07
3.33704e-07
2.63421e-07
2.3822e-07
3.12167e-07
3.40483e-07
2.50114e-07
1.5397e-06
5.22775e-06
4.61627e-07
1.61978e-06
8.58213e-07
3.13382e-07
2.71155e-07
2.72741e-07
4.57854e-07
8.12144e-07
1.26234e-06
4.61712e-07
2.76464e-07
2.98959e-07
3.96494e-07
6.11223e-07
1.24697e-06
8.17256e-07
4.76881e-07
3.38685e-07
4.89266e-07
7.73663e-07
8.3567e-07
7.97799e-07
6.29794e-07
3.87879e-07
2.94806e-07
3.42831e-07
3.11621e-07
3.32714e-07
2.55042e-06
3.88108e-06
8.51332e-07
1.51769e-06
2.44867e-06
6.78077e-07
3.75502e-07
3.89149e-07
4.46688e-07
7.39344e-07
9.22235e-07
8.15106e-07
4.50272e-07
4.0584e-07
5.76375e-07
1.54921e-06
3.57532e-06
1.21875e-06
5.61884e-07
5.26854e-07
8.14915e-07
1.98606e-06
1.76543e-06
1.81125e-06
1.15963e-06
6.4549e-07
4.66606e-07
4.47462e-07
3.23492e-07
1.54263e-06
1.52583e-06
7.58375e-07
2.26954e-06
0.00104781
0.000497387
2.04949e-06
4.18081e-07
4.03795e-07
3.42624e-07
6.52366e-07
9.79644e-05
4.19323e-05
8.55555e-07
8.20397e-07
1.34146e-06
5.1934e-06
0.000103121
2.911e-06
4.95307e-07
5.01453e-07
1.60906e-06
4.52905e-06
3.34979e-06
2.9109e-06
1.8614e-06
1.18293e-06
9.65216e-07
8.04881e-07
8.69551e-07
1.2444e-06
2.46085e-07
3.72959e-07
0.00210485
0.00500382
0.00394846
0.000618883
2.25365e-07
4.00462e-07
8.22871e-07
0.000299299
0.000960855
0.00062216
7.87501e-05
1.93689e-06
6.85788e-05
0.00146681
0.00140473
7.94095e-06
5.24356e-07
4.92438e-07
3.77591e-06
0.000320141
0.000377659
0.00036867
0.000133155
1.86314e-05
2.56728e-06
2.77894e-06
1.34685e-06
4.50011e-07
3.04744e-07
3.28729e-07
0.0053345
0.00532593
0.00534399
0.00514072
0.000476077
2.58095e-06
0.000162876
0.00168758
0.0022811
0.00182968
0.00099497
0.000770172
0.00152134
0.00148371
0.00150358
0.00115319
1.30631e-06
8.05269e-07
5.96807e-05
0.000844766
0.00109608
0.00114826
0.00103565
0.000755707
0.000624202
0.000456925
2.65502e-06
3.54772e-07
3.21443e-07
3.21652e-07
0.00534757
0.00535229
0.00532502
0.00536214
0.00456112
0.00154263
0.00149936
0.00211034
0.0032741
0.00347735
0.00282522
0.00159939
0.00156647
0.00155137
0.00148068
0.0015024
0.000449094
5.31188e-06
0.000427967
0.00084387
0.0013933
0.00139943
0.00139412
0.00140545
0.0013923
0.000629713
5.206e-06
1.32839e-06
3.49706e-07
4.68877e-07
0.0053136
0.0043975
0.00517815
0.00530331
0.00533535
0.00458415
0.00312807
0.0026765
0.00373959
0.0037699
0.00365892
0.000690475
2.46544e-05
2.19158e-05
2.96292e-05
8.98968e-05
0.000616349
0.000625883
0.000558976
0.000691573
0.00140356
0.00139556
0.00144031
0.00139621
0.00145657
0.00044784
5.17417e-06
5.47458e-06
2.16436e-06
1.21239e-06
3.2003e-05
0.00016297
0.0017729
0.00546073
0.00529899
0.00538601
0.00527625
0.00408065
0.00397069
0.00387955
0.00362114
2.54854e-05
3.77676e-06
3.06423e-06
4.81546e-06
9.19994e-06
4.91724e-05
0.000619991
0.000455766
0.000332171
0.00135661
0.0014951
0.00139671
0.00153604
0.00139572
0.000131655
3.66763e-06
5.85172e-06
4.29937e-06
6.9621e-06
4.66836e-06
1.16314e-05
0.000190083
0.00472923
0.00563271
0.00529189
0.00463573
2.36709e-05
1.63696e-05
2.85825e-05
3.1859e-05
4.38622e-06
1.86165e-07
4.9267e-07
1.32854e-06
1.19835e-06
6.57293e-06
3.22819e-05
1.98916e-05
1.46195e-05
0.000684078
0.0013967
0.00160638
0.00139707
0.00155531
6.39663e-06
2.39913e-06
2.59359e-06
2.27168e-06
7.46843e-06
4.40755e-07
1.33654e-06
1.19446e-05
0.00215285
0.00528474
0.00558162
2.18783e-05
4.98819e-06
2.38463e-06
5.697e-06
3.27481e-06
5.74994e-08
1.09421e-07
1.34033e-07
2.23169e-07
2.2876e-07
6.70592e-07
3.58303e-06
4.4077e-06
5.01419e-06
1.52823e-05
0.00158434
0.00139951
0.0016088
0.00138965
4.42178e-06
1.21488e-06
7.41664e-07
8.14874e-07
3.29323e-06
2.06442e-07
1.54398e-08
1.19919e-06
1.39188e-05
0.00559807
0.00515932
1.09046e-05
1.19937e-06
1.88986e-07
2.66746e-07
1.41628e-07
7.64232e-08
1.37378e-07
1.27204e-07
1.19192e-07
1.04624e-07
2.6912e-07
8.54626e-07
1.31738e-06
1.33087e-06
2.30842e-06
1.21986e-05
0.00155849
0.00139186
0.000678486
2.36792e-06
6.02743e-07
4.29467e-07
4.75623e-07
2.14947e-06
1.76016e-07
2.60974e-08
2.60936e-08
1.90061e-06
1.64806e-05
0.00203909
5.3516e-06
2.23027e-07
3.45122e-07
7.34859e-07
2.00088e-07
8.4536e-08
1.50425e-07
1.7824e-07
1.41761e-07
1.29306e-07
1.5366e-07
3.86663e-07
6.12615e-07
4.11559e-07
2.99548e-07
1.39493e-06
5.85148e-06
9.99736e-06
6.72197e-06
7.24602e-07
5.28865e-07
3.80553e-07
4.292e-07
2.01812e-06
1.50312e-07
2.75445e-08
3.64939e-08
9.11446e-08
6.62211e-06
6.33476e-05
1.94704e-06
3.0855e-07
1.03929e-06
8.4415e-07
1.34779e-07
9.36659e-08
1.64652e-07
1.77106e-07
1.57537e-07
1.38064e-07
1.39343e-07
6.60273e-08
2.07614e-07
1.24544e-07
2.4932e-07
2.59055e-07
4.86125e-07
1.33056e-06
9.94769e-07
9.56645e-07
5.14647e-07
3.91595e-07
4.82912e-07
2.05896e-06
1.29473e-07
3.33116e-08
4.68783e-08
6.52739e-08
3.32194e-06
4.9886e-05
3.09913e-06
1.03232e-06
1.48952e-06
4.19937e-07
9.17347e-08
1.14149e-07
1.54663e-07
1.69389e-07
1.65626e-07
1.57209e-07
1.41191e-07
6.30651e-08
9.7182e-09
8.95241e-08
1.973e-07
8.14096e-08
8.03413e-08
1.81896e-07
8.18605e-07
1.05636e-06
6.57386e-07
4.73369e-07
5.45936e-07
2.69033e-06
1.21938e-07
4.52459e-08
6.37971e-08
6.7924e-08
2.05848e-06
4.85593e-05
5.84706e-06
2.10312e-06
1.3134e-06
2.38164e-07
8.2023e-08
1.02129e-07
1.32232e-07
1.40417e-07
2.04586e-07
2.05371e-07
1.56513e-07
1.02609e-07
7.22986e-08
9.7595e-08
6.69349e-08
7.3022e-08
7.54696e-08
2.26034e-07
9.27481e-07
1.24376e-06
9.15923e-07
7.68755e-07
8.79117e-07
3.95962e-06
1.29231e-07
6.39675e-08
8.67638e-08
8.99044e-08
1.18128e-06
4.61886e-05
1.13939e-05
3.46662e-06
1.2407e-06
1.9897e-07
8.29483e-08
8.94396e-08
9.33309e-08
1.02766e-07
1.76941e-07
2.02926e-07
1.43393e-07
1.2662e-07
8.3107e-08
7.97227e-08
8.66635e-08
6.62671e-08
9.92811e-08
3.79865e-07
1.13464e-06
1.23677e-06
1.22301e-06
1.41151e-06
1.86203e-06
0.0006929
1.43729e-07
9.3131e-08
1.20024e-07
1.35898e-07
7.6718e-07
4.30397e-05
4.57015e-05
5.6797e-06
1.26199e-06
1.77695e-07
1.08396e-07
8.90988e-08
8.81328e-08
7.16843e-08
1.17365e-07
1.66017e-07
1.01289e-07
7.72212e-08
9.37256e-08
1.1461e-07
1.31735e-07
6.86456e-08
1.64781e-07
7.09129e-07
1.24203e-06
1.46123e-06
1.7641e-06
2.25653e-06
0.000753368
0.0061863
1.65916e-07
1.39091e-07
1.69036e-07
2.08961e-07
7.26211e-07
3.92176e-05
4.75206e-05
7.64772e-06
1.15929e-06
1.84496e-07
1.33309e-07
1.04435e-07
1.04567e-07
8.02896e-08
7.22141e-08
1.45652e-07
8.26815e-08
5.22195e-08
9.32919e-08
1.47952e-07
1.24677e-07
8.58305e-08
2.717e-07
1.12673e-06
1.5501e-06
1.90565e-06
1.63901e-05
0.00119493
0.00634571
0.0119203
2.06139e-07
2.04197e-07
2.47235e-07
3.43811e-07
9.09447e-07
3.40797e-05
5.01323e-05
7.00928e-06
7.99557e-07
1.77693e-07
1.5259e-07
1.04487e-07
1.32607e-07
1.17094e-07
7.74205e-08
1.32279e-07
1.11096e-07
6.73706e-08
1.26715e-07
1.71283e-07
1.18485e-07
7.24342e-08
6.46162e-07
1.5287e-06
1.92503e-06
6.50579e-05
0.0012379
0.00596549
0.0114652
0.0119826
2.84429e-07
3.12735e-07
4.00384e-07
6.0906e-07
1.38271e-06
3.86369e-05
5.38957e-05
3.71562e-06
4.21358e-07
1.69484e-07
1.69464e-07
1.07718e-07
1.40648e-07
1.57741e-07
1.10621e-07
1.0784e-07
1.4946e-07
1.05064e-07
1.57901e-07
2.01202e-07
8.8746e-08
2.43659e-07
1.49767e-06
2.95616e-06
0.000139396
0.0012158
0.00483518
0.010261
0.0119729
0.0119827
4.31633e-07
5.01756e-07
6.58797e-07
1.13713e-06
2.28787e-06
4.45723e-05
2.51756e-05
1.37411e-06
2.81435e-07
1.74291e-07
1.76873e-07
1.27407e-07
1.36064e-07
1.70679e-07
1.57122e-07
1.09515e-07
1.72017e-07
1.36082e-07
1.77109e-07
2.26764e-07
5.9606e-08
1.22356e-06
6.14063e-06
0.000195168
0.00123285
0.00408212
0.00867718
0.0119474
0.0119821
0.0114475
7.23423e-07
7.83698e-07
1.00473e-06
2.21054e-06
1.11976e-05
4.68825e-05
4.72331e-06
6.39757e-07
2.73654e-07
2.00291e-07
1.72028e-07
1.78086e-07
1.50611e-07
1.64701e-07
1.67999e-07
1.41766e-07
1.74226e-07
1.90154e-07
1.53566e-07
2.37178e-07
5.39708e-08
2.75856e-06
0.000205818
0.00124283
0.00382977
0.00755617
0.0110374
0.011978
0.0119008
0.00505553
1.15324e-06
1.09934e-06
1.21391e-06
3.23309e-06
1.94736e-05
1.83628e-05
8.35467e-07
4.90094e-07
3.11426e-07
2.06437e-07
1.85485e-07
2.44503e-07
2.12194e-07
2.0082e-07
1.80985e-07
1.63014e-07
1.72392e-07
2.54155e-07
1.88721e-07
2.04276e-07
1.16263e-07
4.51007e-06
0.00110004
0.00354427
0.00671372
0.0093947
0.010932
0.0118597
0.00641679
2.70313e-05
1.40946e-06
1.15635e-06
2.88816e-06
2.85278e-06
8.74868e-06
3.23473e-06
3.26956e-07
5.04715e-07
3.62851e-07
2.19354e-07
2.24745e-07
2.98476e-07
2.88379e-07
2.82305e-07
2.51076e-07
2.05252e-07
1.81494e-07
2.63066e-07
2.60862e-07
1.68494e-07
2.02087e-07
6.10131e-06
0.00246258
0.00476747
0.00606188
0.00646196
0.00574839
0.00396003
8.35327e-06
4.71405e-06
1.31644e-06
3.32617e-06
6.59071e-06
1.32635e-06
6.92752e-07
6.02143e-07
2.88551e-07
5.26177e-07
3.75412e-07
2.50192e-07
2.85745e-07
3.38306e-07
3.69437e-07
3.74651e-07
3.7855e-07
3.2485e-07
2.82792e-07
3.11512e-07
2.93602e-07
2.11693e-07
4.52165e-07
2.85555e-06
0.000927891
0.00166375
0.00172978
0.0016189
0.00101751
0.000385183
7.19355e-07
2.92635e-06
1.59641e-06
9.7085e-06
5.77075e-06
7.29835e-07
1.35095e-07
2.88931e-07
3.5153e-07
5.30739e-07
4.02757e-07
2.96666e-07
3.82321e-07
3.87224e-07
4.42632e-07
4.4686e-07
5.2701e-07
5.24854e-07
4.59701e-07
4.24213e-07
3.33264e-07
4.50437e-07
1.06283e-06
4.66589e-06
5.03222e-05
0.000108654
0.000138683
0.000145517
0.000107465
1.4476e-05
1.06921e-06
3.32184e-06
2.35671e-06
2.65413e-05
4.32226e-06
4.98049e-07
1.83463e-07
2.27466e-07
4.44441e-07
5.18607e-07
4.27066e-07
4.0511e-07
5.52527e-07
5.37483e-07
5.58859e-07
4.83524e-07
6.02185e-07
7.87987e-07
7.45464e-07
6.86036e-07
6.76449e-07
1.01797e-06
2.02619e-06
8.716e-05
0.000143456
0.000150739
0.000140166
0.000113456
6.97028e-05
2.30166e-05
2.0986e-06
0.000218836
3.02737e-06
0.000135181
4.17774e-06
3.64202e-07
2.07791e-07
2.48673e-07
5.46485e-07
4.95033e-07
5.3344e-07
6.36928e-07
9.00215e-07
8.79585e-07
8.20783e-07
6.57276e-07
5.99026e-07
8.8814e-07
9.98892e-07
1.04147e-06
1.26171e-06
1.84714e-06
5.35057e-05
0.000163675
0.000289162
0.000354709
0.000345592
0.000294232
0.00023104
0.000205897
0.000351278
0.00130498
1.4939e-05
0.000316894
4.00917e-06
3.66437e-07
2.79367e-07
2.79514e-07
4.43531e-07
5.63276e-07
9.29379e-07
1.06742e-06
1.54691e-06
1.52496e-06
1.3193e-06
1.0301e-06
7.5402e-07
8.39675e-07
2.98313e-05
9.67074e-05
0.00015948
0.000212849
0.000246769
0.000313794
0.000441967
0.0005558
0.000603851
0.00059944
0.000595291
0.000702996
0.00118081
0.00259226
0.00208451
0.000801027
4.49755e-06
3.32903e-07
3.12501e-07
2.15861e-07
2.62094e-07
5.74737e-07
2.063e-06
1.92203e-06
2.39282e-06
2.34887e-06
2.02334e-06
1.57371e-06
1.08768e-06
3.55599e-05
0.000199606
0.000389063
0.000499127
0.00054717
0.000569653
0.000613673
0.000708937
0.000818307
0.000900244
0.000961851
0.00106532
0.00135018
0.00205873
0.00373821
0.00210206
0.0017327
5.20801e-06
2.96074e-07
3.84236e-07
2.60348e-07
2.61114e-07
3.48688e-07
4.37492e-06
0.000145198
0.000614517
0.000655811
0.00045843
0.000281104
0.00020806
0.000310422
0.000513644
0.000696308
0.000807201
0.00089677
0.00096633
0.00103218
0.0011149
0.00121215
0.00131219
0.00143216
0.00164296
0.00208134
0.00300735
0.00496534
0.000486814
3.2185e-05
1.68185e-05
8.89863e-06
3.95446e-06
2.95137e-06
2.02019e-06
2.26402e-06
0.000387994
0.000632223
0.00249563
0.00478326
0.00416758
0.00297093
0.00194347
0.00134622
0.00100108
0.00103206
0.00114867
0.00129535
0.00142553
0.00153765
0.00164299
0.00175105
0.0018758
0.0020535
0.00236478
0.00294334
0.00416028
0.00649926
6.86204e-06
8.14745e-06
1.68729e-05
1.79284e-05
1.61413e-05
1.8501e-05
2.2543e-05
6.71145e-05
0.00078854
0.000795772
0.00111999
0.00482672
0.00484165
0.00494255
0.00482416
0.00307378
0.00136604
0.0013308
0.00163106
0.0018692
0.0020399
0.0021833
0.00231219
0.00244087
0.00259807
0.0028384
0.00324694
0.00401905
0.00561807
0.00849295
9.57671e-07
1.15946e-06
2.41022e-06
3.94464e-06
6.4964e-06
9.30048e-06
1.5046e-05
3.00124e-05
3.56187e-05
2.76713e-05
1.68574e-05
3.17376e-05
0.00481695
0.00484525
0.00495491
0.00401572
0.00168452
0.00216594
0.00261843
0.00280454
0.00292569
0.00303994
0.00315703
0.00329329
0.00348389
0.00379572
0.00434452
0.00539195
0.00750841
0.011057
2.86216e-07
5.33684e-09
1.41247e-07
4.11683e-07
7.60278e-07
1.00134e-06
1.5098e-06
2.7654e-06
5.80102e-06
4.15227e-06
2.20708e-06
4.21412e-06
2.49733e-05
0.00490888
0.00484167
0.00487098
0.00313583
0.00377114
0.004037
0.00404565
0.00406371
0.00410893
0.00419013
0.00432807
0.00456684
0.00498676
0.00574333
0.0071859
0.00996862
0.0142598
2.34986e-07
1.19508e-08
1.25425e-08
1.00659e-08
7.2623e-09
1.5787e-08
2.56832e-08
1.8475e-07
7.89561e-07
5.69644e-07
1.07836e-07
4.25591e-07
4.28112e-06
0.000310293
0.00503097
0.00483805
0.00461238
0.00505806
0.00524035
0.00528643
0.0053132
0.00534946
0.0054332
0.0056089
0.00593848
0.0065291
0.00758934
0.00955192
0.0130953
0.0180937
1.95731e-07
1.24793e-08
1.29108e-08
1.32348e-08
1.5004e-08
1.75506e-08
1.32808e-08
1.25582e-08
1.28897e-08
2.38904e-08
2.82084e-08
2.72989e-07
2.40631e-06
0.00117187
0.00482719
0.00497513
0.0044672
0.00512999
0.00573781
0.00620199
0.00649668
0.00670367
0.00691771
0.00722617
0.00772984
0.0085802
0.0100455
0.0126156
0.0169192
0.02249
1.59183e-07
1.26582e-08
1.26879e-08
1.35147e-08
1.57981e-08
1.89383e-08
1.45841e-08
1.33948e-08
1.52841e-08
2.89413e-08
2.66367e-08
5.41976e-07
6.77196e-06
0.00133344
0.00472293
0.00274853
0.0033347
0.0043344
0.005413
0.00646666
0.00731706
0.00797848
0.0085592
0.00918785
0.0100169
0.0112542
0.0132256
0.0164425
0.0214231
0.0273824
1.25424e-07
1.30253e-08
1.26967e-08
1.34065e-08
1.61463e-08
2.0237e-08
1.60543e-08
1.48682e-08
1.72924e-08
3.33068e-08
2.48965e-08
5.69691e-07
1.00194e-05
0.00126506
0.00118421
0.00128685
0.00203938
0.00310919
0.0045194
0.00608499
0.00759838
0.00896238
0.0101966
0.0114158
0.0127983
0.0145969
0.0171811
0.0210458
0.0265717
0.0327459
9.50677e-08
1.34622e-08
1.33449e-08
1.29392e-08
1.61424e-08
2.10291e-08
1.84257e-08
1.73411e-08
2.02657e-08
3.68551e-08
2.67918e-08
4.99147e-07
7.41271e-06
0.000431477
0.000432715
0.000759103
0.0013742
0.00233959
0.0037972
0.0056872
0.00779308
0.00993199
0.0120133
0.014062
0.0162181
0.0187373
0.0219984
0.026449
0.0323531
0.0386294
6.99661e-08
1.39773e-08
1.4141e-08
1.40567e-08
1.60704e-08
2.06628e-08
2.12576e-08
2.04887e-08
2.70459e-08
4.13911e-08
3.19179e-08
8.52807e-07
6.28788e-06
0.000217477
0.000470709
0.000931729
0.00156934
0.00256398
0.00410018
0.00623798
0.00890874
0.011869
0.0148847
0.0178624
0.0208626
0.0241116
0.027974
0.0328509
0.0389763
0.0453702
4.98818e-08
1.45423e-08
1.58107e-08
1.53917e-08
1.70501e-08
1.99306e-08
2.26968e-08
2.15942e-08
3.95553e-08
4.33941e-08
1.45853e-07
2.0902e-06
7.55891e-06
0.000412017
0.000975757
0.00176645
0.00273289
0.00408175
0.00607805
0.00888326
0.0124272
0.01637
0.0203462
0.0241423
0.0277771
0.0315051
0.0357218
0.0408532
0.0472373
0.0539864
3.59815e-08
1.67637e-08
1.7406e-08
1.66876e-08
1.7972e-08
2.12577e-08
2.26009e-08
2.96109e-08
4.77372e-08
4.79149e-08
8.33203e-07
4.81865e-06
0.00012562
0.000974271
0.00211784
0.00372722
0.00567894
0.00812559
0.0113882
0.0156281
0.0205901
0.0256686
0.0303283
0.0343712
0.0379804
0.0416417
0.0458943
0.0513183
0.0584723
0.0662363
2.56795e-08
2.09842e-08
1.86398e-08
1.99155e-08
1.77625e-08
2.08864e-08
2.78946e-08
4.59491e-08
4.81265e-08
2.18442e-07
2.29464e-06
7.47567e-06
0.00081183
0.00230291
0.00462597
0.00793265
0.0121346
0.0174097
0.0237265
0.0306354
0.0373696
0.0427658
0.0465141
0.0491057
0.0513929
0.0541859
0.058224
0.0642658
0.0732744
0.0766814
2.20762e-08
2.63212e-08
2.11652e-08
2.35028e-08
2.06347e-08
2.53632e-08
3.79611e-08
5.08387e-08
5.94689e-08
1.00114e-06
4.94067e-06
0.000252923
0.00258715
0.00582763
0.0107273
0.0175891
0.0270084
0.0387849
0.0506292
0.0605619
0.0674035
0.0701954
0.0683902
0.0660956
0.0654017
0.066754
0.0707514
0.075532
0.0779554
0.0805005
3.62861e-08
3.03566e-08
2.41864e-08
2.6735e-08
2.46606e-08
3.2607e-08
4.762e-08
5.35622e-08
2.74551e-07
2.2828e-06
6.7285e-06
0.00214914
0.0073518
0.0143982
0.0242347
0.0387079
0.0584894
0.0758809
0.079073
0.0807283
0.0808214
0.0807784
0.078046
0.0758131
0.0748612
0.0750368
0.0761071
0.07798
0.0807488
0.0836171
6.62392e-08
3.54874e-08
2.86221e-08
2.77833e-08
3.05373e-08
4.29598e-08
5.31928e-08
7.31858e-08
9.72721e-07
4.46509e-06
0.000745504
0.00824316
0.0181091
0.0301319
0.0464257
0.0699738
0.0797729
0.080668
0.0806745
0.0807343
0.0806118
0.0804201
0.0769862
0.0749909
0.0741891
0.0755603
0.0772498
0.0796103
0.0828347
0.0860557
1.03127e-07
4.58456e-08
3.41054e-08
2.98856e-08
3.99336e-08
5.91132e-08
6.63618e-08
2.70794e-07
1.99607e-06
1.51529e-05
0.0065911
0.0207327
0.0329368
0.0468572
0.0647268
0.0750723
0.0751297
0.0467791
0.0338355
0.0280923
0.0171502
0.0275477
0.0333717
0.0447082
0.059276
0.0736288
0.0775536
0.0806183
0.084466
0.0881863
1.65721e-07
6.20851e-08
4.35532e-08
3.99231e-08
5.86351e-08
8.18479e-08
1.05517e-07
8.09266e-07
3.76547e-06
0.00260612
0.0206038
0.0328373
0.0402772
0.0486028
0.0548645
0.0406167
0.00864229
0.000486536
0.000267603
0.000121307
0.000121051
0.000540107
0.00435814
0.0191329
0.0456652
0.0723626
0.0781999
0.0812836
0.085679
0.0901048
2.97258e-07
8.86166e-08
6.39007e-08
6.3455e-08
9.93782e-08
1.27971e-07
2.47748e-07
1.51762e-06
0.000279072
0.0157042
0.0311648
0.0331949
0.0349487
0.0343813
0.0221745
0.00287123
2.97635e-06
3.22175e-06
4.82051e-06
8.50688e-06
0.000298449
0.000639296
0.00608531
0.0307413
0.0663528
0.07839
0.0800816
0.080911
0.0849637
0.0904553
5.637e-07
1.38476e-07
1.04757e-07
1.24207e-07
1.86406e-07
2.31806e-07
5.41178e-07
3.06514e-06
0.00761209
0.0276327
0.0288757
0.0262425
0.0221454
0.0142423
0.00252525
2.5044e-06
2.64548e-06
3.7516e-06
9.90547e-06
0.000873617
0.0112257
0.0237588
0.064189
0.0832807
0.0839426
0.0837622
0.0812848
0.0767812
0.0773259
0.0881436
1.12068e-06
2.50219e-07
1.94946e-07
2.57312e-07
3.59526e-07
4.27287e-07
8.32278e-07
0.00217408
0.0203303
0.0261536
0.0221026
0.0163917
0.0105872
0.00391652
0.000166187
1.77745e-06
1.82863e-06
9.20649e-06
0.000283071
0.0186511
0.0766529
0.0835931
0.083858
0.0839712
0.0840352
0.0841759
0.0804157
0.0537002
0.0281197
0.0757519
2.40121e-06
5.52449e-07
4.93897e-07
5.78595e-07
7.46561e-07
8.14523e-07
0.000443737
0.0107204
0.0211472
0.0212746
0.0153058
0.00954756
0.00502195
0.00144918
8.43343e-05
1.0317e-06
9.36102e-06
4.59806e-05
0.01143
0.0756124
0.0813908
0.0824907
0.0789766
0.0279306
0.0806088
0.0837095
0.0794254
0.0425379
0.0153448
0.0285523
5.29736e-06
1.69234e-06
2.21259e-06
2.32411e-06
2.65969e-06
0.000101092
0.00367231
0.0153398
0.0210943
0.0171922
0.010794
0.00632952
0.00325386
0.00108165
0.000125472
7.39349e-07
1.0187e-05
0.000781397
0.0297687
0.073887
0.0533531
0.0153946
0.000357959
2.07775e-05
0.000629611
0.0301174
0.0631101
0.040142
0.0149284
0.00997076
9.62293e-06
5.70556e-06
0.000109639
0.000182622
0.000183436
0.000588162
0.00429156
0.0158115
0.0195937
0.0146486
0.00865055
0.00511563
0.00286247
0.00114349
0.000198478
6.76172e-07
4.74511e-06
0.000409183
0.0240815
0.0362655
0.00960613
0.000172192
1.47601e-05
4.38263e-06
1.91546e-05
0.00153997
0.01909
0.0244464
0.0159758
0.00630253
1.07247e-05
0.000428117
0.00140309
0.00126787
0.000692994
0.0008943
0.00402048
0.0155901
0.0186934
0.0134694
0.00760198
0.00467305
0.00284772
0.00126039
0.000283033
6.99236e-07
4.89988e-07
2.20027e-05
0.00313337
0.0104873
0.000836826
1.90108e-05
2.56093e-06
4.07549e-07
5.98814e-06
0.00161768
0.00489319
0.00699014
0.00781947
0.00807423
7.94723e-06
0.000372465
0.00141759
0.00142162
0.00128942
0.00135815
0.003759
0.0150633
0.018559
0.012897
0.00704319
0.00454466
0.00290903
0.00133967
0.000343997
1.51079e-05
5.4851e-07
1.16829e-05
0.000629749
0.000285397
2.08758e-05
2.6461e-06
4.43082e-08
5.79083e-08
9.59903e-07
1.65029e-05
0.000153045
0.000120396
2.32369e-05
0.0041444
6.40078e-06
0.000157041
0.00107254
0.000969584
0.000151371
7.33336e-05
0.00169491
0.0126328
0.0181052
0.0120628
0.00670976
0.0046561
0.00302976
0.00136547
0.00039453
6.81855e-05
6.50399e-05
8.08814e-05
7.6082e-05
1.89437e-05
2.34243e-06
3.82379e-08
5.0774e-08
6.86852e-08
9.26396e-08
8.80225e-07
1.00431e-05
1.05859e-05
4.88969e-06
1.38543e-05
5.89011e-06
0.000142939
0.000286276
7.06968e-05
6.57467e-06
6.73511e-06
7.08395e-05
0.00552127
0.0124407
0.00989033
0.00677896
0.0052405
0.00335562
0.00142635
0.000472322
0.000194576
0.000200088
0.000119077
1.98358e-05
2.37226e-06
4.74968e-08
5.07407e-08
5.4834e-08
1.0223e-07
1.1036e-07
2.11139e-07
3.43436e-07
4.12402e-07
3.35786e-07
4.0253e-06
5.19978e-06
0.000244337
0.00052339
0.000196733
1.05148e-05
3.19657e-06
6.54994e-06
0.000161722
0.00290332
0.00632388
0.00616335
0.0054878
0.00383284
0.00154146
0.00053756
0.000342069
7.48485e-05
1.96018e-05
2.69516e-06
7.73446e-08
3.55897e-08
4.75614e-08
5.64133e-08
1.50217e-07
1.82465e-07
3.45569e-07
5.32284e-07
5.36981e-07
3.93959e-07
4.05715e-06
4.09653e-06
0.000278118
0.00145605
0.00128344
0.000550192
8.27055e-05
2.84021e-06
8.47718e-06
2.03681e-05
3.33797e-05
0.000351167
0.00253375
0.00260398
0.00135921
0.000524115
3.50104e-05
1.58442e-05
2.75602e-06
1.98984e-07
3.94877e-08
2.72742e-08
5.22787e-08
9.21667e-08
2.44257e-07
4.16402e-07
5.96552e-07
7.13439e-07
7.40695e-07
5.45948e-07
5.68858e-06
3.56266e-06
3.77839e-05
0.00166003
0.00275189
0.00207753
0.000961835
0.000141834
2.14376e-06
2.33599e-06
2.92433e-06
1.52497e-05
0.000649548
0.000964926
0.000645807
2.20683e-05
1.13801e-05
2.51711e-06
3.50547e-07
3.21409e-08
3.41813e-08
3.69482e-08
9.04718e-08
1.58507e-07
5.59327e-07
1.05259e-06
9.71716e-07
1.00445e-06
1.14075e-06
1.60963e-06
7.52529e-05
3.26361e-06
3.8063e-06
0.000943369
0.00274826
0.00278001
0.0023218
0.000998635
0.000132236
5.25535e-06
5.21387e-06
5.83104e-05
0.000435698
0.000511173
2.33398e-05
6.97345e-06
1.83609e-06
5.13349e-07
1.81489e-08
3.64351e-08
8.93405e-08
7.92055e-08
1.62292e-07
4.48272e-07
3.85515e-06
4.47693e-05
1.59567e-06
1.50828e-06
2.00448e-06
0.000202135
0.00270314
5.8476e-06
2.3412e-06
0.000133551
0.00209358
0.00275134
0.00278198
0.00228561
0.0011338
0.000564252
0.000476326
0.000414928
2.5613e-05
1.64437e-05
4.09463e-06
1.11854e-06
5.30098e-07
4.21475e-08
2.54125e-08
5.7415e-08
7.08045e-08
1.63872e-07
1.62372e-07
6.95257e-07
9.28249e-06
0.000342846
0.000340702
0.000134824
0.00058871
0.00299053
0.00131298
0.000215925
2.12628e-06
2.32472e-06
0.000304982
0.00228036
0.00275065
0.00277977
0.0027483
0.00275271
0.00103711
2.00614e-05
4.70099e-06
1.38646e-06
6.96705e-07
3.80679e-07
6.48727e-08
1.49751e-08
5.60924e-08
6.35245e-08
6.78906e-08
2.32523e-07
1.5061e-07
2.68488e-07
4.42226e-06
0.000147936
0.00113669
0.00113608
0.00222247
0.00300818
0.000136132
0.00152668
0.000211551
1.53705e-05
4.81299e-05
0.0005224
0.00190367
0.00274861
0.00278049
0.0020407
1.82891e-05
2.08387e-06
1.96505e-07
7.40112e-08
1.54047e-07
1.34361e-07
6.60672e-09
2.68771e-08
7.37019e-08
8.65903e-08
2.0124e-07
2.50536e-07
1.19822e-07
8.41927e-08
5.94918e-07
5.65588e-06
3.36374e-05
0.00121134
0.00186025
0.00188699
0.000133694
0.00247518
0.00153707
0.000510677
0.000223391
0.000398283
0.000817426
0.00174239
0.00212729
2.50199e-05
2.88782e-06
1.3111e-07
2.33641e-07
7.19818e-08
4.61328e-08
5.24097e-08
1.48291e-08
4.98875e-08
7.61411e-08
2.47693e-07
4.01071e-07
1.48058e-07
6.04944e-08
3.92646e-08
4.07546e-08
2.63302e-07
3.6736e-06
2.20084e-05
0.000622428
0.000895801
0.000132003
0.00212881
0.00203336
0.00142619
0.000821696
0.000676105
0.000797886
0.000857008
0.000579999
6.24463e-06
1.14235e-07
1.27944e-07
3.90471e-07
2.2004e-07
7.7865e-08
4.14904e-08
3.85346e-08
7.91376e-08
9.04235e-08
5.09843e-07
2.31359e-07
7.46728e-08
3.9324e-08
4.04673e-08
4.81578e-08
6.45182e-08
1.11162e-07
2.35611e-06
1.26331e-05
0.000116035
0.000131777
0.00159129
0.00175664
0.0014819
0.00115768
0.000954385
0.000888917
0.000485149
7.8934e-06
5.07381e-07
2.23911e-07
1.76304e-07
3.01187e-07
6.23605e-07
1.20788e-07
6.90271e-08
5.84069e-08
7.54536e-08
3.08953e-07
3.73571e-07
1.11987e-07
4.27421e-08
4.3709e-08
4.50974e-08
3.56701e-08
4.66035e-08
7.76954e-08
1.67672e-07
1.04057e-06
6.00057e-06
0.000258831
0.00126402
0.00148974
0.00128828
0.0011048
0.00101921
0.000584354
7.79504e-06
1.01948e-06
3.68479e-07
4.14616e-07
2.42742e-07
9.82539e-08
2.0608e-07
3.33954e-07
1.01101e-07
5.27236e-08
6.7754e-08
5.45217e-07
1.41628e-07
6.61359e-08
4.49906e-08
4.98922e-08
4.47227e-08
7.02342e-08
8.07381e-08
8.97493e-08
8.60363e-08
9.96877e-08
5.94783e-07
1.24421e-05
0.00112172
0.00139462
0.00114254
0.00100406
0.000681681
7.31451e-06
1.6124e-06
7.35695e-07
8.07601e-07
7.33391e-07
3.13358e-07
9.51239e-08
8.28506e-08
9.6591e-08
6.44951e-08
4.13106e-08
3.1343e-07
3.82563e-07
5.40205e-08
6.01699e-08
6.74039e-08
8.82567e-08
1.06607e-07
1.03547e-07
7.70451e-08
8.50262e-08
9.5771e-08
7.78572e-08
1.42788e-07
3.58039e-06
0.00102794
0.00136436
0.00108219
0.000667119
6.88741e-06
2.28646e-06
1.37347e-06
1.85863e-06
2.2872e-06
1.96232e-06
6.15627e-07
7.34714e-08
8.00681e-08
5.75157e-08
1.83486e-08
5.98303e-08
6.15132e-07
1.65659e-07
6.14254e-08
5.69991e-08
1.17152e-07
1.72674e-07
1.98811e-07
1.69221e-07
7.54421e-08
7.06337e-08
7.47493e-08
7.70679e-08
1.30253e-07
2.22119e-06
0.000833438
0.00124505
0.000843675
6.20643e-06
2.73206e-06
2.00221e-06
3.83019e-05
0.000114418
6.35001e-05
3.24723e-06
4.98119e-07
8.41728e-08
7.5468e-08
4.75352e-08
3.69832e-08
2.30901e-07
4.15063e-07
5.42912e-08
6.1558e-08
9.29094e-08
2.06757e-07
3.11297e-07
4.06204e-07
3.03255e-07
9.35864e-08
7.70964e-08
8.13334e-08
7.36313e-08
1.67994e-07
2.49884e-06
0.000448264
0.000737639
2.90024e-05
2.02741e-06
1.74637e-06
3.53272e-05
0.000200975
0.000204244
3.71334e-05
2.00892e-06
1.72317e-07
7.69818e-08
6.74022e-08
5.03508e-08
7.17975e-08
2.41071e-07
7.11499e-08
7.80021e-08
1.04295e-07
1.85204e-07
4.06737e-07
7.06136e-07
1.06636e-06
6.12598e-07
1.07592e-07
7.65335e-08
8.22182e-08
7.70017e-08
2.34759e-07
2.01303e-06
0.00012795
3.9907e-05
1.61171e-06
1.17384e-06
1.51043e-06
2.38616e-05
7.14416e-05
7.71679e-05
4.53565e-06
7.52539e-07
1.62452e-07
7.59848e-08
7.00704e-08
4.17753e-08
5.57973e-08
5.55388e-08
5.97904e-08
5.92401e-08
2.13883e-07
3.66603e-07
6.66683e-07
1.25365e-06
2.1853e-06
1.33817e-06
1.74423e-07
8.21651e-08
8.94044e-08
1.02732e-07
4.24849e-07
1.44507e-06
2.09365e-05
1.72446e-06
1.30418e-06
1.13417e-06
1.56357e-06
2.28473e-06
2.83117e-06
3.8809e-06
2.82534e-06
9.26829e-07
2.7728e-07
1.01489e-07
5.67243e-08
3.90861e-08
4.97426e-08
6.16877e-08
6.98247e-08
1.42991e-07
3.29017e-07
6.23558e-07
1.02709e-06
1.90792e-06
3.23298e-06
2.34449e-06
3.31332e-07
1.03211e-07
1.0715e-07
1.94752e-07
8.62262e-07
9.29681e-07
7.95923e-06
1.55668e-06
1.35722e-06
1.40997e-06
1.77014e-06
2.22902e-06
3.00481e-06
3.6785e-06
3.73776e-06
1.70877e-06
4.88217e-07
1.89729e-07
8.22811e-08
5.88617e-08
5.63032e-08
7.09853e-08
6.06677e-08
1.85373e-07
5.21139e-07
1.04406e-06
1.32462e-06
2.10522e-06
3.29389e-06
2.87193e-06
7.09468e-07
1.76039e-07
1.55182e-07
4.76123e-07
1.75181e-06
1.11408e-06
1.349e-05
2.18915e-06
1.7235e-06
2.11714e-06
2.58321e-06
3.06727e-06
3.94553e-06
4.93921e-05
0.000256013
2.63922e-05
2.47704e-06
2.78036e-07
1.18049e-07
1.27684e-07
1.64357e-07
1.6293e-07
1.37095e-07
3.35068e-07
1.40638e-06
1.75004e-05
1.94125e-05
1.11225e-05
4.03485e-06
3.66765e-06
1.4706e-06
3.48606e-07
3.13355e-07
1.25551e-06
3.38012e-06
2.02985e-06
4.98843e-05
3.16505e-05
1.6434e-05
3.37357e-05
0.000162581
0.000850846
0.00296783
0.00672459
0.00871371
0.00622819
0.000777071
4.47492e-06
2.63056e-07
3.50612e-07
5.15281e-07
5.12725e-07
5.11623e-07
7.66115e-07
4.1226e-06
0.000412353
0.00040275
0.000189609
9.53616e-05
2.33151e-05
2.84005e-06
5.89879e-07
7.24985e-07
3.11554e-06
8.26395e-05
3.68868e-06
0.000210765
0.000252966
0.000534582
0.00177571
0.00517707
0.0108738
0.0121431
0.0122855
0.0124186
0.0125222
0.0097944
0.00224624