/*--------------------------------*- C++ -*----------------------------------*\
| =========                 |                                                 |
| \\      /  F ield         | OpenFOAM: The Open Source CFD Toolbox           |
|  \\    /   O peration     | Version:  2.3.0                                 |
|   \\  /    A nd           | Web:      www.OpenFOAM.org                      |
|    \\/     M anipulation  |                                                 |
\*---------------------------------------------------------------------------*/
FoamFile
{
    version     2.0;
    format      ascii;
    class       volScalarField;
    location    "54";
    object      alpha.air;
}
// * * * * * * * * * * * * * * * * * * * * * * * * * * * * * * * * * * * * * //

dimensions      [0 0 0 0 0 0 0];

internalField   nonuniform List<scalar> 
1875
(
0.304325
0.263306
0.236356
0.236112
0.238081
0.241883
0.246862
0.252564
0.258642
0.264747
0.270433
0.274591
0.276413
0.277751
0.277232
0.274675
0.269556
0.260621
0.25029
0.238137
0.229963
0.231358
0.251228
0.288713
0.274566
0.245937
0.218273
0.191096
0.1804
0.177113
0.178182
0.181125
0.185811
0.19213
0.200144
0.210138
0.222437
0.235084
0.246645
0.256204
0.263218
0.262346
0.260848
0.25419
0.242375
0.229977
0.216185
0.215932
0.224896
0.19684
0.172663
0.160743
0.149988
0.145691
0.145986
0.14746
0.150127
0.153939
0.159228
0.165973
0.173882
0.183969
0.198343
0.215619
0.233659
0.249281
0.263375
0.26642
0.260933
0.24938
0.233505
0.217312
0.21588
0.22141
0.196618
0.0926915
0.100349
0.114055
0.120213
0.124402
0.129185
0.135261
0.142035
0.149404
0.157518
0.167091
0.17812
0.190896
0.206849
0.226271
0.248978
0.267959
0.267903
0.265411
0.253323
0.23398
0.216636
0.215848
0.221129
0.196426
0.0468259
0.0712112
0.101991
0.109696
0.114568
0.121751
0.131712
0.143163
0.152801
0.162087
0.172475
0.184475
0.198209
0.215081
0.235198
0.256379
0.267903
0.267959
0.263747
0.249813
0.230238
0.21444
0.213301
0.218053
0.196421
0.0355871
0.070921
0.109655
0.110445
0.117517
0.128962
0.141552
0.154816
0.16685
0.178304
0.19073
0.20477
0.220563
0.238125
0.254983
0.265969
0.267921
0.265368
0.256698
0.240336
0.222422
0.210308
0.207655
0.211886
0.200959
0.0355871
0.0854966
0.128121
0.122436
0.138125
0.156031
0.17132
0.185985
0.199832
0.212804
0.225998
0.239439
0.251947
0.261156
0.264994
0.265522
0.263905
0.255846
0.242897
0.226892
0.213036
0.204329
0.20062
0.204653
0.20661
0.0355871
0.120026
0.158418
0.155735
0.183065
0.203253
0.219316
0.233268
0.244755
0.253191
0.258894
0.262076
0.262875
0.262875
0.262872
0.258867
0.25142
0.239581
0.226337
0.213804
0.20421
0.197539
0.193274
0.197997
0.212021
0.0499715
0.168554
0.195074
0.200506
0.230016
0.245563
0.256077
0.261373
0.262257
0.262015
0.262155
0.262021
0.26086
0.257404
0.252175
0.243751
0.233522
0.222443
0.21229
0.203804
0.197089
0.191326
0.186875
0.192943
0.217313
0.0832967
0.224081
0.229253
0.229541
0.250807
0.258052
0.261529
0.262246
0.262008
0.262132
0.26054
0.256023
0.250181
0.243116
0.234576
0.225439
0.216702
0.209022
0.202697
0.197448
0.192646
0.187881
0.185247
0.192034
0.220562
0.117074
0.260951
0.259624
0.243285
0.257169
0.261118
0.262108
0.262001
0.2621
0.257328
0.250188
0.2418
0.233043
0.224243
0.215985
0.208944
0.203353
0.199145
0.195961
0.193258
0.190367
0.187055
0.184987
0.192599
0.222098
0.135823
0.259624
0.261059
0.250101
0.259828
0.262289
0.261993
0.261483
0.255768
0.245129
0.234085
0.223541
0.213971
0.205867
0.199607
0.195172
0.192335
0.190658
0.189649
0.188867
0.187827
0.186173
0.185247
0.19449
0.227954
0.142911
0.260614
0.25964
0.254735
0.262081
0.261985
0.261849
0.256421
0.243846
0.229689
0.216915
0.206078
0.197745
0.191965
0.188316
0.186363
0.1855
0.185247
0.185232
0.185247
0.185227
0.185247
0.184886
0.201178
0.254082
0.145249
0.25964
0.260909
0.257291
0.261976
0.262348
0.25981
0.247508
0.230768
0.215591
0.203195
0.194262
0.188994
0.186496
0.185467
0.185227
0.185247
0.185185
0.185247
0.185141
0.185247
0.184983
0.185247
0.220908
0.279573
0.144963
0.259808
0.259656
0.258714
0.262134
0.261976
0.256569
0.238426
0.220128
0.206482
0.197459
0.192112
0.188915
0.186774
0.18572
0.185247
0.185161
0.185247
0.185032
0.185247
0.184985
0.185247
0.19317
0.239993
0.279573
0.143853
0.259631
0.259906
0.259672
0.261967
0.262247
0.258563
0.235673
0.219119
0.20672
0.198183
0.193148
0.190066
0.188058
0.186671
0.185672
0.185247
0.185069
0.185247
0.185387
0.189595
0.195258
0.206973
0.231542
0.262367
0.142089
0.257566
0.259656
0.259592
0.261987
0.261967
0.262101
0.238603
0.221646
0.20913
0.200808
0.19592
0.192806
0.190449
0.188291
0.186557
0.185629
0.186212
0.189061
0.194587
0.202276
0.209513
0.213372
0.201857
0.202629
0.143907
0.250189
0.258057
0.259169
0.261633
0.262007
0.261957
0.24681
0.228881
0.214952
0.205642
0.20016
0.196734
0.193841
0.190793
0.188461
0.187825
0.191903
0.198269
0.203925
0.208011
0.212086
0.215001
0.180101
0.137011
0.150028
0.235646
0.252881
0.257752
0.260733
0.261725
0.262005
0.256129
0.241683
0.225882
0.213695
0.20597
0.201317
0.197797
0.194207
0.191377
0.190853
0.196618
0.203417
0.206743
0.206968
0.208584
0.214465
0.189564
0.105649
0.159836
0.216354
0.242112
0.253968
0.258719
0.260691
0.261713
0.261121
0.254867
0.242344
0.228646
0.217555
0.20914
0.203075
0.198193
0.194536
0.193423
0.196321
0.202014
0.205672
0.205459
0.204648
0.214827
0.208166
0.102099
0.171953
0.197616
0.224771
0.245163
0.254456
0.258356
0.260579
0.261111
0.261
0.258663
0.254547
0.244679
0.229239
0.215882
0.206035
0.199076
0.195403
0.19578
0.198634
0.202263
0.203317
0.202944
0.214465
0.214828
0.102089
0.185985
0.184974
0.20343
0.229143
0.245568
0.253604
0.257919
0.260259
0.260957
0.261535
0.260956
0.262371
0.257269
0.242035
0.224623
0.210461
0.200748
0.196302
0.196309
0.197911
0.199908
0.201053
0.214536
0.214465
0.102092
0.199734
0.177269
0.185254
0.208347
0.230051
0.244134
0.252445
0.257424
0.260681
0.260956
0.262546
0.260952
0.261947
0.259057
0.248201
0.231367
0.214565
0.201889
0.196316
0.196324
0.196896
0.198482
0.214439
0.214886
0.10208
0.214025
0.172998
0.171459
0.187358
0.209247
0.228239
0.241999
0.251243
0.258078
0.261124
0.260952
0.262592
0.260945
0.261225
0.258528
0.249781
0.23417
0.21586
0.201003
0.196332
0.19634
0.196678
0.213287
0.214465
0.106993
0.237643
0.171417
0.162262
0.170399
0.18746
0.207247
0.225539
0.240161
0.25157
0.259974
0.262139
0.260945
0.26178
0.260935
0.260138
0.257082
0.248575
0.232823
0.213101
0.197535
0.196348
0.196357
0.212264
0.214789
0.113225
0.26454
0.174025
0.161922
0.162262
0.16995
0.185621
0.205194
0.224478
0.241032
0.256051
0.260945
0.262238
0.260935
0.261103
0.260067
0.257837
0.253889
0.244355
0.226901
0.204807
0.196357
0.196365
0.211979
0.214465
0.117948
0.264519
0.181061
0.162262
0.162123
0.162792
0.170238
0.186257
0.207357
0.22805
0.248865
0.261759
0.260935
0.261417
0.260923
0.260025
0.257629
0.253739
0.248308
0.236264
0.214458
0.196392
0.196374
0.211775
0.214528
0.12138
0.264498
0.191833
0.161629
0.162262
0.162242
0.164831
0.174618
0.193894
0.216645
0.241934
0.260935
0.261607
0.260923
0.260955
0.259808
0.257105
0.25311
0.247962
0.239825
0.221272
0.199176
0.19635
0.211331
0.21443
0.125138
0.264478
0.206302
0.162262
0.161871
0.162262
0.165038
0.173031
0.19004
0.216286
0.243347
0.261504
0.260923
0.261085
0.260911
0.259319
0.256124
0.251948
0.246983
0.23926
0.221442
0.201542
0.198481
0.210555
0.21065
0.131889
0.257537
0.220057
0.161871
0.162262
0.162221
0.165999
0.17488
0.193412
0.22118
0.248676
0.260923
0.261117
0.260911
0.260705
0.258344
0.254641
0.250336
0.245373
0.237302
0.219576
0.20159
0.201464
0.208687
0.201338
0.143169
0.236651
0.224837
0.169733
0.161887
0.162262
0.1682
0.180329
0.203301
0.23302
0.255388
0.261058
0.260911
0.260925
0.260062
0.256803
0.25276
0.248394
0.242881
0.233123
0.215299
0.201624
0.20315
0.203656
0.18948
0.163614
0.204315
0.223782
0.180384
0.162262
0.163145
0.17313
0.191832
0.22036
0.246991
0.259582
0.260911
0.260925
0.260735
0.258796
0.254866
0.2507
0.245956
0.238784
0.226381
0.209976
0.201496
0.202157
0.194704
0.179823
0.198682
0.172507
0.222143
0.185004
0.162018
0.16672
0.183681
0.210411
0.239125
0.256229
0.260782
0.26091
0.260888
0.260112
0.257055
0.252886
0.248471
0.242436
0.232426
0.21821
0.205576
0.200725
0.198445
0.184351
0.177951
0.212197
0.155201
0.219804
0.183165
0.162262
0.175274
0.201236
0.230959
0.251832
0.259511
0.260631
0.260684
0.260686
0.259154
0.255403
0.250993
0.245733
0.23724
0.224397
0.210842
0.202571
0.198977
0.192405
0.177918
0.177967
0.212179
0.152897
0.220201
0.180827
0.164559
0.190261
0.221381
0.245409
0.256575
0.259453
0.260375
0.260687
0.260481
0.258134
0.253986
0.249136
0.242107
0.230713
0.216745
0.205869
0.200478
0.196136
0.186986
0.177959
0.177864
0.212177
0.152664
0.226877
0.18176
0.171577
0.208536
0.23658
0.251703
0.257165
0.259252
0.26027
0.260679
0.260314
0.256988
0.252711
0.247181
0.23776
0.224331
0.211478
0.203826
0.19937
0.192794
0.183054
0.177797
0.178301
0.212157
0.152638
0.238747
0.185646
0.182458
0.223878
0.244539
0.2533
0.256905
0.258929
0.260119
0.260677
0.260173
0.25627
0.251779
0.245055
0.233414
0.219658
0.20929
0.204171
0.199536
0.190764
0.180869
0.177959
0.185699
0.2058
0.152637
0.240047
0.191239
0.194157
0.23336
0.247421
0.253074
0.256421
0.258514
0.259915
0.260623
0.260219
0.256382
0.251784
0.243308
0.230339
0.21761
0.209555
0.205005
0.200389
0.190906
0.180842
0.183591
0.21779
0.188787
0.152669
0.238747
0.1993
0.203207
0.236645
0.247231
0.252611
0.255808
0.258
0.259648
0.260549
0.260428
0.256724
0.252162
0.243648
0.230698
0.218063
0.210243
0.206004
0.201659
0.191557
0.180836
0.213679
0.246524
0.166385
0.152546
0.240456
0.222841
0.207819
0.235878
0.246633
0.251953
0.255075
0.257377
0.259272
0.260449
0.260776
0.257303
0.253056
0.24485
0.232163
0.219478
0.211373
0.20703
0.203131
0.194197
0.185059
0.246524
0.24954
0.145768
0.15287
0.238747
0.24072
0.208324
0.234263
0.245744
0.251176
0.254267
0.256671
0.258783
0.26024
0.260779
0.258091
0.254265
0.246792
0.234762
0.221977
0.213028
0.208221
0.20475
0.198472
0.192325
0.248566
0.246524
0.131346
0.153791
0.240317
0.238747
0.207222
0.231911
0.244662
0.250414
0.253493
0.255955
0.258207
0.259886
0.26069
0.258878
0.255541
0.249019
0.238082
0.225375
0.215331
0.20972
0.206318
0.202351
0.198956
0.246524
0.249625
0.124339
0.15359
0.238747
0.240947
0.205133
0.228575
0.243241
0.249691
0.252831
0.25529
0.257593
0.259407
0.260444
0.259419
0.256659
0.251224
0.24164
0.229386
0.218355
0.211608
0.207823
0.204927
0.203529
0.248597
0.246524
0.121913
0.152247
0.240154
0.238747
0.202885
0.224546
0.241359
0.248929
0.252279
0.254712
0.25699
0.258843
0.260054
0.259508
0.257498
0.253106
0.245021
0.23364
0.22199
0.213877
0.209316
0.206444
0.20611
0.246524
0.249528
0.120877
0.14897
0.238747
0.240848
0.201447
0.220547
0.239181
0.248044
0.251756
0.2542
0.256414
0.258245
0.259572
0.259362
0.25805
0.254371
0.247895
0.237661
0.225913
0.216445
0.210797
0.207447
0.207358
0.248725
0.246524
0.120071
0.144562
0.240244
0.238747
0.200962
0.217605
0.237256
0.247031
0.251171
0.253702
0.25585
0.257635
0.259043
0.259024
0.258114
0.255332
0.249973
0.24108
0.229758
0.219251
0.212292
0.208254
0.208022
0.246524
0.249288
0.118919
0.139923
0.238747
0.240776
0.200579
0.217344
0.236199
0.245985
0.250478
0.253173
0.25529
0.257018
0.25845
0.258598
0.257921
0.25611
0.251517
0.243795
0.233285
0.222262
0.213949
0.209031
0.208552
0.248804
0.246524
0.117485
0.136221
0.240384
0.238747
0.200577
0.217825
0.235877
0.244935
0.249658
0.252575
0.254704
0.256381
0.257808
0.258071
0.257699
0.256052
0.252346
0.245843
0.236348
0.225411
0.215949
0.209928
0.209159
0.246524
0.248973
0.115604
0.134494
0.238747
0.240684
0.20126
0.219429
0.235803
0.243782
0.24871
0.251889
0.254053
0.255687
0.2571
0.257429
0.257241
0.255781
0.252765
0.247254
0.238932
0.228635
0.218471
0.211203
0.21002
0.248812
0.246524
0.113561
0.133306
0.240348
0.238747
0.203514
0.222627
0.235568
0.242417
0.247646
0.251101
0.253307
0.254909
0.256311
0.256714
0.256443
0.255371
0.25304
0.248357
0.241139
0.231854
0.221584
0.213155
0.211404
0.246524
0.248636
0.111318
0.132239
0.238747
0.240562
0.208472
0.227023
0.234821
0.240906
0.246532
0.250184
0.252427
0.254016
0.255434
0.255941
0.255633
0.254969
0.252846
0.248901
0.242845
0.2348
0.225076
0.215963
0.213634
0.248753
0.246524
0.109133
0.131478
0.240212
0.238747
0.216663
0.230709
0.233644
0.239504
0.245562
0.249098
0.251392
0.253002
0.254462
0.255077
0.254811
0.254187
0.252411
0.249139
0.244069
0.237283
0.228558
0.219569
0.216949
0.246524
0.248319
0.106978
0.130844
0.238747
0.240458
0.226008
0.232417
0.23269
0.238771
0.244505
0.247981
0.250177
0.251874
0.253406
0.25416
0.253976
0.253166
0.251926
0.249222
0.244977
0.239263
0.231663
0.223703
0.221408
0.248595
0.246524
0.105053
0.130329
0.240028
0.238747
0.23361
0.23307
0.232624
0.238645
0.243288
0.246799
0.248945
0.250613
0.252216
0.253252
0.253151
0.252516
0.251304
0.249042
0.245554
0.240707
0.234139
0.228034
0.226801
0.246524
0.248037
0.103305
0.129907
0.238747
0.240256
0.23725
0.233398
0.232621
0.238152
0.242732
0.245606
0.247798
0.249277
0.250881
0.252213
0.252247
0.251816
0.25066
0.248787
0.24588
0.24176
0.235996
0.232355
0.232622
0.248306
0.246524
0.10186
0.129276
0.239745
0.238747
0.237259
0.233243
0.23309
0.23758
0.24268
0.245598
0.246794
0.248019
0.249606
0.25088
0.251139
0.250849
0.250143
0.248707
0.246189
0.242586
0.237372
0.236275
0.237942
0.246524
0.247758
0.100674
0.128188
0.238747
0.240003
0.23705
0.233067
0.233352
0.237666
0.242363
0.245858
0.246761
0.247121
0.24827
0.249348
0.250031
0.249947
0.249486
0.248576
0.246419
0.243048
0.238245
0.238594
0.241325
0.247901
0.246524
0.0997217
0.126275
0.239402
0.238747
0.236652
0.232983
0.233583
0.237423
0.2422
0.245814
0.246969
0.247052
0.247068
0.247925
0.249001
0.24909
0.248917
0.248407
0.246353
0.243067
0.238439
0.238768
0.241821
0.246524
0.247429
0.098785
0.12311
0.238747
0.239717
0.235811
0.232584
0.234017
0.237103
0.242095
0.24592
0.247131
0.247093
0.247071
0.247192
0.247851
0.248311
0.248735
0.248285
0.246203
0.242975
0.238424
0.238678
0.241678
0.247465
0.246524
0.0977432
0.118419
0.239144
0.238747
0.234135
0.231604
0.233947
0.23737
0.241724
0.2463
0.24741
0.247131
0.247074
0.247078
0.247697
0.248006
0.24832
0.248072
0.246047
0.242677
0.238349
0.238421
0.2412
0.246524
0.247095
0.0965124
0.112426
0.238747
0.239374
0.231337
0.229594
0.233791
0.237395
0.241843
0.246525
0.24801
0.24732
0.247078
0.247133
0.247827
0.247936
0.248178
0.247734
0.245546
0.241967
0.23805
0.237916
0.24016
0.247088
0.246524
0.0950536
0.1058
0.238945
0.238747
0.227481
0.226872
0.233545
0.237399
0.242389
0.247003
0.24857
0.24788
0.247236
0.247389
0.247824
0.248105
0.248292
0.247319
0.244883
0.241154
0.237747
0.237238
0.238616
0.246524
0.246823
0.0933678
0.0996629
0.238747
0.238993
0.224223
0.225894
0.233139
0.237918
0.243587
0.248103
0.249512
0.249174
0.248244
0.248067
0.248227
0.248752
0.248623
0.247525
0.244986
0.241242
0.23795
0.236719
0.237053
0.246768
0.246524
0.0916591
0.0959811
0.238777
0.238747
0.2237
0.22607
0.233011
0.23884
0.24522
0.249378
0.250355
0.250356
0.249642
0.249223
0.249203
0.249241
0.249239
0.247951
0.245281
0.241434
0.237969
0.236158
0.235238
0.246524
0.246595
0.090529
0.0926936
0.235106
0.23581
0.220172
0.223075
0.229688
0.236102
0.243185
0.24754
0.248614
0.248604
0.248275
0.247806
0.247681
0.247812
0.247639
0.245916
0.242927
0.238386
0.234314
0.231727
0.229078
0.244346
0.244855
0.0889399
0.0868133
0.218956
0.219697
0.206869
0.209793
0.21554
0.223672
0.232099
0.236883
0.238561
0.238965
0.239243
0.238882
0.238676
0.238827
0.238033
0.235297
0.231545
0.22567
0.220061
0.216375
0.212491
0.229687
0.233022
0.0855475
0.106754
0.207458
0.206869
0.206855
0.211608
0.217154
0.224219
0.228829
0.231654
0.233469
0.234343
0.23487
0.234842
0.234711
0.234594
0.233474
0.230896
0.228022
0.225051
0.220299
0.216844
0.212418
0.214733
0.222304
0.106035
0.367269
0.362936
0.356727
0.365656
0.369542
0.36801
0.365882
0.362981
0.36033
0.358152
0.356296
0.355128
0.354463
0.354531
0.355453
0.356324
0.356911
0.358048
0.359604
0.360083
0.360947
0.355691
0.351484
0.362495
0.350334
0.892365
0.846246
0.834685
0.832827
0.826434
0.816851
0.80644
0.796796
0.788607
0.782016
0.777065
0.773919
0.772564
0.772882
0.774948
0.778556
0.783641
0.790069
0.797449
0.805351
0.812835
0.817129
0.817888
0.829665
0.879164
0.997389
0.993346
0.990255
0.989337
0.98847
0.987388
0.986168
0.984951
0.983826
0.982854
0.982092
0.981585
0.981357
0.981396
0.981707
0.982278
0.983071
0.984014
0.985027
0.986048
0.986951
0.987674
0.98852
0.991946
0.996715
0.999994
0.999961
0.999852
0.999805
0.999795
0.999784
0.999768
0.999751
0.999732
0.999715
0.9997
0.999689
0.999684
0.999685
0.999691
0.999701
0.999715
0.999729
0.999742
0.999753
0.99976
0.999767
0.999823
0.999953
0.999992
1
1
0.999999
0.999999
0.999999
0.999999
0.999999
0.999999
0.999999
0.999999
0.999999
0.999999
0.999999
0.999999
0.999999
0.999999
0.999999
0.999999
0.999999
0.999999
0.999999
0.999999
0.999999
1
1
1
1
1
1
1
1
1
1
1
1
1
1
1
1
1
1
1
1
1
1
1
1
1
1
1
1
1
1
1
1
1
1
1
1
1
1
1
1
1
1
1
1
1
1
1
1
1
1
1
1
1
1
1
1
1
1
1
1
1
1
1
1
1
1
1
1
1
1
1
1
1
1
1
1
1
)
;

boundaryField
{
    inlet
    {
        type            fixedValue;
        value           uniform 0.5;
    }
    outlet
    {
        type            inletOutlet;
        phi             phi.air;
        inletValue      uniform 1;
        value           nonuniform List<scalar> 
25
(
1
1
1
1
1
1
1
1
1
1
1
1
1
1
1
1
1
1
1
1
1
1
1
1
1
)
;
    }
    walls
    {
        type            zeroGradient;
    }
    defaultFaces
    {
        type            empty;
    }
}


// ************************************************************************* //
