/*--------------------------------*- C++ -*----------------------------------*\
| =========                 |                                                 |
| \\      /  F ield         | OpenFOAM: The Open Source CFD Toolbox           |
|  \\    /   O peration     | Version:  2.3.0                                 |
|   \\  /    A nd           | Web:      www.OpenFOAM.org                      |
|    \\/     M anipulation  |                                                 |
\*---------------------------------------------------------------------------*/
FoamFile
{
    version     2.0;
    format      ascii;
    class       volScalarField;
    location    "54";
    object      k.air;
}
// * * * * * * * * * * * * * * * * * * * * * * * * * * * * * * * * * * * * * //

dimensions      [0 2 -2 0 0 0 0];

internalField   nonuniform List<scalar> 
1875
(
0.0563766
0.0590524
0.06243
0.0655308
0.0684791
0.0712988
0.0740123
0.0766095
0.0790998
0.0814801
0.0836679
0.0855884
0.0871198
0.0880845
0.0882375
0.0876794
0.0859573
0.0824753
0.0774153
0.0711211
0.0641845
0.0572062
0.0506466
0.0447617
0.040793
0.073768
0.0748694
0.0759474
0.0765669
0.0769282
0.0770945
0.077154
0.077223
0.0773779
0.077699
0.0782827
0.0791859
0.080479
0.0821489
0.0840426
0.0858222
0.0868249
0.0867739
0.0856297
0.0828671
0.0786522
0.0734911
0.0679926
0.0625083
0.0583011
0.0794014
0.0797339
0.0799442
0.0798661
0.0796359
0.0792989
0.0789295
0.0785793
0.0782914
0.0781153
0.0781212
0.0783196
0.0788423
0.0797835
0.0810852
0.0825975
0.0840053
0.08456
0.0840725
0.0821988
0.0788178
0.0747114
0.070491
0.0667084
0.064825
0.0813934
0.0805894
0.0803295
0.0800111
0.0796075
0.0792048
0.0788689
0.0786302
0.078499
0.0784978
0.0786306
0.0789415
0.0794493
0.0801964
0.0811677
0.0822467
0.083116
0.0833706
0.0827585
0.0809449
0.0779943
0.074373
0.0709432
0.0684318
0.0677905
0.112068
0.0866364
0.0820309
0.0812623
0.0804944
0.0798338
0.0793317
0.0789961
0.0788099
0.0787814
0.0789166
0.0792159
0.0796631
0.08024
0.0809024
0.081487
0.0817846
0.0815771
0.080592
0.0787465
0.0761695
0.0732881
0.0707115
0.0691038
0.0690774
0.121576
0.0907105
0.0854711
0.0842219
0.083009
0.0818791
0.0808883
0.0800785
0.079512
0.0792211
0.0791483
0.0792501
0.0795014
0.0798333
0.080129
0.0802837
0.0802446
0.0797787
0.078697
0.0769562
0.0747488
0.0724444
0.0704792
0.0693123
0.0694636
0.126853
0.0908091
0.0897526
0.0881896
0.0864355
0.0844581
0.0825103
0.0809138
0.079755
0.0790422
0.0787208
0.0786425
0.0787256
0.0789465
0.0791781
0.0792642
0.0790852
0.0784296
0.0772324
0.075559
0.0736144
0.0716759
0.0700431
0.069071
0.0691906
0.131268
0.0945967
0.0936711
0.0915602
0.0888192
0.0857312
0.0828076
0.080433
0.0788065
0.0779475
0.0776509
0.0776736
0.0779741
0.0783075
0.0784911
0.0784639
0.0780118
0.0770822
0.0757168
0.0740394
0.0722297
0.0704881
0.069058
0.0682459
0.0683595
0.125882
0.096693
0.0955695
0.092829
0.0891184
0.0850333
0.0814151
0.0787479
0.0772463
0.0767007
0.0766522
0.0769164
0.0772695
0.0774629
0.0774539
0.077106
0.076351
0.0752138
0.0737722
0.0721358
0.0704353
0.0688211
0.0675093
0.0667859
0.0669017
0.0968602
0.0971211
0.0957501
0.092398
0.0880964
0.0837091
0.0801226
0.077791
0.0766597
0.0761306
0.0758861
0.0758292
0.0758386
0.0757763
0.0755291
0.0749843
0.074142
0.0730328
0.07171
0.0702442
0.068722
0.0672649
0.0660711
0.0654062
0.0654883
0.0951619
0.0957293
0.0943846
0.0910837
0.0868777
0.0826219
0.0791099
0.0766799
0.075247
0.0745747
0.0743058
0.0742002
0.0741203
0.0739314
0.0735733
0.0730265
0.0722909
0.0713768
0.0703015
0.0690929
0.0678005
0.0665224
0.0654326
0.0648094
0.0648554
0.093398
0.0937782
0.0925243
0.0896764
0.0859695
0.0821696
0.0789939
0.0766957
0.0752044
0.0743188
0.0738555
0.0735711
0.073327
0.0730603
0.0727253
0.0722914
0.0717335
0.0710354
0.0701919
0.0692139
0.0681348
0.067029
0.0660506
0.0655
0.065615
0.0920166
0.09208
0.090861
0.0884394
0.0853297
0.0821295
0.0793484
0.0772444
0.0758228
0.074933
0.0743849
0.0740273
0.0737689
0.0735452
0.0733006
0.0729901
0.0725788
0.072044
0.0713783
0.0705895
0.0697127
0.0688223
0.0680806
0.0678015
0.0680259
0.0907089
0.0904583
0.0893236
0.0873635
0.0849114
0.0823892
0.0801821
0.0784258
0.0771687
0.0763236
0.0757727
0.0754251
0.0752002
0.075026
0.0748487
0.0746219
0.0743156
0.0739142
0.0734114
0.0728249
0.0721969
0.0716168
0.0712946
0.0714092
0.0716343
0.0894668
0.0890252
0.0880049
0.0865052
0.0847035
0.0828754
0.081242
0.0798417
0.0787872
0.0780331
0.0775234
0.0771966
0.0769834
0.0768265
0.0766892
0.0765427
0.0763639
0.0761345
0.0758497
0.0755267
0.0752083
0.0749633
0.0749106
0.07505
0.0752654
0.0882295
0.0877281
0.0869425
0.0858322
0.0845486
0.0832826
0.0821633
0.0811111
0.0802672
0.079616
0.0791441
0.0788326
0.0786438
0.0785365
0.0784792
0.0784574
0.0784584
0.078471
0.0784841
0.0784762
0.0784498
0.0783856
0.0783029
0.0781741
0.0784611
0.0872944
0.0868697
0.0862341
0.0853841
0.0844422
0.0835105
0.0827242
0.0819988
0.0813568
0.0808332
0.0804495
0.0802065
0.0800817
0.0800412
0.0800626
0.0801517
0.0803213
0.0805792
0.0808801
0.0811593
0.0813518
0.0814316
0.0813728
0.081126
0.0814626
0.0866632
0.0863933
0.0859987
0.085375
0.0846107
0.0838534
0.0831829
0.0826484
0.0821883
0.0818058
0.0815288
0.0813713
0.0813185
0.0813404
0.0814202
0.0815721
0.0818263
0.0822053
0.0826378
0.0830376
0.0833734
0.0836615
0.0838963
0.0839613
0.0844085
0.0861148
0.0860522
0.086082
0.0857119
0.085081
0.0843675
0.0837211
0.0832452
0.0829086
0.0826765
0.0825408
0.0824976
0.0825251
0.0826011
0.0827094
0.0828604
0.08309
0.0834313
0.0838503
0.0842802
0.0846949
0.085131
0.0856352
0.0861119
0.0866831
0.0857052
0.0858775
0.0863534
0.0864049
0.0860479
0.0853948
0.0846766
0.0840684
0.0836975
0.0835725
0.0836165
0.083747
0.0838928
0.0840309
0.0841567
0.0842797
0.0844351
0.0846627
0.0849818
0.085365
0.0857739
0.086225
0.0867962
0.0874074
0.0880502
0.0849026
0.0852591
0.0860787
0.0866231
0.0866967
0.0863728
0.0857374
0.085048
0.0844876
0.0842051
0.0843184
0.0846937
0.0851387
0.0855092
0.0857685
0.0859325
0.0860453
0.0861705
0.0863548
0.0866133
0.0869319
0.0873113
0.0878073
0.0883348
0.0889301
0.0830256
0.0834412
0.0845041
0.0855873
0.0862446
0.0863638
0.0861248
0.0856312
0.0851286
0.0847691
0.0846527
0.0849328
0.0856227
0.086436
0.08713
0.0875955
0.0878371
0.0879374
0.0880043
0.0881054
0.0882674
0.0885151
0.088898
0.0892899
0.0897519
0.0796711
0.0798868
0.0809872
0.0825531
0.084018
0.0849845
0.0853621
0.0853049
0.0850707
0.08489
0.0848858
0.0850471
0.0856027
0.0866419
0.0878178
0.0888299
0.0894817
0.0897565
0.0897849
0.0897415
0.0897116
0.0897648
0.0899811
0.0902182
0.0905226
0.0754403
0.0751618
0.0760857
0.0778342
0.0798606
0.0816766
0.0829995
0.0837806
0.0841384
0.0842909
0.0845011
0.0848889
0.0855547
0.0865931
0.088012
0.0894861
0.0906705
0.0913274
0.0914614
0.091305
0.0910833
0.090919
0.0909299
0.0909903
0.0911544
0.071345
0.0705694
0.0712667
0.0729721
0.0752295
0.0775569
0.0795854
0.0811342
0.0822065
0.0829334
0.0835054
0.0841731
0.085122
0.086414
0.0880184
0.089776
0.0913698
0.0924477
0.0928192
0.0926207
0.09221
0.0918323
0.0916262
0.0914825
0.0914775
0.0687163
0.0678827
0.0683815
0.0698402
0.0719064
0.0742796
0.0766402
0.0786983
0.0803261
0.0815777
0.0825765
0.0835736
0.0848095
0.0863451
0.0881205
0.0900345
0.0918187
0.0931464
0.0937299
0.0935536
0.0929633
0.0923712
0.0919631
0.0916532
0.0915148
0.0681169
0.0673932
0.0676977
0.0689668
0.0708023
0.07296
0.0752536
0.0774699
0.0793884
0.0809613
0.0822666
0.0834625
0.0848275
0.0864793
0.0883916
0.0903889
0.0922099
0.0935733
0.0942111
0.0940247
0.0932816
0.0925003
0.0919173
0.0914543
0.0911919
0.0693428
0.0686146
0.0686435
0.0696938
0.0713671
0.0733755
0.0755573
0.0777383
0.0797006
0.0813065
0.0826097
0.0838204
0.0852413
0.0869821
0.088938
0.0908929
0.092609
0.0938247
0.0943159
0.093999
0.0931034
0.0921281
0.091348
0.0907219
0.0903883
0.0714374
0.0707401
0.0705914
0.0715411
0.0731356
0.0750946
0.0772037
0.0792643
0.0810739
0.0824879
0.0835916
0.0846992
0.0860804
0.087765
0.0896248
0.0914311
0.0929257
0.0938697
0.0940849
0.0935042
0.0923807
0.0911855
0.0901464
0.0893346
0.089036
0.0737469
0.0731389
0.0730811
0.0740258
0.0756153
0.0775823
0.0796626
0.0816102
0.0831747
0.0842526
0.0850469
0.0859761
0.0872385
0.0887726
0.0904027
0.091922
0.0930746
0.0936411
0.093462
0.0925196
0.091117
0.0896714
0.088377
0.0873743
0.0871961
0.0762722
0.0758828
0.0760045
0.0768978
0.0785001
0.0804901
0.0825163
0.0842496
0.0854212
0.0860563
0.0865375
0.0872624
0.0883287
0.0896408
0.0910049
0.0921777
0.0929115
0.0930338
0.0924017
0.0910855
0.0893943
0.0876533
0.0860641
0.0849329
0.0850457
0.0789874
0.0787477
0.0789511
0.0798605
0.0815111
0.0835078
0.0853929
0.0867514
0.0873985
0.0876129
0.0878462
0.0883837
0.0892393
0.0902826
0.0913111
0.0920828
0.0923839
0.0920373
0.09098
0.0893433
0.0873961
0.085364
0.083466
0.0823028
0.0827043
0.0817343
0.0815553
0.0817919
0.0827335
0.084426
0.0863511
0.0879309
0.0887398
0.0888786
0.0887608
0.0887679
0.0891382
0.0898011
0.090575
0.0912659
0.0916428
0.0915221
0.0907664
0.0893902
0.0875569
0.0854618
0.0832702
0.0812643
0.0801327
0.0805753
0.0842459
0.0841417
0.0843648
0.0853408
0.0870426
0.0887649
0.0898654
0.090177
0.0899887
0.0897113
0.0896185
0.0897735
0.0901481
0.090624
0.0909674
0.0909908
0.0905187
0.0894803
0.0879487
0.0860706
0.0839792
0.0818423
0.0800062
0.0790467
0.0795893
0.086355
0.0863632
0.0865945
0.0875877
0.0892177
0.0905947
0.0912088
0.0911729
0.0907931
0.0904244
0.0902893
0.0903094
0.0904132
0.0905606
0.0906077
0.0903526
0.0896543
0.0885008
0.086984
0.0852069
0.0832594
0.0813023
0.0796929
0.0788866
0.0795565
0.0880568
0.0882245
0.088469
0.0894388
0.0908876
0.0918733
0.0921486
0.091895
0.0913977
0.090908
0.0905593
0.0904152
0.0904159
0.0904477
0.0903426
0.0899453
0.0891764
0.0880625
0.0866802
0.0850848
0.0833437
0.0816538
0.080354
0.0798129
0.0805633
0.0894231
0.0896969
0.0899691
0.0908695
0.0920708
0.0927443
0.0928165
0.0924542
0.0918912
0.0913239
0.0908796
0.0906408
0.0905644
0.0905312
0.0903743
0.0899588
0.0892439
0.0882768
0.0871171
0.0857978
0.0843837
0.0830834
0.0822261
0.0820802
0.0827174
0.0906206
0.0909361
0.0912402
0.0919968
0.0929243
0.0933785
0.0933407
0.0929384
0.0923624
0.0917881
0.0913355
0.091061
0.0909308
0.0908643
0.0907203
0.090379
0.089814
0.0890685
0.0881828
0.0871951
0.0861727
0.0853308
0.0850592
0.0852883
0.0857149
0.0918512
0.0922194
0.0925432
0.0930367
0.0936879
0.0939865
0.0938808
0.0934657
0.092902
0.0923433
0.091904
0.0916429
0.0915385
0.0915246
0.0914719
0.0912632
0.0908622
0.0903144
0.0896757
0.0889896
0.0883326
0.0879472
0.0882103
0.0884647
0.0887581
0.0930861
0.09349
0.0938383
0.0940524
0.0944889
0.0946813
0.0945295
0.0941101
0.0935626
0.0930272
0.0926162
0.0923946
0.0923512
0.0924251
0.092492
0.0924277
0.0921866
0.0918098
0.0913627
0.090901
0.0905077
0.0903747
0.0908071
0.0910555
0.0913368
0.0942711
0.094655
0.0949214
0.0950114
0.0953384
0.0954787
0.0953114
0.094901
0.0943767
0.0938727
0.0935015
0.093328
0.093352
0.0935149
0.0937017
0.0937787
0.0936833
0.0934443
0.093136
0.0928264
0.0925956
0.0925771
0.092989
0.0933649
0.0936593
0.0955001
0.0958543
0.096014
0.0960564
0.0963135
0.0964245
0.0962558
0.0958623
0.0953673
0.0948997
0.0945677
0.0944378
0.0945181
0.0947591
0.0950514
0.0952579
0.0952944
0.0951769
0.0949794
0.0947852
0.0946792
0.0947825
0.095239
0.0956468
0.0959039
0.0969219
0.0972689
0.0974223
0.0973348
0.0974934
0.0975654
0.0973927
0.0970134
0.0965439
0.096108
0.0958105
0.0957171
0.0958395
0.0961421
0.0965222
0.0968413
0.0970026
0.0969968
0.0968979
0.0967947
0.0967789
0.0969539
0.0974437
0.0978393
0.0980713
0.0985067
0.0988542
0.0989285
0.0987844
0.0988719
0.0989123
0.0987363
0.0983688
0.0979209
0.0975113
0.0972411
0.0971728
0.097319
0.0976562
0.0980813
0.0985124
0.0987975
0.0989074
0.0989018
0.0988776
0.0989283
0.0991547
0.0996519
0.100042
0.100244
0.100227
0.100572
0.100602
0.100435
0.100469
0.100479
0.100296
0.0999373
0.0995074
0.099118
0.0988646
0.0988137
0.0989803
0.0993472
0.0998264
0.100324
0.10071
0.100929
0.101018
0.101069
0.101179
0.101445
0.101951
0.102322
0.102492
0.10215
0.102488
0.102577
0.102348
0.102321
0.102286
0.102085
0.101732
0.101318
0.100949
0.100712
0.100676
0.100859
0.101256
0.10181
0.102316
0.102777
0.103095
0.103278
0.103406
0.103575
0.103876
0.104384
0.104744
0.104875
0.104344
0.104655
0.104664
0.104434
0.104393
0.104327
0.104111
0.103765
0.103373
0.103026
0.102809
0.102782
0.102963
0.10335
0.103879
0.104476
0.105015
0.105431
0.105714
0.105922
0.106147
0.106482
0.10699
0.107326
0.107417
0.106808
0.107098
0.107045
0.10681
0.106733
0.106629
0.106396
0.106061
0.105693
0.105373
0.105177
0.105159
0.105338
0.105713
0.106228
0.106862
0.107469
0.107975
0.108354
0.108641
0.10892
0.109281
0.109779
0.110096
0.110142
0.109427
0.109694
0.109712
0.109445
0.109349
0.109208
0.108963
0.108643
0.108305
0.108017
0.107846
0.107844
0.108036
0.108431
0.109009
0.109622
0.110226
0.110776
0.111225
0.111581
0.111907
0.112287
0.112769
0.113051
0.113054
0.112295
0.112536
0.112537
0.112345
0.112245
0.112074
0.111827
0.111531
0.111227
0.110973
0.110828
0.11084
0.11103
0.111407
0.111941
0.112548
0.113195
0.113801
0.114319
0.11474
0.115107
0.115497
0.115949
0.116197
0.116154
0.115493
0.115735
0.115731
0.115599
0.115449
0.115238
0.114992
0.114723
0.114455
0.114238
0.114121
0.114145
0.114329
0.114675
0.115153
0.115758
0.116431
0.117071
0.117635
0.118106
0.118508
0.1189
0.119314
0.119514
0.119427
0.118872
0.1191
0.119145
0.119011
0.118849
0.118652
0.118431
0.118196
0.117967
0.117788
0.117701
0.117743
0.117932
0.118275
0.118761
0.11937
0.119979
0.120596
0.121167
0.12166
0.122082
0.122468
0.122831
0.122986
0.122856
0.122466
0.122688
0.122753
0.122669
0.122515
0.122306
0.122113
0.121896
0.121721
0.121581
0.121524
0.121581
0.121769
0.122093
0.122539
0.123078
0.123683
0.124292
0.124863
0.125366
0.125798
0.126171
0.126481
0.126581
0.126413
0.126259
0.126491
0.126592
0.126571
0.12643
0.126225
0.126026
0.125851
0.12568
0.125579
0.125544
0.125609
0.125792
0.126093
0.126503
0.126993
0.127568
0.128148
0.128698
0.129191
0.129618
0.129971
0.130222
0.130275
0.130072
0.130172
0.130388
0.130476
0.130466
0.130384
0.130292
0.13015
0.130024
0.129858
0.129734
0.129707
0.129767
0.129927
0.130212
0.130616
0.131108
0.131608
0.132129
0.132635
0.133097
0.133504
0.133829
0.134028
0.134034
0.133803
0.134237
0.134449
0.134539
0.13454
0.134481
0.13441
0.134343
0.134225
0.134139
0.134029
0.133988
0.134033
0.134171
0.134418
0.134762
0.135187
0.135665
0.136151
0.136618
0.137044
0.13742
0.137711
0.137867
0.13784
0.137588
0.138419
0.138638
0.138783
0.138807
0.138748
0.138638
0.138546
0.138457
0.138388
0.138349
0.138304
0.13834
0.138504
0.138726
0.138997
0.13935
0.13977
0.140206
0.14063
0.141014
0.141352
0.14161
0.141739
0.141685
0.14142
0.142646
0.142864
0.142975
0.143001
0.142975
0.142938
0.142848
0.142785
0.14268
0.142613
0.142592
0.142627
0.142741
0.142947
0.143247
0.143582
0.143922
0.144294
0.144671
0.145013
0.145313
0.14554
0.145647
0.145576
0.145303
0.146962
0.147172
0.147278
0.147292
0.147261
0.147219
0.147172
0.147082
0.147016
0.146923
0.146896
0.146929
0.146988
0.147148
0.147397
0.147705
0.148067
0.148418
0.148739
0.149041
0.14931
0.149515
0.149607
0.149523
0.149246
0.151398
0.15162
0.151728
0.15172
0.151657
0.151566
0.151476
0.151383
0.151304
0.151246
0.151178
0.151188
0.151285
0.151425
0.151598
0.151852
0.152161
0.152478
0.152786
0.153078
0.153342
0.15354
0.15363
0.153549
0.153275
0.155961
0.15617
0.156242
0.156198
0.156123
0.156046
0.155926
0.155828
0.155694
0.15559
0.155521
0.155499
0.155556
0.155687
0.155898
0.156132
0.156371
0.156649
0.15694
0.157221
0.157476
0.157674
0.157774
0.157703
0.157444
0.160761
0.160944
0.16097
0.160883
0.160789
0.160683
0.160575
0.160446
0.160329
0.160201
0.160139
0.1601
0.160092
0.160172
0.16033
0.160547
0.16082
0.161092
0.161356
0.161609
0.16183
0.162018
0.162133
0.162085
0.161854
0.165973
0.16612
0.166097
0.165957
0.165808
0.165667
0.165545
0.165425
0.165325
0.165242
0.165155
0.165116
0.165145
0.165202
0.16528
0.165427
0.16562
0.165836
0.166066
0.166297
0.16652
0.166714
0.166854
0.166844
0.166664
0.171859
0.171951
0.171888
0.171736
0.17159
0.171475
0.171381
0.171304
0.17123
0.171168
0.171118
0.171094
0.171102
0.171143
0.171223
0.171311
0.1714
0.171513
0.171643
0.171788
0.171948
0.172107
0.172248
0.172269
0.172152
0.178982
0.179036
0.17902
0.178986
0.178992
0.179023
0.179069
0.179106
0.179125
0.179124
0.179126
0.179117
0.179098
0.179095
0.179106
0.179103
0.179086
0.179054
0.17901
0.178963
0.178927
0.178916
0.178941
0.178915
0.178856
0.188777
0.188802
0.189129
0.189517
0.189897
0.190224
0.190462
0.190621
0.190703
0.190738
0.190727
0.190705
0.19068
0.190629
0.190552
0.190451
0.190312
0.19013
0.18989
0.189586
0.189224
0.188818
0.188418
0.188066
0.188073
0.2037
0.20421
0.205152
0.206124
0.206843
0.207256
0.20743
0.207431
0.207335
0.207193
0.20705
0.206915
0.2068
0.206715
0.206652
0.206591
0.206513
0.20638
0.206153
0.20577
0.205188
0.204365
0.203367
0.202399
0.201757
0.223504
0.22364
0.224307
0.224836
0.224954
0.224701
0.224238
0.223694
0.223155
0.222671
0.222276
0.221984
0.221801
0.22173
0.221763
0.221883
0.222067
0.222282
0.222477
0.222579
0.222489
0.222075
0.221336
0.220492
0.220207
0.225544
0.224992
0.223953
0.223246
0.222568
0.221821
0.221054
0.220342
0.219723
0.219213
0.218818
0.218536
0.218368
0.218309
0.21836
0.21852
0.218781
0.219125
0.219524
0.219941
0.220314
0.220618
0.220933
0.221546
0.221917
0.21832
0.211696
0.20405
0.201591
0.200708
0.199821
0.198988
0.198438
0.198131
0.197971
0.197883
0.197811
0.197726
0.197616
0.197527
0.197524
0.197641
0.197921
0.198393
0.199051
0.199682
0.200557
0.203127
0.209426
0.214415
0.199631
0.191243
0.174287
0.163741
0.158099
0.152869
0.148783
0.14679
0.146154
0.146195
0.146541
0.146663
0.146321
0.14521
0.144063
0.143865
0.144716
0.146787
0.150061
0.154853
0.160296
0.165457
0.17443
0.188338
0.19443
0.176379
0.162243
0.137359
0.118427
0.101089
0.0862902
0.0798001
0.0783374
0.0819409
0.0873653
0.0898736
0.0889579
0.0826333
0.0720227
0.0609579
0.0527706
0.04967
0.0520316
0.0577155
0.0699332
0.0908886
0.113689
0.135105
0.158846
0.171588
0.163962
0.144603
0.116554
0.0785861
0.0397941
0.020834
0.0128809
0.0119472
0.0199346
0.0308218
0.0388124
0.0423403
0.0393096
0.0281286
0.011386
0.00269026
0.00161318
0.00172897
0.00242453
0.00910742
0.028226
0.0692877
0.112131
0.140687
0.159386
0.156103
0.124295
0.0752124
0.0249968
0.0050622
0.000635289
0.000110204
0.000130513
0.00131009
0.00500301
0.00938913
0.01297
0.0131882
0.00933358
0.00291424
0.000361449
5.52735e-05
2.21731e-05
1.76159e-05
6.25635e-05
0.00242877
0.0195717
0.0689292
0.119502
0.151504
0.140293
0.0942679
0.0439567
0.00890134
0.000256644
2.07221e-05
1.64462e-05
1.51886e-05
3.56851e-05
0.000468917
0.0014229
0.00244313
0.00268731
0.00164315
0.000193838
2.49303e-05
2.05907e-05
2.18384e-05
2.16888e-05
1.93881e-05
0.000163643
0.00690725
0.0393983
0.0902223
0.135907
)
;

boundaryField
{
    inlet
    {
        type            fixedValue;
        value           uniform 3.75e-05;
    }
    outlet
    {
        type            inletOutlet;
        phi             phi.air;
        inletValue      uniform 3.75e-05;
        value           nonuniform List<scalar> 
25
(
0.140293
0.0942679
0.0439567
0.00890134
3.75e-05
3.75e-05
3.75e-05
3.75e-05
3.56851e-05
0.000468917
0.0014229
0.00244313
0.00268731
0.00164315
0.000193838
3.75e-05
3.75e-05
3.75e-05
3.75e-05
3.75e-05
3.75e-05
0.00690725
0.0393983
0.0902223
0.135907
)
;
    }
    walls
    {
        type            kqRWallFunction;
        value           nonuniform List<scalar> 
150
(
0.0563766
0.073768
0.0794014
0.0813934
0.112068
0.121576
0.126853
0.131268
0.125882
0.0968602
0.0951619
0.093398
0.0920166
0.0907089
0.0894668
0.0882295
0.0872944
0.0866632
0.0861148
0.0857052
0.0849026
0.0830256
0.0796711
0.0754403
0.071345
0.0687163
0.0681169
0.0693428
0.0714374
0.0737469
0.0762722
0.0789874
0.0817343
0.0842459
0.086355
0.0880568
0.0894231
0.0906206
0.0918512
0.0930861
0.0942711
0.0955001
0.0969219
0.0985067
0.100227
0.10215
0.104344
0.106808
0.109427
0.112295
0.115493
0.118872
0.122466
0.126259
0.130172
0.134237
0.138419
0.142646
0.146962
0.151398
0.155961
0.160761
0.165973
0.171859
0.178982
0.188777
0.2037
0.223504
0.225544
0.21832
0.199631
0.176379
0.163962
0.156103
0.140293
0.040793
0.0583011
0.064825
0.0677905
0.0690774
0.0694636
0.0691906
0.0683595
0.0669017
0.0654883
0.0648554
0.065615
0.0680259
0.0716343
0.0752654
0.0784611
0.0814626
0.0844085
0.0866831
0.0880502
0.0889301
0.0897519
0.0905226
0.0911544
0.0914775
0.0915148
0.0911919
0.0903883
0.089036
0.0871961
0.0850457
0.0827043
0.0805753
0.0795893
0.0795565
0.0805633
0.0827174
0.0857149
0.0887581
0.0913368
0.0936593
0.0959039
0.0980713
0.100244
0.102492
0.104875
0.107417
0.110142
0.113054
0.116154
0.119427
0.122856
0.126413
0.130072
0.133803
0.137588
0.14142
0.145303
0.149246
0.153275
0.157444
0.161854
0.166664
0.172152
0.178856
0.188073
0.201757
0.220207
0.221917
0.214415
0.19443
0.171588
0.159386
0.151504
0.135907
)
;
    }
    defaultFaces
    {
        type            empty;
    }
}


// ************************************************************************* //
