/*--------------------------------*- C++ -*----------------------------------*\
| =========                 |                                                 |
| \\      /  F ield         | OpenFOAM: The Open Source CFD Toolbox           |
|  \\    /   O peration     | Version:  2.3.0                                 |
|   \\  /    A nd           | Web:      www.OpenFOAM.org                      |
|    \\/     M anipulation  |                                                 |
\*---------------------------------------------------------------------------*/
FoamFile
{
    version     2.0;
    format      ascii;
    class       volScalarField;
    location    "54";
    object      nut.air;
}
// * * * * * * * * * * * * * * * * * * * * * * * * * * * * * * * * * * * * * //

dimensions      [0 2 -1 0 0 0 0];

internalField   nonuniform List<scalar> 
1875
(
2.07579e-05
2.19493e-05
2.39034e-05
2.56825e-05
2.72797e-05
2.86623e-05
2.98378e-05
3.08581e-05
3.17463e-05
3.25358e-05
3.32397e-05
3.38531e-05
3.4369e-05
3.47948e-05
3.50098e-05
3.50552e-05
3.48527e-05
3.41987e-05
3.31423e-05
3.16968e-05
2.98906e-05
2.77339e-05
2.51731e-05
2.20939e-05
1.8611e-05
2.15824e-05
2.5211e-05
2.81994e-05
3.0294e-05
3.17465e-05
3.27298e-05
3.33931e-05
3.38159e-05
3.40564e-05
3.42359e-05
3.44089e-05
3.45253e-05
3.46708e-05
3.48487e-05
3.50252e-05
3.51607e-05
3.52321e-05
3.49843e-05
3.44272e-05
3.32698e-05
3.15491e-05
2.91795e-05
2.60133e-05
2.18731e-05
1.71677e-05
2.79837e-05
3.22845e-05
3.53463e-05
3.71991e-05
3.82065e-05
3.86336e-05
3.86879e-05
3.8493e-05
3.81607e-05
3.77823e-05
3.73801e-05
3.69643e-05
3.66025e-05
3.63203e-05
3.60787e-05
3.58593e-05
3.55683e-05
3.51711e-05
3.45929e-05
3.35398e-05
3.19115e-05
2.98172e-05
2.70728e-05
2.38857e-05
2.09582e-05
3.65431e-05
4.05011e-05
4.22778e-05
4.28499e-05
4.27608e-05
4.23068e-05
4.16951e-05
4.09852e-05
4.02755e-05
3.95952e-05
3.89171e-05
3.82706e-05
3.76765e-05
3.71455e-05
3.66671e-05
3.62106e-05
3.57053e-05
3.50968e-05
3.43265e-05
3.32077e-05
3.17025e-05
2.97256e-05
2.73642e-05
2.47437e-05
2.22853e-05
6.17913e-05
4.92438e-05
4.67692e-05
4.601e-05
4.49756e-05
4.3833e-05
4.26974e-05
4.16319e-05
4.06718e-05
3.98097e-05
3.90198e-05
3.83026e-05
3.76365e-05
3.7002e-05
3.64025e-05
3.58075e-05
3.51435e-05
3.44424e-05
3.35571e-05
3.24285e-05
3.10301e-05
2.92877e-05
2.72568e-05
2.50798e-05
2.29967e-05
7.19774e-05
5.3773e-05
4.95326e-05
4.75916e-05
4.56463e-05
4.38424e-05
4.22686e-05
4.09118e-05
3.97841e-05
3.88753e-05
3.81e-05
3.73946e-05
3.67471e-05
3.61303e-05
3.54869e-05
3.47847e-05
3.41301e-05
3.34455e-05
3.2542e-05
3.14696e-05
3.02022e-05
2.86854e-05
2.7022e-05
2.52536e-05
2.34983e-05
7.67911e-05
5.33518e-05
5.04663e-05
4.77283e-05
4.51892e-05
4.28985e-05
4.09386e-05
3.94038e-05
3.82155e-05
3.73005e-05
3.65867e-05
3.59516e-05
3.53514e-05
3.47766e-05
3.42112e-05
3.36321e-05
3.3045e-05
3.23591e-05
3.15111e-05
3.05429e-05
2.94371e-05
2.81525e-05
2.67757e-05
2.53473e-05
2.38944e-05
8.09044e-05
5.44778e-05
5.05662e-05
4.71005e-05
4.40327e-05
4.14393e-05
3.93146e-05
3.76061e-05
3.63085e-05
3.54902e-05
3.4843e-05
3.42513e-05
3.37768e-05
3.33528e-05
3.28809e-05
3.24684e-05
3.19627e-05
3.12959e-05
3.05169e-05
2.96421e-05
2.86626e-05
2.75383e-05
2.63665e-05
2.51083e-05
2.36974e-05
7.58523e-05
5.35865e-05
4.94911e-05
4.59265e-05
4.26315e-05
3.97619e-05
3.74379e-05
3.56227e-05
3.44635e-05
3.37498e-05
3.31319e-05
3.2697e-05
3.23682e-05
3.20175e-05
3.17186e-05
3.13287e-05
3.07897e-05
3.01757e-05
2.94947e-05
2.87167e-05
2.78407e-05
2.68334e-05
2.57521e-05
2.45302e-05
2.31034e-05
5.61498e-05
5.21232e-05
4.82337e-05
4.45437e-05
4.10979e-05
3.81253e-05
3.57127e-05
3.39526e-05
3.28941e-05
3.22247e-05
3.18299e-05
3.151e-05
3.12109e-05
3.09152e-05
3.06138e-05
3.02263e-05
2.97831e-05
2.92557e-05
2.86262e-05
2.78982e-05
2.70741e-05
2.61306e-05
2.50843e-05
2.38715e-05
2.2432e-05
5.45133e-05
5.05842e-05
4.67827e-05
4.32208e-05
3.98944e-05
3.70192e-05
3.47545e-05
3.3116e-05
3.20661e-05
3.14919e-05
3.11156e-05
3.08582e-05
3.06678e-05
3.04719e-05
3.02116e-05
2.98698e-05
2.94338e-05
2.88983e-05
2.82592e-05
2.75156e-05
2.66543e-05
2.5691e-05
2.4601e-05
2.33473e-05
2.18928e-05
5.1714e-05
4.84144e-05
4.51559e-05
4.2049e-05
3.90958e-05
3.65321e-05
3.45303e-05
3.31176e-05
3.22421e-05
3.17559e-05
3.14897e-05
3.13349e-05
3.1208e-05
3.10449e-05
3.0805e-05
3.04616e-05
3.00007e-05
2.94132e-05
2.86948e-05
2.78455e-05
2.68667e-05
2.57484e-05
2.44698e-05
2.29948e-05
2.12879e-05
4.67104e-05
4.53825e-05
4.33167e-05
4.09481e-05
3.85528e-05
3.64176e-05
3.47145e-05
3.35682e-05
3.29408e-05
3.26752e-05
3.26031e-05
3.25955e-05
3.25601e-05
3.2444e-05
3.22353e-05
3.18938e-05
3.14056e-05
3.07618e-05
2.99551e-05
2.89789e-05
2.78263e-05
2.64929e-05
2.49598e-05
2.3156e-05
2.10736e-05
4.27163e-05
4.2563e-05
4.15168e-05
3.995e-05
3.81904e-05
3.65571e-05
3.53045e-05
3.45237e-05
3.41651e-05
3.41015e-05
3.41819e-05
3.42965e-05
3.43574e-05
3.43117e-05
3.41591e-05
3.38584e-05
3.339e-05
3.2738e-05
3.18881e-05
3.08271e-05
2.95433e-05
2.8026e-05
2.63069e-05
2.43109e-05
2.21939e-05
4.00323e-05
4.04535e-05
4.00987e-05
3.91864e-05
3.80227e-05
3.69122e-05
3.60752e-05
3.56257e-05
3.55101e-05
3.56081e-05
3.58168e-05
3.60391e-05
3.6211e-05
3.62805e-05
3.62251e-05
3.60317e-05
3.56615e-05
3.50912e-05
3.42961e-05
3.32513e-05
3.19381e-05
3.03531e-05
2.84505e-05
2.61901e-05
2.38428e-05
3.88486e-05
3.92621e-05
3.91619e-05
3.86684e-05
3.79644e-05
3.7276e-05
3.67905e-05
3.66024e-05
3.66734e-05
3.69142e-05
3.72304e-05
3.7557e-05
3.78485e-05
3.80629e-05
3.81599e-05
3.81406e-05
3.79452e-05
3.7551e-05
3.69211e-05
3.60193e-05
3.47955e-05
3.32039e-05
3.11864e-05
2.86655e-05
2.57587e-05
3.79832e-05
3.84508e-05
3.85472e-05
3.83424e-05
3.79731e-05
3.75758e-05
3.73277e-05
3.7332e-05
3.75383e-05
3.78827e-05
3.82991e-05
3.87333e-05
3.91472e-05
3.95099e-05
3.97823e-05
3.99489e-05
3.99862e-05
3.9843e-05
3.94869e-05
3.88859e-05
3.7985e-05
3.67109e-05
3.49643e-05
3.25891e-05
2.93908e-05
3.7478e-05
3.80045e-05
3.82418e-05
3.82316e-05
3.80333e-05
3.78237e-05
3.77235e-05
3.78329e-05
3.81219e-05
3.85394e-05
3.90328e-05
3.95573e-05
4.00773e-05
4.05672e-05
4.10006e-05
4.1344e-05
4.15776e-05
4.16752e-05
4.16198e-05
4.13738e-05
4.09044e-05
4.01549e-05
3.90354e-05
3.74287e-05
3.49932e-05
3.78997e-05
3.81138e-05
3.82754e-05
3.82961e-05
3.82183e-05
3.81135e-05
3.8078e-05
3.82036e-05
3.85052e-05
3.89492e-05
3.9487e-05
4.00744e-05
4.06757e-05
4.12649e-05
4.18177e-05
4.23038e-05
4.26934e-05
4.29596e-05
4.30967e-05
4.31113e-05
4.2967e-05
4.26036e-05
4.19627e-05
4.10357e-05
3.97626e-05
3.8169e-05
3.8385e-05
3.85235e-05
3.85795e-05
3.85668e-05
3.85331e-05
3.85177e-05
3.85895e-05
3.88155e-05
3.92088e-05
3.97331e-05
4.03435e-05
4.10022e-05
4.1671e-05
4.2321e-05
4.29222e-05
4.34444e-05
4.38616e-05
4.41605e-05
4.43285e-05
4.43372e-05
4.41501e-05
4.36884e-05
4.28745e-05
4.16624e-05
3.77777e-05
3.81666e-05
3.84328e-05
3.85757e-05
3.86557e-05
3.86917e-05
3.8719e-05
3.87904e-05
3.8979e-05
3.93266e-05
3.97867e-05
4.03723e-05
4.10729e-05
4.18185e-05
4.25661e-05
4.32806e-05
4.39296e-05
4.4486e-05
4.49305e-05
4.52429e-05
4.53992e-05
4.53344e-05
4.49819e-05
4.43016e-05
4.32212e-05
3.63948e-05
3.70214e-05
3.75404e-05
3.79061e-05
3.81623e-05
3.83047e-05
3.84201e-05
3.85742e-05
3.87809e-05
3.90952e-05
3.95784e-05
4.0142e-05
4.08495e-05
4.16846e-05
4.25443e-05
4.33976e-05
4.41901e-05
4.48913e-05
4.5478e-05
4.59285e-05
4.62134e-05
4.62979e-05
4.61177e-05
4.56495e-05
4.48744e-05
3.30304e-05
3.41606e-05
3.51223e-05
3.5984e-05
3.66614e-05
3.72073e-05
3.75878e-05
3.78362e-05
3.81318e-05
3.84729e-05
3.89425e-05
3.95515e-05
4.0317e-05
4.12508e-05
4.22664e-05
4.32885e-05
4.42297e-05
4.50956e-05
4.58288e-05
4.64129e-05
4.682e-05
4.70198e-05
4.6985e-05
4.67104e-05
4.62208e-05
2.80582e-05
2.99807e-05
3.15751e-05
3.29287e-05
3.4094e-05
3.50507e-05
3.58678e-05
3.65615e-05
3.71028e-05
3.76236e-05
3.81608e-05
3.88076e-05
3.96299e-05
4.06356e-05
4.18007e-05
4.29826e-05
4.4133e-05
4.513e-05
4.60092e-05
4.67193e-05
4.72247e-05
4.75182e-05
4.75726e-05
4.7419e-05
4.70346e-05
2.37003e-05
2.61877e-05
2.8271e-05
3.00271e-05
3.15578e-05
3.28289e-05
3.38947e-05
3.48115e-05
3.5646e-05
3.64212e-05
3.72181e-05
3.80737e-05
3.90304e-05
4.01374e-05
4.13818e-05
4.26649e-05
4.39382e-05
4.50978e-05
4.60659e-05
4.68798e-05
4.74603e-05
4.78211e-05
4.79493e-05
4.78811e-05
4.76222e-05
2.14735e-05
2.41648e-05
2.64853e-05
2.84614e-05
3.01349e-05
3.15768e-05
3.27476e-05
3.3742e-05
3.46296e-05
3.54867e-05
3.63974e-05
3.73822e-05
3.84749e-05
3.97159e-05
4.10385e-05
4.24151e-05
4.37663e-05
4.50152e-05
4.60438e-05
4.68999e-05
4.75162e-05
4.78911e-05
4.80604e-05
4.81026e-05
4.80253e-05
2.08691e-05
2.36298e-05
2.61522e-05
2.83259e-05
3.01568e-05
3.16472e-05
3.27933e-05
3.37185e-05
3.45369e-05
3.53385e-05
3.62159e-05
3.72288e-05
3.83768e-05
3.9647e-05
4.09959e-05
4.23865e-05
4.3733e-05
4.49602e-05
4.5973e-05
4.67867e-05
4.7362e-05
4.76872e-05
4.78319e-05
4.79009e-05
4.79527e-05
2.1311e-05
2.42239e-05
2.6931e-05
2.92149e-05
3.11046e-05
3.25942e-05
3.37159e-05
3.45426e-05
3.52105e-05
3.58427e-05
3.6573e-05
3.74851e-05
3.85773e-05
3.98318e-05
4.11825e-05
4.25363e-05
4.3808e-05
4.49232e-05
4.58073e-05
4.64761e-05
4.68895e-05
4.70397e-05
4.70062e-05
4.69265e-05
4.69124e-05
2.25732e-05
2.56616e-05
2.85479e-05
3.09045e-05
3.27969e-05
3.42247e-05
3.52232e-05
3.58781e-05
3.6344e-05
3.67996e-05
3.73928e-05
3.82117e-05
3.9235e-05
4.03997e-05
4.16299e-05
4.28377e-05
4.39331e-05
4.48372e-05
4.55036e-05
4.59028e-05
4.59996e-05
4.58121e-05
4.54148e-05
4.49392e-05
4.45338e-05
2.43973e-05
2.76749e-05
3.06735e-05
3.30482e-05
3.48662e-05
3.61581e-05
3.70018e-05
3.75153e-05
3.78376e-05
3.81403e-05
3.85846e-05
3.92507e-05
4.01107e-05
4.11071e-05
4.21524e-05
4.31401e-05
4.39839e-05
4.45942e-05
4.49245e-05
4.49392e-05
4.46207e-05
4.39656e-05
4.30464e-05
4.20117e-05
4.1043e-05
2.70663e-05
3.02829e-05
3.31678e-05
3.53948e-05
3.70115e-05
3.809e-05
3.87404e-05
3.90807e-05
3.92618e-05
3.94519e-05
3.97778e-05
4.0301e-05
4.09941e-05
4.17888e-05
4.25928e-05
4.33085e-05
4.38276e-05
4.40912e-05
4.4039e-05
4.36404e-05
4.2862e-05
4.16757e-05
4.01265e-05
3.82926e-05
3.62965e-05
3.04344e-05
3.33343e-05
3.58712e-05
3.77664e-05
3.90699e-05
3.98793e-05
4.03098e-05
4.04755e-05
4.05364e-05
4.06234e-05
4.08367e-05
4.12139e-05
4.17223e-05
4.22933e-05
4.28329e-05
4.32449e-05
4.34466e-05
4.33731e-05
4.29763e-05
4.222e-05
4.10659e-05
3.94876e-05
3.75256e-05
3.51815e-05
3.237e-05
3.44809e-05
3.66826e-05
3.85759e-05
3.99925e-05
4.09148e-05
4.14285e-05
4.16362e-05
4.16469e-05
4.15951e-05
4.1591e-05
4.16787e-05
4.1903e-05
4.22187e-05
4.25606e-05
4.28435e-05
4.29967e-05
4.29282e-05
4.25916e-05
4.19448e-05
4.09532e-05
3.95837e-05
3.78311e-05
3.57521e-05
3.33621e-05
3.06715e-05
3.84087e-05
3.96768e-05
4.09331e-05
4.18875e-05
4.24474e-05
4.26905e-05
4.2695e-05
4.25905e-05
4.2437e-05
4.23421e-05
4.23317e-05
4.24098e-05
4.25456e-05
4.26851e-05
4.27593e-05
4.27046e-05
4.24482e-05
4.19501e-05
4.11691e-05
4.00665e-05
3.86165e-05
3.68413e-05
3.47551e-05
3.23214e-05
2.95559e-05
4.07048e-05
4.17482e-05
4.2698e-05
4.33533e-05
4.36471e-05
4.36774e-05
4.35384e-05
4.33356e-05
4.31046e-05
4.29132e-05
4.28009e-05
4.27588e-05
4.27692e-05
4.27635e-05
4.2706e-05
4.25301e-05
4.21926e-05
4.16476e-05
4.08503e-05
3.97647e-05
3.83553e-05
3.6621e-05
3.45138e-05
3.20014e-05
2.91256e-05
4.28396e-05
4.35414e-05
4.41911e-05
4.45697e-05
4.46317e-05
4.44845e-05
4.42509e-05
4.39535e-05
4.36452e-05
4.33703e-05
4.3157e-05
4.30343e-05
4.29633e-05
4.29082e-05
4.28036e-05
4.26145e-05
4.22977e-05
4.18021e-05
4.10784e-05
4.00909e-05
3.87924e-05
3.71614e-05
3.51099e-05
3.25928e-05
2.96409e-05
4.48275e-05
4.51664e-05
4.55219e-05
4.56464e-05
4.5508e-05
4.52211e-05
4.48937e-05
4.45178e-05
4.41547e-05
4.38425e-05
4.35981e-05
4.34289e-05
4.33175e-05
4.32512e-05
4.31777e-05
4.30535e-05
4.28294e-05
4.24562e-05
4.18911e-05
4.1094e-05
4.00126e-05
3.85807e-05
3.66889e-05
3.42664e-05
3.13418e-05
4.66304e-05
4.66678e-05
4.67583e-05
4.66657e-05
4.63602e-05
4.59517e-05
4.55423e-05
4.51165e-05
4.47163e-05
4.43706e-05
4.41002e-05
4.39135e-05
4.38088e-05
4.37694e-05
4.37689e-05
4.37658e-05
4.37082e-05
4.35385e-05
4.32058e-05
4.26695e-05
4.18764e-05
4.07392e-05
3.91276e-05
3.69606e-05
3.4373e-05
4.83001e-05
4.81222e-05
4.79994e-05
4.77366e-05
4.73001e-05
4.68027e-05
4.63105e-05
4.58271e-05
4.53846e-05
4.50131e-05
4.47353e-05
4.45661e-05
4.45093e-05
4.45483e-05
4.46604e-05
4.48078e-05
4.49308e-05
4.49689e-05
4.48759e-05
4.461e-05
4.41162e-05
4.33007e-05
4.20347e-05
4.03435e-05
3.83888e-05
4.99818e-05
4.9617e-05
4.93069e-05
4.89258e-05
4.83962e-05
4.78151e-05
4.72416e-05
4.66983e-05
4.62136e-05
4.58195e-05
4.55415e-05
4.53977e-05
4.53952e-05
4.55218e-05
4.57538e-05
4.60485e-05
4.63449e-05
4.65799e-05
4.67054e-05
4.66764e-05
4.64373e-05
4.59075e-05
4.49594e-05
4.37432e-05
4.23317e-05
5.15432e-05
5.11232e-05
5.07016e-05
5.02581e-05
4.96643e-05
4.90134e-05
4.83674e-05
4.77637e-05
4.72352e-05
4.68156e-05
4.65334e-05
4.64099e-05
4.64558e-05
4.66583e-05
4.69938e-05
4.74164e-05
4.78638e-05
4.82666e-05
4.85699e-05
4.87279e-05
4.86893e-05
4.83902e-05
4.77375e-05
4.69073e-05
4.59245e-05
5.3124e-05
5.27166e-05
5.22595e-05
5.17688e-05
5.11233e-05
5.04106e-05
4.96997e-05
4.90373e-05
4.84625e-05
4.8012e-05
4.77187e-05
4.76067e-05
4.76861e-05
4.79474e-05
4.83645e-05
4.88903e-05
4.94599e-05
5.00026e-05
5.04516e-05
5.07574e-05
5.08685e-05
5.07279e-05
5.02751e-05
4.96668e-05
4.89421e-05
5.45601e-05
5.42573e-05
5.3875e-05
5.3421e-05
5.27634e-05
5.20067e-05
5.12415e-05
5.0525e-05
4.9904e-05
4.94197e-05
4.91079e-05
4.8996e-05
4.90933e-05
4.93958e-05
4.98735e-05
5.04804e-05
5.11509e-05
5.1806e-05
5.23773e-05
5.28024e-05
5.30273e-05
5.29966e-05
5.26549e-05
5.21263e-05
5.14233e-05
5.60419e-05
5.6015e-05
5.57275e-05
5.52876e-05
5.46126e-05
5.38138e-05
5.29977e-05
5.22304e-05
5.15651e-05
5.10461e-05
5.07117e-05
5.05919e-05
5.06967e-05
5.10269e-05
5.15531e-05
5.22198e-05
5.29713e-05
5.37253e-05
5.44036e-05
5.49387e-05
5.52687e-05
5.53387e-05
5.50987e-05
5.46475e-05
5.39935e-05
5.82681e-05
5.82063e-05
5.78744e-05
5.73934e-05
5.66839e-05
5.58407e-05
5.49761e-05
5.41623e-05
5.3457e-05
5.29066e-05
5.2551e-05
5.24204e-05
5.25251e-05
5.28711e-05
5.34304e-05
5.41485e-05
5.49703e-05
5.58139e-05
5.6595e-05
5.72383e-05
5.76777e-05
5.78542e-05
5.77204e-05
5.73639e-05
5.67812e-05
6.12666e-05
6.08485e-05
6.03373e-05
5.97774e-05
5.9011e-05
5.81147e-05
5.72005e-05
5.63444e-05
5.56044e-05
5.50273e-05
5.46532e-05
5.45118e-05
5.46137e-05
5.49673e-05
5.55452e-05
5.63127e-05
5.72012e-05
5.81296e-05
5.90119e-05
5.97663e-05
6.03212e-05
6.06144e-05
6.06015e-05
6.03612e-05
5.98803e-05
6.38237e-05
6.34988e-05
6.29822e-05
6.23735e-05
6.15631e-05
6.06314e-05
5.9686e-05
5.88033e-05
5.8041e-05
5.74465e-05
5.706e-05
5.69118e-05
5.70148e-05
5.73787e-05
5.79801e-05
5.87809e-05
5.97257e-05
6.07339e-05
6.17138e-05
6.25799e-05
6.32556e-05
6.36746e-05
6.37971e-05
6.36994e-05
6.33514e-05
6.63422e-05
6.61553e-05
6.57205e-05
6.51371e-05
6.43406e-05
6.34153e-05
6.24705e-05
6.15849e-05
6.08184e-05
6.02204e-05
5.98323e-05
5.96857e-05
5.97959e-05
6.01752e-05
6.08052e-05
6.16353e-05
6.26206e-05
6.36914e-05
6.47584e-05
6.5731e-05
6.6528e-05
6.70806e-05
6.73505e-05
6.74154e-05
6.72288e-05
7.00411e-05
6.95443e-05
6.89357e-05
6.82997e-05
6.74829e-05
6.65622e-05
6.56297e-05
6.47561e-05
6.39999e-05
6.3411e-05
6.30309e-05
6.28915e-05
6.30082e-05
6.33923e-05
6.40236e-05
6.48812e-05
6.59137e-05
6.70437e-05
6.81881e-05
6.92594e-05
7.01742e-05
7.08626e-05
7.12891e-05
7.15345e-05
7.1532e-05
7.34872e-05
7.29841e-05
7.2394e-05
7.17656e-05
7.09747e-05
7.0094e-05
6.92023e-05
6.83633e-05
6.76354e-05
6.70694e-05
6.67072e-05
6.65809e-05
6.67078e-05
6.70996e-05
6.77402e-05
6.86145e-05
6.96706e-05
7.08392e-05
7.20428e-05
7.31978e-05
7.42211e-05
7.50419e-05
7.56279e-05
7.606e-05
7.62557e-05
7.66512e-05
7.64286e-05
7.60325e-05
7.55104e-05
7.4822e-05
7.4034e-05
7.32181e-05
7.24391e-05
7.17587e-05
7.12301e-05
7.08964e-05
7.07904e-05
7.09333e-05
7.13386e-05
7.19964e-05
7.28739e-05
7.3927e-05
7.51097e-05
7.63493e-05
7.75667e-05
7.86815e-05
7.96242e-05
8.03682e-05
8.09903e-05
8.13897e-05
8.07564e-05
8.05621e-05
8.02022e-05
7.97491e-05
7.91407e-05
7.84386e-05
7.77057e-05
7.69981e-05
7.63784e-05
7.5898e-05
7.56004e-05
7.55183e-05
7.56746e-05
7.60809e-05
7.67272e-05
7.75878e-05
7.86472e-05
7.98393e-05
8.11009e-05
8.23627e-05
8.35515e-05
8.46027e-05
8.54948e-05
8.62963e-05
8.68946e-05
8.51346e-05
8.50318e-05
8.4761e-05
8.43839e-05
8.38722e-05
8.32829e-05
8.26444e-05
8.20254e-05
8.14709e-05
8.10455e-05
8.07889e-05
8.07339e-05
8.09043e-05
8.13124e-05
8.1952e-05
8.28067e-05
8.38434e-05
8.5021e-05
8.62835e-05
8.75687e-05
8.88103e-05
8.99517e-05
9.09779e-05
9.19446e-05
9.27276e-05
8.98437e-05
8.9804e-05
8.96349e-05
8.93528e-05
8.89633e-05
8.84991e-05
8.79757e-05
8.74462e-05
8.69792e-05
8.66128e-05
8.64017e-05
8.63762e-05
8.65607e-05
8.69695e-05
8.75995e-05
8.84393e-05
8.94487e-05
9.06029e-05
9.18538e-05
9.31462e-05
9.4422e-05
9.56352e-05
9.67741e-05
9.78794e-05
9.88217e-05
9.47659e-05
9.48702e-05
9.48585e-05
9.47108e-05
9.44382e-05
9.40609e-05
9.36346e-05
9.31901e-05
9.28082e-05
9.25193e-05
9.23555e-05
9.23624e-05
9.25653e-05
9.29706e-05
9.35774e-05
9.43798e-05
9.5373e-05
9.65085e-05
9.77455e-05
9.90373e-05
0.000100335
0.000101603
0.000102835
0.000104053
0.000105121
9.99034e-05
0.000100228
0.00010039
0.000100381
0.000100225
9.9947e-05
9.95892e-05
9.92271e-05
9.88914e-05
9.86565e-05
9.85408e-05
9.8578e-05
9.87949e-05
9.92032e-05
9.9806e-05
0.000100595
0.000101556
0.000102665
0.000103885
0.000105174
0.000106488
0.000107802
0.000109107
0.000110411
0.000111576
0.000105406
0.000105952
0.000106246
0.000106335
0.000106264
0.000106072
0.000105783
0.000105464
0.000105167
0.000104946
0.000104858
0.000104912
0.000105121
0.000105524
0.000106129
0.000106914
0.000107863
0.000108959
0.000110172
0.000111467
0.000112804
0.000114165
0.00011554
0.000116924
0.000118171
0.000111555
0.000112132
0.000112495
0.000112623
0.000112564
0.000112361
0.000112087
0.000111768
0.000111492
0.000111283
0.000111191
0.000111245
0.000111459
0.000111854
0.000112433
0.000113202
0.000114156
0.000115257
0.000116483
0.000117804
0.000119187
0.000120614
0.000122072
0.000123553
0.000124897
0.000118142
0.000118747
0.000119069
0.000119131
0.000118998
0.000118724
0.000118372
0.000118017
0.000117694
0.000117473
0.000117362
0.000117398
0.000117618
0.000118008
0.00011858
0.000119345
0.000120289
0.000121408
0.000122677
0.000124055
0.000125516
0.000127044
0.00012863
0.000130258
0.000131748
0.000125609
0.000125952
0.000125964
0.000125759
0.000125406
0.000124962
0.000124476
0.000124007
0.000123601
0.000123302
0.000123162
0.000123174
0.000123357
0.000123739
0.000124329
0.000125106
0.00012607
0.000127225
0.000128553
0.000130023
0.000131611
0.000133306
0.000135095
0.000136962
0.000138693
0.000133675
0.000133451
0.000132922
0.000132254
0.000131517
0.000130762
0.000130058
0.000129422
0.000128917
0.000128551
0.00012835
0.000128331
0.000128495
0.000128853
0.000129411
0.000130192
0.000131199
0.00013241
0.00013382
0.00013542
0.000137197
0.000139147
0.000141263
0.000143525
0.000145669
0.00014218
0.000140908
0.000139481
0.000138112
0.00013684
0.000135702
0.000134719
0.000133914
0.000133288
0.000132861
0.000132611
0.000132563
0.00013272
0.000133065
0.000133609
0.000134367
0.000135347
0.000136578
0.000138066
0.000139819
0.00014185
0.000144162
0.000146769
0.000149663
0.000152493
0.000150412
0.000147583
0.000144828
0.000142518
0.000140636
0.000139122
0.000137932
0.000137031
0.000136373
0.000135937
0.000135714
0.000135669
0.00013579
0.000136096
0.000136598
0.000137291
0.000138206
0.000139383
0.00014086
0.000142692
0.00014494
0.000147671
0.000150961
0.000154845
0.000158862
0.000156933
0.000151777
0.000147347
0.000144075
0.000141742
0.000140103
0.000138986
0.00013825
0.000137794
0.000137545
0.000137453
0.000137484
0.00013762
0.000137859
0.000138208
0.000138702
0.000139383
0.000140295
0.000141524
0.000143181
0.000145417
0.000148428
0.000152467
0.000157771
0.000163855
0.000158774
0.000150226
0.000144323
0.000140805
0.00013884
0.000137835
0.000137419
0.000137348
0.000137463
0.000137666
0.000137887
0.000138098
0.000138284
0.000138431
0.000138551
0.000138675
0.000138845
0.000139128
0.000139627
0.000140504
0.000142008
0.000144509
0.000148605
0.00015513
0.000164278
0.000144649
0.000135822
0.000132124
0.000131211
0.000131624
0.000132626
0.000133832
0.00013503
0.000136112
0.000137013
0.00013771
0.000138183
0.000138428
0.000138457
0.000138274
0.000137884
0.000137307
0.000136576
0.000135752
0.00013495
0.000134378
0.000134419
0.000135799
0.000139921
0.000148938
9.98549e-05
0.000106185
0.000112664
0.000118371
0.000123215
0.000127254
0.000130573
0.000133257
0.000135373
0.000136982
0.000138126
0.000138843
0.000139155
0.000139068
0.000138582
0.000137681
0.000136338
0.000134513
0.000132149
0.000129179
0.000125521
0.000121105
0.000115888
0.000110005
0.000104479
6.90411e-05
8.75467e-05
0.000101525
0.000111863
0.000119707
0.000125729
0.00013037
0.000133939
0.000136646
0.000138641
0.000140022
0.000140855
0.00014118
0.000141013
0.000140345
0.000139142
0.000137346
0.000134856
0.000131526
0.000127141
0.000121379
0.000113769
0.000103548
8.9445e-05
7.06849e-05
0.000134089
0.000119616
0.000118991
0.00012256
0.000127432
0.000132145
0.00013616
0.000139388
0.000141886
0.00014374
0.000145022
0.000145782
0.000146054
0.000145856
0.000145181
0.000144004
0.000142278
0.000139932
0.000136887
0.0001331
0.000128668
0.000124097
0.000120657
0.000120812
0.000132926
0.000382497
0.000183403
0.000144053
0.00013659
0.000137422
0.000140271
0.000143119
0.000145577
0.000147551
0.000149044
0.000150077
0.000150642
0.000150757
0.000150436
0.000149727
0.000148673
0.000147244
0.000145409
0.000143126
0.000140526
0.000138134
0.000138365
0.000148114
0.000187513
0.00037676
0.000720991
0.000283992
0.000169816
0.000145314
0.00014462
0.000146598
0.000147659
0.000149187
0.00015058
0.000151756
0.000152865
0.000153432
0.000153389
0.000152482
0.000151163
0.000150118
0.000149459
0.000149081
0.000149044
0.000148966
0.0001477
0.000150418
0.000176496
0.000303765
0.000795221
0.000614683
0.000283003
0.000161037
0.000129487
0.000124039
0.000112957
0.00010893
0.000108914
0.000114686
0.000120927
0.000123544
0.00012206
0.000114764
0.000102975
8.96893e-05
7.77065e-05
7.25341e-05
7.42131e-05
7.95381e-05
9.12576e-05
0.000111827
0.000125354
0.000164071
0.000293117
0.000638272
0.000364317
0.00025194
0.000155683
0.000105716
6.20795e-05
3.68324e-05
2.50652e-05
2.39324e-05
3.7586e-05
5.4805e-05
6.66464e-05
7.16638e-05
6.75358e-05
5.15347e-05
2.35838e-05
6.29744e-06
3.64809e-06
3.84074e-06
5.31311e-06
1.6432e-05
4.4218e-05
9.28219e-05
0.000153631
0.00025348
0.000356795
0.000256048
0.000211138
0.000109277
4.08879e-05
9.59329e-06
1.3478e-06
2.62959e-07
3.1342e-07
2.88065e-06
1.04646e-05
1.90439e-05
2.58508e-05
2.64761e-05
1.96122e-05
6.66883e-06
8.35319e-07
9.22035e-08
3.08032e-08
2.46264e-08
1.22028e-07
4.5588e-06
3.20786e-05
0.000102401
0.000208161
0.000247434
0.000152716
0.000144154
7.40918e-05
1.73208e-05
5.73728e-07
1.725e-08
1.30624e-08
1.39024e-08
6.92069e-08
1.04012e-06
3.11148e-06
5.29842e-06
5.85906e-06
3.69444e-06
4.41023e-07
2.49511e-08
1.5037e-08
1.47082e-08
1.48159e-08
1.43362e-08
3.14748e-07
1.34778e-05
6.78262e-05
0.000140676
0.000147536
)
;

boundaryField
{
    inlet
    {
        type            calculated;
        value           nonuniform List<scalar> 
25
(
2.01955e-08
2.0196e-08
2.01959e-08
2.01956e-08
2.01949e-08
2.0194e-08
2.01928e-08
2.01917e-08
2.01905e-08
2.01894e-08
2.01885e-08
2.01877e-08
2.01871e-08
2.01868e-08
2.01867e-08
2.01868e-08
2.01872e-08
2.01876e-08
2.01882e-08
2.01888e-08
2.01893e-08
2.01898e-08
2.01903e-08
2.01907e-08
2.01915e-08
)
;
    }
    outlet
    {
        type            calculated;
        value           nonuniform List<scalar> 
25
(
0.000152723
0.000144165
7.41016e-05
1.73223e-05
1.88546e-08
1.88546e-08
1.88546e-08
1.88546e-08
6.92078e-08
1.04022e-06
3.11221e-06
5.30023e-06
5.86104e-06
3.69526e-06
4.41046e-07
1.88546e-08
1.88546e-08
1.88546e-08
1.88546e-08
1.88546e-08
1.88546e-08
1.3478e-05
6.78307e-05
0.000140683
0.000147542
)
;
    }
    walls
    {
        type            nutkWallFunction;
        Cmu             0.09;
        kappa           0.41;
        E               9.8;
        value           uniform 1e-08;
    }
    defaultFaces
    {
        type            empty;
    }
}


// ************************************************************************* //
