/*--------------------------------*- C++ -*----------------------------------*\
| =========                 |                                                 |
| \\      /  F ield         | OpenFOAM: The Open Source CFD Toolbox           |
|  \\    /   O peration     | Version:  2.3.0                                 |
|   \\  /    A nd           | Web:      www.OpenFOAM.org                      |
|    \\/     M anipulation  |                                                 |
\*---------------------------------------------------------------------------*/
FoamFile
{
    version     2.0;
    format      ascii;
    class       volVectorField;
    location    "54";
    object      U.air;
}
// * * * * * * * * * * * * * * * * * * * * * * * * * * * * * * * * * * * * * //

dimensions      [0 1 -1 0 0 0 0];

internalField   nonuniform List<vector> 
1875
(
(0.00901482 0.110278 0)
(0.0248624 0.104437 0)
(0.0716491 0.102047 0)
(0.117654 0.103339 0)
(0.160152 0.108481 0)
(0.197514 0.115762 0)
(0.228495 0.123795 0)
(0.252917 0.13028 0)
(0.270722 0.136639 0)
(0.281836 0.143487 0)
(0.286297 0.149793 0)
(0.284782 0.155693 0)
(0.277466 0.161198 0)
(0.263116 0.164583 0)
(0.241196 0.166029 0)
(0.213607 0.168337 0)
(0.182509 0.173743 0)
(0.150506 0.177478 0)
(0.119817 0.177803 0)
(0.0930027 0.175626 0)
(0.072003 0.171522 0)
(0.05658 0.165362 0)
(0.0448316 0.159419 0)
(0.0159958 0.155783 0)
(0.00719548 0.154719 0)
(0.0262725 0.206649 0)
(0.0539657 0.202306 0)
(0.0994857 0.202775 0)
(0.134324 0.207986 0)
(0.165698 0.21521 0)
(0.193412 0.223751 0)
(0.217333 0.233403 0)
(0.236692 0.244914 0)
(0.25131 0.257226 0)
(0.260896 0.270064 0)
(0.264734 0.284209 0)
(0.261585 0.299595 0)
(0.252643 0.315221 0)
(0.23947 0.331524 0)
(0.222279 0.348173 0)
(0.200621 0.3623 0)
(0.178844 0.371085 0)
(0.154879 0.376002 0)
(0.129042 0.377856 0)
(0.103875 0.376409 0)
(0.079773 0.372955 0)
(0.0561473 0.370531 0)
(0.0346559 0.371929 0)
(0.0120294 0.374376 0)
(0.00442908 0.373535 0)
(0.0220866 0.0867301 0)
(0.0593634 0.094381 0)
(0.0978586 0.10462 0)
(0.126009 0.117064 0)
(0.1493 0.131432 0)
(0.16884 0.147554 0)
(0.184767 0.165173 0)
(0.196752 0.184228 0)
(0.204678 0.204138 0)
(0.208594 0.224692 0)
(0.209252 0.246055 0)
(0.20722 0.268349 0)
(0.200369 0.291835 0)
(0.189102 0.315739 0)
(0.174746 0.338932 0)
(0.157009 0.35955 0)
(0.134689 0.373522 0)
(0.111708 0.381736 0)
(0.0904297 0.38472 0)
(0.0701688 0.381972 0)
(0.0518995 0.376039 0)
(0.0365181 0.371208 0)
(0.0234541 0.370685 0)
(0.00960355 0.369404 0)
(0.00482547 0.366063 0)
(0.0196403 0.0568976 0)
(0.0560291 0.0684844 0)
(0.0748476 0.0823837 0)
(0.0917355 0.0982796 0)
(0.107137 0.116635 0)
(0.11958 0.137357 0)
(0.128115 0.160078 0)
(0.132481 0.184391 0)
(0.133108 0.209823 0)
(0.130703 0.236207 0)
(0.12515 0.263499 0)
(0.116782 0.291409 0)
(0.106791 0.319429 0)
(0.0950487 0.347536 0)
(0.0820406 0.374617 0)
(0.0679279 0.398642 0)
(0.0526014 0.417398 0)
(0.0394232 0.428578 0)
(0.0287666 0.431148 0)
(0.0198961 0.425948 0)
(0.013445 0.416338 0)
(0.00878545 0.405839 0)
(0.00538302 0.398199 0)
(0.000750684 0.393258 0)
(0.000550922 0.386549 0)
(0.0148556 0.0285069 0)
(0.0395527 0.038828 0)
(0.0400873 0.0538022 0)
(0.0472653 0.071612 0)
(0.0557986 0.0928641 0)
(0.0606402 0.117078 0)
(0.0611825 0.143607 0)
(0.0579599 0.171862 0)
(0.0517458 0.201303 0)
(0.0431377 0.231493 0)
(0.0325103 0.262264 0)
(0.0201306 0.293543 0)
(0.00648018 0.325084 0)
(-0.00770877 0.356278 0)
(-0.0210838 0.385579 0)
(-0.031532 0.410756 0)
(-0.0373047 0.429564 0)
(-0.0386697 0.437637 0)
(-0.037144 0.436391 0)
(-0.032902 0.428443 0)
(-0.0268445 0.416269 0)
(-0.0206326 0.403943 0)
(-0.0141923 0.394511 0)
(-0.0054356 0.389462 0)
(-0.00188234 0.383004 0)
(0.0146894 0.0170218 0)
(0.0263635 0.0291249 0)
(0.00841108 0.0460279 0)
(0.00673796 0.0661415 0)
(0.00641394 0.0903147 0)
(0.00038059 0.117485 0)
(-0.0094525 0.146893 0)
(-0.0214727 0.177721 0)
(-0.0351127 0.209186 0)
(-0.0500758 0.240842 0)
(-0.0658762 0.2726 0)
(-0.0817217 0.304226 0)
(-0.096518 0.335247 0)
(-0.108646 0.364414 0)
(-0.11601 0.390121 0)
(-0.116894 0.41031 0)
(-0.111529 0.422437 0)
(-0.101702 0.425859 0)
(-0.0885074 0.421881 0)
(-0.0729277 0.411514 0)
(-0.0570632 0.39835 0)
(-0.042534 0.385812 0)
(-0.0286378 0.37629 0)
(-0.0105587 0.36983 0)
(-0.00398767 0.364844 0)
(0.0125902 0.0252418 0)
(0.0152927 0.0377222 0)
(-0.0194871 0.0563871 0)
(-0.0297088 0.0785918 0)
(-0.0419139 0.104272 0)
(-0.0598617 0.132726 0)
(-0.0795044 0.162902 0)
(-0.0998574 0.193598 0)
(-0.120171 0.223978 0)
(-0.139604 0.253907 0)
(-0.156711 0.282935 0)
(-0.170329 0.310643 0)
(-0.179153 0.335765 0)
(-0.182131 0.358931 0)
(-0.1787 0.378 0)
(-0.168917 0.390633 0)
(-0.153843 0.396158 0)
(-0.134943 0.394868 0)
(-0.113366 0.387946 0)
(-0.0911229 0.377117 0)
(-0.0702666 0.364993 0)
(-0.0515857 0.354031 0)
(-0.0338882 0.345901 0)
(-0.0122828 0.340103 0)
(-0.00479408 0.336445 0)
(0.00984606 0.053984 0)
(0.00269301 0.0669715 0)
(-0.0450749 0.0872764 0)
(-0.0640002 0.110229 0)
(-0.0880534 0.136513 0)
(-0.114211 0.164786 0)
(-0.139505 0.193101 0)
(-0.163349 0.22034 0)
(-0.183906 0.245972 0)
(-0.200148 0.268494 0)
(-0.211764 0.289814 0)
(-0.217863 0.309589 0)
(-0.218036 0.328058 0)
(-0.211633 0.342228 0)
(-0.199598 0.35237 0)
(-0.18235 0.357453 0)
(-0.16099 0.357642 0)
(-0.13705 0.35342 0)
(-0.112382 0.345867 0)
(-0.0888158 0.336425 0)
(-0.0675603 0.326887 0)
(-0.0486412 0.318879 0)
(-0.0309022 0.313667 0)
(-0.0105493 0.311753 0)
(-0.00402603 0.311212 0)
(0.00257981 0.0981912 0)
(-0.0145877 0.11283 0)
(-0.0684286 0.134587 0)
(-0.0927347 0.157491 0)
(-0.121056 0.18316 0)
(-0.147219 0.20858 0)
(-0.17067 0.231574 0)
(-0.190664 0.251223 0)
(-0.206443 0.266046 0)
(-0.217409 0.280366 0)
(-0.22279 0.294358 0)
(-0.222112 0.305673 0)
(-0.216697 0.313486 0)
(-0.205117 0.318208 0)
(-0.187776 0.319093 0)
(-0.166772 0.318384 0)
(-0.143154 0.315255 0)
(-0.118818 0.310056 0)
(-0.0953795 0.303593 0)
(-0.0739787 0.296807 0)
(-0.0550843 0.290763 0)
(-0.03848 0.286475 0)
(-0.0235751 0.285028 0)
(-0.00760441 0.286981 0)
(-0.00292066 0.289982 0)
(-0.00511576 0.152021 0)
(-0.0261851 0.169359 0)
(-0.0808176 0.192313 0)
(-0.106434 0.213985 0)
(-0.13232 0.237059 0)
(-0.154503 0.257154 0)
(-0.173586 0.272767 0)
(-0.188896 0.284449 0)
(-0.201389 0.295888 0)
(-0.206971 0.301521 0)
(-0.209339 0.299524 0)
(-0.205677 0.295032 0)
(-0.194296 0.290783 0)
(-0.178847 0.286925 0)
(-0.160007 0.283664 0)
(-0.138776 0.279353 0)
(-0.116577 0.274659 0)
(-0.0947855 0.269879 0)
(-0.0744634 0.265488 0)
(-0.0562521 0.261979 0)
(-0.0403988 0.259896 0)
(-0.0268696 0.25983 0)
(-0.0155864 0.262508 0)
(-0.00459065 0.268725 0)
(-0.00188696 0.275753 0)
(-0.00973394 0.211505 0)
(-0.0273945 0.230488 0)
(-0.0750842 0.252307 0)
(-0.0994686 0.271648 0)
(-0.12294 0.289461 0)
(-0.142316 0.302336 0)
(-0.158992 0.309007 0)
(-0.172491 0.309346 0)
(-0.181762 0.302911 0)
(-0.186471 0.294472 0)
(-0.183223 0.285554 0)
(-0.175376 0.276267 0)
(-0.164157 0.267599 0)
(-0.149454 0.259202 0)
(-0.132395 0.251444 0)
(-0.113994 0.244785 0)
(-0.0953008 0.239347 0)
(-0.0771129 0.235283 0)
(-0.0600191 0.232821 0)
(-0.0444402 0.232233 0)
(-0.0307173 0.233837 0)
(-0.0191321 0.238032 0)
(-0.00982172 0.245432 0)
(-0.00193834 0.256492 0)
(-0.000562991 0.267752 0)
(-0.00951425 0.270043 0)
(-0.0222024 0.290669 0)
(-0.0617822 0.309874 0)
(-0.0828882 0.324697 0)
(-0.104324 0.336599 0)
(-0.121485 0.34199 0)
(-0.13618 0.340137 0)
(-0.147857 0.331142 0)
(-0.155013 0.316612 0)
(-0.157168 0.298151 0)
(-0.154494 0.280873 0)
(-0.148078 0.264489 0)
(-0.138622 0.249444 0)
(-0.126876 0.236588 0)
(-0.113701 0.225921 0)
(-0.0997087 0.217405 0)
(-0.0853563 0.21101 0)
(-0.0709478 0.206796 0)
(-0.0567165 0.204937 0)
(-0.0429102 0.205728 0)
(-0.0298892 0.209585 0)
(-0.0181296 0.217052 0)
(-0.00783786 0.228785 0)
(0.000772302 0.245472 0)
(0.00143623 0.262949 0)
(-0.00698186 0.321499 0)
(-0.0156936 0.341542 0)
(-0.0494541 0.359035 0)
(-0.067156 0.370191 0)
(-0.0850812 0.376816 0)
(-0.0996635 0.375839 0)
(-0.112432 0.36639 0)
(-0.122076 0.3491 0)
(-0.127387 0.326468 0)
(-0.129075 0.301715 0)
(-0.127772 0.277774 0)
(-0.12388 0.25609 0)
(-0.11809 0.23725 0)
(-0.111006 0.221323 0)
(-0.102966 0.208144 0)
(-0.0941016 0.197527 0)
(-0.0844515 0.189353 0)
(-0.0740038 0.183626 0)
(-0.0627829 0.180579 0)
(-0.0508794 0.180609 0)
(-0.0385296 0.184366 0)
(-0.0259528 0.192709 0)
(-0.0128513 0.206917 0)
(-0.000873133 0.228677 0)
(-0.000105044 0.252712 0)
(-0.00478669 0.361998 0)
(-0.0100928 0.381265 0)
(-0.0368598 0.397171 0)
(-0.0505897 0.406273 0)
(-0.0644973 0.409197 0)
(-0.0763049 0.403493 0)
(-0.0868777 0.388559 0)
(-0.09459 0.365084 0)
(-0.0991369 0.336599 0)
(-0.101731 0.306953 0)
(-0.102891 0.278907 0)
(-0.102833 0.253756 0)
(-0.101732 0.231872 0)
(-0.0995634 0.213163 0)
(-0.0962923 0.1974 0)
(-0.0919063 0.184281 0)
(-0.0863749 0.173677 0)
(-0.0796895 0.165737 0)
(-0.0718264 0.160387 0)
(-0.0627805 0.158191 0)
(-0.052491 0.159821 0)
(-0.0404627 0.166448 0)
(-0.0267136 0.17991 0)
(-0.0114215 0.201826 0)
(-0.00722227 0.226458 0)
(-0.00247658 0.390915 0)
(-0.00487101 0.40983 0)
(-0.0228689 0.424747 0)
(-0.0319137 0.432493 0)
(-0.0415261 0.433223 0)
(-0.0500369 0.424725 0)
(-0.0584036 0.406476 0)
(-0.0651784 0.379 0)
(-0.0703151 0.347094 0)
(-0.0751023 0.314511 0)
(-0.0793526 0.283785 0)
(-0.082956 0.256119 0)
(-0.0856866 0.231829 0)
(-0.0872382 0.210793 0)
(-0.087473 0.192722 0)
(-0.0863611 0.177425 0)
(-0.0840226 0.164729 0)
(-0.0806721 0.15445 0)
(-0.0761568 0.146757 0)
(-0.0703919 0.141875 0)
(-0.0633059 0.140604 0)
(-0.0547698 0.143342 0)
(-0.0447175 0.151443 0)
(-0.0250925 0.165776 0)
(-0.0144579 0.182195 0)
(-4.20551e-05 0.404048 0)
(0.000494765 0.422992 0)
(-0.00770974 0.440596 0)
(-0.0116704 0.44828 0)
(-0.0164231 0.448216 0)
(-0.0210647 0.438991 0)
(-0.0270463 0.41985 0)
(-0.0336061 0.391048 0)
(-0.0400912 0.357711 0)
(-0.0471271 0.323782 0)
(-0.0539028 0.291626 0)
(-0.0600072 0.262362 0)
(-0.0651604 0.236281 0)
(-0.0691926 0.213285 0)
(-0.0719538 0.193212 0)
(-0.073382 0.175981 0)
(-0.0735336 0.161488 0)
(-0.0724974 0.149472 0)
(-0.0707449 0.140128 0)
(-0.0685239 0.133133 0)
(-0.0659575 0.128215 0)
(-0.062713 0.125693 0)
(-0.057361 0.125673 0)
(-0.0366221 0.129009 0)
(-0.0181397 0.132073 0)
(0.00152529 0.40735 0)
(0.00563041 0.426742 0)
(0.00694872 0.443259 0)
(0.0089547 0.452253 0)
(0.00935589 0.453353 0)
(0.00870867 0.445491 0)
(0.00609671 0.42796 0)
(0.000616998 0.40099 0)
(-0.00698265 0.368484 0)
(-0.0153018 0.334723 0)
(-0.0236818 0.302083 0)
(-0.0316134 0.271781 0)
(-0.0387342 0.244207 0)
(-0.0447835 0.219396 0)
(-0.049499 0.197347 0)
(-0.0527489 0.1781 0)
(-0.0545959 0.161757 0)
(-0.0555941 0.148484 0)
(-0.0565305 0.137611 0)
(-0.0573453 0.128411 0)
(-0.0572333 0.120286 0)
(-0.0558109 0.113066 0)
(-0.0530108 0.106233 0)
(-0.0408636 0.098758 0)
(-0.0171969 0.0908277 0)
(0.00253227 0.399534 0)
(0.00957445 0.41833 0)
(0.0220765 0.433644 0)
(0.0295054 0.444766 0)
(0.0351697 0.449238 0)
(0.0388774 0.44534 0)
(0.0403034 0.431507 0)
(0.0373214 0.407931 0)
(0.0296298 0.378757 0)
(0.020249 0.346768 0)
(0.0104546 0.314647 0)
(0.000950657 0.283893 0)
(-0.00786607 0.255134 0)
(-0.0157386 0.228637 0)
(-0.0223688 0.204602 0)
(-0.0275367 0.183295 0)
(-0.0312169 0.164972 0)
(-0.0340673 0.149614 0)
(-0.0366934 0.136556 0)
(-0.0384573 0.125079 0)
(-0.0381357 0.114614 0)
(-0.0352497 0.104211 0)
(-0.0319208 0.0931552 0)
(-0.0313354 0.0813023 0)
(-0.0140132 0.0694579 0)
(0.00297434 0.375814 0)
(0.0128128 0.392699 0)
(0.0355402 0.411794 0)
(0.0484451 0.42617 0)
(0.0589834 0.433931 0)
(0.0670744 0.434346 0)
(0.0726204 0.427079 0)
(0.0734141 0.41073 0)
(0.0680663 0.386988 0)
(0.0586127 0.358934 0)
(0.0474015 0.329135 0)
(0.0360346 0.299168 0)
(0.0252433 0.269924 0)
(0.0153594 0.242049 0)
(0.00655282 0.21605 0)
(-0.00097155 0.19246 0)
(-0.00706446 0.171729 0)
(-0.011609 0.153872 0)
(-0.0147703 0.138457 0)
(-0.0166242 0.124571 0)
(-0.016665 0.111397 0)
(-0.014216 0.0983538 0)
(-0.0100715 0.0848542 0)
(-0.0154687 0.0698143 0)
(-0.00936553 0.0567323 0)
(0.00288214 0.346717 0)
(0.0137123 0.361708 0)
(0.0431234 0.380853 0)
(0.0614321 0.397993 0)
(0.0766253 0.410351 0)
(0.0890081 0.416417 0)
(0.0983461 0.41547 0)
(0.103622 0.40656 0)
(0.103256 0.390652 0)
(0.0971055 0.369556 0)
(0.0861959 0.344284 0)
(0.0723331 0.316882 0)
(0.0583849 0.28856 0)
(0.0458406 0.26023 0)
(0.0346486 0.232758 0)
(0.0247581 0.20698 0)
(0.0163148 0.183621 0)
(0.00987062 0.16311 0)
(0.00569124 0.144888 0)
(0.00301515 0.128222 0)
(0.00128364 0.112509 0)
(0.000995519 0.0975069 0)
(0.00239268 0.0825698 0)
(-0.0052123 0.0654214 0)
(-0.00430771 0.0508997 0)
(0.00253473 0.315203 0)
(0.0124646 0.327419 0)
(0.0440513 0.344042 0)
(0.0667842 0.362428 0)
(0.0858463 0.378603 0)
(0.101836 0.390125 0)
(0.114561 0.395889 0)
(0.123629 0.395432 0)
(0.127917 0.387869 0)
(0.126672 0.372567 0)
(0.119704 0.355143 0)
(0.107938 0.334059 0)
(0.0925076 0.309043 0)
(0.0762169 0.281963 0)
(0.0613752 0.254088 0)
(0.0485202 0.226754 0)
(0.0376916 0.201022 0)
(0.029112 0.17762 0)
(0.0228663 0.156576 0)
(0.0184292 0.137299 0)
(0.0148022 0.119458 0)
(0.011566 0.102955 0)
(0.0090168 0.0874788 0)
(-0.00085338 0.070281 0)
(-0.00120922 0.0542966 0)
(0.00203346 0.283991 0)
(0.00974617 0.292318 0)
(0.0394078 0.305903 0)
(0.064088 0.323587 0)
(0.0858948 0.342013 0)
(0.104547 0.358212 0)
(0.119856 0.370384 0)
(0.131375 0.3774 0)
(0.138623 0.379133 0)
(0.1411 0.374221 0)
(0.1388 0.362487 0)
(0.131878 0.347799 0)
(0.120741 0.329105 0)
(0.105326 0.305375 0)
(0.0879857 0.278945 0)
(0.0712759 0.25114 0)
(0.0568521 0.223567 0)
(0.045454 0.197459 0)
(0.0368855 0.173507 0)
(0.0302315 0.151864 0)
(0.0245891 0.13215 0)
(0.0192783 0.11441 0)
(0.0141544 0.0985046 0)
(0.00162067 0.0817405 0)
(0.000446337 0.0649743 0)
(0.00103437 0.25749 0)
(0.00600441 0.26074 0)
(0.0312744 0.269905 0)
(0.0550253 0.285206 0)
(0.0780396 0.304022 0)
(0.0986443 0.323468 0)
(0.115858 0.341183 0)
(0.129132 0.355466 0)
(0.138051 0.36527 0)
(0.142566 0.37267 0)
(0.142692 0.372366 0)
(0.139714 0.362047 0)
(0.132551 0.346549 0)
(0.122229 0.328811 0)
(0.107662 0.305151 0)
(0.0905384 0.278338 0)
(0.0733741 0.249976 0)
(0.0585194 0.221765 0)
(0.0472376 0.195036 0)
(0.0386634 0.170767 0)
(0.0312356 0.14928 0)
(0.0243522 0.130336 0)
(0.0179703 0.113843 0)
(0.00420633 0.0970191 0)
(0.001691 0.0810932 0)
(-0.00134399 0.238506 0)
(0.000610278 0.234723 0)
(0.0210328 0.23812 0)
(0.0422546 0.249536 0)
(0.0648212 0.267139 0)
(0.0864365 0.288322 0)
(0.105121 0.3105 0)
(0.119854 0.331348 0)
(0.129949 0.348812 0)
(0.135879 0.36137 0)
(0.137115 0.369644 0)
(0.135015 0.371172 0)
(0.130773 0.365387 0)
(0.12307 0.349682 0)
(0.112911 0.330776 0)
(0.0994538 0.306157 0)
(0.0835384 0.278029 0)
(0.0672697 0.248475 0)
(0.0532648 0.219501 0)
(0.0430308 0.192532 0)
(0.0348451 0.16895 0)
(0.0269454 0.148713 0)
(0.0199204 0.131521 0)
(0.00630576 0.114548 0)
(0.00279538 0.0989385 0)
(-0.00344456 0.226601 0)
(-0.00372725 0.21386 0)
(0.0120858 0.210433 0)
(0.029232 0.217337 0)
(0.0492932 0.232743 0)
(0.0702326 0.254469 0)
(0.0892957 0.279987 0)
(0.104679 0.306547 0)
(0.115642 0.33148 0)
(0.121373 0.351395 0)
(0.123259 0.365579 0)
(0.121689 0.373094 0)
(0.117866 0.373501 0)
(0.111991 0.367774 0)
(0.104105 0.352874 0)
(0.0945876 0.33176 0)
(0.082703 0.305101 0)
(0.0687593 0.275114 0)
(0.0544306 0.244352 0)
(0.0428564 0.215214 0)
(0.0344643 0.189301 0)
(0.0267465 0.167579 0)
(0.0196326 0.149612 0)
(0.00680813 0.132343 0)
(0.00311402 0.117048 0)
(-0.000856022 0.217282 0)
(-0.00129756 0.196818 0)
(0.0100136 0.187095 0)
(0.0223066 0.189977 0)
(0.0372334 0.203171 0)
(0.0543094 0.224743 0)
(0.0711624 0.252447 0)
(0.0853518 0.2836 0)
(0.0955912 0.314943 0)
(0.101105 0.343119 0)
(0.101995 0.364476 0)
(0.0998455 0.377954 0)
(0.0961281 0.384363 0)
(0.0912617 0.38205 0)
(0.0853039 0.371132 0)
(0.0784792 0.35298 0)
(0.0706369 0.328376 0)
(0.061035 0.298936 0)
(0.0496184 0.267152 0)
(0.0383932 0.236127 0)
(0.0301774 0.20828 0)
(0.0236408 0.185139 0)
(0.0172311 0.166311 0)
(0.00625591 0.148826 0)
(0.00290763 0.134007 0)
(0.00307924 0.206322 0)
(0.00381137 0.1823 0)
(0.0121499 0.168917 0)
(0.0212347 0.169288 0)
(0.030614 0.180968 0)
(0.0414037 0.202369 0)
(0.0530462 0.231452 0)
(0.0635717 0.265887 0)
(0.0711856 0.302258 0)
(0.0751342 0.336565 0)
(0.0748518 0.364261 0)
(0.0720532 0.382668 0)
(0.0686973 0.390992 0)
(0.0647126 0.391426 0)
(0.0603953 0.38433 0)
(0.0558558 0.368437 0)
(0.0511594 0.345724 0)
(0.0457386 0.317354 0)
(0.0387317 0.285457 0)
(0.0302973 0.253101 0)
(0.0233607 0.223939 0)
(0.0182215 0.199609 0)
(0.0133421 0.180019 0)
(0.00545752 0.162284 0)
(0.00255313 0.148018 0)
(0.00477528 0.191721 0)
(0.00644801 0.168982 0)
(0.0128396 0.154404 0)
(0.0200944 0.154389 0)
(0.025856 0.166032 0)
(0.0311484 0.187876 0)
(0.0364742 0.218369 0)
(0.041493 0.255205 0)
(0.0445567 0.295206 0)
(0.0448877 0.333722 0)
(0.0429914 0.36538 0)
(0.0401796 0.386726 0)
(0.0375144 0.398019 0)
(0.0347813 0.400085 0)
(0.032405 0.393462 0)
(0.0304078 0.378228 0)
(0.0285156 0.356324 0)
(0.0264471 0.328936 0)
(0.0235756 0.29749 0)
(0.0194804 0.264646 0)
(0.0152199 0.234681 0)
(0.0114077 0.209849 0)
(0.00827771 0.18977 0)
(0.00484183 0.171681 0)
(0.00257119 0.157977 0)
(0.00583966 0.174607 0)
(0.0084836 0.156588 0)
(0.0125318 0.142853 0)
(0.0169408 0.144928 0)
(0.0196904 0.157791 0)
(0.0209485 0.181021 0)
(0.0209528 0.213077 0)
(0.0200634 0.251972 0)
(0.0176624 0.294176 0)
(0.0137384 0.334867 0)
(0.0102606 0.368004 0)
(0.00793788 0.390015 0)
(0.00619869 0.401264 0)
(0.00503949 0.403111 0)
(0.00476956 0.396444 0)
(0.00531293 0.381755 0)
(0.00616301 0.360168 0)
(0.00698713 0.333242 0)
(0.00750023 0.302432 0)
(0.00754061 0.270016 0)
(0.00676335 0.239893 0)
(0.00479259 0.215024 0)
(0.00309796 0.193701 0)
(0.00451013 0.175837 0)
(0.00317064 0.163705 0)
(0.0068542 0.158576 0)
(0.011421 0.146141 0)
(0.0114715 0.138372 0)
(0.0119945 0.141968 0)
(0.0116794 0.156963 0)
(0.00944755 0.182246 0)
(0.00532435 0.216064 0)
(-0.000645731 0.256409 0)
(-0.00795373 0.299532 0)
(-0.0149163 0.339905 0)
(-0.0190344 0.371923 0)
(-0.0208586 0.392708 0)
(-0.0216619 0.40341 0)
(-0.0212214 0.404129 0)
(-0.0195616 0.395563 0)
(-0.0168922 0.379921 0)
(-0.0136965 0.357936 0)
(-0.0103496 0.330998 0)
(-0.00690631 0.300555 0)
(-0.00349625 0.268858 0)
(-0.00118961 0.239572 0)
(-0.000722503 0.21514 0)
(-0.000972789 0.19548 0)
(0.00571597 0.177791 0)
(0.0048303 0.165652 0)
(0.00739004 0.145576 0)
(0.0137354 0.143365 0)
(0.00987312 0.139819 0)
(0.00605525 0.145485 0)
(0.00290309 0.163086 0)
(-0.00231285 0.190744 0)
(-0.0100463 0.226396 0)
(-0.0202829 0.267538 0)
(-0.0311627 0.309861 0)
(-0.0392283 0.347778 0)
(-0.0430509 0.376514 0)
(-0.0443464 0.394382 0)
(-0.0441406 0.401746 0)
(-0.0423241 0.400225 0)
(-0.0391435 0.390557 0)
(-0.0348856 0.373558 0)
(-0.0300244 0.350726 0)
(-0.0247235 0.323364 0)
(-0.0187749 0.293053 0)
(-0.0126134 0.262206 0)
(-0.00812878 0.233986 0)
(-0.00556367 0.21029 0)
(-0.0022924 0.192086 0)
(0.00847798 0.176655 0)
(0.00707649 0.166963 0)
(0.00685104 0.14174 0)
(0.0134428 0.145224 0)
(0.00584634 0.144269 0)
(-0.000240623 0.154308 0)
(-0.00572849 0.174999 0)
(-0.0137852 0.204928 0)
(-0.0250221 0.242017 0)
(-0.0384321 0.282895 0)
(-0.0502394 0.322836 0)
(-0.0572521 0.356787 0)
(-0.0601035 0.38121 0)
(-0.0607055 0.394937 0)
(-0.059728 0.399142 0)
(-0.057114 0.394904 0)
(-0.0530755 0.382866 0)
(-0.0479793 0.364199 0)
(-0.0421345 0.340147 0)
(-0.0354044 0.312065 0)
(-0.027603 0.281804 0)
(-0.0199221 0.251788 0)
(-0.0143432 0.224508 0)
(-0.0100036 0.201447 0)
(-0.00370848 0.182224 0)
(0.00810184 0.170204 0)
(0.00615862 0.164869 0)
(0.00537916 0.144522 0)
(0.00978892 0.149974 0)
(-0.000347294 0.155063 0)
(-0.00639904 0.167937 0)
(-0.0139027 0.191009 0)
(-0.0248895 0.22293 0)
(-0.0388506 0.260637 0)
(-0.0526952 0.300053 0)
(-0.0625223 0.336315 0)
(-0.0675816 0.364821 0)
(-0.0697272 0.382982 0)
(-0.069961 0.392896 0)
(-0.0685035 0.394962 0)
(-0.0653818 0.38807 0)
(-0.06109 0.373723 0)
(-0.0557235 0.353202 0)
(-0.0493449 0.327733 0)
(-0.0416514 0.298885 0)
(-0.0329959 0.268763 0)
(-0.0251982 0.23956 0)
(-0.0193978 0.213222 0)
(-0.0137291 0.190822 0)
(-0.00616806 0.172915 0)
(0.00298842 0.161823 0)
(0.00182427 0.159812 0)
(0.00178901 0.150803 0)
(0.0032933 0.160047 0)
(-0.00697474 0.168459 0)
(-0.0125776 0.183546 0)
(-0.0218507 0.208995 0)
(-0.0351297 0.242286 0)
(-0.0492515 0.279627 0)
(-0.0604036 0.316482 0)
(-0.0669309 0.348271 0)
(-0.0701201 0.37225 0)
(-0.0715281 0.387391 0)
(-0.0715298 0.392817 0)
(-0.0701651 0.390271 0)
(-0.0672608 0.380728 0)
(-0.0629557 0.363999 0)
(-0.0576379 0.341536 0)
(-0.0509608 0.314647 0)
(-0.042895 0.28519 0)
(-0.0345187 0.255321 0)
(-0.027465 0.226909 0)
(-0.0216672 0.201417 0)
(-0.0151917 0.179774 0)
(-0.00825547 0.163308 0)
(-0.00083769 0.154239 0)
(-0.000854046 0.154522 0)
(-0.000318413 0.161971 0)
(-0.00128412 0.173151 0)
(-0.0123243 0.183009 0)
(-0.0183038 0.19992 0)
(-0.0290615 0.227158 0)
(-0.0425908 0.260984 0)
(-0.0540146 0.296939 0)
(-0.0613965 0.330253 0)
(-0.065363 0.357278 0)
(-0.0674035 0.376459 0)
(-0.0678543 0.389845 0)
(-0.0672788 0.393822 0)
(-0.0657449 0.387022 0)
(-0.0626609 0.373234 0)
(-0.0587266 0.354256 0)
(-0.0535868 0.329905 0)
(-0.0469666 0.301769 0)
(-0.0393898 0.271916 0)
(-0.0322912 0.24238 0)
(-0.0264389 0.214671 0)
(-0.0208637 0.189819 0)
(-0.0144902 0.168846 0)
(-0.0088401 0.153263 0)
(-0.00284387 0.145645 0)
(-0.00171093 0.146514 0)
(-0.000560674 0.174453 0)
(-0.00290432 0.186554 0)
(-0.0152941 0.197513 0)
(-0.022218 0.215877 0)
(-0.0333235 0.244176 0)
(-0.0445279 0.277662 0)
(-0.0520697 0.311239 0)
(-0.0563281 0.340743 0)
(-0.0586174 0.363941 0)
(-0.059638 0.380194 0)
(-0.0596698 0.38725 0)
(-0.0585385 0.387082 0)
(-0.0560223 0.379832 0)
(-0.0530265 0.365745 0)
(-0.049414 0.344846 0)
(-0.0445636 0.31893 0)
(-0.0384757 0.289881 0)
(-0.0321496 0.259892 0)
(-0.0267918 0.230786 0)
(-0.0223149 0.203721 0)
(-0.0175343 0.179456 0)
(-0.0122002 0.159127 0)
(-0.00776598 0.144652 0)
(-0.00445559 0.137948 0)
(-0.00265534 0.137267 0)
(-0.000878846 0.187311 0)
(-0.0031021 0.199388 0)
(-0.0149328 0.211471 0)
(-0.0228872 0.230534 0)
(-0.0328397 0.258966 0)
(-0.0405217 0.290989 0)
(-0.0447019 0.321514 0)
(-0.0467372 0.347509 0)
(-0.0475436 0.367599 0)
(-0.047324 0.380588 0)
(-0.0464363 0.385352 0)
(-0.0449715 0.383257 0)
(-0.042854 0.374642 0)
(-0.0402195 0.358523 0)
(-0.0368864 0.336072 0)
(-0.0324445 0.308975 0)
(-0.027284 0.279364 0)
(-0.0224903 0.249464 0)
(-0.0185719 0.220861 0)
(-0.0151047 0.194484 0)
(-0.0114088 0.170952 0)
(-0.00731227 0.151685 0)
(-0.0040103 0.138621 0)
(-0.00678701 0.132546 0)
(-0.00527035 0.12853 0)
(-0.00134777 0.199546 0)
(-0.0025414 0.212114 0)
(-0.0125587 0.224595 0)
(-0.0208823 0.243422 0)
(-0.02847 0.270849 0)
(-0.0327405 0.300444 0)
(-0.0345684 0.327843 0)
(-0.0350465 0.350844 0)
(-0.034587 0.368302 0)
(-0.0333695 0.379269 0)
(-0.0318181 0.383125 0)
(-0.030013 0.379825 0)
(-0.0278933 0.369103 0)
(-0.0254654 0.351539 0)
(-0.0225915 0.32806 0)
(-0.0190748 0.300206 0)
(-0.0152879 0.270277 0)
(-0.0118518 0.240564 0)
(-0.00886043 0.21255 0)
(-0.00613387 0.186851 0)
(-0.00343464 0.164137 0)
(6.45293e-05 0.145198 0)
(0.000892223 0.134596 0)
(-0.0101614 0.126997 0)
(-0.00837014 0.120667 0)
(-0.000952754 0.209727 0)
(-0.00103366 0.222668 0)
(-0.0107163 0.235916 0)
(-0.0189523 0.25337 0)
(-0.0227715 0.279027 0)
(-0.0240923 0.305948 0)
(-0.0241847 0.330572 0)
(-0.0233508 0.351258 0)
(-0.0217835 0.366858 0)
(-0.0197378 0.376358 0)
(-0.0175464 0.379164 0)
(-0.015309 0.374951 0)
(-0.0130766 0.363409 0)
(-0.0108376 0.345189 0)
(-0.00859124 0.321152 0)
(-0.00631118 0.292954 0)
(-0.00405014 0.263045 0)
(-0.00187861 0.233693 0)
(0.000143199 0.20623 0)
(0.00191281 0.181297 0)
(0.00340548 0.159519 0)
(0.00595704 0.143581 0)
(0.000919654 0.133687 0)
(-0.0128577 0.124534 0)
(-0.00804963 0.114116 0)
(-0.000588988 0.216641 0)
(0.000268953 0.229438 0)
(-0.00858674 0.24284 0)
(-0.0158472 0.259593 0)
(-0.0163008 0.283045 0)
(-0.0157396 0.307496 0)
(-0.014558 0.330046 0)
(-0.0126456 0.349044 0)
(-0.0102035 0.363329 0)
(-0.00750335 0.371909 0)
(-0.00482046 0.374132 0)
(-0.00228319 0.369613 0)
(-4.26729e-05 0.358048 0)
(0.00186275 0.339858 0)
(0.0034076 0.315949 0)
(0.00454076 0.288016 0)
(0.0053518 0.258522 0)
(0.00604965 0.229741 0)
(0.00666738 0.203048 0)
(0.00698698 0.179166 0)
(0.00642815 0.159068 0)
(0.00514021 0.144549 0)
(-0.000231212 0.13509 0)
(-0.0107034 0.125615 0)
(-0.00544723 0.112679 0)
(-0.000693792 0.221448 0)
(-0.000529072 0.23433 0)
(-0.00581002 0.247269 0)
(-0.00942875 0.262979 0)
(-0.0088092 0.284037 0)
(-0.00743986 0.306471 0)
(-0.00559201 0.327383 0)
(-0.00312373 0.345099 0)
(-0.000234897 0.358461 0)
(0.00279563 0.366556 0)
(0.00573823 0.368739 0)
(0.00842201 0.36447 0)
(0.0106106 0.353324 0)
(0.0121885 0.33577 0)
(0.013142 0.31266 0)
(0.0133042 0.285586 0)
(0.0128193 0.256934 0)
(0.0121243 0.229 0)
(0.0113751 0.203275 0)
(0.0103427 0.180546 0)
(0.00818563 0.161639 0)
(0.00411885 0.14716 0)
(0.000964236 0.138736 0)
(-0.00597321 0.127726 0)
(-0.00346022 0.114654 0)
(-0.000567279 0.224118 0)
(-0.000835555 0.236895 0)
(-0.00309994 0.249169 0)
(-0.00388876 0.263947 0)
(-0.00258053 0.283103 0)
(-0.000543902 0.303951 0)
(0.00167934 0.323564 0)
(0.00440925 0.340276 0)
(0.00748465 0.353022 0)
(0.0106475 0.360931 0)
(0.0137149 0.363267 0)
(0.0164589 0.359477 0)
(0.0186164 0.34916 0)
(0.020011 0.332715 0)
(0.0205943 0.310848 0)
(0.0201314 0.285077 0)
(0.0187613 0.257568 0)
(0.0170335 0.230616 0)
(0.0152792 0.205833 0)
(0.0133555 0.184107 0)
(0.0106445 0.165889 0)
(0.00615621 0.152535 0)
(0.0032153 0.144044 0)
(-0.00312283 0.131919 0)
(-0.00180252 0.117568 0)
(-6.23916e-05 0.224843 0)
(-0.00016397 0.236966 0)
(-0.000775132 0.251763 0)
(-0.000584883 0.26311 0)
(0.00159715 0.28064 0)
(0.00425749 0.300224 0)
(0.00677973 0.31887 0)
(0.00961625 0.334859 0)
(0.0127344 0.347181 0)
(0.0159214 0.355027 0)
(0.0190253 0.35772 0)
(0.0217785 0.354661 0)
(0.0239556 0.345435 0)
(0.0252918 0.330386 0)
(0.0257587 0.310218 0)
(0.0250532 0.285892 0)
(0.0231665 0.259713 0)
(0.0207097 0.233792 0)
(0.0181908 0.209843 0)
(0.0156127 0.18888 0)
(0.0125818 0.171467 0)
(0.00837429 0.158037 0)
(0.0053334 0.149362 0)
(-0.00132224 0.137176 0)
(-0.000803602 0.122175 0)
(0.0003508 0.225938 0)
(0.000643311 0.237709 0)
(0.00078334 0.249802 0)
(0.00192309 0.26074 0)
(0.00429142 0.277138 0)
(0.00725561 0.29579 0)
(0.00988968 0.313718 0)
(0.0127006 0.329181 0)
(0.015752 0.34122 0)
(0.0188824 0.349098 0)
(0.021957 0.35226 0)
(0.024744 0.350015 0)
(0.0269888 0.341987 0)
(0.0283781 0.328467 0)
(0.0288633 0.309006 0)
(0.0281661 0.287468 0)
(0.0261261 0.26282 0)
(0.0232867 0.238032 0)
(0.0202598 0.214904 0)
(0.017236 0.194581 0)
(0.0139932 0.177687 0)
(0.0100205 0.164659 0)
(0.00691078 0.155688 0)
(-0.000473963 0.142852 0)
(-0.000412589 0.128222 0)
(0.000774539 0.224286 0)
(0.00152719 0.236928 0)
(0.00236976 0.245883 0)
(0.00313538 0.257985 0)
(0.00534561 0.27345 0)
(0.00827929 0.291231 0)
(0.0109486 0.308476 0)
(0.0137549 0.323459 0)
(0.0167622 0.335248 0)
(0.0198686 0.343171 0)
(0.0229328 0.346605 0)
(0.0257958 0.345143 0)
(0.028151 0.338497 0)
(0.0297356 0.326582 0)
(0.0302871 0.309329 0)
(0.0295433 0.289231 0)
(0.0277597 0.266314 0)
(0.0248786 0.242788 0)
(0.0216064 0.220541 0)
(0.0183245 0.200834 0)
(0.0149246 0.18439 0)
(0.0110496 0.171601 0)
(0.0078712 0.16214 0)
(-0.000188731 0.149973 0)
(-0.000353206 0.135303 0)
(0.000932813 0.219812 0)
(0.00179724 0.231711 0)
(0.00257897 0.247089 0)
(0.00356036 0.25521 0)
(0.00533863 0.269802 0)
(0.00777806 0.286692 0)
(0.010394 0.303233 0)
(0.0132134 0.317723 0)
(0.0162004 0.329252 0)
(0.0192982 0.337202 0)
(0.0223678 0.340973 0)
(0.0252449 0.340279 0)
(0.0276826 0.334867 0)
(0.0294672 0.324528 0)
(0.0303224 0.311803 0)
(0.0299678 0.290223 0)
(0.0284896 0.269758 0)
(0.0258085 0.247659 0)
(0.0224777 0.226404 0)
(0.0190424 0.207357 0)
(0.0155471 0.191342 0)
(0.0116615 0.178782 0)
(0.00839839 0.169584 0)
(-0.00016364 0.157037 0)
(-0.000469058 0.143155 0)
(0.000854015 0.21971 0)
(0.00134626 0.231129 0)
(0.00211427 0.241871 0)
(0.00324782 0.252046 0)
(0.00448166 0.266197 0)
(0.00628821 0.282345 0)
(0.00875463 0.298139 0)
(0.0115827 0.312074 0)
(0.0145665 0.323296 0)
(0.0176624 0.331226 0)
(0.0207507 0.335384 0)
(0.0236705 0.335425 0)
(0.0262281 0.331049 0)
(0.0280812 0.322174 0)
(0.0295345 0.308686 0)
(0.0296373 0.292742 0)
(0.0285756 0.273071 0)
(0.0262064 0.252482 0)
(0.0229581 0.232338 0)
(0.0194233 0.214027 0)
(0.0158447 0.198473 0)
(0.0119014 0.186189 0)
(0.00856323 0.176713 0)
(-0.000283459 0.164974 0)
(-0.000637756 0.151235 0)
(0.000672893 0.220355 0)
(0.00132462 0.23171 0)
(0.00164498 0.239506 0)
(0.00230953 0.250171 0)
(0.00306743 0.263137 0)
(0.00439122 0.278324 0)
(0.00669327 0.293247 0)
(0.00950129 0.306529 0)
(0.0124776 0.317364 0)
(0.0155847 0.325201 0)
(0.0187279 0.329606 0)
(0.0217563 0.330267 0)
(0.024482 0.326885 0)
(0.0266633 0.3194 0)
(0.0278933 0.306576 0)
(0.028444 0.293393 0)
(0.0277033 0.27581 0)
(0.0258715 0.256903 0)
(0.0229142 0.238035 0)
(0.0194085 0.220584 0)
(0.0158026 0.205554 0)
(0.0118351 0.193541 0)
(0.00851102 0.184451 0)
(-0.000439856 0.17241 0)
(-0.000851512 0.159487 0)
(0.000425732 0.21679 0)
(0.0011513 0.22799 0)
(0.00124691 0.240961 0)
(0.00162713 0.247377 0)
(0.00159926 0.260717 0)
(0.00242739 0.274802 0)
(0.00463278 0.288719 0)
(0.00735105 0.30123 0)
(0.0102454 0.311571 0)
(0.0133004 0.319209 0)
(0.0164325 0.32375 0)
(0.0194894 0.324892 0)
(0.0223057 0.322412 0)
(0.0246709 0.316257 0)
(0.0262612 0.308841 0)
(0.0269088 0.294736 0)
(0.0266753 0.277963 0)
(0.0252954 0.260759 0)
(0.0226771 0.243295 0)
(0.0192467 0.226847 0)
(0.0155779 0.212457 0)
(0.0115395 0.200803 0)
(0.00824367 0.191484 0)
(-0.000617633 0.180264 0)
(-0.00103412 0.16754 0)
(0.000362251 0.215993 0)
(0.000601617 0.226586 0)
(0.000701671 0.237345 0)
(0.000566186 0.246701 0)
(-0.000459944 0.258669 0)
(0.000152603 0.271689 0)
(0.00247145 0.284557 0)
(0.00512138 0.29625 0)
(0.00793703 0.306036 0)
(0.0109225 0.313424 0)
(0.0140007 0.318036 0)
(0.0170102 0.319557 0)
(0.0198166 0.317835 0)
(0.0221464 0.312808 0)
(0.0243215 0.305183 0)
(0.0256347 0.292822 0)
(0.025682 0.279516 0)