/*--------------------------------*- C++ -*----------------------------------*\
| =========                 |                                                 |
| \\      /  F ield         | OpenFOAM: The Open Source CFD Toolbox           |
|  \\    /   O peration     | Version:  2.3.0                                 |
|   \\  /    A nd           | Web:      www.OpenFOAM.org                      |
|    \\/     M anipulation  |                                                 |
\*---------------------------------------------------------------------------*/
FoamFile
{
    version     2.0;
    format      ascii;
    class       volScalarField;
    location    "62";
    object      epsilon.water;
}
// * * * * * * * * * * * * * * * * * * * * * * * * * * * * * * * * * * * * * //

dimensions      [0 2 -3 0 0 0 0];

internalField   nonuniform List<scalar> 
1875
(
0.279561
0.290011
0.297574
0.304974
0.313187
0.322636
0.333294
0.344692
0.35653
0.368493
0.379571
0.389304
0.396731
0.400217
0.399077
0.393664
0.380912
0.358135
0.326223
0.288186
0.248924
0.212989
0.183793
0.164301
0.164823
0.462892
0.409484
0.377204
0.357078
0.343996
0.335023
0.32872
0.324786
0.323207
0.32374
0.326236
0.331601
0.339982
0.351266
0.364722
0.378394
0.387057
0.390522
0.387372
0.376633
0.358482
0.338727
0.325186
0.326731
0.364361
0.417512
0.365781
0.336287
0.319243
0.309195
0.303196
0.299781
0.29826
0.298244
0.299195
0.301527
0.305482
0.311448
0.320071
0.33149
0.345252
0.359559
0.368994
0.371953
0.367781
0.35629
0.342773
0.335252
0.338507
0.362295
0.336439
0.297738
0.28377
0.278108
0.27606
0.276221
0.277764
0.280492
0.283996
0.288278
0.293541
0.29993
0.307434
0.316397
0.327066
0.339168
0.351059
0.359525
0.363256
0.360575
0.351667
0.340992
0.336359
0.344702
0.374683
0.279423
0.268636
0.266645
0.266212
0.267251
0.269648
0.273082
0.277165
0.28174
0.286967
0.293094
0.300139
0.308085
0.317039
0.326841
0.336736
0.345821
0.351971
0.353596
0.350059
0.342822
0.336136
0.335404
0.346617
0.376248
0.270742
0.26771
0.270993
0.273471
0.276701
0.280129
0.283422
0.286791
0.290497
0.294819
0.299913
0.305937
0.3129
0.320627
0.328763
0.336871
0.343435
0.347145
0.347937
0.344931
0.339411
0.335455
0.336298
0.346607
0.372423
0.275934
0.282292
0.290832
0.296099
0.300138
0.30194
0.302229
0.302224
0.302953
0.304871
0.308182
0.312791
0.318603
0.325399
0.33284
0.339808
0.345281
0.34762
0.347206
0.343465
0.338327
0.335128
0.335818
0.343945
0.365025
0.279974
0.299076
0.314437
0.322331
0.325013
0.322817
0.318126
0.313831
0.311823
0.311677
0.314399
0.319615
0.3265
0.333841
0.340825
0.346113
0.348389
0.348358
0.345424
0.340443
0.335194
0.332135
0.332599
0.340503
0.361345
0.290758
0.317077
0.334595
0.34088
0.339891
0.332995
0.324613
0.318625
0.316378
0.317486
0.322453
0.328757
0.33512
0.341346
0.345336
0.346965
0.346778
0.343949
0.338895
0.332952
0.32759
0.324669
0.32566
0.334884
0.356842
0.303199
0.328028
0.344678
0.348845
0.345306
0.33703
0.329494
0.326313
0.326524
0.329101
0.331159
0.334038
0.337643
0.34007
0.341163
0.3405
0.337604
0.33308
0.327793
0.322568
0.318368
0.31654
0.319018
0.329978
0.353797
0.301607
0.32785
0.345081
0.349094
0.345759
0.338198
0.330834
0.326527
0.324958
0.325225
0.327027
0.329012
0.330171
0.330395
0.329263
0.327083
0.32414
0.320731
0.317227
0.314092
0.312256
0.312478
0.316935
0.329299
0.354364
0.298781
0.324451
0.341475
0.346645
0.344799
0.338655
0.332105
0.327323
0.324263
0.322126
0.321002
0.320054
0.3187
0.317119
0.315443
0.313819
0.312353
0.311137
0.310332
0.31014
0.31108
0.314075
0.320981
0.335828
0.364319
0.316671
0.33114
0.341691
0.344947
0.343394
0.338516
0.332886
0.327849
0.323124
0.318758
0.314828
0.311311
0.308341
0.306113
0.304761
0.304226
0.304317
0.305106
0.306621
0.309065
0.312956
0.319353
0.330468
0.351505
0.390761
0.335786
0.339876
0.343383
0.344129
0.342309
0.33836
0.333609
0.328355
0.322382
0.316306
0.310582
0.305683
0.301963
0.299554
0.298466
0.298337
0.299168
0.30095
0.303853
0.30826
0.314881
0.324922
0.340963
0.368957
0.412916
0.348745
0.346242
0.344885
0.34345
0.341307
0.338104
0.334143
0.328941
0.322481
0.315632
0.309104
0.303561
0.299345
0.29646
0.294917
0.294525
0.295304
0.297414
0.301159
0.307061
0.315813
0.329052
0.349462
0.382159
0.422937
0.350713
0.346912
0.344635
0.342557
0.34041
0.337608
0.334294
0.329565
0.323192
0.316247
0.309545
0.303656
0.298873
0.295369
0.293191
0.292358
0.29293
0.29519
0.29936
0.305881
0.315821
0.330692
0.353449
0.387921
0.433761
0.352892
0.348218
0.344614
0.341587
0.33902
0.336455
0.33378
0.329919
0.324212
0.317527
0.310789
0.304703
0.299632
0.295672
0.292878
0.29149
0.291568
0.293676
0.298099
0.305154
0.315301
0.329395
0.349602
0.379312
0.427466
0.353675
0.348857
0.345133
0.341895
0.3392
0.336385
0.333356
0.329931
0.325121
0.319137
0.312812
0.306863
0.301679
0.297375
0.293994
0.291744
0.291005
0.292288
0.296255
0.302797
0.3112
0.321892
0.336513
0.357971
0.400712
0.34809
0.346076
0.345032
0.342807
0.34
0.336976
0.333744
0.330313
0.326408
0.321485
0.315915
0.310331
0.305185
0.30065
0.296778
0.29371
0.291861
0.291839
0.294355
0.298657
0.30416
0.310989
0.319873
0.331329
0.355735
0.342349
0.342094
0.344325
0.344221
0.342225
0.338863
0.335221
0.331507
0.327916
0.324328
0.32011
0.3154
0.310545
0.305877
0.301578
0.297792
0.294841
0.293306
0.293905
0.296372
0.299968
0.304737
0.311401
0.318407
0.328247
0.340676
0.339977
0.343458
0.345621
0.345114
0.342526
0.338512
0.334408
0.330448
0.327142
0.324603
0.32151
0.317537
0.313052
0.308466
0.304057
0.300126
0.297163
0.295867
0.296486
0.298808
0.302806
0.3095
0.317358
0.326062
0.338163
0.336769
0.340745
0.345001
0.346678
0.345603
0.342426
0.338103
0.334155
0.330404
0.327872
0.326305
0.324179
0.320985
0.316862
0.312226
0.307535
0.303328
0.300371
0.299207
0.300128
0.303421
0.310411
0.320479
0.329685
0.340943
0.33562
0.337329
0.342066
0.345726
0.346501
0.344896
0.341304
0.336862
0.332986
0.32991
0.328518
0.328266
0.327432
0.325159
0.32129
0.316413
0.311262
0.306817
0.304027
0.303494
0.305803
0.312304
0.323152
0.333862
0.363327
0.341891
0.335337
0.337181
0.341551
0.344437
0.344564
0.342839
0.339787
0.337355
0.334653
0.332236
0.331524
0.331889
0.331622
0.329641
0.325466
0.319884
0.314104
0.309751
0.307679
0.308736
0.314072
0.323436
0.333202
0.381017
0.345369
0.330348
0.328461
0.332415
0.33761
0.340784
0.341201
0.339882
0.33781
0.336211
0.334916
0.334297
0.334934
0.336075
0.33583
0.333244
0.327923
0.321206
0.315227
0.311677
0.311524
0.315797
0.322189
0.328809
0.383531
0.34378
0.323927
0.318188
0.320813
0.32705
0.333008
0.336607
0.337581
0.336704
0.335154
0.334854
0.335601
0.337213
0.339106
0.340039
0.338674
0.334153
0.326992
0.319544
0.314592
0.313248
0.316722
0.320138
0.3234
0.389602
0.3443
0.319872
0.31072
0.311199
0.316916
0.324505
0.330648
0.334162
0.335506
0.335339
0.335662
0.336858
0.338721
0.340945
0.342417
0.341729
0.337866
0.33065
0.322195
0.316029
0.313534
0.31572
0.317105
0.317811
0.392649
0.344745
0.317607
0.306547
0.305408
0.310339
0.318388
0.326035
0.331345
0.334177
0.334927
0.335512
0.337031
0.339519
0.341979
0.343448
0.342847
0.339216
0.33213
0.323318
0.316352
0.313043
0.314071
0.314103
0.312864
0.391959
0.344504
0.316439
0.304829
0.303291
0.308044
0.316176
0.32437
0.330346
0.333631
0.334784
0.335758
0.337432
0.339726
0.34198
0.343252
0.342447
0.33872
0.331762
0.323007
0.315826
0.312224
0.31263
0.311522
0.308704
0.384171
0.342149
0.315904
0.304854
0.303733
0.308965
0.317219
0.325225
0.330856
0.333755
0.334794
0.335753
0.337337
0.339431
0.34138
0.342237
0.341049
0.337063
0.330181
0.321671
0.314709
0.311174
0.311223
0.309367
0.30536
0.372854
0.339523
0.316764
0.306655
0.306297
0.312049
0.320146
0.327443
0.332144
0.334199
0.334908
0.335668
0.336978
0.338633
0.340035
0.340361
0.338763
0.3346
0.32785
0.319783
0.313374
0.310177
0.310117
0.307882
0.303291
0.359692
0.335343
0.3176
0.309165
0.309864
0.316119
0.323784
0.329987
0.333453
0.33462
0.334891
0.335407
0.336336
0.337435
0.338247
0.338067
0.336118
0.331858
0.325332
0.317858
0.312163
0.309554
0.30968
0.307144
0.301879
0.342233
0.328176
0.317033
0.311195
0.313193
0.319752
0.326656
0.331493
0.333568
0.334049
0.334338
0.334608
0.335167
0.335847
0.3362
0.335612
0.333402
0.329107
0.322871
0.316103
0.311305
0.309604
0.310496
0.309022
0.304847
0.329697
0.322614
0.316345
0.312828
0.315785
0.322243
0.328311
0.332165
0.333672
0.333828
0.33359
0.333508
0.333741
0.334078
0.334092
0.333208
0.330824
0.32654
0.320618
0.314549
0.310591
0.309716
0.311125
0.310641
0.307728
0.323481
0.319153
0.31566
0.313792
0.31722
0.323309
0.328688
0.332094
0.333666
0.33377
0.33291
0.332489
0.332396
0.332417
0.332153
0.331057
0.328558
0.324314
0.318706
0.313285
0.310049
0.309811
0.311593
0.311221
0.308651
0.317095
0.315219
0.313965
0.313594
0.317296
0.322984
0.327826
0.330802
0.332056
0.332165
0.331615
0.33124
0.331057
0.330933
0.330512
0.329282
0.326711
0.322533
0.317248
0.312438
0.309875
0.310264
0.312634
0.313266
0.311979
0.309532
0.310176
0.311012
0.312083
0.316103
0.321546
0.325983
0.328604
0.32959
0.329793
0.32991
0.329842
0.329783
0.329664
0.329184
0.327875
0.325262
0.321169
0.316208
0.311953
0.30998
0.310887
0.31373
0.314951
0.314268
0.301383
0.304406
0.307159
0.309603
0.31411
0.319549
0.323904
0.326613
0.327915
0.328391
0.328564
0.328655
0.328704
0.328623
0.328121
0.326762
0.32413
0.320148
0.315518
0.311765
0.310269
0.31153
0.314856
0.317135
0.317736
0.293138
0.298324
0.302858
0.306634
0.311798
0.317386
0.321789
0.324651
0.326234
0.327028
0.327458
0.327718
0.32784
0.327785
0.327262
0.32586
0.323225
0.319388
0.315119
0.311871
0.310895
0.312684
0.316374
0.319206
0.321485
0.285336
0.292515
0.298659
0.303685
0.309536
0.315304
0.319781
0.322784
0.324574
0.325557
0.326234
0.326709
0.327017
0.327031
0.326499
0.325057
0.322433
0.318759
0.314832
0.311983
0.311354
0.313474
0.316973
0.319266
0.320401
0.279197
0.287851
0.295164
0.30119
0.307585
0.313457
0.317977
0.321106
0.323087
0.32429
0.325288
0.325926
0.326303
0.326332
0.325765
0.324277
0.321676
0.318182
0.314567
0.311988
0.311435
0.313333
0.316878
0.319743
0.321038
0.275546
0.284788
0.292685
0.299319
0.30602
0.311893
0.316436
0.319736
0.322049
0.32368
0.32454
0.325207
0.325603
0.325617
0.325006
0.323484
0.32094
0.317665
0.314396
0.312117
0.311698
0.31366
0.317354
0.32078
0.323683
0.27313
0.282613
0.290853
0.29784
0.304657
0.31045
0.314961
0.318332
0.320797
0.322594
0.323599
0.324374
0.324821
0.324836
0.324194
0.322659
0.3202
0.317166
0.314252
0.31229
0.312075
0.314183
0.317697
0.320486
0.322657
0.271033
0.280689
0.289214
0.296451
0.303283
0.308978
0.313436
0.316802
0.319239
0.320974
0.322421
0.323387
0.323927
0.323968
0.323313
0.321785
0.319427
0.316622
0.314013
0.312292
0.312108
0.313936
0.317128
0.319831
0.321717
0.268993
0.2788
0.287564
0.295001
0.301812
0.307446
0.311917
0.31536
0.317942
0.31986
0.321333
0.322384
0.322977
0.323031
0.322365
0.320854
0.318609
0.316028
0.313674
0.312151
0.312013
0.313744
0.31673
0.319212
0.320917
0.267035
0.276963
0.285922
0.293489
0.300257
0.305868
0.310385
0.31392
0.316627
0.318683
0.320243
0.321364
0.321994
0.322051
0.321372
0.319883
0.317737
0.315289
0.313257
0.311963
0.312007
0.313687
0.316464
0.318663
0.319899
0.265224
0.275232
0.284326
0.291955
0.298676
0.30429
0.308865
0.312493
0.315318
0.317498
0.319157
0.320342
0.321006
0.321071
0.320379
0.318917
0.316852
0.314797
0.312963
0.311835
0.312024
0.31372
0.316316
0.3183
0.319494
0.263677
0.273695
0.28284
0.290461
0.297102
0.302748
0.307388
0.311105
0.314036
0.316327
0.318079
0.319315
0.319974
0.31996
0.319406
0.318128
0.316384
0.314619
0.312805
0.311759
0.312047
0.313742
0.316123
0.318035
0.319183
0.262441
0.272395
0.281516
0.289091
0.295655
0.301318
0.306006
0.309799
0.312826
0.31522
0.317063
0.318369
0.319079
0.319135
0.31852
0.317249
0.31582
0.31396
0.312434
0.311603
0.312028
0.313746
0.316031
0.317846
0.318943
0.261477
0.271313
0.280352
0.287917
0.294591
0.300129
0.304797
0.308626
0.311723
0.314196
0.316114
0.317495
0.318306
0.318536
0.317792
0.316517
0.31495
0.313341
0.312075
0.311452
0.312
0.313776
0.315954
0.317693
0.318731
0.260345
0.270253
0.279258
0.286768
0.293348
0.298974
0.303695
0.307578
0.31073
0.313245
0.315176
0.316517
0.317164
0.317301
0.316792
0.315958
0.314496
0.313178
0.311916
0.311377
0.311973
0.313694
0.315766
0.317397
0.318381
0.259476
0.269617
0.278803
0.286255
0.292577
0.298144
0.302842
0.306732
0.309905
0.312436
0.314358
0.315636
0.316422
0.316497
0.316107
0.315212
0.314093
0.312711
0.311615
0.31124
0.311882
0.313503
0.315447
0.316954
0.317838
0.261172
0.270247
0.278836
0.286044
0.292422
0.297755
0.302333
0.30617
0.309332
0.311891
0.313889
0.31534
0.316273
0.316408
0.315881
0.314728
0.313521
0.312261
0.311323
0.311099
0.311759
0.313221
0.314966
0.316302
0.317039
0.260674
0.270168
0.278833
0.285965
0.292172
0.297543
0.302084
0.305873
0.308997
0.311528
0.313508
0.314963
0.315491
0.315506
0.315072
0.314324
0.31313
0.311947
0.311127
0.31098
0.311585
0.312833
0.314335
0.31543
0.31595
0.261927
0.271542
0.28015
0.287054
0.292829
0.297935
0.302284
0.305925
0.308919
0.311313
0.313118
0.314295
0.314858
0.314908
0.314527
0.313839
0.312816
0.311743
0.310965
0.310819
0.31129
0.312276
0.313493
0.314287
0.314536
0.267277
0.274982
0.282447
0.288785
0.294359
0.298996
0.303005
0.306395
0.309204
0.31146
0.313172
0.31433
0.315139
0.315249
0.314787
0.313841
0.312776
0.311697
0.310876
0.31064
0.310887
0.311575
0.31245
0.312894
0.312805
0.269206
0.277272
0.284735
0.29088
0.296039
0.300445
0.30419
0.307332
0.309923
0.312003
0.313597
0.314737
0.315113
0.315054
0.314587
0.313801
0.31281
0.311745
0.31092
0.310543
0.31052
0.310862
0.311339
0.311326
0.310784
0.27401
0.281745
0.288765
0.294426
0.298855
0.302728
0.306031
0.308828
0.311136
0.31297
0.314323
0.315173
0.315548
0.315495
0.315057
0.314332
0.313321
0.312274
0.311361
0.310764
0.310433
0.310367
0.310352
0.30976
0.308601
0.283599
0.288582
0.29392
0.298628
0.302605
0.305769
0.308599
0.311017
0.31303
0.31464
0.315842
0.316633
0.317215
0.317215
0.316712
0.315771
0.31468
0.31354
0.312511
0.311664
0.310999
0.310487
0.309933
0.308649
0.306689
0.289313
0.294116
0.299001
0.303179
0.306658
0.309521
0.311962
0.314073
0.31584
0.317272
0.31837
0.31916
0.319355
0.31923
0.31877
0.318027
0.317039
0.315945
0.314832
0.313762
0.312768
0.311816
0.310709
0.308731
0.305972
0.297052
0.301393
0.30576
0.309408
0.312262
0.314775
0.316776
0.318526
0.320039
0.321288
0.322226
0.322818
0.323091
0.323071
0.322753
0.322197
0.321322
0.320253
0.319061
0.317782
0.316471
0.315082
0.313431
0.310834
0.307483
0.308997
0.310859
0.313998
0.317037
0.319665
0.321729
0.323473
0.325023
0.326403
0.327576
0.328531
0.329256
0.329908
0.330128
0.329932
0.329328
0.328548
0.327539
0.326289
0.324793
0.323103
0.321143
0.318724
0.315267
0.311163
0.315419
0.318889
0.322906
0.326473
0.329431
0.331709
0.333647
0.335254
0.336615
0.337797
0.338813
0.339716
0.340292
0.34066
0.34078
0.340623
0.34019
0.339429
0.338266
0.336624
0.334478
0.331657
0.327907
0.322694
0.316706
0.324437
0.330983
0.33693
0.341652
0.34518
0.347893
0.349968
0.351563
0.35287
0.354017
0.35503
0.355954
0.356734
0.357504
0.358209
0.358769
0.359038
0.358915
0.358255
0.356844
0.354423
0.350574
0.344765
0.336313
0.326267
0.343587
0.355197
0.364114
0.37022
0.37422
0.376829
0.378542
0.379797
0.380836
0.3818
0.382784
0.383826
0.385067
0.386444
0.38795
0.389509
0.391001
0.392263
0.393051
0.392994
0.391427
0.387412
0.379646
0.366534
0.348695
0.394435
0.412162
0.421918
0.42661
0.428515
0.429007
0.42887
0.428616
0.428541
0.42881
0.429515
0.430711
0.432445
0.434769
0.437686
0.441203
0.445206
0.449543
0.453973
0.458143
0.461226
0.461852
0.457651
0.444558
0.418462
0.562815
0.555272
0.543434
0.53267
0.523745
0.516372
0.510523
0.506176
0.503298
0.501824
0.50168
0.502827
0.505322
0.509152
0.514392
0.521135
0.529525
0.539689
0.551667
0.565557
0.582002
0.601333
0.623861
0.649572
0.672394
1.00893
0.812606
0.718182
0.667636
0.636498
0.615251
0.600133
0.589432
0.582231
0.577945
0.576188
0.57674
0.579526
0.584625
0.592163
0.602416
0.615814
0.632995
0.65484
0.682403
0.718744
0.769106
0.845151
0.977821
1.24351
0.576367
0.614326
0.612795
0.600683
0.585407
0.570939
0.558913
0.549734
0.543287
0.539323
0.537611
0.537977
0.540327
0.544791
0.551449
0.560544
0.57245
0.587687
0.606987
0.630747
0.659103
0.690579
0.718811
0.729641
0.675849
0.205689
0.361544
0.427863
0.451431
0.453754
0.44838
0.441454
0.435612
0.431433
0.428844
0.427657
0.427702
0.428746
0.431027
0.434548
0.439484
0.446158
0.455017
0.466707
0.481689
0.497735
0.507445
0.49698
0.430257
0.235151
0.048863
0.144016
0.240382
0.265655
0.266121
0.255811
0.245667
0.238301
0.233591
0.230864
0.229511
0.229199
0.229685
0.231084
0.233736
0.237662
0.243509
0.25272
0.266458
0.283872
0.303968
0.31795
0.309231
0.235142
0.104318
0.050206
0.105331
0.149415
0.14887
0.116854
0.101283
0.0929075
0.0893968
0.0877041
0.0865535
0.0849806
0.0831014
0.081663
0.0806367
0.0806675
0.081455
0.0841068
0.091201
0.107896
0.13984
0.174856
0.208599
0.215769
0.170441
0.0862994
0.0925047
0.0960236
0.095434
0.0436394
0.0184053
0.00828885
0.00501734
0.00586751
0.007122
0.00779962
0.00743156
0.00618441
0.00501635
0.00395078
0.00331512
0.00317464
0.00365553
0.00682362
0.0169915
0.0442617
0.0895979
0.134841
0.156905
0.144798
0.129341
0.121943
0.076
0.033323
0.00514508
0.000177727
6.23131e-05
4.57229e-05
4.41915e-05
4.67435e-05
5.33327e-05
4.68917e-05
4.20827e-05
3.98727e-05
4.00027e-05
4.47809e-05
6.41786e-05
0.000143032
0.000610327
0.00346784
0.0151677
0.0474804
0.0983864
0.136127
0.138512
0.163632
0.179708
0.0628969
0.0147514
0.000689448
7.86666e-05
6.83504e-05
6.16419e-05
4.99454e-05
4.3792e-05
4.11912e-05
4.15385e-05
4.38741e-05
4.72139e-05
5.14129e-05
5.705e-05
6.46712e-05
7.84814e-05
0.000175743
0.00129831
0.00739438
0.0248499
0.0599012
0.0949555
0.125245
0.236905
)
;

boundaryField
{
    inlet
    {
        type            fixedValue;
        value           uniform 0.00015;
    }
    outlet
    {
        type            inletOutlet;
        phi             phi.water;
        inletValue      uniform 0.00015;
        value           nonuniform List<scalar> 
25
(
0.179708
0.0628969
0.0147514
0.00015
0.00015
0.00015
0.00015
0.00015
0.00015
0.00015
0.00015
0.00015
0.00015
0.00015
0.00015
0.00015
0.00015
0.00015
0.00015
0.00739438
0.0248499
0.0599012
0.0949555
0.125245
0.236905
)
;
    }
    walls
    {
        type            epsilonWallFunction;
        value           nonuniform List<scalar> 
150
(
1.75035
2.656
2.97475
3.08652
3.18848
3.39803
3.60826
3.79466
3.89497
3.96909
3.90909
3.81201
3.73881
3.67337
3.61393
3.55814
3.5221
3.50168
3.48558
3.47636
3.45725
3.39849
3.27721
3.11283
2.92873
2.79128
2.76555
2.82827
2.95388
3.11762
3.31329
3.52445
3.72785
3.91745
4.09152
4.25583
4.41411
4.56823
4.71954
4.86834
5.01472
5.15978
5.30493
5.45037
5.59611
5.74214
5.88794
6.03278
6.17587
6.31625
6.45215
6.58175
6.70317
6.81749
6.92767
7.02793
7.12324
7.2226
7.32378
7.43957
7.58644
7.77128
8.01278
8.33656
8.77606
9.40359
10.3777
11.7879
11.8556
11.0754
8.99398
7.36461
6.44211
5.40017
4.47131
1.02603
1.79213
2.11615
2.27894
2.34844
2.37135
2.3614
2.32789
2.2642
2.20577
2.187
2.22558
2.33466
2.49747
2.68601
2.87772
3.03805
3.20599
3.37742
3.52205
3.62497
3.69919
3.75806
3.80748
3.85586
3.8993
3.93141
3.95861
3.98548
4.01221
4.03885
4.06722
4.10002
4.13146
4.16577
4.21199
4.26782
4.33592
4.41888
4.51405
4.61759
4.73063
4.85542
4.98677
5.12435
5.26716
5.41272
5.56157
5.71302
5.8671
6.02314
6.18169
6.3427
6.50632
6.6725
6.8419
7.01592
7.1966
7.3873
7.59337
7.82343
8.08925
8.40594
8.79957
9.32115
10.0784
11.3285
13.1455
13.3293
12.6938
10.8661
9.10234
7.91691
7.5504
6.8043
)
;
        Cmu             0.09;
        kappa           0.41;
        E               9.8;
        value           nonuniform List<scalar> 
150
(
1.75035
2.656
2.97475
3.08652
3.18848
3.39803
3.60826
3.79466
3.89497
3.96909
3.90909
3.81201
3.73881
3.67337
3.61393
3.55814
3.5221
3.50168
3.48558
3.47636
3.45725
3.39849
3.27721
3.11283
2.92873
2.79128
2.76555
2.82827
2.95388
3.11762
3.31329
3.52445
3.72785
3.91745
4.09152
4.25583
4.41411
4.56823
4.71954
4.86834
5.01472
5.15978
5.30493
5.45037
5.59611
5.74214
5.88794
6.03278
6.17587
6.31625
6.45215
6.58175
6.70317
6.81749
6.92767
7.02793
7.12324
7.2226
7.32378
7.43957
7.58644
7.77128
8.01278
8.33656
8.77606
9.40359
10.3777
11.7879
11.8556
11.0754
8.99398
7.36461
6.44211
5.40017
4.47131
1.02603
1.79213
2.11615
2.27894
2.34844
2.37135
2.3614
2.32789
2.2642
2.20577
2.187
2.22558
2.33466
2.49747
2.68601
2.87772
3.03805
3.20599
3.37742
3.52205
3.62497
3.69919
3.75806
3.80748
3.85586
3.8993
3.93141
3.95861
3.98548
4.01221
4.03885
4.06722
4.10002
4.13146
4.16577
4.21199
4.26782
4.33592
4.41888
4.51405
4.61759
4.73063
4.85542
4.98677
5.12435
5.26716
5.41272
5.56157
5.71302
5.8671
6.02314
6.18169
6.3427
6.50632
6.6725
6.8419
7.01592
7.1966
7.3873
7.59337
7.82343
8.08925
8.40594
8.79957
9.32115
10.0784
11.3285
13.1455
13.3293
12.6938
10.8661
9.10234
7.91691
7.5504
6.8043
)
;
    }
    defaultFaces
    {
        type            empty;
    }
}


// ************************************************************************* //
