/*--------------------------------*- C++ -*----------------------------------*\
| =========                 |                                                 |
| \\      /  F ield         | OpenFOAM: The Open Source CFD Toolbox           |
|  \\    /   O peration     | Version:  2.3.0                                 |
|   \\  /    A nd           | Web:      www.OpenFOAM.org                      |
|    \\/     M anipulation  |                                                 |
\*---------------------------------------------------------------------------*/
FoamFile
{
    version     2.0;
    format      ascii;
    class       volScalarField;
    location    "0.95";
    object      p_rgh;
}
// * * * * * * * * * * * * * * * * * * * * * * * * * * * * * * * * * * * * * //

dimensions      [1 -1 -2 0 0 0 0];

internalField   nonuniform List<scalar> 
2268
(
886.864
877.407
864.584
846.918
832.185
818.542
805.758
793.021
787.122
785.796
787.902
792.008
796.679
799.332
796.686
792.719
789.901
788.906
792.607
798.132
803.845
810.822
815.076
888.771
878.662
864.334
846.677
831.335
817.899
804.945
792.082
786.071
784.823
787.154
791.493
796.487
799.98
796.584
791.884
785.195
783.17
789.296
795.484
801.049
809.378
814.884
892.536
881.978
865.091
845.265
829.253
816.387
803.376
790.11
783.75
782.454
785.196
790.327
796.256
801.519
799.665
792.075
783.201
780.268
788.716
795.524
801.442
808.282
815.25
897.634
886.077
866.286
843.219
826.119
814.036
801.13
787.158
780.29
778.925
782.344
788.641
795.838
802.599
806.141
799.269
790.23
788.489
789.12
792.274
798.63
807.584
816.651
904.058
891.071
868.156
841.308
822.915
811.16
798.04
783.099
775.563
774.134
778.572
786.449
795.414
803.98
809.926
808.29
799.443
789.35
784.998
787.103
795.294
807.235
819.538
912.564
897.684
871.155
840.497
820.897
807.953
793.106
777.633
769.22
767.759
773.67
783.644
794.943
805.897
814.192
813.43
802.86
788.222
779.125
780.398
791.049
807.526
824.196
923.587
905.74
875.466
842.743
820.159
804.297
784.882
768.359
759.946
758.829
767.208
780.063
794.379
808.327
819.828
818.83
805.348
784.804
771.029
770.979
785.26
808.479
830.785
937.313
915.295
881.246
846.692
821.726
799.08
772.144
754.539
747.205
746.978
759.398
775.831
793.536
810.467
822.876
825.271
806.852
778.429
748.992
703.729
672.303
717.529
839.107
737.372
701.224
671.781
696.475
700.359
575.17
539.807
580.856
535.82
470.85
419.2
354.379
299.123
311.122
405.345
461.061
487.49
496.601
513.899
742.25
694.697
647.079
673.926
680.823
549.342
524.087
581.296
526.048
471.248
420.348
355.313
286.882
300.124
398.936
460.309
488.405
479.41
501.101
748.433
677.524
620.966
662.233
655.635
525.882
510.744
552.223
521.01
475.471
415.659
344.242
279.878
300.797
402.965
468.079
476.14
473.186
498.62
754.273
670.889
609.647
685.651
629.916
484.707
486.237
528.855
516.096
448.088
379.704
319.331
274.07
295.685
401.117
451.973
486.953
477.388
508.228
761.83
660.006
607.066
692.651
623.462
476.126
462.323
507.039
458.609
355.252
221.128
196.043
248.81
293.247
394.282
490.892
518.765
496.434
512.354
774.519
666.444
642.814
722.612
668.847
522.051
489.324
465.773
308.511
114.885
52.2692
40.3689
90.9663
216.144
342.127
468.24
503.257
495.661
513.441
792.274
683.084
701.996
762.706
759.827
584.186
463.508
258.149
105.816
52.4672
47.033
38.1205
31.0364
29.0552
102.537
246.596
311.176
391.694
458.472
811.656
730.562
735.829
777.995
853.837
576.194
235.235
66.2579
56.428
52.3496
45.0668
36.0988
30.2177
29.2583
50.014
143.772
220.277
248.331
446.797
949.163
928.317
892.951
859.833
830.777
791.267
747.786
726.85
703.331
690.529
725.816
767.287
794.265
820.054
838.251
841.251
803.31
669.873
490.309
408.794
404.767
536.961
853.69
853.619
887.777
912.815
883.119
848.948
796.744
420.482
309.068
313.238
270.707
316.256
392.284
561.25
744.742
851.027
842.953
480.489
256.177
267.765
290.93
319.24
508.711
855.506
827.805
745.99
894.312
921.367
803.794
212.752
56.9416
51.0927
48.9742
50.7812
191.542
487.17
539.41
470.749
321.074
299.598
285.812
244.972
257.068
306.628
653.361
936.795
960.447
967.473
967.498
969.163
450.993
111.277
65.3175
40.6894
42.483
42.6477
40.7652
37.9074
34.0287
33.5523
75.1457
263.071
383.934
410.031
391.709
533.488
657.885
646.169
637.615
914.388
1173.3
1013.57
256.695
83.2415
100.099
102.345
99.9573
57.8447
40.5399
37.9914
34.6336
32.712
29.7294
27.4622
80.1271
295.767
382.883
409.824
355.02
160.491
141.54
264.901
966.966
1277.18
646.892
32.2357
15.7615
70.6754
94.439
98.7672
110.383
112.607
71.2055
36.3194
30.7632
26.3351
24.3681
35.5831
10.9602
48.2258
165.381
180.133
114.353
94.7082
363.262
1090.68
1245.17
280.895
7.11508
3.00835
1.64126
2.6032
50.4639
105.933
108.389
114.063
115.519
105.834
67.1835
8.31168
1.06521
0.249547
3.70084
47.8731
92.4603
89.9582
54.2835
337.221
1134.02
1148.61
19.7574
1.89156
0.629085
0.0258679
-0.328197
-0.769804
-0.562324
6.87929
69.3602
108.385
104.443
51.0447
-0.103223
-0.141491
-0.388945
-0.498694
-0.305127
9.15082
21.7082
14.7285
19.2815
669.967
1010.74
0.970983
0.786662
0.174297
-0.329106
-0.718483
-1.05142
-1.21763
-1.23431
0.464065
9.70508
16.0119
4.52671
-0.688148
-0.603557
-0.634197
-0.720942
-0.597306
-0.4995
-0.347526
0.0666574
0.494533
30.0728
928.51
0.0757757
0.19887
-0.392226
-0.801596
-1.09018
-1.26006
-1.35449
-1.45769
-1.35369
-1.43677
-1.76817
-1.16489
-0.533112
-0.767753
-0.678073
-0.872453
-0.805188
-0.639102
-0.461164
-0.371478
-0.585733
-0.647369
1032.17
-0.163148
-0.289474
-0.895841
-1.15212
-1.3257
-1.44074
-1.55222
-1.66534
-1.76069
-1.80681
-1.53863
-0.998781
-0.812607
-1.3075
-1.44287
-1.3044
-0.991636
-0.419957
-0.217061
-0.477581
-0.66842
-0.894911
1131.78
0.0682127
-0.648306
-1.19106
-1.35842
-1.49755
-1.60443
-1.71611
-1.82267
-1.90435
-1.92993
-1.86768
-1.76655
-1.69348
-1.63945
-1.51453
-1.38146
-1.25439
-0.694735
-0.29476
-0.19223
-0.434447
-0.877269
1138.86
2.08467
-1.02545
-1.40802
-1.54179
-1.67693
-1.78468
-1.89563
-1.98758
-2.04786
-2.0511
-1.98548
-1.87737
-1.77021
-1.67076
-1.55949
-1.43917
-1.32083
-1.21069
-0.707524
-0.276497
-0.524471
-0.86813
262.682
0.292905
-1.50217
-1.73373
-1.79325
-1.90819
-2.01282
-2.13521
-2.23017
-2.27936
-2.26086
-2.17451
-2.04369
-1.90475
-1.77181
-1.6398
-1.50719
-1.37772
-1.25617
-1.14408
-1.03882
-0.947405
-0.87216
-2.65409
-2.4978
-2.02086
-2.20013
-2.1384
-2.22268
-2.32594
-2.47632
-2.59792
-2.65328
-2.61209
-2.48328
-2.30292
-2.11029
-1.9263
-1.75325
-1.58972
-1.43674
-1.29641
-1.16877
-1.0539
-0.954947
-0.875016
67.9226
-3.28606
-2.52104
-2.69666
-2.54275
-2.61662
-2.74688
-2.96816
-3.16141
-3.25125
-3.18703
-2.98764
-2.70779
-2.41173
-2.13857
-1.89778
-1.68473
-1.4961
-1.33007
-1.18476
-1.05902
-0.952879
-0.865829
575.22
-3.05881
-2.8164
-3.10643
-2.93794
-3.06542
-3.29385
-3.66954
-4.01387
-4.17243
-4.11036
-3.82038
-3.35368
-2.86048
-2.42647
-2.07373
-1.78685
-1.54983
-1.35242
-1.18769
-1.05056
-0.937729
-0.845677
749.477
-3.06767
-2.87331
-3.39801
-3.27913
-3.54897
-3.96047
-4.59302
-4.85415
-5.14466
-5.24664
-4.99733
-4.25637
-3.49177
-2.79901
-2.27436
-1.88426
-1.58705
-1.35523
-1.17176
-1.02502
-0.907082
-0.812232
792.353
-2.05716
-3.05027
-3.62566
-3.58444
-4.02096
-4.62375
-5.34633
-6.20148
-6.86448
-6.83682
-6.20375
-5.21995
-4.20979
-3.21091
-2.46551
-1.95104
-1.59029
-1.32783
-1.1302
-0.978118
-0.859218
-0.764894
841.89
2.61717
-3.30806
-3.74505
-3.83582
-4.33316
-5.02914
-5.88438
-7.22538
-8.13194
-8.31015
-7.83925
-6.37587
-4.66183
-3.52297
-2.5753
-1.94834
-1.53865
-1.26077
-1.05831
-0.908175
-0.793871
-0.704579
848.343
14.5163
-2.85055
-3.60017
-3.90976
-4.33361
-5.08876
-6.24772
-7.41169
-8.46748
-8.97217
-8.57753
-7.06538
-4.99263
-3.5135
-2.52622
-1.84442
-1.42039
-1.14406
-0.952737
-0.814899
-0.712131
-0.632793
209.268
60.9297
0.265083
-2.96404
-3.60777
-4.00511
-4.68947
-5.88531
-7.10186
-7.81492
-8.48062
-8.16532
-6.92157
-4.85031
-3.25986
-2.27409
-1.61681
-1.22591
-0.980801
-0.817029
-0.701778
-0.617082
-0.552042
10.8559
53.911
22.6732
1.04783
-2.5405
-3.27467
-4.02208
-5.02308
-6.13739
-6.9855
-7.31997
-6.9576
-5.90602
-4.32229
-2.66245
-1.78053
-1.27831
-0.969459
-0.782137
-0.660149
-0.575692
-0.513886
-0.466087
3.72503
6.84839
14.6901
10.7587
3.3502
-1.48322
-3.126
-4.09063
-4.95974
-5.55651
-5.70878
-5.31791
-4.43361
-3.09917
-1.80421
-1.15894
-0.880766
-0.68431
-0.569668
-0.496538
-0.446359
-0.40922
-0.379595
2.45322
2.62226
2.27035
2.74086
1.80491
0.530927
-1.07534
-2.48538
-3.70312
-4.1141
-4.02581
-3.56542
-2.78219
-1.65741
-0.900354
-0.588298
-0.499293
-0.414374
-0.369537
-0.342494
-0.32423
-0.309992
-0.297289
1.97074
2.01071
1.78345
1.19886
0.223681
-0.827734
-1.84007
-2.2115
-2.57009
-2.78257
-2.51935
-1.97462
-1.23149
-0.534277
-0.174908
-0.226004
-0.201454
-0.197159
-0.203412
-0.211223
-0.217767
-0.221838
-0.223052
1.53675
1.52586
1.32932
0.854076
0.0473133
-0.992842
-1.9736
-2.55679
-2.51744
-2.10557
-1.49341
-0.776216
-0.172011
0.138776
0.157861
0.0196709
-0.0101095
-0.0468079
-0.0807279
-0.109191
-0.131574
-0.148116
-0.159367
1.15482
1.11168
0.918784
0.503486
-0.158902
-1.0308
-1.87378
-2.36679
-2.23912
-1.54491
-0.793052
-0.175454
0.219059
0.346506
0.17698
0.135482
0.0917658
0.044034
0.000609054
-0.0363377
-0.0663668
-0.0897916
-0.107206
0.830853
0.771016
0.598804
0.28046
-0.242256
-0.890848
-1.44381
-1.63074
-1.5608
-1.09715
-0.503191
-0.0032921
0.216578
0.163465
0.182937
0.169591
0.133145
0.0902639
0.0485479
0.0114059
-0.0201678
-0.0460004
-0.066286
0.572795
0.513042
0.368872
0.129229
-0.25771
-0.686834
-1.05956
-1.2142
-1.05447
-0.702783
-0.341305
-0.120392
-0.00296221
0.111131
0.159176
0.161072
0.139182
0.107156
0.0726365
0.0397553
0.0103843
-0.0147792
-0.035482
0.37881
0.326994
0.211908
0.0304097
-0.226477
-0.496715
-0.730152
-0.86216
-0.822251
-0.642881
-0.398949
-0.18946
-0.0243538
0.0761563
0.124287
0.136664
0.12748
0.106739
0.081043
0.0542601
0.0289519
0.00626803
-0.0132307
0.239726
0.198146
0.110797
-0.0235458
-0.191777
-0.360037
-0.49623
-0.564232
-0.541638
-0.440002
-0.28727
-0.145627
-0.0306711
0.0474653
0.0915484
0.109355
0.109082
0.0975523
0.0797738
0.0595007
0.0389092
0.0195216
0.002141
0.144336
0.111826
0.0476154
-0.0511198
-0.160865
-0.267517
-0.350154
-0.388787
-0.372465
-0.307069
-0.212533
-0.116665
-0.0344363
0.0263231
0.064945
0.0845743
0.0897206
0.0848243
0.0736175
0.0590425
0.0429827
0.0270733
0.0122039
0.08008
0.0565753
0.00629896
-0.0602652
-0.133057
-0.201651
-0.253013
-0.275922
-0.264758
-0.221507
-0.160093
-0.0942204
-0.0346792
0.0123714
0.0450104
0.0641367
0.0720708
0.0715549
0.0651792
0.0550825
0.0431999
0.0306149
0.0183009
0.0374595
0.0206806
-0.0154921
-0.0603205
-0.108636
-0.153287
-0.185585
-0.19932
-0.190477
-0.162158
-0.120988
-0.0752683
-0.0320424
0.00402815
0.0308171
0.0481605
0.0570916
0.0592038
0.0562183
0.0497342
0.0411359
0.031429
0.0214829
0.0107094
-0.0017711
-0.025444
-0.0550671
-0.0871
-0.117237
-0.137453
-0.145382
-0.13891
-0.11961
-0.091442
-0.0593389
-0.0278865
-0.000460571
0.0210464
0.0360411
0.0448474
0.0483233
0.0475582
0.0436627
0.0376306
0.0303663
0.0225129
-0.00402293
-0.0131215
-0.028821
-0.048464
-0.0695789
-0.0886596
-0.101716
-0.106372
-0.101578
-0.0882499
-0.0687109
-0.0460038
-0.0231246
-0.00245697
0.0144703
0.0269632
0.034989
0.0389563
0.0395168
0.0374098
0.0333559
0.0280131
0.0219138
-0.011138
-0.0170514
-0.0276366
-0.0405179
-0.0542038
-0.0663404
-0.0745553
-0.0771996
-0.0736484
-0.0643887
-0.0508018
-0.0347797
-0.0182713
-0.00292869
0.0100829
0.0201219
0.0270019
0.0308737
0.0321003
0.0311523
0.028525
0.0246794
0.0200365
-0.0127978
-0.0166372
-0.0235745
-0.0318393
-0.0405136
-0.0481114
-0.0531529
-0.0545866
-0.051997
-0.0456382
-0.0363289
-0.0252326
-0.0135971
-0.00253606
0.00710738
0.0148086
0.0203429
0.0237262
0.0251418
0.0248722
0.0232394
0.0205592
0.0171383
-0.0110908
-0.0134738
-0.0178037
-0.0228482
-0.0280783
-0.0326214
-0.0355746
-0.0362927
-0.0345094
-0.0303495
-0.0242791
-0.0169863
-0.00923498
-0.00173567
0.0049436
0.0104186
0.0144902
0.0171182
0.0183827
0.0184417
0.0174938
0.0157468
0.013404
-0.0072867
-0.00854936
-0.0109793
-0.0136888
-0.0164422
-0.01882
-0.0203371
-0.0206452
-0.0195931
-0.0172316
-0.0137959
-0.00964544
-0.00519009
-0.000823368
0.00312738
0.00642756
0.00894144
0.0106232
0.0114996
0.0116475
0.0111713
0.010186
0.00876734
-0.00296494
-0.00330692
-0.00397768
-0.00474842
-0.00557402
-0.00629647
-0.00673325
-0.00678447
-0.00640537
-0.00560486
-0.00445082
-0.00305098
-0.00153411
-2.9699e-05
0.0013497
0.00251918
0.00342653
0.0040514
0.00440009
0.00449653
0.0043702
0.0040413
0.00355286
905.462
904.465
898.57
885.806
918.468
893.212
881.224
845.877
920.486
892.248
866.317
796.886
943.935
926.75
919.539
909.819
1034.14
1031.54
1032.74
801.199
1154.16
1161.81
1059.51
461.415
1273.01
1279.99
1100.56
376.429
1387.9
1371.27
1339.2
685.652
983.868
1395.24
1433.39
1386.4
2.64385
421.03
1240.62
1431.61
-0.682874
-0.017431
24.5124
597.984
-0.870173
-0.896179
-0.715741
-0.543886
-0.835378
-0.814789
-0.788621
-0.731223
-0.827874
-0.797311
-0.768821
-0.749753
-0.817384
-0.786288
-0.762203
-0.735072
-0.81147
-0.777886
-0.748076
-0.721201
-0.789332
-0.755862
-0.724955
-0.696437
-0.75491
-0.721209
-0.69026
-0.661771
-0.708573
-0.675623
-0.645508
-0.617918
-0.651881
-0.621159
-0.59313
-0.567481
-0.586383
-0.559373
-0.534675
-0.51203
-0.514109
-0.491997
-0.471623
-0.452823
-0.438017
-0.421542
-0.406105
-0.391657
-0.361741
-0.351078
-0.340731
-0.330764
-0.288949
-0.283701
-0.278136
-0.272397
-0.222682
-0.222009
-0.22055
-0.218487
-0.16497
-0.167785
-0.169544
-0.170429
-0.116738
-0.121918
-0.125954
-0.129002
-0.0779448
-0.0844817
-0.0899259
-0.0943903
-0.0478522
-0.0549367
-0.0610621
-0.0663011
-0.0253091
-0.0323493
-0.0386017
-0.0441049
-0.00900633
-0.0156091
-0.0216015
-0.0269959
0.00233511
-0.0036013
-0.0090932
-0.0141338
0.00983763
0.00466732
-0.000203595
-0.00475498
0.0144011
0.0100041
0.00578488
0.00177254
0.0166958
0.0130197
0.00942669
0.00594987
0.017204
0.014173
0.0111576
0.00819048
0.0162879
0.0138302
0.0113447
0.00886063
0.0142352
0.0122955
0.0103032
0.00828189
0.0112597
0.00980675
0.00829078
0.0067251
0.00747037
0.00654399
0.00551621
0.00439799
0.00303605
0.00256204
0.00195582
0.00123935
849.391
805.499
779.075
781.707
879.051
469.984
79.2916
70.0526
67.3903
51.6065
40.6586
33.3105
28.6402
28.1858
40.543
125.658
210.367
213.139
283.959
793.503
740.855
544.419
654.348
750.806
442.373
87.3304
95.8212
176.988
143.765
62.1009
29.2192
27.896
27.5509
30.7567
107.686
189.645
175.417
142.302
629.455
555.141
578.87
541.762
555.693
325.948
185.509
209.621
187.972
176.161
50.9013
26.9349
27.4939
26.8538
28.2969
84.7356
153.691
154.992
99.9347
627.541
208.211
140.698
157.321
176.7
171.492
189.642
207.236
193.537
106.424
37.5174
27.9573
27.3886
26.6378
28.012
60.465
130.891
89.747
58.0887
274.094
31.1797
31.9647
50.9553
56.8055
53.5279
49.2852
41.1802
39.9716
30.2572
29.8924
29.3579
27.9369
27.3243
28.8438
86.1338
114.529
7.12199
31.7735
78.6632
30.6832
30.692
30.7612
30.8497
31.0275
31.0716
30.9885
30.9259
31.11
31.24
30.7311
28.9707
28.3884
46.8151
121.39
21.969
1.78983
12.5505
47.8494
30.9102
30.8468
30.8941
31.0151
31.0356
30.9313
30.9254
31.7842
32.2527
32.1138
31.4787
30.2461
30.0011
151.862
125.676
7.31137
2.20779
2.67674
125.166
31.2544
31.2646
31.2184
31.152
31.0216
30.8371
30.8611
31.5684
32.019
32.587
32.4024
37.4335
112.754
327.548
49.1062
2.48172
2.51193
2.53356
665.249
31.4172
31.3177
31.2332
31.1989
31.1713
30.9907
31.0362
31.3311
34.6798
97.3479
210.6
392.216
612.482
371.225
6.73229
2.03005
2.19453
2.26131
1347.9
752.244
208.833
31.1867
31.108
31.4997
31.6898
31.859
35.859
316.065
619.217
673.3
676.002
675.278
160.326
1.11039
1.51789
1.75356
1.88917
1075.56
1158.03
1142.11
533.435
30.7753
32.885
31.9621
174.529
482.382
690.077
701.957
718.6
722.28
329.978
0.184825
0.600177
1.10017
1.40847
1.57019
212.275
1099.23
1232.79
1215.44
1091.09
718.592
470.53
804.803
804.82
484.891
438.551
391.105
121.394
-0.0380008
0.120221
0.507116
0.888022
1.16417
1.45348
-0.733827
-0.601602
641.081
1105.52
1183.44
1169.51
1157.18
804.073
100.883
0.071797
0.119865
0.112078
0.0837192
0.108249
0.30608
0.573667
0.764557
1.02958
1.49284
-0.723342
-0.656971
-0.705675
-0.678934
170.762
266.522
102.585
-0.342645
-0.368453
-0.0448042
0.0367722
0.110213
0.182671
0.277754
0.422379
0.574163
0.655839
0.856463
1.28926
-0.69349
-0.649241
-0.67546
-0.647528
-0.628688
-0.547392
-0.460244
-0.359955
-0.314037
-0.07965
0.0216437
0.115672
0.195735
0.284241
0.391487
0.493871
0.551245
0.637051
1.13259
-0.678042
-0.630705
-0.615858
-0.566052
-0.55543
-0.49878
-0.426961
-0.324351
-0.238282
-0.101566
-0.000332084
0.0892186
0.171747
0.257609
0.342909
0.414053
0.457879
0.46417
1.01703
-0.652606
-0.603806
-0.570852
-0.525964
-0.494121
-0.437353
-0.367745
-0.289491
-0.207301
-0.107799
-0.0178355
0.0663361
0.145935
0.22166
0.290338
0.345159
0.38417
0.37345
0.782044
-0.617843
-0.567201
-0.525669
-0.480205
-0.444705
-0.393365
-0.333201
-0.264409
-0.190774
-0.106648
-0.0292148
0.0456515
0.116746
0.182908
0.240811
0.286477
0.320482
0.341114
0.327055
-0.57542
-0.525732
-0.482731
-0.440314
-0.400708
-0.353201
-0.299247
-0.239744
-0.175864
-0.107554
-0.0406044
0.0242204
0.0862442
0.14413
0.194826
0.234632
0.268552
0.394547
0.304788
-0.527928
-0.481119
-0.440041
-0.400419
-0.361239
-0.318183
-0.270728
-0.219362
-0.164966
-0.108231
-0.0522495
0.00163564
0.0536928
0.103745
0.147798
0.185371
0.290507
0.711944
0.317669
-0.476981
-0.434911
-0.397291
-0.361206
-0.324858
-0.286299
-0.244972
-0.20122
-0.155696
-0.109233
-0.0654575
-0.0249334
0.0158638
0.0588355
0.0988396
0.136604
0.339794
0.652336
0.523438
-0.423478
-0.387423
-0.354501
-0.322624
-0.290322
-0.256594
-0.22118
-0.184526
-0.14712
-0.111006
-0.081862
-0.0575039
-0.0282468
0.00960195
0.0518527
0.122924
0.309657
0.40213
0.512529
-0.368741
-0.339522
-0.31206
-0.284925
-0.257141
-0.228255
-0.19832
-0.168002
-0.137896
-0.112672
-0.100109
-0.0930109
-0.0727364
-0.0366586
0.0268456
0.143717
0.266201
0.0455987
0.487283
-0.314472
-0.292378
-0.270651
-0.248438
-0.225204
-0.200888
-0.175738
-0.15069
-0.125777
-0.110038
-0.112545
-0.119244
-0.101454
-0.0652813
0.0475078
0.148906
0.161155
0.0340205
0.360536
-0.262399
-0.247203
-0.231078
-0.213651
-0.19473
-0.174498
-0.153315
-0.132691
-0.107931
-0.0725094
-0.10135
-0.119212
-0.103896
-0.051247
0.0455541
0.0871359
0.040427
0.0320917
0.365716
-0.21403
-0.205088
-0.194138
-0.181161
-0.166195
-0.149493
-0.131241
-0.112144
-0.0875081
-0.0179833
-0.0347837
-0.0895721
-0.0772361
-0.0150085
0.0533717
0.0350917
0.0208978
0.0245856
0.394502
-0.170511
-0.166912
-0.160513
-0.151539
-0.140173
-0.126671
-0.111159
-0.0939736
-0.0696667
0.00615676
0.0147099
-0.046322
-0.0191762
0.0126719
0.0174148
-0.0062015
0.0069344
0.0157057
0.396182
-0.132522
-0.133218
-0.130642
-0.125154
-0.117022
-0.106509
-0.0937961
-0.079259
-0.0605862
-0.0141133
0.0415723
-0.00669287
-0.00602228
-0.00571268
-0.00824102
0.00182724
0.00321759
0.0106126
0.401594
-0.100281
-0.104201
-0.104673
-0.102102
-0.09679
-0.0890009
-0.078934
-0.066721
-0.0519704
-0.0364139
0.0521722
0.0699728
0.00822428
0.0245971
0.0579911
0.0619677
0.00353749
0.00807377
0.409697
-0.0736132
-0.0797503
-0.082502
-0.0822531
-0.0793037
-0.0739297
-0.0663774
-0.056868
-0.0456647
-0.0336347
0.00126174
0.0840205
0.0863707
0.0817068
0.0790553
0.0362535
-0.000299389
0.00577341
0.417396
-0.0520583
-0.0595299
-0.0638528
-0.0653513
-0.0643037
-0.0609907
-0.0557008
-0.0487219
-0.0404656
-0.0316011
-0.0229648
-0.00404094
0.0441953
0.0747155
0.0378869
-0.00774743
-0.00170758
0.00284296
0.384421
-0.0349978
-0.0430876
-0.0483783
-0.0511201
-0.0515542
-0.0499439
-0.0465889
-0.0417711
-0.0358653
-0.0294224
-0.0230803
-0.0178686
-0.0145741
-0.0131284
-0.0107536
-0.00689739
-0.0029234
0.000114818
0.0391416
-0.0217761
-0.0299519
-0.0357423
-0.039324
-0.0408852
-0.0406452
-0.0388817
-0.0358272
-0.0317931
-0.0272215
-0.0226316
-0.0187614
-0.0157381
-0.0137409
-0.0111192
-0.00800385
-0.00458449
-0.00209866
0.000348311
-0.0117946
-0.0196999
-0.025657
-0.0297719
-0.0321637
-0.0329907
-0.0324876
-0.0308271
-0.0282682
-0.0251636
-0.021934
-0.0191266
-0.0166143
-0.0147471
-0.0123427
-0.009851
-0.00697124
-0.00477745
-0.00332388
-0.00455166
-0.0119706
-0.0178655
-0.0222716
-0.0252314
-0.026843
-0.0272915
-0.0267004
-0.025291
-0.0233425
-0.0211915
-0.0192298
-0.0172744
-0.015757
-0.0137851
-0.0119409
-0.00959904
-0.00830405
-0.00762894
0.000372806
-0.0064328
-0.0120978
-0.0165873
-0.0198765
-0.0220179
-0.0231491
-0.0233621
-0.0228461
-0.0218194
-0.02055
-0.0192994
-0.0179219
-0.0168239
-0.0153366
-0.0140678
-0.0133853
-0.0120369
-0.0114519
0.00335796
-0.00275386
-0.00805441
-0.0124478
-0.0158644
-0.018327
-0.0199297
-0.0207465
-0.0209313
-0.0206483
-0.0201039
-0.0194591
-0.0186395
-0.0179653
-0.0169587
-0.0161791
-0.0156354
-0.0148368
-0.0145821
0.00476013
-0.000606585
-0.00543649
-0.00959237
-0.0129833
-0.015611
-0.0175308
-0.0188015
-0.019537
-0.0198551
-0.0199051
-0.0197805
-0.0194722
-0.0191965
-0.0186351
-0.0182649
-0.0178555
-0.0175015
-0.0172573
0.00489833
0.000307095
-0.00397813
-0.00780109
-0.0110625
-0.0137445
-0.0158678
-0.0174728
-0.0186336
-0.0194318
-0.0199662
-0.0202911
-0.0204335
-0.0205185
-0.0203518
-0.0203122
-0.0200914
-0.020022
-0.0197581
0.0040526
0.000244379
-0.00346645
-0.00690852
-0.00997622
-0.012632
-0.0148695
-0.0167081
-0.0181892
-0.0193655
-0.0202944
-0.0210085
-0.0215411
-0.0219512
-0.0221386
-0.0223588
-0.0223385
-0.0224225
-0.0222598
0.00240273
-0.00064812
-0.00377552
-0.00680177
-0.00962031
-0.0121785
-0.0144532
-0.0164443
-0.0181672
-0.0196467
-0.0209075
-0.0219661
-0.022843
-0.0235573
-0.0240738
-0.0245169
-0.0246969
-0.0248974
-0.0247729
-0.00011652
-0.00238551
-0.00487414
-0.00741738
-0.00991422
-0.0123023
-0.014546
-0.016628
-0.0185394
-0.0202768
-0.0218358
-0.0232117
-0.0244089
-0.0254249
-0.0262485
-0.0269485
-0.0272955
-0.0276365
-0.0273456
)
;

boundaryField
{
    leftWall
    {
        type            fixedFluxPressure;
        gradient        uniform 0;
        value           nonuniform List<scalar> 
50
(
886.864
888.771
892.536
897.634
904.058
912.564
923.587
937.313
949.163
853.619
827.805
967.473
1173.3
1277.18
1245.17
1148.61
1010.74
928.51
1032.17
1131.78
1138.86
262.682
-2.65409
67.9226
575.22
749.477
792.353
841.89
848.343
209.268
10.8559
3.72503
2.45322
1.97074
1.53675
1.15482
0.830853
0.572795
0.37881
0.239726
0.144336
0.08008
0.0374595
0.0107094
-0.00402293
-0.011138
-0.0127978
-0.0110908
-0.0072867
-0.00296494
)
;
    }
    rightWall
    {
        type            fixedFluxPressure;
        gradient        uniform 0;
        value           nonuniform List<scalar> 
50
(
513.899
501.101
498.62
508.228
512.354
513.441
458.472
446.797
283.959
142.302
99.9347
58.0887
31.7735
12.5505
2.67674
2.53356
2.26131
1.88917
1.57019
1.45348
1.49284
1.28926
1.13259
1.01703
0.782044
0.327055
0.304788
0.317669
0.523438
0.512529
0.487283
0.360536
0.365716
0.394502
0.396182
0.401594
0.409697
0.417396
0.384421
0.0391416
0.000348311
-0.00332388
-0.00762894
-0.0114519
-0.0145821
-0.0172573
-0.0197581
-0.0222598
-0.0247729
-0.0273456
)
;
    }
    lowerWall
    {
        type            fixedFluxPressure;
        gradient        uniform 0;
        value           nonuniform List<scalar> 
62
(
886.864
877.407
864.584
846.918
832.185
818.542
805.758
793.021
787.122
785.796
787.902
792.008
796.679
799.332
796.686
792.719
789.901
788.906
792.607
798.132
803.845
810.822
815.076
815.076
814.884
815.25
816.651
819.538
824.196
830.785
839.107
905.462
904.465
898.57
885.806
737.372
742.25
748.433
754.273
761.83
774.519
792.274
811.656
737.372
701.224
671.781
696.475
700.359
575.17
539.807
580.856
535.82
470.85
419.2
354.379
299.123
311.122
405.345
461.061
487.49
496.601
513.899
)
;
    }
    atmosphere
    {
        type            totalPressure;
        rho             rho;
        psi             none;
        gamma           1;
        p0              uniform 0;
        value           nonuniform List<scalar> 
46
(
0
0
0
0
0
0
0
0
0
0
0
0
0
0
0
0
0
0
0
0
0
0
0
-1.13977e-05
-0.000143226
-0.000427807
-0.00086031
-0.00184802
-0.00367493
-0.00580585
-0.00806459
-0.0103601
-0.0126276
-0.0148237
-0.0169239
-0.0189073
-0.0207572
-0.0224554
-0.0239786
-0.0253299
-0.0265027
-0.0274565
-0.02834
-0.0287318
-0.0292167
-0.0286204
)
;
    }
    defaultFaces
    {
        type            empty;
    }
}


// ************************************************************************* //
