/*--------------------------------*- C++ -*----------------------------------*\
| =========                 |                                                 |
| \\      /  F ield         | OpenFOAM: The Open Source CFD Toolbox           |
|  \\    /   O peration     | Version:  2.3.0                                 |
|   \\  /    A nd           | Web:      www.OpenFOAM.org                      |
|    \\/     M anipulation  |                                                 |
\*---------------------------------------------------------------------------*/
FoamFile
{
    version     2.0;
    format      ascii;
    class       volScalarField;
    location    "0.256";
    object      p;
}
// * * * * * * * * * * * * * * * * * * * * * * * * * * * * * * * * * * * * * //

dimensions      [1 -1 -2 0 0 0 0];

internalField   nonuniform List<scalar> 
545
(
-8.06331e+07
-1.49364e+07
-2.08336e+06
-2.6995e+06
-8.71736e+06
5.78646e+07
-3.1095e+06
-2.44448e+06
-2.59736e+06
-7.10719e+06
1.00683e+08
3.53119e+06
-457068
-511583
-7.45475e+06
5.83721e+07
-3.29215e+06
-1.97335e+06
-237633
-6.67517e+06
-9.27684e+07
-2.45079e+06
-549661
4.14816e+06
1.1654e+07
-7.18676e+06
-1.95252e+06
-880425
-194268
-90055.3
-80822.6
-95279.7
-102333
-106721
-107505
-107426
-105884
-104746
-102775
-101460
-99378.4
-98157.8
-96073.6
-94833.8
-92780
-91580.2
-89387.2
-88077.3
-85722
-84258
-81763.2
-80066.2
-77281.5
-75494.5
-72498.5
-70243.8
-66767.8
-64056.7
-59924.6
-56572.6
-51813.7
-47911.4
-42590
-38297.1
-32435.1
-27759.7
-21500
-16407.6
-9959.13
-5042.66
-6.34584e+06
-1.26067e+06
-838213
-312963
-192729
-134933
-118436
-111419
-109519
-108427
-107376
-105967
-104505
-102861
-101212
-99480.3
-97902.2
-96220.8
-94575.3
-92947.2
-91312.5
-89567.2
-87796
-85932.9
-83950.9
-82002.2
-79807.2
-77519.3
-75196.5
-72771.5
-69962.1
-67046
-63782.8
-60209.6
-56275.4
-52087.4
-47598.3
-42861.5
-38008
-32732.7
-27460.3
-21787.7
-15996.7
-9914.64
-3225.05
-7.42509e+06
-675279
-555721
-180455
-157231
-129976
-120372
-112501
-110474
-108545
-107744
-105776
-104738
-102604
-101434
-99191.5
-98144.8
-95955.8
-94813.4
-92685.2
-91585.2
-89289.3
-88063.3
-85638.6
-84191.4
-81724.1
-80074.4
-77195.2
-75472.8
-72511.6
-70257.3
-66774.1
-64120.9
-59907.9
-56580.1
-51731.5
-47875.8
-42486.7
-38331.9
-32371.2
-27798.1
-21461.5
-16261.5
-9563.25
-4346.53
-7.85207e+06
490208
17051.1
53151.8
-81123.5
-108603
-115256
-111072
-110494
-108516
-108079
-105631
-104968
-102405
-101605
-98980.7
-98327.3
-95796.1
-94965.9
-92534.8
-91787.9
-89122.2
-88229
-85466.9
-84272.5
-81624.2
-80167.4
-76996
-75585.4
-72438.8
-70370.6
-66676.2
-64305.3
-59764
-56697.8
-51536.6
-47915.7
-42286.7
-38444.2
-32169.5
-27944.8
-21326.5
-16379.9
-8989.18
-2996.36
-1.94194e+06
3.15937e+06
997651
249591
-51685
-100037
-113090
-110626
-111423
-108270
-108790
-105092
-105561
-101817
-102164
-98317.5
-98949.4
-95239.4
-95516.1
-91958.2
-92465
-88461.5
-88873.2
-84807.7
-84754
-81132.2
-80724
-76255.3
-76165.2
-71951.7
-70913.9
-66091.8
-65020.4
-59052.4
-57361.5
-50742.2
-48484.6
-41447.2
-39204.8
-31276.4
-28718.4
-20651
-17081.1
-8382.44
-4836.12
-1.39254e+07
4.57678e+06
1.74145e+06
372552
-43010.2
-103923
-112860
-110113
-107534
-106033
-103224
-102627
-103053
-102844
-99810.2
-95576.4
-93071.3
-93390.1
-91448
-89972.2
-89725.9
-89546
-87332.6
-83517.3
-79771.5
-75728.5
-75566.5
-75473.5
-71298.3
-67748.9
-66020.8
-65184.5
-63661
-60310.3
-56037.2
-51937.6
-45444.9
-38541.1
-33269.6
-30208.9
-22779.3
-18216.4
-14657.7
-9037.42
-486.311
-9.27719e+07
-2.4539e+06
-552151
4.1468e+06
1.16539e+07
5.83685e+07
-3.29533e+06
-1.97586e+06
-239054
-6.67544e+06
1.0068e+08
3.52797e+06
-459567
-513079
-7.45529e+06
5.7861e+07
-3.11273e+06
-2.44693e+06
-2.59892e+06
-7.10795e+06
-8.06366e+07
-1.49396e+07
-2.08576e+06
-2.70107e+06
-8.71825e+06
-1.94056e+06
3.15782e+06
999081
247996
-50168.8
-101829
-111346
-112295
-109758
-109914
-107080
-106751
-103754
-103693
-100320
-100039
-97182.5
-97036.2
-93709.9
-93766.2
-90583.4
-90458
-86879.7
-86671.7
-82905.9
-82905.1
-78872.8
-78108.5
-74278.9
-73789.1
-68997.7
-68002.1
-62873.4
-61090
-55194.2
-52790.5
-46408.2
-43280.9
-37203.7
-33153.9
-26743.4
-22575.7
-15072.6
-10942.3
-3271.07
-7.85142e+06
489153
17717.4
52141.7
-80394.9
-109676
-114340
-111976
-109555
-109387
-107087
-106494
-103939
-103407
-100577
-99902.9
-97339.4
-96782.9
-93966
-93522.7
-90754
-90208.5
-87124.6
-86452.2
-83216.1
-82566.6
-79095
-77981
-74493.8
-73399.4
-69248.4
-67647.1
-63044.4
-60774.4
-55430.1
-52549.8
-46673.1
-43176.3
-37226.1
-33109.2
-26791.8
-22345.8
-15307
-10424.7
-2125
-7.42524e+06
-675840
-555750
-180942
-157200
-130428
-120164
-112768
-110157
-108739
-107372
-105949
-104373
-102863
-101092
-99432.5
-97833.3
-96239.8
-94511.1
-92966.6
-91275
-89604.2
-87701.4
-85877.9
-83817.9
-81933.4
-79682.7
-77412.4
-75067.8
-72699.6
-69820.1
-66933.5
-63603
-60056.4
-56047.3
-51868.5
-47325.2
-42560.2
-37785.1
-32494.6
-27333.9
-21709.9
-15926.9
-10149.7
-4299.14
-6.34631e+06
-1.26114e+06
-838492
-313324
-192958
-135201
-118500
-111486
-109412
-108378
-107199
-105893
-104351
-102850
-101099
-99486.6
-97818.7
-96262.9
-94510.1
-92990.6
-91245.1
-89610.9
-87685.8
-85909.3
-83797.9
-81948
-79631.5
-77455.9
-75004.4
-72676.5
-69734.4
-66907.6
-63494.9
-60034
-55959.5
-51881.6
-47247.7
-42618.6
-37659.2
-32538.4
-27211.1
-21735.3
-15941.4
-10116
-3283.62
-7.18742e+06
-1.95296e+06
-880810
-194608
-90384.8
-81053.3
-95446
-102365
-106666
-107384
-107291
-105739
-104639
-102683
-101399
-99324.1
-98130.7
-96053.4
-94829.9
-92762.5
-91576.3
-89355.3
-88028.6
-85631.3
-84153.6
-81634
-79937.5
-77136.5
-75344.5
-72320
-70058.8
-66539.2
-63817.3
-59647.5
-56292.3
-51497.8
-47584.8
-42250.5
-37973
-32150.2
-27526.6
-21380.1
-16375.6
-10133
-5290.15
)
;

boundaryField
{
    AirInlet
    {
        type            calculated;
        value           uniform -1.39217e+07;
    }
    WaterInlet
    {
        type            calculated;
        value           nonuniform List<scalar> 10(-8.06331e+07 5.78646e+07 1.00683e+08 5.83721e+07 -9.27684e+07 -9.27719e+07 5.83685e+07 1.0068e+08 5.7861e+07 -8.06366e+07);
    }
    ChannelWall
    {
        type            calculated;
        value           nonuniform List<scalar> 
110
(
-9.27684e+07
-2.45079e+06
-549661
4.14816e+06
1.1654e+07
-9.27719e+07
-2.4539e+06
-552151
4.1468e+06
1.16539e+07
-8.06366e+07
-1.49396e+07
-2.08576e+06
-2.70107e+06
-8.71825e+06
-7.18742e+06
-1.95296e+06
-880810
-194608
-90384.9
-81053.4
-95446.1
-102366
-106666
-107384
-107291
-105739
-104639
-102683
-101399
-99324.2
-98130.8
-96053.5
-94829.9
-92762.5
-91576.3
-89355.4
-88028.6
-85631.4
-84153.7
-81634
-79937.6
-77136.5
-75344.5
-72320
-70058.8
-66539.3
-63817.3
-59647.6
-56292.4
-51497.8
-47584.9
-42250.5
-37973
-32150.3
-27526.7
-21380.2
-16375.6
-10133
-5290.2
-8.06331e+07
-1.49364e+07
-2.08336e+06
-2.6995e+06
-8.71736e+06
-7.18676e+06
-1.95252e+06
-880425
-194268
-90055.3
-80822.6
-95279.7
-102333
-106721
-107505
-107426
-105884
-104746
-102775
-101460
-99378.4
-98157.7
-96073.6
-94833.8
-92779.9
-91580.2
-89387.2
-88077.2
-85722
-84257.9
-81763.1
-80066.2
-77281.4
-75494.5
-72498.4
-70243.8
-66767.7
-64056.7
-59924.6
-56572.5
-51813.7
-47911.4
-42589.9
-38297
-32435
-27759.7
-21499.9
-16407.6
-9959.09
-5042.62
)
;
    }
    Outlet
    {
        type            calculated;
        value           nonuniform List<scalar> 
11
(
-0.044145
-0.132435
-0.220725
-0.308996
-0.395464
-0.348797
-0.580971
-0.671943
-0.760274
-0.848565
-0.936855
)
;
    }
    FrontAndBack
    {
        type            empty;
    }
}


// ************************************************************************* //
