/*--------------------------------*- C++ -*----------------------------------*\
| =========                 |                                                 |
| \\      /  F ield         | OpenFOAM: The Open Source CFD Toolbox           |
|  \\    /   O peration     | Version:  2.3.0                                 |
|   \\  /    A nd           | Web:      www.OpenFOAM.org                      |
|    \\/     M anipulation  |                                                 |
\*---------------------------------------------------------------------------*/
FoamFile
{
    version     2.0;
    format      ascii;
    class       volScalarField;
    location    "2.1001";
    object      alpha.water;
}
// * * * * * * * * * * * * * * * * * * * * * * * * * * * * * * * * * * * * * //

dimensions      [0 0 0 0 0 0 0];

internalField   nonuniform List<scalar> 
18816
(
0.552451
0.514298
0.523839
0.527735
0.53142
0.531965
0.532541
0.53117
0.534002
0.539038
0.545857
0.553509
0.562362
0.573559
0.586098
0.59984
0.613674
0.627255
0.639259
0.649785
0.654834
0.659987
0.65064
0.640042
0.617869
0.581751
0.544274
0.544712
0.554447
0.54255
0.552447
0.555938
0.55794
0.556747
0.556669
0.563019
0.573425
0.583246
0.592473
0.605765
0.628857
0.649825
0.671936
0.693246
0.712384
0.729668
0.742598
0.750766
0.753929
0.754858
0.743538
0.727601
0.696032
0.647119
0.571871
0.563122
0.556069
0.578372
0.585153
0.584592
0.588144
0.586755
0.589593
0.601064
0.612738
0.624649
0.645748
0.657903
0.673273
0.695791
0.713538
0.728826
0.741027
0.75053
0.756873
0.760934
0.763215
0.76442
0.760579
0.751989
0.730697
0.688046
0.597822
0.573632
0.558601
0.56595
0.587178
0.592197
0.590749
0.589528
0.595868
0.611529
0.624936
0.64563
0.676685
0.700556
0.712497
0.730817
0.750553
0.769606
0.788259
0.807879
0.827069
0.843046
0.849368
0.852692
0.851652
0.835349
0.790318
0.723942
0.616328
0.578948
0.561288
0.519168
0.578701
0.592791
0.593667
0.594348
0.604137
0.615472
0.632381
0.662744
0.704978
0.741412
0.769401
0.809743
0.860097
0.910018
0.949059
0.971738
0.977482
0.970666
0.950442
0.922537
0.892614
0.874882
0.854413
0.766738
0.63329
0.581423
0.563322
0.519172
0.521425
0.578535
0.584728
0.588688
0.600845
0.619904
0.64154
0.679129
0.731825
0.790563
0.854766
0.923384
0.969105
0.986921
0.991248
0.993306
0.99502
0.995055
0.982347
0.944797
0.883905
0.841393
0.837984
0.788064
0.644268
0.582474
0.564285
0.519313
0.519326
0.55353
0.568159
0.576739
0.591814
0.617922
0.643276
0.690307
0.753672
0.831053
0.905505
0.943616
0.957486
0.952998
0.953765
0.968217
0.990825
0.997259
0.99788
0.979551
0.91897
0.831149
0.7964
0.786655
0.651506
0.582398
0.565024
0.51938
0.519476
0.536587
0.556121
0.568403
0.585563
0.611392
0.645637
0.701777
0.774211
0.860561
0.904687
0.915979
0.911649
0.910114
0.899832
0.90994
0.961321
0.992264
0.999751
0.995808
0.962232
0.864661
0.787873
0.782899
0.651131
0.582233
0.56571
0.519476
0.519496
0.531056
0.551789
0.566511
0.586009
0.611689
0.651048
0.7149
0.7955
0.860879
0.869341
0.877717
0.872655
0.880596
0.876333
0.868038
0.91316
0.976691
0.999886
0.999568
0.98893
0.918696
0.800494
0.770493
0.650047
0.581933
0.566186
0.519389
0.519496
0.529125
0.551619
0.566584
0.58714
0.613995
0.659061
0.731159
0.800646
0.846135
0.826458
0.842521
0.840895
0.848966
0.854139
0.850921
0.863382
0.951537
0.999889
0.999981
0.998202
0.966254
0.837124
0.741722
0.648057
0.581496
0.566459
0.518959
0.519495
0.528061
0.551651
0.56649
0.588096
0.617374
0.672714
0.757398
0.787951
0.814062
0.787337
0.809443
0.810009
0.818566
0.826873
0.817649
0.806711
0.921173
0.99976
1
0.999861
0.991559
0.89655
0.700301
0.645936
0.581415
0.566704
0.518954
0.519903
0.527391
0.551891
0.566444
0.589209
0.62171
0.688693
0.7603
0.76831
0.797188
0.766559
0.787084
0.787894
0.793708
0.800121
0.786289
0.774514
0.90129
0.99963
1
0.999995
0.998995
0.962881
0.753245
0.64526
0.581771
0.567167
0.518994
0.520907
0.526633
0.552224
0.566403
0.590379
0.627863
0.705832
0.750892
0.751783
0.775345
0.810174
0.771588
0.762832
0.767388
0.769988
0.765796
0.772177
0.900676
0.999499
1
1
0.999959
0.995166
0.909075
0.646129
0.582701
0.568244
0.519199
0.521212
0.526565
0.552896
0.566551
0.592023
0.636826
0.712644
0.74559
0.77167
0.751288
0.905259
0.794999
0.735914
0.733243
0.734769
0.789608
0.847164
0.964332
0.999447
1
1
0.999996
0.998704
0.948203
0.647667
0.583688
0.570513
0.519102
0.521645
0.526598
0.553544
0.566946
0.594386
0.646372
0.735841
0.864663
0.917972
0.864082
0.953184
0.805107
0.720343
0.745288
0.78991
0.894734
0.953668
0.99427
0.99995
1
1
1
0.999467
0.95884
0.649114
0.584295
0.573997
0.519199
0.524081
0.527571
0.554497
0.568027
0.597777
0.655596
0.777005
0.980216
0.991292
0.980571
0.974144
0.781934
0.848623
0.906042
0.951819
0.985934
0.996353
0.999749
0.999999
1
1
1
0.999805
0.968031
0.650504
0.584722
0.57761
0.5192
0.525379
0.529894
0.555589
0.56975
0.601989
0.672944
0.846867
0.998477
0.999349
0.998361
0.989082
0.920024
0.968513
0.990761
0.997505
0.999569
0.999926
0.999996
1
1
1
1
0.999945
0.978352
0.652586
0.584723
0.580315
0.519463
0.52436
0.532111
0.557222
0.572619
0.608999
0.69902
0.903913
0.999564
0.999731
0.999549
0.998925
0.993477
0.998646
0.999753
0.999966
0.999997
1
1
1
1
1
1
0.999982
0.985686
0.655318
0.584643
0.58253
0.528371
0.524479
0.5324
0.559251
0.576104
0.620597
0.735918
0.964974
0.999896
0.999785
0.999705
0.999743
0.999815
0.999979
0.999996
0.999999
1
1
1
1
1
1
1
0.999988
0.989093
0.66059
0.584613
0.583507
0.548858
0.531027
0.530847
0.562133
0.582582
0.641211
0.801218
0.998364
0.999953
0.999863
0.999797
0.9998
0.999898
0.999988
0.999998
0.999999
1
1
1
1
1
1
1
0.999989
0.989611
0.673685
0.584736
0.583589
0.560711
0.542364
0.529878
0.565847
0.593342
0.687894
0.902243
0.999976
0.999977
0.99993
0.999865
0.999837
0.999894
0.999986
0.999998
0.999999
1
1
1
1
1
1
1
0.999988
0.98915
0.699854
0.585178
0.582863
0.561834
0.545665
0.529961
0.569365
0.605408
0.73218
0.937493
1
0.999987
0.999964
0.999898
0.999853
0.99984
0.999969
0.999996
0.999999
1
1
1
1
1
1
1
0.999987
0.987956
0.74241
0.586276
0.580143
0.561494
0.545858
0.533768
0.573789
0.621582
0.778144
0.966565
1
0.999998
0.999997
0.99999
0.999975
0.999943
0.999937
0.999978
1
1
1
1
1
1
1
1
0.999987
0.986245
0.80149
0.588491
0.576411
0.559087
0.545042
0.540503
0.578583
0.639646
0.820793
0.991529
1
1
1
1
1
0.999998
0.99998
0.999995
1
1
1
1
1
1
1
1
0.999987
0.984622
0.836286
0.592161
0.576072
0.554205
0.541903
0.547733
0.585159
0.660197
0.856992
0.999182
1
1
1
1
1
1
1
1
1
1
1
1
1
1
1
1
0.999991
0.98412
0.834757
0.593294
0.576599
0.550694
0.542433
0.554737
0.58765
0.6787
0.880122
0.999819
1
1
1
1
1
1
1
1
1
1
1
1
1
1
1
1
0.999997
0.988402
0.821715
0.592843
0.578298
0.545949
0.541145
0.555284
0.586832
0.690735
0.897326
0.999973
1
1
1
1
1
1
1
1
1
1
1
1
1
1
1
1
1
0.995088
0.79932
0.592184
0.620364
0.548439
0.542496
0.559996
0.581983
0.709187
0.945906
1
1
1
1
1
1
1
1
1
1
1
1
1
1
1
1
1
1
0.999532
0.765409
0.590614
0.520911
0.533737
0.523959
0.522804
0.521779
0.523423
0.532574
0.548031
0.565688
0.585533
0.606756
0.628283
0.649611
0.671417
0.69329
0.714496
0.734012
0.751053
0.76436
0.774853
0.779094
0.782108
0.773975
0.763157
0.733575
0.674081
0.590738
0.52237
0.51931
0.533737
0.537494
0.532163
0.54269
0.567935
0.605841
0.647487
0.687644
0.724067
0.754858
0.783945
0.815971
0.846438
0.872148
0.891836
0.905783
0.91662
0.924548
0.929086
0.93026
0.93023
0.925036
0.916017
0.895494
0.846909
0.731833
0.569717
0.533683
0.53931
0.548413
0.548368
0.584354
0.634822
0.694443
0.740834
0.764861
0.770659
0.78632
0.828699
0.856689
0.872475
0.884237
0.89471
0.905285
0.913794
0.919516
0.923753
0.925966
0.911962
0.894577
0.891212
0.882936
0.848067
0.765498
0.615566
0.547651
0.565323
0.561777
0.569344
0.610975
0.675944
0.735805
0.761688
0.7639
0.763436
0.780428
0.808448
0.83183
0.843539
0.850644
0.861186
0.875902
0.892175
0.907124
0.915355
0.918736
0.914134
0.909135
0.896502
0.863173
0.828171
0.760025
0.620941
0.559427
0.61182
0.584729
0.5782
0.633839
0.713875
0.759547
0.763006
0.759349
0.755256
0.773657
0.797819
0.831227
0.858947
0.894497
0.935407
0.966823
0.982937
0.985451
0.982711
0.969809
0.948876
0.923652
0.900676
0.875245
0.829204
0.753858
0.622123
0.566147
0.609391
0.628218
0.598626
0.663557
0.734003
0.754206
0.750199
0.747606
0.757614
0.781822
0.81564
0.873571
0.932565
0.972627
0.987578
0.990473
0.992899
0.996299
0.996908
0.991372
0.967246
0.920771
0.887035
0.863866
0.829253
0.747841
0.620983
0.571162
0.604368
0.623375
0.625151
0.682566
0.731118
0.751947
0.753972
0.74862
0.768467
0.799724
0.843251
0.9115
0.946908
0.958149
0.95084
0.949202
0.960872
0.988358
0.997766
0.999191
0.990663
0.952573
0.886308
0.856369
0.82831
0.743608
0.620113
0.575091
0.598785
0.61459
0.628481
0.678145
0.719582
0.740339
0.748333
0.751488
0.786797
0.81164
0.868135
0.909215
0.921319
0.911393
0.902918
0.89361
0.90128
0.955324
0.990856
0.999866
0.998569
0.981323
0.915421
0.84905
0.830457
0.74074
0.620152
0.578862
0.59359
0.607404
0.625042
0.671085
0.707482
0.724025
0.734797
0.74979
0.784301
0.817721
0.873763
0.870549
0.876841
0.866014
0.868945
0.863768
0.865761
0.906941
0.975651
0.999896
0.999894
0.995329
0.954303
0.86581
0.83179
0.74038
0.620974
0.582784
0.590062
0.601467
0.621391
0.666099
0.69978
0.715835
0.726885
0.746764
0.776757
0.817772
0.862296
0.834441
0.844402
0.838427
0.845749
0.849197
0.846228
0.860745
0.952876
0.999868
0.999996
0.99935
0.982765
0.897974
0.828969
0.739807
0.622399
0.58713
0.589767
0.595578
0.618084
0.662116
0.693151
0.709229
0.720751
0.743926
0.797835
0.823874
0.842311
0.823411
0.822348
0.810894
0.814129
0.827497
0.819292
0.816539
0.927579
0.999686
1
0.999961
0.996254
0.937464
0.791045
0.741334
0.624623
0.591667
0.590631
0.594954
0.615385
0.65798
0.687453
0.708381
0.714844
0.74762
0.812325
0.81659
0.831344
0.851595
0.835404
0.798192
0.806635
0.815911
0.805732
0.809018
0.912712
0.999484
1
0.999999
0.999659
0.979808
0.822638
0.742152
0.627876
0.596022
0.594676
0.596642
0.6131
0.653867
0.684965
0.70846
0.711259
0.753511
0.803717
0.807412
0.806665
0.900512
0.84136
0.779841
0.773456
0.774619
0.791706
0.805386
0.920778
0.999315
1
1
0.999996
0.998924
0.957328
0.742923
0.630791
0.599598
0.602995
0.602842
0.611242
0.653424
0.684995
0.710348
0.708311
0.755234
0.816789
0.854426
0.80636
0.948397
0.862307
0.775334
0.758313
0.759575
0.833317
0.884937
0.974314
0.999676
1
1
1
0.999759
0.978792
0.74304
0.630512
0.601717
0.610085
0.613642
0.611253
0.653971
0.686261
0.710448
0.705425
0.773294
0.917968
0.956764
0.902955
0.973581
0.854486
0.798557
0.802817
0.832116
0.920975
0.967364
0.996202
0.999971
1
1
1
0.999887
0.982051
0.741756
0.62988
0.603399
0.610776
0.618428
0.611785
0.65646
0.691179
0.711354
0.705958
0.80491
0.989443
0.99682
0.988296
0.986902
0.833573
0.906832
0.9386
0.965613
0.990561
0.997425
0.999832
0.999999
1
1
1
0.999956
0.985664
0.742868
0.629243
0.605462
0.609858
0.618079
0.613152
0.662697
0.699319
0.71155
0.712391
0.863981
0.999491
0.999745
0.999124
0.996081
0.96409
0.98344
0.995678
0.99886
0.99978
0.999956
0.999997
1
1
1
1
0.999986
0.989941
0.747921
0.628692
0.6063
0.608137
0.617879
0.616321
0.674162
0.707965
0.713047
0.731335
0.924568
0.999815
0.99986
0.999656
0.999525
0.998042
0.999476
0.999894
0.999985
0.999998
1
1
1
1
1
1
0.999994
0.992561
0.757125
0.628989
0.607533
0.606054
0.619153
0.624068
0.689202
0.715649
0.717902
0.760513
0.978807
0.999955
0.999917
0.999786
0.999782
0.9998
0.999959
0.999992
0.999998
1
1
1
1
1
1
1
0.999995
0.993228
0.766976
0.629813
0.610643
0.602497
0.620836
0.637409
0.704411
0.724183
0.729532
0.818541
0.999416
0.99999
0.999962
0.999889
0.999831
0.999822
0.999961
0.999992
0.999998
1
1
1
1
1
1
1
0.999996
0.993033
0.772507
0.630896
0.616304
0.595655
0.622901
0.656238
0.716244
0.733689
0.762121
0.91665
0.999988
0.999995
0.999979
0.999932
0.99987
0.999829
0.999948
0.999992
0.999998
1
1
1
1
1
1
1
0.999996
0.992643
0.776838
0.632522
0.619651
0.589265
0.623636
0.671261
0.724546
0.741165
0.796969
0.952319
0.999993
0.999992
0.999977
0.999928
0.999886
0.999832
0.999958
0.999995
1
1
1
1
1
1
1
1
0.999997
0.991868
0.790285
0.633264
0.619133
0.589072
0.626018
0.68436
0.731488
0.749116
0.835666
0.979509
0.999999
0.999999
0.999998
0.999994
0.999988
0.99996
0.999942
0.999978
1
1
1
1
1
1
1
1
0.999998
0.991124
0.822386
0.633342
0.617318
0.592119
0.631085
0.694737
0.737449
0.757524
0.871442
0.99748
1
1
1
1
1
0.999999
0.999983
0.999995
1
1
1
1
1
1
1
1
0.999999
0.990774
0.858414
0.633562
0.613723
0.604751
0.638894
0.704974
0.74391
0.771563
0.907224
0.999889
1
1
1
1
1
1
0.999994
0.999998
1
1
1
1
1
1
1
1
0.999999
0.991535
0.866991
0.633589
0.605902
0.636951
0.65913
0.71511
0.74712
0.787822
0.921461
0.999958
1
1
1
1
1
1
0.999998
0.999999
1
1
1
1
1
1
1
1
1
0.995749
0.864535
0.633109
0.594955
0.637347
0.66611
0.713906
0.746951
0.796075
0.9179
0.999995
1
1
1
1
1
1
0.999999
0.999999
1
1
1
1
1
1
1
1
1
0.998812
0.857683
0.6328
0.597119
0.618006
0.655745
0.700289
0.741608
0.812109
0.960119
1
1
1
1
1
1
1
1
1
1
1
1
1
1
1
1
1
1
0.999938
0.833317
0.631745
0.52203
0.525746
0.544473
0.561087
0.577312
0.59298
0.608852
0.627234
0.648021
0.670097
0.692531
0.714723
0.736185
0.757139
0.776851
0.794794
0.810443
0.823636
0.833703
0.841441
0.844278
0.846032
0.839798
0.831244
0.806485
0.752287
0.672816
0.563264
0.543123
0.638306
0.686004
0.701395
0.728629
0.754336
0.777872
0.803846
0.828797
0.851692
0.872842
0.894069
0.915833
0.934194
0.949611
0.961813
0.97071
0.977139
0.981333
0.983999
0.984883
0.984921
0.98263
0.978305
0.96662
0.933673
0.847465
0.681374
0.602899
0.725789
0.768057
0.80017
0.838129
0.865639
0.892391
0.913337
0.924732
0.929291
0.935611
0.946862
0.956634
0.963494
0.967995
0.971439
0.974354
0.976268
0.977117
0.976492
0.974497
0.968279
0.961063
0.955808
0.956088
0.943823
0.897064
0.749625
0.650298
0.785072
0.808311
0.841828
0.872176
0.896641
0.917528
0.924477
0.923855
0.922014
0.92426
0.932684
0.935261
0.9319
0.929961
0.93526
0.944907
0.955845
0.963286
0.968583
0.971427
0.966879
0.962049
0.950376
0.920029
0.920611
0.892497
0.764877
0.680001
0.775433
0.837571
0.873994
0.896114
0.915785
0.92645
0.922627
0.914411
0.901022
0.89376
0.892584
0.900254
0.915144
0.940115
0.966916
0.984575
0.991821
0.994449
0.99528
0.993131
0.984904
0.971928
0.95545
0.906573
0.897172
0.880612
0.774695
0.696491
0.756751
0.815794
0.860943
0.880412
0.906084
0.915175
0.903793
0.887364
0.876301
0.874114
0.875449
0.915062
0.951931
0.978814
0.987071
0.987844
0.990387
0.996828
0.99851
0.998734
0.991308
0.971459
0.950683
0.923361
0.886627
0.868791
0.772961
0.708648
0.739953
0.786049
0.823719
0.853161
0.883802
0.89101
0.882256
0.876104
0.879388
0.882552
0.877818
0.929344
0.951822
0.958434
0.945534
0.940725
0.95099
0.983132
0.997419
0.999856
0.998276
0.986406
0.955086
0.925319
0.88783
0.859532
0.772179
0.71891
0.726244
0.760016
0.786547
0.824675
0.85714
0.86399
0.861133
0.864678
0.876537
0.881004
0.883805
0.917969
0.919912
0.900782
0.893631
0.88585
0.90097
0.948347
0.990157
0.999936
0.999802
0.995264
0.967938
0.923979
0.894043
0.860274
0.772327
0.728569
0.713877
0.741493
0.763327
0.806653
0.838155
0.841384
0.83954
0.853714
0.861108
0.862418
0.88871
0.872004
0.871895
0.867396
0.872023
0.867644
0.877904
0.90755
0.977528
0.999937
0.999986
0.998953
0.984595
0.939244
0.904488
0.863776
0.773545
0.737411
0.702549
0.727114
0.750316
0.796733
0.826168
0.829055
0.83209
0.842655
0.828505
0.837868
0.860735
0.871864
0.870135
0.872832
0.882478
0.88813
0.859377
0.876654
0.961449
0.999844
0.999999
0.999852
0.994237
0.956979
0.920006
0.868097
0.775181
0.745946
0.698163
0.711132
0.741454
0.788955
0.816446
0.827067
0.825152
0.82975
0.841546
0.843928
0.845885
0.922426
0.892561
0.86934
0.875494
0.892067
0.885324
0.865002
0.947488
0.999716
1
0.999991
0.998731
0.97262
0.89743
0.874314
0.77742
0.754072
0.698247
0.707479
0.735674
0.779946
0.813178
0.828148
0.817016
0.822024
0.856618
0.875619
0.860553
0.958614
0.925094
0.886201
0.902414
0.901525
0.901478
0.897881
0.940605
0.999583
1
1
0.999885
0.99086
0.908015
0.878719
0.780577
0.761216
0.699756
0.709906
0.730958
0.773585
0.813048
0.830336
0.808966
0.812125
0.867982
0.911247
0.860591
0.970419
0.91795
0.892327
0.890324
0.884441
0.900267
0.891737
0.953216
0.999494
1
1
0.999999
0.99965
0.983973
0.883772
0.783852
0.766416
0.702411
0.716809
0.72533
0.77355
0.814283
0.83473
0.799094
0.808797
0.920174
0.948437
0.888543
0.980316
0.906102
0.904897
0.898545
0.880165
0.925918
0.944553
0.987082
0.999855
1
1
1
0.999886
0.990612
0.886227
0.783322
0.769365
0.702633
0.727204
0.722918
0.775295
0.818245
0.833526
0.786794
0.819714
0.966672
0.983874
0.940944
0.989266
0.898929
0.923052
0.907468
0.915081
0.96279
0.984604
0.998329
0.999989
1
1
1
0.999941
0.991602
0.886072
0.782277
0.771671
0.700294
0.732971
0.723277
0.781223
0.82593
0.830726
0.778164
0.837085
0.995105
0.998406
0.991418
0.995678
0.904071
0.968643
0.97343
0.982025
0.995371
0.998635
0.999925
1
1
1
1
0.999974
0.99263
0.887713
0.781217
0.774768
0.693991
0.733182
0.725473
0.793622
0.837197
0.823288
0.775255
0.879093
0.999573
0.999768
0.998857
0.998849
0.987662
0.994347
0.998352
0.999374
0.999877
0.999964
0.999998
1
1
1
1
0.999991
0.993637
0.893754
0.781492
0.777729
0.687191
0.731203
0.731927
0.810868
0.84112
0.810742
0.788008
0.938779
0.999864
0.999904
0.99967
0.999686
0.999342
0.999758
0.999934
0.999983
0.999997
0.999999
1
1
1
1
1
0.999997
0.99418
0.903653
0.782333
0.781105
0.682216
0.727266
0.746883
0.8281
0.840042
0.810472
0.808776
0.988179
0.99996
0.999951
0.9998
0.999793
0.999766
0.999924
0.999984
0.999997
1
1
1
1
1
1
1
0.999997
0.994305
0.905991
0.783763
0.786381
0.677655
0.726931
0.767219
0.837311
0.836272
0.8148
0.849412
0.999809
0.999993
0.999979
0.999908
0.999856
0.999795
0.999924
0.999984
0.999996
1
1
1
1
1
1
1
0.999998
0.994313
0.900969
0.785272
0.792556
0.673272
0.729777
0.789512
0.840935
0.835593
0.831834
0.935327
0.999996
0.999998
0.99999
0.999961
0.999903
0.99982
0.999903
0.999982
0.999996
1
1
1
1
1
1
1
0.999999
0.994331
0.878773
0.787653
0.79472
0.674867
0.732741
0.802265
0.842344
0.835505
0.855211
0.96807
0.999995
0.999996
0.999989
0.999959
0.999926
0.999836
0.999951
0.999994
1
1
1
1
1
1
1
1
0.999999
0.994367
0.860477
0.787405
0.792904
0.680927
0.738565
0.811538
0.843141
0.836194
0.884525
0.989809
1
1
1
0.999998
0.999995
0.999973
0.999949
0.99998
1
1
1
1
1
1
1
1
1
0.99448
0.865286
0.785007
0.787806
0.696618
0.74907
0.819264
0.843706
0.838702
0.912426
0.999361
1
1
1
1
1
1
0.999983
0.999993
1
1
1
1
1
1
1
1
1
0.995275
0.880983
0.78039
0.775568
0.73258
0.762569
0.827975
0.845018
0.846474
0.941101
0.99999
1
1
1
1
1
1
0.999983
0.999991
1
1
1
1
1
1
1
1
1
0.997281
0.901372
0.777704
0.752002
0.79838
0.793158
0.833191
0.84666
0.859842
0.95076
0.999998
1
1
1
1
1
1
0.999993
0.999997
1
1
1
1
1
1
1
1
1
0.998908
0.914954
0.776887
0.716083
0.804079
0.799578
0.830289
0.846515
0.866536
0.939003
1
1
1
1
1
1
1
0.999997
0.999999
1
1
1
1
1
1
1
1
1
0.999783
0.915774
0.7765
0.676427
0.776546
0.78075
0.809989
0.841644
0.88136
0.980683
1
1
1
1
1
1
1
1
1
1
1
1
1
1
1
1
1
1
0.999988
0.90517
0.775315
0.518618
0.538501
0.571133
0.595734
0.619177
0.64149
0.662548
0.683734
0.705223
0.726921
0.748435
0.76934
0.789198
0.808184
0.825685
0.840956
0.853812
0.864152
0.871602
0.877077
0.878776
0.879788
0.874922
0.868286
0.847798
0.800228
0.728754
0.586702
0.580494
0.742527
0.787033
0.806998
0.833964
0.857684
0.877335
0.896791
0.914569
0.930386
0.94466
0.957824
0.96944
0.978381
0.985131
0.989887
0.993046
0.995196
0.996592
0.997385
0.997572
0.997035
0.996135
0.994396
0.990179
0.974001
0.918263
0.736727
0.673243
0.847774
0.885183
0.910649
0.93703
0.952186
0.965192
0.97418
0.979099
0.981375
0.983435
0.985772
0.988033
0.98976
0.990794
0.991559
0.992185
0.992521
0.993032
0.993549
0.993744
0.990457
0.986906
0.979617
0.980051
0.976037
0.957837
0.811313
0.736481
0.903267
0.916758
0.943036
0.959418
0.969353
0.976224
0.978721
0.979089
0.978917
0.978232
0.97738
0.973375
0.96958
0.968097
0.972876
0.979971
0.986646
0.990973
0.994134
0.995893
0.994438
0.990799
0.983026
0.948409
0.959649
0.953847
0.835254
0.773321
0.900434
0.943176
0.961027
0.971179
0.976641
0.979126
0.977501
0.973109
0.965075
0.955808
0.94783
0.943845
0.955211
0.972742
0.98757
0.994371
0.996523
0.99842
0.999282
0.99959
0.998401
0.994397
0.984834
0.936559
0.939364
0.945397
0.848607
0.79321
0.887119
0.933375
0.960763
0.969697
0.973936
0.97441
0.962971
0.951055
0.941904
0.936775
0.93432
0.950332
0.970545
0.982885
0.983888
0.981029
0.983476
0.995598
0.99939
0.999925
0.999248
0.994919
0.983661
0.959737
0.927934
0.937554
0.85265
0.807084
0.87271
0.914114
0.949902
0.959956
0.964308
0.959908
0.95033
0.946414
0.942928
0.938077
0.929155
0.950485
0.96116
0.957631
0.938232
0.930502
0.942241
0.978832
0.996986
0.99997
0.999896
0.998073
0.987622
0.962795
0.929589
0.931727
0.855424
0.817898
0.859797
0.892613
0.923972
0.938333
0.94529
0.940738
0.938152
0.94001
0.939307
0.931456
0.912058
0.925665
0.922897
0.907756
0.894446
0.885629
0.900942
0.949838
0.991686
0.999973
0.99999
0.999391
0.992216
0.969069
0.937836
0.93264
0.85716
0.827863
0.847991
0.873699
0.900042
0.919793
0.928944
0.922329
0.919926
0.929643
0.918824
0.902695
0.894455
0.894212
0.880514
0.894051
0.884623
0.881332
0.886234
0.923666
0.984308
0.999939
0.999999
0.999867
0.996504
0.97848
0.952456
0.935414
0.858939
0.836547
0.838124
0.858331
0.883785
0.908776
0.91686
0.911442
0.911287
0.914284
0.872393
0.87076
0.851986
0.929806
0.898545
0.920903
0.907359
0.922147
0.908308
0.916869
0.977234
0.999886
1
0.99998
0.998676
0.985509
0.964973
0.938248
0.860398
0.844189
0.830649
0.841865
0.872086
0.900021
0.908228
0.911295
0.903602
0.890657
0.859812
0.93242
0.863008
0.976792
0.939448
0.96433
0.963802
0.964633
0.966238
0.947834
0.973591
0.999828
1
0.999999
0.999698
0.990494
0.955219
0.941709
0.861902
0.851175
0.824782
0.831337
0.864944
0.889784
0.907285
0.912839
0.893744
0.872397
0.89688
0.971214
0.906085
0.991968
0.965029
0.973387
0.977015
0.970748
0.973436
0.969422
0.972023
0.999782
1
1
0.999972
0.996791
0.95977
0.943937
0.863939
0.857693
0.820612
0.832419
0.85897
0.884847
0.907717
0.916741
0.882629
0.86276
0.95756
0.98093
0.944859
0.994777
0.96734
0.975781
0.975362
0.966047
0.973607
0.967719
0.981183
0.99976
1
1
0.999999
0.999783
0.991514
0.946943
0.865837
0.863334
0.817042
0.836564
0.851305
0.885281
0.909958
0.919115
0.868516
0.855834
0.980384
0.986895
0.954884
0.994565
0.956229
0.979963
0.975081
0.964625
0.981858
0.982369
0.995015
0.999944
1
1
1
0.999903
0.993862
0.949992
0.866452
0.867351
0.812047
0.843533
0.848194
0.888062
0.914348
0.915868
0.852266
0.866048
0.989116
0.993138
0.96238
0.995643
0.951915
0.987256
0.978449
0.977888
0.990549
0.994075
0.999214
0.999995
1
1
1
0.999953
0.994516
0.951558
0.866452
0.870468
0.805055
0.848826
0.848621
0.894976
0.921031
0.908121
0.841777
0.876893
0.996021
0.998231
0.986223
0.99841
0.950601
0.994244
0.992031
0.992917
0.998228
0.998946
0.999922
1
1
1
1
0.999981
0.995028
0.953709
0.866563
0.874031
0.796689
0.849243
0.852005
0.906713
0.922908
0.892487
0.830787
0.902916
0.999124
0.999589
0.997347
0.999266
0.992503
0.99819
0.999045
0.999347
0.999836
0.999903
0.999992
1
1
1
1
0.999994
0.995436
0.957532
0.866891
0.878392
0.78764
0.847403
0.860867
0.917373
0.919552
0.870663
0.840551
0.955054
0.999714
0.999885
0.99935
0.999672
0.999453
0.999795
0.999875
0.999929
0.99998
0.999992
0.999999
1
1
1
1
0.999998
0.995724
0.960348
0.867455
0.881375
0.786721
0.847257
0.875993
0.921669
0.906671
0.860103
0.857752
0.994617
0.999897
0.999956
0.999711
0.999782
0.999683
0.999901
0.999962
0.999987
0.999999
1
1
1
1
1
1
0.999999
0.995942
0.960107
0.86835
0.883545
0.787769
0.848825
0.891715
0.920059
0.887386
0.862181
0.885845
0.999944
0.999991
0.999982
0.999908
0.999874
0.999785
0.999885
0.999979
0.999995
1
1
1
1
1
1
1
0.999999
0.996137
0.955282
0.86925
0.885278
0.78907
0.85507
0.902159
0.913314
0.880368
0.876709
0.956898
0.999998
0.999999
0.999994
0.999973
0.999924
0.999827
0.999867
0.999972
0.999994
1
1
1
1
1
1
1
1
0.996354
0.93617
0.870348
0.887536
0.795455
0.858592
0.901908
0.906034
0.880677
0.899204
0.981622
0.999998
0.999998
0.999997
0.999982
0.999959
0.999848
0.999951
0.999992
0.999999
1
1
1
1
1
1
1
1
0.996587
0.910755
0.870169
0.887335
0.809627
0.863762
0.902066
0.900987
0.883014
0.925118
0.995608
1
1
1
1
0.999998
0.999983
0.999956
0.99998
1
1
1
1
1
1
1
1
1
0.997139
0.908077
0.869073
0.885966
0.836612
0.872123
0.903077
0.898604
0.887239
0.944228
0.999835
1
1
1
1
1
1
0.999977
0.999986
1
1
1
1
1
1
1
1
1
0.998138
0.915909
0.866837
0.881178
0.881536
0.88142
0.904627
0.89914
0.894757
0.963359
0.999999
1
1
1
1
1
1
0.99996
0.999976
1
1
1
1
1
1
1
1
1
0.999068
0.937564
0.865584
0.869441
0.927738
0.900526
0.90515
0.900387
0.905586
0.966577
1
1
1
1
1
1
1
0.999982
0.999992
1
1
1
1
1
1
1
1
1
0.999674
0.947529
0.865088
0.846145
0.928246
0.902346
0.902917
0.9004
0.910004
0.957123
1
1
1
1
1
1
1
0.999993
0.999996
1
1
1
1
1
1
1
1
1
0.999937
0.945022
0.864704
0.808019
0.90235
0.881876
0.884576
0.898693
0.922224
0.994095
1
1
1
1
1
1
1
0.999999
1
1
1
1
1
1
1
1
1
1
0.999992
0.930436
0.864095
0.522328
0.564856
0.607573
0.638541
0.6648
0.68862
0.709782
0.730386
0.75051
0.770345
0.789752
0.808362
0.825852
0.842151
0.856921
0.86961
0.880092
0.888251
0.893815
0.897676
0.898729
0.899399
0.895108
0.889318
0.872014
0.830964
0.76702
0.610941
0.62812
0.823924
0.870546
0.89269
0.91375
0.930562
0.943319
0.955209
0.965426
0.974016
0.981183
0.987013
0.991529
0.99472
0.996868
0.998202
0.998915
0.999202
0.999325
0.999414
0.999428
0.999256
0.998861
0.997822
0.996792
0.989879
0.957832
0.773759
0.734707
0.930963
0.96
0.975253
0.98612
0.990318
0.993129
0.994748
0.995565
0.995943
0.996241
0.996623
0.997102
0.997512
0.997779
0.99801
0.998276
0.998875
0.999326
0.999622
0.999714
0.999138
0.997968
0.995278
0.985886
0.986636
0.981235
0.846457
0.7963
0.965112
0.980884
0.988134
0.989824
0.991733
0.993323
0.993972
0.993988
0.992722
0.991356
0.989528
0.987285
0.985895
0.986006
0.990564
0.994292
0.997122
0.998806
0.999562
0.999825
0.999696
0.9988
0.995382
0.965013
0.971688
0.977474
0.872288
0.833031
0.972237
0.986824
0.988536
0.990878
0.992078
0.99262
0.990429
0.986892
0.981935
0.976894
0.972596
0.97076
0.980367
0.989098
0.993255
0.994349
0.996503
0.99921
0.999867
0.999985
0.999948
0.999347
0.995566
0.962091
0.959432
0.97098
0.885537
0.853058
0.967248
0.982909
0.988236
0.989924
0.989736
0.984779
0.977686
0.972303
0.969278
0.967566
0.966239
0.971882
0.979947
0.982079
0.976366
0.971569
0.977717
0.994229
0.999284
0.999991
0.999981
0.999485
0.995438
0.979419
0.950443
0.965889
0.890134
0.866027
0.960072
0.975473
0.986166
0.987696
0.983615
0.976345
0.97243
0.971603
0.969346
0.966761
0.962678
0.965519
0.966366
0.953832
0.931001
0.922664
0.937972
0.980028
0.997666
0.999991
0.999998
0.999842
0.997215
0.981629
0.950762
0.962206
0.892648
0.874509
0.95235
0.965484
0.9791
0.981095
0.975273
0.970055
0.969508
0.968979
0.963522
0.954609
0.937897
0.930512
0.927693
0.91175
0.893824
0.883025
0.894034
0.958443
0.995196
0.999979
1
0.999955
0.998566
0.987992
0.962346
0.962373
0.894044
0.88125
0.944741
0.954796
0.969354
0.973005
0.967758
0.962149
0.962847
0.963313
0.944066
0.906439
0.881521
0.878797
0.876328
0.859952
0.86577
0.865315
0.871303
0.941712
0.992752
0.999961
1
0.99999
0.999412
0.993196
0.977434
0.963026
0.895029
0.887153
0.937893
0.944704
0.960595
0.966854
0.961274
0.957458
0.958182
0.948991
0.898446
0.867027
0.838262
0.851824
0.826463
0.814071
0.81622
0.821802
0.887303
0.939044
0.991186
0.999944
1
0.999999
0.999796
0.995459
0.980839
0.962896
0.895542
0.892793
0.931742
0.934457
0.953417
0.960946
0.958861
0.95777
0.951516
0.932694
0.858949
0.960354
0.838262
0.999904
0.825911
0.999927
0.816282
0.822846
0.999963
0.941219
0.991158
0.999929
1
1
0.999955
0.997326
0.978673
0.963005
0.895882
0.898603
0.925985
0.924432
0.948861
0.956038
0.959359
0.958887
0.943135
0.916982
1
0.999977
1
0.999984
1
0.999997
1
1
1
1
0.991823
0.999921
1
1
0.999995
0.9991
0.982688
0.963535
0.896497
0.904932
0.921487
0.923976
0.943778
0.955519
0.96109
0.959264
0.932052
0.90006
0.999861
0.999976
0.999892
0.999988
0.99995
0.999994
0.999994
0.999993
0.999957
0.999958
0.995338
0.999919
1
1
1
0.999853
0.99423
0.965569
0.897342
0.911569
0.917541
0.925565
0.939563
0.956525
0.963603
0.958209
0.916507
0.88108
1
0.999983
1
0.999996
1
0.999988
1
1
0.999945
1
0.999013
0.999962
1
1
1
0.999927
0.99535
0.968744
0.897877
0.917512
0.912149
0.929816
0.939814
0.959588
0.964035
0.95196
0.894208
0.866745
0.999961
0.999982
0.999945
0.999988
0.999964
0.999981
0.999957
0.999942
0.999967
0.999989
0.999867
0.999994
1
1
1
0.999968
0.99585
0.971672
0.898105
0.922239
0.905633
0.933673
0.941584
0.963236
0.962728
0.938661
0.878191
0.86741
1
0.999986
1
0.99999
1
0.999986
1
1
0.999992
1
0.99999
0.999999
1
1
1
0.999989
0.996264
0.973035
0.898165
0.926555
0.897343
0.934916
0.945584
0.96434
0.95674
0.917454
0.863306
0.884146
1
0.999987
1
0.999997
1
0.999977
1
1
1
1
0.999998
1
1
1
1
0.999998
0.996603
0.972571
0.89814
0.930698
0.89008
0.935945
0.951701
0.96356
0.942193
0.893457
0.870195
0.938365
0.999981
0.999987
0.999981
1
1
1
1
1
1
1
1
1
1
1
1
0.999999
0.996867
0.972206
0.898178
0.933559
0.890695
0.93818
0.956438
0.95943
0.921285
0.884158
0.88367
0.994055
1
0.999998
1
1
1
0.999939
1
1
0.999995
1
1
1
1
1
1
1
0.997079
0.972797
0.898406
0.935571
0.894235
0.941073
0.956346
0.947215
0.899968
0.885981
0.912188
0.999934
1
0.999931
1
0.999876
1
0.999844
1
1
0.999996
1
1
1
1
1
1
1
0.997262
0.972126
0.898793
0.937495
0.898176
0.944461
0.954597
0.930141
0.900406
0.904697
0.9759
0.999999
0.999999
0.999995
0.999979
0.999936
0.999835
0.999837
0.999959
0.999991
1
1
1
1
1
1
1
1
0.997467
0.964223
0.899365
0.940318
0.907521
0.943838
0.950238
0.91839
0.903066
0.931079
0.99072
1
1
0.999999
0.999993
0.999978
0.999871
0.999955
0.99999
0.999999
1
1
1
1
1
1
1
1
0.99776
0.948723
0.899666
0.944733
0.92318
0.943851
0.94482
0.916209
0.909863
0.956188
0.998315
1
1
1
1
1
0.99999
0.999963
0.999975
0.999999
1
1
1
1
1
1
1
1
0.998325
0.946868
0.899559
0.946841
0.944982
0.945216
0.939474
0.917756
0.916914
0.96777
0.999957
1
1
1
1
1
1
0.999962
0.999968
0.999999
1
1
1
1
1
1
1
1
0.998968
0.953542
0.899331
0.945471
0.967126
0.945908
0.935156
0.920455
0.925417
0.978111
1
1