/*--------------------------------*- C++ -*----------------------------------*\
| =========                 |                                                 |
| \\      /  F ield         | OpenFOAM: The Open Source CFD Toolbox           |
|  \\    /   O peration     | Version:  2.3.0                                 |
|   \\  /    A nd           | Web:      www.OpenFOAM.org                      |
|    \\/     M anipulation  |                                                 |
\*---------------------------------------------------------------------------*/
FoamFile
{
    version     2.0;
    format      ascii;
    class       volScalarField;
    location    "2.1001";
    object      rhom;
}
// * * * * * * * * * * * * * * * * * * * * * * * * * * * * * * * * * * * * * //

dimensions      [1 -3 0 0 0 0 0];

internalField   nonuniform List<scalar> 
18816
(
797.79
778.241
783.129
785.126
787.014
787.293
787.588
786.886
788.337
790.917
794.411
798.332
802.868
808.605
815.031
822.072
829.16
836.119
842.27
847.663
850.25
852.891
848.101
842.671
831.31
812.803
793.6
793.824
798.813
792.717
797.788
799.577
800.602
799.991
799.951
803.205
808.537
813.569
818.297
825.108
836.94
847.684
859.013
869.932
879.739
888.595
895.22
899.405
901.026
901.502
895.702
887.536
871.36
846.297
807.74
803.258
799.644
811.071
814.546
814.259
816.079
815.367
816.821
822.699
828.681
834.784
845.595
851.823
859.698
871.237
880.33
888.164
894.415
899.284
902.535
904.615
905.784
906.401
904.433
900.032
889.122
867.268
821.037
808.643
800.941
804.707
815.584
818.155
817.414
816.788
820.037
828.061
834.931
845.534
861.447
873.678
879.796
889.184
899.296
909.059
918.617
928.67
938.503
946.689
949.928
951.632
951.099
942.745
919.671
885.661
830.52
811.366
802.318
780.736
811.24
818.46
818.909
819.258
824.273
830.081
838.746
854.303
875.944
894.612
908.954
929.625
955.426
981.005
1001.01
1012.63
1015.57
1012.08
1001.72
987.42
972.087
963.002
952.513
907.589
839.211
812.635
803.36
780.738
781.892
811.155
814.328
816.357
822.587
832.352
843.438
862.699
889.7
919.797
952.694
987.854
1011.28
1020.41
1022.63
1023.68
1024.56
1024.58
1018.07
998.826
967.625
945.842
944.095
918.516
844.836
813.173
803.853
780.81
780.817
798.343
805.838
810.234
817.959
831.336
844.328
868.427
900.894
940.544
978.692
998.221
1005.33
1003.03
1003.42
1010.83
1022.41
1025.71
1026.02
1016.63
985.592
940.593
922.788
917.794
848.545
813.134
804.232
780.844
780.893
789.661
799.67
805.963
814.756
827.991
845.538
874.304
911.418
955.663
978.273
984.059
981.841
981.054
975.786
980.965
1007.29
1023.15
1026.98
1024.96
1007.76
957.764
918.419
915.87
848.353
813.05
804.583
780.893
780.903
786.827
797.45
804.994
814.985
828.143
848.31
881.028
922.327
955.827
960.162
964.454
961.861
965.93
963.745
959.495
982.615
1015.17
1027.05
1026.89
1021.44
985.452
924.885
909.513
847.797
812.896
804.827
780.849
780.903
785.837
797.363
805.031
815.564
829.324
852.416
889.358
924.963
948.272
938.189
946.42
945.587
949.722
952.373
950.724
957.109
1002.28
1027.05
1027.1
1026.19
1009.82
943.655
894.771
846.777
812.672
804.967
780.628
780.903
785.292
797.38
804.983
816.054
831.055
859.411
902.803
918.458
931.837
918.144
929.471
929.761
934.145
938.402
933.675
928.071
986.721
1026.99
1027.11
1027.04
1022.79
974.104
873.547
845.69
812.63
805.092
780.626
781.112
784.949
797.503
804.959
816.624
833.278
867.599
904.29
908.394
923.191
907.497
918.014
918.429
921.408
924.694
917.607
911.573
976.533
1026.92
1027.11
1027.11
1026.6
1008.09
900.675
845.344
812.813
805.33
780.646
781.626
784.56
797.673
804.938
817.223
836.43
876.381
899.469
899.926
911.999
929.846
910.074
905.587
907.922
909.254
907.106
910.376
976.218
1026.85
1027.11
1027.11
1027.09
1024.63
980.522
845.789
813.289
805.882
780.751
781.783
784.525
798.017
805.014
818.066
841.023
879.871
896.753
910.116
899.672
978.566
922.07
891.795
890.426
891.208
919.308
948.799
1008.84
1026.83
1027.11
1027.11
1027.11
1026.45
1000.57
846.578
813.795
807.044
780.701
782.004
784.542
798.349
805.216
819.277
845.914
891.757
957.765
985.08
957.467
1003.12
927.249
883.816
896.598
919.462
973.174
1003.37
1024.18
1027.09
1027.11
1027.11
1027.11
1026.84
1006.02
847.319
814.106
808.829
780.751
783.252
785.041
798.837
805.77
821.014
850.64
912.849
1016.97
1022.65
1017.16
1013.86
915.375
949.546
978.968
1002.42
1019.9
1025.24
1026.98
1027.11
1027.11
1027.11
1027.11
1027.01
1010.73
848.031
814.325
810.68
780.751
783.918
786.231
799.397
806.653
823.172
859.529
948.647
1026.33
1026.78
1026.27
1021.52
986.132
1010.98
1022.38
1025.83
1026.89
1027.07
1027.11
1027.11
1027.11
1027.11
1027.11
1027.08
1016.02
849.098
814.325
812.066
780.886
783.396
787.367
800.234
808.123
826.764
872.891
977.877
1026.89
1026.97
1026.88
1026.56
1023.77
1026.42
1026.98
1027.09
1027.11
1027.11
1027.11
1027.11
1027.11
1027.11
1027.11
1027.1
1019.78
850.498
814.284
813.201
785.451
783.456
787.515
801.273
809.909
832.707
891.797
1009.16
1027.06
1027
1026.96
1026.98
1027.02
1027.1
1027.11
1027.11
1027.11
1027.11
1027.11
1027.11
1027.11
1027.11
1027.11
1027.11
1021.52
853.199
814.269
813.702
795.948
786.811
786.719
802.75
813.228
843.269
925.256
1026.27
1027.09
1027.04
1027.01
1027.01
1027.06
1027.11
1027.11
1027.11
1027.11
1027.11
1027.11
1027.11
1027.11
1027.11
1027.11
1027.11
1021.79
859.909
814.332
813.744
802.021
792.62
786.222
804.653
818.741
867.189
977.021
1027.1
1027.1
1027.08
1027.04
1027.03
1027.06
1027.1
1027.11
1027.11
1027.11
1027.11
1027.11
1027.11
1027.11
1027.11
1027.11
1027.1
1021.55
873.317
814.558
813.372
802.597
794.311
786.265
806.455
824.924
889.881
995.083
1027.11
1027.1
1027.09
1027.06
1027.04
1027.03
1027.1
1027.11
1027.11
1027.11
1027.11
1027.11
1027.11
1027.11
1027.11
1027.11
1027.1
1020.94
895.123
815.12
811.978
802.422
794.41
788.216
808.722
833.211
913.433
1009.98
1027.11
1027.11
1027.11
1027.11
1027.1
1027.08
1027.08
1027.1
1027.11
1027.11
1027.11
1027.11
1027.11
1027.11
1027.11
1027.11
1027.1
1020.06
925.396
816.255
810.065
801.189
793.992
791.666
811.179
842.467
935.286
1022.77
1027.11
1027.11
1027.11
1027.11
1027.11
1027.11
1027.1
1027.11
1027.11
1027.11
1027.11
1027.11
1027.11
1027.11
1027.11
1027.11
1027.1
1019.23
943.225
818.136
809.892
798.687
792.384
795.371
814.548
852.997
953.834
1026.69
1027.11
1027.11
1027.11
1027.11
1027.11
1027.11
1027.11
1027.11
1027.11
1027.11
1027.11
1027.11
1027.11
1027.11
1027.11
1027.11
1027.11
1018.97
942.441
818.716
810.162
796.888
792.655
798.96
815.824
862.478
965.686
1027.02
1027.11
1027.11
1027.11
1027.11
1027.11
1027.11
1027.11
1027.11
1027.11
1027.11
1027.11
1027.11
1027.11
1027.11
1027.11
1027.11
1027.11
1021.17
935.759
818.485
811.032
794.457
791.995
799.24
815.405
868.645
974.502
1027.1
1027.11
1027.11
1027.11
1027.11
1027.11
1027.11
1027.11
1027.11
1027.11
1027.11
1027.11
1027.11
1027.11
1027.11
1027.11
1027.11
1027.11
1024.59
924.283
818.148
832.587
795.733
792.688
801.654
812.921
878.1
999.394
1027.11
1027.11
1027.11
1027.11
1027.11
1027.11
1027.11
1027.11
1027.11
1027.11
1027.11
1027.11
1027.11
1027.11
1027.11
1027.11
1027.11
1027.11
1026.87
906.908
817.343
781.629
788.201
783.191
782.599
782.074
782.916
787.605
795.525
804.572
814.741
825.615
836.646
847.574
858.748
869.955
880.821
890.821
899.553
906.371
911.748
913.92
915.465
911.297
905.754
890.597
860.112
817.408
782.377
780.809
788.201
790.126
787.394
792.788
805.724
825.147
846.486
867.062
885.725
901.502
916.406
932.816
948.427
961.601
971.689
978.835
984.388
988.45
990.775
991.377
991.361
988.7
984.079
973.563
948.669
889.704
806.637
788.173
791.056
795.721
795.698
814.137
839.996
870.546
894.316
906.628
909.599
917.623
939.338
953.68
961.768
967.795
973.161
978.58
982.94
985.872
988.043
989.177
982.001
973.093
971.369
967.129
949.262
906.954
830.13
795.33
804.385
802.568
806.446
827.777
861.067
891.739
905.002
906.135
905.897
914.604
928.961
940.942
946.942
950.582
955.984
963.524
971.862
979.522
983.74
985.472
983.114
980.553
974.079
957.002
939.067
904.15
832.884
801.364
828.21
814.329
810.984
839.493
880.503
903.904
905.677
903.803
901.706
911.134
923.515
940.633
954.836
973.052
994.014
1010.11
1018.37
1019.66
1018.25
1011.64
1000.92
987.991
976.218
963.187
939.597
900.99
833.489
804.807
826.966
836.613
821.449
854.72
890.816
901.168
899.114
897.786
902.914
915.318
932.646
962.33
992.558
1013.09
1020.75
1022.23
1023.47
1025.22
1025.53
1022.69
1010.33
986.515
969.229
957.357
939.622
897.906
832.905
807.377
824.392
834.131
835.041
864.46
889.338
900.01
901.048
898.306
908.475
924.491
946.794
981.765
999.907
1005.67
1001.92
1001.08
1007.06
1021.15
1025.97
1026.7
1022.33
1002.81
968.856
953.516
939.138
895.737
832.459
809.39
821.531
829.629
836.747
862.195
883.427
894.062
898.158
899.775
917.867
930.596
959.544
980.594
986.795
981.71
977.367
972.598
976.528
1004.22
1022.43
1027.04
1026.38
1017.54
983.773
949.765
940.239
894.268
832.479
811.322
818.869
825.947
834.985
858.577
877.226
885.703
891.223
898.905
916.588
933.712
962.428
960.781
964.005
958.457
959.959
957.307
958.328
979.428
1014.64
1027.06
1027.06
1024.72
1003.7
958.353
940.921
894.083
832.9
813.332
817.061
822.905
833.114
856.022
873.28
881.507
887.168
897.355
912.723
933.739
956.552
942.28
947.384
944.322
948.074
949.84
948.319
955.758
1002.97
1027.04
1027.11
1026.78
1018.28
974.833
939.476
893.79
833.63
815.559
816.91
819.887
831.419
853.981
869.884
878.121
884.026
895.9
923.523
936.865
946.312
936.628
936.083
930.214
931.872
938.722
934.517
933.107
990.003
1026.95
1027.11
1027.09
1025.19
995.068
920.044
894.572
834.77
817.883
817.353
819.567
830.036
851.862
866.964
877.687
880.999
897.793
930.948
933.133
940.693
951.069
942.773
923.706
928.032
932.785
927.569
929.253
982.386
1026.85
1027.11
1027.11
1026.94
1016.76
936.232
894.991
836.437
820.115
819.425
820.433
828.865
849.754
865.689
877.727
879.162
900.812
926.537
928.43
928.047
976.134
945.825
914.303
911.031
911.627
920.382
927.392
986.518
1026.76
1027.11
1027.11
1027.11
1026.56
1005.25
895.386
837.93
821.947
823.688
823.61
827.914
849.527
865.704
878.695
877.651
901.694
933.235
952.52
927.891
1000.67
956.558
911.993
903.272
903.918
941.704
968.153
1013.95
1026.95
1027.11
1027.11
1027.11
1026.99
1016.24
895.446
837.787
823.033
827.32
829.143
827.919
849.808
866.353
878.746
876.172
910.948
985.078
1004.96
977.386
1013.57
952.551
923.893
926.076
941.088
986.619
1010.39
1025.17
1027.1
1027.11
1027.11
1027.11
1027.05
1017.91
894.788
837.464
823.895
827.675
831.595
828.192
851.083
868.873
879.21
876.446
927.148
1021.7
1025.48
1021.11
1020.4
941.835
979.373
995.65
1009.49
1022.27
1025.79
1027.03
1027.11
1027.11
1027.11
1027.11
1027.09
1019.77
895.358
837.137
824.952
827.204
831.416
828.892
854.278
873.043
879.311
879.742
957.416
1026.85
1026.98
1026.66
1025.1
1008.71
1018.63
1024.9
1026.53
1027
1027.09
1027.11
1027.11
1027.11
1027.11
1027.11
1027.1
1021.96
897.947
836.855
825.381
826.322
831.314
830.516
860.153
877.474
880.078
889.449
988.46
1027.02
1027.04
1026.94
1026.87
1026.11
1026.84
1027.06
1027.1
1027.11
1027.11
1027.11
1027.11
1027.11
1027.11
1027.11
1027.11
1023.3
902.663
837.007
826.013
825.255
831.967
834.485
867.859
881.411
882.565
904.399
1016.25
1027.09
1027.07
1027
1027
1027.01
1027.09
1027.11
1027.11
1027.11
1027.11
1027.11
1027.11
1027.11
1027.11
1027.11
1027.11
1023.64
907.711
837.429
827.606
823.433
832.829
841.321
875.653
885.784
888.524
934.132
1026.81
1027.11
1027.09
1027.05
1027.02
1027.02
1027.09
1027.11
1027.11
1027.11
1027.11
1027.11
1027.11
1027.11
1027.11
1027.11
1027.11
1023.54
910.545
837.984
830.507
819.926
833.887
850.969
881.716
890.655
905.223
984.403
1027.11
1027.11
1027.1
1027.08
1027.04
1027.02
1027.08
1027.11
1027.11
1027.11
1027.11
1027.11
1027.11
1027.11
1027.11
1027.11
1027.11
1023.34
912.764
838.817
832.222
816.652
834.263
858.667
885.97
894.485
923.079
1002.68
1027.11
1027.11
1027.1
1027.07
1027.05
1027.02
1027.09
1027.11
1027.11
1027.11
1027.11
1027.11
1027.11
1027.11
1027.11
1027.11
1027.11
1022.94
919.654
839.197
831.956
816.553
835.484
865.378
889.527
898.559
942.907
1016.61
1027.11
1027.11
1027.11
1027.11
1027.1
1027.09
1027.08
1027.1
1027.11
1027.11
1027.11
1027.11
1027.11
1027.11
1027.11
1027.11
1027.11
1022.56
936.102
839.237
831.026
818.114
838.08
870.696
892.581
902.867
961.239
1025.82
1027.11
1027.11
1027.11
1027.11
1027.11
1027.11
1027.1
1027.11
1027.11
1027.11
1027.11
1027.11
1027.11
1027.11
1027.11
1027.11
1027.11
1022.38
954.563
839.35
829.184
824.587
842.081
875.941
895.892
910.061
979.573
1027.05
1027.11
1027.11
1027.11
1027.11
1027.11
1027.11
1027.11
1027.11
1027.11
1027.11
1027.11
1027.11
1027.11
1027.11
1027.11
1027.11
1027.11
1022.77
958.958
839.363
825.177
841.086
852.451
881.134
897.536
918.392
986.868
1027.09
1027.11
1027.11
1027.11
1027.11
1027.11
1027.11
1027.11
1027.11
1027.11
1027.11
1027.11
1027.11
1027.11
1027.11
1027.11
1027.11
1027.11
1024.93
957.699
839.117
819.568
841.289
856.027
880.518
897.45
922.621
985.043
1027.11
1027.11
1027.11
1027.11
1027.11
1027.11
1027.11
1027.11
1027.11
1027.11
1027.11
1027.11
1027.11
1027.11
1027.11
1027.11
1027.11
1027.11
1026.5
954.189
838.959
820.676
831.378
850.716
873.54
894.712
930.836
1006.68
1027.11
1027.11
1027.11
1027.11
1027.11
1027.11
1027.11
1027.11
1027.11
1027.11
1027.11
1027.11
1027.11
1027.11
1027.11
1027.11
1027.11
1027.11
1027.08
941.703
838.419
782.203
784.107
793.702
802.215
810.529
818.557
826.69
836.108
846.759
858.071
869.566
880.937
891.934
902.671
912.771
921.965
929.984
936.744
941.902
945.867
947.32
948.219
945.025
940.642
927.955
900.185
859.464
803.331
793.01
841.782
866.222
874.108
888.063
901.235
913.294
926.603
939.388
951.119
961.957
972.833
983.985
993.393
1001.29
1007.54
1012.1
1015.4
1017.55
1018.91
1019.37
1019.39
1018.21
1016
1010.01
993.126
948.953
863.849
823.639
886.607
908.265
924.72
944.17
958.266
971.973
982.706
988.544
990.881
994.119
999.884
1004.89
1008.41
1010.71
1012.48
1013.97
1014.95
1015.39
1015.07
1014.04
1010.86
1007.16
1004.47
1004.61
998.327
974.368
898.821
847.926
916.984
928.891
946.065
961.615
974.151
984.853
988.414
988.095
987.152
988.303
992.619
993.94
992.217
991.224
993.939
998.882
1004.49
1008.3
1011.01
1012.47
1010.14
1007.67
1001.68
986.135
986.433
972.028
906.636
863.146
912.044
943.884
962.547
973.881
983.96
989.425
987.466
983.256
976.396
972.674
972.072
976.002
983.632
996.427
1010.16
1019.21
1022.92
1024.27
1024.69
1023.59
1019.38
1012.73
1004.28
979.24
974.423
965.937
911.667
871.595
902.472
932.725
955.859
965.835
978.989
983.648
977.816
969.397
963.729
962.608
963.292
983.59
1002.48
1016.26
1020.49
1020.88
1022.19
1025.49
1026.35
1026.46
1022.66
1012.49
1001.84
987.842
969.02
959.881
910.778
877.824
893.864
917.484
936.786
951.872
967.572
971.266
966.78
963.628
965.31
966.931
964.506
990.908
1002.42
1005.81
999.203
996.739
1002
1018.47
1025.79
1027.04
1026.23
1020.15
1004.1
988.845
969.636
955.136
910.377
883.082
886.84
904.145
917.739
937.276
953.91
957.421
955.956
957.773
963.85
966.138
967.574
985.079
986.075
976.273
972.608
968.621
976.369
1000.64
1022.07
1027.08
1027.01
1024.68
1010.68
988.159
972.819
955.517
910.453
888.032
880.503
894.654
905.842
928.041
944.183
945.837
944.892
952.155
955.944
956.615
970.087
961.527
961.471
959.166
961.536
959.293
964.55
979.74
1015.6
1027.08
1027.1
1026.57
1019.22
995.98
978.172
957.311
911.077
892.562
874.699
887.286
899.175
922.958
938.04
939.52
941.075
946.489
939.238
944.036
955.753
961.455
960.569
961.951
966.893
969.79
955.057
963.91
1007.36
1027.03
1027.11
1027.04
1024.16
1005.07
986.123
959.525
911.915
896.936
872.452
879.097
894.634
918.973
933.059
938.502
937.52
939.876
945.92
947.141
948.144
987.363
972.06
960.162
963.315
971.807
968.352
957.939
1000.2
1026.97
1027.11
1027.11
1026.46
1013.08
974.555
962.71
913.062
901.099
872.495
877.225
891.672
914.357
931.384
939.055
933.351
935.917
953.643
963.379
955.659
1005.91
988.73
968.801
977.109
976.653
976.629
974.786
996.678
1026.9
1027.11
1027.11
1027.05
1022.43
979.978
964.968
914.68
904.76
873.268
878.468
889.255
911.097
931.318
940.176
929.226
930.845
959.466
981.635
955.679
1011.95
985.069
971.94
970.914
967.899
976.009
971.638
1003.14
1026.85
1027.11
1027.11
1027.11
1026.93
1018.9
967.557
916.358
907.424
874.628
882.006
886.372
911.079
931.951
942.428
924.168
929.14
986.209
1000.69
970.001
1017.03
978.998
978.381
975.126
965.709
989.152
998.701
1020.49
1027.04
1027.11
1027.11
1027.11
1027.05
1022.3
968.814
916.087
908.935
874.742
887.332
885.136
911.974
933.981
941.811
917.866
934.734
1010.03
1018.85
996.851
1021.61
975.323
987.683
979.698
983.599
1008.05
1019.22
1026.25
1027.11
1027.11
1027.11
1027.11
1027.08
1022.81
968.735
915.551
910.116
873.543
890.287
885.32
915.011
937.919
940.376
913.444
943.634
1024.6
1026.29
1022.71
1024.9
977.958
1011.04
1013.5
1017.9
1024.74
1026.41
1027.07
1027.11
1027.11
1027.11
1027.11
1027.1
1023.33
969.576
915.008
911.704
870.314
890.395
886.445
921.364
943.692
936.565
911.953
965.159
1026.89
1026.99
1026.53
1026.52
1020.79
1024.21
1026.27
1026.79
1027.05
1027.09
1027.11
1027.11
1027.11
1027.11
1027.11
1027.11
1023.85
972.671
915.149
913.22
866.829
889.381
889.752
930.201
945.702
930.136
918.487
995.742
1027.04
1027.06
1026.94
1026.95
1026.77
1026.99
1027.08
1027.1
1027.11
1027.11
1027.11
1027.11
1027.11
1027.11
1027.11
1027.11
1024.13
977.744
915.58
914.951
864.28
887.364
897.415
939.03
945.149
929.998
929.129
1021.05
1027.09
1027.09
1027.01
1027.01
1026.99
1027.07
1027.1
1027.11
1027.11
1027.11
1027.11
1027.11
1027.11
1027.11
1027.11
1027.11
1024.19
978.941
916.312
917.653
861.943
887.192
907.835
943.75
943.218
932.215
949.951
1027.01
1027.11
1027.1
1027.06
1027.04
1027.01
1027.07
1027.1
1027.11
1027.11
1027.11
1027.11
1027.11
1027.11
1027.11
1027.11
1027.11
1024.2
976.368
917.085
920.818
859.697
888.65
919.258
945.607
942.87
940.944
993.973
1027.11
1027.11
1027.11
1027.09
1027.06
1027.02
1027.06
1027.1
1027.11
1027.11
1027.11
1027.11
1027.11
1027.11
1027.11
1027.11
1027.11
1024.21
964.995
918.306
921.926
860.514
890.169
925.792
946.329
942.825
952.922
1010.75
1027.11
1027.11
1027.11
1027.09
1027.07
1027.03
1027.09
1027.11
1027.11
1027.11
1027.11
1027.11
1027.11
1027.11
1027.11
1027.11
1027.11
1024.22
955.62
918.178
920.996
863.619
893.153
930.544
946.737
943.178
967.942
1021.89
1027.11
1027.11
1027.11
1027.11
1027.11
1027.1
1027.08
1027.1
1027.11
1027.11
1027.11
1027.11
1027.11
1027.11
1027.11
1027.11
1027.11
1024.28
958.084
916.95
918.384
871.66
898.536
934.503
947.027
944.463
982.238
1026.78
1027.11
1027.11
1027.11
1027.11
1027.11
1027.11
1027.1
1027.11
1027.11
1027.11
1027.11
1027.11
1027.11
1027.11
1027.11
1027.11
1027.11
1024.69
966.127
914.584
912.113
890.086
905.452
938.966
947.699
948.445
996.931
1027.11
1027.11
1027.11
1027.11
1027.11
1027.11
1027.11
1027.1
1027.11
1027.11
1027.11
1027.11
1027.11
1027.11
1027.11
1027.11
1027.11
1027.11
1025.72
976.575
913.207
900.038
923.802
921.126
941.639
948.54
955.294
1001.88
1027.11
1027.11
1027.11
1027.11
1027.11
1027.11
1027.11
1027.11
1027.11
1027.11
1027.11
1027.11
1027.11
1027.11
1027.11
1027.11
1027.11
1027.11
1026.55
983.534
912.789
881.633
926.722
924.415
940.152
948.466
958.725
995.857
1027.11
1027.11
1027.11
1027.11
1027.11
1027.11
1027.11
1027.11
1027.11
1027.11
1027.11
1027.11
1027.11
1027.11
1027.11
1027.11
1027.11
1027.11
1027
983.954
912.59
861.313
912.614
914.768
929.75
945.97
966.32
1017.21
1027.11
1027.11
1027.11
1027.11
1027.11
1027.11
1027.11
1027.11
1027.11
1027.11
1027.11
1027.11
1027.11
1027.11
1027.11
1027.11
1027.11
1027.11
1027.11
978.52
911.983
780.454
790.642
807.363
819.968
831.98
843.413
854.203
865.059
876.069
887.187
898.211
908.923
919.098
928.826
937.794
945.618
952.206
957.504
961.321
964.126
964.997
965.515
963.022
959.622
949.124
924.749
888.127
815.34
812.159
895.184
917.988
928.218
942.035
954.189
964.259
974.228
983.337
991.442
998.756
1005.5
1011.45
1016.03
1019.49
1021.93
1023.55
1024.65
1025.37
1025.77
1025.87
1025.59
1025.13
1024.24
1022.08
1013.79
985.23
892.212
859.683
949.112
968.28
981.329
994.846
1002.61
1009.28
1013.88
1016.4
1017.57
1018.62
1019.82
1020.98
1021.86
1022.39
1022.79
1023.11
1023.28
1023.54
1023.81
1023.91
1022.22
1020.4
1016.67
1016.89
1014.83
1005.51
930.429
892.086
977.546
984.458
997.923
1006.32
1011.41
1014.93
1016.21
1016.4
1016.31
1015.96
1015.52
1013.47
1011.52
1010.76
1013.21
1016.85
1020.27
1022.49
1024.11
1025.01
1024.26
1022.4
1018.41
1000.68
1006.44
1003.46
942.696
910.962
976.094
997.995
1007.14
1012.34
1015.14
1016.42
1015.58
1013.33
1009.22
1004.47
1000.38
998.338
1004.16
1013.14
1020.74
1024.23
1025.33
1026.3
1026.74
1026.9
1026.29
1024.24
1019.34
994.604
996.042
999.133
949.538
921.153
969.272
992.973
1007.01
1011.58
1013.76
1014
1008.14
1002.03
997.343
994.715
993.457
1001.66
1012.02
1018.34
1018.86
1017.39
1018.64
1024.86
1026.8
1027.07
1026.73
1024.51
1018.74
1006.48
990.185
995.115
951.61
928.262
961.889
983.104
1001.44
1006.59
1008.82
1006.57
1001.66
999.654
997.868
995.383
990.811
1001.74
1007.21
1005.4
995.462
991.501
997.516
1016.26
1025.57
1027.1
1027.06
1026.12
1020.77
1008.05
991.033
992.129
953.031
933.803
955.272
972.087
988.155
995.513
999.078
996.746
995.421
996.373
996.012
991.99
982.051
989.022
987.604
979.846
973.026
968.508
976.355
1001.41
1022.85
1027.1
1027.11
1026.8
1023.12
1011.26
995.259
992.596
953.921
938.909
949.223
962.395
975.894
986.014
990.703
987.313
986.082
991.061
985.517
977.253
973.031
972.906
965.887
972.823
967.993
966.307
968.818
987.998
1019.07
1027.08
1027.11
1027.04
1025.32
1016.08
1002.75
994.018
954.833
943.359
944.167
954.521
967.563
980.369
984.511
981.735
981.655
983.191
961.726
960.89
951.27
991.144
975.126
986.582
979.643
987.22
980.129
984.515
1015.45
1027.05
1027.11
1027.1
1026.43
1019.69
1009.16
995.47
955.58
947.274
940.337
946.084
961.569
975.883
980.088
981.66
977.718
971.085
955.28
992.484
956.917
1015.22
996.085
1008.83
1008.56
1008.99
1009.81
1000.38
1013.58
1027.02
1027.11
1027.11
1026.96
1022.24
1004.17
997.243
956.35
950.854
937.33
940.689
957.909
970.637
979.605
982.45
972.666
961.728
974.273
1012.36
978.99
1023
1009.19
1013.47
1015.33
1012.12
1013.5
1011.44
1012.78
1027
1027.11
1027.11
1027.1
1025.47
1006.5
998.385
957.394
954.194
935.194
941.244
954.848
968.107
979.826
984.45
966.971
956.79
1005.37
1017.34
998.857
1024.43
1010.38
1014.7
1014.49
1009.71
1013.59
1010.57
1017.47
1026.99
1027.11
1027.11
1027.11
1027
1022.76
999.925
958.367
957.084
933.364
943.368
950.921
968.33
980.974
985.666
959.74
953.241
1017.06
1020.4
1003.99
1024.33
1004.68
1016.84
1014.34
1008.99
1017.82
1018.08
1024.56
1027.08
1027.11
1027.11
1027.11
1027.06
1023.97
1001.49
958.682
959.143
930.805
946.938
949.326
969.755
983.223
984.002
951.413
958.475
1021.53
1023.6
1007.84
1024.88
1002.47
1020.58
1016.07
1015.78
1022.27
1024.08
1026.71
1027.11
1027.11
1027.11
1027.11
1027.09
1024.3
1002.29
958.682
960.739
927.222
949.651
949.545
973.297
986.648
980.033
946.038
964.032
1025.07
1026.2
1020.05
1026.3
1001.8
1024.16
1023.03
1023.48
1026.2
1026.57
1027.07
1027.11
1027.11
1027.11
1027.11
1027.1
1024.56
1003.39
958.739
962.565
922.936
949.864
951.279
979.312
987.61
972.022
940.407
977.366
1026.66
1026.9
1025.75
1026.74
1023.27
1026.18
1026.62
1026.78
1027.03
1027.06
1027.11
1027.11
1027.11
1027.11
1027.11
1027.11
1024.77
1005.35
958.907
964.8
918.299
948.921
955.82
984.774
985.89
960.839
945.41
1004.08
1026.96
1027.05
1026.78
1026.94
1026.83
1027.01
1027.05
1027.08
1027.1
1027.11
1027.11
1027.11
1027.11
1027.11
1027.11
1027.11
1024.92
1006.79
959.195
966.328
917.828
948.846
963.57
986.975
979.29
955.428
954.224
1024.35
1027.06
1027.09
1026.96
1027
1026.95
1027.06
1027.09
1027.1
1027.11
1027.11
1027.11
1027.11
1027.11
1027.11
1027.11
1027.11
1025.03
1006.67
959.654
967.44
918.365
949.65
971.627
986.15
969.408
956.493
968.619
1027.08
1027.11
1027.1
1027.06
1027.05
1027
1027.05
1027.1
1027.11
1027.11
1027.11
1027.11
1027.11
1027.11
1027.11
1027.11
1027.11
1025.13
1004.2
960.116
968.328
919.031
952.849
976.978
982.694
965.812
963.937
1005.03
1027.11
1027.11
1027.11
1027.1
1027.07
1027.02
1027.04
1027.1
1027.11
1027.11
1027.11
1027.11
1027.11
1027.11
1027.11
1027.11
1027.11
1025.24
994.405
960.678
969.485
922.303
954.654
976.849
978.963
965.97
975.464
1017.69
1027.11
1027.11
1027.11
1027.1
1027.09
1027.03
1027.09
1027.11
1027.11
1027.11
1027.11
1027.11
1027.11
1027.11
1027.11
1027.11
1027.11
1025.36
981.382
960.586
969.382
929.565
957.303
976.93
976.377
967.168
988.742
1024.86
1027.11
1027.11
1027.11
1027.11
1027.11
1027.1
1027.09
1027.1
1027.11
1027.11
1027.11
1027.11
1027.11
1027.11
1027.11
1027.11
1027.11
1025.65
980.01
960.025
968.68
943.392
961.587
977.448
975.156
969.333
998.534
1027.03
1027.11
1027.11
1027.11
1027.11
1027.11
1027.11
1027.1
1027.1
1027.11
1027.11
1027.11
1027.11
1027.11
1027.11
1027.11
1027.11
1027.11
1026.16
984.023
958.879
966.227
966.41
966.351
978.243
975.431
973.185
1008.34
1027.11
1027.11
1027.11
1027.11
1027.11
1027.11
1027.11
1027.09
1027.1
1027.11
1027.11
1027.11
1027.11
1027.11
1027.11
1027.11
1027.11
1027.11
1026.63
995.119
958.237
960.213
990.084
976.141
978.51
976.07
978.734
1009.99
1027.11
1027.11
1027.11
1027.11
1027.11
1027.11
1027.11
1027.1
1027.11
1027.11
1027.11
1027.11
1027.11
1027.11
1027.11
1027.11
1027.11
1027.11
1026.94
1000.23
957.983
948.277
990.345
977.074
977.366
976.077
980.997
1005.14
1027.11
1027.11
1027.11
1027.11
1027.11
1027.11
1027.11
1027.11
1027.11
1027.11
1027.11
1027.11
1027.11
1027.11
1027.11
1027.11
1027.11
1027.11
1027.08
998.941
957.786
928.741
977.076
966.585
967.968
975.202
987.259
1024.09
1027.11
1027.11
1027.11
1027.11
1027.11
1027.11
1027.11
1027.11
1027.11
1027.11
1027.11
1027.11
1027.11
1027.11
1027.11
1027.11
1027.11
1027.11
1027.11
991.467
957.474
782.355
804.146
826.034
841.902
855.357
867.562
878.405
888.963
899.274
909.438
919.382
928.917
937.879
946.23
953.799
960.301
965.671
969.852
972.703
974.681
975.221
975.564
973.365
970.399
961.532
940.498
907.734
827.76
836.562
936.891
960.78
972.126
982.917
991.532
998.068
1004.16
1009.4
1013.8
1017.47
1020.46
1022.77
1024.41
1025.51
1026.19
1026.56
1026.7
1026.77
1026.81
1026.82
1026.73
1026.53
1026
1025.47
1021.93
1005.5
911.187
891.177
991.737
1006.62
1014.43
1020
1022.15
1023.59
1024.42
1024.84
1025.03
1025.19
1025.38
1025.63
1025.84
1025.97
1026.09
1026.23
1026.54
1026.77
1026.92
1026.96
1026.67
1026.07
1024.69
1019.88
1020.26
1017.5
948.437
922.737
1009.24
1017.32
1021.03
1021.9
1022.88
1023.69
1024.02
1024.03
1023.38
1022.68
1021.75
1020.6
1019.88
1019.94
1022.28
1024.19
1025.64
1026.5
1026.89
1027.02
1026.96
1026.5
1024.75
1009.18
1012.6
1015.57
961.672
941.558
1012.89
1020.36
1021.24
1022.44
1023.05
1023.33
1022.21
1020.4
1017.85
1015.27
1013.07
1012.13
1017.05
1021.53
1023.66
1024.22
1025.32
1026.71
1027.04
1027.1
1027.08
1026.78
1024.84
1007.69
1006.32
1012.24
968.461
951.819
1010.33
1018.35
1021.08
1021.95
1021.85
1019.31
1015.68
1012.92
1011.37
1010.49
1009.81
1012.7
1016.84
1017.93
1015
1012.54
1015.69
1024.15
1026.74
1027.11
1027.1
1026.85
1024.77
1016.57
1001.72
1009.63
970.817
958.464
1006.65
1014.54
1020.02
1020.81
1018.72
1014.99
1012.98
1012.56
1011.4
1010.08
1007.99
1009.44
1009.88
1003.46
991.757
987.485
995.328
1016.88
1025.92
1027.11
1027.11
1027.03
1025.68
1017.7
1001.88
1007.75
972.105
962.81
1002.7
1009.43
1016.4
1017.42
1014.44
1011.77
1011.49
1011.22
1008.42
1003.85
995.29
991.506
990.062
981.892
972.707
967.174
972.815
1005.82
1024.65
1027.1
1027.11
1027.09
1026.38
1020.96
1007.82
1007.83
972.82
966.264
998.797
1003.95
1011.41
1013.28
1010.59
1007.72
1008.07
1008.31
998.451
979.171
966.403
965.007
963.742
955.352
958.333
958.1
961.167
997.245
1023.4
1027.09
1027.11
1027.11
1026.81
1023.62
1015.55
1008.17
973.325
969.289
995.288
998.778
1006.92
1010.13
1007.27
1005.31
1005.68
1000.97
975.076
958.977
944.238
951.187
938.192
931.842
932.943
935.803
969.366
995.878
1022.59
1027.08
1027.11
1027.11
1027.01
1024.78
1017.29
1008.1
973.587
972.179
992.136
993.528
1003.24
1007.1
1006.03
1005.47
1002.27
992.624
954.837
1006.8
944.237
1027.06
937.909
1027.07
932.975
936.339
1027.09
996.992
1022.58
1027.07
1027.11
1027.11
1027.09
1025.74
1016.18
1008.16
973.762
975.156
989.186
988.39
1000.91
1004.59
1006.29
1006.05
997.974
984.573
1027.11
1027.1
1027.11
1027.1
1027.11
1027.11
1027.11
1027.11
1027.11
1027.11
1022.92
1027.07
1027.11
1027.11
1027.11
1026.65
1018.24
1008.43
974.077
978.399
986.882
988.157
998.303
1004.32
1007.17
1006.24
992.295
975.902
1027.04
1027.1
1027.06
1027.11
1027.09
1027.11
1027.11
1027.11
1027.09
1027.09
1024.72
1027.07
1027.11
1027.11
1027.11
1027.04
1024.15
1009.47
974.51
981.8
984.86
988.971
996.144
1004.84
1008.46
1005.7
984.33
966.177
1027.11
1027.1
1027.11
1027.11
1027.11
1027.11
1027.11
1027.11
1027.08
1027.11
1026.61
1027.09
1027.11
1027.11
1027.11
1027.07
1024.73
1011.1
974.784
984.845
982.097
991.149
996.272
1006.4
1008.68
1002.5
972.904
958.832
1027.09
1027.1
1027.08
1027.11
1027.09
1027.1
1027.09
1027.08
1027.09
1027.11
1027.04
1027.11
1027.11
1027.11
1027.11
1027.09
1024.99
1012.6
974.901
987.267
978.758
993.125
997.179
1008.27
1008.01
995.681
964.697
959.173
1027.11
1027.1
1027.11
1027.11
1027.11
1027.1
1027.11
1027.11
1027.11
1027.11
1027.11
1027.11
1027.11
1027.11
1027.11
1027.11
1025.2
1013.29
974.931
989.478
974.51
993.762
999.229
1008.84
1004.94
984.815
957.07
967.748
1027.11
1027.1
1027.11
1027.11
1027.11
1027.1
1027.11
1027.11
1027.11
1027.11
1027.11
1027.11
1027.11
1027.11
1027.11
1027.11
1025.37
1013.06
974.918
991.601
970.789
994.29
1002.36
1008.44
997.491
972.519
960.6
995.53
1027.1
1027.1
1027.1
1027.11
1027.11
1027.11
1027.11
1027.11
1027.11
1027.11
1027.11
1027.11
1027.11
1027.11
1027.11
1027.11
1025.51
1012.87
974.938
993.067
971.104
995.435
1004.79
1006.32
986.778
967.754
967.504
1024.06
1027.11
1027.11
1027.11
1027.11
1027.11
1027.08
1027.11
1027.11
1027.11
1027.11
1027.11
1027.11
1027.11
1027.11
1027.11
1027.11
1025.61
1013.17
975.055
994.098
972.917
996.917
1004.74
1000.06
975.855
968.688
982.117
1027.08
1027.11
1027.08
1027.11
1027.05
1027.11
1027.03
1027.11
1027.11
1027.11
1027.11
1027.11
1027.11
1027.11