/*--------------------------------*- C++ -*----------------------------------*\
| =========                 |                                                 |
| \\      /  F ield         | OpenFOAM: The Open Source CFD Toolbox           |
|  \\    /   O peration     | Version:  2.3.0                                 |
|   \\  /    A nd           | Web:      www.OpenFOAM.org                      |
|    \\/     M anipulation  |                                                 |
\*---------------------------------------------------------------------------*/
FoamFile
{
    version     2.0;
    format      ascii;
    class       volVectorField;
    location    "2.1001";
    object      U.waterMean;
}
// * * * * * * * * * * * * * * * * * * * * * * * * * * * * * * * * * * * * * //

dimensions      [0 1 -1 0 0 0 0];

internalField   nonuniform List<vector> 
18816
(
(-0.00764535 0.000998101 -0.00142462)
(-0.0155444 0.00265778 5.59246e-05)
(-0.0190414 0.00185597 -0.000184954)
(-0.0166685 0.00254858 8.60072e-05)
(-0.0170483 0.00268807 8.86066e-05)
(-0.0170308 0.00237825 0.000136297)
(-0.0191572 0.00225398 -2.89817e-06)
(-0.0213866 0.00283687 -0.000194184)
(-0.0231511 0.0028662 -0.000372418)
(-0.0262059 0.00331073 -0.000413457)
(-0.0318861 0.00303193 -0.000489374)
(-0.0416197 0.00248882 -0.000474148)
(-0.0488398 0.00382852 -0.000705148)
(-0.0542141 0.00570885 -0.00077302)
(-0.0556744 0.00646291 -0.000905143)
(-0.0513867 0.00755563 -0.0010732)
(-0.0461953 0.00891464 -0.00107239)
(-0.0400268 0.00906281 -0.00104488)
(-0.0315745 0.0086064 -0.00111813)
(-0.0182179 0.00853358 -0.00132909)
(-0.00298199 0.00903652 -0.00137223)
(0.0122908 0.00893184 -0.00134384)
(0.0246047 0.00882337 -0.00122783)
(0.0338577 0.00859663 -0.00118912)
(0.0375975 0.00847732 -0.00109754)
(0.0351246 0.00965285 -0.000941105)
(0.0206333 0.00915319 -0.000702079)
(0.005878 0.00349914 -0.00223589)
(-0.00425097 0.0366939 -0.00106283)
(-0.0108275 0.0247926 3.19067e-06)
(-0.0145553 0.0118149 0.000171711)
(-0.0142417 0.00470208 0.000173957)
(-0.0177224 0.00508931 8.49026e-05)
(-0.0199305 0.00679941 5.19206e-05)
(-0.0228511 0.00997186 -7.72774e-05)
(-0.0252079 0.0139182 -0.000219824)
(-0.0274683 0.0180045 -0.000457332)
(-0.0288231 0.0236599 -0.000738195)
(-0.0308598 0.0310193 -0.00113231)
(-0.0345313 0.0319777 1.4779e-05)
(-0.0382635 0.0268907 3.72793e-05)
(-0.0431582 0.0215048 0.000148584)
(-0.0451116 0.0174623 0.000218391)
(-0.0427903 0.0145247 0.000274981)
(-0.0387185 0.013123 0.000448283)
(-0.0336594 0.0114213 0.000452604)
(-0.027046 0.0112059 0.000388315)
(-0.0171364 0.0115681 0.000303135)
(-0.0055519 0.0131651 0.000383644)
(0.00644065 0.0148677 0.000471335)
(0.0161454 0.0164627 0.000615095)
(0.0247807 0.0185173 0.000647573)
(0.0280622 0.0234896 0.000594119)
(0.027122 0.0303866 0.000357953)
(0.0174573 0.0394414 9.39394e-05)
(0.00502721 0.0441311 -0.00185128)
(-0.000120114 0.0423418 -0.000899825)
(-0.00212506 0.0204963 -0.000762161)
(-0.00818514 0.00304912 -0.000562736)
(-0.0105127 -0.00160321 -0.000679)
(-0.0155316 -0.00068227 -0.00104111)
(-0.0177592 0.00161286 -0.00131288)
(-0.020142 0.00422262 -0.00168171)
(-0.021062 0.00775301 -0.00191247)
(-0.0229394 0.0114186 -0.00205901)
(-0.0237975 0.0195083 -0.00218894)
(-0.0244616 0.0282783 -0.00373473)
(-0.0275609 0.0252099 -0.00127302)
(-0.0297336 0.0220264 0.000133793)
(-0.0325226 0.0177928 0.000136164)
(-0.034048 0.00956811 0.000245102)
(-0.0333554 0.00451219 0.000326081)
(-0.0310585 0.00164464 0.000336448)
(-0.0275983 -0.000348237 0.00028606)
(-0.0221935 -0.00217775 0.000329273)
(-0.0146408 -0.00383393 0.000281239)
(-0.00628574 -0.00378439 0.0002611)
(0.00244495 -0.00296169 0.000225755)
(0.00968381 -0.00161405 0.0002391)
(0.0167598 0.00129972 0.000250983)
(0.0202218 0.00957537 0.000390517)
(0.021155 0.024561 0.00036494)
(0.0103404 0.0389367 0.000275548)
(0.0017228 0.0539396 -0.00150264)
(0.00252308 0.0560019 -0.000153593)
(0.00150658 0.0314261 0.00108115)
(-0.00613713 0.0085448 -1.92604e-05)
(-0.00799511 0.00381202 0.000202266)
(-0.0119252 0.00569794 3.36487e-05)
(-0.0134443 0.00797694 -1.5709e-05)
(-0.0152754 0.0100789 -0.00013008)
(-0.0160233 0.0124808 -6.91214e-05)
(-0.017376 0.0152186 -7.09258e-05)
(-0.0163888 0.0219072 -0.000169705)
(-0.0149653 0.028702 -0.000219633)
(-0.0184665 0.0301894 -0.00333249)
(-0.0224626 0.0241148 8.98738e-05)
(-0.0222279 0.0178242 0.00061046)
(-0.0219136 0.00730639 0.000677741)
(-0.0209416 -0.00130435 0.000688111)
(-0.0202317 -0.00463658 0.000636118)
(-0.0180111 -0.00826803 0.000684947)
(-0.0148424 -0.0114641 0.000755906)
(-0.0104817 -0.0139781 0.000688281)
(-0.00544946 -0.0134283 0.000658426)
(-0.00068324 -0.0116643 0.00048496)
(0.00360509 -0.00869933 0.000370375)
(0.00828741 -0.00471497 0.000290622)
(0.0116471 0.00546231 0.000514833)
(0.0141693 0.027664 0.000417442)
(0.00522727 0.0486999 0.000470376)
(-0.000921957 0.0660811 -0.000444878)
(0.00315913 0.0602623 -6.69698e-05)
(0.00219281 0.0369619 0.00076661)
(-0.00398121 0.0121018 0.00101965)
(-0.00546297 0.00632184 -0.000232462)
(-0.00815018 0.00855769 -0.000329235)
(-0.00970076 0.0106951 -0.000312959)
(-0.0110583 0.0124882 -0.000349241)
(-0.01147 0.012762 7.3428e-05)
(-0.0123904 0.0142276 5.72405e-05)
(-0.0118043 0.0208067 -4.00821e-05)
(-0.0101024 0.026124 -3.34406e-05)
(-0.0118598 0.0263791 -0.00116842)
(-0.0154853 0.0188555 -2.53499e-05)
(-0.0126194 0.00917167 0.000351419)
(-0.0107835 -0.000827672 0.000326822)
(-0.00993383 -0.00888594 0.000276763)
(-0.0114684 -0.0126763 0.000284359)
(-0.0112592 -0.0189487 0.000330131)
(-0.0106501 -0.0233378 0.000404107)
(-0.00877782 -0.0273048 0.000366609)
(-0.00634258 -0.0264011 0.000462167)
(-0.00470494 -0.0227617 0.000307176)
(-0.00189993 -0.017438 0.000154252)
(0.00143843 -0.0124929 5.19692e-05)
(0.00430236 -0.00248477 0.000167639)
(0.00774519 0.0245061 0.000137913)
(0.00246279 0.0506176 0.000262322)
(-0.00119776 0.0691371 -0.000273145)
(0.00406242 0.0624051 0.000107428)
(0.00302545 0.0425731 0.000532165)
(-0.00278367 0.01587 0.000824433)
(-0.00222302 0.011612 0.00129106)
(-0.00454234 0.0121633 0.00157023)
(-0.00622314 0.0141398 0.00175731)
(-0.00750042 0.0149138 0.00174385)
(-0.00821722 0.013645 -5.39253e-05)
(-0.00768939 0.0135908 -1.58194e-05)
(-0.00681929 0.0191268 6.63015e-05)
(-0.00560624 0.023075 0.000222603)
(-0.00596272 0.0215265 -0.000309306)
(-0.00894745 0.0142145 0.000188537)
(-0.00553692 0.00285806 0.000299662)
(-0.00483109 -0.00487972 0.000196391)
(-0.00422851 -0.00991523 0.000116639)
(-0.00695929 -0.0134742 0.00023059)
(-0.00792681 -0.0215944 0.000247452)
(-0.00904825 -0.0271708 0.000353133)
(-0.00892623 -0.0327956 0.000366)
(-0.00777342 -0.0323244 0.000458791)
(-0.00751994 -0.0280225 0.000359945)
(-0.00572527 -0.0217245 0.000260698)
(-0.0027794 -0.0151122 9.80958e-05)
(-0.000638094 -0.0047522 7.5956e-05)
(0.00299151 0.0242845 0.000117955)
(-0.000243649 0.0530094 0.000272295)
(-0.00174052 0.0703445 -1.78903e-05)
(0.00367263 0.0626579 0.000150984)
(0.00383199 0.0439518 0.000457996)
(-0.00103889 0.0173424 0.000377652)
(-0.00203253 0.0138164 0.000949668)
(-0.00559873 0.0136804 0.00107358)
(-0.00790379 0.0145763 0.00120118)
(-0.00982391 0.0148252 0.00132523)
(-0.00767134 0.0117115 0.00214418)
(-0.0056958 0.0112526 0.00176579)
(-0.00404433 0.0155988 0.00157453)
(-0.00240316 0.017846 0.000113022)
(-0.00252503 0.0145548 5.75943e-05)
(-0.00463045 0.0076866 0.000248739)
(-0.00255948 -0.00185197 0.00019558)
(-0.0025703 -0.00677115 2.60015e-05)
(-0.000311789 -0.00913846 -0.000113162)
(-0.00317008 -0.0125818 7.58636e-05)
(-0.0043462 -0.0227669 6.78688e-05)
(-0.00735575 -0.02993 0.00020442)
(-0.00919032 -0.037676 0.000166555)
(-0.00789715 -0.0376018 0.000241916)
(-0.0079597 -0.033219 0.000191086)
(-0.00672634 -0.0271208 0.00014386)
(-0.00431161 -0.0195883 6.99896e-05)
(-0.00286764 -0.00743324 1.78844e-07)
(0.000210304 0.0222763 3.53834e-05)
(-0.00157192 0.0528209 0.000162586)
(-0.00169605 0.0694608 5.55012e-05)
(0.00349084 0.0616791 0.000227374)
(0.00391348 0.0413327 0.000441656)
(-7.20287e-05 0.0190242 0.000190225)
(-0.00148644 0.0136201 0.00050033)
(-0.00488556 0.0128574 0.000555661)
(-0.00727075 0.0130123 0.000598843)
(-0.00978042 0.0132004 0.000636042)
(-0.00950808 0.0120518 0.00125511)
(-0.00693455 0.0124443 0.00112013)
(-0.00509289 0.0167634 0.00103719)
(-0.0013443 0.0137639 0.0001724)
(-0.000593185 0.00938318 7.62341e-07)
(-0.0014393 0.00221563 0.000195196)
(-0.000443056 -0.00427255 0.000117956)
(-0.000482839 -0.00787782 1.54695e-05)
(0.00259578 -0.00850107 -7.33637e-05)
(-0.00107009 -0.0110442 0.00012059)
(-0.000942647 -0.0219723 -6.52355e-05)
(-0.00592802 -0.0282 0.000203417)
(-0.00953713 -0.0385704 6.18387e-05)
(-0.00768906 -0.0395492 0.000154852)
(-0.00752605 -0.0350778 0.000133221)
(-0.00664877 -0.0295814 0.000130049)
(-0.00485558 -0.0223502 9.15936e-05)
(-0.00374718 -0.00831968 5.44474e-05)
(-0.00131972 0.0209372 6.41499e-05)
(-0.00244899 0.0524178 0.000152387)
(-0.00174931 0.0680322 0.000119266)
(0.00357882 0.0593216 0.000248302)
(0.00440635 0.0403233 0.000284212)
(0.00070981 0.0205557 9.34031e-05)
(-0.000713874 0.0129408 0.000191018)
(-0.00353306 0.0117423 0.00026546)
(-0.00604524 0.0115744 0.000304676)
(-0.0092774 0.0110912 0.000285748)
(-0.00956796 0.00843944 0.000373939)
(-0.00769558 0.00957138 0.000278071)
(-0.00555233 0.0147571 0.000267132)
(-0.00124549 0.0130346 0.00135552)
(0.00105706 0.00865123 0.000943825)
(0.00297697 0.00199732 -1.68445e-05)
(0.00375472 -0.0033642 -7.08155e-05)
(0.00241736 -0.00734741 -0.000121946)
(0.00441279 -0.00468772 -0.000242158)
(-0.000648313 -0.007738 -5.17368e-05)
(0.00291252 -0.0114758 -0.000890597)
(-0.003155 -0.022409 0.000180212)
(-0.00924913 -0.0364565 -0.000204179)
(-0.00718511 -0.0403009 -2.04749e-05)
(-0.00670498 -0.0365403 3.38079e-05)
(-0.00623538 -0.0316666 7.3976e-05)
(-0.00492622 -0.0248897 2.51616e-05)
(-0.00368926 -0.00997645 6.23166e-05)
(-0.00169665 0.018689 7.23787e-05)
(-0.00267721 0.0513666 0.000133149)
(-0.00158683 0.0661513 0.000118105)
(0.00371111 0.0571528 0.000234547)
(0.00568787 0.0420075 0.000161889)
(0.00170064 0.0233189 6.2511e-05)
(-0.000138409 0.0141545 8.1929e-05)
(-0.00279808 0.0125927 0.000124764)
(-0.00528296 0.0125572 0.000155444)
(-0.00883513 0.0126363 0.000124173)
(-0.00879966 0.0101334 -6.15663e-05)
(-0.00834141 0.0115979 0.00015712)
(-0.00673995 0.0120422 0.00018384)
(-0.00114382 0.0123098 0.000686919)
(0.00426305 0.00976775 0.000351699)
(0.00819856 -0.00139438 0.000101973)
(0.00888657 -0.00239831 5.55867e-05)
(0.00832704 -0.00831809 0.000105478)
(0.00734655 -0.00427665 0.000127147)
(0.0112902 -0.00613668 7.3771e-05)
(0.00578523 -0.0126745 0.00152858)
(-0.00892241 -0.0187236 0.00044916)
(-0.00998281 -0.0351382 0.000164119)
(-0.00834101 -0.0400884 -6.05195e-05)
(-0.00650126 -0.0371811 5.05088e-05)
(-0.00627523 -0.0323964 3.88451e-05)
(-0.00473387 -0.0259642 2.11602e-05)
(-0.00339452 -0.0116401 0.000135541)
(-0.00165512 0.0169203 8.67874e-05)
(-0.00266987 0.0501812 0.000122796)
(-0.00139398 0.0642038 0.000104996)
(0.00385024 0.0554763 0.00030236)
(0.00624103 0.0446811 0.000192086)
(0.00216879 0.0256703 0.000120798)
(0.000594805 0.0153403 7.68663e-05)
(-0.00182844 0.0135899 5.62e-05)
(-0.00259669 0.0133192 7.76895e-05)
(-0.00562826 0.0131446 0.00018032)
(-0.00419066 0.0105522 2.88326e-05)
(-0.0084733 0.00836986 0.000881783)
(-0.00845491 0.00492834 1.22056e-05)
(-0.00109837 0.00462195 0.000197015)
(0.00328363 0.00398322 -1.17621e-05)
(0.00662373 -0.00405473 1.03325e-05)
(0.00596291 -0.00502937 6.85904e-05)
(0.00491106 -0.00906214 7.69798e-05)
(0.00451529 -0.00909864 0.000138325)
(0.00459487 -0.0107155 0.00017787)
(0.00426868 -0.0186064 0.00024704)
(-0.0029292 -0.0186961 0.000558767)
(-0.0070383 -0.0344226 -0.000200628)
(-0.00594804 -0.0401554 -5.82787e-05)
(-0.0058346 -0.037792 3.94312e-05)
(-0.00604213 -0.0331272 -7.72563e-06)
(-0.00439134 -0.0273335 -5.66335e-06)
(-0.00322034 -0.0150167 0.000117308)
(-0.00130276 0.0154161 9.71422e-05)
(-0.00253199 0.0488785 0.000111666)
(-0.00116749 0.0623657 8.79711e-05)
(0.00349348 0.0531225 0.000358567)
(0.00579088 0.0451018 0.000292814)
(0.00213704 0.0263966 0.000158462)
(0.000923929 0.0163267 8.78861e-05)
(-0.00133151 0.0142885 4.1991e-05)
(-0.000919305 0.0137176 4.35979e-05)
(-0.00319118 0.0125422 0.000231433)
(-0.00296907 0.0101606 0.000231357)
(-0.0082298 0.00463624 0.000469591)
(-0.00649549 0.00306723 -5.77013e-05)
(-0.00258931 0.000631742 -0.000105977)
(0.000980617 0.00310003 -0.00014084)
(0.00327405 -0.00478504 -0.000108282)
(0.00358163 -0.00235789 -0.000139595)
(0.00361197 -0.0086949 -4.59189e-05)
(0.00310366 -0.00652021 -0.000145087)
(0.00404014 -0.00846737 -0.000107633)
(0.00257817 -0.0152663 1.60875e-05)
(0.000337473 -0.0146138 -9.61972e-05)
(-0.00162363 -0.0284139 -8.92596e-06)
(-0.00524688 -0.0385522 3.37245e-05)
(-0.00539419 -0.0376778 0.000138759)
(-0.00615159 -0.0332069 -1.40202e-05)
(-0.00408118 -0.0276651 -2.39873e-05)
(-0.00345755 -0.0165713 -1.18009e-06)
(-0.000959111 0.0136097 0.000110649)
(-0.0021825 0.0478224 0.000101425)
(-0.000880374 0.0607489 5.24814e-05)
(0.00272382 0.0501762 0.00035865)
(0.00467091 0.0433036 0.000290676)
(0.00222468 0.0262506 0.000147427)
(0.00122604 0.0165572 9.37312e-05)
(-0.000882326 0.0140867 4.84951e-05)
(-7.46906e-05 0.0133451 2.54162e-05)
(-0.00145762 0.0110506 0.000212342)
(-0.0012927 0.00874436 0.000297593)
(-0.00660155 0.00325569 0.000474773)
(-0.00700148 -0.0011395 8.89844e-05)
(-0.00316218 -0.00187634 -7.16086e-05)
(-0.000829345 -0.00111327 -2.13662e-05)
(0.00144279 -0.00587153 -6.46798e-05)
(0.00309157 -0.00467459 -4.82822e-06)
(0.00315818 -0.00832347 -2.47131e-05)
(0.00374647 -0.00885925 -3.94101e-06)
(0.00363013 -0.0104945 -1.15978e-05)
(0.00284149 -0.0143365 1.22229e-05)
(0.00291172 -0.0148833 3.81685e-05)
(0.000461667 -0.0258697 0.000167699)
(-0.00429379 -0.0375076 0.000111586)
(-0.00469676 -0.0380669 0.000101769)
(-0.00534992 -0.0334981 -3.71841e-05)
(-0.00323672 -0.0276638 -5.9174e-05)
(-0.00326136 -0.0159781 -7.01622e-05)
(-0.000667238 0.0109897 5.20702e-05)
(-0.00156639 0.0468432 9.70723e-05)
(-0.000677215 0.0597332 8.49761e-06)
(0.00203082 0.0470119 0.000270629)
(0.00362836 0.0402572 0.000214324)
(0.00186511 0.0257268 0.000118909)
(0.000906512 0.0167968 9.47809e-05)
(-0.00103078 0.0142284 2.49768e-05)
(-0.000223425 0.0128902 5.40443e-06)
(-0.000986708 0.00986254 0.00014032)
(-0.000427497 0.00759994 0.000280622)
(-0.00607564 0.00256345 0.00049469)
(-0.00669813 -0.000559041 2.49171e-05)
(-0.00358094 -0.00434808 -8.83305e-05)
(-0.00144102 -0.000492051 -6.02871e-05)
(0.000867241 -0.00796067 -7.10579e-05)
(0.00277995 -0.00267266 -1.88729e-05)
(0.00290082 -0.00896227 -3.40453e-05)
(0.004136 -0.00574413 -2.69369e-05)
(0.00418281 -0.00679387 2.92452e-05)
(0.00425866 -0.014053 3.3939e-05)
(0.0053002 -0.0112133 5.80953e-05)
(0.00255992 -0.0232192 0.000318356)
(-0.00346461 -0.0364621 0.000168552)
(-0.00357108 -0.0375946 8.51567e-05)
(-0.00435325 -0.0332973 -3.52609e-05)
(-0.00249586 -0.0271726 -7.30912e-05)
(-0.00311963 -0.0146311 -7.38318e-05)
(-0.000497717 0.00927938 -4.5205e-05)
(-0.000895905 0.0461672 7.84464e-05)
(-0.000547722 0.0591932 -3.52223e-05)
(0.00183939 0.0449263 0.000134126)
(0.0027483 0.0385961 0.000161146)
(0.000899812 0.0250575 8.77177e-05)
(-0.000113775 0.0170891 8.94815e-05)
(-0.00177322 0.0148652 1.09159e-05)
(-0.00127395 0.012491 -7.11408e-10)
(-0.00158149 0.00874453 9.38272e-05)
(-0.000630743 0.006908 0.000222355)
(-0.00591006 0.00170609 0.000472499)
(-0.00768908 -0.00374364 9.7808e-05)
(-0.00434234 -0.0064145 -1.93794e-05)
(-0.00261994 -0.00441136 3.29788e-05)
(0.000104825 -0.0104687 -1.71395e-05)
(0.002507 -0.00583475 -3.7417e-06)
(0.00261485 -0.00982075 -2.01164e-05)
(0.00465371 -0.00965576 3.92108e-05)
(0.00598039 -0.0107194 7.19035e-05)
(0.00680583 -0.0152773 5.62377e-05)
(0.00742511 -0.0138187 3.12246e-05)
(0.00394464 -0.0221232 0.000358699)
(-0.00228357 -0.0356621 0.000139681)
(-0.00187744 -0.0372394 3.11229e-05)
(-0.00266937 -0.033007 -3.76712e-05)
(-0.00162104 -0.0266236 -8.14922e-05)
(-0.00293819 -0.0136467 -6.83146e-05)
(-0.000156581 0.00862308 -0.000147563)
(-0.000293343 0.0457978 5.20475e-05)
(-0.000460908 0.0590781 -7.41355e-05)
(0.00184189 0.0441356 3.35239e-05)
(0.00198244 0.0381979 0.000144087)
(-0.000255181 0.0248975 8.79127e-05)
(-0.00161913 0.0175276 4.00481e-05)
(-0.00306185 0.0159682 -6.82276e-06)
(-0.00297921 0.0124078 -7.33289e-06)
(-0.00275265 0.00807087 2.69885e-05)
(-0.00128548 0.00651406 0.000189626)
(-0.00553953 0.00150574 0.000409485)
(-0.00715166 -0.00464544 0.000340559)
(-0.00486643 -0.00983011 -1.89737e-05)
(-0.00279969 -0.00690853 0.000306823)
(-0.000240531 -0.0143661 3.14108e-05)
(0.00243934 -0.00695476 0.000281619)
(0.00312663 -0.0119389 2.59559e-05)
(0.00653588 -0.0117692 0.000303536)
(0.0064642 -0.0127558 0.000351823)
(0.00817052 -0.0163816 2.15466e-05)
(0.00784333 -0.0122107 0.000308066)
(0.00429102 -0.0207162 0.000356482)
(-0.000677929 -0.035032 0.000103506)
(0.000122501 -0.0362028 -4.65196e-06)
(-0.000592336 -0.0320438 -5.83273e-05)
(-0.000422791 -0.0250204 -5.83433e-05)
(-0.00255475 -0.0119066 -4.68138e-05)
(-1.65321e-06 0.00943057 -0.000186732)
(0.000415684 0.0461177 7.464e-06)
(-0.000412812 0.0595539 -0.000135581)
(0.00178622 0.0441126 -4.44913e-05)
(0.00121873 0.0382604 0.000161199)
(-0.00167829 0.0252038 7.62611e-05)
(-0.00318857 0.0189545 -2.6117e-05)
(-0.00458011 0.0173117 -2.94875e-05)
(-0.00510159 0.0127687 -1.819e-05)
(-0.00461755 0.00788562 -2.07666e-05)
(-0.00338792 0.00603526 0.000236324)
(-0.00997528 0.000116678 0.000511985)
(-0.00839225 -0.00667344 -0.00013815)
(-0.00619709 -0.0121522 2.60623e-05)
(-0.00286978 -0.00995313 -0.00023465)
(-0.00103166 -0.0177398 7.6459e-05)
(0.00251127 -0.00971947 -0.000240714)
(0.0042257 -0.0161884 0.000366005)
(0.00391886 -0.0151936 -0.000308943)
(0.00986065 -0.0161243 -0.000226306)
(0.0102413 -0.018988 0.00032987)
(0.00978708 -0.0133254 -0.000170132)
(0.00964626 -0.0202559 0.000486566)
(0.00229665 -0.0343181 0.000114644)
(0.00321266 -0.034968 -3.50856e-05)
(0.00217524 -0.0305447 -9.14611e-05)
(0.00140301 -0.0229407 -4.04888e-05)
(-0.00142968 -0.0104246 -1.76338e-05)
(-4.53377e-06 0.0103924 -0.000129441)
(0.000951663 0.0468827 -1.94161e-05)
(-0.000449 0.0607983 -0.000180595)
(0.00145009 0.0442575 -7.42483e-05)
(0.000385934 0.0388774 0.00017848)
(-0.00314714 0.0265712 1.71765e-05)
(-0.00451632 0.0219236 -6.64212e-05)
(-0.00605041 0.0192797 -4.90349e-05)
(-0.00754423 0.0138979 -3.30741e-05)
(-0.00722299 0.00852344 -8.99061e-05)
(-0.00627984 0.00497242 0.000216565)
(-0.0107804 -0.00319193 0.000549914)
(-0.00980034 -0.0097607 0.00026259)
(-0.00633668 -0.0147351 8.79817e-05)
(-0.00313452 -0.0127287 9.02465e-05)
(-0.00143771 -0.0193692 5.34198e-05)
(0.000473921 -0.0140482 7.00995e-05)
(0.00342382 -0.0176764 1.3628e-05)
(0.00621365 -0.0174108 9.20711e-05)
(0.00728603 -0.0182884 -8.8228e-06)
(0.0106416 -0.0193508 1.98148e-05)
(0.0147161 -0.0159032 0.000323233)
(0.0122094 -0.0207103 0.000539082)
(0.00587709 -0.0338036 3.35926e-05)
(0.00692689 -0.0332254 -1.86338e-05)
(0.0052153 -0.0280326 -8.16337e-05)
(0.00327687 -0.0200658 8.97356e-06)
(-0.000269092 -0.00797532 1.0708e-05)
(-4.62827e-05 0.0111635 -5.70982e-05)
(0.00142113 0.0479185 -4.59194e-05)
(-0.000341385 0.0623573 -0.000174738)
(0.00101572 0.0446676 -9.9954e-05)
(-0.000611348 0.0396232 0.000176473)
(-0.00452243 0.028979 -4.86085e-05)
(-0.00551182 0.0254963 -5.22536e-05)
(-0.00762136 0.0219372 -3.39979e-05)
(-0.0103632 0.0157657 -1.82776e-05)
(-0.0110981 0.00995824 -8.00025e-05)
(-0.0107361 0.00368377 0.000167965)
(-0.0120956 -0.0070199 0.000655976)
(-0.0110094 -0.0154344 0.000431466)
(-0.00715641 -0.0203789 -2.11353e-05)
(-0.00364008 -0.016903 0.000303227)
(-0.00186445 -0.021976 1.75298e-06)
(-0.00138159 -0.0178984 0.000296681)
(0.00219767 -0.0234317 -0.000302496)
(0.00659095 -0.0202516 0.000262484)
(0.00495544 -0.0214204 0.000368709)
(0.0117795 -0.0273744 -0.000388293)
(0.0205382 -0.0228083 0.000588652)
(0.0179027 -0.0231215 0.00112954)
(0.00906852 -0.0323538 -3.59194e-05)
(0.0110995 -0.0314298 4.99708e-05)
(0.00815875 -0.0254009 -1.19994e-05)
(0.00478876 -0.0169937 6.16187e-05)
(0.000959477 -0.00574536 4.47555e-05)
(8.84882e-05 0.0117561 -2.13528e-05)
(0.00159038 0.0491515 -7.04208e-05)
(-0.000246245 0.0643484 -0.000165333)
(0.000876073 0.0451909 -0.000107302)
(-0.00119318 0.0404464 0.000138632)
(-0.00488205 0.0322045 -9.43963e-05)
(-0.0055381 0.0293289 1.84218e-06)
(-0.00812589 0.0251466 1.43881e-05)
(-0.0118162 0.0184478 2.48206e-05)
(-0.0147359 0.0113733 3.24298e-05)
(-0.0148927 0.000560129 0.00013088)
(-0.0200484 -0.0169068 0.000952283)
(-0.0177036 -0.0215519 -0.000483895)
(-0.00905539 -0.0232135 -0.000366471)
(-0.00503107 -0.0196118 -0.000600171)
(-0.00272283 -0.0224007 -0.000276682)
(-0.00156131 -0.0190734 -0.000579115)
(0.000362496 -0.0221334 -0.000289425)
(0.00064317 -0.021259 -0.000637956)
(0.00762519 -0.025074 -0.000622576)
(0.0120374 -0.0308712 -0.000369798)
(0.0273924 -0.0332323 -0.000331255)
(0.0271145 -0.0351722 0.0019304)
(0.0147486 -0.0333814 0.000113347)
(0.0142533 -0.0299723 0.000170301)
(0.00959973 -0.0224177 0.000107579)
(0.00501607 -0.013843 0.000107187)
(0.00152272 -0.00382618 8.55949e-05)
(0.000132356 0.0134085 1.96888e-05)
(0.00113706 0.0504556 -5.85078e-05)
(-0.000263867 0.0659676 -0.00011229)
(0.00102007 0.0457641 -0.000124414)
(-0.0015687 0.0421064 8.50441e-05)
(-0.00494559 0.0359038 -0.000106724)
(-0.00526663 0.0324504 6.12916e-05)
(-0.0080548 0.0278981 9.00175e-05)
(-0.0116728 0.0219188 9.8747e-05)
(-0.0158084 0.0145952 0.000228333)
(-0.0183703 0.000930874 0.000157932)
(-0.0251256 -0.0134783 0.000283143)
(-0.0231588 -0.0133753 -0.00196616)
(-0.00915917 -0.0114706 -0.00170185)
(-0.00653802 -0.0072874 -0.0017067)
(-0.00241634 -0.0083052 -0.00160999)
(-0.00275406 -0.00639181 -0.00160515)
(-0.00182571 -0.00874032 -0.00164516)
(-0.00289615 -0.00860048 -0.00173484)
(0.00369477 -0.0119354 -0.00212034)
(0.00623221 -0.0186739 -0.00224864)
(0.0284814 -0.0223192 -0.00289735)
(0.0320087 -0.0312438 9.92351e-05)
(0.0211031 -0.0286722 4.95989e-06)
(0.0155509 -0.0256931 0.000261735)
(0.00899616 -0.0188758 0.000205942)
(0.00414534 -0.0115631 0.00018708)
(0.00109914 -0.00309939 0.000129876)
(-0.00010745 0.0147578 5.89548e-05)
(0.000399595 0.0515719 -2.87976e-05)
(-0.000343633 0.0670947 -7.03381e-05)
(0.00129576 0.045966 -8.5366e-05)
(-0.0010561 0.0443192 5.659e-05)
(-0.00365004 0.0389769 -5.8799e-05)
(-0.00343935 0.0340164 0.000113211)
(-0.00536265 0.0289431 0.000161981)
(-0.00719582 0.0229287 0.000220945)
(-0.00969858 0.014006 0.000337696)
(-0.00855015 -0.000848029 0.000508284)
(-0.00704625 -0.01208 0.000567338)
(-0.00651487 -0.00234468 0.0006421)
(-0.00471922 0.000307732 0.000624429)
(-0.00355491 0.00499713 0.000612388)
(-0.00142124 0.00589908 0.000567262)
(-0.00101543 0.00862192 0.000587173)
(-0.00027426 0.00878788 0.000523657)
(-0.000965288 0.00836218 0.000524219)
(0.00191399 0.00745356 0.000307258)
(0.00386577 0.000452139 0.000213645)
(0.0102815 -0.00265766 6.14588e-05)
(0.0138613 -0.0220813 0.00018442)
(0.0125196 -0.024476 0.000221399)
(0.00922529 -0.0236002 0.000324458)
(0.00417669 -0.0171346 0.000253817)
(0.00133202 -0.011174 0.000227869)
(-0.000352279 -0.00284827 0.000174404)
(-0.00108541 0.0150813 0.000106405)
(-0.000682334 0.0518915 2.812e-05)
(-0.000631032 0.0672584 -3.38514e-06)
(0.00146881 0.0456452 -7.91241e-05)
(-0.00083174 0.0462242 4.98803e-05)
(-0.00304676 0.0408568 -4.06191e-05)
(-0.00253767 0.0343747 9.08307e-05)
(-0.00419141 0.0286407 0.000137107)
(-0.00537167 0.0220064 0.000174479)
(-0.00809996 0.0102913 0.000184374)
(-0.00784365 -0.0105576 0.000303577)
(-0.00879152 -0.0200427 8.48279e-05)
(-0.00750803 -0.0192221 -8.2509e-05)
(-0.00479526 -0.016555 -3.27669e-05)
(-0.0033003 -0.0139506 -3.04122e-05)
(-0.00149341 -0.0120927 -2.60881e-05)
(-0.000592609 -0.00984092 -5.2251e-05)
(0.000896642 -0.00902542 -4.714e-05)
(0.000501193 -0.00997367 7.38215e-06)
(0.00255714 -0.0118196 -6.93267e-05)
(0.00453672 -0.0154022 -0.000117803)
(0.00983564 -0.0197344 -0.000239002)
(0.0132142 -0.0275773 3.92291e-05)
(0.0110027 -0.0274054 0.000214938)
(0.00653078 -0.0234743 0.000227521)
(0.00158319 -0.016241 0.000124732)
(-4.34166e-06 -0.011584 0.000125378)
(-0.00116258 -0.0023353 0.000142391)
(-0.0014683 0.0147868 6.9385e-05)
(-0.00122334 0.051318 3.19707e-05)
(-0.000615081 0.0663592 2.22459e-05)
(0.00158718 0.045065 -4.10002e-05)
(-0.000202708 0.0478749 5.84207e-05)
(-0.00173965 0.0421236 9.59626e-06)
(-0.00101133 0.0341591 0.000138763)
(-0.00216766 0.0279108 0.000174591)
(-0.00252936 0.0212002 0.000238807)
(-0.00356512 0.00891797 0.000212572)
(-0.00405459 -0.0113481 0.000438804)
(-0.00516913 -0.0177183 0.000158136)
(-0.00414614 -0.0153153 8.63999e-05)
(-0.00234937 -0.0117018 5.5154e-05)
(-0.000815166 -0.00814176 4.93301e-05)
(0.000334163 -0.00600377 0.000103342)
(0.000863989 -0.00355232 0.000149447)
(0.00104699 -0.00138104 0.000149476)
(-0.000212861 -0.00212274 0.00014236)
(0.000184541 -0.00545415 4.70919e-05)
(0.00200792 -0.0109415 3.0423e-05)
(0.00517456 -0.0170271 -1.21743e-05)
(0.00747028 -0.0257646 9.28023e-05)
(0.00644866 -0.0260009 0.000278462)
(0.00193327 -0.0210371 0.000194533)
(-0.000767625 -0.0150441 0.000138048)
(-0.00131231 -0.0117664 0.000125371)
(-0.00209294 -0.00130069 0.000166929)
(-0.00201358 0.0143562 8.90172e-05)
(-0.00183669 0.050312 7.06741e-05)
(-0.000841585 0.0650452 5.0569e-05)
(0.00144284 0.0439411 -2.78584e-05)
(1.78007e-05 0.0488454 7.96356e-05)
(-0.00111995 0.0422654 3.35869e-05)
(-0.000492886 0.0334322 0.000116333)
(-0.0015804 0.0267069 0.000110387)
(-0.00175377 0.019213 0.000142526)
(-0.00152471 0.0059494 7.85289e-05)
(-0.00277113 -0.0137134 0.000257091)
(-0.00482881 -0.0198413 -1.48582e-05)
(-0.00385263 -0.0184529 -0.00011668)
(-0.00219322 -0.0144955 -0.000136687)
(-0.00108187 -0.011578 -0.00012301)
(3.39631e-05 -0.00988788 -0.000106815)
(0.000639847 -0.00847062 -6.99512e-05)
(0.00135929 -0.00686119 -3.16528e-05)
(0.000767991 -0.0074726 2.64722e-05)
(0.000950986 -0.010402 -3.95247e-05)
(0.0020736 -0.0146918 -6.18431e-05)
(0.00409874 -0.0208699 -8.92028e-05)
(0.00539347 -0.0277348 8.03343e-06)
(0.00390583 -0.0265393 0.000177488)
(-0.000234131 -0.0196038 1.49949e-05)
(-0.00101219 -0.0150327 6.41269e-06)
(-0.00114575 -0.0123218 4.76248e-05)
(-0.00208292 -0.00195868 4.59585e-05)
(-0.00207367 0.0135854 7.25768e-05)
(-0.00212144 0.0490717 8.86148e-05)
(-0.000885906 0.0630136 4.43797e-05)
(0.00137127 0.0430378 -5.70336e-06)
(0.000450383 0.0497409 6.98637e-05)
(-0.00025591 0.0420766 5.33836e-05)
(8.48836e-05 0.0326199 0.000126266)
(-0.000862903 0.0257865 0.000114225)
(-0.000945545 0.0177128 0.000149486)
(-1.1354e-05 0.00480188 0.000134642)
(-0.00108404 -0.0119381 0.000238076)
(-0.0025567 -0.0177887 6.27622e-05)
(-0.00171326 -0.0162939 -1.63516e-05)
(-0.000665373 -0.0120637 -2.22259e-05)
(-4.12659e-05 -0.00889276 -1.4566e-05)
(0.000370971 -0.00709115 -6.34725e-06)
(0.000693388 -0.00604432 1.8267e-05)
(0.00114718 -0.00431239 4.58053e-05)
(0.000313227 -0.00536667 9.44044e-05)
(-3.87913e-05 -0.00887074 2.94846e-05)
(0.000657061 -0.013603 -3.03048e-06)
(0.00168957 -0.0198503 -2.58748e-05)
(0.00234133 -0.0259875 2.82505e-05)
(0.00133481 -0.0242024 0.000133366)
(-0.00125053 -0.0171271 -3.80014e-06)
(-0.00111506 -0.0141736 1.05275e-05)
(-0.00118021 -0.0117703 3.15933e-05)
(-0.0019042 -0.00211598 7.72882e-05)
(-0.00214548 0.0127562 9.4051e-05)
(-0.00227059 0.0471242 0.000131464)
(-0.0011802 0.0608057 2.33249e-05)
(0.00129648 0.0421976 8.16314e-06)
(0.000577213 0.0494818 8.83063e-05)
(-2.93692e-05 0.041812 8.34889e-05)
(0.000189015 0.0321375 0.000130138)
(-0.000392205 0.025175 0.000102841)
(-0.00067057 0.0161238 9.37516e-05)
(0.000151201 0.00292715 0.000100585)
(-0.000483934 -0.0116208 4.48891e-05)
(-0.00114879 -0.017283 -1.60983e-05)
(-0.00078341 -0.0160457 -6.72768e-05)
(-0.00028062 -0.0118807 -7.05977e-05)
(-2.25752e-05 -0.00919443 -4.16662e-05)
(0.000111612 -0.00747989 -4.59283e-05)
(0.000144126 -0.00667819 -3.79583e-05)
(0.000392287 -0.00511859 -3.60818e-05)
(0.000232987 -0.00619164 -2.43552e-05)
(0.000264538 -0.00949045 -3.92054e-05)
(0.000463729 -0.0135701 -4.29066e-05)
(0.000774449 -0.0192688 -4.25901e-05)
(0.000793738 -0.0245811 -1.68767e-05)
(0.000259162 -0.0222429 -9.76752e-06)
(-0.000905517 -0.0152904 -4.72554e-05)
(-0.000956526 -0.0132639 -1.12054e-05)
(-0.00126069 -0.0109804 2.36785e-05)
(-0.00184219 -0.00226494 3.67513e-05)
(-0.00217087 0.0123069 0.000105309)
(-0.00254492 0.0457086 0.000109766)
(-0.00101852 0.0590947 6.87877e-06)
(0.00107125 0.0414821 -4.81769e-05)
(0.000658695 0.0494575 3.69102e-05)
(0.000175751 0.0403488 7.23706e-05)
(0.000240057 0.0298336 0.00012921)
(-0.000170637 0.0232793 0.000100702)
(-0.000389263 0.0145901 3.67233e-05)
(-1.93715e-05 0.00180135 1.85457e-05)
(9.10592e-06 -0.00932017 -2.02769e-05)
(-1.94278e-05 -0.014505 -8.29974e-05)
(-2.09565e-05 -0.0134026 -9.56687e-05)
(9.2495e-05 -0.00981141 -9.37758e-05)
(0.000139311 -0.0076735 -6.56693e-05)
(6.6118e-05 -0.00618121 -5.82481e-05)
(3.73273e-05 -0.00541942 -5.35025e-05)
(5.13965e-05 -0.00401992 -4.92973e-05)
(-2.61604e-05 -0.00481692 -5.25626e-05)
(-0.000111375 -0.00781696 -7.08607e-05)
(-8.17628e-05 -0.0114824 -9.99658e-05)
(-9.14443e-07 -0.0163561 -0.000111255)
(-8.36582e-05 -0.0206211 -0.000113024)
(-0.000232398 -0.0180769 -0.000134088)
(-0.000611671 -0.0120742 -0.000102726)
(-0.000766766 -0.0108193 -8.01707e-05)
(-0.00102618 -0.00918392 -5.28013e-05)
(-0.00128254 -0.00419 -3.55621e-05)
(-0.00123496 0.0113976 6.43577e-05)
(-0.00152762 0.0429573 8.88867e-05)
(-0.000299242 0.0565531 4.571e-05)
(-0.0115778 -0.00105642 -0.000796417)
(-0.0189189 0.00162846 -0.00131735)
(-0.0223932 -0.000264806 -0.000739319)
(-0.0194158 0.000657844 -5.30805e-05)
(-0.0199588 0.00106832 -2.62553e-05)
(-0.0198958 0.000996029 4.5446e-05)
(-0.0221747 0.00118457 -0.000114602)
(-0.0246434 0.00205445 -0.000468275)
(-0.0268228 0.00228214 -0.000914696)
(-0.0305076 0.00311568 -0.0011554)
(-0.0369626 0.00293448 -0.0013513)
(-0.0482216 0.00167729 -0.00132426)
(-0.0558296 0.00318587 -0.00108957)
(-0.0615984 0.00500348 -0.0011189)
(-0.0630408 0.00524735 -0.00146485)