/*--------------------------------*- C++ -*----------------------------------*\
| =========                 |                                                 |
| \\      /  F ield         | OpenFOAM: The Open Source CFD Toolbox           |
|  \\    /   O peration     | Version:  2.3.0                                 |
|   \\  /    A nd           | Web:      www.OpenFOAM.org                      |
|    \\/     M anipulation  |                                                 |
\*---------------------------------------------------------------------------*/
FoamFile
{
    version     2.0;
    format      ascii;
    class       volScalarField;
    location    "1.97";
    object      alpha.particlesMean;
}
// * * * * * * * * * * * * * * * * * * * * * * * * * * * * * * * * * * * * * //

dimensions      [0 0 0 0 0 0 0];

internalField   nonuniform List<scalar> 
6000
(
0.417886
0.425113
0.422092
0.419386
0.417314
0.411045
0.413353
0.412521
0.416897
0.416895
0.417759
0.419605
0.414158
0.414619
0.421527
0.424466
0.42587
0.422124
0.42153
0.424499
0.42667
0.425618
0.425444
0.430167
0.430674
0.427958
0.428292
0.424689
0.423273
0.419084
0.393132
0.393242
0.392403
0.387101
0.380615
0.378981
0.379649
0.378713
0.379132
0.384736
0.384259
0.381353
0.380747
0.378739
0.383813
0.393343
0.394342
0.391405
0.390975
0.389174
0.391469
0.393923
0.396145
0.399385
0.39212
0.390383
0.388411
0.387841
0.38898
0.398218
0.397898
0.399286
0.396103
0.386674
0.384413
0.386345
0.385196
0.380224
0.382206
0.389859
0.387875
0.381067
0.37911
0.378719
0.386641
0.396872
0.399419
0.395747
0.390757
0.391474
0.393001
0.394176
0.395754
0.395195
0.391945
0.396375
0.398076
0.396463
0.394442
0.402417
0.39864
0.397366
0.389816
0.382306
0.385779
0.387129
0.383763
0.380012
0.382596
0.38966
0.389116
0.377023
0.374418
0.376598
0.384598
0.393277
0.396788
0.392547
0.389725
0.39066
0.39055
0.389668
0.386077
0.38219
0.388297
0.39321
0.400185
0.397864
0.390074
0.401465
0.395685
0.39511
0.382968
0.381516
0.386016
0.385774
0.379622
0.377611
0.38086
0.388152
0.386931
0.372182
0.365246
0.364772
0.374331
0.387849
0.395781
0.390548
0.390544
0.391416
0.390329
0.387015
0.379422
0.378536
0.38492
0.39158
0.401718
0.399166
0.384977
0.395737
0.392926
0.392919
0.382209
0.382765
0.385576
0.382752
0.3754
0.374338
0.377803
0.38246
0.382159
0.366478
0.355245
0.357523
0.36777
0.385588
0.396468
0.391774
0.389854
0.390685
0.388421
0.381949
0.378133
0.376294
0.383388
0.390123
0.4048
0.398356
0.379433
0.390543
0.389401
0.389194
0.384475
0.381593
0.382774
0.379916
0.37131
0.370467
0.370678
0.376769
0.375157
0.361601
0.353317
0.358932
0.369289
0.386848
0.395128
0.386877
0.387965
0.389013
0.386344
0.380808
0.376939
0.375474
0.383251
0.391603
0.404145
0.397606
0.374108
0.386962
0.385409
0.390048
0.384468
0.37857
0.379281
0.377669
0.368878
0.363757
0.364732
0.370819
0.368755
0.35872
0.357851
0.362077
0.373475
0.387984
0.385737
0.382248
0.387151
0.391587
0.387464
0.38046
0.375526
0.376035
0.386211
0.3933
0.400452
0.391931
0.369817
0.385012
0.387518
0.392058
0.383363
0.375008
0.377443
0.376762
0.368817
0.361215
0.358926
0.362862
0.362465
0.359893
0.363449
0.367894
0.380447
0.386884
0.378055
0.379313
0.381305
0.388651
0.388301
0.383501
0.376242
0.379683
0.387707
0.395625
0.396367
0.385891
0.368367
0.385277
0.390102
0.391687
0.380834
0.372351
0.376218
0.377425
0.371708
0.360372
0.355272
0.354921
0.359763
0.363992
0.370272
0.373487
0.381875
0.378513
0.368652
0.369071
0.373126
0.382016
0.390592
0.386656
0.381969
0.383716
0.391442
0.396649
0.392331
0.382828
0.370834
0.385861
0.389978
0.388201
0.377018
0.37142
0.374211
0.3773
0.371804
0.361909
0.352724
0.348831
0.359637
0.371958
0.373297
0.375236
0.375559
0.367326
0.360921
0.363071
0.372226
0.383639
0.392479
0.389625
0.387702
0.390626
0.395736
0.397293
0.388914
0.38374
0.376195
0.388187
0.387447
0.382615
0.370919
0.369915
0.371619
0.373562
0.36963
0.364118
0.351754
0.342524
0.358563
0.375019
0.373349
0.370177
0.368735
0.364685
0.361617
0.365183
0.373253
0.384157
0.393632
0.391805
0.394207
0.396794
0.400827
0.3972
0.389262
0.385702
0.382879
0.39458
0.384195
0.37582
0.365433
0.366377
0.366776
0.368913
0.367274
0.367748
0.352519
0.341813
0.351661
0.371861
0.370826
0.366319
0.366377
0.365766
0.365197
0.367877
0.370214
0.383531
0.393578
0.396823
0.400129
0.403268
0.404281
0.400135
0.391796
0.389308
0.390397
0.404065
0.382077
0.370735
0.362523
0.361542
0.362302
0.364015
0.364505
0.367777
0.358103
0.347008
0.349972
0.364964
0.369196
0.367243
0.369009
0.370402
0.371145
0.368157
0.368695
0.38339
0.396047
0.401634
0.405244
0.405727
0.406869
0.402407
0.395733
0.395159
0.401382
0.417527
0.381571
0.3685
0.361479
0.357719
0.357897
0.35888
0.358996
0.366356
0.363511
0.356333
0.353272
0.360962
0.369016
0.367877
0.372624
0.376267
0.376032
0.368747
0.368404
0.385369
0.399688
0.405579
0.40548
0.402604
0.403884
0.401274
0.396523
0.402447
0.412245
0.432065
0.382043
0.366328
0.36298
0.356638
0.355194
0.352324
0.351071
0.360226
0.3647
0.362502
0.360552
0.358223
0.369198
0.367575
0.37405
0.38053
0.379123
0.368423
0.368799
0.386437
0.400269
0.40154
0.395352
0.386141
0.389894
0.391209
0.39343
0.404469
0.417467
0.440016
0.381418
0.36346
0.366533
0.360844
0.354646
0.348662
0.341407
0.351824
0.359905
0.365408
0.364998
0.360768
0.364591
0.368327
0.375895
0.383255
0.380496
0.370752
0.369889
0.387542
0.399604
0.398334
0.381301
0.370287
0.374921
0.382958
0.38976
0.403945
0.416372
0.439097
0.375217
0.362165
0.370951
0.367551
0.357276
0.349333
0.339235
0.345425
0.358666
0.362412
0.363292
0.35866
0.359435
0.369149
0.378446
0.385417
0.382791
0.375719
0.377407
0.390418
0.402396
0.396378
0.376047
0.366281
0.372462
0.382114
0.392209
0.404596
0.414325
0.439557
0.365566
0.36304
0.374742
0.375325
0.360914
0.352034
0.343028
0.342327
0.357675
0.362223
0.356179
0.353184
0.354376
0.368541
0.380228
0.386317
0.386452
0.385165
0.386181
0.394525
0.403415
0.39585
0.375336
0.367217
0.372488
0.381862
0.396512
0.406275
0.414757
0.443345
0.36142
0.36499
0.379013
0.380405
0.361924
0.352252
0.345425
0.342992
0.353275
0.360572
0.352969
0.347011
0.352525
0.366367
0.378972
0.383586
0.389062
0.394072
0.394555
0.396111
0.401939
0.394122
0.376101
0.36931
0.374296
0.380478
0.397649
0.406218
0.413732
0.443366
0.362195
0.367076
0.382154
0.384909
0.364589
0.352631
0.347551
0.345534
0.348791
0.35679
0.351947
0.345069
0.34993
0.363991
0.375426
0.379086
0.38693
0.400436
0.397213
0.40014
0.39895
0.3906
0.376809
0.371757
0.374942
0.379215
0.397147
0.404553
0.413952
0.439338
0.3645
0.370245
0.385167
0.388885
0.369259
0.354376
0.35054
0.347511
0.346365
0.351473
0.353257
0.346871
0.348933
0.36012
0.373591
0.37435
0.381942
0.399684
0.401136
0.40157
0.399256
0.389328
0.380645
0.371789
0.373929
0.378445
0.397301
0.406104
0.4166
0.439135
0.367359
0.374105
0.388964
0.393558
0.375043
0.357964
0.353398
0.348089
0.342062
0.347316
0.352078
0.351568
0.350372
0.358741
0.370903
0.368941
0.373711
0.398951
0.40298
0.402975
0.399003
0.392829
0.385473
0.373988
0.372255
0.379446
0.39915
0.411221
0.421706
0.440907
0.370793
0.376605
0.391571
0.400179
0.382499
0.363135
0.356188
0.347953
0.33932
0.343691
0.349054
0.353058
0.354838
0.361199
0.366117
0.362207
0.370762
0.397045
0.403644
0.402363
0.399855
0.393892
0.388206
0.376185
0.373553
0.381789
0.401276
0.417967
0.428116
0.441843
0.3739
0.376916
0.393913
0.407523
0.391058
0.367358
0.356692
0.347494
0.338071
0.341712
0.346716
0.352946
0.35781
0.363777
0.363726
0.359298
0.371511
0.394504
0.40217
0.401897
0.397586
0.39236
0.383661
0.376647
0.375369
0.38655
0.405278
0.423747
0.432993
0.441263
0.376442
0.377068
0.396422
0.413043
0.3992
0.370179
0.355405
0.345304
0.337734
0.339847
0.346201
0.353068
0.360684
0.3655
0.36365
0.362205
0.371638
0.390519
0.398049
0.395205
0.391063
0.382806
0.374709
0.369283
0.375064
0.391209
0.410752
0.426386
0.433704
0.441632
0.379356
0.379802
0.399866
0.4165
0.404392
0.371894
0.353697
0.343187
0.336303
0.339626
0.346476
0.354847
0.36274
0.36826
0.365664
0.366282
0.369342
0.384409
0.386036
0.382478
0.3788
0.372383
0.364461
0.363298
0.370003
0.390827
0.411221
0.425214
0.428147
0.440008
0.382692
0.385616
0.403874
0.416944
0.406201
0.37287
0.352549
0.340613
0.336143
0.339184
0.347167
0.356013
0.364067
0.369711
0.369187
0.367714
0.366296
0.376828
0.377939
0.374694
0.372467
0.366129
0.361797
0.362458
0.366604
0.388505
0.408531
0.421416
0.423353
0.431086
0.386801
0.390394
0.405946
0.416102
0.406679
0.373413
0.350782
0.338639
0.334359
0.338932
0.346741
0.356336
0.363922
0.368539
0.371686
0.369023
0.36475
0.372544
0.376271
0.37234
0.368619
0.365323
0.362889
0.364815
0.366459
0.389584
0.40703
0.420105
0.424986
0.430411
0.392492
0.391868
0.405523
0.415351
0.407147
0.373824
0.348649
0.335021
0.332729
0.338069
0.345867
0.356052
0.36312
0.367656
0.37258
0.371999
0.367791
0.375978
0.379566
0.372975
0.369044
0.366892
0.367319
0.365159
0.368007
0.392456
0.407669
0.42014
0.425556
0.428895
0.401127
0.392601
0.405612
0.413654
0.406103
0.374802
0.345164
0.331901
0.330779
0.337554
0.344597
0.354078
0.361627
0.365904
0.371981
0.374964
0.374277
0.385094
0.384787
0.375202
0.370349
0.370738
0.369717
0.366122
0.370796
0.395671
0.408226
0.4201
0.424004
0.425181
0.410904
0.396121
0.407355
0.410617
0.403954
0.375208
0.34276
0.329293
0.330446
0.336532
0.344356
0.352438
0.358404
0.363775
0.371589
0.378621
0.382458
0.395759
0.39261
0.378172
0.373039
0.373033
0.371797
0.367243
0.375783
0.39959
0.409308
0.419212
0.420064
0.420821
0.418818
0.401624
0.410002
0.407637
0.401554
0.377276
0.341734
0.328702
0.329932
0.336193
0.344173
0.352097
0.357104
0.36333
0.372757
0.382599
0.391654
0.407075
0.399759
0.381844
0.375379
0.375094
0.372721
0.369118
0.380107
0.401876
0.410527
0.41766
0.414651
0.416434
0.421946
0.407433
0.41309
0.406685
0.399084
0.378839
0.342181
0.328551
0.331026
0.335991
0.344629
0.353166
0.358448
0.365904
0.375042
0.387496
0.399729
0.415047
0.405018
0.384582
0.378157
0.376671
0.373869
0.369328
0.382685
0.403213
0.410457
0.414894
0.40725
0.412173
0.42264
0.41034
0.414309
0.406692
0.395971
0.381026
0.343109
0.329417
0.332297
0.337357
0.345475
0.354333
0.363107
0.371062
0.380148
0.391624
0.406567
0.42032
0.408906
0.387743
0.381018
0.379054
0.373247
0.368259
0.385578
0.406216
0.412923
0.413212
0.401405
0.407081
0.422509
0.408991
0.412159
0.406343
0.394733
0.382478
0.347698
0.330844
0.333866
0.339123
0.345991
0.355997
0.368044
0.378237
0.386001
0.396144
0.410258
0.423473
0.411582
0.390076
0.384115
0.379093
0.371326
0.368505
0.391382
0.412749
0.41507
0.410911
0.396562
0.40208
0.421003
0.4057
0.409239
0.406074
0.394078
0.385575
0.352007
0.334777
0.335374
0.340744
0.346331
0.357681
0.372919
0.383316
0.392174
0.399646
0.41237
0.423731
0.412996
0.390881
0.385176
0.377372
0.368878
0.371812
0.399717
0.418384
0.415199
0.406472
0.391268
0.397516
0.418758
0.405093
0.406398
0.402892
0.394591
0.389204
0.358501
0.339524
0.337454
0.342062
0.34648
0.360934
0.375929
0.386608
0.395971
0.404341
0.413092
0.422329
0.41182
0.389688
0.383362
0.374458
0.369735
0.378062
0.4089
0.419892
0.412874
0.400086
0.38545
0.393294
0.416707
0.408561
0.404682
0.399364
0.395102
0.393635
0.366327
0.345875
0.340314
0.343628
0.348353
0.364064
0.379045
0.387438
0.398099
0.407464
0.414342
0.418122
0.408021
0.387481
0.379121
0.372967
0.373842
0.386897
0.415295
0.417808
0.40627
0.39165
0.381418
0.389833
0.418878
0.414567
0.406156
0.395563
0.395402
0.396401
0.375247
0.35284
0.344581
0.346181
0.351547
0.368711
0.381667
0.389796
0.398223
0.409266
0.414427
0.412224
0.402895
0.383869
0.374458
0.373529
0.38074
0.395302
0.415813
0.411486
0.394646
0.385215
0.379325
0.388
0.422611
0.418193
0.406117
0.393876
0.394954
0.398126
0.383667
0.361145
0.349225
0.348751
0.355998
0.373198
0.385455
0.392833
0.400942
0.409173
0.414127
0.406391
0.39753
0.380637
0.372434
0.377374
0.388563
0.400218
0.411822
0.401375
0.387839
0.382331
0.378898
0.390225
0.426855
0.417204
0.403943
0.394216
0.394051
0.398273
0.390586
0.369084
0.354105
0.352044
0.360095
0.379168
0.389837
0.397832
0.404013
0.410662
0.413065
0.402035
0.391524
0.380262
0.373113
0.381517
0.394072
0.400527
0.406438
0.395244
0.385249
0.381814
0.379191
0.395108
0.430614
0.413976
0.400602
0.393664
0.392468
0.397962
0.393949
0.375643
0.359291
0.355165
0.365189
0.384849
0.396353
0.402292
0.408558
0.412287
0.410118
0.394718
0.388519
0.38176
0.374676
0.38416
0.396068
0.40098
0.405401
0.39495
0.387774
0.386168
0.384461
0.400916
0.432675
0.409165
0.396642
0.391644
0.391186
0.398306
0.397537
0.378967
0.363367
0.357449
0.369731
0.390005
0.40004
0.406388
0.411463
0.411066
0.401919
0.391272
0.388236
0.384462
0.377791
0.386866
0.397485
0.405261
0.408932
0.40125
0.396282
0.395536
0.393356
0.406255
0.428983
0.402695
0.392866
0.389787
0.39242
0.398732
0.399707
0.380689
0.365967
0.358711
0.373227
0.393276
0.401663
0.407124
0.412585
0.407195
0.399134
0.391039
0.389683
0.388442
0.384763
0.390377
0.400645
0.412803
0.416141
0.410896
0.408683
0.407669
0.401867
0.411876
0.423845
0.396549
0.389807
0.390853
0.394421
0.398678
0.399909
0.381387
0.368841
0.361335
0.375148
0.395796
0.401091
0.408231
0.412105
0.405322
0.397001
0.391918
0.39114
0.393112
0.391535
0.394361
0.404941
0.420441
0.423453
0.421182
0.420407
0.417153
0.408552
0.419732
0.419601
0.393249
0.389967
0.393703
0.396687
0.399206
0.399302
0.382651
0.373004
0.366575
0.378152
0.396854
0.402027
0.408448
0.413341
0.403335
0.396414
0.391615
0.391895
0.3929
0.394354
0.397437
0.409059
0.427335
0.429949
0.429775
0.428349
0.424798
0.417854
0.427654
0.414717
0.393744
0.39278
0.396525
0.400228
0.400965
0.40072
0.385895
0.37893
0.374037
0.38184
0.398949
0.404752
0.412298
0.412789
0.40442
0.396491
0.392077
0.389518
0.390154
0.392836
0.39758
0.411619
0.434038
0.437304
0.437627
0.436928
0.433972
0.427373
0.433723
0.413682
0.396001
0.396186
0.398989
0.40372
0.404797
0.403786
0.390624
0.384905
0.380252
0.384387
0.400021
0.410954
0.416592
0.416454
0.407561
0.39907
0.391808
0.388367
0.388373
0.390188
0.39142
0.407542
0.437768
0.443834
0.445756
0.445784
0.440233
0.433261
0.438337
0.41743
0.401817
0.400454
0.401393
0.406683
0.409148
0.408363
0.395251
0.388716
0.384455
0.384562
0.399505
0.412926
0.419162
0.418758
0.411558
0.401537
0.393984
0.388361
0.389047
0.387016
0.385752
0.401139
0.432139
0.445032
0.451967
0.450475
0.44437
0.435071
0.439153
0.423906
0.411286
0.408631
0.408693
0.41047
0.414142
0.414963
0.39977
0.39044
0.38538
0.385797
0.39603
0.4067
0.415694
0.419704
0.413117
0.405358
0.396591
0.391652
0.390726
0.388809
0.385122
0.401801
0.428018
0.439573
0.450541
0.453811
0.450854
0.439196
0.439703
0.432475
0.416255
0.417375
0.417904
0.417171
0.419701
0.421276
0.404355
0.389168
0.382858
0.386114
0.392205
0.399329
0.412106
0.415564
0.412397
0.405149
0.399514
0.397523
0.395674
0.391605
0.387822
0.401895
0.426835
0.435433
0.446687
0.454835
0.455447
0.445387
0.443243
0.440691
0.418423
0.419502
0.423824
0.424165
0.42572
0.425906
0.406135
0.382721
0.377366
0.38304
0.387353
0.397237
0.406534
0.413957
0.410764
0.405197
0.403129
0.404575
0.399614
0.395223
0.389676
0.398749
0.425428
0.436836
0.445987
0.455113
0.45821
0.447797
0.446297
0.444526
0.41933
0.41728
0.421487
0.426856
0.430468
0.428673
0.402844
0.372667
0.369881
0.37626
0.384954
0.393917
0.401675
0.406403
0.406164
0.406528
0.409409
0.406153
0.404027
0.396866
0.391654
0.394762
0.421689
0.43804
0.447488
0.456244
0.459347
0.445913
0.446405
0.445827
0.414802
0.411571
0.416157
0.423478
0.430607
0.427102
0.391936
0.364716
0.363549
0.371943
0.379736
0.388013
0.39096
0.394092
0.39569
0.40512
0.412246
0.409816
0.406301
0.399976
0.391221
0.393112
0.414607
0.437586
0.449132
0.457751
0.458992
0.442039
0.444663
0.442834
0.406
0.405395
0.410756
0.419251
0.426353
0.418865
0.380126
0.36171
0.363031
0.36576
0.368495
0.371597
0.373232
0.375173
0.384984
0.397598
0.408249
0.41177
0.409356
0.401124
0.391384
0.392144
0.409228
0.434587
0.451248
0.458527
0.456813
0.438605
0.443699
0.434107
0.400366
0.400597
0.40716
0.413893
0.421664
0.40847
0.374886
0.363073
0.363607
0.360274
0.35553
0.35537
0.353133
0.350862
0.367281
0.385995
0.396709
0.409963
0.409885
0.398837
0.385418
0.390726
0.406038
0.430478
0.452506
0.458968
0.453689
0.434985
0.443903
0.431263
0.397643
0.396584
0.403509
0.410076
0.417468
0.403018
0.375822
0.365307
0.360598
0.354054
0.349926
0.34811
0.34516
0.342203
0.35107
0.365727
0.379054
0.393347
0.400685
0.387106
0.378728
0.385322
0.403573
0.425666
0.452195
0.458721
0.45003
0.432679
0.442462
0.432383
0.396322
0.395824
0.401998
0.409103
0.416867
0.400425
0.378472
0.36527
0.353558
0.348846
0.346846
0.346251
0.340571
0.33988
0.343033
0.349007
0.358994
0.372727
0.390623
0.382319
0.3729
0.380495
0.398276
0.419913
0.448397
0.45467
0.443911
0.430274
0.440388
0.435407
0.399648
0.39769
0.402771
0.409087
0.4146
0.399034
0.379896
0.36398
0.347915
0.345471
0.347052
0.344303
0.338543
0.336496
0.337421
0.338503
0.34915
0.361744
0.383123
0.380474
0.370293
0.377043
0.394316
0.413025
0.439975
0.447959
0.43488
0.427236
0.438769
0.436962
0.404833
0.404412
0.404785
0.408182
0.411278
0.398885
0.379173
0.362689
0.344914
0.344516
0.344912
0.342596
0.335514
0.333896
0.332783
0.333332
0.342948
0.356708
0.37593
0.37912
0.370149
0.375491
0.391375
0.408255
0.432576
0.439523
0.425551
0.42071
0.439369
0.436134
0.410414
0.412387
0.409137
0.407933
0.409276
0.399258
0.379714
0.36212
0.345711
0.342384
0.343168
0.338764
0.333083
0.330698
0.330397
0.330074
0.336871
0.349309
0.372731
0.376976
0.371365
0.375153
0.39071
0.40805
0.429876
0.429316
0.414725
0.406486
0.43792
0.431239
0.412984
0.416285
0.412571
0.406716
0.406794
0.399088
0.379977
0.363197
0.348311
0.343526
0.341152
0.33622
0.329989
0.328596
0.328103
0.32875
0.331564
0.340193
0.363487
0.376024
0.373326
0.37881
0.394393
0.412648
0.430658
0.424828
0.416428
0.409092
0.431013
0.418943
0.410059
0.412275
0.410426
0.403676
0.404578
0.398796
0.379403
0.364776
0.352177
0.346154
0.344555
0.336206
0.328945
0.326074
0.326865
0.327658
0.330372
0.33723
0.352455
0.36972
0.378908
0.384457
0.402609
0.421669
0.436537
0.4291
0.424155
0.415337
0.429649
0.405121
0.401027
0.403785
0.405706
0.402004
0.403759
0.400425
0.380745
0.368946
0.359212
0.349959
0.346111
0.33991
0.330292
0.325689
0.32528
0.327865
0.330334
0.337581
0.347942
0.368251
0.382029
0.390781
0.410545
0.431751
0.441899
0.430218
0.427566
0.420764
0.431607
0.397166
0.390989
0.397043
0.402539
0.401255
0.404222
0.402861
0.384252
0.373812
0.366112
0.355027
0.349467
0.340482
0.333984
0.328036
0.326504
0.328524
0.331508
0.339343
0.355179
0.373357
0.387134
0.392145
0.41067
0.435618
0.438641
0.424261
0.423186
0.415715
0.430701
0.394311
0.385426
0.392541
0.400619
0.403118
0.407125
0.406259
0.387779
0.379166
0.370744
0.36187
0.352092
0.341838
0.334733
0.331882
0.3305
0.332591
0.335122
0.348263
0.368668
0.383026
0.390967
0.392963
0.406354
0.433473
0.432192
0.420171
0.416764
0.406707
0.422933
0.39502
0.384029
0.389963
0.399845
0.405005
0.411217
0.408221
0.389432
0.380881
0.373839
0.365144
0.354528
0.342517
0.336897
0.333991
0.335377
0.336932
0.340835
0.356899
0.383167
0.392602
0.396114
0.396079
0.409321
0.433711
0.429102
0.416279
0.412448
0.404106
0.418684
0.401056
0.386452
0.388134
0.396126
0.40502
0.413743
0.40924
0.389193
0.381385
0.374113
0.367118
0.355015
0.34606
0.340007
0.337396
0.338545
0.341074
0.345825
0.364845
0.394521
0.404527
0.403158
0.405596
0.417496
0.437455
0.428224
0.41464
0.411233
0.405661
0.42468
0.413058
0.392717
0.390629
0.393543
0.401449
0.41386
0.409091
0.388939
0.379686
0.373606
0.365902
0.357307
0.348888
0.343473
0.339918
0.341245
0.344078
0.351691
0.372583
0.402168
0.414315
0.414148
0.415967
0.423396
0.441682
0.430073
0.416573
0.414844
0.412676
0.427358
0.422037
0.404378
0.399434
0.397643
0.399477
0.410104
0.407032
0.388371
0.37784
0.371247
0.365554
0.358962
0.351069
0.343803
0.342108
0.342626
0.34771
0.356882
0.379576
0.407168
0.420351
0.422993
0.422478
0.422498
0.442939
0.431857
0.419844
0.416631
0.413833
0.427506
0.425677
0.4156
0.410976
0.405764
0.403521
0.407494
0.401057
0.385743
0.375547
0.36973
0.364012
0.358002
0.349422
0.34241
0.342005
0.343973
0.349993
0.361372
0.383587
0.410027
0.421139
0.424797
0.422491
0.420579
0.438388
0.428401
0.419656
0.416115
0.412644
0.428319
0.427257
0.421285
0.420042
0.415765
0.410409
0.406773
0.395859
0.381195
0.37108
0.365168
0.360841
0.355209
0.346861
0.338848
0.3407
0.343563
0.350271
0.364362
0.385943
0.407944
0.418807
0.421908
0.422007
0.424246
0.440044
0.42742
0.417295
0.413388
0.410297
0.428804
0.426189
0.423108
0.423883
0.422419
0.417529
0.409321
0.39584
0.379313
0.368756
0.360711
0.355717
0.352998
0.344886
0.337385
0.338221
0.343131
0.350006
0.365748
0.386455
0.405254
0.417425
0.421868
0.422333
0.427691
0.442568
0.431936
0.420166
0.411612
0.403513
0.428496
0.421044
0.421228
0.424652
0.425074
0.422785
0.414962
0.3984
0.38165
0.368631
0.354319
0.350735
0.347063
0.342034
0.33778
0.338314
0.342643
0.35174
0.367859
0.387855
0.405241
0.420092
0.423687
0.424289
0.42887
0.442032
0.435461
0.425588
0.415918
0.403245
0.429677
0.415669
0.419088
0.425613
0.426817
0.426138
0.418672
0.400229
0.382519
0.361549
0.348275
0.344823
0.342033
0.337505
0.337954
0.338023
0.342685
0.352099
0.36905
0.388822
0.408661
0.423269
0.424592
0.424121
0.429115
0.440101
0.436548
0.431955
0.428292
0.416292
0.430594
0.41275
0.418104
0.426781
0.427847
0.427461
0.418347
0.396861
0.37329
0.351257
0.341176
0.339485
0.336061
0.334901
0.336181
0.338658
0.342997
0.353569
0.369097
0.390131
0.412225
0.423266
0.420313
0.422757
0.431571
0.443138
0.44098
0.441251
0.442004
0.42837
0.432159
0.410965
0.412899
0.423986
0.425318
0.427637
0.416645
0.388851
0.363286
0.344853
0.335906
0.333817
0.333034
0.332379
0.336153
0.339603
0.346073
0.356686
0.372996
0.393988
0.414254
0.418327
0.411256
0.41696
0.432175
0.446641
0.447489
0.449946
0.448639
0.43389
0.433563
0.409348
0.406399
0.418858
0.422637
0.424448
0.413823
0.383218
0.356908
0.338594
0.331314
0.331006
0.331321
0.334059
0.33837
0.344282
0.351198
0.362446
0.378785
0.400588
0.413112
0.410144
0.399387
0.406009
0.425681
0.44282
0.448446
0.450017
0.445024
0.433759
0.434131
0.402083
0.401193
0.416781
0.421413
0.421703
0.405956
0.377624
0.351673
0.334288
0.33067
0.331026
0.334718
0.338389
0.343888
0.349692
0.357141
0.367655
0.386962
0.405276
0.410436
0.404971
0.393281
0.395185
0.416023
0.436622
0.443521
0.442577
0.437918
0.428645
0.434365
0.395167
0.399882
0.416972
0.421914
0.419526
0.399653
0.369408
0.347059
0.336921
0.333561
0.335266
0.339191
0.344219
0.348987
0.355059
0.360312
0.373309
0.394413
0.410142
0.410299
0.400636
0.389266
0.388834
0.407463
0.432354
0.438556
0.436631
0.431996
0.424516
0.435735
0.3978
0.400646
0.416182
0.422673
0.418925
0.395314
0.363865
0.346417
0.339683
0.339302
0.340428
0.344389
0.347951
0.353784
0.359382
0.364363
0.378822
0.400273
0.411738
0.408112
0.396011
0.388231
0.388563
0.402349
0.431784
0.440119
0.435764
0.430166
0.427119
0.442715
0.408737
0.402227
0.414264
0.422426
0.420125
0.392657
0.364479
0.346704
0.342405
0.341807
0.345191
0.348667
0.352827
0.358191
0.364116
0.369825
0.385146
0.402991
0.410688
0.404314
0.39562
0.391715
0.393809
0.400939
0.428265
0.443334
0.440434
0.436409
0.437194
0.448055
0.416192
0.406559
0.414422
0.421612
0.419963
0.393469
0.368391
0.350362
0.344253
0.343884
0.34662
0.351361
0.356327
0.36349
0.368798
0.376146
0.391821
0.405294
0.407553
0.405182
0.400206
0.397332
0.39822
0.401642
0.422275
0.443243
0.445771
0.44347
0.441646
0.453866
0.416075
0.411026
0.417975
0.422161
0.417639
0.392887
0.370052
0.355532
0.348158
0.345907
0.348829
0.353082
0.359807
0.366363
0.372741
0.380842
0.39824
0.408116
0.409143
0.409053
0.404029
0.399791
0.402025
0.403203
0.415574
0.440907
0.442924
0.444651
0.447442
0.454794
0.411743
0.410468
0.420031
0.425739
0.414031
0.390523
0.367937
0.358512
0.35151
0.348186
0.350298
0.35532
0.361622
0.368154
0.373584
0.383273
0.401192
0.413827
0.413011
0.410147
0.404142
0.400909
0.402188
0.402452
0.407107
0.433717
0.43832
0.439839
0.444757
0.451266
0.407304
0.409253
0.420719
0.428297
0.412585
0.38583
0.366676
0.358539
0.353284
0.348415
0.350716
0.356186
0.363031
0.367641
0.373658
0.382548
0.402346
0.416684
0.413341
0.408462
0.402108
0.397665
0.399264
0.399791
0.401825
0.420056
0.43254
0.431761
0.435382
0.443818
0.405278
0.408454
0.42185
0.428861
0.411949
0.381599
0.365816
0.358716
0.352134
0.348017
0.350161
0.35727
0.362976
0.367148
0.371253
0.380137
0.400579
0.413403
0.40885
0.404658
0.397854
0.393022
0.394775
0.397632
0.399457
0.410957
0.425697
0.424325
0.42532
0.435854
0.405384
0.408918
0.423574
0.429677
0.409281
0.378793
0.365056
0.357568
0.351263
0.348193
0.351791
0.358047
0.363717
0.366905
0.371897
0.380766
0.395694
0.405806
0.404615
0.40189
0.394159
0.389985
0.392576
0.395706
0.398338
0.405076
0.413112
0.413197
0.408916
0.423781
0.409102
0.410659
0.425384
0.430934
0.40482
0.377112
0.363566
0.357566
0.350429
0.349504
0.352714
0.358464
0.362194
0.367615
0.374778
0.38355
0.388028
0.392621
0.395617
0.39503
0.38876
0.385098
0.385485
0.389488
0.39385
0.400407
0.399517
0.394707
0.388243
0.409823
0.415871
0.412686
0.427622
0.430792
0.401689
0.375291
0.363788
0.357392
0.351455
0.349953
0.353909
0.359008
0.36403
0.369466
0.375963
0.376717
0.373519
0.375243
0.376932
0.37838
0.381571
0.378665
0.377599
0.380312
0.385316
0.392242
0.389728
0.382318
0.379497
0.399427
0.420583
0.420829
0.43096
0.425837
0.399082
0.375787
0.364821
0.35776
0.352478
0.352025
0.355529
0.361887
0.365965
0.368995
0.368867
0.366737
0.36308
0.361947
0.364481
0.367746
0.37493
0.376027
0.372822
0.374139
0.380013
0.387149
0.384411
0.376268
0.373946
0.394617
0.420843
0.425096
0.434081
0.420124
0.395079
0.378028
0.367577
0.358911
0.354095
0.352973
0.357066
0.363125
0.366704
0.364666
0.363068
0.360113
0.356514
0.35618
0.361746
0.366399
0.372973
0.375447
0.372425
0.372808
0.377813
0.383838
0.380668
0.373542
0.371428
0.397037
0.419912
0.425349
0.436588
0.416426
0.392992
0.381134
0.37083
0.361551
0.355039
0.354282
0.356568
0.36279
0.363598
0.361523
0.359453
0.35735
0.353148
0.353379
0.360609
0.367373
0.373842
0.37708
0.37431
0.374794
0.378465
0.382844
0.37986
0.375393
0.37366
0.405512
0.420795
0.424788
0.434614
0.411035
0.391616
0.383346
0.374294
0.364329
0.357254
0.354705
0.355725
0.359071
0.359205
0.358801
0.359082
0.35505
0.351549
0.352457
0.359545
0.368191
0.376321
0.380797
0.377656
0.376368
0.380493
0.384281
0.382636
0.381296
0.383034
0.424144
0.42381
0.424398
0.428928
0.404018
0.390979
0.385202
0.376831
0.367418
0.357968
0.355283
0.353799
0.353435
0.353052
0.355954
0.356806
0.352932
0.350097
0.352146
0.359372
0.369598
0.379361
0.385276
0.380977
0.378291
0.384159
0.38905
0.390504
0.39472
0.401224
0.439929
0.424162
0.419378
0.422414
0.400227
0.392081
0.386603
0.379421
0.36864
0.358505
0.35449
0.351471
0.345324
0.344782
0.34976
0.351069
0.347816
0.349109
0.352168
0.359539
0.371554
0.383139
0.389388
0.384882
0.381903
0.390163
0.398477
0.40399
0.409935
0.416073
0.456108
0.423879
0.415948
0.4171
0.400615
0.393872
0.388417
0.382059
0.370479
0.35796
0.353397
0.346577
0.338866
0.337085
0.341557
0.341277
0.341483
0.347685
0.353003
0.360194
0.373045
0.386235
0.392058
0.388109
0.387302
0.399096
0.411461
0.4176
0.421902
0.43165
0.470371
0.428926
0.413136
0.415334
0.404655
0.397977
0.391138
0.385752
0.371807
0.358147
0.351945
0.343877
0.336217
0.336098
0.335681
0.333595
0.33638
0.348005
0.356854
0.36342
0.375283
0.39128
0.396936
0.393631
0.395447
0.410523
0.424693
0.429565
0.434255
0.444866
0.470552
0.432714
0.412606
0.419299
0.41128
0.403692
0.393905
0.38794
0.37305
0.358344
0.351585
0.345866
0.341042
0.339589
0.336658
0.330533
0.333147
0.346694
0.361682
0.371342
0.381098
0.400537
0.404752
0.401874
0.407451
0.422988
0.436734
0.440861
0.439465
0.443754
0.465272
0.435071
0.418274
0.427298
0.417859
0.409025
0.397793
0.38911
0.371665
0.360906
0.357248
0.354141
0.347781
0.34564
0.339063
0.331366
0.32773
0.33891
0.357872
0.374207
0.387858
0.409388
0.414941
0.414155
0.421574
0.435385
0.446813
0.443823
0.436327
0.437579
0.45856
0.438246
0.425241
0.433806
0.425635
0.415554
0.404232
0.390588
0.372947
0.364587
0.36385
0.361082
0.354299
0.348725
0.340811
0.330853
0.326155
0.332818
0.353713
0.372457
0.390038
0.416467
0.42351
0.426038
0.434734
0.446571
0.449748
0.441794
0.429616
0.43164
0.446463
0.438814
0.430816
0.439674
0.435703
0.424538
0.411029
0.394539
0.377616
0.368414
0.365475
0.364278
0.357346
0.350619
0.341811
0.333322
0.327893
0.328886
0.345008
0.369273
0.390754
0.418899
0.43001
0.436108
0.44481
0.451755
0.449448
0.437597
0.422362
0.418459
0.429931
0.434863
0.434777
0.443552
0.444015
0.433814
0.416623
0.400965
0.384696
0.371652
0.366553
0.362813
0.357755
0.351149
0.344457
0.335853
0.330003
0.327508
0.337229
0.365177
0.390892
0.419317
0.434841
0.443581
0.450299
0.452318
0.447136
0.432046
0.409865
0.399686
0.410796
0.429499
0.432618
0.443848
0.447449
0.438032
0.420802
0.407637
0.390989
0.37627
0.366993
0.361225
0.355674
0.35128
0.345659
0.338932
0.332553
0.330729
0.336768
0.360438
0.388855
0.417774
0.436342
0.448692
0.452451
0.449321
0.439289
0.419131
0.389092
0.376456
0.393234
0.424318
0.426919
0.440937
0.446101
0.436369
0.421879
0.410274
0.396153
0.381119
0.368342
0.359414
0.353948
0.350096
0.346123
0.340971
0.337572
0.335644
0.340746
0.357438
0.386145
0.413989
0.435394
0.447853
0.451557
0.444533
0.429033
0.404236
0.368813
0.366827
0.389756
0.419265
0.420576
0.435996
0.44086
0.433608
0.419111
0.409416
0.398041
0.385216
0.370682
0.360314
0.353704
0.350656
0.346257
0.343778
0.341552
0.34064
0.344534
0.356495
0.382581
0.40938
0.431249
0.441559
0.44742
0.440689
0.421571
0.391441
0.363882
0.366289
0.387218
0.416731
0.413437
0.430983
0.437508
0.433213
0.417702
0.409011
0.400825
0.38774
0.375164
0.363563
0.356306
0.350905
0.346022
0.344302
0.344263
0.343426
0.347035
0.355969
0.377278
0.404455
0.42509
0.434031
0.439348
0.436965
0.419733
0.387355
0.365401
0.367516
0.385841
0.417148
0.410321
0.428655
0.436595
0.435253
0.419843
0.411139
0.403384
0.390896
0.378016
0.367058
0.357846
0.350208
0.34471
0.344779
0.34426
0.344805
0.348067
0.355116
0.371374
0.40215
0.421031
0.428894
0.431196
0.429478
0.418169
0.388787
0.36894
0.369991
0.385834
0.41992
0.412261