/*--------------------------------*- C++ -*----------------------------------*\
| =========                 |                                                 |
| \\      /  F ield         | OpenFOAM: The Open Source CFD Toolbox           |
|  \\    /   O peration     | Version:  2.3.0                                 |
|   \\  /    A nd           | Web:      www.OpenFOAM.org                      |
|    \\/     M anipulation  |                                                 |
\*---------------------------------------------------------------------------*/
FoamFile
{
    version     2.0;
    format      ascii;
    class       volScalarField;
    location    "0.67";
    object      alpha.particlesMean;
}
// * * * * * * * * * * * * * * * * * * * * * * * * * * * * * * * * * * * * * //

dimensions      [0 0 0 0 0 0 0];

internalField   nonuniform List<scalar> 
6000
(
0.408338
0.41545
0.415657
0.417083
0.413656
0.412579
0.416563
0.419216
0.4183
0.412486
0.406423
0.40597
0.401898
0.39711
0.397367
0.394265
0.399398
0.406799
0.409771
0.416199
0.421208
0.421369
0.417078
0.414815
0.414988
0.418668
0.421135
0.418171
0.415416
0.40898
0.395829
0.393793
0.388534
0.384061
0.385725
0.386322
0.388639
0.386369
0.384033
0.384686
0.383761
0.383244
0.384432
0.386587
0.388289
0.386867
0.381832
0.38072
0.381729
0.382728
0.387918
0.391706
0.390789
0.387197
0.384487
0.384118
0.385293
0.393185
0.395633
0.395201
0.397412
0.395725
0.389839
0.388534
0.393654
0.393897
0.393263
0.386015
0.38749
0.393846
0.393767
0.391756
0.392224
0.392933
0.397053
0.390677
0.382639
0.383881
0.387409
0.388987
0.390898
0.392886
0.395701
0.389792
0.386721
0.386431
0.388524
0.391806
0.395703
0.394726
0.3956
0.387142
0.38364
0.385285
0.390151
0.394676
0.389952
0.385155
0.386477
0.394924
0.398694
0.396406
0.39306
0.392752
0.391372
0.381894
0.378646
0.383929
0.388511
0.390337
0.387309
0.386603
0.387762
0.381737
0.379621
0.382668
0.38238
0.384226
0.383992
0.39001
0.380895
0.375328
0.376388
0.376914
0.381636
0.384389
0.379917
0.375545
0.379321
0.389104
0.394796
0.391952
0.384252
0.372408
0.372667
0.366224
0.370696
0.376548
0.384133
0.382533
0.377217
0.374966
0.373372
0.367842
0.370542
0.372602
0.373292
0.373445
0.36902
0.373054
0.367244
0.366757
0.371201
0.374246
0.375458
0.374127
0.366584
0.363675
0.368635
0.378467
0.383876
0.380995
0.364512
0.364224
0.36856
0.36288
0.362214
0.369003
0.374012
0.37044
0.364054
0.361473
0.358187
0.356272
0.358974
0.363619
0.366954
0.366132
0.35778
0.359487
0.362605
0.362586
0.367776
0.370921
0.371383
0.366112
0.356616
0.354044
0.359899
0.370383
0.372891
0.368131
0.364981
0.370365
0.374619
0.367025
0.361818
0.362953
0.367888
0.362688
0.357917
0.35325
0.349658
0.34713
0.351493
0.360269
0.368619
0.365681
0.358947
0.359382
0.364293
0.364313
0.36588
0.367325
0.367679
0.364858
0.35365
0.346547
0.351845
0.364194
0.367117
0.366073
0.3721
0.378629
0.378357
0.373618
0.364616
0.363806
0.366952
0.364695
0.357088
0.350731
0.346421
0.347756
0.354292
0.365578
0.373601
0.372491
0.36795
0.367987
0.376395
0.373602
0.372937
0.366292
0.368075
0.366973
0.358226
0.345402
0.347297
0.357708
0.366306
0.368049
0.381065
0.383372
0.382507
0.375033
0.368034
0.363431
0.366932
0.362819
0.355354
0.35209
0.351768
0.354986
0.360606
0.371988
0.380762
0.385469
0.383769
0.386326
0.395218
0.388125
0.381785
0.370276
0.370525
0.372169
0.369775
0.351348
0.344863
0.351231
0.367042
0.375911
0.386995
0.386912
0.382394
0.375532
0.367762
0.364657
0.364896
0.357265
0.351975
0.356768
0.361445
0.362099
0.367481
0.377333
0.38531
0.399197
0.400995
0.407858
0.413787
0.402279
0.388041
0.373935
0.372461
0.375755
0.378364
0.358786
0.342675
0.348616
0.373877
0.388326
0.392145
0.388381
0.382824
0.37485
0.369527
0.367497
0.367243
0.355015
0.354227
0.363021
0.366036
0.368777
0.374474
0.381723
0.389762
0.406759
0.417535
0.428512
0.429864
0.413938
0.392062
0.376557
0.372656
0.375142
0.378172
0.366508
0.343272
0.345962
0.37644
0.399999
0.39516
0.389342
0.381801
0.375446
0.371431
0.37376
0.368594
0.355779
0.361128
0.367159
0.369626
0.374091
0.380467
0.386115
0.393777
0.4124
0.432216
0.449684
0.443348
0.421127
0.398319
0.377775
0.371791
0.371672
0.37523
0.372581
0.347965
0.343327
0.370404
0.405232
0.398192
0.388617
0.380579
0.375004
0.375912
0.38034
0.368154
0.361753
0.367955
0.370099
0.371056
0.376962
0.38394
0.389888
0.398856
0.421354
0.44616
0.471406
0.454884
0.426941
0.407388
0.379516
0.370034
0.368635
0.370269
0.370563
0.354639
0.344371
0.361988
0.398565
0.40109
0.389239
0.37822
0.375829
0.381396
0.383173
0.369916
0.369022
0.371636
0.370462
0.369109
0.375865
0.384834
0.391171
0.40465
0.436852
0.463964
0.489948
0.465934
0.435594
0.417586
0.381616
0.369375
0.365227
0.365061
0.366095
0.36026
0.348662
0.355447
0.383339
0.400687
0.390317
0.378709
0.37817
0.387423
0.384009
0.373558
0.372977
0.371652
0.367154
0.36493
0.372127
0.382949
0.392871
0.415246
0.457074
0.480675
0.502917
0.474853
0.443402
0.427627
0.387194
0.368754
0.361678
0.361179
0.362018
0.360815
0.352822
0.35203
0.361605
0.394527
0.391484
0.379763
0.382586
0.392984
0.384466
0.376152
0.373016
0.36815
0.362252
0.359867
0.367795
0.379733
0.399825
0.433567
0.47815
0.494261
0.508648
0.477829
0.448687
0.438232
0.397998
0.369138
0.359027
0.358595
0.358403
0.358169
0.352775
0.349714
0.349998
0.380143
0.392358
0.381913
0.387004
0.398176
0.385477
0.376028
0.370501
0.363033
0.356814
0.355815
0.364014
0.37589
0.412904
0.45358
0.497802
0.504139
0.510117
0.477794
0.454779
0.448398
0.413229
0.369883
0.357452
0.355974
0.35505
0.354678
0.351176
0.347344
0.345266
0.36579
0.391918
0.384701
0.390237
0.403294
0.386503
0.374715
0.36639
0.357826
0.351899
0.350868
0.359532
0.377356
0.423234
0.470417
0.507251
0.503532
0.510145
0.477268
0.460606
0.457118
0.428314
0.372207
0.355736
0.353672
0.351409
0.351256
0.348865
0.345337
0.342381
0.355629
0.387869
0.387333
0.39281
0.407275
0.389577
0.371351
0.362312
0.352922
0.347078
0.345838
0.353818
0.378753
0.424791
0.481238
0.505874
0.496381
0.506558
0.479122
0.465467
0.464557
0.440428
0.373973
0.353761
0.351304
0.348501
0.34791
0.34645
0.343486
0.34074
0.350105
0.384089
0.389657
0.394269
0.408868
0.392444
0.369175
0.358139
0.348949
0.34261
0.339322
0.345225
0.378575
0.418366
0.47845
0.497349
0.48258
0.500413
0.482559
0.468204
0.472067
0.450692
0.379471
0.351446
0.348883
0.345831
0.344784
0.34411
0.34192
0.338758
0.345662
0.379877
0.390362
0.395264
0.406898
0.396999
0.368111
0.355481
0.345472
0.338403
0.332873
0.336517
0.370725
0.406776
0.468163
0.480542
0.470113
0.488157
0.483301
0.471434
0.477578
0.457808
0.387351
0.34959
0.345767
0.344001
0.342375
0.342027
0.340275
0.337742
0.342284
0.36863
0.389275
0.393987
0.404477
0.399676
0.370284
0.353285
0.343494
0.334503
0.327499
0.326707
0.357417
0.394202
0.458218
0.471319
0.464808
0.484783
0.482245
0.472199
0.479846
0.462129
0.393728
0.348352
0.342423
0.3422
0.340985
0.340942
0.339445
0.337432
0.33925
0.355843
0.378764
0.390258
0.400041
0.400029
0.372219
0.354083
0.341587
0.331536
0.322471
0.318909
0.343958
0.387
0.453817
0.473327
0.469237
0.485626
0.48327
0.468868
0.474967
0.464848
0.398868
0.347629
0.339232
0.339502
0.339394
0.339268
0.338757
0.338051
0.33794
0.347719
0.362136
0.38322
0.395677
0.396653
0.375465
0.354605
0.341143
0.328182
0.318479
0.314855
0.335691
0.384252
0.448639
0.480403
0.47763
0.486758
0.485375
0.464499
0.471609
0.469067
0.406366
0.347125
0.335516
0.33616
0.336772
0.33697
0.337146
0.337427
0.337637
0.341442
0.352948
0.368481
0.388766
0.39357
0.376743
0.356251
0.339542
0.326617
0.315268
0.31594
0.333814
0.382229
0.443309
0.479945
0.481587
0.48795
0.485596
0.459953
0.46886
0.470583
0.416647
0.348903
0.333375
0.332723
0.333815
0.334185
0.334692
0.335573
0.336234
0.337617
0.345643
0.356493
0.379609
0.388256
0.378274
0.355026
0.339211
0.323825
0.31528
0.318218
0.336179
0.383884
0.441056
0.471468
0.479436
0.490132
0.483346
0.455826
0.464647
0.470227
0.424935
0.355299
0.333609
0.329635
0.330383
0.331541
0.331919
0.332595
0.333925
0.335746
0.340701
0.351196
0.366216
0.383223
0.375493
0.353262
0.335704
0.322499
0.316176
0.324946
0.340798
0.389767
0.440244
0.465837
0.471275
0.489735
0.476003
0.452092
0.459668
0.466702
0.430465
0.36416
0.336332
0.327945
0.328635
0.329439
0.330123
0.330641
0.332311
0.335621
0.339809
0.345867
0.356716
0.375153
0.370172
0.348378
0.331373
0.320978
0.322702
0.335818
0.345266
0.399077
0.439585
0.460735
0.465362
0.487351
0.468048
0.448766
0.456244
0.461797
0.435108
0.372308
0.341133
0.33037
0.329058
0.330342
0.331075
0.3319
0.333391
0.336323
0.340246
0.343894
0.350076
0.366902
0.363559
0.343838
0.325818
0.325117
0.33251
0.346112
0.350171
0.409287
0.441176
0.455981
0.462438
0.484742
0.465161
0.446774
0.45238
0.457897
0.441664
0.382355
0.346326
0.333108
0.330153
0.331801
0.333324
0.334294
0.334952
0.337715
0.341123
0.344003
0.349273
0.362879
0.360323
0.338135
0.326895
0.330055
0.343564
0.34808
0.356616
0.420448
0.445249
0.453807
0.45986
0.481288
0.468773
0.443526
0.450019
0.455397
0.450166
0.396983
0.352007
0.336618
0.330865
0.332985
0.334279
0.335912
0.337011
0.338579
0.341326
0.343988
0.348396
0.363009
0.354712
0.334977
0.328831
0.336497
0.347194
0.348228
0.366411
0.432584
0.451843
0.456696
0.458846
0.478654
0.478608
0.443123
0.450147
0.455189
0.458334
0.415681
0.360124
0.339464
0.333287
0.334087
0.336142
0.337122
0.338677
0.339532
0.341553
0.343111
0.348004
0.361077
0.352309
0.333158
0.332814
0.339789
0.348293
0.347836
0.377804
0.44535
0.459919
0.461134
0.45687
0.476383
0.48767
0.448028
0.45293
0.456901
0.465541
0.435591
0.371001
0.343634
0.335351
0.336654
0.338095
0.339126
0.339854
0.341142
0.34199
0.342449
0.34654
0.360195
0.349642
0.333957
0.334924
0.343216
0.347349
0.348911
0.390973
0.456537
0.46691
0.462929
0.455717
0.4753
0.48904
0.458594
0.460641
0.461448
0.471163
0.455233
0.38139
0.347326
0.339413
0.33944
0.341149
0.341451
0.341607
0.342902
0.342508
0.341603
0.345208
0.357587
0.347229
0.334578
0.33808
0.347669
0.35046
0.352386
0.405634
0.466621
0.470575
0.463762
0.453525
0.475293
0.486829
0.467514
0.471217
0.46928
0.4737
0.472936
0.392961
0.353356
0.343681
0.343094
0.344325
0.344555
0.343876
0.344597
0.343571
0.341311
0.342731
0.355558
0.3457
0.336878
0.343371
0.355001
0.353845
0.359466
0.421405
0.476259
0.472362
0.463188
0.453285
0.476047
0.484199
0.469608
0.476805
0.477618
0.476188
0.483018
0.407193
0.359822
0.349142
0.346444
0.3479
0.347685
0.346507
0.346617
0.345173
0.341632
0.340721
0.353434
0.347129
0.339134
0.351518
0.359188
0.358352
0.368332
0.438692
0.482328
0.4718
0.462631
0.452622
0.47621
0.480384
0.463819
0.478912
0.484199
0.480468
0.487363
0.417538
0.369206
0.353881
0.350241
0.351621
0.351252
0.349338
0.348532
0.34731
0.342422
0.34002
0.350457
0.348749
0.341492
0.35638
0.36237
0.363242
0.381155
0.454179
0.482878
0.469962
0.461989
0.453195
0.475227
0.47712
0.46058
0.479824
0.48569
0.482711
0.488626
0.423852
0.377678
0.358895
0.353819
0.354965
0.355006
0.352348
0.350677
0.349168
0.343733
0.340115
0.34732
0.349128
0.342229
0.356939
0.364533
0.372273
0.395854
0.463184
0.479097
0.467838
0.462744
0.452249
0.47213
0.476691
0.467382
0.481622
0.486483
0.482922
0.48561
0.42746
0.385535
0.362679
0.356852
0.357682
0.358142
0.355956
0.352753
0.351043
0.344701
0.341173
0.344701
0.348788
0.342681
0.354709
0.368561
0.383191
0.408225
0.465507
0.473501
0.466028
0.461407
0.453525
0.467367
0.483994
0.479399
0.490946
0.485421
0.481525
0.479289
0.430106
0.389708
0.365828
0.359667
0.360189
0.361228
0.359989
0.356056
0.352071
0.345551
0.342011
0.34352
0.347258
0.342923
0.351786
0.37315
0.392802
0.415388
0.464056
0.467671
0.461953
0.459019
0.452704
0.463371
0.4908
0.488136
0.498025
0.486622
0.480488
0.473174
0.432843
0.392091
0.36772
0.361705
0.363181
0.36392
0.36404
0.359967
0.353671
0.345696
0.343569
0.342981
0.346004
0.343816
0.350269
0.377148
0.397433
0.418739
0.46175
0.460951
0.456023
0.454922
0.44938
0.464264
0.495865
0.486407
0.4985
0.490876
0.477362
0.469955
0.437326
0.393354
0.369237
0.364093
0.365344
0.366949
0.366785
0.36405
0.355134
0.346906
0.344355
0.344063
0.345411
0.345936
0.350799
0.378145
0.399264
0.420906
0.459075
0.454148
0.449029
0.448715
0.442394
0.467056
0.49724
0.480633
0.493775
0.489144
0.475712
0.473089
0.444595
0.395787
0.371048
0.365497
0.367787
0.36899
0.369319
0.366566
0.356958
0.347572
0.345884
0.344888
0.346318
0.34802
0.353182
0.377405
0.399413
0.423708
0.455574
0.447961
0.444556
0.444676
0.440373
0.470575
0.494246
0.473549
0.486033
0.484777
0.476967
0.478332
0.455131
0.398369
0.373428
0.368009
0.369324
0.371363
0.370978
0.368604
0.357631
0.34878
0.346463
0.346418
0.346724
0.350792
0.356001
0.376189
0.399841
0.428321
0.451796
0.44354
0.440527
0.44109
0.440351
0.474333
0.485821
0.465683
0.478335
0.480259
0.478805
0.478587
0.463661
0.401327
0.375897
0.369711
0.371825
0.372736
0.37353
0.369713
0.358581
0.348965
0.347894
0.346985
0.347879
0.352145
0.360618
0.376527
0.400536
0.434771
0.44892
0.439606
0.438815
0.442029
0.442914
0.480534
0.476276
0.458869
0.471083
0.476985
0.478522
0.476561
0.465918
0.404349
0.378435
0.372295
0.372656
0.374491
0.374104
0.370232
0.358392
0.349891
0.348035
0.348317
0.347962
0.353324
0.364325
0.377759
0.401722
0.441779
0.448559
0.441657
0.443544
0.449046
0.450539
0.490426
0.471229
0.456028
0.467454
0.474242
0.476136
0.473852
0.464874
0.408076
0.381543
0.372916
0.373567
0.373754
0.374122
0.367815
0.357752
0.349916
0.349256
0.348609
0.349469
0.353194
0.367724
0.377315
0.403113
0.448776
0.451593
0.448619
0.452631
0.459591
0.465935
0.501083
0.471241
0.454581
0.466181
0.469977
0.473184
0.471166
0.464573
0.411374
0.383546
0.373502
0.37188
0.373497
0.371712
0.36503
0.355315
0.351062
0.349604
0.350407
0.350083
0.354356
0.367388
0.375775
0.404848
0.455905
0.456846
0.458455
0.464705
0.473571
0.483998
0.510965
0.47824
0.455012
0.464557
0.465263
0.470215
0.470013
0.465925
0.41407
0.38446
0.371857
0.371086
0.371152
0.369366
0.360582
0.354424
0.351343
0.351485
0.351305
0.352429
0.354779
0.368226
0.373584
0.408571
0.46257
0.461746
0.468501
0.481163
0.48965
0.498127
0.516218
0.491989
0.463467
0.468446
0.4648
0.469333
0.470867
0.469326
0.416765
0.384286
0.371139
0.368298
0.369725
0.364449
0.358411
0.353648
0.35346
0.352449
0.353865
0.353746
0.357517
0.367368
0.373099
0.413895
0.467851
0.467385
0.48001
0.496852
0.506109
0.504949
0.51579
0.500607
0.482271
0.48661
0.479146
0.474035
0.475896
0.474642
0.420962
0.384032
0.367643
0.367358
0.365803
0.362344
0.356844
0.355792
0.354506
0.355176
0.355346
0.356681
0.359305
0.368922
0.371568
0.418189
0.471737
0.475746
0.491777
0.50825
0.51696
0.507565
0.512994
0.504467
0.494823
0.504489
0.498355
0.485928
0.48396
0.480687
0.426888
0.380361
0.36607
0.365025
0.364771
0.360383
0.358612
0.356769
0.357197
0.356571
0.358201
0.358176
0.36309
0.367486
0.371419
0.412132
0.472828
0.485105
0.501531
0.51346
0.520014
0.50951
0.509287
0.5051
0.498887
0.506135
0.50866
0.498195
0.49187
0.486307
0.429786
0.373361
0.363442
0.364804
0.363005
0.361522
0.359177
0.359345
0.358353
0.359422
0.359584
0.361166
0.364099
0.367833
0.369258
0.400204
0.470361
0.491842
0.507437
0.514144
0.51992
0.507739
0.505341
0.501312
0.498055
0.501536
0.506973
0.504303
0.498695
0.488864
0.420115
0.366043
0.363189
0.362736
0.363639
0.361328
0.361389
0.360116
0.36104
0.360735
0.362262
0.36253
0.365506
0.365422
0.369014
0.389479
0.458636
0.494524
0.509414
0.513615
0.517076
0.503338
0.501462
0.497243
0.48409
0.485925
0.492847
0.500168
0.503173
0.483735
0.405813
0.362208
0.361067
0.36299
0.362644
0.363056
0.361653
0.36231
0.361919
0.363202
0.363243
0.364563
0.364191
0.36515
0.366762
0.382567
0.437005
0.490958
0.509389
0.513393
0.513921
0.498624
0.496211
0.487551
0.465485
0.47261
0.480524
0.489384
0.502105
0.474354
0.392548
0.359431
0.360856
0.361063
0.363027
0.361955
0.362755
0.361998
0.363279
0.363029
0.364183
0.363532
0.363704
0.362263
0.365839
0.376318
0.416075
0.474941
0.506811
0.513076
0.511184
0.494316
0.492983
0.46891
0.459289
0.46628
0.4734
0.477581
0.494554
0.459245
0.381528
0.359223
0.358273
0.360503
0.360253
0.361307
0.360715
0.361886
0.361459
0.36252
0.362086
0.362392
0.360829
0.361175
0.361617
0.371099
0.400234
0.452307
0.500814
0.512398
0.508107
0.489602
0.494123
0.467911
0.458269
0.46235
0.468027
0.470041
0.480771
0.4406
0.375474
0.358385
0.358871
0.357987
0.359373
0.358654
0.359949
0.359424
0.360486
0.35993
0.360706
0.359697
0.360105
0.358991
0.360612
0.366216
0.391856
0.432386
0.494039
0.510811
0.501861
0.488279
0.495707
0.476807
0.457626
0.46198
0.464146
0.464399
0.470635
0.427471
0.374158
0.360078
0.358681
0.359551
0.358535
0.359497
0.358694
0.35976
0.359057
0.359822
0.359394
0.360247
0.359425
0.359939
0.359135
0.365307
0.385796
0.417574
0.482566
0.508108
0.496321
0.487789
0.496318
0.488059
0.463583
0.462428
0.462626
0.460588
0.464042
0.423561
0.377001
0.36101
0.361578
0.360598
0.361543
0.360342
0.361243
0.360461
0.361327
0.360627
0.361461
0.360918
0.361553
0.359981
0.361659
0.363845
0.382282
0.406868
0.469032
0.503181
0.488756
0.486897
0.497346
0.494107
0.470481
0.470794
0.463142
0.459951
0.459778
0.424025
0.380066
0.363985
0.362814
0.363961
0.362879
0.363643
0.362643
0.363629
0.362882
0.363663
0.363106
0.363863
0.362807
0.363028
0.362429
0.365132
0.378556
0.400699
0.458896
0.492838
0.479745
0.480052
0.501214
0.496653
0.479283
0.482679
0.470879
0.462421
0.456895
0.426127
0.384329
0.365643
0.366354
0.365522
0.366391
0.365194
0.366044
0.365343
0.366178
0.365589
0.366402
0.365742
0.366254
0.364392
0.365668
0.365943
0.376018
0.396158
0.449571
0.474907
0.460712
0.455485
0.493164
0.498675
0.485664
0.491107
0.482056
0.464192
0.455901
0.428911
0.387584
0.36956
0.368083
0.369199
0.368126
0.368831
0.367925
0.368912
0.368241
0.369039
0.36867
0.369367
0.368311
0.368104
0.366754
0.369186
0.375751
0.394035
0.442375
0.456424
0.450643
0.449769
0.474209
0.498956
0.487947
0.493088
0.488686
0.466376
0.456146
0.43136
0.390019
0.372112
0.37191
0.371164
0.371876
0.370829
0.371663
0.371093
0.3719
0.371435
0.372316
0.371823
0.372175
0.370037
0.370364
0.370624
0.378808
0.398418
0.445561
0.453393
0.453571
0.450003
0.467034
0.497345
0.484898
0.491602
0.489534
0.468522
0.457277
0.433305
0.390561
0.376373
0.373917
0.374976
0.373909
0.374626
0.373865
0.374835
0.374323
0.375117
0.374993
0.375715
0.37461
0.374025
0.371838
0.374426
0.381494
0.407097
0.453847
0.45505
0.458791
0.45116
0.465694
0.495498
0.480351
0.487335
0.488181
0.470652
0.459474
0.435034
0.391501
0.378418
0.377753
0.377101
0.37769
0.376832
0.377637
0.377235
0.378026
0.377827
0.378762
0.378549
0.378573
0.376048
0.375682
0.376114
0.385105
0.419638
0.462151
0.457351
0.463368
0.451907
0.466677
0.495763
0.478522
0.482492
0.486067
0.474125
0.464169
0.43722
0.392252
0.382042
0.379664
0.380835
0.379869
0.380607
0.380009
0.38096
0.380648
0.38156
0.381757
0.382596
0.381211
0.379716
0.377321
0.380116
0.388783
0.434747
0.469046
0.460024
0.465132
0.453991
0.46989
0.498684
0.479173
0.479997
0.484273
0.477901
0.471308
0.441631
0.39455
0.384017
0.382993
0.382945
0.38351
0.382883
0.383707
0.383492
0.384332
0.384535
0.385698
0.385808
0.385107
0.38143
0.380995
0.381884
0.393135
0.448751
0.473871
0.461936
0.46582
0.4564
0.474509
0.499937
0.483456
0.481056
0.482712
0.481574
0.479533
0.447695
0.397461
0.387676
0.384873
0.386275
0.385549
0.386367
0.386047
0.38709
0.387076
0.388399
0.389384
0.390292
0.387659
0.38455
0.382209
0.385639
0.396823
0.460362
0.476119
0.463244
0.466293
0.46079
0.47764
0.498822
0.483639
0.48661
0.484459
0.484315
0.486065
0.45152
0.402377
0.389817
0.388801
0.388476
0.38897
0.388583
0.389682
0.38983
0.391032
0.392139
0.394192
0.393905
0.391024
0.38581
0.385042
0.386979
0.399747
0.469761
0.476856
0.464271
0.468711
0.46519
0.478978
0.497268
0.482894
0.489014
0.490029
0.485834
0.488671
0.45033
0.406145
0.393047
0.390356
0.391927
0.391533
0.392386
0.392548
0.393883
0.394456
0.396604
0.397659
0.397375
0.392347
0.388151
0.385675
0.389785
0.402374
0.476018
0.477149
0.466503
0.472606
0.469237
0.481602
0.493449
0.483255
0.489402
0.491214
0.488375
0.486091
0.446257
0.409229
0.393977
0.392132
0.392517
0.393838
0.393422
0.394863
0.395201
0.396699
0.398088
0.39887
0.397323
0.392876
0.388312
0.388206
0.39057
0.40566
0.479109
0.478941
0.470254
0.476094
0.473321
0.485367
0.487114
0.483693
0.488298
0.490641
0.48891
0.480197
0.441183
0.411055
0.396078
0.391466
0.392604
0.392928
0.393518
0.393738
0.394783
0.395097
0.396389
0.396755
0.394833
0.39109
0.389594
0.388955
0.393339
0.409505
0.480403
0.482112
0.474696
0.48057
0.478405
0.490223
0.481498
0.481834
0.488123
0.489155
0.487234
0.474008
0.437219
0.412435
0.397274
0.392355
0.391018
0.39226
0.391414
0.392448
0.392074
0.392771
0.392422
0.392687
0.391137
0.39059
0.389705
0.3918
0.39485
0.413612
0.477073
0.485213
0.4806
0.488072
0.485646
0.495509
0.475952
0.478769
0.488449
0.487852
0.485605
0.470345
0.434799
0.412787
0.400017
0.393111
0.392312
0.3912
0.391691
0.391277
0.391984
0.391546
0.392115
0.3914
0.391657
0.390875
0.392041
0.392973
0.398498
0.417688
0.474475
0.487307
0.487613
0.49872
0.492182
0.497777
0.470127
0.475584
0.487194
0.487104
0.485392
0.46862
0.433797
0.414598
0.401718
0.395935
0.393515
0.393325
0.392507
0.393388
0.392888
0.393661
0.393157
0.393583
0.392816
0.39327
0.393423
0.39604
0.401608
0.421212
0.472515
0.489339
0.494891
0.506057
0.495315
0.496948
0.46394
0.472468
0.486387
0.487034
0.485059
0.467836
0.433888
0.416439
0.404599
0.397425
0.396357
0.394647
0.395173
0.394685
0.395552
0.395121
0.395796
0.395088
0.395428
0.394897
0.396345
0.397571
0.40678
0.423793
0.470501
0.491634
0.50167
0.508319
0.496652
0.494857
0.455592
0.46698
0.484973
0.486977
0.484357
0.467613
0.435215
0.419269
0.406168
0.400555
0.397926
0.397639
0.396596
0.397537
0.397144
0.398007
0.397493
0.39794
0.397114
0.397836
0.398134
0.401315
0.410823
0.426505
0.468766
0.49451
0.50579
0.506376
0.494465
0.490493
0.446816
0.459435
0.48302
0.48651
0.483921
0.467811
0.438412
0.42186
0.409209
0.402317
0.401165
0.399415
0.399645
0.399199
0.400191
0.399859
0.400538
0.399883
0.400117
0.40002
0.401329
0.40402
0.415738
0.4299
0.467885
0.496598
0.506793
0.503611
0.488468
0.483975
0.440387
0.452312
0.479836
0.485056
0.483754
0.467322
0.442958
0.426164
0.411617
0.405527
0.403229
0.402986
0.401445
0.402365
0.402139
0.403069
0.40266
0.403139
0.402351
0.4034
0.403903
0.408832
0.419475
0.434247
0.467822
0.497147
0.506044
0.499857
0.481808
0.478197
0.438572
0.446999
0.474708
0.483072
0.482894
0.46623
0.447509
0.430362
0.416014
0.407492
0.406939
0.40541
0.404806
0.404339
0.405482
0.405341
0.406039
0.405607
0.405847
0.405911
0.408125
0.412356
0.42421
0.439154
0.469088
0.496914
0.503579
0.494461
0.476368
0.474242
0.441071
0.443272
0.466619
0.480211
0.480578
0.465734
0.450802
0.435298
0.419879
0.410983
0.408933
0.4092
0.406946
0.407685
0.407768
0.408774
0.408593
0.409143
0.40818
0.409352
0.41154
0.417089
0.4283
0.44441
0.47127
0.496613
0.50002
0.485774
0.47106
0.472443
0.445575
0.440254
0.458569
0.476727
0.478847
0.466549
0.453181
0.439174
0.424951
0.413485
0.411795
0.41123
0.410531
0.409977
0.411279
0.411348
0.412189
0.411814
0.411578
0.412189
0.416045
0.420389
0.433391
0.449863
0.474306
0.496393
0.49564
0.477462
0.46475
0.469784
0.448109
0.4386
0.45553
0.472903
0.479045
0.469106
0.455076
0.442583
0.428874
0.417603
0.413275
0.413987
0.41307
0.413626
0.414
0.415022
0.415086
0.415256
0.414566
0.416173
0.419435
0.425157
0.437988
0.45578
0.478056
0.496046
0.491322
0.473498
0.45758
0.466622
0.445452
0.438523
0.456274
0.471894
0.481047
0.473513
0.458233
0.444401
0.43274
0.420403
0.415712
0.414841
0.416852
0.416494
0.417771
0.418021
0.418809
0.418332
0.418331
0.419584
0.423705
0.428884
0.44339
0.461917
0.482346
0.496378
0.490466
0.472793
0.454366
0.462442
0.439507
0.438919
0.458477
0.475645
0.48311
0.477598
0.463294
0.447051
0.434398
0.423378
0.416814
0.417048
0.419391
0.420566
0.420707
0.421786
0.421884
0.422127
0.421733
0.423424
0.426826
0.433323
0.448548
0.468354
0.48614
0.496742
0.492827
0.473175
0.453125
0.456565
0.43456
0.440544
0.460237
0.47937
0.485463
0.479201
0.467959
0.450307
0.435551
0.424019
0.419049
0.418857
0.422312
0.423745
0.424394
0.424908
0.425654
0.425588
0.425802
0.426778
0.4301
0.436652
0.454086
0.473542
0.488722
0.499053
0.493918
0.472858
0.45329
0.451396
0.429896
0.440527
0.46146
0.480075
0.487886
0.480589
0.470167
0.453563
0.434603
0.424598
0.420637
0.422063
0.424586
0.427519
0.427511
0.428615
0.429114
0.429643
0.429667
0.430501
0.432526
0.440111
0.457763
0.477088
0.491592
0.501694
0.493482
0.472573
0.452469
0.446793
0.425522
0.439158
0.461324
0.479703
0.489156
0.481882
0.470733
0.453672
0.433753
0.425093
0.423761
0.424863
0.427963
0.429967
0.431346
0.431932
0.433079
0.433571
0.433916
0.434165
0.435696
0.441894
0.460299
0.479744
0.494404
0.503567
0.49291
0.471968
0.451049
0.442371
0.421574
0.43733
0.460268
0.479252
0.490202
0.482603
0.470075
0.452114
0.432522
0.427323
0.427093
0.428697
0.430739
0.432883
0.434686
0.435857
0.436914
0.437812
0.438094
0.438279
0.438933
0.444437
0.461721
0.481655
0.497714
0.50556
0.492905
0.470868
0.448744
0.437479
0.418232
0.435655
0.45924
0.479236
0.491608
0.484059
0.468474
0.449557
0.434739
0.430375
0.431423
0.432033
0.434184
0.43551
0.438432
0.439673
0.441124
0.442101
0.442562
0.442476
0.442968
0.447619
0.462348
0.483658
0.501577
0.506514
0.493018
0.46947
0.445883
0.432452
0.415267
0.434058
0.458124
0.478337
0.492097
0.486429
0.466628
0.448319
0.438166
0.435772
0.435234
0.435854
0.437089
0.438831
0.441561
0.443849
0.445388
0.446768
0.446931
0.447002
0.447267
0.452449
0.463363
0.485552
0.504145
0.505616
0.492313
0.46855
0.442873
0.427226
0.412352
0.431038
0.457378
0.475736
0.490695
0.487368
0.465832
0.448617
0.443207
0.441095
0.439201
0.438804
0.440271
0.44172
0.444671
0.447846
0.450063
0.451556
0.451587
0.451696
0.452752
0.457516
0.46584
0.486678
0.502941
0.5026
0.490349
0.469186
0.439126
0.421462
0.409643
0.426413
0.456327
0.472083
0.48749
0.486359
0.465689
0.450477
0.447211
0.446708
0.44234
0.441571
0.44251
0.444818
0.447544
0.452079
0.455043
0.456452
0.456976
0.457097
0.459114
0.462894
0.46902
0.486903
0.499534
0.497738
0.487266
0.469084
0.433288
0.415384
0.407663
0.421043
0.453065
0.468118
0.483558
0.484558
0.465719
0.452458
0.450736
0.451203
0.445736
0.443424
0.444884
0.447604
0.450889
0.456175
0.460301
0.462214
0.463011
0.463514
0.465671
0.468168
0.47255
0.485814
0.496473
0.493164
0.48253
0.464899
0.42565
0.409327
0.406192
0.416664
0.448095
0.464356
0.480081
0.482171
0.465483
0.455094
0.453632
0.45493
0.449242
0.445694
0.446717
0.450514
0.454324
0.460087
0.465496
0.468104
0.46942
0.470711
0.472149
0.473594
0.476227
0.484567
0.494217
0.489841
0.477183
0.457528
0.41873
0.40393
0.405404
0.413677
0.443985
0.461408
0.477464
0.479007
0.465798
0.458544
0.456966
0.457861
0.453235
0.4483
0.449116
0.453107
0.457664
0.464068
0.470186
0.473515
0.475761
0.477181
0.47872
0.47906
0.480201
0.484279
0.492489
0.48742
0.472219
0.450919
0.413205
0.399739
0.40491
0.411859
0.441193
0.459547
0.475496
0.476167
0.467414
0.463058
0.460481
0.461025
0.456747
0.451692
0.451784
0.455817
0.460913
0.467858
0.474299
0.47819
0.481166
0.482581
0.484937
0.484798
0.484823
0.485599
0.490357
0.485246
0.467801
0.445092
0.408702
0.396155
0.404249
0.410943
0.438737
0.45819
0.474927
0.475333
0.47034
0.467561
0.464252
0.464113
0.46029
0.454827
0.454974
0.458481
0.463833
0.471066
0.477582
0.482031
0.484993
0.487118
0.490187
0.490209
0.48967
0.488619
0.489042
0.483032
0.463362
0.439438
0.404557
0.396138
0.403011
0.409547
0.435698
0.456032
0.474342
0.475597
0.473485
0.471233
0.467391
0.466713
0.463204
0.457672
0.457662
0.460749
0.466013
0.473019
0.479808
0.483882
0.487044
0.490307
0.493827
0.494151
0.49344
0.491904
0.489021
0.480394
0.45828
0.433069
0.404277
0.400994
0.399764
0.406103
0.430314
0.452132
0.471755
0.475107
0.47529
0.472932
0.468677
0.467413
0.464487
0.458815
0.458263
0.461544
0.466216
0.473025
0.479497
0.48292
0.486145
0.490721
0.494363
0.495015
0.494436
0.493019
0.487842
0.475949
0.452318
0.429143
0.406456
0.404726
0.394322
0.401556
0.423984
0.447354
0.46795
0.474392
0.476653
0.474171
0.469248
0.467421
0.465166
0.459457
0.458304
0.461318
0.46619
0.472164
0.477772
0.480332
0.48391
0.489425
0.492941
0.493772
0.493629
0.492195
0.485294
0.471498
0.449321
0.428166
0.409154
0.405968
0.385656
0.397372
0.41777
0.441758
0.4633
0.473021
0.477549
0.475357
0.469619
0.467198
0.465516
0.459652
0.458132
0.460918
0.465762
0.471093
0.475169
0.477163
0.480854
0.486952
0.490131
0.49104
0.491585
0.489661
0.48163
0.467707
0.44787
0.428512
0.412058
0.403935
0.377508
0.394455
0.412888
0.435654
0.458211
0.470664
0.477449
0.476298
0.469969
0.467094
0.465649
0.459746
0.458206
0.460623
0.465223
0.469551
0.472693
0.474108
0.4778
0.483872
0.486689
0.487739
0.488887
0.486168
0.477282
0.4643
0.446097
0.428868
0.415609
0.400974
0.372224
0.393946
0.408244
0.429602
0.452481
0.466745
0.475489
0.475858
0.469701
0.466804
0.465652
0.459915
0.458426
0.460727
0.464503
0.468135
0.470159
0.47134
0.47489
0.480496
0.482878
0.48432
0.485592
0.481823
0.472423
0.460275
0.443277
0.428554
0.41881
0.397836
0.368649
0.395408
0.405938
0.42374
0.44612
0.462029
0.472362
0.47447
0.469471
0.466866
0.466066
0.460572
0.459232
0.461157
0.464178
0.466611
0.467977
0.469039
0.472654
0.477665
0.479796
0.481899
0.482464
0.477386
0.467509
0.455192
0.43948
0.427288
0.41985
0.394448
0.366207
0.396146
0.407148
0.420431
0.439959
0.456878
0.468634
0.472213
0.468635
0.466353
0.46613
0.461409
0.460089
0.461714
0.463446
0.464945
0.465742
0.466874
0.470489
0.474922
0.477061
0.479623
0.479198
0.472873
0.46245
0.449517
0.435043
0.4256
0.417606
0.390908
0.364484
0.395302
0.410301
0.420038
0.436084
0.451559
0.46451
0.469437
0.46702
0.465205
0.46569
0.462263
0.460708
0.461382
0.461936
0.46258
0.463303
0.464481
0.468375
0.472255
0.474554
0.47695
0.475354
0.468175
0.456961
0.444123
0.430827
0.42421
0.412533
0.386207
0.36349
0.393688
0.413659
0.420889
0.43486
0.44747
0.460271
0.466511
0.464993
0.46355
0.464662
0.462767
0.460639
0.460045
0.459536
0.459911
0.460536
0.462017
0.466248
0.469645
0.472163
0.473877
0.471247
0.463183
0.451336
0.439328
0.42746
0.423078
0.405803
0.380606
0.362668
0.391053
0.415247
0.422453
0.434461
0.445265
0.45683