/*--------------------------------*- C++ -*----------------------------------*\
| =========                 |                                                 |
| \\      /  F ield         | OpenFOAM: The Open Source CFD Toolbox           |
|  \\    /   O peration     | Version:  2.3.0                                 |
|   \\  /    A nd           | Web:      www.OpenFOAM.org                      |
|    \\/     M anipulation  |                                                 |
\*---------------------------------------------------------------------------*/
FoamFile
{
    version     2.0;
    format      ascii;
    class       volScalarField;
    location    "1.10001";
    object      alpha.airMean;
}
// * * * * * * * * * * * * * * * * * * * * * * * * * * * * * * * * * * * * * //

dimensions      [0 0 0 0 0 0 0];

internalField   nonuniform List<scalar> 
10000
(
0.00485162
0.00516708
0.00590378
0.00777143
0.0149962
0.106848
0.181975
0.187774
0.175029
0.179095
0.15254
0.151901
0.122804
0.107765
0.087475
0.0215635
0.00814249
0.00707241
0.00654124
0.0064346
1.71606e-07
1.80041e-07
2.09705e-07
6.57009e-07
0.00663898
0.224887
0.254842
0.111031
0.115041
0.104791
0.0969214
0.0976524
0.0917905
0.0752221
0.157105
0.0160663
4.66194e-06
2.6698e-07
2.59805e-07
2.5294e-07
5.50913e-15
3.25142e-13
2.72684e-11
3.31812e-07
0.000589618
0.0603176
0.0659626
0.0904662
0.0830547
0.0694958
0.0591561
0.0575296
0.0502444
0.0532833
0.0354359
0.000277977
1.60919e-07
5.78708e-11
4.74408e-13
4.22667e-15
3.46579e-15
2.1395e-13
2.3416e-11
1.78292e-07
0.000478956
0.060348
0.0778567
0.0737702
0.0557305
0.0379694
0.00836785
0.028438
0.0412414
0.0561582
0.0292011
0.000115444
7.33616e-08
1.53911e-10
9.79989e-13
1.39354e-15
1.43483e-15
1.11502e-13
2.69057e-11
9.09664e-10
2.47603e-05
0.0131927
0.0453677
0.031289
0.00673439
1.50132e-05
2.91617e-07
2.37145e-06
0.00063798
0.00628009
4.61483e-06
2.29392e-08
2.38478e-10
6.60971e-12
7.42332e-14
2.04968e-17
2.18014e-18
2.38328e-16
1.19267e-13
7.08402e-12
1.9128e-09
4.99049e-05
0.0111397
0.00292424
1.76714e-06
1.06077e-11
1.02516e-15
1.86874e-12
1.62732e-08
1.23648e-07
1.92715e-11
1.47049e-14
1.0567e-15
6.68113e-17
1.0166e-18
7.17246e-23
6.30026e-22
1.71139e-19
6.53184e-16
1.59885e-14
1.54722e-12
2.35693e-09
9.79466e-07
1.6862e-07
5.66909e-11
2.07514e-14
3.15462e-18
0
0
0
0
0
0
0
0
0
0
0
0
0
0
0
0
0
0
0
0
0
0
0
0
0
0
0
0
0
0
0
0
0
0
0
0
0
0
0
0
0
0
0
0
0
0
0
0
0
0
0
0
0
0
0
0
0
0
0
0
0
0
0
0
0
0
0
0
0
0
0
0
0
0
0
0
0
0
0
0
0
0
0
0
0
0
0
0
0
0
0
0
0
0
0
0
0
0
0
0
0
0
0
0
0
0
0
0
0
0
0
0
0
0
0
0
0
0
0
0
0
0
0
0
0
0
0
0
0
0
0
0
0
0
0
0
0
0
0
0
0
0
0
0
0
0
0
0
0
0
0
0
0
0
0
0
0
0
0
0
0
0
0
0
0
0
0
0
0
0
0
0
0
0
0
0
0
0
0
0
0
0
0
0
0
0
0
0
0
0
0
0
0
0
0
0
0
0
0
0
0
0
0
0
0
0
0
0
0
0
0
0
0
0
0
0
0
0
0
0
0
0
0
0
0
0
0
0
0
0
0
0
0
0
0
0
0
0
0
0
0
0
0
0
0
0
0
0
0
0
0
0
0
0
0
0
0
0
0
0
0
0
0
0
0
0
0
0
0
0.0049694
0.00521497
0.00596786
0.0077806
0.0155096
0.107938
0.1832
0.191002
0.178033
0.184038
0.155576
0.155616
0.125221
0.109859
0.0889997
0.0228363
0.00832053
0.00726598
0.00670019
0.00660157
1.85124e-07
1.91837e-07
2.23953e-07
6.77918e-07
0.00768984
0.232884
0.261781
0.113593
0.117016
0.107796
0.0987875
0.0995996
0.0930233
0.0759922
0.162567
0.0181101
5.55934e-06
3.21447e-07
3.09434e-07
3.00674e-07
5.33904e-15
3.17686e-13
2.38678e-11
2.84865e-07
0.000603048
0.0607195
0.0658897
0.0912899
0.0842012
0.0710167
0.0613812
0.0589597
0.0507179
0.0532375
0.0360791
0.000307354
1.43777e-07
5.55863e-11
4.80979e-13
4.39751e-15
3.30407e-15
2.11881e-13
2.04299e-11
1.70537e-07
0.000486441
0.062063
0.0786716
0.0749689
0.0574759
0.0394905
0.00889401
0.0298843
0.042998
0.0578632
0.0306775
0.000116927
6.29882e-08
1.46844e-10
9.97591e-13
2.03557e-15
1.32559e-15
1.07987e-13
2.47348e-11
7.7202e-10
2.6299e-05
0.0141944
0.0462301
0.0320306
0.00707777
1.61186e-05
3.04067e-07
2.70405e-06
0.000713547
0.00664046
4.86676e-06
3.04827e-08
1.63604e-10
5.99881e-12
7.26265e-14
2.73124e-17
2.16208e-18
2.57512e-16
1.12111e-13
5.68597e-12
1.74748e-09
4.88094e-05
0.0116844
0.00313475
1.73177e-06
7.81883e-12
1.10109e-15
1.68433e-12
1.70577e-08
1.29598e-07
2.09262e-11
1.20336e-14
9.19199e-16
6.36864e-17
1.01237e-18
8.70392e-23
6.33003e-22
2.03161e-19
6.1239e-16
1.25933e-14
1.26411e-12
2.28745e-09
1.07115e-06
1.73597e-07
4.95763e-11
1.70545e-14
2.44176e-18
0
0
0
0
0
0
0
0
0
0
0
0
0
0
0
0
0
0
0
0
0
0
0
0
0
0
0
0
0
0
0
0
0
0
0
0
0
0
0
0
0
0
0
0
0
0
0
0
0
0
0
0
0
0
0
0
0
0
0
0
0
0
0
0
0
0
0
0
0
0
0
0
0
0
0
0
0
0
0
0
0
0
0
0
0
0
0
0
0
0
0
0
0
0
0
0
0
0
0
0
0
0
0
0
0
0
0
0
0
0
0
0
0
0
0
0
0
0
0
0
0
0
0
0
0
0
0
0
0
0
0
0
0
0
0
0
0
0
0
0
0
0
0
0
0
0
0
0
0
0
0
0
0
0
0
0
0
0
0
0
0
0
0
0
0
0
0
0
0
0
0
0
0
0
0
0
0
0
0
0
0
0
0
0
0
0
0
0
0
0
0
0
0
0
0
0
0
0
0
0
0
0
0
0
0
0
0
0
0
0
0
0
0
0
0
0
0
0
0
0
0
0
0
0
0
0
0
0
0
0
0
0
0
0
0
0
0
0
0
0
0
0
0
0
0
0
0
0
0
0
0
0
0
0
0
0
0
0
0
0
0
0
0
0
0
0
0
0
0
0.00501563
0.00523493
0.00599853
0.00778624
0.0158611
0.108493
0.183706
0.192881
0.179685
0.187015
0.157264
0.157704
0.126622
0.111112
0.089862
0.0237112
0.00848665
0.00742909
0.00684457
0.00672421
1.83558e-07
1.86912e-07
2.17388e-07
6.21501e-07
0.00835393
0.237881
0.266166
0.115229
0.118171
0.109615
0.0998339
0.1007
0.0937377
0.0764312
0.166133
0.0194514
5.83925e-06
3.43454e-07
3.24651e-07
3.1032e-07
5.70432e-15
3.22424e-13
2.2948e-11
2.28519e-07
0.000614297
0.0608957
0.0657866
0.0917408
0.0848301
0.071844
0.0626024
0.0597519
0.0509638
0.0531828
0.0363537
0.000324938
1.27731e-07
5.47381e-11
5.0729e-13
4.75585e-15
3.51064e-15
2.2119e-13
2.00675e-11
1.50916e-07
0.0004894
0.0630036
0.0791185
0.0756275
0.058434
0.0403344
0.00919516
0.0306904
0.0439673
0.0588017
0.0315109
0.000117656
4.90423e-08
1.38926e-10
1.02504e-12
3.00889e-15
1.43884e-15
1.22634e-13
2.29927e-11
7.72104e-10
2.71156e-05
0.0147666
0.0466986
0.0324359
0.00727366
1.67755e-05
3.06041e-07
2.91059e-06
0.000760227
0.00684696
5.00158e-06
3.46637e-08
1.2919e-10
5.72213e-12
7.21638e-14
3.68088e-17
3.01852e-18
3.32754e-16
1.05066e-13
4.26554e-12
1.76997e-09
4.76473e-05
0.0119915
0.00325772
1.69247e-06
1.01297e-11
1.2972e-15
1.60167e-12
1.71741e-08
1.32217e-07
2.23175e-11
9.44065e-15
7.41015e-16
5.99756e-17
1.01096e-18
1.34869e-22
1.65775e-21
3.00659e-19
5.69682e-16
9.88257e-15
1.13173e-12
2.19079e-09
1.11847e-06
1.72462e-07
4.37748e-11
1.38091e-14
1.84209e-18
0
0
0
0
0
0
0
0
0
0
0
0
0
0
0
0
0
0
0
0
0
0
0
0
0
0
0
0
0
0
0
0
0
0
0
0
0
0
0
0
0
0
0
0
0
0
0
0
0
0
0
0
0
0
0
0
0
0
0
0
0
0
0
0
0
0
0
0
0
0
0
0
0
0
0
0
0
0
0
0
0
0
0
0
0
0
0
0
0
0
0
0
0
0
0
0
0
0
0
0
0
0
0
0
0
0
0
0
0
0
0
0
0
0
0
0
0
0
0
0
0
0
0
0
0
0
0
0
0
0
0
0
0
0
0
0
0
0
0
0
0
0
0
0
0
0
0
0
0
0
0
0
0
0
0
0
0
0
0
0
0
0
0
0
0
0
0
0
0
0
0
0
0
0
0
0
0
0
0
0
0
0
0
0
0
0
0
0
0
0
0
0
0
0
0
0
0
0
0
0
0
0
0
0
0
0
0
0
0
0
0
0
0
0
0
0
0
0
0
0
0
0
0
0
0
0
0
0
0
0
0
0
0
0
0
0
0
0
0
0
0
0
0
0
0
0
0
0
0
0
0
0
0
0
0
0
0
0
0
0
0
0
0
0
0
0
0
0
0
0.00497322
0.00518067
0.00594106
0.00768393
0.0160475
0.108299
0.18372
0.194431
0.18101
0.190168
0.158583
0.159403
0.127485
0.111748
0.08989
0.0241835
0.00843482
0.0073929
0.00680426
0.00666157
1.90404e-07
1.90284e-07
2.20539e-07
5.79902e-07
0.00919073
0.243703
0.27106
0.117155
0.11948
0.111711
0.100965
0.101875
0.0945149
0.0768885
0.170558
0.0210605
5.98238e-06
3.53441e-07
3.28413e-07
3.15631e-07
6.39692e-15
3.31538e-13
2.5678e-11
1.84362e-07
0.000632203
0.0610459
0.0655914
0.0922351
0.0855207
0.0727502
0.0639485
0.0606279
0.0512145
0.0530897
0.0365761
0.000346389
1.19141e-07
5.7179e-11
5.50133e-13
5.09954e-15
3.94954e-15
2.35598e-13
2.34722e-11
1.35506e-07
0.000498496
0.0640442
0.0796143
0.0763555
0.0594946
0.0412756
0.00953547
0.0315881
0.0450418
0.0598398
0.0324494
0.000119583
3.83257e-08
1.36082e-10
1.08503e-12
3.13944e-15
1.66283e-15
1.39988e-13
2.13917e-11
8.85899e-10
2.84203e-05
0.0154124
0.0472127
0.0328828
0.00749463
1.75464e-05
3.06807e-07
3.15787e-06
0.000815246
0.00708034
5.15508e-06
3.89626e-08
9.8281e-11
5.44624e-12
7.17537e-14
3.07211e-17
4.38325e-18
4.24766e-16
9.82336e-14
3.18935e-12
1.79625e-09
4.6228e-05
0.0123352
0.00339801
1.6412e-06
1.26265e-11
1.53869e-15
1.51069e-12
1.71223e-08
1.3475e-07
2.37535e-11
7.4588e-15
5.74839e-16
5.59154e-17
1.00958e-18
1.20623e-22
4.19319e-21
4.85831e-19
5.26642e-16
8.09749e-15
1.08097e-12
2.0832e-09
1.17406e-06
1.70367e-07
3.80718e-11
1.09913e-14
1.35746e-18
0
0
0
0
0
0
0
0
0
0
0
0
0
0
0
0
0
0
0
0
0
0
0
0
0
0
0
0
0
0
0
0
0
0
0
0
0
0
0
0
0
0
0
0
0
0
0
0
0
0
0
0
0
0
0
0
0
0
0
0
0
0
0
0
0
0
0
0
0
0
0
0
0
0
0
0
0
0
0
0
0
0
0
0
0
0
0
0
0
0
0
0
0
0
0
0
0
0
0
0
0
0
0
0
0
0
0
0
0
0
0
0
0
0
0
0
0
0
0
0
0
0
0
0
0
0
0
0
0
0
0
0
0
0
0
0
0
0
0
0
0
0
0
0
0
0
0
0
0
0
0
0
0
0
0
0
0
0
0
0
0
0
0
0
0
0
0
0
0
0
0
0
0
0
0
0
0
0
0
0
0
0
0
0
0
0
0
0
0
0
0
0
0
0
0
0
0
0
0
0
0
0
0
0
0
0
0
0
0
0
0
0
0
0
0
0
0
0
0
0
0
0
0
0
0
0
0
0
0
0
0
0
0
0
0
0
0
0
0
0
0
0
0
0
0
0
0
0
0
0
0
0
0
0
0
0
0
0
0
0
0
0
0
0
0
0
0
0
0
0.00496022
0.00515845
0.00592016
0.00763045
0.0163179
0.108588
0.184312
0.196415
0.182667
0.194087
0.1602
0.161273
0.128486
0.112581
0.0903064
0.0246544
0.00834136
0.00732593
0.00673385
0.00658291
1.96051e-07
1.93224e-07
2.24115e-07
5.39928e-07
0.0100948
0.249725
0.275991
0.119134
0.120727
0.113818
0.102029
0.102983
0.0952403
0.0772966
0.175495
0.0227508
6.13166e-06
3.44637e-07
3.18146e-07
3.11505e-07
7.36966e-15
3.43351e-13
2.21171e-11
1.45985e-07
0.00065289
0.061139
0.065368
0.0927209
0.0861846
0.0735949
0.0652059
0.0614563
0.0514545
0.0529995
0.0366364
0.00037042
1.14969e-07
6.08302e-11
5.79607e-13
5.17269e-15
4.57438e-15
2.49757e-13
2.05122e-11
1.18945e-07
0.000507071
0.0650154
0.080078
0.0770287
0.0604774
0.0421571
0.0098605
0.0324288
0.0460398
0.0608061
0.0333422
0.000121374
2.93537e-08
1.33645e-10
1.14296e-12
2.52207e-15
1.96348e-15
1.57382e-13
2.00306e-11
1.03969e-09
2.97544e-05
0.0160264
0.047688
0.0332985
0.00770628
1.83166e-05
3.06837e-07
3.41217e-06
0.000870764
0.00730439
5.28529e-06
4.28489e-08
7.30983e-11
5.13007e-12
7.13821e-14
2.36508e-17
6.16792e-18
5.22981e-16
9.16617e-14
2.30616e-12
1.84432e-09
4.45321e-05
0.0126609
0.00353456
1.58059e-06
1.54274e-11
1.80075e-15
1.41425e-12
1.70992e-08
1.36969e-07
2.50121e-11
5.8777e-15
4.31869e-16
5.15835e-17
1.00619e-18
1.02341e-22
1.0451e-20
1.0171e-18
4.84397e-16
6.72421e-15
1.07547e-12
1.9627e-09
1.23237e-06
1.68619e-07
3.2627e-11
8.58333e-15
9.75247e-19
0
0
0
0
0
0
0
0
0
0
0
0
0
0
0
0
0
0
0
0
0
0
0
0
0
0
0
0
0
0
0
0
0
0
0
0
0
0
0
0
0
0
0
0
0
0
0
0
0
0
0
0
0
0
0
0
0
0
0
0
0
0
0
0
0
0
0
0
0
0
0
0
0
0
0
0
0
0
0
0
0
0
0
0
0
0
0
0
0
0
0
0
0
0
0
0
0
0
0
0
0
0
0
0
0
0
0
0
0
0
0
0
0
0
0
0
0
0
0
0
0
0
0
0
0
0
0
0
0
0
0
0
0
0
0
0
0
0
0
0
0
0
0
0
0
0
0
0
0
0
0
0
0
0
0
0
0
0
0
0
0
0
0
0
0
0
0
0
0
0
0
0
0
0
0
0
0
0
0
0
0
0
0
0
0
0
0
0
0
0
0
0
0
0
0
0
0
0
0
0
0
0
0
0
0
0
0
0
0
0
0
0
0
0
0
0
0
0
0
0
0
0
0
0
0
0
0
0
0
0
0
0
0
0
0
0
0
0
0
0
0
0
0
0
0
0
0
0
0
0
0
0
0
0
0
0
0
0
0
0
0
0
0
0
0
0
0
0
0
0.00494458
0.00513131
0.0058932
0.00758075
0.0166358
0.108908
0.184883
0.198322
0.184277
0.19827
0.161923
0.163108
0.129382
0.113324
0.0907466
0.0251781
0.00829051
0.00728908
0.00669134
0.00653274
2.0202e-07
1.97202e-07
2.29332e-07
5.04935e-07
0.0111334
0.256323
0.281076
0.121237
0.121982
0.116026
0.103084
0.104084
0.0959704
0.0777016
0.180814
0.0245991
6.5776e-06
3.5e-07
3.19374e-07
3.17081e-07
8.53462e-15
3.60696e-13
1.72346e-11
1.11669e-07
0.000677876
0.0611564
0.0650722
0.0932019
0.086841
0.0744155
0.0664371
0.0622732
0.0516782
0.0528931
0.0365183
0.000398875
1.13884e-07
5.66951e-11
5.74649e-13
5.09126e-15
5.33456e-15
2.68095e-13
1.64002e-11
1.00115e-07
0.000517812
0.0659702
0.0805341
0.0776884
0.0614396
0.0430291
0.0101864
0.033258
0.0470186
0.0617534
0.0342341
0.000123615
2.19601e-08
1.22099e-10
1.19563e-12
2.03695e-15
2.28484e-15
1.71582e-13
1.82816e-11
1.19953e-09
3.12327e-05
0.0166412
0.0481513
0.0337056
0.00791863
1.91328e-05
3.0604e-07
3.68426e-06
0.000929082
0.00752962
5.41667e-06
4.63268e-08
5.42233e-11
4.7763e-12
7.1103e-14
1.77432e-17
8.22359e-18
6.21846e-16
8.53277e-14
1.6345e-12
1.92532e-09
4.26848e-05
0.0129848
0.0036732
1.51208e-06
1.83905e-11
2.05283e-15
1.31071e-12
1.70385e-08
1.39009e-07
2.62454e-11
4.55663e-15
3.14953e-16
4.7177e-17
9.99887e-19
8.39926e-23
1.95086e-20
1.67275e-18
4.43589e-16
5.57552e-15
1.10087e-12
1.84407e-09
1.29457e-06
1.66647e-07
2.75287e-11
6.57863e-15
6.85012e-19
0
0
0
0
0
0
0
0
0
0
0
0
0
0
0
0
0
0
0
0
0
0
0
0
0
0
0
0
0
0
0
0
0
0
0
0
0
0
0
0
0
0
0
0
0
0
0
0
0
0
0
0
0
0
0
0
0
0
0
0
0
0
0
0
0
0
0
0
0
0
0
0
0
0
0
0
0
0
0
0
0
0
0
0
0
0
0
0
0
0
0
0
0
0
0
0
0
0
0
0
0
0
0
0
0
0
0
0
0
0
0
0
0
0
0
0
0
0
0
0
0
0
0
0
0
0
0
0
0
0
0
0
0
0
0
0
0
0
0
0
0
0
0
0
0
0
0
0
0
0
0
0
0
0
0
0
0
0
0
0
0
0
0
0
0
0
0
0
0
0
0
0
0
0
0
0
0
0
0
0
0
0
0
0
0
0
0
0
0
0
0
0
0
0
0
0
0
0
0
0
0
0
0
0
0
0
0
0
0
0
0
0
0
0
0
0
0
0
0
0
0
0
0
0
0
0
0
0
0
0
0
0
0
0
0
0
0
0
0
0
0
0
0
0
0
0
0
0
0
0
0
0
0
0
0
0
0
0
0
0
0
0
0
0
0
0
0
0
0
0.0049345
0.00511065
0.00587303
0.00754204
0.0170096
0.10944
0.185772
0.200402
0.186074
0.202721
0.163791
0.165035
0.13034
0.114155
0.0913497
0.0257602
0.00826492
0.00727057
0.00666766
0.00649898
2.07317e-07
2.01331e-07
2.34914e-07
4.8159e-07
0.0123163
0.263375
0.286192
0.123445
0.123221
0.118318
0.104117
0.105161
0.0966807
0.078095
0.186146
0.0265687
7.31634e-06
3.60074e-07
3.24799e-07
3.24603e-07
9.81085e-15
3.76635e-13
1.39282e-11
8.12548e-08
0.000707364
0.0611002
0.0647186
0.0936777
0.0874837
0.0752004
0.0676145
0.0630638
0.0518935
0.0527865
0.0362987
0.000432106
1.14724e-07
5.30104e-11
5.84133e-13
5.17507e-15
6.15085e-15
2.84838e-13
1.32558e-11
8.11398e-08
0.000529647
0.0668822
0.0809713
0.0783163
0.0623551
0.0438677
0.0105054
0.0340541
0.047953
0.0626571
0.0351034
0.000126004
1.60252e-08
1.10827e-10
1.25061e-12
1.85241e-15
2.58428e-15
1.81052e-13
1.64972e-11
1.30562e-09
3.28418e-05
0.0172376
0.0485913
0.0340946
0.00812725
1.99807e-05
3.04604e-07
3.96991e-06
0.000989163
0.00775142
5.53019e-06
4.93432e-08
4.28062e-11
4.41543e-12
7.09985e-14
1.36065e-17
1.01187e-17
7.00431e-16
7.91212e-14
1.25893e-12
2.11741e-09
4.05984e-05
0.0132992
0.00381142
1.43501e-06
2.13984e-11
2.26648e-15
1.20232e-12
1.69559e-08
1.40822e-07
2.72649e-11
3.47023e-15
2.23224e-16
4.28863e-17
9.90538e-19
7.03457e-23
2.61574e-20
2.12482e-18
4.04398e-16
4.5025e-15
1.14389e-12
1.71899e-09
1.36066e-06
1.64708e-07
2.28262e-11
4.9385e-15
4.69177e-19
0
0
0
0
0
0
0
0
0
0
0
0
0
0
0
0
0
0
0
0
0
0
0
0
0
0
0
0
0
0
0
0
0
0
0
0
0
0
0
0
0
0
0
0
0
0
0
0
0
0
0
0
0
0
0
0
0
0
0
0
0
0
0
0
0
0
0
0
0
0
0
0
0
0
0
0
0
0
0
0
0
0
0
0
0
0
0
0
0
0
0
0
0
0
0
0
0
0
0
0
0
0
0
0
0
0
0
0
0
0
0
0
0
0
0
0
0
0
0
0
0
0
0
0
0
0
0
0
0
0
0
0
0
0
0
0
0
0
0
0
0
0
0
0
0
0
0
0
0
0
0
0
0
0
0
0
0
0
0
0
0
0
0
0
0
0
0
0
0
0
0
0
0
0
0
0
0
0
0
0
0
0
0
0
0
0
0
0
0
0
0
0
0
0
0
0
0
0
0
0
0
0
0
0
0
0
0
0
0
0
0
0
0
0
0
0
0
0
0
0
0
0
0
0
0
0
0
0
0
0
0
0
0
0
0
0
0
0
0
0
0
0
0
0
0
0
0
0
0
0
0
0
0
0
0
0
0
0
0
0
0
0
0
0
0
0
0
0
0
0.00492458
0.0050912
0.00585389
0.00750875
0.0174326
0.11013
0.186791
0.20246
0.18817
0.206824
0.165688
0.166984
0.131252
0.11498
0.0918949
0.0263736
0.00825026
0.00725609
0.00664919
0.00646972
2.11952e-07
2.05596e-07
2.40665e-07
4.72107e-07
0.0136762
0.271027
0.291264
0.125762
0.124459
0.120707
0.105137
0.106224
0.0973842
0.07848
0.191704
0.0286497
8.30584e-06
3.70778e-07
3.31275e-07
3.31682e-07
1.11166e-14
3.9122e-13
1.28083e-11
5.73034e-08
0.00074107
0.0609473
0.0642986
0.0941454
0.0881127
0.0759556
0.0687526
0.0638326
0.0520922
0.0526704
0.0360665
0.000467395
1.19739e-07
5.20512e-11
6.14925e-13
5.47452e-15
6.91825e-15
2.99321e-13
1.21347e-11
6.41742e-08
0.000543674
0.0677677
0.0813955
0.0789239
0.0632403
0.044686
0.0108212
0.0348294
0.0488592
0.0635315
0.0359626
0.000128712
1.15489e-08
1.02209e-10
1.31044e-12
1.89668e-15
2.78782e-15
1.83707e-13
1.47222e-11
1.32099e-09
3.47278e-05
0.0178258
0.0490157
0.0344719
0.00833447
2.08801e-05
3.02284e-07
4.27164e-06
0.00105146
0.00797209
5.6341e-06
5.18736e-08
4.02252e-11
4.08517e-12
7.11008e-14
1.0687e-17
1.16372e-17
7.55935e-16
7.29164e-14
7.63437e-13
2.50064e-09
3.8419e-05
0.0136081
0.00395031
1.35164e-06
2.43697e-11
2.42125e-15
1.09131e-12
1.68411e-08
1.42435e-07
2.81378e-11
2.60258e-15
1.53982e-16
3.88578e-17
9.7854e-19
6.73327e-23
3.34514e-20
2.56538e-18
3.66822e-16
3.46021e-15
1.20678e-12
1.59903e-09
1.42999e-06
1.62357e-07
1.85757e-11
3.6339e-15
3.14164e-19
0
0
0
0
0
0
0
0
0
0
0
0
0
0
0
0
0
0
0
0
0
0
0
0
0
0
0
0
0
0
0
0
0
0
0
0
0
0
0
0
0
0
0
0
0
0
0
0
0
0
0
0
0
0
0
0
0
0
0
0
0
0
0
0
0
0
0
0
0
0
0
0
0
0
0
0
0
0
0
0
0
0
0
0
0
0
0
0
0
0
0
0
0
0
0
0
0
0
0
0
0
0
0
0
0
0
0
0
0
0
0
0
0
0
0
0
0
0
0
0
0
0
0
0
0
0
0
0
0
0
0
0
0
0
0
0
0
0
0
0
0
0
0
0
0
0
0
0
0
0
0
0
0
0
0
0
0
0
0
0
0
0
0
0
0
0
0
0
0
0
0
0
0
0
0
0
0
0
0
0
0
0
0
0
0
0
0
0
0
0
0
0
0
0
0
0
0
0
0
0
0
0
0
0
0
0
0
0
0
0
0
0
0
0
0
0
0
0
0
0
0
0
0
0
0
0
0
0
0
0
0
0
0
0
0
0
0
0
0
0
0
0
0
0
0
0
0
0
0
0
0
0
0
0
0
0
0
0
0
0
0
0
0
0
0
0
0
0
0
0.00491676
0.0050744
0.00583775
0.00748135
0.0179031
0.111083
0.188011
0.204562
0.190939
0.210788
0.16751
0.169019
0.132191
0.115863
0.0924776
0.0270235
0.00824201
0.00724377
0.00663369
0.00644321
2.15686e-07
2.09835e-07
2.46182e-07
4.69035e-07
0.015239
0.279037
0.296225
0.128167
0.125683
0.123185
0.106135
0.107265
0.0980737
0.0788488
0.19758
0.0308541
1.01064e-05
3.8068e-07
3.37398e-07
3.37199e-07
1.24259e-14
4.05434e-13
1.31676e-11
3.95012e-08
0.000779611
0.0606866
0.0638622
0.0946044
0.088726
0.0766768
0.0698392
0.0645697
0.05228
0.0525533
0.0357903
0.000504714
1.30788e-07
5.14654e-11
6.53411e-13
5.86436e-15
7.58513e-15
3.11602e-13
1.29847e-11
4.88398e-08
0.000559815
0.0686103
0.0818006
0.0795025
0.0640826
0.0454719
0.0111302
0.035575
0.0497258
0.0643645
0.0367963
0.00013169
8.38785e-09
9.6539e-11
1.37051e-12
2.05154e-15
2.91353e-15
1.81029e-13
1.2997e-11
1.22502e-09
3.71046e-05
0.0183936
0.0494194
0.0348327
0.00853813
2.18262e-05
2.98999e-07
4.58735e-06
0.0011154
0.00818932
5.71385e-06
5.3877e-08
3.3347e-11
3.75348e-12
7.13914e-14
8.79458e-18
1.29957e-17
8.00038e-16
6.67145e-14
4.67274e-13
3.29729e-09
3.60686e-05
0.0139076
0.00408865
1.26156e-06
2.7319e-11
2.50164e-15
9.77737e-13
1.67137e-08
1.43844e-07
2.87328e-11
1.9279e-15
1.03639e-16
3.51033e-17
9.64219e-19
8.6648e-23
4.12044e-20
2.94903e-18
3.30733e-16
2.49312e-15
1.28825e-12
1.48028e-09
1.50273e-06
1.59734e-07
1.482e-11
2.62019e-15
2.05317e-19
0
0
0
0
0
0
0
0
0
0
0
0
0
0
0
0
0
0
0
0
0
0
0
0
0
0
0
0
0
0
0
0
0
0
0
0
0
0
0
0
0
0
0
0
0
0
0
0
0
0
0
0
0
0
0
0
0
0
0
0
0
0
0
0
0
0
0
0
0
0
0
0
0
0
0
0
0
0
0
0
0
0
0
0
0
0
0
0
0
0
0
0
0
0
0
0
0
0
0
0
0
0
0
0
0
0
0
0
0
0
0
0
0
0
0
0
0
0
0
0
0
0
0
0
0
0
0
0
0
0
0
0
0
0
0
0
0
0
0
0
0
0
0
0
0
0
0
0
0
0
0
0
0
0
0
0
0
0
0
0
0
0
0
0
0
0
0
0
0
0
0
0
0
0
0
0
0
0
0
0
0
0
0
0
0
0
0
0
0
0
0
0
0
0
0
0
0
0
0
0
0
0
0
0
0
0
0
0
0
0
0
0
0
0
0
0
0
0
0
0
0
0
0
0
0
0
0
0
0
0
0
0
0
0
0
0
0
0
0
0
0
0
0
0
0
0
0
0
0
0
0
0
0
0
0
0
0
0
0
0
0
0
0
0
0
0
0
0
0
0.00491095
0.00505988
0.00582418
0.0074596
0.0184185
0.112116
0.189328
0.206621
0.194512
0.214306
0.169082
0.171124
0.133101
0.116772
0.0931201
0.0277069
0.00823995
0.0072338
0.00662109
0.00641959
2.18495e-07
2.1405e-07
2.51232e-07
4.6908e-07
0.0169701
0.287247
0.3011
0.130649
0.126897
0.125749
0.107117
0.108288
0.0987554
0.0792097
0.203669
0.0331873
1.2623e-05
3.89586e-07
3.43091e-07
3.41111e-07
1.39516e-14
4.24662e-13
1.18184e-11
2.64163e-08
0.000820645
0.0603421
0.0633966
0.0950538
0.0893246
0.0773682
0.0708831
0.0652778
0.0524533
0.0524307
0.0354301
0.000543797
1.46903e-07
5.18384e-11
6.94257e-13
6.20767e-15
8.312e-15
3.29646e-13
1.23371e-11
3.54201e-08
0.000578882
0.0694235
0.0821904
0.0800591
0.0648916
0.0462329
0.0114343
0.0362974
0.0505614
0.0651647
0.0376107
0.000135076
6.2047e-09
9.12726e-11
1.41959e-12
2.18071e-15
3.10593e-15
1.84619e-13
1.18345e-11
1.0326e-09
4.02497e-05
0.0189483
0.0498072
0.035181
0.00873962
2.28348e-05
2.94997e-07
4.91856e-06
0.00118122
0.00840446
5.78006e-06
5.54227e-08
2.69581e-11
3.41416e-12
7.1818e-14
7.65837e-18
1.42897e-17
8.35762e-16
6.05654e-14
3.2923e-13
4.65118e-09
3.36857e-05
0.0142
0.00422706
1.16719e-06
3.00488e-11
2.49992e-15
8.62961e-13
1.65376e-08
1.4501e-07
2.90446e-11
1.41795e-15
6.829e-17
3.15992e-17
9.47876e-19
1.06968e-22
4.89675e-20
3.24274e-18
2.96138e-16
1.64399e-15
1.35896e-12
1.37093e-09
1.5779e-06
1.56465e-07
1.1625e-11
1.85753e-15
1.31416e-19
0
0
0
0
0
0
0
0
0
0
0
0
0
0
0
0
0
0
0
0
0
0
0
0
0
0
0
0
0
0
0
0
0
0
0
0
0
0
0
0
0
0
0
0
0
0
0
0
0
0
0
0
0
0
0
0
0
0
0
0
0
0
0
0
0
0
0
0
0
0
0
0
0
0
0
0
0
0
0
0
0
0
0
0
0
0
0
0
0
0
0
0
0
0
0
0
0
0
0
0
0
0
0
0
0
0
0
0
0
0
0
0
0
0
0
0
0
0
0
0
0
0
0
0
0
0
0
0
0
0
0
0
0
0
0
0
0
0
0
0
0
0
0
0
0
0
0
0
0
0
0
0
0
0
0
0
0
0
0
0
0
0
0
0
0
0
0
0
0
0
0
0
0
0
0
0
0
0
0
0
0
0
0
0
0
0
0
0
0
0
0
0
0
0
0
0
0
0
0
0
0
0
0
0
0
0
0
0
0
0
0
0
0
0
0
0
0
0
0
0
0
0
0
0
0
0
0
0
0
0
0
0
0
0
0
0
0
0
0
0
0
0
0
0
0
0
0
0
0
0
0
0
0
0
0
0
0
0
0
0
0
0
0
0
0
0
0
0
0
0.00490759
0.00504826
0.00581416
0.00744387
0.0189769
0.113444
0.190827
0.208702
0.198327
0.217494
0.17057
0.173309
0.134019
0.117729
0.0938681
0.0284236
0.00824418
0.00722736
0.0066121
0.00639935
2.20438e-07
2.1807e-07
2.55586e-07
4.70984e-07
0.0189014
0.295652
0.305806
0.133184
0.128091
0.128379
0.108075
0.109288
0.0994197
0.0795564
0.209726
0.0356484
1.55066e-05
3.96956e-07
3.48125e-07
3.43496e-07
1.55016e-14
4.42257e-13
1.08436e-11
1.71478e-08
0.000864626
0.0598925
0.0629168
0.0954925
0.0899072
0.0780251
0.0718757
0.0659527
0.0526149
0.0523089
0.0350321
0.000584407
1.66943e-07
5.15051e-11
7.35556e-13
6.51914e-15
9.07935e-15
3.46731e-13
1.16434e-11
2.42037e-08
0.000600686
0.0701935
0.0825608
0.0805873
0.0656585
0.0469605
0.0117311
0.0369897
0.0513584
0.0659243
0.0383956
0.000138935
4.6196e-09
8.52212e-11
1.45506e-12
2.26202e-15
3.35309e-15
1.90275e-13
1.09888e-11
7.85754e-10
4.43186e-05
0.01948
0.0501754
0.0355133
0.0089373
2.39032e-05
2.9018e-07
5.26342e-06
0.00124844
0.00861575
5.82052e-06
5.66457e-08
1.97925e-11
3.07458e-12
7.23046e-14
6.96585e-18
1.55118e-17
8.59421e-16
5.45285e-14
2.41934e-13
6.54988e-09
3.12201e-05
0.0144826
0.00436459
1.06873e-06
3.24999e-11
2.41563e-15
7.49583e-13
1.63425e-08
1.46e-07
2.89798e-11
1.04328e-15
4.42403e-17
2.83604e-17
9.30043e-19
1.16605e-22
5.61351e-20
3.43966e-18
2.63254e-16
9.92812e-16
1.40045e-12
1.26836e-09
1.65638e-06
1.52794e-07
9.01323e-12
1.29799e-15
8.2293e-20
0
0
0
0
0
0
0
0
0
0
0
0
0
0
0
0
0
0
0
0
0
0
0
0
0
0
0
0
0
0
0
0
0
0
0
0
0
0
0
0
0
0
0
0
0
0
0
0
0
0
0
0
0
0
0
0
0
0
0
0
0
0
0
0
0
0
0
0
0
0
0
0
0
0
0
0
0
0
0
0
0
0
0
0
0
0
0
0
0
0
0
0
0
0
0
0
0
0
0
0
0
0
0
0
0
0
0
0
0
0
0
0
0
0
0
0
0
0
0
0
0
0
0
0
0
0
0
0
0
0
0
0
0
0
0
0
0
0
0
0
0
0
0
0
0
0
0
0
0
0
0
0
0
0
0
0
0
0
0
0
0
0
0
0
0
0
0
0
0
0
0
0
0
0
0
0
0
0
0
0
0
0
0
0
0
0
0
0
0
0
0
0
0
0
0
0
0
0
0
0
0
0
0
0
0
0
0
0
0
0
0
0
0
0
0
0
0
0
0
0
0
0
0
0
0
0
0
0
0
0
0
0
0
0
0
0
0
0
0
0
0
0
0
0
0
0
0
0
0
0
0
0
0
0
0
0
0
0
0
0
0
0
0
0
0
0
0
0
0
0.00490691
0.00504058
0.00580841
0.00743447
0.0195749
0.114882
0.19239
0.210759
0.202587
0.220383
0.171996
0.175478
0.134908
0.118723
0.094573
0.0291726
0.00825508
0.00722565
0.00660766
0.00638276
2.21619e-07
2.21574e-07
2.58885e-07
4.72537e-07
0.0209989
0.304108
0.31035
0.135751
0.129267
0.131062
0.109012
0.110265
0.10007
0.0798907
0.215685
0.0382198
1.83675e-05
4.02107e-07
3.52051e-07
3.4459e-07
1.67695e-14
4.41514e-13
1.00045e-11
1.10448e-08
0.000909429
0.0594009
0.0624138
0.0959201
0.0904747
0.0786501
0.0728231
0.0665968
0.0527645
0.0521856
0.0346125
0.000625471
1.8373e-07
5.07592e-11
7.83971e-13
6.83938e-15
9.72657e-15
3.45236e-13
1.07932e-11
1.54625e-08
0.000625299
0.0709294
0.0829147
0.0810918
0.0663893
0.0476594
0.0120216
0.0376555
0.0521219
0.0666488
0.0391561
0.000143349
3.43902e-09
7.97506e-11
1.48429e-12
2.31861e-15
3.51799e-15
1.82228e-13
9.39884e-12
5.30411e-10
4.92415e-05
0.0199946
0.0505272
0.0358327
0.00913213
2.5044e-05
2.84621e-07
5.62288e-06
0.00131718
0.00882407
5.84264e-06
5.76875e-08
1.29366e-11
2.75347e-12
7.27547e-14
6.34624e-18
1.66215e-17
8.69243e-16
4.86812e-14
1.68477e-13
8.80492e-09
2.8789e-05
0.014757
0.00450165
9.68351e-07
3.45206e-11
2.25496e-15
6.39278e-13
1.61061e-08
1.4679e-07
2.85015e-11
7.69053e-16
2.83237e-17
2.53567e-17
9.11288e-19
1.15063e-22
6.23713e-20
3.54868e-18
2.32432e-16
6.3639e-16
1.40342e-12
1.17095e-09
1.73779e-06
1.48625e-07
6.96066e-12
8.98421e-16
5.05371e-20
0
0
0
0
0
0
0
0
0
0
0
0
0
0
0
0
0
0
0
0
0
0
0
0
0
0
0
0
0
0
0
0
0
0
0
0
0
0
0
0
0
0
0
0
0
0
0
0
0
0
0
0
0
0
0
0
0
0
0
0
0
0
0
0
0
0
0
0
0
0
0
0
0
0
0
0
0
0
0
0
0
0
0
0
0
0
0
0
0
0
0
0
0
0
0
0
0
0
0
0
0
0
0
0
0
0
0
0
0
0
0
0
0
0
0
0
0
0
0
0
0
0
0
0
0
0
0
0
0
0
0
0
0
0
0
0
0
0
0
0
0
0
0
0
0
0
0
0
0
0
0
0
0
0
0
0
0
0
0
0
0
0
0
0
0
0
0
0
0
0
0
0
0
0
0
0
0
0
0
0
0
0
0
0
0
0
0
0
0
0
0
0
0
0
0
0
0
0
0
0
0
0
0
0
0
0
0
0
0
0
0
0
0
0
0
0
0
0
0
0
0
0
0
0
0
0
0
0
0
0
0
0
0
0
0
0
0
0
0
0
0
0
0
0
0
0
0
0
0
0
0
0
0
0
0
0
0
0
0
0
0
0
0
0
0
0
0
0
0
0.00490901
0.00503816
0.00580791
0.00743115
0.0202069
0.116566
0.194119
0.212851
0.20688
0.223159
0.173341
0.177765
0.135783
0.119776
0.0953581
0.0299526
0.00827234
0.00722946
0.00660867
0.00636996
2.21968e-07
2.24117e-07
2.60873e-07
4.7376e-07
0.0232651
0.312615
0.314672
0.138319
0.130414
0.133776
0.109923
0.111212
0.100702
0.0802081
0.221417
0.0409012
2.09781e-05
4.04377e-07
3.54264e-07
3.44342e-07
1.80734e-14
4.44468e-13
9.416e-12
7.51723e-09
0.00095424
0.0588723
0.0619025
0.096335
0.0910259
0.0792414
0.0737195
0.067208
0.0529046
0.0520654
0.03417
0.000665712
1.90251e-07
4.95624e-11
8.3669e-13
7.12786e-15
1.04168e-14
3.49032e-13
1.02647e-11
9.37951e-09
0.000651355
0.0716214
0.0832489
0.0815683
0.0670778
0.0483235
0.0123039
0.0382897
0.0528461
0.0673323
0.0398827
0.000148214
2.57029e-09
7.45921e-11
1.50437e-12
2.32549e-15
3.71053e-15
1.79004e-13
8.25473e-12
2.95725e-10
5.44867e-05
0.0204842
0.0508601
0.0361362
0.00932279
2.62557e-05
2.78374e-07
5.99525e-06
0.001387
0.00902802
5.82941e-06
5.85786e-08
8.76012e-12
2.45778e-12
7.30861e-14
5.65577e-18
1.75559e-17
8.66539e-16
4.31245e-14
1.13093e-13
1.11363e-08
2.63689e-05
0.0150211
0.00463749
8.66901e-07
3.61009e-11
2.02984e-15
5.34614e-13
1.58481e-08
1.47407e-07
2.75405e-11
5.70186e-16
1.80105e-17
2.25725e-17
8.92068e-19
1.03916e-22
6.73969e-20
3.58219e-18
2.03973e-16
5.46305e-16
1.35098e-12
1.0788e-09
1.82312e-06
1.44395e-07
5.40866e-12
6.17138e-16
3.03208e-20
0
0
0
0
0
0
0
0
0
0
0
0
0
0
0
0
0
0
0
0
0
0
0
0
0
0
0
0
0
0
0
0
0
0
0
0
0
0
0
0
0
0
0
0
0
0
0
0
0
0
0
0
0
0
0
0
0
0
0
0
0
0
0
0
0
0
0
0
0
0
0
0
0
0
0
0
0
0
0
0
0
0
0
0
0
0
0
0
0
0
0
0
0
0
0
0
0
0
0
0
0
0
0
0
0
0
0
0
0
0
0
0
0
0
0
0
0
0
0
0
0
0
0
0
0
0
0
0
0
0
0
0
0
0
0
0
0
0
0
0
0
0
0
0
0
0
0
0
0
0
0
0
0
0
0
0
0
0
0
0
0
0
0
0
0
0
0
0
0
0
0
0
0
0
0
0
0
0
0
0
0
0
0
0
0
0
0
0
0
0
0
0
0
0
0
0
0
0
0
0
0
0
0
0
0
0
0
0
0
0
0
0
0
0
0
0
0
0
0
0
0
0
0
0
0
0
0
0
0
0
0
0
0
0
0
0
0
0
0
0
0
0
0
0
0
0
0
0
0
0
0
0
0
0
0
0
0
0
0
0
0
0
0
0
0
0
0
0
0
0.00491409
0.00504199
0.00581303
0.00743327
0.0208763
0.118377
0.195913
0.214889
0.210447
0.225586
0.174586
0.180278
0.136621
0.12088
0.0963617
0.030764
0.00829556
0.00723894
0.00661629
0.00636127
2.2137e-07
2.2515e-07
2.61233e-07
4.74854e-07
0.0256466
0.321013
0.318766
0.140853
0.131534
0.136494
0.110805
0.112129
0.101318
0.0805134
0.22673
0.043677
2.31954e-05
4.03575e-07
3.54193e-07
3.4265e-07
2.02247e-14
4.80953e-13
9.60771e-12
5.8848e-09
0.000998536
0.0583239
0.0613752
0.0967371
0.091561
0.0797999
0.0745678
0.0677871
0.0530368
0.0519498
0.0336809
0.000705962
1.95328e-07
4.8373e-11
8.89577e-13
7.35742e-15
1.16281e-14
3.84976e-13
1.13068e-11
6.04907e-09
0.000677345
0.0722765
0.0835656
0.0820202
0.067728
0.0489556
0.0125786
0.0388943
0.0535338
0.0679782
0.0405784
0.000153411
1.9816e-09
6.91679e-11
1.51321e-12
2.27595e-15
3.92578e-15
1.79456e-13
7.45856e-12
1.27995e-10
5.97767e-05
0.0209531
0.0511764
0.0364259
0.00950994
2.75481e-05
2.71541e-07
6.38087e-06
0.00145795
0.0092282
5.78417e-06
5.94136e-08
6.03381e-12
2.18324e-12
7.32325e-14
4.97028e-18
1.82733e-17
8.5319e-16
3.79592e-14
1.12525e-13
1.3287e-08
2.40473e-05
0.0152759
0.00477234
7.66441e-07
3.69672e-11
1.75512e-15
4.37224e-13
1.55427e-08
1.47838e-07
2.6094e-11
4.27864e-16
1.14186e-17
1.9998e-17
8.72559e-19
8.67448e-23
7.08458e-20
3.55299e-18
1.78004e-16
5.77151e-16
1.25958e-12
9.90392e-10
1.91284e-06
1.402e-07
4.25279e-12
4.21385e-16
1.77354e-20
0
0
0
0
0
0
0
0
0
0
0
0
0
0
0
0
0
0
0
0
0
0
0
0
0
0
0
0
0
0
0
0
0
0
0
0
0
0
0
0
0
0
0
0
0
0
0
0
0
0
0
0
0
0
0
0
0
0
0
0
0
0
0
0
0
0
0
0
0
0
0
0
0
0
0
0
0
0
0
0
0
0
0
0
0
0
0
0
0
0
0
0
0
0
0
0
0
0
0
0
0
0
0
0
0
0
0
0
0
0
0
0
0
0
0
0
0
0
0
0
0
0
0
0
0
0
0
0
0
0
0
0
0
0
0
0
0
0
0
0
0
0
0
0
0
0
0
0
0
0
0
0
0
0
0
0
0
0
0
0
0
0
0
0
0
0
0
0
0
0
0
0
0
0
0
0
0
0
0
0
0
0
0
0
0
0
0
0
0
0
0
0
0
0
0
0
0
0
0
0
0
0
0
0
0
0
0
0
0
0
0
0
0
0
0
0
0
0
0
0
0
0
0
0
0
0
0
0
0
0
0
0
0
0
0
0
0
0
0
0
0
0
0
0
0
0
0
0
0
0
0
0
0
0
0
0
0
0
0
0
0
0
0
0
0
0
0
0
0
0.004922
0.00505197
0.00582376
0.00744102
0.0215723
0.120124
0.197837
0.216977
0.213516
0.228078
0.175724
0.182924
0.137438
0.122046
0.0975657
0.0316072
0.00832479
0.0072537
0.00663027
0.00635648
2.20004e-07
2.24827e-07
2.60365e-07
4.88593e-07
0.02809
0.328878
0.322592
0.143316
0.132612
0.139178
0.111651
0.113008
0.101911
0.0808007
0.231631
0.0465243
2.50343e-05
4.00398e-07
3.52057e-07
3.39645e-07
2.18885e-14
4.88378e-13
8.9988e-12
5.37533e-09
0.00103955
0.057783
0.0608475
0.0971245
0.0920777
0.0803237
0.0753626
0.0683331
0.0531631
0.0518425
0.0331705
0.000742353
1.99637e-07
4.73019e-11
9.40676e-13
7.52282e-15
1.2382e-14
3.89367e-13
1.05803e-11
4.66442e-09
0.000701606
0.0728875
0.083863
0.0824443
0.0683355
0.049551
0.0128443
0.0394654
0.0541806
0.0685822
0.0412362
0.00015852
1.64002e-09
6.35906e-11
1.5102e-12
2.18384e-15
3.99201e-15
1.70592e-13
6.29448e-12
5.09252e-11
6.46963e-05
0.0213951
0.0514739
0.0366997
0.0096925
2.89196e-05
2.64202e-07
6.77809e-06
0.00152962
0.00942346
5.69903e-06
6.01954e-08
3.9356e-12
1.92926e-12
7.3132e-14
4.39417e-18
1.87298e-17
8.31182e-16
3.32571e-14
1.90887e-13
1.48457e-08
2.18236e-05
0.0155199
0.00490557
6.67986e-07
3.70381e-11
1.45077e-15
3.48878e-13
1.52042e-08
1.48119e-07
2.41584e-11
3.25329e-16
7.21994e-18
1.76258e-17
8.52678e-19
6.78081e-23
7.2484e-20
3.47056e-18
1.54537e-16
6.36807e-16
1.13814e-12
9.0551e-10
2.00749e-06
1.3617e-07
3.42e-12
2.85169e-16
1.00141e-20
0
0
0
0
0
0
0
0
0
0
0
0
0
0
0
0
0
0
0
0
0
0
0
0
0
0
0
0
0
0
0
0
0
0
0
0
0
0
0
0
0
0
0
0
0
0
0
0
0