/*--------------------------------*- C++ -*----------------------------------*\
| =========                 |                                                 |
| \\      /  F ield         | OpenFOAM: The Open Source CFD Toolbox           |
|  \\    /   O peration     | Version:  2.3.0                                 |
|   \\  /    A nd           | Web:      www.OpenFOAM.org                      |
|    \\/     M anipulation  |                                                 |
\*---------------------------------------------------------------------------*/
FoamFile
{
    version     2.0;
    format      ascii;
    class       volScalarField;
    location    "1.10001";
    object      epsilon.air;
}
// * * * * * * * * * * * * * * * * * * * * * * * * * * * * * * * * * * * * * //

dimensions      [0 2 -3 0 0 0 0];

internalField   nonuniform List<scalar> 
10000
(
63.4173
60.9291
60.7641
179.426
10.7348
2.06329
1.0593
0.494975
0.113793
0.0779847
0.00811174
0.0952826
0.00747802
0.0689967
0.319331
0.591207
1.25257
0.265361
2.47381
1.02327
94.7837
47.2165
37.3768
3918.52
8.20315
0.146857
3.01623
0.0309231
0.00440876
0.0010185
0.00118473
0.00103301
0.000471658
0.0402656
0.266575
0.377669
8.33509
0.53211
0.00709026
0.00907533
91.1847
58.5319
28.8045
62.5789
3.19316
0.0203418
0.00283041
0.00268131
0.000446216
0.000346684
0.000269594
0.000265599
0.000839363
0.00227853
0.0220462
4.18814
88.2669
8.76188
0.0237287
0.207978
59.6016
174.197
38.1645
47.8898
5.93301
0.00674356
0.000238531
0.000157941
0.000161526
0.000170118
0.000180532
0.000195571
0.000174977
0.000268183
0.0326674
10.2799
674.82
22.2723
0.0111236
2.77329
69.7584
996.725
69.0875
67.2294
6.06428
0.00634108
0.000267961
0.000197565
0.000177837
0.000884098
0.0017541
0.00163547
0.000206124
0.000217626
0.19391
8.46282
235.788
214.7
0.0354789
14.1664
137.914
7522.05
138.51
394.768
8.98473
0.0416576
0.000257824
0.000193676
0.00144339
0.00155885
0.00164489
0.00173477
0.00166279
0.00190775
0.175513
6.99592
161.963
2300.23
1.13383
76.4603
389.207
45436
282.63
2475.67
13.6775
0.0605717
0.00304053
0.00219182
0.00191648
0.00200229
0.00211031
0.00249985
0.00223492
0.00225358
0.138622
6.30827
186.38
2330.95
2.71261
418.463
574.122
44837.7
331.115
1894.98
14.0164
0.105286
0.0183495
0.0117017
0.0111256
0.011589
0.0119541
0.0164896
0.0138068
0.0124165
0.163502
5.87945
53.121
30.261
0.0161085
0.83125
776.719
42477
469.454
119.451
9.38833
0.504157
0.23135
0.153693
0.168982
0.169074
0.152993
0.220435
0.211067
0.209485
0.610943
5.40429
38.7547
2.89428
0.00408858
0.711489
3371.58
44931.8
2702.05
59.8618
5.56188
3.33714
1.77265
0.953072
0.999198
1.0143
0.963161
1.5873
1.75472
1.93215
3.35038
9.5429
206.036
2.52204
0.00818556
21.7113
44873.1
45203.1
3674.49
108.784
15.0728
3.3733
1.77013
1.22311
1.11514
1.13599
1.27327
1.72928
1.98856
2.18236
2.90343
10.6774
1282.33
4.1183
0.0148956
23.3741
96266.6
81181.6
23043.6
1803.97
32.3438
6.07552
2.03504
1.31058
1.20232
1.24574
1.46031
2.60347
3.01877
3.15916
3.63217
10.79
1257.74
3.18014
0.476945
47.1364
331638
286562
72494.5
19986.1
1888.06
82.0347
3.0843
1.48184
1.35874
1.42726
1.76529
6.49461
7.04845
7.24975
8.71186
13.4528
38.3122
0.859904
6.15352
315.883
302437
241295
179502
35255.8
15709.6
3292.08
138.184
2.27262
1.65328
1.73031
2.02615
6.12474
6.62659
6.94261
9.13737
21.4438
41.8946
0.930733
56.7226
2075.33
728575
414868
208489
102827
47579.9
17931.1
2947.35
91.8862
2.43526
2.28993
2.1764
5.24177
5.67307
5.96233
7.93729
22.4518
203.199
1.94749
299.187
1422.51
754758
576300
245776
135566
72247.6
33088.1
10173.7
1385.67
26.3597
3.25728
1.97757
2.45773
4.87267
5.11649
6.88512
13.4374
1077.96
2.97836
29.1334
439.821
435840
376101
253868
163436
93931.9
46056.9
17080.2
4436.34
302.733
9.23619
2.11687
2.84779
2.46409
2.64589
3.43625
21.4036
449.534
1.57798
44.5427
303.794
414475
367757
278114
190638
113355
57021.6
22650.1
7488.77
949.26
23.2451
2.23339
6.48452
3.08673
3.53566
3.62974
11.3114
214.769
2.75276
292.305
1558.5
480317
406212
307122
220539
130682
70033.4
32109.8
11758.7
2230.67
87.6572
2.2918
4.74998
4.24668
5.18746
4.28731
4.95706
31.7974
91.756
97.1963
292.575
812569
665720
426549
243447
141357
77613.1
37645.3
14744.1
3133.42
141.952
1.89488
1.58412
0.910527
0.621828
0.771013
1.1476
5.82751
2205.48
44.4072
34.5926
61.2077
59.3806
59.3952
98.821
8.90308
2.0915
1.04789
0.491537
0.114703
0.182545
0.00929178
0.127025
0.00698597
0.067308
0.350055
0.608723
1.37157
0.277209
0.796511
1.05377
93.662
46.5593
34.4924
1381.27
3.55045
0.145552
2.25674
0.028728
0.0047068
0.00112698
0.00119771
0.00104258
0.000433288
0.0445527
0.385846
0.369722
6.38145
0.705947
0.00624738
0.0397553
89.7989
53.1505
29.261
57.069
2.76104
0.0295396
0.00297636
0.0025607
0.000439032
0.000342673
0.000267926
0.000262389
0.000793277
0.002169
0.023828
3.65736
40.1138
9.21876
0.0594317
0.282865
58.9611
130.725
37.2003
45.2262
5.36513
0.00520936
0.00022885
0.000156706
0.000160158
0.000168202
0.000178313
0.000192994
0.000172147
0.00024988
0.0330669
7.49709
222.809
14.4251
0.0413837
3.44756
68.5343
735.801
60.1426
52.2886
5.83031
0.00540063
0.0002593
0.000194824
0.000176595
0.000838209
0.00173746
0.00159431
0.000203279
0.000211992
0.194505
7.90626
161.478
68.7476
0.0625962
12.5424
114.022
5345.89
109.638
218.046
7.71225
0.0356087
0.000247577
0.000190136
0.0014382
0.00154365
0.00162288
0.00170422
0.00163792
0.00185003
0.172263
6.96354
127.555
644.578
0.628931
42.38
270.636
23997.1
182.893
1022.86
10.1199
0.0566258
0.00273274
0.00205712
0.00180878
0.00187875
0.00196733
0.00226628
0.00206614
0.00209556
0.128969
6.31423
117.242
823.044
2.32695
224.257
403.608
24458
216.308
878.243
10.6008
0.0956056
0.0154638
0.010201
0.00961389
0.00999834
0.0103963
0.013856
0.0116156
0.0104733
0.150487
6.0107
48.7012
25.7703
0.219659
14.1054
527.5
22678.2
246.942
110.667
9.43423
0.423945
0.195107
0.139722
0.151238
0.151242
0.139489
0.189575
0.180855
0.178621
0.525133
5.65036
31.8438
2.7673
0.00839121
2.7962
2148.09
22714.6
859.587
54.9147
6.88681
3.21829
1.81135
1.03712
1.06108
1.07591
1.04771
1.63475
1.80822
1.99069
3.18161
7.01103
121.235
2.1796
0.0319802
27.6729
24553.5
24499.8
2043.97
101.122
12.1809
3.47109
1.78581
1.22917
1.11958
1.14064
1.27998
1.74302
2.00762
2.20701
2.95816
9.54328
520.695
2.73823
0.0453621
22.6094
92730.7
77220.7
19365.5
1735.83
31.1346
4.82653
2.05176
1.31569
1.20624
1.25013
1.46767
2.6156
3.0422
3.18746
3.67178
8.92478
490.215
2.27227
0.419819
29.3766
306204
263241
72181.8
19390.8
1884.12
81.3812
3.09173
1.48846
1.3637
1.43311
1.7746
5.31011
5.81568
5.95082
6.86256
9.14859
35.4833
1.06346
3.43334
135.832
301198
240848
173446
38621.1
15750.5
3296.43
136.812
2.27181
1.66159
1.74021
2.0417
5.31463
5.64387
5.87028
7.45072
15.5156
37.2652
1.05003
30.4738
744.898
693305
412480
208274
102824
47579.9
17936.6
2928.05
91.4965
2.45433
2.31434
2.19845
4.70187
5.07814
5.28537
6.65608
17.4907
139.293
1.5335
121.463
693.779
722528
553038
245441
135567
72247.6
33087.9
10162.6
1387.12
26.3567
3.29658
1.9968
2.47888
4.45583
4.65554
5.80911
12.1763
486.079
2.04692
24.4271
359.718
435636
376102
253948
163488
93932.6
46056.8
17070.9
4438.73
298.294
7.21857
2.1392
2.86911
2.48529
2.67007
3.48266
15.7333
235.238
1.68208
21.9465
225.109
414740
368093
278301
190721
113356
57030.1
22637.7
7491.48
941.769
21.67
2.26057
5.249
3.13019
3.59549
3.70282
11.1182
113.654
1.65573
89.5395
675.482
480070
405887
307031
219565
130677
70043.1
32116.1
11762.4
2232.79
87.6884
2.32961
4.0664
4.52474
5.67205
4.60208
5.69341
23.496
35.285
52.536
116.854
778548
638886
416725
242306
141366
77623.7
37652.1
14748.4
3135.78
142.204
1.96372
1.66867
2.30002
2.45034
2.23681
2.54846
3.12618
915.279
14.086
12.9188
59.7208
57.7204
57.404
65.8913
7.84205
2.12179
1.05031
0.490336
0.132302
0.768964
0.0165136
0.149463
0.00679511
0.0656504
0.363348
0.612161
1.46753
0.286209
0.481731
1.09181
91.4444
45.5806
33.2217
502.319
2.01586
0.170585
1.93788
0.0279563
0.00483821
0.00116412
0.00120165
0.00104304
0.00041764
0.0464137
0.465801
0.373042
5.69647
0.968183
0.00779955
0.0684963
87.3905
49.0841
30.0871
51.9208
2.46203
0.0347898
0.00302537
0.00245405
0.000427647
0.000333965
0.000262445
0.00025617
0.000760518
0.00207686
0.02464
3.40662
20.5468
9.38826
0.0865975
0.473947
57.3808
104.586
36.72
41.8086
4.95082
0.00463389
0.000224747
0.000155819
0.000159293
0.00016659
0.000176023
0.000189647
0.000170246
0.000242166
0.0334629
6.23001
78.0612
11.4811
0.0694163
3.9967
66.6397
520.947
53.5929
41.9914
5.61219
0.00499623
0.000254406
0.000192435
0.000174913
0.000805383
0.00171168
0.00155136
0.000200287
0.000209186
0.194538
7.3489
108.71
32.1317
0.0833521
11.5979
97.6665
3474.69
87.9739
113.974
6.93949
0.0332456
0.000242641
0.000187959
0.0014294
0.00152823
0.00160203
0.00167612
0.00161615
0.00182278
0.168534
6.92122
98.6231
187.753
0.362761
23.8073
198.04
13071.1
122.32
427.445
8.48706
0.0548032
0.0026082
0.00200196
0.0017656
0.00182929
0.00190994
0.0021749
0.00199971
0.00203305
0.124439
6.37481
85.5503
312.801
1.36371
79.8061
286.393
13722.3
142.584
443.4
8.97961
0.0915373
0.0144125
0.00962817
0.00904414
0.00939871
0.00980159
0.0128828
0.0108119
0.00976559
0.144929
6.19596
42.4199
20.7721
0.608883
38.8164
369.293
12352.2
152.239
98.3533
9.43779
0.388152
0.177736
0.132433
0.14237
0.142236
0.132185
0.173856
0.166001
0.163843
0.476933
6.12065
26.491
2.57854
0.0220049
9.37409
1454.17
11461.9
348.652
51.1031
8.29466
3.34018
1.88794
1.12281
1.13003
1.14496
1.13401
1.70848
1.89275
2.08721
3.15966
6.41108
66.9023
1.97543
0.0546702
32.3699
15401.6
14361
1316.32
93.5396
11.3117
3.66349
1.81367
1.2398
1.12745
1.1489
1.2918
1.76726
2.04106
2.25021
3.05665
9.45213
215.766
2.14366
0.0738938
21.7056
86989.3
71128.8
16668.9
1636.74
30.1615
4.33923
2.08369
1.32466
1.21337
1.25812
1.48058
2.64817
3.09794
3.25376
3.77727
8.25627
207.035
1.88101
0.373013
21.3006
283491
242951
71681.5
18975
1879.72
80.617
3.09757
1.50003
1.37271
1.44374
1.79246
4.64732
5.12123
5.22514
5.86726
8.01776
32.591
1.15416
2.34163
52.9031
298917
240018
168077
41737
15809
3300.1
132.92
2.2597
1.67658
1.7581
2.07007
4.83045
5.07031
5.2479
6.47266
12.6017
33.2359
1.12321
15.5193
269.249
660769
408176
207892
102823
47580
17940.4
2885.41
89.5404
2.48256
2.35796
2.23807
4.37174
4.71007
4.86947
5.915
14.7112
92.3207
1.3437
52.0557
363.531
693172
531970
244849
135570
72247.6
33087.7
10135.2
1387.55
26.183
3.39446
2.03059
2.51901
4.19515
4.36429
5.14726
11.3897
228.53
1.49714
19.5664
257.678
435452
376269
254111
163591
93934.1
46056.6
17046.4
4440.24
288.031
6.17203
2.18097
2.9205
2.52436
2.71447
3.5775
12.9265
135.957
1.23074
11.8584
161.318
415295
368777
278697
190876
113358
57036.3
22606
7493.18
924.764
20.2808
2.31186
4.58048
3.20648
3.69488
3.83096
10.974
64.8345
0.736944
27.911
314.647
479561
405238
306823
218737
130669
70050.3
32120.5
11765.2
2234.31
87.7432
2.39592
3.75763
4.96229
6.36185
5.08811
6.9373
15.5939
4.62331
31.9122
56.8491
747670
614380
407753
241248
141368
77631.7
37657.3
14751.5
3137.61
142.583
2.08449
1.81745
4.17562
4.82821
4.21279
4.66569
0.672948
117.401
5.06575
1.50784
59.1643
56.7236
56.1329
51.8457
7.23498
2.1925
1.06683
0.490048
0.17276
2.72883
0.0358598
0.200423
0.00646955
0.0631618
0.387983
0.622463
1.59121
0.298556
0.448523
1.14907
87.7278
44.6323
33.0787
200.583
1.43031
0.221508
1.53289
0.0265753
0.00512566
0.00117382
0.00121318
0.00104357
0.00039145
0.0505199
0.65392
0.38103
5.59499
1.2801
0.0103899
0.105956
84.4976
46.1911
31.2151
47.3269
2.15301
0.046446
0.0030933
0.00234688
0.0004225
0.000330559
0.00026059
0.000253779
0.00072937
0.00199284
0.0262199
3.346
15.0127
9.63123
0.109614
0.916265
55.6511
85.0427
36.6803
38.7188
4.54968
0.00367179
0.000218554
0.000155285
0.000158607
0.000165788
0.000174967
0.000188235
0.000168841
0.000228446
0.0342737
5.67026
39.055
9.96784
0.0959128
4.49027
65.2788
365.738
48.9726
36.749
5.41726
0.00422804
0.00024886
0.000191039
0.000174202
0.000775961
0.00170124
0.00152388
0.000199047
0.000205081
0.194393
6.99171
76.3356
18.5831
0.104945
11.2528
86.7862
2195.28
71.5869
70.0115
6.4705
0.0290178
0.000236174
0.0001859
0.00142899
0.00152121
0.00159214
0.0016628
0.00160539
0.00178335
0.164057
6.92033
77.5354
72.9886
0.317454
16.7152
152.742
7349.97
87.6946
201.09
7.68113
0.0509114
0.00242726
0.00192057
0.00170332
0.00175792
0.00182659
0.00204426
0.00190451
0.0019394
0.114523
6.4883
67.7586
129.232
0.802335
37.0162
210.732
7923.41
98.3873
245.686
8.12107
0.0836364
0.0128818
0.00871565
0.00814827
0.00845961
0.00885708
0.0114499
0.00962121
0.0087114
0.133623
6.41588
36.3958
16.0088
0.740794
47.7193
274.15
6889.58
101.578
85.3842
9.52612
0.329017
0.148873
0.119438
0.1268
0.126574
0.119624
0.14846
0.140675
0.137548
0.414409
6.7449
23.4954
2.40365
0.0724629
24.5842
1110.81
5818.1
191.549
48.3899
10.061
3.5904
1.987
1.20015
1.20021
1.21551
1.2119
1.79684
1.99444
2.20499
3.23728
6.89557
41.0629
1.87977
0.0874339
35.5536
11372.7
9545.67
987.839
87.9387
11.4759
3.90235
1.84605
1.25203
1.13663
1.15852
1.30543
1.79546
2.07982
2.30024
3.17232
10.0951
99.3814
1.91833
0.101082
20.7379
80429.3
64594.8
14772.6
1574.11
29.3532
4.26484
2.1249
1.33492
1.2223
1.26811
1.49539
2.69969
3.17954
3.35005
3.93628
8.42167
101.483
1.7148
0.370401
18.0623
263237
225391
71100.4
18695.1
1875.72
79.4441
3.08861
1.51322
1.38396
1.45703
1.81408
4.32946
4.7877
4.88074
5.411
8.15346
30.4902
1.21535
1.80778
31.1634
295808
238918
163330
44498.6
15865.5
3302.71
124.608
2.23179
1.69523
1.78046
2.10347
4.58266
4.78373
4.93851
5.9773
11.5047
31.0086
1.18749
8.47691
118.333
630862
402492
207367
102825
47580.1
17942.8
2818.61
86.4553
2.5093
2.41224
2.28429
4.19839
4.51242
4.64756
5.55347
13.4087
66.3954
1.26718
24.246
207.421
666447
512870
244064
135578
72247.7
33087.4
10091.5
1387.31
25.43
3.54003
2.06937
2.57057
4.05395
4.20327
4.7922
11.2251
121.688
1.26569
15.4652
173.499
435319
376621
254359
163747
93935.7
46056.3
17006.5
4441.01
268.639
5.64556
2.23072
2.99603
2.57344
2.77005
3.70392
11.84
88.4982
0.918573
7.92925
113.58
416128
369814
279291
191113
113361
57040.1
22554.5
7494.02
897.563
18.7136
2.37298
4.28186
3.29709
3.80799
3.98353
11.0093
38.3982
0.369575
11.8583
151.041
478966
404388
306558
218055
130663
70055
32123.3
11767.1
2235.26
87.8237
2.47246
3.68224
5.42832
7.05734
5.5995
8.31754
6.48753
0.275632
16.9455
17.169
719662
591960
399578
240271
141368
77637.1
37660.7
14753.7
3138.86
142.967
2.2239
1.99035
6.14527
7.24893
6.26831
7.04742
0.166099
2.20211
1.06854
0.292335
58.6163
55.77
54.9969
45.0794
6.82211
2.29037
1.09009
0.490544
0.272551
4.02345
0.143659
0.262356
0.00628748
0.0602384
0.40596
0.631591
1.72125
0.312549
0.452301
1.21638
84.6987
43.9431
33.6573
96.7438
1.21742
0.31969
1.33371
0.0259012
0.0053098
0.00107436
0.00123115
0.00104328
0.000377124
0.055193
0.93422
0.391499
5.71988
1.58857
0.0138889
0.205273
81.4738
44.3265
32.6315
43.3015
1.8827
0.0574429
0.00311446
0.00221658
0.00040989
0.000322859
0.00025603
0.000248303
0.000691009
0.00188108
0.0275743
3.38364
12.7076
9.91443
0.143847
1.54261
54.0352
71.4954
37.163
36.2681
4.16542
0.00318311
0.000214893
0.000154447
0.000157727
0.000164301
0.000172845
0.000185303
0.000166941
0.000221573
0.0347708
5.41144
25.8614
9.04458
0.126056
4.94883
64.4315
260.701
45.9056
34.1445
5.2125
0.00384159
0.000243586
0.000188544
0.000172685
0.000743562
0.0016787
0.0014838
0.000196408
0.000201768
0.193701
6.82215
56.2529
11.589
0.127832
11.1934
79.53
1388.52
59.6642
52.8595
6.13661
0.0269006
0.000231123
0.000183657
0.00142294
0.00150748
0.00157278
0.00163705
0.00158457
0.00175473
0.157613
6.92982
61.642
32.9891
0.323227
14.6057
122.833
4251.24
66.5533
113.815
7.22314
0.0483135
0.00232726
0.00187617
0.00167089
0.00172067
0.00178285
0.00197749
0.00185526
0.0018914
0.106425
6.64441
55.4644
55.403
0.549025
25.6367
161.709
4681.6
71.4272
149.255
7.67331
0.0795166
0.0121607
0.00827498
0.00771798
0.00800839
0.00840028
0.010768
0.0090589
0.00821716
0.124789
6.64003
31.6414
11.8076
0.728481
46.5294
215.524
3893.88
72.1777
73.6678
9.62919
0.287997
0.128293
0.1099
0.115707
0.115265
0.110101
0.128484
0.121615
0.118711
0.36031
7.4486
22.0302
2.26042
0.206805
37.5088
930.286
2976.63
125.191
46.4131
11.6584
3.82122
2.08595
1.25199
1.2619
1.27771
1.26411
1.88241
2.09267
2.31932
3.35878
7.83389
30.2407
1.8495
0.127111
37.2343
9423.71
7242.69
836.886
84.142
11.9583
4.09415
1.87091
1.26128
1.14369
1.16593
1.31577
1.81724
2.10964
2.33864
3.26161
10.8589
56.055
1.84893
0.129048
19.7398
73934
58562.3
13482.6
1534.05
28.4131
4.3392
2.16546
1.34263
1.2309
1.27774
1.50655
2.75741
3.26724
3.45304
4.10811
9.00544
59.8635
1.65149
0.372584
15.9126
245168
210282
70515.3
18521.7
1872.84
77.9987
3.0346
1.52306
1.39481
1.46986
1.83097
4.22857
4.68149
4.77351
5.27473
8.78568
29.2682
1.30331
1.47408
21.9959
292041
237637
159151
46918.3
15901.7
3303.98
104.52
2.19092
1.71308
1.80204
2.1291
4.49412
4.68417
4.83141
5.78812
11.4045
30.1795
1.29044
5.16749
67.6993
603413
395834
206737
102830
47580.1
17943.9
2726.48
83.4602
2.51418
2.46485
2.31955
4.13399
4.43341
4.5591
5.42935
13.0159
53.0732
1.33355
13.0229
127.437
642177
495561
243146
135594
72247.7
33087.1
10031.1
1386.87
22.3407
3.69684
2.09858
2.62099
3.99788
4.13514
4.64133
11.4452
78.0301
1.20113
11.0773
117.38
435286
377200
254693
163956
93937
46056.1
16950.7
4441.26
233.595
5.29875
2.26909
3.07758
2.62045
2.82307
3.82981
11.6659
64.147
0.766636
4.22402
73.5827
417255
371217
280091
191435
113363
57042
22482.6
7494.27
859.138
15.9604
2.41945
4.20734
3.3843
3.90823
4.12748
11.226
25.0982
0.267331
3.82579
59.9331
478408
403428
306271
217520
130659
70057.4
32124.6
11768
2235.7
87.884
2.53039
3.71329
5.75248
7.53788
5.9524
9.32483
2.63575
0.0768412
4.27564
2.07738
694328
571464
392173
239387
141367
77639.7
37662.5
14754.8
3139.5
143.226
2.33024
2.12287
7.81025
9.36824
8.02182
9.02746
0.0589515
0.121227
0.218554
0.0729639
57.8637
54.7334
53.9519
41.5251
6.58747
2.42742
1.11845
0.495767
0.558931
5.15776
0.696687
0.365617
0.0059778
0.0565357
0.415908
0.639813
1.85852
0.327778
0.461493
1.29584
81.7436
43.6641
34.6593
59.7637
1.14151
0.553431
1.20875
0.0247398
0.00561941
0.00106566
0.0012557
0.00105075
0.000353803
0.0614291
1.48015
0.401588
5.9358
1.86701
0.0185058
0.495472
78.5174
43.4028
34.3524
39.9851
1.63599
0.0732433
0.00312029
0.00211265
0.000403681
0.000319212
0.000253914
0.000245713
0.000662769
0.00179369
0.0290596
3.4632
11.44
10.2552
0.190018
2.15269
52.6193
62.0497
38.0812
34.4516
3.75423
0.00240625
0.00020957
0.000154038
0.000157225
0.0001636
0.000171841
0.000183928
0.000165901
0.000210106
0.0354701
5.31203
19.7457
8.36561
0.151806
5.39828
64.0007
190.36
44.065
32.8776
4.96612
0.00317101
0.000238791
0.000187315
0.000171965
0.000715492
0.00166801
0.00145614
0.000195151
0.000198054
0.192543
6.77583
43.1667
7.75877
0.150492
11.2482
74.7535
895.562
51.0121
44.8477
5.87561
0.0234869
0.000225687
0.000181937
0.00142332
0.00150096
0.00156356
0.00162484
0.0015746
0.0017206
0.150512
6.99797
49.8762
15.5452
0.343808
13.7665
102.808
2520.93
53.0446
77.0316
6.89689
0.0441313
0.00217743
0.00180824
0.00161994
0.00166235
0.00171452
0.00187252
0.001778
0.00181398
0.0939492
6.76824
46.3664
23.9526
0.458514
20.7498
130.472
2813.48
54.7091
99.461
7.37728
0.0728443
0.0111379
0.00757256
0.00704323
0.00730473
0.007675
0.00979811
0.00825454
0.0075052
0.112041
6.85517
28.3885
8.36059
0.619103
41.5637
178.901
2209.87
54.8125
64.1458
9.62647
0.256582
0.110885
0.0996201
0.103406
0.102996
0.0999445
0.111491
0.104471
0.101401
0.318654
8.14696
21.4364
2.16329
0.425047
45.1259
823.854
1579.24
93.773
44.9454
9.35864
4.58997e-05
2.13507
4.58997e-05
1.28883
1.30502
4.58997e-05
1.92434
2.13921
2.37208
3.43012
8.64128
25.755
1.86011
0.172967
37.5876
8340.26
6091.84
769.812
81.6625
10.1617
4.58997e-05
4.58997e-05
4.58997e-05
4.58997e-05
4.58997e-05
4.58997e-05
4.58997e-05
4.58997e-05
4.58997e-05
4.58997e-05
9.82025
39.0394
1.84285
0.155916
18.634
67976.1
53405
12633.6
1509.2
16.5547
4.58997e-05
2.19236
4.58997e-05
1.23643
1.28396
4.58997e-05
2.80058
3.33067
3.52662
4.22995
9.6242
42.3754
1.63911
0.377482
13.8935
229041
197370
69988.1
18431.2
797.828
4.58997e-05
2.87622
4.58997e-05
1.40175
1.47812
4.58997e-05
4.23971
4.68957
4.78304
5.28595
9.44741
28.7322
1.40913
1.23275
16.4575
287756
236262
155491
49026.6
10087.9
4.58997e-05
36.1657
4.58997e-05
1.72424
1.81601
4.58997e-05
4.49312
4.68191
4.82831
5.75811
11.677
30.2436
1.41722
3.30245
44.6258
578234
388515
206043
102841
46302.8
4.58997e-05
2607.72
4.58997e-05
2.44096
2.4998
4.58997e-05
4.13225
4.42208
4.54551
5.41732
13.0673
46.219
1.44636
7.50327
81.7759
620231
479906
242146
135621
88452.8
4.58997e-05
9953.49
4.58997e-05
8.25794
3.80613
4.58997e-05
2.65279
3.99259
4.12258
4.60002
11.7468
58.964
1.2285
6.77942
77.8882
435423
378058
255118
164218
123826
4.58997e-05
16878.8
4.58997e-05
169.836
4.68389
4.58997e-05
3.13704
2.64921
2.85536
3.91007
11.8475
51.1023
0.721142
1.48332
41.5571
418680
372998
281097
191846
153700
4.58997e-05
22389.6
4.58997e-05
808.15
6.87028
4.58997e-05
4.23918
3.44158
3.97547
4.21601
11.5031
19.1513
0.2351
0.720821
12.2613
477977
402419
305987
217123
178439
4.58997e-05
4.58997e-05
4.58997e-05
4.58997e-05
4.58997e-05
4.58997e-05
4.58997e-05
4.58997e-05
4.58997e-05
4.58997e-05
14.9856
2.28375
0.0576226
0.635869
0.238917
671541
552780
385530
238611
195715
0.000240026
0.000240026
0.000240026
0.000240026
0.000240026
0.000240026
0.000240026
0.000240026
0.000240026
0.000240026
11.3746
0.216235
0.0232207
0.0765607
0.0104655
56.9663
53.6374
52.9104
39.1978
6.4604
2.61118
1.14995
0.509778
2.05441
5.87442
2.33586
0.519644
0.00570453
0.0523491
0.421851
0.646105
2.00045
0.344047
0.472116
1.38532
79.1225
43.8115
35.9163
45.5688
1.15592
1.28324
1.18043
0.0241798
0.00585284
0.00106417
0.001256
0.00106943
0.000340847
0.0637283
2.42347
0.408106
6.18869
2.13632
0.0233663
1.12503
75.1778
43.1334
36.41
37.4599
1.40421
0.0931702
0.00307188
0.00197362
0.00038946
0.000310913
0.000249115
0.000240047
0.000623109
0.00167791
0.0303335
3.56464
10.6747
10.5916
0.24322
2.69156
51.4511
55.4074
39.3569
33.2638
3.28691
0.0020309
0.0002064
0.000153312
0.00015638
0.000162298
0.000169861
0.000181163
0.000164139
0.000203892
0.0359163
5.30578
16.4491
7.89393
0.181416
5.82668
63.8403
142.226
43.008
32.3911
4.63305
0.00283668
0.000233396
0.000184834
0.000170459
0.00068413
0.0016456
0.00141648
0.000192458
0.000194614
0.189569
6.81919
34.6112
5.63641
0.173353
11.3537
71.7276
593.207
44.9556
40.5955
5.6641
0.0218042
0.000220743
0.000179656
0.00141837
0.0014883
0.00154573
0.00160153
0.00155551
0.0016925
0.141427
7.13345
41.4857
7.85389
0.35797
13.421
89.5646
1526.21
44.3346
59.3915
6.60981
0.0407585
0.00209305
0.00177182
0.00159452
0.00163325
0.0016802
0.00182015
0.00173939
0.0017754
0.0828782
6.87882
39.6815
10.7562
0.44086
18.3167
111.262
1708.89
44.1849
72.9304
7.03031
0.0650173
0.00951831
0.00646878
0.00598845
0.00620037
0.00652376
0.0082682
0.00700346
0.00641494
0.0971897
6.99753
26.4448
5.7664
0.509604
37.8696
156.248
1252.47
44.4121
56.6957
9.42675
0.248812
0.106257
0.0948762
0.0979432
0.0976256
0.0951465
0.105741
0.09901
0.0962969
0.305451
8.64761
21.3597
2.11788
0.526451
48.015
754.382
920.399
78.5534
43.8654
15.1642
4.58997e-05
4.58997e-05
4.58997e-05
4.58997e-05
4.58997e-05
4.58997e-05
4.58997e-05
4.58997e-05
4.58997e-05
4.58997e-05
14.5464
23.8813
1.89793
0.228797
37.1664
7650.15
5467.77
744.314
80.1028
14.3452
4.58997e-05
4.58997e-05
4.58997e-05
4.58997e-05
4.58997e-05
4.58997e-05
4.58997e-05
4.58997e-05
4.58997e-05
4.58997e-05
15.1494
31.6806
1.86628
0.181921
17.5031
62752.1
49190.1
12098.9
1494.95
20.054
4.58997e-05
4.58997e-05
4.58997e-05
4.58997e-05
4.58997e-05
4.58997e-05
4.58997e-05
4.58997e-05
4.58997e-05
4.58997e-05
14.7209
34.5062
1.65512
0.382601
11.8391
214635
186431
69569.5
18403.9
802.465
4.58997e-05
4.58997e-05
4.58997e-05
4.58997e-05
4.58997e-05
4.58997e-05
4.58997e-05
4.58997e-05
4.58997e-05
4.58997e-05
13.8764
28.6638
1.51275
0.995746
12.3494
283069
234880
152304
50856.4
10413.6
4.58997e-05
4.58997e-05
4.58997e-05
4.58997e-05
4.58997e-05
4.58997e-05
4.58997e-05
4.58997e-05
4.58997e-05
4.58997e-05
14.4918
30.859
1.54459
1.89659
30.2063
555156
380783
205327
102859
46338.3
4.58997e-05
4.58997e-05
4.58997e-05
4.58997e-05
4.58997e-05
4.58997e-05
4.58997e-05
4.58997e-05
4.58997e-05
4.58997e-05
17.3515
42.6906
1.56562
3.91537
51.9403
600486
465781
241112
135634
88472.9
4.58997e-05
4.58997e-05
4.58997e-05
4.58997e-05
4.58997e-05
4.58997e-05
4.58997e-05
4.58997e-05
4.58997e-05
4.58997e-05
17.9908
49.8859
1.29478
3.21424
47.8471
435787
379248
255633
164467
124083
4.58997e-05
4.58997e-05
4.58997e-05
4.58997e-05
4.58997e-05
4.58997e-05
4.58997e-05
4.58997e-05
4.58997e-05
4.58997e-05
18.9175
43.8006
0.736205
0.361772
16.6985
420419
375179
282322
192249
154162
4.58997e-05
4.58997e-05
4.58997e-05
4.58997e-05
4.58997e-05
4.58997e-05
4.58997e-05
4.58997e-05
4.58997e-05
4.58997e-05
18.4583
16.6108
0.234322
0.112181
1.68065
477753
401409
305724
216742
178217
4.58997e-05
4.58997e-05
4.58997e-05
4.58997e-05
4.58997e-05
4.58997e-05
4.58997e-05
4.58997e-05
4.58997e-05
4.58997e-05
16.8805
2.46587
0.057711
0.0968929
0.0533664
651168
535795
379639
237818
194774
0.000240026
0.000240026
0.000240026
0.000240026
0.000240026
0.000240026
0.000240026
0.000240026
0.000240026
0.000240026
13.4474
0.306873
0.0145602
0.0272801
0.00367529
56.08
52.4842
51.8639
37.7111
6.39146
2.84002
1.18206
0.528696
9.62611
6.1393
2.5791
0.722903
0.00532948
0.0487134
0.402048
0.650259
2.14654
0.361435
0.48377
1.48184
76.9337
44.4495
37.4019
38.8351
1.2436
4.02112
1.22712
0.0237832
0.00600393
0.00101729
0.000914123
0.00107667
0.000319299
0.0468085
1.80666
0.412394
6.45125
2.41023
0.0295958
1.84312
72.5623
43.4502
38.8097
35.5404
1.17997
0.110771
0.00299203
0.00185706
0.00038198
0.000306816
0.000246801
0.00023729
0.000596044
0.00158396
0.0296046
3.68
10.2285
10.9303
0.29909
3.16437
50.5612
50.6965
40.9262
32.6708
2.75557
0.0015447
0.000201737
0.000152968
0.000155967
0.000161678
0.000168908
0.000179837
0.000163284
0.000194649
0.0364322
5.37164
14.6618
7.61055
0.221461
6.2339
63.8313
107.941
42.5645
32.4128
4.18686
0.00230933
0.000229042
0.000183619
0.000169732
0.000656975
0.00163469
0.00138853
0.000191141
0.000191253
0.184825
6.94487
29.1473
4.38939
0.198233
11.4824
70.0095
401.354
40.827
38.3558
5.49279
0.0194576
0.00021602
0.000178126
0.00141931
0.00148219
0.00153709
0.00159025
0.00154621
0.00166338
0.131727
7.32944
35.8177
4.63339
0.367557
13.2773
81.2003
937.225
38.6578
49.9944
6.33958
0.0361189
0.00198081
0.00172175
0.00155908
0.00159272
0.00163238
0.00174845
0.00168498
0.00171816
0.069077
6.97838
35.0407
5.61427
0.437036
17.3105
100.777
1041.64
37.5899
58.4119
6.64399
0.0565443
0.00870864
0.00591977
0.00546521
0.0056527
0.00595286
0.00750882
0.00638133
0.00586988
0.0827745
7.04891
25.5444
4.04708
0.456032
35.3238
143.177
708.674
38.1188
51.1765
8.98136
0.231608
0.0989921
0.0864557
0.0885122
0.0883892
0.0866333
0.0966173
0.0902524
0.0879931
0.279976
8.91736
21.635
2.12427
0.51723
47.7778
705.138
621.913
71.0986
43.1149
20.4396
4.58997e-05
4.58997e-05
4.58997e-05
4.58997e-05
4.58997e-05
4.58997e-05
4.58997e-05
4.58997e-05
4.58997e-05
4.58997e-05
17.8117
23.2012
1.9522
0.295226
36.2668
7159.42
5096.77
740.376
79.179
18.2993
4.58997e-05
4.58997e-05
4.58997e-05
4.58997e-05
4.58997e-05
4.58997e-05
4.58997e-05
4.58997e-05
4.58997e-05
4.58997e-05
18.4427
28.1942
1.89722
0.20827
16.5561
58279.8
45862.7
11787.4
1488.09
23.4793
4.58997e-05
4.58997e-05
4.58997e-05
4.58997e-05
4.58997e-05
4.58997e-05
4.58997e-05
4.58997e-05
4.58997e-05
4.58997e-05
18.5303
30.8332
1.68937
0.448711
9.87968
201762
177264
69301.8
18426.4
809.196
4.58997e-05
4.58997e-05
4.58997e-05
4.58997e-05
4.58997e-05
4.58997e-05
4.58997e-05
4.58997e-05
4.58997e-05
4.58997e-05
18.3165
28.9538
1.60693
0.875501
9.16463
278082
233577
149550
52441.5
10690.5
4.58997e-05
4.58997e-05
4.58997e-05
4.58997e-05
4.58997e-05
4.58997e-05
4.58997e-05
4.58997e-05
4.58997e-05
4.58997e-05
18.6909
31.8397
1.65814
0.873296
19.6142
534032
372841
204635
102886
46371.9
4.58997e-05
4.58997e-05
4.58997e-05
4.58997e-05
4.58997e-05
4.58997e-05
4.58997e-05
4.58997e-05
4.58997e-05
4.58997e-05
20.4743
41.0023
1.67319
1.50454
31.1836
582827
453074
240085
135636
88464
4.58997e-05
4.58997e-05
4.58997e-05
4.58997e-05
4.58997e-05
4.58997e-05
4.58997e-05
4.58997e-05
4.58997e-05
4.58997e-05
20.7587
45.3686
1.37074
0.995687
24.5507
436433
380816
256243
164702
124306
4.58997e-05
4.58997e-05
4.58997e-05
4.58997e-05
4.58997e-05
4.58997e-05
4.58997e-05
4.58997e-05
4.58997e-05
4.58997e-05
21.1958
39.5607
0.778957
0.0747765
4.81807
422481
377778
283770
192646
154519
4.58997e-05
4.58997e-05
4.58997e-05
4.58997e-05
4.58997e-05
4.58997e-05
4.58997e-05
4.58997e-05
4.58997e-05
4.58997e-05
20.3331
15.6117
0.247635
0.0248284
0.323786
477810
400448
305501
216373
178010
4.58997e-05
4.58997e-05
4.58997e-05
4.58997e-05
4.58997e-05
4.58997e-05
4.58997e-05
4.58997e-05
4.58997e-05
4.58997e-05
18.2501
2.75098
0.0634104
0.0211013
0.0237677
633094
520407
374493
237021
193672
0.000240026
0.000240026
0.000240026
0.000240026
0.000240026
0.000240026
0.000240026
0.000240026
0.000240026
0.000240026
14.8408
0.378713
0.015326
0.00927818
0.0025023
55.1325
51.2953
50.7577
36.7394
6.3515
2.9773
1.20989
0.545526
26.6288
6.1181
2.61525
1.02754
0.00500747
0.0454389
0.392577
0.652466
2.29639
0.379938
0.496353
1.58245
75.2436
45.5612
39.1938
35.3021
1.36869
10.6702
1.38486
0.0233215
0.00582153
0.000942707
0.000775341
0.00106569
0.00030808
0.0407989
1.49072
0.415668
6.70837
2.69609
0.0382375
2.50326
70.9252
44.3487
41.5096
34.1618
0.962476
0.089516
0.00286175
0.00170561
0.00036711
0.000298054
0.000241594
0.000231493
0.000557418
0.00146205
0.0293765
3.80534
10.0088
11.2673
0.354371
3.58329
49.9692
47.3487
42.613
32.5937
2.17247
0.00131861
0.000198687
0.00015237
0.00015522
0.000160524
0.000167079
0.000177218
0.000161759
0.00018955
0.0367934
5.4891
13.7976
7.44964
0.269201
6.62628
63.9058
82.5037
42.8348
32.8977
3.66312
0.00204994
0.000223694
0.000181145
0.000168245
0.000626847
0.00161236
0.00134943
0.000188395
0.00018774
0.178519
7.13853
25.8308
3.63111
0.224506
11.6183
69.2822