/*--------------------------------*- C++ -*----------------------------------*\
| =========                 |                                                 |
| \\      /  F ield         | OpenFOAM: The Open Source CFD Toolbox           |
|  \\    /   O peration     | Version:  2.3.0                                 |
|   \\  /    A nd           | Web:      www.OpenFOAM.org                      |
|    \\/     M anipulation  |                                                 |
\*---------------------------------------------------------------------------*/
FoamFile
{
    version     2.0;
    format      ascii;
    class       volVectorField;
    location    "0.27";
    object      U.airMean;
}
// * * * * * * * * * * * * * * * * * * * * * * * * * * * * * * * * * * * * * //

dimensions      [0 1 -1 0 0 0 0];

internalField   nonuniform List<vector> 
6000
(
(-0.0180466 0.281214 0)
(0.00123207 0.245924 0)
(0.0476215 0.256278 0)
(0.0707688 0.249975 0)
(0.0788896 0.252707 0)
(0.0730542 0.257551 0)
(0.062282 0.260629 0)
(0.0519129 0.260767 0)
(0.0427929 0.260148 0)
(0.0332133 0.260537 0)
(0.0237101 0.261869 0)
(0.0153353 0.260852 0)
(0.00897815 0.259104 0)
(0.00423825 0.257549 0)
(0.000402677 0.257072 0)
(-0.00339171 0.257311 0)
(-0.00749676 0.25776 0)
(-0.012504 0.259236 0)
(-0.0190725 0.260703 0)
(-0.0274228 0.261431 0)
(-0.0367252 0.260202 0)
(-0.0463365 0.260048 0)
(-0.0557493 0.260729 0)
(-0.066463 0.260564 0)
(-0.0772517 0.25735 0)
(-0.0826051 0.252384 0)
(-0.0737761 0.249912 0)
(-0.0496566 0.256363 0)
(-0.00223717 0.245886 0)
(0.0177539 0.280991 0)
(0.00903417 0.951487 0)
(0.0282894 0.891616 0)
(0.0862693 0.902807 0)
(0.122015 0.935044 0)
(0.132928 0.961225 0)
(0.117971 0.975132 0)
(0.0875295 0.976425 0)
(0.0581061 0.970276 0)
(0.0374845 0.966219 0)
(0.0246781 0.961367 0)
(0.0180526 0.956999 0)
(0.0140988 0.953798 0)
(0.0100878 0.952393 0)
(0.00551957 0.951401 0)
(0.000677799 0.95114 0)
(-0.00412588 0.951159 0)
(-0.00892931 0.951723 0)
(-0.0135547 0.952563 0)
(-0.0177687 0.954296 0)
(-0.02218 0.957131 0)
(-0.029469 0.961694 0)
(-0.0427997 0.966599 0)
(-0.0638904 0.970916 0)
(-0.0935488 0.97671 0)
(-0.123574 0.974701 0)
(-0.13784 0.960398 0)
(-0.126084 0.934035 0)
(-0.0893137 0.901106 0)
(-0.0303251 0.890547 0)
(-0.00976637 0.950316 0)
(0.00450162 0.845837 0)
(0.0347239 0.716119 0)
(0.0853229 0.737551 0)
(0.11758 0.774833 0)
(0.13808 0.83115 0)
(0.129746 0.881071 0)
(0.0944794 0.897769 0)
(0.0559667 0.884262 0)
(0.0329755 0.866633 0)
(0.0228348 0.853424 0)
(0.0181397 0.845878 0)
(0.0145525 0.842767 0)
(0.0104524 0.841344 0)
(0.0058077 0.840563 0)
(0.000826614 0.840206 0)
(-0.00422701 0.840466 0)
(-0.00921393 0.840809 0)
(-0.0139674 0.841841 0)
(-0.0182901 0.843184 0)
(-0.0222761 0.846552 0)
(-0.0275513 0.853997 0)
(-0.0383375 0.867578 0)
(-0.0619677 0.885169 0)
(-0.10029 0.89757 0)
(-0.134341 0.87949 0)
(-0.141196 0.829265 0)
(-0.119899 0.773338 0)
(-0.0873779 0.735872 0)
(-0.0365143 0.714722 0)
(-0.00524056 0.843451 0)
(0.0340201 0.82183 0)
(0.0753853 0.707445 0)
(0.09996 0.741417 0)
(0.119989 0.784687 0)
(0.131947 0.842855 0)
(0.127276 0.906376 0)
(0.0941991 0.93903 0)
(0.0499223 0.917209 0)
(0.023524 0.885352 0)
(0.0144089 0.864036 0)
(0.0121486 0.853511 0)
(0.010973 0.849687 0)
(0.0084647 0.84863 0)
(0.00482183 0.847829 0)
(0.000614143 0.847636 0)
(-0.00372888 0.847683 0)
(-0.00795123 0.848331 0)
(-0.0116777 0.849139 0)
(-0.014361 0.850695 0)
(-0.0159164 0.854584 0)
(-0.0186959 0.865558 0)
(-0.0284909 0.886914 0)
(-0.0554816 0.918844 0)
(-0.0992209 0.938124 0)
(-0.130613 0.903685 0)
(-0.13472 0.840174 0)
(-0.12202 0.782812 0)
(-0.101749 0.739256 0)
(-0.0770307 0.705205 0)
(-0.034255 0.818469 0)
(0.0447896 0.752276 0)
(0.0969814 0.679163 0)
(0.12736 0.71688 0)
(0.148567 0.774405 0)
(0.151969 0.850359 0)
(0.137377 0.937438 0)
(0.101644 0.989029 0)
(0.057294 0.95835 0)
(0.0244699 0.905771 0)
(0.0110364 0.870581 0)
(0.00813799 0.854632 0)
(0.00797562 0.851105 0)
(0.00671726 0.851358 0)
(0.00400633 0.85158 0)
(0.000523067 0.85171 0)
(-0.00317214 0.851809 0)
(-0.0066787 0.852071 0)
(-0.00941809 0.852078 0)
(-0.0107744 0.852301 0)
(-0.0111801 0.856285 0)
(-0.0145275 0.872639 0)
(-0.0285289 0.908212 0)
(-0.0618069 0.960017 0)
(-0.106119 0.987147 0)
(-0.141593 0.933405 0)
(-0.155054 0.84697 0)
(-0.151269 0.77131 0)
(-0.129189 0.713816 0)
(-0.0976704 0.675906 0)
(-0.0449793 0.748074 0)
(0.0444734 0.667375 0)
(0.109692 0.621389 0)
(0.161892 0.667978 0)
(0.189428 0.746697 0)
(0.175474 0.847211 0)
(0.1439 0.948515 0)
(0.113311 1.01528 0)
(0.0821687 0.998495 0)
(0.0494013 0.936913 0)
(0.0271768 0.887562 0)
(0.0165195 0.864748 0)
(0.0118292 0.859496 0)
(0.00849847 0.860281 0)
(0.00492837 0.860921 0)
(0.000972302 0.861388 0)
(-0.00312665 0.861427 0)
(-0.00707397 0.861559 0)
(-0.0105976 0.860918 0)
(-0.0138945 0.860868 0)
(-0.018663 0.866541 0)
(-0.0296851 0.890279 0)
(-0.0525867 0.93966 0)
(-0.0863324 1.00059 0)
(-0.119046 1.01537 0)
(-0.150663 0.944754 0)
(-0.181644 0.84407 0)
(-0.192655 0.7423 0)
(-0.163997 0.66403 0)
(-0.110379 0.61686 0)
(-0.0446513 0.662893 0)
(0.0516697 0.57959 0)
(0.135721 0.542704 0)
(0.204851 0.607819 0)
(0.226478 0.722591 0)
(0.198743 0.865429 0)
(0.157169 0.965193 0)
(0.133816 1.02247 0)
(0.114595 1.01393 0)
(0.0859877 0.957183 0)
(0.0558857 0.902601 0)
(0.0355023 0.873978 0)
(0.0229859 0.86521 0)
(0.0145836 0.864223 0)
(0.00800194 0.864361 0)
(0.00199534 0.864538 0)
(-0.00391332 0.864656 0)
(-0.00991697 0.864828 0)
(-0.0164154 0.864921 0)
(-0.0248124 0.866602 0)
(-0.0373746 0.875955 0)
(-0.0581781 0.906114 0)
(-0.089171 0.960947 0)
(-0.119028 1.01879 0)
(-0.139585 1.02109 0)
(-0.166162 0.96483 0)
(-0.208633 0.859481 0)
(-0.234201 0.71644 0)
(-0.207623 0.602776 0)
(-0.136614 0.537102 0)
(-0.0521795 0.57492 0)
(0.0624809 0.47133 0)
(0.16105 0.445125 0)
(0.234432 0.54558 0)
(0.244852 0.714893 0)
(0.212349 0.874857 0)
(0.184038 0.975156 0)
(0.169251 1.01862 0)
(0.155284 1.02608 0)
(0.127523 0.979304 0)
(0.0904394 0.924726 0)
(0.0594806 0.889918 0)
(0.0386563 0.877095 0)
(0.0238856 0.872425 0)
(0.0126918 0.871298 0)
(0.00323994 0.870512 0)
(-0.00568397 0.870974 0)
(-0.0151148 0.871398 0)
(-0.0263635 0.873503 0)
(-0.0411971 0.878073 0)
(-0.0624153 0.892601 0)
(-0.0939225 0.927589 0)
(-0.131614 0.985096 0)
(-0.158937 1.02725 0)
(-0.174369 1.02398 0)
(-0.189308 0.971116 0)
(-0.226279 0.875226 0)
(-0.256495 0.701511 0)
(-0.238742 0.538738 0)
(-0.160998 0.438366 0)
(-0.0624247 0.465608 0)
(0.0607056 0.355314 0)
(0.152794 0.350643 0)
(0.216091 0.485299 0)
(0.231136 0.70975 0)
(0.211874 0.87293 0)
(0.201324 0.967377 0)
(0.19224 1.02074 0)
(0.178961 1.02663 0)
(0.157346 1.00269 0)
(0.122372 0.951185 0)
(0.0867916 0.911822 0)
(0.0586616 0.891449 0)
(0.0370316 0.883558 0)
(0.0197001 0.878986 0)
(0.00507936 0.877786 0)
(-0.00866872 0.877449 0)
(-0.0233804 0.879851 0)
(-0.0407971 0.883571 0)
(-0.0629083 0.893298 0)
(-0.0913424 0.913309 0)
(-0.127806 0.95628 0)
(-0.162099 1.00447 0)
(-0.183639 1.03356 0)
(-0.194394 1.0168 0)
(-0.206484 0.974822 0)
(-0.220497 0.873338 0)
(-0.24414 0.693406 0)
(-0.221519 0.472804 0)
(-0.152072 0.343674 0)
(-0.0589696 0.351381 0)
(0.0475092 0.268276 0)
(0.119629 0.283756 0)
(0.164597 0.445623 0)
(0.186844 0.699424 0)
(0.191281 0.852168 0)
(0.196175 0.968224 0)
(0.187071 1.01532 0)
(0.177832 1.03075 0)
(0.162449 1.00941 0)
(0.137469 0.974895 0)
(0.105064 0.936009 0)
(0.0754602 0.91379 0)
(0.0493951 0.899413 0)
(0.0270657 0.892432 0)
(0.0070191 0.888066 0)
(-0.0121583 0.888842 0)
(-0.0322477 0.892175 0)
(-0.054973 0.901095 0)
(-0.0810992 0.914257 0)
(-0.11157 0.939842 0)
(-0.143362 0.976168 0)
(-0.168259 1.0156 0)
(-0.180672 1.0272 0)
(-0.191358 1.02255 0)
(-0.198361 0.96465 0)
(-0.195217 0.86506 0)
(-0.194641 0.68383 0)
(-0.169434 0.424294 0)
(-0.120958 0.275739 0)
(-0.0458225 0.266341 0)
(0.0320241 0.206625 0)
(0.0800621 0.238057 0)
(0.108199 0.416064 0)
(0.134003 0.668528 0)
(0.15281 0.835534 0)
(0.163854 0.955834 0)
(0.165076 1.02046 0)
(0.159322 1.02393 0)
(0.151289 1.01764 0)
(0.134107 0.985396 0)
(0.109232 0.95407 0)
(0.0817133 0.928218 0)
(0.0557323 0.913669 0)
(0.0312092 0.903257 0)
(0.00816472 0.899208 0)
(-0.0144509 0.898692 0)
(-0.0377026 0.904495 0)
(-0.0621211 0.913523 0)
(-0.0885464 0.930865 0)
(-0.115509 0.954304 0)
(-0.1405 0.990517 0)
(-0.15517 1.01472 0)
(-0.163963 1.03033 0)
(-0.167086 1.01393 0)
(-0.16782 0.965276 0)
(-0.151806 0.833505 0)
(-0.134182 0.658468 0)
(-0.111393 0.39196 0)
(-0.0830187 0.226101 0)
(-0.03043 0.204882 0)
(0.0181143 0.166828 0)
(0.0438445 0.213518 0)
(0.0601498 0.390669 0)
(0.0852388 0.641085 0)
(0.100228 0.807635 0)
(0.117503 0.947687 0)
(0.126627 1.00674 0)
(0.130381 1.02837 0)
(0.126969 1.01737 0)
(0.119025 1.00155 0)
(0.101112 0.970237 0)
(0.0791514 0.947445 0)
(0.0551506 0.927565 0)
(0.0315881 0.917071 0)
(0.00823439 0.91018 0)
(-0.0149322 0.911319 0)
(-0.0381245 0.9165 0)
(-0.0617906 0.92992 0)
(-0.0850565 0.946744 0)
(-0.107278 0.97458 0)
(-0.123295 0.999137 0)
(-0.131822 1.02264 0)
(-0.133392 1.02248 0)
(-0.131218 1.01378 0)
(-0.119045 0.941991 0)
(-0.101219 0.813097 0)
(-0.0813952 0.627839 0)
(-0.0602109 0.372504 0)
(-0.0457645 0.195199 0)
(-0.0154249 0.165076 0)
(0.00674269 0.146841 0)
(0.0168114 0.20534 0)
(0.0215645 0.36678 0)
(0.0463189 0.61771 0)
(0.0565565 0.793747 0)
(0.0709249 0.923776 0)
(0.0857961 0.999035 0)
(0.0927992 1.01465 0)
(0.0954141 1.01895 0)
(0.09188 1.00106 0)
(0.0826655 0.984209 0)
(0.0669568 0.961145 0)
(0.0484186 0.946725 0)
(0.0280516 0.933421 0)
(0.00733091 0.92907 0)
(-0.0135853 0.927801 0)
(-0.0342859 0.93543 0)
(-0.0540227 0.945304 0)
(-0.0725818 0.964389 0)
(-0.0869538 0.982005 0)
(-0.0966801 1.00552 0)
(-0.0988195 1.01459 0)
(-0.0978943 1.02055 0)
(-0.0891712 0.992759 0)
(-0.0755135 0.929507 0)
(-0.0565978 0.787536 0)
(-0.0415243 0.602373 0)
(-0.0206711 0.354847 0)
(-0.0174181 0.181164 0)
(-0.00437537 0.146784 0)
(-0.00218589 0.143907 0)
(-0.00222214 0.211997 0)
(-0.00607143 0.347014 0)
(0.0171314 0.599352 0)
(0.0267134 0.776362 0)
(0.0401069 0.912969 0)
(0.0536475 0.97981 0)
(0.0636086 1.01411 0)
(0.0663672 1.01431 0)
(0.065366 1.00931 0)
(0.0583451 0.989762 0)
(0.0481321 0.974467 0)
(0.0347983 0.956689 0)
(0.020321 0.947262 0)
(0.00490052 0.940125 0)
(-0.0106597 0.94152 0)
(-0.0257911 0.945849 0)
(-0.0401953 0.958919 0)
(-0.0526653 0.972507 0)
(-0.0630359 0.993248 0)
(-0.0689141 1.00624 0)
(-0.070726 1.01898 0)
(-0.0670076 1.00909 0)
(-0.0583231 0.985447 0)
(-0.0427392 0.906113 0)
(-0.0257686 0.771429 0)
(-0.0141548 0.582103 0)
(0.00472134 0.340511 0)
(0.00216955 0.183882 0)
(0.00179389 0.1445 0)
(-0.00613059 0.150161 0)
(-0.0155842 0.225628 0)
(-0.0274911 0.334999 0)
(-0.00447971 0.577523 0)
(0.0119577 0.768356 0)
(0.0196802 0.893845 0)
(0.0335065 0.972459 0)
(0.041772 1.00324 0)
(0.0458715 1.01859 0)
(0.0447531 1.01082 0)
(0.0402588 1.00172 0)
(0.032535 0.984097 0)
(0.0234941 0.971906 0)
(0.0132677 0.959813 0)
(0.00273375 0.955724 0)
(-0.00793071 0.954446 0)
(-0.0184033 0.961205 0)
(-0.0281514 0.970124 0)
(-0.0370913 0.986368 0)
(-0.043936 0.999166 0)
(-0.0485255 1.01438 0)
(-0.0486132 1.0148 0)
(-0.0452026 1.00807 0)
(-0.0354968 0.96733 0)
(-0.0219331 0.89438 0)
(-0.00620209 0.753918 0)
(0.00336761 0.56751 0)
(0.0205629 0.329626 0)
(0.0147427 0.194388 0)
(0.00349752 0.153185 0)
(-0.0106181 0.163949 0)
(-0.0262111 0.248126 0)
(-0.0459659 0.33269 0)
(-0.0240632 0.545056 0)
(0.0036195 0.760778 0)
(0.00775475 0.886094 0)
(0.0191665 0.957924 0)
(0.0273332 1.00208 0)
(0.0305656 1.01464 0)
(0.0305581 1.01815 0)
(0.0269654 1.00652 0)
(0.0217479 0.995529 0)
(0.0151563 0.980647 0)
(0.0082504 0.972064 0)
(0.00112858 0.965572 0)
(-0.00594647 0.966654 0)
(-0.0128828 0.970647 0)
(-0.0196412 0.981901 0)
(-0.0255988 0.993171 0)
(-0.0306061 1.00857 0)
(-0.0331199 1.01476 0)
(-0.0329717 1.01793 0)
(-0.028416 0.997914 0)
(-0.0203616 0.960656 0)
(-0.00670437 0.876702 0)
(0.00362721 0.743938 0)
(0.0153613 0.553541 0)
(0.0328053 0.325127 0)
(0.0190449 0.21348 0)
(0.00459429 0.167303 0)
(-0.0187118 0.18481 0)
(-0.0340983 0.274171 0)
(-0.0562168 0.338463 0)
(-0.0417625 0.505331 0)
(-0.00617536 0.753821 0)
(-0.0017737 0.872514 0)
(0.00999339 0.954187 0)
(0.0163141 0.994679 0)
(0.0199947 1.01794 0)
(0.0199727 1.01861 0)
(0.0178591 1.01456 0)
(0.0139638 1.0009 0)
(0.00945186 0.990059 0)
(0.00464645 0.979137 0)
(1.87482e-05 0.974912 0)
(-0.00452328 0.973832 0)
(-0.00907052 0.979794 0)
(-0.013538 0.988064 0)
(-0.0177549 1.00175 0)
(-0.0207993 1.01128 0)
(-0.0223348 1.02021 0)
(-0.0207976 1.01373 0)
(-0.016467 0.996519 0)
(-0.00824523 0.947678 0)
(0.00473744 0.868619 0)
(0.0098075 0.736438 0)
(0.0286301 0.534199 0)
(0.0438079 0.32737 0)
(0.0216609 0.239225 0)
(0.00420127 0.179068 0)
(-0.0271948 0.213712 0)
(-0.0413744 0.295455 0)
(-0.0595816 0.348716 0)
(-0.054483 0.472277 0)
(-0.0202046 0.739235 0)
(-0.00655423 0.865903 0)
(0.00279068 0.943575 0)
(0.00892349 0.994915 0)
(0.0116613 1.01532 0)
(0.012448 1.02402 0)
(0.0109483 1.01717 0)
(0.00846427 1.00832 0)
(0.00524208 0.995071 0)
(0.00211134 0.98631 0)
(-0.000802288 0.980193 0)
(-0.0035397 0.980748 0)
(-0.00634006 0.984895 0)
(-0.00931712 0.995248 0)
(-0.0120045 1.00538 0)
(-0.0139618 1.01725 0)
(-0.014108 1.01944 0)
(-0.0121631 1.01529 0)
(-0.00699935 0.988925 0)
(0.000522317 0.942634 0)
(0.0139833 0.855864 0)
(0.017939 0.731527 0)
(0.0442278 0.508824 0)
(0.0510184 0.339188 0)
(0.024 0.270926 0)
(0.010251 0.191281 0)
(-0.0340257 0.251208 0)
(-0.0473899 0.309221 0)
(-0.0618597 0.35995 0)
(-0.0595772 0.451353 0)
(-0.0304813 0.716088 0)
(-0.00742325 0.855644 0)
(-0.00149822 0.941476 0)
(0.0027812 0.989705 0)
(0.00543932 1.01809 0)
(0.00615975 1.02411 0)
(0.00566975 1.02279 0)
(0.00406343 1.01162 0)
(0.00210381 1.00113 0)
(0.000162524 0.990407 0)
(-0.00142639 0.98549 0)
(-0.00285747 0.9847 0)
(-0.00441839 0.990436 0)
(-0.00616462 0.99894 0)
(-0.00784708 1.01098 0)
(-0.00867761 1.01838 0)
(-0.00821735 1.02242 0)
(-0.0054421 1.0115 0)
(-0.000733397 0.987013 0)
(0.00725466 0.931768 0)
(0.0185793 0.848449 0)
(0.0294089 0.71969 0)
(0.0573894 0.484961 0)
(0.0531361 0.355478 0)
(0.0281927 0.293966 0)
(0.0188937 0.210368 0)
(-0.0309484 0.296618 0)
(-0.048586 0.323502 0)
(-0.0573395 0.366688 0)
(-0.0547878 0.442567 0)
(-0.0322831 0.687481 0)
(-0.00533688 0.852258 0)
(-0.00516652 0.936245 0)
(-0.00223432 0.991343 0)
(-0.000529375 1.01652 0)
(0.000799016 1.02786 0)
(0.000941958 1.02425 0)
(0.000465862 1.01655 0)
(-0.000476283 1.00422 0)
(-0.00134445 0.994845 0)
(-0.0019326 0.988582 0)
(-0.00236798 0.988842 0)
(-0.00296584 0.993484 0)
(-0.00383413 1.00354 0)
(-0.00453855 1.01309 0)
(-0.00463886 1.02208 0)
(-0.00337469 1.02125 0)
(-0.00069907 1.01215 0)
(0.00386204 0.980532 0)
(0.0109328 0.926918 0)
(0.0191527 0.838671 0)
(0.0399286 0.7002 0)
(0.0644049 0.470174 0)
(0.0583438 0.373269 0)
(0.0374458 0.311579 0)
(0.0291399 0.236322 0)
(-0.0241008 0.330599 0)
(-0.0353071 0.33161 0)
(-0.0374423 0.372222 0)
(-0.0423051 0.450443 0)
(-0.031122 0.661287 0)
(-0.00620052 0.851701 0)
(-0.00942408 0.938706 0)
(-0.00847576 0.989196 0)
(-0.00640098 1.01922 0)
(-0.00468957 1.02757 0)
(-0.00339244 1.02765 0)
(-0.00281666 1.01825 0)
(-0.00266537 1.00786 0)
(-0.00261246 0.997174 0)
(-0.00234099 0.991642 0)
(-0.00198102 0.991179 0)
(-0.00181894 0.997043 0)
(-0.00185112 1.0058 0)
(-0.00175503 1.01658 0)
(-0.00101346 1.02246 0)
(0.00057268 1.02328 0)
(0.00354353 1.00898 0)
(0.00703115 0.979439 0)
(0.0133771 0.919702 0)
(0.0169747 0.832467 0)
(0.042578 0.673871 0)
(0.0618781 0.463669 0)
(0.0626901 0.385288 0)
(0.0477807 0.325089 0)
(0.0332738 0.275876 0)
(-0.0132818 0.356098 0)
(-0.0131084 0.329599 0)
(-0.0177624 0.386589 0)
(-0.0293024 0.465625 0)
(-0.0327568 0.642713 0)
(-0.0152872 0.855718 0)
(-0.0174621 0.9378 0)
(-0.0159453 0.991226 0)
(-0.0132183 1.01733 0)
(-0.0101394 1.02959 0)
(-0.00770115 1.02762 0)
(-0.00588365 1.02076 0)
(-0.00466163 1.0094 0)
(-0.00367924 0.999846 0)
(-0.00267011 0.993415 0)
(-0.00163919 0.993557 0)
(-0.000803048 0.998947 0)
(-0.00011046 1.00876 0)
(0.0008657 1.01763 0)
(0.00231764 1.02452 0)
(0.00456595 1.02203 0)
(0.00746844 1.00959 0)
(0.0107609 0.975797 0)
(0.0152425 0.918203 0)
(0.0151212 0.828995 0)
(0.0391437 0.650534 0)
(0.0511705 0.467196 0)
(0.0530332 0.390044 0)
(0.0479512 0.339863 0)
(0.0287536 0.318754 0)
(0.00249587 0.361603 0)
(0.000473138 0.329414 0)
(-0.00876555 0.407686 0)
(-0.0285294 0.494441 0)
(-0.0438008 0.640487 0)
(-0.0335384 0.856644 0)
(-0.0295898 0.93952 0)
(-0.0255144 0.988912 0)
(-0.0206379 1.01731 0)
(-0.0158648 1.02754 0)
(-0.0118862 1.02855 0)
(-0.00879298 1.02077 0)
(-0.00643984 1.01112 0)
(-0.00459538 1.00093 0)
(-0.00290057 0.994908 0)
(-0.0012741 0.99488 0)
(0.000180168 1.00082 0)
(0.00163547 1.0098 0)
(0.00340933 1.01946 0)
(0.00576717 1.02414 0)
(0.00862723 1.02274 0)
(0.0121477 1.00749 0)
(0.0154325 0.975932 0)
(0.0189571 0.916273 0)
(0.018503 0.82919 0)
(0.0364273 0.636617 0)
(0.0319769 0.480761 0)
(0.0259703 0.394429 0)
(0.0287395 0.340304 0)
(0.0232513 0.351748 0)
(0.00656432 0.358159 0)
(0.00401742 0.340339 0)
(-0.0141332 0.428898 0)
(-0.0312277 0.522109 0)
(-0.0548328 0.646832 0)
(-0.0502605 0.853822 0)
(-0.0421499 0.936214 0)
(-0.0349314 0.987479 0)
(-0.0282284 1.0134 0)
(-0.0212846 1.02602 0)
(-0.0157658 1.02646 0)
(-0.01133 1.02091 0)
(-0.00794883 1.01111 0)
(-0.00529029 1.0017 0)
(-0.00299847 0.995747 0)
(-0.000872321 0.995915 0)
(0.00115682 1.00176 0)
(0.00333613 1.01088 0)
(0.00598369 1.01927 0)
(0.00921021 1.02465 0)
(0.0131169 1.02102 0)
(0.0174571 1.00711 0)
(0.021773 0.973953 0)
(0.0254097 0.917015 0)
(0.0296359 0.828802 0)
(0.0422764 0.634949 0)
(0.0258101 0.509412 0)
(0.010002 0.40931 0)
(0.0109769 0.337705 0)
(0.010691 0.375415 0)
(0.00778413 0.35221 0)
(0.00695034 0.356955 0)
(-0.0169346 0.448408 0)
(-0.036729 0.546237 0)
(-0.0650951 0.661047 0)
(-0.0620066 0.848594 0)
(-0.0519445 0.932226 0)
(-0.0429267 0.981276 0)
(-0.03437 1.00964 0)
(-0.0259608 1.02175 0)
(-0.0188872 1.02424 0)
(-0.0133342 1.01917 0)
(-0.00903684 1.01082 0)
(-0.00570184 1.00191 0)
(-0.00293692 0.996249 0)
(-0.000436058 0.996615 0)
(0.00207359 1.00237 0)
(0.00495341 1.01091 0)
(0.00844508 1.01914 0)
(0.012764 1.02297 0)
(0.0177712 1.02002 0)
(0.0237578 1.00416 0)
(0.0295437 0.973156 0)
(0.0345446 0.91664 0)
(0.0438312 0.823655 0)
(0.0504465 0.641646 0)
(0.028382 0.540767 0)
(0.0118576 0.426807 0)
(0.00425122 0.334669 0)
(0.00311201 0.382888 0)
(0.00660763 0.338481 0)
(0.0170457 0.373137 0)
(-0.0179448 0.472663 0)
(-0.0453443 0.573187 0)
(-0.0723868 0.677439 0)
(-0.0709687 0.841859 0)
(-0.0588472 0.925389 0)
(-0.0484433 0.974749 0)
(-0.0387082 1.00327 0)
(-0.029193 1.01703 0)
(-0.0210348 1.02049 0)
(-0.0146119 1.01723 0)
(-0.00963315 1.0098 0)
(-0.00578153 1.00181 0)
(-0.00271713 0.996623 0)
(5.36033e-06 0.997082 0)
(0.00288631 1.00255 0)
(0.00634926 1.01063 0)
(0.0106626 1.01778 0)
(0.0159762 1.02133 0)
(0.0224029 1.01659 0)
(0.0298926 1.00141 0)
(0.0376126 0.968872 0)
(0.0441231 0.915368 0)
(0.0559319 0.815747 0)
(0.0565869 0.655501 0)
(0.0344429 0.563922 0)
(0.0241401 0.444514 0)
(0.00433137 0.347629 0)
(0.000330813 0.390339 0)
(0.00250982 0.326441 0)
(0.0160973 0.382965 0)
(-0.0157127 0.505229 0)
(-0.0521134 0.59804 0)
(-0.0769016 0.695859 0)
(-0.0779105 0.834656 0)
(-0.0636217 0.91761 0)
(-0.0519091 0.966171 0)
(-0.0409739 0.996754 0)
(-0.0309714 1.01098 0)
(-0.0220813 1.01653 0)
(-0.0151193 1.01456 0)
(-0.00965772 1.00856 0)
(-0.00550097 1.00149 0)
(-0.00233042 0.996935 0)
(0.000400445 0.997469 0)
(0.00347196 1.00248 0)
(0.0074022 1.00971 0)
(0.0123871 1.0161 0)
(0.0186041 1.01808 0)
(0.0262095 1.01289 0)
(0.0351322 0.995928 0)
(0.0444991 0.963799 0)
(0.053376 0.910779 0)
(0.0658855 0.809476 0)
(0.061764 0.672945 0)
(0.0419192 0.58111 0)
(0.0281073 0.460215 0)
(0.00269038 0.366684 0)
(-0.00037828 0.38991 0)
(-0.00186003 0.321529 0)
(0.0108034 0.391153 0)
(-0.0188365 0.545862 0)
(-0.0535128 0.628512 0)
(-0.079455 0.714501 0)
(-0.0810368 0.828692 0)
(-0.0668392 0.907121 0)
(-0.0534425 0.957481 0)
(-0.0416283 0.989227 0)
(-0.0314344 1.0049 0)
(-0.0221574 1.01191 0)
(-0.0148479 1.01181 0)
(-0.0091109 1.0071 0)
(-0.00480698 1.00116 0)
(-0.00179047 0.99737 0)
(0.000672066 0.997921 0)
(0.00371142 1.00226 0)
(0.00793293 1.00855 0)
(0.0134636 1.01368 0)
(0.020333 1.01461 0)
(0.0288831 1.00757 0)
(0.0386068 0.990122 0)
(0.0494926 0.956005 0)
(0.0609677 0.90397 0)
(0.0737752 0.806625 0)
(0.068754 0.691237 0)
(0.050521 0.599349 0)
(0.0309757 0.476505 0)
(-0.00226259 0.38626 0)
(0.0013974 0.385196 0)
(0.00413246 0.322521 0)
(0.00225292 0.400995 0)
(-0.0238528 0.572798 0)
(-0.0505835 0.660409 0)
(-0.0781124 0.730721 0)
(-0.0792499 0.82491 0)
(-0.0679053 0.895795 0)
(-0.0533796 0.947958 0)
(-0.0409996 0.982081 0)
(-0.0308302 0.998449 0)
(-0.0214443 1.00745 0)
(-0.0139506 1.00883 0)
(-0.00806539 1.00557 0)
(-0.00387549 1.00093 0)
(-0.00120865 0.998227 0)
(0.000873792 0.998739 0)
(0.00364527 1.00198 0)
(0.00792279 1.00711 0)
(0.0138092 1.01105 0)
(0.0211834 1.01042 0)
(0.0302763 1.00208 0)
(0.040445 0.983262 0)
(0.0522038 0.947722 0)
(0.0652188 0.89496 0)
(0.0772937 0.805921 0)
(0.0730749 0.707287 0)
(0.0567602 0.619207 0)
(0.0342528 0.502037 0)
(-0.00163188 0.40325 0)
(0.00426598 0.38196 0)
(0.00618094 0.323338 0)
(-0.0058723 0.427562 0)
(-0.0350146 0.599611 0)
(-0.0511306 0.692497 0)
(-0.075921 0.745474 0)
(-0.0755026 0.823795 0)
(-0.0670636 0.884873 0)
(-0.0523689 0.938666 0)
(-0.0396143 0.974647 0)
(-0.0294753 0.992763 0)
(-0.0202463 1.00288 0)
(-0.0126861 1.00593 0)
(-0.0069395 1.00408 0)
(-0.00310403 1.00112 0)
(-0.00076027 0.999416 0)
(0.00112125 0.999839 0)
(0.00361227 1.00202 0)
(0.00764885 1.00553 0)
(0.0136082 1.00808 0)
(0.0212861 1.0061 0)
(0.0306472 0.996157 0)
(0.040971 0.976444 0)
(0.0531951 0.939114 0)
(0.0658698 0.885965 0)
(0.0749097 0.807494 0)
(0.0705095 0.720818 0)
(0.0552418 0.640858 0)
(0.0358946 0.527798 0)
(0.00145683 0.421789 0)
(0.00360527 0.382712 0)
(-0.00103514 0.329571 0)
(-0.0162918 0.461885 0)
(-0.0451256 0.619999 0)
(-0.0543902 0.718519 0)
(-0.073236 0.757679 0)
(-0.0706232 0.823895 0)
(-0.0646173 0.875935 0)
(-0.051177 0.929232 0)
(-0.0379519 0.967546 0)
(-0.0277919 0.987434 0)
(-0.0189748 0.99866 0)
(-0.0116586 1.00317 0)
(-0.00630466 1.00313 0)
(-0.00281653 1.00169 0)
(-0.000533731 1.00066 0)
(0.00142671 1.00096 0)
(0.00388285 1.00238 0)
(0.00764545 1.00427 0)
(0.0133535 1.00502 0)
(0.0210351 1.00157 0)
(0.0303759 0.99049 0)
(0.0407623 0.969489 0)
(0.0531035 0.930975 0)
(0.0631925 0.879968 0)
(0.0683894 0.812064 0)
(0.0623477 0.734202 0)
(0.047565 0.661948 0)
(0.031626 0.548572 0)
(0.00436118 0.442159 0)
(0.000350575 0.383545 0)
(-0.0087539 0.344545 0)
(-0.0268628 0.493645 0)
(-0.0522856 0.633401 0)
(-0.0559458 0.737318 0)
(-0.0683842 0.766814 0)
(-0.0640918 0.824394 0)
(-0.059326 0.871113 0)
(-0.0494259 0.920366 0)
(-0.0364328 0.96037 0)
(-0.0263194 0.982621 0)
(-0.018188 0.994913 0)
(-0.0114576 1.00097 0)
(-0.00647933 1.00258 0)
(-0.00304305 1.00226 0)
(-0.000534295 1.00175 0)
(0.00174572 1.00195 0)
(0.00445231 1.00271 0)
(0.00821945 1.00336 0)
(0.0136625 1.00234 0)
(0.0210361 0.997238 0)
(0.0300256 0.985016 0)
(0.0402805 0.96266 0)
(0.0518243 0.924184 0)
(0.0578489 0.87867 0)
(0.0606787 0.8187 0)
(0.0533635 0.750155 0)
(0.0403002 0.683742 0)
(0.0263203 0.5696 0)
(0.00397948 0.464735 0)
(0.000887837 0.385986 0)
(-0.0167722 0.368947 0)
(-0.0400112 0.520827 0)
(-0.0598106 0.642397 0)
(-0.0544887 0.745038 0)
(-0.0605674 0.772669 0)
(-0.0545363 0.822087 0)
(-0.0503248 0.871163 0)
(-0.0451837 0.914189 0)
(-0.034657 0.9539 0)
(-0.025347 0.978708 0)
(-0.0181344 0.992039 0)
(-0.0120815 0.999267 0)
(-0.00730207 1.00207 0)
(-0.00365789 1.0026 0)
(-0.000729734 1.0025 0)
(0.00203582 1.00258 0)
(0.00518744 1.00276 0)
(0.0092332 1.00238 0)
(0.0146313 0.999999 0)
(0.0216312 0.993414 0)
(0.0299762 0.980159 0)
(0.0396539 0.956555 0)
(0.0485504 0.920688 0)
(0.0509711 0.881215 0)
(0.0521896 0.826026 0)
(0.0442694 0.76731 0)
(0.0333472 0.702631 0)
(0.0210268 0.587933 0)
(0.00257681 0.483443 0)
(0.00206157 0.388743 0)
(-0.0228428 0.405815 0)
(-0.0491561 0.54191 0)
(-0.0626971 0.644078 0)
(-0.0558707 0.745351 0)
(-0.0457492 0.776957 0)
(-0.0425865 0.820276 0)
(-0.0367421 0.875527 0)
(-0.0375095 0.912897 0)
(-0.0320143 0.949805 0)
(-0.0247586 0.975689 0)
(-0.0185924 0.98994 0)
(-0.0131819 0.997828 0)
(-0.00847394 1.00141 0)
(-0.00451978 1.00256 0)
(-0.00107993 1.00276 0)
(0.00226394 1.00271 0)
(0.00595612 1.00239 0)
(0.0104072 1.00115 0)
(0.0159166 0.997683 0)
(0.0226317 0.989998 0)
(0.0302539 0.976117 0)
(0.0385673 0.952306 0)
(0.0434819 0.921343 0)
(0.0434653 0.885999 0)
(0.0426989 0.834044 0)
(0.0340778 0.784123 0)
(0.0244234 0.717576 0)
(0.0159382 0.602039 0)
(0.00145815 0.498705 0)
(0.0031765 0.391811 0)
(-0.0239492 0.451917 0)
(-0.0576458 0.562752 0)
(-0.0699255 0.654681 0)
(-0.0542803 0.731034 0)
(-0.0294973 0.777705 0)
(-0.0223187 0.816802 0)
(-0.0204985 0.883681 0)
(-0.0266907 0.91793 0)
(-0.0280111 0.949507 0)
(-0.0242372 0.974168 0)
(-0.0194125 0.988473 0)
(-0.0144891 0.99656 0)
(-0.00980377 1.00053 0)
(-0.00551849 1.00207 0)
(-0.00154297 1.00246 0)
(0.00240496 1.00226 0)
(0.00666152 1.00151 0)
(0.0115269 0.999587 0)
(0.0171813 0.995333 0)
(0.0236618 0.98697 0)
(0.0304794 0.973052 0)
(0.0366047 0.950654 0)
(0.0375122 0.925675 0)
(0.0357648 0.892044 0)
(0.0322587 0.843782 0)
(0.0216033 0.800267 0)
(0.0131066 0.729081 0)
(0.008743 0.609574 0)
(0.00043083 0.510569 0)
(0.00397238 0.393767 0)
(-0.02282 0.497205 0)
(-0.0627544 0.590537 0)
(-0.0737962 0.656976 0)
(-0.0447939 0.709677 0)
(-0.013913 0.771133 0)
(-0.00311271 0.820041 0)
(-0.00547501 0.896618 0)
(-0.0168461 0.929284 0)
(-0.0237411 0.953942 0)
(-0.0238578 0.974437 0)
(-0.0203784 0.987732 0)
(-0.0159286 0.99534 0)
(-0.0111819 0.999371 0)
(-0.00656488 1.00108 0)
(-0.00208101 1.00154 0)
(0.00243732 1.00119 0)
(0.00721726 1.00012 0)
(0.0124392 0.997689 0)
(0.0181971 0.992942 0)
(0.0243417 0.984394 0)
(0.0301047 0.97111 0)
(0.0335251 0.951843 0)
(0.0315193 0.932413 0)
(0.0284684 0.898977 0)
(0.0217851 0.856305 0)
(0.00801699 0.816979 0)
(3.98586e-06 0.73762 0)
(-0.000311081 0.613201 0)
(-0.00257517 0.516456 0)
(0.00353158 0.397437 0)
(-0.0219428 0.532611 0)
(-0.0554005 0.615878 0)
(-0.0485991 0.637012 0)
(-0.0209963 0.694954 0)
(0.000635246 0.764957 0)
(0.00915725 0.826267 0)
(0.00211192 0.912748 0)
(-0.0113748 0.944285 0)
(-0.0208812 0.961776 0)
(-0.0236441 0.976543 0)
(-0.0214763 0.987387 0)
(-0.0173734 0.99407 0)
(-0.012543 0.997859 0)
(-0.00759587 0.999547 0)
(-0.0026592 1.00002 0)
(0.00234859 0.999517 0)
(0.00754885 0.998203 0)
(0.0130254 0.995464 0)
(0.0187601 0.990502 0)
(0.0243201 0.982329 0)
(0.0287124 0.970502 0)
(0.0295719 0.955504 0)
(0.0262506 0.939752 0)
(0.0222582 0.906928 0)
(0.0128818 0.871406 0)
(-0.00416589 0.836183 0)
(-0.0123677 0.742658 0)
(-0.00994649 0.615671 0)
(-0.00338543 0.514799 0)
(0.00351499 0.400246 0)
(-0.0280746 0.560441 0)
(-0.0382747 0.629153 0)
(-0.0260005 0.622184 0)
(-0.00548621 0.688153 0)
(0.00430715 0.765363 0)
(0.00645116 0.837624 0)
(-0.00338339 0.927519 0)
(-0.013277 0.959545 0)
(-0.0211886 0.970655 0)
(-0.0241712 0.97954 0)
(-0.0225728 0.987457 0)
(-0.0187426 0.992634 0)
(-0.0138225 0.995907 0)
(-0.00858041 0.997475 0)
(-0.00324445 0.997881 0)
(0.00214321 0.997304 0)
(0.00760472 0.995822 0)
(0.0131769 0.992968 0)
(0.018671 0.988143 0)
(0.0234001 0.980917 0)
(0.0263456 0.971152 0)
(0.0255813 0.960408 0)
(0.0223508 0.946614 0)
(0.0179843 0.915723 0)
(0.00747445 0.887957 0)
(-0.0118363 0.857211 0)
(-0.0223365 0.748039 0)
(-0.0193287 0.615186 0)
(-0.00547307 0.505191 0)
(0.00482765 0.403349 0)
(-0.0325854 0.586998 0)
(-0.0315177 0.615651 0)
(-0.00935166 0.606659 0)
(0.002369 0.687129 0)
(-0.00098077 0.771019 0)
(-0.00838586 0.8514 0)
(-0.0178786 0.937493 0)
(-0.0213832 0.970483 0)
(-0.0247986 0.977226 0)
(-0.0256139 0.982347 0)
(-0.0237718 0.987445 0)
(-0.0198747 0.991018 0)
(-0.0148839 0.99354 0)
(-0.00941738 0.99488 0)
(-0.00381607 0.995143 0)
(0.0018002 0.994583 0)
(0.00734723 0.993082 0)
(0.0128147 0.99032 0)
(0.0178466 0.986007 0)
(0.0216976 0.980131 0)
(0.0235772 0.972618 0)
(0.0224595 0.965135 0)
(0.0203762 0.952295 0)
(0.0163957 0.924775 0)
(0.00670441 0.904607 0)
(-0.0117114 0.879344 0)
(-0.0248371 0.756613 0)
(-0.0261138 0.614402 0)
(-0.0106849 0.490573 0)
(0.00380547 0.406151 0)
(-0.0303852 0.617857 0)
(-0.0211473 0.597331 0)
(-0.000954286 0.593687 0)
(0.00229476 0.691561 0)
(-0.00942191 0.783442 0)
(-0.0260186 0.864006 0)
(-0.0331091 0.941505 0)
(-0.0312151 0.974759 0)
(-0.0295471 0.980038 0)
(-0.027682 0.983559 0)
(-0.0247977 0.986596 0)
(-0.0205992 0.988991 0)
(-0.0155423 0.990791 0)
(-0.0100085 0.991885 0)
(-0.0043428 0.992036 0)
(0.00129303 0.991561 0)
(0.00675729 0.990166 0)
(0.011935 0.987713 0)
(0.0164103 0.984192 0)
(0.0196217 0.979739 0)
(0.0210852 0.974236 0)
(0.020651 0.968763 0)
(0.020121 0.956513 0)
(0.0173594 0.932854 0)
(0.00904449 0.919763 0)
(-0.00482761 0.896951 0)
(-0.0207391 0.771034 0)
(-0.0248627 0.615194 0)
(-0.0146022 0.475317 0)
(-0.00188872 0.403465 0)
(-0.0168628 0.63868 0)
(-0.00040535 0.585353 0)
(0.000685243 0.58649 0)
(-0.000885974 0.701826 0)
(-0.0216179 0.799584 0)
(-0.0398641 0.875597 0)
(-0.0435498 0.941946 0)
(-0.0390288 0.973459 0)
(-0.0335687 0.97921 0)
(-0.0294016 0.982836 0)
(-0.0254372 0.984856 0)
(-0.0208018 0.986532 0)
(-0.0157071 0.987878 0)
(-0.0102936 0.988745 0)
(-0.00478541 0.988886 0)
(0.000653282 0.988521 0)
(0.00587112 0.987323 0)
(0.010645 0.985333 0)
(0.0146583 0.982685 0)
(0.0176272 0.979443 0)
(0.01924 0.975518 0)
(0.0199609 0.97093 0)
(0.0209028 0.959435 0)
(0.0196172 0.939596 0)
(0.0125373 0.93295 0)
(0.00384613 0.909337 0)
(-0.0115316 0.78844 0)
(-0.0190263 0.616874 0)
(-0.017199 0.468092 0)
(-0.0048538 0.395009 0)
(0.000478004 0.638527 0)
(0.0275754 0.584446 0)
(0.00732815 0.591111 0)
(-0.0128987 0.714184 0)
(-0.033817 0.820085 0)
(-0.0502393 0.882087 0)
(-0.0489547 0.941047 0)
(-0.0431042 0.968588 0)
(-0.0358349 0.975996 0)
(-0.030238 0.980686 0)
(-0.0254206 0.982396 0)
(-0.020423 0.983866 0)
(-0.0153784 0.985028 0)
(-0.010245 0.985762 0)
(-0.00508366 0.985955 0)
(-1.55054e-05 0.985688 0)
(0.00481921 0.984794 0)
(0.00917859 0.983309 0)
(0.0129218 0.981399 0)
(0.0159032 0.979072 0)