/*--------------------------------*- C++ -*----------------------------------*\
| =========                 |                                                 |
| \\      /  F ield         | OpenFOAM: The Open Source CFD Toolbox           |
|  \\    /   O peration     | Version:  2.3.0                                 |
|   \\  /    A nd           | Web:      www.OpenFOAM.org                      |
|    \\/     M anipulation  |                                                 |
\*---------------------------------------------------------------------------*/
FoamFile
{
    version     2.0;
    format      ascii;
    class       volScalarField;
    location    "0.09";
    object      p;
}
// * * * * * * * * * * * * * * * * * * * * * * * * * * * * * * * * * * * * * //

dimensions      [1 -1 -2 0 0 0 0];

internalField   nonuniform List<scalar> 
545
(
-9.42616e+07
-1.72789e+07
-2.2268e+06
-2.9475e+06
-1.00079e+07
6.80129e+07
-3.42477e+06
-2.6482e+06
-2.82953e+06
-8.11705e+06
1.18181e+08
4.35733e+06
-320872
-383706
-8.52424e+06
6.86071e+07
-3.63912e+06
-2.09613e+06
-62857.6
-7.60699e+06
-1.08481e+08
-2.65194e+06
-430850
5.08002e+06
1.38786e+07
-8.22028e+06
-2.07964e+06
-820951
-37079.3
88614.7
114624
99275.5
84657.8
77495
73022.2
72183.5
69933.5
69804.4
67472.1
67230.4
64722.3
64388.1
61666.2
61442.4
58704.9
58716.5
56094.1
56393.8
54007.9
54580.6
52165.5
52735.3
50173.5
50636.3
47689.4
47856.4
44307.4
43708.2
39415.4
38021
32508.3
30267.7
24227.2
21932.8
16501
15204.9
10696.1
10267.1
6635.11
7279.9
-7.2324e+06
-1.26832e+06
-773615
-175659
-34914.5
48246.7
69264.3
73971.4
73495.2
72724.4
71484.5
70547.8
69191.2
68120.4
66553.8
65421.3
63670
62391.7
60686.1
59465.9
57900
56887.7
55551.8
54827.9
53722.7
53037
51869.3
51092.4
49739.3
48634.6
46918.5
45295.8
42751
40400.4
37112.2
33502.6
29279.1
25200.1
20863.3
17490.8
14136.2
11630.9
8892.83
6527.44
1612.06
-8.4982e+06
-580939
-440143
-27121.7
-575.853
54627.8
69496.5
72487.9
72845.3
71938.9
71627
70105.3
69517.7
67726.4
66922.2
65049.2
64081
61990.5
61134.6
59030.4
58362.1
56411
56015.5
54343.7
54247.4
52548.5
52401.9
50577.9
50278.3
48066.8
47488.3
44743.1
43305.9
39854.3
37774.1
32917.5
29906.5
24616
21421.9
16901.6
14709
10971.2
9157.17
6001.8
4959.59
-8.99667e+06
789902
236587
242726
84225
83561.9
78629.6
74577.9
72289
72005.5
71013.9
70420.6
69008.3
68183.1
66416.3
65610.5
63571.3
62565.6
60631.4
59618.9
57796.5
57012.8
55386.9
54984.1
53657.8
53224.3
51767.5
51232.2
49592.5
48703.6
46771.7
45465.4
42502
40606.9
37136.5
33628.1
29233.7
25372.8
20675
17622
13946.4
11588.9
8230.2
5449.09
-380.496
-2.03821e+06
3.92888e+06
1.39981e+06
495976
150117
98373
79607.6
72695.3
71395.3
71156.2
71222
69896.3
69383.6
67760.5
66782.6
65295.1
64010.4
62149.7
61208.3
59099.7
58376.2
56466.1
55887.2
54445
54311.6
52664.1
52401.3
50567.1
50291.4
47875.7
47477.6
44816
42941.2
39955.4
38015
32784.1
30079.9
24684.6
21445.7
16858.6
14637
10825.9
8685.34
5230.61
3556.98
-1.60335e+07
5.59398e+06
2.29133e+06
665389
178379
99982.2
80450.5
74891.6
74756.1
74827.1
72642.8
70547.4
69858.3
71743.7
70309
67812.5
67577.6
65930.3
61575.7
59972.4
60399.4
60372.9
59757.1
58395.9
56754.7
56561.3
53242.4
51393.3
49512.9
49355.9
51125.4
50075.3
48506.6
45065.3
39822.4
39827.2
33759.1
27161.7
20626.5
17707.9
13750.4
11630.3
9914.51
8073.08
2055.83
-1.08479e+08
-2.6494e+06
-428626
5.08206e+06
1.38799e+07
6.86093e+07
-3.63671e+06
-2.09383e+06
-60741.7
-7.60553e+06
1.18183e+08
4.35954e+06
-318534
-381504
-8.52255e+06
6.80148e+07
-3.42279e+06
-2.64582e+06
-2.82723e+06
-8.11515e+06
-9.42598e+07
-1.72771e+07
-2.22439e+06
-2.94515e+06
-1.00059e+07
-2.03807e+06
3.9294e+06
1.39973e+06
496372
149650
98542.5
79147.1
72894.9
70970.1
71376.5
70791.8
70165.7
68971
68044.8
66445.2
65634.6
63708.2
62517.1
60916.2
59509.5
58103
56828.7
55599.1
54790.7
54013.3
52991.3
52084.3
50912.7
49945.5
48193
47173.2
45092.1
42615.2
40220
37693.8
33049.2
29785
24992.3
21101.9
17131.2
14268
11175.1
8449.25
5582.86
3275.94
-8.99598e+06
790598
236866
243007
83783.2
83416.1
78165.1
74515.3
71907
71976.3
70631.5
70441.3
68682
68275.1
66213.3
65810.8
63444.6
62829.3
60546.4
59925
57727.8
57280.2
55282.7
55220.1
53525.7
53424
51607.4
51424.1
49391
48854
46575.6
45573.7
42253.7
40689.9
36893.7
33725.6
29051.8
25542.4
20477
17725.5
13698.3
11799.6
8162.68
5604.44
-612.994
-8.49703e+06
-580071
-439646
-27045.6
-1009.84
54199.4
69036.1
72232.2
72516.6
71696.6
71285
69909.9
69261.8
67653.6
66832.2
65127.3
64104.4
62164.5
61227.3
59249.9
58470.3
56600.2
56075.1
54487
54262.6
52642.4
52376.8
50638.4
50194.5
48066.2
47370.4
44686.8
43113
39756.4
37582.4
32850.1
29806.8
24663.5
21367.2
16904.1
14585.7
11029.8
9151.91
6005.27
4847.59
-7.23095e+06
-1.26728e+06
-773103
-175766
-35423.4
47641.7
68764.4
73647.5
73173.9
72384.2
71121.4
70243.5
68933.5
67976.4
66492.5
65456.1
63752.3
62548.2
60858.5
59676
58089.6
57071.2
55688.1
54955.3
53803
53106.5
51897.5
51107.8
49693.2
48569.8
46805.3
45155.5
42550.1
40200.3
36899.4
33340.4
29171.9
25185.4
20868.6
17495.1
14080.8
11579.4
8814.49
6488.31
1605.94
-8.21871e+06
-2.0785e+06
-820483
-37326.5
88066.6
113923
98752
84337.6
77179.3
72646
71802.4
69583.5
69533.8
67301.3
67170.2
64742.6
64487.5
61820.4
61644.6
58921.6
58938.7
56287.8
56563.4
54140.3
54688.8
52237.8
52785
50177.4
50600.3
47601.8
47732.3
44129.7
43492.7
39165.3
37779.1
32294.3
30127.8
24172.6
21956.3
16531
15183.2
10566.7
10094.7
6559.91
7338.8
)
;

boundaryField
{
    AirInlet
    {
        type            calculated;
        value           uniform -1.60299e+07;
    }
    WaterInlet
    {
        type            calculated;
        value           nonuniform List<scalar> 10(-9.42616e+07 6.80129e+07 1.18181e+08 6.86071e+07 -1.08481e+08 -1.08479e+08 6.86093e+07 1.18183e+08 6.80148e+07 -9.42598e+07);
    }
    ChannelWall
    {
        type            calculated;
        value           nonuniform List<scalar> 
110
(
-1.08481e+08
-2.65194e+06
-430850
5.08002e+06
1.38786e+07
-1.08479e+08
-2.6494e+06
-428626
5.08206e+06
1.38799e+07
-9.42598e+07
-1.72771e+07
-2.22439e+06
-2.94515e+06
-1.00059e+07
-8.21871e+06
-2.0785e+06
-820483
-37326.6
88066.5
113923
98751.9
84337.5
77179.2
72646
71802.4
69583.5
69533.8
67301.3
67170.2
64742.5
64487.4
61820.4
61644.5
58921.6
58938.7
56287.8
56563.4
54140.3
54688.7
52237.8
52785
50177.4
50600.3
47601.8
47732.3
44129.6
43492.7
39165.3
37779
32294.2
30127.8
24172.5
21956.3
16531
15183.1
10566.7
10094.7
6559.87
7338.76
-9.42616e+07
-1.72789e+07
-2.2268e+06
-2.9475e+06
-1.00079e+07
-8.22028e+06
-2.07964e+06
-820951
-37079.3
88614.8
114624
99275.5
84657.8
77495.1
73022.3
72183.5
69933.5
69804.4
67472.1
67230.5
64722.3
64388.1
61666.2
61442.5
58705
58716.6
56094.2
56393.9
54007.9
54580.7
52165.6
52735.4
50173.6
50636.4
47689.5
47856.5
44307.5
43708.2
39415.4
38021.1
32508.3
30267.8
24227.3
21932.8
16501
15204.9
10696.2
10267.1
6635.15
7279.94
)
;
    }
    Outlet
    {
        type            calculated;
        value           nonuniform List<scalar> 
11
(
-0.044145
-0.132435
-0.220725
-0.308996
-0.395465
-0.279038
-0.580982
-0.671943
-0.760274
-0.848565
-0.936855
)
;
    }
    FrontAndBack
    {
        type            empty;
    }
}


// ************************************************************************* //
