/*--------------------------------*- C++ -*----------------------------------*\
| =========                 |                                                 |
| \\      /  F ield         | OpenFOAM: The Open Source CFD Toolbox           |
|  \\    /   O peration     | Version:  2.3.0                                 |
|   \\  /    A nd           | Web:      www.OpenFOAM.org                      |
|    \\/     M anipulation  |                                                 |
\*---------------------------------------------------------------------------*/
FoamFile
{
    version     2.0;
    format      ascii;
    class       volVectorField;
    location    "1.93";
    object      U.airMean;
}
// * * * * * * * * * * * * * * * * * * * * * * * * * * * * * * * * * * * * * //

dimensions      [0 1 -1 0 0 0 0];

internalField   nonuniform List<vector> 
6000
(
(-0.00764691 0.247186 0)
(0.00951283 0.210375 0)
(0.0369639 0.218804 0)
(0.0490189 0.219607 0)
(0.0431842 0.213873 0)
(0.026434 0.205014 0)
(0.0139868 0.194984 0)
(-0.000223377 0.199694 0)
(-0.0158296 0.194603 0)
(-0.0230461 0.193084 0)
(-0.0249695 0.196223 0)
(-0.0283012 0.199994 0)
(-0.0520214 0.223891 0)
(-0.094292 0.241452 0)
(-0.128242 0.235187 0)
(-0.124229 0.224473 0)
(-0.100614 0.221807 0)
(-0.080857 0.226562 0)
(-0.0735505 0.22822 0)
(-0.0645234 0.227399 0)
(-0.0553815 0.229175 0)
(-0.0460869 0.235903 0)
(-0.0395617 0.235147 0)
(-0.0230113 0.229519 0)
(-0.0114793 0.233602 0)
(-0.0169552 0.226995 0)
(-0.0109983 0.215831 0)
(0.00245029 0.215393 0)
(-0.00414863 0.206502 0)
(0.00245765 0.250489 0)
(0.0170726 0.96141 0)
(0.0361864 0.96146 0)
(0.0610376 0.965004 0)
(0.0682204 0.992121 0)
(0.0565645 1.01709 0)
(0.0475218 1.03064 0)
(0.0411617 1.02602 0)
(0.0196858 1.03517 0)
(-0.00336538 1.03919 0)
(-0.0227796 1.01272 0)
(-0.0348448 1.01839 0)
(-0.0615645 1.04358 0)
(-0.102819 1.04963 0)
(-0.139139 1.05372 0)
(-0.159851 1.01226 0)
(-0.153734 0.960011 0)
(-0.131782 0.951263 0)
(-0.10939 0.972939 0)
(-0.092616 0.971418 0)
(-0.0792007 0.979749 0)
(-0.0604911 0.97538 0)
(-0.0447954 0.975546 0)
(-0.031861 0.982187 0)
(-0.0242353 0.971475 0)
(-0.0310869 1.00037 0)
(-0.0354436 0.996628 0)
(-0.0251704 0.98329 0)
(-0.0141459 0.993122 0)
(-0.0204421 1.02055 0)
(-0.0257046 0.953808 0)
(-0.00287783 0.797712 0)
(0.0291781 0.757608 0)
(0.0479561 0.773478 0)
(0.0463177 0.829014 0)
(0.036543 0.849006 0)
(0.037767 0.848323 0)
(0.0394701 0.854764 0)
(0.0203934 0.88246 0)
(-0.000186817 0.879979 0)
(-0.0145706 0.845174 0)
(-0.028225 0.85907 0)
(-0.051873 0.903002 0)
(-0.0919652 0.917911 0)
(-0.125958 0.917179 0)
(-0.139232 0.851329 0)
(-0.137963 0.782089 0)
(-0.125189 0.765116 0)
(-0.105876 0.782813 0)
(-0.0878628 0.793956 0)
(-0.070776 0.786799 0)
(-0.0441947 0.780479 0)
(-0.0229815 0.791742 0)
(-0.0132601 0.802018 0)
(-0.0207796 0.807964 0)
(-0.0409945 0.840001 0)
(-0.0368229 0.813247 0)
(-0.0157299 0.789448 0)
(0.0080182 0.805889 0)
(0.00767408 0.85078 0)
(0.00756252 0.796273 0)
(0.00241644 0.804336 0)
(0.0230459 0.770336 0)
(0.0193112 0.80238 0)
(0.0199798 0.856998 0)
(0.0251264 0.863828 0)
(0.0335473 0.865108 0)
(0.0303307 0.88637 0)
(0.0150459 0.916583 0)
(0.00359246 0.916331 0)
(-0.0105167 0.881478 0)
(-0.0228695 0.88899 0)
(-0.03965 0.947521 0)
(-0.0714702 0.958816 0)
(-0.0990653 0.942802 0)
(-0.116524 0.869321 0)
(-0.122208 0.79645 0)
(-0.113392 0.773366 0)
(-0.0985549 0.792774 0)
(-0.0797242 0.800976 0)
(-0.0521275 0.791543 0)
(-0.0257332 0.789618 0)
(-0.0087523 0.80522 0)
(-0.00943263 0.827708 0)
(-0.0274437 0.861574 0)
(-0.0402315 0.862183 0)
(-0.0279663 0.834577 0)
(-0.00662039 0.796983 0)
(0.0168874 0.822006 0)
(0.0189127 0.89379 0)
(0.0129157 0.826295 0)
(0.00680577 0.790775 0)
(0.00925403 0.755861 0)
(0.00284289 0.798232 0)
(0.00515679 0.841945 0)
(0.0147879 0.850817 0)
(0.019515 0.859946 0)
(0.0144458 0.896284 0)
(0.00158615 0.925248 0)
(-0.00543815 0.927525 0)
(-0.0179357 0.89466 0)
(-0.0282076 0.900727 0)
(-0.0379881 0.960199 0)
(-0.062931 0.97613 0)
(-0.0844053 0.950277 0)
(-0.104932 0.874313 0)
(-0.1123 0.789785 0)
(-0.101592 0.752583 0)
(-0.0863038 0.776738 0)
(-0.0671683 0.77186 0)
(-0.03822 0.753013 0)
(-0.0140143 0.760479 0)
(-0.00486116 0.784754 0)
(-0.0127423 0.827938 0)
(-0.0272033 0.860916 0)
(-0.0284756 0.850009 0)
(-0.0189581 0.820498 0)
(-0.00176117 0.770794 0)
(0.0177624 0.798615 0)
(0.0213732 0.899923 0)
(0.0131698 0.834083 0)
(0.00339562 0.779815 0)
(0.00771557 0.756517 0)
(-0.00431086 0.798583 0)
(0.00395139 0.832437 0)
(0.00362382 0.840649 0)
(0.00279684 0.857009 0)
(-0.00215339 0.904047 0)
(-0.0129907 0.93271 0)
(-0.0239035 0.938901 0)
(-0.0378953 0.91036 0)
(-0.0473621 0.910264 0)
(-0.0580696 0.971446 0)
(-0.0738749 0.992561 0)
(-0.0759699 0.954948 0)
(-0.0779054 0.87804 0)
(-0.0778118 0.781704 0)
(-0.0741036 0.744852 0)
(-0.0678764 0.767439 0)
(-0.055163 0.751873 0)
(-0.0348498 0.730579 0)
(-0.0180576 0.743506 0)
(-0.0126968 0.786774 0)
(-0.0171951 0.831196 0)
(-0.022533 0.864112 0)
(-0.0148439 0.836099 0)
(-0.00535573 0.814095 0)
(0.00240692 0.754292 0)
(0.0105996 0.787947 0)
(0.0138829 0.90514 0)
(0.00940406 0.843484 0)
(0.000729909 0.766426 0)
(0.00718691 0.751706 0)
(0.00869577 0.786824 0)
(0.00790841 0.828776 0)
(0.00313189 0.838299 0)
(-0.00686255 0.853788 0)
(-0.0119121 0.907759 0)
(-0.0241408 0.938474 0)
(-0.0417881 0.952323 0)
(-0.0587342 0.92006 0)
(-0.0758459 0.92147 0)
(-0.0894635 0.97348 0)
(-0.0894071 0.984398 0)
(-0.0661536 0.932659 0)
(-0.0471168 0.86172 0)
(-0.037155 0.774289 0)
(-0.044426 0.740042 0)
(-0.0554622 0.76353 0)
(-0.0558751 0.739352 0)
(-0.0439636 0.711582 0)
(-0.0312494 0.728845 0)
(-0.0252141 0.777889 0)
(-0.0242135 0.825012 0)
(-0.0209896 0.84908 0)
(-0.00903164 0.816322 0)
(-0.000527889 0.799115 0)
(-0.000872869 0.746659 0)
(-0.00668853 0.77447 0)
(-0.00724264 0.901008 0)
(-5.9518e-05 0.840145 0)
(0.00342217 0.753746 0)
(0.0122863 0.732412 0)
(0.014443 0.772005 0)
(0.0077812 0.825643 0)
(-0.00734697 0.838642 0)
(-0.015988 0.856433 0)
(-0.0239335 0.910013 0)
(-0.0324547 0.951941 0)
(-0.051192 0.967013 0)
(-0.0735106 0.936303 0)
(-0.0999885 0.936055 0)
(-0.111303 0.971415 0)
(-0.092587 0.953111 0)
(-0.055615 0.904421 0)
(-0.0217599 0.836545 0)
(-0.00496503 0.774209 0)
(-0.022636 0.761765 0)
(-0.0495344 0.769048 0)
(-0.0594934 0.730738 0)
(-0.0594305 0.695804 0)
(-0.0502022 0.713755 0)
(-0.0413089 0.765419 0)
(-0.0321951 0.812739 0)
(-0.0256846 0.832603 0)
(-0.017229 0.797353 0)
(-0.00952867 0.786137 0)
(-0.013605 0.745982 0)
(-0.0284843 0.770112 0)
(-0.0296695 0.88703 0)
(-0.00897395 0.818654 0)
(0.00561668 0.735466 0)
(0.013405 0.710087 0)
(0.00804603 0.75773 0)
(-0.00650885 0.828054 0)
(-0.0218571 0.840322 0)
(-0.0341456 0.862074 0)
(-0.0368016 0.915766 0)
(-0.0422325 0.959191 0)
(-0.0542744 0.98274 0)
(-0.0817314 0.959758 0)
(-0.112271 0.954065 0)
(-0.11102 0.954673 0)
(-0.0836646 0.917604 0)
(-0.0428631 0.867209 0)
(-0.0113976 0.80512 0)
(-0.0013047 0.76882 0)
(-0.022845 0.785903 0)
(-0.0504577 0.775375 0)
(-0.065441 0.734996 0)
(-0.0736596 0.682373 0)
(-0.0724637 0.698357 0)
(-0.0589615 0.745079 0)
(-0.0460169 0.797926 0)
(-0.041395 0.81241 0)
(-0.034719 0.784663 0)
(-0.0295161 0.765191 0)
(-0.0344363 0.746301 0)
(-0.0494056 0.766106 0)
(-0.0427642 0.860337 0)
(-0.0101636 0.784708 0)
(0.00446022 0.716806 0)
(0.00863022 0.695682 0)
(-0.00456274 0.753487 0)
(-0.0225441 0.829906 0)
(-0.0336397 0.842399 0)
(-0.0412291 0.864864 0)
(-0.0452574 0.918738 0)
(-0.0514295 0.965144 0)
(-0.0553051 0.995218 0)
(-0.0825641 0.991825 0)
(-0.107512 0.96171 0)
(-0.0945962 0.930016 0)
(-0.0634143 0.881553 0)
(-0.032607 0.837532 0)
(-0.0152027 0.78657 0)
(-0.0203602 0.775264 0)
(-0.0396226 0.800339 0)
(-0.0575772 0.784799 0)
(-0.072012 0.737471 0)
(-0.0825332 0.685823 0)
(-0.0829077 0.683802 0)
(-0.0745627 0.726945 0)
(-0.065923 0.781931 0)
(-0.0592576 0.800367 0)
(-0.0513037 0.769869 0)
(-0.0476093 0.751786 0)
(-0.0565439 0.744841 0)
(-0.066434 0.760624 0)
(-0.0484783 0.822458 0)
(-0.0107101 0.754702 0)
(0.00211059 0.701466 0)
(0.00377821 0.686539 0)
(-0.0131525 0.754029 0)
(-0.0293884 0.821505 0)
(-0.0326204 0.843385 0)
(-0.0423777 0.868421 0)
(-0.0505537 0.934941 0)
(-0.0530871 0.967911 0)
(-0.048041 1.00616 0)
(-0.0657263 1.01756 0)
(-0.0855083 0.963946 0)
(-0.0702037 0.894648 0)
(-0.0454053 0.859015 0)
(-0.032303 0.816357 0)
(-0.0303839 0.781393 0)
(-0.0422289 0.785554 0)
(-0.0523701 0.804911 0)
(-0.059668 0.792777 0)
(-0.0723992 0.74176 0)
(-0.0806017 0.685498 0)
(-0.0860137 0.677103 0)
(-0.0871827 0.719868 0)
(-0.0808814 0.770482 0)
(-0.0708482 0.780961 0)
(-0.0604576 0.75582 0)
(-0.0616618 0.741178 0)
(-0.0756943 0.747396 0)
(-0.0803499 0.74653 0)
(-0.0586798 0.780835 0)
(-0.0168639 0.725211 0)
(0.00346205 0.688427 0)
(0.0028286 0.68204 0)
(-0.0125563 0.757047 0)
(-0.0207324 0.810234 0)
(-0.0283048 0.842216 0)
(-0.0401986 0.87929 0)
(-0.0511768 0.944902 0)
(-0.047289 0.968315 0)
(-0.0371599 1.00539 0)
(-0.0341276 1.03831 0)
(-0.0492916 0.962089 0)
(-0.0486547 0.874075 0)
(-0.0368827 0.84523 0)
(-0.0399374 0.81439 0)
(-0.0465837 0.784795 0)
(-0.051353 0.783146 0)
(-0.0488458 0.79784 0)
(-0.050345 0.796788 0)
(-0.0640852 0.750605 0)
(-0.0806952 0.694319 0)
(-0.0897648 0.677749 0)
(-0.0881714 0.717165 0)
(-0.0823938 0.752669 0)
(-0.0742773 0.766341 0)
(-0.0692322 0.743457 0)
(-0.0769979 0.746775 0)
(-0.0927206 0.748996 0)
(-0.0922182 0.737572 0)
(-0.0712837 0.746359 0)
(-0.0252687 0.686534 0)
(0.00400101 0.675991 0)
(0.00388786 0.68003 0)
(-0.00437399 0.754467 0)
(-0.00626092 0.803954 0)
(-0.0203742 0.84852 0)
(-0.0345832 0.889245 0)
(-0.0435187 0.952422 0)
(-0.0404229 0.968468 0)
(-0.0311871 0.99638 0)
(-0.011073 1.03468 0)
(-0.0128303 0.972674 0)
(-0.0294528 0.866307 0)
(-0.0366037 0.843759 0)
(-0.0466705 0.818248 0)
(-0.0504287 0.782239 0)
(-0.0459443 0.776514 0)
(-0.0386686 0.792012 0)
(-0.0425696 0.803504 0)
(-0.0577988 0.77054 0)
(-0.0794057 0.705265 0)
(-0.0847131 0.682658 0)
(-0.0797258 0.708787 0)
(-0.0760439 0.744814 0)
(-0.0748225 0.758113 0)
(-0.0814395 0.746698 0)
(-0.0948405 0.754443 0)
(-0.108544 0.755307 0)
(-0.105691 0.731142 0)
(-0.0865465 0.718698 0)
(-0.0287035 0.644274 0)
(0.00457084 0.666101 0)
(0.00610185 0.677009 0)
(0.00570565 0.743873 0)
(0.0087725 0.798814 0)
(-0.00381647 0.854955 0)
(-0.0204771 0.899282 0)
(-0.030912 0.95661 0)
(-0.0323664 0.974065 0)
(-0.0247577 0.982993 0)
(-0.00267507 1.01909 0)
(0.0082547 0.975878 0)
(-0.0108779 0.883565 0)
(-0.0298614 0.847486 0)
(-0.0453521 0.823473 0)
(-0.0488167 0.780012 0)
(-0.042082 0.76877 0)
(-0.0355496 0.786447 0)
(-0.0377628 0.816685 0)
(-0.0532978 0.79092 0)
(-0.0691923 0.717905 0)
(-0.0701631 0.68274 0)
(-0.065537 0.705712 0)
(-0.0670973 0.744096 0)
(-0.078259 0.766259 0)
(-0.0962093 0.757689 0)
(-0.114535 0.767723 0)
(-0.123546 0.758181 0)
(-0.11599 0.727251 0)
(-0.0923916 0.685552 0)
(-0.030095 0.595122 0)
(0.00668719 0.656687 0)
(0.00832966 0.669795 0)
(0.0126903 0.729966 0)
(0.0247064 0.789333 0)
(0.0220642 0.860717 0)
(0.00498893 0.909469 0)
(-0.0107364 0.966104 0)
(-0.0205055 0.977792 0)
(-0.0149476 0.978776 0)
(0.000295117 0.997311 0)
(0.0156965 0.971125 0)
(0.00490766 0.899204 0)
(-0.0179278 0.85791 0)
(-0.0347558 0.834951 0)
(-0.0433404 0.779015 0)
(-0.042156 0.76298 0)
(-0.0367617 0.781942 0)
(-0.035962 0.82165 0)
(-0.0456329 0.806414 0)
(-0.0533746 0.723423 0)
(-0.0503569 0.6826 0)
(-0.0499863 0.70309 0)
(-0.0589274 0.749959 0)
(-0.0813266 0.779168 0)
(-0.111122 0.776573 0)
(-0.131506 0.775985 0)
(-0.132358 0.758384 0)
(-0.115022 0.714215 0)
(-0.0848159 0.650895 0)
(-0.0255578 0.545059 0)
(0.00844842 0.649675 0)
(0.00477481 0.665791 0)
(0.0107026 0.709596 0)
(0.0367398 0.771192 0)
(0.0495273 0.859169 0)
(0.0410478 0.9221 0)
(0.0226357 0.980431 0)
(0.00529373 0.987499 0)
(0.00353542 0.974255 0)
(0.0144461 0.988773 0)
(0.0260006 0.964186 0)
(0.0162197 0.924431 0)
(-0.00694971 0.871506 0)
(-0.0261147 0.852091 0)
(-0.0358089 0.787109 0)
(-0.0420333 0.762356 0)
(-0.0391568 0.779413 0)
(-0.0366763 0.825311 0)
(-0.0358156 0.813557 0)
(-0.0364427 0.721838 0)
(-0.0295418 0.677526 0)
(-0.0315362 0.706605 0)
(-0.0490246 0.762124 0)
(-0.0809972 0.802132 0)
(-0.117736 0.792485 0)
(-0.133563 0.77319 0)
(-0.125458 0.736983 0)
(-0.101384 0.684187 0)
(-0.0713237 0.609152 0)
(-0.0198248 0.496565 0)
(0.00543217 0.646325 0)
(-0.00608129 0.669062 0)
(0.00174459 0.683084 0)
(0.0378269 0.737753 0)
(0.0659133 0.849071 0)
(0.0689263 0.926211 0)
(0.0577513 0.997284 0)
(0.0421804 1.00158 0)
(0.0324942 0.974184 0)
(0.0424982 0.972842 0)
(0.0463584 0.967343 0)
(0.0271089 0.943334 0)
(0.00143449 0.896504 0)
(-0.0223371 0.866165 0)
(-0.0303084 0.795031 0)
(-0.0401907 0.76607 0)
(-0.0414335 0.781609 0)
(-0.0352166 0.815101 0)
(-0.0211231 0.81143 0)
(-0.0176244 0.716689 0)
(-0.0166878 0.677205 0)
(-0.0243931 0.712071 0)
(-0.0463724 0.782885 0)
(-0.0767316 0.830783 0)
(-0.109315 0.816978 0)
(-0.116766 0.768385 0)
(-0.105685 0.720419 0)
(-0.0806245 0.659504 0)
(-0.0539385 0.580067 0)
(-0.0162706 0.458074 0)
(-0.0061909 0.653491 0)
(-0.0172559 0.674376 0)
(-0.00557701 0.653807 0)
(0.0302501 0.699504 0)
(0.063983 0.829097 0)
(0.0759655 0.923013 0)
(0.0796206 1.00415 0)
(0.0764045 1.01808 0)
(0.0653602 0.97766 0)
(0.0696283 0.969051 0)
(0.0652783 0.977658 0)
(0.0401296 0.967439 0)
(0.00871976 0.923434 0)
(-0.012459 0.877741 0)
(-0.0230767 0.803888 0)
(-0.0373592 0.77178 0)
(-0.0407868 0.782404 0)
(-0.0289507 0.798317 0)
(-0.00540188 0.793057 0)
(-0.00117352 0.719976 0)
(-0.0148977 0.680445 0)
(-0.0307294 0.72063 0)
(-0.0507382 0.798492 0)
(-0.0689418 0.844907 0)
(-0.0829483 0.814626 0)
(-0.0878789 0.757626 0)
(-0.077939 0.693453 0)
(-0.0592849 0.631704 0)
(-0.0395454 0.553605 0)
(-0.0119714 0.426295 0)
(-0.0110124 0.672357 0)
(-0.0198513 0.669895 0)
(-0.00667534 0.630256 0)
(0.021629 0.665639 0)
(0.051739 0.804999 0)
(0.0712896 0.908942 0)
(0.0859859 0.990129 0)
(0.096017 1.02363 0)
(0.0962086 0.979597 0)
(0.0858742 0.969684 0)
(0.0778662 0.996386 0)
(0.0529652 0.99426 0)
(0.0212937 0.951638 0)
(0.00418108 0.890548 0)
(-0.0105247 0.817309 0)
(-0.0331145 0.781684 0)
(-0.0384992 0.78214 0)
(-0.0258133 0.772882 0)
(0.00277521 0.776599 0)
(0.006568 0.728857 0)
(-0.0143788 0.697375 0)
(-0.0371486 0.732168 0)
(-0.0516981 0.806676 0)
(-0.057488 0.847454 0)
(-0.0594748 0.811242 0)
(-0.0629584 0.754048 0)
(-0.0543437 0.669745 0)
(-0.0423618 0.605821 0)
(-0.0263158 0.525469 0)
(-0.0062035 0.396657 0)
(-0.00733221 0.691597 0)
(-0.0132696 0.663669 0)
(-0.00454327 0.612131 0)
(0.0204028 0.637297 0)
(0.0509776 0.781247 0)
(0.075313 0.895868 0)
(0.0901533 0.971884 0)
(0.109564 1.01345 0)
(0.108275 0.989026 0)
(0.0915448 0.977522 0)
(0.0822954 1.00426 0)
(0.0682639 1.01807 0)
(0.0411882 0.969107 0)
(0.0224347 0.904967 0)
(0.0107576 0.832688 0)
(-0.0199251 0.801696 0)
(-0.0338618 0.782177 0)
(-0.0256558 0.749802 0)
(0.00108949 0.753992 0)
(0.00963855 0.736905 0)
(-0.00744292 0.715092 0)
(-0.0333448 0.746671 0)
(-0.0465785 0.80939 0)
(-0.044862 0.847277 0)
(-0.0434372 0.803563 0)
(-0.0452556 0.754222 0)
(-0.0390743 0.654074 0)
(-0.0316891 0.590113 0)
(-0.0158132 0.507481 0)
(0.00140329 0.380776 0)
(-0.00055432 0.701461 0)
(-0.00360602 0.660095 0)
(0.0060025 0.598852 0)
(0.0262202 0.610639 0)
(0.0562536 0.748122 0)
(0.0836094 0.877965 0)
(0.0989382 0.950381 0)
(0.118698 0.99698 0)
(0.114285 1.00648 0)
(0.0899339 0.987547 0)
(0.0788707 1.00745 0)
(0.0769235 1.03118 0)
(0.063725 0.990989 0)
(0.0435497 0.914179 0)
(0.033926 0.849362 0)
(0.00562723 0.828238 0)
(-0.0214971 0.793216 0)
(-0.0226186 0.727506 0)
(-0.00143554 0.736049 0)
(0.00963587 0.729421 0)
(0.000220879 0.734446 0)
(-0.0217854 0.762742 0)
(-0.0340687 0.810786 0)
(-0.0311992 0.84369 0)
(-0.0347652 0.800388 0)
(-0.0358219 0.753862 0)
(-0.0313853 0.644418 0)
(-0.0255511 0.575486 0)
(-0.0100371 0.48765 0)
(0.00717762 0.376469 0)
(0.00384922 0.70133 0)
(0.00650005 0.653998 0)
(0.0157471 0.587154 0)
(0.0359964 0.58577 0)
(0.0665895 0.712951 0)
(0.0976916 0.858087 0)
(0.113229 0.926285 0)
(0.128451 0.982687 0)
(0.11855 1.02206 0)
(0.0883922 1.00774 0)
(0.0703677 1.00798 0)
(0.0752274 1.03049 0)
(0.0798684 1.00416 0)
(0.0667596 0.930584 0)
(0.0556534 0.862033 0)
(0.0325434 0.857799 0)
(0.000162659 0.811146 0)
(-0.0118075 0.717132 0)
(-0.00291054 0.717288 0)
(0.00550777 0.725461 0)
(-0.000433113 0.741712 0)
(-0.0114541 0.776761 0)
(-0.0201161 0.812389 0)
(-0.0198058 0.849146 0)
(-0.0301603 0.804124 0)
(-0.0324758 0.751721 0)
(-0.030571 0.639538 0)
(-0.0225987 0.560198 0)
(-0.00613352 0.472681 0)
(0.00831898 0.376804 0)
(0.00443537 0.696001 0)
(0.00777318 0.646939 0)
(0.0154285 0.573062 0)
(0.0409034 0.559249 0)
(0.075784 0.677346 0)
(0.111555 0.834958 0)
(0.124836 0.90774 0)
(0.131804 0.972197 0)
(0.119417 1.04279 0)
(0.0890893 1.02953 0)
(0.0663735 1.01531 0)
(0.0672992 1.01916 0)
(0.0828055 1.00409 0)
(0.0876768 0.943647 0)
(0.0738996 0.878315 0)
(0.0523319 0.881868 0)
(0.023122 0.835317 0)
(0.00316392 0.720081 0)
(-0.000229229 0.709222 0)
(0.00606543 0.720357 0)
(0.0017306 0.747032 0)
(-0.00552312 0.780722 0)
(-0.0145188 0.819696 0)
(-0.0169799 0.851957 0)
(-0.0274474 0.815618 0)
(-0.0283631 0.748701 0)
(-0.0293909 0.636853 0)
(-0.0203238 0.544018 0)
(-0.0028691 0.458403 0)
(0.0100101 0.380744 0)
(0.00365603 0.688224 0)
(0.00681698 0.64218 0)
(0.0105034 0.558572 0)
(0.0385294 0.525164 0)
(0.0798467 0.637873 0)
(0.118846 0.812872 0)
(0.126974 0.896062 0)
(0.120885 0.972589 0)
(0.11119 1.05639 0)
(0.0894879 1.04954 0)
(0.0667249 1.02914 0)
(0.0636149 1.00928 0)
(0.0789338 0.99327 0)
(0.094646 0.946056 0)
(0.0867053 0.899696 0)
(0.0643731 0.905778 0)
(0.0413788 0.857576 0)
(0.0195119 0.734124 0)
(0.010205 0.705936 0)
(0.012135 0.719995 0)
(0.00716361 0.747784 0)
(-0.00167761 0.792253 0)
(-0.0162683 0.831331 0)
(-0.02219 0.859783 0)
(-0.0309283 0.82248 0)
(-0.0280388 0.748364 0)
(-0.0255047 0.638482 0)
(-0.0138918 0.534241 0)
(0.00174598 0.449999 0)
(0.0100939 0.390508 0)
(0.00302816 0.681642 0)
(0.00813575 0.64235 0)
(0.0124192 0.547311 0)
(0.0353991 0.492757 0)
(0.073789 0.595292 0)
(0.11305 0.793433 0)
(0.117698 0.897648 0)
(0.102837 0.977493 0)
(0.0952131 1.06111 0)
(0.0828609 1.06121 0)
(0.0656763 1.04179 0)
(0.0582273 1.00688 0)
(0.0696805 0.977746 0)
(0.0886879 0.940788 0)
(0.0847895 0.916805 0)
(0.0725114 0.927053 0)
(0.0580423 0.875077 0)
(0.0412265 0.752139 0)
(0.0282036 0.711012 0)
(0.0211345 0.718771 0)
(0.012721 0.753984 0)
(0.000487669 0.802892 0)
(-0.0192287 0.849837 0)
(-0.0296112 0.865318 0)
(-0.039887 0.829836 0)
(-0.0320663 0.744066 0)
(-0.019826 0.63742 0)
(-0.00377348 0.526174 0)
(0.00613251 0.447541 0)
(0.0105518 0.400367 0)
(0.00232074 0.674754 0)
(0.0149484 0.637825 0)
(0.0237636 0.53671 0)
(0.0375782 0.473812 0)
(0.0644403 0.559264 0)
(0.095962 0.775241 0)
(0.101167 0.903166 0)
(0.0832205 0.989347 0)
(0.0744479 1.05884 0)
(0.0677444 1.07098 0)
(0.0577561 1.04867 0)
(0.0523386 1.00922 0)
(0.0598315 0.964878 0)
(0.0754777 0.933018 0)
(0.0761226 0.928356 0)
(0.0799715 0.936228 0)
(0.0741166 0.886288 0)
(0.0642262 0.769042 0)
(0.0488294 0.720883 0)
(0.0307502 0.72663 0)
(0.0151525 0.758757 0)
(0.000431328 0.818447 0)
(-0.0188201 0.861345 0)
(-0.0293142 0.872762 0)
(-0.0389661 0.83039 0)
(-0.0263634 0.729427 0)
(-0.00801672 0.62778 0)
(0.00875891 0.518417 0)
(0.0088954 0.453742 0)
(0.00859808 0.412985 0)
(0.00399159 0.668832 0)
(0.0256827 0.626074 0)
(0.040042 0.528575 0)
(0.0439325 0.466322 0)
(0.0546834 0.536183 0)
(0.0740475 0.757517 0)
(0.0772417 0.909436 0)
(0.0620122 0.998876 0)
(0.0523502 1.05979 0)
(0.0504166 1.07347 0)
(0.0466124 1.05166 0)
(0.0467745 1.0078 0)
(0.0516965 0.958974 0)
(0.0615069 0.92665 0)
(0.0683004 0.92917 0)
(0.0827798 0.93031 0)
(0.0824325 0.893463 0)
(0.0786584 0.777448 0)
(0.0717443 0.737102 0)
(0.0478633 0.741724 0)
(0.0244223 0.7772 0)
(0.00434653 0.83203 0)
(-0.00856229 0.876726 0)
(-0.00878149 0.875322 0)
(-0.0126591 0.829816 0)
(-0.00444168 0.709034 0)
(0.0126948 0.610978 0)
(0.0264972 0.5118 0)
(0.0190968 0.454502 0)
(0.0083774 0.417811 0)
(0.00995261 0.655415 0)
(0.0392587 0.605945 0)
(0.0512734 0.525066 0)
(0.0463895 0.47061 0)
(0.0420094 0.52652 0)
(0.0503946 0.745761 0)
(0.0507796 0.913848 0)
(0.0416982 1.00582 0)
(0.0338531 1.05856 0)
(0.0332956 1.07387 0)
(0.0337303 1.04984 0)
(0.03964 1.00505 0)
(0.0442864 0.957206 0)
(0.0473842 0.922972 0)
(0.0563905 0.918362 0)
(0.0745852 0.920016 0)
(0.0809455 0.892073 0)
(0.0847953 0.780553 0)
(0.082217 0.746675 0)
(0.0590376 0.76029 0)
(0.0332111 0.792736 0)
(0.0143539 0.843564 0)
(0.011632 0.870858 0)
(0.0222871 0.863422 0)
(0.0261145 0.827684 0)
(0.0307266 0.698368 0)
(0.038439 0.602803 0)
(0.0423739 0.518036 0)
(0.0343329 0.475283 0)
(0.0168636 0.440976 0)
(0.0179559 0.628111 0)
(0.0490275 0.587707 0)
(0.0518499 0.52645 0)
(0.0425456 0.483711 0)
(0.029171 0.529403 0)
(0.0293861 0.739592 0)
(0.0298538 0.917403 0)
(0.0244481 1.00913 0)
(0.0175701 1.06019 0)
(0.0148538 1.06922 0)
(0.0188743 1.04454 0)
(0.0292286 0.999963 0)
(0.0339514 0.958502 0)
(0.0345187 0.925924 0)
(0.0393163 0.904772 0)
(0.0577312 0.904487 0)
(0.0720044 0.883457 0)
(0.0831068 0.776258 0)
(0.0850437 0.751715 0)
(0.0677201 0.776473 0)
(0.0451746 0.81387 0)
(0.0316178 0.84615 0)
(0.0384712 0.860533 0)
(0.0469346 0.847815 0)
(0.0553006 0.817166 0)
(0.0619707 0.683672 0)
(0.0632638 0.598317 0)
(0.0569421 0.522536 0)
(0.0432265 0.487052 0)
(0.0213938 0.475075 0)
(0.0220783 0.589412 0)
(0.0524015 0.580703 0)
(0.0480196 0.532736 0)
(0.0375607 0.499011 0)
(0.019044 0.539154 0)
(0.0147433 0.733763 0)
(0.0177611 0.9179 0)
(0.0126695 1.01531 0)
(0.00259646 1.06095 0)
(-0.00100711 1.06538 0)
(0.00394806 1.03432 0)
(0.014284 0.991668 0)
(0.0187746 0.960219 0)
(0.0212214 0.930098 0)
(0.0232682 0.893746 0)
(0.0360406 0.883141 0)
(0.0577765 0.86691 0)
(0.0796074 0.76458 0)
(0.0895141 0.752994 0)
(0.0780212 0.793492 0)
(0.0613349 0.826587 0)
(0.0549056 0.846854 0)
(0.0607274 0.846783 0)
(0.0647997 0.842725 0)
(0.0694793 0.802868 0)
(0.0791738 0.670039 0)
(0.0779505 0.597398 0)
(0.0688364 0.528314 0)
(0.0494805 0.501998 0)
(0.0225134 0.508015 0)
(0.0176633 0.551063 0)
(0.0494972 0.57773 0)
(0.0447033 0.535791 0)
(0.0338509 0.514648 0)
(0.0114428 0.554967 0)
(0.00459809 0.72221 0)
(0.0118694 0.918814 0)
(0.00419407 1.02206 0)
(-0.0100242 1.06649 0)
(-0.0124736 1.06002 0)
(-0.00769051 1.02867 0)
(-0.0024661 0.984672 0)
(0.000961368 0.958802 0)
(0.00278191 0.928548 0)
(0.00666291 0.88609 0)
(0.014592 0.865173 0)
(0.0402383 0.842352 0)
(0.0716664 0.74343 0)
(0.0904866 0.752731 0)
(0.0885287 0.80549 0)
(0.077782 0.837078 0)
(0.073613 0.842005 0)
(0.0727913 0.841112 0)
(0.0720006 0.839937 0)
(0.0759934 0.787828 0)
(0.0865585 0.659529 0)
(0.0852075 0.600815 0)
(0.0763296 0.538764 0)
(0.0538022 0.523936 0)
(0.0229851 0.541603 0)
(0.0119525 0.519696 0)
(0.0412244 0.571913 0)
(0.0383668 0.534277 0)
(0.0285796 0.531941 0)
(0.00263544 0.572323 0)
(-0.00460623 0.711952 0)
(0.00341267 0.918682 0)
(-0.00530461 1.03208 0)
(-0.0186741 1.06712 0)
(-0.0197098 1.05678 0)
(-0.0138125 1.02321 0)
(-0.0111215 0.983828 0)
(-0.0114181 0.957693 0)
(-0.00553847 0.926681 0)
(-0.00351679 0.881635 0)
(0.00212075 0.848775 0)
(0.0285726 0.816072 0)
(0.061917 0.720606 0)
(0.0850721 0.744144 0)
(0.0923776 0.813602 0)
(0.0861436 0.840149 0)
(0.0819524 0.842505 0)
(0.0750104 0.836831 0)
(0.0709075 0.840686 0)
(0.0777142 0.769848 0)
(0.0893136 0.652662 0)
(0.0905874 0.604357 0)
(0.0822859 0.550781 0)
(0.0561997 0.551104 0)
(0.0231093 0.575096 0)
(0.00701855 0.493912 0)
(0.0279339 0.564793 0)
(0.0269949 0.532744 0)
(0.0175884 0.550929 0)
(-0.00819906 0.590248 0)
(-0.017131 0.700282 0)
(-0.0121296 0.917836 0)
(-0.0178394 1.03702 0)
(-0.0257742 1.06603 0)
(-0.0235842 1.05221 0)
(-0.0184882 1.02078 0)
(-0.0133211 0.984758 0)
(-0.0127128 0.955269 0)
(-0.00502415 0.921285 0)
(-0.00424252 0.876946 0)
(-0.000530941 0.8377 0)
(0.0232846 0.790292 0)
(0.051064 0.696248 0)
(0.0706384 0.730406 0)
(0.0848003 0.811614 0)
(0.0815046 0.842065 0)
(0.078069 0.841016 0)
(0.0702206 0.838866 0)
(0.0650387 0.838577 0)
(0.0748666 0.748484 0)
(0.089151 0.642511 0)
(0.0952887 0.603604 0)
(0.0868103 0.563948 0)
(0.0560105 0.580817 0)
(0.0221351 0.605294 0)
(0.000453688 0.480684 0)
(0.0120563 0.558227 0)
(0.009461 0.531014 0)
(-0.00112872 0.565453 0)
(-0.0217841 0.603488 0)
(-0.0328584 0.693206 0)
(-0.0292262 0.910042 0)
(-0.0284313 1.03758 0)
(-0.0295579 1.05709 0)
(-0.0245012 1.04672 0)
(-0.0203092 1.01934 0)
(-0.0152708 0.984982 0)
(-0.010467 0.954349 0)
(-0.000737888 0.916418 0)
(0.00122348 0.875192 0)
(0.0047776 0.827414 0)
(0.0234886 0.770238 0)
(0.0424162 0.681404 0)
(0.054921 0.714981 0)
(0.068128 0.808911 0)
(0.0661769 0.839627 0)
(0.0647604 0.841879 0)
(0.0588419 0.838675 0)
(0.0541227 0.836242 0)
(0.0659087 0.725919 0)
(0.0852706 0.631078 0)
(0.0968164 0.60231 0)
(0.0861796 0.578582 0)
(0.0525091 0.616146 0)
(0.0203383 0.633604 0)
(-0.00586555 0.477583 0)
(-0.000649199 0.555825 0)
(-0.0101822 0.536476 0)
(-0.0229183 0.576183 0)
(-0.0382922 0.617842 0)
(-0.049206 0.689189 0)
(-0.0448996 0.897779 0)
(-0.0319979 1.02874 0)
(-0.0267232 1.04549 0)
(-0.0207666 1.03797 0)
(-0.0193904 1.01875 0)
(-0.0145773 0.986451 0)
(-0.00780023 0.948095 0)
(0.00433857 0.912085 0)
(0.00931863 0.872474 0)
(0.0133054 0.821104 0)
(0.0255268 0.755635 0)
(0.0357397 0.673019 0)
(0.0385494 0.704482 0)
(0.0446772 0.804527 0)
(0.0432204 0.836787 0)
(0.0423462 0.837332 0)
(0.0392245 0.838618 0)
(0.0371265 0.830405 0)
(0.0554893 0.701067 0)
(0.0835433 0.61331 0)
(0.0957446 0.604215 0)
(0.0813768 0.600169 0)
(0.0461017 0.649508 0)
(0.017799 0.656902 0)
(-0.0124775 0.481179 0)
(-0.0114712 0.558633 0)
(-0.0265922 0.548453 0)
(-0.0405338 0.586698 0)
(-0.0542098 0.628815 0)
(-0.0625796 0.687844 0)
(-0.0533813 0.875127 0)
(-0.0297648 1.01435 0)
(-0.0179676 1.03344 0)
(-0.0139682 1.03001 0)
(-0.013357 1.02137 0)
(-0.0103723 0.984102 0)
(-0.00217785 0.94333 0)
(0.00809316 0.904946 0)
(0.0146694 0.869397 0)
(0.0213808 0.813743 0)
(0.0279304 0.749359 0)
(0.0304913 0.671617 0)
(0.0242101 0.701159 0)
(0.0218978 0.804176 0)
(0.0174475 0.830045 0)
(0.0160257 0.834065 0)
(0.0108126 0.836038 0)
(0.016737 0.816711 0)
(0.0482651 0.66958 0)
(0.0764748 0.596471 0)
(0.0869488 0.608222 0)
(0.0716004 0.621774 0)
(0.0386259 0.682953 0)
(0.0137673 0.677157 0)
(-0.0172168 0.491837 0)
(-0.018522 0.560601 0)
(-0.0309709 0.561271 0)
(-0.0486422 0.597736 0)
(-0.0619852 0.641018 0)
(-0.0663272 0.682984 0)
(-0.0541258 0.851429 0)
(-0.0238234 0.988653 0)
(-0.00689679 1.02249 0)
(-0.0035766 1.0229 0)
(-0.00346533 1.02095 0)
(0.000934632 0.979628 0)
(0.00889168 0.936375 0)
(0.0125059 0.903025 0)
(0.0182968 0.861483 0)
(0.0265543 0.807756 0)
(0.0309246 0.748908 0)
(0.0259892 0.677732 0)
(0.0114212 0.705445 0)
(0.00132307 0.810653 0)
(-0.00874898 0.827937 0)
(-0.0141697 0.831965 0)
(-0.0180461 0.831933 0)
(0.00284469 0.790593 0)
(0.0440859 0.635646 0)
(0.0704189 0.585198 0)
(0.0740444 0.613764 0)
(0.0575187 0.644132 0)
(0.0280094 0.707538 0)
(0.0119296 0.693193 0)
(-0.020923 0.508771 0)
(-0.022998 0.560923 0)
(-0.0308036 0.576187 0)
(-0.048882 0.613165 0)
(-0.0653838 0.65081 0)
(-0.0655616 0.679344 0)
(-0.048942 0.82637 0)
(-0.0169586 0.96262 0)
(0.00397097 1.01112 0)
(0.0069909 1.01815 0)
(0.0080993 1.01885 0)
(0.0139393 0.968671 0)
(0.0201826 0.932241 0)
(0.0185643 0.900334 0)
(0.0223028 0.85485 0)
(0.029066 0.798355 0)
(0.0310366 0.754612 0)
(0.0209393 0.691338 0)
(-0.00255979 0.71729 0)
(-0.0209768 0.820877 0)
(-0.0363914 0.831057 0)
(-0.0460222 0.832673 0)
(-0.0413651 0.817662 0)
(-0.00210574 0.752828 0)
(0.0436226 0.602656 0)
(0.0631226 0.581056 0)
(0.0566093 0.620878 0)
(0.0418464 0.663923 0)
(0.013997 0.723126 0)
(0.00919709 0.702343 0)
(-0.021494 0.530931 0)
(-0.0230017 0.556836 0)
(-0.0235707 0.587651 0)
(-0.0421406 0.633879 0)
(-0.0641122 0.662681 0)
(-0.0652735 0.674172 0)
(-0.0491134 0.80016 0)
(-0.0135959 0.934485 0)
(0.010125 0.998434 0)
(0.0137998 1.01442 0)
(0.0166942 1.01296 0)
(0.0236959 0.962124 0)
(0.0259472 0.929256 0)
(0.0238005 0.901362 0)
(0.0258444 0.848065 0)
(0.0293377 0.793333 0)
(0.027835 0.7593 0)
(0.0120584 0.713264 0)
(-0.0192501 0.739371 0)
(-0.0465081 0.833788 0)
(-0.0644968 0.842309 0)
(-0.0747493 0.828934 0)
(-0.0534733 0.790111 0)
(4.99478e-05 0.705561 0)
(0.0408775 0.576466 0)
(0.0484185 0.581262 0)
(0.0372619 0.629888 0)
(0.0188711 0.679035 0)
(-0.00198514 0.728422 0)
(0.00614777 0.7035 0)
(-0.0162663 0.553459 0)
(-0.0158421 0.550972 0)
(-0.0169258 0.596743 0)
(-0.0362382 0.658618 0)
(-0.0590044 0.674746 0)
(-0.0645096 0.674472 0)
(-0.0525342 0.77191 0)
(-0.0160002 0.907493 0)
(0.0110155 0.985361 0)
(0.0147308 1.00953 0)
(0.0190903 1.00645 0)
(0.023609 0.954224 0)
(0.0257586 0.930061 0)
(0.0252394 0.896626 0)
(0.0253611 0.847127 0)
(0.0282523 0.790418 0)
(0.0202329 0.767788 0)
(-0.000551487 0.743162 0)
(-0.0389693 0.769201 0)
(-0.0716236 0.848615 0)
(-0.0893244 0.85621 0)
(-0.0920762 0.816475 0)
(-0.0542495 0.74594 0)
(-0.00116638 0.661065 0)
(0.0275308 0.562656 0)
(0.025463 0.584354 0)
(0.00975495 0.643857 0)
(-0.0060328 0.687609 0)
(-0.0156089 0.72469 0)
(0.00180893 0.694555 0)
(-0.0050217 0.5664 0)
(-0.000619472 0.551863 0)
(-0.0109282 0.609066 0)
(-0.0299255 0.680091 0)
(-0.0506754 0.689682 0)
(-0.060085 0.678381 0)
(-0.0543831 0.747661 0)
(-0.0214536 0.876375 0)
(0.00896558 0.9697 0)
(0.0146665 1.00634 0)
(0.016846 0.997394 0)
(0.0177029 0.949406 0)
(0.0222135 0.926923 0)
(0.0245644 0.893357 0)
(0.023963 0.841791 0)
(0.0224273 0.794786 0)
(0.0125515 0.777384 0)
(-0.0183179 0.781108 0)
(-0.061839 0.80211 0)
(-0.0950188 0.865571 0)
(-0.106606 0.865311 0)
(-0.0966059 0.791208 0)
(-0.0578994 0.703658 0)
(-0.0165931 0.625665 0)
(0.000507685 0.557091 0)
(-0.0080108 0.593654 0)
(-0.0229096 0.651637 0)
(-0.0243863 0.686785 0)
(-0.0227405 0.711603 0)
(0.000890612 0.677764 0)
(0.00657874 0.564325 0)
(0.0140272 0.558557 0)
(-0.00284275 0.625941 0)
(-0.0232251 0.697817 0)
(-0.0389525 0.702552 0)
(-0.0510534 0.686059 0)
(-0.0496936 0.728618 0)
(-0.0253801 0.845363 0)
(0.00567973 0.950351 0)
(0.0138706 1.00335 0)
(0.014081 0.994968 0)
(0.0138726 0.942937 0)
(0.0193705 0.923786 0)
(0.0247299 0.8854 0)
(0.0233661 0.84279 0)
(0.0161952 0.79933 0)
(0.00279404 0.796153 0)