/*--------------------------------*- C++ -*----------------------------------*\
| =========                 |                                                 |
| \\      /  F ield         | OpenFOAM: The Open Source CFD Toolbox           |
|  \\    /   O peration     | Version:  2.3.0                                 |
|   \\  /    A nd           | Web:      www.OpenFOAM.org                      |
|    \\/     M anipulation  |                                                 |
\*---------------------------------------------------------------------------*/
FoamFile
{
    version     2.0;
    format      ascii;
    class       volVectorField;
    location    "1.93";
    object      U.air;
}
// * * * * * * * * * * * * * * * * * * * * * * * * * * * * * * * * * * * * * //

dimensions      [0 1 -1 0 0 0 0];

internalField   nonuniform List<vector> 
6000
(
(-0.0103145 0.236558 0)
(-0.0215319 0.190614 0)
(-0.0201497 0.162189 0)
(-0.0185382 0.133365 0)
(-0.023066 0.141262 0)
(-0.0533259 0.167895 0)
(-0.0940735 0.17177 0)
(-0.123695 0.155937 0)
(-0.106506 0.166141 0)
(-0.0468824 0.194564 0)
(0.00995995 0.235638 0)
(0.00841849 0.259569 0)
(-0.0475634 0.271559 0)
(-0.114593 0.284472 0)
(-0.156134 0.254582 0)
(-0.148102 0.241394 0)
(-0.153716 0.252807 0)
(-0.211659 0.297491 0)
(-0.301304 0.323381 0)
(-0.370583 0.31087 0)
(-0.409202 0.30395 0)
(-0.394777 0.27124 0)
(-0.326633 0.251742 0)
(-0.214305 0.251971 0)
(-0.110461 0.276089 0)
(-0.0583766 0.255262 0)
(-0.0884976 0.206107 0)
(-0.105345 0.121069 0)
(-0.0889823 0.142678 0)
(-0.022597 0.252749 0)
(0.0234223 0.890608 0)
(0.023969 0.926947 0)
(0.0195607 0.933998 0)
(0.0108726 0.943342 0)
(0.0118086 0.965361 0)
(0.0146092 0.995876 0)
(0.0130224 1.01647 0)
(-0.0336325 1.01901 0)
(-0.0820015 0.94328 0)
(-0.0591481 0.880711 0)
(-0.0201389 0.911494 0)
(-0.0609187 1.00885 0)
(-0.123249 1.03381 0)
(-0.14637 0.996041 0)
(-0.139285 0.957008 0)
(-0.151268 0.922431 0)
(-0.190184 0.990525 0)
(-0.270796 1.01469 0)
(-0.341396 0.974508 0)
(-0.39951 0.924114 0)
(-0.42306 0.839175 0)
(-0.398516 0.759955 0)
(-0.325596 0.698313 0)
(-0.220211 0.665812 0)
(-0.117561 0.70842 0)
(0.0210969 0.850829 0)
(0.0950584 0.959537 0)
(0.0870081 1.01983 0)
(0.0777792 1.03075 0)
(0.0248066 0.987568 0)
(0.0141059 0.754507 0)
(0.0329134 0.785358 0)
(0.0195136 0.810021 0)
(0.0061442 0.744115 0)
(0.0235972 0.780104 0)
(0.0304058 0.814969 0)
(0.0282419 0.850657 0)
(-0.0178977 0.91635 0)
(-0.0642819 0.781965 0)
(-0.0563947 0.678217 0)
(-0.0385777 0.765892 0)
(-0.0463571 0.905232 0)
(-0.0788673 0.897257 0)
(-0.0942784 0.829216 0)
(-0.096001 0.797764 0)
(-0.0961669 0.772551 0)
(-0.108224 0.898661 0)
(-0.183424 0.984757 0)
(-0.28282 0.959355 0)
(-0.372322 0.892034 0)
(-0.384928 0.750333 0)
(-0.324261 0.608939 0)
(-0.233479 0.523114 0)
(-0.148833 0.49161 0)
(-0.0764587 0.527058 0)
(0.0077949 0.572199 0)
(0.102599 0.755404 0)
(0.159709 0.728464 0)
(0.22965 0.798431 0)
(0.123762 0.969166 0)
(0.0110741 0.724259 0)
(0.0161042 0.787791 0)
(0.0147514 0.838266 0)
(-0.00298425 0.747345 0)
(0.0142446 0.783522 0)
(0.032503 0.81497 0)
(0.0471386 0.865046 0)
(0.0357005 0.980164 0)
(0.0147857 0.838547 0)
(-0.0320832 0.726519 0)
(-0.0659171 0.790546 0)
(-0.051318 0.921581 0)
(-0.0210796 0.964883 0)
(-0.022485 0.90986 0)
(-0.0499017 0.871338 0)
(-0.0766825 0.825339 0)
(-0.0950579 0.95899 0)
(-0.142684 1.08484 0)
(-0.244082 1.0617 0)
(-0.32308 0.93823 0)
(-0.273764 0.699605 0)
(-0.197767 0.549307 0)
(-0.139417 0.480113 0)
(-0.0964743 0.45247 0)
(-0.0473686 0.476159 0)
(-0.00265268 0.530476 0)
(0.112786 0.695889 0)
(0.198872 0.701839 0)
(0.182575 0.83901 0)
(0.0784774 1.13586 0)
(0.00440126 0.780574 0)
(-0.0345377 0.841707 0)
(-0.0235978 0.873949 0)
(-0.0217382 0.776379 0)
(-0.00605354 0.786612 0)
(0.0356677 0.815732 0)
(0.0673934 0.882119 0)
(0.0885338 1.02203 0)
(0.0894111 0.919655 0)
(0.0270759 0.830365 0)
(-0.0322147 0.852981 0)
(-0.0138057 0.917293 0)
(0.0393558 1.00354 0)
(0.0618021 0.970802 0)
(-0.0184227 1.0096 0)
(-0.150519 0.896513 0)
(-0.197876 0.965939 0)
(-0.174154 1.13977 0)
(-0.213504 1.15451 0)
(-0.211106 0.911348 0)
(-0.147265 0.645502 0)
(-0.109944 0.533832 0)
(-0.105805 0.476672 0)
(-0.100915 0.436311 0)
(-0.0777903 0.433504 0)
(-0.0324592 0.468318 0)
(0.0603404 0.568885 0)
(0.140611 0.677867 0)
(0.0681343 0.920926 0)
(-0.00646447 1.16671 0)
(-0.0182459 0.869096 0)
(-0.0672996 0.919799 0)
(-0.0577672 0.903457 0)
(-0.0384729 0.812228 0)
(-0.0139857 0.788872 0)
(0.0375939 0.814674 0)
(0.0778593 0.91134 0)
(0.0804928 1.07923 0)
(0.074393 0.990504 0)
(0.0594414 0.932186 0)
(0.0713733 0.917025 0)
(0.156844 0.952083 0)
(0.214236 1.06863 0)
(0.198932 1.07442 0)
(-0.0837483 1.27986 0)
(-0.372847 1.09326 0)
(-0.409451 0.978947 0)
(-0.279622 1.09427 0)
(-0.164389 1.18186 0)
(-0.104602 0.868936 0)
(-0.0754544 0.649562 0)
(-0.0970154 0.566892 0)
(-0.12292 0.497198 0)
(-0.131013 0.438284 0)
(-0.120175 0.416854 0)
(-0.0819532 0.433065 0)
(-0.0228248 0.504013 0)
(0.00699843 0.671679 0)
(-0.026268 0.990223 0)
(-0.027647 1.12772 0)
(-0.0387655 1.01516 0)
(-0.08714 1.0172 0)
(-0.0855284 0.945696 0)
(-0.0538799 0.841761 0)
(-0.00442103 0.782124 0)
(0.069201 0.805889 0)
(0.131988 0.9645 0)
(0.0428035 1.23261 0)
(-0.0310715 1.08441 0)
(0.0425305 1.0107 0)
(0.191377 0.937545 0)
(0.293078 0.922269 0)
(0.305517 1.02658 0)
(0.181358 1.13466 0)
(-0.106292 1.52426 0)
(-0.428131 1.19925 0)
(-0.545776 0.975132 0)
(-0.329935 0.971238 0)
(-0.132143 1.13776 0)
(-0.0653911 0.878338 0)
(-0.0990117 0.710165 0)
(-0.1472 0.617548 0)
(-0.175625 0.528067 0)
(-0.178474 0.447485 0)
(-0.165072 0.406914 0)
(-0.140837 0.413877 0)
(-0.131899 0.511145 0)
(-0.151139 0.688029 0)
(-0.124238 0.967564 0)
(-0.0402145 1.05977 0)
(-0.057125 1.19338 0)
(-0.109366 1.16301 0)
(-0.121283 1.01893 0)
(-0.0854699 0.861312 0)
(-0.00148677 0.755148 0)
(0.133981 0.754297 0)
(0.19451 0.975043 0)
(0.0291133 1.35873 0)
(-0.120617 1.03965 0)
(-0.0128291 0.910981 0)
(0.0962243 0.773614 0)
(0.122242 0.846335 0)
(0.149545 1.02341 0)
(0.0439069 1.37786 0)
(-0.0391763 1.65631 0)
(-0.192516 1.51866 0)
(-0.348593 0.862853 0)
(-0.304076 0.862705 0)
(-0.131408 1.11532 0)
(-0.151314 0.937632 0)
(-0.211834 0.783155 0)
(-0.242397 0.670868 0)
(-0.252669 0.560828 0)
(-0.243147 0.462955 0)
(-0.210404 0.408267 0)
(-0.181821 0.421064 0)
(-0.220095 0.59742 0)
(-0.279228 0.728094 0)
(-0.22155 0.877196 0)
(-0.075332 0.970351 0)
(-0.0527459 1.24577 0)
(-0.129342 1.17639 0)
(-0.213677 1.04535 0)
(-0.191506 0.848601 0)
(-0.0437196 0.67766 0)
(0.104926 0.639311 0)
(0.061068 0.996342 0)
(-0.00275036 1.51528 0)
(-0.0144728 1.03775 0)
(-0.0288161 0.792365 0)
(-0.078054 0.80027 0)
(-0.106828 0.829139 0)
(-0.0424454 0.887781 0)
(-0.0401092 1.29412 0)
(0.0463457 1.47969 0)
(0.164046 1.46208 0)
(0.066664 1.05838 0)
(-0.112569 0.689856 0)
(-0.136047 1.06119 0)
(-0.270133 1.03342 0)
(-0.351319 0.820406 0)
(-0.348882 0.71305 0)
(-0.340122 0.590554 0)
(-0.306966 0.46759 0)
(-0.242906 0.395174 0)
(-0.19173 0.430167 0)
(-0.25836 0.718283 0)
(-0.314221 0.757718 0)
(-0.249916 0.782827 0)
(-0.0911527 0.833197 0)
(-0.045168 1.12959 0)
(-0.155996 1.11543 0)
(-0.237562 0.943768 0)
(-0.247872 0.71555 0)
(-0.186761 0.551589 0)
(-0.15057 0.575897 0)
(-0.194897 1.15471 0)
(-0.121619 1.24921 0)
(-0.0017505 1.03901 0)
(-0.0759185 0.873848 0)
(-0.147541 0.807749 0)
(-0.0986662 0.677375 0)
(-0.057606 0.82153 0)
(-0.0530297 1.23059 0)
(0.0410018 1.30253 0)
(0.199838 1.3254 0)
(0.280561 1.1332 0)
(0.139504 0.932237 0)
(-0.0707123 1.14071 0)
(-0.193715 1.10225 0)
(-0.366701 0.845485 0)
(-0.425572 0.737656 0)
(-0.41589 0.616878 0)
(-0.369997 0.464334 0)
(-0.281105 0.350707 0)
(-0.227543 0.439089 0)
(-0.237523 0.802995 0)
(-0.228989 0.731756 0)
(-0.202556 0.718179 0)
(-0.0853351 0.712049 0)
(-0.0664713 1.31125 0)
(-0.221588 1.22699 0)
(-0.356875 1.05123 0)
(-0.415876 0.712133 0)
(-0.408166 0.516897 0)
(-0.390027 0.561462 0)
(-0.309063 1.04602 0)
(-0.179318 1.07189 0)
(-0.0925401 0.945428 0)
(-0.108401 0.845074 0)
(-0.0940737 0.720969 0)
(-0.0442013 0.597964 0)
(-0.0566252 0.832796 0)
(-0.0494297 1.16146 0)
(0.0138336 1.23112 0)
(0.101178 1.17778 0)
(0.173147 1.06891 0)
(0.123017 1.00288 0)
(0.0347475 1.1806 0)
(-0.00554141 1.24017 0)
(-0.195871 0.942841 0)
(-0.362807 0.761296 0)
(-0.451783 0.655476 0)
(-0.438245 0.466512 0)
(-0.354218 0.312188 0)
(-0.299892 0.449602 0)
(-0.20549 0.742814 0)
(-0.126584 0.701596 0)
(-0.116676 0.697678 0)
(-0.0541001 0.602886 0)
(-0.0424931 1.20005 0)
(-0.165167 1.14372 0)
(-0.256811 0.941346 0)
(-0.342028 0.675738 0)
(-0.336309 0.43977 0)
(-0.328986 0.475969 0)
(-0.259344 0.975503 0)
(-0.174432 0.965829 0)
(-0.119741 0.903308 0)
(-0.111053 0.851031 0)
(-0.086202 0.666397 0)
(-0.0627355 0.56953 0)
(-0.0548309 0.839476 0)
(-0.0266266 1.1017 0)
(0.00823236 1.14904 0)
(0.0404412 1.14867 0)
(0.0476348 1.0416 0)
(0.0210201 1.05402 0)
(-0.00462654 1.14362 0)
(0.0358559 1.19149 0)
(-0.0189869 1.10192 0)
(-0.217993 0.893433 0)
(-0.375964 0.652038 0)
(-0.468133 0.453647 0)
(-0.460199 0.291451 0)
(-0.384918 0.410282 0)
(-0.218849 0.611441 0)
(-0.0834112 0.62841 0)
(-0.0269837 0.668511 0)
(-0.00316387 0.535734 0)
(-0.0402886 1.26969 0)
(-0.124995 1.16321 0)
(-0.151963 0.957789 0)
(-0.191016 0.68515 0)
(-0.171287 0.408432 0)
(-0.203397 0.450029 0)
(-0.180301 0.928106 0)
(-0.137161 0.928052 0)
(-0.121641 0.882074 0)
(-0.115293 0.847121 0)
(-0.112983 0.646072 0)
(-0.0989207 0.555714 0)
(-0.0396459 0.786494 0)
(0.0152884 1.04742 0)
(0.0155164 1.13393 0)
(0.00978333 1.12235 0)
(-0.0191311 1.09153 0)
(-0.0524868 1.06352 0)
(-0.0615182 1.15961 0)
(-0.0394789 1.15214 0)
(-0.0349729 1.11224 0)
(-0.0862808 0.981334 0)
(-0.314445 0.867455 0)
(-0.486429 0.483817 0)
(-0.546419 0.24501 0)
(-0.413606 0.303789 0)
(-0.231898 0.451738 0)
(-0.0941303 0.524383 0)
(-0.0135293 0.607544 0)
(0.0200983 0.520976 0)
(-0.0314746 1.33662 0)
(-0.0805541 1.17307 0)
(-0.0544975 0.936108 0)
(-0.0542548 0.707777 0)
(-0.0218088 0.41318 0)
(-0.0787871 0.487946 0)
(-0.100283 0.941495 0)
(-0.0987045 0.907222 0)
(-0.125427 0.889662 0)
(-0.145992 0.836332 0)
(-0.145038 0.631816 0)
(-0.110556 0.518608 0)
(-0.0134675 0.678133 0)
(0.0662428 1.03608 0)
(0.0321668 1.13332 0)
(-0.0193824 1.15962 0)
(-0.0613907 1.1077 0)
(-0.105041 1.10432 0)
(-0.113987 1.15961 0)
(-0.0961726 1.15978 0)
(-0.0885589 1.09838 0)
(-0.0963201 1.00406 0)
(-0.18852 0.924305 0)
(-0.349624 0.62045 0)
(-0.429468 0.169743 0)
(-0.34831 0.177166 0)
(-0.219328 0.331698 0)
(-0.128945 0.437791 0)
(-0.0634666 0.534813 0)
(0.00451508 0.494418 0)
(-1.27697e-05 1.40684 0)
(-0.00797113 1.15579 0)
(0.0318955 0.906506 0)
(0.061284 0.69957 0)
(0.0998975 0.432562 0)
(0.0198496 0.562716 0)
(-0.0341778 0.972711 0)
(-0.0747322 0.951509 0)
(-0.144718 0.919421 0)
(-0.182543 0.838557 0)
(-0.154518 0.595015 0)
(-0.0861451 0.450466 0)
(0.0077407 0.559743 0)
(0.06504 1.00964 0)
(0.0337388 1.19077 0)
(-0.0440093 1.17841 0)
(-0.0950437 1.16957 0)
(-0.138547 1.11266 0)
(-0.13898 1.16447 0)
(-0.118316 1.13799 0)
(-0.104029 1.10382 0)
(-0.104432 1.01133 0)
(-0.14635 0.966456 0)
(-0.226307 0.706421 0)
(-0.270492 0.11548 0)
(-0.257234 0.0942242 0)
(-0.198336 0.263117 0)
(-0.152054 0.379131 0)
(-0.112705 0.452883 0)
(-0.0128883 0.43078 0)
(0.0400164 1.38866 0)
(0.0793385 1.14715 0)
(0.125214 0.883782 0)
(0.162457 0.68078 0)
(0.196192 0.468402 0)
(0.0960468 0.67489 0)
(0.0114982 1.06048 0)
(-0.0804753 1.01071 0)
(-0.182185 0.977218 0)
(-0.197465 0.838445 0)
(-0.114961 0.521751 0)
(-0.0418503 0.379267 0)
(-0.0104607 0.519802 0)
(-0.0198058 0.985981 0)
(-0.0474821 1.20817 0)
(-0.0919041 1.23067 0)
(-0.131518 1.17767 0)
(-0.167432 1.14743 0)
(-0.159329 1.13381 0)
(-0.14219 1.14168 0)
(-0.119196 1.08465 0)
(-0.123294 1.0345 0)
(-0.139612 0.978395 0)
(-0.168965 0.748955 0)
(-0.186004 0.10564 0)
(-0.201898 0.0634436 0)
(-0.182698 0.219824 0)
(-0.144852 0.326933 0)
(-0.124084 0.382167 0)
(-0.0198732 0.339136 0)
(0.0769483 1.33065 0)
(0.156621 1.08428 0)
(0.214598 0.866829 0)
(0.244887 0.676897 0)
(0.263456 0.521279 0)
(0.150618 0.807852 0)
(0.0324622 1.17058 0)
(-0.114198 1.14027 0)
(-0.225559 1.03904 0)
(-0.170363 0.757043 0)
(-0.0554402 0.449343 0)
(-0.0262273 0.359447 0)
(-0.067056 0.558055 0)
(-0.14955 1.00167 0)
(-0.170533 1.21631 0)
(-0.167699 1.22322 0)
(-0.186131 1.2089 0)
(-0.201459 1.13529 0)
(-0.205075 1.13066 0)
(-0.182658 1.11082 0)
(-0.168531 1.08645 0)
(-0.168173 1.01987 0)
(-0.177528 0.988627 0)
(-0.157689 0.738064 0)
(-0.137686 0.114405 0)
(-0.161118 0.062211 0)
(-0.160064 0.186686 0)
(-0.126466 0.270048 0)
(-0.101746 0.322212 0)
(0.00104495 0.251228 0)
(0.09572 1.21105 0)
(0.199715 1.0159 0)
(0.27401 0.84868 0)
(0.302817 0.692462 0)
(0.306156 0.593925 0)
(0.178724 0.946109 0)
(0.0417357 1.35936 0)
(-0.163485 1.28059 0)
(-0.248008 1.0592 0)
(-0.128113 0.624117 0)
(-0.031112 0.42241 0)
(-0.0707037 0.384011 0)
(-0.173655 0.646857 0)
(-0.288713 1.02077 0)
(-0.291019 1.15979 0)
(-0.254946 1.20566 0)
(-0.246045 1.1776 0)
(-0.246372 1.1441 0)
(-0.248756 1.09553 0)
(-0.240475 1.10715 0)
(-0.231312 1.05888 0)
(-0.244088 1.02662 0)
(-0.229261 0.965914 0)
(-0.151887 0.659575 0)
(-0.0836641 0.105792 0)
(-0.105201 0.0741399 0)
(-0.115188 0.160477 0)
(-0.0893483 0.216036 0)
(-0.0511405 0.250723 0)
(0.0119198 0.214179 0)
(0.0959921 1.09784 0)
(0.20935 0.935743 0)
(0.304067 0.819734 0)
(0.336695 0.721702 0)
(0.32437 0.695613 0)
(0.163157 1.0929 0)
(0.0151902 1.53758 0)
(-0.201375 1.4732 0)
(-0.238177 0.996452 0)
(-0.121988 0.52237 0)
(-0.0875949 0.433292 0)
(-0.196191 0.465873 0)
(-0.327221 0.764204 0)
(-0.39174 1.02235 0)
(-0.357808 1.09557 0)
(-0.317707 1.14358 0)
(-0.295443 1.158 0)
(-0.285656 1.10675 0)
(-0.299952 1.10116 0)
(-0.305743 1.08471 0)
(-0.322123 1.07915 0)
(-0.322404 1.01304 0)
(-0.268771 0.911317 0)
(-0.128489 0.504644 0)
(-0.0301469 0.0887715 0)
(-0.0503313 0.0825065 0)
(-0.0582063 0.139032 0)
(-0.042303 0.182573 0)
(-0.0146629 0.206842 0)
(0.00794535 0.205015 0)
(0.0943662 0.98306 0)
(0.208994 0.844445 0)
(0.314269 0.778586 0)
(0.347587 0.756523 0)
(0.32975 0.83067 0)
(0.123874 1.26917 0)
(-0.0366075 1.737 0)
(-0.200064 1.60365 0)
(-0.217285 0.911461 0)
(-0.176447 0.48416 0)
(-0.223178 0.504737 0)
(-0.384123 0.604271 0)
(-0.478469 0.807057 0)
(-0.450798 0.956709 0)
(-0.379554 1.02272 0)
(-0.353667 1.10383 0)
(-0.325924 1.10788 0)
(-0.337004 1.11101 0)
(-0.356276 1.09404 0)
(-0.377306 1.1102 0)
(-0.374454 1.05218 0)
(-0.36442 0.975187 0)
(-0.272746 0.809962 0)
(-0.0767787 0.32072 0)
(0.0156206 0.0754111 0)
(-0.0072131 0.0880528 0)
(-0.0172775 0.12914 0)
(-0.0121489 0.161735 0)
(-0.00116935 0.185166 0)
(0.00288978 0.204036 0)
(0.0940818 0.863307 0)
(0.204823 0.750567 0)
(0.304313 0.734633 0)
(0.325678 0.795108 0)
(0.305953 0.970673 0)
(0.0663082 1.49166 0)
(-0.125871 1.82452 0)
(-0.175118 1.7163 0)
(-0.198109 0.900542 0)
(-0.284995 0.52305 0)
(-0.407955 0.652393 0)
(-0.560884 0.716126 0)
(-0.597161 0.785753 0)
(-0.510456 0.863334 0)
(-0.393098 0.954642 0)
(-0.355686 1.05486 0)
(-0.340422 1.1004 0)
(-0.362238 1.09734 0)
(-0.38564 1.11541 0)
(-0.394052 1.0784 0)
(-0.391992 1.03631 0)
(-0.374198 0.939123 0)
(-0.206644 0.608464 0)
(-0.00215787 0.173159 0)
(0.0397071 0.078624 0)
(0.0188474 0.0966361 0)
(0.00720487 0.124975 0)
(0.00527106 0.150651 0)
(0.00571887 0.176533 0)
(0.0022978 0.207629 0)
(0.0931772 0.73581 0)
(0.195035 0.664252 0)
(0.279016 0.694494 0)
(0.286055 0.837883 0)
(0.225677 1.09855 0)
(-0.0223415 1.75909 0)
(-0.21504 1.85713 0)
(-0.154474 1.68915 0)
(-0.214249 0.96737 0)
(-0.412671 0.639605 0)
(-0.574264 0.794792 0)
(-0.664269 0.780263 0)
(-0.661272 0.73248 0)
(-0.556377 0.724866 0)
(-0.401763 0.836099 0)
(-0.326733 1.02254 0)
(-0.322614 1.09083 0)
(-0.355528 1.10998 0)
(-0.37661 1.09758 0)
(-0.39359 1.07063 0)
(-0.400767 1.01576 0)
(-0.326713 0.855817 0)
(-0.0930568 0.345798 0)
(0.0507674 0.110289 0)
(0.0506163 0.0899098 0)
(0.0344004 0.104709 0)
(0.0233126 0.125889 0)
(0.018142 0.148557 0)
(0.0144157 0.177781 0)
(0.00560145 0.219128 0)
(0.0869086 0.606026 0)
(0.169023 0.591685 0)
(0.23945 0.649327 0)
(0.236762 0.876206 0)
(0.0876311 1.27373 0)
(-0.13378 1.98531 0)
(-0.261014 1.8194 0)
(-0.184331 1.64563 0)
(-0.305819 1.12937 0)
(-0.547749 0.801208 0)
(-0.670559 0.869112 0)
(-0.698574 0.800462 0)
(-0.670259 0.677243 0)
(-0.576041 0.602155 0)
(-0.427536 0.688499 0)
(-0.304392 0.970068 0)
(-0.2831 1.10102 0)
(-0.316166 1.10152 0)
(-0.350918 1.0935 0)
(-0.375427 1.06016 0)
(-0.375373 0.987505 0)
(-0.18763 0.638849 0)
(0.0165238 0.183879 0)
(0.0732776 0.0999893 0)
(0.0610175 0.100465 0)
(0.0467594 0.113043 0)
(0.0369891 0.130081 0)
(0.0320344 0.150376 0)
(0.0314446 0.1848 0)
(0.014037 0.24437 0)
(0.0592745 0.49719 0)
(0.117635 0.530974 0)
(0.172465 0.597624 0)
(0.125581 0.922459 0)
(-0.0676967 1.51954 0)
(-0.184792 2.0219 0)
(-0.26195 1.83785 0)
(-0.254438 1.62157 0)
(-0.44864 1.33377 0)
(-0.616993 0.925267 0)
(-0.68322 0.887161 0)
(-0.667893 0.784922 0)
(-0.635446 0.623432 0)
(-0.575 0.522518 0)
(-0.465115 0.55577 0)
(-0.312862 0.857474 0)
(-0.244063 1.0979 0)
(-0.26382 1.12619 0)
(-0.324685 1.08826 0)
(-0.352762 1.05437 0)
(-0.269309 0.888434 0)
(-0.0367417 0.3891 0)
(0.083858 0.129135 0)
(0.0884904 0.108029 0)
(0.0728543 0.112564 0)
(0.0590003 0.122569 0)
(0.0508687 0.135152 0)
(0.0517065 0.150849 0)
(0.0651126 0.183553 0)
(0.035154 0.281415 0)
(0.025903 0.428611 0)
(0.0479988 0.490893 0)
(0.0628177 0.581283 0)
(-0.0587528 1.00949 0)
(-0.182476 1.66829 0)
(-0.170027 1.97498 0)
(-0.216865 1.84731 0)
(-0.289168 1.71766 0)
(-0.495713 1.46616 0)
(-0.59279 0.975021 0)
(-0.611548 0.860233 0)
(-0.574617 0.747595 0)
(-0.564236 0.583221 0)
(-0.544919 0.477693 0)
(-0.483558 0.457414 0)
(-0.336353 0.702966 0)
(-0.220895 1.08112 0)
(-0.209375 1.14094 0)
(-0.298342 1.11608 0)
(-0.285402 1.00718 0)
(-0.084773 0.679002 0)
(0.0921328 0.254729 0)
(0.123874 0.131521 0)
(0.106829 0.124977 0)
(0.0864526 0.128783 0)
(0.0707872 0.134209 0)
(0.0637373 0.13889 0)
(0.070227 0.139728 0)
(0.0873181 0.159358 0)
(0.0625455 0.385447 0)
(-0.00325686 0.432705 0)
(-0.0454338 0.511068 0)
(-0.127307 0.645032 0)
(-0.221484 1.09241 0)
(-0.234023 1.63947 0)
(-0.149071 1.8739 0)
(-0.178702 1.89828 0)
(-0.296713 1.81643 0)
(-0.454007 1.60086 0)
(-0.503404 0.975644 0)
(-0.480889 0.819818 0)
(-0.450959 0.71648 0)
(-0.464682 0.569977 0)
(-0.483409 0.465015 0)
(-0.473447 0.408292 0)
(-0.363547 0.543632 0)
(-0.217311 1.00738 0)
(-0.153288 1.18319 0)
(-0.239512 1.12565 0)
(-0.136816 0.865049 0)
(0.0913854 0.46598 0)
(0.182025 0.228363 0)
(0.159091 0.161607 0)
(0.127487 0.152772 0)
(0.100371 0.151629 0)
(0.0789282 0.150722 0)
(0.0639856 0.147308 0)
(0.0625632 0.130117 0)
(0.100891 0.164691 0)
(0.0263188 0.461951 0)
(-0.0511667 0.486616 0)
(-0.179292 0.626682 0)
(-0.315668 0.754734 0)
(-0.340823 1.1009 0)
(-0.269415 1.57297 0)
(-0.156179 1.80747 0)
(-0.162375 1.93978 0)
(-0.296754 1.9195 0)
(-0.341107 1.657 0)
(-0.35752 0.939235 0)
(-0.326012 0.810105 0)
(-0.334115 0.710841 0)
(-0.366188 0.582216 0)
(-0.406479 0.477423 0)
(-0.43351 0.406034 0)
(-0.37828 0.439777 0)
(-0.238083 0.855139 0)
(-0.130632 1.22812 0)
(-0.122775 1.10437 0)
(0.0474432 0.648916 0)
(0.201207 0.357647 0)
(0.22371 0.252324 0)
(0.186274 0.206232 0)
(0.145247 0.189233 0)
(0.111609 0.18091 0)
(0.0820095 0.17464 0)
(0.0531813 0.166732 0)
(0.0393041 0.134143 0)
(-0.0290739 0.224934 0)
(-0.0522513 0.496214 0)
(-0.0987484 0.676891 0)
(-0.228082 0.838909 0)
(-0.368157 0.871591 0)
(-0.397042 1.09744 0)
(-0.315906 1.45566 0)
(-0.169393 1.75787 0)
(-0.132889 1.99624 0)
(-0.238391 2.0117 0)
(-0.182212 1.62887 0)
(-0.185014 0.943665 0)
(-0.191631 0.855336 0)
(-0.242769 0.745256 0)
(-0.290659 0.615417 0)
(-0.338937 0.505967 0)
(-0.380639 0.429928 0)
(-0.370677 0.423305 0)
(-0.280947 0.708427 0)
(-0.145146 1.2301 0)
(0.035193 0.974961 0)
(0.185468 0.512121 0)
(0.242486 0.338389 0)
(0.22717 0.283577 0)
(0.189976 0.250793 0)
(0.149069 0.227646 0)
(0.111059 0.213172 0)
(0.0732943 0.204844 0)
(0.0311401 0.20109 0)
(-0.0275333 0.205576 0)
(-0.0883873 0.318945 0)
(-0.0431073 0.422953 0)
(-0.0772505 0.864883 0)
(-0.208004 0.971906 0)
(-0.328016 1.01756 0)
(-0.391889 1.16317 0)
(-0.347777 1.38971 0)
(-0.214541 1.68478 0)
(-0.110821 2.03685 0)
(-0.0772155 2.10478 0)
(0.0236566 1.55708 0)
(0.0183746 1.03513 0)
(-0.0657962 0.938798 0)
(-0.160864 0.805688 0)
(-0.233203 0.660186 0)
(-0.287759 0.539961 0)
(-0.331832 0.462171 0)
(-0.349236 0.450879 0)
(-0.317565 0.658864 0)
(-0.158429 1.09667 0)
(0.142307 0.804158 0)
(0.244424 0.477109 0)
(0.242877 0.362916 0)
(0.210908 0.316243 0)
(0.175024 0.285791 0)
(0.137116 0.262632 0)
(0.0979031 0.247464 0)
(0.0571107 0.242178 0)
(0.0124299 0.248873 0)
(-0.0376043 0.274888 0)
(-0.0649114 0.349762 0)
(-0.0224667 0.410835 0)
(-0.130718 1.14803 0)
(-0.262848 1.15406 0)
(-0.340189 1.17299 0)
(-0.396272 1.25831 0)
(-0.389674 1.41262 0)
(-0.279337 1.63846 0)
(-0.129409 2.00221 0)
(0.118555 2.08636 0)
(0.237844 1.56616 0)
(0.206953 1.20977 0)
(0.0353992 1.08426 0)
(-0.113527 0.9242 0)
(-0.215221 0.737958 0)
(-0.269623 0.58896 0)
(-0.299719 0.496597 0)
(-0.310456 0.485521 0)
(-0.310248 0.676245 0)
(-0.130306 0.9045 0)
(0.159404 0.677593 0)
(0.22668 0.485565 0)
(0.212739 0.397095 0)
(0.183418 0.348666 0)
(0.152362 0.317151 0)
(0.119115 0.294907 0)
(0.0833039 0.280918 0)
(0.0461982 0.277057 0)
(0.00971107 0.285789 0)
(-0.0214364 0.311121 0)
(-0.0332849 0.357399 0)
(-0.0134834 0.395945 0)
(-0.152001 1.15036 0)
(-0.320407 1.16716 0)
(-0.367984 1.25587 0)
(-0.383542 1.35042 0)
(-0.371808 1.47944 0)
(-0.297631 1.6521 0)
(-0.131282 1.93163 0)
(0.219797 2.02191 0)
(0.380941 1.64184 0)
(0.307441 1.40014 0)
(0.0995735 1.26376 0)
(-0.118351 1.0887 0)
(-0.250406 0.861097 0)
(-0.292165 0.661481 0)
(-0.290115 0.531172 0)
(-0.269348 0.507663 0)
(-0.250956 0.681909 0)
(-0.0678089 0.708807 0)
(0.103345 0.595131 0)
(0.159727 0.489464 0)
(0.160789 0.420964 0)
(0.145371 0.374942 0)
(0.123343 0.344289 0)
(0.0972984 0.324082 0)
(0.0684691 0.311951 0)
(0.0388247 0.308242 0)
(0.0115911 0.314439 0)
(-0.00860918 0.331653 0)
(-0.016071 0.357706 0)
(-0.00734189 0.378375 0)
(-0.108755 1.42046 0)
(-0.267813 1.11311 0)
(-0.328689 1.04057 0)
(-0.322468 1.15303 0)
(-0.301904 1.32857 0)
(-0.260728 1.53302 0)
(-0.102141 1.73907 0)
(0.161245 1.78415 0)
(0.312038 1.6038 0)
(0.273809 1.48108 0)
(0.121482 1.39346 0)
(-0.0851269 1.25292 0)
(-0.282946 0.988454 0)
(-0.369932 0.729427 0)
(-0.3123 0.552744 0)
(-0.247802 0.510473 0)
(-0.169859 0.621669 0)
(-0.0452459 0.593174 0)
(0.0406254 0.536159 0)
(0.0873394 0.476661 0)
(0.10304 0.42826 0)
(0.100894 0.391239 0)
(0.0885373 0.365117 0)
(0.0706853 0.34797 0)
(0.0502112 0.337755 0)
(0.0292683 0.333731 0)
(0.0105058 0.336292 0)
(-0.00293761 0.345875 0)
(-0.00841615 0.360313 0)
(-0.00346958 0.37056 0)
(0.0212965 1.42355 0)
(-0.0474437 1.32188 0)
(-0.191611 1.24026 0)
(-0.292774 1.23329 0)
(-0.333475 1.28143 0)
(-0.297155 1.30887 0)
(-0.17199 1.38223 0)
(-0.0257437 1.45242 0)
(0.0299851 1.45391 0)
(-0.0367734 1.48119 0)
(-0.197149 1.4887 0)
(-0.389856 1.32697 0)
(-0.48211 0.986954 0)
(-0.44938 0.740637 0)
(-0.359159 0.53262 0)
(-0.263585 0.472199 0)
(-0.14042 0.537697 0)
(-0.0544443 0.512725 0)
(0.000373618 0.485811 0)
(0.036041 0.454235 0)
(0.054866 0.424156 0)
(0.0598588 0.398769 0)
(0.0549643 0.379236 0)
(0.0443241 0.365368 0)
(0.031267 0.356474 0)
(0.0180653 0.351961 0)
(0.00655535 0.35176 0)
(-0.00148537 0.356211 0)
(-0.00452187 0.363762 0)
(-0.00109428 0.368422 0)
(0.014822 1.16577 0)
(-0.0103994 1.13237 0)
(-0.0981608 1.11793 0)
(-0.197853 1.1629 0)
(-0.282944 1.24242 0)
(-0.340472 1.31298 0)
(-0.366987 1.38895 0)
(-0.39003 1.47139 0)
(-0.434357 1.51731 0)
(-0.493801 1.53823 0)
(-0.567098 1.5179 0)
(-0.661851 1.34752 0)
(-0.758308 0.986748 0)
(-0.6462 0.535852 0)
(-0.468973 0.349474 0)
(-0.291665 0.382055 0)
(-0.146917 0.446026 0)
(-0.0699456 0.45204 0)
(-0.0240881 0.444093 0)
(0.00617744 0.429523 0)
(0.0244175 0.413969 0)
(0.0321279 0.399605 0)
(0.0316925 0.387088 0)
(0.0260484 0.376618 0)
(0.0179128 0.368592 0)
(0.00947178 0.363404 0)
(0.00235677 0.361325 0)
(-0.00218855 0.36263 0)
(-0.00280108 0.366146 0)
(-0.0001709 0.368336 0)
(-0.0148615 1.16481 0)
(-0.0584854 1.14141 0)
(-0.128016 1.11663 0)
(-0.207825 1.10076 0)
(-0.287945 1.10811 0)
(-0.361738 1.12997 0)
(-0.430928 1.17521 0)
(-0.492441 1.24959 0)
(-0.542272 1.32272 0)
(-0.570497 1.36447 0)
(-0.586613 1.34997 0)
(-0.57886 1.1516 0)
(-0.530792 0.754789 0)
(-0.390018 0.326961 0)
(-0.288641 0.14027 0)
(-0.203751 0.262684 0)
(-0.116819 0.362719 0)
(-0.0630986 0.39855 0)
(-0.026134 0.406027 0)
(-0.000258838 0.404832 0)
(0.0153315 0.401158 0)
(0.0219296 0.396006 0)
(0.0217908 0.389479 0)
(0.0174005 0.38202 0)
(0.0109428 0.374767 0)
(0.00433468 0.368852 0)
(-0.000934844 0.365179 0)
(-0.00374598 0.364301 0)
(-0.00312333 0.365003 0)
(-0.000639272 0.366048 0)
(-0.0247436 1.20468 0)
(-0.0797689 1.20282 0)
(-0.145337 1.18654 0)
(-0.216731 1.17406 0)
(-0.290877 1.16493 0)
(-0.353923 1.16189 0)
(-0.407734 1.18344 0)
(-0.450042 1.24539 0)
(-0.48384 1.31319 0)
(-0.499019 1.3451 0)
(-0.477443 1.28704 0)
(-0.37873 1.0052 0)
(-0.216654 0.546994 0)
(-0.0441735 0.120939 0)
(-0.0520669 0.0657917 0)
(-0.0669401 0.214192 0)
(-0.0518014 0.317253 0)
(-0.0267 0.3584 0)
(-0.00106989 0.375259 0)
(0.0166967 0.384664 0)
(0.0250832 0.390028 0)
(0.0259154 0.391487 0)
(0.0218468 0.389093 0)
(0.0151784 0.383553 0)
(0.00784443 0.376661 0)
(0.00131301 0.369895 0)
(-0.0033848 0.364562 0)
(-0.0054561 0.361434 0)
(-0.00436004 0.35978 0)
(-0.00151231 0.360156 0)
(-0.0242231 1.25607 0)
(-0.0802364 1.26479 0)
(-0.14334 1.25594 0)
(-0.207656 1.24198 0)
(-0.273832 1.23398 0)
(-0.321158 1.22069 0)
(-0.34885 1.22493 0)
(-0.36675 1.27774 0)
(-0.384324 1.33173 0)
(-0.384111 1.33028 0)
(-0.325576 1.19973 0)
(-0.164761 0.836743 0)
(0.0422455 0.372367 0)
(0.139409 0.0564607 0)
(0.0666817 0.124096 0)
(0.0272669 0.235778 0)
(0.0191838 0.301975 0)
(0.0297177 0.334334 0)
(0.0416282 0.356245 0)
(0.046446 0.373254 0)
(0.0439351 0.384435 0)
(0.0362138 0.389834 0)
(0.0259556 0.389283 0)
(0.0155508 0.384224 0)
(0.00650478 0.376687 0)
(-0.000424263 0.368556 0)
(-0.00488567 0.361374 0)
(-0.00657346 0.355921 0)
(-0.00526093 0.352241 0)
(-0.00205423 0.351685 0)
(-0.0230387 1.30346 0)
(-0.0775295 1.32515 0)
(-0.13539 1.31633 0)
(-0.191605 1.30182 0)
(-0.244401 1.2885 0)
(-0.271027 1.2533 0)
(-0.276193 1.23586 0)
(-0.278926 1.28949 0)
(-0.286507 1.34173 0)
(-0.263998 1.29433 0)
(-0.161104 1.06477 0)
(0.0327887 0.647513 0)
(0.227465 0.223758 0)
(0.198782 0.102817 0)
(0.137167 0.198245 0)
(0.105846 0.26008 0)
(0.0929091 0.296946 0)
(0.0894934 0.324287 0)
(0.085965 0.349033 0)
(0.0769368 0.370818 0)
(0.0629917 0.384469 0)
(0.0464825 0.391224 0)
(0.0298736 0.389943 0)
(0.0163973 0.383647 0)
(0.00673099 0.375054 0)
(0.000196409 0.365826 0)
(-0.00386277 0.357197 0)
(-0.00554367 0.349866 0)
(-0.00463461 0.344239 0)
(-0.00195111 0.342478 0)
(-0.0238436 1.35051 0)
(-0.0751078 1.37578 0)
(-0.123319 1.37152 0)
(-0.166145 1.34628 0)
(-0.200856 1.31801 0)
(-0.208005 1.26028 0)
(-0.201498 1.23021 0)
(-0.199873 1.28663 0)
(-0.195959 1.32661 0)
(-0.144324 1.21831 0)
(-0.00578121 0.908767 0)
(0.199271 0.490464 0)
(0.304891 0.170364 0)
(0.223159 0.207099 0)
(0.209481 0.252118 0)
(0.181121 0.27978 0)
(0.160501 0.302693 0)
(0.145381 0.327797 0)
(0.128438 0.349548 0)
(0.103978 0.374478 0)
(0.0781727 0.386603 0)
(0.054731 0.392286 0)
(0.0349038 0.388351 0)
(0.0221993 0.381226 0)
(0.0144972 0.372915 0)
(0.00882944 0.36378 0)
(0.00405965 0.354633 0)
(0.000580339 0.345999 0)
(-0.000923628 0.33849 0)
(-0.000943958 0.335159 0)
(-0.0227504 1.39907 0)
(-0.0680392 1.41567 0)
(-0.10393 1.40893 0)
(-0.131666 1.37256 0)
(-0.151966 1.33107 0)
(-0.144034 1.25639 0)
(-0.130952 1.22367 0)
(-0.128187 1.28214 0)
(-0.111181 1.2895 0)
(-0.028324 1.11265 0)
(0.138387 0.744471 0)
(0.328475 0.347453 0)
(0.304832 0.222885 0)
(0.299579 0.273914 0)
(0.287944 0.28654 0)
(0.256306 0.300445 0)
(0.225933 0.31513 0)
(0.193945 0.343191 0)
(0.164029 0.371387 0)
(0.131331 0.392353 0)
(0.0989756 0.390754 0)
(0.0772564 0.39886 0)
(0.0634843 0.397536 0)
(0.0537569 0.389099 0)
(0.0438515 0.379614 0)
(0.0334524 0.369777 0)
(0.0232138 0.359374 0)
(0.0140971 0.348703 0)
(0.00673064 0.33877 0)
(0.00117274 0.333003 0)
(-0.0172891 1.44171 0)
(-0.0533638 1.45047 0)
(-0.0789367 1.43503 0)
(-0.0967657 1.39064 0)
(-0.109067 1.33634 0)
(-0.0889883 1.24241 0)
(-0.068126 1.21127 0)
(-0.0601634 1.27359 0)
(-0.0309855 1.23595 0)
(0.0791045 0.992262 0)
(0.267701 0.609361 0)
(0.384184 0.295793 0)
(0.363789 0.296337 0)
(0.397487 0.311699 0)
(0.373224 0.317353 0)
(0.33397 0.324363 0)
(0.299633 0.338615 0)
(0.258232 0.358813 0)
(0.220378 0.377837 0)
(0.191144 0.416806 0)
(0.155712 0.425871 0)
(0.13748 0.423963 0)
(0.122815 0.418819 0)
(0.104672 0.410332 0)
(0.0845824 0.398987 0)
(0.0653903 0.386359 0)
(0.0477933 0.373587 0)
(0.031473 0.360565 0)
(0.0163727 0.347835 0)
(0.00378813 0.339263 0)
(-0.0103012 1.47329 0)
(-0.0343241 1.47857 0)
(-0.0523913 1.45524 0)
(-0.0657081 1.40542 0)
(-0.0741459 1.33565 0)
(-0.0432464 1.21615 0)
(-0.0140754 1.1921 0)
(0.00483212 1.25337 0)
(0.0514172 1.16702 0)
(0.190071 0.858362 0)
(0.382083 0.462666 0)
(0.428981 0.304896 0)
(0.486052 0.325992 0)
(0.494677 0.337928 0)
(0.463651 0.336063 0)
(0.426961 0.343216 0)
(0.389743 0.36237 0)
(0.326664 0.407652 0)
(0.261036 0.428598 0)
(0.224792 0.449733 0)
(0.204723 0.462689 0)
(0.186418 0.461778 0)
(0.163452 0.454144 0)
(0.138913 0.441952 0)
(0.114498 0.426698 0)
(0.0913458 0.410415 0)
(0.0698159 0.395566 0)
(0.0483177 0.38179 0)
(0.0269692 0.370776 0)
(0.00771505 0.361892 0)
(-0.00339623 1.4916 0)
(-0.0153143 1.49895 0)
(-0.0276323 1.47022 0)
(-0.0387561 1.41829 0)
(-0.0432158 1.32971 0)
(-0.00432806 1.18035 0)
(0.0311552 1.16429 0)
(0.0662099 1.21697 0)
(0.144776 1.07975 0)
(0.316049 0.717718 0)
(0.468976 0.368347 0)
(0.520371 0.318101 0)
(0.579278 0.347453 0)
(0.561666 0.35853 0)
(0.525464 0.361921 0)
(0.470333 0.40163 0)
(0.383235 0.430447 0)
(0.333007 0.464877 0)
(0.298915 0.488868 0)
(0.270325 0.503397 0)
(0.244581 0.507633 0)
(0.217854 0.499989 0)
(0.189354 0.488479 0)
(0.161805 0.473517 0)
(0.136104 0.455528 0)
(0.11299 0.43636 0)
(0.091619 0.419942 0)