/*--------------------------------*- C++ -*----------------------------------*\
| =========                 |                                                 |
| \\      /  F ield         | OpenFOAM: The Open Source CFD Toolbox           |
|  \\    /   O peration     | Version:  2.3.0                                 |
|   \\  /    A nd           | Web:      www.OpenFOAM.org                      |
|    \\/     M anipulation  |                                                 |
\*---------------------------------------------------------------------------*/
FoamFile
{
    version     2.0;
    format      ascii;
    class       volScalarField;
    location    "0.178";
    object      p_rgh;
}
// * * * * * * * * * * * * * * * * * * * * * * * * * * * * * * * * * * * * * //

dimensions      [1 -1 -2 0 0 0 0];

internalField   nonuniform List<scalar> 
545
(
-8.7915e+07
-1.61722e+07
-2.1386e+06
-2.81423e+06
-9.40389e+06
6.33135e+07
-3.26174e+06
-2.53469e+06
-2.70522e+06
-7.63571e+06
1.10067e+08
3.99e+06
-365379
-425011
-8.01297e+06
6.3867e+07
-3.46186e+06
-2.02031e+06
-122961
-7.15179e+06
-1.01168e+08
-2.54383e+06
-471081
4.67169e+06
1.29069e+07
-7.77568e+06
-2.00699e+06
-799639
-81507.6
68007.3
86090.4
62900.8
45309.6
36013.9
30491.3
28202.3
25959
25437
24008
24178.5
23076.4
23537.3
22691.7
23410.8
22812.9
23831.4
23213.7
24331.2
23767
24650.1
23937.9
24788.9
23914.1
24770.7
23808.8
24676
23631
24304
22892.9
23137.6
21026.4
20708.2
18031
17078
13867.5
12628.8
9240.24
8085.85
5022.62
4423.63
-6.83981e+06
-1.24935e+06
-764933
-222528
-54253.8
21523.6
34720.6
35766.8
32925.3
30132
27908.1
26325.2
25186.3
24373.5
23896.9
23459.1
23213
23124.4
23062.4
23254.4
23431
23677.3
23893.5
24282.4
24210.3
24447.3
24335.1
24421.4
24305.9
24332.9
24203.3
24199.2
23819.3
23458.3
22650.3
21591.1
20179.1
18602.2
16553.6
14457.1
12063.1
9769.66
7332.98
4964.62
1263.6
-8.03281e+06
-608736
-456053
-99148.4
-18055.4
30695.9
34855.9
34134.3
32246.5
29523.7
27996.3
26052.5
25454.6
24110.8
24216
23196.5
23513.4
22856.4
23354.4
22967
23758.6
23373.1
24203.6
24018
24506.4
24140.9
24662.8
24086.2
24662
23985.6
24563.8
23863.5
24195.5
23097.8
23050.5
21198.1
20562.5
18241.5
16949.4
14093.4
12421.2
9321.44
7508.72
4547.99
3102.4
-8.49114e+06
682761
179435
141455
68267.7
62043.9
42442
35063.2
31878.2
29292.5
27788.8
26103
25357.5
24228.8
24159.8
23332.3
23395.4
23013.5
23188
23151.9
23609.8
23548.6
23994.1
24301.4
24226.3
24381
24419
24313.5
24422.2
24208
24306.6
24116.4
23929.3
23375.9
22786.8
21425.5
20275.3
18541.7
16681.5
14345.3
12122.4
9479.17
7066.66
4016.68
173.129
-1.85658e+06
3.67389e+06
1.29627e+06
416361
124900
67283.7
40166.4
31988.3
31173.8
28559
28117.5
25653
25856.5
23736.1
24781.1
22825.1
23923.8
22561.2
23647.5
22652.9
24205.2
22962.2
24462.5
23995.6
24537.9
23967.4
24880.9
23784.9
24968.8
23625.3
24838.8
23571.3
24481.7
22803.5
23405.6
20718.4
20836.2
18001.4
17274.8
13724.7
12696.8
8802.56
7471.03
3659.51
2330.4
-1.46676e+07
5.2531e+06
2.21485e+06
610452
142839
67229.7
38981.3
34957.2
33410.6
29733.4
27581.9
27775.1
28925.7
28642.5
26179.8
27789.5
26556.4
24329.7
22973.3
24095.5
27603.1
29059.8
26988.7
26791.1
28667.6
28310.2
26020.6
25159.5
26303
27359.6
25660.5
24477.4
23701.8
26065.7
26752.2
26485.5
23726.9
22311.9
20093.5
15248.3
11902.2
9957.35
9803.53
7367.66
3029.64
-1.01169e+08
-2.54556e+06
-473433
4.66954e+06
1.29057e+07
6.3866e+07
-3.46346e+06
-2.02237e+06
-124744
-7.15297e+06
1.10066e+08
3.98856e+06
-367042
-426329
-8.01398e+06
6.33126e+07
-3.26304e+06
-2.53582e+06
-2.70596e+06
-7.63653e+06
-8.79159e+07
-1.61734e+07
-2.13927e+06
-2.81448e+06
-9.40466e+06
-1.85765e+06
3.67444e+06
1.29607e+06
417426
124103
67769.4
39301
32696
30548.7
29489.7
27452.2
26569.4
25208.6
24599.7
24077.6
23664.4
23193.3
23445
22820.9
23535
23430.8
23756.8
23641
24792.6
23702.9
24766.5
24014.5
24671.2
24112.5
24501.6
23966.6
24484.9
23540.5
23639.7
22539.7
21518.9
19938.7
18789.1
16368.8
14582.4
11732.4
9759.59
6678.45
4826.09
1734.05
-8.49217e+06
683105
179892
142342
67652.5
61977.9
41747.6
35461.4
31693.9
30023.2
27633.3
26790
25164.7
24839.9
23873.4
23885.7
23076.2
23573.2
22794.9
23684.5
23215.7
23999
23527.2
24719
23728.7
24791.2
23923.1
24802.1
23962.5
24701.1
23833.3
24604.3
23380.8
23787.3
22246.2
21795.1
19689.4
18883.1
16086.2
14733.6
11551.7
10021.8
6703.08
4709.04
-163.664
-8.03361e+06
-608621
-455318
-98656.9
-18585
30184.4
34353.1
34278
32440.2
30075.6
28285
26560.4
25660.8
24512
24302
23506.6
23550.8
23138.2
23329.8
23205.2
23692.2
23524.5
24048.8
24104.3
24305.7
24213.4
24486.8
24231.6
24536.6
24148.8
24427.3
23989.3
23975.1
23138.4
22779.9
21178.9
20239.3
18187.1
16619.9
14078.2
12165.3
9491.4
7448.49
4879.56
3120.13
-6.84051e+06
-1.24928e+06
-764420
-222468
-54926.7
20791.1
34264.5
35824.4
33283.1
30678.2
28412
26833
25582.3
24743.5
24149.1
23720.6
23395.5
23329.3
23179.8
23399.5
23484.5
23733.7
23847.7
24253.1
24106.7
24399.3
24262
24442.5
24294.5
24384.9
24180.5
24194.6
23702
23350.3
22443.7
21405.6
19910.7
18379.1
16286.6
14279
11893.1
9760.15
7364.46
5136.64
1338.7
-7.77644e+06
-2.00699e+06
-799487
-81814
67223.8
85305.3
62465.1
45346.3
36386.8
31034.7
28819.6
26506.7
25905.6
24406.6
24500.9
23334.5
23764.2
22888.9
23581.3
22942.7
23916.8
23245
24314.4
23711.9
24578.8
23860.5
24740.2
23894.5
24784.4
23828.8
24681.1
23587.5
24210.2
22737.8
22933.1
20778.5
20430.6
17746.5
16813.6
13637.2
12460.6
9161.76
8096.74
5171.57
4577.66
)
;

boundaryField
{
    AirInlet
    {
        type            fixedFluxPressure;
        gradient        uniform 3.50549e+08;
        value           uniform -1.46641e+07;
    }
    WaterInlet
    {
        type            fixedFluxPressure;
        gradient        nonuniform List<scalar> 10(-0.021564 -0.0422454 0 0 -0.0496734 0.0248367 -0.0464528 -0.087799 -0.168982 -0.150948);
        value           nonuniform List<scalar> 10(-8.7915e+07 6.33135e+07 1.10067e+08 6.3867e+07 -1.01168e+08 -1.01169e+08 6.3866e+07 1.10066e+08 6.33126e+07 -8.79159e+07);
    }
    ChannelWall
    {
        type            fixedFluxPressure;
        gradient        uniform 0;
        value           nonuniform List<scalar> 
110
(
-1.01168e+08
-2.54383e+06
-471081
4.67169e+06
1.29069e+07
-1.01169e+08
-2.54556e+06
-473433
4.66954e+06
1.29057e+07
-8.79159e+07
-1.61734e+07
-2.13927e+06
-2.81448e+06
-9.40466e+06
-7.77644e+06
-2.00699e+06
-799487
-81814
67223.8
85305.3
62465.1
45346.3
36386.8
31034.7
28819.6
26506.7
25905.6
24406.6
24500.9
23334.5
23764.2
22888.9
23581.3
22942.7
23916.8
23245
24314.4
23711.9
24578.8
23860.5
24740.2
23894.5
24784.4
23828.8
24681.1
23587.5
24210.2
22737.8
22933.1
20778.5
20430.6
17746.5
16813.6
13637.2
12460.6
9161.76
8096.74
5171.57
4577.66
-8.7915e+07
-1.61722e+07
-2.1386e+06
-2.81423e+06
-9.40389e+06
-7.77568e+06
-2.00699e+06
-799639
-81507.6
68007.3
86090.4
62900.8
45309.6
36013.9
30491.3
28202.3
25959
25437
24008
24178.5
23076.4
23537.3
22691.7
23410.8
22812.9
23831.4
23213.7
24331.2
23767
24650.1
23937.9
24788.9
23914.1
24770.7
23808.8
24676
23631
24304
22892.9
23137.6
21026.4
20708.2
18031
17078
13867.5
12628.8
9240.24
8085.85
5022.62
4423.63
)
;
    }
    Outlet
    {
        type            totalPressure;
        rho             rho;
        psi             none;
        gamma           1;
        p0              uniform 0;
        value           uniform 0;
    }
    FrontAndBack
    {
        type            empty;
    }
}


// ************************************************************************* //
