/*--------------------------------*- C++ -*----------------------------------*\
| =========                 |                                                 |
| \\      /  F ield         | OpenFOAM: The Open Source CFD Toolbox           |
|  \\    /   O peration     | Version:  2.3.0                                 |
|   \\  /    A nd           | Web:      www.OpenFOAM.org                      |
|    \\/     M anipulation  |                                                 |
\*---------------------------------------------------------------------------*/
FoamFile
{
    version     2.0;
    format      ascii;
    class       volScalarField;
    location    "0.85";
    object      alpha.particles;
}
// * * * * * * * * * * * * * * * * * * * * * * * * * * * * * * * * * * * * * //

dimensions      [0 0 0 0 0 0 0];

internalField   nonuniform List<scalar> 
6000
(
0.424616
0.462269
0.462274
0.462275
0.46228
0.462281
0.462285
0.462284
0.462282
0.462282
0.462289
0.462291
0.462294
0.462293
0.462297
0.462298
0.462297
0.433408
0.436316
0.443542
0.456122
0.456123
0.456127
0.456125
0.452709
0.386145
0.419314
0.419566
0.419703
0.431285
0.424605
0.440339
0.446257
0.45438
0.454481
0.462284
0.462286
0.462287
0.438777
0.43842
0.440702
0.44576
0.435597
0.371371
0.404705
0.460299
0.462296
0.433407
0.433595
0.433595
0.434321
0.449624
0.456127
0.448076
0.35524
0.290425
0.301602
0.33619
0.297593
0.417738
0.453966
0.45407
0.454178
0.454277
0.446645
0.419612
0.412025
0.36424
0.306552
0.291363
0.291659
0.306683
0.297505
0.279336
0.309458
0.431536
0.463073
0.462294
0.462882
0.462294
0.463393
0.462287
0.455408
0.370514
0.290887
0.293618
0.288221
0.293618
0.290233
0.383496
0.453855
0.453968
0.454071
0.44153
0.357703
0.306283
0.284143
0.27683
0.279048
0.275082
0.279142
0.275348
0.279238
0.275374
0.279336
0.379371
0.462294
0.463431
0.462294
0.463436
0.451054
0.409257
0.332422
0.291245
0.293649
0.288597
0.29358
0.288041
0.293618
0.39012
0.442561
0.45386
0.443119
0.341318
0.287524
0.278864
0.276922
0.278955
0.27525
0.279048
0.274811
0.279142
0.274851
0.279238
0.278562
0.365524
0.463575
0.462294
0.445687
0.374604
0.319185
0.297011
0.29216
0.293618
0.289101
0.293595
0.28787
0.29358
0.290328
0.426195
0.313548
0.372509
0.330444
0.287493
0.278775
0.277966
0.278864
0.276139
0.278955
0.274841
0.279048
0.274601
0.279142
0.275506
0.279238
0.409735
0.462294
0.462261
0.312136
0.293189
0.293656
0.293268
0.293618
0.291122
0.29358
0.288355
0.293544
0.287907
0.293581
0.458834
0.222025
0.256683
0.25985
0.276319
0.278729
0.278775
0.276956
0.278864
0.275337
0.278955
0.274704
0.279048
0.274467
0.279142
0.30066
0.462289
0.463308
0.32177
0.292829
0.293696
0.293449
0.296756
0.293241
0.29358
0.290312
0.293544
0.287909
0.293544
0.290298
0.461281
0.221414
0.230221
0.247041
0.273634
0.281279
0.278098
0.278864
0.276542
0.278955
0.275265
0.279048
0.274571
0.279142
0.275491
0.343041
0.462756
0.39791
0.292869
0.293738
0.300954
0.331033
0.339228
0.300247
0.292325
0.293544
0.289484
0.29351
0.288309
0.293545
0.461309
0.221418
0.230962
0.251515
0.27094
0.283289
0.278864
0.277337
0.278955
0.276117
0.279048
0.275436
0.279142
0.274571
0.279238
0.368239
0.462288
0.325598
0.293781
0.293491
0.354569
0.401085
0.395236
0.340769
0.29358
0.291615
0.293544
0.28881
0.293544
0.290509
0.461539
0.221886
0.235511
0.270825
0.279382
0.283766
0.278324
0.278955
0.277075
0.279048
0.276126
0.279142
0.275409
0.279238
0.275585
0.35592
0.450682
0.300741
0.29293
0.313981
0.416837
0.45524
0.426835
0.390835
0.32013
0.29358
0.290983
0.293544
0.289654
0.293581
0.461459
0.222137
0.246596
0.305642
0.302882
0.2918
0.278955
0.277496
0.279048
0.276829
0.279142
0.276361
0.279238
0.275603
0.279336
0.317182
0.383214
0.30302
0.293826
0.353114
0.445006
0.473422
0.443084
0.426768
0.385061
0.305253
0.29358
0.290845
0.29358
0.292069
0.433049
0.222137
0.26832
0.344897
0.341045
0.315555
0.278718
0.279048
0.277749
0.279142
0.276936
0.279238
0.276385
0.279336
0.275991
0.283227
0.332412
0.30674
0.299089
0.380497
0.446615
0.475658
0.463042
0.463054
0.45291
0.374884
0.300352
0.29358
0.292517
0.293618
0.403533
0.234898
0.305656
0.38347
0.38923
0.356379
0.285799
0.27822
0.279142
0.277949
0.279238
0.277321
0.279336
0.276527
0.279435
0.278913
0.31748
0.34158
0.339544
0.380492
0.437741
0.480204
0.495803
0.504467
0.504343
0.47422
0.373837
0.309158
0.293866
0.318515
0.427082
0.285491
0.360849
0.428308
0.440866
0.409576
0.31655
0.279142
0.278756
0.279238
0.278182
0.279336
0.277301
0.279435
0.276365
0.279536
0.34034
0.427142
0.406854
0.389194
0.423985
0.491129
0.524642
0.532844
0.533775
0.52846
0.482717
0.39706
0.363728
0.410916
0.492323
0.367466
0.433057
0.480664
0.488736
0.470003
0.382279
0.299992
0.282006
0.280742
0.279336
0.278546
0.279435
0.2773
0.279536
0.283063
0.388357
0.5042
0.477016
0.426134
0.425016
0.4931
0.534308
0.53486
0.534313
0.5345
0.534265
0.511039
0.478405
0.492537
0.492547
0.451569
0.501339
0.521982
0.523478
0.51629
0.473239
0.367434
0.319854
0.309282
0.293453
0.279435
0.278752
0.279536
0.276894
0.290867
0.433911
0.52128
0.520873
0.488202
0.450454
0.487587
0.534838
0.534256
0.50115
0.476327
0.47434
0.456984
0.440943
0.468469
0.492534
0.510634
0.536595
0.542896
0.542236
0.53964
0.528857
0.474149
0.40198
0.368528
0.340849
0.308001
0.282523
0.278708
0.279639
0.289823
0.466431
0.521309
0.53056
0.527665
0.499389
0.487808
0.511982
0.399054
0.281093
0.263343
0.265383
0.261135
0.264543
0.279019
0.338692
0.538773
0.549934
0.55046
0.54837
0.546785
0.545286
0.533938
0.494155
0.443893
0.407164
0.369825
0.325622
0.2803
0.278192
0.295229
0.485321
0.52225
0.530539
0.536132
0.52681
0.504931
0.41539
0.234634
0.166899
0.165222
0.165123
0.165146
0.167235
0.183897
0.230236
0.551378
0.554597
0.551678
0.548411
0.545962
0.544238
0.543524
0.534995
0.504529
0.466638
0.437706
0.411594
0.324376
0.279744
0.320004
0.50045
0.5284
0.530209
0.536783
0.536111
0.516622
0.389669
0.218097
0.173602
0.169025
0.165178
0.165032
0.166687
0.192512
0.259266
0.554905
0.554904
0.551912
0.548331
0.544473
0.539192
0.539348
0.53861
0.528014
0.502551
0.486494
0.48593
0.424941
0.312722
0.374347
0.514152
0.534963
0.536927
0.539005
0.539086
0.525996
0.402365
0.245686
0.206189
0.196216
0.18801
0.18657
0.189152
0.221683
0.302808
0.554928
0.55489
0.550951
0.548369
0.545407
0.536708
0.532039
0.536659
0.532529
0.520594
0.516524
0.522078
0.513355
0.404563
0.451609
0.528857
0.53909
0.53901
0.539496
0.539004
0.531323
0.42883
0.29526
0.254602
0.240718
0.230509
0.227927
0.230029
0.263179
0.334465
0.554706
0.552432
0.546559
0.545484
0.545414
0.537214
0.527774
0.534778
0.536922
0.534377
0.537434
0.54293
0.54224
0.494002
0.512999
0.53897
0.538992
0.540865
0.539019
0.540328
0.538411
0.460332
0.350547
0.311103
0.294112
0.282752
0.278785
0.279864
0.309189
0.366418
0.467652
0.514276
0.535936
0.536324
0.543921
0.536153
0.527722
0.536868
0.543671
0.545676
0.549413
0.550527
0.544334
0.514256
0.532977
0.537096
0.513982
0.538916
0.541172
0.539019
0.539238
0.49057
0.409976
0.37468
0.354965
0.341901
0.336012
0.335732
0.358155
0.40268
0.215569
0.297246
0.450947
0.526809
0.540919
0.537
0.529325
0.542384
0.548783
0.550363
0.550582
0.550383
0.5102
0.463567
0.486162
0.44917
0.348377
0.423653
0.52994
0.541115
0.538994
0.510467
0.4669
0.439999
0.419333
0.404994
0.396876
0.394814
0.40744
0.439394
0.110527
0.12507
0.196242
0.32518
0.461995
0.536444
0.539785
0.548586
0.550477
0.550562
0.550471
0.543831
0.401025
0.319582
0.317599
0.271697
0.239802
0.238739
0.319879
0.496427
0.539656
0.51668
0.503819
0.490147
0.473844
0.461262
0.452356
0.448001
0.449502
0.469943
0.108356
0.108356
0.112716
0.144716
0.226568
0.401724
0.54767
0.550111
0.550567
0.550473
0.550525
0.527707
0.329698
0.240201
0.237611
0.239799
0.235886
0.239799
0.235771
0.371517
0.505348
0.516494
0.514463
0.510071
0.502591
0.495478
0.488778
0.482866
0.477975
0.489937
0.112498
0.116191
0.121938
0.138343
0.172695
0.239893
0.440782
0.549471
0.548362
0.545099
0.547169
0.530467
0.338684
0.239048
0.239799
0.237
0.239799
0.235125
0.239799
0.308913
0.480487
0.516396
0.515189
0.511703
0.508188
0.505234
0.501521
0.496983
0.492932
0.50085
0.139504
0.141331
0.148312
0.169532
0.216274
0.26664
0.333066
0.45456
0.461648
0.435873
0.539943
0.535335
0.366444
0.239799
0.237097
0.239799
0.2367
0.239799
0.235374
0.263112
0.45188
0.515859
0.513876
0.510358
0.50776
0.505546
0.502882
0.500275
0.499495
0.506765
0.191205
0.179496
0.185384
0.220057
0.283079
0.325574
0.330607
0.319667
0.267769
0.230184
0.39532
0.52934
0.37666
0.242815
0.239799
0.237113
0.239799
0.236549
0.239799
0.238599
0.411862
0.505875
0.510223
0.50817
0.50739
0.505714
0.503395
0.501645
0.503095
0.510436
0.254838
0.222708
0.229906
0.274264
0.331956
0.343356
0.33135
0.256678
0.208474
0.210693
0.216629
0.406737
0.380254
0.26624
0.238888
0.239799
0.237344
0.239799
0.237303
0.239799
0.388022
0.494632
0.509768
0.509534
0.509017
0.506911
0.504585
0.503495
0.505967
0.51309
0.321019
0.270523
0.282193
0.322252
0.346873
0.343172
0.289567
0.209587
0.210692
0.208147
0.210693
0.258427
0.361566
0.29276
0.239799
0.237972
0.239799
0.238044
0.239799
0.239357
0.38618
0.504557
0.513646
0.513642
0.512213
0.50838
0.505843
0.505451
0.508195
0.515134
0.391771
0.32851
0.33612
0.352561
0.346767
0.304249
0.239031
0.210692
0.209167
0.210692
0.206022
0.210695
0.303207
0.307701
0.255055
0.239799
0.238185
0.239799
0.239418
0.268181
0.40085
0.511342
0.513642
0.513647
0.513297
0.508146
0.50596
0.506465
0.509498
0.516835
0.462958
0.394337
0.384811
0.369143
0.331304
0.277234
0.22837
0.210187
0.210692
0.209015
0.210692
0.204496
0.233623
0.308539
0.288392
0.239542
0.239799
0.239631
0.263899
0.332438
0.429572
0.488251
0.507533
0.510548
0.50756
0.504591
0.504621
0.506456
0.510122
0.518693
0.507982
0.458896
0.430593
0.386504
0.332574
0.288851
0.249161
0.21687
0.210317
0.210692
0.206078
0.210692
0.207404
0.316009
0.33636
0.260029
0.242104
0.264095
0.32093
0.396677
0.445695
0.456298
0.465298
0.483004
0.496527
0.499856
0.502864
0.506253
0.510956
0.521443
0.531705
0.506984
0.478546
0.425755
0.368539
0.325871
0.292141
0.246356
0.221609
0.210071
0.210692
0.203103
0.210694
0.33448
0.390649
0.311161
0.277955
0.317637
0.393157
0.446864
0.456321
0.456361
0.456423
0.471444
0.491184
0.498266
0.502925
0.50726
0.51351
0.525775
0.544917
0.532095
0.514719
0.482737
0.433197
0.381271
0.338222
0.29054
0.253817
0.21511
0.206444
0.210692
0.203851
0.334673
0.442041
0.387016
0.353354
0.387139
0.450083
0.477393
0.470992
0.461264
0.464373
0.481005
0.496081
0.502415
0.506947
0.511503
0.519206
0.531735
0.552031
0.54528
0.535263
0.520004
0.492428
0.44446
0.37812
0.342604
0.300244
0.236244
0.210692
0.203194
0.210693
0.285012
0.473216
0.464003
0.432644
0.447223
0.477567
0.49106
0.487783
0.482225
0.488496
0.500366
0.507898
0.512072
0.515404
0.519632
0.527702
0.538567
0.555824
0.552733
0.546885
0.538132
0.524898
0.496347
0.431028
0.39561
0.351502
0.273939
0.20682
0.210692
0.203222
0.210958
0.477954
0.512431
0.475856
0.479196
0.488488
0.498152
0.502068
0.504705
0.51024
0.516063
0.519944
0.523008
0.525718
0.529893
0.537128
0.545209
0.557035
0.556572
0.553711
0.548242
0.54032
0.527231
0.493861
0.441457
0.405275
0.313302
0.210692
0.203252
0.210692
0.205781
0.38621
0.512682
0.501564
0.496643
0.497083
0.505864
0.512374
0.517348
0.521915
0.526125
0.529621
0.532649
0.535567
0.539895
0.545671
0.550898
0.557042
0.557041
0.557007
0.55409
0.548772
0.541225
0.526845
0.490049
0.459229
0.342825
0.207055
0.210692
0.203985
0.210693
0.251188
0.49105
0.529198
0.516562
0.511453
0.51647
0.521766
0.526046
0.529933
0.533751
0.537326
0.540523
0.54384
0.548198
0.552169
0.554786
0.556485
0.557003
0.557042
0.556743
0.553164
0.548149
0.540048
0.523444
0.492713
0.36047
0.210693
0.206026
0.210692
0.205451
0.210694
0.377172
0.533422
0.533405
0.527908
0.529037
0.53213
0.534945
0.537616
0.540516
0.543516
0.546468
0.54976
0.553448
0.555633
0.555859
0.545343
0.549614
0.556912
0.556708
0.554381
0.551056
0.545852
0.535872
0.510716
0.386678
0.209634
0.210692
0.206458
0.210693
0.208941
0.286614
0.512674
0.538075
0.538679
0.539732
0.541784
0.54361
0.544999
0.546346
0.547838
0.549781
0.552383
0.554435
0.554459
0.555848
0.407101
0.428523
0.543533
0.552943
0.55299
0.551221
0.54819
0.54141
0.519339
0.408088
0.233189
0.209401
0.210693
0.206911
0.210693
0.278473
0.489508
0.537962
0.544561
0.546394
0.548317
0.549848
0.550467
0.550545
0.55014
0.549852
0.551072
0.553365
0.533058
0.553759
0.294036
0.286893
0.439988
0.538806
0.548788
0.549655
0.548425
0.541798
0.510301
0.41632
0.325727
0.22615
0.208778
0.210693
0.20951
0.31199
0.487434
0.538798
0.547309
0.548967
0.550924
0.552082
0.552186
0.552185
0.551233
0.548015
0.544704
0.542332
0.419649
0.481197
0.308502
0.286486
0.299993
0.45272
0.536227
0.547002
0.547437
0.534999
0.485944
0.434595
0.454204
0.29467
0.210693
0.208195
0.210693
0.382475
0.497508
0.537913
0.546502
0.548034
0.550527
0.546266
0.552145
0.552188
0.551731
0.546992
0.537866
0.491251
0.400465
0.423611
0.372659
0.28786
0.287914
0.322471
0.469598
0.540696
0.543642
0.522141
0.487614
0.480639
0.516839
0.388253
0.212803
0.210693
0.219537
0.413652
0.491747
0.529045
0.540749
0.541776
0.544348
0.519142
0.542721
0.551509
0.551709
0.547682
0.539711
0.436346
0.400476
0.473699
0.469748
0.348467
0.327717
0.321982
0.36269
0.460317
0.516513
0.522023
0.5148
0.525321
0.532382
0.437525
0.21923
0.210418
0.268929
0.421895
0.49162
0.523436
0.538304
0.538088
0.48593
0.360388
0.39421
0.49883
0.54616
0.54744
0.503368
0.451576
0.475736
0.527583
0.52294
0.466743
0.421605
0.388081
0.373976
0.383104
0.407895
0.501194
0.539177
0.540032
0.535809
0.414822
0.24947
0.23682
0.365119
0.467861
0.512004
0.520981
0.48512
0.408513
0.327874
0.317796
0.318091
0.418581
0.490952
0.509433
0.502638
0.511474
0.534379
0.546261
0.53531
0.529567
0.509016
0.479424
0.4439
0.40694
0.40705
0.451122
0.539986
0.539936
0.535818
0.395796
0.301482
0.298176
0.467846
0.519785
0.520205
0.449386
0.338371
0.293242
0.292827
0.32924
0.383434
0.438261
0.48528
0.512946
0.527789
0.542304
0.548067
0.550136
0.522997
0.537291
0.536849
0.526456
0.510134
0.473856
0.425908
0.448164
0.539851
0.539988
0.499046
0.404329
0.359507
0.364723
0.523703
0.526334
0.516997
0.364706
0.306626
0.302552
0.337131
0.410587
0.475891
0.503159
0.520923
0.535765
0.545015
0.549
0.549046
0.548413
0.521135
0.537301
0.541451
0.539831
0.535218
0.522288
0.485457
0.467774
0.516511
0.508592
0.358469
0.401686
0.397233
0.391845
0.52547
0.526033
0.483057
0.383505
0.349007
0.36758
0.424929
0.489991
0.518924
0.530594
0.539551
0.546008
0.549176
0.549361
0.548889
0.544145
0.521129
0.53225
0.54164
0.54193
0.541898
0.538113
0.524643
0.506784
0.446766
0.313785
0.216251
0.327571
0.385844
0.35951
0.431918
0.496632
0.463876
0.438916
0.432087
0.455969
0.494643
0.522537
0.532816
0.540236
0.546029
0.549092
0.549918
0.549344
0.545156
0.539736
0.521923
0.515316
0.535555
0.538781
0.541917
0.541901
0.537725
0.515421
0.352864
0.206769
0.207819
0.21429
0.301116
0.269672
0.274159
0.345396
0.427066
0.480657
0.494816
0.510539
0.525169
0.534207
0.53997
0.545414
0.54915
0.549951
0.549912
0.547661
0.542134
0.539366
0.523096
0.439715
0.476232
0.489349
0.526632
0.541866
0.541836
0.489365
0.247883
0.207819
0.2049
0.207819
0.209862
0.208771
0.208902
0.234659
0.362243
0.478521
0.5088
0.527224
0.53692
0.54102
0.544552
0.54864
0.549998
0.549918
0.544548
0.541862
0.538587
0.539227
0.484453
0.363575
0.385008
0.394461
0.418958
0.488347
0.520654
0.340478
0.20782
0.2074
0.207819
0.204496
0.207819
0.206608
0.207819
0.209008
0.296574
0.454123
0.520147
0.536222
0.54296
0.543389
0.54611
0.549958
0.549934
0.543659
0.495952
0.448389
0.486659
0.539233
0.413961
0.363613
0.363451
0.363294
0.374152
0.400155
0.395004
0.253096
0.210558
0.207819
0.206356
0.207819
0.20539
0.207819
0.20756
0.210285
0.258963
0.376252
0.530849
0.539881
0.539888
0.532144
0.539528
0.549185
0.549806
0.481831
0.397414
0.377753
0.37832
0.503667
0.408333
0.363456
0.363294
0.363132
0.366519
0.363918
0.316795
0.246232
0.227427
0.209622
0.207819
0.205612
0.207819
0.206753
0.207819
0.212985
0.236945
0.309628
0.479919
0.516636
0.475456
0.396547
0.467651
0.529065
0.506869
0.417333
0.383679
0.383064
0.375901
0.440528
0.439821
0.363618
0.363515
0.36297
0.362808
0.358813
0.313761
0.249776
0.247679
0.216714
0.206632
0.207819
0.20571
0.207819
0.20904
0.216744
0.226991
0.268804
0.312768
0.290587
0.255839
0.21864
0.263464
0.362587
0.413767
0.412641
0.408247
0.409434
0.37611
0.437082
0.49524
0.400239
0.390655
0.370376
0.365421
0.357608
0.331815
0.271672
0.263804
0.221986
0.207819
0.206458
0.207819
0.206863
0.212325
0.221706
0.223484
0.234814
0.212229
0.207029
0.207819
0.20703
0.207819
0.257513
0.363016
0.417038
0.417137
0.416027
0.389162
0.452692
0.53391
0.490515
0.447825
0.407527
0.388753
0.373448
0.3519
0.315755
0.275686
0.215433
0.206871
0.207819
0.206333
0.207819
0.214772
0.22556
0.225367
0.227221
0.206514
0.207819
0.20723
0.207819
0.207591
0.248055
0.335651
0.396997
0.4145
0.417323
0.410678
0.4806
0.551481
0.538093
0.514819
0.475927
0.433353
0.403234
0.38065
0.36808
0.285783
0.207543
0.207819
0.206985
0.207819
0.206947
0.216489
0.228229
0.231501
0.224926
0.207819
0.2074
0.207819
0.209452
0.231244
0.27441
0.330173
0.385098
0.416347
0.43735
0.460977
0.515028
0.556671
0.552794
0.544002
0.52766
0.498131
0.454008
0.42744
0.419512
0.305281
0.207819
0.207438
0.207819
0.20687
0.207819
0.218132
0.230395
0.236855
0.212414
0.206338
0.207819
0.218286
0.24305
0.28262
0.322636
0.368929
0.416956
0.453909
0.485526
0.515306
0.539368
0.556695
0.556663
0.553564
0.546688
0.534569
0.513382
0.486447
0.459454
0.356513
0.243517
0.207819
0.20745
0.207819
0.207317
0.219353
0.233337
0.237354
0.2069
0.207819
0.212485
0.251278
0.300059
0.345409
0.386762
0.433833
0.475134
0.504812
0.526641
0.541761
0.552139
0.552517
0.55614
0.556011
0.553029
0.547385
0.537176
0.519672
0.495038
0.416304
0.343974
0.242084
0.207819
0.207526
0.207819
0.219291
0.23621
0.236863
0.207851
0.207229
0.231094
0.303839
0.366417
0.413434
0.460758
0.497715
0.520375
0.535044
0.545745
0.553077
0.55788
0.546125
0.552391
0.555358
0.554402
0.551742
0.546466
0.535664
0.512102
0.459415
0.438941
0.331078
0.233794
0.20873
0.207727
0.218461
0.236863
0.238357
0.20671
0.207819
0.270236
0.372365
0.442519
0.486327
0.515374
0.531116
0.540866
0.548446
0.554263
0.558085
0.560041
0.541253
0.546939
0.55267
0.553316
0.552451
0.549941
0.544228
0.531225
0.504062
0.463861
0.423176
0.307952
0.228665
0.210855
0.217978
0.237095
0.236863
0.207819
0.223535
0.337377
0.45703
0.504602
0.525284
0.537167
0.544131
0.549576
0.554569
0.558228
0.560026
0.560308
0.53823
0.540346
0.548357
0.550086
0.550947
0.550177
0.547785
0.540986
0.521938
0.471832
0.462233
0.417738
0.292828
0.227712
0.21885
0.234357
0.231999
0.207793
0.26654
0.424838
0.515242
0.529988
0.539314
0.544617
0.548435
0.553179
0.557561
0.559665
0.559686
0.559362
0.473853
0.395305
0.526889
0.541394
0.547305
0.54824
0.548236
0.544421
0.519606
0.46526
0.462291
0.483343
0.395047
0.268725
0.220903
0.226119
0.223963
0.223995
0.340029
0.481012
0.532306
0.540682
0.544293
0.545233
0.54859
0.554933
0.558981
0.559189
0.555233
0.555573
0.331319
0.243273
0.342388
0.481394
0.536297
0.543759
0.547042
0.545325
0.519106
0.462409
0.462346
0.489591
0.461048
0.308506
0.224136
0.217968
0.227135
0.285468
0.432395
0.487852
0.535287
0.544908
0.544885
0.541611
0.547328
0.555991
0.557491
0.551958
0.540462
0.54477
0.335269
0.240336
0.240486
0.312898
0.433172
0.528047
0.542833
0.543678
0.521694
0.472784
0.491785
0.511039
0.464996
0.312244
0.227465
0.214529
0.253816
0.386037
0.495769
0.487956
0.524719
0.544881
0.543622
0.534697
0.545245
0.555908
0.551774
0.522496
0.359959
0.448528
0.440749
0.29783
0.285844
0.285886
0.304969
0.397129
0.523622
0.538693
0.52409
0.510267
0.526951
0.523824
0.434827
0.299436
0.229449
0.213129
0.296405
0.470254
0.516655
0.502167
0.513932
0.542456
0.540683
0.527757
0.542678
0.555444
0.53663
0.343226
0.177229
0.278073
0.504643
0.415232
0.38337
0.340312
0.305089
0.309873
0.42417
0.51578
0.526318
0.530881
0.530885
0.486782
0.355048
0.273042
0.229126
0.210021
0.321883
0.513296
0.522803
0.521377
0.518025
0.540083
0.544304
0.527726
0.534134
0.543665
0.377608
0.198895
0.160528
0.2403
0.533298
0.510911
0.480004
0.432804
0.381521
0.347631
0.380789
0.477175
0.522369
0.527736
0.520385
0.389655
0.271237
0.242062
0.226756
0.207558
0.312548
0.5229
0.529984
0.534399
0.531153
0.543472
0.55119
0.536899
0.512002
0.400932
0.247072
0.192345
0.160494
0.26186
0.536719
0.537222
0.525784
0.509346
0.477312
0.434988
0.444648
0.489113
0.51509
0.509401
0.470063
0.296523
0.22514
0.216355
0.219307
0.20782
0.279721
0.513672
0.533161
0.543652
0.545187
0.550125
0.556051
0.551297
0.499216
0.325563
0.308341
0.233377
0.178045
0.284789
0.51888
0.537304
0.537345
0.534623
0.527939
0.506697
0.507525
0.519167
0.520374
0.505994
0.38822
0.249507
0.211266
0.210313
0.210853
0.207105
0.258703
0.472838
0.531121
0.54994
0.555047
0.556181
0.556769
0.556868
0.535841
0.423028
0.402393
0.295718
0.215747
0.313226
0.492407
0.537301
0.537417
0.537458
0.540362
0.533868
0.531432
0.534756
0.535757
0.510524
0.323192
0.238755
0.211026
0.210361
0.21394
0.209363
0.27554
0.472611
0.540635
0.550273
0.555488
0.556719
0.557223
0.556776
0.556232
0.528895
0.474369
0.363493
0.270847
0.355077
0.486431
0.491587
0.525601
0.508136
0.540305
0.540682
0.540364
0.540605
0.540289
0.474877
0.320994
0.249902
0.229917
0.23857
0.259525
0.277706
0.352091
0.496081
0.540783
0.512509
0.523269
0.546256
0.556665
0.557222
0.556748
0.55158
0.515317
0.422736
0.341967
0.404984
0.482117
0.338854
0.355353
0.338583
0.493165
0.540321
0.541046
0.540356
0.528516
0.45853
0.358606
0.31185
0.30537
0.328117
0.368386
0.407589
0.458234
0.478571
0.424929
0.292038
0.300491
0.470396
0.539473
0.556639
0.557128
0.553408
0.495642
0.440688
0.400276
0.451126
0.477022
0.301257
0.303765
0.301439
0.353972
0.526941
0.540303
0.53745
0.366097
0.428944
0.426009
0.413234
0.414163
0.414452
0.414423
0.414425
0.393536
0.295621
0.180041
0.122805
0.127421
0.208313
0.395518
0.538213
0.552145
0.542482
0.40233
0.377341
0.411196
0.488069
0.407401
0.303767
0.301993
0.303765
0.303354
0.416148
0.478743
0.334045
0.169307
0.285776
0.403711
0.414409
0.414422
0.412154
0.35941
0.272577
0.190324
0.12362
0.101136
0.101223
0.100923
0.104766
0.166757
0.346326
0.4684
0.428932
0.355628
0.35645
0.355506
0.506793
0.35776
0.302242
0.303765
0.302762
0.303765
0.359985
0.348292
0.206619
0.108517
0.135825
0.23546
0.284603
0.282087
0.238443
0.170508
0.119329
0.103564
0.100337
0.101126
0.100649
0.101223
0.100768
0.106098
0.210511
0.344458
0.360678
0.35645
0.354706
0.356456
0.48951
0.378338
0.303765
0.308486
0.303765
0.317452
0.370272
0.329941
0.169637
0.10111
0.101412
0.115256
0.127695
0.125166
0.111142
0.100365
0.100953
0.100527
0.101056
0.100303
0.101126
0.100747
0.101223
0.100656
0.159416
0.31851
0.380825
0.356179
0.35645
0.354707
0.405692
0.457213
0.360633
0.381656
0.35644
0.38114
0.442114
0.346348
0.143303
0.101201
0.100804
0.101128
0.100959
0.101046
0.100322
0.100953
0.0992671
0.100953
0.100267
0.101056
0.100392
0.101126
0.100686
0.101223
0.127109
0.318157
0.414021
0.370569
0.356045
0.35645
0.386446
0.500921
0.465705
0.470221
0.442245
0.449518
0.486371
0.339194
0.117086
0.100704
0.101126
0.100829
0.101046
0.100586
0.100955
0.0992602
0.100879
0.100324
0.100953
0.100186
0.101056
0.100547
0.101146
0.100428
0.103839
0.256145
0.427258
0.428432
0.368536
0.358065
0.494748
0.520378
0.519958
0.517607
0.503135
0.495245
0.49502
0.256929
0.104201
0.101126
0.100619
0.101049
0.100753
0.100957
0.0997776
0.100879
0.0988036
0.100879
0.100171
0.100953
0.100451
0.101056
0.100552
0.101126
0.100924
0.157495
0.424384
0.488009
0.444521
0.483085
0.53193
0.483137
0.492666
0.521251
0.521307
0.515432
0.469218
0.166715
0.101127
0.100514
0.101044
0.100676
0.10096
0.10017
0.100883
0.0986381
0.10079
0.100203
0.100879
0.100124
0.100953
0.100564
0.101056
0.100206
0.101126
0.118759
0.27903
0.506168
0.509525
0.527999
0.534327
0.428359
0.33376
0.477466
0.521249
0.503958
0.276847
0.125252
0.100682
0.101044
0.10044
0.100959
0.100421
0.100889
0.099222
0.10079
0.0983217
0.10079
0.100233
0.100879
0.100292
0.100954
0.100576
0.101056
0.100617
0.112005
0.168168
0.42876
0.529375
0.529343
0.529437
0.406847
0.302104
0.334196
0.478369
0.361607
0.152019
0.104289
0.101044
0.100279
0.100953
0.100393
0.10089
0.099763
0.100797
0.0980253
0.100707
0.100077
0.10079
0.100238
0.100879
0.10044
0.100953
0.100231
0.101056
0.111041
0.141126
0.247406
0.474905
0.525957
0.534281
0.400798
0.301944
0.301701
0.351369
0.225294
0.11749
0.101044
0.100376
0.100953
0.100181
0.100886
0.100141
0.100805
0.0985573
0.100697
0.0979828
0.100707
0.100334
0.10079
0.100273
0.100879
0.100506
0.100953
0.100607
0.112253
0.140782
0.172952
0.262585
0.373088
0.466615
0.411419
0.301756
0.301515
0.301276
0.182736
0.108208
0.100756
0.100953
0.0999702
0.100879
0.100212
0.100796
0.0992298
0.100704
0.0973807
0.100621
0.100128
0.100707
0.10027
0.10079
0.100398
0.100879
0.100266
0.100953
0.115004
0.152271
0.168653
0.183886
0.185713
0.324246
0.49718
0.301998
0.301755
0.306624
0.169266
0.104839
0.100953
0.0999889
0.100879
0.100049
0.100793
0.0997774
0.1007
0.0977769
0.100617
0.097627
0.100621
0.100571
0.100707
0.100351
0.10079
0.100496
0.100879
0.100598
0.118403
0.161472
0.174163
0.183313
0.183422
0.261611
0.537704
0.471975
0.388221
0.344644
0.162271
0.103574
0.100423
0.100879
0.099793
0.10079
0.0999842
0.100697
0.0985428
0.100617
0.0968395
0.100534
0.10034
0.104371
0.100657
0.10079
0.100494
0.100879
0.100415
0.100953
0.124298
0.168281
0.175751
0.191564
0.182563
0.255257
0.545824
0.528366
0.461669
0.3775
0.156
0.102938
0.100879
0.0997366
0.10079
0.0998857
0.100697
0.0992816
0.100617
0.097225
0.100517
0.0971651
0.107854
0.116916
0.103725
0.100726
0.100879
0.100662
0.100953
0.100926
0.133516
0.174266
0.17861
0.191863
0.183564
0.254994
0.545872
0.54255
0.506035
0.386106
0.146415
0.102519
0.100266
0.10079
0.0995981
0.100697
0.0996179
0.100617
0.0981252
0.100517
0.0962342
0.100442
0.117627
0.134998
0.11543
0.10088
0.10082
0.100953
0.100888
0.101805
0.146372
0.177875
0.182897
0.194079
0.1827
0.25285
0.545907
0.545425
0.529523
0.3308
0.131066
0.102102
0.10079
0.0994789
0.100697
0.0995905
0.100617
0.0990041
0.100517
0.0967452
0.100432
0.0961639
0.122656
0.153191
0.138494
0.112282
0.101055
0.100971
0.101333
0.116977
0.164028
0.183966
0.184748
0.19389
0.183704
0.248475
0.545923
0.545887
0.533442
0.237967
0.113913
0.1014
0.10005
0.100697
0.0993265
0.100617
0.0993962
0.100517
0.0978234
0.100432
0.0958933
0.100346
0.112395
0.16794
0.173394
0.142886
0.115772
0.108254
0.117212
0.14751
0.181127
0.191029
0.192312
0.200793
0.183547
0.238872
0.536751
0.545588
0.428141
0.16444
0.10563
0.100894
0.100697
0.0992156
0.100617
0.0993965
0.100517
0.0987672
0.100432
0.0965814
0.100326
0.0957851
0.100346
0.177445
0.215006
0.19055
0.155166
0.138602
0.151356
0.182779
0.196911
0.203871
0.204832
0.218262
0.204218
0.299926
0.446935
0.452384
0.295701
0.138046
0.103484
0.100698
0.0997742
0.100618
0.0991399
0.100518
0.0991396
0.100432
0.0977608
0.100326
0.0958619
0.100249
0.0966503
0.177008
0.251619
0.256696
0.219387
0.187183
0.191754
0.215914
0.218218
0.233499
0.242692
0.267165
0.319163
0.502158
0.396528
0.345526
0.254778
0.142696
0.103086
0.100471
0.100618
0.0989743
0.100519
0.099074
0.100432
0.098569
0.100326
0.0964778
0.100247
0.0959175
0.100249
0.13639
0.27082
0.328407
0.304099
0.24821
0.231161
0.250365
0.261724
0.291287
0.33028
0.413015
0.523924
0.562256
0.382547
0.313728
0.273365
0.154849
0.103129
0.100707
0.0995106
0.100618
0.0988999
0.100522
0.0989257
0.100432
0.0976194
0.100326
0.0959383
0.100249
0.0964825
0.10035
0.234319
0.365634
0.389787
0.319137
0.276017
0.297094
0.334714
0.392588
0.478285
0.541822
0.563017
0.566076
0.375936
0.304542
0.28482
0.17047
0.105465
0.100427
0.100707
0.0988231
0.100618
0.0989278
0.100518
0.098585
0.100432
0.0965102
0.100326
0.0959978
0.100346
0.0980613
0.146465
0.35383
0.42964
0.383955
0.334175
0.36893
0.434263
0.510904
0.549156
0.564784
0.566093
0.566136
0.367531
0.297707
0.29366
0.188222
0.112114
0.100792
0.0993566
0.100707
0.0987802
0.100625
0.0988625
0.100517
0.0978028
0.100432
0.0960386
0.100346
0.0970057
0.100442
0.0998954
0.25287
0.429705
0.429772
0.40598
0.459879
0.519872
0.551334
0.564047
0.566061
0.566132
0.566
0.361211
0.297893
0.299086
0.207933
0.122442
0.100531
0.100792
0.0986264
0.100707
0.0988235
0.100622
0.0986584
0.100517
0.0967932
0.100432
0.0964516
0.100442
0.0989003
0.100534
0.168007
0.418947
0.461408
0.477519
0.522158
0.549513
0.562673
0.566011
0.566123
0.565754
0.538328
0.357051
0.297845
0.302291
0.22905
0.134448
0.100879
0.0993883
0.100792
0.098686
0.100717
0.0988215
0.100617
0.0980737
0.100517
0.0964089
0.100442
0.0978346
0.100534
0.100006
0.149132
0.402346
0.488818
0.518151
0.544577
0.560182
0.565928
0.566096
0.565674
0.539221
0.47282
0.353651
0.298206
0.305159
0.249023
0.148378
0.100788
0.100879
0.0983947
0.100792
0.0987419
0.100711
0.0987411
0.100617
0.0971188
0.100517
0.0969144
0.100534
0.0993543
0.100621
0.155577
0.421446
0.504524
0.534448
0.554926
0.56485
0.565988
0.565558
0.528603
0.302141
0.144233
0.351824
0.297865
0.309064
0.267709
0.166369
0.101112
0.0996375
0.100879
0.0985744
0.100804
0.0987844
0.100708
0.098287
0.100617
0.0967299
0.100534
0.0984102
0.100621
0.100138
0.159552
0.437014
0.512305
0.544148
0.560826
0.565708
0.565584
0.525907
0.259048
0.113148
0.0895054
0.356528
0.298427
0.313902
0.284756
0.191909
0.107183
0.100954
0.0982113
0.100879
0.0986646
0.100799
0.0988028
0.100706
0.0973144
0.100617
0.0973558
0.100621
0.0994731
0.100707
0.156701
0.435996
0.521696
0.550647
0.563521
0.565422
0.550326
0.368334
0.146492
0.0895049
0.0895047
0.373722
0.298502
0.322809
0.301084
0.225099
0.121606
0.100173
0.100954
0.0984746
0.100885
0.0987496
0.100793
0.0984453
0.100706
0.0968744
0.100621
0.0986649
0.100707
0.100379
0.152355
0.40921
0.527941
0.554514
0.563448
0.561613
0.528465
0.274315
0.125548
0.0994678
0.0895758
0.418027
0.311884
0.339435
0.31834
0.259366
0.140771
0.101045
0.0982786
0.100954
0.0985701
0.100882
0.0988521
0.10079
0.0974433
0.100706
0.0976087
0.100707
0.0996298
0.10079
0.147147
0.381755
0.533537
0.555424
0.559958
0.54892
0.485094