/*--------------------------------*- C++ -*----------------------------------*\
| =========                 |                                                 |
| \\      /  F ield         | OpenFOAM: The Open Source CFD Toolbox           |
|  \\    /   O peration     | Version:  2.3.0                                 |
|   \\  /    A nd           | Web:      www.OpenFOAM.org                      |
|    \\/     M anipulation  |                                                 |
\*---------------------------------------------------------------------------*/
FoamFile
{
    version     2.0;
    format      ascii;
    class       volVectorField;
    location    "0.300064";
    object      U.air;
}
// * * * * * * * * * * * * * * * * * * * * * * * * * * * * * * * * * * * * * //

dimensions      [0 1 -1 0 0 0 0];

internalField   nonuniform List<vector> 
18816
(
(0.00297069 -0.0312826 0.00342809)
(0.00303273 -0.0249442 0.00383874)
(-0.00210239 -0.0265986 0.00388801)
(-0.00290041 -0.0274113 0.00391342)
(-0.00463073 -0.0274824 0.00389017)
(-0.00589145 -0.0276107 0.0038974)
(-0.00717308 -0.0280457 0.00391627)
(-0.00797117 -0.0288858 0.00395807)
(-0.00841502 -0.0302928 0.0040324)
(-0.00800624 -0.0321186 0.00408722)
(-0.00683416 -0.0332025 0.00411299)
(-0.00536679 -0.0341854 0.00411958)
(-0.00340769 -0.0349334 0.00411277)
(-0.00162923 -0.0347056 0.00409656)
(6.43107e-05 -0.0351155 0.00409836)
(0.00214627 -0.0349915 0.00408959)
(0.00362893 -0.0342163 0.00409074)
(0.005688 -0.0350458 0.00409467)
(0.00849625 -0.0336921 0.00411949)
(0.00959374 -0.0311537 0.00404905)
(0.00918073 -0.0291485 0.00397071)
(0.00813493 -0.0279615 0.00390731)
(0.00661171 -0.0273673 0.00387809)
(0.00515166 -0.0272415 0.00386673)
(0.0032269 -0.0272701 0.00390205)
(0.00229248 -0.0264823 0.00387575)
(-0.00285783 -0.0248736 0.00383153)
(-0.00290205 -0.0312203 0.00342243)
(0.00147513 -0.0588027 0.000770245)
(0.000506245 -0.0403179 0.00165519)
(-0.00270437 -0.0428699 0.00146844)
(-0.00320695 -0.0437375 0.001499)
(-0.00466374 -0.0435223 0.00146029)
(-0.00601717 -0.0433709 0.00144738)
(-0.00750101 -0.043657 0.00139066)
(-0.00864403 -0.0442629 0.00130449)
(-0.00918719 -0.0450036 0.00120458)
(-0.00846558 -0.0460034 0.00108546)
(-0.00690774 -0.0459352 0.00104617)
(-0.00520981 -0.0459463 0.00102848)
(-0.00309791 -0.0459066 0.00105548)
(-0.00144079 -0.0454267 0.00110866)
(-9.01414e-05 -0.0456402 0.00110747)
(0.0017751 -0.0455492 0.00107768)
(0.00296354 -0.0452617 0.00106969)
(0.00530548 -0.0468067 0.000934752)
(0.00908095 -0.0468808 0.000957175)
(0.0107619 -0.0449983 0.00113561)
(0.0102458 -0.0438508 0.00128506)
(0.00872287 -0.0430585 0.00139193)
(0.00683423 -0.0427511 0.00146077)
(0.00515099 -0.0429583 0.00147528)
(0.0035101 -0.0433452 0.00150683)
(0.00287633 -0.0426299 0.00147993)
(-0.000441504 -0.040184 0.0016665)
(-0.001479 -0.0585324 0.000766868)
(0.000808953 -0.0666694 -0.000284406)
(-0.000456857 -0.055732 0.000262378)
(-0.0027358 -0.0583118 4.47551e-05)
(-0.00325195 -0.0593316 6.51693e-05)
(-0.00454879 -0.0591071 -2.13672e-05)
(-0.00590503 -0.0587513 -0.000130304)
(-0.00729095 -0.0585124 -0.000345561)
(-0.00824713 -0.0585138 -0.000576712)
(-0.00866391 -0.0584526 -0.000760828)
(-0.00824632 -0.0576603 -0.00102109)
(-0.00711048 -0.0549111 -0.00131551)
(-0.00551434 -0.0520293 -0.00162961)
(-0.00329924 -0.0499482 -0.00186258)
(-0.00150513 -0.049166 -0.00182187)
(-3.94289e-05 -0.0485829 -0.00193182)
(0.00188228 -0.0488298 -0.0018754)
(0.00263797 -0.050211 -0.00167218)
(0.00542843 -0.0509406 -0.00196623)
(0.00975037 -0.0544588 -0.00140569)
(0.0105958 -0.0569741 -0.000784822)
(0.00964924 -0.0574278 -0.000584259)
(0.0083188 -0.0575482 -0.000340131)
(0.00659819 -0.0579948 -9.95428e-05)
(0.00498656 -0.0585733 1.48697e-05)
(0.00351664 -0.0590006 0.00010233)
(0.00284628 -0.0581477 8.10514e-05)
(0.000495863 -0.0556154 0.000275918)
(-0.00077437 -0.0662958 -0.000275072)
(0.000868219 -0.0446181 -0.000233341)
(-0.000222849 -0.0396067 0.000712628)
(-0.00270405 -0.0408867 0.000621403)
(-0.00286206 -0.0414124 0.000761418)
(-0.00321384 -0.0398978 0.000770253)
(-0.00418852 -0.0375107 0.000771699)
(-0.00547666 -0.0336604 0.000607042)
(-0.00635836 -0.0290659 0.000216133)
(-0.0050443 -0.0247319 -0.000283739)
(-0.00237134 -0.0216917 -0.000276266)
(-0.000619373 -0.0188543 -0.000110309)
(-7.82099e-05 -0.0164493 -6.95968e-06)
(-0.000647869 -0.0147637 3.70417e-05)
(-0.00031462 -0.0138561 -4.50292e-05)
(0.000296986 -0.0135796 1.62616e-05)
(-0.000303254 -0.0139492 1.84601e-05)
(0.00118625 -0.0147392 -8.56304e-05)
(0.00184967 -0.0168181 0.000179156)
(0.000675526 -0.0201658 1.74834e-05)
(0.00355551 -0.0231501 -0.000444846)
(0.00671701 -0.0276817 8.14541e-05)
(0.00602027 -0.0329451 0.000612862)
(0.00444425 -0.0373489 0.000786942)
(0.00336216 -0.0399041 0.000770871)
(0.00297615 -0.0415525 0.000754444)
(0.00276608 -0.041125 0.000622665)
(0.00038127 -0.0397323 0.000699095)
(-0.000709896 -0.045506 -0.000313411)
(-0.00350072 -0.0254135 -0.00107468)
(-0.00335073 -0.0225626 -0.00172662)
(-0.00129454 -0.0226119 -0.00165967)
(-0.00152143 -0.0221761 -0.00172766)
(0.000391163 -0.0209202 -0.00169298)
(0.00186317 -0.0192617 -0.00166255)
(0.00383613 -0.0169155 -0.00144988)
(0.00465304 -0.0133984 -0.000974143)
(0.00432632 -0.00930294 -0.00051178)
(0.00304681 -0.00624955 -0.000176132)
(0.00187203 -0.00450695 -0.000103466)
(0.00121331 -0.00355324 -3.12444e-05)
(0.000295725 -0.00309929 1.39132e-05)
(7.60588e-05 -0.00224855 -1.6649e-05)
(-6.37262e-07 -0.00244724 1.43869e-05)
(-0.000639981 -0.0027192 1.19358e-05)
(-0.000436469 -0.00257212 -8.42405e-05)
(-0.000789596 -0.00584922 3.04796e-05)
(-0.00300124 -0.00702816 -3.34586e-05)
(-0.0050888 -0.00866974 -0.00035122)
(-0.00568296 -0.0128541 -0.000879025)
(-0.00461879 -0.016606 -0.00146296)
(-0.00213383 -0.0190593 -0.00167268)
(-0.000302157 -0.0208008 -0.00174294)
(0.00166515 -0.0222118 -0.00176254)
(0.00149281 -0.0228584 -0.00168976)
(0.00336598 -0.0228765 -0.0017098)
(0.00335514 -0.0256727 -0.00106099)
(-0.00285644 -0.00305664 -0.000128773)
(-0.00122685 -0.000570055 -0.00104183)
(0.0017114 -0.000184268 -0.000446237)
(0.000489183 0.00107572 -0.000434593)
(0.00173906 0.00135059 -0.000378818)
(0.00237977 0.00167671 -0.000371982)
(0.00321978 0.00141258 -0.000325875)
(0.00357448 0.00052406 -0.000238301)
(0.00349004 -0.000541989 -0.000142285)
(0.00263844 -0.0018119 -2.78665e-05)
(0.00184339 -0.00221326 -6.56131e-06)
(0.00113889 -0.00230606 1.87505e-05)
(0.000580676 -0.00259668 1.91983e-05)
(0.000343777 -0.00208064 1.61756e-05)
(-0.000119014 -0.00232304 2.53363e-05)
(-0.000325081 -0.0024702 2.108e-05)
(-0.00172758 -0.00189218 2.20456e-05)
(-0.00205617 -0.0047211 1.08733e-06)
(-0.00184773 -0.00367348 -2.69811e-05)
(-0.00343474 -0.00129187 -0.000126612)
(-0.00391566 0.000186142 -0.000238957)
(-0.00362661 0.00155043 -0.000324785)
(-0.00276412 0.00204326 -0.000374658)
(-0.0019102 0.00189885 -0.000389727)
(-0.000543518 0.00142485 -0.000497737)
(-0.00169934 -0.000187263 -0.000537163)
(0.00129802 -0.000669662 -0.00107836)
(0.00289133 -0.00310293 -0.000159222)
(-0.00118267 0.00235892 -6.43234e-05)
(-0.000341251 0.0054032 -0.000180991)
(0.00095719 0.00398676 -8.7263e-05)
(0.000638927 0.00431773 -0.000113825)
(0.00138984 0.00386976 -7.47926e-05)
(0.00169119 0.00346216 -7.68792e-05)
(0.00196784 0.00271627 -6.16728e-05)
(0.00187042 0.00174494 -6.19127e-05)
(0.00145957 0.000476483 -6.38471e-05)
(0.0010434 -0.00133199 -5.60378e-05)
(0.00119635 -0.00215248 -4.28822e-05)
(0.000819518 -0.00206393 -3.34273e-05)
(0.000449162 -0.00265529 -3.02428e-05)
(0.000321289 -0.00185255 -4.06523e-05)
(-0.000283911 -0.00227125 -2.55518e-05)
(-2.5275e-05 -0.00140608 -5.77458e-05)
(-0.00174634 -0.000912614 -1.18549e-06)
(-0.000825267 -0.00536449 -0.000150665)
(0.00114665 -0.0028577 -0.000101054)
(-0.00044812 0.000941536 -7.96013e-05)
(-0.00176354 0.00222124 -9.37374e-05)
(-0.0020176 0.00336035 -8.11135e-05)
(-0.00186715 0.00406495 -8.7732e-05)
(-0.00150947 0.00455066 -8.3654e-05)
(-0.000727447 0.00486878 -0.000121093)
(-0.000988524 0.00435551 -9.47789e-05)
(0.00035084 0.00569459 -0.000188453)
(0.00117741 0.00259179 -7.1464e-05)
(-0.00048944 0.00312747 9.02762e-06)
(6.67883e-05 0.00486646 -4.27552e-05)
(0.000755187 0.0042143 7.23494e-06)
(0.000717135 0.00445174 -1.60959e-05)
(0.00117786 0.0041887 1.2971e-07)
(0.00137417 0.00389774 -8.31843e-06)
(0.00150513 0.00343084 -9.6096e-06)
(0.00113635 0.00267773 -6.04367e-06)
(0.000377466 0.00147975 -1.69134e-05)
(-5.28676e-05 -0.00147804 -1.45443e-06)
(0.000761472 -0.00338969 1.92618e-05)
(0.000750607 -0.00260305 3.14038e-05)
(0.000624919 -0.00425063 4.71781e-05)
(0.00067201 -0.00272041 3.362e-05)
(0.000497678 -0.00400036 5.41655e-05)
(0.000875606 -0.00296843 2.24109e-05)
(-0.00158011 -0.00255457 2.33315e-05)
(0.00100561 -0.0089292 -0.000174697)
(0.0032793 -0.00340736 1.88533e-05)
(0.000440291 0.00275033 9.03799e-05)
(-0.00156995 0.0038096 2.87337e-06)
(-0.00182153 0.00440038 1.84667e-06)
(-0.00180418 0.00461035 -1.07138e-05)
(-0.00144043 0.00476488 2.41434e-06)
(-0.000930384 0.00488422 -1.72715e-05)
(-0.000871969 0.00458516 7.64736e-06)
(-0.000122126 0.00517136 -4.45623e-05)
(0.000476423 0.00338218 8.57448e-06)
(-0.000161165 0.00334116 3.44256e-06)
(0.000179217 0.00454005 -1.11389e-05)
(0.000540851 0.00419589 4.37363e-06)
(0.000611587 0.00430711 -1.03861e-05)
(0.000831623 0.00420183 -6.70162e-06)
(0.00087363 0.00422027 -1.76421e-05)
(0.000640921 0.004401 -1.88813e-05)
(-3.16473e-05 0.00460091 -2.16195e-05)
(-0.00197819 0.00352322 -4.62438e-06)
(-0.00278195 -0.000240725 -3.94231e-05)
(-0.000887552 -0.00260819 -0.000189937)
(-0.000342322 -0.000375644 -0.000140188)
(0.000209709 -0.00303363 -0.000181507)
(0.000529555 0.000327823 -0.000135213)
(0.000423808 -0.00255677 -0.000182162)
(0.00175351 0.00263149 -0.000161671)
(-0.00187129 0.0027084 -6.93301e-05)
(0.00419054 -0.00166856 -0.00110418)
(0.00681444 -0.000427767 3.6496e-05)
(0.00204607 0.00490851 0.000156054)
(-0.00133309 0.005581 2.33434e-05)
(-0.00159951 0.00523435 2.28289e-06)
(-0.00166769 0.0046824 -1.25191e-05)
(-0.0012794 0.00459868 -4.52009e-06)
(-0.000906463 0.00463428 -1.1421e-05)
(-0.000711152 0.00449179 4.79002e-06)
(-0.000263087 0.00480302 -1.26994e-05)
(0.000141712 0.00356132 3.0911e-06)
(-1.58062e-05 0.0033277 1.95521e-06)
(0.000231953 0.00431114 -5.26322e-06)
(0.000478586 0.00419475 2.84487e-06)
(0.000640815 0.0042966 -4.45563e-06)
(0.000885997 0.00436303 1.24231e-06)
(0.00108374 0.00461168 4.79912e-06)
(0.00129231 0.00497376 1.16818e-05)
(0.00134469 0.00503027 9.05899e-05)
(0.000847393 0.00294178 0.000174682)
(0.00195978 -0.00264917 0.00027404)
(0.000736639 -0.00721679 0.000334364)
(0.00108364 -0.00209868 0.000265021)
(0.00091316 -0.00684995 0.000318864)
(0.00103364 -0.00160928 0.000288184)
(0.00181838 -0.00666164 0.000328677)
(0.00125174 -1.5694e-05 0.000380392)
(0.00748213 -0.000238335 0.000230964)
(0.00110565 -0.00775279 0.00205098)
(-0.00952376 -0.0022409 0.000231911)
(-0.00369141 0.00174466 0.000304449)
(-0.00435775 0.00457809 6.7234e-05)
(-0.00238931 0.00462013 3.43268e-05)
(-0.00198169 0.0044921 -4.77091e-06)
(-0.00130137 0.00441679 5.34222e-06)
(-0.000962902 0.0044264 -4.27449e-06)
(-0.000657018 0.00436087 3.52622e-06)
(-0.000335708 0.00448554 -5.32305e-06)
(-8.70051e-06 0.0034828 2.58875e-06)
(4.49895e-05 0.00320013 1.10791e-06)
(0.000266337 0.00410275 -1.8042e-06)
(0.000474472 0.00407431 1.10815e-06)
(0.000700711 0.00411248 -2.02846e-06)
(0.00100755 0.00414768 -3.48508e-06)
(0.00145251 0.00417927 -1.61937e-06)
(0.00205465 0.00411214 2.08765e-05)
(0.00217002 0.00296796 9.67721e-05)
(0.00288125 -0.000498394 6.68398e-06)
(0.00365162 -0.00559247 0.000133163)
(0.00181 -0.00863374 0.000251051)
(0.00143459 -0.00614224 0.000130888)
(0.00067432 -0.00888616 0.000248345)
(0.000199245 -0.00630628 0.000127098)
(8.81191e-05 -0.00913874 0.000233272)
(-0.00126985 -0.00687779 9.51814e-05)
(0.000803271 -0.00715353 9.78901e-05)
(-0.00167082 -0.0139261 0.000245261)
(-0.00578159 -0.00720718 9.59104e-05)
(-0.0031804 -0.00344196 -0.00018764)
(-0.00225401 0.00241291 4.44994e-05)
(-0.00215605 0.0034183 -1.15578e-05)
(-0.00165335 0.00399234 -5.46277e-06)
(-0.00118964 0.00405081 -3.33846e-06)
(-0.000887996 0.00412966 -4.19129e-06)
(-0.000591991 0.0041465 1.18873e-06)
(-0.00034078 0.00420424 -3.23418e-06)
(-6.01304e-05 0.00330086 1.57431e-07)
(5.82165e-05 0.00304096 -6.52574e-07)
(0.000255861 0.00391666 -1.78314e-06)
(0.000426824 0.00390553 -1.65353e-07)
(0.000658462 0.00387711 -3.40259e-06)
(0.000907802 0.00384777 -3.19489e-06)
(0.0013212 0.00369792 -6.26749e-06)
(0.00166745 0.00321803 4.01353e-06)
(0.00182116 0.0016469 1.70316e-05)
(0.00124657 -0.000985644 -9.65246e-06)
(0.00191977 -0.00349676 -0.000105558)
(0.00139125 -0.00919459 2.54331e-06)
(0.00108528 -0.00426991 -0.000109473)
(0.000702862 -0.00964337 -3.90393e-06)
(0.000304216 -0.00430057 -0.000100935)
(0.000305225 -0.00959578 -9.06125e-07)
(-0.000829997 -0.00417696 -8.34565e-05)
(0.000485916 -0.00414296 -8.74401e-05)
(-0.00149151 -0.0100127 4.74984e-05)
(-0.00314449 -0.00370876 -0.000112216)
(-0.00207718 -0.000296948 -2.33153e-05)
(-0.00241266 0.00171268 2.24504e-05)
(-0.00195777 0.0030525 9.29491e-06)
(-0.00155758 0.00356001 -2.25541e-06)
(-0.00107897 0.00374906 9.18981e-07)
(-0.000815302 0.00386784 -2.23144e-06)
(-0.00052855 0.00393488 1.04464e-06)
(-0.000321214 0.00397642 -1.59228e-06)
(-7.24881e-05 0.00310307 -4.23227e-07)
(5.75608e-05 0.002889 -4.46478e-07)
(0.000241545 0.00376477 -8.14595e-07)
(0.000386076 0.00375196 7.03524e-07)
(0.000606583 0.00368894 -1.47298e-06)
(0.000805103 0.00359956 6.57611e-07)
(0.00117318 0.00339705 -1.39495e-06)
(0.00143359 0.00294195 6.70816e-06)
(0.0015759 0.00185678 1.16607e-05)
(0.0014523 -1.36217e-05 -2.65043e-05)
(0.00160552 -0.00615397 -2.4437e-05)
(0.001223 -0.00828348 8.77473e-06)
(0.000899503 -0.00684824 -4.40913e-06)
(0.000539501 -0.00873008 8.11475e-06)
(0.000251932 -0.00705302 -1.80373e-06)
(5.59685e-05 -0.00875989 5.95027e-06)
(-0.000505129 -0.00729719 -1.9986e-06)
(-0.000477969 -0.00726822 -6.69231e-06)
(-0.00136217 -0.00920002 -9.46763e-07)
(-0.00253805 -0.00660251 -1.81707e-05)
(-0.00180392 -0.000523657 -8.55242e-05)
(-0.00142996 0.00164038 -1.85992e-05)
(-0.00133689 0.00265913 -7.44319e-06)
(-0.00113617 0.00322164 -6.97431e-06)
(-0.00082869 0.00347135 -1.11675e-06)
(-0.000662406 0.00364112 -3.0662e-06)
(-0.000431717 0.00373997 3.20578e-07)
(-0.000275602 0.00378369 -1.42139e-06)
(-6.48368e-05 0.00291822 -8.90996e-07)
(4.65255e-05 0.00274859 -7.74915e-07)
(0.000201579 0.00362342 -1.08197e-06)
(0.000303248 0.0035994 1.84154e-07)
(0.000475619 0.0035088 -2.47768e-06)
(0.000577141 0.003374 -4.02333e-07)
(0.00081793 0.00312437 -5.96133e-06)
(0.000880626 0.00271412 -1.40299e-06)
(0.00101555 0.0019038 -2.09956e-05)
(0.00106171 0.000582992 -3.47328e-05)
(0.00105611 -0.00211223 -7.05083e-06)
(0.000869847 -0.00803536 -2.96582e-06)
(0.000629677 -0.00323731 2.38031e-06)
(0.000414126 -0.00856526 -1.87158e-06)
(0.000268425 -0.00349247 2.45894e-06)
(7.89934e-05 -0.00853934 1.8169e-07)
(-0.000203529 -0.00333655 5.28238e-06)
(-0.000464929 -0.00319278 2.04275e-07)
(-0.00106504 -0.00808731 1.00345e-05)
(-0.00163786 -0.00220261 -1.16853e-05)
(-0.00142162 0.000972983 -4.37165e-05)
(-0.000966695 0.00200293 -1.44985e-05)
(-0.00090577 0.00267805 -1.07634e-06)
(-0.000813555 0.00307721 -3.49143e-06)
(-0.000609619 0.00331829 1.14357e-06)
(-0.000515639 0.00348339 -1.88492e-06)
(-0.000336449 0.00359002 7.54987e-07)
(-0.000225426 0.00363126 -9.36588e-07)
(-5.23249e-05 0.00276531 -7.32238e-07)
(3.43535e-05 0.00264311 -5.16426e-07)
(0.000161992 0.00352607 -8.96312e-07)
(0.000226046 0.00350422 8.10097e-07)
(0.000358044 0.0034173 -1.86339e-06)
(0.000382709 0.00329109 1.85059e-06)
(0.000535913 0.00308112 -4.15764e-06)
(0.000489964 0.00276761 2.42673e-06)
(0.00056464 0.00227521 -9.34279e-06)
(0.00049344 0.0011518 -1.74237e-05)
(0.000388458 -0.00522701 -4.07183e-06)
(0.000427002 -0.00791438 -1.1751e-05)
(0.000350325 -0.00593061 -9.4972e-08)
(0.000254071 -0.00837076 -1.42916e-05)
(0.00028887 -0.00619651 -1.49085e-06)
(5.74639e-05 -0.00821294 -1.89482e-05)
(-6.41503e-05 -0.00621811 -4.69039e-06)
(-0.000286421 -0.00606412 -5.97847e-06)
(-0.000578001 -0.00777702 -1.67057e-05)
(-0.000954056 -0.00531277 -9.48514e-06)
(-0.000750965 0.00128685 -3.57192e-05)
(-0.0004866 0.002204 -1.66444e-05)
(-0.000464808 0.00271656 -6.7969e-07)
(-0.000504115 0.00300963 -5.15431e-06)
(-0.000384424 0.00323692 1.37444e-06)
(-0.000368639 0.00338125 -2.30302e-06)
(-0.000238795 0.00348503 7.11042e-07)
(-0.00017247 0.00351943 -1.04913e-06)
(-3.67096e-05 0.00264838 -6.05307e-07)
(2.31702e-05 0.00256002 -3.03673e-07)
(0.000125279 0.00344627 -7.92979e-07)
(0.000153881 0.00343129 9.21411e-07)
(0.000247439 0.0033519 -1.75386e-06)
(0.000210751 0.00324621 2.05299e-06)
(0.000292339 0.00304389 -3.414e-06)
(0.000178533 0.00282621 2.69664e-07)
(0.000261961 0.00234688 -3.07266e-05)
(0.0017158 0.00151734 -4.4509e-05)
(0.000287471 -0.00302457 0.000216438)
(0.000408018 -0.00816362 -2.08995e-06)
(0.000202873 -0.00467548 0.000249296)
(0.000132609 -0.00874186 -4.23112e-06)
(0.000460694 -0.00500913 0.000251261)
(7.91382e-05 -0.00797277 -1.11694e-05)
(0.000840958 -0.00464016 0.000239142)
(-0.000941315 -0.00429385 0.000231768)
(-0.000590435 -0.00715647 -1.43508e-05)
(-0.000939856 -0.00292854 0.000211301)
(-0.00191168 0.00174626 -5.48891e-05)
(-0.000276826 0.00230477 -3.24358e-05)
(-0.000186646 0.00283602 5.47305e-07)
(-0.000283252 0.00299686 -3.55278e-06)
(-0.000207807 0.00322013 2.57189e-06)
(-0.000251926 0.0033243 -1.79625e-06)
(-0.000157648 0.00341717 1.15938e-06)
(-0.000130212 0.00343747 -8.1344e-07)
(-2.37887e-05 0.00256243 -2.68307e-07)
(1.35598e-05 0.00250398 -3.00949e-07)
(9.48557e-05 0.00340074 -1.01649e-06)
(9.25312e-05 0.00340296 1.00418e-06)
(0.000158437 0.00334832 -1.93957e-06)
(5.11596e-05 0.00328121 2.05207e-06)
(9.67061e-05 0.00312576 -3.12186e-06)
(-0.000236116 0.00295385 7.71852e-06)
(-0.000238153 0.00244813 8.95063e-06)
(-0.00228192 0.00145998 7.65341e-05)
(-0.00159183 -0.00385604 -0.000244617)
(-0.000956336 -0.00848088 5.93159e-06)
(-0.000162903 -0.00547362 -0.000261224)
(-5.39968e-05 -0.00935633 5.6527e-07)
(0.00120654 -0.00591737 -0.000271996)
(0.000307296 -0.00881724 0.000262396)
(-0.00198156 -0.00572786 -0.000268886)
(0.00267174 -0.0054098 -0.000260919)
(0.00052891 -0.00810847 0.000259607)
(-3.34237e-05 -0.00370341 -0.000242766)
(0.00190521 0.00176114 5.64415e-05)
(0.000161124 0.00232696 2.88317e-06)
(0.00026042 0.00295007 7.89797e-06)
(-9.74979e-05 0.00305467 -3.16545e-06)
(-3.34184e-05 0.00325726 2.07932e-06)
(-0.000157816 0.003316 -2.06068e-06)
(-8.68136e-05 0.00338896 1.13854e-06)
(-9.57341e-05 0.00338937 -1.06953e-06)
(-1.22045e-05 0.00250473 -2.25747e-07)
(8.44989e-06 0.00245936 6.67518e-08)
(8.08748e-05 0.00336509 -8.0284e-07)
(6.25424e-05 0.00338436 1.43057e-06)
(0.000116241 0.00336203 -1.36769e-06)
(-2.34967e-05 0.00333743 2.63276e-06)
(-2.70696e-05 0.00325642 -1.96206e-06)
(-0.000380133 0.00317927 6.74619e-06)
(-0.000401595 0.00270348 8.72393e-06)
(-0.00198546 0.00171674 4.84879e-05)
(-0.00246715 -0.00500271 2.90779e-05)
(-0.00134447 -0.00853522 -2.64158e-07)
(-0.000678731 -0.0056721 1.10566e-05)
(-0.000325669 -0.00925483 -1.53459e-06)
(-1.91742e-05 -0.0059978 1.10161e-06)
(0.000129073 -0.00683557 -1.78444e-05)
(0.000463972 -0.00636283 4.31466e-06)
(0.000642051 -0.00610143 -1.51726e-06)
(0.00112921 -0.00654122 -8.94636e-06)
(0.00244369 -0.00487373 2.70222e-05)
(0.00167662 0.0017344 7.36583e-05)
(0.000243468 0.00254566 -3.94252e-06)
(0.000472151 0.00316833 9.4522e-06)
(2.15915e-05 0.00319836 -3.87172e-06)
(6.59672e-05 0.00332422 3.15239e-06)
(-0.000111509 0.00333693 -1.70152e-06)
(-4.56256e-05 0.00337532 1.58248e-06)
(-7.90534e-05 0.00335668 -9.22458e-07)
(-5.00823e-06 0.00246226 1.28234e-07)
(7.19372e-06 0.00242922 -3.41618e-07)
(8.07782e-05 0.00334224 -1.15391e-06)
(5.4573e-05 0.00338873 8.89716e-07)
(0.000106727 0.00342479 -2.99434e-06)
(-6.47942e-05 0.00346789 1.2096e-06)
(-6.06705e-05 0.0034511 -3.97296e-06)
(-0.000599338 0.00339245 9.1511e-06)
(-0.000382256 0.00289233 -2.0992e-05)
(-0.00145142 0.00156653 9.86311e-05)
(-0.00320705 -0.00628709 0.000206539)
(-0.00167416 -0.0111748 -7.907e-06)
(-0.000891583 -0.00727076 0.000209042)
(-0.000544056 -0.0110365 4.57063e-06)
(-0.00120248 -0.00726703 0.000195282)
(-6.44484e-06 -0.0112733 -0.000253927)
(0.00225875 -0.00728124 0.000175585)
(-0.00110163 -0.00703582 0.000200695)
(0.00162368 -0.0116103 -0.000268846)
(0.00461158 -0.00614955 0.000223938)
(0.00142848 0.00188496 0.00012124)
(0.000207407 0.00262592 -3.26851e-05)
(0.000757621 0.0033125 1.18331e-05)
(6.14278e-05 0.0033864 -5.12215e-06)
(0.000120032 0.00344184 2.90433e-06)
(-0.000101533 0.00340938 -2.65596e-06)
(-3.28064e-05 0.00338373 1.05066e-06)
(-7.76334e-05 0.00333841 -1.14545e-06)
(-2.72561e-06 0.00243496 -1.54153e-07)
(1.31664e-05 0.00238286 1.26321e-07)
(0.000105178 0.00330099 -9.62362e-07)
(0.000100064 0.00337416 1.52621e-06)
(0.000171184 0.00346078 -8.95215e-07)
(-1.61268e-05 0.00355711 4.08431e-06)
(-7.78402e-05 0.00368089 -2.89423e-06)
(-0.000950843 0.00381515 1.03886e-05)
(-0.00197961 0.00342873 -5.52588e-06)
(-0.00835637 0.00233311 9.35934e-05)
(-0.00746061 -0.00615327 -0.000706277)
(-0.00344513 -0.0106996 -0.000447245)
(-0.000863846 -0.00716989 -0.000618858)
(-0.00049047 -0.010329 -0.000329002)
(-0.000225909 -0.00700043 -0.00056826)
(4.23787e-05 -0.00903815 -0.000301382)
(-0.00061187 -0.00676619 -0.000585583)
(0.0020528 -0.00681815 -0.000584669)
(0.00357231 -0.00943663 -0.000457723)
(0.00791443 -0.00586728 -0.000651025)
(0.00826462 0.00228849 0.000173786)
(0.00154438 0.00354905 -6.91141e-05)
(0.00128 0.00383697 5.22868e-06)
(0.00014112 0.00368807 -6.93119e-06)
(0.000102818 0.00355592 3.66457e-06)
(-0.000149563 0.00346412 -9.56342e-07)
(-7.33058e-05 0.00337622 1.85218e-06)
(-9.9993e-05 0.00330513 -1.18063e-06)
(-7.94768e-06 0.00239362 2.05347e-07)
(2.34737e-05 0.00233954 -1.09454e-06)
(0.00014322 0.00325146 -1.8834e-06)
(0.000177217 0.00334895 6.25395e-07)
(0.000296292 0.00351656 -3.47272e-06)
(0.000159753 0.00378027 6.86106e-07)
(0.00021572 0.00446403 -1.28711e-05)
(-0.000695356 0.00576755 -8.73839e-06)
(-0.00114219 0.00864732 -0.000105839)
(-0.0087408 0.00689499 1.92701e-05)
(-0.0102002 -0.00512068 -0.000912225)
(-0.00608938 -0.00757223 -0.00128696)
(-0.00310225 -0.00413861 -0.00117407)
(-0.00153572 -0.00552616 -0.00123331)
(-0.000481388 -0.0032723 -0.00109743)
(0.000358719 -0.00490614 -0.00114749)
(0.00117161 -0.00354518 -0.00108973)
(0.0034093 -0.00404342 -0.00115194)
(0.00621297 -0.0072897 -0.00125201)
(0.0103645 -0.00525823 -0.000891252)
(0.00888827 0.00631773 1.94577e-05)
(0.00104027 0.00911452 -9.78311e-05)
(0.000753637 0.00589299 -8.13997e-06)
(-0.000215344 0.00457479 -1.57946e-05)
(-0.000100535 0.00381639 1.18509e-06)
(-0.000285941 0.00354385 -3.92021e-06)
(-0.000156587 0.0033611 9.71337e-07)
(-0.000140023 0.00326298 -1.98032e-06)
(-1.92827e-05 0.00235485 -8.94437e-07)
(4.21893e-05 0.00224719 -6.65192e-08)
(0.000213759 0.0031258 -6.93192e-07)
(0.000337796 0.00320161 2.38247e-06)
(0.000611144 0.00335804 -1.42688e-06)
(0.000887955 0.00354091 6.57944e-06)
(0.0016714 0.00408326 3.02663e-06)
(0.00302738 0.00477685 2.73437e-05)
(0.00582831 0.0068659 0.000202285)
(0.00692224 0.0054022 0.000551047)
(0.00312804 0.00289709 0.000904178)
(-0.00204306 0.00348838 0.000542806)
(-7.51524e-05 0.00373298 0.000607862)
(-0.000558059 0.00410715 0.000583947)
(7.3279e-05 0.00407609 0.000648503)
(-5.40771e-05 0.00414474 0.000617645)
(0.000430703 0.00388223 0.000625464)
(0.000235537 0.00348226 0.000608002)
(0.0019873 0.00357566 0.000546469)
(-0.00291236 0.00276483 0.000896932)
(-0.0069801 0.00526413 0.000568163)
(-0.00601981 0.00700748 0.000212347)
(-0.00309269 0.00482598 2.71266e-05)
(-0.00169388 0.00416837 3.19469e-06)
(-0.0008768 0.00356728 7.88951e-06)
(-0.000612006 0.00338889 -2.0495e-06)
(-0.000326389 0.00321692 2.78463e-06)
(-0.000212667 0.00314137 -8.50784e-07)
(-3.92964e-05 0.00226497 2.44821e-08)
(4.27239e-05 0.00215311 -2.28308e-06)
(0.000206361 0.00298188 -3.17485e-06)
(0.000345581 0.00301825 -2.14679e-06)
(0.000574297 0.00308767 -6.56813e-06)
(0.000851249 0.00307488 -9.46778e-06)
(0.00136465 0.00325154 -1.94384e-05)
(0.0021517 0.00296472 -3.76469e-05)
(0.00339678 0.00225653 -8.95223e-06)
(0.00314723 -0.00181741 6.53194e-05)
(0.00143969 -0.00838686 -0.000107883)
(0.000174558 -0.00758036 -0.000127269)
(0.000269859 -0.00722112 -0.000151649)
(-7.71173e-05 -0.0067055 -0.000146928)
(0.000132986 -0.00624256 -0.000162301)
(-9.47405e-05 -0.00653304 -0.00014669)
(5.09838e-05 -0.00638998 -0.000165537)
(-0.000208628 -0.00722328 -0.000155807)
(-0.000198452 -0.00758071 -0.000128285)
(-0.00140204 -0.00841763 -0.000105765)
(-0.00320925 -0.00204397 6.24582e-05)
(-0.00346544 0.0022561 -9.47155e-06)
(-0.00218581 0.00297516 -3.90045e-05)
(-0.00137691 0.00329382 -1.97441e-05)
(-0.000851893 0.00309245 -9.50848e-06)
(-0.000574968 0.00311347 -6.85841e-06)
(-0.000340291 0.00303374 -1.94502e-06)
(-0.000206221 0.00299849 -3.31548e-06)
(-4.08553e-05 0.00217218 -2.21994e-06)
(5.14728e-05 0.00205022 -4.92157e-07)
(0.000228672 0.00282488 -4.61707e-07)
(0.000396932 0.00283392 1.55814e-06)
(0.000651319 0.00284143 -1.67738e-08)
(0.000960745 0.0027658 2.67645e-06)
(0.00148443 0.0027455 5.39007e-07)
(0.00230665 0.00237142 -3.9405e-06)
(0.00351199 0.00199911 1.6926e-06)
(0.00497877 0.000575531 -4.78566e-07)
(0.00331905 -0.000638364 0.000148482)
(0.00104768 -0.000290061 3.78575e-05)
(0.000854737 -0.000148529 4.37557e-05)
(0.000371796 0.000119898 3.84869e-05)
(0.000194712 0.000248863 3.4483e-05)
(-0.000186578 0.000160987 3.80461e-05)
(-0.000420774 0.000186964 3.42847e-05)
(-0.00079742 -0.000206711 4.51918e-05)
(-0.00106712 -0.000270042 3.66365e-05)
(-0.00328326 -0.000681241 0.000147455)
(-0.00499544 0.000550482 -1.44577e-06)
(-0.00354975 0.00201004 2.48372e-06)
(-0.002338 0.00238176 -2.83626e-06)
(-0.00150555 0.0027722 -3.68922e-07)
(-0.000963289 0.00278399 3.05073e-06)
(-0.000655841 0.00286262 -3.41119e-07)
(-0.0003948 0.00284973 1.75475e-06)
(-0.000229615 0.00284164 -5.40279e-07)
(-5.04868e-05 0.0020696 -4.39459e-07)
(4.14869e-05 0.00195833 -2.59601e-06)
(0.000183388 0.00267688 -2.94044e-06)
(0.000322135 0.00265578 -2.27352e-06)
(0.000499724 0.00261087 -5.75944e-06)
(0.000706472 0.00246091 -6.41548e-06)
(0.000985544 0.00232475 -1.49039e-05)
(0.00135005 0.00187771 -1.64212e-05)
(0.00143063 0.00120317 -2.42172e-05)
(0.00161549 -0.000176743 -3.74398e-05)
(0.00109822 -0.00246054 -9.23531e-05)
(0.0010426 -0.00219473 -7.31368e-05)
(0.000809909 -0.00223709 -5.31606e-05)
(0.000350263 -0.00220607 -5.23714e-05)
(0.000180584 -0.00216789 -4.85128e-05)
(-0.000165346 -0.00222059 -4.72229e-05)
(-0.000362967 -0.00215471 -5.38564e-05)
(-0.000778989 -0.00225036 -5.11676e-05)
(-0.00106064 -0.00218011 -7.41893e-05)
(-0.00108602 -0.00246341 -9.10932e-05)
(-0.00163529 -0.000201206 -3.87267e-05)
(-0.00143567 0.00119796 -2.42103e-05)
(-0.00136607 0.00187693 -1.6286e-05)
(-0.000997344 0.00234335 -1.54258e-05)
(-0.000708992 0.00247397 -6.16326e-06)
(-0.000503617 0.00262887 -5.99235e-06)
(-0.000321449 0.00267043 -2.13398e-06)
(-0.000184386 0.00269274 -3.00348e-06)
(-4.0982e-05 0.00197714 -2.57645e-06)
(3.95274e-05 0.0018754 -3.27861e-07)
(0.000163353 0.00254645 1.73812e-07)
(0.000293566 0.00251478 1.16991e-06)
(0.000443875 0.00244387 7.42107e-07)
(0.000641272 0.0022929 2.2905e-06)
(0.000860286 0.00212078 1.99318e-06)
(0.00121331 0.00179169 4.26642e-06)
(0.0014365 0.00138214 1.27729e-06)
(0.00201923 0.000997576 -1.65034e-06)
(0.00183942 0.00059135 6.33548e-06)
(0.00116436 0.000332854 1.69152e-05)
(0.000757479 -1.36208e-05 3.05855e-05)
(0.000382056 -0.000108376 3.05047e-05)
(0.000153079 -0.000161616 3.01018e-05)
(-0.000146061 -0.000200032 3.11565e-05)
(-0.00038574 -8.18693e-05 2.94874e-05)
(-0.000747555 -4.38342e-05 3.16351e-05)
(-0.00116224 0.000338693 1.63639e-05)
(-0.00183209 0.000575542 7.21191e-06)
(-0.00202947 0.000995303 -1.85534e-06)
(-0.00144311 0.00138468 1.40187e-06)
(-0.00122479 0.00179532 4.42663e-06)
(-0.00086837 0.00213536 1.81247e-06)
(-0.000644134 0.00230435 2.4663e-06)
(-0.000447071 0.00245958 6.51083e-07)
(-0.000293724 0.00252873 1.2589e-06)
(-0.000164248 0.00256161 1.45924e-07)
(-3.935e-05 0.0018937 -3.13866e-07)
(2.57221e-05 0.0018256 -2.38192e-06)
(0.00011079 0.00245917 -2.3859e-06)
(0.000199675 0.00242156 -2.52073e-06)
(0.00028457 0.00233267 -4.35435e-06)
(0.000391688 0.00218673 -6.1234e-06)
(0.00046544 0.00198809 -1.02295e-05)
(0.000593271 0.00171737 -1.52031e-05)
(0.00056701 0.00130179 -2.14025e-05)
(0.000546462 0.000822931 -2.66042e-05)
(0.000381797 1.52242e-05 -3.31339e-05)
(0.000335737 -0.000352298 -3.20192e-05)
(0.000307112 -0.000620499 -3.40331e-05)
(0.000211674 -0.00073303 -2.99441e-05)
(0.000107048 -0.000803367 -2.80425e-05)
(-0.000101932 -0.000818454 -2.73355e-05)
(-0.00021938 -0.000721172 -3.0979e-05)
(-0.000293157 -0.000629485 -3.3173e-05)
(-0.000343094 -0.000348676 -3.24825e-05)
(-0.000377225 5.78736e-06 -3.2908e-05)
(-0.000551602 0.0008195 -2.68409e-05)
(-0.000567913 0.00130324 -2.14884e-05)
(-0.000597628 0.00172102 -1.51841e-05)
(-0.000468386 0.00199934 -1.03829e-05)
(-0.000392856 0.00219718 -6.04403e-06)
(-0.000285924 0.00234669 -4.44126e-06)
(-0.000199575 0.00243488 -2.47332e-06)
(-0.000111151 0.00247365 -2.40768e-06)
(-2.56241e-05 0.00184333 -2.37898e-06)
(1.60776e-05 0.00176119 4.98266e-07)
(6.65622e-05 0.00236686 7.12157e-07)
(0.000122004 0.00233023 1.0138e-06)
(0.000177397 0.00223679 1.26653e-06)
(0.000253993 0.00210903 1.64501e-06)
(0.000325353 0.00191649 2.63895e-06)
(0.000447576 0.00170385 3.53289e-06)
(0.000540908 0.00137418 6.99777e-06)
(0.000688409 0.0011086 8.73683e-06)
(0.000692175 0.000714528 1.45102e-05)
(0.000583808 0.000446468 1.29116e-05)
(0.000441528 0.000115059 2.49449e-05)
(0.000228549 -8.04607e-05 1.92336e-05)
(7.2697e-05 -0.00018509 1.50212e-05)
(-7.09288e-05 -0.000205081 1.43903e-05)
(-0.000224372 -6.64879e-05 1.96996e-05)
(-0.000440859 0.000100108 2.46141e-05)
(-0.000583586 0.000448554 1.29364e-05)
(-0.000689945 0.000706905 1.45612e-05)