/*--------------------------------*- C++ -*----------------------------------*\
| =========                 |                                                 |
| \\      /  F ield         | OpenFOAM: The Open Source CFD Toolbox           |
|  \\    /   O peration     | Version:  2.3.0                                 |
|   \\  /    A nd           | Web:      www.OpenFOAM.org                      |
|    \\/     M anipulation  |                                                 |
\*---------------------------------------------------------------------------*/
FoamFile
{
    version     2.0;
    format      ascii;
    class       volScalarField;
    location    "1.29705";
    object      alpha.airMean;
}
// * * * * * * * * * * * * * * * * * * * * * * * * * * * * * * * * * * * * * //

dimensions      [0 0 0 0 0 0 0];

internalField   nonuniform List<scalar> 
1000
(
0.316372
0.315502
0.301828
0.299912
0.297978
0.300587
0.302451
0.302435
0.299383
0.287468
0.293237
0.307354
0.30559
0.296687
0.290167
0.291277
0.299179
0.302091
0.314273
0.315245
0.0821524
0.0854343
0.0819057
0.0773178
0.0771212
0.0813121
0.0846639
0.0853042
0.0824889
0.0704717
0.0735454
0.0832625
0.0825641
0.0764824
0.0708075
0.0710806
0.0774351
0.0828095
0.0845045
0.0808897
0.0120227
0.0373046
0.0314152
0.0245001
0.0271266
0.0390584
0.0405554
0.0412994
0.0352896
0.0204992
0.0284026
0.0466117
0.0431234
0.0425306
0.0247463
0.0190534
0.0235757
0.0336097
0.0374072
0.0107348
0.00690257
0.0222602
0.00756489
0.00510253
0.0164466
0.0418193
0.0367191
0.0372993
0.0263027
0.0088206
0.0300771
0.0514167
0.0416319
0.0524961
0.0302732
0.0127849
0.00189659
0.00711803
0.0199881
0.00573809
0.00086573
0.00661522
0.000590627
0.00124592
0.0165441
0.0303654
0.0187593
0.0176101
0.009792
0.00381821
0.026933
0.042373
0.0253486
0.0456532
0.0326923
0.0119989
0.000448933
0.000227156
0.00160673
0.000205735
8.62582e-06
0.000102577
1.67687e-05
0.00138785
0.0078112
0.015166
0.00769427
0.00606603
0.00195708
0.00311462
0.0222787
0.0311643
0.0137838
0.0359026
0.0263758
0.00999494
0.000712653
3.00237e-06
4.62067e-06
2.65584e-07
9.22108e-10
2.54847e-08
2.18573e-06
0.000209954
0.00180731
0.00418836
0.00126471
0.00066632
5.39178e-05
0.00288287
0.014596
0.0203634
0.00505433
0.0249993
0.0176807
0.00687521
0.000822912
8.74565e-06
2.04703e-09
2.49417e-10
1.72276e-11
3.02683e-11
3.24822e-09
1.55529e-06
5.34435e-05
0.000241132
1.7616e-05
4.31143e-06
1.34923e-05
0.00118429
0.00704162
0.0106216
0.00137753
0.014318
0.00902585
0.00258694
0.000182288
1.18272e-06
2.58642e-10
2.03083e-11
9.18778e-13
9.70966e-13
5.30474e-12
1.56468e-10
4.99636e-08
8.10351e-07
6.45435e-09
4.71435e-10
1.19308e-06
0.000195625
0.00195751
0.00362384
0.000200344
0.00560799
0.00266271
0.000334868
5.14989e-06
3.81547e-09
1.67246e-11
1.07349e-12
4.12207e-14
4.20893e-14
4.79408e-14
1.12031e-13
3.92348e-12
2.19049e-10
5.90051e-11
1.79045e-11
1.56626e-09
2.97895e-06
0.000119579
0.000373959
4.18766e-06
0.000721089
0.000169399
3.20111e-06
1.95237e-09
1.0609e-11
1.26577e-13
4.13442e-14
0.341932
0.360402
0.345025
0.351848
0.355907
0.35531
0.364465
0.36395
0.358202
0.341038
0.356634
0.367579
0.369629
0.343433
0.344645
0.345017
0.349278
0.345016
0.359718
0.341068
0.126729
0.165793
0.158634
0.145062
0.144415
0.145902
0.151467
0.154058
0.149987
0.139234
0.155182
0.149189
0.158362
0.133417
0.13993
0.138411
0.145305
0.160121
0.163878
0.123337
0.0266636
0.0805881
0.0830363
0.0824763
0.0826466
0.0783177
0.0783655
0.0806728
0.0813821
0.0707294
0.0688862
0.066745
0.0695598
0.0605345
0.0641175
0.0738119
0.0748205
0.0829508
0.0799441
0.0229567
0.0187244
0.0566767
0.0309007
0.0336634
0.0552017
0.0666755
0.0637276
0.0645472
0.0583556
0.0366188
0.0609005
0.0634883
0.0634647
0.0631145
0.0585465
0.0449508
0.0167351
0.0231682
0.0542518
0.0137673
0.00512667
0.027426
0.00240101
0.00842039
0.0405417
0.0541843
0.046937
0.0470128
0.0337369
0.0152644
0.0496285
0.0570527
0.0514617
0.0603034
0.0533256
0.0340773
0.00411359
0.00148509
0.010834
0.00128963
0.000105804
0.000892009
0.000150085
0.00704224
0.026109
0.0366142
0.0279091
0.0268358
0.0115292
0.0108104
0.0394229
0.0458799
0.0370661
0.0515492
0.0445419
0.0269874
0.00559044
8.32177e-05
0.000105933
7.04226e-06
3.98094e-08
9.38776e-07
3.99345e-05
0.0020322
0.0111869
0.0180645
0.0101091
0.00777919
0.000851539
0.00903469
0.028609
0.0335179
0.0224463
0.0397372
0.0336127
0.0194682
0.0044428
0.000131246
1.43206e-07
6.82722e-10
4.28507e-11
1.18353e-10
3.08775e-07
6.66581e-05
0.00134937
0.00364137
0.000865924
0.000330493
0.000145433
0.00549185
0.0179808
0.0220042
0.00990348
0.0267844
0.0217455
0.0106579
0.00160369
2.82901e-05
1.83832e-08
8.70848e-11
3.28345e-12
5.83691e-12
4.57499e-11
6.2164e-08
1.10096e-05
8.90179e-05
4.70779e-06
6.95822e-07
2.93379e-05
0.00176926
0.00844276
0.0115859
0.0022921
0.0145413
0.010394
0.00299429
0.000137214
4.25635e-07
6.33438e-11
3.89693e-12
2.12559e-13
3.19188e-13
3.94407e-13
6.48764e-12
9.30497e-10
7.12954e-08
7.51939e-10
3.82439e-10
2.38227e-07
0.00010301
0.00150501
0.00290622
0.000128479
0.00388094
0.00180092
0.000127959
3.6516e-07
4.53664e-11
8.1219e-13
1.7654e-13
0.36572
0.390208
0.374337
0.37972
0.379359
0.387751
0.378119
0.37872
0.376358
0.370444
0.374728
0.388802
0.377393
0.384033
0.380683
0.376321
0.37568
0.374688
0.390868
0.366049
0.15468
0.229459
0.224563
0.203879
0.18767
0.200911
0.191897
0.192115
0.18479
0.180854
0.196105
0.196179
0.194596
0.203644
0.193289
0.185836
0.20318
0.225291
0.225879
0.147877
0.0309014
0.12304
0.118156
0.111742
0.0984434
0.103271
0.0982556
0.0970645
0.0934572
0.0914237
0.100005
0.0950927
0.0968007
0.102388
0.0987742
0.0994297
0.110678
0.116689
0.12066
0.0268526
0.0246292
0.0786217
0.0578038
0.0663274
0.0711583
0.0797661
0.0746818
0.0729447
0.0679507
0.0623527
0.0760083
0.0740219
0.0751809
0.0807131
0.0748242
0.0730005
0.0484638
0.0409547
0.0751661
0.018553
0.00876108
0.0446418
0.00429546
0.0196491
0.0509977
0.0639737
0.0571031
0.0559175
0.0471441
0.0247605
0.0595302
0.0655491
0.062378
0.0737756
0.0615551
0.0498148
0.00833805
0.00334937
0.0271966
0.00356396
0.000254686
0.001909
0.000237199
0.00966479
0.0329268
0.0440443
0.0369129
0.0361237
0.0227549
0.0135658
0.0448272
0.0526002
0.0450735
0.0616977
0.0495341
0.0331193
0.00804415
0.000158407
0.000505148
4.2126e-05
2.22004e-07
3.31675e-06
8.38144e-05
0.00334035
0.0159596
0.0239503
0.0169537
0.0156677
0.00228319
0.0103438
0.0320262
0.0386611
0.0288541
0.0468146
0.0378308
0.022924
0.00588469
0.000221167
5.62113e-07
7.38008e-09
5.873e-11
2.9643e-10
1.27723e-06
0.000196062
0.00295697
0.00670995
0.00281859
0.00195617
0.000216497
0.00668835
0.0206925
0.0258006
0.0144955
0.0318723
0.0255371
0.0132608
0.00230519
5.086e-05
4.61261e-08
1.01589e-10
4.69475e-12
1.03372e-11
1.79591e-10
4.69027e-07
5.32424e-05
0.000328049
4.92933e-05
2.12398e-05
5.17896e-05
0.00251285
0.0105193
0.0143039
0.00440233
0.0180304
0.013316
0.00439467
0.000253676
1.08072e-06
1.3448e-10
5.69556e-12
3.19751e-13
5.58505e-13
1.10991e-12
5.57575e-11
1.53507e-08
7.6551e-07
2.79858e-08
8.09242e-09
7.00201e-07
0.000204635
0.00236231
0.00433574
0.000400916
0.00562473
0.00295856
0.000268209
1.08092e-06
1.29126e-10
1.39139e-12
2.62016e-13
0.341847
0.360283
0.345307
0.355771
0.354549
0.357965
0.364212
0.36532
0.356632
0.34189
0.355812
0.368418
0.36864
0.341307
0.342775
0.339572
0.350979
0.345145
0.359737
0.341108
0.126753
0.165725
0.158602
0.147428
0.143597
0.148049
0.151207
0.157606
0.147903
0.140072
0.153577
0.150435
0.156801
0.132796
0.138805
0.135441
0.146339
0.160306
0.163869
0.12335
0.026663
0.0805458
0.0833186
0.0801127
0.0813395
0.0781008
0.0783747
0.0816861
0.0803574
0.0704885
0.0684198
0.0687125
0.069412
0.0601416
0.0647379
0.0748992
0.0740661
0.0829431
0.0799261
0.0229537
0.0187172
0.0566799
0.030883
0.0338667
0.0551995
0.0665456
0.0637361
0.0650043
0.0584253
0.0366108
0.0607773
0.0640276
0.063301
0.063126
0.0589013
0.0451776
0.0167681
0.0231545
0.0542488
0.0137609
0.00512021
0.0274188
0.00239638
0.00843807
0.0406648
0.0541718
0.0469341
0.0471435
0.0337711
0.0152557
0.0496218
0.0573195
0.0513846
0.0603384
0.0534346
0.0340421
0.00411292
0.00148371
0.0108332
0.00129192
0.000105695
0.000891477
0.000149853
0.0070443
0.0261468
0.0366191
0.0279082
0.0268825
0.0115345
0.0108083
0.0394527
0.0460143
0.0370475
0.0515643
0.044565
0.0269841
0.00558423
8.32194e-05
0.000105925
7.04335e-06
3.97431e-08
9.37762e-07
3.99132e-05
0.00203188
0.0111885
0.0180684
0.0101101
0.0077787
0.000850832
0.00903934
0.0286477
0.0335883
0.0224383
0.0397411
0.0336184
0.0194711
0.00444479
0.000131352
1.43346e-07
6.82774e-10
4.28534e-11
1.18368e-10
3.08397e-07
6.65412e-05
0.00134824
0.00364319
0.000866206
0.000330074
0.000145389
0.00549635
0.0180079
0.0220391
0.00990422
0.026785
0.0217487
0.0106599
0.00160401
2.8297e-05
1.83903e-08
8.7115e-11
3.28408e-12
5.83895e-12
4.57582e-11
6.20205e-08
1.10013e-05
8.91169e-05
4.71107e-06
6.95199e-07
2.9339e-05
0.00177097
0.00845495
0.0116007
0.00229309
0.0145415
0.010395
0.00299491
0.000137257
4.25783e-07
6.33555e-11
3.89726e-12
2.12612e-13
3.19322e-13
3.94622e-13
6.50097e-12
9.31724e-10
7.14568e-08
7.52975e-10
3.84277e-10
2.3836e-07
0.00010312
0.00150687
0.00290861
0.000128544
0.00388093
0.00180099
0.000127987
3.65313e-07
4.53749e-11
8.1227e-13
1.76569e-13
0.316291
0.315424
0.301812
0.299896
0.297703
0.300162
0.302368
0.302271
0.299409
0.287408
0.293162
0.30789
0.305616
0.296763
0.290184
0.291378
0.299209
0.30209
0.31426
0.315256
0.0821129
0.0853963
0.0819304
0.0767922
0.076772
0.0810886
0.0846248
0.0852178
0.0825037
0.0704193
0.0735205
0.0834989
0.0826868
0.0764939
0.0707683
0.0709886
0.0772154
0.0827997
0.0844888
0.0808874
0.0120227
0.0372774
0.031467
0.0238109
0.0268534
0.0389636
0.0405613
0.0412688
0.0353265
0.0204519
0.0283927
0.0470653
0.0432285
0.0424958
0.0247568
0.0190269
0.0231807
0.0336162
0.0373937
0.0107379
0.00690606
0.0222743
0.00751883
0.00525287
0.0166475
0.0417756
0.0367444
0.0374105
0.0263269
0.00882306
0.0300962
0.05198
0.0416891
0.0524245
0.0303076
0.0128516
0.00189918
0.00711869
0.0199929
0.00574355
0.000865103
0.00661354
0.000589188
0.00124579
0.0165271
0.030379
0.0187454
0.0176474
0.00980402
0.0038186
0.026978
0.0425958
0.0253129
0.0456309
0.0326642
0.0119416
0.000448451
0.000227011
0.00160616
0.000205615
8.61036e-06
0.00010245
1.66908e-05
0.00138346
0.00782094
0.0151753
0.00769327
0.00607731
0.00195857
0.00311626
0.0223302
0.0312835
0.0137917
0.0358953
0.0263671
0.010002
0.000712616
3.00499e-06
4.61741e-06
2.65e-07
9.19937e-10
2.54139e-08
2.18523e-06
0.000209971
0.00180766
0.00419062
0.0012651
0.000665923
5.38588e-05
0.00288678
0.0146341
0.0204289
0.00505246
0.0249955
0.0176791
0.00687654
0.000824066
8.767e-06
2.05228e-09
2.49453e-10
1.72208e-11
3.02775e-11
3.25187e-09
1.55347e-06
5.33957e-05
0.000241361
1.76288e-05
4.30094e-06
1.34915e-05
0.00118601
0.00705916
0.01065
0.00137812
0.0143152
0.00902501
0.00258693
0.000182258
1.18256e-06
2.58661e-10
2.03048e-11
9.18293e-13
9.7094e-13
5.3135e-12
1.56507e-10
4.99501e-08
8.118e-07
6.46327e-09
4.71198e-10
1.1937e-06
0.000195894
0.00196117
0.00363013
0.000200444
0.00560642
0.00266215
0.000334862
5.15045e-06
3.81456e-09
1.67231e-11
1.07308e-12
4.11818e-14
4.20869e-14
4.79081e-14
1.12165e-13
3.93613e-12
2.19831e-10
5.90808e-11
1.79499e-11
1.56805e-09
2.9822e-06
0.000119626
0.000373779
4.18649e-06
0.000720718
0.000169307
3.20023e-06
1.95255e-09
1.06055e-11
1.26509e-13
4.13409e-14
)
;

boundaryField
{
    aeration
    {
        type            calculated;
        value           uniform 0.5;
    }
    xsides
    {
        type            calculated;
        value           nonuniform List<scalar> 
100
(
0.316372
0.0821524
0.0120227
0.00690257
0.00086573
8.62582e-06
9.22108e-10
1.72276e-11
9.18778e-13
4.12207e-14
0.341932
0.126729
0.0266636
0.0187244
0.00512667
0.000105804
3.98094e-08
4.28507e-11
3.28345e-12
2.12559e-13
0.36572
0.15468
0.0309014
0.0246292
0.00876108
0.000254686
2.22004e-07
5.873e-11
4.69475e-12
3.19751e-13
0.341847
0.126753
0.026663
0.0187172
0.00512021
0.000105695
3.97431e-08
4.28534e-11
3.28408e-12
2.12612e-13
0.316291
0.0821129
0.0120227
0.00690606
0.000865103
8.61036e-06
9.19937e-10
1.72208e-11
9.18293e-13
4.11818e-14
0.315245
0.0808897
0.0107348
0.00573809
0.000205735
2.65584e-07
2.49417e-10
2.03083e-11
1.07349e-12
4.13442e-14
0.341068
0.123337
0.0229567
0.0137673
0.00128963
7.04226e-06
6.82722e-10
8.70848e-11
3.89693e-12
1.7654e-13
0.366049
0.147877
0.0268526
0.018553
0.00356396
4.2126e-05
7.38008e-09
1.01589e-10
5.69556e-12
2.62016e-13
0.341108
0.12335
0.0229537
0.0137609
0.00129192
7.04335e-06
6.82774e-10
8.7115e-11
3.89726e-12
1.76569e-13
0.315256
0.0808874
0.0107379
0.00574355
0.000205615
2.65e-07
2.49453e-10
2.03048e-11
1.07308e-12
4.13409e-14
)
;
    }
    zsides
    {
        type            calculated;
        value           nonuniform List<scalar> 
400
(
0.316372
0.0821524
0.0120227
0.00690257
0.00086573
8.62582e-06
9.22108e-10
1.72276e-11
9.18778e-13
4.12207e-14
0.315502
0.0854343
0.0373046
0.0222602
0.00661522
0.000102577
2.54847e-08
3.02683e-11
9.70966e-13
4.20893e-14
0.301828
0.0819057
0.0314152
0.00756489
0.000590627
1.67687e-05
2.18573e-06
3.24822e-09
5.30474e-12
4.79408e-14
0.299912
0.0773178
0.0245001
0.00510253
0.00124592
0.00138785
0.000209954
1.55529e-06
1.56468e-10
1.12031e-13
0.297978
0.0771212
0.0271266
0.0164466
0.0165441
0.0078112
0.00180731
5.34435e-05
4.99636e-08
3.92348e-12
0.300587
0.0813121
0.0390584
0.0418193
0.0303654
0.015166
0.00418836
0.000241132
8.10351e-07
2.19049e-10
0.302451
0.0846639
0.0405554
0.0367191
0.0187593
0.00769427
0.00126471
1.7616e-05
6.45435e-09
5.90051e-11
0.302435
0.0853042
0.0412994
0.0372993
0.0176101
0.00606603
0.00066632
4.31143e-06
4.71435e-10
1.79045e-11
0.299383
0.0824889
0.0352896
0.0263027
0.009792
0.00195708
5.39178e-05
1.34923e-05
1.19308e-06
1.56626e-09
0.287468
0.0704717
0.0204992
0.0088206
0.00381821
0.00311462
0.00288287
0.00118429
0.000195625
2.97895e-06
0.293237
0.0735454
0.0284026
0.0300771
0.026933
0.0222787
0.014596
0.00704162
0.00195751
0.000119579
0.307354
0.0832625
0.0466117
0.0514167
0.042373
0.0311643
0.0203634
0.0106216
0.00362384
0.000373959
0.30559
0.0825641
0.0431234
0.0416319
0.0253486
0.0137838
0.00505433
0.00137753
0.000200344
4.18766e-06
0.296687
0.0764824
0.0425306
0.0524961
0.0456532
0.0359026
0.0249993
0.014318
0.00560799
0.000721089
0.290167
0.0708075
0.0247463
0.0302732
0.0326923
0.0263758
0.0176807
0.00902585
0.00266271
0.000169399
0.291277
0.0710806
0.0190534
0.0127849
0.0119989
0.00999494
0.00687521
0.00258694
0.000334868
3.20111e-06
0.299179
0.0774351
0.0235757
0.00189659
0.000448933
0.000712653
0.000822912
0.000182288
5.14989e-06
1.95237e-09
0.302091
0.0828095
0.0336097
0.00711803
0.000227156
3.00237e-06
8.74565e-06
1.18272e-06
3.81547e-09
1.0609e-11
0.314273
0.0845045
0.0374072
0.0199881
0.00160673
4.62067e-06
2.04703e-09
2.58642e-10
1.67246e-11
1.26577e-13
0.315245
0.0808897
0.0107348
0.00573809
0.000205735
2.65584e-07
2.49417e-10
2.03083e-11
1.07349e-12
4.13442e-14
0.316291
0.0821129
0.0120227
0.00690606
0.000865103
8.61036e-06
9.19937e-10
1.72208e-11
9.18293e-13
4.11818e-14
0.315424
0.0853963
0.0372774
0.0222743
0.00661354
0.00010245
2.54139e-08
3.02775e-11
9.7094e-13
4.20869e-14
0.301812
0.0819304
0.031467
0.00751883
0.000589188
1.66908e-05
2.18523e-06
3.25187e-09
5.3135e-12
4.79081e-14
0.299896
0.0767922
0.0238109
0.00525287
0.00124579
0.00138346
0.000209971
1.55347e-06
1.56507e-10
1.12165e-13
0.297703
0.076772
0.0268534
0.0166475
0.0165271
0.00782094
0.00180766
5.33957e-05
4.99501e-08
3.93613e-12
0.300162
0.0810886
0.0389636
0.0417756
0.030379
0.0151753
0.00419062
0.000241361
8.118e-07
2.19831e-10
0.302368
0.0846248
0.0405613
0.0367444
0.0187454
0.00769327
0.0012651
1.76288e-05
6.46327e-09
5.90808e-11
0.302271
0.0852178
0.0412688
0.0374105
0.0176474
0.00607731
0.000665923
4.30094e-06
4.71198e-10
1.79499e-11
0.299409
0.0825037
0.0353265
0.0263269
0.00980402
0.00195857
5.38588e-05
1.34915e-05
1.1937e-06
1.56805e-09
0.287408
0.0704193
0.0204519
0.00882306
0.0038186
0.00311626
0.00288678
0.00118601
0.000195894
2.9822e-06
0.293162
0.0735205
0.0283927
0.0300962
0.026978
0.0223302
0.0146341
0.00705916
0.00196117
0.000119626
0.30789
0.0834989
0.0470653
0.05198
0.0425958
0.0312835
0.0204289
0.01065
0.00363013
0.000373779
0.305616
0.0826868
0.0432285
0.0416891
0.0253129
0.0137917
0.00505246
0.00137812
0.000200444
4.18649e-06
0.296763
0.0764939
0.0424958
0.0524245
0.0456309
0.0358953
0.0249955
0.0143152
0.00560642
0.000720718
0.290184
0.0707683
0.0247568
0.0303076
0.0326642
0.0263671
0.0176791
0.00902501
0.00266215
0.000169307
0.291378
0.0709886
0.0190269
0.0128516
0.0119416
0.010002
0.00687654
0.00258693
0.000334862
3.20023e-06
0.299209
0.0772154
0.0231807
0.00189918
0.000448451
0.000712616
0.000824066
0.000182258
5.15045e-06
1.95255e-09
0.30209
0.0827997
0.0336162
0.00711869
0.000227011
3.00499e-06
8.767e-06
1.18256e-06
3.81456e-09
1.06055e-11
0.31426
0.0844888
0.0373937
0.0199929
0.00160616
4.61741e-06
2.05228e-09
2.58661e-10
1.67231e-11
1.26509e-13
0.315256
0.0808874
0.0107379
0.00574355
0.000205615
2.65e-07
2.49453e-10
2.03048e-11
1.07308e-12
4.13409e-14
)
;
    }
    outlet
    {
        type            calculated;
        value           nonuniform List<scalar> 
100
(
1.5754e-14
9.26423e-14
1.41617e-13
9.26493e-14
1.57484e-14
1.46744e-14
1.40308e-13
2.46978e-13
1.4033e-13
1.46747e-14
2.10655e-14
1.62309e-13
2.89051e-13
1.62329e-13
2.10611e-14
2.84855e-14
2.22113e-13
4.01399e-13
2.22154e-13
2.84731e-14
6.84526e-14
1.1742e-12
1.10828e-11
1.17812e-12
6.84312e-14
2.19049e-10
7.12954e-08
7.6551e-07
7.14568e-08
2.19831e-10
5.90051e-11
7.51939e-10
2.79858e-08
7.52975e-10
5.90808e-11
1.79045e-11
3.82439e-10
8.09242e-09
3.84277e-10
1.79499e-11
1.56626e-09
2.38227e-07
7.00201e-07
2.3836e-07
1.56805e-09
2.97895e-06
0.00010301
0.000204635
0.00010312
2.9822e-06
0.000119579
0.00150501
0.00236231
0.00150687
0.000119626
0.000373959
0.00290622
0.00433574
0.00290861
0.000373779
4.18766e-06
0.000128479
0.000400916
0.000128544
4.18649e-06
0.000721089
0.00388094
0.00562473
0.00388093
0.000720718
0.000169399
0.00180092
0.00295856
0.00180099
0.000169307
3.20111e-06
0.000127959
0.000268209
0.000127987
3.20023e-06
3.92774e-14
2.41337e-13
4.18715e-13
2.41359e-13
3.92627e-14
2.42149e-14
1.45003e-13
2.47636e-13
1.45011e-13
2.42098e-14
1.91668e-14
1.23322e-13
2.14283e-13
1.23332e-13
1.91665e-14
1.65589e-14
7.72903e-14
1.14392e-13
7.72998e-14
1.6263e-14
)
;
    }
}


// ************************************************************************* //
