/*--------------------------------*- C++ -*----------------------------------*\
| =========                 |                                                 |
| \\      /  F ield         | OpenFOAM: The Open Source CFD Toolbox           |
|  \\    /   O peration     | Version:  2.3.0                                 |
|   \\  /    A nd           | Web:      www.OpenFOAM.org                      |
|    \\/     M anipulation  |                                                 |
\*---------------------------------------------------------------------------*/
FoamFile
{
    version     2.0;
    format      ascii;
    class       volScalarField;
    location    "1.29705";
    object      nut.air;
}
// * * * * * * * * * * * * * * * * * * * * * * * * * * * * * * * * * * * * * //

dimensions      [0 2 -1 0 0 0 0];

internalField   nonuniform List<scalar> 
1000
(
7.9732e-08
1.03222e-07
1.85158e-07
2.23222e-07
5.42737e-32
5.78971e-32
5.93354e-32
5.93192e-32
4.76952e-32
4.82243e-32
6.15979e-32
4.39715e-08
2.18042e-08
2.00396e-24
5.27588e-32
5.51537e-32
2.05945e-07
1.72268e-07
9.91041e-08
7.4536e-08
8.08489e-08
2.5459e-07
4.71397e-07
3.75984e-07
3.05858e-23
4.00291e-32
3.92918e-32
4.28183e-32
3.34152e-32
3.60298e-32
5.33258e-32
8.91639e-32
8.0815e-32
5.36477e-32
4.20102e-32
4.18957e-18
2.93316e-07
4.11831e-07
2.25532e-07
7.6537e-08
7.64097e-08
5.92083e-07
3.18656e-07
2.55788e-07
2.29874e-07
2.55652e-07
2.77687e-07
2.88488e-07
2.14096e-07
1.32972e-07
1.84015e-07
7.58436e-32
1.31978e-07
6.97891e-32
2.47609e-07
2.16053e-07
1.77564e-07
3.17053e-07
4.72891e-07
7.52408e-08
7.94796e-08
2.74999e-07
6.73989e-08
5.56401e-08
6.45799e-08
1.91836e-07
2.18977e-07
2.27237e-07
1.13244e-07
5.45427e-08
9.97059e-08
9.48612e-32
3.17832e-07
2.17306e-31
1.33795e-07
6.99302e-08
5.88095e-08
6.67864e-08
2.40762e-07
6.89566e-08
3.09529e-08
5.12942e-08
3.84759e-08
3.5229e-08
4.16817e-08
9.2826e-08
5.95027e-08
6.54873e-08
3.28724e-08
4.84101e-08
6.27697e-08
4.24811e-08
3.84985e-07
6.92301e-08
7.97951e-08
4.90257e-08
9.2314e-08
8.07015e-08
3.5223e-08
1.33553e-07
1.89111e-07
7.04316e-08
1.56238e-07
2.27103e-08
1.8171e-08
2.02322e-08
1.26983e-08
1.70517e-08
2.00828e-08
3.2132e-08
5.00887e-08
5.22221e-08
9.1907e-08
7.71197e-08
6.69062e-08
3.81622e-08
5.1752e-08
2.32576e-07
1.92283e-07
2.18168e-07
1.76942e-07
1.41451e-07
1.54644e-07
3.33075e-08
1.06988e-08
6.90449e-09
4.54999e-09
1.0709e-08
8.44854e-08
3.16424e-08
5.62238e-08
6.05968e-08
1.02231e-08
8.51588e-08
8.01827e-08
4.10852e-08
3.74688e-08
1.92445e-07
1.96479e-07
2.1363e-07
1.69217e-07
1.32165e-07
1.28272e-07
1.19397e-07
4.7084e-08
1.16308e-08
6.85867e-08
9.55082e-08
1.01497e-07
2.13233e-08
5.02957e-08
5.93395e-08
5.40594e-09
8.59191e-08
7.04201e-08
2.74598e-08
4.08234e-08
1.68958e-07
1.72467e-07
1.95109e-07
1.725e-07
1.29308e-07
1.21855e-07
1.13475e-07
1.20206e-07
1.2084e-07
1.7666e-07
1.97436e-07
1.21146e-07
2.65149e-08
3.01801e-08
3.96047e-08
2.19792e-08
6.0874e-08
3.5096e-08
2.26716e-08
1.14736e-07
1.43467e-07
1.59967e-07
1.9689e-07
1.79903e-07
1.34685e-07
1.31119e-07
1.32892e-07
1.71158e-07
1.49082e-07
1.61972e-07
1.60645e-07
1.59379e-07
1.34822e-07
4.7802e-08
3.12166e-08
1.55741e-07
2.90071e-08
3.38894e-08
1.08895e-07
1.48998e-07
1.36391e-07
1.41814e-07
1.88907e-07
3.98366e-08
7.73294e-08
1.71697e-07
2.17662e-07
2.67831e-09
1.6725e-11
2.23893e-11
2.24544e-11
1.26089e-11
5.52232e-12
3.36218e-11
3.23969e-08
1.88045e-08
6.16618e-11
8.67985e-12
1.75004e-09
1.96855e-07
1.56989e-07
7.39251e-08
3.59449e-08
4.88993e-09
1.8851e-07
4.30993e-07
3.94152e-07
1.16653e-07
4.09866e-09
1.57433e-10
1.92636e-10
1.54799e-10
4.09746e-09
3.20713e-10
2.33478e-08
1.18344e-08
9.44518e-11
1.10259e-08
1.203e-07
3.20446e-07
3.82576e-07
1.66994e-07
4.44445e-09
4.16604e-09
4.46201e-07
3.39766e-07
2.85854e-07
2.42911e-07
1.9963e-07
2.02902e-07
1.98471e-07
1.80776e-07
1.34691e-07
1.36161e-07
2.97189e-08
7.42003e-08
5.61003e-08
1.97486e-07
2.15466e-07
2.25858e-07
3.27255e-07
3.73519e-07
5.36789e-09
1.87612e-08
3.01532e-07
1.1772e-07
9.72146e-08
1.38358e-07
1.80013e-07
1.95311e-07
1.96941e-07
1.52339e-07
3.02472e-08
1.19886e-07
5.68655e-08
2.69682e-07
7.64635e-08
1.64689e-07
9.3424e-08
4.44377e-08
9.25831e-08
2.61261e-07
1.67864e-08
2.14216e-08
1.14355e-07
1.80072e-08
3.99385e-09
3.96406e-08
1.42474e-07
1.29617e-07
1.36805e-07
4.48199e-08
6.1803e-09
6.51506e-08
5.64822e-08
2.40326e-07
7.22196e-08
9.26269e-08
2.98587e-08
9.11202e-09
1.59883e-08
4.62458e-08
1.86244e-08
8.8802e-08
1.43163e-08
2.06996e-08
7.39028e-10
6.22194e-09
5.20203e-08
2.46552e-08
2.51895e-08
2.02556e-09
2.40801e-09
2.46348e-08
2.93107e-08
1.58117e-07
4.58398e-08
4.10499e-08
6.75698e-09
5.89884e-09
3.92202e-08
4.50184e-08
1.2925e-07
1.61351e-07
9.1611e-08
3.01683e-08
1.07555e-09
4.08543e-10
4.31996e-09
7.72287e-10
8.68339e-10
2.68175e-09
2.75905e-09
1.31725e-08
1.22207e-08
4.21438e-08
2.62331e-08
2.87795e-08
5.62697e-09
2.64872e-09
1.94214e-08
7.73813e-08
1.44996e-07
1.74239e-07
1.01178e-07
9.62825e-08
1.68067e-08
8.92487e-10
6.42062e-10
1.20963e-09
3.76383e-09
1.38747e-08
1.36075e-09
6.86057e-09
9.37114e-09
2.67205e-09
2.31123e-08
1.88692e-08
2.14725e-09
2.39279e-09
4.06647e-08
8.76739e-08
1.3997e-07
1.67525e-07
1.08738e-07
1.14866e-07
1.26866e-07
5.31418e-08
8.56973e-09
7.33954e-08
1.2339e-07
3.17037e-08
1.2977e-09
1.67397e-09
2.90428e-09
9.13956e-10
1.19652e-08
3.78365e-09
1.23487e-09
8.54525e-09
9.06736e-08
9.7754e-08
1.39541e-07
1.3839e-07
1.35877e-07
1.35818e-07
1.46526e-07
2.01831e-07
1.46033e-07
1.50604e-07
1.40071e-07
1.16622e-07
1.03345e-08
2.39974e-09
2.51792e-09
8.05621e-09
3.73521e-09
2.31414e-09
7.31595e-09
1.41048e-07
1.4644e-07
1.42354e-07
1.45119e-07
3.06171e-08
5.87511e-08
1.54118e-07
2.10506e-07
2.19977e-08
2.34281e-09
1.05767e-09
1.48342e-09
1.47608e-09
6.91081e-10
1.63166e-09
1.0527e-08
4.22046e-09
1.18523e-09
1.02754e-09
1.7624e-08
1.93655e-07
1.38313e-07
5.66468e-08
2.8729e-08
2.38819e-08
1.33991e-07
4.18322e-07
3.95543e-07
1.31638e-07
9.53826e-09
4.70899e-10
1.47215e-10
2.81908e-10
8.67102e-10
2.11297e-09
8.87575e-09
5.7738e-09
1.35374e-09
1.14032e-08
1.37677e-07
3.21542e-07
3.70463e-07
1.18148e-07
1.45016e-08
2.90365e-31
3.92475e-07
3.3944e-07
2.97558e-07
2.36133e-07
1.29629e-07
1.21476e-07
1.11776e-07
1.15634e-07
7.63345e-08
7.8326e-08
1.69105e-08
2.1943e-08
1.31227e-08
1.59288e-07
2.15223e-07
2.48017e-07
3.22801e-07
3.27026e-07
2.54356e-30
3.1394e-21
3.07439e-07
1.48757e-07
1.38996e-07
1.58853e-07
1.54034e-07
1.6474e-07
1.65074e-07
1.25435e-07
3.85277e-08
8.82251e-08
3.17409e-08
2.02506e-07
5.85125e-08
1.51899e-07
1.22183e-07
7.01284e-08
1.21986e-07
2.69169e-07
1.16083e-13
1.66882e-08
1.38725e-07
1.6721e-08
1.42882e-08
5.91673e-08
1.34305e-07
1.30659e-07
1.33354e-07
6.72243e-08
1.62759e-09
6.22017e-08
3.07853e-08
2.06517e-07
5.26961e-08
1.07101e-07
4.43207e-08
1.32376e-09
1.70205e-08
7.62857e-08
1.36987e-08
7.30267e-08
1.36744e-08
7.69946e-09
1.86377e-10
9.717e-09
6.8696e-08
4.10677e-08
4.36216e-08
4.58911e-09
1.91389e-10
2.05103e-08
2.58654e-09
1.61231e-07
9.31569e-09
4.57711e-08
9.77644e-09
2.31427e-10
1.03966e-08
2.28991e-08
1.61582e-07
2.19763e-07
1.18599e-07
9.08167e-09
2.56373e-10
2.52534e-10
5.998e-09
1.24691e-09
1.46934e-09
8.67552e-10
1.87659e-10
8.08421e-10
2.13607e-11
5.86805e-08
5.92583e-10
4.01252e-09
2.71584e-10
1.67323e-10
3.89615e-09
9.18262e-08
1.86869e-07
2.30233e-07
1.47381e-07
1.07873e-07
3.67237e-09
2.03612e-10
2.52205e-10
2.9073e-10
5.82302e-10
4.92128e-09
1.45273e-10
6.5405e-11
3.38676e-11
4.16686e-09
1.69135e-10
1.40876e-10
7.75907e-11
2.87069e-10
1.63615e-08
1.11685e-07
1.76102e-07
1.8591e-07
1.4255e-07
1.55364e-07
1.53375e-07
1.27559e-08
1.42472e-09
1.30129e-08
3.58523e-08
1.2216e-08
2.13334e-10
6.04242e-11
5.23837e-11
2.57687e-10
6.86813e-11
5.86894e-11
1.22652e-10
2.41558e-09
9.92506e-08
1.28198e-07
1.42073e-07
1.29557e-07
1.4092e-07
1.39241e-07
1.49792e-07
2.07455e-07
1.16038e-07
1.52913e-07
1.48721e-07
1.06875e-07
2.18223e-09
1.55073e-10
1.15082e-10
6.71107e-10
9.0159e-11
1.35408e-10
1.58917e-09
1.39068e-07
1.56229e-07
1.54559e-07
1.38034e-07
4.02356e-08
7.73075e-08
1.72192e-07
2.14874e-07
2.76485e-09
2.01346e-11
2.12946e-11
2.76428e-11
1.13334e-11
5.60608e-12
3.03362e-11
3.49126e-08
1.98215e-08
7.14385e-11
8.12566e-12
1.78481e-09
1.96519e-07
1.57153e-07
7.41788e-08
3.6446e-08
4.85517e-09
1.88258e-07
4.31272e-07
3.94607e-07
1.1768e-07
3.83429e-09
1.5305e-10
1.83949e-10
1.66863e-10
2.84897e-09
3.20213e-10
2.52622e-08
1.23784e-08
1.16298e-10
1.30632e-08
1.28771e-07
3.20378e-07
3.82757e-07
1.67434e-07
4.66257e-09
4.04442e-09
4.43452e-07
3.3888e-07
2.84915e-07
2.44945e-07
1.95871e-07
2.02868e-07
1.92791e-07
1.85766e-07
1.35003e-07
1.38545e-07
3.15136e-08
7.65929e-08
5.93802e-08
2.01441e-07
2.17117e-07
2.25772e-07
3.26605e-07
3.71805e-07
5.55348e-09
1.85505e-08
3.00169e-07
1.17403e-07
9.82497e-08
1.39177e-07
1.78237e-07
1.95178e-07
1.95786e-07
1.52945e-07
3.06051e-08
1.21027e-07
5.76132e-08
2.6932e-07
7.71609e-08
1.66394e-07
9.44859e-08
4.44612e-08
9.21631e-08
2.60388e-07
1.6789e-08
2.20902e-08
1.13809e-07
1.80661e-08
3.9867e-09
4.04999e-08
1.4216e-07
1.29586e-07
1.36996e-07
4.46048e-08
6.20989e-09
6.45236e-08
5.71415e-08
2.38793e-07
7.26944e-08
9.2644e-08
3.00021e-08
9.17302e-09
1.59285e-08
4.60494e-08
1.82977e-08
8.79227e-08
1.43231e-08
2.07762e-08
7.48679e-10
6.41678e-09
5.28496e-08
2.49495e-08
2.5627e-08
2.07487e-09
2.42113e-09
2.46429e-08
2.94047e-08
1.57188e-07
4.59147e-08
4.12738e-08
6.78768e-09
5.96788e-09
3.92801e-08
4.50891e-08
1.29916e-07
1.61503e-07
9.16677e-08
3.02813e-08
1.0755e-09
4.14263e-10
4.45442e-09
7.90921e-10
8.88358e-10
2.68378e-09
2.7594e-09
1.32597e-08
1.22601e-08
4.23844e-08
2.62997e-08
2.87626e-08
5.55254e-09
2.60975e-09
1.9425e-08
7.74705e-08
1.44785e-07
1.74159e-07
1.01187e-07
9.63296e-08
1.68325e-08
8.94635e-10
6.46697e-10
1.21006e-09
3.76258e-09
1.38661e-08
1.35866e-09
6.84274e-09
9.33904e-09
2.73184e-09
2.30516e-08
1.85716e-08
2.07784e-09
2.37412e-09
4.06297e-08
8.76671e-08
1.399e-07
1.67326e-07
1.08715e-07
1.14806e-07
1.26806e-07
5.31101e-08
8.54759e-09
7.32852e-08
1.23267e-07
3.1675e-08
1.29227e-09
1.64391e-09
2.82821e-09
9.14489e-10
1.16927e-08
3.62995e-09
1.20744e-09
8.49635e-09
9.04605e-08
9.7824e-08
1.39579e-07
1.38264e-07
1.35862e-07
1.35773e-07
1.46411e-07
2.01584e-07
1.45836e-07
1.50444e-07
1.39932e-07
1.16508e-07
1.0296e-08
2.36913e-09
2.46412e-09
8.03024e-09
3.60828e-09
2.26257e-09
7.26687e-09
1.40939e-07
1.46523e-07
1.42461e-07
1.45162e-07
7.96421e-08
1.03233e-07
1.85882e-07
2.19477e-07
5.54682e-32
5.9289e-32
5.95368e-32
5.87927e-32
4.77413e-32
4.88395e-32
6.04042e-32
4.8389e-08
2.31702e-08
6.83624e-23
5.29723e-32
5.64235e-32
2.05465e-07
1.7254e-07
9.92879e-08
7.46938e-08
8.0434e-08
2.549e-07
4.71676e-07
3.76938e-07
8.09645e-23
4.10394e-32
3.97302e-32
4.23351e-32
3.33132e-32
3.69741e-32
5.03236e-32
9.41866e-32
8.57705e-32
5.14996e-32
4.25894e-32
9.95368e-18
2.93649e-07
4.12335e-07
2.26423e-07
7.68298e-08
7.57823e-08
5.88249e-07
3.16237e-07
2.51802e-07
2.3078e-07
2.52049e-07
2.77553e-07
2.83741e-07
2.17788e-07
1.32861e-07
1.86196e-07
7.60153e-32
1.34226e-07
8.04744e-32
2.52012e-07
2.16655e-07
1.78045e-07
3.15515e-07
4.70417e-07
7.54832e-08
7.86863e-08
2.70846e-07
6.7386e-08
5.56872e-08
6.53426e-08
1.88215e-07
2.17632e-07
2.23957e-07
1.12546e-07
5.44454e-08
9.96555e-08
9.39587e-32
3.16432e-07
2.26155e-31
1.34621e-07
6.99348e-08
5.83619e-08
6.63081e-08
2.37632e-07
6.89765e-08
3.08758e-08
5.06564e-08
3.85421e-08
3.53128e-08
4.15205e-08
9.33718e-08
5.94348e-08
6.5722e-08
3.29275e-08
4.84044e-08
6.26874e-08
4.17718e-08
3.79547e-07
6.93664e-08
7.97775e-08
4.88468e-08
9.23243e-08
8.0478e-08
3.51008e-08
1.33217e-07
1.88528e-07
7.03475e-08
1.56216e-07
2.28493e-08
1.81178e-08
2.04136e-08
1.26589e-08
1.69969e-08
2.00543e-08
3.21076e-08
5.02125e-08
5.24399e-08
9.11105e-08
7.7378e-08
6.71614e-08
3.81496e-08
5.17444e-08
2.32554e-07
1.92122e-07
2.18254e-07
1.76821e-07
1.41352e-07
1.54471e-07
3.31872e-08
1.0698e-08
6.94271e-09
4.55323e-09
1.07017e-08
8.44741e-08
3.15757e-08
5.63574e-08
6.08204e-08
1.02893e-08
8.52322e-08
8.02012e-08
4.10526e-08
3.73536e-08
1.92223e-07
1.96371e-07
2.13273e-07
1.68955e-07
1.32084e-07
1.28206e-07
1.19345e-07
4.70953e-08
1.16283e-08
6.85084e-08
9.54534e-08
1.01421e-07
2.12983e-08
5.03461e-08
5.94738e-08
5.40611e-09
8.59002e-08
7.03819e-08
2.74209e-08
4.09052e-08
1.68968e-07
1.72376e-07
1.94901e-07
1.72245e-07
1.29224e-07
1.21777e-07
1.13392e-07
1.20108e-07
1.20736e-07
1.7651e-07
1.97267e-07
1.21036e-07
2.64502e-08
3.01152e-08
3.95617e-08
2.19424e-08
6.08006e-08
3.50551e-08
2.26401e-08
1.14579e-07
1.43354e-07
1.59887e-07
1.96681e-07
1.79746e-07
1.34634e-07
1.31057e-07
1.32794e-07
1.7096e-07
1.48934e-07
1.61832e-07
1.60525e-07
1.59269e-07
1.34713e-07
4.77137e-08
3.11595e-08
1.55664e-07
2.9005e-08
3.38863e-08
1.08804e-07
1.4894e-07
1.3636e-07
1.41783e-07
1.88841e-07
)
;

boundaryField
{
    aeration
    {
        type            calculated;
        value           nonuniform List<scalar> 
100
(
1.89023e-08
1.89023e-08
1.89024e-08
1.89023e-08
1.89023e-08
1.89019e-08
1.89019e-08
1.8902e-08
1.89019e-08
1.89019e-08
1.89018e-08
1.89018e-08
1.89018e-08
1.89018e-08
1.89018e-08
1.89015e-08
1.89015e-08
1.89015e-08
1.89015e-08
1.89015e-08
1.89014e-08
1.89015e-08
1.89015e-08
1.89015e-08
1.89014e-08
1.89013e-08
1.89013e-08
1.89013e-08
1.89013e-08
1.89013e-08
1.89011e-08
1.89011e-08
1.8901e-08
1.89011e-08
1.89011e-08
1.89009e-08
1.89009e-08
1.89009e-08
1.89009e-08
1.89009e-08
1.8901e-08
1.8901e-08
1.8901e-08
1.8901e-08
1.8901e-08
1.89013e-08
1.89014e-08
1.89014e-08
1.89014e-08
1.89013e-08
1.89011e-08
1.89012e-08
1.89012e-08
1.89012e-08
1.89011e-08
1.8901e-08
1.8901e-08
1.89009e-08
1.8901e-08
1.8901e-08
1.89011e-08
1.89012e-08
1.89011e-08
1.89012e-08
1.89011e-08
1.89014e-08
1.89015e-08
1.89015e-08
1.89015e-08
1.89014e-08
1.89016e-08
1.89016e-08
1.89017e-08
1.89016e-08
1.89016e-08
1.89017e-08
1.89017e-08
1.89018e-08
1.89017e-08
1.89017e-08
1.89018e-08
1.89018e-08
1.89018e-08
1.89018e-08
1.89018e-08
1.8902e-08
1.89021e-08
1.89021e-08
1.89021e-08
1.8902e-08
1.89022e-08
1.89022e-08
1.89023e-08
1.89022e-08
1.89022e-08
1.89026e-08
1.89027e-08
1.89027e-08
1.89027e-08
1.89026e-08
)
;
    }
    xsides
    {
        type            nutkWallFunction;
        Cmu             0.09;
        kappa           0.41;
        E               9.8;
        value           uniform 1e-08;
    }
    zsides
    {
        type            nutkWallFunction;
        Cmu             0.09;
        kappa           0.41;
        E               9.8;
        value           uniform 1e-08;
    }
    outlet
    {
        type            calculated;
        value           nonuniform List<scalar> 
100
(
1.68929e-07
1.68929e-07
1.68929e-07
1.68929e-07
1.68929e-07
1.68929e-07
1.68929e-07
1.68929e-07
1.68929e-07
1.68929e-07
1.68929e-07
1.68929e-07
1.68929e-07
1.68929e-07
1.68929e-07
1.68929e-07
1.68929e-07
1.68929e-07
1.68929e-07
1.68929e-07
1.68929e-07
1.68929e-07
1.68929e-07
1.68929e-07
1.68929e-07
1.49061e-07
1.46013e-07
1.16021e-07
1.45815e-07
1.48913e-07
1.6195e-07
1.50583e-07
1.52892e-07
1.50423e-07
1.6181e-07
1.60623e-07
1.40051e-07
1.487e-07
1.39913e-07
1.60502e-07
1.59356e-07
1.16606e-07
1.0686e-07
1.16492e-07
1.59246e-07
1.34803e-07
1.03332e-08
2.18195e-09
1.02947e-08
1.34694e-07
4.77959e-08
2.39941e-09
1.55051e-10
2.3688e-09
4.77076e-08
3.12125e-08
2.51757e-09
1.15066e-10
2.46378e-09
3.11554e-08
1.55719e-07
8.05518e-09
6.71016e-10
8.02921e-09
1.55642e-07
2.90033e-08
3.73469e-09
9.01465e-11
3.60778e-09
2.90012e-08
3.38851e-08
2.31382e-09
1.35389e-10
2.26225e-09
3.3882e-08
1.0888e-07
7.31502e-09
1.58895e-09
7.26595e-09
1.08789e-07
1.68929e-07
1.68929e-07
1.68929e-07
1.68929e-07
1.68929e-07
1.68929e-07
1.68929e-07
1.68929e-07
1.68929e-07
1.68929e-07
1.68929e-07
1.68929e-07
1.68929e-07
1.68929e-07
1.68929e-07
1.68929e-07
1.68929e-07
1.68929e-07
1.68929e-07
1.68929e-07
)
;
    }
}


// ************************************************************************* //
