/*--------------------------------*- C++ -*----------------------------------*\
| =========                 |                                                 |
| \\      /  F ield         | OpenFOAM: The Open Source CFD Toolbox           |
|  \\    /   O peration     | Version:  2.3.0                                 |
|   \\  /    A nd           | Web:      www.OpenFOAM.org                      |
|    \\/     M anipulation  |                                                 |
\*---------------------------------------------------------------------------*/
FoamFile
{
    version     2.0;
    format      ascii;
    class       volVectorField;
    location    "1.29705";
    object      Ur;
}
// * * * * * * * * * * * * * * * * * * * * * * * * * * * * * * * * * * * * * //

dimensions      [0 1 -1 0 0 0 0];

internalField   nonuniform List<vector> 
1000
(
(0.000110888 0.00383933 1.49613e-05)
(7.25583e-05 0.00282027 -7.06879e-06)
(3.02204e-05 0.0022316 -8.779e-06)
(-1.92188e-05 0.00238442 5.50167e-06)
(-6.55544e-05 0.00273959 3.78809e-05)
(-3.3004e-05 0.00264809 3.10438e-05)
(-4.4858e-06 0.00235391 2.52436e-05)
(-1.51065e-05 0.00230469 2.71093e-05)
(-9.254e-05 0.00251778 2.84026e-05)
(-6.66729e-05 0.00332296 4.15816e-05)
(6.7319e-05 0.00305767 4.31833e-05)
(-2.07658e-05 0.00219297 2.22927e-05)
(-4.96239e-05 0.00221963 2.49368e-05)
(-2.03702e-05 0.00275391 1.7421e-05)
(4.28731e-05 0.00305084 4.1603e-05)
(5.23346e-05 0.00283179 3.27681e-05)
(-1.07243e-05 0.00233783 6.04195e-06)
(-2.53947e-05 0.00223369 -9.9544e-06)
(-6.53611e-05 0.00298142 -3.4197e-06)
(-0.0001078 0.00399938 1.68506e-05)
(0.000118856 0.00207487 5.55558e-07)
(0.000112446 0.00197725 -2.99658e-05)
(3.97569e-05 0.00172054 1.62672e-05)
(3.92575e-05 0.00167088 3.48815e-05)
(-7.97825e-06 0.00164688 1.41977e-05)
(-2.94809e-05 0.00189229 -1.8332e-05)
(1.27399e-05 0.00186754 -1.78458e-05)
(5.20997e-08 0.00186109 -1.937e-05)
(-4.4084e-05 0.00185477 -2.062e-05)
(-4.44684e-05 0.00194668 -1.25653e-05)
(-7.38649e-05 0.00197165 -4.14033e-06)
(-9.12853e-05 0.00194772 -2.75344e-06)
(-3.14746e-05 0.00195961 -1.99263e-05)
(4.66212e-05 0.00204679 6.68565e-06)
(6.47826e-05 0.00187243 -9.74952e-06)
(-5.95136e-06 0.00173359 8.15558e-06)
(-4.4142e-05 0.00166204 3.11965e-05)
(-3.50016e-05 0.00175277 1.70204e-05)
(-0.000125135 0.00202146 -2.46718e-05)
(-0.000125007 0.00210923 -9.11382e-06)
(2.92548e-05 0.00186861 -1.34971e-05)
(1.84586e-05 0.00188048 1.41159e-06)
(-1.45281e-05 0.00175153 5.65855e-06)
(8.58875e-05 0.00176194 -1.15708e-05)
(4.91527e-05 0.00173359 -1.16635e-05)
(-6.21014e-07 0.00171157 -2.18644e-06)
(-1.92803e-05 0.00170853 -1.28785e-05)
(-1.69335e-05 0.00172202 -1.57661e-05)
(-5.1157e-05 0.00172899 -1.49906e-05)
(-3.97946e-05 0.00185298 -1.13418e-05)
(-2.22472e-05 0.00185497 -1.64098e-05)
(-6.49506e-05 0.00197527 8.72383e-06)
(-2.39039e-05 0.00187003 -3.82637e-05)
(3.77404e-06 0.00194277 1.93595e-05)
(3.10209e-05 0.00177149 1.20388e-06)
(-0.000102656 0.00178779 -1.41116e-05)
(-9.8282e-05 0.0016748 -1.51703e-05)
(8.60196e-06 0.00176085 1.53554e-06)
(-3.86752e-06 0.00191692 1.83135e-06)
(-3.61069e-05 0.00195831 -1.63699e-05)
(-1.37458e-05 0.00184587 -3.0566e-06)
(-0.000109517 0.00186183 1.75652e-05)
(-3.39263e-05 0.0020102 -1.97485e-05)
(0.000133012 0.00186656 -2.91812e-05)
(0.000119851 0.00181336 -1.92045e-06)
(4.29141e-05 0.00181369 7.38846e-06)
(8.9013e-06 0.00174195 -9.79549e-07)
(-1.34013e-05 0.00176489 4.43304e-07)
(-2.58974e-05 0.00179605 5.65969e-06)
(-2.8226e-05 0.00183783 -6.3097e-06)
(-4.41115e-06 0.00193492 -4.18849e-06)
(-6.07504e-05 0.00193944 5.04519e-06)
(-1.10758e-07 0.00179806 -2.47021e-05)
(-1.9729e-05 0.00192065 7.83989e-06)
(-9.89484e-06 0.00193342 -2.39835e-06)
(-8.00606e-05 0.00196559 -6.52756e-06)
(-0.000131103 0.00196393 -2.56389e-05)
(-3.50504e-05 0.00204152 -5.29693e-06)
(6.39115e-05 0.00196653 6.53419e-06)
(2.07054e-05 0.00204024 -1.20164e-05)
(-3.75651e-05 0.00211094 -9.81732e-06)
(-6.53627e-05 0.00212134 2.4619e-06)
(8.78396e-05 0.00222923 -5.6338e-06)
(0.000128505 0.00221311 9.44699e-06)
(0.000110895 0.0019985 5.01615e-06)
(6.84557e-05 0.00185078 2.76167e-05)
(3.54998e-05 0.00186324 2.73712e-05)
(2.01103e-05 0.0018402 2.33272e-05)
(2.88514e-05 0.00185084 9.12456e-06)
(-1.48276e-05 0.00198706 4.0609e-06)
(-7.39347e-05 0.00202088 1.02496e-05)
(-5.92583e-05 0.00188411 7.65058e-07)
(-1.62323e-05 0.00183017 5.13886e-06)
(-1.41971e-05 0.00186226 -5.18993e-06)
(-7.88927e-05 0.00193051 1.10613e-05)
(2.54776e-05 0.00206952 6.04098e-06)
(-9.76982e-05 0.00220793 -3.69139e-07)
(-0.000127725 0.00226456 -1.77341e-06)
(3.08786e-05 0.00221665 -1.72768e-05)
(2.87985e-05 0.00226929 2.1256e-06)
(-2.55041e-05 0.00181449 -1.4548e-06)
(-4.80819e-06 0.00238037 1.25273e-06)
(0.000107186 0.00238846 -1.03921e-05)
(0.000129393 0.00227411 3.36064e-06)
(0.000107532 0.00214092 5.87738e-06)
(7.19433e-05 0.00205469 1.66524e-05)
(2.09171e-05 0.00211335 1.68128e-05)
(-1.61906e-05 0.00211493 1.52795e-05)
(9.41035e-06 0.00209958 -4.26055e-06)
(3.00667e-05 0.00208029 2.25681e-06)
(-5.44087e-05 0.0020375 7.52457e-06)
(-3.20352e-05 0.00195999 3.58119e-06)
(-2.84693e-05 0.00197287 3.90855e-05)
(-1.92902e-05 0.00193431 -2.98523e-06)
(-0.000104237 0.00201919 1.05929e-05)
(-9.80595e-05 0.00212084 6.31166e-06)
(-0.000126821 0.00228201 3.04773e-06)
(-9.22364e-05 0.00243693 -1.01733e-05)
(2.46467e-05 0.00196329 2.75645e-06)
(2.31606e-05 0.00185746 2.91322e-05)
(-3.81994e-06 0.000756792 1.49537e-05)
(3.23025e-05 0.00186907 6.06299e-05)
(5.34943e-05 0.00205137 2.59678e-06)
(7.03037e-05 0.0022948 -4.18992e-06)
(6.35994e-05 0.0022328 4.16201e-06)
(5.89347e-05 0.00221786 9.77239e-06)
(1.74598e-05 0.00219358 2.04321e-06)
(-2.14969e-05 0.00217427 2.15118e-06)
(2.22692e-06 0.00225195 2.50703e-06)
(-9.51402e-06 0.00218515 -9.79066e-07)
(1.83216e-05 0.00208681 7.57353e-07)
(-3.48689e-06 0.00204938 7.72996e-06)
(-2.39821e-05 0.00217391 1.39591e-05)
(-4.65993e-05 0.00204286 2.74962e-06)
(-8.38851e-05 0.00205429 7.47192e-06)
(-9.26134e-05 0.00218093 1.83659e-06)
(-8.45568e-05 0.00231976 5.5595e-07)
(-5.71865e-05 0.00242638 1.27429e-06)
(8.61561e-08 0.000911302 3.67881e-06)
(1.00921e-05 0.000767793 -1.28847e-06)
(4.62504e-06 0.000160577 3.20257e-07)
(2.4508e-05 0.000709223 -5.59205e-08)
(4.62481e-05 0.00107257 5.1434e-06)
(5.78481e-05 0.00180049 1.56598e-06)
(4.44665e-05 0.00228308 5.18487e-06)
(2.46053e-05 0.0022707 2.21364e-07)
(-1.23496e-05 0.00202311 1.8337e-06)
(-3.10751e-05 0.001755 9.7989e-07)
(8.58911e-07 0.00232094 -4.75868e-06)
(2.18829e-05 0.00222978 1.16427e-07)
(3.93082e-05 0.00215726 7.87111e-06)
(9.38319e-07 0.00211301 7.60062e-06)
(-1.37609e-05 0.0022423 3.97637e-06)
(-4.13897e-05 0.00211746 4.44155e-06)
(-7.40941e-05 0.00209606 7.85753e-06)
(-9.18631e-05 0.00224985 6.98668e-06)
(-5.5904e-05 0.00231806 -2.70442e-06)
(-3.50116e-05 0.00209283 -2.00487e-06)
(-1.40051e-05 0.000291058 -3.06176e-06)
(4.04302e-06 0.0002108 2.13727e-07)
(4.87621e-06 0.000133134 -3.2809e-07)
(1.76732e-05 0.000119222 -8.43682e-08)
(3.33317e-05 0.000297685 2.4813e-07)
(4.33606e-05 0.000663831 2.4823e-06)
(2.99898e-05 0.00177204 -7.58844e-06)
(8.85722e-06 0.00175254 -1.56064e-06)
(-1.57956e-05 0.00124994 -1.041e-05)
(-2.78211e-05 0.000664632 2.37792e-07)
(-1.17967e-05 0.00188184 -1.87435e-06)
(3.18552e-06 0.00224983 -2.33765e-06)
(3.81473e-06 0.00216392 7.53192e-06)
(6.57001e-06 0.00214845 1.20642e-05)
(-1.41639e-06 0.00226095 -1.98087e-06)
(-8.2236e-06 0.00212721 1.43271e-05)
(-2.6527e-05 0.0021318 1.10794e-05)
(-4.17908e-05 0.00223749 3.30157e-07)
(-3.53871e-05 0.00191243 1.3527e-06)
(-2.57648e-05 0.00121602 -8.70903e-06)
(-1.65056e-05 0.00022186 -2.84852e-07)
(-2.01364e-06 0.000233996 -6.80779e-07)
(2.30579e-06 0.000122579 -2.64425e-07)
(6.05818e-06 0.000109442 -1.45489e-07)
(9.92112e-06 9.02e-05 -7.77094e-08)
(1.4765e-05 6.61923e-05 -3.97689e-08)
(1.42008e-05 0.00060268 8.11029e-07)
(1.16337e-06 0.00060025 -5.0548e-07)
(-6.69805e-06 0.000338767 4.91123e-07)
(-6.16756e-06 5.11624e-05 4.07353e-07)
(1.31129e-06 0.000933377 -1.76214e-06)
(2.65868e-05 0.00233195 1.10433e-07)
(1.43191e-05 0.00221512 8.35001e-06)
(-3.26383e-06 0.00218283 4.69964e-06)
(2.6085e-06 0.00231631 3.93551e-07)
(3.45302e-06 0.00216176 6.28594e-06)
(-2.30236e-05 0.002208 1.04729e-05)
(-4.18357e-05 0.00234351 1.40238e-06)
(-1.27881e-05 0.000813801 6.29997e-06)
(-1.27056e-05 0.000401686 5.17521e-07)
(-9.38587e-06 0.000185453 -3.83336e-08)
(-2.83771e-06 0.00020522 -3.87383e-07)
(5.68971e-05 0.00325367 3.8225e-05)
(-9.10849e-06 0.00230008 -5.9346e-06)
(-1.3093e-05 0.00200326 -2.07577e-05)
(-4.65545e-06 0.0019721 7.95604e-06)
(-3.0364e-05 0.00220752 1.68316e-05)
(-2.14901e-05 0.00211897 3.16023e-05)
(7.47966e-06 0.00215437 -1.12713e-05)
(4.91158e-06 0.00219244 -2.38895e-05)
(-4.28013e-05 0.00204436 -1.18437e-05)
(-3.63915e-05 0.00290482 1.88422e-05)
(8.59452e-06 0.00231565 -1.52875e-05)
(-3.74913e-05 0.00240813 5.01908e-05)
(-4.70654e-05 0.00239289 2.18456e-06)
(-1.56494e-05 0.00231028 1.83142e-05)
(4.27011e-05 0.00248123 2.03642e-05)
(3.25568e-05 0.00243807 8.2465e-06)
(-3.35336e-06 0.00198812 1.03846e-05)
(1.834e-05 0.00199447 -1.67316e-05)
(1.58637e-05 0.00239252 -1.766e-06)
(-5.7084e-05 0.00335893 3.77468e-05)
(0.000112905 0.00207427 1.14743e-05)
(8.09756e-05 0.00205635 -7.83175e-05)
(1.71586e-05 0.00186873 1.03097e-06)
(2.165e-05 0.00190696 3.99074e-05)
(7.67557e-06 0.00204551 8.30878e-06)
(-4.63581e-05 0.00202102 -5.7099e-05)
(7.50728e-06 0.00206616 -3.18392e-05)
(4.72656e-06 0.00206415 -2.46425e-05)
(-3.2859e-06 0.00200273 -3.65848e-05)
(-5.14565e-05 0.00212489 -4.08456e-05)
(-0.00010253 0.00207236 -3.17868e-05)
(-6.30198e-05 0.00216657 -1.88898e-06)
(-6.9793e-06 0.00216071 -1.41285e-05)
(4.90305e-05 0.00208314 -2.5273e-05)
(6.73739e-05 0.0020793 -5.55251e-05)
(-2.79118e-05 0.00207103 -2.5442e-06)
(-3.15366e-05 0.00191776 4.31179e-05)
(5.36091e-06 0.00184958 3.01371e-06)
(-8.30453e-05 0.00216583 -6.73806e-05)
(-0.000127914 0.00214449 6.7483e-06)
(5.20803e-05 0.00191982 -1.98547e-05)
(-4.67176e-05 0.00189133 -7.58907e-06)
(1.28456e-05 0.00173126 5.0722e-05)
(6.84789e-05 0.00181696 6.2011e-05)
(6.25045e-05 0.00192982 1.10598e-05)
(1.51979e-06 0.00195557 -2.97782e-05)
(-7.40613e-07 0.00186381 -3.43646e-05)
(-1.17615e-05 0.00181351 -3.30543e-05)
(-1.81556e-05 0.00187863 -1.95977e-05)
(-1.94813e-05 0.00203094 2.92403e-05)
(3.64985e-05 0.00198679 -1.42028e-05)
(-3.30309e-05 0.0019251 2.47247e-06)
(-7.82999e-06 0.00183636 -5.85435e-05)
(6.36708e-06 0.00202995 3.5042e-06)
(-1.95672e-05 0.00211378 -2.36417e-06)
(-8.43468e-05 0.00204411 1.20887e-05)
(-9.71342e-05 0.00184016 4.60649e-05)
(3.14961e-06 0.00175297 3.53094e-05)
(5.50076e-05 0.00201836 -1.59104e-06)
(-5.06594e-05 0.00205735 -2.28955e-05)
(6.85223e-06 0.00196998 6.55921e-07)
(-0.000103429 0.00181339 6.72289e-05)
(-5.35682e-05 0.00208086 -1.90665e-05)
(9.69631e-05 0.00191089 3.17333e-05)
(6.4369e-05 0.0019224 4.08115e-05)
(-4.77265e-06 0.00197395 3.29028e-05)
(5.20557e-07 0.00187017 2.75448e-05)
(-1.98813e-05 0.00185153 2.47999e-05)
(-4.93087e-05 0.00185877 5.00607e-05)
(-2.04042e-05 0.00186183 2.34413e-05)
(5.59696e-05 0.00199524 2.43433e-05)
(-4.6334e-05 0.00201651 2.40008e-08)
(8.37639e-06 0.00170209 -6.26669e-05)
(2.82258e-05 0.0021189 6.44405e-06)
(8.61712e-06 0.00207982 4.52523e-05)
(-0.000105939 0.00209674 3.92362e-05)
(-6.42031e-05 0.00198899 -4.545e-06)
(-1.95229e-05 0.00207387 -1.45784e-05)
(8.23335e-05 0.0019622 5.62287e-05)
(7.51212e-06 0.00213666 -4.43769e-06)
(-4.99678e-05 0.00215006 -2.02722e-05)
(-6.05898e-05 0.00210496 6.14005e-07)
(6.66538e-05 0.00229899 -1.42601e-05)
(7.36119e-05 0.0021106 -6.5978e-06)
(2.02949e-05 0.00196758 6.06191e-06)
(2.64579e-06 0.00192902 4.16609e-05)
(8.38235e-07 0.00184216 4.03688e-05)
(-1.29711e-05 0.00185265 3.72485e-05)
(2.52542e-05 0.00181132 2.81312e-05)
(-3.6226e-06 0.00192921 -2.23069e-05)
(-5.16656e-05 0.0020415 2.14205e-05)
(-5.12719e-05 0.00198984 4.31489e-06)
(-2.57745e-05 0.00165347 2.88263e-05)
(6.49182e-05 0.00209966 1.5518e-06)
(7.18654e-05 0.00199407 2.32053e-05)
(7.85667e-05 0.00210042 5.70359e-06)
(-4.98082e-05 0.00218349 -1.27468e-05)
(-0.000105608 0.00231859 -5.27185e-06)
(4.86232e-05 0.00224633 -2.8513e-05)
(4.17615e-05 0.00225633 -9.60268e-06)
(-2.0742e-05 0.00238025 -8.44411e-06)
(-1.47657e-05 0.00240778 3.30012e-07)
(9.77066e-05 0.00239438 -1.11442e-05)
(5.9211e-05 0.00221218 -6.5458e-06)
(4.47132e-05 0.00203753 1.36967e-05)
(2.31825e-06 0.00193724 1.75225e-05)
(4.29283e-06 0.00195694 1.60763e-05)
(-8.21327e-06 0.00194322 1.68466e-05)
(7.46605e-06 0.00202981 3.63337e-06)
(3.67485e-05 0.00205263 3.783e-06)
(-8.32851e-05 0.00204708 4.16769e-06)
(-3.22996e-05 0.00188647 -3.84722e-07)
(-2.20501e-05 0.00187119 3.55624e-05)
(5.11968e-05 0.00190832 -4.78659e-06)
(-6.28759e-06 0.0019954 1.00698e-05)
(-2.47753e-05 0.0020729 -7.0207e-06)
(-5.17834e-05 0.00225728 -1.36917e-05)
(-6.77222e-05 0.00243922 -7.00972e-06)
(3.53239e-05 0.00252058 -8.98562e-06)
(2.26159e-05 0.0019077 -9.12952e-06)
(1.94594e-07 0.00185739 3.2757e-06)
(1.82613e-05 0.00190244 -4.50389e-06)
(5.54272e-05 0.00239444 4.31528e-06)
(5.6768e-05 0.00228241 -7.59141e-06)
(5.50491e-05 0.00213188 2.60683e-05)
(3.1615e-05 0.00207913 2.50604e-05)
(1.02882e-05 0.00211643 2.2068e-05)
(-4.03191e-05 0.00212464 1.90124e-05)
(-3.55567e-07 0.00225236 -2.44439e-06)
(-4.38979e-05 0.00215617 5.73758e-06)
(-1.55351e-05 0.00201033 -1.37671e-06)
(-4.82479e-06 0.00193833 2.1375e-06)
(-2.32308e-05 0.00204366 2.53495e-05)
(6.98016e-06 0.00189847 -1.70453e-05)
(-2.90393e-05 0.00196351 1.00974e-05)
(-6.15723e-05 0.00210053 4.8502e-06)
(-4.63517e-05 0.00228084 -1.45376e-06)
(-8.41665e-05 0.00242633 2.24803e-06)
(6.37379e-06 0.00252502 -2.65157e-06)
(1.00617e-05 0.000816106 1.61842e-07)
(5.0775e-06 0.000729091 -1.31823e-07)
(2.89562e-05 0.000727448 7.56869e-09)
(4.85606e-05 0.00182729 2.07765e-06)
(4.63777e-05 0.00232692 8.82829e-07)
(5.51576e-05 0.00220628 1.56987e-05)
(2.53785e-05 0.00218232 1.53621e-05)
(-1.53679e-05 0.00225594 7.1573e-06)
(-3.8739e-05 0.00227564 1.82062e-06)
(-5.73614e-06 0.00233432 -4.56422e-06)
(-2.8355e-05 0.00221409 5.44993e-08)
(1.91235e-06 0.00203475 1.13911e-05)
(1.18846e-05 0.00207698 1.2004e-05)
(-1.21856e-05 0.00216255 2.45665e-05)
(-2.72179e-05 0.00205151 1.02577e-06)
(-2.69339e-05 0.00200945 9.44899e-06)
(-7.93444e-05 0.00215349 1.83829e-05)
(-4.19302e-05 0.00232327 -2.65406e-06)
(-4.20186e-05 0.00241415 4.41682e-07)
(-7.67649e-06 0.00193432 -4.25154e-06)
(5.84355e-06 0.000258441 -3.02319e-07)
(5.55297e-06 0.000155397 -5.06168e-07)
(1.83292e-05 0.000135755 -1.13336e-07)
(3.05877e-05 0.000687564 2.98738e-07)
(3.57091e-05 0.00180578 -2.20993e-06)
(3.18198e-05 0.00179978 -1.14727e-06)
(1.00303e-05 0.00228869 4.75518e-06)
(-1.8231e-05 0.00178209 -2.15025e-06)
(-2.73055e-05 0.00179049 -5.90743e-06)
(-6.99285e-06 0.00234055 9.0957e-07)
(7.78134e-06 0.00221524 -2.8878e-06)
(1.57026e-05 0.00206874 2.04581e-05)
(-3.56807e-07 0.00209196 2.24719e-05)
(-1.54938e-06 0.00220911 3.80173e-06)
(3.78584e-06 0.00206356 2.3702e-05)
(-3.31569e-05 0.0020598 2.56614e-05)
(-6.93263e-05 0.00218273 8.13878e-06)
(-2.97576e-05 0.00233899 1.01691e-06)
(-2.44145e-05 0.00187015 1.06564e-06)
(-1.43025e-05 0.000806166 -6.06074e-07)
(-1.9373e-06 0.000278826 -7.59893e-07)
(2.35795e-06 0.000134938 -4.50434e-07)
(6.16866e-06 0.000120554 -2.01705e-07)
(1.01125e-05 9.86737e-05 -1.62705e-07)
(1.51576e-05 0.000641648 -5.61238e-08)
(1.24729e-05 0.000657968 -5.78195e-07)
(2.4265e-09 0.00231498 -3.9552e-06)
(-7.85112e-06 0.000686131 -6.44903e-07)
(-6.80176e-06 0.000632251 3.67661e-07)
(3.36431e-06 0.00235288 -5.62733e-07)
(2.8821e-05 0.00226913 2.33307e-06)
(2.85849e-05 0.00216353 1.38373e-05)
(-7.86322e-06 0.00212441 5.89414e-06)
(2.84383e-06 0.00227259 5.8154e-06)
(8.06212e-06 0.00210386 4.13222e-06)
(-3.82276e-05 0.00215841 1.51824e-05)
(-4.2483e-05 0.00228711 4.43116e-06)
(-5.36852e-06 0.00125936 -2.91335e-06)
(-8.71119e-06 0.000749754 8.29502e-07)
(-1.00816e-05 0.00021232 -2.58951e-07)
(-2.80057e-06 0.00023144 -8.33278e-07)
(5.96607e-05 0.00254332 -9.95951e-09)
(3.7192e-05 0.0025893 -1.47027e-07)
(8.0297e-06 0.0022145 -8.61442e-07)
(-4.99484e-07 0.0027407 1.19799e-06)
(0.000103847 0.00279941 5.82387e-06)
(0.000189549 0.00364411 -3.58651e-06)
(0.000193134 0.00442108 -1.42118e-06)
(4.29291e-05 0.0046615 -1.69373e-06)
(-0.000172811 0.00360079 -2.78403e-06)
(-1.53625e-05 0.00227689 1.74993e-06)
(0.000258611 0.00268188 -1.19604e-06)
(1.7256e-05 0.00675006 1.62813e-06)
(-0.000231833 0.00395452 -4.05479e-07)
(-0.000147016 0.00270999 -1.14656e-06)
(-9.15711e-05 0.00249515 -1.22452e-06)
(-3.36425e-05 0.00223771 5.90817e-06)
(5.64079e-06 0.00243441 1.63609e-06)
(-9.9955e-06 0.0023169 -2.33101e-07)
(-4.91996e-05 0.00262994 3.83552e-08)
(-6.61966e-05 0.00253454 -7.41164e-09)
(6.02323e-05 0.00213304 -1.73859e-07)
(3.18948e-05 0.00260535 2.46778e-07)
(-6.81989e-06 0.00232649 -4.34096e-07)
(-4.70091e-05 0.00249243 -5.10287e-06)
(-8.95613e-05 0.00264219 -3.05352e-07)
(-4.43838e-06 0.00278147 -5.96602e-07)
(2.52393e-05 0.00282299 3.72605e-07)
(1.07821e-05 0.00291135 -5.132e-07)
(-5.67472e-06 0.00262041 1.67301e-06)
(-1.84974e-05 0.0020728 -1.66683e-07)
(-0.00010755 0.00229987 8.9945e-07)
(-8.87088e-05 0.00465076 -6.25928e-07)
(-7.25186e-06 0.00295772 -1.49478e-06)
(6.62485e-05 0.00241057 9.22896e-07)
(3.10317e-05 0.00217462 3.60875e-06)
(8.52473e-05 0.00215424 2.22319e-06)
(4.59891e-05 0.00233569 -6.89174e-07)
(2.6508e-05 0.00242664 -5.06475e-08)
(-3.14123e-05 0.00261312 -1.5396e-07)
(-7.94144e-05 0.00213402 -1.42134e-07)
(4.69071e-05 0.00188879 -2.3664e-08)
(4.42787e-05 0.00254699 2.42106e-07)
(-6.10417e-06 0.00230544 9.66097e-07)
(4.82205e-06 0.00234698 2.19228e-06)
(2.52536e-06 0.00241977 -2.787e-06)
(7.52032e-06 0.00203763 -2.33226e-06)
(-7.43153e-06 0.00197954 6.08382e-07)
(-5.78283e-06 0.00194434 -7.96634e-07)
(-2.09559e-05 0.00198296 1.09544e-06)
(-2.71521e-05 0.00222517 -1.05716e-06)
(2.81611e-05 0.00199841 6.4153e-07)
(3.08823e-07 0.00244027 2.61888e-07)
(-4.67471e-05 0.00200249 -5.22574e-07)
(-9.08635e-05 0.00204116 2.9494e-06)
(9.60425e-05 0.0020815 4.33002e-06)
(-1.70254e-06 0.00225868 -1.57658e-06)
(-4.85866e-05 0.00216345 1.22381e-06)
(2.62486e-05 0.00226317 -6.73824e-08)
(-8.68724e-07 0.00253849 -1.41507e-07)
(-6.08464e-05 0.00198824 -1.63904e-07)
(1.76077e-05 0.00197821 -4.04851e-09)
(-5.31955e-05 0.00237322 -5.54122e-08)
(-3.07391e-05 0.00221849 -5.93248e-07)
(8.64083e-05 0.00204279 -5.23182e-07)
(4.27792e-05 0.00215204 1.55278e-06)
(2.49778e-06 0.00242226 1.76318e-06)
(6.41687e-06 0.00229537 7.22586e-08)
(-6.87334e-06 0.00222727 7.48696e-08)
(-3.43637e-05 0.00209488 4.77955e-07)
(2.53203e-05 0.00221447 5.77366e-07)
(9.47264e-05 0.00220451 1.838e-08)
(1.24108e-05 0.00231541 -7.24136e-07)
(1.41689e-05 0.00220368 -1.01196e-07)
(-0.000168098 0.00245353 -1.15585e-06)
(2.36748e-05 0.00241328 -1.70692e-06)
(1.06807e-05 0.00232922 -1.5435e-06)
(-6.25331e-05 0.00206217 -9.62283e-07)
(-1.52185e-05 0.00211597 -4.82554e-07)
(5.71323e-05 0.00227936 4.7737e-10)
(1.86257e-06 0.00213227 1.38854e-07)
(-3.56333e-05 0.00220503 1.12899e-07)
(-5.0542e-05 0.00215869 3.62563e-08)
(5.38053e-05 0.00231559 7.11513e-08)
(5.62295e-05 0.00212688 -4.19461e-07)
(1.19223e-05 0.00202559 -1.43462e-07)
(-6.10373e-06 0.00221123 8.61298e-07)
(1.20042e-05 0.00214725 -2.89262e-08)
(-1.40648e-05 0.0021198 -5.9704e-08)
(2.29989e-05 0.00196822 -4.84171e-07)
(1.94592e-05 0.00191753 -4.924e-08)
(3.24425e-05 0.00223117 -2.21486e-07)
(-3.80503e-05 0.00212396 -2.06977e-07)
(-1.66378e-05 0.00227111 1.84623e-08)
(6.87107e-05 0.00242958 -7.71242e-07)
(1.1319e-05 0.00235207 -6.56985e-07)
(0.000108862 0.00233985 -2.52036e-07)
(-5.9363e-05 0.00218421 -2.84748e-07)
(-4.82992e-05 0.00233881 -9.57013e-08)
(4.45625e-05 0.00228175 -2.86393e-08)
(3.12915e-05 0.00234847 -2.08665e-08)
(-2.3189e-05 0.00240194 -1.57641e-08)
(-1.57154e-05 0.00241275 2.52132e-08)
(8.58439e-05 0.00240144 -3.42566e-08)
(4.07797e-05 0.00218802 5.82895e-09)
(2.67173e-05 0.00200833 -2.48926e-08)
(-8.46301e-06 0.00197318 -1.71006e-07)
(-6.49888e-07 0.0019713 6.82444e-09)
(-8.8033e-06 0.00196158 9.85658e-08)
(1.82035e-05 0.00199602 -8.79425e-08)
(4.89101e-05 0.00204023 1.15781e-08)
(-8.88373e-05 0.00208848 -1.07129e-08)
(-2.81724e-05 0.00194449 3.65073e-07)
(-2.86264e-05 0.00202924 -1.28751e-07)
(0.000111007 0.00212251 2.58729e-07)
(3.69374e-05 0.00203508 3.45284e-08)
(1.55708e-05 0.00207378 -2.6152e-08)
(-3.03192e-05 0.0022188 -1.53281e-07)
(-6.1043e-05 0.00243817 -2.22787e-08)
(3.6043e-05 0.00253269 4.69898e-09)
(2.57982e-05 0.00200528 -3.44741e-08)
(-5.10057e-06 0.00186579 2.6873e-08)
(1.70977e-05 0.00190998 -1.2066e-08)
(5.33147e-05 0.00239325 -4.18141e-08)
(6.23194e-05 0.00227481 -3.69715e-08)
(5.22984e-05 0.00209477 -1.865e-08)
(1.44665e-05 0.00203779 -3.33343e-08)
(4.9739e-06 0.0020926 -2.49052e-08)
(-4.55866e-05 0.00208677 -2.02542e-08)
(5.78128e-06 0.00223737 -2.40782e-08)
(-1.63282e-05 0.00213783 -3.72483e-08)
(-3.20857e-05 0.00202017 -3.89399e-08)
(-3.04691e-05 0.00177562 1.25237e-08)
(-1.78552e-05 0.00200241 2.56897e-08)
(8.44596e-05 0.00170382 7.64691e-08)
(-7.87442e-06 0.001991 2.26023e-08)
(-5.68034e-05 0.00208152 -1.55787e-08)
(-4.06923e-05 0.00224456 -9.47523e-09)
(-8.18467e-05 0.00242834 -4.06737e-08)
(7.80002e-06 0.00254226 -5.65431e-08)
(1.29192e-05 0.000956768 -1.15842e-07)
(5.16671e-06 0.000736616 -1.37108e-08)
(2.99191e-05 0.000748083 -5.84506e-08)
(4.91437e-05 0.00183273 -3.11994e-08)
(4.36107e-05 0.00232167 -3.8877e-08)
(6.71709e-05 0.0021834 -5.3232e-08)
(2.47447e-05 0.00214215 -2.16709e-08)
(-1.50586e-05 0.00222729 -1.72367e-08)
(-5.76054e-05 0.00226591 -1.86893e-08)
(2.99017e-06 0.00233005 -1.36442e-08)
(-2.67672e-05 0.00219256 -1.10706e-08)
(1.83157e-05 0.0020744 3.5778e-08)
(8.08634e-07 0.0019784 1.37375e-08)
(-1.13098e-05 0.0021288 -4.8127e-10)
(7.07078e-06 0.00192018 1.98879e-08)
(-3.75887e-05 0.00204594 6.56663e-10)
(-7.88482e-05 0.00213501 -3.28993e-08)
(-4.46716e-05 0.00230451 -1.65696e-08)
(-3.80621e-05 0.00240862 -3.26936e-08)
(-9.0146e-06 0.0019431 -1.8157e-08)
(5.18082e-06 0.000334243 -3.38953e-08)
(5.66418e-06 0.000160787 -3.76905e-08)
(1.81495e-05 0.00014835 -5.94028e-09)
(3.09043e-05 0.000707572 -4.35873e-08)
(4.03485e-05 0.00180599 -3.55223e-08)
(3.20385e-05 0.00229967 -2.99703e-08)
(1.16176e-05 0.00227953 -2.2149e-08)
(-1.74552e-05 0.00231308 -1.08631e-08)
(-2.76411e-05 0.00207743 1.12868e-09)
(-9.17737e-06 0.00233531 1.21052e-08)
(7.28825e-06 0.00219826 -4.87507e-09)
(2.52693e-05 0.00208634 1.3437e-08)
(5.06631e-07 0.00207958 5.60112e-09)
(-1.64775e-06 0.00217816 1.93011e-08)
(3.37397e-06 0.00204745 -2.42842e-09)
(-3.91459e-05 0.00205614 2.45406e-09)
(-8.0916e-05 0.00218055 -8.08186e-10)
(-2.88292e-05 0.00233495 -3.44218e-08)
(-2.2715e-05 0.00187231 -3.74154e-08)
(-1.33387e-05 0.000817022 -5.35632e-08)
(-2.02502e-06 0.000284016 -7.20195e-08)
(2.37705e-06 0.000135571 7.15679e-09)
(6.15461e-06 0.000122844 -3.63028e-08)
(9.98793e-06 0.000108872 -1.4158e-08)
(1.36055e-05 0.000644058 -1.39196e-08)
(4.56781e-06 0.00119119 -1.32138e-08)
(1.24626e-06 0.00231016 -6.18937e-09)
(-5.12671e-06 0.00233031 -5.34049e-10)
(-6.0534e-06 0.00153771 3.39561e-09)
(4.18323e-06 0.00234889 2.22412e-09)
(3.27111e-05 0.00225009 1.36379e-08)
(2.66532e-05 0.00213223 3.39452e-08)
(-6.4351e-06 0.00209861 5.40823e-08)
(2.50282e-06 0.00224927 1.23226e-08)
(8.93467e-06 0.00207829 5.26777e-09)
(-3.81819e-05 0.00212326 -5.95352e-09)
(-4.60249e-05 0.00227217 -9.65949e-09)
(-6.11157e-06 0.00125572 -9.02017e-09)
(-8.26719e-06 0.000759887 -1.25127e-08)
(-1.03247e-05 0.000220606 -2.10151e-09)
(-2.9062e-06 0.000231318 4.58672e-08)
(5.67517e-05 0.00325274 -3.82192e-05)
(-9.25616e-06 0.00230432 5.79899e-06)
(-1.44044e-05 0.00200116 2.02179e-05)
(-4.41772e-06 0.00188927 -3.64481e-06)
(-2.96002e-05 0.0022305 -1.24572e-05)
(-2.10282e-05 0.00210234 -3.05729e-05)
(8.11854e-06 0.0021526 9.41053e-06)
(5.49983e-06 0.00221857 2.33245e-05)
(-4.27542e-05 0.00206837 9.14273e-06)
(-3.57115e-05 0.00287451 -1.72673e-05)
(1.17615e-05 0.00232383 1.44921e-05)
(-3.7826e-05 0.00248562 -4.82308e-05)
(-4.893e-05 0.00238219 -2.6326e-06)
(-1.6623e-05 0.00234677 -1.94087e-05)
(4.33143e-05 0.00256925 -2.12023e-05)
(3.75471e-05 0.00254728 -2.89755e-06)
(-2.81913e-06 0.0019536 -8.39392e-06)
(1.87277e-05 0.0019929 1.69201e-05)
(1.60194e-05 0.00239052 1.87397e-06)
(-5.69109e-05 0.00335817 -3.77093e-05)
(0.000113007 0.00207403 -1.15575e-05)
(8.09291e-05 0.0020562 7.80129e-05)
(1.68349e-05 0.00186876 -1.97251e-06)
(2.16019e-05 0.00192583 -4.20617e-05)
(8.78313e-06 0.00204616 -7.26004e-06)
(-4.75814e-05 0.00202534 5.4623e-05)
(7.07367e-06 0.00206379 3.15312e-05)
(3.78078e-06 0.00207132 2.25925e-05)
(-3.47116e-06 0.00200693 4.01974e-05)
(-5.13866e-05 0.00212896 4.24793e-05)
(-0.000102466 0.00207329 3.30403e-05)
(-6.29026e-05 0.0022013 7.58913e-07)
(-6.69901e-06 0.00215978 1.3027e-05)
(5.03211e-05 0.00208518 2.43688e-05)
(7.62449e-05 0.00207052 5.49213e-05)
(-2.79151e-05 0.00206845 2.92816e-06)
(-3.28594e-05 0.00192033 -4.35035e-05)
(5.47963e-06 0.00184986 -3.03112e-06)
(-8.3151e-05 0.00216637 6.70997e-05)
(-0.000128062 0.00214535 -7.00948e-06)
(5.20833e-05 0.00192013 1.9706e-05)
(-4.56023e-05 0.00189379 7.2455e-06)
(1.61473e-05 0.00173142 -5.17904e-05)
(6.7293e-05 0.00183355 -5.79569e-05)
(6.14393e-05 0.00194199 -1.28838e-05)
(6.67851e-08 0.00196008 3.12677e-05)
(-5.89653e-07 0.0018646 3.52468e-05)
(-1.17853e-05 0.00180703 3.3743e-05)
(-1.90003e-05 0.00188078 2.0604e-05)
(-2.00236e-05 0.00203171 -2.84395e-05)
(3.69886e-05 0.00199039 1.46305e-05)
(-3.33259e-05 0.00191997 -3.1657e-06)
(-6.37245e-06 0.00183882 5.77656e-05)
(5.20668e-06 0.00202952 -2.75649e-06)
(-2.48494e-05 0.0021104 1.73964e-06)
(-8.5832e-05 0.00204967 -1.29863e-05)
(-9.57742e-05 0.00184359 -4.49772e-05)
(2.7618e-06 0.00175498 -3.58651e-05)
(5.43297e-05 0.00202031 1.09631e-06)
(-5.06686e-05 0.00205664 2.2404e-05)
(6.92333e-06 0.00196978 -5.66797e-07)
(-0.000102848 0.00181649 -6.68221e-05)
(-5.34591e-05 0.00208159 1.92223e-05)
(9.61978e-05 0.00190461 -3.14586e-05)
(6.33181e-05 0.0019235 -4.28293e-05)
(-6.64028e-06 0.00197831 -3.10138e-05)
(3.19585e-07 0.00187177 -2.72227e-05)
(-1.99455e-05 0.00185037 -2.4344e-05)
(-4.9254e-05 0.00185894 -5.00978e-05)
(-2.05016e-05 0.0018608 -2.30739e-05)
(5.54429e-05 0.00199691 -2.45701e-05)
(-4.61902e-05 0.00201519 -1.48646e-06)
(9.371e-06 0.00170866 6.1958e-05)
(2.81698e-05 0.0021172 -7.74794e-06)
(5.68222e-06 0.00207675 -4.69177e-05)
(-0.000104464 0.00209841 -4.12365e-05)
(-6.32251e-05 0.00198762 4.71324e-06)
(-1.93959e-05 0.00207428 1.41141e-05)
(8.19663e-05 0.00196427 -5.60789e-05)
(7.6539e-06 0.00213621 4.67699e-06)
(-4.99198e-05 0.0021499 2.04106e-05)
(-6.06439e-05 0.00210462 -2.21454e-07)
(6.65085e-05 0.00229903 1.43535e-05)
(7.41984e-05 0.0021118 6.34412e-06)
(2.14674e-05 0.00196715 -5.80051e-06)
(2.39147e-06 0.00192886 -4.04594e-05)
(7.00797e-07 0.00184248 -4.02676e-05)
(-1.32233e-05 0.00185127 -3.63709e-05)
(2.5265e-05 0.0018106 -2.8207e-05)
(-3.55753e-06 0.00192904 2.23192e-05)
(-5.16343e-05 0.00204159 -2.16393e-05)
(-5.10537e-05 0.00198958 -4.61381e-06)
(-2.57538e-05 0.00165747 -2.86108e-05)
(6.47407e-05 0.00209753 -2.21139e-06)
(7.05483e-05 0.00199243 -2.40512e-05)
(7.89068e-05 0.00210201 -6.34816e-06)
(-4.95074e-05 0.00218384 1.25108e-05)
(-0.00010564 0.00231874 5.03755e-06)
(4.86714e-05 0.00224623 2.86382e-05)
(4.16895e-05 0.00225658 9.5782e-06)
(-2.07712e-05 0.00238008 8.44365e-06)
(-1.47757e-05 0.00240774 -2.87588e-07)
(9.78039e-05 0.0023943 1.11364e-05)
(5.93063e-05 0.00221268 6.24338e-06)
(4.49093e-05 0.00203677 -1.37969e-05)
(2.18879e-06 0.00193677 -1.75654e-05)
(4.41106e-06 0.00195721 -1.61497e-05)
(-8.08549e-06 0.00194313 -1.70287e-05)
(7.48112e-06 0.00202988 -3.7449e-06)
(3.6792e-05 0.00205255 -3.79342e-06)
(-8.3106e-05 0.00204687 -4.26815e-06)
(-3.2079e-05 0.00188558 6.23967e-07)
(-2.1803e-05 0.00187106 -3.50423e-05)
(5.07767e-05 0.00190848 4.75407e-06)
(-6.82894e-06 0.00199469 -1.01027e-05)
(-2.46023e-05 0.00207293 6.78964e-06)
(-5.22091e-05 0.00225748 1.3411e-05)
(-6.76547e-05 0.00243916 6.97447e-06)
(3.53278e-05 0.00252058 9.03149e-06)
(2.26041e-05 0.0019081 8.98283e-06)
(1.92953e-07 0.00185738 -3.21667e-06)
(1.82486e-05 0.00190244 4.48967e-06)
(5.54246e-05 0.00239442 -4.37715e-06)
(5.67815e-05 0.00228221 7.57956e-06)
(5.50768e-05 0.00213176 -2.61596e-05)
(3.15807e-05 0.00207903 -2.51131e-05)
(1.02909e-05 0.00211645 -2.21065e-05)
(-4.03819e-05 0.0021248 -1.90971e-05)
(-3.46441e-07 0.00225236 2.40368e-06)
(-4.3966e-05 0.00215609 -5.80389e-06)
(-1.5462e-05 0.00201012 1.28906e-06)
(-4.69827e-06 0.00193761 -2.05674e-06)
(-2.32287e-05 0.0020436 -2.52285e-05)
(6.91693e-06 0.00189832 1.70723e-05)
(-2.91273e-05 0.00196328 -1.01217e-05)
(-6.15809e-05 0.00210052 -4.85273e-06)
(-4.63842e-05 0.00228069 1.44415e-06)
(-8.41847e-05 0.00242632 -2.31649e-06)
(6.35837e-06 0.00252501 2.54492e-06)
(1.00757e-05 0.000816069 -3.21184e-07)
(5.06808e-06 0.000729063 1.05746e-07)
(2.89535e-05 0.000727448 -1.13354e-07)
(4.85683e-05 0.0018273 -2.13024e-06)
(4.63643e-05 0.00232692 -9.41129e-07)
(5.51341e-05 0.00220633 -1.57808e-05)
(2.54043e-05 0.00218231 -1.54166e-05)
(-1.5367e-05 0.00225593 -7.19373e-06)
(-3.87122e-05 0.00227565 -1.84329e-06)
(-5.73195e-06 0.00233433 4.54018e-06)
(-2.83557e-05 0.00221403 -6.72559e-08)
(1.96868e-06 0.00203463 -1.13516e-05)
(1.18882e-05 0.00207667 -1.19503e-05)
(-1.21857e-05 0.00216257 -2.45519e-05)
(-2.72148e-05 0.00205162 -1.02403e-06)
(-2.6976e-05 0.00200951 -9.44874e-06)
(-7.93639e-05 0.00215348 -1.84248e-05)
(-4.1926e-05 0.0023233 2.61291e-06)
(-4.20224e-05 0.00241416 -5.09748e-07)
(-7.67645e-06 0.0019343 4.22893e-06)
(5.82246e-06 0.000258417 2.35142e-07)
(5.55815e-06 0.000155371 4.42214e-07)
(1.83278e-05 0.000135754 1.02591e-07)
(3.05785e-05 0.000687556 -3.7871e-07)
(3.57028e-05 0.00180578 2.14392e-06)
(3.18185e-05 0.00179983 1.09293e-06)
(1.00366e-05 0.0022887 -4.79651e-06)
(-1.82233e-05 0.00178213 2.12939e-06)
(-2.72936e-05 0.00179051 5.90511e-06)
(-6.99594e-06 0.00234053 -8.87767e-07)
(7.77228e-06 0.0022152 2.87827e-06)
(1.57873e-05 0.00206864 -2.04619e-05)