/*--------------------------------*- C++ -*----------------------------------*\
| =========                 |                                                 |
| \\      /  F ield         | OpenFOAM: The Open Source CFD Toolbox           |
|  \\    /   O peration     | Version:  2.3.0                                 |
|   \\  /    A nd           | Web:      www.OpenFOAM.org                      |
|    \\/     M anipulation  |                                                 |
\*---------------------------------------------------------------------------*/
FoamFile
{
    version     2.0;
    format      ascii;
    class       surfaceScalarField;
    location    "0.15";
    object      phi;
}
// * * * * * * * * * * * * * * * * * * * * * * * * * * * * * * * * * * * * * //

dimensions      [0 3 -1 0 0 0 0];

internalField   nonuniform List<scalar> 
15580
(
-1.38515e-15
-1.53866e-10
-3.43436e-15
-4.01529e-10
-5.47421e-15
-5.85703e-10
-7.12832e-15
-7.16543e-10
-8.09057e-15
-8.05007e-10
-8.1527e-15
-8.61408e-10
-7.23838e-15
-8.94979e-10
-5.41808e-15
-9.13384e-10
-2.90144e-15
-9.22436e-10
-6.67384e-18
-9.26001e-10
2.8887e-15
-9.26001e-10
5.40718e-15
-9.22436e-10
7.23046e-15
-9.13384e-10
8.14861e-15
-8.94979e-10
8.09056e-15
-8.61408e-10
7.13174e-15
-8.05007e-10
5.47907e-15
-7.16543e-10
3.43725e-15
-5.85703e-10
1.38372e-15
-4.01529e-10
-1.53866e-10
-1.02354e-15
-1.53865e-10
-3.03648e-15
-4.01527e-10
-5.21493e-15
-5.85701e-10
-7.04475e-15
-7.16541e-10
-8.1608e-15
-8.05005e-10
-8.32484e-15
-8.61408e-10
-7.44763e-15
-8.9498e-10
-5.60127e-15
-9.13386e-10
-3.00896e-15
-9.22439e-10
-1.12301e-17
-9.26004e-10
2.98724e-15
-9.26004e-10
5.58177e-15
-9.22439e-10
7.43186e-15
-9.13386e-10
8.3142e-15
-8.9498e-10
8.15646e-15
-8.61408e-10
7.04737e-15
-8.05005e-10
5.22414e-15
-7.16541e-10
3.05083e-15
-5.85701e-10
1.03804e-15
-4.01527e-10
-1.53865e-10
-8.15496e-16
-1.53864e-10
-2.65917e-15
-4.01526e-10
-4.81365e-15
-5.85699e-10
-6.70547e-15
-7.16539e-10
-7.91261e-15
-8.05004e-10
-8.16475e-15
-8.61407e-10
-7.35772e-15
-8.9498e-10
-5.55947e-15
-9.13388e-10
-2.99644e-15
-9.22441e-10
-1.7341e-17
-9.26007e-10
2.96246e-15
-9.26007e-10
5.52763e-15
-9.22441e-10
7.3296e-15
-9.13388e-10
8.14207e-15
-8.9498e-10
7.89728e-15
-8.61407e-10
6.69965e-15
-8.05004e-10
4.81928e-15
-7.16539e-10
2.67647e-15
-5.85699e-10
8.38878e-16
-4.01526e-10
-1.53864e-10
-6.80142e-16
-1.53864e-10
-2.31461e-15
-4.01524e-10
-4.31459e-15
-5.85697e-10
-6.13051e-15
-7.16538e-10
-7.32825e-15
-8.05003e-10
-7.62574e-15
-8.61407e-10
-6.91005e-15
-8.94981e-10
-5.24045e-15
-9.13389e-10
-2.83289e-15
-9.22444e-10
-2.34675e-17
-9.2601e-10
2.78642e-15
-9.2601e-10
5.1954e-15
-9.22444e-10
6.86753e-15
-9.13389e-10
7.5871e-15
-8.94981e-10
7.29531e-15
-8.61407e-10
6.10601e-15
-8.05003e-10
4.30213e-15
-7.16538e-10
2.3161e-15
-5.85697e-10
6.93774e-16
-4.01524e-10
-1.53863e-10
-5.81043e-16
-1.53863e-10
-1.99127e-15
-4.01523e-10
-3.76422e-15
-5.85695e-10
-5.41111e-15
-7.16536e-10
-6.52262e-15
-8.05002e-10
-6.82698e-15
-8.61407e-10
-6.21107e-15
-8.94982e-10
-4.72369e-15
-9.13391e-10
-2.5603e-15
-9.22446e-10
-2.84538e-17
-9.26012e-10
2.5035e-15
-9.26012e-10
4.66719e-15
-9.22446e-10
6.15507e-15
-9.13391e-10
6.7718e-15
-8.94982e-10
6.46902e-15
-8.61407e-10
5.36122e-15
-8.05002e-10
3.72223e-15
-7.16536e-10
1.96112e-15
-5.85695e-10
5.68141e-16
-4.01523e-10
-1.53863e-10
-4.96475e-16
-1.53863e-10
-1.68301e-15
-4.01521e-10
-3.20027e-15
-5.85694e-10
-4.63135e-15
-7.16535e-10
-5.61329e-15
-8.05001e-10
-5.8993e-15
-8.61407e-10
-5.38303e-15
-8.94982e-10
-4.10307e-15
-9.13392e-10
-2.22917e-15
-9.22448e-10
-3.12743e-17
-9.26015e-10
2.16635e-15
-9.26015e-10
4.03936e-15
-9.22448e-10
5.31759e-15
-9.13392e-10
5.83107e-15
-8.94982e-10
5.54156e-15
-8.61407e-10
4.55678e-15
-8.05001e-10
3.12667e-15
-7.16535e-10
1.61737e-15
-5.85694e-10
4.52088e-16
-4.01521e-10
-1.53862e-10
-4.15907e-16
-1.53862e-10
-1.3892e-15
-4.0152e-10
-2.64925e-15
-5.85692e-10
-3.8514e-15
-7.16533e-10
-4.6873e-15
-8.05e-10
-4.94203e-15
-8.61406e-10
-4.5204e-15
-8.94983e-10
-3.45196e-15
-9.13393e-10
-1.8793e-15
-9.22449e-10
-3.13719e-17
-9.26016e-10
1.81599e-15
-9.26016e-10
3.38683e-15
-9.22449e-10
4.45174e-15
-9.13393e-10
4.86771e-15
-8.94983e-10
4.60531e-15
-8.61406e-10
3.76098e-15
-8.05e-10
2.5529e-15
-7.16533e-10
1.29578e-15
-5.85692e-10
3.44566e-16
-4.0152e-10
-1.53862e-10
-3.34187e-16
-1.53862e-10
-1.11302e-15
-4.0152e-10
-2.13215e-15
-5.85691e-10
-3.11469e-15
-7.16532e-10
-3.80633e-15
-8.04999e-10
-4.02569e-15
-8.61406e-10
-3.69057e-15
-8.94983e-10
-2.82299e-15
-9.13394e-10
-1.53948e-15
-9.22451e-10
-2.87629e-17
-9.26018e-10
1.48125e-15
-9.26018e-10
2.76243e-15
-9.22451e-10
3.62556e-15
-9.13394e-10
3.95375e-15
-8.94983e-10
3.72504e-15
-8.61406e-10
3.02258e-15
-8.04999e-10
2.03037e-15
-7.16532e-10
1.01006e-15
-5.85691e-10
2.52036e-16
-4.0152e-10
-1.53862e-10
-2.54472e-16
-1.53862e-10
-8.61205e-16
-4.01519e-10
-1.6661e-15
-5.85691e-10
-2.45112e-15
-7.16532e-10
-3.01077e-15
-8.04999e-10
-3.19568e-15
-8.61406e-10
-2.9368e-15
-8.94983e-10
-2.25008e-15
-9.13395e-10
-1.22852e-15
-9.22452e-10
-2.39525e-17
-9.26019e-10
1.17988e-15
-9.26019e-10
2.19905e-15
-9.22452e-10
2.88146e-15
-9.13395e-10
3.13398e-15
-8.94983e-10
2.94089e-15
-8.61406e-10
2.37198e-15
-8.04999e-10
1.57816e-15
-7.16532e-10
7.71006e-16
-5.85691e-10
1.81712e-16
-4.01519e-10
-1.53862e-10
-1.80177e-16
-1.53861e-10
-6.40705e-16
-4.01519e-10
-1.263e-15
-5.8569e-10
-1.87815e-15
-7.16531e-10
-2.32275e-15
-8.04998e-10
-2.47636e-15
-8.61406e-10
-2.2822e-15
-8.94983e-10
-1.75143e-15
-9.13395e-10
-9.5675e-16
-9.22452e-10
-1.77518e-17
-9.2602e-10
9.20565e-16
-9.2602e-10
1.71319e-15
-9.22452e-10
2.24056e-15
-9.13395e-10
2.43027e-15
-8.94984e-10
2.27171e-15
-8.61406e-10
1.82223e-15
-8.04998e-10
1.20292e-15
-7.16531e-10
5.80787e-16
-5.8569e-10
1.34088e-16
-4.01519e-10
-1.53862e-10
-1.16625e-16
-1.53861e-10
-4.56863e-16
-4.01518e-10
-9.28545e-16
-5.85689e-10
-1.40212e-15
-7.16531e-10
-1.74955e-15
-8.04998e-10
-1.87557e-15
-8.61406e-10
-1.73429e-15
-8.94984e-10
-1.33317e-15
-9.13396e-10
-7.27921e-16
-9.22453e-10
-1.09839e-17
-9.26021e-10
7.05404e-16
-9.26021e-10
1.30914e-15
-9.22453e-10
1.70813e-15
-9.13396e-10
1.84731e-15
-8.94984e-10
1.72e-15
-8.61406e-10
1.37259e-15
-8.04998e-10
9.00424e-16
-7.16531e-10
4.32655e-16
-5.8569e-10
1.02551e-16
-4.01518e-10
-1.53861e-10
-6.83847e-17
-1.53861e-10
-3.11695e-16
-4.01518e-10
-6.61874e-16
-5.85689e-10
-1.02004e-15
-7.1653e-10
-1.28728e-15
-8.04998e-10
-1.38935e-15
-8.61406e-10
-1.28974e-15
-8.94984e-10
-9.93047e-16
-9.13396e-10
-5.4115e-16
-9.22453e-10
-4.25949e-18
-9.26021e-10
5.32257e-16
-9.26021e-10
9.83235e-16
-9.22453e-10
1.279e-15
-9.13396e-10
1.37843e-15
-8.94984e-10
1.27768e-15
-8.61406e-10
1.01363e-15
-8.04998e-10
6.60213e-16
-7.1653e-10
3.15666e-16
-5.85689e-10
7.77766e-17
-4.01518e-10
-1.53861e-10
-3.4924e-17
-1.53861e-10
-2.02246e-16
-4.01518e-10
-4.56301e-16
-5.85689e-10
-7.2236e-16
-7.1653e-10
-9.24814e-16
-8.04998e-10
-1.00645e-15
-8.61405e-10
-9.38568e-16
-8.94984e-10
-7.23666e-16
-9.13396e-10
-3.92621e-16
-9.22454e-10
2.13084e-18
-9.26022e-10
3.96686e-16
-9.26022e-10
7.27337e-16
-9.22454e-10
9.42147e-16
-9.13396e-10
1.01081e-15
-8.94984e-10
9.31348e-16
-8.61405e-10
7.32481e-16
-8.04998e-10
4.70588e-16
-7.1653e-10
2.19804e-16
-5.85689e-10
5.20881e-17
-4.01518e-10
-1.53861e-10
-1.22893e-17
-1.53861e-10
-1.21858e-16
-4.01518e-10
-3.01811e-16
-5.85689e-10
-4.96227e-16
-7.1653e-10
-6.47522e-16
-8.04997e-10
-7.12071e-16
-8.61405e-10
-6.67601e-16
-8.94984e-10
-5.15143e-16
-9.13396e-10
-2.77048e-16
-9.22454e-10
8.14429e-18
-9.26022e-10
2.93284e-16
-9.26022e-10
5.31354e-16
-9.22454e-10
6.84088e-16
-9.13396e-10
7.29384e-16
-8.94984e-10
6.6631e-16
-8.61405e-10
5.1669e-16
-8.04997e-10
3.22633e-16
-7.1653e-10
1.38858e-16
-5.85689e-10
2.27402e-17
-4.01518e-10
-1.53861e-10
4.54344e-18
-1.53861e-10
-6.27875e-17
-4.01518e-10
-1.87767e-16
-5.85689e-10
-3.28303e-16
-7.1653e-10
-4.40219e-16
-8.04997e-10
-4.90789e-16
-8.61405e-10
-4.63012e-16
-8.94984e-10
-3.5704e-16
-9.13396e-10
-1.8879e-16
-9.22454e-10
1.38191e-17
-9.26022e-10
2.16464e-16
-9.26022e-10
3.84848e-16
-9.22454e-10
4.9107e-16
-9.13396e-10
5.19181e-16
-8.94984e-10
4.68807e-16
-8.61405e-10
3.55985e-16
-8.04997e-10
2.11494e-16
-7.1653e-10
7.64909e-17
-5.85689e-10
-5.43268e-18
-4.01518e-10
-1.53861e-10
1.94457e-17
-1.53861e-10
-1.86562e-17
-4.01518e-10
-1.051e-16
-5.85688e-10
-2.06599e-16
-7.16529e-10
-2.88972e-16
-8.04997e-10
-3.28242e-16
-8.61405e-10
-3.11846e-16
-8.94984e-10
-2.39551e-16
-9.13397e-10
-1.22572e-16
-9.22454e-10
1.91239e-17
-9.26022e-10
1.60861e-16
-9.26022e-10
2.77914e-16
-9.22454e-10
3.50206e-16
-9.13397e-10
3.66415e-16
-8.94984e-10
3.26382e-16
-8.61405e-10
2.41394e-16
-8.04997e-10
1.33074e-16
-7.16529e-10
3.14895e-17
-5.85689e-10
-2.5551e-17
-4.01518e-10
-1.53861e-10
3.34789e-17
-1.53861e-10
1.35457e-17
-4.01518e-10
-4.75444e-17
-5.85688e-10
-1.21397e-16
-7.16529e-10
-1.8189e-16
-8.04997e-10
-2.11931e-16
-8.61405e-10
-2.0273e-16
-8.94984e-10
-1.5407e-16
-9.13397e-10
-7.38325e-17
-9.22454e-10
2.38706e-17
-9.26022e-10
1.21533e-16
-9.26022e-10
2.01618e-16
-9.22454e-10
2.49993e-16
-9.13397e-10
2.58822e-16
-8.94984e-10
2.28e-16
-8.61405e-10
1.65117e-16
-8.04997e-10
8.48357e-17
-7.16529e-10
9.10772e-18
-5.85688e-10
-3.12062e-17
-4.01518e-10
-1.53861e-10
4.38082e-17
-1.53861e-10
3.28394e-17
-4.01518e-10
-1.15732e-17
-5.85688e-10
-6.52871e-17
-7.16529e-10
-1.09148e-16
-8.04997e-10
-1.31282e-16
-8.61405e-10
-1.25996e-16
-8.94984e-10
-9.33235e-17
-9.13397e-10
-3.88039e-17
-9.22454e-10
2.77201e-17
-9.26022e-10
9.4074e-17
-9.26022e-10
1.48156e-16
-9.22454e-10
1.80359e-16
-9.13397e-10
1.85452e-16
-8.94984e-10
1.63301e-16
-8.61405e-10
1.18929e-16
-8.04997e-10
6.22604e-17
-7.16529e-10
8.92735e-18
-5.85688e-10
-2.03622e-17
-4.01518e-10
-1.53861e-10
4.46006e-17
-1.53861e-10
3.69461e-17
-4.01518e-10
4.88234e-18
-5.85688e-10
-3.24597e-17
-7.16529e-10
-6.25654e-17
-8.04997e-10
-7.73916e-17
-8.61405e-10
-7.35331e-17
-8.94984e-10
-5.1267e-17
-9.13397e-10
-1.44321e-17
-9.22454e-10
3.02876e-17
-9.26023e-10
7.47328e-17
-9.26023e-10
1.10919e-16
-9.22454e-10
1.32631e-16
-9.13397e-10
1.36505e-16
-8.94984e-10
1.22392e-16
-8.61405e-10
9.36864e-17
-8.04997e-10
5.75047e-17
-7.16529e-10
2.42084e-17
-5.85688e-10
2.52643e-18
-4.01518e-10
-1.53861e-10
3.17996e-17
-1.53861e-10
2.41959e-17
-4.01518e-10
4.54231e-18
-5.85688e-10
-1.75003e-17
-7.16529e-10
-3.50152e-17
-8.04997e-10
-4.27225e-17
-8.61405e-10
-3.85975e-17
-8.94984e-10
-2.29383e-17
-9.13397e-10
1.78087e-18
-9.22454e-10
3.13042e-17
-9.26023e-10
6.0527e-17
-9.26023e-10
8.45301e-17
-9.22454e-10
9.95515e-17
-9.13397e-10
1.03513e-16
-8.94984e-10
9.62482e-17
-8.61405e-10
8.02118e-17
-8.04997e-10
6.07121e-17
-7.16529e-10
4.36528e-17
-5.85688e-10
2.7794e-17
-4.01518e-10
-1.53861e-10
8.29722e-18
-1.53861e-10
1.13011e-18
-4.01518e-10
-6.48359e-18
-5.85688e-10
-1.40195e-17
-7.16529e-10
-1.98359e-17
-8.04997e-10
-2.08549e-17
-8.61405e-10
-1.56672e-17
-8.94984e-10
-4.3101e-18
-9.13397e-10
1.19402e-17
-9.22455e-10
3.07558e-17
-9.26023e-10
4.93065e-17
-9.26023e-10
6.48834e-17
-9.22455e-10
7.54251e-17
-9.13397e-10
7.96915e-17
-8.94984e-10
7.7583e-17
-8.61405e-10
7.09112e-17
-8.04997e-10
6.33005e-17
-7.16529e-10
5.6797e-17
-5.85688e-10
4.3547e-17
-4.01518e-10
-1.53861e-10
-1.73026e-17
-1.53861e-10
-2.24254e-17
-4.01518e-10
-1.9521e-17
-5.85688e-10
-1.47882e-17
-7.16529e-10
-1.08449e-17
-8.04997e-10
-6.44799e-18
-8.61405e-10
-3.58816e-19
-8.94984e-10
7.81963e-18
-9.13397e-10
1.78586e-17
-9.22455e-10
2.89038e-17
-9.26023e-10
3.97393e-17
-9.26023e-10
4.91802e-17
-9.22455e-10
5.62967e-17
-9.13397e-10
6.0424e-17
-8.94984e-10
6.16178e-17
-8.61405e-10
6.12208e-17
-8.04997e-10
6.10992e-17
-7.16529e-10
6.00992e-17
-5.85688e-10
4.75179e-17
-4.01518e-10
-1.53861e-10
-3.3937e-17
-1.53861e-10
-3.61574e-17
-4.01518e-10
-2.57816e-17
-5.85688e-10
-1.30026e-17
-7.16529e-10
-2.90451e-18
-8.04997e-10
4.56087e-18
-8.61405e-10
1.05564e-17
-8.94984e-10
1.5871e-17
-9.13397e-10
2.10362e-17
-9.22455e-10
2.61955e-17
-9.26023e-10
3.12063e-17
-9.26023e-10
3.58814e-17
-9.22455e-10
4.00212e-17
-9.13397e-10
4.34197e-17
-8.94984e-10
4.64364e-17
-8.61405e-10
5.00851e-17
-8.04997e-10
5.45507e-17
-7.16529e-10
5.64035e-17
-5.85688e-10
4.44483e-17
-4.01517e-10
-1.53861e-10
-3.4232e-17
-1.53861e-10
-3.3179e-17
-4.01518e-10
-1.97129e-17
-5.85688e-10
-4.56984e-18
-7.16529e-10
6.97854e-18
-8.04997e-10
1.45289e-17
-8.61405e-10
1.90404e-17
-8.94984e-10
2.14136e-17
-9.13397e-10
2.25304e-17
-9.22455e-10
2.30814e-17
-9.26023e-10
2.35758e-17
-9.26023e-10
2.44393e-17
-9.22455e-10
2.59437e-17
-9.13397e-10
2.83678e-17
-8.94984e-10
3.24189e-17
-8.61405e-10
3.86936e-17
-8.04997e-10
4.62146e-17
-7.16529e-10
5.04083e-17
-5.85688e-10
4.02199e-17
-4.01517e-10
-1.53861e-10
-1.83127e-17
-1.53861e-10
-1.36014e-17
-4.01518e-10
-1.96857e-18
-5.85688e-10
1.00521e-17
-7.16529e-10
1.88097e-17
-8.04997e-10
2.38462e-17
-8.61405e-10
2.57041e-17
-8.94984e-10
2.50812e-17
-9.13397e-10
2.28363e-17
-9.22455e-10
1.98437e-17
-9.26023e-10
1.69371e-17
-9.26023e-10
1.48588e-17
-9.22455e-10
1.4216e-17
-9.13397e-10
1.57576e-17
-8.94984e-10
2.04136e-17
-8.61405e-10
2.84678e-17
-8.04997e-10
3.83716e-17
-7.16529e-10
4.51994e-17
-5.85688e-10
3.70677e-17
-4.01517e-10
-1.53861e-10
6.77784e-18
-1.53861e-10
1.35724e-17
-4.01518e-10
2.02583e-17
-5.85688e-10
2.61637e-17
-7.16529e-10
2.9959e-17
-8.04997e-10
3.12236e-17
-8.61405e-10
3.00344e-17
-8.94984e-10
2.67451e-17
-9.13397e-10
2.19595e-17
-9.22455e-10
1.64984e-17
-9.26023e-10
1.12787e-17
-9.26023e-10
7.16998e-18
-9.22455e-10
5.03911e-18
-9.13397e-10
5.96208e-18
-8.94984e-10
1.09233e-17
-8.61405e-10
2e-17
-8.04997e-10
3.16419e-17
-7.16529e-10
4.14138e-17
-5.85688e-10
3.79902e-17
-4.01517e-10
-1.53861e-10
2.93653e-17
-1.53861e-10
3.63034e-17
-4.01518e-10
3.75269e-17
-5.85688e-10
3.75102e-17
-7.16529e-10
3.66827e-17
-8.04997e-10
3.46108e-17
-8.61405e-10
3.10102e-17
-8.94984e-10
2.59121e-17
-9.13397e-10
1.96369e-17
-9.22455e-10
1.28439e-17
-9.26023e-10
6.38655e-18
-9.26023e-10
1.16826e-18
-9.22455e-10
-1.77766e-18
-9.13397e-10
-1.27223e-18
-8.94984e-10
3.48584e-18
-8.61405e-10
1.23737e-17
-8.04997e-10
2.41648e-17
-7.16529e-10
3.54728e-17
-5.85688e-10
3.57168e-17
-4.01517e-10
-1.53861e-10
3.873e-17
-1.53861e-10
4.48411e-17
-4.01518e-10
4.24343e-17
-5.85688e-10
3.90656e-17
-7.16529e-10
3.59251e-17
-8.04997e-10
3.2384e-17
-8.61405e-10
2.78747e-17
-8.94984e-10
2.22483e-17
-9.13397e-10
1.56668e-17
-9.22455e-10
8.63508e-18
-9.26023e-10
1.91086e-18
-9.26023e-10
-3.59877e-18
-9.22455e-10
-6.8122e-18
-9.13397e-10
-6.67369e-18
-8.94984e-10
-2.80711e-18
-8.61405e-10
4.43001e-18
-8.04997e-10
1.41339e-17
-7.16529e-10
2.42272e-17
-5.85688e-10
2.6557e-17
-4.01517e-10
-1.53861e-10
3.16014e-17
-1.53861e-10
3.53582e-17
-4.01518e-10
3.2281e-17
-5.85688e-10
2.90806e-17
-7.16529e-10
2.67769e-17
-8.04997e-10
2.42794e-17
-8.61405e-10
2.07373e-17
-8.94984e-10
1.59726e-17
-9.13397e-10
1.01695e-17
-9.22455e-10
3.79111e-18
-9.26023e-10
-2.44426e-18
-9.26023e-10
-7.63188e-18
-9.22455e-10
-1.07414e-17
-9.13397e-10
-1.10029e-17
-8.94984e-10
-8.58472e-18
-8.61405e-10
-4.05176e-18
-8.04997e-10
1.72663e-18
-7.16529e-10
7.882e-18
-5.85688e-10
1.0016e-17
-4.01517e-10
-1.53861e-10
1.18918e-17
-1.53861e-10
1.15524e-17
-4.01518e-10
1.00364e-17
-5.85688e-10
9.84422e-18
-7.16529e-10
1.10104e-17
-8.04997e-10
1.17258e-17
-8.61405e-10
1.07678e-17
-8.94984e-10
7.97539e-18
-9.13397e-10
3.70546e-18
-9.22454e-10
-1.46572e-18
-9.26023e-10
-6.76533e-18
-9.26023e-10
-1.12785e-17
-9.22455e-10
-1.40779e-17
-9.13397e-10
-1.47366e-17
-8.94984e-10
-1.38515e-17
-8.61405e-10
-1.20005e-17
-8.04997e-10
-1.03154e-17
-7.16529e-10
-9.0185e-18
-5.85688e-10
-8.59633e-18
-4.01517e-10
-1.53861e-10
-1.397e-17
-1.53861e-10
-1.83699e-17
-4.01518e-10
-1.75053e-17
-5.85688e-10
-1.3401e-17
-7.16529e-10
-7.51353e-18
-8.04997e-10
-2.51215e-18
-8.61405e-10
-5.74969e-20
-8.94984e-10
-3.47646e-19
-9.13397e-10
-2.80242e-18
-9.22454e-10
-6.61807e-18
-9.26023e-10
-1.08911e-17
-9.26023e-10
-1.46577e-17
-9.22455e-10
-1.70775e-17
-9.13397e-10
-1.79892e-17
-8.94984e-10
-1.80417e-17
-8.61405e-10
-1.77149e-17
-8.04997e-10
-1.84658e-17
-7.16529e-10
-2.03405e-17
-5.85688e-10
-1.99421e-17
-4.01517e-10
-1.53861e-10
-3.74248e-17
-1.53861e-10
-4.5764e-17
-4.01518e-10
-4.27525e-17
-5.85688e-10
-3.45575e-17
-7.16529e-10
-2.42455e-17
-8.04997e-10
-1.52102e-17
-8.61405e-10
-9.50769e-18
-8.94984e-10
-7.45498e-18
-9.13397e-10
-8.3053e-18
-9.22454e-10
-1.10103e-17
-9.26023e-10
-1.44905e-17
-9.26023e-10
-1.76888e-17
-9.22454e-10
-1.97965e-17
-9.13397e-10
-2.07089e-17
-8.94984e-10
-2.07269e-17
-8.61405e-10
-2.02847e-17
-8.04997e-10
-2.09561e-17
-7.16529e-10
-2.29702e-17
-5.85688e-10
-2.1053e-17
-4.01517e-10
-1.53861e-10
-5.27043e-17
-1.53861e-10
-6.44248e-17
-4.01518e-10
-5.98545e-17
-5.85688e-10
-4.86992e-17
-7.16529e-10
-3.53698e-17
-8.04997e-10
-2.3617e-17
-8.61405e-10
-1.56854e-17
-8.94984e-10
-1.20356e-17
-9.13397e-10
-1.18882e-17
-9.22454e-10
-1.40221e-17
-9.26023e-10
-1.71685e-17
-9.26023e-10
-2.01526e-17
-9.22454e-10
-2.21571e-17
-9.13397e-10
-2.29193e-17
-8.94984e-10
-2.2252e-17
-8.61405e-10
-2.06303e-17
-8.04997e-10
-1.93136e-17
-7.16529e-10
-1.89488e-17
-5.85688e-10
-1.51302e-17
-4.01517e-10
-1.53861e-10
-5.86935e-17
-1.53861e-10
-7.18183e-17
-4.01518e-10
-6.59841e-17
-5.85688e-10
-5.3149e-17
-7.16529e-10
-3.86213e-17
-8.04997e-10
-2.60173e-17
-8.61405e-10
-1.73969e-17
-8.94984e-10
-1.32715e-17
-9.13397e-10
-1.29558e-17
-9.22454e-10
-1.51713e-17
-9.26023e-10
-1.85183e-17
-9.26023e-10
-2.17369e-17
-9.22454e-10
-2.39873e-17
-9.13397e-10
-2.4798e-17
-8.94984e-10
-2.37138e-17
-8.61405e-10
-2.12098e-17
-8.04997e-10
-1.78645e-17
-7.16529e-10
-1.46157e-17
-5.85688e-10
-9.72189e-18
-4.01518e-10
-1.53861e-10
-5.5848e-17
-1.53861e-10
-6.76475e-17
-4.01517e-10
-6.06194e-17
-5.85688e-10
-4.73091e-17
-7.16529e-10
-3.33918e-17
-8.04997e-10
-2.18758e-17
-8.61405e-10
-1.42503e-17
-8.94984e-10
-1.09039e-17
-9.13397e-10
-1.12998e-17
-9.22454e-10
-1.42212e-17
-9.26023e-10
-1.82417e-17
-9.26023e-10
-2.21258e-17
-9.22454e-10
-2.50652e-17
-9.13397e-10
-2.64971e-17
-8.94984e-10
-2.60851e-17
-8.61405e-10
-2.41405e-17
-8.04997e-10
-2.05e-17
-7.16529e-10
-1.69037e-17
-5.85688e-10
-1.01377e-17
-4.01518e-10
-1.53861e-10
-4.39302e-17
-1.53861e-10
-5.25717e-17
-4.01517e-10
-4.48581e-17
-5.85688e-10
-3.22894e-17
-7.16529e-10
-2.05499e-17
-8.04997e-10
-1.17577e-17
-8.61405e-10
-6.60906e-18
-8.94984e-10
-5.19202e-18
-9.13397e-10
-7.06197e-18
-9.22454e-10
-1.11693e-17
-9.26023e-10
-1.62145e-17
-9.26023e-10
-2.10971e-17
-9.22454e-10
-2.51327e-17
-9.13397e-10
-2.78671e-17
-8.94984e-10
-2.92949e-17
-8.61405e-10
-2.94283e-17
-8.04997e-10
-2.77065e-17
-7.16529e-10
-2.51016e-17
-5.85688e-10
-1.86714e-17
-4.01518e-10
-1.53861e-10
-2.62342e-17
-1.53861e-10
-2.97674e-17
-4.01517e-10
-2.15665e-17
-5.85688e-10
-1.06842e-17
-7.16529e-10
-2.16685e-18
-8.04997e-10
2.86115e-18
-8.61405e-10
4.5513e-18
-8.94984e-10
3.2255e-18
-9.13397e-10
-6.64785e-19
-9.22454e-10
-6.27694e-18
-9.26023e-10
-1.25516e-17
-9.26023e-10
-1.8619e-17
-9.22454e-10
-2.39709e-17
-9.13397e-10
-2.83687e-17
-8.94984e-10
-3.20994e-17
-8.61405e-10
-3.49915e-17
-8.04997e-10
-3.69536e-17
-7.16529e-10
-3.84469e-17
-5.85688e-10
-3.10841e-17
-4.01518e-10
-1.53861e-10
-6.53155e-18
-1.53861e-10
-3.33932e-18
-4.01517e-10
5.34197e-18
-5.85688e-10
1.40304e-17
-7.16529e-10
1.89842e-17
-8.04997e-10
1.9984e-17
-8.61405e-10
1.78749e-17
-8.94984e-10
1.34326e-17
-9.13397e-10
7.2326e-18
-9.22454e-10
-5.03334e-20
-9.26023e-10
-7.63449e-18
-9.26023e-10
-1.48987e-17
-9.22454e-10
-2.14615e-17
-9.13397e-10
-2.72169e-17
-8.94984e-10
-3.25357e-17
-8.61405e-10
-3.72885e-17
-8.04997e-10
-4.24065e-17
-7.16529e-10
-4.70491e-17
-5.85688e-10
-3.87348e-17
-4.01518e-10
-1.53861e-10
1.21511e-17
-1.53861e-10
2.21602e-17
-4.01518e-10
3.18423e-17
-5.85688e-10
3.84193e-17
-7.16529e-10
4.01059e-17
-8.04997e-10
3.74584e-17
-8.61405e-10
3.17923e-17
-8.94984e-10
2.4299e-17
-9.13397e-10
1.57734e-17
-9.22454e-10
6.81178e-18
-9.26023e-10
-2.04504e-18
-9.26023e-10
-1.0344e-17
-9.22454e-10
-1.77037e-17
-9.13397e-10
-2.40044e-17
-8.94984e-10
-2.94941e-17
-8.61405e-10
-3.43172e-17
-8.04997e-10
-4.03648e-17
-7.16529e-10
-4.57757e-17
-5.85688e-10
-3.77625e-17
-4.01518e-10
-1.53861e-10
2.70333e-17
-1.53861e-10
4.3938e-17
-4.01518e-10
5.48491e-17
-5.85688e-10
5.97473e-17
-7.16529e-10
5.87951e-17
-8.04997e-10
5.32078e-17
-8.61405e-10
4.46241e-17
-8.94984e-10
3.45242e-17
-9.13397e-10
2.39372e-17
-9.22454e-10
1.34662e-17
-9.26023e-10
3.50401e-18
-9.26023e-10
-5.53616e-18
-9.22454e-10
-1.31487e-17
-9.13397e-10
-1.9152e-17
-8.94984e-10
-2.3553e-17
-8.61405e-10
-2.68499e-17
-8.04997e-10
-3.11679e-17
-7.16529e-10
-3.40658e-17
-5.85688e-10
-2.70169e-17
-4.01518e-10
-1.53861e-10
3.79265e-17
-1.53861e-10
6.0581e-17
-4.01518e-10
7.25069e-17
-5.85688e-10
7.6093e-17
-7.16529e-10
7.31442e-17
-8.04997e-10
6.54193e-17
-8.61405e-10
5.4747e-17
-8.94984e-10
4.2747e-17
-9.13397e-10
3.06129e-17
-9.22454e-10
1.89886e-17
-9.26022e-10
8.24149e-18
-9.26022e-10
-1.17258e-18
-9.22454e-10
-8.64112e-18
-9.13397e-10
-1.38608e-17
-8.94984e-10
-1.66108e-17
-8.61405e-10
-1.77104e-17
-8.04997e-10
-1.84291e-17
-7.16529e-10
-1.60414e-17
-5.85688e-10
-8.32277e-18
-4.01518e-10
-1.53861e-10
4.56286e-17
-1.53861e-10
7.21691e-17
-4.01518e-10
8.43053e-17
-5.85688e-10
8.65365e-17
-7.16529e-10
8.19693e-17
-8.04997e-10
7.27818e-17
-8.61405e-10
6.0853e-17
-8.94984e-10
4.77913e-17
-9.13397e-10
3.48138e-17
-9.22454e-10
2.25748e-17
-9.26022e-10
1.14595e-17
-9.26022e-10
2.02887e-18
-9.22454e-10
-5.07366e-18
-9.13397e-10
-9.49175e-18
-8.94984e-10
-1.08407e-17
-8.61405e-10
-9.96011e-18
-8.04997e-10
-6.61516e-18
-7.16529e-10
1.28558e-18
-5.85688e-10
9.1324e-18
-4.01518e-10
-1.53861e-10
5.13453e-17
-1.53861e-10
7.97336e-17
-4.01518e-10
9.07616e-17
-5.85688e-10
9.1038e-17
-7.16529e-10
8.48591e-17
-8.04997e-10
7.46787e-17
-8.61405e-10
6.22349e-17
-8.94984e-10
4.89681e-17
-9.13397e-10
3.59528e-17
-9.22454e-10
2.37706e-17
-9.26022e-10
1.28209e-17
-9.26022e-10
3.68425e-18
-9.22454e-10
-3.05649e-18
-9.13397e-10
-6.97873e-18
-8.94984e-10
-7.65264e-18
-8.61405e-10
-5.41511e-18
-8.04997e-10
1.28532e-18
-7.16529e-10
1.2794e-17
-5.85688e-10
1.8257e-17
-4.01518e-10
-1.53861e-10
5.64057e-17
-1.53861e-10
8.4352e-17
-4.01518e-10
9.26047e-17
-5.85688e-10
9.00033e-17
-7.16529e-10
8.20015e-17
-8.04997e-10
7.11813e-17
-8.61405e-10
5.89344e-17
-8.94984e-10
4.63397e-17
-9.13397e-10
3.41439e-17
-9.22454e-10
2.27322e-17
-9.26022e-10
1.24555e-17
-9.26022e-10
3.82949e-18
-9.22454e-10
-2.68613e-18
-9.13397e-10
-6.60958e-18
-8.94984e-10
-7.43604e-18
-8.61405e-10
-4.64213e-18
-8.04997e-10
3.80004e-18
-7.16529e-10
1.54033e-17
-5.85688e-10
2.0388e-17
-4.01518e-10
-1.53861e-10
6.05629e-17
-1.53861e-10
8.55732e-17
-4.01518e-10
8.9724e-17
-5.85688e-10
8.36436e-17
-7.16529e-10
7.38068e-17
-8.04997e-10
6.28329e-17
-8.61405e-10
5.15964e-17
-8.94984e-10
4.05958e-17
-9.13397e-10
3.00629e-17
-9.22454e-10
2.00847e-17
-9.26022e-10
1.08981e-17
-9.26022e-10
2.87212e-18
-9.22454e-10
-3.65555e-18
-9.13397e-10
-8.0899e-18
-8.94984e-10
-9.69838e-18
-8.61405e-10
-7.13315e-18
-8.04997e-10
1.34539e-18
-7.16529e-10
1.17008e-17
-5.85688e-10
1.45537e-17
-4.01518e-10
-1.53861e-10
6.10265e-17
-1.53861e-10
8.06686e-17
-4.01518e-10
8.05406e-17
-5.85688e-10
7.15052e-17
-7.16529e-10
6.05488e-17
-8.04997e-10
5.0316e-17
-8.61405e-10
4.10994e-17
-8.94984e-10
3.26439e-17
-9.13397e-10
2.45295e-17
-9.22454e-10
1.65076e-17
-9.26022e-10
8.6813e-18
-9.26022e-10
1.28933e-18
-9.22454e-10
-5.38299e-18
-9.13397e-10
-1.06566e-17
-8.94984e-10
-1.35621e-17
-8.61405e-10
-1.2151e-17
-8.04997e-10
-5.11618e-18
-7.16529e-10
3.97124e-18
-5.85688e-10
7.56209e-18
-4.01518e-10
-1.53861e-10
5.35691e-17
-1.53861e-10
6.56637e-17
-4.01518e-10
6.25626e-17
-5.85688e-10
5.26725e-17
-7.16529e-10
4.23994e-17
-8.04997e-10
3.42816e-17
-8.61405e-10
2.81929e-17
-8.94984e-10
2.31066e-17
-9.13397e-10
1.79693e-17
-9.22454e-10
1.22743e-17
-9.26022e-10
6.05395e-18
-9.26022e-10
-5.19099e-19
-9.22454e-10
-7.18277e-18
-9.13397e-10
-1.33481e-17
-8.94984e-10
-1.79613e-17
-8.61405e-10
-1.89306e-17
-8.04997e-10
-1.52239e-17
-7.16529e-10
-8.2192e-18
-5.85688e-10
-2.07146e-18
-4.01518e-10
-1.53861e-10
3.37561e-17
-1.53861e-10
3.85832e-17
-4.01518e-10
3.44866e-17
-5.85688e-10
2.68917e-17
-7.16529e-10
1.99384e-17
-8.04997e-10
1.55121e-17
-8.61405e-10
1.33918e-17
-8.94984e-10
1.21545e-17
-9.13397e-10
1.03332e-17
-9.22454e-10
7.30237e-18
-9.26022e-10
3.04431e-18
-9.26022e-10
-2.31072e-18
-9.22454e-10
-8.45954e-18
-9.13397e-10
-1.49944e-17
-8.94984e-10
-2.10647e-17
-8.61405e-10
-2.52968e-17
-8.04997e-10
-2.67793e-17
-7.16529e-10
-2.3636e-17
-5.85688e-10
-1.46957e-17
-4.01518e-10
-1.53861e-10
5.25549e-18
-1.53861e-10
2.98864e-18
-4.01518e-10
-1.07868e-18
-5.85688e-10
-3.92509e-18
-7.16529e-10
-5.25165e-18
-8.04997e-10
-4.71277e-18
-8.61405e-10
-2.53117e-18
-8.94984e-10
9.06653e-20
-9.13397e-10
1.65249e-18
-9.22454e-10
1.44131e-18
-9.26022e-10
-4.75934e-19
-9.26022e-10
-3.80328e-18
-9.22454e-10
-8.2675e-18
-9.13397e-10
-1.38605e-17
-8.94984e-10
-2.03439e-17
-8.61405e-10
-2.76117e-17
-8.04997e-10
-3.49185e-17
-7.16529e-10
-3.78176e-17
-5.85688e-10
-3.05499e-17
-4.01518e-10
-1.53861e-10
-2.42011e-17
-1.53861e-10
-3.43915e-17
-4.01518e-10
-3.77101e-17
-5.85688e-10
-3.53956e-17
-7.16529e-10
-3.03484e-17
-8.04997e-10
-2.45017e-17
-8.61405e-10
-1.82049e-17
-8.94984e-10
-1.22812e-17
-9.13397e-10
-7.82045e-18
-9.22454e-10
-5.20679e-18
-9.26022e-10
-4.18138e-18
-9.26022e-10
-4.35082e-18
-9.22454e-10
-5.62374e-18
-9.13397e-10
-8.39072e-18
-8.94984e-10
-1.32495e-17
-8.61405e-10
-2.151e-17
-8.04997e-10
-3.28096e-17
-7.16529e-10
-4.19645e-17
-5.85688e-10
-3.95189e-17
-4.01518e-10
-1.53861e-10
-4.92621e-17
-1.53861e-10
-6.52135e-17
-4.01518e-10
-6.77327e-17
-5.85688e-10
-6.17892e-17
-7.16529e-10
-5.1599e-17
-8.04997e-10
-4.13497e-17
-8.61405e-10
-3.1995e-17
-8.94984e-10
-2.37785e-17
-9.13397e-10
-1.70247e-17
-9.22454e-10
-1.16567e-17
-9.26022e-10
-7.21609e-18
-9.26022e-10
-3.28633e-18
-9.22454e-10
1.76785e-21
-9.13397e-10
1.99498e-18
-8.94984e-10
1.3155e-18
-8.61405e-10
-4.38428e-18
-8.04997e-10
-1.54795e-17
-7.16529e-10
-2.84597e-17
-5.85688e-10
-3.41653e-17
-4.01518e-10
-1.53861e-10
-6.52872e-17
-1.53861e-10
-8.46307e-17
-4.01518e-10
-8.56006e-17
-5.85688e-10
-7.78811e-17
-7.16529e-10
-6.52475e-17
-8.04997e-10
-5.26798e-17
-8.61405e-10
-4.17649e-17
-8.94984e-10
-3.23992e-17
-9.13397e-10
-2.4173e-17
-9.22454e-10
-1.64622e-17
-9.26022e-10
-8.62097e-18
-9.26022e-10
-3.25857e-19
-9.22454e-10
8.18387e-18
-9.13397e-10
1.61951e-17
-8.94984e-10
2.19868e-17
-8.61405e-10
2.27597e-17
-8.04997e-10
1.696e-17
-7.16529e-10
4.88134e-18
-5.85688e-10
-9.37273e-18
-4.01518e-10
-1.53861e-10
-6.7514e-17
-1.53861e-10
-8.8402e-17
-4.01518e-10
-8.86164e-17
-5.85688e-10
-8.06257e-17
-7.16529e-10
-6.86342e-17
-8.04997e-10
-5.6455e-17
-8.61405e-10
-4.58054e-17
-8.94984e-10
-3.65668e-17
-9.13397e-10
-2.78203e-17
-9.22454e-10
-1.85211e-17
-9.26022e-10
-7.97599e-18
-9.26022e-10
4.01343e-18
-9.22454e-10
1.72687e-17
-9.13397e-10
3.12847e-17
-8.94984e-10
4.45353e-17
-8.61405e-10
5.42768e-17
-8.04997e-10
5.7353e-17
-7.16529e-10
5.11237e-17
-5.85688e-10
3.35963e-17
-4.01518e-10
-1.53861e-10
-5.49542e-17
-1.53861e-10
-7.63647e-17
-4.01518e-10
-7.78339e-17
-5.85688e-10
-7.10436e-17
-7.16529e-10
-6.20364e-17
-8.04997e-10
-5.26799e-17
-8.61405e-10
-4.40327e-17
-8.94984e-10
-3.60281e-17
-9.13397e-10
-2.7636e-17
-9.22454e-10
-1.77661e-17
-9.26022e-10
-5.83571e-18
-9.26022e-10
8.31688e-18
-9.22454e-10
2.4729e-17
-9.13397e-10
4.32343e-17
-8.94984e-10
6.28562e-17
-8.61405e-10
8.10888e-17
-8.04997e-10
9.31722e-17
-7.16529e-10
9.48445e-17
-5.85688e-10
7.58225e-17
-4.01518e-10
-1.53861e-10
-3.74527e-17
-1.53861e-10
-5.47981e-17
-4.01518e-10
-5.8191e-17
-5.85688e-10
-5.39891e-17
-7.16529e-10
-4.90214e-17
-8.04997e-10
-4.37179e-17
-8.61405e-10
-3.80322e-17
-8.94984e-10
-3.1917e-17
-9.13397e-10
-2.4625e-17
-9.22454e-10
-1.53296e-17
-9.26022e-10
-3.60881e-18
-9.26022e-10
1.07346e-17
-9.22454e-10
2.79234e-17
-9.13397e-10
4.81557e-17
-8.94984e-10
7.10951e-17
-8.61405e-10
9.42878e-17
-8.04997e-10
1.12085e-16
-7.16529e-10
1.20096e-16
-5.85688e-10
1.00537e-16
-4.01518e-10
-1.53861e-10
-1.59209e-17
-1.53861e-10
-2.86929e-17
-4.01518e-10
-3.5685e-17
-5.85688e-10
-3.57491e-17
-7.16529e-10
-3.48775e-17
-8.04997e-10
-3.33988e-17
-8.61405e-10
-3.06162e-17
-8.94984e-10
-2.65117e-17
-9.13397e-10
-2.07798e-17
-9.22454e-10
-1.29802e-17
-9.26022e-10
-2.88671e-18
-9.26022e-10
9.68328e-18
-9.22454e-10
2.50613e-17
-9.13397e-10
4.37344e-17
-8.94984e-10
6.56878e-17
-8.61405e-10
8.84105e-17
-8.04997e-10
1.06956e-16
-7.16529e-10
1.17448e-16
-5.85688e-10
1.02301e-16
-4.01518e-10
-1.53861e-10
3.88086e-18
-1.53861e-10
-5.26905e-18
-4.01518e-10
-1.74084e-17
-5.85688e-10
-2.24044e-17
-7.16529e-10
-2.46228e-17
-8.04997e-10
-2.5592e-17
-8.61405e-10
-2.47919e-17
-8.94984e-10
-2.22669e-17
-9.13397e-10
-1.81085e-17
-9.22454e-10
-1.2276e-17
-9.26022e-10
-4.75143e-18
-9.26022e-10
4.56954e-18
-9.22454e-10
1.60045e-17
-9.13397e-10
3.00435e-17
-8.94984e-10
4.64727e-17
-8.61405e-10
6.29545e-17
-8.04997e-10
7.65883e-17
-7.16529e-10
8.32495e-17
-5.85688e-10
6.93181e-17
-4.01517e-10
-1.53861e-10
1.7332e-17
-1.53861e-10
7.01259e-18
-4.01518e-10
-9.11739e-18
-5.85688e-10
-1.73364e-17
-7.16529e-10
-2.08696e-17
-8.04997e-10
-2.25046e-17
-8.61405e-10
-2.23691e-17
-8.94984e-10
-2.06575e-17
-9.13397e-10
-1.77249e-17
-9.22454e-10
-1.38429e-17
-9.26022e-10
-9.18836e-18
-9.26022e-10
-3.80492e-18
-9.22454e-10
2.46681e-18
-9.13397e-10
9.77939e-18
-8.94984e-10
1.75046e-17
-8.61405e-10
2.42246e-17
-8.04997e-10
2.96613e-17
-7.16529e-10
3.05585e-17
-5.85688e-10
1.99966e-17
-4.01517e-10
-1.53861e-10
1.52615e-17
-1.53861e-10
3.86413e-18
-4.01518e-10
-1.13788e-17
-5.85688e-10
-1.96655e-17
-7.16529e-10
-2.28403e-17
-8.04997e-10
-2.3726e-17
-8.61405e-10
-2.31602e-17
-8.94984e-10
-2.15407e-17
-9.13397e-10
-1.9352e-17
-9.22454e-10
-1.70497e-17
-9.26022e-10
-1.4999e-17
-9.26022e-10
-1.3446e-17
-9.22454e-10
-1.25243e-17
-9.13397e-10
-1.25808e-17
-8.94984e-10
-1.44121e-17
-8.61405e-10
-1.79863e-17
-8.04997e-10
-2.11981e-17
-7.16529e-10