/*--------------------------------*- C++ -*----------------------------------*\
| =========                 |                                                 |
| \\      /  F ield         | OpenFOAM: The Open Source CFD Toolbox           |
|  \\    /   O peration     | Version:  2.3.0                                 |
|   \\  /    A nd           | Web:      www.OpenFOAM.org                      |
|    \\/     M anipulation  |                                                 |
\*---------------------------------------------------------------------------*/
FoamFile
{
    version     2.0;
    format      ascii;
    class       volVectorField;
    location    "2.49755";
    object      Ur;
}
// * * * * * * * * * * * * * * * * * * * * * * * * * * * * * * * * * * * * * //

dimensions      [0 1 -1 0 0 0 0];

internalField   nonuniform List<vector> 
1000
(
(-1.99573e-05 0.00219886 -1.64489e-05)
(-2.65502e-05 0.00235154 -4.39525e-06)
(4.4355e-05 0.00265 -5.9102e-06)
(0.000107441 0.00279359 5.55879e-06)
(8.01293e-05 0.00272862 1.36763e-05)
(2.94536e-06 0.00257453 2.382e-06)
(-6.59582e-05 0.00232661 -2.26638e-06)
(-0.000135606 0.00210803 -9.51854e-06)
(-8.59709e-05 0.00329631 -4.70648e-05)
(0.000188067 0.00271611 -3.97422e-05)
(0.000162708 0.00217006 4.05798e-06)
(3.02941e-05 0.0027876 3.07262e-06)
(-8.328e-05 0.00309761 4.87096e-06)
(-0.000160068 0.00336589 4.06328e-06)
(-0.000110365 0.00355005 5.65578e-06)
(-6.56868e-06 0.00359909 5.42446e-06)
(6.41791e-05 0.00306419 6.96594e-06)
(9.89546e-05 0.00239229 9.83471e-06)
(4.97422e-05 0.00220854 -1.27966e-05)
(2.24457e-05 0.0021252 -6.18858e-06)
(-2.19371e-05 0.0022256 2.13677e-06)
(1.15756e-06 0.00230859 1.34793e-06)
(4.33668e-05 0.00239819 2.15938e-06)
(6.50228e-05 0.00243448 -2.95684e-07)
(3.34611e-05 0.0024235 5.15021e-06)
(-4.77238e-05 0.0023923 1.6384e-05)
(-0.000129349 0.00235064 1.83077e-05)
(-0.000125496 0.00234054 7.50547e-06)
(-3.69275e-07 0.00320894 5.91693e-06)
(9.06729e-05 0.00275486 -1.27993e-05)
(0.000126167 0.00236319 2.65028e-06)
(4.74354e-05 0.00236844 1.98154e-05)
(-3.1192e-05 0.00239031 1.68371e-05)
(-9.41879e-05 0.00243316 3.86592e-06)
(-9.16893e-05 0.00245847 -1.82344e-06)
(-2.51958e-05 0.00247097 -5.52437e-06)
(5.95162e-05 0.00247357 -3.82984e-06)
(3.73824e-05 0.00237994 5.18024e-06)
(1.86172e-06 0.00236485 1.46688e-05)
(-1.09122e-05 0.00213314 1.13033e-05)
(9.18948e-06 0.00202583 -1.8485e-06)
(1.08481e-05 0.00183994 -1.54044e-06)
(5.91985e-05 0.00246064 4.57725e-06)
(6.37096e-05 0.00250962 8.81958e-07)
(1.95777e-05 0.00252755 1.36063e-06)
(-6.74345e-05 0.0024946 1.5813e-06)
(-0.000163019 0.00247167 6.33994e-06)
(-9.61015e-05 0.00238873 2.04669e-05)
(-1.62526e-05 0.002559 5.30049e-05)
(6.99381e-05 0.0024893 -3.65538e-06)
(0.000107685 0.00250097 1.14595e-05)
(2.1471e-05 0.00247514 1.0929e-05)
(-5.28215e-05 0.00251296 -4.91292e-07)
(-0.000104001 0.00250099 -3.96018e-06)
(-0.000113802 0.00246407 -2.3595e-06)
(-5.99691e-05 0.00242905 4.89024e-06)
(2.89686e-05 0.00205896 1.58481e-05)
(3.01253e-05 0.00230073 -8.75912e-07)
(2.9098e-05 0.00224142 -4.09016e-06)
(1.58086e-05 0.00203903 -3.03222e-05)
(1.11139e-05 0.0011889 2.887e-05)
(2.49371e-05 0.000672676 3.28684e-05)
(8.03912e-05 0.00251395 -6.25866e-06)
(9.13176e-05 0.00258501 -5.74862e-06)
(1.02662e-05 0.00259686 -2.55246e-06)
(-0.000100676 0.00259572 -4.22812e-06)
(-0.000169534 0.00252439 4.53854e-06)
(-4.98362e-05 0.0024783 4.95453e-06)
(-5.26415e-05 0.0024645 1.03636e-05)
(1.71138e-05 0.00250702 -2.47993e-07)
(0.000103459 0.00255354 2.03981e-05)
(3.24259e-05 0.00254044 1.06035e-05)
(-4.07815e-05 0.00256143 -4.43292e-06)
(-9.42682e-05 0.00251925 -3.8494e-06)
(-0.000129479 0.00246495 -3.08411e-06)
(-0.000101428 0.00240056 1.22778e-06)
(-4.01226e-05 0.00104043 -1.17724e-05)
(2.12039e-05 0.00224726 -3.88178e-06)
(4.54939e-05 0.00222805 -3.93096e-06)
(5.15588e-05 0.00210589 -1.05653e-05)
(-8.83925e-06 0.000259207 -2.01806e-07)
(4.64006e-05 -9.20859e-07 1.29432e-05)
(0.000129051 0.00252991 -9.60066e-06)
(0.000129765 0.00261873 -1.05957e-06)
(-1.10578e-05 0.00265122 -2.55442e-06)
(-0.000122571 0.00262818 -3.17661e-06)
(-0.000130647 0.00254397 5.62647e-07)
(-0.00010108 0.00264122 -1.94217e-05)
(-4.68589e-05 0.00244111 -5.69839e-05)
(-3.4647e-05 0.00251216 4.90285e-06)
(8.33093e-05 0.00253158 1.6077e-05)
(2.95246e-05 0.00251837 1.03214e-05)
(-2.57017e-05 0.00250469 -2.097e-06)
(-8.16731e-05 0.00244662 -1.51387e-06)
(-0.000145384 0.00241805 -2.82755e-06)
(-0.000103572 0.00235195 7.56015e-06)
(-6.91297e-05 0.000184772 1.15265e-06)
(-1.20647e-05 0.00166181 -2.25662e-06)
(3.69422e-05 0.00224902 -3.4827e-06)
(3.97787e-05 0.00225587 -6.59635e-07)
(-2.55782e-06 -5.10611e-05 -3.24076e-07)
(6.91185e-05 -4.97582e-05 3.0383e-05)
(0.000181583 0.00248714 -5.26577e-06)
(0.000157257 0.00254074 -1.35006e-07)
(-1.57032e-05 0.00256355 -4.13387e-06)
(-0.000129411 0.00255256 5.26893e-07)
(-0.00012937 0.00252684 5.47995e-06)
(-0.000172406 0.00277269 -8.74565e-06)
(-0.000112553 0.0024087 -6.6669e-05)
(-7.51007e-05 0.00247558 -9.43761e-06)
(4.36842e-05 0.00245691 7.18931e-06)
(2.27425e-05 0.00244592 9.24021e-06)
(-1.12365e-05 0.00239549 7.70481e-08)
(-4.75781e-05 0.00234523 4.57675e-07)
(-0.00010073 0.00233522 -2.40773e-06)
(-0.000100641 0.00213023 1.21758e-05)
(-4.87767e-05 -9.22385e-05 1.44909e-06)
(-6.46588e-06 0.000480317 2.62407e-07)
(-7.09196e-06 0.00164539 -5.19041e-06)
(2.57082e-05 0.00182862 -5.80548e-06)
(3.84059e-06 -5.90406e-05 -7.31562e-08)
(7.66222e-05 -6.73815e-05 3.56819e-05)
(0.000165378 0.00236043 -2.71664e-06)
(0.000129884 0.00236953 7.52333e-06)
(-2.80086e-05 0.00242606 -1.13025e-07)
(-0.000113272 0.0024287 2.24596e-06)
(-0.000130018 0.00245165 6.41275e-06)
(-0.000147073 0.00272045 -1.09033e-05)
(-7.14873e-05 0.0023112 -4.00386e-05)
(-0.000100907 0.0023722 -1.95913e-05)
(-1.03424e-05 0.00240249 -5.56501e-06)
(4.9699e-06 0.00235402 7.30299e-06)
(-2.9197e-06 0.00231507 5.39231e-07)
(-2.12902e-05 0.00228009 -2.47547e-06)
(-4.14676e-05 0.00229065 -5.45362e-06)
(-4.45527e-05 0.00143257 1.91316e-05)
(-1.59941e-05 -9.57961e-05 5.42088e-07)
(1.35094e-06 -0.000111533 -2.67346e-07)
(-8.77846e-06 0.000438986 -1.94229e-06)
(6.72038e-06 0.000782036 -1.08102e-05)
(5.70677e-06 -5.76885e-05 -1.21519e-06)
(6.47322e-05 -5.571e-05 1.72717e-05)
(9.87693e-05 0.0022567 -1.25962e-06)
(4.78781e-05 0.00227668 7.53523e-06)
(-2.86097e-05 0.00234876 7.85344e-07)
(-3.67367e-05 0.00232946 -3.48171e-06)
(-0.000114275 0.00238025 3.48649e-06)
(-0.000213862 0.00253478 -1.48709e-05)
(-1.48693e-05 0.0022365 -3.14666e-05)
(-9.12196e-05 0.00229905 -1.72215e-05)
(-2.00466e-05 0.00235126 -7.00348e-06)
(-4.59665e-06 0.00230254 4.08858e-06)
(8.06927e-06 0.00228009 1.64838e-06)
(-2.08201e-05 0.00226359 -6.08539e-06)
(-1.43671e-05 0.00227272 -6.48216e-06)
(-9.35947e-06 0.000494703 6.49188e-07)
(6.63662e-06 -9.44244e-05 -4.66078e-07)
(9.11942e-06 -0.000102182 -1.95695e-06)
(-1.40142e-06 -0.00014478 -1.5118e-06)
(-3.47346e-06 4.44972e-05 -1.07208e-06)
(2.40436e-06 -8.32374e-05 2.9728e-07)
(2.38245e-05 -6.07815e-05 4.10261e-06)
(4.03153e-05 0.00220561 -1.6666e-06)
(1.3498e-05 0.00227531 7.49965e-07)
(-2.66287e-05 0.00231548 -1.35245e-06)
(6.66869e-06 0.00232428 -9.34878e-06)
(-0.000101544 0.00237634 -1.96631e-05)
(-0.000174608 0.00250575 -1.81746e-05)
(8.42402e-06 0.00219774 -1.07441e-05)
(-8.37371e-05 0.00229133 -2.27087e-05)
(-2.1033e-05 0.00231658 -4.27016e-06)
(-1.59258e-05 0.00228689 9.85017e-07)
(-1.32484e-05 0.00229254 4.04746e-06)
(-8.00406e-06 0.00226316 -9.76285e-06)
(-3.93277e-06 0.0017472 -4.45626e-06)
(1.40943e-05 5.63248e-07 -7.24477e-07)
(2.08756e-05 -0.000118587 -6.0162e-09)
(4.88756e-06 -0.000127242 4.82686e-07)
(-9.0555e-06 -0.000134446 1.67105e-07)
(-9.36789e-06 -9.28042e-05 -3.59583e-07)
(-5.90013e-06 -0.000440971 5.38522e-07)
(-2.04373e-05 -0.0010583 3.52443e-07)
(-3.3512e-06 0.00109862 -1.4219e-06)
(-2.87337e-05 0.00122056 -1.10033e-05)
(-1.15435e-05 0.00135878 2.17742e-08)
(-1.23627e-05 0.00233945 -5.28231e-06)
(-0.000106023 0.00239501 -1.12148e-05)
(-3.91993e-05 0.00232857 -1.51355e-05)
(8.41558e-05 0.00213527 -6.473e-06)
(-4.48829e-05 0.00231278 -2.33097e-05)
(-2.13902e-05 0.00229343 -1.87515e-06)
(-7.92767e-06 0.00226356 -1.67448e-06)
(-2.34234e-05 0.001147 -8.22972e-06)
(-4.3267e-06 0.00110578 -4.47181e-06)
(5.4196e-06 0.000585283 1.60661e-06)
(9.26018e-06 -0.000117451 4.61388e-07)
(7.06108e-06 -0.000249126 1.3066e-06)
(-4.3636e-06 -0.000133826 3.06801e-06)
(-1.05057e-05 -0.000122734 6.94139e-07)
(-6.82174e-06 -0.000113349 7.65837e-08)
(-1.90063e-05 0.00358914 -3.69872e-05)
(-2.04229e-05 0.0037553 -1.72809e-05)
(4.92278e-05 0.00411556 -1.21093e-05)
(0.000127866 0.00399796 2.25361e-06)
(7.49645e-05 0.00378576 7.82265e-06)
(-1.40107e-05 0.00343854 -3.0665e-06)
(-4.66746e-05 0.00310097 -5.38279e-06)
(-6.71908e-05 0.00284866 -2.29227e-05)
(-9.57756e-05 0.00216998 -7.03592e-05)
(0.000179033 0.00220554 -6.66204e-05)
(6.55494e-05 0.00301038 -2.14799e-07)
(-1.41234e-06 0.00341471 1.6196e-06)
(-7.9332e-05 0.00378222 1.63385e-06)
(-0.000175477 0.0041538 4.50342e-06)
(-0.000148651 0.0044295 4.88918e-06)
(-3.93221e-05 0.00447 3.26851e-06)
(2.50452e-05 0.00392637 7.49764e-06)
(4.88987e-05 0.00315284 8.48723e-06)
(1.01192e-05 0.00238386 -3.05446e-05)
(7.49386e-06 0.002465 -3.0248e-05)
(-1.95014e-05 0.00221515 6.54477e-07)
(9.25992e-06 0.00229074 5.52942e-06)
(5.46165e-05 0.00237773 1.69785e-06)
(7.75023e-05 0.00243729 2.05969e-06)
(5.24683e-05 0.00242548 1.1925e-05)
(-3.47316e-05 0.002387 1.71315e-05)
(-0.000133036 0.00234879 1.08076e-05)
(-0.000128134 0.00229557 2.17237e-05)
(1.32444e-05 0.0023019 -3.63483e-06)
(0.000134773 0.00235422 -1.21504e-05)
(9.68104e-05 0.00238823 1.00683e-05)
(2.11553e-05 0.00237943 1.38588e-05)
(-9.94585e-05 0.00239771 2.01516e-05)
(-0.000167352 0.00243301 8.46608e-06)
(-0.000148582 0.00244973 8.55882e-06)
(-7.40719e-05 0.0024649 1.19484e-05)
(1.24518e-05 0.00208579 7.15238e-06)
(-2.31316e-06 0.00238716 1.39585e-05)
(-1.72366e-05 0.00218119 1.86655e-05)
(-1.34121e-05 0.00211264 9.08734e-06)
(6.96813e-06 0.00175869 4.16767e-05)
(-4.42109e-06 0.00189446 5.38757e-05)
(6.29075e-05 0.00245213 -2.87572e-06)
(7.34936e-05 0.00251174 -9.79853e-07)
(3.33926e-05 0.00253684 1.4332e-06)
(-6.30256e-05 0.00249887 -4.49913e-07)
(-0.000191886 0.00248941 4.65738e-06)
(-0.000104939 0.00244659 2.61206e-05)
(4.40405e-06 0.0025398 2.77255e-05)
(0.000107537 0.00251758 5.46198e-07)
(9.05307e-05 0.00249658 9.62925e-06)
(-2.48131e-05 0.00249268 5.01746e-06)
(-0.000130335 0.00252326 -2.69174e-06)
(-0.000168855 0.00249869 -3.09e-06)
(-0.000176902 0.0024455 -3.91754e-06)
(-0.000115667 0.00240562 -4.70445e-06)
(-3.59276e-05 0.00105455 -1.65893e-06)
(-1.51009e-05 0.00229669 -1.29499e-06)
(1.45535e-05 0.00223658 1.58782e-06)
(1.29493e-05 0.00209915 -4.12371e-06)
(-8.90109e-06 0.000525261 -6.71766e-07)
(1.78038e-05 0.000577332 1.11042e-06)
(8.3882e-05 0.0025077 -7.87502e-06)
(0.000103078 0.00259741 -3.18459e-06)
(1.54314e-05 0.00261515 -1.72845e-06)
(-0.000112605 0.00263091 -3.96125e-06)
(-0.000197863 0.00258249 7.57841e-07)
(-7.23054e-05 0.00254938 2.21191e-05)
(-0.000115961 0.00272391 2.40348e-06)
(5.90161e-05 0.00252324 -2.03632e-06)
(7.19024e-05 0.00255804 5.4331e-06)
(-2.58173e-05 0.00256548 6.46575e-06)
(-0.000124531 0.00258168 -3.11549e-06)
(-0.000153645 0.00252197 -1.71778e-06)
(-0.0001887 0.00245298 -1.70402e-06)
(-0.000133972 0.00236301 -4.99067e-06)
(-7.73588e-05 0.00020596 -1.50307e-06)
(1.089e-05 0.00220161 -4.08585e-06)
(4.77726e-05 0.00221643 -6.11728e-06)
(3.70258e-05 0.00211512 -1.46343e-06)
(-1.16366e-05 -7.29163e-05 -6.4195e-07)
(4.6581e-05 -3.84986e-05 -8.394e-07)
(0.000140298 0.00252924 -4.73618e-06)
(0.000139203 0.00263228 2.58893e-06)
(-1.05328e-05 0.00268167 -2.71367e-06)
(-0.000128906 0.00266149 -3.77229e-06)
(-0.000142292 0.00257092 -1.15922e-07)
(-8.35774e-05 0.002597 3.10774e-06)
(-0.000119999 0.00269872 -4.14148e-05)
(2.77356e-06 0.00251487 -1.9427e-06)
(3.5826e-05 0.00255016 2.22381e-06)
(-3.29514e-05 0.0025454 8.83729e-06)
(-0.000106573 0.00252873 -2.3358e-06)
(-0.000134 0.00245257 1.96634e-06)
(-0.000179567 0.00241143 7.77394e-07)
(-0.000158529 0.00196593 -6.75019e-06)
(-9.80343e-05 -7.74119e-05 1.2234e-06)
(-2.86965e-05 0.00157731 -2.89881e-06)
(3.309e-05 0.00220319 -6.07557e-06)
(3.99717e-05 0.00225279 -5.92825e-06)
(-2.06912e-06 -6.67261e-05 -6.76767e-08)
(7.64989e-05 -3.81e-05 -2.29165e-06)
(0.000188964 0.00248894 -1.05709e-06)
(0.000168361 0.00255999 5.92702e-06)
(-7.17658e-06 0.00260101 -1.70494e-06)
(-0.000132258 0.0025937 3.5754e-07)
(-0.000150731 0.00254566 5.01583e-06)
(-0.00019083 0.00270904 -1.98991e-05)
(-0.00015285 0.00257058 -4.83149e-05)
(-7.39505e-05 0.00246692 -1.03844e-05)
(1.17265e-05 0.00249392 -6.09596e-07)
(-2.16093e-05 0.00248701 9.36008e-06)
(-6.33767e-05 0.00243817 1.47632e-06)
(-7.72318e-05 0.00236347 3.55998e-06)
(-0.000103988 0.00233771 1.12144e-06)
(-7.44277e-05 0.00105203 -3.06836e-06)
(-3.92102e-05 -0.000132961 7.4455e-07)
(-1.97282e-05 0.000400723 1.0221e-06)
(-3.37385e-05 0.00156575 -4.63347e-07)
(3.01428e-05 0.00169782 -2.47675e-06)
(4.8948e-06 -7.40158e-05 -1.38536e-07)
(8.28848e-05 -5.30945e-05 -2.13655e-06)
(0.000170396 0.00236399 2.50057e-06)
(0.000147868 0.00240431 8.71195e-06)
(-4.21458e-05 0.00251642 1.3813e-06)
(-0.000123094 0.00249343 3.55691e-06)
(-0.000185467 0.00251827 5.7838e-06)
(-0.000200024 0.00272908 -3.32542e-05)
(-0.000156677 0.0024733 -2.71564e-05)
(-0.000130061 0.00239249 -8.74394e-06)
(-4.60963e-05 0.00241988 -4.39264e-06)
(-1.31977e-05 0.00238685 8.13414e-06)
(-2.35265e-05 0.00235253 9.61766e-07)
(-3.05608e-05 0.00229726 -4.88264e-07)
(-3.64235e-05 0.00230005 -2.7344e-06)
(-1.7334e-05 0.000289382 -2.24782e-06)
(-4.53289e-06 -0.00012682 1.33993e-07)
(-8.06151e-06 -0.000177553 1.25761e-06)
(-1.91888e-05 0.00036423 2.83247e-06)
(7.43371e-06 0.000539866 -1.01226e-06)
(7.98276e-06 -7.28954e-05 -1.60616e-06)
(6.43129e-05 -5.2309e-05 -1.99804e-06)
(0.000101739 0.0022571 3.61987e-06)
(5.00587e-05 0.00234223 7.8816e-06)
(-5.66448e-05 0.00245209 7.79221e-07)
(-4.17515e-05 0.00241162 -4.0434e-06)
(-0.00015795 0.00246321 8.31279e-06)
(-0.000200806 0.00256554 -2.18079e-05)
(-2.48426e-05 0.00238425 -3.06458e-05)
(-0.000134828 0.0023282 -8.76788e-06)
(-3.50411e-05 0.00236917 -7.23253e-07)
(-1.90422e-05 0.00233547 5.32953e-06)
(8.79026e-06 0.00230035 1.69902e-06)
(-3.1542e-05 0.00227846 -6.87644e-06)
(-1.15786e-05 0.00226981 -4.65329e-06)
(-7.05172e-06 6.18228e-06 5.68544e-07)
(8.21664e-06 -0.000108693 -3.66153e-07)
(3.68362e-06 -0.000158711 -2.21467e-06)
(-5.22335e-06 -0.000197392 1.71152e-06)
(-5.07705e-06 -9.60361e-05 -5.1177e-07)
(1.62456e-06 -0.000137937 2.63526e-07)
(2.13442e-05 -0.000101902 -1.23538e-06)
(4.04896e-05 0.00220778 1.13117e-06)
(7.02018e-06 0.00234541 4.14355e-06)
(-6.80682e-05 0.00241229 3.07239e-06)
(-3.0552e-07 0.00239796 -7.33123e-06)
(-0.000140797 0.00245809 -9.47635e-06)
(-0.000190363 0.00255943 -1.27738e-05)
(4.63866e-05 0.00232469 -2.11621e-05)
(-0.00010645 0.00230685 -1.62158e-05)
(-3.43007e-05 0.00235428 -9.72157e-07)
(-2.67508e-05 0.00231235 1.89605e-07)
(-2.57355e-05 0.00231295 2.64978e-06)
(-1.65327e-05 0.00227992 -8.21158e-06)
(-4.7238e-07 0.00172312 -1.29991e-06)
(1.29224e-05 -6.46798e-05 -8.82304e-08)
(1.24226e-05 -0.000155071 -5.20037e-07)
(4.23474e-07 -0.000230729 9.93212e-07)
(-9.3809e-06 -0.000184001 1.41527e-06)
(-1.03167e-05 -0.000119928 -8.12308e-08)
(-7.57364e-06 -0.00152045 3.44708e-06)
(-2.27512e-05 -0.00328721 1.9432e-06)
(-8.285e-06 0.00110854 -3.06064e-06)
(-6.53883e-05 0.00133625 -1.50392e-05)
(-2.18047e-05 0.0014575 -1.73812e-06)
(-3.92117e-05 0.0024249 -5.8681e-06)
(-0.000129302 0.00249406 -1.85197e-05)
(-8.03819e-05 0.00246489 3.00652e-06)
(9.57537e-05 0.0022774 -1.11352e-05)
(-6.56663e-05 0.00233072 -1.72039e-05)
(-2.97032e-05 0.00232406 1.67141e-07)
(-6.62357e-06 0.00228381 -8.47692e-07)
(-3.26405e-05 0.00117445 -1.16004e-05)
(-4.80933e-06 0.00110934 -2.96477e-06)
(6.26372e-06 0.000557977 3.29221e-07)
(8.75537e-06 -0.000259464 -7.39926e-07)
(1.56633e-05 -0.00097865 1.71816e-06)
(-5.54889e-07 -0.000428092 5.13853e-06)
(-9.94081e-06 -0.000150892 9.09363e-07)
(-7.61168e-06 -0.000133628 1.01264e-08)
(-1.41217e-05 0.00421106 -2.55835e-07)
(-2.2681e-05 0.00430524 -1.73718e-07)
(4.86723e-05 0.00452695 -2.02186e-08)
(0.000127386 0.00436041 -4.46243e-08)
(7.97316e-05 0.00405564 -1.65103e-08)
(2.03121e-07 0.00365414 -9.88973e-08)
(-3.87851e-05 0.00327604 -8.03136e-08)
(-6.87449e-05 0.0031022 2.95268e-07)
(-9.63366e-05 0.00230235 5.13355e-07)
(0.000171591 0.00227398 1.7292e-06)
(5.57911e-05 0.00320632 2.62042e-07)
(-1.74902e-05 0.00354442 -4.46991e-07)
(-9.04981e-05 0.00391643 -1.26212e-07)
(-0.000189065 0.00428373 2.85579e-08)
(-0.000169339 0.00458344 7.35785e-08)
(-5.67987e-05 0.00461899 1.25802e-07)
(2.74796e-05 0.00415478 -3.50906e-08)
(5.4439e-05 0.00339012 -5.40866e-08)
(9.85527e-06 0.00261838 -2.56522e-07)
(1.98737e-06 0.0027465 -5.54604e-08)
(-1.73028e-05 0.00164449 2.22903e-07)
(1.14052e-05 0.00170691 4.81518e-09)
(4.29692e-05 0.00238141 2.24134e-07)
(7.30175e-05 0.0024387 2.12967e-07)
(5.30151e-05 0.00242545 1.08721e-07)
(-3.27933e-05 0.00238715 7.5259e-08)
(-0.000145509 0.00234928 -1.5254e-07)
(-0.000128757 0.0022879 5.28141e-07)
(-6.42729e-07 0.00232051 8.80276e-07)
(0.000128892 0.00235966 3.53381e-09)
(7.76757e-05 0.00235917 -1.49192e-07)
(-1.81741e-07 0.0023811 -3.94471e-07)
(-0.000102816 0.002389 4.23532e-07)
(-0.000169432 0.00242754 1.48443e-07)
(-0.00014914 0.00244138 -3.18265e-08)
(-7.10081e-05 0.00246218 -1.14899e-07)
(2.01454e-05 0.00190074 8.02699e-08)
(6.72891e-06 0.00238612 8.95627e-08)
(-1.54443e-05 0.00218553 7.39641e-09)
(1.51345e-06 0.00217558 -8.73376e-08)
(-4.33674e-06 0.000505418 1.78551e-08)
(-5.71173e-06 0.000567607 -7.54591e-08)
(4.6603e-05 0.00244242 2.41063e-08)
(7.28927e-05 0.00250889 2.893e-07)
(3.38028e-05 0.00253641 2.37506e-07)
(-6.23601e-05 0.00249953 1.10306e-07)
(-0.000196403 0.00249664 -7.04806e-07)
(-0.00011046 0.00246021 2.43682e-06)
(1.97866e-05 0.00243787 2.80755e-07)
(0.000111251 0.00253983 -9.59022e-07)
(6.97847e-05 0.00248469 1.37088e-07)
(-2.48092e-05 0.00249383 -5.80381e-09)
(-0.000126638 0.00251801 -1.10202e-08)
(-0.000159709 0.00249286 5.87715e-08)
(-0.000177162 0.0024376 -2.04034e-07)
(-0.000109513 0.00239378 -1.94405e-08)
(-4.7391e-05 0.000627389 6.0588e-08)
(-1.16298e-05 0.00230112 4.63071e-08)
(2.69845e-05 0.00225275 -1.68753e-09)
(1.93057e-05 0.00223208 8.46218e-08)
(-1.46457e-05 -6.39001e-05 -1.37069e-08)
(3.04604e-05 -1.36386e-05 -7.60555e-07)
(7.24524e-05 0.00250119 -5.63143e-07)
(0.000102772 0.00259283 -1.38298e-07)
(1.58336e-05 0.00261096 6.0244e-08)
(-0.000111724 0.00263154 -7.09722e-07)
(-0.000190444 0.00258117 -2.82022e-07)
(-9.68209e-05 0.00257881 2.16979e-06)
(-7.28732e-05 0.00253196 9.69725e-06)
(5.02503e-05 0.00252067 -1.63877e-06)
(3.59919e-05 0.00255961 4.10923e-07)
(-1.55447e-05 0.00256721 -5.47153e-08)
(-0.000117859 0.00257443 7.25803e-08)
(-0.000138306 0.00251726 1.46808e-08)
(-0.000186049 0.00244425 -8.01098e-08)
(-0.00012501 0.00217735 1.15636e-07)
(-7.07381e-05 -7.55646e-05 2.68092e-08)
(1.82499e-05 0.00166685 4.50184e-08)
(5.9717e-05 0.00224372 -6.37193e-08)
(3.19325e-05 0.00222666 -6.95158e-08)
(-1.00307e-05 -6.53235e-05 3.68519e-07)
(5.10892e-05 -2.99462e-05 -9.08441e-07)
(0.000139379 0.00253094 -1.09551e-06)
(0.000139891 0.00263014 -2.9736e-07)
(-1.24368e-05 0.00267616 -1.67098e-07)
(-0.000128701 0.0026611 -5.56145e-07)
(-0.00014387 0.00258067 -1.54496e-06)
(-9.50392e-05 0.00261839 -2.49534e-06)
(-0.000103348 0.00269753 3.52567e-06)
(-1.61422e-05 0.0024636 -9.74512e-07)
(2.52066e-06 0.00256793 6.72936e-07)
(-2.56917e-05 0.00254327 7.69258e-08)
(-0.000101801 0.00252217 1.06311e-07)
(-0.000125924 0.00245577 1.15784e-08)
(-0.000157282 0.00241831 1.15805e-08)
(-0.000123494 0.00151381 7.07047e-08)
(-6.83427e-05 -0.000117408 4.54217e-08)
(-1.14047e-05 0.000452931 1.34901e-08)
(3.80537e-05 0.00164066 -7.75528e-08)
(4.54669e-05 0.00228638 -1.95464e-07)
(-2.66216e-07 -6.41071e-05 -4.99437e-08)
(7.72274e-05 -3.76273e-05 2.6365e-07)
(0.000187842 0.00248404 1.15355e-07)
(0.000168747 0.00255983 7.89432e-08)
(-7.73461e-06 0.00259627 2.15475e-08)
(-0.000131072 0.00259353 -1.34439e-07)
(-0.000151891 0.00255515 -5.36589e-07)
(-0.000165466 0.00264719 2.89061e-07)
(-0.000162149 0.00267548 -1.17359e-05)
(-8.60005e-05 0.00242075 1.86204e-06)
(-1.58344e-05 0.00251046 5.32513e-07)
(-1.90346e-05 0.00248486 -1.04515e-08)
(-6.32755e-05 0.00243534 1.82694e-08)
(-7.73443e-05 0.00237152 2.85725e-08)
(-8.87724e-05 0.00235278 1.17539e-08)
(-4.56886e-05 0.000673964 -5.21184e-08)
(-2.37919e-05 -0.000117994 5.82707e-09)
(-1.84366e-05 -0.000163087 3.2142e-10)
(-2.49869e-05 0.000416224 -3.68306e-08)
(3.19003e-05 0.00170314 -7.15403e-08)
(4.95514e-06 -7.9552e-05 -2.63586e-07)
(7.54524e-05 -6.35946e-05 1.4878e-06)
(0.000170766 0.00236235 9.00803e-07)
(0.000149219 0.00240676 1.0851e-07)
(-3.83395e-05 0.00250363 8.33615e-08)
(-0.000121214 0.00249281 1.4228e-07)
(-0.000180322 0.00251615 6.91915e-07)
(-0.000184607 0.00264223 2.08819e-07)
(-0.00024427 0.00260408 -8.5029e-06)
(-0.000138863 0.00237509 1.72651e-06)
(-6.86381e-05 0.00242795 -3.50015e-07)
(-1.23224e-05 0.00238708 2.12573e-09)
(-2.20952e-05 0.00234915 -1.1471e-07)
(-3.0456e-05 0.00230775 8.43591e-09)
(-3.14781e-05 0.0023125 -1.41913e-08)
(-7.58972e-06 0.00017171 -3.63018e-08)
(-1.66554e-06 -0.000114202 -2.13038e-08)
(-5.82921e-06 -0.000174323 -2.79206e-08)
(-1.45976e-05 -0.000208118 1.66835e-08)
(7.96177e-06 0.000515753 -1.36526e-08)
(8.48143e-06 -7.28526e-05 1.36567e-07)
(6.0099e-05 -6.15797e-05 4.27615e-07)
(9.95839e-05 0.0022572 -5.19847e-08)
(4.96758e-05 0.00234302 -1.10162e-07)
(-5.02773e-05 0.00243251 -7.70173e-11)
(-4.10136e-05 0.00241459 1.45359e-07)
(-0.000154324 0.00247423 4.57453e-07)
(-0.000145713 0.00249563 -1.74563e-06)
(-7.36937e-05 0.00261902 1.31591e-06)
(-0.000141937 0.00231948 2.56326e-06)
(-4.18511e-05 0.0023711 -2.40242e-07)
(-1.99585e-05 0.00233777 1.62528e-07)
(8.80512e-06 0.00229634 -9.46425e-08)
(-3.19778e-05 0.00228774 9.53008e-10)
(-1.0709e-05 0.00227197 -1.02844e-08)
(-5.25931e-06 -7.49027e-06 3.75155e-08)
(1.18948e-05 -0.000104127 -2.30718e-09)
(3.74425e-06 -0.000166448 3.92271e-10)
(-2.4988e-06 -0.00020043 -3.25763e-08)
(-3.90706e-06 -0.000102604 -2.4505e-10)
(1.48993e-06 -0.000159624 -8.11029e-08)
(2.52686e-05 -0.00011849 -1.89905e-06)
(4.01285e-05 0.00220662 -5.00166e-07)
(6.6587e-06 0.00234343 -3.14007e-08)
(-6.13075e-05 0.00239359 2.24183e-08)
(1.01703e-06 0.0023965 2.31375e-09)
(-0.000136754 0.00245258 -4.17174e-08)
(-0.000180978 0.00253988 -5.09332e-07)
(3.87224e-05 0.00258556 7.88172e-07)
(-0.000111997 0.00229413 8.08641e-07)
(-4.08246e-05 0.0023566 -4.64721e-08)
(-2.75815e-05 0.00231521 4.37804e-08)
(-2.15143e-05 0.00230595 -1.03008e-08)
(-1.79321e-05 0.00228556 1.42997e-08)
(2.04725e-08 0.00178939 6.56629e-09)
(1.30143e-05 -6.37098e-05 5.34137e-09)
(1.49292e-05 -0.000153526 -6.43804e-09)
(1.37547e-06 -0.000262652 3.67787e-09)
(-8.69996e-06 -0.000201213 4.50387e-08)
(-1.07166e-05 -0.000111743 4.21431e-08)
(-7.92758e-06 -0.00228866 -1.41977e-07)
(-2.36718e-05 -0.00438279 -1.41089e-08)
(-8.56288e-06 0.00111398 -2.03274e-07)
(-5.97113e-05 0.00133099 -1.00318e-08)
(-2.62335e-05 0.00239703 3.67509e-08)
(-3.54376e-05 0.00241897 -1.36776e-07)
(-0.000122707 0.00247885 2.07753e-07)
(-8.8053e-05 0.00255526 -3.34186e-08)
(9.21157e-05 0.00248237 6.01149e-07)
(-7.61706e-05 0.00232132 5.18635e-07)
(-3.60862e-05 0.00232399 1.246e-08)
(-7.13583e-06 0.00228411 4.3986e-09)
(-3.13974e-05 0.00116581 8.24234e-09)
(-5.58579e-06 0.00111491 -1.30035e-08)
(8.15893e-06 0.00062749 3.87104e-10)
(8.9674e-06 -0.000323772 -9.86638e-09)
(1.64174e-05 -0.00139368 -1.68864e-08)
(-1.67117e-07 -0.000648801 -1.21106e-08)
(-1.03685e-05 -0.000162901 5.33839e-09)
(-7.6259e-06 -0.000132664 -4.06169e-08)
(-1.91315e-05 0.00358763 3.69067e-05)
(-2.05303e-05 0.00375652 1.70744e-05)
(4.92321e-05 0.0041188 1.20161e-05)
(0.000127798 0.00400172 -2.23328e-06)
(7.4956e-05 0.00378821 -7.76845e-06)
(-1.43611e-05 0.00344121 2.94898e-06)
(-4.69247e-05 0.00310202 5.31633e-06)
(-6.70341e-05 0.00284764 2.31069e-05)
(-9.73205e-05 0.00216994 7.10176e-05)
(0.000182643 0.0022027 6.95333e-05)
(6.59432e-05 0.00300373 -8.52481e-07)
(-1.91887e-06 0.00341262 -1.81053e-06)
(-7.9805e-05 0.003778 -1.72669e-06)
(-0.000175135 0.00415026 -4.54466e-06)
(-0.000148649 0.00442599 -4.68539e-06)
(-3.90819e-05 0.00446901 -3.20837e-06)
(2.5179e-05 0.00392621 -7.59698e-06)
(4.8865e-05 0.00315372 -8.56458e-06)
(1.04719e-05 0.00238437 3.04223e-05)
(7.55593e-06 0.00246519 3.02232e-05)
(-1.95128e-05 0.00221555 -4.929e-07)
(9.00837e-06 0.00229118 -5.76581e-06)
(5.43587e-05 0.00237874 -1.79437e-06)
(7.76833e-05 0.00243724 -2.11718e-06)
(5.247e-05 0.00242549 -1.19538e-05)
(-3.45923e-05 0.00238643 -1.71557e-05)
(-0.000132422 0.00234909 -1.08189e-05)
(-0.000129097 0.00229701 -2.12215e-05)
(1.28562e-05 0.00230516 3.71234e-06)
(0.000136075 0.00236145 1.16726e-05)
(9.72038e-05 0.00238762 -1.02659e-05)
(2.15047e-05 0.00237878 -1.39464e-05)
(-0.000100207 0.00239783 -2.00009e-05)
(-0.000166875 0.00243299 -8.39314e-06)
(-0.00014862 0.00245069 -8.49167e-06)
(-7.41303e-05 0.00246523 -1.21466e-05)
(1.24689e-05 0.00207989 -7.09e-06)
(-2.11294e-06 0.00238731 -1.3901e-05)
(-1.69647e-05 0.00218183 -1.85771e-05)
(-1.29837e-05 0.00211143 -9.17675e-06)
(7.02491e-06 0.0017605 -4.2669e-05)
(-5.32962e-06 0.00190152 -5.62064e-05)
(6.24958e-05 0.00245438 2.87033e-06)
(7.37255e-05 0.00251376 1.08562e-06)
(3.33123e-05 0.00253735 -1.30602e-06)
(-6.28606e-05 0.00249835 3.62171e-07)
(-0.000192488 0.00249006 -3.3299e-06)
(-0.00010268 0.00244246 -2.34424e-05)
(5.86627e-06 0.00252209 -2.24666e-05)
(0.000107675 0.00252084 -1.60811e-06)
(9.15328e-05 0.00249785 -9.48019e-06)
(-2.45227e-05 0.00249214 -5.09903e-06)
(-0.000130933 0.00252377 2.84367e-06)
(-0.000168583 0.00249869 3.24613e-06)
(-0.000177147 0.00244621 3.77697e-06)
(-0.000115893 0.00240532 4.67494e-06)
(-3.63828e-05 0.00104103 1.86166e-06)
(-1.52836e-05 0.00229716 1.41013e-06)
(1.46167e-05 0.00223708 -1.66842e-06)
(1.33066e-05 0.00209895 4.67878e-06)
(-9.06605e-06 0.000523931 6.12299e-07)
(1.81026e-05 0.000577352 -1.23793e-06)
(8.39143e-05 0.00250996 7.66912e-06)
(0.000103419 0.00260062 2.81572e-06)
(1.53798e-05 0.00261687 1.55718e-06)
(-0.000112598 0.00263191 5.39134e-06)
(-0.000200041 0.00257926 -1.51642e-06)
(-8.32615e-05 0.00256632 -1.05254e-05)
(-0.000113601 0.00271133 -1.87076e-05)
(5.65602e-05 0.00252869 2.29934e-06)
(7.26929e-05 0.00255783 -5.13261e-06)
(-2.57751e-05 0.00256556 -6.48816e-06)
(-0.000124964 0.00258161 3.20908e-06)
(-0.000153494 0.0025219 1.85398e-06)
(-0.000188951 0.00245321 1.72422e-06)
(-0.000133863 0.00236284 5.10321e-06)
(-7.74173e-05 0.000197248 1.51754e-06)
(1.09158e-05 0.00220237 4.13853e-06)
(4.79348e-05 0.0022173 6.15098e-06)
(3.67808e-05 0.00211702 1.34541e-06)
(-1.19847e-05 -7.34457e-05 8.1607e-07)
(4.64023e-05 -4.63569e-05 4.75317e-07)
(0.00014015 0.00252625 4.5156e-06)
(0.000139352 0.00263306 -3.0031e-06)
(-1.06656e-05 0.00268253 2.53161e-06)
(-0.000129014 0.00266163 3.70283e-06)
(-0.000144845 0.00257338 -2.74929e-06)
(-0.000126514 0.00265912 1.17979e-07)
(-0.000112129 0.00276334 1.30659e-06)
(3.45297e-06 0.00250961 1.02819e-06)
(3.68818e-05 0.00255186 -2.84903e-06)
(-3.32969e-05 0.00254501 -9.12362e-06)
(-0.000106944 0.00252886 2.46273e-06)
(-0.000133919 0.00245235 -1.80544e-06)
(-0.000179497 0.00241123 -8.02057e-07)
(-0.000158545 0.00196152 6.83061e-06)
(-9.81466e-05 -7.87242e-05 -1.16945e-06)
(-2.86956e-05 0.00157738 2.90471e-06)
(3.31297e-05 0.00220411 6.03598e-06)
(3.99208e-05 0.00225376 5.69431e-06)
(-1.61596e-06 -6.35235e-05 -7.74003e-08)
(7.34617e-05 -5.72161e-05 3.5448e-06)
(0.000187183 0.00247912 1.83399e-06)
(0.000168045 0.0025583 -5.60046e-06)
(-7.08479e-06 0.00260079 1.77478e-06)
(-0.000132389 0.00259396 -5.40693e-07)
(-0.000151129 0.00254711 -6.81615e-06)
(-0.000197314 0.00271797 9.81747e-06)
(-0.000147849 0.00260533 4.04107e-05)
(-7.19827e-05 0.00245467 1.00724e-05)
(1.31254e-05 0.00249455 -2.26427e-07)
(-2.18849e-05 0.00248657 -9.83215e-06)
(-6.36985e-05 0.00243845 -1.51285e-06)
(-7.72233e-05 0.00236355 -3.51193e-06)
(-0.000103792 0.00233759 -1.16837e-06)
(-7.41004e-05 0.00104182 3.10481e-06)
(-3.89813e-05 -0.000132768 -7.30723e-07)
(-1.97345e-05 0.000400704 -1.00474e-06)
(-3.39698e-05 0.00156591 3.69054e-07)
(3.01703e-05 0.00169669 2.40775e-06)
(5.83525e-06 -7.2133e-05 -2.15008e-07)
(8.05116e-05 -7.08356e-05 4.33967e-06)
(0.000169722 0.00235999 -1.88743e-06)
(0.000147421 0.0024036 -8.37686e-06)
(-4.2125e-05 0.0025167 -1.28513e-06)
(-0.000123027 0.00249353 -3.4744e-06)
(-0.00018384 0.00251733 -5.60105e-06)
(-0.000186933 0.00270736 2.9517e-05)
(-0.000171354 0.00245642 4.22883e-05)
(-0.000129765 0.00238599 7.96161e-06)
(-4.50248e-05 0.00242014 4.78546e-06)
(-1.28906e-05 0.00238665 -8.41318e-06)
(-2.37041e-05 0.00235271 -1.09351e-06)
(-3.06101e-05 0.00229731 5.0457e-07)
(-3.63805e-05 0.00229993 2.79038e-06)
(-1.72017e-05 0.000282293 2.13568e-06)
(-4.45816e-06 -0.000126942 -1.30395e-07)
(-8.07713e-06 -0.000177674 -1.27411e-06)
(-1.92205e-05 0.000364155 -2.82166e-06)
(7.39843e-06 0.000536783 9.92174e-07)
(8.11198e-06 -7.28178e-05 1.6036e-06)
(6.69097e-05 -6.65605e-05 4.08361e-06)
(0.000102134 0.00225816 -4.23204e-06)
(5.00162e-05 0.00234228 -8.04971e-06)
(-5.66439e-05 0.00245228 -7.88932e-07)
(-4.16584e-05 0.00241192 4.19749e-06)
(-0.000157147 0.00246262 -7.71112e-06)
(-0.000190923 0.00255397 2.20493e-05)
(-2.81688e-05 0.00236071 4.94892e-05)
(-0.000134365 0.00232542 6.94709e-06)
(-3.5962e-05 0.00236879 1.21209e-06)
(-1.8905e-05 0.00233531 -5.31626e-06)
(8.68061e-06 0.00230046 -1.75485e-06)
(-3.1589e-05 0.00227848 6.87097e-06)
(-1.15647e-05 0.00226972 4.71581e-06)
(-7.00747e-06 4.71778e-06 -6.41817e-07)
(8.28317e-06 -0.000108714 3.34836e-07)
(3.6616e-06 -0.000158551 2.17159e-06)
(-5.25151e-06 -0.000197618 -1.78566e-06)
(-5.08243e-06 -9.77219e-05 5.16135e-07)
(1.19669e-06 -0.000136616 -4.22306e-07)
(2.3324e-05 -0.000126473 1.2822e-06)
(4.0739e-05 0.00220821 -1.74027e-06)
(7.0946e-06 0.00234558 -4.26987e-06)