/*--------------------------------*- C++ -*----------------------------------*\
| =========                 |                                                 |
| \\      /  F ield         | OpenFOAM: The Open Source CFD Toolbox           |
|  \\    /   O peration     | Version:  2.3.0                                 |
|   \\  /    A nd           | Web:      www.OpenFOAM.org                      |
|    \\/     M anipulation  |                                                 |
\*---------------------------------------------------------------------------*/
FoamFile
{
    version     2.0;
    format      ascii;
    class       volScalarField;
    location    "0.35";
    object      nut;
}
// * * * * * * * * * * * * * * * * * * * * * * * * * * * * * * * * * * * * * //

dimensions      [0 2 -1 0 0 0 0];

internalField   nonuniform List<scalar> 
2268
(
6.87486e-05
6.77035e-05
8.52507e-05
9.77905e-05
0.000107914
0.000116129
0.000123326
0.000129795
0.000135646
0.000140902
0.000145536
0.000149494
0.000152699
0.000155043
0.00015636
0.000156277
0.000155276
0.000152853
0.000148683
0.000142699
0.000134493
0.000121283
0.000104882
0.000133361
0.000460195
0.000678644
0.000842092
0.00096944
0.00107458
0.00116254
0.00123657
0.00129853
0.00134943
0.00138983
0.00142003
0.00144018
0.00145031
0.00145014
0.00143686
0.00137472
0.00127554
0.00115267
0.00102719
0.000917584
0.000818524
0.000309494
0.000143545
0.00072915
0.00114706
0.00149026
0.00178505
0.00204137
0.00226416
0.00245632
0.00261951
0.00275483
0.00286322
0.00294547
0.00300221
0.00303367
0.00303862
0.00300964
0.00290654
0.00271843
0.00244474
0.00211128
0.00177114
0.00142762
0.000372223
0.000152028
0.000880406
0.00144792
0.00194469
0.00239187
0.0027946
0.00315425
0.00347089
0.00374433
0.00397468
0.00416258
0.00430898
0.00441486
0.00448051
0.00450371
0.00447365
0.00435204
0.00411277
0.00373591
0.00323111
0.00265009
0.00197495
0.000426603
0.000160752
0.000966726
0.00164604
0.00226687
0.00284503
0.003379
0.00386471
0.00429835
0.00467728
0.00500031
0.00526763
0.00548028
0.00563949
0.00574562
0.00579556
0.00577634
0.00565081
0.00538441
0.00494251
0.00431415
0.00351837
0.00247645
0.000465406
0.000167864
0.00102347
0.00178253
0.00250247
0.00319216
0.00384172
0.00444035
0.00497976
0.00545472
0.00586286
0.00620408
0.00647961
0.00669102
0.00683877
0.00691922
0.00691802
0.00679868
0.00652186
0.00604159
0.0053254
0.00434467
0.00293977
0.000499737
0.000173288
0.00106247
0.00187929
0.00267973
0.00346542
0.00421705
0.00491618
0.00554973
0.00611004
0.00659387
0.00700112
0.00733347
0.00759299
0.0077804
0.0078918
0.00791219
0.00780583
0.00753106
0.00703186
0.00625399
0.00511873
0.00338398
0.000534064
0.000177502
0.00108566
0.00194548
0.00281432
0.0036853
0.00452859
0.0053176
0.00603454
0.00666971
0.00721947
0.00768417
0.00806622
0.00836836
0.00859175
0.0087326
0.00877563
0.00868649
0.00842398
0.00792192
0.00710617
0.00585734
0.00386224
0.00057597
5.52639e-05
8.41662e-05
9.65466e-05
0.000104718
0.000111078
0.000114569
0.00011526
0.000113837
0.000110565
0.000106894
0.000102255
9.67677e-05
9.07825e-05
8.4905e-05
7.95559e-05
7.39518e-05
6.72664e-05
5.78142e-05
6.38166e-05
0.000213915
0.000541139
0.000703766
0.000872562
0.00099885
0.00107198
0.00112106
0.00114832
0.00115083
0.00111908
0.00105708
0.000974459
0.000880141
0.00077811
0.00067779
0.000585657
0.000492677
0.000373929
0.000140106
0.000256341
0.000990086
0.00135075
0.00165035
0.00186065
0.00200519
0.00211717
0.00219968
0.00224402
0.00223091
0.00214869
0.00200554
0.00181569
0.00159707
0.00137347
0.00115775
0.000935727
0.000656573
0.000159094
0.000287701
0.00132771
0.00181912
0.00215967
0.00238884
0.00256666
0.00272545
0.00286829
0.00298335
0.00303615
0.00299683
0.00286102
0.00263466
0.00233927
0.00201099
0.00167444
0.00131898
0.000878207
0.000173213
0.000312941
0.00154931
0.00209289
0.00243002
0.0026508
0.00283595
0.00301881
0.00320794
0.003396
0.00353465
0.00358183
0.00351318
0.00331394
0.00299373
0.00259125
0.0021454
0.00165853
0.00106136
0.000184589
0.000334143
0.00166244
0.00220355
0.00254024
0.00275871
0.00293795
0.00311936
0.0033257
0.00356206
0.00377782
0.00392877
0.00396746
0.00384991
0.00355885
0.00312115
0.00258517
0.00197208
0.00122242
0.000194334
0.000353607
0.00167322
0.00221756
0.00258977
0.00282508
0.00299209
0.00314639
0.00333314
0.0035714
0.00383159
0.00407574
0.00423788
0.00424128
0.00402919
0.00360113
0.00300289
0.00227328
0.00137296
0.000203165
0.000377374
0.00156129
0.00221759
0.00265196
0.00292236
0.00308317
0.00319216
0.00332639
0.0035152
0.00377119
0.00407168
0.00434676
0.00449055
0.00439738
0.00402529
0.00340131
0.00257186
0.00152203
0.000211673
0.000181694
0.00109461
0.00199712
0.00295089
0.0039352
0.00490314
0.00581487
0.0066453
0.007382
0.00802126
0.00856464
0.00901631
0.00938072
0.00966056
0.00985333
0.0099449
0.00990032
0.00967252
0.00919074
0.00835964
0.00704059
0.0050019
0.00178557
0.000186294
0.00104492
0.00197607
0.0030411
0.00417637
0.00529852
0.00634925
0.00729827
0.00813422
0.00885664
0.00947081
0.00998434
0.0104046
0.0107366
0.0109805
0.0111253
0.0111406
0.0109681
0.0105449
0.00977141
0.00851628
0.00662144
0.00399697
0.000195727
0.00093495
0.00187344
0.00306827
0.0043706
0.00564251
0.00681209
0.00785215
0.00875776
0.00953448
0.0101926
0.0107436
0.0111981
0.0115637
0.0118434
0.0120307
0.0121028
0.0120114
0.0116985
0.0110792
0.010051
0.00852348
0.00654762
0.000221535
0.000810125
0.00176622
0.00312781
0.00460251
0.00600128
0.00725815
0.00835843
0.00930625
0.0101136
0.0107952
0.0113663
0.01184
0.0122264
0.0125309
0.0127513
0.0128737
0.0128663
0.0126787
0.0122508
0.0115143
0.0104265
0.00905926
0.000266403
0.000775227
0.00183352
0.00338348
0.00497777
0.00644172
0.00773719
0.00886158
0.00982485
0.0106429
0.0113335
0.0119138
0.012399
0.0128001
0.0131233
0.0133687
0.0135291
0.0135869
0.0135089
0.0132483
0.0127707
0.01207
0.0111927
0.00030789
0.00101789
0.00234274
0.00397018
0.00554504
0.00698925
0.00827151
0.00938563
0.0103411
0.0111551
0.0118463
0.0124328
0.0129301
0.0133484
0.0136912
0.0139578
0.0141446
0.014244
0.0142402
0.0140829
0.0137682
0.0133334
0.0127949
0.000334302
0.00179257
0.0033312
0.00478705
0.00621807
0.00757831
0.00880521
0.00987864
0.0108047
0.0115994
0.0122811
0.012866
0.013367
0.0137918
0.0141421
0.014417
0.0146147
0.0147331
0.0147693
0.0147024
0.0145138
0.0142505
0.0139237
0.000333834
0.00218026
0.003953
0.00540218
0.00680264
0.00812237
0.00930386
0.0103293
0.0112077
0.0119582
0.0126012
0.0131536
0.0136276
0.0140306
0.0143663
0.0146363
0.014842
0.0149845
0.0150564
0.0150503
0.0149598
0.0147988
0.0145827
0.00031832
0.00225421
0.00419579
0.0058339
0.00731323
0.00863691
0.00978771
0.0107676
0.0115948
0.0122934
0.0128866
0.0133934
0.013827
0.0141958
0.0145049
0.0147574
0.0149559
0.0151027
0.0151941
0.0152173
0.0151564
0.0150298
0.0148695
0.000314983
0.00219666
0.00432913
0.00616248
0.00773563
0.00907639
0.010204
0.0111429
0.0119223
0.0125716
0.0131168
0.0135783
0.0139706
0.0143028
0.01458
0.0148053
0.0149805
0.0151062
0.0151791
0.0151877
0.0151195
0.0149881
0.0148319
0.000315262
0.00217039
0.00444956
0.00643324
0.00807929
0.00943084
0.0105349
0.0114351
0.0121708
0.0127757
0.0132777
0.0136982
0.0140517
0.0143471
0.0145885
0.0147773
0.0149129
0.0149937
0.0150155
0.0149704
0.0148528
0.0146776
0.014485
0.000316996
0.00217969
0.00456936
0.00665432
0.00834457
0.00969501
0.0107728
0.011636
0.0123319
0.0128978
0.0133625
0.0137472
0.0140657
0.0143254
0.0145285
0.0146734
0.014757
0.0147751
0.0147236
0.0145989
0.0144032
0.0141561
0.0138996
0.000318683
0.00221776
0.00468564
0.00682703
0.00853443
0.00987229
0.0109213
0.0117495
0.0124097
0.0129416
0.0133745
0.0137288
0.0140166
0.0142432
0.0144078
0.0145058
0.0145308
0.0144772
0.0143417
0.0141251
0.0138375
0.0135042
0.0131704
0.000319524
0.00226865
0.00478823
0.00695209
0.00865605
0.0099729
0.010992
0.0117876
0.0124163
0.0129193
0.0133257
0.0136547
0.0139168
0.0141144
0.0142436
0.0142963
0.0142634
0.0141379
0.0139177
0.0136086
0.0132273
0.0128054
0.0123914
0.000319157
0.0023181
0.00486752
0.00703153
0.00871895
0.0100101
0.0109997
0.011766
0.0123676
0.0128464
0.0132313
0.0135406
0.0137827
0.0139574
0.0140575
0.0140716
0.0139878
0.0137979
0.0135013
0.0131081
0.0126409
0.0121369
0.0116481
0.000317477
0.00235598
0.00491783
0.00706873
0.00873271
0.00999659
0.0109587
0.0116994
0.0122781
0.0127373
0.0131058
0.0134009
0.0136294
0.0137888
0.0138689
0.013855
0.0137324
0.0134917
0.0131335
0.0126711
0.0121327
0.0115608
0.0110103
0.00031453
0.00237688
0.00493753
0.00706786
0.00870561
0.00994303
0.0108806
0.0115994
0.0121594
0.0126033
0.0129597
0.0132457
0.0134671
0.0136195
0.0136902
0.0136611
0.0135149
0.0132403
0.0128382
0.012325
0.0117338
0.0111125
0.0105194
0.000310439
0.00237958
0.00492805
0.00703319
0.00864409
0.00985712
0.0107736
0.0114745
0.0120196
0.0124518
0.0127999
0.0130811
0.013301
0.0134542
0.0135257
0.0134946
0.0133404
0.0130493
0.0126215
0.0120758
0.0114506
0.0107999
0.0101853
0.000305374
0.0023657
0.00489241
0.00696868
0.00855295
0.00974426
0.0106434
0.0113302
0.011864
0.0122875
0.0126302
0.0129098
0.0131325
0.0132926
0.0133737
0.0133525
0.0132045
0.0129129
0.0124763
0.0119153
0.0112736
0.0106121
0.0099957
0.000299544
0.00233815
0.00483398
0.00687775
0.00843591
0.00960831
0.0104938
0.0111702
0.0116959
0.0121134
0.0124528
0.012733
0.0129613
0.0131325
0.01323
0.0132279
0.0130984
0.0128205
0.0123903
0.0118296
0.0111874
0.0105315
0.0099297
0.000293198
0.0022998
0.00475567
0.00676342
0.00829607
0.00945235
0.0103277
0.0109973
0.0115178
0.0119316
0.0122695
0.0125515
0.0127868
0.0129717
0.0130897
0.0131138
0.0130127
0.0127609
0.0123512
0.0118054
0.0111773
0.010541
0.00996612
0.000286603
0.00225246
0.00465979
0.00662848
0.00813648
0.00927932
0.0101478
0.0108137
0.0113318
0.011744
0.0120816
0.0123663
0.0126091
0.0128085
0.0129495
0.0130047
0.01294
0.0127253
0.0123491
0.0118322
0.0112314
0.0106259
0.0100866
0.000280046
0.00219806
0.00454902
0.00647615
0.00796051
0.00909231
0.00995679
0.0106217
0.0111398
0.0115522
0.0118907
0.0121785
0.0124287
0.0126426
0.0128075
0.0128968
0.0128745
0.0127066
0.0123765
0.0119015
0.0113396
0.0107738
0.0102757
0.000273817
0.00213868
0.00442666
0.00631034
0.007772
0.00889488
0.00975767
0.0104238
0.0109436
0.0113577
0.011698
0.011989
0.0122462
0.0124739
0.0126624
0.0127872
0.0128122
0.0126994
0.0124266
0.0120057
0.0114929
0.0109731
0.0105198
0.000268192
0.00207674
0.00429694
0.00613599
0.00757587
0.00869133
0.00955383
0.0102224
0.0107451
0.0111616
0.0115042
0.0117985
0.0120621
0.0123023
0.0125134
0.012674
0.012749
0.0126981
0.0124926
0.0121369
0.0116818
0.0112128
0.0108065
0.000263432
0.00201512
0.00416493
0.00595913
0.00737794
0.00848663
0.00934924
0.0100204
0.0105462
0.0109652
0.01131
0.0116071
0.0118761
0.0121274
0.0123593
0.0125546
0.0126809
0.0126967
0.012567
0.0122862
0.0118965
0.0114819
0.0111237
0.000259778
0.00195661
0.00403628
0.00578664
0.00718507
0.00828664
0.00914847
0.00982121
0.0103489
0.0107695
0.0111157
0.0114147
0.0116878
0.0119483
0.0121986
0.0124265
0.0126036
0.0126886
0.012641
0.0124437
0.0121268
0.0117693
0.0114609
0.000257454
0.00190373
0.00391676
0.00562604
0.00700461
0.00809787
0.00895671
0.00962844
0.0101556
0.0105758
0.0109216
0.0112209
0.0114964
0.0117638
0.0120296
0.0122869
0.0125123
0.0126673
0.0127074
0.0126042
0.0123719
0.0120784
0.011817
0.000256675
0.00185851
0.00381188
0.00548495
0.00684452
0.00792756
0.00877978
0.00944634
0.00996909
0.0103855
0.0107282
0.0110256
0.0113011
0.0115728
0.0118506
0.0121329
0.0124029
0.0126263
0.012758
0.0127589
0.0126241
0.0124035
0.0121868
0.000257649
0.00182245
0.0037267
0.00537065
0.006713
0.00778323
0.00862386
0.00927955
0.00979252
0.0102006
0.0105366
0.010829
0.0111017
0.0113743
0.0116598
0.0119616
0.0122697
0.0125566
0.0127792
0.0128911
0.0128675
0.0127334
0.0125656
0.000260575
0.00179663
0.00366564
0.00529004
0.00661785
0.00767217
0.00849503
0.00913279
0.00962935
0.0100234
0.0103482
0.0106318
0.0108985
0.0111683
0.0114565
0.0117711
0.0121086
0.0124498
0.0127573
0.0129818
0.0130816
0.0130526
0.0129473
0.000265624
0.00178187
0.0036327
0.00524963
0.00656616
0.00760092
0.00839877
0.0090104
0.00948292
0.00985662
0.0101649
0.0104356
0.0106923
0.0109552
0.0112409
0.0115609
0.0119176
0.0123004
0.0126807
0.0130121
0.0132422
0.0133387
0.0133196
0.00027292
0.00177951
0.00363174
0.00525527
0.00656392
0.00757467
0.00833926
0.00891575
0.00935609
0.00970263
0.00998898
0.0102422
0.0104848
0.0107364
0.0110143
0.0113318
0.0116967
0.0121061
0.0125417
0.0129656
0.0133232
0.0135609
0.0136579
0.000282503
0.00179147
0.00366763
0.00531261
0.00661595
0.00759678
0.00831879
0.00885073
0.00925074
0.00956353
0.0098226
0.0100538
0.0102781
0.0105141
0.0107785
0.0110861
0.0114478
0.0118678
0.0123377
0.0128313
0.0133008
0.0136827
0.013923
0.0002943
0.00182102
0.00374617
0.0054275
0.00672579
0.00766836
0.00833726
0.00881522
0.00916747
0.00944072
0.00966784
0.0098729
0.010075
0.010291
0.0105367
0.0108269
0.0111749
0.0115895
0.0120711
0.0126061
0.0131591
0.0136701
0.0140654
0.000308142
0.00187273
0.00387536
0.00560678
0.00689569
0.00778788
0.00839179
0.00880693
0.00910535
0.00933477
0.00952647
0.00970215
0.00987859
0.0100706
0.0102924
0.0105585
0.0108829
0.0112774
0.011749
0.0122947
0.0128941
0.0135006
0.0140385
0.000323857
0.00195069
0.00406708
0.0058591
0.00712634
0.00795072
0.0084766
0.00882139
0.0090621
0.00924544
0.00939989
0.00954412
0.00969222
0.00985671
0.0100501
0.0102859
0.0105778
0.0109392
0.0113809
0.0119081
0.0125136
0.0131687
0.0138113
0.000341264
0.00206586
0.00434119
0.00619598
0.00741595
0.00814842
0.00858287
0.00885226
0.0090343
0.00917188
0.00928919
0.00940134
0.00951953
0.00965387
0.00981498
0.0100147
0.010266
0.0105827
0.0109774
0.01146
0.0120333
0.0126852
0.0133754
0.000360341
0.00223995
0.00473252
0.00663206
0.00775814
0.00836779
0.00869912
0.008892
0.00901804
0.0091129
0.00919527
0.00927631
0.00936427
0.00946689
0.00959265
0.00975153
0.00995516
0.0102165
0.0105486
0.0109638
0.0114705
0.0120691
0.0127408
0.000381421
0.00252004
0.00530552
0.00718249
0.00813745
0.00859
0.00881208
0.00893296
0.00900958
0.00906746
0.00911903
0.00917153
0.00923046
0.00930118
0.00938996
0.00950454
0.00965444
0.00985086
0.010106
0.0104323
0.0108406
0.0113386
0.0119238
0.00040553
0.00303532
0.00618523
0.00785013
0.00852206
0.0087908
0.00890857
0.00896868
0.00900603
0.00903471
0.00906119
0.00908925
0.0091219
0.00916231
0.00921439
0.00928322
0.00937539
0.00949911
0.00966391
0.00987999
0.0101575
0.0105058
0.010932
0.000435101
0.00433675
0.00760416
0.00858392
0.00885647
0.00894438
0.00897869
0.00899535
0.00900568
0.00901387
0.00902177
0.00903051
0.00904108
0.00905458
0.00907248
0.00909677
0.00913015
0.00917621
0.00923937
0.00932462
0.00943688
0.0095807
0.00976127
0.000657881
0.000618954
0.000573961
0.000526149
0.00261212
0.00213274
0.00189778
0.00178703
0.00538199
0.00466435
0.00414589
0.0037741
0.00815667
0.00749099
0.00690086
0.00638498
0.0105359
0.0100096
0.00948198
0.00895907
0.0123482
0.0119654
0.0115446
0.0110903
0.0136301
0.0133528
0.0130154
0.0126329
0.0143942
0.0142089
0.0139652
0.0136463
0.0147341
0.0145799
0.0143827
0.0141404
0.0147195
0.0145922
0.0144324
0.0142318
0.0143594
0.0142294
0.0140775
0.013895
0.0137384
0.0135849
0.0134157
0.0132232
0.0129613
0.012772
0.0125698
0.0123478
0.0121294
0.0118994
0.011657
0.0113954
0.0113343
0.011065
0.0107831
0.0104819
0.0106526
0.0103516
0.0100393
0.00970936
0.010131
0.00981162
0.00948463
0.00914457
0.00978136
0.00945883
0.0091345
0.00880319
0.00959014
0.00927807
0.00897059
0.00866132
0.00953311
0.00924172
0.00896036
0.00867988
0.00958562
0.00932157
0.00907117
0.00882169
0.00972637
0.0094934
0.00927553
0.00905676
0.00993767
0.00973722
0.00955116
0.00936127
0.0102046
0.0100364
0.00987982
0.00971606
0.0105141
0.0103766
0.0102462
0.0101053
0.0108548
0.0107448
0.0106369
0.010515
0.0112172
0.0111295
0.0110421
0.0109359
0.0115944
0.0115253
0.0114567
0.0113686
0.0119794
0.0119237
0.0118699
0.0117992
0.0123696
0.0123206
0.0122751
0.0122178
0.0127651
0.0127181
0.0126743
0.0126241
0.0131652
0.013121
0.0130761
0.0130282
0.0135585
0.0135269
0.0134864
0.0134426
0.013914
0.0139141
0.013894
0.013866
0.0141801
0.0142353
0.014259
0.0142675
0.0142941
0.0144241
0.0145153
0.0145843
0.0141994
0.0144117
0.0145855
0.0147343
0.0138601
0.0141443
0.0144001
0.0146357
0.0132639
0.0135905
0.0139068
0.014217
0.0124136
0.0127361
0.0130684
0.013415
0.0113075
0.0115663
0.0118479
0.0121604
0.00992572
0.0100432
0.0101775
0.0103364
0.00068752
0.00147989
0.0020739
0.00267877
0.00312809
0.00335272
0.00340017
0.00344596
0.00352967
0.00370797
0.00400026
0.00436689
0.0046936
0.00480996
0.00458569
0.00398898
0.00304459
0.00176495
0.000226115
0.00174072
0.00185281
0.00213199
0.00258365
0.00300014
0.00337683
0.00363765
0.00372959
0.00370198
0.00369738
0.0038183
0.00411961
0.00455678
0.00493172
0.00500132
0.00459431
0.00362364
0.00208374
0.000243295
0.00333133
0.0030997
0.00302284
0.00307203
0.00322015
0.00345474
0.00371859
0.00392376
0.00399811
0.00394404
0.0038896
0.00398525
0.0043125
0.00476353
0.00508757
0.00498045
0.00415561
0.00244202
0.000263407
0.005616
0.00501874
0.00458286
0.00426983
0.00407273
0.00399321
0.00401407
0.00410935
0.00421408
0.0042327
0.00415589
0.00409926
0.00421672
0.00454737
0.00495764
0.00512359
0.00457228
0.00282526
0.000287405
0.00808882
0.00726344
0.00655802
0.00594433
0.00542042
0.00500567
0.00472156
0.00456814
0.00450868
0.00449358
0.00444342
0.00435239
0.00433104
0.00448377
0.00481472
0.00510927
0.00484088
0.00320182
0.000315943
0.01028
0.00939066
0.00855549
0.00776391
0.00701578
0.0063335
0.00575616
0.00531948
0.00502937
0.00485062
0.00472973
0.00461782
0.00454328
0.00459725
0.00481363
0.00509346
0.00500344
0.00354138
0.000348911
0.011934
0.0110986
0.0102567
0.00941268
0.00856675
0.00773419
0.0069519
0.00627208
0.00573854
0.00535755
0.00509378
0.00490205
0.00477134
0.00477254
0.00493167
0.00516238
0.00513736
0.00383285
0.000385151
0.0130477
0.0123133
0.0115259
0.0107093
0.00986425
0.00899194
0.00811014
0.00727286
0.0065437
0.00596535
0.00553788
0.00523052
0.00502586
0.00496415
0.00508372
0.00528883
0.00527905
0.00407747
0.00042237
0.0136689
0.0130695
0.0123855
0.0116265
0.0108405
0.0100034
0.00908985
0.0081756
0.00732302
0.00659245
0.0060154
0.00558759
0.00530182
0.00517955
0.00524468
0.0054231
0.00541576
0.00427253
0.000457536
0.013828
0.0133266
0.0127659
0.0121338
0.0114527
0.0107147
0.00983916
0.00889168
0.00797705
0.00715303
0.00646628
0.0059366
0.00557804
0.00541422
0.00542509
0.00554701
0.00552321
0.00440928
0.0004878
0.0135323
0.0131052
0.0126451
0.0121437
0.0116077
0.0110079
0.0102563
0.00935767
0.00844146
0.00758341
0.00683747
0.00624125
0.00583407
0.00565592
0.00562596
0.00566079
0.00558891
0.00448177
0.000511411
0.0128569
0.0124675
0.0120936
0.0117212
0.0113374
0.0108986
0.0103273
0.00954883
0.00868924
0.00785245
0.00709749
0.00647614
0.00605214
0.00589327
0.00584149
0.00576486
0.00561236
0.00449214
0.000527987
0.0119406
0.0115516
0.0112375
0.0109904
0.0107703
0.0105094
0.0101215
0.00949034
0.00873345
0.00796206
0.00723986
0.00663209
0.00622595
0.00611886
0.00606046
0.00585232
0.00559515
0.00444789
0.000538005
0.0109284
0.0105187
0.0102438
0.0101045
0.0100372
0.00994857
0.0097319
0.0092559
0.0086203
0.0079388
0.00727854
0.00671679
0.00636472
0.00634206
0.00627419
0.00591239
0.00554042
0.00435962
0.000542394
0.00995745
0.00952643
0.00928165
0.00922447
0.00928009
0.00932864
0.00925363
0.0089226
0.00840597
0.00782075
0.00723942
0.00674912
0.0064859
0.00657312
0.00646854
0.00593998
0.00545735
0.00424079
0.000542389
0.00915158
0.00871595
0.00850066
0.00849986
0.00862936
0.0087554
0.00877423
0.00855302
0.00813615
0.00764571
0.00715239
0.00675195
0.00660455
0.00680705
0.00662667
0.00593361
0.00535376
0.00410291
0.000539165
0.00858947
0.00817031
0.00798639
0.00801996
0.00817021
0.00830362
0.00835194
0.00819323
0.00785277
0.0074499
0.00704702
0.00674754
0.00672894
0.00703028
0.00672445
0.00587387
0.00522651
0.00395095
0.000533449
0.00828123
0.00788754
0.00773266
0.00779
0.00792144
0.00799958
0.00801385
0.00787509
0.00759299
0.00726704
0.00695189
0.00675867
0.00688332
0.00723237
0.00671909
0.00573545
0.00507112
0.00378675
0.00052557
0.00818697
0.00781035
0.00767476
0.0077527
0.00784995
0.00783233
0.00777206
0.00762933
0.0073874
0.00712533
0.00689102
0.00680184
0.00710182
0.00739608
0.00656568
0.00553504
0.00489947
0.00361648
0.000515917
0.00825396
0.00787566
0.00774435
0.00784118
0.00791128
0.00778435
0.00763319
0.0074752
0.00725794
0.00705092
0.00688522
0.00686681
0.00725796
0.00739027
0.00633306
0.00532782
0.0047342
0.00345128
0.000505209
0.00843903
0.00803981
0.00789459
0.00800823
0.00807559
0.00784315
0.00759672
0.00739399
0.00721264
0.00707041
0.00697657
0.00697896
0.00726522
0.00721838
0.00609619
0.00514418
0.00459066
0.00330095
0.000494289
0.00871213
0.00827906
0.00809705
0.00822043
0.00831668
0.00801162
0.00765909
0.00739018
0.00721773
0.00715888
0.00715494
0.00718758
0.00735126
0.00705441
0.00588396
0.00499802
0.00447587
0.00317082
0.000483839
0.00905139
0.00858136
0.00833743
0.00844991
0.00858989
0.00827136
0.00781785
0.00746382
0.00724064
0.00718132
0.00728516
0.00747263
0.00762256
0.00706778
0.00577469
0.0049095
0.00439538
0.00306385
0.000474356
0.00943938
0.00894021
0.00861919
0.00867901
0.00886694
0.00860726
0.00805977
0.0076087
0.00730367
0.00718384
0.00728677
0.0076335
0.00789547
0.00721195
0.00578567
0.00488434
0.00435078
0.00298114
0.000466217
0.00986144
0.0093484
0.00895529
0.0089204
0.00910078
0.00897866
0.00837108
0.00781536
0.00741791
0.00722148
0.00727287
0.00763915
0.00800493
0.00736079
0.00586201
0.00490476
0.004334
0.00291888
0.000459596
0.0103052
0.00979413
0.00934775
0.00919566
0.00930324
0.00925799
0.0087014
0.00805928
0.00757366
0.00729964
0.00728786
0.00760913
0.00802643
0.0073963
0.00592765
0.00494317
0.0043288
0.00286616
0.000454271
0.010762
0.0102642
0.0097765
0.00951057
0.00946502
0.00943366
0.00902616
0.00832072
0.00775536
0.00741032
0.00733052
0.0075502
0.00800063
0.00734589
0.00592779
0.00497333
0.00431905
0.00280737
0.000449536
0.0112379
0.010772
0.0102511
0.00986093
0.00968108
0.00955161
0.00924202
0.00858213
0.00794511
0.007542
0.00740413
0.00754416
0.00796469
0.00715484
0.00581874
0.00498476
0.00429421
0.00270748
0.000444421
0.0117167
0.0113054
0.010782
0.0102745
0.00992275
0.00964531
0.0092683
0.0087498
0.00813072
0.00768805
0.00749819
0.00757609
0.00794555
0.00683755
0.00569578
0.00499285
0.00423748
0.00254342
0.000438758
0.0121831
0.0118454
0.011358
0.0107683
0.0102024
0.0097232
0.00929248
0.00887058
0.00834652
0.00785162
0.00760414
0.00755783
0.00763769
0.00649229
0.0056861
0.00501297
0.00414833
0.00234402
0.000431982
0.0126307
0.0123761
0.0119642
0.0113629
0.0106306
0.00992001
0.00935026
0.00891656
0.0085155
0.00803036
0.00774008
0.00750336
0.00713236
0.00633046
0.00579273
0.00504706
0.00403658
0.00214054
0.000423617
0.0130661
0.0128901
0.0125764
0.0120446
0.0112815
0.0104003
0.009585
0.00892995
0.00841635
0.0079984
0.00764757
0.00732544
0.00690526
0.00650892
0.00593968
0.00508376
0.00391508
0.00195799
0.000413345
0.0135049
0.0133953
0.0131728
0.0127447
0.0120636
0.0111762
0.0102265
0.00937262
0.00869855
0.00818155
0.00778527
0.00747257
0.00719508
0.00679153
0.00605241
0.00510561
0.0037945
0.00180846
0.000401077
0.0139565
0.0139092
0.0137593
0.0134204
0.0128459
0.0120556
0.0111465
0.0102602
0.00947661
0.00884806
0.00835949
0.00797281
0.00756418
0.00694942
0.00609753
0.00509948
0.00367995
0.00169279
0.000387042
0.0144037
0.0144347
0.0143522
0.014076
0.0135709
0.0128544
0.0120008
0.0111148
0.0102716
0.00953743
0.00890755
0.0083353
0.00771099
0.0069495
0.00608001
0.00506216
0.00357053
0.00160524
0.000371806
0.0147922
0.0149359
0.0149411
0.0147247
0.0142537
0.0135463
0.0126725
0.0117114
0.0107847
0.00993782
0.00916157
0.0084194
0.00765983
0.00686319
0.00602438
0.00499606
0.00346188
0.00153792
0.000356188
0.0150399
0.0153366
0.0154686
0.0153425
0.0149117
0.0141836
0.0132227
0.0121447
0.0110875
0.0101035
0.00919686
0.00834898
0.00754182
0.00676435
0.00595321
0.00490349
0.00334954
0.00148365
0.000341066
0.0150556
0.015539
0.0158401
0.0158525
0.0155056
0.0147873
0.0137495
0.012567
0.0113715
0.0102427
0.00921541
0.00829337
0.00746602
0.00669873
0.00587859
0.00478743
0.00323197
0.00143753
0.000327161
0.0147491
0.0154412
0.0159537
0.0161553
0.0159419
0.0152754
0.0142487
0.0130269
0.0117413
0.0104961
0.00935964
0.00836062
0.00748928
0.00668469
0.00580633
0.00465562
0.00311273
0.00139769
0.000314928
0.0140225
0.0149175
0.0156966
0.0161633
0.0161406
0.0155733
0.0146281
0.0134497
0.0121573
0.0108601
0.00964647
0.00856588
0.00761398
0.00671913
0.00574032
0.00451931
0.00299721
0.0013631
0.000304509
0.0127441
0.0137449
0.0148231
0.01572
0.016071
0.0156574
0.0148235
0.013737
0.0125042
0.0112233
0.00998328
0.00884133
0.00779931
0.006791
0.00569673
0.00440661
0.00290519
0.00133917
0.00029594
0.0106671
0.0113814
0.0125342
0.0140021
0.0157788
0.015628
0.0149048
0.0138989
0.0127228
0.0114685
0.0102206
0.00903587
0.00791925
0.00681485
0.00562921
0.00429275
0.00281737
0.00131453
0.000288803
)
;

boundaryField
{
    leftWall
    {
        type            nutkWallFunction;
        Cmu             0.09;
        kappa           0.41;
        E               9.8;
        value           nonuniform List<scalar> 
50
(
1.27122e-05
1.55937e-05
1.67131e-05
1.76809e-05
1.86235e-05
1.93738e-05
1.99407e-05
2.03787e-05
2.08079e-05
2.1272e-05
2.21009e-05
2.42881e-05
2.84841e-05
3.36504e-05
3.74958e-05
3.86978e-05
3.67908e-05
3.60474e-05
3.60244e-05
3.62726e-05
3.65517e-05
3.67312e-05
3.67497e-05
3.65865e-05
3.62432e-05
3.57336e-05
3.50772e-05
3.42983e-05
3.34267e-05
3.24989e-05
3.15546e-05
3.06357e-05
2.9783e-05
2.90344e-05
2.84251e-05
2.79874e-05
2.7752e-05
2.77492e-05
2.80088e-05
2.85593e-05
2.94252e-05
3.06223e-05
3.21525e-05
3.40023e-05
3.61487e-05
3.85594e-05
4.12164e-05
4.41466e-05
4.74731e-05
5.15155e-05
)
;
    }
    rightWall
    {
        type            nutkWallFunction;
        Cmu             0.09;
        kappa           0.41;
        E               9.8;
        value           nonuniform List<scalar> 
50
(
6.10873e-06
1.11802e-05
1.39656e-05
1.59927e-05
1.75949e-05
1.89401e-05
2.01315e-05
2.12478e-05
2.3062e-05
2.5145e-05
2.74612e-05
3.01051e-05
3.3145e-05
3.6572e-05
4.02783e-05
4.40613e-05
4.76595e-05
5.08207e-05
5.33735e-05
5.52557e-05
5.64884e-05
5.71429e-05
5.73218e-05
5.71282e-05
5.66402e-05
5.59168e-05
5.50265e-05
5.40553e-05
5.30858e-05
5.21769e-05
5.13639e-05
5.06593e-05
5.00426e-05
4.9452e-05
4.87916e-05
4.80037e-05
4.71036e-05
4.60545e-05
4.48362e-05
4.34488e-05
4.19158e-05
4.02852e-05
3.86249e-05
3.70099e-05
3.55076e-05
3.41649e-05
3.30052e-05
3.20282e-05
3.12311e-05
3.0566e-05
)
;
    }
    lowerWall
    {
        type            nutkWallFunction;
        Cmu             0.09;
        kappa           0.41;
        E               9.8;
        value           nonuniform List<scalar> 
62
(
6.16402e-06
8.2037e-06
1.02364e-05
1.16581e-05
1.27862e-05
1.37025e-05
1.45063e-05
1.52303e-05
1.58866e-05
1.64771e-05
1.69985e-05
1.74447e-05
1.78071e-05
1.80738e-05
1.82267e-05
1.82253e-05
1.81158e-05
1.78529e-05
1.74003e-05
1.67508e-05
1.58624e-05
1.43944e-05
1.25562e-05
1.25562e-05
3.42081e-05
4.05183e-05
4.59144e-05
4.96884e-05
5.30223e-05
5.63336e-05
6.03191e-05
6.79557e-05
6.42154e-05
5.97885e-05
5.50356e-05
0
2.19403e-05
2.79723e-05
3.24173e-05
3.60328e-05
3.91441e-05
4.20683e-05
4.51708e-05
0
2.3576e-06
4.29901e-06
5.53539e-06
6.46542e-06
6.94802e-06
7.00714e-06
6.75562e-06
6.22995e-06
5.6252e-06
4.90809e-06
4.08173e-06
3.19345e-06
2.3188e-06
1.50985e-06
6.37326e-07
0
0
0
)
;
    }
    atmosphere
    {
        type            calculated;
        value           nonuniform List<scalar> 
46
(
0.009
0.009
0.009
0.009
0.009
0.009
0.009
0.009
0.009
0.009
0.009
0.009
0.009
0.009
0.009
0.009
0.009
0.009
0.009
0.009
0.009
0.009
0.009
0.009
0.009
0.009
0.009
0.009
0.009
0.009
0.009
0.0157788
0.015628
0.0149048
0.0138989
0.0127228
0.0114685
0.0102206
0.00903587
0.00791925
0.00681485
0.00562921
0.00429275
0.00281737
0.00131453
0.000288803
)
;
    }
    defaultFaces
    {
        type            empty;
    }
}


// ************************************************************************* //
