/*--------------------------------*- C++ -*----------------------------------*\
| =========                 |                                                 |
| \\      /  F ield         | OpenFOAM: The Open Source CFD Toolbox           |
|  \\    /   O peration     | Version:  2.3.0                                 |
|   \\  /    A nd           | Web:      www.OpenFOAM.org                      |
|    \\/     M anipulation  |                                                 |
\*---------------------------------------------------------------------------*/
FoamFile
{
    version     2.0;
    format      ascii;
    class       volScalarField;
    location    "0.35";
    object      p;
}
// * * * * * * * * * * * * * * * * * * * * * * * * * * * * * * * * * * * * * //

dimensions      [1 -1 -2 0 0 0 0];

internalField   nonuniform List<scalar> 
2268
(
980.515
982.86
993.438
1007.96
1021.87
1033.76
1043.29
1050.67
1056.31
1060.68
1064.32
1067.94
1072.53
1079.49
1090.85
1109.89
1139.62
1182.98
1239.46
1301.06
1353.55
1366.14
1411.87
920.866
921.673
930.472
943.057
955.467
966.344
975.234
982.229
987.664
991.984
995.756
999.736
1004.96
1012.89
1025.52
1045.55
1077.3
1123.42
1184.81
1252.86
1309.51
1313.24
1354.34
860.289
861.472
868.506
878.609
888.874
898.096
905.789
911.942
916.818
920.842
924.596
928.877
934.773
943.786
957.951
979.896
1013.35
1061.2
1124.36
1194.62
1255.13
1265.12
1306.98
799.328
801.463
807.415
815.489
823.737
831.221
837.524
842.611
846.705
850.216
853.732
858.071
864.342
874.044
889.174
912.182
946.173
993.827
1055.71
1124.66
1187.06
1212.48
1271
738.155
741.368
746.671
753.165
759.705
765.608
770.569
774.568
777.811
780.696
783.811
787.971
794.27
804.163
819.541
842.637
876.043
921.95
980.634
1046.36
1108.25
1151.12
1228.3
676.685
680.906
685.72
690.885
695.941
700.428
704.146
707.104
709.502
711.722
714.342
718.158
724.225
733.91
748.967
771.398
803.352
846.506
900.804
961.67
1019.65
1077.47
1164.75
614.956
619.994
624.322
628.249
631.955
635.159
637.734
639.717
641.3
642.851
644.928
648.295
653.941
663.122
677.433
698.651
728.511
768.182
817.095
871.016
920.018
983.955
1055.43
553.05
558.714
562.444
565.118
567.557
569.608
571.162
572.262
573.094
574.006
575.527
578.38
583.468
591.908
605.125
624.675
651.907
687.449
729.954
774.326
808.259
851.578
866.484
28.8103
28.7841
28.7766
28.778
28.7962
28.8222
28.845
28.8545
28.8467
28.8199
28.7762
28.72
28.6574
28.5948
28.537
28.4883
28.4513
28.4279
28.4181
28.7553
28.7275
28.7178
28.7154
28.7316
28.7563
28.7785
28.7879
28.7808
28.7551
28.7129
28.6582
28.5969
28.535
28.4776
28.4289
28.3917
28.3678
28.3576
28.7012
28.6633
28.6544
28.6498
28.6656
28.69
28.7125
28.7219
28.7153
28.6908
28.6498
28.5964
28.536
28.4745
28.4168
28.3673
28.3292
28.3046
28.294
28.6472
28.5894
28.5855
28.5809
28.5994
28.6258
28.6503
28.6603
28.6543
28.6301
28.5892
28.5358
28.4751
28.4126
28.3537
28.3027
28.2632
28.2378
28.2271
28.5944
28.5049
28.5123
28.5088
28.533
28.564
28.5925
28.6038
28.5984
28.5739
28.532
28.477
28.4142
28.3495
28.2882
28.2349
28.1935
28.1673
28.1568
28.5436
28.4093
28.4368
28.4333
28.4656
28.5043
28.5387
28.5515
28.5469
28.5221
28.4781
28.42
28.3536
28.2851
28.2202
28.1638
28.1202
28.0931
28.0829
28.5245
28.3061
28.3658
28.3567
28.3973
28.4444
28.487
28.5017
28.4989
28.4738
28.4274
28.3652
28.2936
28.2196
28.1498
28.0893
28.0429
28.0148
28.0049
28.3729
28.1938
28.3232
28.2938
28.3359
28.3802
28.4328
28.4507
28.4516
28.4273
28.3786
28.3118
28.2339
28.1532
28.077
28.0115
27.9617
27.9322
27.9226
456.08
462.259
464.77
465.458
466.013
466.446
466.593
466.474
466.255
466.248
466.931
468.94
473.004
479.987
491.038
507.415
529.966
558.437
590.07
617.129
621.743
567.811
307.769
324.078
329.672
329.078
326.483
324.316
322.497
320.78
319.123
317.622
316.503
316.153
317.076
319.656
324.25
331.751
343.406
359.96
380.855
403.161
418.991
411.349
352.765
249.116
192.963
194.796
187.718
181.655
177.339
174.052
171.259
168.756
166.561
164.803
163.813
164.072
165.434
167.297
170.439
176.723
187.3
202.317
220.02
236.391
242.195
224.779
197.514
74.0683
70.0417
56.2398
51.7188
49.399
47.7129
46.1483
44.626
43.2509
42.077
41.322
41.4386
41.9457
41.5323
40.6672
41.202
43.6829
48.147
56.7289
70.4213
84.4945
84.1679
69.2092
12.7798
6.10899
1.71402
1.22588
1.14163
1.23361
1.23264
1.11807
0.941255
0.717652
0.526465
0.528324
0.572436
0.235964
-0.274603
-0.42789
-0.424564
-0.743911
-2.68081
-5.06195
-7.22482
-13.674
-25.6719
-2.4696
-1.86304
-1.75786
-1.87532
-1.92497
-1.94235
-1.96421
-1.99007
-2.01512
-2.03863
-2.05712
-2.07341
-2.10633
-2.17153
-2.26772
-2.40918
-2.61346
-2.88595
-3.24351
-4.18792
-7.32678
-10.8804
-13.7889
-2.15781
-2.12117
-2.05119
-2.0246
-2.00393
-1.98911
-1.98759
-1.99821
-2.01811
-2.04591
-2.08055
-2.12204
-2.17262
-2.23365
-2.30302
-2.37935
-2.4601
-2.53274
-2.58368
-2.76286
-3.34096
-4.0634
-4.39392
-2.33238
-2.27833
-2.22854
-2.20159
-2.19232
-2.19101
-2.19767
-2.21278
-2.23558
-2.26544
-2.30219
-2.34638
-2.3994
-2.46257
-2.53626
-2.6205
-2.71443
-2.81379
-2.90769
-2.99995
-3.12859
-3.31167
-3.43
-2.45617
-2.4189
-2.39345
-2.37756
-2.37361
-2.37746
-2.3883
-2.40641
-2.43164
-2.46379
-2.50294
-2.54962
-2.60487
-2.66973
-2.74487
-2.83077
-2.92765
-3.03497
-3.15061
-3.28002
-3.44796
-3.6514
-3.84516
-2.60939
-2.58199
-2.56432
-2.55469
-2.5538
-2.56013
-2.57321
-2.59317
-2.62012
-2.65413
-2.69536
-2.74415
-2.80109
-2.86681
-2.9418
-3.02656
-3.12166
-3.22785
-3.34639
-3.48243
-3.64492
-3.82605
-4.00332
-2.76798
-2.75109
-2.73864
-2.73268
-2.73406
-2.74223
-2.75698
-2.77845
-2.80686
-2.84242
-2.88527
-2.93559
-2.99363
-3.05967
-3.13408
-3.21741
-3.31042
-3.41423
-3.53064
-3.66275
-3.81355
-3.97788
-4.14527
-2.9291
-2.92016
-2.9122
-2.90943
-2.91293
-2.92278
-2.93898
-2.96178
-2.99147
-3.02827
-3.07231
-3.12361
-3.1822
-3.24818
-3.32187
-3.40388
-3.49507
-3.59664
-3.71006
-3.83708
-3.97879
-4.13239
-4.29262
-3.09086
-3.08757
-3.08314
-3.08303
-3.08839
-3.09969
-3.11717
-3.14114
-3.17194
-3.20978
-3.2547
-3.30661
-3.36538
-3.43103
-3.5039
-3.58464
-3.67422
-3.77379
-3.88457
-4.00765
-4.14351
-4.2904
-4.44515
-3.25114
-3.25152
-3.24991
-3.25206
-3.25909
-3.27171
-3.29033
-3.31537
-3.34717
-3.3859
-3.43153
-3.48384
-3.54261
-3.60784
-3.67993
-3.75963
-3.84798
-3.9461
-4.05502
-4.17551
-4.30785
-4.45092
-4.60268
-3.40855
-3.41107
-3.41171
-3.41578
-3.42432
-3.43816
-3.45785
-3.48388
-3.51661
-3.55617
-3.60243
-3.65508
-3.71386
-3.77879
-3.85036
-3.92948
-4.01726
-4.11481
-4.22302
-4.34254
-4.47364
-4.61573
-4.76761
-3.56209
-3.56567
-3.56816
-3.57387
-3.58378
-3.59877
-3.61948
-3.64646
-3.68008
-3.72043
-3.76731
-3.82035
-3.87928
-3.9442
-4.01572
-4.09491
-4.18298
-4.28104
-4.38992
-4.51024
-4.64243
-4.7864
-4.94166
-3.71114
-3.7151
-3.7191
-3.72622
-3.73738
-3.75344
-3.77512
-3.80303
-3.83753
-3.87866
-3.92617
-3.97969
-4.03899
-4.10427
-4.1763
-4.25629
-4.34555
-4.4452
-4.55609
-4.67889
-4.81431
-4.96276
-5.12445
-3.85537
-3.85936
-3.86457
-3.87288
-3.88513
-3.90218
-3.9248
-3.95361
-3.98896
-4.03086
-4.07904
-4.13314
-4.19301
-4.259
-4.33204
-4.41346
-4.50466
-4.6068
-4.72074
-4.84735
-4.98766
-5.1426
-5.31305
-3.99464
-3.99853
-4.00467
-4.01396
-4.02716
-4.0451
-4.06859
-4.09825
-4.13442
-4.17707
-4.22592
-4.28066
-4.34125
-4.40819
-4.48258
-4.56587
-4.6595
-4.76464
-4.88226
-5.01345
-5.15963
-5.32223
-5.50269
-4.12893
-4.13271
-4.13952
-4.14961
-4.16361
-4.18234
-4.20661
-4.23703
-4.27394
-4.31727
-4.36676
-4.42213
-4.48349
-4.55149
-4.62738
-4.7127
-4.80891
-4.91719
-5.03861
-5.17453
-5.32681
-5.49729
-5.68785
-4.25828
-4.26196
-4.26925
-4.27997
-4.29463
-4.31403
-4.33895
-4.37002
-4.40753
-4.45143
-4.50145
-4.55739
-4.61945
-4.68846
-4.76578
-4.85303
-4.95164
-5.06278
-5.18766
-5.32792
-5.48581
-5.66349
-5.86314
-4.38274
-4.38635
-4.39398
-4.40517
-4.42036
-4.44028
-4.46571
-4.49724
-4.53518
-4.57946
-4.62984
-4.68616
-4.74875
-4.81856
-4.89705
-4.98585
-5.08639
-5.19981
-5.32742
-5.47113
-5.63353
-5.81698
-6.02382
-4.50244
-4.50599
-4.51384
-4.52536
-4.54093
-4.56121
-4.58695
-4.61874
-4.65687
-4.70129
-4.75177
-4.80821
-4.87102
-4.94124
-5.02042
-5.11019
-5.21191
-5.32674
-5.45604
-5.60196
-5.7673
-5.95452
-6.16605
-4.61745
-4.62098
-4.62892
-4.64065
-4.65645
-4.67693
-4.70278
-4.73458
-4.77263
-4.81688
-4.86713
-4.92333
-4.98593
-5.05604
-5.13524
-5.22517
-5.32713
-5.44226
-5.57198
-5.71855
-5.88494
-6.07356
-6.28689
-4.72787
-4.73142
-4.73935
-4.75116
-4.76704
-4.78753
-4.81328
-4.84484
-4.88249
-4.92623
-4.97587
-5.03139
-5.09326
-5.16263
-5.24106
-5.33017
-5.43124
-5.54538
-5.67405
-5.81955
-5.98488
-6.17232
-6.38433
-4.83381
-4.8374
-4.84523
-4.85702
-4.87283
-4.89315
-4.91855
-4.94958
-4.98651
-5.02936
-5.07797
-5.13234
-5.19292
-5.26084
-5.33763
-5.42485
-5.52378
-5.63552
-5.76153
-5.90411
-6.06615
-6.24985
-6.45704
-4.9354
-4.93901
-4.94668
-4.95835
-4.97395
-4.99391
-5.01873
-5.04892
-5.08477
-5.12631
-5.17343
-5.22615
-5.28488
-5.35064
-5.42489
-5.50913
-5.60462
-5.71248
-5.83417
-5.97187
-6.12827
-6.30516
-6.50523
-5.03276
-5.03639
-5.04386
-5.05531
-5.07057
-5.08998
-5.11398
-5.14302
-5.17741
-5.21722
-5.26237
-5.3129
-5.36917
-5.43208
-5.50295
-5.58317
-5.67397
-5.77649
-5.89217
-6.02307
-6.17158
-6.33914
-6.52874
-5.12609
-5.12974
-5.13694
-5.14809
-5.16289
-5.18158
-5.20453
-5.23213
-5.26468
-5.30231
-5.34501
-5.3928
-5.44602
-5.50541
-5.57211
-5.64735
-5.73232
-5.82815
-5.93624
-6.05849
-6.19695
-6.35267
-6.52868
-5.21559
-5.21925
-5.22614
-5.23693
-5.25114
-5.26896
-5.29064
-5.31654
-5.34693
-5.38197
-5.42172
-5.46625
-5.51583
-5.57107
-5.63288
-5.70233
-5.78048
-5.86844
-5.96755
-6.07949
-6.20595
-6.3475
-6.50694
-5.3015
-5.30515
-5.31169
-5.32206
-5.33559
-5.35239
-5.37263
-5.3966
-5.42454
-5.45665
-5.49303
-5.53379
-5.57919
-5.6297
-5.686
-5.74896
-5.81948
-5.8986
-5.98756
-6.08783
-6.20066
-6.32615
-6.46659
-5.38401
-5.38768
-5.39384
-5.40375
-5.41648
-5.43214
-5.4508
-5.47266
-5.49795
-5.52685
-5.55952
-5.59612
-5.63687
-5.68213
-5.73241
-5.7883
-5.85055
-5.92007
-5.99799
-6.08552
-6.18356
-6.29173
-6.41159
-5.46333
-5.46714
-5.47284
-5.48227
-5.4941
-5.50849
-5.52543
-5.54507
-5.56755
-5.59307
-5.6218
-5.65394
-5.68969
-5.72933
-5.77316
-5.82156
-5.87509
-5.93448
-6.00071
-6.0748
-6.15734
-6.24759
-6.34633
-5.53977
-5.54389
-5.54896
-5.55791
-5.56871
-5.5817
-5.59682
-5.61414
-5.63374
-5.6558
-5.68048
-5.70798
-5.73851
-5.77225
-5.80937
-5.85003
-5.89456
-5.94353
-5.99773
-6.05803
-6.1248
-6.19714
-6.27515
-5.61342
-5.61851
-5.62251
-5.631
-5.64065
-5.6521
-5.66529
-5.68021
-5.69692
-5.71551
-5.73612
-5.75894
-5.78415
-5.81189
-5.84218
-5.875
-5.91047
-5.94896
-5.9911
-6.0376
-6.08876
-6.14368
-6.20205
-5.68371
-5.69172
-5.6939
-5.70193
-5.71026
-5.72003
-5.73117
-5.74366
-5.75748
-5.77265
-5.78927
-5.80748
-5.82742
-5.84916
-5.87264
-5.89769
-5.92425
-5.95248
-5.98284
-6.01591
-6.05196
-6.09033
-6.13055
-5.75029
-5.76373
-5.76342
-5.77101
-5.77784
-5.78578
-5.79478
-5.8048
-5.81577
-5.82763
-5.84039
-5.85413
-5.86894
-5.88483
-5.90167
-5.9192
-5.9372
-5.95565
-5.97484
-5.99521
-6.01706
-6.04002
-6.0638
-5.81386
-5.83517
-5.83115
-5.83844
-5.84363
-5.84961
-5.85637
-5.8639
-5.87206
-5.88072
-5.8898
-5.89929
-5.90921
-5.91952
-5.93005
-5.94048
-5.95049
-5.9599
-5.96884
-5.9776
-5.98646
-5.9954
-6.0045
-5.87596
-5.90856
-5.89765
-5.90486
-5.90842
-5.9123
-5.91672
-5.92172
-5.9271
-5.93268
-5.93829
-5.94382
-5.9492
-5.95435
-5.95907
-5.96302
-5.9658
-5.96714
-5.96695
-5.96538
-5.96267
-5.95903
-5.95499
-5.93115
-5.99123
-5.96686
-5.9725
-5.97413
-5.97568
-5.97761
-5.98004
-5.98271
-5.98538
-5.9878
-5.98977
-5.99115
-5.99179
-5.99146
-5.9898
-5.98638
-5.98079
-5.97278
-5.9623
-5.94946
-5.93458
-5.9185
-5.96168
-6.09124
-6.0446
-6.04166
-6.03974
-6.03855
-6.03787
-6.03771
-6.03774
-6.03768
-6.03721
-6.03611
-6.03413
-6.03105
-6.02658
-6.02035
-6.01187
-6.00069
-5.9864
-5.9687
-5.94752
-5.92313
-5.89683
-5.96692
-6.18382
-6.11889
-6.10111
-6.09409
-6.08987
-6.08657
-6.08374
-6.08098
-6.07799
-6.07448
-6.07017
-6.0648
-6.05804
-6.04958
-6.03901
-6.02593
-6.00986
-5.99035
-5.96697
-5.93942
-5.9078
-5.87313
-229.514
-177.108
-51.1485
-10.1479
138.687
108.863
81.2892
32.638
156.692
118.554
83.6869
54.2796
46.2704
35.8178
31.5176
26.9498
-40.7624
-41.8473
-34.2747
-24.9141
-17.4161
-21.0929
-22.5969
-18.4951
-5.22889
-5.84594
-6.20672
-6.5162
-3.47596
-3.5428
-3.72582
-4.11456
-3.98491
-4.03354
-4.05651
-4.11231
-4.1211
-4.19908
-4.28583
-4.37997
-4.26538
-4.34493
-4.43001
-4.51716
-4.41209
-4.49076
-4.57363
-4.65688
-4.5625
-4.64017
-4.72163
-4.80356
-4.7196
-4.79789
-4.88015
-4.9633
-4.88652
-4.96718
-5.05225
-5.13885
-5.06523
-5.15009
-5.2401
-5.33232
-5.2552
-5.34592
-5.44271
-5.54243
-5.45289
-5.55073
-5.65557
-5.7641
-5.65255
-5.75814
-5.87171
-5.98968
-5.84764
-5.96091
-6.08319
-6.21063
-6.03182
-6.15208
-6.28247
-6.41876
-6.19965
-6.32571
-6.46302
-6.60693
-6.34679
-6.47708
-6.61962
-6.76924
-6.47012
-6.60285
-6.74859
-6.90161
-6.56757
-6.70094
-6.84779
-7.00188
-6.63785
-6.76999
-6.91585
-7.06875
-6.68056
-6.80938
-6.95206
-7.1014
-6.69581
-6.81905
-6.95577
-7.09871
-6.68448
-6.79964
-6.92741
-7.06062
-6.64829
-6.75278
-6.86852
-6.98853
-6.59071
-6.68218
-6.78316
-6.88697
-6.51669
-6.59363
-6.67801
-6.76383
-6.43173
-6.49362
-6.5609
-6.62846
-6.34136
-6.38864
-6.43945
-6.48975
-6.2505
-6.28438
-6.32018
-6.35498
-6.1631
-6.18519
-6.20797
-6.22953
-6.08253
-6.09466
-6.10658
-6.11726
-6.01159
-6.01562
-6.01879
-6.02074
-5.95217
-5.94965
-5.94601
-5.9413
-5.9064
-5.8983
-5.88953
-5.88028
-5.87797
-5.86568
-5.85311
-5.84007
-5.84694
-5.83031
-5.81408
-5.79833
12.6726
27.6979
28.3549
28.3445
28.2776
28.2907
28.3576
28.3717
28.3791
28.3573
28.3053
28.2304
28.1415
28.0481
27.9598
27.8844
27.8282
27.7962
27.7866
-24.4299
-18.3234
8.28364
27.3523
28.07
28.3476
28.3873
28.3113
28.3093
28.279
28.2152
28.1258
28.0172
27.9005
27.7883
27.693
27.6237
27.5863
27.5767
7.89546
-17.4584
-26.1179
-19.1046
3.11725
25.4316
28.1769
28.2997
28.3067
28.2293
28.1329
28.0215
27.8888
27.7421
27.5977
27.4741
27.3859
27.3413
27.3326
9.79066
-12.757
-20.6225
-19.1859
-19.2291
-14.2943
8.81769
27.0618
28.2652
28.1906
28.0624
27.9123
27.7469
27.5636
27.3787
27.2182
27.1044
27.05
27.043
-18.2709
-28.6547
-31.0664
-26.8799
-23.431
-19.6192
-14.4766
-0.174377
23.7293
27.8975
27.9509
27.7963
27.5823
27.3495
27.1149
26.9102
26.7648
26.698
26.6937
-18.8881
-31.6453
-37.1775
-35.3235
-35.0746
-31.7965
-24.2462
-16.2008
0.457024
22.8413
27.4127
27.5947
27.3624
27.0713
26.7787
26.5265
26.3472
26.2669
26.2667
-7.13297
-6.14075
-3.58898
-5.13222
-23.3238
-36.8364
-36.5787
-29.1778
-16.5759
5.39515
24.4644
26.9143
26.9947
26.6707
26.3228
26.0311
25.8249
25.7343
25.7411
-4.847
-5.15714
-5.44216
-5.52849
-3.68394
-2.0087
-28.44
-40.8925
-30.3551
-11.557
14.3975
25.2186
26.3062
26.0595
25.6869
25.3802
25.1667
25.0758
25.0943
-4.27424
-4.41754
-4.6881
-5.20077
-5.64314
-6.04179
-10.4811
-34.0238
-40.8632
-24.2006
1.2105
21.298
24.9256
25.1263
24.8186
24.5366
24.3455
24.2704
24.307
-4.53059
-4.70938
-4.86048
-5.04244
-5.13648
-5.25789
-5.99416
-15.8572
-41.0673
-33.4454
-9.40543
15.8868
22.8263
23.8151
23.6776
23.4804
23.3484
23.3073
23.3679
-4.66442
-4.85107
-5.01977
-5.18692
-5.29807
-5.29103
-5.34178
-6.428
-29.0853
-39.8493
-17.5867
11.059
20.7684
22.322
22.3158
22.2349
22.1858
22.1913
22.2791
-4.79627
-4.98315
-5.15062
-5.29421
-5.38101
-5.37365
-5.28045
-5.72237
-16.6635
-40.9949
-23.9623
6.10884
18.7124
20.7343
20.8244
20.8539
20.889
20.9433
21.0572
-4.94079
-5.12894
-5.29626
-5.42873
-5.50127
-5.4901
-5.35859
-5.65902
-11.0683
-37.129
-25.8402
3.09548
16.5987
18.9164
19.1977
19.3732
19.4933
19.5941
19.7299
-5.10294
-5.29696
-5.47046
-5.60354
-5.67182
-5.65805
-5.52017
-5.73708
-8.66732
-31.8028
-24.7199
2.65883
14.9729
17.0328
17.5202
17.8444
18.0387
18.1796
18.3311
-5.28486
-5.48986
-5.67587
-5.81737
-5.88639
-5.87047
-5.72979
-5.87417
-7.67874
-27.8136
-22.5041
3.57576
13.8217
15.4189
15.9663
16.3401
16.5718
16.7375
16.896
-5.48824
-5.70908
-5.91243
-6.06655
-6.13802
-6.11221
-5.93868
-6.02243
-8.12207
-27.3488
-19.4291
4.4623
12.9737
14.174
14.5488
14.8875
15.124
15.298
15.4548
-5.71138
-5.95269
-6.17767
-6.34744
-6.42358
-6.38795
-6.17381
-6.19906
-9.1621
-26.7383
-15.9654
4.42366
11.8372
12.8013
13.1117
13.458
13.7
13.8775
14.0288
-5.94839
-6.21381
-6.46413
-6.65287
-6.74023
-6.70706
-6.48057
-6.51744
-11.2354
-21.498
-9.14685
4.62916
9.85892
10.8088
11.5884
12.0349
12.301
12.4881
12.6341
-6.19057
-6.48236
-6.76148
-6.97436
-7.08242
-7.07248
-6.9034
-7.24273
-12.3826
-10.2835
3.35861
5.2012
7.61329
9.14522
10.2001
10.6707
10.9545
11.148
11.2862
-6.42826
-6.74719
-7.05724
-7.29969
-7.43411
-7.45386
-7.36399
-8.31956
-12.8412
0.829718
13.3304
6.87839
6.81237
8.36965
9.08492
9.43608
9.69586
9.87454
9.99821
-6.65215
-6.99772
-7.33928
-7.61376
-7.77575
-7.8144
-7.71211
-8.8001
-16.0552
-7.17396
5.2761
6.32702
6.27328
7.48815
8.04812
8.30585
8.51917
8.66843
8.77321
-6.85397
-7.2245
-7.59712
-7.90833
-8.11795
-8.22755
-7.94446
-10.0644
-15.5691
-3.04851
4.27318
5.84683
5.87061
6.41709
6.96134
7.21546
7.39424
7.51669
7.60374
-7.02656
-7.41715
-7.81676
-8.16917
-8.4385
-8.69528
-8.81051
-9.84158
-14.1485
-2.43379
4.19409
5.84159
5.72825
5.69028
5.99281
6.17892
6.31166
6.40769
6.47914
-7.16484
-7.56768
-7.98685
-8.36816
-8.64219
-8.5379
-7.73972
-8.63575
-12.8058
-8.50317
3.41748
5.55388
5.52112
5.16179
5.13502
5.19158
5.26326
5.33108
5.38959
-7.26719
-7.67707
-8.11231
-8.50657
-8.781
-8.82111
-9.24825
-7.79532
-12.4523
-13.0997
-0.114643
4.38445
4.89128
4.38908
4.19659
4.18206
4.2181
4.27085
4.32538
-7.33241
-7.74443
-8.19476
-8.61153
-8.95517
-9.17693
-9.46233
-7.26824
-12.3069
-17.724
-8.77417
2.17012
3.8762
3.24247
3.05034
3.0869
3.14634
3.21309
3.28081
-7.35921
-7.76826
-8.22622
-8.67338
-9.08087
-9.38346
-9.15679
-7.89787
-10.2151
-20.5015
-19.773
-2.29932
1.93331
1.56508
1.70281
1.90612
2.04898
2.15836
2.26483
-7.34567
-7.74427
-8.20671
-8.68859
-9.12285
-9.48457
-9.54591
-9.65964
-6.86629
-19.7884
-22.8528
-9.05666
-2.03508
-0.479507
0.256502
0.692089
0.96332
1.12942
1.30114
-7.29091
-7.66882
-8.12434
-8.63693
-9.13642
-9.57587
-10.1154
-10.3559
-8.37398
-13.2353
-15.8473
-12.0626
-5.25901
-2.07268
-1.08963
-0.440492
-0.0453251
0.176766
0.404998
-7.19561
-7.53895
-7.964
-8.47408
-9.0215
-9.51821
-10.2791
-11.4794
-13.0766
-11.4602
-8.50358
-9.39115
-6.13562
-3.12189
-2.13077
-1.37876
-0.917144
-0.660391
-0.408183
-7.06506
-7.35994
-7.72654
-8.17712
-8.68878
-9.20932
-9.95378
-11.192
-12.6544
-13.9036
-11.7699
-9.32804
-6.41776
-3.92603
-2.89137
-2.10524
-1.63351
-1.36601
-1.12862
-6.90973
-7.14791
-7.43877
-7.79242
-8.20282
-8.64433
-9.14749
-9.78045
-10.5565
-10.9759
-10.4413
-8.60517
-6.2601
-4.38861
-3.37069
-2.64505
-2.20574
-1.94882
-1.75552
-6.742
-6.92244
-7.13522
-7.38447
-7.66672
-7.96707
-8.26243
-8.54105
-8.77829
-8.81301
-8.40126
-7.26731
-5.72673
-4.45672
-3.62657
-3.03569
-2.65898
-2.43293
-2.29854
-6.57308
-6.70034
-6.84274
-6.99977
-7.16562
-7.32958
-7.47428
-7.57583
-7.58142
-7.38969
-6.92021
-6.16032
-5.22359
-4.39607
-3.78474
-3.33324
-3.03011
-2.84804
-2.77323
-6.41173
-6.49368
-6.57818
-6.66227
-6.73926
-6.80051
-6.83666
-6.82915
-6.735
-6.49551
-6.08866
-5.54555
-4.93641
-4.37736
-3.93166
-3.59065
-3.35646
-3.22076
-3.19583
-6.26406
-6.30966
-6.34988
-6.38098
-6.39709
-6.39142
-6.35786
-6.28423
-6.14925
-5.92894
-5.61751
-5.23237
-4.81449
-4.42308
-4.09481
-3.83884
-3.66377
-3.5697
-3.58025
-6.13393
-6.15163
-6.15996
-6.15594
-6.13536
-6.09291
-6.02409
-5.92324
-5.78213
-5.59356
-5.35821
-5.08505
-4.79519
-4.51919
-4.28001
-4.09201
-3.96612
-3.90585
-3.93785
-6.02338
-6.02052
-6.00696
-5.98199
-5.94375
-5.88728
-5.80926
-5.7075
-5.58024
-5.427
-5.25022
-5.05574
-4.85419
-4.6611
-4.49109
-4.35758
-4.27118
-4.23594
-4.27803
-5.93349
-5.91604
-5.88706
-5.85079
-5.80946
-5.75524
-5.68547
-5.59891
-5.49625
-5.37937
-5.25115
-5.11535
-4.97758
-4.84594
-4.72963
-4.63894
-4.58266
-4.56395
-4.60781
-5.86539
-5.83608
-5.78995
-5.74587
-5.7161
-5.67808
-5.62905
-5.56815
-5.49659
-5.41663
-5.33098
-5.2423
-5.15372
-5.06959
-4.99532
-4.93779
-4.90353
-4.89423
-4.93341
-5.81701
-5.77235
-5.69407
-5.64161
-5.64582
-5.63884
-5.62063
-5.59315
-5.55783
-5.51621
-5.47023
-5.42181
-5.37294
-5.32598
-5.28372
-5.25003
-5.22931
-5.22225
-5.25265
-5.7716
-5.71519
-5.61645
-5.58719
-5.63132
-5.65179
-5.66008
-5.66301
-5.66222
-5.65807
-5.65093
-5.64135
-5.63007
-5.61799
-5.606
-5.59554
-5.58845
-5.58179
-5.58635
)
;

boundaryField
{
    leftWall
    {
        type            calculated;
        value           nonuniform List<scalar> 
50
(
980.515
920.866
860.289
799.328
738.155
676.685
614.956
553.05
456.08
324.078
192.963
74.0683
12.7798
-2.4696
-2.15781
-2.33238
-2.45617
-2.60939
-2.76798
-2.9291
-3.09086
-3.25114
-3.40855
-3.56209
-3.71114
-3.85537
-3.99464
-4.12893
-4.25828
-4.38274
-4.50244
-4.61745
-4.72787
-4.83381
-4.9354
-5.03276
-5.12609
-5.21559
-5.3015
-5.38401
-5.46333
-5.53977
-5.61342
-5.68371
-5.75029
-5.81386
-5.87596
-5.93115
-5.96168
-5.96692
)
;
    }
    rightWall
    {
        type            calculated;
        value           nonuniform List<scalar> 
50
(
28.4181
28.3576
28.294
28.2271
28.1568
28.0829
28.0049
27.9226
27.7866
27.5767
27.3326
27.043
26.6937
26.2667
25.7411
25.0943
24.307
23.3679
22.2791
21.0572
19.7299
18.3311
16.896
15.4548
14.0288
12.6341
11.2862
9.99821
8.77321
7.60374
6.47914
5.38959
4.32538
3.28081
2.26483
1.30114
0.404998
-0.408183
-1.12862
-1.75552
-2.29854
-2.77323
-3.19583
-3.58025
-3.93785
-4.27803
-4.60781
-4.93341
-5.25265
-5.58635
)
;
    }
    lowerWall
    {
        type            calculated;
        value           nonuniform List<scalar> 
62
(
1009.94
1012.29
1022.87
1037.39
1051.3
1063.19
1072.72
1080.1
1085.74
1090.11
1093.75
1097.37
1101.96
1108.92
1120.28
1139.32
1169.05
1212.41
1268.89
1330.49
1382.82
1393.21
1438.94
1411.87
1354.34
1306.98
1271
1228.3
1164.75
1055.43
866.484
-167.187
-114.781
11.2609
52.4087
28.8103
28.7553
28.7012
28.6472
28.5944
28.5436
28.5245
28.3729
28.8397
28.8136
28.806
28.8075
28.8256
28.8517
28.8744
28.8839
28.8761
28.8494
28.8056
28.7494
28.6868
28.6242
28.5665
28.5177
28.4807
28.4573
28.4476
)
;
    }
    atmosphere
    {
        type            calculated;
        value           nonuniform List<scalar> 
46
(
-6.00729
-6.16606
-6.13274
-6.12028
-6.11274
-6.10745
-6.10299
-6.09882
-6.09456
-6.08992
-6.08467
-6.07853
-6.07121
-6.06239
-6.05172
-6.03886
-6.02345
-6.00512
-5.98348
-5.95816
-5.92884
-5.89548
-5.85857
-5.8299
-5.8139
-5.8006
-5.78956
-5.77309
-5.74954
-5.73473
-5.72904
-5.72904
-5.72904
-5.72904
-5.72904
-5.72904
-5.72904
-5.72905
-5.72904
-5.72904
-5.72904
-5.72904
-5.72904
-5.72904
-5.72904
-5.72904
)
;
    }
    defaultFaces
    {
        type            empty;
    }
}


// ************************************************************************* //
