/*--------------------------------*- C++ -*----------------------------------*\
| =========                 |                                                 |
| \\      /  F ield         | OpenFOAM: The Open Source CFD Toolbox           |
|  \\    /   O peration     | Version:  2.3.0                                 |
|   \\  /    A nd           | Web:      www.OpenFOAM.org                      |
|    \\/     M anipulation  |                                                 |
\*---------------------------------------------------------------------------*/
FoamFile
{
    version     2.0;
    format      ascii;
    class       volScalarField;
    location    "0.296";
    object      p;
}
// * * * * * * * * * * * * * * * * * * * * * * * * * * * * * * * * * * * * * //

dimensions      [1 -1 -2 0 0 0 0];

internalField   nonuniform List<scalar> 
545
(
-7.66343e+07
-1.41268e+07
-1.89739e+06
-2.48714e+06
-8.22321e+06
5.51381e+07
-2.87535e+06
-2.2426e+06
-2.39011e+06
-6.68528e+06
9.58773e+07
3.44282e+06
-351697
-404447
-7.0141e+06
5.56207e+07
-3.04927e+06
-1.79431e+06
-141973
-6.26682e+06
-8.81812e+07
-2.24983e+06
-441617
4.03413e+06
1.11963e+07
-6.7862e+06
-1.78013e+06
-744929
-115687
4125.32
25901.7
8711.2
-3699.68
-10673.3
-13833.8
-15945.4
-16865.3
-17787.1
-18063.3
-18783.1
-18699.7
-19192.5
-18985.1
-19242.7
-18520.2
-18308.4
-17180.9
-16772.8
-15569.5
-14915
-13186.2
-12071.1
-10166.8
-9294.08
-7603.48
-6940.47
-5407.75
-4445.91
-2694.17
-1798.09
-197.402
298.314
1416.51
1441.8
1928.39
1481.76
1646.99
408.727
109.229
-1298.97
-5.97676e+06
-1.11986e+06
-710403
-233280
-99975.8
-30247.7
-15412.5
-12414.2
-13066.7
-14337
-15787.4
-16766.7
-17487.4
-18003.2
-18550.4
-18760.4
-19044.4
-19106
-19101.7
-18630.7
-18123.9
-17314.8
-16599.4
-15715.6
-14723.2
-13272.5
-11826.9
-10280.3
-9086.6
-7760.58
-6765.93
-5564.59
-4221.45
-2816.7
-1551
-340.526
538.917
1251.18
1686.21
1739.82
1675.9
1525.99
705.286
264.617
106.629
-7.00914e+06
-559936
-440809
-120264
-71821.8
-22591
-15550.8
-13239.7
-13986.4
-14349.2
-16007
-16367.8
-17556.8
-17592.2
-18750
-18477.3
-19346
-18854.1
-19424.8
-18345.4
-18435.1
-17050.7
-16914.8
-15427.4
-15009.7
-12893.1
-12092.6
-9931.74
-9425.58
-7417.09
-7087.9
-5241.47
-4521.7
-2455.49
-1871.24
7.74841
176.81
1601.54
1397.6
2043.9
1340.86
1966.05
444.983
697.534
-813.323
-7.41083e+06
560722
110279
93634.6
-379.624
3632.52
-8389.44
-11829.8
-14501.5
-14072.6
-16356.1
-15790.2
-17740.8
-17062
-19110.9
-18087.9
-19779
-18488.9
-19871.7
-17973.8
-18886.2
-16715.3
-17311.8
-15044.7
-15393.8
-12417.8
-12458.7
-9531.1
-9851.28
-6992.72
-7445.04
-4892.27
-4865.94
-2064.64
-2287.64
402.193
-262.2
1959.32
1110.19
2305.86
1010.24
2469.26
111.185
1488.71
-56.7217
-1.70436e+06
3.13563e+06
1.06829e+06
321258
53679.1
12063.5
-10098.8
-13171.9
-15970.1
-13676
-16920.3
-14917.4
-18194
-16182.7
-19859.8
-17322.5
-20563.3
-17728.6
-20718.9
-17153.7
-19780.7
-15980.8
-18085.6
-14235
-16216.8
-11474
-13284.5
-8623.55
-10817
-6040.32
-8206.83
-4181.03
-5593.88
-1261.61
-3193.13
1309.16
-1212.51
2760.09
493.338
2826.83
253.254
3514.02
-834.377
2349.1
-1750.94
-1.29789e+07
4.4958e+06
1.83144e+06
478015
77623.7
10502.4
-7545.25
-11437.4
-11782.3
-12826.2
-15211.9
-14928.7
-13729.2
-14462.3
-14156.8
-15695
-16658.6
-19249.6
-18171.3
-15005.8
-13529.4
-14529.4
-13447.5
-12576.7
-12921.7
-12998.7
-11003.2
-6702.5
-4652.43
-5592.08
-3397.48
-574.522
-692.08
-1349.64
-1371.94
-459.067
801.352
2707.68
7425.08
8475.03
6475.25
4915.45
7410.2
5820.77
1450.41
-8.81794e+07
-2.2483e+06
-440139
4.03585e+06
1.11985e+07
5.56226e+07
-3.04765e+06
-1.79273e+06
-140190
-6.26478e+06
9.58792e+07
3.44457e+06
-350008
-402615
-7.01222e+06
5.51401e+07
-2.87352e+06
-2.24077e+06
-2.38819e+06
-6.68351e+06
-7.66323e+07
-1.4125e+07
-1.89542e+06
-2.48508e+06
-8.2215e+06
-1.70164e+06
3.1336e+06
1.07076e+06
318844
56325.9
9686.19
-7555.53
-15524.4
-13413.2
-16092.1
-13817.1
-17307.3
-15291.1
-18623.6
-17058.4
-19969.4
-17880.5
-20769.8
-17916.5
-19936.3
-17110.3
-18845.3
-15291.3
-16978.6
-13179.4
-14467
-10167.8
-11450.1
-7959.08
-8914.88
-5290.95
-7001.13
-2641.13
-4299.48
-15.1388
-1912.19
1948.54
-351.99
3203.04
-17.8206
3044.33
622.038
1889.17
-947.686
826.245
-7.40862e+06
559830
111918
92428.4
1175.63
2438.25
-6829.74
-12969.6
-12983.8
-15183.9
-14214.4
-16594.2
-15714.2
-18070.3
-17365.1
-19486.1
-18377.5
-20279.1
-18447.6
-19590.6
-17528
-18391.2
-15780.1
-16449.8
-13558.9
-13896.6
-10666
-11054.8
-8289.97
-8582.88
-5800.84
-6375.16
-3182.84
-3719.19
-573.709
-1374.88
1405.13
167.827
2511.57
650.663
2496.82
762.201
1522.07
-436.21
1340.07
-7.00776e+06
-559720
-439931
-120434
-71206
-22788.5
-14858.1
-13339.7
-13375
-14356.3
-14684.4
-15823
-16238.5
-17350.9
-17898.9
-18813.3
-19034.4
-19578.1
-19142.7
-18962.9
-18188.8
-17694.3
-16465.4
-15691.9
-14195.7
-13099.9
-11407.4
-10359.6
-8978.91
-7902.98
-6545.14
-5583.96
-3926.65
-2925.22
-1375.71
-594.033
586.385
922.907
1685.53
1433.4
1686.26
1307.88
746.402
-61.6335
-598.213
-5.9756e+06
-1.11926e+06
-709791
-233149
-99670
-30103.6
-15014
-12150.4
-12734.8
-13928.3
-14661.8
-15633
-16275.4
-17224
-17940.5
-18727
-19115.6
-19478.7
-19222.3
-18913.1
-18255.1
-17612.6
-16523.8
-15584.8
-14219.1
-12998.7
-11497.8
-10333
-9027.71
-7880.35
-6598.88
-5519.14
-3977.46
-2862.16
-1469.51
-566.431
475.809
940.01
1585.73
1468.4
1600.95
1227.12
598.756
-69.0434
32.4142
-6.78517e+06
-1.77938e+06
-744487
-115508
4301.45
26137.9
9043.67
-3321.46
-10397.6
-13274.5
-14857
-15530.6
-16544
-17082.8
-18204.4
-18554.7
-19371.7
-19258.4
-19475.3
-18710.9
-18531.3
-17375.8
-16799.7
-15331.5
-14495.2
-12761.8
-11824.6
-10111
-9339.76
-7628.38
-6880.42
-5261.6
-4293.68
-2603.68
-1830.6
-333.591
88.6162
1189.82
1239.96
1723.45
1284.54
1422.29
194.674
-155.435
-1521.03
)
;

boundaryField
{
    AirInlet
    {
        type            calculated;
        value           uniform -1.29753e+07;
    }
    WaterInlet
    {
        type            calculated;
        value           nonuniform List<scalar> 10(-7.66343e+07 5.51381e+07 9.58773e+07 5.56207e+07 -8.81812e+07 -8.81794e+07 5.56226e+07 9.58792e+07 5.51401e+07 -7.66323e+07);
    }
    ChannelWall
    {
        type            calculated;
        value           nonuniform List<scalar> 
110
(
-8.81812e+07
-2.24983e+06
-441617
4.03413e+06
1.11963e+07
-8.81794e+07
-2.2483e+06
-440139
4.03585e+06
1.11985e+07
-7.66323e+07
-1.4125e+07
-1.89542e+06
-2.48508e+06
-8.2215e+06
-6.78517e+06
-1.77938e+06
-744487
-115508
4301.41
26137.9
9043.62
-3321.5
-10397.7
-13274.6
-14857
-15530.7
-16544.1
-17082.8
-18204.4
-18554.7
-19371.7
-19258.4
-19475.3
-18711
-18531.4
-17375.9
-16799.8
-15331.5
-14495.2
-12761.8
-11824.7
-10111
-9339.8
-7628.42
-6880.46
-5261.64
-4293.73
-2603.73
-1830.65
-333.635
88.5721
1189.77
1239.92
1723.41
1284.5
1422.24
194.63
-155.479
-1521.07
-7.66343e+07
-1.41268e+07
-1.89739e+06
-2.48714e+06
-8.22321e+06
-6.7862e+06
-1.78013e+06
-744929
-115687
4125.36
25901.7
8711.24
-3699.63
-10673.2
-13833.8
-15945.4
-16865.3
-17787
-18063.2
-18783.1
-18699.6
-19192.5
-18985.1
-19242.7
-18520.2
-18308.4
-17180.8
-16772.7
-15569.4
-14914.9
-13186.2
-12071.1
-10166.8
-9294.04
-7603.44
-6940.43
-5407.71
-4445.86
-2694.12
-1798.05
-197.358
298.358
1416.55
1441.84
1928.44
1481.8
1647.03
408.771
109.273
-1298.92
)
;
    }
    Outlet
    {
        type            calculated;
        value           nonuniform List<scalar> 
11
(
-0.044145
-0.132435
-0.220725
-0.308996
-0.395447
-0.373115
-0.580947
-0.671943
-0.760274
-0.848565
-0.936855
)
;
    }
    FrontAndBack
    {
        type            empty;
    }
}


// ************************************************************************* //
