/*--------------------------------*- C++ -*----------------------------------*\
| =========                 |                                                 |
| \\      /  F ield         | OpenFOAM: The Open Source CFD Toolbox           |
|  \\    /   O peration     | Version:  2.3.0                                 |
|   \\  /    A nd           | Web:      www.OpenFOAM.org                      |
|    \\/     M anipulation  |                                                 |
\*---------------------------------------------------------------------------*/
FoamFile
{
    version     2.0;
    format      ascii;
    class       volScalarField;
    location    "1.30001";
    object      epsilon.water;
}
// * * * * * * * * * * * * * * * * * * * * * * * * * * * * * * * * * * * * * //

dimensions      [0 2 -3 0 0 0 0];

internalField   nonuniform List<scalar> 
10000
(
38.0219
41.1762
35.714
27.9426
19.4758
10.8363
3.59533
0.323317
0.0160694
0.0280623
0.274406
0.32816
0.449344
0.641946
1.24816
2.49891
3.60788
4.22064
3.77101
3.18195
19.8122
119.887
33.049
16.8769
11.3842
5.77402
1.33648
0.0999013
0.0163513
0.018721
0.0180951
0.013335
0.00510931
0.024572
0.180342
0.681412
1.69016
4.84729
6.1023
5.66382
20.9694
960.074
157.324
26.5663
13.459
7.36653
2.57582
0.397441
0.0386032
0.00495746
0.00652151
0.000918682
0.00118523
0.00333765
0.140079
0.733027
6.82492
27.5538
29.8398
29.5403
12.8871
919.326
800.179
53.5655
16.6923
8.30259
3.51017
0.845268
0.0830467
0.00279332
0.000882701
0.000226153
0.000715891
0.0046572
0.152688
1.25189
77.5305
203.354
201.49
204.415
8.37999
1109.8
604.817
112.095
19.768
8.58446
3.9492
1.33154
0.222814
0.00883936
0.000971215
0.000881955
0.00472549
0.0227754
0.239142
1.86944
16.2768
231.983
245.478
254.458
8.57683
565.27
497.144
486.54
26.1397
8.46464
4.07166
1.67169
0.437954
0.0393738
0.00279475
0.00761616
0.0335589
0.0895172
0.42457
3.32271
89.5037
225.586
251.856
260.502
6.59307
15.2979
483.367
405.598
24.6186
8.07764
4.12238
2.01038
0.755672
0.145825
0.0214143
0.05588
0.152586
0.252991
0.772615
4.44457
19.9986
230.325
257.395
251.059
30.6237
9.99285
464.092
83.5072
18.2415
7.86949
4.23409
2.37252
1.18348
0.412225
0.131617
0.209195
0.524703
0.636175
1.32434
6.11342
35.0844
200.036
225.044
250.348
176.229
13.6598
462.843
319.474
25.7317
8.6919
4.65104
2.77218
1.46411
0.66673
0.300544
0.347619
1.83154
1.76601
2.52735
9.22627
107.542
200.34
231.304
293.78
742.431
21.2309
531.703
281.783
18.9349
5.81529
3.46261
2.17139
1.36505
0.673336
0.280285
0.350798
0.454371
0.604904
1.44468
10.3828
88.9467
138.909
310.07
276.888
2030.85
33.4536
267.357
245.703
18.7249
5.60957
3.44342
2.32163
1.59743
0.93205
0.467511
0.337752
0.366177
0.642999
3.63849
33.2911
181.039
403.733
407.966
580.377
1595.45
141.627
22.0822
189.39
18.2138
5.37035
3.90149
2.464
1.98506
1.2355
0.543323
0.353941
0.405597
2.05022
17.4657
77.9684
236.622
362.376
726.411
506.484
71.4051
838.581
13.3725
161.377
16.4722
4.53968
3.70375
2.04142
1.63054
1.1411
0.540889
0.398902
1.31548
11.4834
48.0861
127.313
296.345
464.644
809.316
591.87
334.308
172.932
7.37645
151.059
15.1358
4.87143
3.50259
2.36311
1.87914
1.20894
0.557187
0.77245
6.45028
29.726
83.31
190.637
363.728
659.88
731.661
761.477
1837.42
872.422
5.71063
17.0644
9.94449
4.6828
2.86219
2.09479
1.69724
1.07529
0.617324
2.79671
15.83
47.6224
112.495
237.736
447.405
637.444
896.699
1183.61
1278.72
757.272
5.22933
8.18417
5.57481
4.11491
2.54896
1.90693
1.52301
0.928016
1.13371
6.74214
24.7193
61.6098
131.824
259.667
451.55
810.857
1451.43
2668.11
131.424
579.819
3.13154
4.96222
3.9361
3.41327
2.7004
1.78
1.47649
0.738132
2.26791
10.55
30.7885
69.9473
142.998
275.962
488.37
836.301
1570.27
2800.89
710.56
245.734
0.562987
3.32784
2.62498
2.4967
1.7876
1.61727
1.02988
0.757695
3.4147
12.8568
32.8492
70.6141
142.178
273.796
482.428
807.081
1362.03
1333.49
128.739
49.6952
0.0807672
7.63546
1.62805
1.65009
1.21869
1.14912
0.606354
0.687111
4.05755
13.5994
30.679
62.2527
128.637
252.024
468.609
787.05
918.805
1137.27
17.9654
6.25123
0.00431455
1.80839
0.928097
0.902441
0.905624
0.676627
0.356938
0.566591
3.8227
12.3392
23.5656
39.8215
105.073
220.051
418.575
663.698
620.105
738.799
38.3597
40.2705
35.8044
28.105
19.5626
10.9172
3.62596
0.325594
0.0153332
0.0303972
0.315912
0.313582
0.444758
0.640083
1.24791
2.52107
3.64741
4.2401
3.78349
3.2014
19.244
71.5713
30.5695
16.8308
11.3997
5.79249
1.32931
0.0912228
0.0144145
0.0220457
0.0155916
0.0150234
0.00454056
0.0228651
0.174715
0.683409
1.64506
4.43129
5.75192
5.37544
19.3347
466.437
125.83
26.1879
13.4882
7.38926
2.57319
0.386956
0.036144
0.00461669
0.00554722
0.000884395
0.00115284
0.00240064
0.131492
0.728269
5.00051
21.356
25.6578
25.8081
11.0158
525.958
470.725
51.0256
16.6904
8.31934
3.51537
0.837224
0.0762129
0.00223055
0.000754455
0.000214107
0.000598401
0.00306963
0.142795
1.16478
35.5642
124.966
134.507
140.015
6.12863
604.621
385.998
101.638
19.6184
8.59879
3.95037
1.33109
0.216111
0.00658186
0.000837309
0.000706809
0.00343113
0.0172455
0.229897
1.85298
14.4934
155.526
170.645
178.827
6.3561
381.375
321.216
321.471
25.1251
8.46156
4.06887
1.66749
0.431484
0.0338051
0.00202036
0.00561899
0.027908
0.0816434
0.414239
3.20899
53.165
157.568
179.161
184.761
5.62933
13.0884
306.774
268.3
23.7414
8.06656
4.11813
2.0051
0.750127
0.139066
0.0169919
0.0506495
0.144229
0.243815
0.762026
4.42204
21.5984
162.399
183.272
178.663
23.3419
8.82549
296.933
78.0857
18.146
7.8596
4.22889
2.36923
1.18018
0.407824
0.126265
0.205459
0.49918
0.614272
1.30498
6.0558
33.5773
143.4
165.269
179.222
128.826
11.4754
300.384
238.726
24.752
8.52235
4.56579
2.68101
1.46583
0.668738
0.303226
0.34795
1.4676
1.46044
2.23707
8.69387
86.6911
159.2
183.428
238.099
528.796
16.3588
332.256
218.055
19.0102
5.89964
3.49792
2.19838
1.37998
0.679891
0.286768
0.338169
0.436264
0.587205
1.45221
10.3912
86.3184
137.667
278.078
276.316
922.573
24.4621
206.73
191.769
18.6575
5.66988
3.47335
2.34149
1.61116
0.9394
0.465691
0.333501
0.363455
0.644937
3.67117
33.306
172.893
380.763
407.235
577.874
601.876
89.7378
20.9642
149.501
18.0255
5.42617
3.90247
2.48317
1.986
1.23594
0.545971
0.354515
0.406495
2.03798
17.4503
77.9288
230.559
362.058
692.296
506.044
62.7006
357.804
11.8649
125.521
16.3073
4.59054
3.70467
2.06128
1.64404
1.14827
0.54414
0.393072
1.30707
11.4779
48.1072
127.405
291.518
464.559
779.891
591.817
257.474
137.89
6.46368
112.351
14.9595
4.87187
3.50312
2.36344
1.87974
1.20928
0.560747
0.766102
6.44549
29.7381
83.3472
190.806
363.664
645.064
732.002
714.272
934.059
437.718
3.87634
16.9101
9.94898
4.68329
2.86201
2.09503
1.6976
1.07557
0.621505
2.79208
15.8372
47.6452
112.541
237.91
443.239
637.287
895.791
1180.03
503.801
365.801
3.4163
8.23293
5.61259
4.11552
2.56826
1.90729
1.5233
0.933164
1.13979
6.74474
24.7342
61.64
131.877
259.866
451.437
797.108
1405.26
2505.54
91.0256
268.917
1.90964
5.00336
3.9609
3.41373
2.70138
1.78031
1.47732
0.786118
2.27614
10.5577
30.8081
69.9826
143.058
276.153
484.88
822.093
1512.24
2627.9
306.823
110.19
0.324997
3.19119
2.64778
2.49726
1.80044
1.61761
1.03593
0.75823
3.42407
12.8678
32.8717
70.6523
142.242
273.992
479.311
791.909
1301.94
1332.1
50.0139
20.89
0.052728
3.7142
1.64124
1.6508
1.23036
1.14953
0.613317
0.690847
4.06773
13.6183
30.7108
62.3067
128.729
252.153
465.342
769.812
920.024
1140.4
5.70965
1.94179
0.00587765
0.592149
0.934099
0.912361
0.906355
0.677165
0.357563
0.567099
3.83246
12.3566
23.5927
39.8227
105.159
220.168
415.003
645.815
620.138
739.65
38.3483
39.0722
35.6301
28.204
19.6324
10.968
3.63828
0.318317
0.0151833
0.0303974
0.314872
0.306575
0.439595
0.631115
1.22363
2.50296
3.62582
4.16062
3.72614
3.1716
18.3567
44.7673
27.4284
16.7466
11.4293
5.82696
1.31584
0.0809018
0.012831
0.0243963
0.0157215
0.0156646
0.0043069
0.0216834
0.162991
0.684409
1.59859
3.97721
5.2767
4.99475
17.6959
236.406
95.1729
25.5787
13.5478
7.43844
2.56798
0.369718
0.0320899
0.00383551
0.00521364
0.000848334
0.0011057
0.00202584
0.116786
0.72287
3.76172
16.0764
21.2169
21.7403
9.46322
311.167
286.834
47.6307
16.6946
8.35661
3.51784
0.821947
0.0668359
0.00196623
0.000693677
0.000209235
0.000554371
0.00244539
0.127346
1.10529
16.3833
79.4801
92.7774
98.9535
4.6173
342.054
253.734
88.8116
19.3694
8.62749
3.95233
1.32256
0.204331
0.00551206
0.000778353
0.000642505
0.00289074
0.0136654
0.215108
1.82546
12.7148
107.502
121.883
128.973
4.62658
218.218
213.372
219.169
23.784
8.4572
4.06548
1.65806
0.419249
0.028367
0.00171738
0.00474192
0.023051
0.0707775
0.397041
3.09384
33.2415
112.714
130.472
134.269
4.59242
10.9961
201.387
183.544
22.5664
8.04593
4.10947
1.99471
0.739095
0.128542
0.0145062
0.0439209
0.131337
0.228472
0.742365
4.37575
21.325
116.878
133.582
130.02
16.1437
7.72456
196.259
70.9195
17.9751
7.83891
4.21751
2.36198
1.17236
0.398716
0.117494
0.197972
0.460607
0.578865
1.27043
5.95784
31.4108
104.791
123.752
130.944
80.9653
9.49456
201.081
182.022
23.6949
8.3772
4.49654
2.61938
1.468
0.670799
0.306142
0.347572
1.20049
1.2353
2.01607
8.17481
70.7461
128.509
147.998
195.425
311.399
12.3237
215.233
171.444
18.896
5.96228
3.52532
2.2189
1.3922
0.686042
0.294183
0.331665
0.424923
0.576396
1.45498
10.3163
82.0896
135.609
252.856
275.348
425.697
17.136
144.465
151.956
18.4676
5.71476
3.49587
2.35655
1.62165
0.945327
0.46553
0.331638
0.362783
0.647213
3.6921
33.2669
165.459
360.736
406.084
573.339
232.488
52.4905
19.535
119.814
17.7822
5.46738
3.90411
2.49765
1.98769
1.23673
0.548609
0.355549
0.412095
2.00081
17.3636
77.8721
225.316
361.604
662.235
505.273
53.4898
162.629
10.5257
99.2691
16.0969
4.62791
3.70628
2.07756
1.65591
1.15424
0.547196
0.388506
1.28341
11.4302
48.0701
127.478
287.642
464.56
754.976
591.943
186.868
103.253
5.66533
85.6768
14.7396
4.87266
3.50413
2.36399
1.88084
1.2099
0.563834
0.75311
6.4145
29.7124
83.3275
191
363.613
632.28
732.917
692.071
490.032
228.875
2.7889
16.7041
9.95721
4.68412
2.8615
2.09545
1.69829
1.07605
0.624595
2.77153
15.821
47.6326
112.531
238.11
439.785
637.085
894.148
1173.72
201.732
182.633
2.34391
8.32839
5.64562
4.11651
2.5831
1.90788
1.52381
0.937438
1.14414
6.73213
24.7278
61.6369
131.877
260.096
451.276
784.298
1361.53
2356.91
60.2311
128.985
1.15748
5.08665
3.98269
3.41451
2.70321
1.78086
1.47883
0.841512
2.28224
10.5517
30.808
69.9862
143.065
276.371
481.623
808.365
1457.82
2471.7
140.876
53.0477
0.218737
3.038
2.66688
2.49818
1.81038
1.61818
1.04094
0.75614
3.43098
12.8667
32.8764
70.6603
142.253
274.217
476.372
777.662
1249.69
1330.04
26.1385
11.492
0.0526299
2.01791
1.65195
1.652
1.23942
1.15024
0.620434
0.693875
4.07539
13.6323
30.7345
62.3469
128.797
252.239
462.322
754.437
922.678
1146.68
0.703024
0.488987
0.0135137
0.227482
0.942556
0.92084
0.9076
0.678108
0.358639
0.56791
3.83986
12.3696
23.613
39.8245
105.225
220.243
411.684
629.566
620.267
741.391
38.0677
37.9286
35.2736
28.2304
19.6731
10.9958
3.64074
0.316272
0.0152145
0.0293003
0.302993
0.300064
0.436163
0.620607
1.18888
2.45863
3.56802
4.05751
3.65577
3.12949
17.2973
32.7382
24.5239
16.6414
11.4732
5.87021
1.29757
0.0709691
0.0118023
0.0283381
0.0207516
0.0167405
0.00388815
0.0206076
0.146533
0.683525
1.56094
3.59779
4.80199
4.6264
16.2645
130.238
71.5229
24.8764
13.641
7.51299
2.5603
0.347778
0.028032
0.00339916
0.00447166
0.000831075
0.00108472
0.00161559
0.0977383
0.71719
3.14043
12.6681
17.5762
18.3191
8.34774
191.304
182.733
44.1784
16.7171
8.41319
3.52081
0.800104
0.0567938
0.00169441
0.000626367
0.000203122
0.000500168
0.0017873
0.107809
1.06756
9.20021
52.4295
66.1591
72.2729
3.64356
202.247
173.311
76.7163
19.0782
8.67128
3.95506
1.30804
0.188634
0.00424269
0.000712775
0.000561856
0.00225161
0.0101241
0.195978
1.7914
11.3587
76.7687
89.6372
95.6839
3.50348
118.746
147.376
154.626
22.4488
8.45452
4.06098
1.64389
0.402339
0.0232909
0.00133667
0.00358009
0.0184188
0.0588534
0.374936
2.99858
23.1906
82.8237
97.4803
100.189
3.79332
9.35642
138.033
130.63
21.3799
8.01842
4.09647
1.97926
0.723141
0.115941
0.0115069
0.0369291
0.116106
0.209136
0.7157
4.31183
20.5174
86.1564
99.8844
97.0153
10.9632
6.86586
135.264
63.7501
17.7578
7.80814
4.20007
2.35082
1.16003
0.385625
0.106721
0.187392
0.417383
0.536882
1.226
5.83471
29.174
78.5023
94.8679
98.0363
46.5811
7.99487
139.941
141.91
22.673
8.25108
4.44029
2.58163
1.47031
0.672364
0.3087
0.34692
1.00478
1.06949
1.84847
7.70745
58.4928
105.691
122.227
163.269
163.516
9.61659
145.211
137.251
18.7401
6.00416
3.54482
2.23296
1.40137
0.691072
0.301297
0.32962
0.419098
0.570835
1.4511
10.1899
77.1878
133.065
233.477
274.142
199.46
12.3797
99.3455
122.509
18.2726
5.74471
3.51105
2.36678
1.62884
0.949661
0.466357
0.331457
0.363408
0.649363
3.70318
33.2099
158.724
343.351
404.793
567.44
99.524
31.1371
18.1977
97.7582
17.5698
5.4948
3.90614
2.50749
1.98993
1.23771
0.550921
0.356786
0.418242
1.93598
17.2052
77.8175
220.836
361.166
635.851
504.27
45.5459
82.4704
9.56335
80.098
15.9154
4.65267
3.70836
2.08935
1.66552
1.15891
0.54975
0.384797
1.24285
11.3401
47.9744
127.546
284.655
464.792
734.227
592.357
133.753
75.1105
5.06416
67.2031
14.5535
4.8736
3.5055
2.36458
1.88233
1.21066
0.566256
0.732421
6.35718
29.6489
83.2503
191.221
363.636
621.334
734.575
684.564
264.367
124.992
2.14206
16.5032
9.96718
4.68508
2.86047
2.09594
1.69919
1.07656
0.626611
2.73487
15.7813
47.5847
112.464
238.35
436.994
636.933
891.932
1165.37
87.8962
94.9334
1.62504
8.46656
5.67166
4.11756
2.59352
1.90852
1.52446
0.940442
1.14685
6.70427
24.7002
61.6006
131.823
260.361
451.124
772.426
1320.29
2221.08
39.2636
64.9375
0.696892
5.19303
3.99991
3.41537
2.70573
1.78148
1.48079
0.88571
2.28623
10.5322
30.7881
69.9581
143.02
276.628
478.607
795.182
1407.03
2330.9
65.5217
28.3858
0.163908
2.93059
2.6815
2.49919
1.81741
1.61881
1.04479
0.750818
3.43549
12.8536
32.8632
70.6379
142.212
274.479
473.631
764.389
1204.6
1327.88
7.02517
6.89031
0.0538669
1.25519
1.66088
1.65334
1.24578
1.15102
0.626432
0.696077
4.08051
13.6416
30.7502
62.3736
128.843
252.289
459.573
740.81
926.971
1156.18
0.0479126
0.0859026
0.0139334
0.116334
0.95153
0.927412
0.908997
0.679187
0.35985
0.56876
3.84485
12.3783
23.6264
39.8261
105.269
220.287
408.641
614.838
620.549
744.105
37.7637
37.0186
34.9047
28.2347
19.7058
11.019
3.64155
0.31475
0.0156128
0.0268362
0.32099
0.302041
0.434413
0.610294
1.15153
2.40662
3.50472
3.96513
3.59338
3.09309
16.1547
26.3396
22.1246
16.5328
11.5325
5.91968
1.27571
0.0616335
0.0110046
0.0319276
0.0342219
0.0172742
0.00366152
0.0194436
0.126941
0.679883
1.52928
3.29211
4.37252
4.29942
14.9899
80.6034
54.5624
24.1805
13.7731
7.61359
2.55022
0.322619
0.0243294
0.00297669
0.00436634
0.000799342
0.0010364
0.00141228
0.0761023
0.710437
2.89268
10.3973
14.8474
15.6847
7.58829
122.164
122.386
41.0074
16.772
8.49119
3.52436
0.772251
0.0470308
0.00148271
0.000574871
0.000199321
0.000471173
0.00146228
0.0855139
1.03813
6.61251
36.2512
48.7316
54.5528
3.02838
124.675
122.643
66.2878
18.7943
8.73178
3.95887
1.2888
0.170305
0.00339187
0.000662745
0.000522469
0.00188721
0.00754002
0.173273
1.75361
10.3627
56.752
67.9503
73.1219
2.8094
65.798
105.718
113.185
21.2641
8.45644
4.05577
1.62509
0.381533
0.0187402
0.00114721
0.00293786
0.0144128
0.0470397
0.349039
2.9192
18.2195
62.6681
74.8175
76.8841
3.25581
8.12103
98.6604
97.0428
20.3074
7.98666
4.07951
1.95917
0.702834
0.102274
0.00934907
0.0302264
0.0999419
0.187263
0.683623
4.2373
19.6113
65.329
76.7409
74.3803
7.83259
6.21181
97.2015
57.3127
17.5225
7.76874
4.17718
2.33602
1.14342
0.369158
0.0947945
0.174146
0.37399
0.492501
1.17559
5.70143
27.0798
60.7804
74.6235
75.532
27.0288
6.861
101.195
113.347
21.7364
8.14063
4.39499
2.56234
1.47252
0.673074
0.310276
0.346086
0.861447
0.946938
1.72068
7.30116
49.117
88.6369
103.623
139.368
83.7968
7.79423
102.311
112.009
18.6338
6.02553
3.55629
2.24031
1.4072
0.694268
0.306307
0.33019
0.417005
0.568359
1.43742
10.0378
72.2596
130.316
218.973
272.852
97.3072
9.47949
70.4146
100.637
18.1488
5.7599
3.51878
2.37202
1.6326
0.95209
0.467327
0.33202
0.364373
0.650809
3.70709
33.1669
152.662
328.308
403.617
560.885
53.2196
19.5361
17.0894
81.2827
17.4444
5.50871
3.90827
2.51253
1.99247
1.23866
0.552419
0.357846
0.421638
1.83913
16.9732
77.7821
217.066
360.858
612.822
503.127
39.0167
47.7829
8.89835
66.0026
15.8093
4.66517
3.71066
2.09564
1.67207
1.1621
0.551344
0.381413
1.18276
11.2075
47.819
127.62
282.497
465.381
717.334
593.095
95.5392
53.5063
4.63411
54.2821
14.4463
4.87434
3.50706
2.36501
1.88404
1.21136
0.56769
0.702274
6.27333
29.5475
83.1143
191.471
363.787
612.053
737.078
685.707
147.334
71.407
1.75103
16.3388
9.97515
4.68579
2.85866
2.0963
1.70015
1.07689
0.627584
2.68184
15.7182
47.5014
112.339
238.641
434.829
636.921
889.289
1155.58
42.0536
51.6937
1.13566
8.64439
5.68719
4.11831
2.59941
1.90898
1.52508
0.941789
1.14809
6.66112
24.6513
61.5311
131.714
260.663
451.035
761.496
1281.55
2096.99
22.6468
34.1994
0.408586
5.31867
4.0102
3.41599
2.70874
1.78193
1.48297
0.913021
2.28816
10.4991
30.7486
69.8983
142.921
276.936
475.838
782.591
1359.82
2204.14
25.276
14.7936
0.107099
2.86117
2.69004
2.49992
1.82138
1.61928
1.04725
0.741476
3.43768
12.8284
32.8319
70.5849
142.117
274.791
471.107
752.108
1166.01
1326.08
0.37825
1.93996
0.0372295
0.908657
1.66668
1.65433
1.24918
1.15159
0.629976
0.697279
4.08309
13.6462
30.7579
62.3868
128.865
252.311
457.114
728.813
933.092
1168.99
0.00554686
0.0361549
0.0158052
0.0748327
0.958051
0.931281
0.910033
0.679999
0.360746
0.569345
3.84739
12.3827
23.6332
39.827
105.291
220.306
405.888
601.504
621.041
747.918
37.4988
36.3364
34.5787
28.237
19.7391
11.0428
3.64421
0.314293
0.0164978
0.0266929
0.545898
0.344979
0.433751
0.600411
1.11365
2.35098
3.44113
3.88379
3.53801
3.06234
14.9912
22.4088
20.2401
16.4355
11.6081
5.9781
1.25132
0.0531756
0.0106092
0.0362037
0.0698451
0.0182953
0.00327762
0.0184968
0.106238
0.673098
1.5003
3.0465
3.99899
4.00142
13.828
55.405
42.8252
23.5574
13.9504
7.74156
2.53774
0.295463
0.0210694
0.00270814
0.00456312
0.000784012
0.00101234
0.00122203
0.0542672
0.701831
2.7638
8.83164
12.7677
13.731
7.11005
81.125
86.471
38.2488
16.8741
8.59272
3.52842
0.738916
0.0380616
0.00131349
0.000531629
0.000194592
0.000434077
0.00115088
0.0625124
1.01064
5.62038
26.4915
37.15
42.5545
2.65204
79.9208
89.8237
57.6869
18.5563
8.81085
3.96419
1.26513
0.15034
0.00261224
0.000616795
0.000470904
0.00150993
0.00541957
0.147657
1.71386
9.67122
43.5065
53.1626
57.6496
2.42019
38.5302
78.7573
86.1566
20.2803
8.46576
4.05003
1.60178
0.357441
0.014787
0.000912668
0.00219136
0.0109915
0.0361642
0.319944
2.84949
15.656
48.974
59.0888
60.7908
2.8911
7.20117
73.498
75.3539
19.3917
7.95277
4.05886
1.93478
0.678584
0.0882729
0.00724541
0.0241023
0.0837785
0.163818
0.647201
4.15835
18.7477
51.1908
60.6927
58.7503
6.07157
5.71186
72.8259
51.8547
17.2909
7.72149
4.14904
2.31747
1.12258
0.349662
0.0823867
0.15849
0.332163
0.447541
1.12101
5.56959
25.2018
48.8664
60.3672
60.1389
17.2388
6.01961
76.0861
92.8916
20.9085
8.04205
4.3581
2.55573
1.4739
0.672236
0.310491
0.344289
0.755077
0.854516
1.62103
6.95208
42.0146
75.8868
90.2447
121.805
45.8333
6.53032
75.4445
93.2889
27.6388
3.85649e-06
3.55935
3.85649e-06
1.40918
0.694544
3.85649e-06
0.331066
0.416464
0.566392
1.40893
9.87563
67.6843
127.587
208.434
271.626
52.1488
7.67535
52.5173
84.3455
26.4097
3.85649e-06
3.85649e-06
3.85649e-06
3.85649e-06
3.85649e-06
3.85649e-06
3.85649e-06
3.85649e-06
3.85649e-06
3.85649e-06
26.5245
147.243
315.342
402.787
554.345
35.7732
13.7413
16.2324
68.9282
24.6301
3.85649e-06
3.91029
3.85649e-06
1.99509
1.2393
3.85649e-06
0.358261
0.420067
1.70404
16.665
77.7803
213.953
360.774
592.849
501.944
33.7874
30.657
8.44572
55.5836
21.3013
3.85649e-06
3.71297
3.85649e-06
1.67481
1.16356
3.85649e-06
0.377665
1.09945
11.0321
47.6024
127.708
281.111
466.432
704.021
594.199
67.7932
37.1136
4.33218
45.1449
18.4402
3.85649e-06
3.50857
3.85649e-06
1.88578
1.21175
3.85649e-06
0.660055
6.16266
29.4085
82.918
191.75
364.108
604.286
740.499
691.759
84.1572
42.6134
1.51504
16.2281
14.6057
3.85649e-06
2.85576
3.85649e-06
1.70099
1.07676
3.85649e-06
2.61203
15.6317
47.3829
112.155
238.991
433.256
637.131
886.353
1144.82
20.7411
29.3161
0.809439
8.86016
10.2523
3.85649e-06
2.60056
3.85649e-06
1.5255
0.941052
3.85649e-06
6.6026
24.5813
61.4283
131.547
261.003
451.055
751.517
1245.29
1983.66
8.09263
17.509
0.263261
5.45964
6.70338
3.85649e-06
2.71201
3.85649e-06
1.4851
0.922422
3.85649e-06
10.4524
30.6894
69.8068
142.765
277.304
473.32
770.628
1316.11
2090.19
4.13566
5.07621
0.0729211
2.82302
4.59583
3.85649e-06
1.82203
3.85649e-06
1.04802
0.72715
3.85649e-06
12.791
32.7826
70.5012
141.964
275.162
468.813
740.82
1133.32
1325.01
0.0121354
0.231003
0.0277706
0.750277
1.89073
3.85649e-06
3.85649e-06
3.85649e-06
3.85649e-06
3.85649e-06
3.85649e-06
3.85649e-06
3.85649e-06
3.85649e-06
3.85649e-06
368.939
454.963
718.338
941.231
1185.26
0.000696831
0.0182607
0.0155791
0.0426906
0.332242
2.75826e-05
2.75826e-05
2.75826e-05
2.75826e-05
2.75826e-05
2.75826e-05
2.75826e-05
2.75826e-05
2.75826e-05
2.75826e-05
331.719
403.439
589.445
621.793
753.003
37.2801
35.8224
34.3045
28.2425
19.7744
11.0672
3.65084
0.314576
0.0176928
0.0329968
1.72581
0.492152
0.434129
0.590977
1.07612
2.29222
3.3771
3.81036
3.48704
3.0359
14.0715
19.7184
18.7935
16.3618
11.7012
6.04819
1.22557
0.0456666
0.0103745
0.0405339
0.167977
0.019385
0.00306583
0.0174829
0.086887
0.662987
1.47333
2.84914
3.68389
3.75134
12.7668
40.9197
34.8841
23.0523
14.1809
7.89959
2.52289
0.267357
0.0182592
0.00249719
0.00520044
0.000751553
0.00096351
0.00113203
0.0359082
0.690786
2.67929
7.73033
11.1728
12.2687
6.85863
56.1291
64.3216
35.9554
17.039
8.72065
3.53292
0.700614
0.0301682
0.00116339
0.000488251
0.000191363
0.000413076
0.000997654
0.0420864
0.982701
5.17963
20.491
29.3675
34.3323
2.42085
53.1628
68.1765
50.8198
18.3944
8.91077
3.97185
1.23711
0.129628
0.002063
0.000576041
0.000445734
0.00129323
0.00397291
0.119935
1.6733
9.18043
34.6283
42.9804
46.9537
2.15846
24.2702
60.9644
68.2885
19.5056
8.48484
4.0439
1.5741
0.330597
0.0114487
0.000796918
0.00179737
0.00822873
0.0267422
0.287938
2.78598
14.265
39.6316
48.1019
49.6133
2.62599
6.52776
57.0576
61.1158
18.6417
7.91846
4.03467
1.90635
0.650732
0.0745394
0.0057208
0.0187132
0.0682918
0.139526
0.60716
4.08004
17.9872
41.606
49.4999
47.9204
5.08386
5.32652
56.8664
47.4116
17.0789
7.66671
4.11562
2.29485
1.09748
0.327087
0.0700972
0.140745
0.292377
0.402709
1.06296
5.43865
23.5868
40.8752
50.3131
49.6399
12.59
5.39024
59.5472
78.1817
20.1607
7.94131
4.32224
2.55387
1.47147
0.666782
0.305549
0.337162
0.667592
0.775765
1.53379
6.66523
36.6956
66.3682
80.6553
109.047
29.0171
5.61654
58.2881
79.4482
26.5164
3.85649e-06
3.85649e-06
3.85649e-06
3.85649e-06
3.85649e-06
3.85649e-06
3.85649e-06
3.85649e-06
3.85649e-06
3.85649e-06
10.8438
63.6505
125.061
201.064
270.598
32.694
6.40966
41.4142
72.2617
25.4036
3.85649e-06
3.85649e-06
3.85649e-06
3.85649e-06
3.85649e-06
3.85649e-06
3.85649e-06
3.85649e-06
3.85649e-06
3.85649e-06
25.934
142.433
304.224
402.494
548.414
27.5072
10.4433
15.6137
59.6871
23.7406
3.85649e-06
3.85649e-06
3.85649e-06
3.85649e-06
3.85649e-06
3.85649e-06
3.85649e-06
3.85649e-06
3.85649e-06
3.85649e-06
68.4087
211.447
360.988
575.66
500.837
29.8014
20.9473
8.14804
47.8844
20.5561
3.85649e-06
3.85649e-06
3.85649e-06
3.85649e-06
3.85649e-06
3.85649e-06
3.85649e-06
3.85649e-06
3.85649e-06
3.85649e-06
146.516
280.44
468.036
694.057
595.605
47.0519
25.095
4.1238
38.6338
17.766
3.85649e-06
3.85649e-06
3.85649e-06
3.85649e-06
3.85649e-06
3.85649e-06
3.85649e-06
3.85649e-06
3.85649e-06
3.85649e-06
246.476
364.636
597.896
744.902
700.474
48.7252
26.2939
1.38035
16.1712
14.2786
3.85649e-06
3.85649e-06
3.85649e-06
3.85649e-06
3.85649e-06
3.85649e-06
3.85649e-06
3.85649e-06
3.85649e-06
3.85649e-06
316.92
432.25
637.641
883.243
1133.49
8.51298
16.6289
0.620754
9.10046
10.1781
3.85649e-06
3.85649e-06
3.85649e-06
3.85649e-06
3.85649e-06
3.85649e-06
3.85649e-06
3.85649e-06
3.85649e-06
3.85649e-06
346.662
451.229
742.502
1211.5
1880.16
1.14864
6.92203
0.195919
5.6043
6.74416
3.85649e-06
3.85649e-06
3.85649e-06
3.85649e-06
3.85649e-06
3.85649e-06
3.85649e-06
3.85649e-06
3.85649e-06
3.85649e-06
370.607
471.061
759.322
1275.79
1987.95
0.143339
0.860804
0.0546885
2.80283
4.59727
3.85649e-06
3.85649e-06
3.85649e-06
3.85649e-06
3.85649e-06
3.85649e-06
3.85649e-06
3.85649e-06
3.85649e-06
3.85649e-06
374.641
466.763
730.51
1105.95
1324.96
0.00127504
0.0266143
0.0209376
0.679247
1.89224
3.85649e-06
3.85649e-06
3.85649e-06
3.85649e-06
3.85649e-06
3.85649e-06
3.85649e-06
3.85649e-06
3.85649e-06
3.85649e-06
367.815
452.834
709.287
951.573
1205.18
0.000313821
0.00299328
0.0124005
0.0296914
0.35762
2.75826e-05
2.75826e-05
2.75826e-05
2.75826e-05
2.75826e-05
2.75826e-05
2.75826e-05
2.75826e-05
2.75826e-05
2.75826e-05
330.627
401.019
578.557
622.857
759.581
37.1006
35.4305
34.0814
28.255
19.8121
11.0931
3.66347
0.315978
0.0195761
0.0538765
6.25178
0.903644
0.436949
0.582017
1.03962
2.23079
3.31272
3.74327
3.43879
3.01324
13.2761
17.7282
17.6922
16.3221
11.813
6.13193
1.19976
0.0391244
0.0102373
0.046417
0.407952
0.0216161
0.00271905
0.016575
0.0712007
0.649448
1.44881
2.69162
3.42683
3.55155
11.8198
31.677
29.4843
22.6984
14.472
8.09146
2.50573
0.239188
0.0158829
0.00235054
0.00541814
0.000732275
0.000933253
0.00106032
0.0259963
0.676747
2.6173
6.9462
9.95466
11.1677
6.79133
40.4043
50.2477
34.1429
17.2856
8.87861
3.53776
0.657904
0.0234366
0.00104949
0.000456873
0.000187588
0.000386182
0.000855662
0.0288413
0.953404
4.94655
16.7117
24.1026
28.6551
2.30053
36.7109
53.739
45.4884
18.3318
9.03414
3.98303
1.20475
0.109064
0.00161253
0.000540296
0.000411329
0.00107981
0.00289834
0.0913552
1.63269
8.83297
28.6293
35.9419
39.5398
1.95541
16.576
49.0485
56.3635
18.9314
8.51577
4.03753
1.54218
0.301533
0.00870183
0.000657342
0.0013534
0.00604278
0.0189894
0.253279
2.72751
13.4803
33.2631
40.4251
41.846
2.40605
6.04894
46.1474
51.6506
18.0516
7.88508
4.00705
1.87413
0.619592
0.0615724
0.00435139
0.0141405
0.0540139
0.115091
0.563978
4.00639
17.371
35.1432
41.692
40.4447
4.48572
5.02298
46.2717
43.9476
16.8879
7.60459
4.07684
2.26786
1.06816
0.301943
0.0585045
0.121504
0.254757
0.358405
1.00182
5.31602
22.2624
35.5472
43.245
42.5215
10.295
4.91403
48.5138
67.5876
19.4942
7.8368
4.28579
2.55292
1.46487
0.656661
0.295981
0.324898
0.593599
0.706146
1.45401
6.43071
32.7713
59.3009
73.8356
99.9293
21.3045
4.92206
47.1672
69.2464
25.618
3.85649e-06
3.85649e-06
3.85649e-06
3.85649e-06
3.85649e-06
3.85649e-06
3.85649e-06
3.85649e-06
3.85649e-06
3.85649e-06
10.566
60.2436
122.884
196.204
269.883
23.8125
5.41631
34.4235
63.3284
24.6108
3.85649e-06
3.85649e-06
3.85649e-06
3.85649e-06
3.85649e-06
3.85649e-06
3.85649e-06
3.85649e-06
3.85649e-06
3.85649e-06
25.45
138.2
294.751
402.905
543.599
22.5709
8.16136
15.2166
52.791
23.0108
3.85649e-06
3.85649e-06
3.85649e-06
3.85649e-06
3.85649e-06
3.85649e-06
3.85649e-06
3.85649e-06
3.85649e-06
3.85649e-06
68.819
209.509
361.557
561.006
499.872
25.1678
14.6181
7.96775
42.1919
19.9386
3.85649e-06
3.85649e-06
3.85649e-06
3.85649e-06
3.85649e-06
3.85649e-06
3.85649e-06
3.85649e-06
3.85649e-06
3.85649e-06
147.815
280.409
470.265
687.25
597.276
32.6323
16.8007
3.98242
33.9519
17.2051
3.85649e-06
3.85649e-06
3.85649e-06
3.85649e-06
3.85649e-06
3.85649e-06
3.85649e-06
3.85649e-06
3.85649e-06
3.85649e-06
246.55
365.288
592.762
750.349
710.457
26.999
16.3232
1.30947
16.1802
13.9892
3.85649e-06
3.85649e-06
3.85649e-06
3.85649e-06
3.85649e-06
3.85649e-06
3.85649e-06
3.85649e-06
3.85649e-06
3.85649e-06
316.786
431.613
638.525
880.065
1121.94
2.61173
8.3212
0.529513
9.3726
10.116
3.85649e-06
3.85649e-06
3.85649e-06
3.85649e-06
3.85649e-06
3.85649e-06
3.85649e-06
3.85649e-06
3.85649e-06
3.85649e-06
346.796
451.39
734.473
1180.13
1785.86
0.0576579
1.73203
0.171914
5.75461
6.78622
3.85649e-06
3.85649e-06
3.85649e-06
3.85649e-06
3.85649e-06
3.85649e-06
3.85649e-06
3.85649e-06
3.85649e-06
3.85649e-06
369.267
468.833
748.692
1238.73
1896.37
0.00413458
0.0990564
0.0460577
2.79841
4.59808
3.85649e-06
3.85649e-06
3.85649e-06
3.85649e-06
3.85649e-06
3.85649e-06
3.85649e-06
3.85649e-06
3.85649e-06
3.85649e-06
373.51
464.715
721.155
1083.38
1326.12
0.000768132
0.00821313
0.0146681
0.657137
1.89416
3.85649e-06
3.85649e-06
3.85649e-06
3.85649e-06
3.85649e-06
3.85649e-06
3.85649e-06
3.85649e-06
3.85649e-06
3.85649e-06
366.66
450.741
701.569
964.314
1228.96
0.000262945
0.00116622
0.00831731
0.0286483
0.379576
2.75826e-05
2.75826e-05
2.75826e-05
2.75826e-05
2.75826e-05
2.75826e-05
2.75826e-05
2.75826e-05
2.75826e-05
2.75826e-05
329.462
398.638
568.742
624.276
767.928
36.9564
35.1316
33.9065
28.2782
19.853
11.1211
3.68445
0.318463
0.0220211
0.0613151
11.1262
2.15962
0.441619
0.573558
1.00472
2.16725
3.24835
3.68172
3.39286
2.99397
12.5776
16.185
16.857
16.3257
11.9433
6.23082
1.17548
0.0334564
0.0101353
0.0533524
0.497174
0.0248225
0.00252634
0.0156217
0.0595683
0.632395
1.42733
2.56823
3.22433
3.39491
10.9995
25.3362
25.7647
22.524
14.8289
8.32223
2.48633
0.211682
0.0138905
0.00221
0.00473188
0.000694095
0.000884177
0.0010164
0.0213181
0.659156
2.57178
6.38879
9.03638
10.3414
6.86846
30.2215
41.1047
32.8184
17.6384
9.07105
3.54284
0.611431
0.0178679
0.000943684
0.000419468
0.000184723
0.000369263
0.000777776
0.0223919
0.92219
4.81052
14.2885
20.5447
24.726
2.29443
26.3761
44.0655
41.4931
18.381
9.18387
3.99904
1.16806
0.0894943
0.0012945
0.000506434
0.000394285
0.000957372
0.00222703
0.0646501
1.59238
8.60662
24.5787
31.1058
34.4337
1.78248
12.3014
41.0294
48.3919
18.5446
8.56047
4.03102
1.50631
0.27082
0.00649966
0.000588148
0.00113356
0.00440238
0.0129511
0.216429
2.674
13.0462
28.9673
35.1171
36.4976
2.20094
5.70862
38.8566
45.3401
17.6094
7.85376
3.97613
1.83832
0.585468
0.0497454
0.00339138
0.0104041
0.0413683
0.0912639
0.517927
3.94032
16.9287
30.854
36.2941
35.3451
4.07018
4.80089
39.2027
41.3857
16.7166
7.53516
4.03262
2.23632
1.0347
0.27479
0.0479952
0.101561
0.219273
0.314882
0.937791
5.20615
21.2436
32.0596
38.3365
37.7809
9.02104
4.54556
41.1254
60.0057
18.9076
7.72758
4.2476
2.5501
1.45412
0.642171
0.282443