/*--------------------------------*- C++ -*----------------------------------*\
| =========                 |                                                 |
| \\      /  F ield         | OpenFOAM: The Open Source CFD Toolbox           |
|  \\    /   O peration     | Version:  2.3.0                                 |
|   \\  /    A nd           | Web:      www.OpenFOAM.org                      |
|    \\/     M anipulation  |                                                 |
\*---------------------------------------------------------------------------*/
FoamFile
{
    version     2.0;
    format      ascii;
    class       surfaceScalarField;
    location    "0.08";
    object      phi.air;
}
// * * * * * * * * * * * * * * * * * * * * * * * * * * * * * * * * * * * * * //

dimensions      [0 3 -1 0 0 0 0];

internalField   nonuniform List<scalar> 
11770
(
-3.55753e-06
7.90582e-05
1.44635e-06
7.29767e-05
2.3265e-06
7.69903e-05
2.39956e-06
7.80206e-05
2.6912e-06
7.84462e-05
3.268e-06
7.8814e-05
3.88332e-06
7.93035e-05
4.31032e-06
7.98444e-05
4.35738e-06
8.04241e-05
4.04793e-06
8.0881e-05
3.47963e-06
8.11946e-05
2.73703e-06
8.13906e-05
1.8932e-06
8.15028e-05
9.85092e-07
8.15632e-05
2.74008e-08
8.16048e-05
-9.71597e-07
8.16333e-05
-1.89858e-06
8.15683e-05
-2.75016e-06
8.14966e-05
-3.4968e-06
8.13806e-05
-4.06612e-06
8.11819e-05
-4.37585e-06
8.08674e-05
-4.32658e-06
8.04078e-05
-3.90508e-06
7.98325e-05
-3.29869e-06
7.92928e-05
-2.72597e-06
7.87974e-05
-2.44629e-06
7.84347e-05
-2.39933e-06
7.80201e-05
-1.50852e-06
7.69658e-05
3.50338e-06
7.2967e-05
7.9016e-05
5.28978e-06
7.04751e-05
5.07756e-06
6.76176e-05
6.31894e-06
6.99542e-05
7.35587e-06
7.10633e-05
7.97236e-06
7.18651e-05
8.09138e-06
7.26858e-05
7.76244e-06
7.35889e-05
7.15358e-06
7.44178e-05
6.38845e-06
7.5161e-05
5.48358e-06
7.57648e-05
4.47076e-06
7.61913e-05
3.39376e-06
7.64589e-05
2.27086e-06
7.66156e-05
1.12721e-06
7.66961e-05
-2.01877e-08
7.67384e-05
-1.15638e-06
7.67594e-05
-2.29529e-06
7.67015e-05
-3.41649e-06
7.66125e-05
-4.49469e-06
7.64541e-05
-5.51029e-06
7.61852e-05
-6.41762e-06
7.57588e-05
-7.18776e-06
7.51557e-05
-7.79762e-06
7.44156e-05
-8.12811e-06
7.35894e-05
-8.01026e-06
7.26809e-05
-7.39828e-06
7.18672e-05
-6.36235e-06
7.10786e-05
-5.09218e-06
6.99249e-05
-5.26971e-06
6.7594e-05
7.04509e-05
3.90853e-06
6.42372e-05
6.19649e-06
6.32931e-05
9.52484e-06
6.47607e-05
1.18902e-05
6.6746e-05
1.27937e-05
6.86942e-05
1.24701e-05
7.04043e-05
1.14195e-05
7.17583e-05
1.00007e-05
7.27572e-05
8.48208e-06
7.34699e-05
6.97524e-06
7.3988e-05
5.50073e-06
7.43359e-05
4.06011e-06
7.45498e-05
2.65016e-06
7.46674e-05
1.27482e-06
7.47198e-05
-5.76111e-08
7.47291e-05
-1.34202e-06
7.47179e-05
-2.69424e-06
7.4719e-05
-4.09342e-06
7.4671e-05
-5.52822e-06
7.45571e-05
-7.00059e-06
7.43454e-05
-8.50891e-06
7.40006e-05
-1.00305e-05
7.34851e-05
-1.14482e-05
7.27736e-05
-1.24964e-05
7.17764e-05
-1.28213e-05
7.04198e-05
-1.19045e-05
6.8703e-05
-9.50043e-06
6.67426e-05
-6.17887e-06
6.47364e-05
-3.89969e-06
6.32736e-05
6.42186e-05
1.52302e-06
6.03638e-05
6.46249e-06
5.69286e-05
1.10345e-05
5.85063e-05
1.4171e-05
6.19256e-05
1.52365e-05
6.59898e-05
1.45062e-05
6.95398e-05
1.30106e-05
7.17745e-05
1.12216e-05
7.31258e-05
9.36393e-06
7.39165e-05
7.57862e-06
7.43535e-05
5.8998e-06
7.45847e-05
4.3094e-06
7.46964e-05
2.80045e-06
7.47314e-05
1.35658e-06
7.47227e-05
-3.73489e-08
7.46923e-05
-1.41104e-06
7.46648e-05
-2.84059e-06
7.47111e-05
-4.34137e-06
7.47305e-05
-5.92384e-06
7.47007e-05
-7.59724e-06
7.45939e-05
-9.37961e-06
7.43675e-05
-1.12373e-05
7.39348e-05
-1.3031e-05
7.31478e-05
-1.45315e-05
7.17975e-05
-1.52737e-05
6.9563e-05
-1.41987e-05
6.59855e-05
-1.10361e-05
6.18919e-05
-6.44589e-06
5.84612e-05
-1.51372e-06
5.69129e-05
6.03573e-05
-2.81137e-07
5.82706e-05
5.79552e-06
5.02207e-05
1.17856e-05
5.17611e-05
1.60536e-05
5.67006e-05
1.76529e-05
6.31881e-05
1.67681e-05
6.90227e-05
1.4585e-05
7.2459e-05
1.21517e-05
7.40458e-05
9.87603e-06
7.46829e-05
7.84621e-06
7.48726e-05
6.03141e-06
7.48799e-05
4.3855e-06
7.48161e-05
2.85755e-06
7.47259e-05
1.40451e-06
7.46362e-05
-1.08484e-08
7.45641e-05
-1.43396e-06
7.45403e-05
-2.88528e-06
7.46194e-05
-4.40969e-06
7.47177e-05
-6.05064e-06
7.48117e-05
-7.86141e-06
7.48813e-05
-9.88779e-06
7.48802e-05
-1.21652e-05
7.46998e-05
-1.46059e-05
7.40724e-05
-1.68074e-05
7.24977e-05
-1.77153e-05
6.90662e-05
-1.61171e-05
6.31842e-05
-1.18184e-05
5.66383e-05
-5.78608e-06
5.16753e-05
3.03314e-07
5.01903e-05
5.8282e-05
6.7913e-07
5.62469e-05
5.36877e-06
4.53911e-05
1.09662e-05
4.62132e-05
1.54243e-05
5.21078e-05
1.7642e-05
6.05387e-05
1.73543e-05
6.85525e-05
1.52255e-05
7.35368e-05
1.25212e-05
7.55534e-05
9.97711e-06
7.5984e-05
7.78598e-06
7.58097e-05
5.91351e-06
7.54941e-05
4.2726e-06
7.51928e-05
2.78138e-06
7.49442e-05
1.37578e-06
7.47605e-05
7.82588e-10
7.46506e-05
-1.38897e-06
7.46368e-05
-2.80017e-06
7.47444e-05
-4.29053e-06
7.49302e-05
-5.92846e-06
7.51797e-05
-7.79607e-06
7.54848e-05
-9.98343e-06
7.58077e-05
-1.25265e-05
7.59951e-05
-1.52388e-05
7.55843e-05
-1.73932e-05
7.35987e-05
-1.77098e-05
6.86276e-05
-1.55186e-05
6.05694e-05
-1.10522e-05
5.20515e-05
-5.4208e-06
4.61053e-05
-6.82402e-07
4.53157e-05
5.62374e-05
3.67509e-06
5.25112e-05
6.0578e-06
4.28392e-05
9.37285e-06
4.2943e-05
1.23497e-05
4.91732e-05
1.42699e-05
5.85438e-05
1.46441e-05
6.79439e-05
1.34383e-05
7.43102e-05
1.13415e-05
7.70641e-05
9.1096e-06
7.75541e-05
7.09348e-06
7.71375e-05
5.3596e-06
7.65327e-05
3.853e-06
7.60005e-05
2.5006e-06
7.55944e-05
1.23572e-06
7.53196e-05
-1.11427e-09
7.5177e-05
-1.24727e-06
7.51703e-05
-2.51749e-06
7.53058e-05
-3.86962e-06
7.55771e-05
-5.37196e-06
7.598e-05
-7.09781e-06
7.65122e-05
-9.10339e-06
7.71219e-05
-1.13244e-05
7.75516e-05
-1.34152e-05
7.70881e-05
-1.46288e-05
7.43823e-05
-1.42815e-05
6.80534e-05
-1.24239e-05
5.86453e-05
-9.51256e-06
4.92011e-05
-6.2527e-06
4.291e-05
-3.79584e-06
4.27071e-05
5.23784e-05
5.87249e-06
4.68593e-05
7.35519e-06
4.11437e-05
8.07559e-06
4.1988e-05
8.59942e-06
4.85032e-05
9.19686e-06
5.78114e-05
9.75961e-06
6.73186e-05
9.65303e-06
7.43205e-05
8.72495e-06
7.78109e-05
7.33562e-06
7.86864e-05
5.85413e-06
7.832e-05
4.47103e-06
7.76011e-05
3.22808e-06
7.69248e-05
2.09623e-06
7.64063e-05
1.03208e-06
7.60624e-05
-8.00493e-09
7.58937e-05
-1.05021e-06
7.58892e-05
-2.11572e-06
7.605e-05
-3.24563e-06
7.63869e-05
-4.48243e-06
7.6898e-05
-5.85325e-06
7.75681e-05
-7.31447e-06
7.82838e-05
-8.67503e-06
7.8655e-05
-9.56793e-06
7.78006e-05
-9.64259e-06
7.43629e-05
-9.07508e-06
6.74291e-05
-8.54555e-06
5.79863e-05
-8.22588e-06
4.87392e-05
-7.71443e-06
4.21762e-05
-6.1362e-06
4.09692e-05
4.65124e-05
6.5865e-06
4.02128e-05
8.33414e-06
3.92207e-05
7.06961e-06
4.27508e-05
4.9728e-06
5.01202e-05
4.12104e-06
5.8367e-05
4.57673e-06
6.6781e-05
5.31601e-06
7.35604e-05
5.54301e-06
7.75225e-05
5.15325e-06
7.89514e-05
4.38398e-06
7.89123e-05
3.479e-06
7.82997e-05
2.56631e-06
7.76199e-05
1.68369e-06
7.70666e-05
8.2882e-07
7.66928e-05
-1.17462e-08
7.65089e-05
-8.52366e-07
7.65046e-05
-1.70694e-06
7.66802e-05
-2.58695e-06
7.70447e-05
-3.49297e-06
7.75863e-05
-4.38386e-06
7.82523e-05
-5.12772e-06
7.88505e-05
-5.4747e-06
7.88764e-05
-5.18553e-06
7.74489e-05
-4.3648e-06
7.352e-05
-3.83191e-06
6.68149e-05
-4.66725e-06
5.85288e-05
-7.08609e-06
5.06256e-05
-8.69111e-06
4.32008e-05
-6.87853e-06
3.90375e-05
3.96178e-05
6.39354e-06
3.34359e-05
7.98652e-06
3.73892e-05
5.57239e-06
4.43194e-05
1.90864e-06
5.28483e-05
1.80266e-07
5.95889e-05
3.56132e-07
6.63959e-05
1.4788e-06
7.23621e-05
2.51017e-06
7.64195e-05
2.96694e-06
7.83694e-05
2.89678e-06
7.88014e-05
2.49527e-06
7.84831e-05
1.93088e-06
7.79433e-05
1.30046e-06
7.74453e-05
6.45935e-07
7.70903e-05
-1.33768e-08
7.69098e-05
-6.72951e-07
7.69057e-05
-1.32746e-06
7.70775e-05
-1.95629e-06
7.74214e-05
-2.5158e-06
7.79041e-05
-2.90615e-06
7.84237e-05
-2.95354e-06
7.87152e-05
-2.45564e-06
7.8251e-05
-1.35847e-06
7.62765e-05
-1.33368e-07
7.22141e-05
1.87807e-07
6.62719e-05
-1.43086e-06
5.96164e-05
-5.23717e-06
5.33896e-05
-7.89446e-06
4.50583e-05
-6.62376e-06
3.74803e-05
3.26144e-05
5.28914e-06
2.76151e-05
5.94954e-06
3.61598e-05
3.06195e-06
4.60052e-05
-2.06097e-07
5.48312e-05
-2.09029e-06
6.06783e-05
-2.23531e-06
6.60766e-05
-1.2135e-06
7.10917e-05
9.95142e-08
7.49286e-05
1.07017e-06
7.71945e-05
1.52821e-06
7.80954e-05
1.5621e-06
7.81597e-05
1.32528e-06
7.78629e-05
9.37997e-07
7.74984e-05
4.76006e-07
7.72093e-05
-1.4793e-08
7.70548e-05
-5.06249e-07
7.70512e-05
-9.69116e-07
7.71971e-05
-1.35703e-06
7.74747e-05
-1.59312e-06
7.78223e-05
-1.55547e-06
7.80951e-05
-1.08612e-06
7.79957e-05
-9.15907e-08
7.7049e-05
1.26387e-06
7.47369e-05
2.37314e-06
7.08488e-05
2.35782e-06
6.58089e-05
6.40756e-07
6.051e-05
-2.26182e-06
5.50367e-05
-5.52244e-06
4.69336e-05
-5.28724e-06
3.6557e-05
2.67977e-05
3.46746e-06
2.37661e-05
3.23872e-06
3.5332e-05
5.45352e-07
4.70162e-05
-1.26786e-06
5.54556e-05
-2.64578e-06
6.11118e-05
-3.08215e-06
6.57893e-05
-2.51272e-06
7.00073e-05
-1.39622e-06
7.34221e-05
-3.25114e-07
7.5756e-05
3.94602e-07
7.69856e-05
7.27734e-07
7.74061e-05
7.55401e-07
7.73887e-05
5.87401e-07
7.72015e-05
3.09289e-07
7.70117e-05
-1.63529e-08
7.68992e-05
-3.42865e-07
7.68964e-05
-6.23231e-07
7.70016e-05
-7.95041e-07
7.71813e-05
-7.72436e-07
7.73525e-05
-4.46806e-07
7.73476e-05
2.66742e-07
7.68898e-05
1.3321e-06
7.5612e-05
2.45296e-06
7.32193e-05
3.05784e-06
6.97233e-05
2.7181e-06
6.54258e-05
1.53278e-06
6.07592e-05
1.92999e-07
5.52021e-05
-2.2196e-06
4.75033e-05
-3.18755e-06
3.63275e-05
2.32209e-05
1.69619e-06
2.18975e-05
7.02795e-07
3.49882e-05
-6.56643e-07
4.68727e-05
-1.34537e-06
5.50834e-05
-2.21142e-06
6.10521e-05
-2.76859e-06
6.55027e-05
-2.66054e-06
6.91721e-05
-1.99358e-06
7.21298e-05
-1.13155e-06
7.43171e-05
-4.05813e-07
7.56853e-05
5.14707e-08
7.63598e-05
2.5489e-07
7.65787e-05
2.63837e-07
7.65717e-05
1.51912e-07
7.64934e-05
-1.78727e-08
7.64335e-05
-1.88601e-07
7.64318e-05
-3.04719e-07
7.64875e-05
-3.04266e-07
7.65597e-05
-1.14927e-07
7.65557e-05
3.25451e-07
7.63169e-05
1.02427e-06
7.56141e-05
1.85007e-06
7.42055e-05
2.48226e-06
7.1957e-05
2.57154e-06
6.89013e-05
2.08246e-06
6.50811e-05
1.43528e-06
6.04959e-05
1.10384e-06
5.45157e-05
5.68466e-07
4.67112e-05
-1.18447e-06
3.63888e-05
2.18123e-05
1.27425e-07
2.14914e-05
-3.65348e-07
3.42681e-05
-3.8591e-07
4.59716e-05
-7.58388e-07
5.4588e-05
-1.42892e-06
6.08607e-05
-2.01612e-06
6.52395e-05
-2.19363e-06
6.85434e-05
-1.93782e-06
7.11066e-05
-1.40777e-06
7.30493e-05
-8.42123e-07
7.43913e-05
-3.97424e-07
7.5182e-05
-1.25024e-07
7.55639e-05
-3.36785e-09
7.56988e-05
1.53642e-08
7.57178e-05
-1.86129e-08
7.57082e-05
-5.49531e-08
7.57088e-05
-4.26624e-08
7.57183e-05
6.83555e-08
7.56974e-05
3.22127e-07
7.55591e-05
7.35858e-07
7.51693e-05
1.25442e-06
7.43657e-05
1.71801e-06
7.30015e-05
1.89178e-06
7.10118e-05
1.62898e-06
6.83477e-05
1.02265e-06
6.483e-05
5.82249e-07
6.00569e-05
8.72646e-07
5.34187e-05
1.61799e-06
4.51011e-05
1.11395e-06
3.53778e-05
2.26495e-05
-1.49957e-07
2.05593e-05
1.85975e-07
3.34175e-05
2.20991e-07
4.53509e-05
-1.08461e-07
5.42807e-05
-7.27887e-07
6.07094e-05
-1.30447e-06
6.50098e-05
-1.59861e-06
6.80292e-05
-1.58998e-06
7.02882e-05
-1.33915e-06
7.19908e-05
-9.77204e-07
7.32211e-05
-6.27786e-07
7.40199e-05
-3.57605e-07
7.44752e-05
-1.80973e-07
7.46986e-05
-7.96572e-08
7.47893e-05
-1.79233e-08
7.4818e-05
4.12288e-08
7.4821e-05
1.35371e-07
7.4797e-05
2.97777e-07
7.47116e-05
5.44531e-07
7.44942e-05
8.5507e-07
7.40464e-05
1.15504e-06
7.32574e-05
1.3094e-06
7.20385e-05
1.17005e-06
7.03382e-05
6.71893e-07
6.803e-05
-1.33291e-07
6.48013e-05
-7.47995e-07
5.99045e-05
-3.64714e-07
5.24318e-05
9.47363e-07
4.33279e-05
2.11364e-06
3.37009e-05
2.37053e-05
1.00264e-06
1.83957e-05
4.41753e-07
3.34958e-05
2.01806e-07
4.50543e-05
-9.67998e-08
5.38884e-05
-4.67476e-07
6.03213e-05
-8.47569e-07
6.46001e-05
-1.10876e-06
6.74903e-05
-1.19801e-06
6.95641e-05
-1.1202e-06
7.10889e-05
-9.21829e-07
7.21905e-05
-6.81244e-07
7.294e-05
-4.55143e-07
7.34047e-05
-2.71587e-07
7.36667e-05
-1.30857e-07
7.37976e-05
-1.58353e-08
7.38508e-05
9.72702e-08
7.38558e-05
2.31411e-07
7.38122e-05
4.01725e-07
7.36933e-05
6.04597e-07
7.34477e-05
8.06043e-07
7.30068e-05
9.38936e-07
7.22942e-05
9.05598e-07
7.12502e-05
6.1733e-07
6.98151e-05
1.9368e-08
6.7836e-05
-8.68347e-07
6.49381e-05
-1.79332e-06
6.01897e-05
-1.90762e-06
5.2278e-05
-1.10181e-06
4.2501e-05
9.68868e-07
3.15771e-05
2.33013e-05
1.04873e-06
1.64282e-05
4.72654e-07
3.33054e-05
-2.21608e-07
4.47316e-05
-4.85829e-07
5.31967e-05
-4.62945e-07
5.94622e-05
-5.63079e-07
6.38941e-05
-7.27201e-07
6.68392e-05
-8.38087e-07
6.88546e-05
-8.54677e-07
7.02757e-05
-7.68423e-07
7.1268e-05
-6.20336e-07
7.19496e-05
-4.51595e-07
7.23897e-05
-2.89793e-07
7.26555e-05
-1.44465e-07
7.2801e-05
-1.14994e-08
7.28657e-05
1.2068e-07
7.28717e-05
2.62044e-07
7.28199e-05
4.15577e-07
7.2691e-05
5.6886e-07
7.24491e-05
6.9032e-07
7.20453e-05
7.29825e-07
7.14225e-05
6.30015e-07
7.0528e-05
3.60412e-07
6.92771e-05
-9.18334e-08
6.7503e-05
-7.05653e-07
6.48115e-05
-1.44381e-06
6.02499e-05
-2.13654e-06
5.2597e-05
-2.45065e-06
4.2645e-05
-1.41777e-06
3.05338e-05
2.0186e-05
-5.57725e-07
1.62985e-05
-3.26586e-07
3.17251e-05
-7.45976e-07
4.35148e-05
-5.73418e-07
5.1921e-05
-2.32161e-07
5.83295e-05
-1.94206e-07
6.30295e-05
-3.32218e-07
6.61476e-05
-4.81975e-07
6.81693e-05
-5.68069e-07
6.95232e-05
-5.66339e-07
7.04263e-05
-4.95199e-07
7.10367e-05
-3.85157e-07
7.14359e-05
-2.59485e-07
7.16846e-05
-1.3147e-07
7.18266e-05
-5.25174e-09
7.18925e-05
1.21366e-07
7.18982e-05
2.49503e-07
7.18457e-05
3.75446e-07
7.17205e-05
4.85419e-07
7.14967e-05
5.56015e-07
7.11356e-05
5.55601e-07
7.05885e-05
4.63763e-07
6.97918e-05
3.02028e-07
6.86211e-05
1.05783e-07
6.68939e-05
-4.54897e-08
6.41773e-05
-2.13176e-07
5.96644e-05
-1.66087e-06
5.29503e-05
-2.75003e-06
4.30056e-05
-2.72965e-06
3.04419e-05
1.60252e-05
-1.40719e-06
1.72868e-05
-2.17958e-06
3.03859e-05
-1.43712e-06
4.14678e-05
4.43728e-09
4.94625e-05
5.10084e-07
5.68789e-05
4.0413e-07
6.23057e-05
1.50533e-07
6.55547e-05
-9.72255e-08
6.75702e-05
-2.66806e-07
6.88465e-05
-3.43748e-07
6.96584e-05
-3.42025e-07
7.01912e-05
-2.88149e-07
7.0538e-05
-2.03731e-07
7.07557e-05
-1.04155e-07
7.08822e-05
1.50183e-09
7.09416e-05
1.08733e-07
7.09459e-05
2.13154e-07
7.08964e-05
3.07532e-07
7.07819e-05
3.79848e-07
7.05811e-05
4.13781e-07
7.02597e-05
3.92451e-07
6.9769e-05
3.18675e-07
6.90274e-05
2.33419e-07
6.78751e-05
2.10402e-07
6.60924e-05
3.4899e-07
6.32221e-05
3.96197e-07
5.87335e-05
-7.9825e-07
5.27232e-05
-1.8558e-06
4.26111e-05
-1.69526e-06
2.98435e-05
1.3542e-05
-1.43516e-06
1.87993e-05
-3.61213e-06
3.05854e-05
-1.39108e-06
3.89054e-05
1.60108e-06
4.62773e-05
2.05241e-06
5.56069e-05
1.32425e-06
6.21075e-05
7.35206e-07
6.52823e-05
3.02911e-07
6.71549e-05
2.5708e-08
6.8278e-05
-1.30631e-07
6.89694e-05
-1.91532e-07
6.94073e-05
-1.87408e-07
6.96887e-05
-1.4212e-07
6.98648e-05
-7.32313e-08
6.99674e-05
6.87025e-09
7.00153e-05
8.94651e-08
7.00171e-05
1.66802e-07
6.99729e-05
2.29376e-07
6.98734e-05
2.65955e-07
6.9699e-05
2.63853e-07
6.94165e-05
2.13392e-07
6.8974e-05
1.21616e-07
6.82752e-05
1.56161e-08
6.71422e-05
-2.54297e-08
6.53049e-05
7.83136e-08
6.22809e-05
3.60524e-07
5.75312e-05
8.2135e-07
5.10408e-05
3.99098e-07
4.11428e-05
8.85239e-08
2.78857e-05
1.34349e-05
-1.96168e-06
1.99277e-05
-1.95681e-06
2.84635e-05
1.69816e-06
3.57876e-05
4.32438e-06
4.60771e-05
4.14673e-06
5.64027e-05
2.42037e-06
6.30026e-05
1.30409e-06
6.55981e-05
6.38555e-07
6.69988e-05
2.51836e-07
6.78331e-05
3.41863e-08
6.83491e-05
-7.26012e-08
6.86729e-05
-1.04822e-07
6.88776e-05
-8.98526e-08
6.90054e-05
-4.69175e-08
6.90793e-05
9.61304e-09
6.91132e-05
6.87171e-08
6.91123e-05
1.20366e-07
6.90759e-05
1.53448e-07
6.89952e-05
1.5553e-07
6.88523e-05
1.12717e-07
6.86154e-05
1.23858e-08
6.82311e-05
-1.49998e-07
6.75956e-05
-3.85289e-07
6.65329e-05
-6.67254e-07
6.47283e-05
-8.94388e-07
6.16423e-05
-3.43989e-07
5.60095e-05
2.10151e-06
4.77175e-05
2.95931e-06
3.87276e-05
1.04368e-06
2.67252e-05
1.47805e-05
-8.14959e-07
1.70373e-05
3.51569e-06
2.42271e-05
5.25895e-06
3.49228e-05
4.84142e-06
4.73848e-05
4.00734e-06
5.80221e-05
2.56403e-06
6.40384e-05
1.4177e-06
6.60151e-05
7.34272e-07
6.68943e-05
3.37215e-07
6.74188e-05
1.10136e-07
6.77511e-05
-7.73355e-09
6.7958e-05
-5.49422e-08
6.80879e-05
-5.60866e-08
6.81673e-05
-2.98859e-08
6.82127e-05
9.61182e-09
6.82328e-05
5.05462e-08
6.82304e-05
8.14424e-08
6.82041e-05
9.04431e-08
6.8146e-05
6.28565e-08
6.80409e-05
-2.08431e-08
6.7862e-05
-1.82695e-07
6.75584e-05
-4.62016e-07
6.70422e-05
-9.29369e-07
6.61629e-05
-1.68387e-06
6.4626e-05
-2.82768e-06
6.19021e-05
-2.48202e-06
5.53978e-05
9.60605e-07
4.51288e-05
3.96101e-06
3.57086e-05
1.51253e-06
2.65868e-05
1.66364e-05
1.6939e-06
1.25511e-05
6.14481e-06
2.0614e-05
5.35233e-06
3.58479e-05
3.68393e-06
4.89914e-05
1.64301e-06
5.87982e-05
1.45173e-06
6.37439e-05
9.45423e-07
6.5769e-05
5.33491e-07
6.65211e-05
2.55394e-07
6.68935e-05
8.7047e-08
6.71041e-05
-4.3886e-09
6.72258e-05
-4.19563e-08
6.7297e-05
-4.3207e-08
6.73372e-05
-2.28983e-08
6.73595e-05
7.71836e-09
6.73687e-05
3.77105e-08
6.73669e-05
5.59069e-08
6.73525e-05
5.03866e-08
6.73192e-05
4.39986e-09
6.72564e-05
-1.04769e-07
6.71437e-05
-3.14494e-07
6.69454e-05
-6.88769e-07
6.66005e-05
-1.34337e-06
6.6013e-05
-2.45578e-06
6.49719e-05
-4.1399e-06
6.28645e-05
-4.66635e-06
5.66237e-05
-3.41286e-06
4.56076e-05
2.47827e-07
3.31927e-05
2.46087e-06
2.3281e-05
1.71476e-05
2.04767e-06
9.38565e-06
4.75749e-06
1.91009e-05
4.52935e-06
3.58214e-05
1.87339e-06
4.90913e-05
4.38227e-07
5.90703e-05
3.48771e-07
6.30818e-05
3.24507e-07
6.49961e-05
2.02624e-07
6.58409e-05
8.16067e-08
6.62055e-05
-1.41134e-09
6.63725e-05
-4.50494e-08
6.64503e-05
-5.7325e-08
6.64864e-05
-4.6934e-08
6.6502e-05
-2.35583e-08
6.651e-05
5.94903e-09
6.65126e-05
3.25427e-08
6.65136e-05
4.73993e-08
6.65113e-05
4.00093e-08
6.65013e-05
-5.73463e-09
6.64787e-05
-1.10863e-07
6.64289e-05
-3.11142e-07
6.63311e-05
-6.60114e-07
6.61446e-05
-1.23115e-06
6.58006e-05
-2.10523e-06
6.51193e-05
-2.9988e-06
6.32784e-05
-4.57083e-06
5.79989e-05
-6.71229e-06
4.81772e-05
-4.14984e-06
3.33511e-05
5.44969e-07
1.99591e-05
1.31341e-05
8.8013e-07
7.36873e-06
4.26186e-06
1.75087e-05
3.33832e-06
3.44857e-05
4.92213e-07
4.96065e-05
-1.86194e-08
5.88279e-05
-2.35649e-07
6.24567e-05
-1.45634e-07
6.40969e-05
-1.02839e-07
6.49842e-05
-1.00544e-07
6.5387e-05
-1.05047e-07
6.55584e-05
-1.00965e-07
6.56258e-05
-8.45745e-08
6.56486e-05
-5.8878e-08
6.56539e-05
-2.68782e-08
6.56551e-05
6.36585e-09
6.56565e-05
3.58401e-08
6.56611e-05
5.59266e-08
6.56686e-05
5.77396e-08
6.56776e-05
3.10884e-08
6.56849e-05
-3.97976e-08
6.56817e-05
-1.72465e-07
6.56506e-05
-3.86751e-07
6.55542e-05
-6.84626e-07
6.53077e-05
-1.03165e-06
6.46901e-05
-1.40147e-06
6.30412e-05
-3.32594e-06
5.87709e-05
-5.24866e-06
4.96651e-05
-4.73013e-06
3.3545e-05
-1.37519e-06
1.68675e-05
9.19743e-06
2.76105e-06
4.1228e-06
4.31852e-06
1.57631e-05
1.56464e-06
3.47624e-05
-7.21081e-07
4.9886e-05
-6.97581e-07
5.79102e-05
-5.58392e-07
6.14791e-05
-4.58459e-07
6.31678e-05
-3.28271e-07
6.40347e-05
-2.48294e-07
6.44858e-05
-1.9436e-07
6.46829e-05
-1.51503e-07
6.47608e-05
-1.1052e-07
6.47854e-05
-6.98128e-08
6.47907e-05
-2.82621e-08
6.47912e-05
1.0652e-08
6.47951e-05
4.64798e-08
6.4803e-05
7.65974e-08
6.48166e-05
9.5187e-08
6.48376e-05
9.83808e-08
6.48614e-05
8.03286e-08
6.4881e-05
3.99444e-08
6.48751e-05
-1.64408e-08
6.47987e-05
-6.52004e-08
6.45489e-05
-7.56577e-08
6.38912e-05
-3.19628e-07
6.25063e-05
-1.34822e-06
5.88164e-05
-3.09524e-06
4.91756e-05
-3.21481e-06
3.29404e-05
-1.37682e-06
1.49649e-05
6.37446e-06
3.27268e-06
1.87655e-06
1.34197e-06
1.37074e-05
-1.05195e-06
3.37382e-05
-1.57037e-06
4.87628e-05
-1.18394e-06
5.6474e-05
-8.06582e-07
6.02287e-05
-6.13694e-07
6.21342e-05
-4.56533e-07
6.30494e-05
-3.4037e-07
6.35437e-05
-2.54538e-07
6.37726e-05
-1.86385e-07
6.38692e-05
-1.28526e-07
6.39046e-05
-7.55882e-08
6.39154e-05
-2.60232e-08
6.39193e-05
1.93218e-08
6.39277e-05
6.24434e-08
6.3938e-05
1.04398e-07
6.3953e-05
1.42852e-07
6.39777e-05
1.78125e-07
6.4005e-05
2.13716e-07
6.4025e-05
2.56404e-07
6.40127e-05
3.22639e-07
6.39137e-05
4.41832e-07
6.36115e-05
5.58221e-07
6.29458e-05
6.68497e-07
6.1567e-05
5.25794e-07
5.81181e-05
-1.90219e-06
4.92264e-05
-4.20724e-06
3.21185e-05
-1.41604e-06
1.36117e-05
3.90509e-06
1.98265e-06
1.46454e-06
-2.88567e-07
1.20856e-05
-1.03818e-06
3.29568e-05
-1.30955e-06
4.77157e-05
-1.0813e-06
5.51955e-05
-8.10708e-07
5.90596e-05
-6.0522e-07
6.10843e-05
-4.8145e-07
6.20902e-05
-3.68857e-07
6.26027e-05
-2.76563e-07
6.28545e-05
-1.99922e-07
6.29684e-05
-1.34127e-07
6.30157e-05
-7.49444e-08
6.30341e-05
-1.97306e-08
6.30424e-05
3.11877e-08
6.30556e-05
8.09401e-08
6.30668e-05
1.33838e-07
6.3079e-05
1.89296e-07
6.31008e-05
2.51316e-07
6.31212e-05
3.2704e-07
6.31273e-05
4.27904e-07
6.30895e-05
5.72522e-07
6.29463e-05
7.81655e-07
6.25778e-05
1.02042e-06
6.18725e-05
1.47303e-06
6.02713e-05
1.82753e-06
5.68011e-05
9.5383e-08
4.8989e-05
-4.37095e-06
3.29441e-05
-3.86232e-06
1.21944e-05
7.02116e-07
1.29221e-06
-7.5144e-07
1.1397e-06
1.30236e-05
6.98276e-07
3.39673e-05
-1.65307e-07
4.78475e-05
-4.84714e-07
5.46501e-05
-5.34271e-07
5.8255e-05
-4.83487e-07
6.01965e-05
-4.21428e-07
6.11974e-05
-3.42481e-07
6.16976e-05
-2.63788e-07
6.19516e-05
-1.91586e-07
6.20733e-05
-1.26318e-07
6.21286e-05
-6.68537e-08
6.21534e-05
-1.01085e-08
6.21653e-05
4.40211e-08
6.21813e-05
9.86281e-08
6.2192e-05
1.58045e-07
6.21993e-05
2.24153e-07
6.22138e-05
3.02513e-07
6.22214e-05
4.00571e-07
6.22069e-05
5.29775e-07
6.2137e-05
7.04956e-07
6.19461e-05
9.34038e-07
6.15188e-05
1.28467e-06
6.06906e-05
1.80783e-06
5.88675e-05
2.37014e-06
5.52037e-05
2.08992e-06
4.76924e-05
-1.02306e-06
3.27728e-05
-4.23009e-06
1.11257e-05
-1.79707e-06
1.27841e-06
-3.9187e-06
1.95432e-06
1.36246e-05
1.31193e-06
3.51234e-05
6.43491e-07
4.82622e-05
2.00528e-08
5.45585e-05
-2.44937e-07
5.7725e-05
-3.31504e-07
5.94642e-05
-3.28725e-07
6.03743e-05
-2.86839e-07
6.08347e-05
-2.28518e-07
6.10726e-05
-1.67285e-07
6.11919e-05
-1.08255e-07
6.12499e-05
-5.24503e-08
6.12783e-05
1.75887e-09
6.12926e-05
5.59227e-08
6.13092e-05
1.12108e-07
6.13179e-05
1.7287e-07
6.13197e-05
2.42328e-07
6.13248e-05
3.25242e-07
6.13184e-05
4.27365e-07
6.12834e-05
5.56254e-07
6.11854e-05
7.1917e-07
6.09579e-05
9.17763e-07
6.04888e-05
1.21347e-06
5.95569e-05
1.56116e-06
5.76329e-05
1.86345e-06
5.39185e-05
1.711e-06
4.66848e-05
5.48113e-07
3.2834e-05
-2.55263e-06
1.10165e-05
-3.40986e-06
4.30141e-07
-5.99152e-06
1.23513e-06
1.27609e-05
9.69945e-07
3.52655e-05
6.41776e-07
4.81844e-05
1.36057e-07
5.44017e-05
-1.36261e-07
5.72263e-05
-2.42209e-07
5.87658e-05
-2.56135e-07
5.95752e-05
-2.2956e-07
5.99921e-05
-1.84838e-07
6.02107e-05
-1.34341e-07
6.03239e-05
-8.35769e-08
6.03818e-05
-3.38502e-08
6.04115e-05
1.47899e-08
6.04275e-05
6.55118e-08
6.04426e-05
1.18883e-07
6.04485e-05
1.76187e-07
6.04456e-05
2.41987e-07
6.04415e-05
3.18988e-07
6.0423e-05
4.10397e-07
6.03724e-05
5.1832e-07
6.02563e-05
6.41008e-07
6.00116e-05
7.71419e-07
5.95313e-05
9.09183e-07
5.85873e-05
9.68848e-07
5.67312e-05
8.2459e-07
5.3222e-05
4.38229e-07
4.64389e-05
-1.85651e-07
3.34279e-05
-1.24131e-06
1.20251e-05
-5.73898e-06
1.76703e-07
-7.18134e-06
2.7683e-07
1.18314e-05
3.01363e-07
3.44439e-05
5.34505e-08
4.76928e-05
-1.00308e-07
5.38508e-05
-2.18023e-07
5.65692e-05
-2.35143e-07
5.79858e-05
-2.15425e-07
5.87473e-05
-1.80982e-07
5.9145e-05
-1.40081e-07
5.93552e-05
-9.74161e-08
5.94661e-05
-5.50057e-08
5.95243e-05
-1.30566e-08
5.95549e-05
2.77666e-08
5.95724e-05
7.21351e-08
5.9584e-05
1.19119e-07
5.9587e-05
1.68839e-07
5.95813e-05
2.25746e-07
5.95692e-05
2.90428e-07
5.95418e-05
3.6347e-07
5.94818e-05
4.42568e-07
5.93586e-05
5.19884e-07
5.91147e-05
5.81525e-07
5.86504e-05
5.95534e-07
5.7756e-05
4.85523e-07
5.60397e-05
1.97145e-07
5.27816e-05
-1.99464e-07
4.63438e-05
-3.64924e-07
3.36289e-05
-9.14986e-07
1.23668e-05
-7.91193e-06
4.8304e-07
-7.88e-06
-5.2167e-07
1.0196e-05
-8.9735e-07
3.33167e-05
-8.80339e-07
4.66281e-05
-5.58612e-07
5.27199e-05
-3.92366e-07
5.55971e-05
-2.66404e-07
5.7058e-05
-1.87255e-07
5.78593e-05
-1.34236e-07
5.82797e-05
-9.29337e-08
5.85006e-05
-5.71518e-08
5.8617e-05
-2.39417e-08
5.86781e-05
8.53294e-09
5.87101e-05
4.00892e-08
5.87285e-05
7.56504e-08
5.87362e-05
1.13661e-07
5.87366e-05
1.53097e-07
5.87293e-05
1.97965e-07
5.87112e-05
2.47491e-07
5.86782e-05
3.00553e-07
5.86139e-05
3.5339e-07
5.84901e-05
3.97842e-07
5.82544e-05
4.21492e-07
5.78124e-05
3.98248e-07
5.69691e-05
2.911e-07
5.53542e-05
1.14538e-07
5.22265e-05
-1.3342e-07
4.59329e-05
-2.22983e-07
3.32101e-05
-6.17151e-07
1.19854e-05
-9.55894e-06
8.41862e-07
-8.92302e-06
-1.68959e-06
8.70834e-06
-2.3945e-06
3.17995e-05
-1.60698e-06
4.47592e-05
-8.72387e-07
5.10853e-05
-4.5342e-07
5.43492e-05
-2.36609e-07
5.60272e-05
-1.2583e-07
5.69353e-05
-6.89882e-08
5.74095e-05
-3.54408e-08
5.76546e-05
-1.12484e-08
5.77811e-05
9.76585e-09
5.78461e-05
3.03765e-08
5.78793e-05
5.16987e-08
5.78971e-05
7.62836e-08
5.79016e-05
1.03263e-07
5.78996e-05
1.31424e-07
5.78909e-05
1.62688e-07
5.78695e-05
1.96326e-07
5.78332e-05
2.30637e-07
5.77672e-05
2.62454e-07
5.76451e-05
2.86697e-07
5.74167e-05
2.98226e-07
5.69884e-05
2.91281e-07
5.61664e-05
2.64035e-07
5.45794e-05
2.46097e-07
5.1463e-05
2.15234e-07
4.51441e-05
1.59375e-10
3.23568e-05
-3.63171e-07
1.08334e-05
-1.05121e-05
4.59405e-07
-9.74415e-06
-3.26433e-06
8.84929e-06
-3.28346e-06
3.00203e-05
-1.74566e-06
4.19927e-05
-7.22988e-07
4.91078e-05
-2.45265e-07
5.30389e-05
-6.4041e-08
5.5018e-05
6.86186e-09
5.6047e-05
3.09651e-08
5.65711e-05
3.83307e-08
5.68351e-05
4.18283e-08
5.69672e-05
4.61215e-08
5.70328e-05
5.24612e-08
5.70648e-05
6.20804e-08
5.70797e-05
7.44546e-08
5.70815e-05
8.91667e-08
5.70772e-05
1.05461e-07
5.70668e-05
1.22618e-07
5.70443e-05
1.4028e-07
5.70067e-05
1.56633e-07
5.69408e-05
1.69466e-07
5.68212e-05
1.7692e-07
5.65974e-05
1.80357e-07
5.61727e-05
1.88132e-07
5.53463e-05
2.19818e-07
5.37349e-05
3.07624e-07
5.0543e-05
4.32919e-07
4.4141e-05
2.11842e-07
3.13662e-05
-4.32001e-07
9.63322e-06
-1.13356e-05
-1.07068e-06
-8.72585e-06
-4.46577e-06
1.0296e-05
-2.66243e-06
2.77264e-05
-5.92722e-07
3.90251e-05
1.4458e-07
4.74821e-05
3.04251e-07
5.2013e-05
2.7429e-07
5.42139e-05
2.15738e-07
5.52846e-05
1.63819e-07
5.5808e-05
1.25414e-07
5.60624e-05
9.93987e-08
5.61846e-05
8.31068e-08
5.62424e-05
7.38605e-08
5.62684e-05
7.04193e-08
5.6278e-05
7.02422e-08
5.62766e-05
7.2461e-08
5.627e-05
7.6326e-08
5.62579e-05
7.96094e-08
5.62356e-05
8.12635e-08
5.61988e-05
7.92023e-08
5.61354e-05
7.09957e-08
5.60204e-05
5.53163e-08
5.58027e-05
3.48549e-08
5.53814e-05
1.78047e-08
5.45498e-05
2.56805e-08
5.29102e-05
9.25123e-08
4.96488e-05
2.37048e-07
4.31176e-05
3.58972e-07
3.03637e-05
-3.89253e-07
8.76676e-06
-1.21877e-05
-2.86069e-06
-6.94065e-06
-3.98003e-06
9.25289e-06
-6.55063e-08
2.56141e-05
2.546e-06
3.92928e-05
1.91534e-06
4.79166e-05
1.1431e-06
5.1935e-05
7.05287e-07
5.38239e-05
4.52917e-07
5.47192e-05
3.0308e-07
5.51463e-05
2.11177e-07
5.53464e-05
1.53317e-07
5.54371e-05
1.16122e-07
5.54758e-05
9.17347e-08
5.54901e-05
7.54866e-08
5.54922e-05
6.34941e-08
5.54868e-05
5.40379e-08
5.54776e-05
4.57701e-08
5.54644e-05
3.5809e-08
5.54431e-05
2.17423e-08
5.54093e-05
4.06417e-10
5.53519e-05
-3.18444e-08
5.52463e-05
-7.96388e-08
5.50424e-05
-1.45571e-07
5.46377e-05
-2.32146e-07
5.38244e-05
-3.25616e-07
5.21882e-05
-3.80773e-07
4.88942e-05
-3.47601e-07
4.22336e-05
1.64972e-07
2.94214e-05
1.29236e-07
8.16331e-06
-1.26585e-05
-2.30333e-06
-1.06526e-05
4.48563e-07
7.13932e-06
3.57628e-06
2.5974e-05
4.65125e-06
4.09933e-05
3.12824e-06
4.99378e-05
1.74769e-06
5.2705e-05
1.00879e-06
5.37659e-05
6.20684e-07
5.43045e-05
4.02474e-07
5.45618e-05
2.72758e-07
5.46746e-05
1.91832e-07
5.47179e-05
1.38931e-07
5.47298e-05
1.02601e-07
5.47284e-05
7.59794e-08
5.47214e-05
5.42186e-08
5.47115e-05
3.49134e-08
5.46999e-05
1.60259e-08
5.4686e-05
-5.85437e-09
5.46669e-05
-3.42337e-08
5.46387e-05
-7.37459e-08
5.45913e-05
-1.31213e-07
5.45022e-05
-2.16084e-07
5.43242e-05
-3.41947e-07
5.39595e-05
-5.32153e-07
5.32103e-05
-8.06228e-07
5.16665e-05
-1.17244e-06
4.84738e-05
-1.27902e-06
4.18822e-05
-4.20251e-07
2.87489e-05
8.39488e-07
7.17169e-06
-1.2997e-05
-2.76926e-06
-1.40387e-05
1.56826e-06
4.21703e-06
4.35447e-06
2.63979e-05
3.45718e-06
4.18509e-05
2.29511e-06
5.05667e-05
1.54364e-06
5.2883e-05
9.78319e-07
5.35658e-05
6.34027e-07
5.38635e-05
4.23356e-07
5.39811e-05
2.9121e-07
5.40139e-05
2.05166e-07
5.40111e-05
1.46419e-07
5.39963e-05
1.04006e-07
5.39792e-05
7.10564e-08
5.39634e-05
4.25949e-08
5.39493e-05
1.60768e-08
5.39358e-05
-1.09889e-08
5.39218e-05
-4.22086e-08
5.39062e-05
-8.18593e-08
5.38855e-05
-1.35723e-07
5.38511e-05
-2.12844e-07
5.37842e-05
-3.2766e-07
5.36431e-05
-5.03899e-07
5.33403e-05
-7.82833e-07
5.26978e-05
-1.22793e-06
5.13404e-05
-1.92199e-06
4.84577e-05
-2.37216e-06
4.22118e-05
-1.35067e-06
2.89027e-05
3.58377e-07
6.23491e-06
-1.4989e-05
-3.05864e-06
-1.39032e-05
2.43029e-06
2.17424e-06
2.57979e-06
2.4333e-05
1.1346e-06
4.07283e-05
1.03681e-06
4.98094e-05
9.46906e-07
5.22975e-05
7.1227e-07
5.30469e-05
5.12691e-07
5.32896e-05
3.67016e-07
5.33456e-05
2.6435e-07
5.33326e-05
1.91211e-07
5.32998e-05
1.37245e-07
5.3266e-05
9.5354e-08
5.32373e-05
6.07019e-08
5.32148e-05
2.92789e-08
5.31977e-05
-1.22134e-09
5.31832e-05
-3.32126e-08
5.31702e-05
-7.01727e-08
5.31587e-05
-1.16082e-07
5.3146e-05
-1.76909e-07
5.31255e-05
-2.62048e-07
5.3082e-05
-3.86829e-07
5.29804e-05
-5.76801e-07
5.27445e-05
-8.70172e-07
5.22127e-05
-1.33181e-06
5.1048e-05
-1.98861e-06
4.84785e-05
-2.68103e-06
4.24516e-05
-1.64515e-06
2.86605e-05
-1.3737e-07
5.25896e-06
-1.75562e-05
1.43139e-06
-1.12172e-05
4.92068e-06
4.79533e-07
2.26538e-06
2.29848e-05
-1.57898e-07
4.01014e-05
2.61768e-07
4.87672e-05
3.97767e-07
5.14142e-05
3.87004e-07
5.22991e-05
3.28038e-07
5.25801e-05
2.62745e-07
5.26373e-05
2.04453e-07
5.26155e-05
1.55296e-07
5.25731e-05
1.13866e-07
5.25318e-05
7.80141e-08
5.24981e-05
4.57972e-08
5.24724e-05
1.51482e-08
5.2454e-05
-1.58556e-08
5.24397e-05
-4.93006e-08
5.24286e-05
-8.76165e-08
5.24212e-05
-1.33894e-07
5.24154e-05
-1.9285e-07
5.24065e-05