/*--------------------------------*- C++ -*----------------------------------*\
| =========                 |                                                 |
| \\      /  F ield         | OpenFOAM: The Open Source CFD Toolbox           |
|  \\    /   O peration     | Version:  2.3.0                                 |
|   \\  /    A nd           | Web:      www.OpenFOAM.org                      |
|    \\/     M anipulation  |                                                 |
\*---------------------------------------------------------------------------*/
FoamFile
{
    version     2.0;
    format      ascii;
    class       surfaceScalarField;
    location    "0.08";
    object      phi.particles;
}
// * * * * * * * * * * * * * * * * * * * * * * * * * * * * * * * * * * * * * //

dimensions      [0 3 -1 0 0 0 0];

internalField   nonuniform List<scalar> 
11770
(
1.42571e-06
-1.89432e-05
2.86071e-06
-1.75552e-05
3.89788e-06
-1.75237e-05
4.57602e-06
-1.76443e-05
4.9301e-06
-1.76865e-05
5.00141e-06
-1.75818e-05
4.84232e-06
-1.74375e-05
4.47951e-06
-1.72566e-05
3.96703e-06
-1.71486e-05
3.36701e-06
-1.70789e-05
2.71568e-06
-1.70464e-05
2.04397e-06
-1.70261e-05
1.36295e-06
-1.70236e-05
6.83087e-07
-1.70171e-05
-1.98008e-09
-1.7019e-05
-6.88082e-07
-1.70211e-05
-1.36862e-06
-1.702e-05
-2.05014e-06
-1.70268e-05
-2.72222e-06
-1.70293e-05
-3.37412e-06
-1.70495e-05
-3.97474e-06
-1.70819e-05
-4.488e-06
-1.71518e-05
-4.85172e-06
-1.72598e-05
-5.01118e-06
-1.74408e-05
-4.93895e-06
-1.75843e-05
-4.58372e-06
-1.76883e-05
-3.90336e-06
-1.76466e-05
-2.86355e-06
-1.75358e-05
-1.42676e-06
-1.75665e-05
-1.89291e-05
2.85714e-06
-9.28094e-06
4.07378e-06
-7.35468e-06
5.29394e-06
-6.74931e-06
6.07773e-06
-6.39802e-06
6.42477e-06
-6.1469e-06
6.38784e-06
-5.81345e-06
6.01706e-06
-5.47711e-06
5.40243e-06
-5.17252e-06
4.68838e-06
-4.98901e-06
3.92093e-06
-4.87844e-06
3.13251e-06
-4.82938e-06
2.33786e-06
-4.80265e-06
1.54842e-06
-4.79723e-06
7.6582e-07
-4.79322e-06
-4.35468e-09
-4.79852e-06
-7.7384e-07
-4.80216e-06
-1.5562e-06
-4.79788e-06
-2.34547e-06
-4.80206e-06
-3.14037e-06
-4.80735e-06
-3.92911e-06
-4.8339e-06
-4.69734e-06
-4.88259e-06
-5.41228e-06
-4.99296e-06
-6.02778e-06
-5.17594e-06
-6.39848e-06
-5.48066e-06
-6.4347e-06
-5.81638e-06
-6.0847e-06
-6.14888e-06
-5.29625e-06
-6.40483e-06
-4.07294e-06
-6.75747e-06
-2.85514e-06
-7.35646e-06
-9.28979e-06
3.23804e-06
-7.41651e-06
5.10116e-06
-5.90077e-06
6.82958e-06
-4.41944e-06
7.66266e-06
-3.10395e-06
7.76635e-06
-2.14783e-06
7.40297e-06
-1.54523e-06
6.74967e-06
-1.12763e-06
5.93535e-06
-8.05694e-07
5.06139e-06
-5.7818e-07
4.17755e-06
-4.46998e-07
3.3097e-06
-3.75079e-07
2.4571e-06
-3.46851e-07
1.62415e-06
-3.39053e-07
8.02238e-07
-3.39224e-07
-6.27494e-09
-3.40681e-07
-8.13371e-07
-3.42398e-07
-1.63393e-06
-3.40728e-07
-2.46607e-06
-3.40594e-07
-3.31825e-06
-3.48927e-07
-4.18618e-06
-3.76545e-07
-5.07057e-06
-4.4735e-07
-5.94565e-06
-5.77838e-07
-6.76109e-06
-8.04508e-07
-7.41519e-06
-1.12609e-06
-7.77763e-06
-1.54484e-06
-7.67013e-06
-2.15264e-06
-6.83085e-06
-3.11639e-06
-5.09686e-06
-4.43026e-06
-3.23271e-06
-5.9039e-06
-7.41437e-06
3.33358e-06
-5.70232e-06
5.34036e-06
-3.7805e-06
7.34069e-06
-1.81052e-06
8.47961e-06
1.72086e-08
8.61389e-06
1.44482e-06
8.03205e-06
2.30901e-06
7.12191e-06
2.72806e-06
6.1245e-06
2.94482e-06
5.13505e-06
3.07127e-06
4.19217e-06
3.13772e-06
3.2949e-06
3.16265e-06
2.43836e-06
3.16395e-06
1.60852e-06
3.15418e-06
7.98615e-07
3.14257e-06
-5.73974e-09
3.13347e-06
-8.09569e-07
3.13182e-06
-1.61856e-06
3.14128e-06
-2.44757e-06
3.15336e-06
-3.30345e-06
3.16368e-06
-4.20055e-06
3.16332e-06
-5.14393e-06
3.13975e-06
-6.13501e-06
3.07515e-06
-7.13526e-06
2.95083e-06
-8.0491e-06
2.73581e-06
-8.63266e-06
2.31567e-06
-8.49472e-06
1.4435e-06
-7.34707e-06
5.31301e-09
-5.33618e-06
-1.82939e-06
-3.32463e-06
-3.78951e-06
-5.70072e-06
3.53962e-06
-3.58696e-06
5.44838e-06
-1.06139e-06
7.3945e-06
1.40344e-06
8.65564e-06
3.73778e-06
8.93412e-06
5.66369e-06
8.35028e-06
6.82179e-06
7.31993e-06
7.28652e-06
6.18607e-06
7.38835e-06
5.10456e-06
7.3751e-06
4.11332e-06
7.33506e-06
3.20467e-06
7.28979e-06
2.35748e-06
7.24591e-06
1.5517e-06
7.20777e-06
7.6936e-07
7.17897e-06
-4.93089e-09
7.16202e-06
-7.79187e-07
7.16114e-06
-1.56124e-06
7.17792e-06
-2.36629e-06
7.20701e-06
-3.21277e-06
7.2457e-06
-4.1209e-06
7.29079e-06
-5.11253e-06
7.33803e-06
-6.19605e-06
7.3812e-06
-7.3345e-06
7.39866e-06
-8.37206e-06
7.30148e-06
-8.9631e-06
6.83835e-06
-8.68701e-06
5.67357e-06
-7.4199e-06
3.72992e-06
-5.45825e-06
1.37573e-06
-3.53585e-06
-1.09027e-06
-3.59897e-06
3.93287e-06
-1.74644e-06
5.71636e-06
1.61382e-06
7.31655e-06
4.78652e-06
8.36674e-06
7.79826e-06
8.6362e-06
1.02694e-05
8.15733e-06
1.17544e-05
7.19149e-06
1.23258e-05
6.06488e-06
1.23601e-05
4.96999e-06
1.22075e-05
3.97183e-06
1.20385e-05
3.07129e-06
1.19003e-05
2.24657e-06
1.17957e-05
1.4732e-06
1.17199e-05
7.29056e-07
1.16694e-05
-4.26042e-09
1.16431e-05
-7.38019e-07
1.16424e-05
-1.48205e-06
1.16681e-05
-2.25481e-06
1.17185e-05
-3.0785e-06
1.17946e-05
-3.97803e-06
1.19005e-05
-4.97577e-06
1.20414e-05
-6.07225e-06
1.22149e-05
-7.20436e-06
1.23748e-05
-8.18115e-06
1.23499e-05
-8.67476e-06
1.1786e-05
-8.4231e-06
1.03004e-05
-7.38516e-06
7.81036e-06
-5.77753e-06
4.75914e-06
-3.96502e-06
1.54795e-06
-1.78656e-06
4.40538e-06
-5.554e-07
6.12947e-06
3.96021e-06
7.19513e-06
7.97955e-06
7.73915e-06
1.18056e-05
7.80126e-06
1.48774e-05
7.39001e-06
1.67319e-05
6.62337e-06
1.74705e-05
5.66742e-06
1.75203e-05
4.68255e-06
1.7286e-05
3.75135e-06
1.70094e-05
2.89824e-06
1.67785e-05
2.11548e-06
1.66076e-05
1.38405e-06
1.64888e-05
6.83496e-07
1.64133e-05
-4.12369e-09
1.6376e-05
-6.92022e-07
1.63753e-05
-1.39243e-06
1.64115e-05
-2.12302e-06
1.64864e-05
-2.90425e-06
1.66052e-05
-3.75522e-06
1.6777e-05
-4.68416e-06
1.70104e-05
-5.6679e-06
1.72922e-05
-6.62667e-06
1.75358e-05
-7.40419e-06
1.75005e-05
-7.83835e-06
1.67792e-05
-7.80582e-06
1.49377e-05
-7.30127e-06
1.18623e-05
-6.26058e-06
7.9795e-06
-4.50252e-06
3.8717e-06
-6.32365e-07
4.74762e-06
-1.53588e-07
6.48104e-06
5.67284e-06
6.96539e-06
1.06674e-05
6.82875e-06
1.53435e-05
6.50959e-06
1.91183e-05
6.10888e-06
2.13886e-05
5.6097e-06
2.23515e-05
4.9549e-06
2.24978e-05
4.19997e-06
2.22681e-05
3.42319e-06
2.19354e-05
2.67064e-06
2.16356e-05
1.95879e-06
2.14052e-05
1.28379e-06
2.12438e-05
6.3381e-07
2.1142e-05
-4.19497e-09
2.10925e-05
-6.42257e-07
2.10916e-05
-1.29185e-06
2.11397e-05
-1.96563e-06
2.12403e-05
-2.67516e-06
2.14009e-05
-3.42393e-06
2.16311e-05
-4.19507e-06
2.19321e-05
-4.94319e-06
2.22689e-05
-5.59183e-06
2.25068e-05
-6.0885e-06
2.23777e-05
-6.50257e-06
2.14415e-05
-6.86089e-06
1.92018e-05
-7.07304e-06
1.54488e-05
-6.64768e-06
1.07102e-05
-4.90021e-06
5.59358e-06
-3.20551e-07
4.78752e-06
-6.7265e-07
6.41064e-06
6.66198e-06
6.44119e-06
1.26481e-05
5.66219e-06
1.81456e-05
4.94216e-06
2.26316e-05
4.5381e-06
2.53321e-05
4.29948e-06
2.65978e-05
3.99082e-06
2.69494e-05
3.53526e-06
2.68217e-05
2.97469e-06
2.65143e-05
2.37358e-06
2.61893e-05
1.76515e-06
2.59212e-05
1.16579e-06
2.57258e-05
5.77329e-07
2.56005e-05
-4.37535e-09
2.55396e-05
-5.86002e-07
2.55386e-05
-1.17385e-06
2.55975e-05
-1.77161e-06
2.57208e-05
-2.37694e-06
2.59142e-05
-2.97254e-06
2.61802e-05
-3.52484e-06
2.65037e-05
-3.96622e-06
2.68104e-05
-4.25547e-06
2.69409e-05
-4.46983e-06
2.66012e-05
-4.85549e-06
2.53609e-05
-5.60006e-06
2.27027e-05
-6.4662e-06
1.82591e-05
-6.51627e-06
1.27554e-05
-4.91249e-06
6.58166e-06
-9.22811e-07
4.25204e-06
-1.75886e-06
5.53651e-06
6.95001e-06
5.37874e-06
1.3948e-05
4.38773e-06
2.02406e-05
3.46433e-06
2.52319e-05
3.0597e-06
2.82977e-05
2.98462e-06
2.99245e-05
2.93638e-06
3.05823e-05
2.75891e-06
3.06553e-05
2.43587e-06
3.0457e-05
2.0085e-06
3.01699e-05
1.52817e-06
2.99009e-05
1.02339e-06
2.96913e-05
5.10196e-07
2.95516e-05
-4.74502e-09
2.94823e-05
-5.1955e-07
2.9481e-05
-1.03203e-06
2.95479e-05
-1.53511e-06
2.96846e-05
-2.01206e-06
2.98906e-05
-2.43357e-06
3.0155e-05
-2.74563e-06
3.04361e-05
-2.90552e-06
3.06268e-05
-2.92631e-06
3.05463e-05
-2.95894e-06
2.98859e-05
-3.30718e-06
2.82717e-05
-4.19957e-06
2.52537e-05
-5.16605e-06
2.03266e-05
-5.45446e-06
1.40117e-05
-4.26589e-06
6.85658e-06
-2.03433e-06
2.96187e-06
-2.72642e-06
3.89188e-06
6.79684e-06
3.80849e-06
1.47061e-05
3.14972e-06
2.1829e-05
2.37081e-06
2.70388e-05
1.99255e-06
3.03247e-05
1.94096e-06
3.22733e-05
2.00292e-06
3.32584e-05
2.00167e-06
3.35964e-05
1.86615e-06
3.35684e-05
1.60513e-06
3.33803e-05
1.25714e-06
3.31548e-05
8.57792e-07
3.29595e-05
4.31625e-07
3.28213e-05
-5.38096e-09
3.27495e-05
-4.42308e-07
3.27481e-05
-8.67974e-07
3.28168e-05
-1.2661e-06
3.29513e-05
-1.61167e-06
3.31415e-05
-1.86754e-06
3.33596e-05
-1.99382e-06
3.35372e-05
-1.9797e-06
3.35502e-05
-1.89103e-06
3.31936e-05
-1.89881e-06
3.21897e-05
-2.21334e-06
3.02381e-05
-2.91598e-06
2.70052e-05
-3.53801e-06
2.19361e-05
-3.63691e-06
1.48012e-05
-2.79418e-06
6.74303e-06
-2.91627e-06
1.37704e-06
-3.28403e-06
2.24893e-06
6.47219e-06
2.50929e-06
1.53432e-05
2.20764e-06
2.30279e-05
1.74404e-06
2.83194e-05
1.41474e-06
3.17224e-05
1.30413e-06
3.38631e-05
1.33726e-06
3.509e-05
1.3861e-06
3.56685e-05
1.35362e-06
3.58323e-05
1.21302e-06
3.57747e-05
9.7919e-07
3.5629e-05
6.81842e-07
3.54757e-05
3.46347e-07
3.53578e-05
-6.29108e-09
3.52942e-05
-3.59028e-07
3.5293e-05
-6.94618e-07
3.53533e-05
-9.91942e-07
3.5467e-05
-1.22523e-06
3.56141e-05
-1.36412e-06
3.57509e-05
-1.3924e-06
3.57944e-05
-1.33509e-06
3.56103e-05
-1.28351e-06
3.50044e-05
-1.35931e-06
3.37436e-05
-1.63078e-06
3.15782e-05
-2.00553e-06
2.82127e-05
-2.20867e-06
2.31042e-05
-1.82407e-06
1.56011e-05
-1.10349e-06
6.48421e-06
-3.28772e-06
4.73907e-07
-3.89461e-06
1.28366e-06
6.19442e-06
1.73541e-06
1.5987e-05
1.74189e-06
2.39247e-05
1.48307e-06
2.93428e-05
1.1972e-06
3.28226e-05
1.01708e-06
3.50334e-05
9.62351e-07
3.63727e-05
9.71305e-07
3.71008e-05
9.60361e-07
3.74179e-05
8.81707e-07
3.74866e-05
7.28879e-07
3.74316e-05
5.16237e-07
3.73368e-05
2.64173e-07
3.72526e-05
-7.35391e-09
3.72052e-05
-2.79223e-07
3.72041e-05
-5.32342e-07
3.72489e-05
-7.4683e-07
3.73294e-05
-9.02125e-07
3.74185e-05
-9.83786e-07
3.74644e-05
-9.98281e-07
3.73812e-05
-9.91484e-07
3.70421e-05
-1.04028e-06
3.62799e-05
-1.19623e-06
3.48907e-05
-1.42831e-06
3.26174e-05
-1.56449e-06
2.91066e-05
-1.42199e-06
2.382e-05
-9.52814e-07
1.62635e-05
-2.02479e-07
6.46724e-06
-3.72737e-06
3.80269e-07
-4.83967e-06
1.27686e-06
6.05426e-06
1.7151e-06
1.64833e-05
1.70598e-06
2.47615e-05
1.46944e-06
3.03203e-05
1.17413e-06
3.38396e-05
9.31943e-07
3.6045e-05
7.93726e-07
3.73974e-05
7.35074e-07
3.81817e-05
6.98573e-07
3.8585e-05
6.37164e-07
3.87456e-05
5.30153e-07
3.87694e-05
3.78529e-07
3.87329e-05
1.93829e-07
3.86854e-05
-8.2962e-09
3.86558e-05
-2.111e-07
3.86551e-05
-3.97929e-07
3.86835e-05
-5.53416e-07
3.8729e-05
-6.66341e-07
3.87619e-05
-7.36814e-07
3.87317e-05
-7.86289e-07
3.85602e-05
-8.6027e-07
3.81375e-05
-1.01192e-06
3.73191e-05
-1.24884e-06
3.59045e-05
-1.49852e-06
3.35945e-05
-1.55972e-06
2.99441e-05
-1.31296e-06
2.43475e-05
-7.33115e-07
1.64921e-05
2.23995e-07
6.64228e-06
-4.49377e-06
1.26176e-06
-5.78133e-06
1.87788e-06
5.81602e-06
2.02061e-06
1.69863e-05
1.85289e-06
2.55531e-05
1.54916e-06
3.1291e-05
1.20593e-06
3.4836e-05
9.22473e-07
3.70033e-05
7.29632e-07
3.83242e-05
6.14476e-07
3.911e-05
5.42192e-07
3.95466e-05
4.7506e-07
3.97594e-05
3.89242e-07
3.98383e-05
2.76478e-07
3.98483e-05
1.40469e-07
3.98333e-05
-8.73221e-09
3.98198e-05
-1.58855e-07
3.98202e-05
-2.97887e-07
3.98343e-05
-4.16305e-07
3.98497e-05
-5.11489e-07
3.98396e-05
-5.93458e-07
3.97597e-05
-6.8795e-07
3.95436e-05
-8.34748e-07
3.90982e-05
-1.07018e-06
3.82916e-05
-1.39981e-06
3.69199e-05
-1.74595e-06
3.46422e-05
-1.96482e-06
3.09129e-05
-1.8411e-06
2.50351e-05
-1.20415e-06
1.65793e-05
-3.75493e-07
6.38855e-06
-4.80531e-06
1.83529e-06
-6.68562e-06
1.98533e-06
5.40297e-06
1.9945e-06
1.71384e-05
1.81153e-06
2.62231e-05
1.51355e-06
3.21721e-05
1.19474e-06
3.57607e-05
9.15056e-07
3.79063e-05
7.04013e-07
3.91983e-05
5.57702e-07
3.99703e-05
4.58408e-07
4.04145e-05
3.79769e-07
4.06528e-05
3.0026e-07
4.07651e-05
2.0907e-07
4.08072e-05
1.04618e-07
4.08164e-05
-8.37148e-09
4.0816e-05
-1.22337e-07
4.08174e-05
-2.30144e-07
4.08205e-05
-3.27827e-07
4.08146e-05
-4.18557e-07
4.0777e-05
-5.15525e-07
4.06708e-05
-6.44124e-07
4.04405e-05
-8.37169e-07
4.00059e-05
-1.12189e-06
3.92423e-05
-1.51878e-06
3.79478e-05
-2.01322e-06
3.57502e-05
-2.47726e-06
3.19626e-05
-2.75928e-06
2.57508e-05
-2.63211e-06
1.67848e-05
-1.57075e-06
5.73534e-06
-5.21892e-06
1.32713e-06
-7.20106e-06
1.62413e-06
5.0998e-06
1.71352e-06
1.73608e-05
1.55937e-06
2.69083e-05
1.34521e-06
3.29766e-05
1.10925e-06
3.65813e-05
8.82804e-07
3.87369e-05
6.87505e-07
4.00232e-05
5.3536e-07
4.07874e-05
4.22164e-07
4.12325e-05
3.33318e-07
4.14822e-05
2.5293e-07
4.16127e-05
1.71201e-07
4.16742e-05
8.42818e-08
4.16992e-05
-6.8959e-09
4.17077e-05
-9.89107e-08
4.17098e-05
-1.88728e-07
4.17059e-05
-2.76213e-07
4.16871e-05
-3.66894e-07
4.16344e-05
-4.73359e-07
4.15168e-05
-6.16602e-07
4.12871e-05
-8.20164e-07
4.0872e-05
-1.10364e-06
4.01523e-05
-1.48585e-06
3.89247e-05
-1.98202e-06
3.67979e-05
-2.52921e-06
3.29932e-05
-2.98134e-06
2.62692e-05
-3.20495e-06
1.67634e-05
-2.94671e-06
5.1665e-06
-6.50923e-06
-7.86252e-08
-7.19037e-06
8.53286e-07
5.36413e-06
1.25891e-06
1.8226e-05
1.26804e-06
2.75618e-05
1.16487e-06
3.35509e-05
1.02853e-06
3.72993e-05
8.50636e-07
3.95121e-05
6.79739e-07
4.08128e-05
5.33647e-07
4.15768e-05
4.14918e-07
4.2021e-05
3.18189e-07
4.22736e-05
2.33973e-07
4.24113e-05
1.54599e-07
4.24819e-05
7.56399e-08
4.25151e-05
-4.22274e-09
4.25286e-05
-8.45933e-08
4.25311e-05
-1.652e-07
4.25233e-05
-2.47907e-07
4.24977e-05
-3.38242e-07
4.24384e-05
-4.46076e-07
4.23178e-05
-5.85387e-07
4.2093e-05
-7.69317e-07
4.16934e-05
-1.00516e-06
4.10003e-05
-1.29846e-06
3.98027e-05
-1.65389e-06
3.77017e-05
-2.13931e-06
3.39116e-05
-2.62114e-06
2.70034e-05
-2.78285e-06
1.65266e-05
-2.65653e-06
3.96623e-06
-7.32497e-06
-1.10383e-06
-6.5873e-06
4.38971e-08
6.26e-06
4.9326e-07
1.89987e-05
9.51865e-07
2.79396e-05
1.1141e-06
3.40492e-05
1.00364e-06
3.79643e-05
8.56071e-07
4.02659e-05
6.94277e-07
4.15965e-05
5.47657e-07
4.2361e-05
4.23161e-07
4.27981e-05
3.19237e-07
4.30449e-05
2.30241e-07
4.31804e-05
1.49954e-07
4.32516e-05
7.38467e-08
4.32866e-05
-7.03202e-10
4.33016e-05
-7.53259e-08
4.33041e-05
-1.51242e-07
4.32948e-05
-2.31141e-07
4.32669e-05
-3.19467e-07
4.32062e-05
-4.22816e-07
4.30871e-05
-5.48015e-07
4.28674e-05
-6.99558e-07
4.24759e-05
-8.77512e-07
4.17894e-05
-1.07244e-06
4.05869e-05
-1.28693e-06
3.84685e-05
-1.64128e-06
3.47376e-05
-1.99004e-06
2.80854e-05
-1.69575e-06
1.70408e-05
-9.88957e-07
2.94913e-06
-7.29188e-06
-1.04757e-06
-6.05674e-06
-1.66813e-07
7.25914e-06
6.38448e-07
1.86591e-05
1.10921e-06
2.79965e-05
1.21977e-06
3.47736e-05
1.13666e-06
3.87348e-05
9.42635e-07
4.10906e-05
7.4444e-07
4.24216e-05
5.76234e-07
4.31651e-05
4.38374e-07
4.35803e-05
3.25732e-07
4.38099e-05
2.31751e-07
4.39342e-05
1.49804e-07
4.39992e-05
7.47427e-08
4.40313e-05
2.90079e-09
4.40451e-05
-6.8378e-08
4.40471e-05
-1.41377e-07
4.40377e-05
-2.19028e-07
4.40107e-05
-3.04952e-07
4.39522e-05
-4.03365e-07
4.38376e-05
-5.16764e-07
4.36235e-05
-6.45052e-07
4.32351e-05
-7.85528e-07
4.2541e-05
-9.25112e-07
4.13072e-05
-1.03911e-06
3.91165e-05
-1.05961e-06
3.52688e-05
-9.9694e-07
2.89922e-05
-7.26907e-07
1.85674e-05
6.54894e-07
3.75688e-06
-7.32607e-06
-8.30424e-08
-5.36942e-06
2.30312e-06
7.13888e-06
3.77435e-06
1.71446e-05
2.85436e-06
2.69995e-05
1.95758e-06
3.51983e-05
1.53985e-06
3.9827e-05
1.12344e-06
4.20948e-05
8.26586e-07
4.3328e-05
6.12805e-07
4.40046e-05
4.53513e-07
4.43747e-05
3.30772e-07
4.45745e-05
2.3244e-07
4.468e-05
1.4952e-07
4.47336e-05
7.55756e-08
4.47595e-05
6.00473e-09
4.47704e-05
-6.26327e-08
4.47716e-05
-1.33382e-07
4.47629e-05
-2.0952e-07
4.47389e-05
-2.94793e-07
4.46859e-05
-3.93119e-07
4.45793e-05
-5.069e-07
4.43746e-05
-6.36129e-07
4.39926e-05
-7.72717e-07
4.3292e-05
-8.80573e-07
4.20189e-05
-9.35661e-07
3.97457e-05
-7.56305e-07
3.58615e-05
-1.9999e-07
2.94289e-05
3.27341e-07
1.95845e-05
1.69907e-06
5.50999e-06
-7.09717e-06
3.55221e-06
-5.13391e-06
5.51696e-06
5.58249e-06
5.35012e-06
1.67359e-05
4.33287e-06
2.67705e-05
2.83286e-06
3.56719e-05
1.83248e-06
4.10624e-05
1.2547e-06
4.31876e-05
8.82791e-07
4.42763e-05
6.32845e-07
4.48594e-05
4.57518e-07
4.51707e-05
3.28579e-07
4.53334e-05
2.28774e-07
4.54157e-05
1.46783e-07
4.54555e-05
7.49871e-08
4.54735e-05
8.16624e-09
4.54806e-05
-5.78745e-08
4.5481e-05
-1.26719e-07
4.54744e-05
-2.0235e-07
4.54551e-05
-2.89652e-07
4.54108e-05
-3.946e-07
4.53172e-05
-5.23995e-07
4.51307e-05
-6.85e-07
4.47722e-05
-8.80814e-07
4.40991e-05
-1.09271e-06
4.28516e-05
-1.26331e-06
4.05839e-05
-1.43369e-06
3.64342e-05
-1.19001e-06
2.87634e-05
-1.25413e-07
1.87374e-05
1.25787e-06
6.67316e-06
-6.64336e-06
4.43787e-06
-6.43166e-06
5.20119e-06
4.26864e-06
4.67025e-06
1.60838e-05
3.64904e-06
2.65021e-05
2.63489e-06
3.70846e-05
1.71525e-06
4.22205e-05
1.21026e-06
4.42151e-05
8.56856e-07
4.5189e-05
6.11815e-07
4.56894e-05
4.39832e-07
4.59459e-05
3.14556e-07
4.60734e-05
2.18631e-07
4.61334e-05
1.40553e-07
4.61597e-05
7.25433e-08
4.61701e-05
9.22882e-09
4.61735e-05
-5.37833e-08
4.61737e-05
-1.20524e-07
4.61701e-05
-1.95791e-07
4.61575e-05
-2.86071e-07
4.61246e-05
-4.00582e-07
4.60497e-05
-5.53008e-07
4.5893e-05
-7.64348e-07
4.55816e-05
-1.06895e-06
4.49848e-05
-1.53208e-06
4.38615e-05
-2.12379e-06
4.17221e-05
-3.24099e-06
3.68428e-05
-4.17347e-06
2.82663e-05
-3.73666e-06
1.75019e-05
-1.11283e-06
5.41957e-06
-5.89926e-06
2.26561e-06
-6.99738e-06
2.57202e-06
2.03838e-06
3.07488e-06
1.44385e-05
3.25076e-06
2.82026e-05
2.04092e-06
3.88212e-05
1.37293e-06
4.32459e-05
1.02077e-06
4.51215e-05
7.49496e-07
4.60241e-05
5.47276e-07
4.64681e-05
3.98507e-07
4.6684e-05
2.8761e-07
4.67839e-05
2.01486e-07
4.68261e-05
1.30626e-07
4.68413e-05
6.83157e-08
4.68455e-05
9.69034e-09
4.68464e-05
-4.93248e-08
4.68469e-05
-1.12824e-07
4.68469e-05
-1.86007e-07
4.68419e-05
-2.7632e-07
4.68222e-05
-3.94885e-07
4.67695e-05
-5.59153e-07
4.66487e-05
-7.96635e-07
4.63959e-05
-1.15169e-06
4.58929e-05
-1.70347e-06
4.49102e-05
-2.59995e-06
4.28969e-05
-3.79358e-06
3.75741e-05
-5.07611e-06
2.80558e-05
-6.20788e-06
1.61728e-05
-5.07779e-06
3.34757e-06
-6.31223e-06
5.21377e-07
-6.30913e-06
1.37411e-06
-1.84421e-06
2.91216e-06
1.48723e-05
2.4053e-06
3.09702e-05
1.44711e-06
4.02814e-05
1.02236e-06
4.41354e-05
7.7488e-07
4.59174e-05
5.94339e-07
4.67758e-05
4.5108e-07
4.71883e-05
3.38788e-07
4.73797e-05
2.50296e-07
4.74618e-05
1.78593e-07
4.74918e-05
1.17713e-07
4.74993e-05
6.29494e-08
4.74993e-05
1.03378e-08
4.74987e-05
-4.3218e-08
4.75004e-05
-1.0136e-07
4.7504e-05
-1.69049e-07
4.75065e-05
-2.53173e-07
4.75e-05
-3.64136e-07
4.74687e-05
-5.17668e-07
4.73822e-05
-7.36908e-07
4.71829e-05
-1.0521e-06
4.67597e-05
-1.49357e-06
4.5887e-05
-2.34708e-06
4.40185e-05
-3.39654e-06
3.90341e-05
-4.36674e-06
2.81433e-05
-4.63298e-06
1.4565e-05
-3.77733e-06
2.21917e-06
-7.06788e-06
1.46071e-06
-7.66928e-06
2.24741e-06
-3.15929e-06
2.09283e-06
1.74468e-05
1.33304e-06
3.36302e-05
8.8071e-07
4.14008e-05
6.81707e-07
4.49048e-05
5.32899e-07
4.66101e-05
4.29944e-07
4.74503e-05
3.43574e-07
4.78535e-05
2.69819e-07
4.80357e-05
2.06816e-07
4.81098e-05
1.52115e-07
4.81336e-05
1.0307e-07
4.81369e-05
5.72863e-08
4.81346e-05
1.19609e-08
4.81337e-05
-3.45693e-08
4.81366e-05
-8.49251e-08
4.81436e-05
-1.43101e-07
4.81525e-05
-2.14303e-07
4.81567e-05
-3.05976e-07
4.81424e-05
-4.28457e-07
4.80819e-05
-5.95437e-07
4.79208e-05
-8.22981e-07
4.75517e-05
-1.13234e-06
4.67541e-05
-1.75203e-06
4.50279e-05
-2.93564e-06
4.08372e-05
-3.00329e-06
3.02992e-05
-2.28813e-06
1.32489e-05
-1.06833e-06
1.49358e-08
-6.23856e-06
1.59073e-07
-9.59284e-06
8.50491e-07
9.86296e-08
4.93196e-07
2.12672e-05
2.94654e-07
3.53236e-05
3.33704e-07
4.22011e-05
3.51798e-07
4.55304e-05
3.20879e-07
4.72168e-05
2.82597e-07
4.80653e-05
2.43267e-07
4.8475e-05
2.028e-07
4.86598e-05
1.63197e-07
4.87338e-05
1.25055e-07
4.87565e-05
8.81846e-08
4.87586e-05
5.21552e-08
4.87556e-05
1.50265e-08
4.87551e-05
-2.3217e-08
4.87591e-05
-6.37525e-08
4.87685e-05
-1.09184e-07
4.87817e-05
-1.62272e-07
4.87927e-05
-2.26899e-07
4.87885e-05
-3.08146e-07
4.87423e-05
-4.12073e-07
4.8601e-05
-5.46234e-07
4.82589e-05
-7.44653e-07
4.75032e-05
-1.06793e-06
4.58789e-05
-1.88802e-06
4.22673e-05
-2.59632e-06
3.33297e-05
-1.47092e-06
1.52737e-05
-7.35661e-07
-3.50989e-06
-6.11525e-06
-9.00246e-07
-1.10725e-05
2.26622e-07
3.08389e-06
-4.48485e-07
2.3473e-05
-2.68162e-07
3.63006e-05
6.67449e-09
4.27664e-05
1.31767e-07
4.60775e-05
1.7344e-07
4.77868e-05
1.74905e-07
4.86511e-05
1.64898e-07
4.90715e-05
1.47317e-07
4.92632e-05
1.25375e-07
4.93408e-05
1.00945e-07
4.93653e-05
7.49594e-08
4.93684e-05
4.81515e-08
4.93659e-05
1.95537e-08
4.93659e-05
-9.69251e-09
4.93708e-05
-3.95779e-08
4.93812e-05
-7.09471e-08
4.93961e-05
-1.04526e-07
4.94093e-05
-1.41149e-07
4.94078e-05
-1.81577e-07
4.93649e-05
-2.2625e-07
4.92266e-05
-2.77903e-07
4.88871e-05
-3.54003e-07
4.81406e-05
-4.36841e-07
4.65739e-05
-7.18248e-07
4.3297e-05
-1.41401e-06
3.58915e-05
-1.89376e-06
1.94809e-05
-1.50778e-06
-3.34547e-06
-8.69233e-06
2.20382e-06
-1.26185e-05
1.24523e-06
3.10766e-06
-4.66309e-08
2.40576e-05
-6.65109e-08
3.6759e-05
4.1398e-08
4.32883e-05
9.50732e-08
4.66487e-05
1.16966e-07
4.837e-05
1.20007e-07
4.92383e-05
1.16511e-07
4.96622e-05
1.08756e-07
4.98573e-05
9.70642e-08
4.99379e-05
8.21674e-08
4.99646e-05
6.47843e-08
4.99694e-05
4.5541e-08
4.99678e-05
2.49848e-08
4.99685e-05
4.26593e-09
4.99736e-05
-1.54841e-08
4.99834e-05
-3.37312e-08
4.99975e-05
-4.97799e-08
5.0009e-05
-6.23541e-08
5.00046e-05
-6.94074e-08
4.99566e-05
-6.78188e-08
4.98098e-05
-5.51089e-08
4.94573e-05
-2.07007e-08
4.86959e-05
7.47621e-08
4.71343e-05
2.14093e-07
4.39846e-05
1.48136e-07
3.73901e-05
-5.53803e-07
2.35109e-05
-3.04749e-07
6.54189e-07
-1.13512e-05
3.45025e-06
-1.44028e-05
2.07622e-06
2.85638e-06
9.19815e-07
2.41849e-05
4.58579e-07
3.71063e-05
2.66792e-07
4.39158e-05
1.71857e-07
4.73043e-05
1.28259e-07
4.89994e-05
1.0591e-07
4.98464e-05
9.40965e-08
5.0259e-05
8.6444e-08
5.04499e-05
7.87365e-08
5.053e-05
6.92164e-08
5.05578e-05
5.79136e-08
5.05639e-05
4.46262e-08
5.05634e-05
3.05952e-08
5.05641e-05
1.71053e-08
5.05685e-05
5.8944e-09
5.05771e-05
-1.80466e-09
5.05884e-05
-4.6733e-09
5.05956e-05
-1.64396e-10
5.05851e-05
1.38408e-08
5.05283e-05
4.13753e-08
5.03693e-05
8.79063e-08
5.00006e-05
1.73345e-07
4.92182e-05
3.37855e-07
4.76326e-05
6.10056e-07
4.44828e-05
8.04633e-07
3.81817e-05
-8.02691e-08
2.53695e-05
5.49564e-08
3.78184e-06
-1.29517e-05
1.8039e-06
-1.47246e-05
2.00596e-06
2.14795e-06
1.45026e-06
2.42856e-05
8.71825e-07
3.78047e-05
4.62044e-07
4.47103e-05
2.53355e-07
4.80434e-05
1.53772e-07
4.96699e-05
1.0692e-07
5.04734e-05
8.51832e-08
5.08626e-05
7.48233e-08
5.1043e-05
6.81499e-08
5.11195e-05
6.14712e-08
5.1147e-05
5.38643e-08
5.11535e-05
4.46505e-08
5.11538e-05
3.55938e-08
5.11539e-05
2.7702e-08
5.11571e-05
2.22167e-08
5.1164e-05
2.13788e-08
5.11715e-05
2.65109e-08
5.11737e-05
3.95607e-08
5.11565e-05
6.23031e-08
5.10916e-05
9.65124e-08
5.0923e-05
1.43871e-07
5.05445e-05
2.11721e-07
4.97524e-05
3.03895e-07
4.81543e-05
4.25107e-07
4.49742e-05
3.68635e-07
3.86525e-05
-6.0869e-07
2.61722e-05
-1.54801e-06
4.5611e-06
-1.37508e-05
4.95689e-07
-1.44231e-05
1.44674e-06
1.57153e-06
1.49514e-06
2.47738e-05
9.55461e-07
3.88505e-05
5.05294e-07
4.56222e-05
2.69459e-07
4.88055e-05
1.56056e-07
5.03465e-05
1.02978e-07
5.11022e-05
7.88856e-08
5.14662e-05
6.82163e-08
5.16347e-05
6.24651e-08
5.17066e-05
5.76168e-08
5.17329e-05
5.19106e-08
5.17396e-05
4.52226e-08
5.17401e-05
3.9457e-08
5.17396e-05
3.51588e-08
5.17416e-05
3.2885e-08
5.17462e-05
3.54986e-08
5.175e-05
4.4151e-08
5.17474e-05
5.97461e-08
5.17246e-05
8.23271e-08
5.16539e-05
1.09852e-07
5.14815e-05
1.37713e-07
5.11038e-05
1.57119e-07
5.03205e-05
1.41697e-07
4.87395e-05
4.19116e-08
4.55628e-05
-2.35261e-07
3.91365e-05
-9.60699e-07
2.6538e-05
-1.64488e-06
5.07952e-06
-1.43145e-05
-5.93382e-07
-1.4074e-05
1.12618e-06
2.47965e-06
1.10707e-06
2.61609e-05
6.32589e-07
4.01802e-05
3.46886e-07
4.64919e-05
1.95944e-07
4.95134e-05
1.19824e-07
5.09905e-05
8.51339e-08
5.17137e-05
7.00049e-08
5.20614e-05
6.35575e-08
5.22219e-05
5.99078e-08
5.22907e-05
5.63927e-08
5.23163e-05
5.16521e-08
5.23234e-05
4.62415e-08
5.23238e-05
4.19123e-08
5.23228e-05
3.90056e-08
5.23237e-05
3.80519e-08
5.23258e-05
4.13399e-08
5.23264e-05
5.01143e-08
5.23196e-05
6.42514e-08
5.22926e-05
8.24621e-08
5.22191e-05
1.00502e-07
5.20475e-05
1.09737e-07
5.16783e-05
9.41796e-08
5.09165e-05
1.95175e-08
4.93753e-05
-1.75675e-07
4.6251e-05
-4.99322e-07
3.98406e-05
-8.07331e-07
2.6982e-05
-8.62568e-07
5.56618e-06
-1.43197e-05
-1.186e-06
-1.31243e-05
4.90429e-07
5.00915e-06
2.99204e-07
2.85344e-05
1.36946e-07
4.12367e-05
1.12226e-07
4.72052e-05
8.44817e-08
5.01347e-05
6.88497e-08
5.15868e-05
6.39027e-08
5.23012e-05
6.28979e-08
5.2645e-05
6.22651e-08
5.28039e-05
6.08387e-08
5.28723e-05
5.77862e-08
5.28984e-05
5.2947e-08
5.29061e-05
4.75074e-08
5.29068e-05
4.28473e-08
5.29053e-05
3.94871e-08
5.29049e-05
3.7972e-08
5.2905e-05
3.98968e-08
5.29026e-05
4.64206e-08
5.28925e-05
5.72182e-08
5.28627e-05
7.04231e-08
5.27881e-05
8.15295e-08
5.26195e-05
8.21994e-08
5.22606e-05
5.89313e-08
5.15212e-05
-1.31218e-08
5.00203e-05
-1.79459e-07
4.6967e-05
-4.48524e-07
4.0699e-05
-5.59389e-07
2.7914e-05
5.81566e-08
6.30238e-06
-1.39423e-05
-1.04324e-06
-1.19865e-05
-6.78234e-07
8.3602e-06
-8.4686e-07
3.04072e-05
-3.51476e-07
4.18029e-05
-8.30123e-08
4.76894e-05
-3.98506e-09
5.06666e-05
3.88539e-08
5.21425e-05
5.7367e-08
5.28714e-05
6.57763e-08
5.3222e-05
6.83848e-08
5.33839e-05
6.70145e-08
5.3454e-05
6.26158e-08
5.34812e-05
5.61308e-08
5.34896e-05
4.90467e-08
5.34907e-05
4.23857e-08
5.34888e-05
3.68444e-08
5.34871e-05
3.30823e-08
5.34855e-05
3.20081e-08
5.34807e-05
3.46513e-08
5.34681e-05
4.08644e-08
5.34363e-05
4.89156e-08
5.33616e-05
5.54134e-08
5.31961e-05
5.48924e-08
5.28455e-05
4.00374e-08
5.21218e-05
-1.65964e-09
5.06484e-05
-7.45426e-08
4.76476e-05
-2.21902e-07
4.15045e-05
-3.86834e-07
2.91086e-05
2.95083e-07
7.33553e-06
-1.35902e-05
-8.75987e-07
-1.13698e-05
-1.05945e-06
1.04197e-05
-7.93458e-07
3.03026e-05
-3.9864e-07
4.20304e-05
-1.60712e-07
4.81281e-05
6.12337e-10
5.11594e-05
6.0132e-08
5.26947e-05
8.14313e-08
5.3446e-05
8.72804e-08
5.38047e-05
8.56727e-08
5.39692e-05
7.99336e-08
5.404e-05
7.14984e-08
5.40675e-05
6.14399e-08
5.40761e-05
5.09427e-08
5.4077e-05
4.06903e-08
5.40745e-05
3.14341e-08
5.40718e-05
2.37888e-08
5.40688e-05
1.83037e-08
5.40622e-05
1.57187e-08
5.4048e-05
1.58048e-08
5.40153e-05
1.73262e-08
5.39414e-05
1.7923e-08
5.3779e-05
1.48932e-08
5.34345e-05
5.54897e-09
5.27199e-05
-1.17336e-08
5.1258e-05
-3.73653e-08
4.82771e-05
-3.66079e-08
4.21646e-05
-2.39586e-07
2.9975e-05
7.33738e-08
8.49595e-06
-1.33727e-05
5.75853e-08
-1.05502e-05
1.54965e-06
1.08633e-05
1.85211e-06
2.76083e-05
3.88726e-07
4.00874e-05
1.12759e-07
4.82551e-05
1.5851e-07
5.17474e-05
1.57775e-07
5.33053e-05
1.45177e-07
5.40544e-05
1.29938e-07
5.44074e-05
1.14683e-07
5.45669e-05
9.95035e-08
5.46343e-05
8.41102e-08
5.46595e-05
6.8522e-08
5.46667e-05
5.30487e-08
5.46666e-05
3.79017e-08
5.46632e-05
2.37168e-08
5.46596e-05
1.08898e-08
5.46554e-05
-1.78555e-10
5.46479e-05
-9.1953e-09
5.46332e-05
-1.69228e-08
5.46012e-05
-2.4678e-08
5.45296e-05
-3.45292e-08
5.43721e-05
-4.87146e-08
5.40347e-05
-6.80178e-08
5.3328e-05
-8.56728e-08
5.18682e-05
-9.59385e-08
4.88732e-05
-7.02366e-08
4.27678e-05
-2.93551e-07
3.03455e-05
-3.20856e-07
8.91363e-06
-1.33581e-05
5.10811e-06
-9.37272e-06
5.67607e-06
8.88413e-06
3.97491e-06
2.56983e-05
2.21349e-06
3.89579e-05
8.7325e-07
4.86115e-05
4.4239e-07
5.25267e-05
3.12453e-07
5.40107e-05
2.36165e-07
5.4712e-05
1.86539e-07
5.50366e-05
1.5112e-07
5.51794e-05
1.2309e-07
5.5237e-05
9.8775e-08
5.52567e-05
7.63504e-08
5.52605e-05
5.4946e-08
5.52584e-05
3.41543e-08
5.52538e-05
1.42823e-08
5.52492e-05
-4.32504e-09
5.52443e-05
-2.17518e-08
5.52368e-05
-3.86136e-08
5.5223e-05
-5.6006e-08
5.51934e-05
-7.61347e-08
5.51269e-05
-1.02463e-07
5.49782e-05
-1.3981e-07
5.46539e-05
-1.93993e-07
5.39643e-05
-2.71813e-07
5.25188e-05
-3.42888e-07
4.9503e-05
-5.88985e-07
4.31828e-05
-1.04477e-06
3.0245e-05
-9.53552e-07
8.18772e-06
-1.33347e-05
4.15942e-06
-7.83711e-06
4.30942e-06
6.83953e-06
3.01797e-06
2.38595e-05
2.28515e-06
3.9319e-05
1.24582e-06
4.98652e-05
6.80976e-07
5.34081e-05
4.53031e-07
5.47782e-05
3.21911e-07
5.54055e-05
2.40812e-07
5.56857e-05
1.86286e-07
5.58025e-05
1.45805e-07
5.5845e-05
1.12673e-07
5.5856e-05
8.33772e-08
5.58549e-05
5.60162e-08
5.58497e-05
2.95799e-08
5.58436e-05
3.95813e-09
5.58381e-05
-2.05745e-08
5.58331e-05
-4.48347e-08
5.58265e-05
-6.98814e-08
5.5815e-05
-9.76312e-08
5.579e-05
-1.31569e-07
5.57318e-05
-1.776e-07
5.5597e-05
-2.45326e-07
5.52949e-05
-3.49939e-07
5.46388e-05
-5.20558e-07
5.32363e-05
-7.92946e-07
5.02382e-05
-1.36378e-06
4.35289e-05
-2.3815e-06
2.97991e-05
-2.58586e-06
7.22282e-06
-1.37199e-05
2.89497e-07
-6.05306e-06
9.16694e-08
3.71676e-06
1.42261e-06
2.39299e-05
1.95177e-06
4.10904e-05
1.23244e-06
5.12224e-05
7.79227e-07
5.43035e-05
5.26332e-07
5.55586e-05
3.73217e-07
5.61079e-05
2.76486e-07
5.63393e-05
2.10898e-07
5.64269e-05
1.62238e-07
5.64523e-05
1.22659e-07
5.64533e-05
8.78861e-08
5.64463e-05
5.55442e-08
5.64378e-05
2.43171e-08
5.64301e-05
-6.24275e-09
5.6424e-05
-3.62685e-08
5.64193e-05
-6.67618e-08
5.64144e-05
-9.92006e-08
5.64063e-05
-1.3615e-07
5.63877e-05
-1.82203e-07
5.63404e-05
-2.45421e-07
5.62241e-05
-3.39613e-07
5.59523e-05
-4.88007e-07
5.53443e-05
-7.35877e-07
5.40133e-05
-1.2055e-06
5.10926e-05
-1.82548e-06
4.43103e-05
-2.54101e-06
2.94836e-05
-2.92513e-06
6.72666e-06
-1.44622e-05
-1.50738e-06
-8.47662e-06
-7.19335e-07
7.22779e-07
1.55736e-06
2.55794e-05
1.76303e-06
4.40657e-05
1.05584e-06
5.23199e-05
7.3177e-07
5.51549e-05
5.16356e-07
5.63098e-05
3.77212e-07
5.67921e-05
2.84594e-07
5.69811e-05
2.18956e-07
5.70427e-05
1.68466e-07
5.70525e-05
1.26273e-07
5.70442e-05
8.85034e-08
5.70318e-05
5.29634e-08
5.70204e-05
1.84411e-08
5.70113e-05