/*--------------------------------*- C++ -*----------------------------------*\
| =========                 |                                                 |
| \\      /  F ield         | OpenFOAM: The Open Source CFD Toolbox           |
|  \\    /   O peration     | Version:  2.3.0                                 |
|   \\  /    A nd           | Web:      www.OpenFOAM.org                      |
|    \\/     M anipulation  |                                                 |
\*---------------------------------------------------------------------------*/
FoamFile
{
    version     2.0;
    format      ascii;
    class       volVectorField;
    location    "0.08";
    object      U;
}
// * * * * * * * * * * * * * * * * * * * * * * * * * * * * * * * * * * * * * //

dimensions      [0 1 -1 0 0 0 0];

internalField   nonuniform List<vector> 
6000
(
(-0.016254 0.106362 0)
(0.00156772 0.0464627 0)
(0.0249706 0.060449 0)
(0.0306613 0.0666419 0)
(0.0334456 0.0723808 0)
(0.0368628 0.0775593 0)
(0.0406512 0.08243 0)
(0.0431385 0.0869698 0)
(0.0431275 0.0907789 0)
(0.0403399 0.0933547 0)
(0.0352815 0.095043 0)
(0.0286767 0.0959832 0)
(0.0211233 0.0964927 0)
(0.0130062 0.0967369 0)
(0.00451476 0.096881 0)
(-0.00429126 0.0968873 0)
(-0.0129955 0.0966495 0)
(-0.0212055 0.096366 0)
(-0.0287993 0.0958435 0)
(-0.0354221 0.0948966 0)
(-0.0404866 0.0932015 0)
(-0.04327 0.0906135 0)
(-0.043296 0.0867924 0)
(-0.0408586 0.0822466 0)
(-0.037113 0.0773578 0)
(-0.0337458 0.0721638 0)
(-0.0310918 0.0665416 0)
(-0.0254046 0.060736 0)
(-0.00191867 0.0467716 0)
(0.016041 0.106331 0)
(0.0316242 0.532942 0)
(0.0456897 0.510577 0)
(0.0549313 0.544543 0)
(0.0658544 0.546995 0)
(0.07334 0.539247 0)
(0.0759169 0.531383 0)
(0.0745603 0.526587 0)
(0.0692274 0.524828 0)
(0.0622868 0.525874 0)
(0.0541678 0.527855 0)
(0.0451161 0.529482 0)
(0.0354634 0.530762 0)
(0.0254477 0.531523 0)
(0.0152314 0.532087 0)
(0.00497182 0.532542 0)
(-0.00523607 0.533012 0)
(-0.0154397 0.532458 0)
(-0.0256338 0.531824 0)
(-0.0356486 0.531039 0)
(-0.0453162 0.529736 0)
(-0.0543883 0.528119 0)
(-0.0625355 0.52614 0)
(-0.0695026 0.525206 0)
(-0.0748487 0.527023 0)
(-0.0762119 0.53178 0)
(-0.0736571 0.539726 0)
(-0.0661761 0.547499 0)
(-0.0551309 0.544106 0)
(-0.0456546 0.510138 0)
(-0.0315359 0.532437 0)
(0.0279894 0.458782 0)
(0.0462867 0.450198 0)
(0.0748185 0.466204 0)
(0.0987338 0.482064 0)
(0.111 0.496637 0)
(0.112221 0.509851 0)
(0.105613 0.521403 0)
(0.0944718 0.529889 0)
(0.0814544 0.535977 0)
(0.068126 0.540369 0)
(0.0550053 0.54334 0)
(0.0421799 0.545022 0)
(0.0296466 0.546068 0)
(0.0173912 0.546567 0)
(0.00544773 0.546796 0)
(-0.00613736 0.546774 0)
(-0.0178149 0.546506 0)
(-0.0299448 0.546003 0)
(-0.0424183 0.544988 0)
(-0.0552162 0.543314 0)
(-0.0683355 0.540322 0)
(-0.081683 0.535924 0)
(-0.0947085 0.529766 0)
(-0.105841 0.521245 0)
(-0.112445 0.509626 0)
(-0.111179 0.49641 0)
(-0.0987105 0.481859 0)
(-0.0746564 0.465924 0)
(-0.0461606 0.449994 0)
(-0.0279321 0.458574 0)
(0.0185273 0.41958 0)
(0.0376284 0.412623 0)
(0.0816449 0.427633 0)
(0.114494 0.450594 0)
(0.130947 0.474418 0)
(0.130496 0.494036 0)
(0.11979 0.507969 0)
(0.105109 0.517601 0)
(0.0891685 0.523721 0)
(0.073447 0.527531 0)
(0.0585168 0.529677 0)
(0.0444111 0.53081 0)
(0.031004 0.531207 0)
(0.018183 0.531152 0)
(0.00580759 0.530895 0)
(-0.00630245 0.530619 0)
(-0.0185473 0.530963 0)
(-0.031284 0.531081 0)
(-0.044631 0.530721 0)
(-0.0586872 0.529617 0)
(-0.0735882 0.52752 0)
(-0.0893006 0.523728 0)
(-0.105263 0.517648 0)
(-0.119991 0.508039 0)
(-0.130772 0.494084 0)
(-0.131234 0.474327 0)
(-0.11463 0.450351 0)
(-0.08159 0.427274 0)
(-0.0375036 0.412397 0)
(-0.0184302 0.419439 0)
(0.0111109 0.409105 0)
(0.0292493 0.368242 0)
(0.0812959 0.387579 0)
(0.123183 0.425408 0)
(0.146866 0.469496 0)
(0.148511 0.50577 0)
(0.134257 0.525329 0)
(0.114224 0.535615 0)
(0.0941552 0.540606 0)
(0.0759084 0.54277 0)
(0.0595942 0.543606 0)
(0.0448478 0.543756 0)
(0.0312482 0.543438 0)
(0.0184198 0.542926 0)
(0.00603065 0.542357 0)
(-0.00624089 0.5421 0)
(-0.0186503 0.542752 0)
(-0.0314571 0.543324 0)
(-0.0450227 0.543659 0)
(-0.0597333 0.543548 0)
(-0.0760186 0.542755 0)
(-0.0942607 0.540663 0)
(-0.114368 0.535721 0)
(-0.134509 0.525491 0)
(-0.14895 0.506004 0)
(-0.147408 0.469439 0)
(-0.12361 0.424994 0)
(-0.0814515 0.387048 0)
(-0.0291167 0.368023 0)
(-0.0109655 0.408995 0)
(0.0164639 0.402017 0)
(0.0360355 0.317835 0)
(0.0764433 0.333585 0)
(0.115121 0.383824 0)
(0.141577 0.450316 0)
(0.149057 0.51076 0)
(0.13814 0.545801 0)
(0.117362 0.558861 0)
(0.0953026 0.56213 0)
(0.0754883 0.561726 0)
(0.058423 0.560299 0)
(0.0435759 0.558802 0)
(0.0302439 0.557453 0)
(0.0178467 0.556365 0)
(0.00590967 0.555579 0)
(-0.00596589 0.555425 0)
(-0.0179866 0.556219 0)
(-0.0303986 0.557334 0)
(-0.0437134 0.558705 0)
(-0.0585274 0.560238 0)
(-0.075558 0.561724 0)
(-0.0953524 0.562212 0)
(-0.117442 0.559068 0)
(-0.138363 0.546187 0)
(-0.14953 0.511216 0)
(-0.14228 0.450367 0)
(-0.115921 0.383282 0)
(-0.077182 0.332695 0)
(-0.0364027 0.317345 0)
(-0.0164922 0.402116 0)
(0.0307762 0.364587 0)
(0.0532136 0.285633 0)
(0.0739523 0.295665 0)
(0.0962742 0.35028 0)
(0.114547 0.427494 0)
(0.12326 0.504353 0)
(0.119225 0.555228 0)
(0.104891 0.57629 0)
(0.0866533 0.580124 0)
(0.0688715 0.577492 0)
(0.0531337 0.573591 0)
(0.0394463 0.57011 0)
(0.0272761 0.567413 0)
(0.0160622 0.565533 0)
(0.00530672 0.56454 0)
(-0.00537484 0.564476 0)
(-0.0161879 0.565435 0)
(-0.0274182 0.567322 0)
(-0.0395686 0.570011 0)
(-0.0532069 0.573513 0)
(-0.0688715 0.577463 0)
(-0.0865683 0.580197 0)
(-0.104742 0.57654 0)
(-0.119096 0.555751 0)
(-0.123306 0.504972 0)
(-0.115019 0.427778 0)
(-0.0972423 0.349929 0)
(-0.0754625 0.294826 0)
(-0.0547658 0.284745 0)
(-0.0315596 0.364225 0)
(0.0384266 0.3103 0)
(0.0661193 0.266107 0)
(0.0741915 0.279553 0)
(0.0779874 0.336145 0)
(0.0807483 0.415743 0)
(0.0835378 0.496629 0)
(0.0843506 0.555395 0)
(0.0792723 0.583994 0)
(0.0690612 0.590777 0)
(0.0567609 0.587815 0)
(0.044554 0.582415 0)
(0.03333 0.577469 0)
(0.0231099 0.573705 0)
(0.0136002 0.571206 0)
(0.00445661 0.569971 0)
(-0.00459842 0.569936 0)
(-0.0137552 0.57112 0)
(-0.023261 0.573582 0)
(-0.0334485 0.577309 0)
(-0.044601 0.582237 0)
(-0.0566832 0.587651 0)
(-0.0687922 0.590689 0)
(-0.0787594 0.584085 0)
(-0.0835867 0.555853 0)
(-0.0826646 0.497428 0)
(-0.0802222 0.416613 0)
(-0.0785558 0.336654 0)
(-0.0762431 0.279662 0)
(-0.0687487 0.264626 0)
(-0.040069 0.30821 0)
(0.0403734 0.252521 0)
(0.0706814 0.248353 0)
(0.0726746 0.277919 0)
(0.0616488 0.340592 0)
(0.0488064 0.417164 0)
(0.044539 0.493051 0)
(0.0474899 0.551867 0)
(0.0498637 0.584646 0)
(0.048094 0.595585 0)
(0.0423975 0.594525 0)
(0.0348536 0.589261 0)
(0.0267943 0.58379 0)
(0.0188554 0.579445 0)
(0.0111601 0.576539 0)
(0.0036393 0.57512 0)
(-0.00382273 0.575087 0)
(-0.0113427 0.576447 0)
(-0.0190256 0.579294 0)
(-0.0269276 0.58357 0)
(-0.0349067 0.588972 0)
(-0.0422961 0.594178 0)
(-0.0477464 0.595225 0)
(-0.0490924 0.584385 0)
(-0.0461986 0.551963 0)
(-0.0426688 0.493686 0)
(-0.0466257 0.418416 0)
(-0.060809 0.342928 0)
(-0.0740163 0.279481 0)
(-0.0730048 0.246175 0)
(-0.0420308 0.247837 0)
(0.0377383 0.193252 0)
(0.0644136 0.230418 0)
(0.0628207 0.286991 0)
(0.0448496 0.359427 0)
(0.0230739 0.427658 0)
(0.0146424 0.492069 0)
(0.0174923 0.545118 0)
(0.0238622 0.579195 0)
(0.0280131 0.594157 0)
(0.0282549 0.596613 0)
(0.0252353 0.593209 0)
(0.0204596 0.588399 0)
(0.0148521 0.584196 0)
(0.00893012 0.581267 0)
(0.00291361 0.579804 0)
(-0.0031171 0.579774 0)
(-0.00913354 0.581175 0)
(-0.0150472 0.58403 0)
(-0.020627 0.588133 0)
(-0.0253366 0.592821 0)
(-0.0282294 0.596084 0)
(-0.0277292 0.593472 0)
(-0.0231713 0.578462 0)
(-0.0161326 0.544563 0)
(-0.0123829 0.49198 0)
(-0.0197562 0.428765 0)
(-0.0418503 0.363661 0)
(-0.0612314 0.291716 0)
(-0.0645228 0.228815 0)
(-0.0386366 0.186698 0)
(0.0281471 0.143424 0)
(0.0467454 0.217441 0)
(0.0436341 0.299037 0)
(0.026198 0.381841 0)
(0.00638155 0.441446 0)
(-0.00240435 0.493284 0)
(-0.00136624 0.538157 0)
(0.00519925 0.570552 0)
(0.0119385 0.588335 0)
(0.0158151 0.594368 0)
(0.0163905 0.593786 0)
(0.014474 0.590643 0)
(0.0110552 0.587266 0)
(0.00683066 0.584668 0)
(0.00223757 0.583196 0)
(-0.00245975 0.583166 0)
(-0.00705664 0.584574 0)
(-0.0112833 0.587091 0)
(-0.0146957 0.590352 0)
(-0.0165898 0.593335 0)
(-0.0159397 0.593694 0)
(-0.0119218 0.587394 0)
(-0.00490554 0.569394 0)
(0.00217885 0.536885 0)
(0.00406577 0.492194 0)
(-0.00361451 0.441582 0)
(-0.0213454 0.385695 0)
(-0.0396133 0.303457 0)
(-0.0440604 0.218925 0)
(-0.0276996 0.136711 0)
(0.0142207 0.110663 0)
(0.0250509 0.211005 0)
(0.0240486 0.312193 0)
(0.0104227 0.397728 0)
(-0.000953796 0.452724 0)
(-0.00810271 0.496157 0)
(-0.00914918 0.533367 0)
(-0.00495951 0.562231 0)
(0.00126196 0.580773 0)
(0.00632117 0.589594 0)
(0.00890874 0.591834 0)
(0.0090594 0.590779 0)
(0.0074716 0.588695 0)
(0.00480271 0.586879 0)
(0.00157598 0.585944 0)
(-0.00181994 0.585922 0)
(-0.00505612 0.586798 0)
(-0.00774322 0.588531 0)
(-0.00935662 0.590492 0)
(-0.00923894 0.591375 0)
(-0.00668362 0.588877 0)
(-0.00163622 0.579727 0)
(0.00463801 0.560852 0)
(0.00906617 0.531579 0)
(0.00862059 0.494164 0)
(0.00264134 0.451399 0)
(-0.00629592 0.398324 0)
(-0.0178038 0.320326 0)
(-0.0197233 0.215127 0)
(-0.0125947 0.106247 0)
(0.00233986 0.0938162 0)
(0.0110802 0.208363 0)
(0.00925882 0.323127 0)
(0.00386453 0.403351 0)
(-0.00154251 0.45877 0)
(-0.00678619 0.499072 0)
(-0.009387 0.531341 0)
(-0.00807974 0.556447 0)
(-0.00408303 0.574054 0)
(0.000247642 0.584252 0)
(0.00330348 0.588628 0)
(0.00458265 0.589503 0)
(0.00429469 0.588799 0)
(0.00293793 0.587815 0)
(0.000959043 0.587272 0)
(-0.00122559 0.587253 0)
(-0.00322159 0.587753 0)
(-0.00462019 0.58867 0)
(-0.00496956 0.589271 0)
(-0.00379309 0.588237 0)
(-0.000888316 0.583617 0)
(0.00325624 0.573103 0)
(0.00706056 0.555066 0)
(0.00828177 0.529359 0)
(0.00603915 0.496392 0)
(0.00191251 0.455953 0)
(-0.0011611 0.401779 0)
(-0.00237946 0.325297 0)
(-0.00569431 0.217208 0)
(0.00101619 0.0922972 0)
(-0.00320409 0.0847792 0)
(0.00491135 0.210203 0)
(0.00662138 0.322093 0)
(0.00558858 0.404307 0)
(0.00212999 0.461714 0)
(-0.00262853 0.501624 0)
(-0.00625403 0.531273 0)
(-0.00708514 0.553358 0)
(-0.00546213 0.569302 0)
(-0.00271989 0.579614 0)
(-0.000213089 0.585172 0)
(0.00133669 0.587446 0)
(0.00180142 0.587913 0)
(0.0013902 0.587634 0)
(0.000431225 0.587267 0)
(-0.000713737 0.587257 0)
(-0.00169818 0.587602 0)
(-0.00217408 0.587848 0)
(-0.00181736 0.587319 0)
(-0.000436755 0.584931 0)
(0.00180958 0.579206 0)
(0.004181 0.568638 0)
(0.00533005 0.552275 0)
(0.00397659 0.52948 0)
(0.000199143 0.498631 0)
(-0.00349645 0.457266 0)
(-0.00353507 0.39904 0)
(0.00071323 0.321049 0)
(0.00455505 0.222236 0)
(0.0109451 0.0893909 0)
(0.00533628 0.0813366 0)
(0.00883346 0.2039 0)
(0.0112975 0.318122 0)
(0.0100023 0.403333 0)
(0.006309 0.464237 0)
(0.00127132 0.504614 0)
(-0.00273293 0.532319 0)
(-0.00468415 0.552132 0)
(-0.00472752 0.566366 0)
(-0.00350803 0.576096 0)
(-0.00190552 0.581998 0)
(-0.000593025 0.585057 0)
(0.000139205 0.586331 0)
(0.000295248 0.586691 0)
(5.4281e-05 0.586721 0)
(-0.000334263 0.586733 0)
(-0.000610746 0.58671 0)
(-0.000532079 0.586353 0)
(6.50915e-05 0.585073 0)
(0.00115678 0.581989 0)
(0.00240734 0.576041 0)
(0.00308229 0.566211 0)
(0.00221013 0.551723 0)
(-0.000921829 0.531255 0)
(-0.00638535 0.501946 0)
(-0.011659 0.458716 0)
(-0.0125478 0.394624 0)
(-0.00727078 0.310718 0)
(0.00437184 0.213559 0)
(0.00638735 0.0985007 0)
(0.0161883 0.0693398 0)
(0.012721 0.19889 0)
(0.0120147 0.314566 0)
(0.0101199 0.403652 0)
(0.00676604 0.466801 0)
(0.00296224 0.507293 0)
(-0.000310645 0.533709 0)
(-0.0023959 0.551901 0)
(-0.00326489 0.564712 0)
(-0.00309295 0.573594 0)
(-0.0023096 0.579328 0)
(-0.00142057 0.58266 0)
(-0.000723786 0.584373 0)
(-0.000322012 0.585129 0)
(-0.000158469 0.585396 0)
(-9.2347e-05 0.585421 0)
(3.87876e-05 0.585199 0)
(0.000366848 0.584495 0)
(0.000928719 0.582846 0)
(0.00158834 0.579601 0)
(0.00198991 0.573985 0)
(0.00152789 0.565261 0)
(-0.000442278 0.552611 0)
(-0.00438281 0.534297 0)
(-0.0105905 0.506653 0)
(-0.0183088 0.461634 0)
(-0.0224366 0.391284 0)
(-0.0218986 0.300922 0)
(-0.0140346 0.19923 0)
(-0.00103545 0.101591 0)
(0.0105025 0.0524841 0)
(0.0110925 0.200053 0)
(0.00956496 0.314955 0)
(0.00672093 0.404449 0)
(0.00450543 0.467719 0)
(0.00306335 0.508728 0)
(0.00122898 0.534707 0)
(-0.000500334 0.551978 0)
(-0.0016563 0.563803 0)
(-0.00209339 0.571858 0)
(-0.00192466 0.577182 0)
(-0.00146653 0.580458 0)
(-0.00096177 0.582324 0)
(-0.000542525 0.583277 0)
(-0.000227062 0.583672 0)
(4.04942e-05 0.58371 0)
(0.000335893 0.58339 0)
(0.000705519 0.582535 0)
(0.00111468 0.580802 0)
(0.00140471 0.577716 0)
(0.00128195 0.572686 0)
(0.000335188 0.565088 0)
(-0.00175116 0.553994 0)
(-0.00518966 0.537518 0)
(-0.0101003 0.511666 0)
(-0.0167957 0.467141 0)
(-0.0235087 0.391297 0)
(-0.0266181 0.295242 0)
(-0.0265204 0.180542 0)
(-0.0243064 0.0874448 0)
(-0.00750728 0.0451801 0)
(0.000279744 0.19525 0)
(0.00389502 0.31476 0)
(0.00324873 0.405166 0)
(0.00355943 0.467639 0)
(0.00417331 0.508674 0)
(0.00305281 0.535125 0)
(0.00145838 0.552094 0)
(6.8038e-05 0.563297 0)
(-0.000788246 0.570659 0)
(-0.00109804 0.575502 0)
(-0.00103494 0.578554 0)
(-0.000789129 0.580375 0)
(-0.000488238 0.58137 0)
(-0.000191014 0.581815 0)
(9.8691e-05 0.581857 0)
(0.000393947 0.581507 0)
(0.000686877 0.580632 0)
(0.000915894 0.578985 0)
(0.000946733 0.57619 0)
(0.000574886 0.571759 0)
(-0.000401113 0.565063 0)
(-0.0020201 0.554977 0)
(-0.00419499 0.539562 0)
(-0.00663045 0.514624 0)
(-0.00937708 0.471035 0)
(-0.0176711 0.397569 0)
(-0.0250574 0.298793 0)
(-0.0271778 0.183019 0)
(-0.0268141 0.0564243 0)
(-0.0216528 0.0551639 0)
(-0.00866035 0.189494 0)
(-0.00809888 0.316008 0)
(-0.000295927 0.399572 0)
(0.00735588 0.462397 0)
(0.00744766 0.50792 0)
(0.00601264 0.535439 0)
(0.00385199 0.552418 0)
(0.00197183 0.563138 0)
(0.000668255 0.5699 0)
(-7.45112e-05 0.574242 0)
(-0.000376987 0.576979 0)
(-0.000405687 0.578638 0)
(-0.000285434 0.57957 0)
(-9.83339e-05 0.579999 0)
(0.000112039 0.580039 0)
(0.000317811 0.579701 0)
(0.000479573 0.578882 0)
(0.000530957 0.577385 0)
(0.000370547 0.574893 0)
(-0.000127675 0.57095 0)
(-0.00101537 0.564846 0)
(-0.00219571 0.555223 0)
(-0.00336523 0.540041 0)
(-0.00398551 0.514842 0)
(-0.0043557 0.472567 0)
(-0.0109114 0.408344 0)
(-0.0180793 0.30299 0)
(-0.0156847 0.170224 0)
(-0.00740333 0.0379341 0)
(-0.0166467 0.0691623 0)
(-0.0163566 0.196506 0)
(-0.0113014 0.303697 0)
(0.00602326 0.386209 0)
(0.0149009 0.460665 0)
(0.0151411 0.508952 0)
(0.0105614 0.536693 0)
(0.0067544 0.553389 0)
(0.00396593 0.563462 0)
(0.00209253 0.569574 0)
(0.000932709 0.573364 0)
(0.000302586 0.575717 0)
(2.35893e-05 0.577137 0)
(-4.15167e-05 0.577939 0)
(6.89895e-06 0.57831 0)
(9.92548e-05 0.578339 0)
(0.000182439 0.578033 0)
(0.000198652 0.577305 0)
(7.79132e-05 0.575981 0)
(-0.000263214 0.573765 0)
(-0.000907377 0.570193 0)
(-0.00185808 0.564446 0)
(-0.00303765 0.55501 0)
(-0.00409068 0.539586 0)
(-0.00455164 0.513838 0)
(-0.00410091 0.472533 0)
(-0.00154393 0.409711 0)
(-0.00243773 0.302237 0)
(-0.00344384 0.164252 0)
(0.0173137 0.0277511 0)
(-0.0121858 0.0715456 0)
(-0.0111393 0.192014 0)
(0.0260927 0.278011 0)
(0.0328199 0.373845 0)
(0.0301762 0.460112 0)
(0.0262603 0.514063 0)
(0.0159525 0.54053 0)
(0.00960018 0.55564 0)
(0.0056614 0.564484 0)
(0.0032139 0.569689 0)
(0.00170986 0.572815 0)
(0.000838656 0.574709 0)
(0.000375737 0.575836 0)
(0.000164471 0.576465 0)
(9.14217e-05 0.576753 0)
(7.20755e-05 0.576764 0)
(3.70301e-05 0.576499 0)
(-8.40033e-05 0.575883 0)
(-0.000369693 0.57475 0)
(-0.00090994 0.57281 0)
(-0.00179113 0.569577 0)
(-0.00307465 0.564157 0)
(-0.00481605 0.554981 0)
(-0.00691464 0.539453 0)
(-0.00857883 0.513128 0)
(-0.00805021 0.4672 0)
(0.00161624 0.401502 0)
(0.0143523 0.307208 0)
(0.00979508 0.165959 0)
(0.0285778 0.0397258 0)
(0.000101105 0.0783147 0)
(0.0406403 0.170166 0)
(0.0527648 0.259359 0)
(0.0479322 0.358452 0)
(0.0407852 0.457264 0)
(0.0268778 0.523129 0)
(0.0172903 0.547203 0)
(0.0104494 0.559264 0)
(0.00624597 0.566072 0)
(0.00366059 0.570102 0)
(0.00206685 0.572464 0)
(0.00111492 0.573854 0)
(0.000576549 0.574659 0)
(0.000288274 0.575097 0)
(0.0001389 0.575291 0)
(4.0665e-05 0.575288 0)
(-8.52208e-05 0.57508 0)
(-0.000317246 0.574595 0)
(-0.000745073 0.573682 0)
(-0.0014842 0.572065 0)
(-0.00268149 0.569254 0)
(-0.00453807 0.564357 0)
(-0.00738515 0.555855 0)
(-0.0117138 0.540955 0)
(-0.0179224 0.515212 0)
(-0.0192643 0.467654 0)
(-0.0124276 0.385076 0)
(0.00720241 0.288449 0)
(0.017803 0.174478 0)
(0.0205546 0.0526639 0)
(0.0314455 0.0552202 0)
(0.0496644 0.132815 0)
(0.0522064 0.25328 0)
(0.0431879 0.369659 0)
(0.0314208 0.472458 0)
(0.0165423 0.531025 0)
(0.0127894 0.552869 0)
(0.00849021 0.562439 0)
(0.00536708 0.567521 0)
(0.00327691 0.570443 0)
(0.00193304 0.572087 0)
(0.00109811 0.573007 0)
(0.000604174 0.573508 0)
(0.000319377 0.573769 0)
(0.000149225 0.573878 0)
(1.52781e-05 0.573868 0)
(-0.000159349 0.573732 0)
(-0.000454509 0.5734 0)
(-0.000967063 0.572745 0)
(-0.00184354 0.571528 0)
(-0.00329287 0.569306 0)
(-0.00565384 0.56531 0)
(-0.00951348 0.558207 0)
(-0.0158367 0.545427 0)
(-0.0261827 0.521478 0)
(-0.0334674 0.461565 0)
(-0.0389068 0.366072 0)
(-0.0349086 0.265362 0)
(-0.0094816 0.166736 0)
(0.0168254 0.0554289 0)
(0.0217908 0.0137602 0)
(0.030707 0.117209 0)
(0.0314357 0.256983 0)
(0.0415726 0.384861 0)
(0.0170627 0.490685 0)
(0.00895455 0.534788 0)
(0.00715565 0.55508 0)
(0.00534989 0.563899 0)
(0.00365283 0.5682 0)
(0.00234214 0.570368 0)
(0.00143719 0.571481 0)
(0.000850949 0.572037 0)
(0.000491442 0.572299 0)
(0.000275284 0.572422 0)
(0.00013514 0.572467 0)
(1.03907e-05 0.572465 0)
(-0.000164078 0.572407 0)
(-0.000458234 0.572239 0)
(-0.000966783 0.571865 0)
(-0.00183338 0.571092 0)
(-0.00326819 0.56958 0)
(-0.00559777 0.566718 0)
(-0.00930047 0.561469 0)
(-0.0149956 0.551533 0)
(-0.0221951 0.529712 0)
(-0.0364661 0.469534 0)
(-0.047047 0.367037 0)
(-0.0559337 0.247939 0)
(-0.0505618 0.12864 0)
(-0.0186423 0.0607928 0)
(0.00873203 0.0106188 0)
(0.00979428 0.0937664 0)
(0.0351164 0.253091 0)
(0.0284842 0.398245 0)
(0.00767473 0.498119 0)
(0.00461819 0.537198 0)
(0.00299002 0.554981 0)
(0.00245071 0.563817 0)
(0.00183275 0.567887 0)
(0.00125099 0.569742 0)
(0.000801586 0.570548 0)
(0.000496872 0.570875 0)
(0.000307672 0.570981 0)
(0.000194185 0.571016 0)
(0.000117908 0.571024 0)
(3.73613e-05 0.571044 0)
(-9.01375e-05 0.571064 0)
(-0.000320395 0.571047 0)
(-0.000728224 0.570936 0)
(-0.00141914 0.570574 0)
(-0.00253568 0.569709 0)
(-0.00425708 0.567833 0)
(-0.00675946 0.563991 0)
(-0.010137 0.555923 0)
(-0.0136899 0.536545 0)
(-0.0276908 0.485195 0)
(-0.0428006 0.386344 0)
(-0.0441926 0.23769 0)
(-0.0424243 0.100641 0)
(-0.0263961 0.0195653 0)
(0.0081177 -0.00529699 0)
(0.0303516 0.063884 0)
(0.0292999 0.249606 0)
(0.0106381 0.417242 0)
(0.000148797 0.501436 0)
(0.000165933 0.537366 0)
(3.20509e-05 0.553948 0)
(0.000129389 0.562566 0)
(0.000260467 0.566724 0)
(0.000246572 0.568549 0)
(0.000189826 0.569277 0)
(0.000142663 0.569506 0)
(0.000120195 0.569544 0)
(0.000117107 0.56953 0)
(0.00011756 0.569533 0)
(0.000101857 0.569575 0)
(5.13563e-05 0.569658 0)
(-6.85365e-05 0.569769 0)
(-0.000301642 0.56985 0)
(-0.000700398 0.569793 0)
(-0.00132342 0.569347 0)
(-0.00221798 0.568032 0)
(-0.00337062 0.564815 0)
(-0.00471466 0.557426 0)
(-0.00672536 0.540911 0)
(-0.0135411 0.499141 0)
(-0.0342909 0.394506 0)
(-0.0277451 0.23383 0)
(-0.0190303 0.0892471 0)
(-0.00871095 0.0038486 0)
(-0.000837053 -0.0314034 0)
(0.0205424 0.0584572 0)
(0.00449651 0.273689 0)
(-0.00605781 0.425884 0)
(-0.00585146 0.500478 0)
(-0.00348854 0.535072 0)
(-0.00214201 0.552262 0)
(-0.00140087 0.56063 0)
(-0.000858347 0.564986 0)
(-0.000517412 0.566929 0)
(-0.000300592 0.567701 0)
(-0.000150359 0.567941 0)
(-3.34983e-05 0.567976 0)
(6.4618e-05 0.56796 0)
(0.000142768 0.567984 0)
(0.000200675 0.568045 0)
(0.000241532 0.568163 0)
(0.000255914 0.568346 0)
(0.000227588 0.568531 0)
(0.00015118 0.568612 0)
(3.31232e-05 0.568339 0)
(-9.20649e-05 0.567194 0)
(-0.000133781 0.564082 0)
(-0.000175572 0.556914 0)
(-0.000555341 0.542236 0)
(-0.00130612 0.505478 0)
(-0.0179047 0.409434 0)
(-0.0321646 0.233916 0)
(-0.0140537 0.0649061 0)
(-0.00880485 -0.000910642 0)
(-0.0215168 -0.0432545 0)
(0.0162286 0.089345 0)
(-0.00801307 0.292099 0)
(-0.00873965 0.427441 0)
(-0.00646137 0.496405 0)
(-0.00434278 0.53137 0)
(-0.00286694 0.549458 0)
(-0.00198607 0.558392 0)
(-0.00140641 0.562943 0)
(-0.000945269 0.565057 0)
(-0.000600103 0.565935 0)
(-0.000337584 0.566236 0)
(-0.000128757 0.566303 0)
(4.62269e-05 0.566311 0)
(0.000192718 0.566363 0)
(0.000319841 0.566439 0)
(0.000451084 0.566559 0)
(0.000594607 0.566761 0)
(0.00075435 0.566965 0)
(0.000956396 0.567051 0)
(0.00124548 0.566749 0)
(0.00169731 0.565499 0)
(0.00241621 0.562173 0)
(0.00336737 0.555286 0)
(0.00475965 0.540147 0)
(0.00706988 0.506368 0)
(0.000861681 0.42576 0)
(-0.0215722 0.247999 0)
(-0.0335406 0.0391819 0)
(-0.011648 -0.0244258 0)
(0.017346 -0.0512883 0)
(0.0225755 0.0829895 0)
(0.0019866 0.289743 0)
(0.000428728 0.42534 0)
(-0.00159122 0.492979 0)
(-0.00223141 0.528308 0)
(-0.00208512 0.546866 0)
(-0.00177864 0.556252 0)
(-0.00142656 0.560884 0)
(-0.0010444 0.563111 0)
(-0.000697848 0.564084 0)
(-0.000402469 0.564454 0)
(-0.000153143 0.564569 0)
(6.56696e-05 0.564601 0)
(0.000260516 0.564683 0)
(0.000442759 0.564764 0)
(0.000645077 0.564863 0)
(0.000886048 0.56504 0)
(0.00118396 0.565195 0)
(0.0015786 0.565191 0)
(0.00212638 0.564734 0)
(0.00290714 0.563233 0)
(0.00399847 0.55958 0)
(0.00561004 0.552251 0)
(0.00805542 0.536106 0)
(0.0117425 0.502926 0)
(0.0135302 0.431611 0)
(0.00389568 0.28312 0)
(-0.0239333 0.0475492 0)
(-0.00245032 -0.0569289 0)
(0.0367859 -0.0813945 0)
(0.0225291 0.0803257 0)
(0.0125566 0.29212 0)
(0.00749102 0.426699 0)
(0.00324021 0.493107 0)
(0.000287951 0.527285 0)
(-0.000846414 0.545301 0)
(-0.0011996 0.5545 0)
(-0.00115092 0.559029 0)
(-0.000923938 0.561238 0)
(-0.000641922 0.562242 0)
(-0.000365753 0.562656 0)
(-0.000116013 0.562808 0)
(0.000115619 0.562861 0)
(0.000334776 0.562955 0)
(0.000550497 0.563029 0)
(0.000795677 0.563095 0)
(0.00109148 0.563222 0)
(0.0014622 0.56329 0)
(0.00194666 0.563154 0)
(0.00259077 0.562499 0)
(0.00344926 0.560717 0)
(0.0045629 0.556725 0)
(0.00612025 0.548583 0)
(0.00824159 0.531453 0)
(0.0109228 0.497571 0)
(0.0134651 0.429939 0)
(0.0129196 0.295218 0)
(-0.0157778 0.0820274 0)
(0.00519312 -0.0759347 0)
(0.0124776 -0.10009 0)
(0.0156468 0.0815066 0)
(0.014555 0.298905 0)
(0.00954596 0.42932 0)
(0.00459687 0.495912 0)
(0.0013713 0.527812 0)
(-0.000186887 0.54461 0)
(-0.000768324 0.553158 0)
(-0.000858479 0.557397 0)
(-0.000723335 0.559481 0)
(-0.000500798 0.560456 0)
(-0.000260747 0.560882 0)
(-3.09733e-05 0.561054 0)
(0.000187497 0.561125 0)
(0.000404007 0.561213 0)
(0.000629642 0.56127 0)
(0.000884769 0.561305 0)
(0.00119108 0.561364 0)
(0.00157183 0.561338 0)
(0.00205407 0.561069 0)
(0.00265996 0.560244 0)
(0.00339732 0.558254 0)
(0.00424698 0.554025 0)
(0.0051955 0.545386 0)
(0.00606745 0.527848 0)
(0.00629961 0.493762 0)
(0.00614991 0.427061 0)
(0.00397853 0.297373 0)
(-0.0133789 0.081056 0)
(-0.0149253 -0.0879943 0)
(-0.00285835 -0.104159 0)
(0.00771513 0.0699354 0)
(0.011306 0.297771 0)
(0.00701386 0.432574 0)
(0.00255488 0.498356 0)
(0.000577095 0.528565 0)
(-0.000410524 0.544024 0)
(-0.000683916 0.551918 0)
(-0.000667845 0.555852 0)
(-0.000519267 0.557798 0)
(-0.000320446 0.558727 0)
(-0.000113807 0.559146 0)
(8.64349e-05 0.559326 0)
(0.000272105 0.559407 0)
(0.000462339 0.55948 0)
(0.000676422 0.559517 0)
(0.000909455 0.55952 0)
(0.00118615 0.559514 0)
(0.0015303 0.559407 0)
(0.00194807 0.559039 0)
(0.0024396 0.558107 0)
(0.00297556 0.556029 0)
(0.00348489 0.551765 0)
(0.00381951 0.543167 0)
(0.0036668 0.526097 0)
(0.00250106 0.49289 0)
(8.66017e-05 0.426859 0)
(-0.00248985 0.299053 0)
(-0.0117593 0.085705 0)
(-0.0165704 -0.103783 0)
(-0.0186886 -0.110298 0)
(0.00757015 0.0634607 0)
(0.00445979 0.294977 0)
(-0.0011163 0.434063 0)
(-0.00206068 0.498901 0)
(-0.00149641 0.528217 0)
(-0.00115623 0.542853 0)
(-0.00079387 0.550439 0)
(-0.000521465 0.554243 0)
(-0.000299077 0.556126 0)
(-0.000105262 0.557033 0)
(6.59088e-05 0.557452 0)
(0.000222302 0.557636 0)
(0.00036206 0.557725 0)
(0.000510301 0.557773 0)
(0.000688144 0.557789 0)
(0.000876403 0.557771 0)
(0.00109727 0.55771 0)
(0.00137349 0.557541 0)
(0.00169811 0.557111 0)
(0.00205922 0.556136 0)
(0.00241511 0.554075 0)
(0.00268644 0.549934 0)
(0.00272497 0.541692 0)
(0.00228781 0.525441 0)
(0.00110561 0.493465 0)
(-0.00143056 0.428875 0)
(-0.00436771 0.300265 0)
(-0.00720469 0.0877977 0)
(-0.00722302 -0.116795 0)
(-0.0249045 -0.110299 0)
(0.00563601 0.062669 0)
(-0.00828973 0.299939 0)
(-0.0103725 0.436385 0)
(-0.00599464 0.49611 0)
(-0.00310139 0.525941 0)
(-0.00150928 0.540818 0)
(-0.000672252 0.548599 0)
(-0.000225821 0.552513 0)
(1.95835e-05 0.554446 0)
(0.000174387 0.555377 0)
(0.000285111 0.555811 0)
(0.000375378 0.556002 0)
(0.000456035 0.556095 0)
(0.00054847 0.556117 0)
(0.000665617 0.556114 0)
(0.000794254 0.55608 0)
(0.000945659 0.555977 0)
(0.00113553 0.555765 0)
(0.00135727 0.555301 0)
(0.00159554 0.55432 0)
(0.00181658 0.552314 0)
(0.00196797 0.548328 0)
(0.00197605 0.540417 0)
(0.00174136 0.524801 0)
(0.00121084 0.493722 0)
(2.05203e-06 0.430223 0)
(-0.0029708 0.301128 0)
(-0.00496494 0.0871797 0)
(0.0055019 -0.12077 0)
(-0.0160866 -0.106857 0)
(-0.00410359 0.080815 0)
(-0.0244443 0.307902 0)
(-0.0159778 0.426008 0)
(-0.00679989 0.48986 0)
(-0.00265924 0.522104 0)
(-0.000646934 0.53826 0)
(0.000103336 0.546599 0)
(0.000412407 0.550775 0)
(0.000516037 0.552819 0)
(0.000545696 0.553795 0)
(0.000550404 0.554246 0)
(0.000548684 0.554443 0)
(0.000553288 0.554529 0)
(0.000575085 0.554532 0)
(0.000615691 0.55451 0)
(0.000671811 0.554461 0)
(0.000743972 0.554331 0)
(0.000838039 0.554091 0)
(0.000950685 0.55361 0)
(0.00106738 0.552637 0)
(0.00116746 0.55068 0)
(0.00122991 0.546793 0)
(0.0012494 0.539042 0)
(0.00126115 0.52367 0)
(0.00127754 0.492923 0)
(0.00161247 0.430602 0)
(2.49033e-06 0.303371 0)
(-0.00512123 0.0848206 0)
(0.00916248 -0.12358 0)
(-0.00942879 -0.10125 0)
(-0.0187595 0.101235 0)
(-0.0248048 0.300415 0)
(-0.0108357 0.414528 0)
(-0.00249673 0.481895 0)
(0.00121236 0.518226 0)
(0.00181979 0.536027 0)
(0.00169233 0.544905 0)
(0.00143621 0.549271 0)
(0.00119475 0.55137 0)
(0.00100104 0.552352 0)
(0.000851957 0.552793 0)
(0.00073599 0.552979 0)
(0.000649294 0.553045 0)
(0.000587512 0.553031 0)
(0.000543416 0.552992 0)
(0.000517029 0.552926 0)
(0.000502324 0.552783 0)
(0.000495006 0.552528 0)
(0.000490051 0.552044 0)
(0.000471342 0.551086 0)
(0.000420826 0.549168 0)
(0.000328315 0.54533 0)
(0.000204139 0.537613 0)
(0.000118134 0.522215 0)
(0.0002258 0.491285 0)
(0.000551836 0.428507 0)
(0.00225451 0.304828 0)
(-0.00460727 0.087883 0)
(0.00534635 -0.124895 0)
(-0.00953445 -0.0966118 0)
(-0.0198555 0.101479 0)
(0.0111392 0.283599 0)
(0.00709781 0.409395 0)
(0.0113837 0.482332 0)
(0.00901664 0.517323 0)
(0.0057255 0.535344 0)
(0.00381556 0.544065 0)
(0.00266677 0.548253 0)
(0.00194989 0.550216 0)
(0.00147961 0.551103 0)
(0.00115427 0.551481 0)
(0.000915235 0.551624 0)
(0.000731445 0.551657 0)
(0.000581773 0.551624 0)
(0.000452142 0.551567 0)
(0.000339944 0.551485 0)
(0.000234557 0.551338 0)
(0.000122304 0.551084 0)
(-8.89895e-06 0.550616 0)
(-0.000183642 0.549695 0)
(-0.000433027 0.547836 0)
(-0.000786586 0.544062 0)
(-0.00127269 0.536394 0)
(-0.00186791 0.520927 0)
(-0.0023189 0.489694 0)
(-0.00245784 0.426448 0)
(0.000181285 0.301645 0)
(-0.00333505 0.0890397 0)
(0.000619674 -0.127964 0)
(0.0101164 -0.0940691 0)
(0.0370392 0.0975448 0)
(0.0369203 0.26382 0)
(0.0313246 0.392891 0)
(0.0262706 0.48339 0)
(0.0148378 0.521656 0)
(0.00897339 0.536965 0)
(0.00555544 0.544329 0)
(0.00368106 0.547814 0)
(0.00257454 0.549394 0)
(0.00187491 0.550064 0)
(0.00140038 0.550315 0)
(0.00105421 0.550383 0)
(0.000783403 0.550368 0)
(0.000553902 0.55031 0)
(0.000346388 0.550236 0)
(0.000153311 0.550143 0)
(-3.99854e-05 0.55 0)
(-0.000254101 0.549766 0)
(-0.000512456 0.54934 0)
(-0.000852536 0.548494 0)
(-0.00133107 0.546753 0)
(-0.00202939 0.543147 0)
(-0.00307331 0.535708 0)
(-0.00460273 0.520437 0)
(-0.00685336 0.489196 0)
(-0.0075267 0.426234 0)
(-0.00789283 0.299391 0)
(-0.00714664 0.0833683 0)
(-0.00136407 -0.131807 0)
(0.0207198 -0.112646 0)
(0.0272797 0.0687294 0)
(0.0290637 0.249374 0)
(0.0321435 0.395368 0)
(0.0239981 0.494678 0)
(0.0133897 0.527936 0)
(0.00909099 0.539669 0)
(0.00596668 0.545216 0)
(0.00406177 0.547743 0)
(0.0028677 0.548801 0)
(0.00208331 0.549179 0)
(0.00153471 0.549263 0)
(0.00112327 0.549233 0)
(0.000791553 0.549163 0)
(0.000501304 0.549078 0)
(0.000231277 0.548988 0)
(-2.95014e-05 0.548889 0)
(-0.00029865 0.54876 0)
(-0.000601098 0.548564 0)
(-0.000968995 0.548208 0)
(-0.00145274 0.547485 0)
(-0.00213496 0.545948 0)
(-0.0031508 0.542665 0)
(-0.00472636 0.535751 0)
(-0.00721233 0.521263 0)
(-0.0112524 0.490877 0)
(-0.0156138 0.426008 0)
(-0.015523 0.296466 0)
(-0.0229404 0.0722292 0)
(-0.0122521 -0.135275 0)
(-0.00282408 -0.0894067 0)
(-0.00100952 0.0459635 0)
(0.00846725 0.237457 0)
(0.0272751 0.401377 0)
(0.012092 0.50376 0)
(0.00919701 0.531371 0)
(0.00714599 0.541559 0)
(0.00519003 0.545898 0)
(0.0037693 0.547651 0)
(0.00277316 0.548241 0)
(0.002062 0.548342 0)
(0.0015296 0.548264 0)
(0.00110663 0.548138 0)
(0.000748909 0.548014 0)
(0.000424507 0.547904 0)
(0.000114179 0.547803 0)
(-0.000193817 0.547705 0)
(-0.000517694 0.547599 0)
(-0.000882585 0.547454 0)
(-0.00132264 0.547191 0)
(-0.0018928 0.546626 0)
(-0.00268473 0.545357 0)
(-0.00385255 0.542525 0)
(-0.00564197 0.536354 0)
(-0.00844178 0.523097 0)
(-0.0126416 0.494471 0)
(-0.0202521 0.428746 0)
(-0.0186019 0.288784 0)
(-0.0218288 0.0631653 0)
(-0.0226951 -0.154061 0)
(0.000856218 -0.0911645 0)
(-0.00494227 0.0119067 0)
(0.0264913 0.238363 0)
(0.0205334 0.41644 0)
(0.00472318 0.504528 0)
(0.00559449 0.532004 0)