/*--------------------------------*- C++ -*----------------------------------*\
| =========                 |                                                 |
| \\      /  F ield         | OpenFOAM: The Open Source CFD Toolbox           |
|  \\    /   O peration     | Version:  2.3.0                                 |
|   \\  /    A nd           | Web:      www.OpenFOAM.org                      |
|    \\/     M anipulation  |                                                 |
\*---------------------------------------------------------------------------*/
FoamFile
{
    version     2.0;
    format      ascii;
    class       volVectorField;
    location    "0.08";
    object      U.airMean;
}
// * * * * * * * * * * * * * * * * * * * * * * * * * * * * * * * * * * * * * //

dimensions      [0 1 -1 0 0 0 0];

internalField   nonuniform List<vector> 
6000
(
(0.00720858 0.369107 0)
(0.0361906 0.360074 0)
(0.0600463 0.367761 0)
(0.0749839 0.372899 0)
(0.0825451 0.377118 0)
(0.0843543 0.380349 0)
(0.0819146 0.382745 0)
(0.0763682 0.384722 0)
(0.068586 0.386149 0)
(0.0592603 0.387089 0)
(0.0490147 0.387614 0)
(0.0383046 0.387914 0)
(0.0274036 0.388045 0)
(0.0164489 0.388146 0)
(0.00547034 0.388207 0)
(-0.00556108 0.388198 0)
(-0.016554 0.388129 0)
(-0.0275168 0.388025 0)
(-0.0384232 0.387894 0)
(-0.0491393 0.387596 0)
(-0.059393 0.387071 0)
(-0.0687295 0.386131 0)
(-0.0765283 0.384704 0)
(-0.0820935 0.382728 0)
(-0.0845442 0.38033 0)
(-0.0827259 0.377106 0)
(-0.0751269 0.372896 0)
(-0.0601333 0.367755 0)
(-0.0362311 0.360067 0)
(-0.00722156 0.369092 0)
(0.0229209 0.835345 0)
(0.0454453 0.826878 0)
(0.0751977 0.832748 0)
(0.0950042 0.840266 0)
(0.104133 0.849528 0)
(0.10426 0.8579 0)
(0.098482 0.864216 0)
(0.0891468 0.868288 0)
(0.0781822 0.871016 0)
(0.0663976 0.872496 0)
(0.0542739 0.873376 0)
(0.042045 0.873624 0)
(0.0298553 0.873777 0)
(0.0177629 0.87363 0)
(0.00583365 0.87364 0)
(-0.00597992 0.873669 0)
(-0.0179029 0.873654 0)
(-0.0299924 0.873801 0)
(-0.0421824 0.873649 0)
(-0.0544153 0.873406 0)
(-0.0665475 0.872532 0)
(-0.0783465 0.871058 0)
(-0.0893314 0.868342 0)
(-0.0986899 0.864264 0)
(-0.104483 0.857926 0)
(-0.10434 0.849497 0)
(-0.0951452 0.840176 0)
(-0.0752522 0.832655 0)
(-0.0454337 0.826824 0)
(-0.0229071 0.835271 0)
(0.0177882 0.78944 0)
(0.0384071 0.77166 0)
(0.0764745 0.786346 0)
(0.102008 0.807938 0)
(0.113474 0.828597 0)
(0.113274 0.844377 0)
(0.105515 0.854956 0)
(0.0939566 0.861594 0)
(0.0810102 0.865348 0)
(0.06784 0.867345 0)
(0.0548738 0.868171 0)
(0.0422219 0.86845 0)
(0.0298622 0.868346 0)
(0.0177422 0.868177 0)
(0.00580833 0.867894 0)
(-0.00599549 0.867876 0)
(-0.0179053 0.868162 0)
(-0.0300078 0.86833 0)
(-0.0423584 0.868444 0)
(-0.0550076 0.868173 0)
(-0.0679777 0.867362 0)
(-0.081161 0.865378 0)
(-0.09413 0.861639 0)
(-0.105719 0.854998 0)
(-0.113507 0.84439 0)
(-0.113705 0.828524 0)
(-0.102172 0.807772 0)
(-0.0765256 0.786165 0)
(-0.0383595 0.771565 0)
(-0.0177375 0.789426 0)
(0.0153288 0.776054 0)
(0.0315506 0.747789 0)
(0.0654598 0.767374 0)
(0.0920716 0.797577 0)
(0.10687 0.829045 0)
(0.109002 0.852856 0)
(0.101971 0.867459 0)
(0.0902947 0.875102 0)
(0.0771342 0.878532 0)
(0.063995 0.879777 0)
(0.0513756 0.87995 0)
(0.0393251 0.879638 0)
(0.0277475 0.879173 0)
(0.0165015 0.878713 0)
(0.00543699 0.878357 0)
(-0.00559077 0.878342 0)
(-0.0166446 0.878699 0)
(-0.0278773 0.879172 0)
(-0.0394436 0.879648 0)
(-0.0514862 0.879976 0)
(-0.0641021 0.879824 0)
(-0.077248 0.878612 0)
(-0.0904316 0.875215 0)
(-0.102159 0.867597 0)
(-0.109265 0.852963 0)
(-0.107186 0.829015 0)
(-0.0923524 0.79736 0)
(-0.0656035 0.767075 0)
(-0.031518 0.747612 0)
(-0.0152402 0.776104 0)
(0.0179063 0.77076 0)
(0.0326845 0.736056 0)
(0.0574098 0.759645 0)
(0.0786778 0.797862 0)
(0.0921556 0.839513 0)
(0.0960773 0.872862 0)
(0.0915363 0.892771 0)
(0.0818103 0.902003 0)
(0.0700087 0.90523 0)
(0.0579436 0.905624 0)
(0.0463483 0.9049 0)
(0.0353644 0.90387 0)
(0.024904 0.902887 0)
(0.014806 0.902114 0)
(0.004885 0.901625 0)
(-0.00499547 0.901603 0)
(-0.0149163 0.902089 0)
(-0.0250099 0.902869 0)
(-0.0354593 0.903867 0)
(-0.0464268 0.904912 0)
(-0.0580053 0.905666 0)
(-0.0700604 0.905317 0)
(-0.0818708 0.902153 0)
(-0.0916472 0.892993 0)
(-0.0963011 0.873102 0)
(-0.0925313 0.839614 0)
(-0.0791403 0.797677 0)
(-0.0578079 0.759232 0)
(-0.0328273 0.735717 0)
(-0.0178721 0.770848 0)
(0.0225506 0.758803 0)
(0.0385075 0.730866 0)
(0.0535628 0.757574 0)
(0.0662124 0.801578 0)
(0.0740586 0.849503 0)
(0.0770905 0.889587 0)
(0.0750764 0.914859 0)
(0.0687748 0.926765 0)
(0.0599274 0.930508 0)
(0.0501212 0.930365 0)
(0.0403031 0.928833 0)
(0.0308266 0.927068 0)
(0.0217333 0.925539 0)
(0.01293 0.924426 0)
(0.00427433 0.923818 0)
(-0.00435105 0.9238 0)
(-0.0130132 0.924396 0)
(-0.0218149 0.925506 0)
(-0.030895 0.927037 0)
(-0.0403442 0.928814 0)
(-0.0501252 0.930373 0)
(-0.0598891 0.930569 0)
(-0.0687029 0.926914 0)
(-0.0750091 0.915135 0)
(-0.0771178 0.889966 0)
(-0.0743266 0.849839 0)
(-0.0667923 0.80161 0)
(-0.0543603 0.757189 0)
(-0.0391693 0.730294 0)
(-0.0228025 0.758743 0)
(0.0259689 0.740321 0)
(0.0438104 0.731641 0)
(0.0520088 0.763735 0)
(0.0557739 0.812316 0)
(0.0562403 0.862627 0)
(0.0560543 0.9046 0)
(0.0554233 0.932974 0)
(0.0526557 0.94769 0)
(0.0475473 0.952791 0)
(0.0408644 0.952906 0)
(0.0334636 0.951087 0)
(0.0258914 0.948892 0)
(0.0183764 0.946985 0)
(0.0109685 0.945624 0)
(0.00362682 0.944914 0)
(-0.00370012 0.944897 0)
(-0.011044 0.945586 0)
(-0.0184456 0.946934 0)
(-0.02594 0.948828 0)
(-0.0334741 0.951017 0)
(-0.0408136 0.952846 0)
(-0.0474096 0.952773 0)
(-0.0524113 0.947766 0)
(-0.0550787 0.93322 0)
(-0.0556815 0.905055 0)
(-0.0560865 0.863246 0)
(-0.0561746 0.812824 0)
(-0.0530352 0.763719 0)
(-0.0450698 0.730914 0)
(-0.026691 0.739648 0)
(0.0266138 0.718992 0)
(0.0457772 0.734722 0)
(0.0501803 0.776241 0)
(0.0470713 0.829785 0)
(0.0407501 0.880023 0)
(0.0371619 0.920014 0)
(0.0368113 0.948258 0)
(0.0366052 0.964528 0)
(0.0348303 0.971285 0)
(0.0312814 0.972391 0)
(0.026457 0.970944 0)
(0.0209208 0.96878 0)
(0.0150537 0.966781 0)
(0.00904821 0.965324 0)
(0.00299209 0.964568 0)
(-0.0030774 0.96455 0)
(-0.00913132 0.965281 0)
(-0.0151252 0.966709 0)
(-0.0209682 0.96868 0)
(-0.0264593 0.970812 0)
(-0.0312059 0.97224 0)
(-0.0346292 0.971134 0)
(-0.0362243 0.964438 0)
(-0.0361999 0.948332 0)
(-0.0363119 0.920378 0)
(-0.0398574 0.880842 0)
(-0.0468539 0.831074 0)
(-0.0509993 0.776925 0)
(-0.0471503 0.734053 0)
(-0.027644 0.71737 0)
(0.0252307 0.69749 0)
(0.0436581 0.738461 0)
(0.046031 0.792401 0)
(0.0385654 0.851738 0)
(0.0281725 0.899596 0)
(0.0229197 0.935469 0)
(0.0223476 0.961739 0)
(0.0233384 0.978315 0)
(0.0237134 0.986476 0)
(0.0225618 0.988937 0)
(0.0199434 0.988383 0)
(0.0162684 0.986698 0)
(0.011944 0.984915 0)
(0.00726119 0.983554 0)
(0.00240409 0.982819 0)
(-0.00250235 0.982807 0)
(-0.0073575 0.983498 0)
(-0.0120319 0.984831 0)
(-0.0163359 0.986562 0)
(-0.0199721 0.988196 0)
(-0.0225161 0.988678 0)
(-0.0235403 0.986162 0)
(-0.0229536 0.977979 0)
(-0.0216475 0.961488 0)
(-0.0217785 0.935459 0)
(-0.0265353 0.90019 0)
(-0.0372987 0.853779 0)
(-0.0459685 0.794078 0)
(-0.0444156 0.738102 0)
(-0.0258837 0.694836 0)
(0.0215296 0.678452 0)
(0.0371889 0.743304 0)
(0.0381024 0.8103 0)
(0.0293782 0.874333 0)
(0.0189379 0.918532 0)
(0.014075 0.950346 0)
(0.0130943 0.974095 0)
(0.0140867 0.990142 0)
(0.015261 0.999161 0)
(0.0154723 1.00291 0)
(0.0143831 1.00348 0)
(0.012171 1.00256 0)
(0.00915939 1.00124 0)
(0.00564692 1.00012 0)
(0.00187215 0.999496 0)
(-0.0019845 0.999473 0)
(-0.00576142 1.00007 0)
(-0.00927311 1.00113 0)
(-0.0122801 1.00241 0)
(-0.014474 1.00324 0)
(-0.015524 1.00257 0)
(-0.0152241 0.998688 0)
(-0.0138806 0.989546 0)
(-0.0125785 0.973416 0)
(-0.0130439 0.949735 0)
(-0.0171124 0.918445 0)
(-0.0269368 0.87625 0)
(-0.0364409 0.813189 0)
(-0.0368269 0.743456 0)
(-0.0215361 0.675552 0)
(0.0155175 0.665794 0)
(0.027501 0.749127 0)
(0.0276427 0.827512 0)
(0.0203014 0.893568 0)
(0.0136048 0.935073 0)
(0.0100168 0.964511 0)
(0.00851084 0.986179 0)
(0.00874826 1.00119 0)
(0.00969381 1.01046 0)
(0.0102979 1.01512 0)
(0.0100182 1.0167 0)
(0.00878794 1.01663 0)
(0.00678046 1.01587 0)
(0.00424358 1.0151 0)
(0.00140529 1.01457 0)
(-0.00153178 1.01457 0)
(-0.00437741 1.01503 0)
(-0.00692836 1.01579 0)
(-0.0089524 1.01646 0)
(-0.0102033 1.01647 0)
(-0.0104984 1.01474 0)
(-0.00989114 1.00991 0)
(-0.00888197 1.00043 0)
(-0.00844549 0.985151 0)
(-0.00949467 0.963277 0)
(-0.0123107 0.934052 0)
(-0.0175676 0.894126 0)
(-0.0247747 0.831217 0)
(-0.025634 0.750256 0)
(-0.0150405 0.663224 0)
(0.00916985 0.660597 0)
(0.0176186 0.7564 0)
(0.0187751 0.843187 0)
(0.0147454 0.907673 0)
(0.0119775 0.94946 0)
(0.00918089 0.978205 0)
(0.00712331 0.998429 0)
(0.00638135 1.01234 0)
(0.00659283 1.02133 0)
(0.00695463 1.02641 0)
(0.00689817 1.02873 0)
(0.00619403 1.02935 0)
(0.00487579 1.02917 0)
(0.00308724 1.02876 0)
(0.00101635 1.0285 0)
(-0.00115256 1.02849 0)
(-0.00323822 1.02873 0)
(-0.00505531 1.02908 0)
(-0.00641866 1.02924 0)
(-0.00718652 1.02851 0)
(-0.00733025 1.02609 0)
(-0.00707006 1.0208 0)
(-0.00694877 1.01156 0)
(-0.00767666 0.997196 0)
(-0.00942829 0.976441 0)
(-0.0113527 0.947431 0)
(-0.0124689 0.90649 0)
(-0.0148686 0.845911 0)
(-0.0145174 0.759514 0)
(-0.00829269 0.658721 0)
(0.00401345 0.661821 0)
(0.0117451 0.764502 0)
(0.0141916 0.854249 0)
(0.0141461 0.918996 0)
(0.0126366 0.962878 0)
(0.00985553 0.991798 0)
(0.00726957 1.01106 0)
(0.00575214 1.02394 0)
(0.00519188 1.03235 0)
(0.00506869 1.03745 0)
(0.00488979 1.04012 0)
(0.0043824 1.04126 0)
(0.00346824 1.04149 0)
(0.00221017 1.04142 0)
(0.000720103 1.04131 0)
(-0.00085591 1.04132 0)
(-0.00236599 1.04138 0)
(-0.00366774 1.04147 0)
(-0.00465123 1.04118 0)
(-0.00526587 1.04002 0)
(-0.00559979 1.03724 0)
(-0.00594019 1.03201 0)
(-0.00677338 1.02329 0)
(-0.00856298 1.00992 0)
(-0.0111535 0.989727 0)
(-0.013105 0.959752 0)
(-0.0125032 0.915838 0)
(-0.00989493 0.854271 0)
(-0.00810674 0.769372 0)
(-0.00183711 0.661543 0)
(0.00246872 0.666704 0)
(0.0109904 0.772086 0)
(0.0151857 0.862584 0)
(0.0159716 0.93068 0)
(0.0138772 0.976564 0)
(0.0105968 1.00563 0)
(0.00775688 1.02408 0)
(0.00584532 1.03597 0)
(0.00474536 1.04373 0)
(0.00415966 1.04857 0)
(0.00374095 1.05134 0)
(0.00323488 1.05271 0)
(0.00252838 1.05326 0)
(0.00160256 1.05337 0)
(0.000516554 1.05335 0)
(-0.000635068 1.05334 0)
(-0.00174406 1.05339 0)
(-0.00272052 1.05326 0)
(-0.00351474 1.05275 0)
(-0.00415535 1.05135 0)
(-0.00477969 1.04859 0)
(-0.00567977 1.04367 0)
(-0.00724742 1.03577 0)
(-0.00980554 1.02342 0)
(-0.0133278 1.0039 0)
(-0.0164348 0.972641 0)
(-0.0161137 0.924737 0)
(-0.0111938 0.859666 0)
(-0.00541538 0.777176 0)
(0.00107528 0.670174 0)
(0.00617246 0.670811 0)
(0.0143454 0.777876 0)
(0.0178682 0.872676 0)
(0.0166755 0.943893 0)
(0.0135907 0.990763 0)
(0.0104983 1.01947 0)
(0.0079896 1.03713 0)
(0.00609867 1.04828 0)
(0.00475179 1.0554 0)
(0.00385123 1.0599 0)
(0.0032024 1.06257 0)
(0.00261906 1.06403 0)
(0.00197869 1.06471 0)
(0.00123495 1.065 0)
(0.000398178 1.06506 0)
(-0.000481361 1.06509 0)
(-0.00134056 1.06502 0)
(-0.00213216 1.06479 0)
(-0.00285555 1.06414 0)
(-0.0035731 1.06277 0)
(-0.00443514 1.06015 0)
(-0.00569023 1.05578 0)
(-0.00763065 1.04869 0)
(-0.0105095 1.03744 0)
(-0.0145816 1.01896 0)
(-0.0192889 0.987598 0)
(-0.0213978 0.936164 0)
(-0.017729 0.865073 0)
(-0.00793376 0.780827 0)
(-0.000608184 0.678754 0)
(0.0111256 0.671222 0)
(0.0158616 0.78595 0)
(0.0169965 0.885776 0)
(0.0143617 0.957864 0)
(0.0116468 1.00413 0)
(0.00977787 1.03258 0)
(0.008022 1.04991 0)
(0.00637831 1.0606 0)
(0.00498442 1.06728 0)
(0.0038982 1.0714 0)
(0.00307327 1.07391 0)
(0.00238202 1.07531 0)
(0.00172952 1.07605 0)
(0.00105602 1.07639 0)
(0.000348391 1.07653 0)
(-0.000380544 1.07653 0)
(-0.00110303 1.07646 0)
(-0.00180947 1.07616 0)
(-0.00251885 1.07553 0)
(-0.00330129 1.07422 0)
(-0.00428361 1.07192 0)
(-0.00564498 1.06804 0)
(-0.00755659 1.06178 0)
(-0.0101901 1.05151 0)
(-0.013794 1.03429 0)
(-0.0189735 1.00394 0)
(-0.0243944 0.951522 0)
(-0.0243774 0.873908 0)
(-0.0168756 0.78291 0)
(-0.00410293 0.685076 0)
(0.0089066 0.670946 0)
(0.0121456 0.79691 0)
(0.0128654 0.898512 0)
(0.0110215 0.969995 0)
(0.0101779 1.01587 0)
(0.00963826 1.04478 0)
(0.00840652 1.06232 0)
(0.00686253 1.0729 0)
(0.00539305 1.07925 0)
(0.00416329 1.08309 0)
(0.00318023 1.08535 0)
(0.00237859 1.08666 0)
(0.00167119 1.08734 0)
(0.00100561 1.08771 0)
(0.000347423 1.08784 0)
(-0.000313629 1.08789 0)
(-0.000977039 1.08777 0)
(-0.00165264 1.08751 0)
(-0.0023698 1.0869 0)
(-0.00318784 1.08577 0)
(-0.00419763 1.08371 0)
(-0.00548782 1.0803 0)
(-0.00710833 1.07455 0)
(-0.00907227 1.06499 0)
(-0.0114323 1.04861 0)
(-0.014987 1.01996 0)
(-0.0213872 0.969264 0)
(-0.0263528 0.888386 0)
(-0.0235644 0.786269 0)
(-0.0147646 0.684029 0)
(0.000514792 0.6759 0)
(0.00489614 0.806526 0)
(0.00744379 0.907908 0)
(0.00879062 0.97902 0)
(0.0110211 1.02633 0)
(0.0110924 1.05662 0)
(0.00959171 1.07475 0)
(0.00771199 1.08529 0)
(0.00598491 1.0914 0)
(0.00455142 1.09491 0)
(0.00340921 1.09696 0)
(0.00248924 1.09807 0)
(0.00171566 1.0987 0)
(0.00102451 1.09899 0)
(0.000371641 1.09915 0)
(-0.000269791 1.09916 0)
(-0.000916204 1.09909 0)
(-0.00158999 1.09883 0)
(-0.00232407 1.09833 0)
(-0.00316785 1.09731 0)
(-0.00417542 1.09552 0)
(-0.00537381 1.09236 0)
(-0.00672424 1.08692 0)
(-0.00809847 1.0775 0)
(-0.00930569 1.06126 0)
(-0.010549 1.03338 0)
(-0.0150694 0.986163 0)
(-0.0210655 0.906327 0)
(-0.0213533 0.797356 0)
(-0.0168314 0.676958 0)
(-0.00696564 0.68885 0)
(0.000325235 0.813023 0)
(0.00247663 0.913459 0)
(0.0103703 0.983956 0)
(0.0152248 1.03602 0)
(0.014272 1.06923 0)
(0.0115128 1.08777 0)
(0.0088344 1.09808 0)
(0.00665664 1.10378 0)
(0.00496444 1.10695 0)
(0.0036536 1.10867 0)
(0.00262875 1.10962 0)
(0.00178914 1.11009 0)
(0.00106595 1.11035 0)
(0.000402016 1.11044 0)
(-0.000240502 1.11048 0)
(-0.000889449 1.11039 0)
(-0.00157586 1.11022 0)
(-0.00233738 1.10977 0)
(-0.00321906 1.10893 0)
(-0.00426482 1.10729 0)
(-0.00547958 1.10435 0)
(-0.00681971 1.099 0)
(-0.00810141 1.08952 0)
(-0.0089242 1.07278 0)
(-0.00878856 1.04442 0)
(-0.00917543 0.99822 0)
(-0.0133051 0.919869 0)
(-0.0119748 0.807579 0)
(-0.00792208 0.675991 0)
(-0.00540097 0.705285 0)
(-0.00145475 0.820785 0)
(0.00728524 0.913442 0)
(0.0190608 0.990248 0)
(0.0223504 1.04938 0)
(0.0186612 1.08395 0)
(0.0135712 1.10194 0)
(0.00985308 1.11145 0)
(0.00718711 1.1165 0)
(0.00525061 1.11915 0)
(0.00381638 1.12054 0)
(0.00271785 1.12121 0)
(0.00184024 1.12156 0)
(0.00109576 1.12169 0)
(0.000423461 1.12178 0)
(-0.000220778 1.12177 0)
(-0.000875169 1.12175 0)
(-0.0015782 1.12159 0)
(-0.0023735 1.12129 0)
(-0.00331563 1.12057 0)
(-0.00445967 1.11916 0)
(-0.00584862 1.11639 0)
(-0.00749709 1.11123 0)
(-0.00929428 1.10163 0)
(-0.0107417 1.08429 0)
(-0.0103508 1.05382 0)
(-0.00590925 1.00476 0)
(-0.00301249 0.928285 0)
(-0.00417706 0.817075 0)
(0.00488345 0.682054 0)
(-0.00452222 0.712282 0)
(0.00815019 0.823285 0)
(0.0245643 0.91448 0)
(0.031023 1.00272 0)
(0.0285084 1.06654 0)
(0.020863 1.10129 0)
(0.014422 1.11736 0)
(0.0101411 1.12541 0)
(0.00725866 1.12946 0)
(0.00525519 1.1315 0)
(0.00380068 1.13244 0)
(0.00270371 1.13288 0)
(0.00183084 1.13302 0)
(0.00109336 1.1331 0)
(0.000430555 1.1331 0)
(-0.000204026 1.13312 0)
(-0.000856194 1.13309 0)
(-0.00156852 1.13304 0)
(-0.00239185 1.13282 0)
(-0.00339637 1.13233 0)
(-0.00467144 1.13114 0)
(-0.00632654 1.12874 0)
(-0.00850812 1.12393 0)
(-0.0113512 1.11468 0)
(-0.0146436 1.09704 0)
(-0.0159628 1.06338 0)
(-0.009686 1.00747 0)
(0.00181803 0.931151 0)
(0.00189388 0.823954 0)
(0.0109233 0.69842 0)
(0.00428154 0.71904 0)
(0.0269931 0.818351 0)
(0.0372038 0.924586 0)
(0.0357227 1.02362 0)
(0.0259649 1.08793 0)
(0.0175728 1.11927 0)
(0.0127041 1.13296 0)
(0.0091428 1.13937 0)
(0.0066537 1.14241 0)
(0.00487456 1.14377 0)
(0.00356581 1.14434 0)
(0.00255986 1.14448 0)
(0.00174755 1.14451 0)
(0.00105214 1.14445 0)
(0.000423611 1.14445 0)
(-0.00018381 1.14443 0)
(-0.000816103 1.14448 0)
(-0.00151733 1.14447 0)
(-0.00234184 1.14444 0)
(-0.00337426 1.14413 0)
(-0.00473502 1.14332 0)
(-0.00660938 1.14138 0)
(-0.00928912 1.13735 0)
(-0.0132543 1.1291 0)
(-0.0192457 1.11266 0)
(-0.0245472 1.07855 0)
(-0.0225003 1.01541 0)
(-0.0108662 0.929047 0)
(0.00168187 0.829585 0)
(0.00755608 0.713957 0)
(0.0236123 0.705749 0)
(0.0348233 0.818343 0)
(0.0385793 0.946308 0)
(0.0315065 1.05057 0)
(0.018016 1.10875 0)
(0.0120099 1.13506 0)
(0.00937971 1.14713 0)
(0.00721991 1.15255 0)
(0.0055142 1.15489 0)
(0.00418765 1.15582 0)
(0.00314489 1.15605 0)
(0.0023072 1.15602 0)
(0.00160095 1.15589 0)
(0.000980142 1.1558 0)
(0.000409047 1.15573 0)
(-0.000152582 1.15575 0)
(-0.000742188 1.15581 0)
(-0.00140108 1.15592 0)
(-0.00218132 1.156 0)
(-0.00316608 1.15597 0)
(-0.00448326 1.15553 0)
(-0.00633236 1.15426 0)
(-0.00904903 1.15124 0)
(-0.0131874 1.14472 0)
(-0.0194422 1.1307 0)
(-0.0280332 1.09739 0)
(-0.0340471 1.03047 0)
(-0.0302106 0.933036 0)
(-0.0187023 0.828878 0)
(0.00503317 0.71861 0)
(0.0189157 0.695408 0)
(0.0260749 0.827443 0)
(0.0279253 0.966881 0)
(0.0205778 1.07135 0)
(0.00973238 1.12494 0)
(0.0075833 1.1483 0)
(0.00623696 1.15955 0)
(0.0052054 1.16468 0)
(0.00424601 1.16681 0)
(0.00338728 1.16749 0)
(0.00264608 1.16757 0)
(0.00199751 1.16739 0)
(0.00142054 1.16722 0)
(0.000894314 1.16705 0)
(0.0003945 1.16699 0)
(-0.00010456 1.16699 0)
(-0.000629698 1.16712 0)
(-0.00121495 1.16728 0)
(-0.0018999 1.16751 0)
(-0.00274651 1.16768 0)
(-0.00385304 1.16763 0)
(-0.00535966 1.1669 0)
(-0.00746032 1.16486 0)
(-0.0104039 1.15983 0)
(-0.0141483 1.14811 0)
(-0.0220486 1.11974 0)
(-0.0344948 1.05672 0)
(-0.0395994 0.949328 0)
(-0.0315463 0.824583 0)
(-0.0164022 0.719635 0)
(0.0108936 0.697279 0)
(0.0147605 0.83873 0)
(0.0218979 0.982066 0)
(0.00730615 1.08528 0)
(0.00405867 1.13665 0)
(0.00444481 1.15994 0)
(0.00402626 1.17082 0)
(0.00362998 1.17603 0)
(0.00316115 1.17815 0)
(0.00266458 1.17881 0)
(0.0021711 1.17882 0)
(0.00169537 1.17863 0)
(0.00124217 1.1784 0)
(0.000812153 1.17824 0)
(0.000389078 1.17815 0)
(-4.00562e-05 1.17818 0)
(-0.00048744 1.17831 0)
(-0.000975376 1.17856 0)
(-0.00152674 1.17886 0)
(-0.00217425 1.17921 0)
(-0.00296732 1.17936 0)
(-0.00396085 1.17902 0)
(-0.0052076 1.17744 0)
(-0.00674169 1.17315 0)
(-0.00868895 1.16265 0)
(-0.0132235 1.13901 0)
(-0.0277523 1.08295 0)
(-0.0352084 0.973919 0)
(-0.0317217 0.829281 0)
(-0.0220603 0.701468 0)
(0.00339031 0.69867 0)
(0.0159392 0.843057 0)
(0.00940011 0.994685 0)
(2.8668e-05 1.09551 0)
(0.00136478 1.14598 0)
(0.00256433 1.17024 0)
(0.00279061 1.18156 0)
(0.00263099 1.18688 0)
(0.00241099 1.18912 0)
(0.00212151 1.18983 0)
(0.00179571 1.18989 0)
(0.00144666 1.18969 0)
(0.00109654 1.18949 0)
(0.000750172 1.1893 0)
(0.000397806 1.18925 0)
(3.61227e-05 1.18926 0)
(-0.000332835 1.18943 0)
(-0.000715028 1.18969 0)
(-0.00112258 1.19005 0)
(-0.00156005 1.19044 0)
(-0.00203361 1.19071 0)
(-0.00254589 1.19047 0)
(-0.00307279 1.18904 0)
(-0.00359132 1.18483 0)
(-0.00440332 1.17513 0)
(-0.00533366 1.15327 0)
(-0.0135496 1.10071 0)
(-0.0255322 0.991541 0)
(-0.0197083 0.839552 0)
(-0.0133022 0.702939 0)
(-0.00615303 0.701952 0)
(0.00735619 0.847965 0)
(-0.00230046 1.0046 0)
(-0.000935494 1.10294 0)
(0.0016714 1.15478 0)
(0.00231831 1.18005 0)
(0.00239072 1.1921 0)
(0.00222063 1.19756 0)
(0.00201865 1.19989 0)
(0.00180376 1.20069 0)
(0.00155136 1.2008 0)
(0.00127694 1.20066 0)
(0.000999509 1.20045 0)
(0.000715901 1.20029 0)
(0.000421061 1.20024 0)
(0.000112779 1.20029 0)
(-0.000187076 1.20042 0)
(-0.000473686 1.2007 0)
(-0.000752842 1.20103 0)
(-0.00101439 1.20143 0)
(-0.00123656 1.20166 0)
(-0.00139216 1.20138 0)
(-0.00144006 1.19982 0)
(-0.00134654 1.19549 0)
(-0.00106032 1.18584 0)
(0.000106009 1.16373 0)
(-0.00148945 1.11347 0)
(-0.0158829 1.00606 0)
(-0.0169275 0.846513 0)
(-0.00809138 0.704017 0)
(-0.0102877 0.712353 0)
(0.0110686 0.858916 0)
(0.00180914 1.01166 0)
(0.00577965 1.11202 0)
(0.00496838 1.16479 0)
(0.00355026 1.19043 0)
(0.00277954 1.20275 0)
(0.00227788 1.20828 0)
(0.00193861 1.21063 0)
(0.00168419 1.21146 0)
(0.00144148 1.21164 0)
(0.00119799 1.21151 0)
(0.000953691 1.21136 0)
(0.000705313 1.21119 0)
(0.000449563 1.21118 0)
(0.000182508 1.21121 0)
(-6.72191e-05 1.21133 0)
(-0.000285145 1.21157 0)
(-0.000474 1.21188 0)
(-0.000616471 1.21219 0)
(-0.000685267 1.21233 0)
(-0.000645108 1.21189 0)
(-0.000452428 1.21013 0)
(-8.68928e-05 1.20554 0)
(0.000703824 1.19525 0)
(0.00238565 1.17218 0)
(0.00440705 1.12275 0)
(-0.00284041 1.02044 0)
(-0.0152898 0.853262 0)
(-0.00277243 0.703799 0)
(0.00972162 0.718015 0)
(0.0189309 0.861851 0)
(0.0142796 1.02289 0)
(0.0132648 1.12592 0)
(0.00812307 1.17769 0)
(0.00501815 1.20213 0)
(0.0034312 1.21388 0)
(0.00257068 1.21918 0)
(0.00205767 1.2214 0)
(0.00171402 1.22221 0)
(0.00143762 1.22241 0)
(0.00119608 1.2223 0)
(0.000956684 1.22216 0)
(0.000715465 1.22202 0)
(0.000478237 1.22202 0)
(0.000240099 1.22206 0)
(1.79045e-05 1.22213 0)
(-0.000170859 1.22233 0)
(-0.000317149 1.22257 0)
(-0.000408988 1.22281 0)
(-0.00042683 1.22282 0)
(-0.000345912 1.22222 0)
(-0.00015352 1.22024 0)
(0.000157912 1.21539 0)
(0.00073142 1.20438 0)
(0.0017733 1.18037 0)
(0.00397817 1.13012 0)
(0.00495739 1.03134 0)
(-0.00983375 0.864522 0)
(0.00383805 0.706621 0)
(0.0230182 0.709636 0)
(0.0189593 0.878204 0)
(0.0202666 1.04386 0)
(0.0142548 1.14437 0)
(0.00846625 1.19217 0)
(0.00539407 1.21475 0)
(0.00370859 1.22542 0)
(0.00279888 1.23027 0)
(0.00222636 1.23225 0)
(0.00181437 1.23299 0)
(0.00150405 1.23316 0)
(0.00124793 1.23305 0)
(0.00100196 1.23294 0)
(0.000755735 1.23279 0)
(0.000513406 1.23279 0)
(0.00028421 1.23283 0)
(6.2812e-05 1.23288 0)
(-0.000131878 1.23302 0)
(-0.00028586 1.2332 0)
(-0.000390856 1.23336 0)
(-0.000441043 1.23326 0)
(-0.000446839 1.23254 0)
(-0.000424305 1.23043 0)
(-0.000395015 1.22543 0)
(-0.000396792 1.2141 0)
(-0.000704002 1.18978 0)
(-0.000970628 1.13915 0)
(0.000625605 1.04006 0)
(-0.00992257 0.876493 0)
(0.00138382 0.712491 0)
(0.0117662 0.707465 0)
(0.0129407 0.891651 0)
(0.0171766 1.06366 0)
(0.00978091 1.16082 0)
(0.00632481 1.20604 0)
(0.00453155 1.22713 0)
(0.00343892 1.2369 0)
(0.00278281 1.24135 0)
(0.00230106 1.24318 0)
(0.00190999 1.24384 0)
(0.00160227 1.24396 0)
(0.00133156 1.24385 0)
(0.00107263 1.24374 0)
(0.000810313 1.24362 0)
(0.000546659 1.2436 0)
(0.000301542 1.24363 0)
(6.16182e-05 1.24366 0)
(-0.00016236 1.24376 0)
(-0.00035449 1.24389 0)
(-0.000511776 1.24397 0)
(-0.000638089 1.24381 0)
(-0.000770477 1.24304 0)
(-0.000940971 1.24092 0)
(-0.00118833 1.23594 0)
(-0.0016716 1.22479 0)
(-0.00285293 1.2011 0)
(-0.00517129 1.15151 0)
(-0.00697299 1.05276 0)
(-0.0113639 0.88624 0)
(-0.00843508 0.715121 0)
(0.00213003 0.712962 0)
(0.00864339 0.902172 0)
(0.00835626 1.07765 0)
(0.00324937 1.1735 0)
(0.0032083 1.21785 0)
(0.00317247 1.23854 0)
(0.00293762 1.24802 0)
(0.00264989 1.25234 0)
(0.00233255 1.25414 0)
(0.00201464 1.25476 0)
(0.0017224 1.25486 0)
(0.00143451 1.25477 0)
(0.00114933 1.25465 0)
(0.000859141 1.25455 0)
(0.000563215 1.25452 0)
(0.000284583 1.25453 0)
(1.4728e-05 1.25456 0)
(-0.000246872 1.25462 0)
(-0.000490576 1.2547 0)
(-0.000711519 1.25474 0)
(-0.000921701 1.25454 0)
(-0.00115689 1.25379 0)
(-0.00145418 1.25171 0)
(-0.00186054 1.24686 0)
(-0.00250979 1.23612 0)
(-0.00365291 1.21334 0)
(-0.00589752 1.16565 0)
(-0.00877706 1.06858 0)
(-0.0108129 0.900096 0)
(-0.0102949 0.715479 0)
(-0.00621445 0.718853 0)
(0.00517167 0.908305 0)
(-0.00189682 1.087 0)
(-0.00218038 1.1821 0)
(0.000918133 1.22747 0)
(0.00232043 1.24891 0)
(0.00273319 1.25875 0)
(0.00269596 1.26322 0)
(0.0024785 1.26511 0)
(0.0021917 1.26576 0)
(0.00188215 1.26587 0)
(0.00155803 1.26581 0)
(0.00123193 1.2657 0)
(0.000898896 1.26562 0)
(0.00056315 1.26558 0)
(0.000244184 1.26557 0)
(-6.42572e-05 1.26559 0)
(-0.000370445 1.26563 0)
(-0.000669017 1.26568 0)
(-0.000955866 1.26568 0)
(-0.00124563 1.26548 0)
(-0.0015617 1.26474 0)
(-0.00193903 1.26272 0)
(-0.00241526 1.258 0)
(-0.00303122 1.24757 0)
(-0.0037713 1.22527 0)
(-0.00472935 1.17839 0)
(-0.00745456 1.08279 0)
(-0.00776422 0.913753 0)
(-0.00631622 0.717812 0)
(-0.0110986 0.728759 0)
(0.002285 0.916535 0)
(-0.00887106 1.09288 0)
(-0.00339069 1.18815 0)
(0.00123281 1.23567 0)
(0.00284087 1.2587 0)
(0.00326329 1.26932 0)
(0.0031386 1.2741 0)
(0.00283252 1.27614 0)
(0.00247218 1.27685 0)
(0.00209175 1.277 0)
(0.00170154 1.27697 0)
(0.00131756 1.27686 0)
(0.000933739 1.2768 0)
(0.000553277 1.27675 0)
(0.000192225 1.27673 0)
(-0.000161898 1.27674 0)
(-0.000516706 1.27677 0)
(-0.000872899 1.2768 0)
(-0.00122691 1.27678 0)
(-0.00159484 1.27657 0)
(-0.00199321 1.27585 0)
(-0.00244904 1.27388 0)
(-0.00299913 1.26923 0)
(-0.00361444 1.25891 0)
(-0.00413686 1.2366 0)
(-0.00413564 1.18949 0)
(-0.0051538 1.09413 0)
(-0.00690568 0.924226 0)
(-0.000131915 0.724351 0)
(-0.00773074 0.740568 0)
(-0.000545116 0.926664 0)
(-0.00791325 1.0959 0)
(0.000894367 1.192 0)
(0.00452063 1.24413 0)
(0.00496015 1.26883 0)
(0.00458332 1.28017 0)
(0.00397709 1.28523 0)
(0.003379 1.28736 0)
(0.00283686 1.2881 0)
(0.00233532 1.28826 0)
(0.00185621 1.28824 0)
(0.00139872 1.28812 0)
(0.000960765 1.28807 0)
(0.000538297 1.28801 0)
(0.000133353 1.28798 0)
(-0.000266265 1.28799 0)
(-0.000671061 1.28801 0)
(-0.00108468 1.28803 0)
(-0.00150867 1.288 0)
(-0.00195696 1.28781 0)
(-0.00245124 1.2871 0)
(-0.00302608 1.28518 0)
(-0.00372809 1.2806 0)
(-0.00455059 1.27028 0)
(-0.00535811 1.24777 0)
(-0.00531126 1.19985 0)
(-0.00420703 1.10333 0)
(-0.00694933 0.932909 0)
(0.00230217 0.732576 0)
(-0.00356611 0.752448 0)
(-0.00143082 0.938033 0)
(0.00193594 1.0984 0)
(0.00979612 1.20069 0)
(0.0103928 1.25498 0)
(0.00823577 1.28037 0)
(0.00637073 1.29184 0)
(0.00499745 1.29684 0)
(0.00398693 1.29886 0)
(0.00320844 1.29954 0)
(0.00256371 1.29966 0)
(0.00199608 1.29962 0)
(0.00146714 1.29948 0)
(0.000974834 1.29943 0)
(0.000516004 1.29935 0)
(7.0543e-05 1.29932 0)
(-0.000371794 1.29932 0)
(-0.000822227 1.29934 0)
(-0.00128715 1.29936 0)
(-0.00177525 1.29933 0)
(-0.00230488 1.29916 0)
(-0.00290766 1.29849 0)
(-0.00364266 1.29666 0)
(-0.0045856 1.2922 0)
(-0.00581526 1.28201 0)
(-0.00731696 1.25946 0)
(-0.00828664 1.21052 0)
(-0.00622455 1.11196 0)
(-0.00733468 0.941507 0)
(0.000703796 0.740804 0)
(-0.00324975 0.75964 0)
(0.00916189 0.944416 0)
(0.0167219 1.10725 0)
(0.0198173 1.21574 0)
(0.0168459 1.27009 0)
(0.0113677 1.29403 0)
(0.00795343 1.30457 0)
(0.00582849 1.309 0)
(0.00444691 1.31068 0)
(0.00347141 1.31117 0)
(0.0027111 1.31119 0)
(0.00207617 1.31109 0)
(0.00150471 1.31093 0)
(0.000974476 1.31085 0)
(0.000483477 1.31076 0)
(4.97821e-06 1.31072 0)
(-0.000472478 1.31071 0)
(-0.000959295 1.31074 0)
(-0.00146109 1.31077 0)
(-0.00199844 1.31076 0)
(-0.00259674 1.31063 0)
(-0.00330228 1.31005 0)
(-0.00420392 1.30837 0)
(-0.00541776 1.30415 0)
(-0.00711373 1.29431 0)
(-0.00949971 1.27215 0)
(-0.0118544 1.22308 0)
(-0.0109797 1.12091 0)
(-0.00872093 0.94951 0)
(-0.00157633 0.748247 0)
(0.011303 0.765068 0)
(0.0227536 0.948939 0)
(0.0268414 1.12378 0)
(0.0268442 1.23692 0)
(0.0190468 1.28857 0)
(0.0123826 1.30946 0)
(0.00844438 1.31813 0)
(0.00605412 1.32156 0)
(0.00455108 1.32272 0)
(0.00351497 1.32294 0)
(0.00272088 1.32282 0)
(0.00206683 1.32263 0)
(0.00148952 1.32244 0)
(0.000949154 1.32232 0)
(0.000437103 1.32222 0)
(-6.21896e-05 1.32217 0)
(-0.000560233 1.32217 0)
(-0.0010653 1.32221 0)
(-0.00158762 1.32225 0)
(-0.0021509 1.32228 0)
(-0.00278918 1.3222 0)
(-0.00356235 1.32174 0)
(-0.00457926 1.32029 0)
(-0.00599977 1.31644 0)
(-0.0080718 1.30723 0)
(-0.0112046 1.28595 0)
(-0.0153064 1.23782 0)
(-0.0157846 1.13397 0)
(-0.0139394 0.956096 0)
(-0.00302781 0.753123 0)
(0.023441 0.750388 0)
(0.0221781 0.959147 0)
(0.0284618 1.14661 0)
(0.0243757 1.25972 0)
(0.014924 1.30755 0)
(0.0103508 1.32487 0)
(0.00740126 1.33169 0)
(0.00548301 1.33414 0)
(0.00420886 1.33478 0)
(0.00329338 1.33473 0)
(0.00257096 1.33447 0)
(0.00195757 1.3342 0)
(0.00140527 1.33398 0)
(0.000881562 1.33383 0)
(0.000374554 1.33372 0)
(-0.000125455 1.33366 0)
(-0.000622313 1.33367 0)
(-0.00112578 1.33371 0)
(-0.00164935 1.33377 0)
(-0.00221268 1.33383 0)
(-0.00284912 1.33383 0)
(-0.0036251 1.33352 0)
(-0.00465023 1.33233 0)
(-0.00610208 1.32896 0)
(-0.00827742 1.32057 0)
(-0.0116511 1.30064 0)
(-0.0172324 1.25458 0)
(-0.018542 1.14967 0)
(-0.0176139 0.96232 0)
(-0.00873975 0.756823 0)
(0.011278 0.75308 0)
(0.0124843 0.968235 0)
(0.0229468 1.16427 0)
(0.0139585 1.27729 0)
(0.00792895 1.3228 0)
(0.00673711 1.33853 0)
(0.00538602 1.34442 0)
(0.00433152 1.34631 0)
(0.00351556 1.34664 0)
(0.00285399 1.34642 0)
(0.00228273 1.34608 0)
(0.00175783 1.34575 0)
(0.0012564 1.34552 0)
(0.000772826 1.34535 0)
(0.000296249 1.34524 0)
(-0.000181088 1.34518 0)
(-0.00065745 1.34518 0)
(-0.0011389 1.34523 0)
(-0.00164066 1.34531 0)
(-0.00217566 1.34541 0)
(-0.00276655 1.34547 0)
(-0.0034695 1.34529 0)
(-0.00437446 1.34436 0)
(-0.00563771 1.34143 0)
(-0.00752282 1.33387 0)
(-0.0104336 1.31544 0)
(-0.0156435 1.27171 0)
(-0.0196892 1.16659 0)
(-0.0162151 0.97295 0)
(-0.0156375 0.753336 0)
(0.00612531 0.761125 0)
(0.014679 0.975027 0)
(0.0164749 1.17801 0)
(0.00328779 1.28965 0)
(0.0023302 1.33416 0)
(0.00323792 1.35019 0)
(0.00323435 1.35608 0)
(0.00300685 1.35791 0)
(0.00267732 1.35819 0)
(0.00230519 1.35794 0)
(0.00191233 1.35759 0)
(0.00149834 1.35726 0)
(0.00106932 1.35703 0)
(0.000640137 1.35686 0)
(0.000207936 1.35675 0)
(-0.000231844 1.3567 0)
(-0.00067372 1.3567 0)
(-0.00111669 1.35676 0)
(-0.00157123 1.35684 0)
(-0.0020512 1.35696 0)
(-0.00256303 1.35705 0)
(-0.00313427 1.35697 0)
(-0.00381915 1.3562 0)
(-0.00471692 1.3536 0)
(-0.00597621 1.34662 0)
(-0.00772653 1.32926 0)
(-0.0104374 1.28685 0)
(-0.0167596 1.18119 0)
(-0.0107941 0.982292 0)
(-0.0106044 0.753323 0)
(-0.00214186 0.765005 0)
(0.0181242 0.981118 0)
(0.00409968 1.19011 0)
(-0.00334691 1.29887 0)
(-0.00116163 1.34322 0)
(0.000687893 1.36036 0)
(0.00154188 1.36683 0)
(0.00186928 1.36897 0)
(0.00190409 1.36942 0)
(0.00176863 1.36927 0)
(0.00152903 1.36899 0)
(0.00122117 1.36871 0)
(0.000870883 1.36851 0)
(0.000500163 1.36835 0)
(0.000116491 1.36826 0)