/*--------------------------------*- C++ -*----------------------------------*\
| =========                 |                                                 |
| \\      /  F ield         | OpenFOAM: The Open Source CFD Toolbox           |
|  \\    /   O peration     | Version:  2.3.0                                 |
|   \\  /    A nd           | Web:      www.OpenFOAM.org                      |
|    \\/     M anipulation  |                                                 |
\*---------------------------------------------------------------------------*/
FoamFile
{
    version     2.0;
    format      ascii;
    class       volScalarField;
    location    "1.41";
    object      k.air;
}
// * * * * * * * * * * * * * * * * * * * * * * * * * * * * * * * * * * * * * //

dimensions      [0 2 -2 0 0 0 0];

internalField   nonuniform List<scalar> 
6000
(
0.818696
0.905004
0.928403
0.943787
0.964515
0.989901
1.02375
1.05099
1.04482
1.0331
1.02513
1.02609
1.03569
1.04299
1.03762
1.02738
1.01672
1.00461
0.995072
0.990826
0.993002
1.00854
1.01049
0.986883
0.994891
1.01606
1.03957
1.05251
0.990791
0.811101
0.557938
0.839073
0.930365
0.994626
1.04663
1.11836
1.2091
1.261
1.30246
1.3047
1.28671
1.27544
1.28161
1.27173
1.24208
1.20645
1.17817
1.15251
1.13524
1.12754
1.11035
1.09944
1.0879
1.06494
1.06812
1.09984
1.15406
1.22005
1.1878
0.741075
0.412471
0.736609
0.878522
0.965534
1.04217
1.12787
1.21399
1.26523
1.30558
1.32989
1.33759
1.33196
1.32326
1.31288
1.29179
1.26433
1.23812
1.21476
1.20225
1.19965
1.1925
1.18174
1.15794
1.12326
1.11287
1.13335
1.18012
1.20703
1.14498
0.699859
0.329054
0.637418
0.809869
0.927982
1.03216
1.14978
1.24755
1.29767
1.34726
1.38964
1.41708
1.41939
1.39748
1.37434
1.34562
1.31407
1.2864
1.26578
1.25562
1.25388
1.24702
1.23059
1.19657
1.15614
1.13815
1.14153
1.16371
1.18931
1.10701
0.664824
0.271525
0.572962
0.7639
0.909204
1.03999
1.18179
1.29079
1.35806
1.42362
1.47965
1.51403
1.51965
1.49247
1.45013
1.40843
1.37427
1.34779
1.32767
1.31449
1.30637
1.29621
1.2767
1.24104
1.20431
1.18862
1.1794
1.17488
1.18669
1.07811
0.636139
0.252021
0.565296
0.766143
0.933661
1.09077
1.24699
1.35752
1.43996
1.5224
1.59048
1.63087
1.63514
1.59542
1.54305
1.49673
1.46064
1.43756
1.42313
1.41134
1.40067
1.38769
1.36625
1.33219
1.30035
1.27815
1.25589
1.22438
1.20235
1.06146
0.614998
0.259979
0.599707
0.823128
1.01919
1.18955
1.3399
1.45889
1.54907
1.64741
1.72751
1.7703
1.76514
1.72338
1.67174
1.62607
1.59768
1.58085
1.56956
1.55883
1.54613
1.53003
1.50568
1.47118
1.43678
1.40956
1.37704
1.31441
1.22689
1.03338
0.587685
0.298381
0.694255
0.942863
1.14768
1.31868
1.46443
1.60533
1.69735
1.80632
1.89933
1.94211
1.92663
1.90318
1.85084
1.8161
1.79131
1.77219
1.75477
1.7364
1.71685
1.69589
1.67188
1.64348
1.61865
1.6011
1.56938
1.46456
1.25193
0.962125
0.551262
0.366207
0.81754
1.08529
1.29583
1.47134
1.62314
1.78106
1.89542
2.00838
2.11793
2.15718
2.14052
2.13334
2.09615
2.06141
2.02815
1.99665
1.96475
1.93247
1.90114
1.87476
1.85496
1.84501
1.85093
1.87622
1.87648
1.70923
1.29808
0.821946
0.474159
0.431633
0.959946
1.24602
1.46297
1.64717
1.8114
1.97683
2.14585
2.27385
2.38485
2.41967
2.42221
2.43459
2.40447
2.35843
2.30688
2.25289
2.19688
2.14024
2.09047
2.0528
2.03655
2.04857
2.09555
2.19756
2.29381
2.08128
1.46864
0.83181
0.409126
0.548874
1.13853
1.42873
1.6506
1.84853
2.03659
2.22504
2.42867
2.60328
2.69168
2.70124
2.76943
2.81739
2.78374
2.71434
2.63063
2.53959
2.44273
2.34996
2.26833
2.20954
2.18202
2.19167
2.25127
2.3794
2.4933
2.27702
1.74683
1.03054
0.429905
0.674211
1.32344
1.6223
1.85482
2.0749
2.29407
2.51933
2.75356
2.98132
3.08003
3.02103
3.18868
3.30128
3.25173
3.13716
2.99989
2.84783
2.6941
2.5478
2.42243
2.32444
2.26051
2.2364
2.25386
2.32776
2.35287
2.19157
1.84961
1.31099
0.574809
0.762923
1.471
1.78436
2.06022
2.31705
2.57597
2.84755
3.13611
3.41956
3.54487
3.45159
3.66886
3.89548
3.81463
3.62541
3.40432
3.17039
2.93795
2.72871
2.54914
2.40786
2.30743
2.23861
2.19004
2.19401
2.17765
2.02033
1.7762
1.35546
0.644649
0.743255
1.50487
1.92784
2.24173
2.55431
2.86105
3.17901
3.52326
3.87529
4.04331
3.98328
4.19319
4.53707
4.47097
4.17154
3.83317
3.4842
3.16221
2.88608
2.65773
2.47765
2.35048
2.24946
2.14161
2.05627
1.99161
1.83276
1.62504
1.28027
0.616636
0.678768
1.44734
1.98728
2.417
2.77004
3.12535
3.47979
3.85748
4.23302
4.43724
4.42101
4.59912
4.91206
4.98262
4.60611
4.1746
3.74016
3.34938
3.02647
2.75761
2.55756
2.41526
2.28253
2.13326
1.99321
1.85056
1.66696
1.44559
1.11246
0.536706
0.624288
1.38283
1.969
2.49105
2.98189
3.37233
3.75
4.12424
4.47963
4.67763
4.66916
4.78984
5.01411
5.17027
4.84661
4.34117
3.86049
3.45426
3.11369
2.82146
2.60116
2.45694
2.32542
2.18069
2.02911
1.83587
1.60831
1.34761
0.992137
0.45981
0.579792
1.34351
1.95898
2.49456
3.0581
3.61738
4.03242
4.36333
4.64117
4.79183
4.78685
4.87884
5.07891
5.27908
5.00745
4.44012
3.92473
3.49838
3.14237
2.83578
2.59794
2.43352
2.29927
2.17792
2.03019
1.83571
1.60619
1.32992
0.97495
0.449762
0.556871
1.33695
1.97365
2.51696
3.06336
3.68759
4.29303
4.68505
4.83397
4.90458
4.89193
4.97991
5.18391
5.41658
5.15529
4.52988
3.98078
3.5293
3.14829
2.82091
2.56896
2.39776
2.23939
2.09938
1.95685
1.78192
1.56118
1.28978
0.94863
0.439137
0.565733
1.38751
2.03813
2.59652
3.12045
3.69022
4.33434
4.90096
5.02782
5.01703
5.00465
5.08646
5.30332
5.5537
5.26896
4.60829
4.03619
3.56225
3.15845
2.81146
2.53757
2.35345
2.18623
2.01273
1.84299
1.65598
1.44141
1.19058
0.881146
0.404456
0.611624
1.51199
2.16319
2.72362
3.24254
3.73227
4.29252
4.83481
5.12128
5.08211
5.09613
5.18186
5.41349
5.66506
5.3488
4.67482
4.09228
3.60137
3.1776
2.8114
2.51271
2.3031
2.13129
1.93137
1.73362
1.53403
1.31741
1.07408
0.777367
0.352287
0.695029
1.66424
2.30898
2.85811
3.37736
3.83243
4.27584
4.71825
5.02441
5.07719
5.14121
5.25047
5.49885
5.75454
5.40951
4.73554
4.15008
3.64797
3.20766
2.8228
2.49751
2.24894
2.05617
1.84592
1.6305
1.42397
1.21078
0.975427
0.688655
0.304296
0.791595
1.81491
2.44713
2.98016
3.48967
3.95937
4.30599
4.63198
4.89433
5.06056
5.15182
5.28432
5.54868
5.81259
5.45558
4.7926
4.20967
3.70017
3.24663
2.84426
2.49252
2.20157
1.97414
1.7526
1.53013
1.32185
1.11606
0.891983
0.619174
0.267583
0.867062
1.94051
2.57106
3.0892
3.57777
4.05703
4.38331
4.60528
4.81827
5.0202
5.13166
5.28432
5.55949
5.83986
5.48854
4.84384
4.27059
3.75705
3.2921
2.87351
2.49861
2.17348
1.9075
1.66471
1.43862
1.23245
1.03301
0.821074
0.570254
0.24186
0.923932
2.05456
2.68798
3.1908
3.65185
4.1023
4.46057
4.61105
4.77069
4.93755
5.08014
5.2572
5.5348
5.82688
5.50548
4.8875
4.33086
3.81818
3.34344
2.90967
2.51698
2.1705
1.87287
1.60271
1.36663
1.16268
0.970271
0.768832
0.539947
0.227826
0.992914
2.1872
2.81307
3.29366
3.72349
4.11728
4.46579
4.61407
4.7539
4.88042
5.02152
5.20971
5.47581
5.76958
5.50787
4.93258
4.39677
3.88631
3.40164
2.9529
2.54737
2.19164
1.86947
1.57403
1.32715
1.12035
0.933502
0.740852
0.527362
0.223272
1.04464
2.26657
2.91542
3.40944
3.81509
4.15895
4.4494
4.60695
4.75253
4.85743
4.98439
5.15988
5.39527
5.67842
5.51959
5.01336
4.49348
3.97246
3.46818
3.00067
2.58719
2.22779
1.88547
1.578
1.3254
1.11481
0.92842
0.741506
0.533065
0.22727
1.1302
2.38886
3.04498
3.52268
3.94105
4.27463
4.49912
4.64038
4.78548
4.87483
4.98136
5.13036
5.3262
5.59981
5.59762
5.17186
4.64803
4.08908
3.54529
3.04816
2.63016
2.26277
1.91328
1.60978
1.35762
1.14528
0.956787
0.769133
0.560855
0.24791
1.11483
2.3911
3.10853
3.66317
4.13463
4.50323
4.68127
4.78644
4.89774
4.93861
5.01525
5.15399
5.34443
5.62874
5.8126
5.45881
4.88162
4.24366
3.63078
3.09561
2.66819
2.2902
1.95331
1.66591
1.42237
1.21293
1.02212
0.828955
0.611036
0.281152
1.06836
2.3418
3.05275
3.64244
4.17157
4.57096
4.78196
4.90417
4.9865
5.04473
5.1335
5.27829
5.50178
5.82924
6.17386
5.89519
5.17919
4.41454
3.7142
3.142
2.70001
2.32538
2.00577
1.73328
1.49919
1.29117
1.09468
0.893351
0.663895
0.305562
1.04427
2.28295
2.9622
3.50849
3.99543
4.40523
4.67317
4.8387
4.95956
5.06821
5.20378
5.39017
5.65995
6.00391
6.34294
6.19077
5.44416
4.56596
3.7873
3.19279
2.74479
2.37648
2.06598
1.80086
1.56882
1.35672
1.15199
0.944215
0.708266
0.322439
1.01741
2.21119
2.84673
3.33938
3.76147
4.11928
4.40143
4.61569
4.79086
4.95031
5.12142
5.32546
5.57825
5.85608
6.0658
5.9696
5.38882
4.58312
3.83471
3.25735
2.80426
2.43472
2.12503
1.85897
1.62158
1.40114
1.19036
0.979228
0.737408
0.334038
0.984185
2.12612
2.71933
3.16752
3.54304
3.86108
4.12585
4.34775
4.54265
4.72588
4.91257
5.11131
5.31874
5.507
5.62957
5.57218
5.12935
4.47468
3.83288
3.2897
2.8456
2.47864
2.1685
1.89705
1.65177
1.42613
1.21313
0.999932
0.75347
0.339439
0.948133
2.03859
2.59313
3.00628
3.34867
3.64124
3.89281
4.11195
4.30731
4.49038
4.67156
4.85402
5.02919
5.17566
5.2712
5.25923
4.88678
4.32092
3.76331
3.26866
2.84872
2.49204
2.18212
1.90724
1.66067
1.4357
1.22345
1.00919
0.758507
0.340605
0.914536
1.95451
2.47511
2.85974
3.17744
3.45079
3.69024
3.90248
4.09309
4.26959
4.44024
4.60722
4.76403
4.89596
4.99365
5.01142
4.67023
4.15703
3.65694
3.2057
2.81122
2.4665
2.16334
1.89475
1.65402
1.43379
1.22461
1.01278
0.759541
0.342145
0.887024
1.87497
2.36609
2.72778
3.02604
3.28424
3.51243
3.71606
3.89897
4.06632
4.22631
4.38254
4.53019
4.65929
4.76413
4.79437
4.46492
3.98757
3.52638
3.10893
2.73916
2.41301
2.12469
1.86808
1.63674
1.42368
1.21985
1.01007
0.76205
0.341376
0.86266
1.79982
2.26645
2.60961
2.89266
3.13869
3.35739
3.55314
3.72818
3.88652
4.03773
4.18616
4.32711
4.45319
4.55712
4.57918
4.25682
3.80894
3.37993
2.99453
2.6515
2.3471
2.07628
1.83352
1.61293
1.40824
1.21101
1.00744
0.762651
0.341167
0.841452
1.73235
2.17715
2.50466
2.77558
3.01204
3.22298
3.41206
3.58051
3.7313
3.87532
4.01628
4.14942
4.26823
4.36029
4.35512
4.03955
3.62489
3.22976
2.87551
2.55905
2.27661
2.02364
1.79526
1.58622
1.39053
1.20079
1.00405
0.76072
0.342938
0.821628
1.67001
2.09741
2.41167
2.67296
2.90113
3.10478
3.28791
3.4503
3.5955
3.73356
3.86672
3.99213
4.10192
4.17425
4.12758
3.82006
3.44222
3.08162
2.7573
2.46627
2.20519
1.96997
1.75616
1.55896
1.37293
1.19064
0.997928
0.759276
0.344123
0.796137
1.60792
2.02541
2.32903
2.58135
2.80115
2.99657
3.17355
3.33226
3.47589
3.60773
3.73072
3.84819
3.95167
4.00198
3.90566
3.60752
3.26368
2.93613
2.64061
2.37445
2.13453
1.91706
1.71791
1.53258
1.35575
1.18003
0.992017
0.757998
0.343554
0.76609
1.54761
1.9597
2.25478
2.49848
2.70774
2.8925
3.06602
3.22764
3.37785
3.50132
3.60864
3.71472
3.81142
3.83475
3.68841
3.40011
3.0866
2.79236
2.52578
2.28461
2.06594
1.8662
1.68153
1.50772
1.33976
1.17051
0.987212
0.756409
0.342697
0.739521
1.49195
1.8995
2.18783
2.42096
2.61775
2.79354
2.96801
3.13903
3.30091
3.4137
3.50283
3.5932
3.67467
3.65616
3.46455
3.19218
2.91264
2.65276
2.41538
2.19901
2.00142
1.81913
1.64861
1.48592
1.32645
1.16342
0.984403
0.756068
0.342448
0.715032
1.44307
1.84776
2.12781
2.34822
2.53218
2.70248
2.88006
3.05833
3.21466
3.33332
3.41307
3.48741
3.53392
3.44369
3.23746
2.99356
2.75023
2.52269
2.3132
2.12074
1.9436
1.77795
1.62079
1.46862
1.31719
1.16003
0.984829
0.758275
0.343521
0.696833
1.39952
1.804
2.07573
2.27937
2.45346
2.62157
2.79946
2.97253
3.123
3.26016
3.34522
3.39878
3.38046
3.24013
3.04022
2.82094
2.60719
2.40767
2.22373
2.05264
1.89473
1.7441
1.59888
1.45643
1.3127
1.16119
0.989496
0.764364
0.346736
0.667651
1.34897
1.76099
2.02945
2.21773
2.38634
2.55658
2.73029
2.9007
3.05916
3.21423
3.31734
3.34485
3.26232
3.08787
2.88635
2.68215
2.4891
2.31258
2.15028
1.99918
1.85479
1.71646
1.58241
1.44964
1.31372
1.16791
0.999646
0.775251
0.352236
0.636087
1.286
1.71506
1.98856
2.16501
2.33471
2.51324
2.68442
2.86212
3.04249
3.21437
3.33818
3.34496
3.19915
2.9919
2.77811
2.57765
2.397
2.2405
2.09432
1.95352
1.8217
1.69595
1.57355
1.45057
1.32232
1.18195
1.01637
0.791208
0.359834
0.593853
1.20404
1.66943
1.95226
2.1248
2.3006
2.48901
2.67171
2.86415
3.07127
3.26216
3.38976
3.37318
3.17229
2.93407
2.7057
2.50561
2.33939
2.18532
2.04451
1.91656
1.79771
1.68498
1.57446
1.46122
1.34031
1.20463
1.04036
0.812236
0.36939
0.536063
1.11283
1.63028
1.9227
2.10044
2.28786
2.48857
2.69172
2.90331
3.14353
3.35773
3.47122
3.40447
3.16593
2.89792
2.65788
2.46105
2.28783
2.13736
2.00588
1.88866
1.78314
1.68475
1.58693
1.48284
1.36878
1.23691
1.07218
0.838629
0.380901
0.477347
1.0568
1.61405
1.90431
2.09708
2.29724
2.51231
2.74094
2.9834
3.25153
3.4824
3.58049
3.45023
3.15932
2.87706
2.63098
2.42022
2.24307
2.0974
1.97557
1.87316
1.78354
1.69925
1.61199
1.51607
1.40854
1.27998
1.11325
0.871473
0.396709
0.454272
1.07191
1.63634
1.9103
2.11276
2.32735
2.55896
2.80814
3.08122
3.37329
3.61112
3.68195
3.45463
3.12069
2.83399
2.58157
2.36909
2.19826
2.06213
1.95605
1.87273
1.79627
1.72796
1.64698
1.55875
1.45949
1.33576
1.1657
0.914661
0.42126
0.477096
1.16292
1.70841
1.94202
2.14929
2.37156
2.61039
2.87356
3.16981
3.48276
3.72109
3.67776
3.3586
3.03481
2.75169
2.50905
2.31097
2.15351
2.03257
1.94421
1.87893
1.82872
1.75864
1.68028
1.60663
1.5226
1.40745
1.24095
0.967091
0.457486
0.575315
1.37167
1.84718
2.01078
2.20331
2.41956
2.65203
2.9134
3.21535
3.54729
3.74801
3.52777
3.20998
2.91477
2.65285
2.43197
2.25228
2.11138
2.00795
1.93552
1.89099
1.84205
1.776
1.71876
1.66638
1.60174
1.50483
1.33681
1.05715
0.495821
0.735186
1.65043
2.01154
2.1036
2.26688
2.46161
2.67392
2.91768
3.20002
3.51272
3.55831
3.31728
3.0492
2.78831
2.55529
2.35777
2.1971
2.07319
1.98479
1.92891
1.89239
1.85216
1.80145
1.76417
1.7372
1.70442
1.62422
1.4671
1.17312
0.548075
0.888121
1.92472
2.1799
2.20666
2.32547
2.49121
2.69795
2.92524
3.14041
3.32338
3.28542
3.13407
2.91306
2.67934
2.4694
2.29212
2.14914
2.04081
1.96789
1.92431
1.90064
1.86867
1.82656
1.81071
1.81739
1.82712
1.78679
1.60788
1.31072
0.616349
1.02252
2.14992
2.34514
2.29649
2.36057
2.51906
2.74948
2.96827
3.08648
3.14101
3.1523
3.0522
2.83119
2.59829
2.39892
2.23623
2.10931
2.01404
1.9536
1.92132
1.91087
1.89108
1.8506
1.85451
1.89978
1.96179
1.9453
1.77903
1.48373
0.71493
1.10167
2.29528
2.4604
2.3341
2.37496
2.53582
2.76275
2.9682
3.07084
3.11891
3.19833
3.06334
2.78839
2.5408
2.33675
2.18171
2.07278
1.99501
1.94524
1.91342
1.90158
1.88178
1.85393
1.8844
1.97814
2.10046
2.08096
1.97911
1.73306
0.890704
1.11699
2.32786
2.49298
2.36017
2.40818
2.55366
2.75335
2.9396
3.04619
3.10739
3.14332
3.00602
2.75384
2.49021
2.26671
2.11519
2.0305
1.98414
1.95602
1.92111
1.89061
1.83853
1.82161
1.87625
2.00935
2.18926
2.22681
2.20169
2.08952
1.22272
1.10084
2.29458
2.50591
2.45164
2.51442
2.65176
2.80687
2.94528
3.0236
3.03353
2.97368
2.81914
2.61912
2.41625
2.22402
2.08858
2.01082
1.95218
1.91951
1.89157
1.86147
1.80026
1.77673
1.83425
1.9734
2.17829
2.31843
2.37836
2.43367
1.63484
1.0888
2.22094
2.55554
2.66983
2.75347
2.85343
2.94597
2.99546
2.98429
2.92221
2.81568
2.66147
2.47936
2.29969
2.13696
2.00417
1.91089
1.85775
1.84234
1.83673
1.82198
1.76724
1.7467
1.80347
1.93794
2.13092
2.33388
2.51918
2.65061
1.85343
1.08127
2.17036
2.61482
2.83347
2.92981
3.00658
3.03035
2.98231
2.88975
2.78665
2.66936
2.52207
2.35162
2.18051
2.02342
1.88959
1.79038
1.74282
1.74167
1.75502
1.74999
1.71715
1.73549
1.8191
1.97679
2.18731
2.4363
2.70349
2.84359
1.88312
1.07854
2.10333
2.54826
2.80056
2.94443
3.00529
2.97094
2.87082
2.74999
2.63399
2.51362
2.37617
2.22047
2.05961
1.9062
1.77094
1.66836
1.62324
1.63009
1.65327
1.65999
1.68164
1.75478
1.89978
2.12031
2.40439
2.7227
3.00114
3.01186
1.84632
1.05454
1.99415
2.39196
2.66547
2.81752
2.84488
2.78302
2.67605
2.55762
2.4407
2.32309
2.19848
2.06335
1.92204
1.77912
1.65008
1.55191
1.51248
1.52326
1.55012
1.59419
1.68373
1.82763
2.05879
2.38616
2.77504
3.11277
3.28023
2.99701
1.72641
0.985333
1.81376
2.16486
2.40624
2.53541
2.5588
2.50937
2.41765
2.31108
2.20234
2.09318
1.98135
1.86533
1.74759
1.62725
1.51587
1.43234
1.40311
1.4165
1.46462
1.56414
1.72047
1.95865
2.30809
2.75897
3.21282
3.49161
3.40143
2.78772
1.5711
0.891119
1.60191
1.89747
2.09182
2.19807
2.22343
2.18915
2.1175
2.02831
1.93299
1.83588
1.73652
1.63499
1.53727
1.4433
1.35655
1.29754
1.28575
1.31862
1.40788
1.5642
1.79973
2.14811
2.6235
3.15765
3.60552
3.7154
3.3343
2.45783
1.39611
0.782108
1.3812
1.62227
1.77174
1.85543
1.87957
1.85834
1.80528
1.73314
1.65241
1.56842
1.48276
1.39625
1.31465
1.24332
1.18567
1.15931
1.17685
1.24492
1.38065
1.59607
1.91895
2.38162
2.95138
3.5084
3.85653
3.72923
3.15837
2.18671
1.22696
0.670035
1.16455
1.36407
1.47706
1.53901
1.55808
1.54385
1.50368
1.44563
1.37875
1.30802
1.23666
1.16587
1.10206
1.05441
1.02896
1.03805
1.08867
1.1976
1.38048
1.66091
2.07266
2.6293
3.24815
3.77923
3.94725
3.65129
2.97594
1.99198
1.07974
0.566043
0.955078
1.12955
1.21629
1.25925
1.27038
1.25814
1.22583
1.17912
1.12464
1.06687
1.00885
0.954274
0.911924
0.891149
0.89886
0.939834
1.02706
1.1758
1.4087
1.75687
2.25532
2.88677
3.53616
3.9783
3.93582
3.50316
2.8066
1.86326
0.965006
0.469272
0.76373
0.91874
0.986667
1.01439
1.01702
1.00439
0.977239
0.940173
0.897161
0.851147
0.806427
0.770072
0.750983
0.758564
0.796535
0.871945
0.99318
1.18143
1.46654
1.88356
2.46485
3.15738
3.81718
4.09571
3.87102
3.34922
2.66146
1.78309
0.885322
0.383228
0.598416
0.731023
0.784034
0.799571
0.79564
0.780806
0.758173
0.730587
0.698366
0.664533
0.635851
0.620363
0.626049
0.658857
0.726149
0.830824
0.986073
1.21595
1.55461
2.0407
2.69979
3.43976
4.06179
4.14114
3.77698
3.21516
2.54688
1.73548
0.83837
0.308956
0.458535
0.566646
0.606297
0.611641
0.602697
0.587242
0.568242
0.548819
0.528633
0.510406
0.50137
0.508163
0.537722
0.596338
0.685265
0.814534
1.00211
1.27518
1.66908
2.22502
2.9441
3.70679
4.21534
4.1376
3.68421
3.10551
2.46083
1.70788
0.818392
0.246145
0.343264
0.426547
0.453309
0.450512
0.438427
0.422384
0.406574
0.396109
0.391885
0.394231
0.40704
0.437622
0.489806
0.565869
0.671671
0.820866
1.03701
1.35117
1.7993
2.42165
3.17367
3.91775
4.28238
4.09341
3.58972
3.00995
2.39202
1.68807
0.813087
0.19461
0.252441
0.312304
0.326201
0.320027
0.304236
0.286718
0.278452
0.281436
0.296063
0.324472
0.363688
0.414489
0.479664
0.565867
0.684783
0.853187
1.09318
1.44008
1.93666
2.61568
3.37935
4.07195
4.29743
4.0102
3.48624
2.918
2.32956
1.66859
0.811758
0.152793
0.182846
0.22298
0.228255
0.219886
0.200662
0.190454
0.194856
0.215341
0.253524
0.302055
0.358736
0.423421
0.499175
0.594755
0.725735
0.913809
1.18238
1.55694
2.08642
2.8033
3.5783
4.18358
4.28064
3.90765
3.37483
2.82406
2.26549
1.64223
0.808767
0.119474
0.131971
0.157719
0.15678
0.144741
0.133205
0.137508
0.161183
0.201988
0.249254
0.302567
0.363044
0.432765
0.516903
0.625775
0.774675
0.984723
1.28412
1.70296
2.269
3.00863
3.76193
4.27869
4.24133
3.7963
3.25843
2.72622
2.19587
1.60457
0.800823
0.0940656
0.0979057
0.109423
0.104598
0.0959971
0.100636
0.12658
0.167461
0.211926
0.258944
0.31022
0.368513
0.438034
0.526101
0.644888
0.811909
1.05022
1.38744
1.8515
2.46704
3.22343
3.95812
4.39965
4.20858
3.69114
3.14429
2.62638
2.11987
1.55343
0.7839
0.0732945
0.0728751
0.0732294
0.0697096
0.075415
0.102012
0.14358
0.186948
0.229619
0.273631
0.321649
0.377209
0.445766
0.536001
0.662433
0.845228
1.11021
1.48503
1.99495
2.66029
3.46236
4.22142
4.56415
4.20664
3.60829
3.04133
2.52944
2.03952
1.48925
0.752201
0.0575698
0.0517993
0.0510948
0.0587175
0.0847849
0.128178
0.170908
0.210594
0.249556
0.290083
0.334916
0.387983
0.455566
0.54832
0.68229
0.880855
1.17135
1.58158
2.13797
2.86203
3.73461
4.53996
4.74838
4.23215
3.55435
2.95646
2.43988
1.9572
1.41078
0.708444
0.0449154
0.0405213
0.0482768
0.0731344
0.119228
0.161544
0.199277
0.23486
0.270294
0.307678
0.349791
0.400902
0.468075
0.563156
0.705253
0.920363
1.23706
1.68271
2.28515
3.07387
4.02348
4.87347
4.94786
4.29161
3.53544
2.8933
2.35833
1.87531
1.3202
0.642346
0.0366426
0.0409425
0.064815
0.113127
0.155396
0.192178
0.225889
0.25831
0.29106
0.326097
0.366304
0.416372
0.484281
0.583448
0.734735
0.965902
1.30724
1.7878
2.43504
3.28643
4.29244
5.16856
5.15153
4.37863
3.54361
2.8505
2.30032
1.85726
1.28446
0.574956
0.0359976
0.05462
0.104608
0.148241
0.185265
0.218487
0.24964
0.280044
0.311073
0.344636
0.38376
0.433655
0.50335
0.607967
0.770489
1.02032
1.38761
1.90127
2.58798
3.48681
4.52423
5.38999
5.32067
4.46351
3.56188
2.83175
2.31034
1.90799
1.28716
0.531356
0.0403933
0.0851249
0.135349
0.175014
0.209254
0.240553
0.270299
0.299588
0.329697
0.362532
0.401276
0.451621
0.523614
0.633938
0.807056
1.07308
1.46322
2.00689
2.73101
3.6666
4.72184
5.55844
5.41568
4.49364
3.56046
2.84283
2.38952
2.01496
1.30696
0.521755
0.0510166
0.108803
0.158014
0.195926
0.228856
0.259206
0.288221
0.31694
0.346674
0.379448
0.418684
0.470445
0.545464
0.661623
0.844932
1.12604
1.53568
2.1041
2.85954
3.82258
4.89065
5.67508
5.41223
4.46314
3.54933
2.9004
2.54778
2.10247
1.35605
0.533367
0.0596424
0.126501
0.175738
0.213095
0.24555
0.275477
0.304137
0.332628
0.362401
0.395726
0.43638
0.490928
0.570738
0.694337
0.888169
1.18224
1.6083
2.19852
2.98158
3.97381
5.03661
5.70163
5.34048
4.39361
3.55257
3.02081
2.71641
2.1938
1.42256
0.561759
0.0665979
0.140881
0.190649
0.228072
0.260485
0.290323
0.31894
0.347548
0.377772
0.412162
0.45492
0.513215
0.599326
0.732601
0.938319
1.24704
1.68878
2.29441
3.10236
4.10568
5.11933
5.63446
5.21493
4.32688
3.5786
3.162
2.87023
2.28834
1.48864
0.597388
0.0727971
0.153572
0.203952
0.241801
0.274477
0.304534
0.333446
0.362565
0.393678
0.42959
0.474913
0.537445
0.630405
0.77397
0.99386
1.31692
1.77355
2.39195
3.21152
4.17489
5.08235
5.47683
5.07939
4.28309
3.62741
3.28282
2.98931
2.37476
1.5481
0.625995
0.0782932
0.164971
0.216291
0.254879
0.288107
0.318655
0.348169
0.378182
0.410655
0.448607
0.49707
0.5644
0.664581
0.818306
1.051
1.38832
1.85448
2.47752
3.27858
4.16044
4.93913
5.26751
4.9398
4.24782
3.66405
3.35792
3.06286
2.44069
1.59556
0.646676
0.0830567
0.175275
0.228127
0.267756
0.301754
0.332967
0.363253
0.394408
0.428593
0.469006
0.521241
0.594261
0.702094
0.865731
1.10888
1.45657
1.92605
2.54104
3.28251
4.06396
4.73849
5.04131
4.7968
4.2011
3.67031
3.38112
3.09571
2.49004
1.63662
0.660623
0.0874006
0.18488
0.239741
0.280708
0.31563
0.347581
0.378652
0.410871
0.446413
0.488855
0.544389
0.622682
0.739768
0.913345
1.16593
1.51343
1.97855
2.56294
3.21613
3.90702
4.52877
4.82242
4.64721
4.13668
3.6538
3.36915
3.10213
2.53511
1.68373
0.673589
0.0915132
0.193971
0.251418
0.293989
0.329952
0.362613
0.394221
0.426954
0.463193
0.506018
0.561498
0.642285
0.767307
0.949297
1.20735
1.54676
1.99009
2.50975
3.08773
3.72666
4.31464
4.60232
4.48218
4.04958
3.61141
3.33345
3.09676
2.58995
1.75346
0.697641
0.0955856
0.203257
0.263668
0.307955
0.344928
0.378007
0.409364
0.440463
0.474315
0.515146
0.571441
0.6533
0.778536
0.957324
1.20467
1.52808
1.93717
2.41502
2.95083
3.54471
4.08654
4.35855
4.28441
3.93198
3.54198
3.27677
3.07961
2.65934
1.85463
0.741303
0.100266
0.213687
0.277114
0.322833
0.360487
0.393492
0.42379
0.453295
0.484852
0.522223
0.572827
0.650704
0.766495
0.927179
1.1469
1.44834
1.84584
2.30868
2.81917
3.36853
3.8519
4.09539
4.0584
3.78401
3.44873
3.20574
3.04331
2.72893
1.96931
0.799094
0.106261
0.226768
0.291998
0.338604
0.376274
0.408264
0.43687
0.464572
0.493864
0.528381
0.574342
0.640823
0.737616
0.876929
1.07788
1.35763
1.72031
2.15247
2.64548
3.16612
3.61613
3.83508
3.82296
3.61372
3.33519
3.1229
2.99262
2.78038
2.09433
0.869143
0.112367
0.239795
0.306485
0.353397
0.390409
0.421571
0.449451
0.476082
0.50377
0.535788
0.576955
0.634349
0.718104
0.841605
1.02186
1.27257
1.59726
1.99498
2.45724
2.93596
3.36891
3.59083
3.59509
3.43339
3.20711
3.02923
2.93043
2.804
2.20384
0.929374
0.11778
0.250326
0.319122
0.367097
0.404977
0.436806
0.464913
0.491269
0.518011
0.547908
0.58508
0.635853
0.709365
0.818499
0.978618
1.20165
1.4922
1.85137
2.26952
2.70222
3.11309
3.35677
3.38209
3.25254
3.07041
2.9275
2.85925
2.8005
2.2671
0.960292
0.122376
0.260338
0.331886
0.38195
0.421427
0.454406
0.483258
0.509887
0.536311
0.564922
0.599399
0.645073
0.710644
0.807182
0.948672
1.14664
1.4061
1.72566
2.0938
2.47708
2.85672
3.12534
3.18157
3.0767
2.92979
2.81935
2.77859
2.7737
2.2826
0.971661
0.127034
0.270985
0.345642
0.398075
0.439434
0.473972
0.504158
0.531803
0.559049
0.587804
0.620959
0.663406
0.722392
0.808118
0.932493
1.10715
1.3371
1.61783
1.93625
2.27082
2.61406
2.8981
2.99144
2.90979
2.78924
2.70645
2.68738
2.71334
2.25867
0.972419
0.132087
0.282377
0.36036
0.41533
0.458914
0.495591
0.527918
0.557895
0.58708
0.61711
0.64962
0.687709
0.739159
0.814056
0.923415
1.07724
1.28055
1.526
1.79967
2.09017
2.39839
2.6843
2.81032
2.75324
2.65161
2.59121
2.58887
2.62681
2.19537
0.955454
0.137524
0.294429
0.375926
0.433687
0.479921
0.51952
0.555049
0.588098
0.619728
0.64879
0.675265
0.704512
0.746442
0.811423
0.909217
1.04701
1.22673
1.44199
1.68086
1.93741
2.21867
2.49717
2.64187
2.60744
2.51845
2.47444
2.48448
2.52115
2.0976
0.922852
0.14323
0.307035
0.392269
0.453163
0.502666
0.54569
0.584439
0.61932
0.64575
0.663741
0.680609
0.703429
0.739273
0.796092
0.882072
1.0042
1.16355
1.35523
1.57123
1.8107
2.07797
2.3454
2.4933
2.47306
2.38957
2.3547
2.36918
2.38465
1.96416
0.873307
0.149062
0.3201
0.409342
0.473671
0.52643
0.572013
0.609514
0.636369
0.653988
0.667065
0.681676
0.702076
0.732656
0.780566
0.853613
0.958138
1.09488
1.26078
1.4576
1.69067
1.95568
2.21774
2.36326
2.34688
2.26199
2.22807
2.23301
2.20542
1.79795
0.80606
0.155053
0.333584
0.426821
0.494145
0.548565
0.591779
0.621765
0.642805
0.658468
0.669426
0.679479
0.692871
0.713893
0.748374
0.803406
0.885787
0.99956
1.14569
1.32654
1.54808
1.81069
2.07549
2.22907
2.21768
2.13024
2.08891
2.0684
1.98608
1.61225
0.727689
0.161395
0.347054
0.443337
0.511666
0.562582
0.599711
0.624631
0.642224
0.654214
0.662932
0.669992
0.677971
0.690683
0.712717
0.750536
0.812142
0.9053
1.03483
1.20099
1.40166
1.63747
1.89907
2.06739
2.06965
1.98463
1.93633
1.87991
1.75429
1.42724
0.649546
0.168795
0.358755
0.455424
0.519913
0.564414
0.598866
0.625104
0.644016
0.65641
0.664332
0.669438
0.673664
0.679954
0.692377
0.716638
0.760647
0.833553
0.942724
1.08967
1.26868
1.47279
1.70391
1.88552
1.89948
1.82168
1.77038
1.68335
1.53991
1.26095
0.582229
0.170787
0.362177
0.457155
0.520346
0.568829
0.605719
0.633416
0.653115
0.665741
0.67278
0.675873
0.677057
0.678637
0.683497
0.696861
0.725851
0.779472
0.866153
0.988981
1.14247
1.3171
1.51015
1.68829
1.72224
1.65535
1.60408
1.49966
1.35056
1.11508
0.524972
0.165683
0.360315
0.460114
0.528206
0.579441
0.618266
0.647212
0.667689
0.680647
0.687184
0.688839
0.687165
0.684333
0.683574
0.687989
0.703756
0.738836
0.801804
0.89807
1.02559
1.17467
1.33375
1.4871
1.54216
1.49743
1.43949
1.32712
1.18445
0.986904
0.467065
0.164612
0.363109
0.46815
0.539432
0.592907
0.633741
0.664353
0.686083
0.699785
0.706273
0.706997
0.703281
0.69699
0.690527
0.687792
0.692024
0.71026
0.750536
0.819984
0.92056
1.04665
1.18598
1.31492
1.37492
1.35552
1.28161
1.16906
1.03643
0.861157
0.416594
0.170307
0.370825
0.478373
0.552316
0.60826
0.651447
0.684256
0.707883
0.722968
0.72997
0.730178
0.72479
0.715607
0.704696
0.694642
0.689873
0.693465
0.713156
0.756459
0.828642
0.929387
1.05142
1.17164
1.23243
1.22806
1.14107
1.02412
0.898903
0.74746
0.374008
0.175838
0.380473
0.490253
0.566712
0.625272
0.67121
0.706888
0.733307
0.750676
0.75884
0.758827
0.751841
0.739907
0.72506
0.70936
0.695443
0.687855
0.689787
0.709061
0.752232
0.82317
0.919899
1.02354
1.08591
1.09198
1.01125
0.896047
0.777015
0.629621
0.310676
0.180841
0.390831
0.503505
0.582596
0.643878
0.692968
0.732385
0.762851
0.783821
0.793998
0.793801
0.784738
0.769776
0.75122
0.730667
0.709748
0.691346
0.679554
0.678497
0.694764
0.73402
0.797536
0.875946
0.926876
0.93352
0.863347
0.757411
0.646883
0.498734
0.234082
0.186013
0.402261
0.517893
0.599658
0.663604
0.716362
0.760734
0.797108
0.823749
0.837169
0.836352
0.823835
0.805024
0.782713
0.757752
0.730888
0.70379
0.680628
0.664255
0.659299
0.669648
0.699281
0.746475
0.7742
0.765049
0.697868
0.609898
0.513856
0.378201
0.168207
0.193185
0.415834
0.534403
0.616894
0.683341
0.740645
0.791504
0.836216
0.8717
0.890086
0.887449
0.869302
0.845849
0.819748
0.790459
0.758185
0.724666
0.692476
0.666069
0.645852
0.635152
0.636629
0.650628
0.653873
0.624433
0.558202
0.486569
0.406156
0.291125
0.127174
0.205314
0.42913
0.546937
0.631564
0.701744
0.764705
0.82309
0.878187
0.926546
0.948672
0.94194
0.921885
0.895217
0.865797
0.831783
0.794223
0.755548
0.717848
0.682675
0.652879
0.629289
0.611236
0.600806
0.583111
0.540022
0.476731
0.411668
0.338584
0.240577
0.110033
0.208861
0.436458
0.556443
0.644167
0.718947
0.787548
0.852533
0.916108
0.972349
1.00448
1.00171
0.977994
0.952077
0.921563
0.884106
0.842472
0.799509
0.757372
0.716805
0.678278
0.643965
0.615221
0.590661
0.559348
0.510098
0.449106
0.384421
0.309138
0.216238
0.10389
0.204176
0.438241
0.562211
0.654903
0.73526
0.807727
0.875226
0.940946
0.993894
1.0225
1.02694
1.02559
1.01693
0.990727
0.9487
0.900197
0.851845
0.805969
0.762618
0.721096
0.680051
0.640136
0.603741
0.565048
0.513359
0.452271
0.385938
0.307437
0.212883
0.104585
0.201096
0.437862
0.568338
0.667249
0.750546
0.822305
0.884765
0.935827
0.981546
1.00688
1.01519
1.02693
1.04477
1.03432
0.999692
0.956888
0.913144
0.86809
0.823029
0.77807
0.731852
0.684551
0.638355
0.591144
0.536335
0.473964
0.40421
0.321376
0.224451
0.114092
0.201648
0.442433
0.578045
0.679365
0.762494
0.830198
0.884189
0.930196
0.964587
0.984822
0.994774
1.00635
1.02639
1.03108
1.01213
0.980865
0.943005
0.901039
0.861906
0.826015
0.784806
0.736566
0.684072
0.629544
0.571792
0.508014
0.437032
0.353956
0.25735
0.130953
0.202061
0.447467
0.585941
0.688952
0.770369
0.83549
0.888868
0.930562
0.955409
0.967157
0.974981
0.984444
1.00141
1.01802
1.01003
0.980174
0.938969
0.90042
0.869686
0.839893
0.8045
0.760472
0.711227
0.659226
0.60224
0.540213
0.470048
0.386656
0.287258
0.143663
0.196896
0.448048
0.590887
0.696578
0.779829
0.846893
0.901133
0.939038
0.958219
0.962882
0.96412
0.96794
0.977536
0.990218
0.989544
0.965052
0.92835
0.896468
0.865623
0.835302
0.801996
0.761892
0.716139
0.66883
0.61753
0.561499
0.495912
0.414388
0.31181
0.154226
0.194711
0.446201
0.598212
0.708602
0.795138
0.864991
0.922035
0.956421
0.970311
0.969767
0.964136
0.960343
0.961133
0.963288
0.959972
0.943892
0.919856
0.890473
0.858026
0.82613
0.792112
0.754399
0.712956