/*--------------------------------*- C++ -*----------------------------------*\
| =========                 |                                                 |
| \\      /  F ield         | OpenFOAM: The Open Source CFD Toolbox           |
|  \\    /   O peration     | Version:  2.3.0                                 |
|   \\  /    A nd           | Web:      www.OpenFOAM.org                      |
|    \\/     M anipulation  |                                                 |
\*---------------------------------------------------------------------------*/
FoamFile
{
    version     2.0;
    format      ascii;
    class       volScalarField;
    location    "0.214";
    object      alpha.water;
}
// * * * * * * * * * * * * * * * * * * * * * * * * * * * * * * * * * * * * * //

dimensions      [0 0 0 0 0 0 0];

internalField   nonuniform List<scalar> 
545
(
1
1
1
1
1
1
1
1
1
1
1
1
1
1
1
1
1
1
1
1
1
1
1
1
1
1
1
1
1
1
1
1
1
1
1
1
1
1
1
1
1
1
1
1
1
1
1
1
1
1
1
1
1
1
1
1
1
1
1
1
1
1
1
1
1
1
1
1
1
1
1
1
1
1
1
1
1
1
1
1
1
1
1
1
1
1
1
1
1
1
1
1
1
1
1
1
1
1
1
1
1
1
1
1
1
1
1
1
1
1
1
1
1
1
1
1
1
1
1
0.999999
0.999999
0.999999
0.999999
0.999999
0.999999
0.999999
0.999999
0.999999
0.999999
0.999999
0.999999
0.999999
0.999999
0.999999
0.999999
0.999999
0.999999
0.999999
0.999999
0.999999
0.999999
0.999999
0.999999
0.999999
0.999999
0.999999
0.999999
0.999999
0.999999
0.999999
0.999999
0.999999
0.999999
0.999999
0.999999
0.999999
0.999999
0.999999
0.999999
0.999999
1
1
0.99999
0.999964
0.999941
0.999932
0.999932
0.999935
0.999938
0.99994
0.99994
0.99994
0.99994
0.999939
0.999938
0.999938
0.999938
0.999938
0.999938
0.999938
0.999938
0.999938
0.999938
0.999938
0.999938
0.999938
0.999938
0.999938
0.999938
0.999938
0.999938
0.999938
0.999938
0.999938
0.999938
0.999938
0.999938
0.999938
0.999938
0.999938
0.999938
0.999938
0.999938
0.999938
0.999938
1
1
0.999531
0.998511
0.995609
0.994011
0.994398
0.994896
0.995284
0.995544
0.995657
0.995651
0.995578
0.995486
0.995409
0.995362
0.995345
0.995351
0.995367
0.995384
0.995398
0.995405
0.995408
0.995405
0.995401
0.995397
0.995395
0.995393
0.995392
0.995393
0.995393
0.995393
0.995393
0.995392
0.995391
0.995391
0.99539
0.99539
0.99539
0.99539
0.995389
0.995387
0.995387
0.995386
0.995383
0.228055
0.31238
0.775594
0.788893
0.466212
0.435802
0.435786
0.435826
0.760052
0.995613
0.793935
0.499436
0.527915
0.525958
0.526573
0.525986
0.763476
0.990676
0.755014
0.478195
0.481325
0.477984
0.513451
0.450197
0.468224
0.733964
0.816299
0.671372
0.672246
0.719436
0.973873
0.939112
0.615834
0.435676
0.460032
0.447356
0.451163
0.463148
0.791873
0.995507
0.974065
0.559699
0.497204
0.489767
0.489756
1
1
1
1
1
1
1
1
1
1
1
1
1
1
1
1
1
1
1
1
1
1
1
1
1
1
1
0.999531
0.99851
0.995604
0.994013
0.9944
0.994903
0.995292
0.995554
0.995665
0.995658
0.995581
0.995487
0.995407
0.995359
0.995342
0.995346
0.995359
0.995376
0.995387
0.995393
0.995393
0.99539
0.995385
0.995381
0.995377
0.995375
0.995373
0.995373
0.995373
0.995371
0.995367
0.995364
0.995359
0.995358
0.995355
0.995357
0.995357
0.995358
0.995356
0.995352
0.995348
0.995347
0.995339
1
1
0.99999
0.999964
0.999941
0.999932
0.999932
0.999935
0.999938
0.99994
0.99994
0.99994
0.999939
0.999939
0.999938
0.999938
0.999938
0.999938
0.999938
0.999938
0.999938
0.999938
0.999938
0.999938
0.999938
0.999938
0.999938
0.999938
0.999938
0.999938
0.999938
0.999938
0.999938
0.999938
0.999938
0.999938
0.999938
0.999938
0.999938
0.999938
0.999938
0.999938
0.999938
0.999938
0.999938
1
1
1
1
0.999999
0.999999
0.999999
0.999999
0.999999
0.999999
0.999999
0.999999
0.999999
0.999999
0.999999
0.999999
0.999999
0.999999
0.999999
0.999999
0.999999
0.999999
0.999999
0.999999
0.999999
0.999999
0.999999
0.999999
0.999999
0.999999
0.999999
0.999999
0.999999
0.999999
0.999999
0.999999
0.999999
0.999999
0.999999
0.999999
0.999999
0.999999
0.999999
0.999999
0.999999
1
1
1
1
1
1
1
1
1
1
1
1
1
1
1
1
1
1
1
1
1
1
1
1
1
1
1
1
1
1
1
1
1
1
1
1
1
1
1
1
1
1
1
1
1
1
1
1
1
1
1
1
1
1
1
1
1
1
1
1
1
1
1
1
1
1
1
1
1
1
1
1
1
1
1
1
1
1
1
1
1
1
1
1
1
1
1
1
1
1
)
;

boundaryField
{
    AirInlet
    {
        type            fixedValue;
        value           uniform 0;
    }
    WaterInlet
    {
        type            fixedValue;
        value           uniform 1;
    }
    ChannelWall
    {
        type            zeroGradient;
    }
    Outlet
    {
        type            inletOutlet;
        inletValue      uniform 0;
        value           nonuniform List<scalar> 
11
(
1
1
0.999999
0.999938
0.995383
0.489756
0.995339
0.999938
0.999999
1
1
)
;
    }
    FrontAndBack
    {
        type            empty;
    }
}


// ************************************************************************* //
