/*--------------------------------*- C++ -*----------------------------------*\
| =========                 |                                                 |
| \\      /  F ield         | OpenFOAM: The Open Source CFD Toolbox           |
|  \\    /   O peration     | Version:  2.3.0                                 |
|   \\  /    A nd           | Web:      www.OpenFOAM.org                      |
|    \\/     M anipulation  |                                                 |
\*---------------------------------------------------------------------------*/
FoamFile
{
    version     2.0;
    format      ascii;
    class       volScalarField;
    location    "2";
    object      rhom;
}
// * * * * * * * * * * * * * * * * * * * * * * * * * * * * * * * * * * * * * //

dimensions      [1 -3 0 0 0 0 0];

internalField   nonuniform List<scalar> 
1875
(
937.243
934.632
926.161
911.402
896.504
880.489
886.92
900.916
913.068
914.399
913.739
913.192
911.03
913.034
913.468
913.858
913.123
901.011
886.835
880.469
896.973
911.55
926.215
934.611
937.177
962.325
962.185
962.067
949.033
908.784
880.581
881.264
894.31
911.03
914.486
914.401
912.933
911.03
912.609
913.947
913.944
911.282
895.06
881.44
880.553
908.365
948.946
962.04
962.165
962.316
962.449
962.325
940.99
907.531
885.853
880.706
885.1
898.659
911.953
914.401
914.57
914.401
914.224
914.401
914.444
914.033
912.194
899.735
885.828
880.66
885.365
906.932
940.698
962.316
962.447
962.594
943.008
905.295
888.985
886.211
887.385
895.361
905.63
911.537
914.439
914.4
914.649
914.4
914.574
914.4
913.735
911.884
906.876
897.038
888.332
885.738
887.865
904.016
942.9
962.603
962.722
914.191
892.311
891.352
893.327
899.426
904.241
906.815
908.274
912.337
914.757
914.4
914.654
914.4
914.521
912.319
909.347
908.305
906.186
900.795
893.088
889.78
891.189
914.416
962.74
956.348
901.193
892.726
899.576
905.202
907.1
907.403
906.318
904.65
906.761
913.698
914.98
914.4
914.759
913.182
908.454
905.88
907.456
907.519
906.867
904.342
898.34
892.047
901.374
956.45
943.902
895.532
894.865
906.327
911.078
911.309
907.542
905.259
904.186
904.21
911.74
914.399
915.01
914.398
911.576
905.714
905.562
905.907
907.558
911.011
910.722
905.911
894.614
895.812
944.137
935.37
894.816
895.006
908.941
911.44
911.374
908.002
905.5
904.321
904.775
909.601
914.997
914.399
914.792
909.818
906.017
905.58
906.152
908.082
911.197
911.266
908.708
894.737
894.55
935.566
929.926
894.862
891.496
905.73
910.423
910.49
910.204
907.572
905.993
905.74
908.96
914.399
915.003
914.399
909.33
906.702
906.839
907.95
910.328
910.434
910.34
905.437
891.46
894.9
929.996
925.944
897.5
891.372
891.891
906.348
910.87
911.996
911.6
908.239
906.859
908.948
914.997
914.415
914.767
908.831
907.439
908.707
911.645
911.922
910.762
906.158
891.711
891.367
897.641
925.957
922.866
900.189
891.352
891.372
899.02
908.692
912.067
911.996
910.359
909.025
908.993
914.414
915.094
914.414
908.821
909.229
910.711
911.922
911.995
908.513
898.835
891.366
891.348
900.287
922.88
919.154
902.213
893.132
891.449
892.164
901.796
909.992
912.099
911.995
911.599
909.589
915.023
914.414
914.803
908.983
911.62
911.921
912.011
910.049
901.667
892.161
891.476
893.189
902.277
919.16
913.966
904.851
897.838
893.043
892.2
896.166
905.944
911.995
912.114
911.608
909.811
914.414
915.134
914.414
909.229
911.624
912.045
911.921
906.092
896.129
892.198
893.086
897.89
904.888
913.949
908.483
906.509
904.364
897.279
893.359
894.433
902.369
910.672
911.995
910.796
909.507
915.014
914.546
914.782
909.45
910.787
911.921
910.681
902.53
894.461
893.375
897.321
904.396
906.518
908.446
904.823
907.398
907.35
902.145
895.723
895.332
900.093
908.973
912.097
909.842
909.655
914.546
915.132
912.374
909.467
909.958
912.026
909.06
900.179
895.369
895.768
902.15
907.344
907.392
904.811
906.992
907.433
906.877
902.83
897.998
896.721
900.409
909.037
911.994
909.656
909.522
914.988
914.601
910.41
909.482
909.63
911.92
909.019
900.467
896.781
898.008
902.819
906.884
907.426
906.979
912.445
908.192
904.255
900.263
898.945
898.25
901.786
909.375
912.112
909.551
909.655
913.829
915.081
909.534
909.487
909.514
912.038
909.37
901.811
898.291
898.949
900.283
904.231
908.197
912.443
919.829
907.583
900.369
900.295
900.624
899.865
903.553
909.691
911.993
909.654
909.543
909.894
914.657
909.532
909.531
909.52
911.919
909.715
903.565
899.907
900.577
900.315
900.389
907.631
919.844
925.491
905.983
900.399
900.993
902.185
901.335
904.757
909.655
912.105
909.541
909.654
909.563
915.032
909.542
909.546
909.532
912.03
909.659
904.766
901.408
902.083
900.979
900.419
906.058
925.506
928.526
905.782
900.471
901.926
903.819
902.826
905.354
909.598
911.993
909.654
909.605
909.654
914.704
909.537
909.583
909.524
911.42
909.66
905.493
902.76
903.968
902.04
900.489
905.765
928.528
930.315
906.227
900.894
902.427
905.174
904.123
906.316
909.639
910.336
909.553
909.653
909.579
914.99
909.551
909.6
909.551
909.691
909.656
906.613
904.092
905.183
902.569
900.979
906.13
930.274
931.849
906.796
901.49
903.066
906.207
904.954
906.67
909.675
909.605
909.653
909.597
909.653
914.748
909.57
909.601
909.56
909.635
909.611
906.556
905.153
905.912
903.078
901.727
906.82
931.804
933.632
907.721
902.295
903.98
906.594
905.74
906.597
909.942
909.653
909.614
909.653
909.599
914.958
909.634
909.619
909.634
909.589
909.778
906.478
905.885
906.471
904.066
902.333
907.808
933.54
935.553
909.386
903.262
905.586
906.839
906.644
906.883
910.275
909.626
909.652
909.639
909.652
914.78
909.605
909.634
909.598
909.634
910.082
906.881
906.735
906.899
905.403
903.167
909.464
935.517
937.522
911.622
904.44
907.417
907.47
907.873
907.521
910.53
909.652
909.64
909.806
909.637
914.905
909.634
909.862
909.634
909.622
910.397
907.623
907.84
907.241
907.307
904.601
911.621
937.632
939.853
914.039
906.787
909.48
908.175
909.582
908.552
910.815
909.765
910.072
910.589
910.005
914.789
910.027
910.7
910.014
909.758
910.725
908.565
909.495
908.135
909.504
906.775
914.127
939.897
942.318
916.852
909.83
912.083
909.449
911.575
910.387
911.486
910.763
911.497
912.264
911.362
914.822
911.418
912.327
911.432
910.783
911.463
910.395
911.546
909.582
912.117
909.8
916.942
942.326
944.861
920.099
913.395
915.085
911.6
914.25
913.195
913.124
913.258
914.059
914.806
913.916
914.92
913.955
914.807
914.029
913.284
913.168
913.189
914.245
911.707
915.215
913.557
920.083
944.893
947.6
923.678
917.584
918.723
914.68
917.672
916.896
916.173
917.163
917.565
918.189
917.494
916.671
917.493
918.171
917.566
917.178
916.245
916.916
917.689
914.8
918.788
917.785
923.65
947.608
950.5
927.661
922.257
923.057
918.615
921.985
921.35
920.612
921.958
921.784
922.373
921.823
920.826
921.802
922.367
921.817
921.971
920.679
921.394
921.997
918.799
923.07
922.386
927.64
950.51
953.565
931.945
927.365
928.045
923.4
927.07
926.27
925.995
927.111
926.539
927.178
926.687
926.366
926.676
927.202
926.573
927.126
926.039
926.307
927.09
923.551
928.035
927.383
931.952
953.576
956.783
936.493
932.761
933.454
928.731
932.691
931.404
931.757
932.348
931.742
932.391
931.91
932.151
931.889
932.419
931.75
932.364
931.774
931.432
932.688
928.841
933.465
932.721
936.522
956.794
960.1
941.203
938.237
939.035
934.393
938.487
936.563
937.524
937.534
937.158
937.717
937.266
937.683
937.237
937.741
937.151
937.544
937.522
936.58
938.481
934.441
939.069
938.208
941.236
960.11
963.494
945.978
943.644
944.623
940.202
944.209
941.705
943.205
942.649
942.646
943.008
942.677
943
942.659
943.051
942.64
942.658
943.203
941.713
944.221
940.215
944.64
943.632
946.003
963.498
966.913
950.727
948.849
950.053
945.913
949.711
946.834
948.705
947.692
948.07
948.167
948.004
948.177
947.993
948.205
948.064
947.699
948.703
946.84
949.725
945.922
950.053
948.863
950.745
966.917
970.341
955.418
953.869
955.288
951.408
954.96
951.945
953.994
952.681
953.352
953.18
953.199
953.242
953.195
953.208
953.347
952.687
953.993
951.949
954.976
951.426
955.267
953.891
955.428
970.344
973.764
960.037
958.723
960.291
956.668
959.973
957.001
959.071
957.614
958.453
958.073
958.244
958.186
958.243
958.092
958.448
957.618
959.071
957.002
959.977
956.696
960.275
958.739
960.043
973.767
977.176
964.586
963.431
965.1
961.739
964.777
961.967
963.954
962.475
963.371
962.872
963.135
963.012
963.135
962.886
963.366
962.477
963.953
961.966
964.776
961.765
965.091
963.44
964.59
977.179
980.577
969.068
968.012
969.743
966.656
969.402
966.828
968.663
967.252
968.122
967.588
967.883
967.728
967.883
967.599
968.118
967.251
968.662
966.823
969.402
966.669
969.736
968.015
969.07
980.579
983.965
973.486
972.483
974.243
971.427
973.881
971.581
973.221
971.94
972.731
972.223
972.506
972.346
972.506
972.232
972.728
971.937
973.221
971.574
973.882
971.433
974.236
972.484
973.487
983.967
987.344
977.845
976.87
978.621
976.083
978.239
976.235
977.652
976.539
977.22
976.772
977.018
976.871
977.017
976.78
977.218
976.534
977.652
976.226
978.24
976.086
978.613
976.869
977.845
987.345
990.716
982.149
981.195
982.897
980.644
982.5
980.798
981.979
981.052
981.607
981.236
981.433
981.31
981.433
981.242
981.605
981.046
981.979
980.787
982.501
980.645
982.89
981.192
982.148
990.717
994.094
986.403
985.479
987.091
985.127
986.685
985.28
986.225
985.487
985.912
985.622
985.77
985.673
985.769
985.627
985.911
985.481
986.225
985.268
986.686
985.125
987.085
985.475
986.401
994.095
997.48
990.614
989.739
991.22
989.544
990.812
989.69
990.41
989.85
990.153
989.94
990.041
989.971
990.039
989.943
990.152
989.843
990.411
989.678
990.813
989.542
991.214
989.735
990.612
997.481
1000.88
994.79
993.989
995.3
993.91
994.901
994.04
994.555
994.153
994.351
994.202
994.264
994.217
994.263
994.205
994.35
994.146
994.556
994.029
994.902
993.907
995.295
993.984
994.787
1000.88
1004.29
998.942
998.237
999.351
998.239
998.97
998.343
998.681
998.412
998.526
998.427
998.459
998.429
998.458
998.429
998.525
998.405
998.681
998.332
998.971
998.235
999.346
998.233
998.939
1004.29
1007.75
1003.09
1002.5
1003.4
1002.55
1003.04
1002.62
1002.81
1002.65
1002.7
1002.63
1002.65
1002.63
1002.65
1002.64
1002.7
1002.64
1002.81
1002.61
1003.04
1002.54
1003.39
1002.49
1003.09
1007.75
1011.28
1007.26
1006.79
1007.47
1006.86
1007.16
1006.89
1006.98
1006.88
1006.89
1006.86
1006.85
1006.84
1006.85
1006.86
1006.89
1006.88
1006.98
1006.88
1007.16
1006.85
1007.46
1006.79
1007.26
1011.28
1014.91
1011.49
1011.15
1011.61
1011.21
1011.35
1011.21
1011.22
1011.17
1011.15
1011.13
1011.12
1011.12
1011.12
1011.13
1011.15
1011.16
1011.22
1011.2
1011.35
1011.21
1011.6
1011.15
1011.49
1014.91
1018.64
1015.83
1015.6
1015.86
1015.64
1015.66
1015.6
1015.56
1015.54
1015.51
1015.5
1015.49
1015.49
1015.49
1015.5
1015.51
1015.54
1015.56
1015.59
1015.66
1015.63
1015.86
1015.6
1015.83
1018.63
1022.31
1020.2
1020.06
1020.15
1020.06
1020.01
1020
1019.94
1019.93
1019.91
1019.9
1019.88
1019.88
1019.88
1019.89
1019.9
1019.93
1019.94
1019.99
1020.01
1020.06
1020.15
1020.06
1020.2
1022.31
1025.3
1024.06
1024
1023.99
1023.98
1023.9
1023.91
1023.87
1023.86
1023.84
1023.84
1023.83
1023.83
1023.83
1023.84
1023.84
1023.86
1023.87
1023.91
1023.9
1023.97
1023.99
1023.99
1024.06
1025.3
1026.78
1026.39
1026.37
1026.35
1026.36
1026.33
1026.33
1026.31
1026.31
1026.3
1026.3
1026.3
1026.3
1026.3
1026.3
1026.3
1026.31
1026.31
1026.33
1026.33
1026.36
1026.35
1026.37
1026.39
1026.78
1027.08
1027.04
1027.04
1027.04
1027.04
1027.04
1027.04
1027.03
1027.03
1027.03
1027.03
1027.03
1027.03
1027.03
1027.03
1027.03
1027.03
1027.03
1027.04
1027.03
1027.04
1027.04
1027.04
1027.04
1027.08
1027.1
1027.1
1027.1
1027.1
1027.1
1027.1
1027.1
1027.1
1027.1
1027.1
1027.1
1027.1
1027.1
1027.1
1027.1
1027.1
1027.1
1027.1
1027.1
1027.1
1027.1
1027.1
1027.1
1027.1
1027.1
1027.1
1027.1
1027.1
1027.1
1027.1
1027.1
1027.1
1027.1
1027.1
1027.1
1027.1
1027.1
1027.1
1027.1
1027.1
1027.1
1027.1
1027.1
1027.1
1027.1
1027.1
1027.1
1027.1
1027.1
1027.1
1027.1
1027.1
1027.1
1027.1
1027.1
1027.1
1027.1
1027.1
1027.1
1027.1
1027.1
1027.1
1027.1
1027.1
1027.1
1027.1
1027.1
1027.1
1027.1
1027.1
1027.1
1027.1
1027.1
1027.1
1027.1
1027.1
1027.1
1027.1
1027.1
1027.1
1027.1
1027.1
1027.1
1027.1
1027.1
1027.1
1027.1
1027.1
1027.1
1027.1
1027.1
1027.1
1027.1
1027.1
1027.1
1027.1
1027.1
1027.1
1027.1
1027.1
1027.1
1027.1
1027.1
1027.1
1027.1
1027.1
1027.1
1027.1
1027.1
1027.1
1027.1
1027.1
1027.1
1027.1
1027.1
1027.1
1027.1
1027.1
1027.1
1027.1
1027.1
1027.1
1027.1
1027.1
1027.1
1027.1
1027.1
1027.1
1027.1
1027.1
1027.1
1027.1
1027.1
1027.1
1027.1
1027.1
1027.1
1027.1
1027.1
1027.1
1027.1
1027.1
1027.1
1027.1
1027.1
1027.1
1027.1
1027.1
1027.1
1027.1
1027.09
1027.09
1027.09
1027.09
1027.09
1027.09
1027.09
1027.09
1027.09
1027.09
1027.09
1027.09
1027.09
1027.09
1027.09
1027.09
1027.09
1027.09
1027.09
1027.09
1027.09
1027.09
1027.09
1027.09
1027.09
919.254
926.02
931.931
931.651
930.329
929.106
928.475
927.953
927.736
927.607
927.54
927.503
927.496
927.501
927.536
927.602
927.729
927.947
928.469
929.101
930.325
931.652
931.909
925.986
919.253
562.029
560.109
561.952
562.696
562.479
562.078
561.655
561.273
560.98
560.749
560.574
560.462
560.424
560.461
560.573
560.747
560.978
561.271
561.652
562.075
562.476
562.693
561.943
560.104
562.035
514.821
514.967
514.958
514.94
514.926
514.914
514.902
514.893
514.886
514.88
514.876
514.874
514.873
514.874
514.876
514.88
514.886
514.893
514.902
514.914
514.926
514.94
514.958
514.967
514.821
514.595
514.582
514.623
514.638
514.645
514.649
514.65
514.65
514.65
514.651
514.65
514.65
514.65
514.65
514.65
514.651
514.65
514.651
514.65
514.649
514.645
514.638
514.623
514.582
514.595
514.624
514.608
514.677
514.694
514.7
514.703
514.704
514.704
514.705
514.705
514.705
514.705
514.705
514.705
514.705
514.705
514.705
514.704
514.704
514.703
514.7
514.694
514.677
514.608
514.624
514.667
514.616
514.68
514.704
514.709
514.711
514.712
514.713
514.713
514.713
514.714
514.714
514.714
514.714
514.714
514.713
514.713
514.713
514.712
514.711
514.709
514.704
514.68
514.616
514.667
514.697
514.63
514.656
514.696
514.706
514.707
514.708
514.711
514.713
514.714
514.714
514.714
514.714
514.714
514.714
514.714
514.713
514.711
514.707
514.707
514.706
514.696
514.656
514.63
514.697
514.705
514.678
514.659
514.669
514.691
514.692
514.688
514.701
514.709
514.713
514.714
514.714
514.714
514.714
514.714
514.713
514.709
514.7
514.687
514.692
514.691
514.669
514.659
514.678
514.705
514.704
514.695
514.669
514.668
514.68
514.685
514.671
514.67
514.696
514.71
514.713
514.714
514.714
514.714
514.713
514.71
514.696
514.67
514.671
514.685
514.68
514.668
514.669
514.695
514.704
514.703
514.669
514.666
514.665
514.672
514.671
514.656
514.654
514.682
514.706
514.713
514.714
514.714
514.714
514.713
514.706
514.682
514.654
514.655
514.671
514.672
514.665
514.666
514.669
514.703
514.704
514.664
514.652
514.652
514.653
514.651
514.644
514.65
514.681
514.706
514.713
514.714
514.714
514.714
514.713
514.706
514.681
514.65
514.644
514.65
514.653
514.652
514.651
514.664
514.704
514.709
514.677
514.647
514.643
514.644
514.644
514.644
514.661
514.696
514.711
514.714
514.714
514.714
514.714
514.714
514.711
514.697
514.661
514.644
514.644
514.644
514.643
514.647
514.677
514.709
514.713
514.701
514.663
514.653
514.652
514.654
514.665
514.695
514.71
514.713
514.714
514.714
514.714
514.714
514.714
514.713
514.71
514.695
514.665
514.654
514.652
514.653
514.663
514.701
514.713
514.714
514.712
514.702
514.694
514.693
514.696
514.705
514.712
514.714
514.714
514.714
514.714
514.714
514.714
514.714
514.714
514.714
514.712
514.705
514.696
514.693
514.694
514.702
514.712
514.714
)
;

boundaryField
{
    inlet
    {
        type            calculated;
        value           nonuniform List<scalar> 
25
(
770.947
770.947
770.947
770.947
770.947
770.947
770.947
770.947
770.947
770.947
770.947
770.947
770.947
770.947
770.947
770.947
770.947
770.947
770.947
770.947
770.947
770.947
770.947
770.947
770.947
)
;
    }
    outlet
    {
        type            calculated;
        value           nonuniform List<scalar> 
25
(
514.714
514.712
514.703
514.696
514.695
514.698
514.706
514.712
514.714
514.714
514.714
514.714
514.714
514.714
514.714
514.714
514.714
514.712
514.706
514.698
514.695
514.696
514.703
514.712
514.714
)
;
    }
    walls
    {
        type            calculated;
        value           nonuniform List<scalar> 
150
(
937.243
962.325
962.449
962.594
962.722
956.348
943.902
935.37
929.926
925.944
922.866
919.154
913.966
908.483
904.823
906.992
912.445
919.829
925.491
928.526
930.315
931.849
933.632
935.553
937.522
939.853
942.318
944.861
947.6
950.5
953.565
956.783
960.1
963.494
966.913
970.341
973.764
977.176
980.577
983.965
987.344
990.716
994.094
997.48
1000.88
1004.29
1007.75
1011.28
1014.91
1018.64
1022.31
1025.3
1026.78
1027.08
1027.1
1027.1
1027.1
1027.1
1027.1
1027.1
1027.09
919.254
562.029
514.821
514.595
514.624
514.667
514.697
514.705
514.704
514.703
514.704
514.709
514.713
514.714
937.177
962.316
962.447
962.603
962.74
956.45
944.137
935.566
929.996
925.957
922.88
919.16
913.949
908.446
904.811
906.979
912.443
919.844
925.506
928.528
930.274
931.804
933.54
935.517
937.632
939.897
942.326
944.893
947.608
950.51
953.576
956.794
960.11
963.498
966.917
970.344
973.767
977.179
980.579
983.967
987.345
990.717
994.095
997.481
1000.88
1004.29
1007.75
1011.28
1014.91
1018.63
1022.31
1025.3
1026.78
1027.08
1027.1
1027.1
1027.1
1027.1
1027.1
1027.1
1027.09
919.253
562.035
514.821
514.595
514.624
514.667
514.697
514.705
514.704
514.703
514.704
514.709
514.713
514.714
)
;
    }
    defaultFaces
    {
        type            empty;
    }
}


// ************************************************************************* //
