/*--------------------------------*- C++ -*----------------------------------*\
| =========                 |                                                 |
| \\      /  F ield         | OpenFOAM: The Open Source CFD Toolbox           |
|  \\    /   O peration     | Version:  2.3.0                                 |
|   \\  /    A nd           | Web:      www.OpenFOAM.org                      |
|    \\/     M anipulation  |                                                 |
\*---------------------------------------------------------------------------*/
FoamFile
{
    version     2.0;
    format      ascii;
    class       volScalarField;
    location    "96";
    object      pMean;
}
// * * * * * * * * * * * * * * * * * * * * * * * * * * * * * * * * * * * * * //

dimensions      [1 -1 -2 0 0 0 0];

internalField   nonuniform List<scalar> 
1875
(
107105
107104
107096
107088
107080
107074
107069
107065
107062
107059
107057
107055
107052
107050
107049
107047
107047
107048
107051
107055
107062
107070
107079
107089
107095
106942
106938
106930
106923
106916
106912
106909
106906
106905
106903
106902
106900
106899
106897
106896
106895
106894
106894
106896
106899
106904
106910
106918
106927
106934
106828
106826
106820
106815
106811
106807
106804
106801
106799
106798
106797
106796
106795
106794
106794
106794
106794
106796
106797
106800
106803
106807
106811
106815
106819
106708
106704
106699
106695
106691
106687
106683
106681
106679
106677
106676
106676
106676
106677
106678
106679
106681
106683
106686
106689
106692
106696
106699
106702
106705
106596
106592
106589
106585
106582
106578
106576
106573
106572
106571
106571
106571
106572
106573
106575
106577
106580
106583
106585
106588
106591
106594
106597
106599
106600
106487
106482
106480
106478
106475
106472
106469
106468
106467
106466
106467
106468
106469
106472
106474
106477
106480
106482
106485
106488
106491
106493
106495
106497
106497
106382
106376
106375
106373
106371
106369
106367
106366
106365
106365
106366
106368
106370
106372
106375
106377
106380
106383
106385
106388
106390
106392
106393
106394
106394
106278
106272
106271
106270
106268
106267
106266
106265
106264
106265
106265
106267
106268
106271
106273
106275
106278
106280
106282
106284
106286
106287
106288
106289
106288
106174
106168
106169
106168
106167
106166
106165
106164
106163
106163
106164
106164
106166
106167
106169
106171
106173
106175
106176
106178
106179
106180
106181
106182
106181
106069
106065
106065
106065
106064
106063
106062
106061
106061
106060
106060
106060
106061
106062
106063
106064
106066
106067
106068
106069
106070
106071
106072
106072
106072
105964
105960
105960
105960
105959
105959
105958
105957
105956
105955
105954
105954
105954
105955
105955
105956
105957
105958
105959
105960
105961
105962
105962
105963
105962
105857
105853
105853
105853
105852
105852
105851
105850
105849
105848
105847
105846
105846
105846
105847
105848
105848
105849
105850
105851
105852
105852
105853
105853
105853
105749
105746
105745
105745
105744
105744
105743
105742
105741
105740
105739
105738
105738
105738
105738
105739
105740
105741
105742
105743
105744
105744
105745
105745
105745
105641
105638
105637
105636
105636
105635
105634
105633
105632
105631
105631
105630
105630
105630
105630
105631
105632
105633
105634
105635
105636
105637
105638
105639
105638
105533
105530
105530
105529
105528
105527
105526
105526
105524
105523
105523
105522
105522
105522
105523
105524
105525
105526
105527
105528
105529
105530
105532
105533
105532
105425
105424
105423
105422
105421
105420
105420
105419
105417
105416
105415
105415
105415
105415
105416
105416
105418
105419
105420
105421
105422
105424
105425
105427
105427
105319
105319
105318
105317
105316
105315
105313
105312
105311
105310
105309
105308
105308
105308
105309
105310
105311
105312
105313
105314
105316
105317
105319
105321
105322
105214
105214
105213
105212
105211
105209
105208
105206
105205
105203
105202
105201
105201
105201
105202
105203
105205
105206
105207
105208
105209
105211
105212
105213
105215
105109
105110
105109
105108
105106
105104
105103
105101
105099
105097
105096
105095
105095
105096
105096
105098
105099
105100
105101
105103
105104
105105
105106
105106
105108
105005
105006
105005
105004
105002
105000
104998
104996
104994
104993
104991
104990
104990
104991
104991
104992
104994
104995
104996
104997
104998
104999
105000
105000
105002
104901
104902
104902
104900
104899
104897
104895
104894
104892
104890
104888
104887
104887
104887
104887
104888
104889
104890
104891
104892
104893
104894
104894
104895
104897
104797
104799
104799
104797
104796
104794
104793
104791
104790
104788
104786
104785
104784
104783
104784
104784
104785
104786
104787
104788
104788
104789
104790
104790
104792
104693
104695
104695
104694
104693
104692
104690
104689
104688
104686
104684
104683
104682
104681
104681
104681
104681
104682
104683
104684
104684
104685
104686
104686
104688
104589
104590
104591
104591
104590
104589
104587
104586
104584
104583
104581
104580
104579
104578
104578
104578
104578
104579
104579
104580
104581
104581
104582
104582
104584
104483
104485
104485
104485
104485
104484
104483
104481
104480
104478
104477
104476
104475
104474
104474
104474
104474
104474
104475
104476
104477
104478
104478
104478
104480
104377
104378
104378
104378
104378
104377
104376
104375
104374
104373
104372
104371
104370
104369
104369
104369
104370
104370
104371
104372
104373
104374
104374
104375
104376
104271
104271
104271
104271
104270
104270
104269
104268
104267
104266
104265
104265
104264
104264
104265
104265
104266
104266
104267
104268
104269
104270
104270
104271
104272
104164
104164
104164
104163
104163
104162
104162
104161
104160
104160
104159
104159
104159
104159
104160
104160
104161
104162
104163
104164
104165
104165
104166
104166
104167
104058
104057
104056
104056
104056
104055
104055
104054
104054
104053
104053
104053
104053
104054
104054
104055
104056
104057
104058
104059
104060
104061
104061
104061
104062
103952
103951
103950
103950
103950
103949
103949
103948
103948
103947
103947
103948
103948
103949
103949
103950
103952
103953
103953
103954
103955
103956
103956
103956
103957
103848
103846
103845
103845
103844
103844
103843
103843
103843
103842
103843
103843
103843
103844
103845
103846
103847
103848
103849
103849
103850
103851
103851
103852
103852
103743
103741
103741
103740
103739
103739
103738
103738
103738
103738
103739
103739
103739
103740
103741
103742
103742
103743
103744
103745
103745
103746
103746
103747
103746
103639
103637
103637
103636
103635
103635
103634
103634
103634
103635
103635
103635
103636
103636
103637
103637
103638
103639
103639
103640
103640
103641
103641
103642
103642
103535
103533
103533
103532
103531
103531
103531
103531
103531
103531
103531
103531
103532
103532
103532
103533
103533
103534
103534
103535
103536
103536
103536
103537
103537
103431
103429
103429
103428
103428
103427
103427
103427
103427
103427
103427
103427
103428
103428
103428
103429
103429
103429
103430
103430
103431
103431
103431
103432
103432
103327
103325
103325
103325
103324
103324
103324
103324
103324
103324
103323
103323
103324
103324
103324
103324
103325
103325
103325
103326
103326
103326
103327
103327
103327
103223
103221
103221
103221
103220
103220
103220
103220
103220
103220
103219
103219
103219
103219
103220
103220
103220
103221
103221
103221
103222
103222
103222
103222
103222
103119
103117
103117
103117
103116
103116
103116
103116
103116
103115
103115
103115
103115
103115
103115
103115
103116
103116
103117
103117
103117
103117
103118
103117
103118
103014
103013
103013
103012
103012
103012
103012
103012
103011
103011
103011
103010
103010
103010
103011
103011
103011
103012
103012
103013
103013
103013
103013
103013
103014
102910
102909
102908
102908
102908
102908
102908
102908
102907
102907
102906
102906
102906
102906
102906
102907
102907
102908
102908
102908
102908
102909
102909
102909
102909
102806
102805
102805
102804
102804
102804
102804
102804
102803
102803
102803
102802
102802
102802
102802
102803
102803
102803
102804
102804
102804
102805
102805
102805
102805
102702
102701
102701
102701
102701
102700
102700
102700
102700
102699
102699
102698
102698
102698
102698
102699
102699
102699
102700
102700
102700
102700
102701
102701
102701
102598
102597
102597
102597
102597
102597
102597
102596
102596
102596
102595
102595
102595
102594
102594
102595
102595
102595
102595
102596
102596
102596
102597
102597
102597
102494
102494
102494
102493
102493
102493
102493
102493
102492
102492
102492
102491
102491
102491
102491
102491
102491
102491
102491
102491
102492
102492
102493
102493
102493
102390
102390
102390
102389
102389
102389
102389
102389
102388
102388
102388
102387
102387
102387
102387
102387
102387
102387
102387
102387
102388
102388
102389
102389
102389
102286
102285
102285
102285
102285
102285
102285
102284
102284
102284
102284
102283
102283
102283
102283
102283
102283
102283
102283
102284
102284
102284
102285
102285
102285
102182
102181
102181
102181
102181
102181
102180
102180
102180
102180
102180
102179
102179
102179
102179
102179
102179
102179
102179
102180
102180
102180
102181
102181
102182
102078
102077
102077
102077
102077
102076
102076
102076
102076
102076
102076
102075
102075
102075
102075
102075
102075
102075
102076
102076
102076
102077
102077
102077
102078
101974
101973
101973
101973
101973
101972
101972
101972
101972
101972
101972
101972
101972
101971
101971
101971
101971
101972
101972
101972
101973
101973
101973
101973
101974
101870
101870
101869
101869
101869
101869
101869
101868
101868
101868
101868
101868
101868
101868
101868
101868
101868
101868
101868
101868
101869
101869
101869
101870
101870
101766
101766
101765
101765
101765
101765
101765
101764
101764
101764
101764
101764
101764
101764
101764
101764
101764
101764
101765
101765
101765
101765
101766
101766
101767
101662
101662
101662
101661
101661
101661
101661
101660
101660
101660
101660
101660
101660
101660
101660
101660
101661
101661
101661
101662
101662
101662
101662
101662
101663
101559
101558
101558
101558
101558
101557
101557
101557
101557
101556
101556
101556
101556
101556
101556
101557
101557
101557
101558
101558
101558
101558
101559
101559
101560
101455
101455
101455
101455
101454
101454
101454
101454
101453
101453
101453
101453
101453
101453
101453
101453
101454
101454
101454
101455
101455
101455
101455
101455
101456
101353
101352
101352
101352
101352
101351
101351
101351
101350
101350
101350
101350
101350
101350
101350
101350
101351
101351
101351
101351
101352
101352
101352
101352
101353
101250
101250
101249
101249
101249
101249
101249
101248
101248
101248
101248
101247
101247
101247
101247
101248
101248
101248
101248
101249
101249
101249
101249
101249
101250
101148
101147
101147
101147
101147
101146
101146
101146
101146
101145
101145
101145
101145
101145
101145
101145
101145
101145
101146
101146
101146
101146
101147
101147
101148
101045
101045
101045
101045
101045
101044
101044
101044
101043
101043
101043
101042
101042
101042
101042
101042
101042
101043
101043
101043
101043
101044
101044
101044
101045
100944
100943
100943
100943
100943
100943
100942
100942
100942
100941
100941
100940
100940
100940
100940
100940
100940
100940
100941
100941
100941
100942
100942
100942
100943
100842
100842
100842
100842
100842
100841
100841
100840
100840
100840
100839
100839
100838
100838
100838
100838
100838
100839
100839
100839
100839
100840
100840
100840
100841
100741
100741
100741
100740
100740
100740
100740
100739
100739
100738
100738
100738
100737
100737
100737
100737
100737
100738
100738
100738
100738
100739
100739
100739
100740
100640
100639
100639
100639
100639
100639
100639
100638
100638
100637
100637
100637
100636
100636
100636
100637
100637
100637
100637
100637
100638
100638
100638
100638
100640
100539
100539
100539
100538
100538
100538
100538
100537
100537
100537
100536
100536
100536
100536
100536
100536
100536
100536
100537
100537
100537
100538
100538
100538
100540
100439
100438
100438
100438
100438
100438
100438
100438
100437
100437
100437
100437
100437
100437
100436
100436
100437
100437
100437
100437
100438
100438
100438
100438
100440
100340
100339
100339
100339
100339
100339
100339
100339
100339
100339
100339
100339
100339
100338
100338
100338
100338
100338
100338
100339
100339
100339
100339
100339
100341
100240
100239
100239
100240
100240
100240
100241
100241
100241
100241
100241
100241
100241
100241
100240
100240
100240
100240
100239
100239
100239
100239
100239
100239
100240
100132
100133
100134
100135
100135
100135
100135
100135
100135
100135
100135
100135
100135
100135
100134
100134
100133
100133
100132
100132
100132
100131
100131
100130
100129
100032
100036
100038
100039
100039
100039
100039
100039
100039
100039
100038
100038
100038
100038
100037
100037
100037
100036
100036
100035
100035
100035
100034
100032
100028
100003
100005
100006
100006
100006
100006
100006
100006
100005
100005
100005
100005
100005
100005
100005
100005
100005
100005
100005
100005
100005
100005
100005
100004
100003
100001
100001
100001
100001
100001
100001
100001
100001
100001
100001
100001
100001
100001
100001
100001
100001
100001
100001
100001
100001
100001
100001
100001
100001
100001
100001
100001
100001
100001
100001
100001
100001
100001
100001
100001
100001
100001
100001
100001
100001
100001
100001
100001
100001
100001
100001
100001
100001
100001
100001
100001
100001
100001
100001
100001
100001
100001
100001
100001
100001
100001
100001
100001
100001
100001
100001
100001
100001
100001
100001
100001
100001
100001
100001
100001
100000
100000
100000
100000
100000
100000
100000
100000
100000
100000
100000
100000
100000
100000
100000
100000
100000
100000
100000
100000
100000
100000
100000
100000
100000
100000
100000
100000
100000
100000
100000
100000
100000
100000
100000
100000
100000
100000
100000
100000
100000
100000
100000
100000
100000
100000
100000
100000
100000
100000
100000
100000
100000
100000
100000
100000
100000
100000
100000
100000
100000
100000
100000
100000
100000
100000
100000
100000
100000
100000
100000
100000
100000
100000
100000
)
;

boundaryField
{
    inlet
    {
        type            calculated;
        value           nonuniform List<scalar> 
25
(
107114
107112
107104
107095
107088
107082
107077
107073
107070
107068
107065
107063
107061
107059
107057
107056
107055
107056
107059
107063
107069
107077
107087
107097
107104
)
;
    }
    outlet
    {
        type            calculated;
        value           uniform 100000;
    }
    walls
    {
        type            calculated;
        value           nonuniform List<scalar> 
150
(
107105
106942
106828
106708
106596
106487
106382
106278
106174
106069
105964
105857
105749
105641
105533
105425
105319
105214
105109
105005
104901
104797
104693
104589
104483
104377
104271
104164
104058
103952
103848
103743
103639
103535
103431
103327
103223
103119
103014
102910
102806
102702
102598
102494
102390
102286
102182
102078
101974
101870
101766
101662
101559
101455
101353
101250
101148
101045
100944
100842
100741
100640
100539
100439
100340
100240
100132
100032
100003
100001
100001
100001
100000
100000
100000
107095
106934
106819
106705
106600
106497
106394
106288
106181
106072
105962
105853
105745
105638
105532
105427
105322
105215
105108
105002
104897
104792
104688
104584
104480
104376
104272
104167
104062
103957
103852
103746
103642
103537
103432
103327
103222
103118
103014
102909
102805
102701
102597
102493
102389
102285
102182
102078
101974
101870
101767
101663
101560
101456
101353
101250
101148
101045
100943
100841
100740
100640
100540
100440
100341
100240
100129
100028
100003
100001
100001
100001
100000
100000
100000
)
;
    }
    defaultFaces
    {
        type            empty;
    }
}


// ************************************************************************* //
