/*--------------------------------*- C++ -*----------------------------------*\
| =========                 |                                                 |
| \\      /  F ield         | OpenFOAM: The Open Source CFD Toolbox           |
|  \\    /   O peration     | Version:  2.3.0                                 |
|   \\  /    A nd           | Web:      www.OpenFOAM.org                      |
|    \\/     M anipulation  |                                                 |
\*---------------------------------------------------------------------------*/
FoamFile
{
    version     2.0;
    format      ascii;
    class       volVectorField;
    location    "0.324";
    object      U;
}
// * * * * * * * * * * * * * * * * * * * * * * * * * * * * * * * * * * * * * //

dimensions      [0 1 -1 0 0 0 0];

internalField   nonuniform List<vector> 
545
(
(0.454632 0.0864672 4.22639e-29)
(0.403958 0.00703513 3.80639e-30)
(0.362305 0.00335216 -1.90378e-31)
(0.332848 0.00334109 0)
(0.301584 0.00852099 -8.48303e-31)
(0.460346 0.0266393 8.52692e-29)
(0.416312 0.0219383 1.06402e-29)
(0.362461 0.0213709 1.06061e-30)
(0.329924 0.018709 0)
(0.297992 0.0212086 -1.22723e-30)
(0.466133 0.0431914 1.32131e-30)
(0.414864 0.0383448 5.73691e-31)
(0.358097 0.0340596 4.36015e-31)
(0.324499 0.0289324 0)
(0.291901 0.0316331 -3.98922e-31)
(0.464054 0.0608881 -1.65547e-28)
(0.399199 0.0526771 -3.40273e-30)
(0.349805 0.0465655 -2.84902e-31)
(0.315842 0.038727 0)
(0.282445 0.0402331 -2.4051e-29)
(0.469108 0.00369294 -3.25207e-28)
(0.371648 0.0753422 1.27466e-30)
(0.339704 0.0631885 2.15036e-30)
(0.30198 0.0562614 7.86414e-30)
(0.263834 0.0765257 -4.00399e-29)
(0.271534 0.00706514 0)
(0.257638 0.00160959 0)
(0.257858 6.5897e-05 0)
(0.258534 -0.000516069 0)
(0.259484 -0.000211573 0)
(0.259758 -0.000186592 0)
(0.259975 1.63639e-05 0)
(0.259946 -8.02142e-05 0)
(0.260034 5.94868e-05 0)
(0.259965 -6.59037e-05 0)
(0.260036 6.57204e-05 0)
(0.259965 -6.59472e-05 0)
(0.260034 6.69254e-05 0)
(0.259966 -6.70616e-05 0)
(0.260032 6.78488e-05 0)
(0.259967 -6.81632e-05 0)
(0.260031 6.88325e-05 0)
(0.259968 -6.90967e-05 0)
(0.260029 6.97211e-05 0)
(0.25997 -7.00149e-05 0)
(0.260028 7.05855e-05 0)
(0.259972 -7.08535e-05 0)
(0.260026 7.14043e-05 0)
(0.259973 -7.16906e-05 0)
(0.260024 7.20982e-05 0)
(0.259975 -7.22855e-05 0)
(0.260022 7.27513e-05 0)
(0.259977 -7.29206e-05 0)
(0.260021 7.33273e-05 0)
(0.259978 -7.34812e-05 0)
(0.260019 7.38169e-05 0)
(0.25998 -7.39701e-05 0)
(0.260017 7.42713e-05 0)
(0.259983 -7.45083e-05 0)
(0.260015 7.471e-05 0)
(0.259985 -7.48225e-05 0)
(0.260013 7.50475e-05 0)
(0.259987 -7.50643e-05 0)
(0.26001 7.52534e-05 0)
(0.259989 -7.52504e-05 0)
(0.260008 7.53224e-05 0)
(0.259991 -7.52883e-05 0)
(0.260006 7.5386e-05 0)
(0.259993 -7.47562e-05 0)
(0.260002 7.43102e-05 0)
(0.269526 0.0147575 0)
(0.257601 0.00348125 0)
(0.258336 2.31266e-06 0)
(0.258967 -0.00048742 0)
(0.259542 -0.000406222 0)
(0.259875 -8.8562e-05 0)
(0.259906 -0.000119863 0)
(0.26002 4.37166e-05 0)
(0.25996 -7.04131e-05 0)
(0.260036 6.39375e-05 0)
(0.259965 -6.56008e-05 0)
(0.260035 6.64216e-05 0)
(0.259966 -6.66782e-05 0)
(0.260034 6.74301e-05 0)
(0.259967 -6.78601e-05 0)
(0.260032 6.83442e-05 0)
(0.259969 -6.88474e-05 0)
(0.260031 6.93667e-05 0)
(0.25997 -6.98033e-05 0)
(0.26003 7.02062e-05 0)
(0.259972 -7.06271e-05 0)
(0.260028 7.10079e-05 0)
(0.259973 -7.13969e-05 0)
(0.260026 7.1707e-05 0)
(0.259975 -7.21928e-05 0)
(0.260025 7.25799e-05 0)
(0.259977 -7.28545e-05 0)
(0.260023 7.31783e-05 0)
(0.259979 -7.34413e-05 0)
(0.260021 7.37346e-05 0)
(0.259981 -7.40386e-05 0)
(0.260019 7.42808e-05 0)
(0.259983 -7.44936e-05 0)
(0.260017 7.4551e-05 0)
(0.259985 -7.4812e-05 0)
(0.260015 7.50027e-05 0)
(0.259987 -7.51249e-05 0)
(0.260013 7.53467e-05 0)
(0.259989 -7.5387e-05 0)
(0.260011 7.55294e-05 0)
(0.259991 -7.55745e-05 0)
(0.260008 7.55343e-05 0)
(0.259993 -7.52122e-05 0)
(0.260005 7.52417e-05 0)
(0.259996 -7.46983e-05 0)
(0.266397 0.0237445 0)
(0.256934 0.00478376 0)
(0.259277 -8.43148e-05 0)
(0.259514 -0.000889175 0)
(0.259924 -0.000432316 0)
(0.259912 -0.000275004 0)
(0.26002 -1.67884e-05 0)
(0.259955 -9.31355e-05 0)
(0.260035 5.57146e-05 0)
(0.259964 -6.72549e-05 0)
(0.260035 6.60333e-05 0)
(0.259965 -6.63872e-05 0)
(0.260034 6.72766e-05 0)
(0.259967 -6.75051e-05 0)
(0.260033 6.81474e-05 0)
(0.259968 -6.8698e-05 0)
(0.260032 6.91532e-05 0)
(0.259969 -6.95376e-05 0)
(0.26003 7.00652e-05 0)
(0.259971 -7.05606e-05 0)
(0.260029 7.09868e-05 0)
(0.259972 -7.14305e-05 0)
(0.260027 7.18614e-05 0)
(0.259974 -7.23454e-05 0)
(0.260025 7.2492e-05 0)
(0.259976 -7.27467e-05 0)
(0.260023 7.31665e-05 0)
(0.259978 -7.34573e-05 0)
(0.260022 7.37972e-05 0)
(0.25998 -7.40328e-05 0)
(0.26002 7.42434e-05 0)
(0.259982 -7.44654e-05 0)
(0.260018 7.47452e-05 0)
(0.259984 -7.52004e-05 0)
(0.260016 7.52987e-05 0)
(0.259986 -7.54205e-05 0)
(0.260014 7.5634e-05 0)
(0.259988 -7.56178e-05 0)
(0.260012 7.58474e-05 0)
(0.25999 -7.58302e-05 0)
(0.260009 7.58953e-05 0)
(0.259992 -7.59894e-05 0)
(0.260007 7.62355e-05 0)
(0.259995 -7.5774e-05 0)
(0.260003 7.55027e-05 0)
(0.262234 0.030401 0)
(0.256901 0.00498322 0)
(0.260538 -0.000588496 0)
(0.260428 -0.000859906 0)
(0.260216 -0.000559466 0)
(0.260129 -0.000140157 0)
(0.259992 -0.000139537 0)
(0.260045 3.55932e-05 0)
(0.259965 -7.34592e-05 0)
(0.260036 6.32017e-05 0)
(0.259965 -6.56234e-05 0)
(0.260035 6.64062e-05 0)
(0.259966 -6.66679e-05 0)
(0.260034 6.75386e-05 0)
(0.259967 -6.79127e-05 0)
(0.260032 6.83806e-05 0)
(0.259969 -6.89499e-05 0)
(0.260031 6.95685e-05 0)
(0.25997 -6.99066e-05 0)
(0.260029 7.02802e-05 0)
(0.259972 -7.0673e-05 0)
(0.260028 7.10381e-05 0)
(0.259973 -7.13918e-05 0)
(0.260026 7.1661e-05 0)
(0.259975 -7.23464e-05 0)
(0.260024 7.28293e-05 0)
(0.259977 -7.30357e-05 0)
(0.260023 7.33423e-05 0)
(0.259979 -7.35634e-05 0)
(0.260021 7.38918e-05 0)
(0.259981 -7.42595e-05 0)
(0.260019 7.4555e-05 0)
(0.259983 -7.46742e-05 0)
(0.260017 7.45283e-05 0)
(0.259985 -7.4843e-05 0)
(0.260015 7.51048e-05 0)
(0.259987 -7.52026e-05 0)
(0.260013 7.55203e-05 0)
(0.259989 -7.55077e-05 0)
(0.260011 7.57258e-05 0)
(0.259991 -7.5815e-05 0)
(0.260008 7.5711e-05 0)
(0.259994 -7.5368e-05 0)
(0.260005 7.59968e-05 0)
(0.259995 -7.50414e-05 0)
(0.25974 0.0501335 0)
(0.259228 0.00482239 0)
(0.262519 -0.00053592 0)
(0.261213 -0.00085186 0)
(0.260596 -0.000310927 0)
(0.260153 -0.000192085 0)
(0.260106 1.76818e-05 0)
(0.259982 -8.3539e-05 0)
(0.26004 5.87155e-05 0)
(0.259964 -6.71974e-05 0)
(0.260035 6.66174e-05 0)
(0.259965 -6.70229e-05 0)
(0.260034 6.7734e-05 0)
(0.259967 -6.80038e-05 0)
(0.260033 6.863e-05 0)
(0.259968 -6.92237e-05 0)
(0.260032 6.96183e-05 0)
(0.259969 -6.9954e-05 0)
(0.26003 7.05813e-05 0)
(0.259971 -7.1126e-05 0)
(0.260029 7.15887e-05 0)
(0.259973 -7.20828e-05 0)
(0.260027 7.25593e-05 0)
(0.259974 -7.30491e-05 0)
(0.260025 7.30374e-05 0)
(0.259976 -7.32085e-05 0)
(0.260023 7.3686e-05 0)
(0.259978 -7.40235e-05 0)
(0.260022 7.44013e-05 0)
(0.25998 -7.46282e-05 0)
(0.26002 7.4739e-05 0)
(0.259982 -7.49445e-05 0)
(0.260018 7.537e-05 0)
(0.259984 -7.59969e-05 0)
(0.260016 7.60793e-05 0)
(0.259986 -7.61534e-05 0)
(0.260014 7.63688e-05 0)
(0.259988 -7.63196e-05 0)
(0.260012 7.65452e-05 0)
(0.25999 -7.65418e-05 0)
(0.26001 7.65936e-05 0)
(0.259992 -7.68736e-05 0)
(0.260007 7.74549e-05 0)
(0.259995 -7.58126e-05 0)
(0.259998 7.78279e-05 0)
(0.26926 -6.2229e-05 0)
(0.260142 6.13865e-05 0)
(0.264355 -6.25415e-05 0)
(0.261912 6.31619e-05 0)
(0.260634 -6.39854e-05 0)
(0.260255 6.46229e-05 0)
(0.260044 -6.52501e-05 0)
(0.260062 6.59187e-05 0)
(0.259967 -6.66043e-05 0)
(0.260035 6.72588e-05 0)
(0.259964 -6.78743e-05 0)
(0.260034 6.84783e-05 0)
(0.259965 -6.90677e-05 0)
(0.260034 6.95823e-05 0)
(0.259967 -7.01282e-05 0)
(0.260032 7.06909e-05 0)
(0.259968 -7.12164e-05 0)
(0.260031 7.17177e-05 0)
(0.25997 -7.22099e-05 0)
(0.260029 7.2652e-05 0)
(0.259972 -7.30667e-05 0)
(0.260027 7.35094e-05 0)
(0.259973 -7.3971e-05 0)
(0.260026 7.43565e-05 0)
(0.259974 -7.47422e-05 0)
(0.260024 7.51071e-05 0)
(0.259976 -7.54588e-05 0)
(0.260022 7.57609e-05 0)
(0.259979 -7.60354e-05 0)
(0.26002 7.6323e-05 0)
(0.25998 -7.66262e-05 0)
(0.260018 7.69073e-05 0)
(0.259983 -7.71407e-05 0)
(0.260016 7.73715e-05 0)
(0.259984 -7.7568e-05 0)
(0.260014 7.77713e-05 0)
(0.259986 -7.79103e-05 0)
(0.260012 7.80404e-05 0)
(0.259989 -7.8156e-05 0)
(0.260011 7.8285e-05 0)
(0.259991 -7.84044e-05 0)
(0.260007 7.86043e-05 0)
(0.259992 -7.84252e-05 0)
(0.260007 8.09792e-05 0)
(0.259997 -7.60775e-05 0)
(0.469107 -0.0038069 0)
(0.371649 -0.0752277 2.49025e-31)
(0.339703 -0.0633036 -2.00494e-30)
(0.301981 -0.0561451 -7.86369e-30)
(0.263833 -0.0766429 0)
(0.464055 -0.0607741 0)
(0.399198 -0.0527914 0)
(0.349807 -0.0464504 0)
(0.315841 -0.038843 -2.44739e-30)
(0.282446 -0.0401157 0)
(0.466132 -0.0433054 0)
(0.414865 -0.0382304 0)
(0.358096 -0.0341747 0)
(0.3245 -0.0288162 -1.37638e-30)
(0.2919 -0.0317504 0)
(0.460347 -0.0265253 0)
(0.416311 -0.0220527 0)
(0.362462 -0.0212558 0)
(0.329923 -0.018825 5.90977e-31)
(0.297993 -0.0210912 0)
(0.454631 -0.0865812 0)
(0.403959 -0.00692071 0)
(0.362303 -0.00346728 0)
(0.332849 -0.0032248 9.18207e-32)
(0.301583 -0.00863833 0)
(0.259742 -0.0500148 0)
(0.259228 -0.00494324 0)
(0.262519 0.000658267 0)
(0.261213 0.000727967 0)
(0.260596 0.000436186 0)
(0.260153 6.53479e-05 0)
(0.260106 0.00011036 0)
(0.259982 -4.57168e-05 0)
(0.26004 7.17859e-05 0)
(0.259964 -6.45668e-05 0)
(0.260035 6.63773e-05 0)
(0.259965 -6.71353e-05 0)
(0.260034 6.76291e-05 0)
(0.259967 -6.84777e-05 0)
(0.260033 6.8881e-05 0)
(0.259968 -6.93035e-05 0)
(0.260032 6.99491e-05 0)
(0.25997 -7.05879e-05 0)
(0.26003 7.09314e-05 0)
(0.259971 -7.13535e-05 0)
(0.260029 7.17499e-05 0)
(0.259973 -7.1998e-05 0)
(0.260027 7.23433e-05 0)
(0.259974 -7.2658e-05 0)
(0.260025 7.34132e-05 0)
(0.259976 -7.39537e-05 0)
(0.260024 7.41692e-05 0)
(0.259978 -7.45538e-05 0)
(0.260022 7.47941e-05 0)
(0.25998 -7.50455e-05 0)
(0.26002 7.54037e-05 0)
(0.259982 -7.57053e-05 0)
(0.260018 7.57578e-05 0)
(0.259984 -7.5586e-05 0)
(0.260016 7.58791e-05 0)
(0.259986 -7.62062e-05 0)
(0.260014 7.63994e-05 0)
(0.259988 -7.67948e-05 0)
(0.260012 7.68391e-05 0)
(0.25999 -7.69915e-05 0)
(0.26001 7.71106e-05 0)
(0.259992 -7.68214e-05 0)
(0.260008 7.69353e-05 0)
(0.259995 -7.7111e-05 0)
(0.260014 7.6992e-05 0)
(0.262234 -0.0305195 0)
(0.256902 -0.00486344 0)
(0.260537 0.000467158 0)
(0.260428 0.000982633 0)
(0.260216 0.000435275 0)
(0.260129 0.000265605 0)
(0.259992 1.27754e-05 0)
(0.260045 9.24709e-05 0)
(0.259965 -5.59064e-05 0)
(0.260036 6.74059e-05 0)
(0.259965 -6.61638e-05 0)
(0.260035 6.65686e-05 0)
(0.259966 -6.74003e-05 0)
(0.260034 6.76013e-05 0)
(0.259967 -6.82997e-05 0)
(0.260032 6.89085e-05 0)
(0.259969 -6.93406e-05 0)
(0.260031 6.97015e-05 0)
(0.25997 -7.02892e-05 0)
(0.260029 7.0789e-05 0)
(0.259972 -7.12442e-05 0)
(0.260028 7.17599e-05 0)
(0.259973 -7.22387e-05 0)
(0.260026 7.27368e-05 0)
(0.259975 -7.27892e-05 0)
(0.260024 7.30208e-05 0)
(0.259977 -7.34716e-05 0)
(0.260023 7.37613e-05 0)
(0.259979 -7.4097e-05 0)
(0.260021 7.43624e-05 0)
(0.259981 -7.45597e-05 0)
(0.260019 7.47856e-05 0)
(0.259983 -7.513e-05 0)
(0.260017 7.57047e-05 0)
(0.259985 -7.5799e-05 0)
(0.260015 7.58872e-05 0)
(0.259987 -7.6086e-05 0)
(0.260013 7.60223e-05 0)
(0.259989 -7.62624e-05 0)
(0.260011 7.63195e-05 0)
(0.259991 -7.64117e-05 0)
(0.260009 7.68968e-05 0)
(0.259993 -7.73411e-05 0)
(0.260007 7.67472e-05 0)
(0.259996 -7.77591e-05 0)
(0.266398 -0.0236254 0)
(0.256934 -0.00490433 0)
(0.259277 0.000206205 0)
(0.259513 0.000765736 0)
(0.259924 0.000557072 0)
(0.259912 0.000148816 0)
(0.26002 0.000144236 0)
(0.259955 -3.56006e-05 0)
(0.260035 7.42928e-05 0)
(0.259964 -6.39937e-05 0)
(0.260035 6.64337e-05 0)
(0.259965 -6.72297e-05 0)
(0.260034 6.74975e-05 0)
(0.259967 -6.8364e-05 0)
(0.260033 6.87887e-05 0)
(0.259968 -6.92719e-05 0)
(0.260032 6.98452e-05 0)
(0.259969 -7.04325e-05 0)
(0.26003 7.08484e-05 0)
(0.259971 -7.1269e-05 0)
(0.260028 7.17115e-05 0)
(0.259972 -7.20848e-05 0)
(0.260027 7.24764e-05 0)
(0.259974 -7.27817e-05 0)
(0.260025 7.33768e-05 0)
(0.259976 -7.38281e-05 0)
(0.260023 7.40788e-05 0)
(0.259978 -7.44361e-05 0)
(0.260022 7.46958e-05 0)
(0.25998 -7.5001e-05 0)
(0.26002 7.53183e-05 0)
(0.259982 -7.56079e-05 0)
(0.260018 7.58001e-05 0)
(0.259984 -7.57882e-05 0)
(0.260016 7.60783e-05 0)
(0.259986 -7.63236e-05 0)
(0.260014 7.64523e-05 0)
(0.259988 -7.67586e-05 0)
(0.260012 7.67913e-05 0)
(0.25999 -7.69999e-05 0)
(0.26001 7.71637e-05 0)
(0.259992 -7.71394e-05 0)
(0.260008 7.70821e-05 0)
(0.259993 -7.83325e-05 0)
(0.260006 7.73771e-05 0)
(0.269525 -0.0148761 0)
(0.257602 -0.0033611 0)
(0.258335 -0.00012394 0)
(0.258968 0.000610443 0)
(0.259542 0.000281766 0)
(0.259875 0.000214295 0)
(0.259906 -7.23745e-06 0)
(0.26002 8.46476e-05 0)
(0.25996 -5.92225e-05 0)
(0.260036 6.69273e-05 0)
(0.259965 -6.64558e-05 0)
(0.260035 6.68205e-05 0)
(0.259966 -6.76772e-05 0)
(0.260034 6.80302e-05 0)
(0.259967 -6.86634e-05 0)
(0.260032 6.92339e-05 0)
(0.259969 -6.97328e-05 0)
(0.260031 7.01876e-05 0)
(0.25997 -7.06963e-05 0)
(0.26003 7.11902e-05 0)
(0.259972 -7.16301e-05 0)
(0.260028 7.21018e-05 0)
(0.259974 -7.25207e-05 0)
(0.260026 7.29866e-05 0)
(0.259975 -7.32418e-05 0)
(0.260025 7.35621e-05 0)
(0.259977 -7.39574e-05 0)
(0.260023 7.4269e-05 0)
(0.259979 -7.45844e-05 0)
(0.260021 7.4866e-05 0)
(0.259981 -7.50871e-05 0)
(0.260019 7.53569e-05 0)
(0.259983 -7.56111e-05 0)
(0.260017 7.59802e-05 0)
(0.259985 -7.61272e-05 0)
(0.260015 7.62922e-05 0)
(0.259987 -7.64997e-05 0)
(0.260013 7.65662e-05 0)
(0.259989 -7.67636e-05 0)
(0.260011 7.68553e-05 0)
(0.259991 -7.69705e-05 0)
(0.260009 7.72539e-05 0)
(0.259993 -7.76247e-05 0)
(0.260006 7.74816e-05 0)
(0.259993 -7.88724e-05 0)
(0.271535 -0.00694615 0)
(0.257637 -0.00172977 0)
(0.257859 5.58807e-05 0)
(0.258534 0.000392977 0)
(0.259484 0.000336059 0)
(0.259758 6.07038e-05 0)
(0.259975 0.000110732 0)
(0.259946 -4.82202e-05 0)
(0.260034 7.01918e-05 0)
(0.259965 -6.50192e-05 0)
(0.260036 6.6413e-05 0)
(0.259965 -6.73212e-05 0)
(0.260034 6.75131e-05 0)
(0.259966 -6.84306e-05 0)
(0.260032 6.87507e-05 0)
(0.259967 -6.94486e-05 0)
(0.260031 6.98141e-05 0)
(0.259969 -7.05175e-05 0)
(0.260029 7.08322e-05 0)
(0.25997 -7.14326e-05 0)
(0.260028 7.17414e-05 0)
(0.259972 -7.22981e-05 0)
(0.260026 7.25768e-05 0)
(0.259973 -7.30617e-05 0)
(0.260024 7.34025e-05 0)
(0.259975 -7.39171e-05 0)
(0.260022 7.41281e-05 0)
(0.259977 -7.45702e-05 0)
(0.260021 7.4773e-05 0)
(0.259979 -7.51595e-05 0)
(0.260019 7.53784e-05 0)
(0.259981 -7.57242e-05 0)
(0.260017 7.58887e-05 0)
(0.259983 -7.61065e-05 0)
(0.260015 7.62769e-05 0)
(0.259985 -7.65503e-05 0)
(0.260013 7.66333e-05 0)
(0.259987 -7.68919e-05 0)
(0.260011 7.69624e-05 0)
(0.259989 -7.71546e-05 0)
(0.260008 7.73037e-05 0)
(0.259991 -7.74151e-05 0)
(0.260006 7.75398e-05 0)
(0.259992 -7.82684e-05 0)
(0.260003 7.9152e-05 0)
)
;

boundaryField
{
    AirInlet
    {
        type            fixedValue;
        value           uniform (0.1 0 0);
    }
    WaterInlet
    {
        type            fixedValue;
        value           uniform (0.5 0 0);
    }
    ChannelWall
    {
        type            fixedValue;
        value           uniform (0 0 0);
    }
    Outlet
    {
        type            pressureInletOutletVelocity;
        value           nonuniform List<vector> 
11
(
(0.260002 7.43102e-05 0)
(0.259996 -7.46983e-05 0)
(0.260003 7.55027e-05 0)
(0.259995 -7.50414e-05 0)
(0.259998 7.78279e-05 0)
(0.259997 -7.60775e-05 0)
(0.260014 7.6992e-05 0)
(0.259996 -7.77591e-05 0)
(0.260006 7.73771e-05 0)
(0.259993 -7.88724e-05 0)
(0.260003 7.9152e-05 0)
)
;
    }
    FrontAndBack
    {
        type            empty;
    }
}


// ************************************************************************* //
