/*--------------------------------*- C++ -*----------------------------------*\
| =========                 |                                                 |
| \\      /  F ield         | OpenFOAM: The Open Source CFD Toolbox           |
|  \\    /   O peration     | Version:  2.3.0                                 |
|   \\  /    A nd           | Web:      www.OpenFOAM.org                      |
|    \\/     M anipulation  |                                                 |
\*---------------------------------------------------------------------------*/
FoamFile
{
    version     2.0;
    format      ascii;
    class       volScalarField;
    location    "0.25";
    object      p;
}
// * * * * * * * * * * * * * * * * * * * * * * * * * * * * * * * * * * * * * //

dimensions      [1 -1 -2 0 0 0 0];

internalField   nonuniform List<scalar> 
545
(
-8.12564e+07
-1.50799e+07
-2.13504e+06
-2.76961e+06
-8.85196e+06
5.8246e+07
-3.17059e+06
-2.50261e+06
-2.67339e+06
-7.21471e+06
1.01375e+08
3.51964e+06
-498070
-560375
-7.55891e+06
5.87571e+07
-3.35311e+06
-2.021e+06
-264651
-6.73363e+06
-9.34815e+07
-2.50708e+06
-594883
4.16495e+06
1.18917e+07
-7.52615e+06
-1.93679e+06
-729701
-25298.6
102973
110149
87530.8
72509.2
64232.5
58796.3
55353.1
52019.3
50060.7
47810.8
46658.8
44986.1
44378.7
43061
42727.1
41444.9
41189.2
39929.8
39372.9
37885.4
37219.1
35499.4
34687.9
32738
31804.9
29680.7
28582.1
26315.9
25212.1
22872.5
21785
19477.3
18300.2
15845.2
14612
12061.3
10685.9
8000.38
6519.85
3996.29
2970.58
-6.67684e+06
-1.24428e+06
-702221
-159204
-7703.85
52894.4
64007.1
64596.1
61786.1
58375
55129
52239.1
49945.1
48056.5
46527.1
45252.8
44239.6
43330.8
42552.4
41727
41000.6
40226.2
39159.5
38201.4
37011.7
35810.5
34474
33046.2
31573.4
29993
28326.2
26617.4
24944.7
23182.1
21501.1
19807.1
18018.1
16196.1
14336.4
12408
10353.9
8319.36
6106.53
3965.57
1105.89
-7.91924e+06
-658291
-393381
-22195.4
35901.6
61790
63982.2
63005.4
61072.1
57765.3
55190.6
51977.5
50181.1
47865.2
46804
45039.1
44515.4
43085.6
42824.6
41459.9
41278.1
40008.5
39425.2
37955.7
37301
35533.9
34777.7
32751.3
31886.4
29696.4
28638
26284.3
25260.2
22854.6
21822.1
19517.9
18357.6
15893.9
14682.2
12088.4
10661.7
7978.39
6293.85
3557.52
2233.35
-8.38184e+06
552554
227095
222293
123780
87431.9
69758.4
63138.1
60892.1
57282.7
55243.1
51762.4
50354.5
47773.4
46998.4
44903.4
44688.5
42928.9
42964
41288.6
41407.1
39961.2
39499.9
37859.4
37408.6
35411.7
34888.3
32617.1
32009.4
29571.5
28744.6
26149.9
25348.7
22728.8
21916
19465.9
18468.6
15801.4
14807.6
11976.7
10726.6
7882.54
6219.86
2922.62
720.71
-1.40348e+06
3.42987e+06
1.29926e+06
434674
154003
83965.1
65665.2
60655.8
60729.2
56479
55714.2
51201.4
50918.8
47351
47598.9
44365.2
45305.2
42310.5
43594.6
40610.1
41969
39577.7
39919.2
37356.9
37954.5
34811.7
35502.1
31946.5
32669.8
28925.4
29413.7
25428.5
26030.5
22014.7
22550
18878.9
19153
15122.8
15540.5
11287.6
11328.2
7331.59
6626.52
2360.82
2247.76
-1.2122e+07
5.1708e+06
2.22897e+06
552442
158374
80416.7
62656.7
60477
59141.5
57626.4
58231.3
57114.6
53136.4
51518.7
49908.3
47036.4
44345.5
44458.4
46141.8
46382.8
44352.5
42549.2
43711
41728.5
38516.3
36611
36706.5
36283.6
33715.1
30279.9
28280
28481.4
29018.3
28458.5
24811.9
23449.7
21561.9
18030.5
14408.4
12538.9
12340.2
12029.8
10554.5
7066.86
2412.71
-9.34872e+07
-2.5121e+06
-598533
4.1626e+06
1.18904e+07
5.87513e+07
-3.35826e+06
-2.02474e+06
-266643
-6.73445e+06
1.01369e+08
3.51435e+06
-501843
-562061
-7.5592e+06
5.82402e+07
-3.17594e+06
-2.50637e+06
-2.67489e+06
-7.21481e+06
-8.12622e+07
-1.50852e+07
-2.13873e+06
-2.77112e+06
-8.85218e+06
-1.40492e+06
3.43135e+06
1.2978e+06
435935
152408
85501.7
64252
62262.8
59024.8
58202.1
54210.6
52876.2
49394.1
49072.6
46046
46139
43525.5
44099.7
41936.8
42303.2
40265.5
41285.4
38190.8
39068.6
36114.9
36648.8
33680.9
33753.8
30829
30845.5
27440.6
27267.9
24273
23797.4
20746.2
20691
17361.4
17015.7
13549.6
13305.3
9485.43
9204.77
4921.31
4852.05
1019.3
-8.38265e+06
553615
226456
222843
122777
88396.7
69077.1
64037.7
59953.4
58283.1
54534.3
52840.2
49667.3
48884.3
46273
45981.8
43770.1
43950.2
42074.4
42232.5
40450.3
40893.6
38514
38773.8
36355
36397.1
33864.4
33591.6
30978.5
30602.9
27637.7
27149.6
24378.9
23726.8
20918.6
20485.5
17493.6
16856.9
13723.8
13101.8
9761.87
8984.45
5406.07
4436.47
50.8661
-7.91923e+06
-657549
-393215
-22068.5
35579.7
62256.4
63924.3
63271.3
60782.3
58153.2
55168.1
52543.9
50241.9
48452.7
46810.5
45523.4
44343.6
43456.8
42596.4
41746.5
40976.1
40256.3
39090.1
38171.1
36929.1
35782.9
34434.2
33003.3
31546.1
29967.6
28266.1
26562.8
24973.8
23159.2
21534.8
19840.6
18094
16226.1
14368.7
12458.8
10427.1
8414.28
6181.97
4294.76
2291.73
-6.67641e+06
-1.24346e+06
-701710
-158973
-7592.45
53285.2
64174.9
64635
61710.2
58546.5
55368.9
52675.6
50319.4
48516.4
46831.8
45573.1
44360.3
43493.2
42560.4
41787.3
40921.2
40229.9
39039.4
38168.6
36868
35791
34353.3
33037.5
31458.6
29990.2
28208
26639.4
24887.1
23245.1
21462.1
19890.4
18000.2
16281.8
14299.8
12510.3
10377.5
8506.13
6275.3
4327.18
1238.19
-7.52554e+06
-1.93589e+06
-728989
-24759.8
103384
110546
87763.9
72468.8
64197.3
58910.6
55670.3
52444
50545.6
48267.6
47069.1
45286
44600.9
43183.5
42801.4
41449.8
41167.1
39866.2
39303.7
37783
37132.4
35402
34617.5
32654
31743.3
29597.9
28528.4
26269.3
25207.7
22871.4
21809.8
19499.6
18345.1
15869.6
14650.2
12101.2
10762
8137.73
6721.56
4320.01
3239.71
)
;

boundaryField
{
    AirInlet
    {
        type            calculated;
        value           uniform -1.21196e+07;
    }
    WaterInlet
    {
        type            calculated;
        value           nonuniform List<scalar> 10(-8.12564e+07 5.8246e+07 1.01375e+08 5.87571e+07 -9.34815e+07 -9.34872e+07 5.87513e+07 1.01369e+08 5.82402e+07 -8.12622e+07);
    }
    ChannelWall
    {
        type            calculated;
        value           nonuniform List<scalar> 
110
(
-9.34815e+07
-2.50708e+06
-594883
4.16495e+06
1.18917e+07
-9.34872e+07
-2.5121e+06
-598533
4.1626e+06
1.18904e+07
-8.12622e+07
-1.50852e+07
-2.13873e+06
-2.77112e+06
-8.85218e+06
-7.52554e+06
-1.93589e+06
-728989
-24759.8
103384
110546
87763.9
72468.8
64197.3
58910.5
55670.3
52444
50545.5
48267.5
47069.1
45285.9
44600.9
43183.4
42801.3
41449.8
41167
39866.2
39303.7
37782.9
37132.4
35401.9
34617.5
32654
31743.2
29597.8
28528.3
26269.2
25207.6
22871.3
21809.8
19499.6
18345.1
15869.5
14650.2
12101.1
10761.9
8137.69
6721.52
4319.97
3239.67
-8.12564e+07
-1.50799e+07
-2.13503e+06
-2.76961e+06
-8.85196e+06
-7.52615e+06
-1.93679e+06
-729701
-25298.6
102973
110149
87530.9
72509.2
64232.6
58796.3
55353.1
52019.3
50060.7
47810.8
46658.8
44986.1
44378.7
43061.1
42727.1
41445
41189.2
39929.9
39372.9
37885.5
37219.1
35499.4
34688
32738
31805
29680.7
28582.2
26316
25212.2
22872.5
21785
19477.3
18300.3
15845.3
14612.1
12061.3
10686
8000.43
6519.89
3996.33
2970.63
)
;
    }
    Outlet
    {
        type            calculated;
        value           nonuniform List<scalar> 
11
(
-0.044145
-0.132435
-0.220725
-0.308996
-0.395464
-0.241367
-0.580968
-0.671943
-0.760274
-0.848565
-0.936855
)
;
    }
    FrontAndBack
    {
        type            empty;
    }
}


// ************************************************************************* //
