/*--------------------------------*- C++ -*----------------------------------*\
| =========                 |                                                 |
| \\      /  F ield         | OpenFOAM: The Open Source CFD Toolbox           |
|  \\    /   O peration     | Version:  2.3.0                                 |
|   \\  /    A nd           | Web:      www.OpenFOAM.org                      |
|    \\/     M anipulation  |                                                 |
\*---------------------------------------------------------------------------*/
FoamFile
{
    version     2.0;
    format      ascii;
    class       volVectorField;
    location    "1.74";
    object      U.airMean;
}
// * * * * * * * * * * * * * * * * * * * * * * * * * * * * * * * * * * * * * //

dimensions      [0 1 -1 0 0 0 0];

internalField   nonuniform List<vector> 
6000
(
(-0.00892687 0.247859 0)
(0.00905305 0.21112 0)
(0.0405012 0.220546 0)
(0.0565527 0.224916 0)
(0.0508957 0.221715 0)
(0.0338394 0.212505 0)
(0.0222206 0.198226 0)
(0.00961715 0.202482 0)
(-0.00556213 0.198934 0)
(-0.0148401 0.196048 0)
(-0.0170371 0.193211 0)
(-0.0137472 0.192745 0)
(-0.028675 0.218377 0)
(-0.0664937 0.239607 0)
(-0.10025 0.233674 0)
(-0.0971467 0.222034 0)
(-0.0756781 0.217975 0)
(-0.0614626 0.220874 0)
(-0.0589583 0.21716 0)
(-0.046814 0.211619 0)
(-0.0286962 0.212875 0)
(-0.0136449 0.22367 0)
(-0.00942906 0.227086 0)
(-0.0069558 0.226611 0)
(-0.01148 0.233489 0)
(-0.0232672 0.231208 0)
(-0.0154682 0.221236 0)
(0.00110198 0.221081 0)
(-0.00528741 0.212673 0)
(0.00201654 0.253185 0)
(0.0165034 0.964648 0)
(0.0368748 0.958399 0)
(0.0646224 0.956671 0)
(0.0743321 0.986048 0)
(0.0638368 1.01126 0)
(0.058097 1.02399 0)
(0.0529979 1.02169 0)
(0.0291328 1.03211 0)
(0.0048124 1.03476 0)
(-0.0106448 1.00957 0)
(-0.0170602 1.01192 0)
(-0.0369614 1.03454 0)
(-0.0727509 1.04283 0)
(-0.105693 1.05495 0)
(-0.1276 1.01964 0)
(-0.126675 0.967534 0)
(-0.113678 0.962891 0)
(-0.098334 0.98775 0)
(-0.0829733 0.981272 0)
(-0.066821 0.980655 0)
(-0.0406297 0.974546 0)
(-0.0174786 0.979272 0)
(0.000983173 0.996156 0)
(0.00239371 1.00028 0)
(-0.0222002 1.02096 0)
(-0.043767 0.999172 0)
(-0.0358404 0.974094 0)
(-0.0183528 0.984555 0)
(-0.0197345 1.01546 0)
(-0.0241431 0.951896 0)
(-0.00259866 0.800651 0)
(0.0312132 0.753208 0)
(0.0507586 0.761368 0)
(0.0520082 0.822447 0)
(0.0442541 0.842398 0)
(0.0473615 0.842347 0)
(0.0499635 0.851416 0)
(0.0299572 0.88155 0)
(0.0078675 0.877448 0)
(-0.00376171 0.836599 0)
(-0.00923488 0.843855 0)
(-0.0254086 0.887135 0)
(-0.0624323 0.909202 0)
(-0.0973315 0.921379 0)
(-0.114392 0.86367 0)
(-0.121509 0.798411 0)
(-0.120856 0.783835 0)
(-0.109816 0.794968 0)
(-0.0931447 0.791725 0)
(-0.0726567 0.772541 0)
(-0.0393327 0.761028 0)
(-0.00816759 0.7795 0)
(0.0119301 0.801567 0)
(0.006846 0.838567 0)
(-0.0251913 0.877533 0)
(-0.0397928 0.834085 0)
(-0.0262121 0.785562 0)
(0.00362293 0.798504 0)
(0.00744143 0.85014 0)
(0.00812924 0.797997 0)
(0.00347293 0.804682 0)
(0.0276157 0.7674 0)
(0.0217178 0.792178 0)
(0.0248202 0.851318 0)
(0.0315955 0.858032 0)
(0.0409734 0.859339 0)
(0.0381964 0.884606 0)
(0.0226188 0.916719 0)
(0.0112645 0.914866 0)
(0.000471858 0.869404 0)
(-0.00568211 0.87042 0)
(-0.0186861 0.931452 0)
(-0.0517078 0.950718 0)
(-0.0826671 0.947447 0)
(-0.105977 0.883346 0)
(-0.119633 0.817574 0)
(-0.117503 0.797678 0)
(-0.107385 0.808138 0)
(-0.091873 0.800981 0)
(-0.0652449 0.77725 0)
(-0.0356782 0.766904 0)
(-0.0100775 0.78557 0)
(0.000898051 0.82141 0)
(-0.00864715 0.891274 0)
(-0.0224333 0.908493 0)
(-0.0224083 0.864835 0)
(-0.0107365 0.790716 0)
(0.0136237 0.806403 0)
(0.0203541 0.889013 0)
(0.0149175 0.827703 0)
(0.00754759 0.787176 0)
(0.014067 0.752676 0)
(0.00563741 0.787684 0)
(0.00847362 0.833938 0)
(0.0196163 0.843627 0)
(0.0240361 0.853807 0)
(0.0192206 0.893316 0)
(0.00678919 0.924272 0)
(0.00283113 0.92338 0)
(-0.00629536 0.879006 0)
(-0.0145476 0.880747 0)
(-0.025203 0.946459 0)
(-0.0542078 0.972548 0)
(-0.0805279 0.961397 0)
(-0.106779 0.894753 0)
(-0.119416 0.816266 0)
(-0.110897 0.778583 0)
(-0.097566 0.793429 0)
(-0.0819206 0.771676 0)
(-0.055163 0.738047 0)
(-0.0313778 0.732509 0)
(-0.0161847 0.75646 0)
(-0.0130401 0.812823 0)
(-0.0145189 0.882112 0)
(-0.0102686 0.89937 0)
(-0.00685174 0.859076 0)
(0.00256955 0.77119 0)
(0.016464 0.781226 0)
(0.0230195 0.892894 0)
(0.0151263 0.836635 0)
(0.00546703 0.772812 0)
(0.0123629 0.752716 0)
(-0.00064767 0.789982 0)
(0.00619269 0.823416 0)
(0.00679829 0.833204 0)
(0.00593912 0.850908 0)
(0.00180811 0.900775 0)
(-0.00615411 0.928305 0)
(-0.0122753 0.93174 0)
(-0.0243314 0.894904 0)
(-0.0372737 0.89337 0)
(-0.0536248 0.963034 0)
(-0.0770301 0.995616 0)
(-0.0848473 0.970648 0)
(-0.0894929 0.90174 0)
(-0.089539 0.808705 0)
(-0.0854967 0.771002 0)
(-0.0811152 0.785455 0)
(-0.0710496 0.75326 0)
(-0.0516965 0.715803 0)
(-0.034989 0.71607 0)
(-0.0260575 0.752206 0)
(-0.0211802 0.808259 0)
(-0.0140178 0.873734 0)
(0.000985179 0.883697 0)
(0.0109658 0.854492 0)
(0.0139245 0.759669 0)
(0.0137979 0.772679 0)
(0.0154243 0.896566 0)
(0.010606 0.846771 0)
(0.00282755 0.754576 0)
(0.0134123 0.745601 0)
(0.0135694 0.779071 0)
(0.0109485 0.818474 0)
(0.00593982 0.829464 0)
(-0.00361435 0.847147 0)
(-0.00633612 0.902248 0)
(-0.0133209 0.929941 0)
(-0.0266418 0.943834 0)
(-0.0439638 0.908343 0)
(-0.0675354 0.911748 0)
(-0.0905157 0.974285 0)
(-0.100678 0.995463 0)
(-0.0846478 0.952187 0)
(-0.0687661 0.885975 0)
(-0.0556554 0.799684 0)
(-0.0600417 0.765859 0)
(-0.0719436 0.782106 0)
(-0.0725259 0.740001 0)
(-0.0581546 0.696187 0)
(-0.0419055 0.69961 0)
(-0.0315693 0.740186 0)
(-0.0252322 0.795698 0)
(-0.0148906 0.849701 0)
(0.00517255 0.858306 0)
(0.0197813 0.837269 0)
(0.0154926 0.755923 0)
(-5.76158e-05 0.764648 0)
(-0.00709163 0.892823 0)
(2.71312e-05 0.842796 0)
(0.00499548 0.737914 0)
(0.0185836 0.723339 0)
(0.0195738 0.764619 0)
(0.0117704 0.814307 0)
(-0.00471227 0.827189 0)
(-0.0121147 0.84757 0)
(-0.0160799 0.900834 0)
(-0.0189366 0.939001 0)
(-0.0351156 0.95907 0)
(-0.0592187 0.928837 0)
(-0.0932733 0.935544 0)
(-0.115476 0.98303 0)
(-0.108486 0.972927 0)
(-0.0817858 0.930537 0)
(-0.0525068 0.86145 0)
(-0.032736 0.792989 0)
(-0.0443084 0.786621 0)
(-0.0681003 0.786983 0)
(-0.0756964 0.729232 0)
(-0.0689031 0.675179 0)
(-0.0498774 0.68038 0)
(-0.035315 0.725168 0)
(-0.0274625 0.784872 0)
(-0.0196161 0.826096 0)
(-0.00346681 0.829987 0)
(0.0117294 0.821588 0)
(0.00443785 0.760164 0)
(-0.0212919 0.769023 0)
(-0.0320311 0.880851 0)
(-0.0102062 0.818363 0)
(0.0067442 0.717327 0)
(0.0186543 0.69936 0)
(0.0121051 0.750407 0)
(-0.00360692 0.815556 0)
(-0.0192268 0.826458 0)
(-0.0297037 0.850158 0)
(-0.0271737 0.899417 0)
(-0.0281459 0.943344 0)
(-0.0384138 0.974219 0)
(-0.0685493 0.956864 0)
(-0.107599 0.962515 0)
(-0.116593 0.97646 0)
(-0.103084 0.949168 0)
(-0.0739742 0.901937 0)
(-0.0458257 0.829937 0)
(-0.0314977 0.784204 0)
(-0.0457837 0.80366 0)
(-0.0662343 0.791309 0)
(-0.0741655 0.730308 0)
(-0.0705305 0.653999 0)
(-0.0571078 0.657554 0)
(-0.0432617 0.707325 0)
(-0.0361682 0.774167 0)
(-0.0335053 0.803289 0)
(-0.0207476 0.809579 0)
(-0.00892479 0.797032 0)
(-0.0172838 0.765762 0)
(-0.0436458 0.774221 0)
(-0.0476956 0.856873 0)
(-0.012797 0.778945 0)
(0.00545062 0.696355 0)
(0.0130712 0.684771 0)
(-0.00207905 0.747444 0)
(-0.0220438 0.816931 0)
(-0.0323502 0.825276 0)
(-0.036601 0.849029 0)
(-0.0354738 0.896549 0)
(-0.0374401 0.945984 0)
(-0.038567 0.98618 0)
(-0.069645 0.995022 0)
(-0.10294 0.978154 0)
(-0.100765 0.961899 0)
(-0.0836962 0.926018 0)
(-0.0625104 0.878515 0)
(-0.0443994 0.809937 0)
(-0.0428123 0.786302 0)
(-0.0543783 0.814146 0)
(-0.0634546 0.79237 0)
(-0.0645184 0.721897 0)
(-0.0636578 0.646044 0)
(-0.0627665 0.642202 0)
(-0.0595484 0.695445 0)
(-0.0569905 0.763879 0)
(-0.0507841 0.789978 0)
(-0.0392644 0.78727 0)
(-0.0314322 0.781787 0)
(-0.0455074 0.770892 0)
(-0.0650334 0.777819 0)
(-0.055051 0.822041 0)
(-0.0146488 0.742276 0)
(0.00320427 0.679318 0)
(0.00757552 0.676539 0)
(-0.0124344 0.750794 0)
(-0.0322812 0.808472 0)
(-0.0351 0.822435 0)
(-0.0406899 0.847694 0)
(-0.0429489 0.908247 0)
(-0.0393147 0.944231 0)
(-0.030523 0.996852 0)
(-0.0520136 1.02605 0)
(-0.0804858 0.987314 0)
(-0.0759035 0.936838 0)
(-0.061939 0.913007 0)
(-0.0526529 0.86163 0)
(-0.0481443 0.80064 0)
(-0.0534492 0.791131 0)
(-0.0562735 0.810833 0)
(-0.0545846 0.789628 0)
(-0.0584971 0.715928 0)
(-0.0658192 0.647593 0)
(-0.0754122 0.640081 0)
(-0.0814847 0.695185 0)
(-0.0767254 0.753883 0)
(-0.0647503 0.770463 0)
(-0.053184 0.770561 0)
(-0.0541359 0.772118 0)
(-0.0737164 0.778944 0)
(-0.0846443 0.768384 0)
(-0.0658928 0.781864 0)
(-0.0206775 0.706768 0)
(0.00464619 0.664752 0)
(0.00609097 0.673796 0)
(-0.0131061 0.758552 0)
(-0.0261618 0.799379 0)
(-0.0360155 0.81788 0)
(-0.0434093 0.853279 0)
(-0.0469113 0.911196 0)
(-0.0343159 0.93804 0)
(-0.0213584 0.995973 0)
(-0.0214881 1.05443 0)
(-0.0437794 0.992758 0)
(-0.0495819 0.923997 0)
(-0.0421052 0.903624 0)
(-0.0456135 0.859555 0)
(-0.0509903 0.801603 0)
(-0.0561044 0.788276 0)
(-0.0511172 0.80072 0)
(-0.0476761 0.788672 0)
(-0.0584872 0.724743 0)
(-0.0772418 0.659355 0)
(-0.0913677 0.645744 0)
(-0.091517 0.693734 0)
(-0.0837429 0.735676 0)
(-0.0728695 0.754931 0)
(-0.0692049 0.758646 0)
(-0.0797975 0.780455 0)
(-0.0996388 0.7832 0)
(-0.100882 0.760349 0)
(-0.0778122 0.745238 0)
(-0.0273616 0.663926 0)
(0.00472739 0.649947 0)
(0.00625463 0.672935 0)
(-0.00535275 0.759975 0)
(-0.012327 0.796982 0)
(-0.0313065 0.822209 0)
(-0.0407422 0.856694 0)
(-0.0400075 0.910735 0)
(-0.0276923 0.931954 0)
(-0.0186367 0.990347 0)
(0.000955482 1.05372 0)
(-0.00383142 1.00872 0)
(-0.0214383 0.91892 0)
(-0.0277313 0.902824 0)
(-0.0380639 0.863326 0)
(-0.0471478 0.804563 0)
(-0.0508728 0.785471 0)
(-0.0450987 0.791594 0)
(-0.0466672 0.792157 0)
(-0.0612743 0.745388 0)
(-0.0860588 0.673469 0)
(-0.0945622 0.652637 0)
(-0.0891537 0.684128 0)
(-0.0809624 0.724643 0)
(-0.0788149 0.746966 0)
(-0.0896075 0.7666 0)
(-0.107214 0.790061 0)
(-0.122505 0.790085 0)
(-0.115953 0.751185 0)
(-0.0907978 0.714658 0)
(-0.0288889 0.620659 0)
(0.0043864 0.638735 0)
(0.0071138 0.670595 0)
(0.004731 0.751458 0)
(0.00384265 0.795947 0)
(-0.0142373 0.827228 0)
(-0.0267752 0.858166 0)
(-0.0257042 0.904924 0)
(-0.018501 0.93441 0)
(-0.0105114 0.980876 0)
(0.0117755 1.03972 0)
(0.0224489 1.01386 0)
(0.00395632 0.935738 0)
(-0.0132847 0.906119 0)
(-0.032017 0.872472 0)
(-0.0435116 0.810844 0)
(-0.0461903 0.783592 0)
(-0.0450872 0.785824 0)
(-0.046464 0.8017 0)
(-0.0631849 0.767794 0)
(-0.0818401 0.687044 0)
(-0.0841426 0.653479 0)
(-0.076374 0.676536 0)
(-0.0744494 0.722806 0)
(-0.0874049 0.757391 0)
(-0.111705 0.784013 0)
(-0.134855 0.804702 0)
(-0.141609 0.790542 0)
(-0.125737 0.741573 0)
(-0.0947475 0.678689 0)
(-0.0297783 0.573255 0)
(0.00565526 0.62904 0)
(0.00785549 0.663081 0)
(0.0115443 0.73753 0)
(0.0219719 0.789049 0)
(0.0151688 0.832252 0)
(0.00159325 0.859462 0)
(-0.00237836 0.903414 0)
(-0.00317801 0.934333 0)
(0.00616987 0.977681 0)
(0.0210045 1.01955 0)
(0.0337737 1.01231 0)
(0.0199734 0.951814 0)
(-0.00499111 0.91769 0)
(-0.024496 0.888343 0)
(-0.0387229 0.813941 0)
(-0.0433706 0.783289 0)
(-0.0436588 0.782004 0)
(-0.0451606 0.806414 0)
(-0.0564625 0.783978 0)
(-0.0670578 0.694768 0)
(-0.0638504 0.650333 0)
(-0.0598364 0.670906 0)
(-0.0674697 0.727827 0)
(-0.0945379 0.774589 0)
(-0.131593 0.808919 0)
(-0.155048 0.813257 0)
(-0.150461 0.784954 0)
(-0.123658 0.722584 0)
(-0.0876234 0.64321 0)
(-0.025827 0.525342 0)
(0.00677172 0.622941 0)
(0.00275082 0.658674 0)
(0.00902766 0.714728 0)
(0.0366575 0.770602 0)
(0.0477921 0.829068 0)
(0.0429473 0.863487 0)
(0.0354116 0.905863 0)
(0.0288888 0.938316 0)
(0.03302 0.972164 0)
(0.0404702 1.01762 0)
(0.0427036 1.01179 0)
(0.0253375 0.982394 0)
(-0.00208457 0.931945 0)
(-0.0204197 0.905842 0)
(-0.0297211 0.823169 0)
(-0.0388163 0.784751 0)
(-0.0402792 0.782657 0)
(-0.0417169 0.808737 0)
(-0.0424009 0.792241 0)
(-0.0448653 0.693649 0)
(-0.0377389 0.642861 0)
(-0.037321 0.672065 0)
(-0.0565699 0.741765 0)
(-0.0953656 0.803601 0)
(-0.138816 0.82934 0)
(-0.154975 0.806954 0)
(-0.140376 0.755796 0)
(-0.109402 0.688866 0)
(-0.0759555 0.60031 0)
(-0.021376 0.476933 0)
(0.00313531 0.621509 0)
(-0.00974332 0.661972 0)
(-0.000687252 0.683977 0)
(0.0394696 0.733582 0)
(0.0685474 0.816018 0)
(0.0755533 0.858967 0)
(0.0742573 0.911486 0)
(0.0697516 0.943913 0)
(0.0641235 0.973676 0)
(0.065398 1.01272 0)
(0.0569196 1.02359 0)
(0.0292531 1.00502 0)
(0.00195771 0.955338 0)
(-0.0179727 0.915893 0)
(-0.0210743 0.828856 0)
(-0.0315335 0.789863 0)
(-0.0357957 0.786718 0)
(-0.0331811 0.798306 0)
(-0.0191874 0.788509 0)
(-0.0167338 0.689248 0)
(-0.0158007 0.640863 0)
(-0.0239801 0.678454 0)
(-0.0501612 0.766227 0)
(-0.0891117 0.8401 0)
(-0.127342 0.856382 0)
(-0.133543 0.797686 0)
(-0.117235 0.736469 0)
(-0.0887522 0.663725 0)
(-0.0600948 0.571575 0)
(-0.0191405 0.436764 0)
(-0.00973503 0.631864 0)
(-0.0218294 0.667239 0)
(-0.00799611 0.649449 0)
(0.0327737 0.68989 0)
(0.0689234 0.79197 0)
(0.0848048 0.848058 0)
(0.0961612 0.909104 0)
(0.101706 0.953059 0)
(0.0902822 0.981688 0)
(0.0851921 1.01967 0)
(0.0715232 1.0389 0)
(0.0430461 1.03065 0)
(0.0124916 0.979542 0)
(-0.00432476 0.922517 0)
(-0.0103586 0.835675 0)
(-0.0243237 0.796378 0)
(-0.0290653 0.789425 0)
(-0.0198971 0.78058 0)
(0.00454164 0.767579 0)
(0.00976703 0.691659 0)
(-0.00450163 0.644952 0)
(-0.02276 0.688432 0)
(-0.0499519 0.787414 0)
(-0.0786353 0.86202 0)
(-0.097634 0.852794 0)
(-0.101759 0.783248 0)
(-0.0883205 0.706781 0)
(-0.0680373 0.635143 0)
(-0.0469209 0.544748 0)
(-0.0151964 0.400704 0)
(-0.0146634 0.655128 0)
(-0.0236663 0.661252 0)
(-0.00787853 0.621063 0)
(0.0246611 0.650568 0)
(0.0565478 0.764017 0)
(0.0787355 0.827594 0)
(0.0960714 0.888544 0)
(0.110524 0.95188 0)
(0.111051 0.988034 0)
(0.0976172 1.02646 0)
(0.086508 1.06071 0)
(0.0627251 1.05749 0)
(0.0328864 1.00544 0)
(0.0182931 0.933421 0)
(0.00510706 0.84832 0)
(-0.0175728 0.807217 0)
(-0.022869 0.789852 0)
(-0.0105593 0.753756 0)
(0.01919 0.746714 0)
(0.0254632 0.698339 0)
(0.00511189 0.662445 0)
(-0.0229157 0.704086 0)
(-0.0478113 0.804133 0)
(-0.0656677 0.873863 0)
(-0.0719869 0.847804 0)
(-0.0752647 0.777836 0)
(-0.0644949 0.680914 0)
(-0.0515692 0.60774 0)
(-0.0338769 0.51419 0)
(-0.00895741 0.365352 0)
(-0.00940866 0.678255 0)
(-0.0149834 0.653353 0)
(-0.00395286 0.599122 0)
(0.0244039 0.617702 0)
(0.0558956 0.737985 0)
(0.0801226 0.811803 0)
(0.0908264 0.870496 0)
(0.109123 0.938078 0)
(0.114322 0.997326 0)
(0.104551 1.03476 0)
(0.09681 1.0677 0)
(0.0851106 1.08031 0)
(0.0589348 1.02329 0)
(0.0404448 0.949461 0)
(0.0280983 0.865855 0)
(-0.00407597 0.827846 0)
(-0.0168508 0.789153 0)
(-0.00583871 0.728671 0)
(0.020761 0.721628 0)
(0.0311887 0.701659 0)
(0.0140069 0.683425 0)
(-0.0179425 0.725498 0)
(-0.0423971 0.815764 0)
(-0.0511459 0.881202 0)
(-0.0528744 0.838106 0)
(-0.0552679 0.777562 0)
(-0.0482746 0.663743 0)
(-0.0403638 0.590737 0)
(-0.0227504 0.493555 0)
(-0.000612521 0.34442 0)
(-0.00110677 0.690884 0)
(-0.00278906 0.649032 0)
(0.00986431 0.5841 0)
(0.0331588 0.589016 0)
(0.0643305 0.705376 0)
(0.0892363 0.797722 0)
(0.0975695 0.857648 0)
(0.111395 0.920753 0)
(0.11506 1.00455 0)
(0.105574 1.04018 0)
(0.0996809 1.07058 0)
(0.0983753 1.09456 0)
(0.0838465 1.04793 0)
(0.0621331 0.961387 0)
(0.0501694 0.886535 0)
(0.0189821 0.855704 0)
(-0.00616321 0.796285 0)
(-0.00393586 0.704663 0)
(0.0168018 0.703193 0)
(0.0259388 0.693737 0)
(0.0159858 0.704205 0)
(-0.00937961 0.747511 0)
(-0.0311085 0.825752 0)
(-0.0350523 0.880759 0)
(-0.0405809 0.833835 0)
(-0.0426365 0.777421 0)
(-0.0382996 0.653211 0)
(-0.0324687 0.574956 0)
(-0.0155773 0.470889 0)
(0.00587734 0.335867 0)
(0.00475121 0.690556 0)
(0.0106316 0.640395 0)
(0.0240056 0.569307 0)
(0.0486962 0.560749 0)
(0.0821184 0.669429 0)
(0.109415 0.783084 0)
(0.116232 0.841547 0)
(0.121971 0.911498 0)
(0.116436 1.01052 0)
(0.101695 1.05275 0)
(0.0935827 1.07019 0)
(0.099533 1.09733 0)
(0.101362 1.06451 0)
(0.0837526 0.980838 0)
(0.0673123 0.903153 0)
(0.0403566 0.88639 0)
(0.00912328 0.811163 0)
(-0.00121305 0.691973 0)
(0.00857854 0.686029 0)
(0.014888 0.690785 0)
(0.00743154 0.71081 0)
(-0.00698565 0.765299 0)
(-0.0203497 0.832764 0)
(-0.0212665 0.886573 0)
(-0.0320605 0.837004 0)
(-0.0345152 0.775243 0)
(-0.0336553 0.64818 0)
(-0.0271308 0.558915 0)
(-0.0100142 0.453972 0)
(0.00753583 0.33293 0)
(0.00616643 0.684444 0)
(0.0137356 0.631157 0)
(0.0265263 0.552178 0)
(0.0585418 0.53103 0)
(0.0983451 0.634037 0)
(0.130249 0.769257 0)
(0.133017 0.836051 0)
(0.128519 0.910585 0)
(0.115367 1.02571 0)
(0.0958172 1.06484 0)
(0.0846032 1.07379 0)
(0.0908984 1.08714 0)
(0.105437 1.06953 0)
(0.103955 0.999751 0)
(0.0813403 0.924602 0)
(0.0547736 0.911917 0)
(0.0236568 0.834579 0)
(0.00327852 0.692415 0)
(0.00331869 0.676863 0)
(0.00925923 0.687384 0)
(0.00169835 0.718573 0)
(-0.010654 0.772471 0)
(-0.019942 0.837826 0)
(-0.0183859 0.885181 0)
(-0.0265239 0.847102 0)
(-0.0255886 0.770844 0)
(-0.028374 0.646219 0)
(-0.0225952 0.543108 0)
(-0.00588679 0.437941 0)
(0.00950164 0.334608 0)
(0.00552967 0.674785 0)
(0.0131492 0.623698 0)
(0.0222791 0.533501 0)
(0.0584061 0.491846 0)
(0.106011 0.593505 0)
(0.142062 0.757767 0)
(0.13956 0.8378 0)
(0.121355 0.923025 0)
(0.105965 1.04 0)
(0.0888442 1.07879 0)
(0.0759702 1.08068 0)
(0.0820703 1.07492 0)
(0.0996865 1.06229 0)
(0.11031 1.00922 0)
(0.0945161 0.951883 0)
(0.06458 0.939342 0)
(0.0367366 0.857877 0)
(0.0127768 0.703061 0)
(0.00784035 0.672123 0)
(0.00950037 0.688958 0)
(-0.000574298 0.72393 0)
(-0.0133327 0.786127 0)
(-0.0260745 0.844798 0)
(-0.0260912 0.886154 0)
(-0.0297227 0.849311 0)
(-0.0226622 0.767501 0)
(-0.0205536 0.649704 0)
(-0.0123908 0.535312 0)
(0.00024052 0.428882 0)
(0.00958308 0.342614 0)
(0.00477224 0.666093 0)
(0.0141941 0.620686 0)
(0.0242802 0.5172 0)
(0.0553313 0.453256 0)
(0.0996697 0.548952 0)
(0.13724 0.747115 0)
(0.132528 0.852119 0)
(0.106383 0.940253 0)
(0.0899512 1.04998 0)
(0.0781846 1.08781 0)
(0.0681929 1.08807 0)
(0.0704653 1.0666 0)
(0.086303 1.04877 0)
(0.103551 1.00879 0)
(0.0943595 0.973504 0)
(0.0734957 0.967024 0)
(0.0523304 0.877099 0)
(0.0325875 0.719437 0)
(0.0213667 0.675729 0)
(0.0128883 0.691312 0)
(-0.000875484 0.734462 0)
(-0.0148925 0.796475 0)
(-0.031803 0.858099 0)
(-0.0360325 0.883967 0)
(-0.0406649 0.849441 0)
(-0.0264295 0.756694 0)
(-0.0113768 0.647516 0)
(0.00373341 0.529007 0)
(0.00853178 0.427142 0)
(0.0116047 0.35119 0)
(0.00409182 0.656458 0)
(0.0212816 0.612015 0)
(0.0361158 0.501217 0)
(0.0562858 0.429062 0)
(0.0876644 0.511457 0)
(0.118457 0.7357 0)
(0.116316 0.868403 0)
(0.0886983 0.963813 0)
(0.0705735 1.05459 0)
(0.0627099 1.09762 0)
(0.0577329 1.09149 0)
(0.0599839 1.06596 0)
(0.0719046 1.03459 0)
(0.0874526 1.00439 0)
(0.0848167 0.990242 0)
(0.0818017 0.982075 0)
(0.0701 0.891635 0)
(0.0554828 0.737365 0)
(0.037677 0.686972 0)
(0.0165885 0.702426 0)
(-0.00163812 0.741881 0)
(-0.016721 0.810511 0)
(-0.0328975 0.864536 0)
(-0.0372717 0.883752 0)
(-0.0404874 0.841902 0)
(-0.0208068 0.732611 0)
(0.00337083 0.631046 0)
(0.0225971 0.520942 0)
(0.0179421 0.435534 0)
(0.0127572 0.364332 0)
(0.00625506 0.6471 0)
(0.0328266 0.595255 0)
(0.0525808 0.487997 0)
(0.0607868 0.417755 0)
(0.0749075 0.487487 0)
(0.0947779 0.722496 0)
(0.0922026 0.884445 0)
(0.0683478 0.98308 0)
(0.0495777 1.06348 0)
(0.0456642 1.10115 0)
(0.0449234 1.09275 0)
(0.049837 1.06346 0)
(0.0565478 1.03027 0)
(0.0671713 0.999612 0)
(0.0711449 0.996013 0)
(0.0825333 0.979476 0)
(0.0778522 0.904293 0)
(0.0677696 0.750181 0)
(0.0556393 0.706805 0)
(0.0288132 0.720052 0)
(0.00495017 0.760836 0)
(-0.0136839 0.823075 0)
(-0.0230729 0.87577 0)
(-0.0165109 0.879423 0)
(-0.0132496 0.833112 0)
(0.00249342 0.702271 0)
(0.0262895 0.603488 0)
(0.0438794 0.508228 0)
(0.0336198 0.436948 0)
(0.0150824 0.373513 0)
(0.0123693 0.630003 0)
(0.0472345 0.57106 0)
(0.0634872 0.48162 0)
(0.0623038 0.420365 0)
(0.0608447 0.477055 0)
(0.0698653 0.713645 0)
(0.0650514 0.897179 0)
(0.0476415 0.99916 0)
(0.0307991 1.06995 0)
(0.0273605 1.10363 0)
(0.0291808 1.09068 0)
(0.0369288 1.06153 0)
(0.0421659 1.03027 0)
(0.044772 0.999473 0)
(0.0518248 0.989127 0)
(0.06861 0.97163 0)
(0.0712419 0.908388 0)
(0.068139 0.760402 0)
(0.0588988 0.721266 0)
(0.0335077 0.738791 0)
(0.00987136 0.775237 0)
(-0.00552848 0.831775 0)
(-0.00305086 0.864598 0)
(0.0153115 0.859708 0)
(0.0267475 0.823649 0)
(0.0388088 0.683297 0)
(0.0530375 0.586303 0)
(0.0604349 0.506849 0)
(0.0492428 0.457822 0)
(0.0237966 0.401473 0)
(0.0209172 0.599562 0)
(0.0583932 0.550595 0)
(0.0650522 0.481151 0)
(0.0591704 0.4319 0)
(0.0472346 0.479587 0)
(0.046616 0.710842 0)
(0.0419571 0.908633 0)
(0.0279552 1.01189 0)
(0.0124002 1.07924 0)
(0.00590035 1.1016 0)
(0.00972076 1.08697 0)
(0.0197117 1.05872 0)
(0.0249132 1.03324 0)
(0.0246896 1.00481 0)
(0.0281099 0.977625 0)
(0.0451848 0.959357 0)
(0.0546271 0.906168 0)
(0.0576634 0.765031 0)
(0.0527831 0.730978 0)
(0.0345661 0.754969 0)
(0.0159736 0.793205 0)
(0.00895684 0.830699 0)
(0.0229662 0.847935 0)
(0.0393053 0.83701 0)
(0.0559868 0.805419 0)
(0.0706466 0.66064 0)
(0.0768919 0.575445 0)
(0.0724105 0.505243 0)
(0.0557088 0.466314 0)
(0.027645 0.437996 0)
(0.0259217 0.556779 0)
(0.0633902 0.541576 0)
(0.0621025 0.485198 0)
(0.053741 0.446998 0)
(0.0343468 0.491469 0)
(0.0277161 0.709009 0)
(0.0260303 0.916219 0)
(0.0127129 1.02742 0)
(-0.00558037 1.08672 0)
(-0.0132145 1.10112 0)
(-0.010188 1.0791 0)
(-0.00153397 1.05275 0)
(0.00375836 1.03599 0)
(0.00534328 1.01094 0)
(0.00665881 0.968495 0)
(0.0177695 0.942214 0)
(0.0334026 0.898276 0)
(0.045177 0.762867 0)
(0.0485379 0.736836 0)
(0.0368338 0.771322 0)
(0.0258259 0.801941 0)
(0.0286227 0.825043 0)
(0.0435827 0.828203 0)
(0.0558494 0.826166 0)
(0.0691618 0.78401 0)
(0.0872081 0.640603 0)
(0.0892385 0.5716 0)
(0.0794228 0.508744 0)
(0.0568614 0.479147 0)
(0.0258921 0.470191 0)
(0.0210725 0.513186 0)
(0.060003 0.537128 0)
(0.0573609 0.487972 0)
(0.046906 0.465041 0)
(0.0218335 0.511649 0)
(0.0118889 0.700787 0)
(0.0155227 0.923439 0)
(0.000725344 1.04254 0)
(-0.0208036 1.0988 0)
(-0.0272896 1.09958 0)
(-0.0262836 1.0775 0)
(-0.0239245 1.0483 0)
(-0.0201753 1.03514 0)
(-0.0189682 1.00966 0)
(-0.0146927 0.961958 0)
(-0.00792511 0.928766 0)
(0.011817 0.884608 0)
(0.0320064 0.752987 0)
(0.0424755 0.741804 0)
(0.0408871 0.78258 0)
(0.0367814 0.80656 0)
(0.0441629 0.812714 0)
(0.0540698 0.81543 0)
(0.0624647 0.817529 0)
(0.0755844 0.761727 0)
(0.093448 0.626503 0)
(0.0931501 0.576232 0)
(0.081464 0.521162 0)
(0.0551615 0.501863 0)
(0.0229332 0.504603 0)
(0.0141388 0.477534 0)
(0.0489045 0.529892 0)
(0.0473146 0.48637 0)
(0.0369618 0.485216 0)
(0.00715614 0.533578 0)
(-0.00333489 0.693571 0)
(0.00185661 0.928691 0)
(-0.0125017 1.05996 0)
(-0.031715 1.1049 0)
(-0.0369213 1.10088 0)
(-0.035979 1.07695 0)
(-0.0364212 1.05037 0)
(-0.0378509 1.0344 0)
(-0.0317193 1.00744 0)
(-0.0289577 0.957874 0)
(-0.0238562 0.915572 0)
(-0.00150798 0.868122 0)
(0.0227229 0.743616 0)
(0.0350874 0.740856 0)
(0.0405481 0.788799 0)
(0.0421863 0.804051 0)
(0.0508051 0.803123 0)
(0.0563825 0.803441 0)
(0.0616686 0.811179 0)
(0.0769161 0.736645 0)
(0.0926917 0.616983 0)
(0.0924334 0.582153 0)
(0.0806726 0.536931 0)
(0.0517621 0.530863 0)
(0.0201276 0.537879 0)
(0.00822321 0.449417 0)
(0.0323584 0.521675 0)
(0.0316527 0.484303 0)
(0.0206826 0.506779 0)
(-0.00952958 0.555165 0)
(-0.0218809 0.683451 0)
(-0.019483 0.931352 0)
(-0.0294223 1.06965 0)
(-0.041647 1.10779 0)
(-0.0438279 1.1006 0)
(-0.0441217 1.07945 0)
(-0.0416044 1.05397 0)
(-0.0430536 1.0325 0)
(-0.0349958 1.00143 0)
(-0.0338248 0.953553 0)
(-0.0305144 0.906725 0)
(-0.00832033 0.847935 0)
(0.0145409 0.730281 0)
(0.0241853 0.738178 0)
(0.0334233 0.786011 0)
(0.0374691 0.798084 0)
(0.048001 0.791563 0)
(0.0533338 0.796289 0)
(0.0569247 0.80283 0)
(0.0736435 0.709847 0)
(0.0882722 0.608366 0)
(0.0899908 0.585486 0)
(0.0780924 0.553086 0)
(0.0468791 0.560675 0)
(0.017465 0.565546 0)
(0.000909838 0.433494 0)
(0.0139932 0.513609 0)
(0.010298 0.482806 0)
(-0.00320018 0.524247 0)
(-0.0285445 0.572058 0)
(-0.0435223 0.678236 0)
(-0.0425904 0.925848 0)
(-0.0448814 1.07386 0)
(-0.0494547 1.10198 0)
(-0.0493343 1.09979 0)
(-0.0502856 1.08273 0)
(-0.0485285 1.05688 0)
(-0.045756 1.03239 0)
(-0.0355721 0.996292 0)
(-0.0333132 0.952251 0)
(-0.0294959 0.896988 0)
(-0.010166 0.829471 0)
(0.00741945 0.722278 0)
(0.0142495 0.733189 0)
(0.0224184 0.784535 0)
(0.0267247 0.788571 0)
(0.038491 0.781457 0)
(0.0449419 0.788012 0)
(0.0477072 0.794156 0)
(0.065018 0.682819 0)
(0.0825734 0.599535 0)
(0.0876126 0.588075 0)
(0.0738779 0.570064 0)
(0.0409527 0.593619 0)
(0.0150922 0.589835 0)
(-0.00611731 0.428334 0)
(-0.000682896 0.5101 0)
(-0.0128855 0.48909 0)
(-0.0296509 0.537237 0)
(-0.049792 0.589606 0)
(-0.0650939 0.675848 0)
(-0.0638419 0.914759 0)
(-0.0527844 1.06689 0)
(-0.0508603 1.0928 0)
(-0.050156 1.0951 0)
(-0.0538063 1.08575 0)
(-0.0531811 1.06085 0)
(-0.0484091 1.02653 0)
(-0.0360841 0.991842 0)
(-0.0299089 0.948909 0)
(-0.0245214 0.889665 0)
(-0.0104336 0.81387 0)
(0.000558154 0.716399 0)
(0.00246971 0.72896 0)
(0.00698713 0.781314 0)
(0.0115218 0.778033 0)
(0.0223819 0.768407 0)
(0.0298741 0.780351 0)
(0.0340541 0.783191 0)
(0.0568077 0.654294 0)
(0.0816697 0.585644 0)
(0.0861515 0.59456 0)
(0.0694488 0.592435 0)
(0.0355749 0.624659 0)
(0.0133756 0.608996 0)
(-0.0135603 0.430853 0)
(-0.0132926 0.513009 0)
(-0.0323283 0.503318 0)
(-0.0510677 0.550431 0)
(-0.0697768 0.603454 0)
(-0.082752 0.6762 0)
(-0.076393 0.891688 0)
(-0.0536011 1.05315 0)
(-0.0452077 1.08297 0)
(-0.0463159 1.09056 0)
(-0.051002 1.09221 0)
(-0.0526674 1.06064 0)
(-0.0465974 1.02239 0)
(-0.0364727 0.983718 0)
(-0.0278771 0.943785 0)
(-0.018968 0.879811 0)
(-0.0102392 0.805528 0)
(-0.00548696 0.714423 0)
(-0.00854558 0.726524 0)
(-0.00680193 0.779548 0)
(-0.00349687 0.765256 0)
(0.00420667 0.75731 0)
(0.00799504 0.77212 0)
(0.0197645 0.764531 0)
(0.0532621 0.621459 0)
(0.0759361 0.574243 0)
(0.0791516 0.602299 0)
(0.0637409 0.61382 0)
(0.0317906 0.655243 0)
(0.01266 0.626436 0)
(-0.0190242 0.441608 0)
(-0.0217849 0.515578 0)
(-0.0383541 0.519037 0)
(-0.0617172 0.564734 0)
(-0.0804071 0.619019 0)
(-0.0894035 0.673051 0)
(-0.0798363 0.867525 0)
(-0.0498568 1.02706 0)
(-0.0359643 1.0744 0)
(-0.0374264 1.08648 0)
(-0.0428931 1.09529 0)
(-0.0427668 1.0583 0)
(-0.037288 1.01604 0)
(-0.0338433 0.980597 0)
(-0.0262597 0.932726 0)
(-0.0156732 0.87105 0)
(-0.00886987 0.802369 0)
(-0.0102464 0.717584 0)
(-0.017242 0.726277 0)
(-0.0164752 0.780339 0)
(-0.0167156 0.757395 0)
(-0.0156487 0.750023 0)
(-0.0123547 0.762747 0)
(0.013098 0.735319 0)
(0.0514674 0.589583 0)
(0.0709703 0.567984 0)
(0.0709646 0.61003 0)
(0.0561668 0.63326 0)
(0.0279705 0.678268 0)
(0.0150657 0.643253 0)
(-0.0234491 0.45982 0)
(-0.0275502 0.516779 0)
(-0.039347 0.537594 0)
(-0.063534 0.584365 0)
(-0.086111 0.632354 0)
(-0.0909366 0.671617 0)
(-0.0765472 0.8419 0)
(-0.0450229 1.00068 0)
(-0.0264553 1.06503 0)
(-0.0279971 1.08472 0)
(-0.0320076 1.09617 0)
(-0.0298816 1.0485 0)
(-0.0256532 1.01222 0)
(-0.027255 0.976087 0)
(-0.0227661 0.923669 0)
(-0.014177 0.858643 0)
(-0.00942105 0.805024 0)
(-0.0136321 0.726168 0)
(-0.0244706 0.727649 0)
(-0.0254082 0.781415 0)
(-0.0305957 0.756248 0)
(-0.0361032 0.746246 0)
(-0.0269514 0.744905 0)
(0.0132353 0.696829 0)
(0.0507835 0.563516 0)
(0.0642447 0.565851 0)
(0.0596866 0.616754 0)
(0.0472821 0.647373 0)
(0.0223457 0.695609 0)
(0.0162461 0.658428 0)
(-0.024539 0.4845 0)
(-0.0285366 0.513435 0)
(-0.0325635 0.552651 0)
(-0.0575507 0.610186 0)
(-0.0865422 0.648422 0)
(-0.0927648 0.668713 0)
(-0.0790203 0.815173 0)
(-0.0438036 0.971867 0)
(-0.0218926 1.05386 0)
(-0.0227406 1.08368 0)
(-0.0243052 1.09226 0)
(-0.0202048 1.04271 0)
(-0.0185562 1.00826 0)
(-0.0210002 0.975929 0)
(-0.018771 0.915081 0)
(-0.0139169 0.85115 0)
(-0.0119444 0.805439 0)
(-0.0185155 0.740206 0)
(-0.031328 0.732292 0)
(-0.0373578 0.783014 0)
(-0.0459162 0.762891 0)
(-0.0540157 0.740883 0)
(-0.0322834 0.715425 0)
(0.01616 0.653413 0)
(0.0480201 0.544298 0)
(0.0523601 0.5667 0)
(0.0461553 0.62061 0)
(0.0360029 0.659132 0)
(0.0150003 0.704269 0)
(0.0168857 0.670698 0)
(-0.0192539 0.5104 0)
(-0.021729 0.508421 0)
(-0.0265036 0.565286 0)
(-0.0524352 0.640692 0)
(-0.0825166 0.665048 0)
(-0.0937239 0.672069 0)
(-0.0847176 0.786348 0)
(-0.0485306 0.944258 0)
(-0.0231185 1.04211 0)
(-0.0238632 1.08093 0)
(-0.0234445 1.08689 0)
(-0.0208805 1.0341 0)
(-0.0184717 1.00782 0)
(-0.0196023 0.969868 0)
(-0.0191723 0.913174 0)
(-0.0144122 0.845742 0)
(-0.0178056 0.808832 0)
(-0.0256593 0.756929 0)
(-0.0401023 0.741193 0)
(-0.0511558 0.786027 0)
(-0.0602164 0.773204 0)
(-0.0631245 0.728361 0)
(-0.0307955 0.674599 0)
(0.0143866 0.615552 0)
(0.0378127 0.534593 0)
(0.0360478 0.568646 0)
(0.0299898 0.623311 0)
(0.0239073 0.66477 0)
(0.00876425 0.709266 0)
(0.0143872 0.678351 0)
(-0.00725057 0.526546 0)
(-0.00604078 0.511204 0)
(-0.021178 0.581615 0)
(-0.0467674 0.667684 0)
(-0.0746755 0.685062 0)
(-0.0902307 0.679563 0)
(-0.0881886 0.762125 0)
(-0.056209 0.912325 0)
(-0.0273495 1.02754 0)
(-0.0257363 1.07964 0)
(-0.0271438 1.07785 0)
(-0.0273648 1.02784 0)
(-0.0231267 1.00349 0)
(-0.0209689 0.965861 0)
(-0.0209443 0.906519 0)
(-0.0198973 0.847607 0)
(-0.0223573 0.811012 0)
(-0.0358795 0.776849 0)
(-0.0516021 0.75288 0)
(-0.0649287 0.79024 0)
(-0.0691371 0.77823 0)
(-0.0632708 0.707228 0)
(-0.0323534 0.638204 0)
(0.00377738 0.584855 0)
(0.0208485 0.529799 0)
(0.0178542 0.570844 0)
(0.0129586 0.622681 0)
(0.012266 0.664993 0)
(0.00214026 0.710321 0)
(0.0124909 0.681072 0)
(0.00523322 0.526798 0)
(0.00905447 0.520789 0)
(-0.0134855 0.602966 0)
(-0.0405271 0.690531 0)
(-0.0627912 0.702829 0)
(-0.0812004 0.691193 0)
(-0.0838427 0.743686 0)
(-0.0616104 0.880895 0)
(-0.0322514 1.00894 0)
(-0.0278043 1.07815 0)
(-0.0305349 1.07525 0)
(-0.0318727 1.01989 0)
(-0.0270173 0.999767 0)
(-0.0213795 0.957135 0)
(-0.0221186 0.907066 0)
(-0.0259846 0.848721 0)
(-0.0283807 0.81796 0)
(-0.0445455 0.796573 0)
(-0.0656298 0.767853 0)
(-0.0777009 0.787802 0)