/*--------------------------------*- C++ -*----------------------------------*\
| =========                 |                                                 |
| \\      /  F ield         | OpenFOAM: The Open Source CFD Toolbox           |
|  \\    /   O peration     | Version:  2.3.0                                 |
|   \\  /    A nd           | Web:      www.OpenFOAM.org                      |
|    \\/     M anipulation  |                                                 |
\*---------------------------------------------------------------------------*/
FoamFile
{
    version     2.0;
    format      ascii;
    class       volVectorField;
    location    "1.74";
    object      U.particlesMean;
}
// * * * * * * * * * * * * * * * * * * * * * * * * * * * * * * * * * * * * * //

dimensions      [0 1 -1 0 0 0 0];

internalField   nonuniform List<vector> 
6000
(
(-0.00471032 -0.319711 0)
(0.00228671 -0.344969 0)
(0.0218902 -0.341805 0)
(0.033252 -0.35383 0)
(0.0353772 -0.371106 0)
(0.0329837 -0.403562 0)
(0.0226584 -0.41844 0)
(0.00542122 -0.424442 0)
(-0.00272291 -0.42108 0)
(-0.00923251 -0.42206 0)
(-0.0166167 -0.426334 0)
(-0.015548 -0.427696 0)
(-0.0344436 -0.416942 0)
(-0.0634419 -0.394605 0)
(-0.0750956 -0.37567 0)
(-0.069227 -0.371449 0)
(-0.0601776 -0.368927 0)
(-0.0459711 -0.373789 0)
(-0.0422046 -0.379213 0)
(-0.0371187 -0.373695 0)
(-0.0275848 -0.366024 0)
(-0.0212183 -0.361381 0)
(-0.0167475 -0.363696 0)
(-0.0105212 -0.357011 0)
(-0.00624185 -0.350038 0)
(-0.00962081 -0.345727 0)
(-0.00836074 -0.352234 0)
(-0.0030446 -0.366067 0)
(-0.00670868 -0.370868 0)
(0.000506067 -0.313115 0)
(0.0104337 0.00498955 0)
(0.0189689 0.0212568 0)
(0.0364336 0.0171029 0)
(0.0459497 0.0147231 0)
(0.0465382 0.0162041 0)
(0.0452616 0.0172404 0)
(0.0374309 0.0114718 0)
(0.0184023 0.00791988 0)
(0.00901837 0.0161514 0)
(-0.00667357 0.0165544 0)
(-0.026813 0.0175961 0)
(-0.0427382 0.0182876 0)
(-0.0650429 0.00270914 0)
(-0.0798989 0.00163111 0)
(-0.0813496 0.00257963 0)
(-0.0789227 -0.000229406 0)
(-0.074954 0.00548949 0)
(-0.0672575 0.0168107 0)
(-0.0576521 0.00534143 0)
(-0.0492156 0.0152637 0)
(-0.034399 0.0220184 0)
(-0.0228095 0.0205271 0)
(-0.00852657 0.0258364 0)
(0.00115758 0.026071 0)
(-0.00290221 0.0302004 0)
(-0.0129778 0.0209402 0)
(-0.0172369 0.00818542 0)
(-0.0170182 0.00877606 0)
(-0.0126534 0.0269292 0)
(-0.0154801 -0.00433161 0)
(-0.00625657 -0.0456719 0)
(0.017229 -0.0813136 0)
(0.0297351 -0.0878308 0)
(0.0372723 -0.0725852 0)
(0.0392691 -0.0586184 0)
(0.0352916 -0.0496247 0)
(0.0327695 -0.0482342 0)
(0.0233243 -0.0407131 0)
(0.0152392 -0.0353637 0)
(-0.00170978 -0.0321023 0)
(-0.0255014 -0.0253763 0)
(-0.0449556 -0.0246874 0)
(-0.0618216 -0.0326998 0)
(-0.0696819 -0.0390109 0)
(-0.0670347 -0.0595744 0)
(-0.0690867 -0.0674809 0)
(-0.0718381 -0.0690131 0)
(-0.0708812 -0.0695716 0)
(-0.0597756 -0.0805905 0)
(-0.0461674 -0.0880875 0)
(-0.0294206 -0.0932727 0)
(-0.0145247 -0.0847411 0)
(-0.00172082 -0.0821192 0)
(0.00832769 -0.0810297 0)
(0.00529464 -0.0635264 0)
(0.00181704 -0.0628362 0)
(-0.00323448 -0.0723839 0)
(-0.00394202 -0.0701624 0)
(-0.00111991 -0.0532144 0)
(0.00759572 -0.0619533 0)
(-0.000568352 -0.0576766 0)
(0.0182076 -0.0907043 0)
(0.0173552 -0.0904362 0)
(0.0286162 -0.0751654 0)
(0.0327138 -0.0576555 0)
(0.0333915 -0.0487592 0)
(0.0320654 -0.0397005 0)
(0.0276332 -0.0285012 0)
(0.0216369 -0.0191709 0)
(0.00131696 -0.0158514 0)
(-0.0220964 -0.0120524 0)
(-0.0418136 -0.0141407 0)
(-0.0573225 -0.0287616 0)
(-0.0589456 -0.0433167 0)
(-0.0574778 -0.064041 0)
(-0.0613428 -0.0701259 0)
(-0.0657835 -0.0729137 0)
(-0.0670208 -0.0748571 0)
(-0.0577562 -0.0861004 0)
(-0.0402566 -0.0960759 0)
(-0.0255639 -0.100978 0)
(-0.0170495 -0.0959136 0)
(-0.010448 -0.0966356 0)
(0.000700761 -0.0923497 0)
(0.0066015 -0.0757589 0)
(0.0150437 -0.0726054 0)
(0.011991 -0.0761243 0)
(0.00169136 -0.0728529 0)
(0.00457265 -0.0534084 0)
(0.0124712 -0.0571113 0)
(0.00745595 -0.0869208 0)
(0.0156433 -0.116476 0)
(0.0148741 -0.116693 0)
(0.0197517 -0.0915799 0)
(0.020337 -0.0686292 0)
(0.0197102 -0.0576548 0)
(0.0209872 -0.0472232 0)
(0.0192708 -0.0314099 0)
(0.0144686 -0.0190801 0)
(-0.00469097 -0.0137556 0)
(-0.0246636 -0.0109298 0)
(-0.0422733 -0.0197752 0)
(-0.0565941 -0.0397588 0)
(-0.0519089 -0.0618344 0)
(-0.0507834 -0.0793061 0)
(-0.0559653 -0.0821493 0)
(-0.0584878 -0.0877885 0)
(-0.059451 -0.0906262 0)
(-0.0507727 -0.11076 0)
(-0.0325221 -0.130229 0)
(-0.0203481 -0.133156 0)
(-0.0146076 -0.122881 0)
(-0.0113644 -0.118376 0)
(-0.00419063 -0.106151 0)
(0.00916686 -0.0913226 0)
(0.019343 -0.0916317 0)
(0.0159642 -0.0940918 0)
(0.00186541 -0.0927566 0)
(0.00712441 -0.0671625 0)
(0.011688 -0.0635271 0)
(0.00778803 -0.105969 0)
(0.0206093 -0.125982 0)
(0.0118819 -0.121325 0)
(0.0165758 -0.098304 0)
(0.0122993 -0.0736179 0)
(0.00741822 -0.0609661 0)
(0.00720967 -0.0497646 0)
(0.00522591 -0.0361769 0)
(-0.00129173 -0.017807 0)
(-0.017593 -0.0125508 0)
(-0.0332033 -0.0113627 0)
(-0.0470478 -0.0176377 0)
(-0.0567593 -0.0398997 0)
(-0.0436618 -0.0651137 0)
(-0.0386446 -0.0816409 0)
(-0.0394644 -0.08854 0)
(-0.0434274 -0.0906606 0)
(-0.0445567 -0.0972629 0)
(-0.0351206 -0.125432 0)
(-0.0208365 -0.145429 0)
(-0.0125583 -0.147744 0)
(-0.00832108 -0.133774 0)
(-0.00674926 -0.120153 0)
(-0.00254963 -0.104309 0)
(0.012409 -0.0948932 0)
(0.0218715 -0.0951288 0)
(0.0133005 -0.0968178 0)
(-0.000949317 -0.0975062 0)
(0.00675392 -0.0693557 0)
(0.00998612 -0.0605827 0)
(0.005941 -0.118761 0)
(0.020675 -0.133086 0)
(0.0195675 -0.125593 0)
(0.0188111 -0.102437 0)
(0.0215183 -0.0766009 0)
(0.00903939 -0.0600237 0)
(-4.20125e-05 -0.0463652 0)
(-0.00691767 -0.0319024 0)
(-0.0170896 -0.0154349 0)
(-0.0296918 -0.0117145 0)
(-0.0448357 -0.0121169 0)
(-0.0527496 -0.0148311 0)
(-0.0547011 -0.0368952 0)
(-0.0368818 -0.0627189 0)
(-0.0323067 -0.0775231 0)
(-0.0311457 -0.0941266 0)
(-0.0288957 -0.103494 0)
(-0.0263725 -0.113462 0)
(-0.0198807 -0.136573 0)
(-0.00960824 -0.152399 0)
(-0.00375311 -0.151909 0)
(-0.00181185 -0.135341 0)
(-0.00196352 -0.121432 0)
(0.00186448 -0.106926 0)
(0.0112822 -0.0963877 0)
(0.0170071 -0.0936441 0)
(0.00755879 -0.0932007 0)
(-0.00670405 -0.0937666 0)
(-0.00255667 -0.0669058 0)
(0.00536823 -0.0569033 0)
(0.00705645 -0.124629 0)
(0.0180373 -0.133794 0)
(0.0157891 -0.123247 0)
(0.0223141 -0.104358 0)
(0.021635 -0.074874 0)
(0.0125078 -0.0514325 0)
(-0.00545638 -0.0331006 0)
(-0.0182483 -0.0212751 0)
(-0.0310359 -0.00851437 0)
(-0.0411482 -0.00598826 0)
(-0.0542107 -0.0109283 0)
(-0.0564237 -0.017252 0)
(-0.0520015 -0.0341416 0)
(-0.0349175 -0.0602758 0)
(-0.0262736 -0.075824 0)
(-0.0228507 -0.092279 0)
(-0.0185694 -0.111503 0)
(-0.0104768 -0.126913 0)
(-0.00140597 -0.141314 0)
(0.000171944 -0.151485 0)
(0.00307919 -0.149138 0)
(0.0051569 -0.133364 0)
(0.0047906 -0.118585 0)
(0.00205309 -0.102708 0)
(0.00284146 -0.0901479 0)
(0.0050419 -0.0877443 0)
(-0.00275415 -0.0858222 0)
(-0.0145848 -0.0843027 0)
(-0.012311 -0.0633429 0)
(0.000999609 -0.0588946 0)
(0.00576108 -0.122363 0)
(0.0138975 -0.130354 0)
(0.00994553 -0.113637 0)
(0.017661 -0.093535 0)
(0.0201471 -0.0633163 0)
(0.00368622 -0.0344151 0)
(-0.0109956 -0.0153639 0)
(-0.0310024 -0.00861204 0)
(-0.043493 -0.00329336 0)
(-0.0513988 -0.00450197 0)
(-0.0605517 -0.011854 0)
(-0.0565113 -0.0192549 0)
(-0.0500772 -0.0375663 0)
(-0.0306672 -0.0629318 0)
(-0.0220365 -0.0791645 0)
(-0.0164983 -0.0954524 0)
(-0.0121485 -0.112162 0)
(-0.00426539 -0.127782 0)
(0.00714078 -0.142314 0)
(0.00703174 -0.15309 0)
(0.00675681 -0.147851 0)
(0.00725956 -0.127805 0)
(0.00312094 -0.110463 0)
(-0.00646862 -0.0954942 0)
(-0.0088157 -0.0838624 0)
(-0.0114425 -0.0821526 0)
(-0.0172322 -0.0788109 0)
(-0.0249856 -0.0755302 0)
(-0.0189269 -0.0612058 0)
(-0.000820654 -0.0651478 0)
(0.00349082 -0.11695 0)
(0.011014 -0.122605 0)
(0.00590593 -0.102812 0)
(0.0105353 -0.076598 0)
(0.0141559 -0.0490314 0)
(0.00138803 -0.0228839 0)
(-0.0144984 -0.00708065 0)
(-0.039048 -0.00214033 0)
(-0.0495288 -0.000399378 0)
(-0.0567214 -0.00220434 0)
(-0.0615187 -0.0134533 0)
(-0.0563291 -0.0232142 0)
(-0.0449037 -0.0431468 0)
(-0.0250049 -0.0657801 0)
(-0.0159994 -0.0792985 0)
(-0.0129172 -0.0952408 0)
(-0.00801235 -0.110495 0)
(0.00104447 -0.127844 0)
(0.00971564 -0.143851 0)
(0.00691411 -0.154805 0)
(0.00252121 -0.146201 0)
(-0.00428568 -0.120745 0)
(-0.0102907 -0.10193 0)
(-0.0183873 -0.0824324 0)
(-0.0245844 -0.0724313 0)
(-0.0274613 -0.0734574 0)
(-0.0323624 -0.0716475 0)
(-0.0319942 -0.0667721 0)
(-0.0217827 -0.0598328 0)
(-0.00478599 -0.0677207 0)
(0.00214385 -0.110134 0)
(0.00898183 -0.117546 0)
(0.00259414 -0.0980052 0)
(0.00688709 -0.0720864 0)
(0.0150519 -0.0436831 0)
(0.000909876 -0.0160199 0)
(-0.0151678 0.00204557 0)
(-0.0345519 0.00338898 0)
(-0.0463118 0.00224517 0)
(-0.0525502 -0.00308816 0)
(-0.057016 -0.0148221 0)
(-0.0513626 -0.0276279 0)
(-0.0376045 -0.0479706 0)
(-0.0206104 -0.0683946 0)
(-0.0111461 -0.0784216 0)
(-0.00914213 -0.0944106 0)
(-0.00399693 -0.109085 0)
(0.00589032 -0.123665 0)
(0.0072149 -0.142578 0)
(-0.00250796 -0.151943 0)
(-0.0160678 -0.138754 0)
(-0.027316 -0.111183 0)
(-0.0285551 -0.0869328 0)
(-0.033874 -0.069021 0)
(-0.0377558 -0.062443 0)
(-0.0409448 -0.0655972 0)
(-0.0431869 -0.0658766 0)
(-0.0358808 -0.0652694 0)
(-0.0249269 -0.0616956 0)
(-0.00848197 -0.069896 0)
(0.00488297 -0.106075 0)
(0.00884665 -0.114185 0)
(0.000642701 -0.0952039 0)
(0.00993675 -0.0757751 0)
(0.0141032 -0.045686 0)
(0.00496133 -0.0147335 0)
(-0.00932312 0.00404907 0)
(-0.0223038 0.00566131 0)
(-0.037612 0.00501425 0)
(-0.0390732 0.000454633 0)
(-0.0460747 -0.0122666 0)
(-0.042984 -0.0293741 0)
(-0.0269952 -0.0467188 0)
(-0.0156534 -0.0657126 0)
(-0.00860111 -0.0793191 0)
(-0.00640921 -0.0963442 0)
(-7.43131e-05 -0.109503 0)
(0.00631334 -0.120099 0)
(0.00420451 -0.138231 0)
(-0.0153472 -0.144523 0)
(-0.0355417 -0.129969 0)
(-0.040513 -0.105813 0)
(-0.0440292 -0.0790012 0)
(-0.0476059 -0.0608063 0)
(-0.0506391 -0.054375 0)
(-0.0516112 -0.0544776 0)
(-0.0504848 -0.05747 0)
(-0.0376244 -0.0615227 0)
(-0.0259619 -0.0637696 0)
(-0.00911841 -0.0769372 0)
(0.00599691 -0.10629 0)
(0.00835937 -0.113691 0)
(0.000791852 -0.0959729 0)
(0.0111847 -0.0762052 0)
(0.0130169 -0.0499185 0)
(0.0113444 -0.0164008 0)
(0.000665636 0.00507792 0)
(-0.0101484 0.0115408 0)
(-0.0277669 0.0104683 0)
(-0.0282663 0.00485821 0)
(-0.0296539 -0.00786769 0)
(-0.0322738 -0.0282598 0)
(-0.0194526 -0.044441 0)
(-0.0108199 -0.0642575 0)
(-0.00658141 -0.0840827 0)
(-0.00325597 -0.0996408 0)
(0.00196853 -0.107733 0)
(0.00374187 -0.116957 0)
(-0.00123856 -0.132028 0)
(-0.0282008 -0.138359 0)
(-0.0424462 -0.126681 0)
(-0.0496646 -0.101708 0)
(-0.0539113 -0.0741992 0)
(-0.057179 -0.0539334 0)
(-0.0606137 -0.0467342 0)
(-0.0588 -0.0448243 0)
(-0.0542648 -0.0502953 0)
(-0.0400063 -0.0577511 0)
(-0.0302186 -0.0638547 0)
(-0.00678442 -0.0862989 0)
(0.00652722 -0.106101 0)
(0.00684245 -0.113994 0)
(0.00103541 -0.098786 0)
(0.0120521 -0.0793533 0)
(0.0163658 -0.0536266 0)
(0.0195751 -0.0209377 0)
(0.0109909 0.00587558 0)
(0.00406279 0.0184202 0)
(-0.00732362 0.0174303 0)
(-0.0158619 0.0137438 0)
(-0.0149532 -0.000195471 0)
(-0.0208151 -0.0196883 0)
(-0.0145406 -0.0398844 0)
(-0.0104419 -0.0613495 0)
(-0.0085633 -0.0862649 0)
(-0.00377116 -0.101506 0)
(-0.00160101 -0.107638 0)
(0.00166833 -0.112678 0)
(-0.00967107 -0.123815 0)
(-0.0310003 -0.132495 0)
(-0.0448105 -0.121998 0)
(-0.0536841 -0.0965438 0)
(-0.0596113 -0.0688976 0)
(-0.0660832 -0.0487226 0)
(-0.0683288 -0.0414927 0)
(-0.0643379 -0.0412345 0)
(-0.0552531 -0.048876 0)
(-0.0409328 -0.0577267 0)
(-0.0320306 -0.0745577 0)
(-0.00740195 -0.099815 0)
(0.00879065 -0.107791 0)
(0.00731038 -0.11601 0)
(0.00198905 -0.102806 0)
(0.0140524 -0.083483 0)
(0.0233629 -0.0563795 0)
(0.0293185 -0.0256223 0)
(0.0254349 0.00180019 0)
(0.0174617 0.0196273 0)
(0.0123174 0.0240632 0)
(-0.000629123 0.0201811 0)
(-0.00407387 0.00333391 0)
(-0.00804847 -0.0166973 0)
(-0.0128631 -0.0374587 0)
(-0.0105449 -0.0588903 0)
(-0.0102679 -0.0907941 0)
(-0.00686526 -0.103938 0)
(-0.00166731 -0.108743 0)
(-0.000735793 -0.109159 0)
(-0.0126276 -0.119065 0)
(-0.0296798 -0.126819 0)
(-0.04449 -0.115471 0)
(-0.0543828 -0.092563 0)
(-0.0633672 -0.0665225 0)
(-0.0720352 -0.0494745 0)
(-0.0740825 -0.0448562 0)
(-0.0678586 -0.0462863 0)
(-0.0568626 -0.0566304 0)
(-0.0407768 -0.0699751 0)
(-0.0284614 -0.0953074 0)
(-0.00445069 -0.118181 0)
(0.0101632 -0.109177 0)
(0.00622708 -0.117454 0)
(0.00208905 -0.106331 0)
(0.0163751 -0.088088 0)
(0.0294561 -0.0578733 0)
(0.0429216 -0.0326539 0)
(0.0455548 -0.00373286 0)
(0.0379169 0.0136314 0)
(0.0332484 0.0231085 0)
(0.020824 0.0286836 0)
(0.0103179 0.0099895 0)
(0.00546806 -0.0128117 0)
(-0.00657576 -0.0317426 0)
(-0.00827245 -0.0537163 0)
(-0.00700874 -0.0862141 0)
(-0.00910358 -0.0994537 0)
(-0.00205785 -0.10581 0)
(-0.00608251 -0.105165 0)
(-0.011613 -0.11414 0)
(-0.0278986 -0.121532 0)
(-0.0426398 -0.112449 0)
(-0.0527187 -0.0950144 0)
(-0.0631533 -0.0718578 0)
(-0.0736203 -0.0573 0)
(-0.0738289 -0.058592 0)
(-0.0645772 -0.066587 0)
(-0.0519625 -0.0834133 0)
(-0.0364384 -0.0996738 0)
(-0.023914 -0.127159 0)
(-0.00265964 -0.145172 0)
(0.00704781 -0.113182 0)
(0.000467561 -0.121083 0)
(0.00197402 -0.111568 0)
(0.0166554 -0.091958 0)
(0.0325465 -0.0611511 0)
(0.0502096 -0.0383523 0)
(0.0610949 -0.00773597 0)
(0.059422 0.00851614 0)
(0.0497611 0.0175586 0)
(0.0403762 0.0236736 0)
(0.031487 0.0126236 0)
(0.0189443 -0.00939569 0)
(0.00768052 -0.0263057 0)
(-0.000846938 -0.0459096 0)
(-0.00180969 -0.0748865 0)
(-0.00833923 -0.0897206 0)
(-0.00443884 -0.0995002 0)
(-0.00684202 -0.102307 0)
(-0.00920442 -0.108738 0)
(-0.0247746 -0.113665 0)
(-0.0409759 -0.108857 0)
(-0.0533849 -0.092238 0)
(-0.0673761 -0.0730921 0)
(-0.0696142 -0.062543 0)
(-0.0651768 -0.0689265 0)
(-0.0563022 -0.0779793 0)
(-0.0438008 -0.0976611 0)
(-0.0296623 -0.116748 0)
(-0.0169932 -0.145258 0)
(-0.00349794 -0.162263 0)
(-0.00209277 -0.119549 0)
(-0.00176685 -0.126131 0)
(0.00455167 -0.119251 0)
(0.0189509 -0.0992739 0)
(0.0338475 -0.0680498 0)
(0.0516973 -0.0444425 0)
(0.0693053 -0.00867684 0)
(0.0731927 0.0108957 0)
(0.0605661 0.0165066 0)
(0.0536922 0.0187989 0)
(0.0475824 0.0117114 0)
(0.0391308 -0.00569911 0)
(0.023525 -0.0188244 0)
(0.0120309 -0.0357017 0)
(0.00479923 -0.0577287 0)
(-0.00514224 -0.0755095 0)
(-0.00520049 -0.0888976 0)
(-0.00693744 -0.0954839 0)
(-0.00663113 -0.10065 0)
(-0.0154432 -0.104998 0)
(-0.0391939 -0.0978821 0)
(-0.0570336 -0.0833762 0)
(-0.072119 -0.0653302 0)
(-0.0651257 -0.0553136 0)
(-0.0558705 -0.068232 0)
(-0.0487615 -0.0789141 0)
(-0.0356781 -0.102126 0)
(-0.0242764 -0.126553 0)
(-0.0116647 -0.154363 0)
(-0.00175519 -0.17201 0)
(-0.0022354 -0.125102 0)
(0.00207481 -0.130919 0)
(0.00956247 -0.127098 0)
(0.022005 -0.108353 0)
(0.0324093 -0.0802024 0)
(0.0525658 -0.060831 0)
(0.0707423 -0.0313911 0)
(0.0822078 0.00287091 0)
(0.0766739 0.0161893 0)
(0.0649618 0.0188243 0)
(0.059617 0.0158803 0)
(0.0532806 0.00173909 0)
(0.0390712 -0.0118365 0)
(0.0246029 -0.0239474 0)
(0.0117094 -0.0396786 0)
(-0.00132932 -0.0606973 0)
(-0.00328146 -0.0751425 0)
(-0.00577571 -0.087503 0)
(-0.00540693 -0.0906461 0)
(-0.0132419 -0.0950249 0)
(-0.0357228 -0.0880528 0)
(-0.0572923 -0.0727794 0)
(-0.07055 -0.057623 0)
(-0.0594047 -0.0515737 0)
(-0.0491418 -0.0693171 0)
(-0.0397449 -0.0809742 0)
(-0.0269693 -0.104308 0)
(-0.0189361 -0.130375 0)
(-0.00509553 -0.158101 0)
(0.00251496 -0.177276 0)
(0.00315708 -0.126597 0)
(0.00742913 -0.131893 0)
(0.0121945 -0.131857 0)
(0.0272564 -0.11969 0)
(0.0399055 -0.0927171 0)
(0.0614641 -0.0747982 0)
(0.0736338 -0.0478755 0)
(0.0885174 -0.0134215 0)
(0.0885133 0.0176652 0)
(0.0781054 0.022079 0)
(0.0692349 0.0211319 0)
(0.0649475 0.0108878 0)
(0.0539023 -0.00556279 0)
(0.0330999 -0.010015 0)
(0.0210587 -0.0264112 0)
(0.0054293 -0.0463307 0)
(0.00114978 -0.0620092 0)
(-0.00379096 -0.0784406 0)
(-0.00690257 -0.0805941 0)
(-0.0174247 -0.0853868 0)
(-0.0328609 -0.0800354 0)
(-0.0536405 -0.0643325 0)
(-0.0637318 -0.0532564 0)
(-0.0494168 -0.0511992 0)
(-0.0404738 -0.073151 0)
(-0.0317463 -0.087799 0)
(-0.0200017 -0.109546 0)
(-0.0131967 -0.130982 0)
(0.000512724 -0.158711 0)
(0.00876752 -0.181846 0)
(0.0068333 -0.122622 0)
(0.0109602 -0.125767 0)
(0.0218098 -0.129816 0)
(0.0348233 -0.123573 0)
(0.046026 -0.0995429 0)
(0.064626 -0.0798106 0)
(0.0780732 -0.0510425 0)
(0.0900752 -0.0213441 0)
(0.0944621 0.0143448 0)
(0.088148 0.0254269 0)
(0.0782111 0.0252238 0)
(0.0718142 0.0209399 0)
(0.0642677 0.00496181 0)
(0.0431313 0.00042636 0)
(0.0270689 -0.0122758 0)
(0.0137161 -0.0334451 0)
(0.00591647 -0.0504541 0)
(-0.00319978 -0.0688975 0)
(-0.0133209 -0.0732031 0)
(-0.0222394 -0.0754368 0)
(-0.0338098 -0.0726129 0)
(-0.0469966 -0.0590455 0)
(-0.0532765 -0.0528703 0)
(-0.0395196 -0.0580251 0)
(-0.0340088 -0.0811277 0)
(-0.0238653 -0.0940472 0)
(-0.0136526 -0.115266 0)
(-0.00694598 -0.133149 0)
(0.00432648 -0.159879 0)
(0.013978 -0.180678 0)
(0.00958384 -0.122363 0)
(0.0193888 -0.126174 0)
(0.031314 -0.127354 0)
(0.0434724 -0.12517 0)
(0.0517884 -0.102566 0)
(0.0673881 -0.0778116 0)
(0.0808893 -0.0538423 0)
(0.0920892 -0.0244598 0)
(0.0960371 0.0124607 0)
(0.0944611 0.0288624 0)
(0.0833213 0.0326871 0)
(0.0755351 0.0307739 0)
(0.0705689 0.0178368 0)
(0.0537206 0.00922779 0)
(0.0323696 -0.00221742 0)
(0.0185096 -0.020847 0)
(0.00976483 -0.042751 0)
(-0.00725474 -0.0645714 0)
(-0.0195197 -0.0654802 0)
(-0.0287736 -0.0659668 0)
(-0.0370626 -0.0650907 0)
(-0.0411871 -0.0538836 0)
(-0.041249 -0.0510758 0)
(-0.0304812 -0.0629819 0)
(-0.0291261 -0.0904799 0)
(-0.0167575 -0.101012 0)
(-0.00910544 -0.118349 0)
(-0.00246739 -0.132967 0)
(0.00633035 -0.156106 0)
(0.0132477 -0.175417 0)
(0.00958438 -0.124486 0)
(0.0211649 -0.132005 0)
(0.034429 -0.131241 0)
(0.0486024 -0.126222 0)
(0.055589 -0.102907 0)
(0.0694878 -0.0751992 0)
(0.0812347 -0.0533402 0)
(0.0933325 -0.0282933 0)
(0.0978831 0.0127908 0)
(0.0984319 0.0325587 0)
(0.0880256 0.0399418 0)
(0.077229 0.039247 0)
(0.0722345 0.0284187 0)
(0.0625974 0.0155247 0)
(0.034497 0.00292691 0)
(0.0198342 -0.0124789 0)
(0.00950564 -0.0383759 0)
(-0.00744405 -0.0588188 0)
(-0.0228567 -0.0594431 0)
(-0.0294193 -0.0579218 0)
(-0.0367069 -0.0574205 0)
(-0.0386889 -0.0490092 0)
(-0.0343744 -0.048402 0)
(-0.0245047 -0.0628471 0)
(-0.0224442 -0.0962293 0)
(-0.00796062 -0.109339 0)
(-0.0046554 -0.121962 0)
(-0.00113134 -0.132813 0)
(0.00509692 -0.157007 0)
(0.011734 -0.168343 0)
(0.00821196 -0.126948 0)
(0.0218869 -0.139741 0)
(0.0353308 -0.13731 0)
(0.050041 -0.129436 0)
(0.0564594 -0.104657 0)
(0.0678476 -0.0733394 0)
(0.0784056 -0.0558041 0)
(0.08669 -0.027689 0)
(0.0945787 0.0128586 0)
(0.0979082 0.035467 0)
(0.0904771 0.0449025 0)
(0.0826218 0.0468949 0)
(0.0732929 0.0395579 0)
(0.0634715 0.0256198 0)
(0.0407604 0.00411622 0)
(0.0195959 -0.00835062 0)
(0.00983444 -0.0302219 0)
(-0.0070845 -0.0517342 0)
(-0.0193093 -0.0561763 0)
(-0.0258633 -0.0530686 0)
(-0.0344086 -0.0510111 0)
(-0.0365483 -0.0434407 0)
(-0.0318212 -0.0470741 0)
(-0.0194334 -0.064613 0)
(-0.015931 -0.102032 0)
(-0.00457184 -0.115226 0)
(-0.000530266 -0.121528 0)
(0.00206642 -0.130765 0)
(0.00379235 -0.15754 0)
(0.00853428 -0.161007 0)
(0.00739366 -0.126725 0)
(0.0242893 -0.141979 0)
(0.0389894 -0.143913 0)
(0.0511085 -0.134543 0)
(0.0537544 -0.108794 0)
(0.0609024 -0.0759813 0)
(0.0706469 -0.0537561 0)
(0.0762933 -0.0251863 0)
(0.0886566 0.0108129 0)
(0.0943655 0.0358668 0)
(0.0901136 0.0484623 0)
(0.0827259 0.0519949 0)
(0.0709569 0.0477184 0)
(0.0630429 0.0327182 0)
(0.0402902 0.00870053 0)
(0.0219076 -0.004241 0)
(0.012628 -0.0202542 0)
(-0.000746994 -0.0466348 0)
(-0.0122593 -0.0536847 0)
(-0.0212036 -0.0512588 0)
(-0.0302445 -0.0469752 0)
(-0.0319995 -0.0387695 0)
(-0.0294598 -0.0478799 0)
(-0.0163284 -0.0760914 0)
(-0.0132132 -0.10864 0)
(-0.00346682 -0.118406 0)
(0.00225759 -0.12244 0)
(0.00599908 -0.134998 0)
(0.00411423 -0.162053 0)
(0.00783963 -0.156149 0)
(0.00883626 -0.12715 0)
(0.0302974 -0.143978 0)
(0.0434448 -0.146066 0)
(0.0509596 -0.137538 0)
(0.0505296 -0.11398 0)
(0.0513533 -0.0782938 0)
(0.0615254 -0.0506124 0)
(0.0669861 -0.0202426 0)
(0.0794709 0.00913546 0)
(0.0870056 0.0357522 0)
(0.0850569 0.0506416 0)
(0.0778075 0.0556502 0)
(0.0676162 0.0517249 0)
(0.0593609 0.0384503 0)
(0.0370062 0.0140218 0)
(0.0306936 0.00300562 0)
(0.0184239 -0.0148962 0)
(0.00583355 -0.0425333 0)
(-0.00677411 -0.0519623 0)
(-0.0181018 -0.0511221 0)
(-0.0245729 -0.0486637 0)
(-0.0260987 -0.0394434 0)
(-0.0238175 -0.052177 0)
(-0.0130245 -0.0855812 0)
(-0.00857358 -0.114746 0)
(0.00100862 -0.127385 0)
(0.00629031 -0.130367 0)
(0.0100352 -0.147608 0)
(0.0046064 -0.165526 0)
(0.00675817 -0.151392 0)
(0.0112054 -0.128127 0)
(0.0328203 -0.146875 0)
(0.0449568 -0.146254 0)
(0.0483319 -0.138483 0)
(0.0435328 -0.115376 0)
(0.0405032 -0.07922 0)
(0.0473557 -0.0457104 0)
(0.0563402 -0.0155358 0)
(0.0651207 0.01103 0)
(0.075592 0.0360112 0)
(0.0751635 0.05189 0)
(0.0688345 0.0567892 0)
(0.0613939 0.0544113 0)
(0.0518656 0.0401104 0)
(0.0361031 0.0197729 0)
(0.0360378 0.00949941 0)
(0.0204408 -0.0118476 0)
(0.00227836 -0.0422115 0)
(-0.00593726 -0.0541868 0)
(-0.0137277 -0.0566688 0)
(-0.0180308 -0.0537867 0)
(-0.0194967 -0.0441881 0)
(-0.0171464 -0.054582 0)
(-0.00626119 -0.0839574 0)
(0.00217689 -0.11763 0)
(0.00918775 -0.139755 0)
(0.0136363 -0.146889 0)
(0.0152472 -0.162286 0)
(0.00659638 -0.178529 0)
(0.00392534 -0.153597 0)
(0.0107712 -0.136584 0)
(0.0320719 -0.152481 0)
(0.0414349 -0.14591 0)
(0.0422692 -0.137647 0)
(0.0332271 -0.114747 0)
(0.0264062 -0.0793088 0)
(0.0316837 -0.0402896 0)
(0.0438733 -0.0146992 0)
(0.0514159 0.0151133 0)
(0.0613923 0.0363529 0)
(0.0593699 0.0506416 0)
(0.0570521 0.0538575 0)
(0.0522472 0.0507138 0)
(0.0411833 0.0375121 0)
(0.0305931 0.0214856 0)
(0.0331552 0.0121334 0)
(0.0205015 -0.0115581 0)
(0.0011659 -0.0425834 0)
(-0.00375482 -0.053203 0)
(-0.0105917 -0.0536199 0)
(-0.0155365 -0.0503567 0)
(-0.0170787 -0.043882 0)
(-0.0151246 -0.0568919 0)
(-0.00459798 -0.0850162 0)
(0.00931428 -0.114347 0)
(0.015557 -0.138983 0)
(0.0182685 -0.147877 0)
(0.0163889 -0.162397 0)
(0.00783977 -0.177877 0)
(0.00607999 -0.160785 0)
(0.00750018 -0.147315 0)
(0.0274351 -0.161717 0)
(0.034469 -0.147973 0)
(0.0347965 -0.135505 0)
(0.0230362 -0.113428 0)
(0.0134867 -0.0781021 0)
(0.0165961 -0.0347633 0)
(0.0282231 -0.0119789 0)
(0.0371827 0.0163516 0)
(0.0410573 0.0364628 0)
(0.0411535 0.0479923 0)
(0.0427698 0.0493823 0)
(0.0394648 0.045417 0)
(0.0332628 0.0339737 0)
(0.0232458 0.0210524 0)
(0.0271294 0.0105449 0)
(0.015666 -0.0072493 0)
(-0.000468151 -0.0391524 0)
(-0.00334556 -0.0462971 0)
(-0.0105186 -0.0466722 0)
(-0.015826 -0.0431721 0)
(-0.0164648 -0.0436298 0)
(-0.0145431 -0.0619548 0)
(-0.00768813 -0.0905301 0)
(0.0109445 -0.113382 0)
(0.0187937 -0.134564 0)
(0.0207714 -0.140567 0)
(0.01737 -0.152065 0)
(0.0085049 -0.169554 0)
(0.00707449 -0.155801 0)
(0.00269506 -0.154524 0)
(0.0219317 -0.165767 0)
(0.0273865 -0.148491 0)
(0.0281094 -0.133526 0)
(0.0155969 -0.114823 0)
(0.00296314 -0.0796789 0)
(0.00325163 -0.0364237 0)
(0.0138205 -0.011929 0)
(0.0213968 0.0128337 0)
(0.0230492 0.0384789 0)
(0.0245162 0.0436879 0)
(0.0274016 0.0435863 0)
(0.0267692 0.0408142 0)
(0.0264841 0.0341923 0)
(0.0217659 0.0190543 0)
(0.0195342 0.008812 0)
(0.0110719 0.000924118 0)
(-0.000272181 -0.0299265 0)
(-0.00460776 -0.0372268 0)
(-0.0137041 -0.0363272 0)
(-0.016683 -0.037408 0)
(-0.0162939 -0.0437981 0)
(-0.0158704 -0.0651315 0)
(-0.00518384 -0.0914621 0)
(0.0103898 -0.112129 0)
(0.0196163 -0.128504 0)
(0.022048 -0.129945 0)
(0.0186143 -0.140574 0)
(0.00861825 -0.157428 0)
(0.00597084 -0.145502 0)
(-0.00397587 -0.156947 0)
(0.0160721 -0.166078 0)
(0.0212005 -0.146707 0)
(0.0215749 -0.131058 0)
(0.00937107 -0.11615 0)
(-0.00430134 -0.0858659 0)
(-0.00605707 -0.044167 0)
(0.00445561 -0.0179366 0)
(0.00869162 0.0105677 0)
(0.0110308 0.0371788 0)
(0.0124037 0.046495 0)
(0.0122779 0.0389647 0)
(0.0128725 0.0363249 0)
(0.0136108 0.0273499 0)
(0.0172497 0.0151983 0)
(0.00942111 0.0106274 0)
(0.00406753 0.00663991 0)
(-0.00391193 -0.0236209 0)
(-0.00994384 -0.0252253 0)
(-0.0147917 -0.0254363 0)
(-0.0160806 -0.0322099 0)
(-0.0156136 -0.0438867 0)
(-0.0164444 -0.0647669 0)
(-0.000931133 -0.0882837 0)
(0.0119205 -0.109434 0)
(0.0191132 -0.123284 0)
(0.0214991 -0.120936 0)
(0.0179507 -0.131137 0)
(0.007451 -0.147779 0)
(0.00443185 -0.137505 0)
(-0.00560719 -0.154274 0)
(0.0115866 -0.161654 0)
(0.0137398 -0.143947 0)
(0.0138173 -0.128696 0)
(0.00155777 -0.116494 0)
(-0.0119057 -0.0904273 0)
(-0.0152539 -0.0492984 0)
(-0.00412302 -0.0196175 0)
(0.000375643 0.0083932 0)
(0.00359135 0.033957 0)
(0.00743418 0.0459143 0)
(0.00657677 0.0437518 0)
(0.00274579 0.0323965 0)
(0.01119 0.0230257 0)
(0.0120133 0.013562 0)
(0.00163316 0.0137262 0)
(-0.00178422 0.0126837 0)
(-0.00779634 -0.0164915 0)
(-0.0151479 -0.0172745 0)
(-0.0182137 -0.0159795 0)
(-0.0176232 -0.0289188 0)
(-0.0153825 -0.0420484 0)
(-0.0153058 -0.0627548 0)
(0.00102201 -0.0829016 0)
(0.0126538 -0.105364 0)
(0.0166833 -0.117499 0)
(0.0195801 -0.111627 0)
(0.016357 -0.120366 0)
(0.00626241 -0.136811 0)
(0.00368635 -0.12801 0)
(-0.00392571 -0.154559 0)
(0.00719792 -0.154783 0)
(0.0068657 -0.138746 0)
(0.00400609 -0.123627 0)
(-0.00682866 -0.113996 0)
(-0.0200531 -0.0932494 0)
(-0.0272278 -0.0507195 0)
(-0.0157033 -0.0200887 0)
(-0.00641285 0.00667974 0)
(-0.000985064 0.0312396 0)
(0.00515006 0.0473482 0)
(0.00957402 0.0480557 0)
(0.00314143 0.0351623 0)
(0.0117387 0.0202594 0)
(0.00759641 0.0147138 0)
(-0.00240443 0.0168955 0)
(-0.00695712 0.0150238 0)
(-0.0147338 -0.0148911 0)
(-0.0247647 -0.0145672 0)
(-0.0243736 -0.0154436 0)
(-0.0216144 -0.0274768 0)
(-0.0168381 -0.040223 0)
(-0.0135256 -0.0580564 0)
(0.00218323 -0.0770741 0)
(0.0121443 -0.100294 0)
(0.0142172 -0.111465 0)
(0.0173173 -0.104225 0)
(0.0141886 -0.11105 0)
(0.00434178 -0.126485 0)
(0.00349852 -0.119783 0)
(-0.00521561 -0.154657 0)
(0.00252652 -0.147887 0)
(0.000973517 -0.133604 0)
(-0.00577046 -0.116996 0)
(-0.0153578 -0.109359 0)
(-0.0295716 -0.0918711 0)
(-0.0394404 -0.0511669 0)
(-0.0269166 -0.019753 0)
(-0.012362 0.00315329 0)
(-0.0050868 0.02847 0)
(0.00341055 0.0483372 0)
(0.0104927 0.052738 0)
(0.00595673 0.0417072 0)
(0.00841215 0.0261129 0)
(0.00385751 0.0174369 0)
(-0.00461413 0.0201081 0)
(-0.0112098 0.0157823 0)
(-0.0213491 -0.0118414 0)
(-0.0307149 -0.0143249 0)
(-0.0284573 -0.014866 0)
(-0.0246535 -0.025986 0)
(-0.0182764 -0.0363854 0)
(-0.0106913 -0.0544914 0)
(0.00401763 -0.0709283 0)
(0.0110608 -0.0943465 0)
(0.012 -0.103382 0)
(0.0142956 -0.0960559 0)
(0.0100272 -0.101957 0)
(0.0011703 -0.115839 0)
(0.00334193 -0.110744 0)
(-0.00788825 -0.151486 0)
(-0.000727957 -0.14243 0)
(-0.00460623 -0.12749 0)
(-0.0134242 -0.110805 0)
(-0.0237771 -0.101933 0)
(-0.0378663 -0.0865408 0)
(-0.0486439 -0.0497743 0)
(-0.0329494 -0.0187075 0)
(-0.0155105 0.00140007 0)
(-0.00793461 0.0262625 0)
(0.000270584 0.0470486 0)
(0.00958291 0.0517769 0)
(0.00614423 0.0443672 0)
(0.00596696 0.0295529 0)
(0.00256179 0.0233277 0)
(-0.00418916 0.0255153 0)
(-0.014112 0.0156221 0)
(-0.0244323 -0.00806876 0)
(-0.0342705 -0.011885 0)
(-0.0331182 -0.0135474 0)
(-0.0303542 -0.0238731 0)
(-0.0229763 -0.0397328 0)
(-0.00878138 -0.0536352 0)
(0.00621542 -0.0666065 0)
(0.0121962 -0.0890868 0)
(0.0140464 -0.0955363 0)
(0.0129697 -0.0855641 0)
(0.00615601 -0.0916209 0)
(-0.00190641 -0.106862 0)
(0.00317133 -0.105851 0)
(-0.0102417 -0.147061 0)
(-0.00301131 -0.140528 0)
(-0.0120603 -0.122776 0)
(-0.02082 -0.105324 0)
(-0.0335304 -0.0936078 0)
(-0.0467316 -0.0792256 0)
(-0.0534608 -0.0484121 0)
(-0.0359344 -0.0165652 0)
(-0.0181051 0.00283368 0)
(-0.00976584 0.0264565 0)
(-0.00253791 0.0459337 0)
(0.00503991 0.0474399 0)
(0.00497307 0.043554 0)
(0.00657246 0.0299959 0)
(0.00446493 0.0286801 0)
(-0.00257775 0.0318633 0)
(-0.0140505 0.0147943 0)
(-0.0241091 -0.00247595 0)
(-0.0358485 -0.00867481 0)
(-0.0374751 -0.0121706 0)
(-0.0356183 -0.0282994 0)
(-0.0258684 -0.0461456 0)
(-0.00957955 -0.0564213 0)
(0.00789134 -0.0650664 0)
(0.0129018 -0.0858656 0)
(0.00688216 -0.0867807 0)
(0.0061566 -0.080262 0)
(0.0034138 -0.085624 0)
(-0.00247715 -0.098565 0)
(0.00356089 -0.101912 0)
(-0.0102005 -0.141908 0)
(-0.00295624 -0.142089 0)
(-0.0120598 -0.120145 0)
(-0.0244649 -0.098694 0)
(-0.0358143 -0.0863122 0)
(-0.047039 -0.0754093 0)
(-0.0534845 -0.0456152 0)
(-0.0375341 -0.0152614 0)
(-0.0219945 0.00502753 0)
(-0.0101439 0.0240308 0)
(-0.00226362 0.0432516 0)
(0.00413398 0.0419417 0)
(0.00695243 0.043381 0)
(0.00777888 0.0334542 0)
(0.00567622 0.034204 0)
(-0.00126945 0.0360917 0)
(-0.0118006 0.0167098 0)
(-0.0221101 0.00316963 0)
(-0.0360714 -0.00364138 0)
(-0.0393736 -0.00919414 0)
(-0.0361764 -0.0316077 0)
(-0.0240147 -0.05101 0)
(-0.0079929 -0.0602223 0)
(0.00838428 -0.0658563 0)
(0.00651285 -0.0818409 0)
(0.000514764 -0.0821604 0)
(0.00137058 -0.0776353 0)
(5.03996e-05 -0.0819881 0)
(-0.00372498 -0.0956899 0)
(0.00727146 -0.0979006 0)
(-0.00953369 -0.135607 0)
(-0.00279198 -0.137709 0)
(-0.0144524 -0.113736 0)
(-0.0267822 -0.0944948 0)
(-0.0380425 -0.0826127 0)
(-0.0426365 -0.0713625 0)
(-0.0478085 -0.0404598 0)
(-0.0401053 -0.0137212 0)
(-0.0242914 0.00642096 0)
(-0.00967194 0.0245207 0)
(-1.63379e-05 0.0402795 0)
(0.00585715 0.0395226 0)
(0.0106988 0.0428953 0)
(0.0105422 0.0374767 0)
(0.0071851 0.0390544 0)
(-0.00151578 0.0391439 0)
(-0.0100991 0.0196102 0)
(-0.0177558 0.00986033 0)
(-0.0340806 0.000557807 0)
(-0.0389591 -0.00703946 0)
(-0.0339467 -0.0363574 0)
(-0.0210575 -0.0545792 0)
(-0.00692179 -0.0628084 0)
(0.00537643 -0.0665628 0)
(0.00011142 -0.076141 0)
(-0.00354741 -0.0795605 0)
(-0.00410676 -0.0746131 0)
(-0.00307564 -0.0805663 0)
(-0.00603252 -0.0938455 0)
(0.00924842 -0.0934659 0)
(-0.00750297 -0.128062 0)
(-0.000972817 -0.132026 0)
(-0.0134913 -0.108017 0)
(-0.0257208 -0.0890739 0)
(-0.035746 -0.0775718 0)
(-0.0374165 -0.0641999 0)
(-0.0461333 -0.0344946 0)
(-0.0408802 -0.0108295 0)
(-0.0232647 0.00756749 0)
(-0.0108496 0.0225269 0)
(0.000577462 0.0383517 0)
(0.00894062 0.041807 0)
(0.0146871 0.0492332 0)