/*--------------------------------*- C++ -*----------------------------------*\
| =========                 |                                                 |
| \\      /  F ield         | OpenFOAM: The Open Source CFD Toolbox           |
|  \\    /   O peration     | Version:  2.3.0                                 |
|   \\  /    A nd           | Web:      www.OpenFOAM.org                      |
|    \\/     M anipulation  |                                                 |
\*---------------------------------------------------------------------------*/
FoamFile
{
    version     2.0;
    format      ascii;
    class       volScalarField;
    location    "1.54";
    object      nut.air;
}
// * * * * * * * * * * * * * * * * * * * * * * * * * * * * * * * * * * * * * //

dimensions      [0 2 -1 0 0 0 0];

internalField   nonuniform List<scalar> 
6000
(
0.000509622
0.00405845
0.00717994
0.00826787
0.0087545
0.00900489
0.00915118
0.00924819
0.00933268
0.00933916
0.00931976
0.00937253
0.00939836
0.0094022
0.00939002
0.00939824
0.00939772
0.00937446
0.00933605
0.00930413
0.00927575
0.00924976
0.00921488
0.00916108
0.00907589
0.00895319
0.00860548
0.00758997
0.00457708
0.000510885
0.000424323
0.00264748
0.00543969
0.00746215
0.00859751
0.00923297
0.00963645
0.00989839
0.0100217
0.0101291
0.0101931
0.0102203
0.0103282
0.0104252
0.0104498
0.0103896
0.0103009
0.010226
0.0101579
0.0100846
0.00999899
0.00989411
0.00976079
0.00958293
0.00929274
0.00878303
0.00793003
0.00633351
0.0034302
0.00045642
0.000358599
0.00241453
0.00504149
0.00711913
0.00850291
0.00940399
0.00998992
0.01035
0.0105179
0.0105407
0.010588
0.0107513
0.0109586
0.0111631
0.0112629
0.0112552
0.0111983
0.0111243
0.0110327
0.0108998
0.0107254
0.0105122
0.0102398
0.00987097
0.00937409
0.00863974
0.0075742
0.00586324
0.00319074
0.000419864
0.00033299
0.00265484
0.0051922
0.00720559
0.00866933
0.00969206
0.0103913
0.0108538
0.0110943
0.0111448
0.0112322
0.0115002
0.0118311
0.0120768
0.0122403
0.0123246
0.0123382
0.0122773
0.0121382
0.01192
0.0116247
0.0112483
0.010807
0.0102758
0.00958306
0.00863254
0.00733855
0.0055525
0.00301635
0.000397213
0.000332165
0.00289008
0.00546413
0.0075028
0.00901802
0.010107
0.0108903
0.0114357
0.0117287
0.0117821
0.0119351
0.0122955
0.0126897
0.0129922
0.0131878
0.0132804
0.0132876
0.0132226
0.0130771
0.0128399
0.012497
0.0120329
0.0114534
0.0107709
0.00994514
0.00882866
0.00735259
0.00545079
0.00291908
0.000379112
0.000335847
0.00307291
0.00579755
0.00786852
0.00940706
0.0105626
0.0114281
0.0120628
0.0124419
0.012585
0.0127847
0.0131396
0.013525
0.0138281
0.0140109
0.0140865
0.0140865
0.0140127
0.0138584
0.0136206
0.0132848
0.0128447
0.0122918
0.0115488
0.0105504
0.00925816
0.00755462
0.00541465
0.00280176
0.000361993
0.000349307
0.00319433
0.00596266
0.00811898
0.00973489
0.010969
0.0119221
0.012657
0.0131411
0.0133745
0.013612
0.0139453
0.0143138
0.0145939
0.0147484
0.0148058
0.0147855
0.0146871
0.014507
0.0142409
0.013893
0.0134735
0.0130308
0.0124401
0.0114218
0.00991241
0.00800489
0.00562656
0.00281679
0.000356157
0.000395266
0.00315809
0.00596166
0.00816051
0.00989281
0.0112455
0.0123092
0.0131604
0.013764
0.0140723
0.0143408
0.014667
0.0150139
0.0152857
0.0154223
0.0154597
0.0154119
0.0152763
0.015064
0.014746
0.0143488
0.0139181
0.0135186
0.0129863
0.0121305
0.0107043
0.00869229
0.00616356
0.00301613
0.000362106
0.000404769
0.00314224
0.00591934
0.0080961
0.00985191
0.0113299
0.012546
0.0135394
0.014286
0.0146845
0.0149777
0.0153013
0.0156268
0.0158897
0.0160255
0.0160482
0.0159815
0.0158224
0.0155778
0.0152018
0.0147398
0.0142791
0.0138468
0.0131708
0.0123372
0.0112556
0.00938704
0.00669769
0.0032996
0.000382338
0.000389051
0.00307812
0.00582683
0.00801857
0.00978663
0.0112838
0.0126189
0.0137724
0.0146886
0.0151948
0.015511
0.0158481
0.0161628
0.0164223
0.0165668
0.0165777
0.016503
0.0163249
0.0160441
0.01562
0.0151197
0.0146569
0.0142033
0.013479
0.0125633
0.011499
0.00983225
0.0070722
0.00347461
0.000403258
0.000369194
0.00303019
0.00572337
0.00790395
0.00968834
0.0112095
0.0125656
0.0138489
0.0149628
0.0155953
0.0159385
0.016306
0.0166333
0.016902
0.0170466
0.0170475
0.0169608
0.0167637
0.0164406
0.0159803
0.0154675
0.0150155
0.0145313
0.0137535
0.0128155
0.011713
0.0101345
0.00737287
0.00361575
0.000419068
0.000358744
0.00296138
0.00559687
0.00776605
0.00956563
0.0110825
0.0124702
0.0138041
0.015078
0.0158742
0.0162723
0.0166828
0.0170386
0.017326
0.017455
0.0174435
0.0173425
0.0171265
0.0167655
0.0162723
0.0157437
0.0152901
0.0147893
0.0140038
0.0130062
0.011855
0.0103624
0.00770707
0.00383735
0.000440084
0.000350804
0.00284282
0.00540798
0.00757574
0.00941369
0.0109528
0.0123385
0.0136936
0.0150533
0.0160366
0.0165379
0.0169958
0.0173857
0.017691
0.0177931
0.0177706
0.0176592
0.0174249
0.0170304
0.0165042
0.0159496
0.0154683
0.0149039
0.0141097
0.0131156
0.0119309
0.0105006
0.00805053
0.00412926
0.00046379
0.000340331
0.00266755
0.0051336
0.00730791
0.00921674
0.0108165
0.0122275
0.0136008
0.0149752
0.016102
0.0167618
0.0172616
0.0176898
0.0179938
0.0180742
0.0180408
0.0179209
0.0176655
0.0172427
0.0166844
0.0160934
0.0155709
0.0149852
0.014176
0.0131615
0.0119351
0.0104433
0.00823401
0.00441993
0.00048479
0.000326596
0.00237944
0.00478803
0.0069897
0.00899209
0.0106799
0.0121486
0.0135594
0.0149555
0.0161789
0.0169328
0.01748
0.017943
0.0182427
0.0183053
0.0182707
0.0181345
0.0178508
0.0174018
0.0168113
0.0161826
0.0156183
0.0149723
0.0141405
0.0131085
0.0118476
0.010307
0.00821879
0.00466761
0.000501234
0.000309395
0.00210365
0.00446734
0.00670666
0.00879867
0.0105751
0.012122
0.0135955
0.0150273
0.0162935
0.0170995
0.0176575
0.0181365
0.0184342
0.0185001
0.018464
0.0183039
0.0179878
0.017511
0.0168867
0.0162052
0.0155721
0.014883
0.0140291
0.0129683
0.0116714
0.0100937
0.00803289
0.00467986
0.000514723
0.000292321
0.00195163
0.00429297
0.00656424
0.00871369
0.0105626
0.0121904
0.0137146
0.0151628
0.0164207
0.0172253
0.0177889
0.0182697
0.0185838
0.0186711
0.018627
0.0184377
0.0180894
0.0175791
0.0169154
0.0161654
0.0154427
0.0147089
0.0138324
0.0127408
0.0113955
0.00976144
0.0076969
0.00454273
0.000505421
0.000279587
0.00196526
0.0043267
0.00662383
0.00879327
0.0107063
0.0123922
0.0139324
0.0153534
0.0165458
0.0173257
0.0179062
0.0184069
0.0187372
0.0188299
0.0187659
0.0185478
0.0181704
0.0176255
0.0169165
0.0160851
0.0152457
0.0144555
0.0135469
0.0124248
0.0110353
0.00936461
0.00733102
0.00432538
0.00049062
0.00027509
0.0020752
0.00449971
0.00686836
0.00907332
0.0110321
0.0127524
0.0142608
0.0155846
0.0166691
0.0174354
0.0180333
0.0185508
0.01889
0.0189718
0.018891
0.0186547
0.018255
0.0176803
0.0169249
0.0160088
0.0150373
0.0141387
0.0131848
0.0120454
0.0106458
0.00899544
0.00703357
0.00415975
0.000470943
0.000274979
0.00218703
0.00476667
0.00726711
0.00947827
0.0113936
0.0130724
0.0145453
0.0158
0.0168293
0.0175884
0.0181799
0.0186919
0.0190306
0.0191028
0.0190274
0.0187861
0.0183677
0.0177608
0.0169615
0.015978
0.0148905
0.0138392
0.0128176
0.0116657
0.0103064
0.00874688
0.00683169
0.00398404
0.000448196
0.000277559
0.00233207
0.00515904
0.00765936
0.00979466
0.0116651
0.0133156
0.0147609
0.0159962
0.0169907
0.0177682
0.0183717
0.0188532
0.0191617
0.0192424
0.0191951
0.0189676
0.0185223
0.0178626
0.0170151
0.0159844
0.0148413
0.0136945
0.0125877
0.0114178
0.0100947
0.00859391
0.00667086
0.00380738
0.000431356
0.000287774
0.00247486
0.00541785
0.00790934
0.0100067
0.0118545
0.0134975
0.0149295
0.0161469
0.0171475
0.0179678
0.0185887
0.0190298
0.0192997
0.0194054
0.0194128
0.0192076
0.0187131
0.0179744
0.0170773
0.0160009
0.0148485
0.0137029
0.0125804
0.011365
0.010003
0.00845934
0.00646522
0.00364709
0.00040325
0.000311834
0.00268339
0.00564817
0.00808991
0.0101676
0.0120089
0.0136539
0.0150843
0.016293
0.0173006
0.0181231
0.0187801
0.0192507
0.0194968
0.019618
0.0196545
0.0194021
0.0188482
0.0180742
0.0171349
0.0160285
0.0148529
0.0136945
0.0125773
0.0113733
0.0100218
0.00840405
0.00627654
0.00337783
0.000393836
0.00033814
0.00297697
0.00586197
0.00825029
0.010324
0.0121855
0.013834
0.0152561
0.0164524
0.017447
0.0182715
0.0189437
0.0194557
0.0197133
0.0198396
0.0197945
0.0194044
0.0187994
0.0180548
0.0171379
0.0160377
0.0148192
0.0135956
0.0123958
0.0112057
0.00988418
0.00828121
0.00613884
0.00321309
0.000409685
0.000365021
0.00311799
0.00595359
0.0083834
0.0105146
0.012403
0.0140502
0.0154593
0.0166409
0.0176207
0.0184305
0.0190936
0.0196085
0.0198617
0.0199438
0.0197131
0.0192435
0.0186404
0.0178997
0.0170092
0.0159388
0.0147109
0.0134315
0.0121707
0.0109591
0.00966867
0.00807173
0.00598411
0.0031912
0.000407933
0.00038179
0.00309278
0.00596073
0.00850416
0.0107248
0.0126497
0.0143006
0.0156991
0.0168671
0.0178317
0.0186204
0.0192513
0.0197066
0.0199102
0.0199104
0.019594
0.0191249
0.0185282
0.01778
0.0168666
0.0157909
0.0145606
0.0132497
0.0119199
0.0106072
0.00926254
0.00769679
0.00572452
0.00317671
0.000383356
0.000380939
0.00304049
0.00599489
0.00865758
0.0109658
0.0129319
0.0145936
0.0159856
0.0171409
0.0180885
0.0188499
0.0194342
0.0198115
0.0199851
0.0198805
0.0195373
0.0190692
0.0184667
0.0177015
0.0167694
0.0156886
0.0144652
0.0131314
0.0117482
0.0103526
0.00893002
0.00736433
0.00548628
0.0031053
0.000367328
0.000375376
0.00295224
0.00608144
0.0088704
0.0112602
0.0132673
0.0149418
0.0163289
0.0174715
0.0183985
0.0191233
0.0196479
0.0199389
0.0200772
0.0198959
0.0195551
0.0190902
0.0184735
0.0176827
0.0167342
0.0156521
0.0144377
0.0131068
0.0116958
0.0102424
0.00875283
0.00715431
0.00530753
0.00301149
0.00035536
0.000370475
0.0029577
0.00625765
0.00916298
0.0116223
0.0136653
0.0153497
0.016731
0.0178586
0.0187602
0.0194396
0.0198909
0.0200987
0.0201698
0.0199604
0.0196551
0.0191934
0.0185482
0.0177189
0.01675
0.015668
0.0144663
0.0131492
0.0117386
0.0102601
0.00872233
0.00707928
0.00521536
0.00292819
0.000344456
0.000372931
0.00309191
0.00654023
0.00953891
0.01205
0.0141195
0.0158074
0.017176
0.0182809
0.0191676
0.0197833
0.0201527
0.0203051
0.020306
0.0201058
0.0198326
0.0193543
0.0186556
0.017777
0.0167912
0.0157137
0.0145289
0.0132332
0.0118408
0.010363
0.00879902
0.0071119
0.00520567
0.00287228
0.000335321
0.000380672
0.00334245
0.00690956
0.00998279
0.0125381
0.014628
0.0163138
0.0176587
0.0187191
0.0195596
0.0201236
0.0204596
0.0205945
0.020488
0.0203198
0.020029
0.0195018
0.0187447
0.0178381
0.0168515
0.015784
0.0146177
0.0133474
0.0119809
0.0105172
0.00894246
0.00721871
0.00525409
0.00284492
0.000328356
0.000394875
0.00360119
0.00731837
0.0104804
0.0130871
0.0151991
0.0168814
0.0181999
0.0192096
0.0199507
0.0204295
0.0207539
0.0208568
0.0207351
0.0205357
0.0201945
0.0196146
0.018822
0.0179136
0.0169347
0.0158802
0.0147324
0.0134872
0.0121449
0.0106956
0.00911358
0.00735266
0.00531732
0.0028252
0.00032353
0.000411184
0.0038436
0.00775614
0.011039
0.0137096
0.0158389
0.0175063
0.0187853
0.0197423
0.0203553
0.0207248
0.0208911
0.0209635
0.0209
0.0206863
0.0203095
0.0197
0.018906
0.018009
0.0170449
0.0160064
0.014877
0.013651
0.0123238
0.0108774
0.00927627
0.00746117
0.00533837
0.00277443
0.000317914
0.000429551
0.00409621
0.00825294
0.0116828
0.0144058
0.0165069
0.018129
0.0194071
0.0202703
0.0208254
0.0211009
0.0211421
0.0211106
0.0210561
0.0208553
0.0204367
0.0198014
0.0190094
0.0181262
0.0171789
0.0161566
0.0150454
0.0138375
0.0125138
0.0110521
0.00940661
0.00750241
0.00526169
0.00262102
0.000308904
0.000452392
0.00442788
0.00884971
0.0123878
0.0150679
0.0171167
0.0187217
0.0199637
0.0208363
0.0213766
0.0215832
0.0215592
0.0214063
0.021252
0.0210129
0.0205731
0.0199233
0.0191393
0.0182826
0.0173637
0.0163668
0.0152672
0.0140489
0.0127035
0.0112029
0.009498
0.00747322
0.00508398
0.00234219
0.000297375
0.000485037
0.0048814
0.00947567
0.0129687
0.0155959
0.0176402
0.0192417
0.0204893
0.0214192
0.0219333
0.0220987
0.0220089
0.0218025
0.0215251
0.021146
0.0206611
0.0200185
0.019258
0.0184343
0.0175494
0.0165805
0.0155041
0.014299
0.0129403
0.0113925
0.00959109
0.00745518
0.00496533
0.00215784
0.000287369
0.000533577
0.0052611
0.00993268
0.0134036
0.0160681
0.0181306
0.0197479
0.021012
0.0219611
0.0225447
0.0226997
0.0225473
0.0222341
0.0218587
0.0213916
0.0208165
0.0201452
0.0193964
0.0186025
0.0177518
0.0168071
0.0157389
0.0145264
0.0131432
0.0115509
0.00969729
0.00749863
0.00496708
0.00217984
0.000286447
0.000579881
0.00554866
0.0102198
0.0137088
0.0164457
0.018581
0.0202588
0.0215642
0.0225447
0.0231888
0.0234579
0.0233525
0.0229507
0.0224356
0.0218437
0.0211532
0.0203871
0.0196016
0.0188186
0.0179917
0.0170637
0.0159936
0.0147626
0.0133477
0.0117222
0.00984969
0.00766179
0.00514191
0.00237261
0.000290974
0.000616555
0.00541065
0.0101038
0.0138128
0.0167427
0.0190285
0.0208081
0.0221813
0.0232146
0.0239281
0.024357
0.0244439
0.0240704
0.0233601
0.0225581
0.0216921
0.0207835
0.0199038
0.0190931
0.0182674
0.0173407
0.0162631
0.0150169
0.0135867
0.0119548
0.0100885
0.00792946
0.00545946
0.00270954
0.000306865
0.000618019
0.00509932
0.0097657
0.0137425
0.0169848
0.0194924
0.0214127
0.0228827
0.0239891
0.0247772
0.0253406
0.0256498
0.0254362
0.0246419
0.0235329
0.0224207
0.0213359
0.0203305
0.019436
0.0185744
0.0176238
0.0165291
0.015271
0.0138318
0.0121955
0.010331
0.00817907
0.00570339
0.00287874
0.000322039
0.00059621
0.00478411
0.00966658
0.013786
0.0172234
0.01995
0.0220412
0.0236093
0.024752
0.0255639
0.0261655
0.0265803
0.026591
0.0259193
0.0246649
0.0232696
0.022009
0.0208759
0.0198644
0.0189266
0.017932
0.0168089
0.015529
0.0140683
0.0124057
0.0105176
0.00834512
0.00582808
0.00289379
0.000326432
0.000560192
0.0044505
0.00964414
0.0140607
0.0176258
0.0204385
0.0225943
0.024184
0.0253218
0.0261073
0.0266381
0.0270398
0.0272607
0.0267966
0.0256155
0.0241091
0.0227061
0.0214715
0.0203584
0.0193211
0.0182678
0.0171119
0.0158059
0.0143144
0.0126066
0.0106599
0.00842035
0.00584178
0.00283047
0.000326573
0.000543898
0.00455357
0.00982852
0.0143403
0.0179956
0.0208472
0.0230077
0.0245724
0.0256583
0.0263711
0.0268845
0.0273501
0.0276227
0.0272475
0.0261882
0.0247529
0.0233197
0.0220284
0.0208482
0.0197288
0.0186176
0.0174311
0.0160987
0.0145756
0.0128217
0.0108027
0.0084595
0.00579526
0.00277734
0.000326166
0.000542179
0.00474464
0.0100791
0.0146229
0.0182485
0.0210829
0.0232394
0.0248147
0.0259175
0.0266586
0.0271911
0.0276756
0.0279556
0.0275462
0.0265092
0.025155
0.0237782
0.0224899
0.0212804
0.0201169
0.0189699
0.0177585
0.0163995
0.0148442
0.0130435
0.0109526
0.00850118
0.00574749
0.0027418
0.000326257
0.000547155
0.00498783
0.0103381
0.0147932
0.0183577
0.0211551
0.0233028
0.0249028
0.0260525
0.0268487
0.0274225
0.0279237
0.0281597
0.027697
0.0266644
0.0253843
0.0240854
0.0228385
0.0216332
0.0204714
0.0193159
0.018078
0.0166937
0.0151089
0.0132671
0.0111203
0.00858985
0.00576607
0.00271586
0.000327005
0.000555253
0.00517101
0.0104603
0.0148287
0.0183571
0.021122
0.0232575
0.0248858
0.026085
0.0269144
0.0275329
0.0280468
0.0282074
0.0276957
0.0267026
0.0255005
0.0242809
0.0230863
0.0219314
0.0207942
0.0196262
0.0183647
0.0169584
0.0153539
0.0134985
0.0113473
0.00880996
0.00595647
0.00283862
0.000330796
0.00056305
0.00529343
0.0104859
0.0147833
0.0182507
0.0209783
0.0231006
0.0247399
0.0259711
0.0268559
0.0275182
0.0280437
0.0281367
0.0275889
0.0266709
0.0255749
0.0244338
0.0233029
0.0221903
0.021063
0.0198814
0.0186043
0.0171858
0.0155813
0.0137465
0.0116301
0.00915881
0.00635586
0.00315839
0.000339063
0.000570265
0.00536137
0.0104378
0.014653
0.01808
0.0207783
0.0228846
0.0245243
0.0257752
0.0266986
0.0273962
0.0279363
0.0279949
0.027441
0.0265921
0.025601
0.0245424
0.0234669
0.0223782
0.0212556
0.0200686
0.0187857
0.0173716
0.0157884
0.0139952
0.0119424
0.00954114
0.00671443
0.00338766
0.000343514
0.000577826
0.00539767
0.0103546
0.0144912
0.0178797
0.020551
0.0226403
0.0242714
0.0255277
0.0264728
0.0271927
0.0277506
0.0278034
0.0272633
0.026475
0.0255635
0.0245696
0.0235286
0.0224516
0.0213327
0.0201539
0.0188888
0.0175054
0.0159672
0.0142327
0.0122284
0.00981956
0.00692094
0.00346932
0.000346506
0.000585781
0.00540941
0.0102505
0.0143189
0.017675
0.0203234
0.0223948
0.0240136
0.0252659
0.0262163
0.026943
0.0275074
0.027585
0.0270808
0.0263446
0.0254812
0.0245223
0.023498
0.0224307
0.0213244
0.0201664
0.0189334
0.0175961
0.0161157
0.01443
0.0124304
0.00998312
0.0070254
0.0035124
0.000349106
0.000595663
0.00540441
0.0101161
0.0141476
0.0174852
0.0201176
0.0221759
0.0237834
0.0250285
0.0259756
0.026692
0.0272382
0.0273634
0.0269331
0.0262515
0.0254086
0.0244514
0.0234263
0.0223622
0.0212682
0.0201349
0.0189421
0.0176596
0.016228
0.0145526
0.0125328
0.0100634
0.00708404
0.00354191
0.000351818
0.000604648
0.00534289
0.00994413
0.0139814
0.0173201
0.0199513
0.0220048
0.0236068
0.0248478
0.0257908
0.0264881
0.0269836
0.0271583
0.026843
0.0262268
0.0253848
0.0244042
0.0233568
0.0222824
0.0211946
0.0200869
0.0189374
0.0176935
0.0162741
0.0145919
0.0125609
0.0100936
0.00710798
0.00355505
0.00035143
0.000610653
0.00526365
0.00976002
0.0138314
0.0171923
0.0198352
0.0218911
0.0234908
0.0247293
0.0256718
0.0263531
0.0267838
0.026978
0.0268119
0.0262956
0.0254572
0.0244273
0.023329
0.022224
0.0211324
0.0200442
0.0189183
0.0176816
0.0162569
0.0145705
0.0125492
0.0100843
0.00708659
0.0035337
0.000346485
0.000615166
0.00523007
0.00962275
0.013724
0.0171139
0.0197681
0.0218199
0.0234094
0.0246377
0.0255764
0.026246
0.026631
0.0268021
0.0268018
0.0264483
0.0256777
0.0245957
0.0233923
0.0222208
0.0211051
0.0200134
0.0188808
0.0176346
0.0162081
0.0145305
0.0125145
0.0100344
0.00699422
0.00338062
0.000344775
0.000620416
0.00521812
0.00956
0.0136777
0.0170799
0.0197342
0.0217711
0.0233378
0.0245338
0.0254369
0.0260733
0.026429
0.0265935
0.0266788
0.0264467
0.0258388
0.0248382
0.0235686
0.0222945
0.0211234
0.0199972
0.0188408
0.0175853
0.0161632
0.014492
0.0124696
0.00996248
0.0068819
0.00328527
0.000342473
0.000624784
0.0052042
0.00949053
0.013632
0.0170339
0.0196513
0.0216453
0.0231747
0.024324
0.0251786
0.0257547
0.0261102
0.0263186
0.0263655
0.0261124
0.0255963
0.0248284
0.0237131
0.0224145
0.0211713
0.0199993
0.0188187
0.0175569
0.0161385
0.0144709
0.0124419
0.00992924
0.00689611
0.00335824
0.000343404
0.00062932
0.00518069
0.00938818
0.013504
0.0168493
0.0194009
0.0213462
0.0228589
0.0239998
0.0247794
0.0253414
0.0257354
0.0259432
0.0259027
0.0256069
0.0251199
0.0245046
0.0236627
0.022487
0.0212155
0.0200155
0.0188212
0.0175588
0.0161472
0.0144882
0.0124719
0.0100061
0.00703847
0.00351034
0.000348475
0.000635964
0.00510158
0.00917318
0.0132144
0.0165015
0.0189949
0.0209084
0.0223784
0.0234765
0.0242966
0.0248989
0.0252953
0.0254345
0.0253207
0.0250178
0.024584
0.0240528
0.023399
0.0224195
0.0212311
0.0200356
0.0188465
0.0175951
0.0161955
0.0145567
0.0125731
0.0101442
0.0071743
0.00359652
0.000354025
0.000639928
0.0049483
0.00880299
0.012721
0.0158883
0.0183044
0.0201792
0.0217001
0.0228954
0.023793
0.0244121
0.0247433
0.0248062
0.0246802
0.0244102
0.0240281
0.0235495
0.0229809
0.022238
0.0212078
0.0200573
0.0188826
0.0176362
0.0162427
0.0146222
0.0126643
0.0102474
0.00725639
0.00363016
0.00035811
0.000640916
0.00476089
0.0083447
0.0120225
0.0150602
0.0174054
0.0194321
0.021091
0.0223721
0.0232865
0.0238369
0.0240901
0.0241405
0.0240345
0.0238045
0.0234684
0.0230365
0.0225219
0.0219162
0.0210974
0.0200581
0.018882
0.0176324
0.016246
0.014648
0.0127171
0.0103111
0.00730941
0.00366236
0.000361228
0.000642358
0.00460547
0.00789477
0.0112499
0.0141451
0.016607
0.0189172
0.0206469
0.0218796
0.0226998
0.0231794
0.0234174
0.0234791
0.0233995
0.0232039
0.0229089
0.0225262
0.0220679
0.0215349
0.0208779
0.0199641
0.0188414
0.0175974
0.0162195
0.0146381
0.0127267
0.0103411
0.00734481
0.00368119
0.000360571
0.000636473
0.00441047
0.00759111
0.0106507
0.0134686
0.016003
0.0184124
0.0201247
0.0213187
0.022031
0.0224982
0.0227485
0.0228284
0.0227719
0.0226067
0.0223512
0.0220199
0.021623
0.021152
0.0205688
0.0197832
0.0187678
0.0175457
0.0161781
0.0145945
0.0126948
0.0103363
0.00736077
0.00369354
0.000358821
0.000631659
0.00447826
0.00759528
0.0104627
0.0132208
0.0157988
0.0179961
0.0196115
0.0206154
0.0213502
0.0218209
0.0220847
0.0221805
0.022145
0.0220083
0.0217925
0.0215146
0.0211831
0.0207775
0.0202445
0.0195414
0.0186315
0.0174564
0.0160866
0.0145086
0.0126258
0.0103006
0.00735959
0.0037012
0.000357118
0.000625994
0.00462761
0.00777425
0.0106096
0.0133429
0.0157199
0.0176196
0.0189746
0.019978
0.0206843
0.0211507
0.021419
0.0215264
0.0215103
0.0214013
0.0212243
0.0209999
0.0207341
0.0203961
0.0199079
0.0192424
0.0183956
0.0172614
0.0159115
0.0143551
0.0125005
0.0102011
0.00728274
0.00366652
0.000354691
0.000613631
0.00480258
0.00822311
0.0110097
0.0134629
0.0155418
0.0171857
0.0184307
0.019363
0.0200286
0.0204762
0.0207416
0.0208585
0.0208603
0.0207773
0.0206367
0.0204615
0.0202538
0.0199736
0.0195194
0.0188776
0.0180262
0.0169276
0.0156371
0.014125
0.0122994
0.0100268
0.00714947
0.0036033
0.000351399
0.000602529
0.00496067
0.00863831
0.0113595
0.0135662
0.0153682
0.0167987
0.0179003
0.0187483
0.0193638
0.0197867
0.0200471
0.020172
0.0201903
0.0201311
0.0200232
0.0198896
0.0197261
0.0194817
0.0190486
0.0184201
0.0175675
0.0165301
0.015306
0.0138432
0.0120542
0.00981863
0.00699549
0.0035298
0.000347656
0.000595756
0.0050081
0.00877769
0.0114367
0.0134801
0.0150967
0.0163603
0.0173448
0.0181133
0.0186812
0.0190803
0.019335
0.0194665
0.0194996
0.0194623
0.0193841
0.0192837
0.0191499
0.0189207
0.0185073
0.0178989
0.0170921
0.0161213
0.0149569
0.0135417
0.0117937
0.0096025
0.00684063
0.00345717
0.000343869
0.000587421
0.00490563
0.00865479
0.0112697
0.0132088
0.0146987
0.0158485
0.0167487
0.0174542
0.0179823
0.0183604
0.0186087
0.0187449
0.0187917
0.0187765
0.0187268
0.0186531
0.0185385
0.0183188
0.0179265
0.0173688
0.0166297
0.0157219
0.0146101
0.0132399
0.0115342
0.0093908
0.00669278
0.00339072
0.000340331
0.000573091
0.00467574
0.0083225
0.0108952
0.0127727
0.0141889
0.0152716
0.0161163
0.016776
0.0172731
0.0176322
0.0178726
0.0180124
0.0180735
0.0180822
0.018062
0.0180133
0.0179149
0.0177072
0.0173532
0.016857
0.0161869
0.0153353
0.0142694
0.0129407
0.0112771
0.00918299
0.00655081
0.00333002
0.000337223
0.000553019
0.00439095
0.00788467
0.0103997
0.0122335
0.0136064
0.0146506
0.0154591
0.0160856
0.016558
0.0168996
0.0171316
0.0172745
0.0173508
0.0173861
0.0173975
0.0173779
0.0173019
0.0171105
0.0168086
0.0163655
0.0157536
0.0149488
0.0139242
0.0126355
0.0110145
0.00897243
0.00641014
0.00327199
0.000334584
0.000530913
0.00410544
0.0074204
0.00985713
0.0116476
0.0129878
0.0140051
0.0147873
0.0153879
0.0158403
0.0161656
0.0163889
0.0165347
0.0166267
0.0166887
0.0167313
0.0167434
0.0166917
0.0165272
0.016279
0.0158796
0.0153082
0.0145446
0.0135626
0.0123156
0.0107405
0.00875511
0.00626773
0.00321404
0.000332391
0.000508878
0.00384271
0.00697133
0.00931127
0.0110497
0.0123562
0.0133481
0.0141068
0.0146854
0.0151213
0.0154317
0.0156463
0.0157942
0.0159006
0.0159861
0.0160559
0.016097
0.0160672
0.0159539
0.0157394
0.0153718
0.0148392
0.0141209
0.0131837
0.0119819
0.0104583
0.00853524
0.00612562
0.00315596
0.000330629
0.000487724
0.00360615
0.00655081
0.00878146
0.0104568
0.0117233
0.0126862
0.0134201
0.0139777
0.0143993
0.0146968
0.0149028
0.0150512
0.0151699
0.0152752
0.0153697
0.0154369
0.0154335
0.0153847
0.0151847
0.0148508
0.0143636
0.0136922
0.0128012
0.0116481
0.0101821
0.00832617
0.00599321
0.0031021
0.000329347
0.000467598
0.00339052
0.00615739
0.00827157
0.00987394
0.0110922
0.0120198
0.0127252
0.0132606
0.0136693
0.0139564
0.014155
0.0143026
0.0144307
0.0145529
0.0146705
0.0147648
0.0148141
0.0147905
0.0146228
0.0143362
0.0138966
0.0132726
0.0124318
0.0113328
0.00993158
0.00815594
0.00589941
0.00306973
0.000329173
0.000448141
0.00319077
0.00578558
0.00777943
0.00930041
0.0104613
0.0113452
0.0120163
0.0125262
0.0129213
0.0132024
0.0133966
0.0135436
0.0136797
0.0138177
0.0139586
0.0140831
0.0141889
0.0141783
0.0140642
0.0138324
0.0134473
0.0128798
0.0120921
0.0110577
0.00972617
0.00801518
0.00582815
0.00305543
0.000330264
0.000429917
0.00299383
0.00542669
0.00729951
0.00873247
0.00982663
0.0106574
0.0112864
0.0117664
0.0121437
0.0124224
0.0126177
0.0127686
0.0129151
0.0130739
0.0132422
0.0134056
0.0135283
0.0135602
0.0135117
0.0133465
0.0130302
0.0125372
0.0118255
0.0108416
0.00953223
0.00785855
0.00574305
0.00304886
0.000333444
0.000412284
0.00279954
0.0050758
0.00682696
0.00816531
0.00918306
0.00995117
0.0105302
0.0109744
0.0113294
0.0116021
0.0118086
0.0119732
0.0121379
0.0123222
0.0125151
0.0127007
0.0128406
0.0129433
0.0129727
0.0128854
0.0126685
0.0122338
0.0115648
0.0106164
0.00933807
0.00770665
0.00564076
0.00301392
0.000337724
0.000394706
0.00260274
0.00472903
0.00635758
0.00759437
0.00852626
0.00922263
0.00974496
0.0101506
0.0104729
0.0107394
0.0109631
0.0111565
0.0113476
0.0115593
0.011773
0.0119656
0.0121606
0.0123432
0.0124501
0.0124741
0.0123137
0.0119264
0.0113064
0.0103619
0.00911995
0.00755001
0.00555232
0.00298541
0.00034027
0.000377744
0.00240938
0.00438539
0.00588805
0.00701607
0.00785362
0.00847143
0.00893096
0.0092914
0.00957523
0.00983531
0.0100865
0.0103192
0.0105454
0.0107772
0.0110028
0.0112289
0.0115024
0.0117594
0.0119749
0.0120676
0.0119603
0.0115804
0.0109525
0.0100667
0.0089149
0.007429
0.0054886
0.00296945
0.000343623
0.000360808
0.00221875
0.00404352
0.00541548
0.00642729
0.00716357
0.00769686
0.00809453
0.00839667
0.00864136
0.00890075
0.00918559
0.00946624
0.00973281
0.00999101
0.0102424
0.0105373
0.0108639
0.0112472
0.0115089
0.0116322
0.0115159
0.0111395
0.0105653
0.0097518
0.00868016
0.00726751
0.00541936
0.0029717
0.000350007
0.000343585
0.00202797
0.00370069
0.00493547
0.0058232
0.00645354
0.00689996
0.00723783
0.00747714
0.00768804
0.00795559
0.00826988
0.0085998
0.00891465
0.00921988
0.00953505
0.00986601
0.0103219
0.0107363
0.0110327
0.0111572
0.0109971
0.0106723
0.0101289
0.00938446
0.00835665
0.00705392
0.00534702
0.00298675
0.000369135
0.000326348
0.00183774
0.00335298
0.00444157
0.00519834
0.00571731
0.00608882
0.00636369
0.00653855
0.00673402
0.00701954
0.00735207
0.00773773
0.00810184
0.00846846
0.00884507
0.00930155
0.00982626
0.0102455
0.0105367
0.0105952
0.0104734
0.0101528
0.00967516
0.00890262
0.00791704
0.00674024
0.0052516
0.0031087
0.0003944
0.000308947
0.0016468
0.00299646
0.00393066
0.0045459
0.00495423
0.00526841
0.00547096
0.00560867
0.00580104
0.00611574
0.00646454
0.00690496
0.00733218
0.0077832
0.00827685
0.00885047
0.00936712
0.0097754
0.0100254
0.0100553
0.00993223
0.00966207
0.00908971
0.00831276
0.00740513
0.00632939
0.00497209
0.00300662
0.000414468
0.000290656
0.00145843
0.00263324
0.00339912
0.00385772
0.00419599
0.00443286
0.00458421
0.00470987
0.00492371
0.00528509
0.00567231
0.00617378
0.00672166
0.00729675
0.00789045
0.00848297
0.00897688
0.00933645
0.00952898
0.00958848
0.00946151
0.00905321
0.00844119
0.00771086
0.00691226
0.00596486
0.00467199
0.0024681
0.000409928
0.000272055
0.00128097
0.00225596
0.00282663
0.00316779
0.00343272
0.00362331
0.00374241
0.003885
0.00417857
0.00459473
0.00509249
0.00572156
0.00639456
0.00704239
0.0076728
0.00825304
0.00874207
0.00906299
0.00920579
0.00917247
0.00893016
0.00848612
0.00792325
0.00728623
0.00659516
0.00572102
0.00447847
0.00197464
0.00036724
0.000254082
0.00108086
0.00184016
0.00220588
0.00249304
0.00269994
0.00286592
0.00299856
0.00324004
0.00367698
0.00421791
0.00492618
0.00566317
0.00635028
0.00700554
0.00761755
0.00815295
0.00856248
0.00882077
0.00890995
0.00883712
0.00859673
0.00823323
0.00776828
0.00722636
0.00658965
0.00571553
0.0042598
0.00179725
0.000347259
0.000233465
0.000831596
0.00136982
0.00163047
0.00185423
0.00201977
0.0022022
0.00247472
0.00292942
0.00357285
0.00440094
0.00515502
0.0058487
0.00650699
0.00711666
0.00768183
0.00819554
0.0085898
0.00881824
0.00890703
0.00887778
0.0087169
0.00843315
0.00801765
0.00746156
0.00673553
0.0056623
0.0040576
0.00189063
0.000404196
0.000211149
0.000581225
0.000935433
0.00111814
0.00128346
0.00148035
0.00179298
0.00236879
0.00317726
0.00404982
0.00485318
0.00558276
0.00624818
0.00685318
0.00743048
0.00799557
0.00852366
0.00895459
0.00921744
0.00937028
0.00941248
0.00928988
0.00896376
0.00842247
0.0077019
0.00672523
0.00547195
0.00401185
0.00240818
0.000468632
0.000190623
0.000386665
0.000589459
0.000721726
0.000907329
0.00129028
0.00203063
0.00295019
0.00386487
0.00477019
0.00553009
0.00618008
0.00677488
0.00736509
0.00796975
0.00859213
0.00919482
0.00969358
0.010038
0.0102585
0.0102902
0.0100413
0.00951257
0.00874934
0.00772922
0.00657331
0.00532287
0.00408174
0.00283232
0.000506497
0.000172054
0.000267307
0.000378316
0.000548317
0.000984389
0.00178386
0.00279445
0.00387533
0.00480746
0.00557692
0.00623834
0.00684142
0.00744391
0.00807753
0.00875425
0.00946365
0.010154
0.0107397
0.0111374
0.0112787
0.0111223
0.0106724
0.00992115
0.00888345
0.00772293
0.00648847
0.0053829
0.00434713
0.00312691
0.000526493
0.000154436
0.000194915
0.000337113
0.000732058
0.00159678
0.00277833
0.00390612
0.00484729
0.00565968
0.00635927
0.00697408
0.00756978
0.00821876
0.00893035
0.00970687
0.0105234
0.0113134
0.0119086
0.0121487
0.0120781
0.0117373
0.0111338
0.0102288
0.00909856
0.00784148
0.00659141
0.00552474
0.00458654
0.00329838
0.000537586
0.000134629
0.000193489
0.000476189
0.00138191
0.00271129
0.0038284
0.0048147
0.00568257
0.00642747
0.0070721
0.00766882
0.00831421
0.0090511
0.00986559
0.0107581
0.011688
0.0124712
0.0128723
0.0128816
0.012641
0.0121971
0.0115238
0.0105756
0.00938471
0.00807505
0.00681129
0.0056975
0.00471187
0.00336285
0.000542617
0.000118711
0.000264125
0.00098433
0.0023894
0.0035675
0.00461478
0.0055391
0.0063424
0.00704233
0.00767485
0.00832523
0.0090757
0.00991292
0.0108282
0.0118162
0.0127688
0.0133724
0.0135414
0.0134073
0.0130609
0.0125447
0.0118043
0.0107862
0.00964316
0.00835538
0.00708077
0.00590297
0.00486268
0.00339552
0.000543591
0.000121244
0.00055471
0.00185496
0.00307491
0.00419441
0.00519946
0.00608786
0.00686228
0.00755442
0.0082344
0.00899596
0.00984218
0.0107599
0.0117452
0.0127774
0.0136073
0.0139961
0.0140063
0.0137433
0.0132732
0.0126753
0.0118951
0.0109574
0.00985198
0.00862122
0.00734638
0.00610536
0.00496895