/*--------------------------------*- C++ -*----------------------------------*\
| =========                 |                                                 |
| \\      /  F ield         | OpenFOAM: The Open Source CFD Toolbox           |
|  \\    /   O peration     | Version:  2.3.0                                 |
|   \\  /    A nd           | Web:      www.OpenFOAM.org                      |
|    \\/     M anipulation  |                                                 |
\*---------------------------------------------------------------------------*/
FoamFile
{
    version     2.0;
    format      ascii;
    class       volScalarField;
    location    "1.54";
    object      p;
}
// * * * * * * * * * * * * * * * * * * * * * * * * * * * * * * * * * * * * * //

dimensions      [1 -1 -2 0 0 0 0];

internalField   nonuniform List<scalar> 
6000
(
106640
106634
106625
106615
106605
106596
106587
106576
106566
106564
106572
106578
106586
106597
106607
106615
106623
106631
106640
106645
106645
106642
106639
106636
106627
106600
106562
106529
106512
106505
106583
106578
106570
106562
106553
106543
106531
106518
106505
106497
106494
106501
106510
106521
106532
106540
106549
106556
106563
106568
106571
106572
106569
106561
106548
106523
106492
106470
106462
106458
106555
106549
106540
106530
106520
106510
106498
106481
106464
106454
106450
106454
106463
106474
106481
106484
106484
106487
106493
106500
106506
106513
106513
106510
106500
106479
106449
106431
106424
106421
106512
106508
106500
106491
106482
106471
106456
106436
106415
106404
106398
106390
106387
106388
106388
106380
106375
106374
106379
106389
106401
106415
106424
106431
106433
106421
106399
106388
106383
106381
106435
106435
106434
106433
106429
106420
106404
106382
106361
106351
106345
106334
106322
106312
106306
106302
106299
106297
106296
106297
106300
106310
106324
106340
106355
106357
106348
106345
106342
106341
106330
106332
106336
106343
106347
106345
106336
106321
106307
106299
106294
106286
106275
106264
106258
106257
106256
106254
106251
106245
106237
106227
106219
106227
106261
106279
106289
106298
106300
106300
106182
106192
106208
106230
106247
106260
106264
106262
106256
106249
106246
106240
106231
106223
106221
106222
106222
106221
106216
106206
106189
106165
106135
106119
106137
106179
106215
106239
106248
106251
106042
106047
106060
106088
106136
106173
106195
106207
106208
106202
106197
106192
106184
106180
106184
106187
106188
106184
106174
106157
106134
106103
106071
106058
106058
106076
106128
106166
106182
106187
106004
106005
106009
106016
106035
106084
106127
106153
106161
106154
106149
106142
106135
106134
106143
106146
106143
106130
106112
106088
106063
106035
106014
106010
106011
106015
106048
106087
106108
106113
105991
105992
105993
105995
105999
106014
106061
106099
106115
106108
106101
106092
106086
106086
106091
106091
106079
106060
106035
106009
105985
105967
105959
105961
105964
105968
105987
106016
106038
106044
105982
105982
105984
105985
105986
105988
106007
106048
106069
106065
106055
106045
106038
106036
106032
106025
106010
105988
105962
105937
105919
105909
105908
105912
105915
105920
105929
105952
105973
105982
105972
105973
105974
105975
105976
105976
105981
106004
106025
106026
106012
106000
105993
105988
105979
105966
105946
105923
105900
105881
105869
105862
105861
105864
105867
105870
105868
105888
105910
105921
105962
105962
105963
105965
105966
105966
105966
105974
105988
105989
105971
105958
105951
105945
105935
105916
105891
105867
105849
105836
105827
105821
105818
105820
105820
105821
105816
105829
105848
105859
105952
105952
105953
105954
105955
105954
105953
105954
105956
105949
105931
105919
105913
105907
105894
105870
105842
105820
105805
105795
105788
105782
105778
105778
105778
105778
105775
105777
105791
105800
105942
105942
105942
105942
105941
105940
105938
105934
105926
105908
105890
105880
105875
105870
105855
105825
105797
105778
105766
105757
105751
105745
105741
105739
105738
105738
105738
105734
105742
105749
105931
105931
105930
105929
105926
105923
105919
105910
105892
105864
105847
105840
105838
105831
105811
105780
105756
105740
105729
105722
105716
105710
105706
105704
105703
105702
105702
105700
105703
105702
105919
105918
105917
105915
105911
105904
105895
105879
105852
105819
105805
105800
105797
105788
105764
105735
105715
105701
105692
105686
105682
105677
105674
105671
105670
105669
105670
105670
105670
105666
105903
105903
105902
105899
105894
105884
105868
105842
105807
105774
105765
105759
105752
105738
105715
105690
105671
105657
105649
105647
105647
105647
105646
105641
105639
105639
105641
105643
105641
105635
105882
105883
105883
105879
105868
105850
105827
105795
105759
105734
105724
105714
105699
105682
105663
105637
105615
105599
105593
105595
105604
105615
105619
105616
105613
105613
105615
105619
105613
105606
105852
105853
105848
105827
105801
105778
105757
105737
105715
105693
105678
105661
105640
105623
105603
105569
105541
105524
105518
105523
105541
105569
105588
105590
105588
105588
105590
105590
105578
105569
105808
105802
105776
105746
105719
105697
105678
105664
105658
105646
105625
105600
105576
105557
105530
105484
105446
105426
105424
105432
105453
105488
105527
105548
105552
105553
105552
105537
105514
105506
105737
105718
105689
105662
105639
105616
105596
105583
105580
105585
105564
105535
105509
105484
105440
105369
105309
105289
105303
105324
105349
105379
105414
105445
105459
105461
105450
105428
105413
105411
105629
105612
105593
105578
105559
105534
105511
105494
105488
105492
105491
105465
105435
105397
105322
105235
105202
105195
105200
105218
105238
105259
105274
105284
105275
105267
105263
105266
105271
105285
105502
105494
105489
105483
105467
105440
105414
105397
105391
105394
105397
105386
105353
105296
105207
105170
105162
105159
105158
105161
105167
105174
105178
105179
105178
105177
105175
105173
105174
105180
105374
105374
105376
105369
105350
105325
105303
105291
105289
105294
105299
105295
105263
105203
105155
105145
105144
105143
105141
105139
105140
105141
105143
105144
105146
105147
105146
105144
105144
105145
105254
105258
105255
105239
105219
105199
105184
105178
105182
105193
105205
105208
105188
105149
105131
105129
105128
105128
105128
105127
105127
105128
105129
105130
105132
105132
105132
105131
105130
105131
105137
105139
105122
105101
105083
105069
105061
105062
105073
105092
105115
105133
105135
105119
105113
105113
105113
105113
105114
105115
105115
105115
105116
105117
105118
105119
105118
105118
105117
105117
105011
104999
104977
104958
104944
104938
104939
104948
104965
104993
105032
105069
105098
105098
105097
105097
105098
105099
105100
105101
105101
105102
105102
105103
105103
105104
105104
105104
105103
105102
104859
104842
104822
104808
104803
104808
104821
104841
104867
104904
104955
105016
105074
105078
105078
105079
105082
105084
105085
105086
105085
105086
105086
105086
105087
105087
105088
105087
105087
105086
104686
104671
104657
104650
104655
104672
104701
104739
104784
104831
104890
104969
105043
105049
105053
105058
105063
105066
105067
105067
105067
105067
105067
105067
105068
105068
105069
105069
105067
105066
104501
104490
104481
104481
104492
104517
104561
104621
104695
104769
104844
104937
104983
105002
105018
105029
105037
105041
105042
105042
105043
105044
105045
105045
105046
105047
105047
105046
105044
105042
104310
104302
104295
104295
104305
104332
104382
104458
104558
104675
104798
104886
104922
104945
104966
104983
104995
105002
105005
105009
105012
105015
105018
105020
105020
105021
105020
105019
105016
105013
104117
104110
104101
104095
104096
104116
104164
104249
104368
104513
104681
104821
104863
104881
104894
104913
104930
104943
104953
104963
104971
104978
104983
104986
104987
104987
104986
104983
104979
104977
103927
103919
103906
103893
103890
103914
103954
104017
104133
104296
104490
104685
104785
104808
104810
104819
104837
104858
104880
104898
104912
104924
104932
104937
104939
104939
104937
104932
104929
104929
103746
103736
103724
103721
103737
103765
103800
103846
103914
104042
104239
104451
104632
104709
104719
104717
104730
104755
104784
104808
104827
104842
104853
104861
104864
104864
104862
104860
104862
104866
103578
103575
103577
103594
103624
103657
103692
103726
103760
103828
103969
104172
104366
104517
104598
104612
104621
104643
104671
104697
104717
104734
104747
104756
104760
104761
104762
104767
104774
104785
103431
103445
103467
103500
103535
103572
103606
103633
103652
103674
103745
103892
104079
104251
104389
104472
104504
104528
104555
104580
104601
104620
104634
104643
104646
104648
104653
104665
104676
104686
103309
103341
103379
103416
103454
103490
103522
103545
103553
103553
103569
103645
103798
103982
104145
104273
104359
104409
104440
104465
104485
104505
104521
104532
104539
104546
104557
104569
104579
104584
103243
103258
103295
103332
103366
103397
103422
103439
103443
103430
103415
103435
103527
103718
103911
104071
104198
104288
104334
104362
104383
104404
104422
104436
104449
104461
104472
104481
104486
104486
103220
103223
103232
103250
103276
103299
103318
103325
103323
103309
103299
103302
103342
103463
103684
103880
104037
104162
104237
104272
104299
104323
104343
104360
104374
104384
104392
104398
104401
104400
103211
103211
103210
103214
103221
103231
103240
103244
103243
103243
103246
103252
103267
103323
103472
103703
103884
104028
104131
104180
104216
104244
104267
104287
104302
104312
104317
104321
104324
104325
103205
103204
103203
103202
103202
103204
103207
103211
103215
103220
103227
103233
103241
103268
103355
103554
103749
103899
104015
104084
104123
104154
104181
104205
104225
104238
104245
104248
104249
104253
103199
103199
103198
103197
103196
103196
103198
103202
103207
103212
103218
103223
103228
103245
103308
103464
103642
103789
103905
103984
104027
104059
104088
104115
104138
104155
104166
104171
104174
104178
103193
103193
103192
103192
103192
103192
103194
103197
103201
103205
103209
103213
103218
103232
103290
103422
103571
103703
103812
103890
103933
103964
103995
104022
104046
104064
104078
104089
104097
104103
103187
103187
103186
103186
103186
103187
103188
103191
103194
103197
103200
103203
103208
103223
103285
103403
103528
103640
103737
103801
103841
103875
103906
103934
103957
103977
103997
104014
104026
104037
103181
103180
103180
103180
103180
103181
103182
103184
103186
103189
103191
103194
103199
103215
103276
103394
103501
103591
103663
103716
103759
103796
103830
103858
103882
103904
103927
103949
103967
103981
103174
103173
103173
103173
103173
103174
103175
103177
103178
103180
103182
103184
103189
103206
103261
103357
103450
103527
103589
103642
103689
103730
103765
103795
103819
103843
103867
103891
103912
103916
103167
103166
103166
103166
103167
103167
103168
103169
103171
103172
103173
103175
103179
103196
103246
103321
103397
103465
103524
103578
103626
103668
103704
103733
103757
103783
103808
103830
103840
103843
103159
103158
103159
103159
103159
103160
103161
103162
103163
103164
103164
103165
103170
103185
103229
103290
103354
103414
103470
103520
103564
103602
103635
103663
103689
103716
103741
103755
103762
103764
103152
103151
103151
103152
103152
103153
103154
103154
103155
103155
103156
103156
103160
103173
103211
103260
103314
103367
103416
103460
103500
103535
103565
103592
103621
103649
103667
103678
103683
103682
103144
103143
103144
103145
103145
103146
103147
103147
103148
103147
103147
103147
103149
103160
103191
103231
103276
103321
103364
103404
103440
103472
103500
103528
103560
103581
103596
103603
103604
103598
103138
103136
103137
103138
103139
103139
103140
103140
103140
103140
103139
103138
103138
103146
103167
103200
103237
103276
103314
103351
103384
103414
103442
103474
103499
103516
103526
103530
103527
103518
103131
103130
103131
103131
103132
103133
103133
103134
103133
103133
103132
103131
103128
103131
103138
103160
103194
103230
103266
103301
103333
103363
103394
103420
103439
103452
103458
103458
103451
103448
103125
103124
103125
103125
103126
103126
103127
103127
103127
103127
103126
103125
103121
103115
103112
103116
103140
103180
103219
103254
103286
103317
103345
103366
103382
103391
103394
103391
103390
103388
103119
103118
103118
103119
103119
103120
103121
103122
103122
103122
103122
103119
103111
103101
103095
103095
103104
103132
103172
103208
103242
103273
103298
103316
103328
103335
103335
103335
103336
103337
103113
103112
103112
103112
103113
103114
103116
103117
103117
103117
103115
103109
103099
103090
103086
103086
103086
103099
103130
103167
103203
103234
103257
103272
103281
103285
103286
103286
103288
103290
103107
103106
103106
103106
103106
103108
103110
103112
103111
103109
103103
103092
103083
103080
103079
103079
103079
103082
103100
103135
103170
103201
103222
103233
103239
103241
103242
103242
103244
103245
103100
103099
103099
103099
103099
103100
103102
103102
103100
103094
103084
103075
103071
103072
103072
103073
103073
103073
103083
103109
103145
103173
103188
103196
103199
103200
103202
103202
103202
103204
103094
103093
103092
103092
103091
103091
103089
103085
103080
103072
103065
103063
103063
103065
103066
103066
103067
103067
103069
103086
103118
103141
103154
103159
103160
103161
103163
103164
103163
103166
103088
103087
103086
103085
103084
103080
103074
103066
103059
103055
103054
103055
103057
103058
103059
103060
103061
103061
103061
103067
103088
103112
103122
103124
103124
103125
103127
103129
103129
103131
103082
103081
103080
103079
103075
103068
103059
103051
103047
103047
103048
103049
103050
103052
103053
103054
103054
103055
103055
103057
103068
103087
103094
103094
103094
103094
103094
103095
103096
103097
103070
103073
103072
103069
103063
103053
103045
103041
103041
103041
103042
103043
103044
103045
103046
103047
103048
103049
103050
103051
103056
103067
103069
103069
103068
103066
103064
103064
103064
103065
103046
103055
103056
103052
103044
103037
103034
103034
103035
103035
103036
103037
103038
103039
103040
103041
103042
103044
103045
103046
103048
103051
103049
103048
103044
103040
103037
103036
103035
103035
103020
103029
103031
103028
103025
103025
103026
103027
103028
103029
103030
103032
103033
103034
103035
103036
103037
103038
103040
103042
103042
103040
103035
103029
103023
103017
103013
103008
103004
103002
103007
103010
103011
103012
103014
103016
103019
103021
103022
103023
103024
103026
103027
103028
103029
103030
103031
103033
103035
103037
103037
103030
103018
103007
102997
102989
102981
102974
102969
102966
103001
103001
103003
103005
103008
103010
103012
103014
103016
103017
103018
103020
103021
103022
103023
103025
103026
103027
103030
103033
103030
103014
102997
102980
102966
102954
102944
102935
102929
102926
102998
102998
102999
103001
103003
103005
103006
103008
103010
103011
103012
103014
103015
103016
103018
103019
103020
103022
103025
103028
103016
102993
102970
102949
102931
102916
102904
102894
102888
102884
102994
102994
102995
102996
102998
102999
103001
103002
103004
103005
103006
103007
103009
103010
103012
103013
103015
103016
103019
103023
102998
102968
102939
102915
102894
102877
102863
102852
102845
102841
102990
102991
102991
102992
102993
102994
102995
102997
102998
102999
103000
103001
103003
103004
103006
103007
103009
103011
103014
103015
102978
102939
102908
102880
102857
102838
102822
102809
102800
102795
102986
102986
102987
102987
102988
102989
102990
102991
102992
102993
102994
102995
102996
102997
102999
103001
103002
103004
103007
103001
102956
102912
102877
102847
102821
102798
102779
102763
102752
102747
102981
102981
102982
102982
102983
102983
102984
102985
102986
102986
102987
102988
102989
102990
102992
102994
102995
102997
102998
102983
102933
102887
102849
102814
102783
102755
102732
102713
102700
102694
102976
102976
102976
102976
102977
102978
102978
102979
102980
102980
102981
102981
102982
102983
102984
102986
102988
102990
102987
102962
102909
102861
102817
102775
102737
102704
102677
102656
102642
102635
102970
102970
102970
102971
102971
102972
102972
102973
102973
102974
102974
102974
102974
102975
102976
102977
102979
102981
102973
102934
102878
102823
102771
102722
102679
102643
102613
102592
102579
102572
102964
102964
102964
102965
102965
102965
102966
102966
102967
102967
102967
102967
102966
102966
102967
102968
102970
102968
102953
102897
102833
102770
102712
102658
102613
102577
102546
102525
102511
102505
102958
102958
102958
102959
102959
102959
102959
102960
102960
102960
102960
102959
102958
102957
102957
102957
102957
102950
102918
102847
102773
102704
102644
102594
102550
102513
102483
102459
102444
102436
102952
102952
102952
102952
102952
102952
102953
102953
102953
102953
102952
102951
102949
102947
102945
102944
102940
102928
102865
102782
102701
102636
102579
102528
102486
102450
102420
102395
102378
102369
102945
102945
102945
102945
102945
102946
102946
102945
102945
102945
102944
102942
102939
102936
102932
102928
102918
102885
102798
102706
102630
102568
102516
102472
102434
102397
102362
102333
102312
102300
102938
102938
102938
102938
102938
102938
102938
102938
102937
102936
102935
102932
102927
102921
102914
102904
102888
102818
102719
102628
102559
102506
102464
102424
102380
102338
102299
102267
102242
102227
102931
102931
102931
102931
102931
102931
102930
102930
102928
102927
102924
102917
102909
102899
102887
102871
102831
102735
102632
102552
102493
102448
102408
102357
102303
102251
102207
102173
102149
102136
102924
102924
102924
102924
102924
102923
102922
102921
102919
102915
102907
102895
102880
102864
102848
102823
102744
102639
102542
102474
102426
102383
102332
102267
102200
102140
102091
102056
102034
102024
102917
102917
102917
102916
102916
102915
102914
102911
102907
102898
102882
102858
102835
102815
102794
102741
102640
102536
102451
102395
102349
102305
102235
102156
102079
102011
101956
101919
101896
101885
102909
102909
102909
102909
102908
102907
102904
102900
102891
102872
102840
102806
102778
102755
102717
102631
102527
102430
102358
102308
102268
102206
102121
102031
101946
101871
101811
101771
101739
101703
102901
102901
102901
102900
102899
102897
102893
102884
102865
102828
102785
102746
102716
102682
102612
102514
102414
102327
102265
102218
102173
102092
101996
101899
101810
101736
101685
101655
101639
101629
102892
102892
102892
102891
102889
102884
102875
102857
102819
102769
102721
102682
102646
102587
102498
102398
102302
102224
102167
102123
102064
101972
101872
101774
101690
101631
101601
101591
101590
101592
102882
102882
102882
102880
102875
102864
102844
102808
102756
102703
102655
102612
102561
102481
102385
102285
102192
102118
102064
102021
101949
101854
101757
101671
101607
101573
101564
101563
101567
101572
102869
102870
102869
102864
102852
102827
102789
102740
102686
102633
102582
102532
102464
102375
102276
102175
102084
102011
101961
101915
101836
101744
101659
101594
101557
101548
101548
101550
101554
101558
102852
102852
102848
102833
102804
102764
102716
102664
102611
102557
102503
102443
102367
102274
102173
102071
101978
101908
101862
101809
101728
101646
101581
101547
101540
101539
101541
101543
101545
101547
102823
102821
102806
102772
102730
102685
102637
102586
102534
102479
102421
102356
102275
102179
102076
101972
101879
101808
101761
101701
101625
101567
101541
101535
101535
101536
101538
101538
101539
101540
102772
102762
102730
102688
102646
102602
102556
102507
102455
102399
102341
102274
102190
102091
101985
101880
101785
101712
101655
101596
101553
101537
101533
101533
101534
101535
101535
101536
101536
101536
102689
102669
102634
102597
102558
102517
102474
102427
102376
102322
102265
102199
102111
102009
101901
101793
101697
101620
101565
101542
101533
101531
101532
101532
101533
101533
101534
101534
101534
101534
102579
102559
102532
102501
102467
102430
102389
102345
102297
102248
102199
102133
102039
101933
101820
101710
101615
101555
101536
101531
101531
101531
101531
101532
101532
101532
101532
101532
101532
101532
102462
102444
102425
102400
102371
102337
102300
102262
102226
102188
102146
102074
101972
101861
101741
101629
101560
101536
101531
101530
101531
101531
101531
101531
101531
101531
101531
101531
101531
101531
102357
102338
102323
102304
102281
102255
102229
102202
102175
102146
102098
102010
101906
101793
101673
101579
101541
101531
101530
101530
101530
101530
101530
101530
101530
101530
101530
101530
101530
101530
102269
102259
102248
102232
102215
102197
102178
102160
102138
102105
102037
101945
101843
101735
101622
101556
101533
101529
101529
101529
101529
101529
101529
101529
101529
101529
101529
101529
101529
101529
102206
102201
102192
102180
102166
102152
102139
102124
102100
102049
101971
101880
101784
101677
101589
101542
101530
101528
101528
101528
101528
101528
101528
101528
101528
101528
101528
101528
101528
101528
102158
102153
102145
102134
102123
102112
102100
102084
102049
101987
101909
101825
101734
101641
101564
101533
101527
101527
101527
101527
101527
101527
101527
101527
101527
101527
101527
101527
101527
101527
102114
102109
102101
102091
102081
102069
102055
102034
101992
101929
101856
101780
101692
101605
101545
101528
101526
101526
101526
101526
101526
101526
101526
101526
101526
101526
101526
101526
101527
101526
102060
102059
102053
102044
102032
102018
102000
101976
101936
101876
101809
101733
101649
101572
101533
101525
101525
101526
101526
101526
101525
101525
101525
101526
101526
101526
101526
101525
101526
101526
101998
101998
101994
101986
101974
101959
101940
101914
101877
101824
101762
101690
101612
101547
101527
101525
101525
101525
101525
101525
101525
101525
101525
101525
101525
101525
101525
101525
101525
101525
101934
101936
101932
101925
101915
101900
101881
101854
101818
101772
101715
101650
101578
101534
101525
101525
101525
101524
101524
101524
101524
101524
101524
101524
101524
101524
101524
101524
101524
101524
101873
101873
101871
101865
101856
101843
101825
101800
101766
101724
101673
101615
101553
101529
101524
101524
101524
101524
101523
101523
101523
101523
101523
101523
101523
101523
101523
101523
101523
101523
101814
101814
101813
101808
101800
101788
101772
101749
101719
101681
101637
101586
101540
101526
101524
101524
101524
101523
101522
101522
101522
101522
101522
101522
101522
101522
101522
101522
101522
101522
101756
101756
101756
101752
101746
101736
101722
101703
101676
101644
101606
101563
101534
101525
101524
101523
101523
101522
101521
101521
101521
101521
101521
101521
101521
101521
101521
101521
101521
101521
101702
101699
101701
101699
101694
101686
101675
101659
101637
101611
101581
101548
101530
101524
101523
101522
101521
101520
101520
101519
101519
101519
101519
101520
101520
101520
101520
101520
101520
101520
101653
101648
101649
101648
101646
101641
101632
101618
101601
101582
101560
101538
101527
101523
101521
101520
101519
101519
101518
101518
101518
101518
101518
101518
101519
101519
101519
101518
101518
101519
101609
101605
101603
101603
101601
101598
101592
101582
101570
101558
101544
101532
101524
101521
101519
101518
101517
101517
101516
101516
101516
101516
101517
101517
101517
101517
101517
101517
101517
101517
101569
101567
101563
101562
101561
101559
101555
101548
101542
101536
101530
101525
101520
101517
101515
101515
101515
101515
101515
101515
101515
101515
101515
101515
101515
101515
101515
101515
101515
101516
101529
101530
101528
101526
101525
101523
101521
101518
101517
101517
101516
101515
101513
101512
101512
101512
101512
101513
101513
101513
101513
101513
101513
101513
101513
101514
101514
101514
101514
101514
101492
101494
101494
101492
101491
101491
101491
101492
101495
101497
101501
101503
101505
101507
101509
101510
101511
101511
101512
101512
101511
101511
101511
101511
101511
101512
101512
101512
101512
101512
101459
101460
101461
101461
101461
101462
101465
101468
101472
101477
101483
101489
101495
101501
101505
101507
101509
101510
101510
101510
101510
101509
101509
101509
101509
101510
101510
101510
101510
101510
101430
101429
101431
101432
101434
101436
101439
101444
101449
101455
101463
101473
101483
101494
101501
101505
101507
101508
101509
101508
101508
101507
101507
101507
101507
101507
101508
101508
101508
101508
101401
101400
101402
101404
101407
101411
101415
101420
101426
101433
101442
101454
101468
101482
101494
101502
101505
101506
101507
101506
101506
101505
101505
101505
101505
101505
101506
101506
101506
101506
101373
101372
101375
101378
101382
101386
101391
101397
101404
101412
101421
101434
101449
101466
101484
101497
101503
101505
101505
101504
101504
101503
101503
101503
101503
101503
101503
101504
101504
101504
101345
101345
101348
101351
101356
101361
101367
101374
101381
101391
101402
101415
101432
101450
101468
101485
101498
101502
101502
101502
101501
101501
101501
101501
101501
101501
101501
101501
101501
101501
101317
101318
101320
101324
101328
101334
101340
101348
101357
101368
101381
101395
101412
101431
101451
101472
101490
101498
101499
101499
101499
101499
101499
101498
101498
101499
101499
101499
101499
101499
101287
101288
101290
101294
101298
101304
101311
101319
101329
101341
101354
101371
101389
101411
101434
101458
101481
101492
101495
101496
101496
101496
101496
101496
101496
101496
101496
101496
101496
101496
101256
101257
101259
101262
101266
101271
101278
101286
101297
101309
101325
101343
101365
101390
101417
101445
101472
101486
101491
101493
101493
101494
101494
101494
101494
101494
101494
101494
101494
101493
101227
101227
101228
101230
101233
101238
101244
101252
101263
101277
101294
101315
101340
101369
101401
101433
101463
101480
101487
101489
101490
101491
101491
101491
101491
101491
101491
101491
101491
101490
101199
101199
101199
101200
101202
101206
101212
101221
101233
101249
101268
101291
101317
101348
101383
101421
101455
101474
101482
101485
101487
101488
101488
101489
101489
101488
101488
101488
101488
101487
101175
101174
101174
101174
101177
101181
101188
101198
101212
101229
101250
101275
101303
101335
101372
101413
101451
101471
101478
101481
101483
101484
101485
101485
101485
101485
101484
101484
101484
101483
101152
101152
101151
101152
101155
101160
101168
101179
101194
101212
101234
101259
101288
101323
101362
101406
101450
101471
101476
101477
101479
101480
101481
101481
101481
101480
101480
101480
101479
101478
101131
101130
101130
101130
101131
101135
101141
101150
101163
101180
101201
101227
101257
101292
101332
101377
101426
101465
101472
101473
101474
101475
101476
101476
101474
101473
101473
101473
101471
101469
101110
101109
101107
101105
101105
101106
101109
101116
101126
101140
101159
101183
101213
101248
101289
101337
101391
101444
101464
101466
101466
101467
101468
101468
101466
101464
101464
101461
101457
101453
101088
101086
101082
101079
101076
101074
101074
101077
101084
101096
101112
101134
101162
101197
101240
101290
101347
101410
101448
101456
101456
101456
101457
101455
101453
101452
101449
101444
101436
101432
101064
101061
101056
101049
101043
101038
101035
101035
101038
101046
101059
101079
101106
101141
101184
101235
101295
101362
101419
101437
101439
101440
101440
101438
101435
101433
101428
101420
101410
101405
101037
101033
101026
101017
101007
100999
100992
100987
100987
100990
101000
101017
101042
101076
101118
101170
101231
101300
101369
101406
101413
101414
101413
101412
101410
101407
101401
101389
101379
101373
101006
101001
100992
100980
100967
100955
100944
100935
100929
100928
100933
100946
100969
101000
101041
101091
101152
101223
101299
101355
101372
101376
101377
101378
101376
101372
101364
101352
101342
101335
100969
100964
100953
100939
100924
100909
100893
100878
100865
100857
100856
100865
100886
100916
100955
101002
101062
101133
101211
101281
101311
101322
101327
101328
101327
101323
101315
101306
101298
101291
100942
100936
100920
100900
100880
100859
100838
100816
100796
100777
100765
100774
100799
100831
100870
100914
100967
101036
101112
101181
101223
101243
101251
101251
101250
101250
101248
101245
101242
101239
100902
100898
100884
100859
100834
100809
100781
100753
100722
100692
100669
100680
100713
100751
100789
100831
100882
100943
101010
101069
101110
101136
101148
101151
101152
101156
101162
101168
101173
101176
100866
100860
100844
100817
100787
100756
100724
100689
100653
100621
100599
100604
100633
100675
100716
100757
100805
100860
100915
100961
100993
101020
101038
101050
101057
101060
101070
101082
101091
101098
100831
100824
100800
100769
100737
100702
100668
100633
100599
100574
100566
100566
100573
100603
100643
100683
100728
100779
100829
100866
100897
100922
100943
100960
100970
100973
100979
100995
101005
101012
100786
100782
100751
100718
100683
100650
100621
100590
100563
100545
100544
100543
100542
100548
100571
100606
100646
100693
100745
100786
100817
100842
100862
100878
100888
100894
100899
100912
100922
100926
100726
100722
100695
100662
100632
100603
100581
100560
100533
100521
100524
100524
100524
100524
100529
100542
100568
100608
100661
100710
100746
100770
100789
100804
100814
100822
100829
100836
100841
100843
100654
100649
100631
100606
100583
100564
100546
100527
100507
100504
100506
100507
100508
100510
100511
100516
100525
100547
100586
100637
100678
100704
100723
100737
100747
100755
100763
100763
100760
100754
100576
100573
100564
100551
100538
100525
100513
100498
100487
100488
100490
100492
100494
100497
100500
100503
100509
100519
100541
100578
100618
100644
100663
100676
100685
100691
100695
100689
100677
100659
100492
100496
100498
100497
100494
100489
100484
100475
100471
100473
100475
100478
100481
100484
100488
100492
100498
100504
100516
100540
100570
100593
100608
100620
100627
100630
100627
100616
100600
100593
100390
100413
100431
100444
100451
100455
100459
100457
100457
100459
100461
100464
100468
100472
100477
100481
100486
100490
100497
100511
100531
100548
100559
100568
100573
100573
100566
100553
100545
100546
100322
100341
100371
100395
100410
100422
100436
100440
100443
100446
100449
100452
100456
100460
100464
100468
100471
100474
100477
100483
100495
100507
100515