/*--------------------------------*- C++ -*----------------------------------*\
| =========                 |                                                 |
| \\      /  F ield         | OpenFOAM: The Open Source CFD Toolbox           |
|  \\    /   O peration     | Version:  2.3.0                                 |
|   \\  /    A nd           | Web:      www.OpenFOAM.org                      |
|    \\/     M anipulation  |                                                 |
\*---------------------------------------------------------------------------*/
FoamFile
{
    version     2.0;
    format      ascii;
    class       volScalarField;
    location    "1.21";
    object      p;
}
// * * * * * * * * * * * * * * * * * * * * * * * * * * * * * * * * * * * * * //

dimensions      [1 -1 -2 0 0 0 0];

internalField   nonuniform List<scalar> 
6000
(
107936
107932
107927
107924
107921
107920
107920
107917
107910
107902
107894
107886
107882
107881
107882
107883
107884
107885
107887
107888
107889
107890
107894
107902
107913
107922
107924
107922
107917
107914
107868
107864
107861
107859
107857
107852
107845
107836
107830
107826
107825
107826
107828
107831
107834
107838
107841
107844
107847
107849
107850
107852
107853
107852
107854
107858
107858
107856
107854
107854
107828
107824
107821
107821
107820
107813
107801
107793
107790
107790
107792
107796
107800
107804
107808
107813
107817
107821
107824
107825
107826
107826
107825
107825
107824
107823
107823
107822
107822
107821
107782
107780
107779
107781
107781
107771
107758
107756
107757
107760
107764
107769
107774
107779
107785
107790
107797
107802
107805
107805
107803
107802
107800
107800
107799
107799
107798
107796
107794
107793
107739
107738
107737
107737
107738
107728
107719
107719
107722
107728
107735
107743
107750
107757
107763
107770
107778
107784
107788
107787
107783
107780
107777
107777
107777
107778
107777
107773
107768
107766
107697
107698
107694
107688
107688
107682
107678
107680
107685
107693
107706
107718
107728
107735
107742
107749
107755
107760
107763
107764
107762
107758
107756
107755
107756
107755
107752
107747
107741
107738
107655
107657
107648
107638
107634
107632
107633
107638
107646
107657
107673
107689
107701
107709
107715
107717
107716
107716
107718
107723
107730
107731
107730
107729
107727
107719
107710
107709
107709
107707
107611
107609
107595
107581
107579
107583
107589
107595
107606
107620
107634
107647
107658
107665
107666
107660
107654
107652
107654
107659
107669
107678
107681
107678
107668
107653
107644
107645
107657
107660
107554
107550
107539
107529
107528
107535
107544
107553
107566
107579
107585
107585
107588
107590
107586
107579
107571
107570
107571
107574
107577
107583
107585
107581
107571
107563
107552
107546
107557
107566
107480
107479
107472
107473
107472
107479
107489
107501
107516
107521
107511
107503
107500
107494
107486
107473
107459
107455
107461
107462
107456
107449
107449
107452
107453
107447
107434
107427
107431
107436
107399
107391
107368
107389
107395
107393
107401
107412
107426
107423
107409
107402
107388
107368
107346
107328
107320
107322
107333
107345
107353
107359
107367
107377
107384
107384
107380
107377
107378
107379
107324
107303
107285
107288
107291
107292
107299
107305
107305
107301
107292
107284
107277
107273
107270
107271
107274
107278
107287
107301
107314
107325
107336
107346
107355
107359
107359
107358
107357
107357
107271
107258
107251
107248
107247
107249
107253
107254
107251
107247
107245
107243
107243
107244
107248
107252
107257
107263
107271
107283
107297
107308
107318
107327
107336
107342
107345
107345
107344
107343
107241
107236
107232
107230
107229
107230
107232
107231
107229
107228
107227
107228
107230
107233
107236
107240
107245
107250
107257
107268
107282
107292
107301
107309
107317
107325
107330
107332
107332
107331
107220
107217
107215
107214
107214
107214
107215
107215
107214
107214
107215
107216
107219
107221
107225
107228
107232
107236
107242
107251
107264
107275
107282
107288
107296
107304
107312
107317
107318
107319
107202
107198
107198
107198
107198
107198
107198
107199
107199
107200
107202
107204
107207
107210
107213
107216
107220
107223
107227
107234
107245
107255
107260
107265
107270
107279
107288
107296
107300
107302
107183
107180
107182
107182
107182
107183
107183
107184
107185
107186
107189
107192
107195
107199
107202
107205
107208
107211
107215
107219
107225
107232
107235
107237
107241
107247
107256
107266
107273
107276
107162
107163
107165
107166
107167
107168
107168
107169
107171
107173
107176
107179
107183
107187
107191
107194
107197
107200
107203
107204
107206
107207
107206
107205
107206
107210
107217
107225
107232
107236
107145
107148
107150
107152
107153
107153
107154
107156
107157
107160
107163
107166
107170
107175
107180
107184
107186
107189
107191
107190
107186
107179
107173
107168
107166
107166
107170
107175
107179
107182
107134
107136
107137
107138
107139
107140
107141
107142
107144
107147
107150
107152
107156
107161
107168
107173
107176
107178
107178
107173
107162
107149
107137
107128
107121
107117
107116
107116
107117
107118
107124
107125
107126
107127
107127
107128
107129
107130
107132
107134
107137
107139
107142
107146
107153
107159
107164
107166
107163
107152
107132
107112
107094
107079
107068
107060
107054
107051
107049
107048
107114
107116
107117
107117
107117
107117
107117
107118
107120
107122
107124
107126
107129
107132
107138
107144
107149
107150
107142
107119
107089
107062
107038
107018
107003
106991
106982
106976
106972
106970
107104
107106
107108
107109
107107
107106
107106
107106
107108
107110
107112
107114
107117
107119
107123
107128
107132
107127
107103
107065
107028
106995
106967
106943
106924
106909
106898
106890
106885
106883
107092
107095
107098
107100
107098
107095
107094
107095
107096
107098
107101
107103
107105
107107
107110
107112
107108
107082
107039
106994
106951
106914
106883
106857
106835
106817
106804
106794
106788
106785
107077
107080
107084
107088
107086
107083
107082
107083
107085
107088
107090
107093
107094
107096
107097
107091
107062
107013
106960
106910
106864
106823
106789
106761
106737
106718
106702
106691
106683
106679
107060
107063
107066
107070
107070
107069
107069
107071
107074
107078
107080
107082
107082
107082
107076
107047
106991
106932
106874
106817
106767
106726
106691
106662
106637
106615
106597
106582
106572
106567
107038
107039
107039
107044
107049
107053
107055
107059
107063
107067
107068
107066
107061
107054
107028
106972
106907
106844
106780
106724
106676
106636
106601
106571
106543
106516
106492
106470
106454
106446
107004
107002
106999
107008
107023
107034
107040
107045
107050
107051
107043
107029
107012
106990
106943
106882
106817
106752
106689
106635
106592
106556
106524
106490
106455
106419
106383
106352
106327
106313
106947
106942
106941
106957
106985
107008
107020
107025
107023
107005
106978
106950
106922
106890
106845
106787
106725
106661
106603
106554
106517
106484
106448
106405
106359
106312
106266
106222
106183
106155
106868
106865
106869
106889
106924
106960
106980
106977
106945
106904
106870
106840
106811
106782
106743
106691
106633
106573
106521
106477
106442
106405
106358
106307
106253
106198
106145
106093
106046
106017
106782
106782
106786
106804
106833
106859
106869
106848
106807
106769
106741
106718
106696
106672
106639
106593
106541
106486
106439
106397
106361
106316
106263
106206
106149
106095
106044
105999
105974
105967
106695
106694
106689
106689
106694
106698
106694
106676
106649
106623
106602
106590
106578
106561
106535
106496
106449
106399
106355
106316
106277
106227
106173
106117
106066
106019
105981
105961
105954
105953
106594
106586
106565
106542
106524
106520
106516
106506
106492
106474
106458
106458
106459
106452
106433
106400
106358
106312
106271
106234
106192
106143
106095
106049
106005
105972
105955
105950
105949
105949
106474
106459
106422
106366
106328
106330
106339
106343
106339
106325
106315
106329
106345
106349
106336
106309
106271
106227
106187
106150
106110
106065
106026
105992
105966
105952
105948
105947
105948
105948
106352
106331
106264
106214
106198
106198
106206
106213
106212
106202
106200
106215
106241
106258
106252
106227
106189
106145
106104
106061
106028
106002
105980
105961
105950
105947
105946
105946
105946
105946
106249
106220
106171
106154
106149
106147
106145
106144
106144
106143
106144
106148
106164
106184
106181
106156
106114
106069
106025
105996
105979
105967
105958
105951
105948
105946
105945
105945
105944
105944
106177
106156
106135
106130
106128
106125
106122
106119
106119
106120
106122
106123
106127
106133
106126
106095
106049
106005
105980
105968
105962
105958
105953
105949
105946
105944
105943
105943
105942
105943
106135
106124
106116
106114
106112
106110
106108
106106
106106
106107
106108
106109
106108
106102
106084
106044
105998
105975
105964
105961
105958
105954
105950
105946
105943
105941
105941
105940
105940
105940
106107
106104
106099
106098
106096
106095
106094
106093
106093
106093
106095
106095
106092
106080
106052
106004
105978
105963
105959
105957
105954
105950
105947
105943
105941
105939
105938
105938
105938
105938
106087
106086
106084
106082
106081
106080
106080
106079
106079
106080
106081
106080
106076
106060
106026
105985
105965
105958
105955
105953
105950
105947
105943
105940
105938
105937
105936
105936
105936
105936
106069
106070
106068
106067
106067
106066
106066
106066
106066
106067
106067
106066
106059
106040
106001
105973
105958
105954
105951
105949
105946
105943
105940
105937
105935
105934
105934
105934
105933
105933
106052
106053
106053
106052
106052
106052
106053
106053
106053
106054
106055
106053
106044
106022
105988
105967
105954
105950
105947
105945
105942
105940
105937
105934
105933
105932
105931
105931
105931
105931
106036
106037
106038
106038
106039
106039
106040
106040
106041
106042
106043
106042
106032
106009
105979
105962
105950
105946
105944
105941
105939
105936
105933
105931
105930
105929
105929
105929
105928
105928
106022
106023
106024
106024
106025
106026
106027
106028
106029
106031
106032
106032
106022
106000
105972
105957
105945
105942
105940
105937
105935
105933
105930
105928
105927
105927
105926
105926
105926
105926
106009
106009
106010
106011
106013
106014
106015
106017
106018
106020
106021
106022
106015
105993
105967
105951
105941
105938
105936
105934
105931
105929
105927
105925
105924
105924
105924
105923
105923
105923
105997
105996
105997
105999
106001
106002
106004
106006
106007
106009
106010
106011
106006
105986
105964
105945
105937
105934
105932
105930
105928
105925
105924
105922
105921
105921
105921
105921
105921
105921
105981
105983
105985
105987
105989
105991
105993
105995
105997
105999
106000
105999
105992
105975
105955
105939
105932
105930
105927
105926
105924
105922
105920
105919
105919
105918
105918
105918
105918
105918
105969
105972
105974
105976
105978
105980
105983
105985
105987
105989
105989
105987
105979
105963
105946
105933
105928
105925
105923
105921
105919
105918
105917
105916
105915
105915
105915
105915
105915
105915
105960
105962
105964
105966
105968
105971
105973
105975
105977
105978
105977
105974
105966
105952
105938
105928
105922
105920
105918
105917
105915
105914
105913
105912
105912
105912
105912
105912
105912
105912
105952
105953
105955
105957
105959
105961
105964
105966
105967
105967
105964
105960
105951
105940
105929
105921
105917
105915
105914
105912
105911
105910
105909
105909
105909
105909
105909
105909
105909
105909
105944
105945
105946
105948
105950
105952
105954
105956
105956
105954
105950
105943
105935
105926
105918
105913
105910
105909
105908
105907
105906
105906
105905
105905
105906
105906
105906
105906
105906
105906
105936
105936
105938
105939
105941
105943
105944
105945
105943
105939
105932
105924
105916
105909
105904
105902
105902
105902
105902
105902
105902
105901
105901
105902
105902
105902
105903
105903
105903
105903
105927
105927
105929
105931
105932
105934
105934
105932
105928
105921
105912
105903
105895
105890
105887
105888
105890
105893
105895
105896
105897
105897
105897
105898
105898
105899
105899
105899
105899
105899
105917
105918
105920
105922
105923
105923
105921
105916
105908
105898
105887
105878
105871
105867
105866
105869
105875
105881
105887
105890
105892
105893
105893
105894
105894
105895
105895
105895
105896
105896
105908
105909
105910
105912
105912
105909
105904
105896
105884
105871
105859
105850
105844
105841
105841
105846
105854
105865
105875
105882
105886
105888
105889
105890
105890
105891
105891
105892
105892
105892
105898
105899
105900
105900
105897
105891
105882
105868
105853
105838
105826
105818
105813
105811
105813
105819
105829
105842
105857
105870
105878
105883
105884
105885
105886
105887
105887
105888
105888
105888
105887
105889
105888
105884
105876
105864
105847
105829
105813
105798
105788
105780
105776
105776
105779
105787
105798
105814
105833
105852
105867
105875
105879
105881
105882
105883
105883
105883
105883
105884
105875
105874
105870
105858
105840
105819
105798
105779
105762
105749
105740
105734
105732
105733
105738
105747
105761
105778
105799
105824
105848
105864
105872
105876
105877
105878
105878
105879
105879
105879
105853
105849
105834
105809
105782
105758
105736
105718
105703
105692
105684
105680
105679
105682
105689
105700
105715
105734
105758
105786
105817
105845
105861
105869
105871
105873
105874
105874
105874
105874
105809
105795
105766
105736
105710
105687
105668
105651
105638
105628
105622
105619
105620
105625
105633
105646
105662
105683
105709
105739
105773
105811
105841
105857
105864
105867
105868
105869
105869
105869
105722
105701
105675
105652
105630
105611
105594
105579
105568
105560
105555
105553
105556
105561
105571
105585
105603
105626
105653
105685
105721
105762
105805
105837
105853
105859
105862
105863
105863
105863
105606
105593
105578
105563
105546
105530
105515
105503
105493
105486
105483
105483
105486
105493
105505
105520
105539
105563
105591
105624
105661
105704
105752
105800
105833
105848
105854
105857
105857
105857
105494
105490
105483
105472
105459
105445
105432
105422
105413
105408
105406
105407
105412
105421
105433
105449
105469
105494
105522
105556
105594
105637
105685
105738
105790
105826
105842
105848
105849
105848
105391
105391
105389
105381
105369
105357
105345
105336
105330
105326
105325
105328
105333
105343
105356
105373
105393
105418
105447
105480
105517
105559
105605
105657
105714
105772
105814
105832
105837
105837
105295
105298
105296
105287
105276
105264
105254
105247
105241
105239
105240
105243
105250
105260
105274
105291
105312
105336
105364
105396
105431
105470
105513
105561
105615
105675
105740
105792
105814
105816
105203
105206
105200
105190
105178
105168
105159
105153
105149
105148
105150
105154
105162
105172
105186
105203
105224
105247
105274
105304
105337
105372
105411
105453
105500
105553
105614
105689
105752
105769
105110
105109
105100
105088
105078
105069
105062
105057
105054
105054
105056
105061
105069
105080
105094
105110
105130
105153
105178
105206
105237
105269
105303
105339
105377
105419
105466
105535
105611
105657
105010
105004
104994
104984
104974
104967
104961
104957
104956
104956
104959
104964
104972
104983
104996
105013
105032
105054
105079
105105
105133
105163
105193
105224
105254
105285
105317
105363
105425
105467
104902
104895
104886
104877
104869
104863
104858
104856
104854
104855
104858
104864
104871
104882
104895
104911
104930
104952
104976
105002
105029
105057
105084
105110
105134
105156
105176
105206
105243
105271
104789
104784
104776
104769
104763
104758
104754
104751
104750
104751
104754
104759
104767
104777
104790
104806
104825
104846
104871
104897
104924
104951
104977
105000
105020
105034
105044
105056
105071
105092
104677
104673
104667
104661
104656
104651
104648
104645
104644
104644
104647
104651
104658
104668
104680
104697
104716
104738
104763
104790
104817
104845
104870
104893
104910
104919
104922
104917
104912
104926
104566
104563
104558
104553
104548
104544
104539
104536
104534
104534
104536
104540
104546
104555
104568
104584
104605
104628
104654
104682
104711
104738
104765
104787
104803
104809
104809
104798
104778
104781
104457
104454
104450
104446
104440
104434
104429
104425
104422
104422
104424
104428
104434
104443
104455
104471
104492
104517
104545
104574
104604
104633
104660
104684
104700
104704
104700
104693
104672
104666
104350
104348
104344
104338
104331
104324
104317
104312
104309
104308
104312
104319
104328
104338
104349
104364
104383
104408
104436
104467
104498
104529
104558
104583
104602
104608
104599
104593
104586
104579
104245
104243
104238
104231
104222
104213
104204
104197
104193
104194
104201
104213
104229
104245
104257
104269
104283
104303
104332
104363
104395
104428
104459
104487
104511
104524
104519
104511
104513
104511
104143
104140
104134
104125
104114
104101
104088
104078
104072
104074
104086
104104
104128
104153
104173
104183
104193
104209
104233
104263
104295
104329
104362
104393
104422
104447
104455
104450
104449
104448
104043
104039
104031
104020
104005
103988
103969
103952
103941
103941
103955
103979
104010
104045
104077
104097
104106
104120
104139
104167
104199
104232
104266
104300
104333
104366
104390
104393
104390
104386
103946
103942
103932
103917
103898
103874
103846
103817
103794
103790
103807
103838
103879
103924
103967
104002
104018
104031
104049
104075
104106
104139
104173
104207
104242
104277
104311
104331
104330
104324
103854
103848
103836
103818
103793
103760
103719
103675
103638
103635
103655
103696
103746
103800
103854
103900
103928
103942
103960
103985
104016
104049
104082
104116
104150
104184
104218
104249
104264
104261
103766
103759
103745
103724
103693
103653
103605
103558
103535
103536
103547
103578
103627
103683
103742
103797
103834
103852
103872
103898
103929
103961
103994
104026
104059
104090
104122
104152
104178
104187
103684
103676
103661
103636
103603
103563
103517
103494
103492
103494
103497
103506
103535
103582
103639
103697
103740
103764
103786
103813
103843
103876
103908
103939
103969
103998
104025
104051
104076
104093
103608
103600
103583
103559
103529
103492
103466
103463
103466
103468
103469
103470
103476
103500
103544
103600
103648
103676
103702
103730
103761
103792
103824
103854
103882
103908
103931
103951
103969
103983
103538
103531
103517
103497
103471
103446
103439
103441
103443
103444
103445
103444
103443
103448
103466
103506
103556
103591
103621
103650
103681
103712
103742
103771
103797
103821
103841
103856
103868
103876
103476
103471
103463
103449
103432
103420
103421
103422
103422
103422
103421
103420
103419
103417
103419
103431
103466
103508
103543
103574
103605
103635
103664
103691
103715
103737
103755
103767
103775
103779
103420
103419
103418
103412
103405
103403
103404
103404
103403
103401
103400
103398
103396
103394
103391
103390
103399
103430
103470
103503
103534
103563
103590
103614
103636
103655
103671
103683
103689
103691
103369
103371
103377
103383
103386
103390
103390
103388
103385
103383
103380
103377
103375
103372
103369
103367
103365
103372
103401
103436
103467
103495
103520
103541
103560
103576
103590
103601
103607
103607
103320
103325
103337
103352
103366
103375
103377
103374
103370
103366
103362
103358
103355
103352
103349
103346
103344
103342
103351
103377
103407
103433
103455
103473
103488
103501
103511
103520
103526
103528
103270
103278
103294
103315
103336
103352
103360
103361
103356
103351
103345
103341
103337
103333
103330
103327
103324
103321
103320
103333
103356
103378
103395
103409
103419
103428
103435
103440
103445
103448
103220
103229
103244
103264
103286
103307
103327
103339
103341
103336
103331
103325
103320
103316
103312
103308
103304
103302
103299
103300
103313
103330
103341
103348
103354
103358
103361
103363
103366
103368
103162
103168
103180
103197
103217
103242
103269
103297
103315
103319
103316
103311
103305
103301
103296
103291
103287
103283
103280
103278
103285
103289
103291
103291
103290
103289
103289
103288
103288
103289
103090
103094
103105
103120
103140
103166
103196
103230
103266
103289
103297
103295
103291
103287
103282
103276
103271
103265
103262
103259
103259
103254
103243
103233
103226
103221
103217
103213
103211
103210
103006
103012
103022
103037
103057
103081
103111
103147
103188
103231
103261
103272
103273
103271
103267
103261
103255
103249
103244
103242
103235
103217
103193
103173
103159
103149
103143
103138
103133
103131
102918
102925
102934
102947
102963
102985
103013
103047
103088
103135
103185
103223
103240
103244
103243
103240
103236
103230
103225
103219
103204
103170
103135
103107
103087
103073
103064
103058
103054
103050
102828
102832
102838
102845
102856
102874
102899
102931
102970
103015
103066
103117
103159
103184
103196
103202
103203
103200
103194
103182
103152
103106
103065
103033
103008
102991
102980
102974
102970
102967
102733
102732
102730
102731
102736
102750
102773
102803
102841
102884
102932
102982
103028
103067
103097
103121
103136
103140
103134
103110
103068
103022
102984
102951
102925
102904
102891
102884
102881
102881
102629
102623
102615
102606
102605
102617
102641
102672
102708
102750
102796
102843
102888
102929
102964
102993
103016
103029
103024
102997
102961
102926
102894
102864
102838
102817
102801
102790
102788
102787
102517
102508
102494
102481
102480
102489
102513
102545
102581
102622
102666
102711
102754
102792
102826
102854
102876
102888
102886
102869
102846
102822
102798
102774
102751
102729
102711
102697
102689
102689
102406
102395
102382
102382
102387
102394
102408
102435
102469
102507
102548
102589
102628
102663
102693
102718
102737
102748
102749
102741
102727
102711
102694
102677
102660
102641
102622
102605
102595
102590
102305
102295
102294
102302
102312
102320
102329
102348
102376
102408
102443
102478
102511
102541
102567
102588
102604
102613
102617
102613
102605
102594
102583
102571
102560
102548
102532
102515
102502
102496
102222
102221
102225
102233
102242
102251
102261
102275
102297
102322
102349
102376
102402
102426
102446
102463
102476
102484
102488
102487
102483
102476
102467
102459
102452
102445
102436
102424
102411
102404
102157
102160
102164
102169
102176
102184
102194
102207
102223
102241
102260
102279
102297
102314
102329
102342
102352
102358
102362
102362
102360
102355
102350
102344
102339
102336
102332
102327
102318
102310
102103
102102
102105
102107
102112
102118
102127
102138
102150
102162
102172
102183
102193
102204
102215
102224
102231
102236
102238
102239
102238
102235
102231
102227
102224
102222
102221
102221
102219
102213
102056
102051
102048
102047
102049
102053
102062
102069
102073
102076
102078
102082
102088
102094
102101
102107
102112
102115
102117
102117
102116
102114
102112
102109
102107
102107
102107
102109
102111
102111
102003
101998
101991
101986
101986
101990
101996
101992
101984
101979
101977
101977
101979
101982
101987
101991
101994
101997
101997
101997
101996
101994
101992
101991
101990
101990
101992
101994
101997
102001
101936
101934
101926
101922
101923
101924
101913
101895
101881
101873
101868
101866
101866
101868
101871
101874
101877
101879
101879
101878
101877
101875
101873
101873
101873
101874
101875
101878
101881
101884
101851
101855
101852
101852
101849
101829
101803
101782
101767
101758
101752
101749
101749
101751
101754
101757
101760
101762
101762
101761
101759
101757
101755
101755
101755
101757
101759
101761
101763
101765
101742
101755
101764
101754
101729
101702
101677
101658
101646
101638
101633
101629
101628
101630
101634
101639
101643
101646
101647
101645
101643
101640
101638
101637
101638
101640
101642
101644
101646
101648
101614
101629
101628
101609
101583
101558
101539
101527
101520
101516
101511
101507
101505
101507
101512
101520
101527
101531
101533
101532
101529
101526
101523
101522
101522
101523
101526
101528
101530
101531
101477
101479
101469
101448
101424
101403
101394
101393
101395
101394
101391
101385
101381
101382
101389
101400
101411
101418
101421
101421
101418
101414
101411
101409
101407
101407
101410
101412
101414
101415
101333
101325
101308
101282
101254
101246
101253
101265
101274
101278
101275
101268
101261
101263
101270
101282
101297
101307
101312
101313
101311
101306
101303
101301
101297
101294
101295
101297
101299
101300
101184
101171
101146
101109
101092
101104
101125
101146
101161
101168
101168
101161
101156
101160
101167
101177
101189
101201
101206
101208
101207
101202
101198
101196
101192
101186
101183
101183
101184
101185
101036
101020
100985
100956
100963
100987
101014
101038
101056
101067
101071
101068
101070
101077
101087
101091
101092
101098
101104
101105
101105
101102
101098
101095
101090
101082
101073
101071
101070
101069
100897
100872
100843
100844
100866
100891
100917
100940
100959
100972
100981
100985
100993
101004
101022
101024
101009
101000
101002
101004
101005
101003
100999
100995
100990
100981
100968
100961
100955
100952
100769
100746
100743
100762
100784
100806
100829
100850
100867
100880
100892
100904
100916
100931
100957
100953
100918
100901
100897
100902
100904
100904
100899
100895
100891
100882
100866
100852
100838
100829
100667
100665
100676
100693
100711
100731
100749
100764
100777
100787
100799
100814
100831
100846
100865
100846
100821
100799
100793
100798
100802
100804
100799
100793
100791
100783
100768
100746
100718
100693
100602
100608
100619
100633
100648
100663
100673
100680
100686
100692
100701
100712
100728
100738
100732
100717
100710
100694
100688
100692
100699
100703
100698
100690
100690
100683
100671
100647
100618
100592
100547
100556
100567
100578
100589
100594
100595
100595
100595
100597
100600
100604
100607
100602
100571
100572
100583
100585
100583
100587
100597
100601
100598
100588
100584
100580
100573
100556
100539
100523
100499
100506
100517
100525
100521
100516
100512
100508
100505
100502
100498
100492
100482
100458
100431
100434
100457
100471
100477
100485
100495
100501
100498
100484
100470
100469
100475
100479
100476
100466
100447
100451
100460
100453
100440
100434
100427
100421
100416
100410
100398
100386
100371
100350
100343
100334
100344
100360
100375
100388
100399
100404
100400
100379
100355
100349
100363
100387
100402
100400
100374
100372
100371
100361
100351
100350
100343
100336
100328
100318
100287
100279
100285
100283
100282
100269
100259
100256
100282
100301
100312
100318
100311
100290
100272
100263
100264
100278
100299
100323
100257
100256
100253
100251
100256
100256
100259
100262
100252
100226
100204
100198
100211
100231
100232
100219
100196
100184
100199
100228
100242
100254
100254
100238
100230
100226
100225
100228
100238
100257
100194
100193
100194
100194
100196
100202
100217
100227
100207
100176
100161
100159
100165
100183
100188
100175
100156
100148
100153
100168
100195
100222
100233
100219
100215
100213
100212
100212
100214
100219
100173
100172
100172
100172
100173
100175
100178
100174
100160
100147
100144
100143
100141
100144
100145
100140
100136
100136
100136
100147
100177
100219
100212
100207
100206
100205
100204
100204
100203
100202
100163
100162
100162
100162
100162
100163
100159
100150
100140
100135
100134
100133
100130
100125
100124
100124
100127
100130
100130
100136
100154
100179
100189
100195
100196
100196
100196
100196
100195
100195
100154
100153
100153
100153
100153
100152
100147
100138
100129
100126
100126
100125
100123
100119
100118
100119
100122
100124
100125
100128
100140
100158
100175
100183
100187
100189
100189
100189
100188
100189
100144
100143
100143
100143
100143
100141
100135
100126
100119
100117
100118
100118
100117
100115
100115
100115
100117
100118
100119
100121
100130
100147
100163
100173
100178
100181
100182
100183
100182
100183
100133
100132
100133
100133
100133
100130
100123
100114
100110
100110
100111
100111
100111
100111
100111
100111
100112
100112
100113
100114
100120
100136
100153
100164
100170
100173
100176
100177
100177
100178
100123
100122
100122
100123
100122
100119
100111
100103
100102
100103
100104
100105
100105
100105
100105
100106
100106
100107
100107
100107
100111
100124
100142
100154
100161
100165
100168
100170
100171
100173
100114
100113
100113
100113
100112
100108
100100
100094
100095
100096
100097
100098
100099
100099
100100
100100
100100
100101
100101
100100
100102
100113
100131
100144
100151
100156
100160
100163
100165
100167
100105
100104
100104
100103
100102
100097
100090
100087
100089
100090
100091
100091
100092
100093
100093
100094
100094
100094
100094
100094
100094
100103
100119
100132
100140
100146
100151
100155
100158
100162
100097
100096
100095
100095
100093
100088
100081
100081
100082
100083
100084
100085
100085
100086
100087
100087
100087
100087
100087
100086
100085
100091
100105
100118
100126
100132
100138
100145
100150
100157
100089
100088
100088
100087
100084
100078
100073
100074
100076
100077
100077
100078
100079
100079
100080
100080
100080
100080
100079
100078
100077
100078
100090
100102
100109
100115
100121
100129
100140
100147
100082
100081
100080
100079
100075
100069
100066
100067
100069
100070
100070
100071
100072
100072
100072
100073
100072
100072
100071
100070
100068
100066
100075
100084
100090
100093
100099
100111
100125
100134
100075
100074
100074
100072
100066
100059
100059
100061
100062
100063
100063
100064
100065
100065
100065
100065
100065
100064
100063
100061
100059
100056
100058
100066
100070
100071
100077
100092
100112
100116
100068
100068
100067
100064
100057
100051
100053
100054
100055
100056
100056
100057
100058
100058
100058
100058
100057
100056
100055
100053
100051
100048
100045
100050
100053
100052
100058
100081
100104
100103
100061
100062
100060
100055
100047
100045
100046
100047
100048
100049
100049
100050
100051
100051
100051
100051
100050
100049
100047
100045
100043
100041
100038
100038
100040
100041
100046
100074
100098
100093
100054
100055
100053
100047
100040
100039
100040
100041
100041
100042
100042
100043
100044
100044
100044
100044
100043
100042
100040
100038
100037
100035
100032
100030
100032
100035
100038
100058
100076
100075
100046
100046
100043
100039
100033
100034
100034
100034
100034
100035
100036
100036
100037
100037
100037
100037
100036
100035
100033
100032
100031
100030
100028
100026
100024
100027
100032
100040
100051
100054
100035
100035
100032
100031
100028
100028
100028
100028
100028
100028
100029
100029
100030
100030
100030
100030
100029
100028
100027
100026
100026
100025
100024