/*--------------------------------*- C++ -*----------------------------------*\
| =========                 |                                                 |
| \\      /  F ield         | OpenFOAM: The Open Source CFD Toolbox           |
|  \\    /   O peration     | Version:  2.3.0                                 |
|   \\  /    A nd           | Web:      www.OpenFOAM.org                      |
|    \\/     M anipulation  |                                                 |
\*---------------------------------------------------------------------------*/
FoamFile
{
    version     2.0;
    format      ascii;
    class       volVectorField;
    location    "1.21";
    object      U.particlesMean;
}
// * * * * * * * * * * * * * * * * * * * * * * * * * * * * * * * * * * * * * //

dimensions      [0 1 -1 0 0 0 0];

internalField   nonuniform List<vector> 
6000
(
(-0.00204548 -0.319351 0)
(0.00773807 -0.332402 0)
(0.0289249 -0.324269 0)
(0.0452254 -0.33209 0)
(0.0520145 -0.355929 0)
(0.0475807 -0.39452 0)
(0.0318882 -0.417894 0)
(0.00987243 -0.423335 0)
(-0.000933326 -0.412823 0)
(-0.00602279 -0.409824 0)
(-0.00907004 -0.415873 0)
(-0.00387081 -0.424193 0)
(-0.0165693 -0.417119 0)
(-0.0436923 -0.393421 0)
(-0.049189 -0.370862 0)
(-0.0357145 -0.374362 0)
(-0.0243741 -0.382282 0)
(-0.0103346 -0.395323 0)
(-0.014718 -0.404654 0)
(-0.01694 -0.393523 0)
(-0.0120925 -0.377688 0)
(-0.00248383 -0.367062 0)
(0.00575373 -0.371482 0)
(0.0109698 -0.372623 0)
(0.0109497 -0.371801 0)
(-0.00510503 -0.36814 0)
(-0.0171974 -0.378297 0)
(-0.0186437 -0.378923 0)
(-0.0224139 -0.355854 0)
(-0.00596765 -0.292846 0)
(0.0125618 -0.00403203 0)
(0.0232535 0.0108099 0)
(0.0422473 0.00514576 0)
(0.0517326 0.00549238 0)
(0.0547556 0.00161067 0)
(0.0574792 -0.00818604 0)
(0.0507727 -0.015177 0)
(0.0252494 -0.00537091 0)
(0.0129859 0.00940412 0)
(-0.00208788 0.00561932 0)
(-0.0153686 -7.53322e-05 0)
(-0.0223677 -0.00335992 0)
(-0.0337841 -0.0196833 0)
(-0.0414886 -0.0213222 0)
(-0.0376812 -0.0190438 0)
(-0.0371561 -0.01844 0)
(-0.0383815 -0.00254665 0)
(-0.0350928 0.0185647 0)
(-0.0307526 0.00969133 0)
(-0.0266279 0.0273987 0)
(-0.0156229 0.0397926 0)
(-0.00699197 0.0299183 0)
(0.00411871 0.0257083 0)
(0.00371129 0.0268941 0)
(-0.0043531 0.0336758 0)
(-0.01904 0.0187182 0)
(-0.0300513 0.00308645 0)
(-0.0414957 -0.0113582 0)
(-0.0323686 0.00223777 0)
(-0.0146518 -0.0179233 0)
(-0.00676586 -0.057928 0)
(0.0155914 -0.0882454 0)
(0.0281476 -0.0955935 0)
(0.0381093 -0.0831122 0)
(0.04407 -0.0696322 0)
(0.044021 -0.0612644 0)
(0.0432843 -0.0539405 0)
(0.0278416 -0.0403405 0)
(0.0193566 -0.0322423 0)
(0.00554051 -0.0442065 0)
(-0.0090216 -0.0495397 0)
(-0.017864 -0.0518706 0)
(-0.0234921 -0.0575284 0)
(-0.0266715 -0.0556126 0)
(-0.0246228 -0.0686884 0)
(-0.0329789 -0.068061 0)
(-0.0460877 -0.0574187 0)
(-0.0514795 -0.0526116 0)
(-0.0443812 -0.0629963 0)
(-0.0340282 -0.0716506 0)
(-0.0210932 -0.0809779 0)
(-0.0121288 -0.0749163 0)
(-0.0108378 -0.0728095 0)
(-0.0135082 -0.0660502 0)
(-0.0180578 -0.0452466 0)
(-0.0213425 -0.043153 0)
(-0.022527 -0.0637442 0)
(-0.0260883 -0.0828431 0)
(-0.0146869 -0.0811106 0)
(0.00636855 -0.0897823 0)
(-0.00794954 -0.0629857 0)
(0.00794521 -0.0943828 0)
(0.0080309 -0.100917 0)
(0.0253462 -0.0930286 0)
(0.0334952 -0.0767145 0)
(0.0357693 -0.0657276 0)
(0.0356031 -0.0504487 0)
(0.0297897 -0.0323472 0)
(0.0271312 -0.0206733 0)
(0.0145695 -0.0294442 0)
(-0.00116316 -0.0375118 0)
(-0.0101271 -0.0422064 0)
(-0.0158858 -0.0510376 0)
(-0.0134239 -0.0540995 0)
(-0.0145279 -0.0641573 0)
(-0.0251231 -0.0608438 0)
(-0.0396025 -0.0535095 0)
(-0.0489006 -0.0500892 0)
(-0.0461986 -0.0604016 0)
(-0.0340328 -0.0715233 0)
(-0.0270605 -0.0792856 0)
(-0.03028 -0.0772757 0)
(-0.0391529 -0.0777408 0)
(-0.0412845 -0.0726701 0)
(-0.0356341 -0.0590019 0)
(-0.0252759 -0.0591424 0)
(-0.0152093 -0.0761583 0)
(-0.0140977 -0.091537 0)
(-0.00669213 -0.0877417 0)
(0.00960033 -0.0964279 0)
(0.00494508 -0.080358 0)
(0.00812359 -0.113283 0)
(0.00769154 -0.124737 0)
(0.0191994 -0.117 0)
(0.0234387 -0.0949519 0)
(0.0219128 -0.0764394 0)
(0.02409 -0.0560028 0)
(0.0226465 -0.0340018 0)
(0.0216798 -0.022829 0)
(0.0105792 -0.0319015 0)
(-0.00316099 -0.0426302 0)
(-0.00922341 -0.053926 0)
(-0.0146232 -0.0627098 0)
(-0.00832369 -0.0665983 0)
(-0.00949474 -0.067994 0)
(-0.0200117 -0.0644303 0)
(-0.0308003 -0.0621624 0)
(-0.0402145 -0.0587897 0)
(-0.0402582 -0.0789385 0)
(-0.0297489 -0.10104 0)
(-0.0291086 -0.104372 0)
(-0.0381195 -0.0921075 0)
(-0.0508376 -0.0868271 0)
(-0.0552525 -0.0770769 0)
(-0.0434868 -0.0716387 0)
(-0.0308682 -0.0836332 0)
(-0.0191564 -0.101951 0)
(-0.0187851 -0.119244 0)
(-0.00597433 -0.108064 0)
(0.00952515 -0.11222 0)
(0.00783085 -0.09645 0)
(0.0199829 -0.120012 0)
(0.0104693 -0.128999 0)
(0.0168506 -0.122861 0)
(0.0127942 -0.0983863 0)
(0.00709665 -0.0792864 0)
(0.00970139 -0.0617328 0)
(0.011245 -0.0432217 0)
(0.00776896 -0.0289649 0)
(-0.00291732 -0.0360816 0)
(-0.012995 -0.0486108 0)
(-0.0171803 -0.0562393 0)
(-0.0198108 -0.0664718 0)
(-0.00551268 -0.0718113 0)
(-0.00441744 -0.0698814 0)
(-0.0118564 -0.0671158 0)
(-0.0199549 -0.063815 0)
(-0.0282847 -0.0635732 0)
(-0.0270485 -0.0923026 0)
(-0.0244603 -0.111804 0)
(-0.029564 -0.110001 0)
(-0.0399125 -0.0941089 0)
(-0.052018 -0.0831035 0)
(-0.0584525 -0.074517 0)
(-0.0443855 -0.0810952 0)
(-0.032418 -0.0989138 0)
(-0.0272696 -0.117728 0)
(-0.0239507 -0.135499 0)
(-0.00802271 -0.120476 0)
(0.00755159 -0.116714 0)
(0.00514201 -0.107163 0)
(0.0222083 -0.126434 0)
(0.0194531 -0.132448 0)
(0.0144946 -0.121146 0)
(0.0127697 -0.0966901 0)
(0.000384234 -0.0753793 0)
(-0.00113482 -0.0573855 0)
(-0.00219705 -0.0397637 0)
(-0.0100994 -0.0316131 0)
(-0.0204494 -0.0402384 0)
(-0.0275687 -0.0524129 0)
(-0.0275316 -0.055843 0)
(-0.0255544 -0.0651877 0)
(-0.00446236 -0.072224 0)
(-0.0039902 -0.069733 0)
(-0.0147086 -0.0739606 0)
(-0.0210977 -0.0740023 0)
(-0.0194989 -0.0822648 0)
(-0.0167305 -0.104988 0)
(-0.020193 -0.114813 0)
(-0.0269908 -0.106258 0)
(-0.0385506 -0.0881464 0)
(-0.0497283 -0.0807261 0)
(-0.053656 -0.0802837 0)
(-0.0433667 -0.088954 0)
(-0.0375278 -0.108231 0)
(-0.0328595 -0.127445 0)
(-0.0274235 -0.141877 0)
(-0.0151457 -0.128989 0)
(0.00437929 -0.121609 0)
(0.00785287 -0.115025 0)
(0.0211645 -0.129603 0)
(0.0164418 -0.131907 0)
(0.0172893 -0.116735 0)
(0.00969014 -0.0881745 0)
(0.000966494 -0.065845 0)
(-0.00780932 -0.0466516 0)
(-0.0176873 -0.0300123 0)
(-0.0259165 -0.0289855 0)
(-0.0356747 -0.041128 0)
(-0.0398102 -0.0543815 0)
(-0.0342721 -0.058637 0)
(-0.0272474 -0.0607928 0)
(-0.00668673 -0.0678172 0)
(-0.0056866 -0.0673736 0)
(-0.013831 -0.0749094 0)
(-0.0212598 -0.0832744 0)
(-0.0166788 -0.092701 0)
(-0.0122049 -0.103676 0)
(-0.0190629 -0.107726 0)
(-0.0244433 -0.0980478 0)
(-0.0330611 -0.0819876 0)
(-0.0417916 -0.0763776 0)
(-0.0487239 -0.0793843 0)
(-0.0471431 -0.091325 0)
(-0.04346 -0.113176 0)
(-0.0378556 -0.130341 0)
(-0.0313521 -0.142884 0)
(-0.0203991 -0.13495 0)
(0.00285993 -0.129991 0)
(0.0076064 -0.117508 0)
(0.0175478 -0.130772 0)
(0.0102296 -0.127817 0)
(0.012616 -0.109981 0)
(0.0113986 -0.080599 0)
(-0.00303497 -0.0527168 0)
(-0.0132163 -0.0326051 0)
(-0.0349632 -0.0185129 0)
(-0.0401857 -0.026614 0)
(-0.0459233 -0.0449965 0)
(-0.0475133 -0.0598645 0)
(-0.0362772 -0.0632774 0)
(-0.0257962 -0.0662905 0)
(-0.00719548 -0.0716948 0)
(-0.005045 -0.0695905 0)
(-0.0116074 -0.0765715 0)
(-0.0199918 -0.0816965 0)
(-0.0185569 -0.0901797 0)
(-0.013044 -0.100092 0)
(-0.0187182 -0.103707 0)
(-0.0225305 -0.0933824 0)
(-0.0273779 -0.073879 0)
(-0.0378278 -0.0662962 0)
(-0.0491512 -0.0742707 0)
(-0.0482265 -0.0902116 0)
(-0.0477173 -0.114484 0)
(-0.0416655 -0.130581 0)
(-0.0358517 -0.14471 0)
(-0.0217031 -0.139907 0)
(0.00175912 -0.140808 0)
(0.00625835 -0.117435 0)
(0.0155165 -0.128398 0)
(0.00670539 -0.120521 0)
(0.0103893 -0.105292 0)
(0.0115203 -0.0787376 0)
(0.00226705 -0.0481318 0)
(-0.0129951 -0.027824 0)
(-0.0412836 -0.016996 0)
(-0.0451503 -0.0257367 0)
(-0.0448881 -0.0450368 0)
(-0.0455418 -0.0639911 0)
(-0.0358231 -0.0702386 0)
(-0.0230534 -0.075425 0)
(-0.00675912 -0.0766395 0)
(-0.00508071 -0.0704376 0)
(-0.0127823 -0.0732352 0)
(-0.020358 -0.0758692 0)
(-0.0168158 -0.086874 0)
(-0.0141781 -0.0985687 0)
(-0.02055 -0.0996841 0)
(-0.0246602 -0.0878804 0)
(-0.0312201 -0.067375 0)
(-0.0393621 -0.0609951 0)
(-0.0468608 -0.0658283 0)
(-0.0494947 -0.0823295 0)
(-0.0482288 -0.108725 0)
(-0.0436456 -0.127651 0)
(-0.0346962 -0.142645 0)
(-0.0199331 -0.143545 0)
(-0.00275508 -0.14553 0)
(0.00428399 -0.115134 0)
(0.0120836 -0.127055 0)
(0.00249318 -0.11778 0)
(0.0115184 -0.105167 0)
(0.0146619 -0.0797879 0)
(0.00246741 -0.0474028 0)
(-0.00919629 -0.0231048 0)
(-0.0287517 -0.0166132 0)
(-0.035448 -0.0242951 0)
(-0.0318448 -0.0448153 0)
(-0.0358724 -0.0650515 0)
(-0.0315306 -0.0747759 0)
(-0.0215404 -0.0816628 0)
(-0.0102693 -0.080433 0)
(-0.00822267 -0.0690747 0)
(-0.0152724 -0.0696636 0)
(-0.0203821 -0.0703905 0)
(-0.0140734 -0.0779473 0)
(-0.0188536 -0.0912377 0)
(-0.0276935 -0.0904886 0)
(-0.0376504 -0.0786959 0)
(-0.0451934 -0.0634999 0)
(-0.0439468 -0.0565393 0)
(-0.0471345 -0.0579828 0)
(-0.0488893 -0.0734677 0)
(-0.0485214 -0.100346 0)
(-0.0430939 -0.12338 0)
(-0.0313795 -0.139861 0)
(-0.0195148 -0.141422 0)
(-0.00483595 -0.142178 0)
(0.00493069 -0.112522 0)
(0.0112621 -0.125779 0)
(-0.000247235 -0.11514 0)
(0.0134701 -0.104586 0)
(0.0173192 -0.083016 0)
(0.00858794 -0.0519392 0)
(0.0031691 -0.0278136 0)
(-0.0046083 -0.0212981 0)
(-0.0169745 -0.0240164 0)
(-0.0144454 -0.040411 0)
(-0.0216581 -0.0617192 0)
(-0.0260111 -0.0716292 0)
(-0.0206184 -0.0755424 0)
(-0.0149109 -0.0725475 0)
(-0.0141868 -0.064397 0)
(-0.0188122 -0.0650334 0)
(-0.0195346 -0.0659931 0)
(-0.0161052 -0.0691393 0)
(-0.0204988 -0.0797585 0)
(-0.0357046 -0.077549 0)
(-0.049278 -0.0697509 0)
(-0.0501136 -0.0633968 0)
(-0.0501434 -0.0553817 0)
(-0.0522534 -0.0537764 0)
(-0.0500565 -0.0675112 0)
(-0.0463652 -0.0915822 0)
(-0.0417279 -0.114893 0)
(-0.026819 -0.132098 0)
(-0.0172621 -0.136966 0)
(-0.00347695 -0.143414 0)
(0.00415046 -0.111841 0)
(0.00902056 -0.125076 0)
(-0.00133388 -0.115849 0)
(0.0157061 -0.103855 0)
(0.0216471 -0.0839282 0)
(0.020669 -0.0541667 0)
(0.0179647 -0.0312202 0)
(0.0150226 -0.0200387 0)
(-0.000353499 -0.0183822 0)
(-0.000464505 -0.0348391 0)
(-0.00346354 -0.0573111 0)
(-0.0182271 -0.0654172 0)
(-0.0210362 -0.0671807 0)
(-0.0179054 -0.0649414 0)
(-0.0189066 -0.0600894 0)
(-0.020554 -0.0602833 0)
(-0.0199191 -0.0573841 0)
(-0.0204257 -0.06104 0)
(-0.0236665 -0.0678821 0)
(-0.0435722 -0.0688388 0)
(-0.0491771 -0.0683163 0)
(-0.0517287 -0.0627983 0)
(-0.0534745 -0.0535184 0)
(-0.054425 -0.0513858 0)
(-0.050099 -0.0635975 0)
(-0.0441596 -0.0838284 0)
(-0.038112 -0.106693 0)
(-0.0236226 -0.124116 0)
(-0.0195 -0.131119 0)
(0.000694615 -0.147146 0)
(0.00246435 -0.109704 0)
(0.00602686 -0.124443 0)
(3.01548e-05 -0.11725 0)
(0.0177332 -0.104162 0)
(0.0287481 -0.0825411 0)
(0.0351466 -0.0566573 0)
(0.0327569 -0.0297711 0)
(0.031479 -0.0139582 0)
(0.0255646 -0.0118736 0)
(0.0159157 -0.0219614 0)
(0.0139135 -0.04547 0)
(-0.00853927 -0.0514819 0)
(-0.0182157 -0.0532237 0)
(-0.0223931 -0.0524072 0)
(-0.0257574 -0.0507092 0)
(-0.0257967 -0.0527016 0)
(-0.0255102 -0.0507959 0)
(-0.021512 -0.0519728 0)
(-0.03146 -0.0562972 0)
(-0.041851 -0.0634219 0)
(-0.0449685 -0.0661332 0)
(-0.0494228 -0.0589294 0)
(-0.0530364 -0.048654 0)
(-0.0557431 -0.0476891 0)
(-0.0494194 -0.0600253 0)
(-0.0422708 -0.0794256 0)
(-0.0342119 -0.100794 0)
(-0.0205401 -0.118381 0)
(-0.0187923 -0.132324 0)
(0.000537389 -0.148278 0)
(0.00425311 -0.109942 0)
(0.00551087 -0.12456 0)
(0.00131455 -0.119505 0)
(0.0203313 -0.105554 0)
(0.0370903 -0.0821328 0)
(0.0486881 -0.058162 0)
(0.0489254 -0.0311383 0)
(0.0445047 -0.0116555 0)
(0.0469435 -0.00386988 0)
(0.0333892 -0.0102037 0)
(0.0262574 -0.0333933 0)
(0.00456601 -0.0386011 0)
(-0.0144769 -0.0381287 0)
(-0.0250731 -0.0386138 0)
(-0.031138 -0.0426238 0)
(-0.0318386 -0.0445938 0)
(-0.0266572 -0.0442681 0)
(-0.023132 -0.044383 0)
(-0.034631 -0.0502108 0)
(-0.0372961 -0.059089 0)
(-0.0410281 -0.0606484 0)
(-0.0457732 -0.0538911 0)
(-0.0524979 -0.0436685 0)
(-0.0558228 -0.044896 0)
(-0.0491586 -0.0587786 0)
(-0.0401449 -0.0768349 0)
(-0.0328 -0.0975908 0)
(-0.0192983 -0.116922 0)
(-0.0143625 -0.138104 0)
(0.00296534 -0.14954 0)
(0.00500777 -0.11106 0)
(0.00431806 -0.125152 0)
(0.00304055 -0.120922 0)
(0.0235047 -0.106974 0)
(0.0441188 -0.0790924 0)
(0.0595389 -0.0585678 0)
(0.0658842 -0.0299726 0)
(0.0591318 -0.010427 0)
(0.0611692 -0.000640452 0)
(0.0547553 0.00505942 0)
(0.0405503 -0.0179632 0)
(0.020967 -0.0277213 0)
(-0.0072613 -0.0251677 0)
(-0.0254119 -0.0256842 0)
(-0.0302557 -0.0287593 0)
(-0.0347145 -0.0326628 0)
(-0.0268656 -0.0365674 0)
(-0.0287982 -0.0372476 0)
(-0.0327695 -0.0448149 0)
(-0.0334607 -0.053534 0)
(-0.0367147 -0.0542621 0)
(-0.0423779 -0.047523 0)
(-0.0511638 -0.0371275 0)
(-0.0546026 -0.039802 0)
(-0.04743 -0.056959 0)
(-0.0394999 -0.0739224 0)
(-0.0316005 -0.0965061 0)
(-0.0180447 -0.117199 0)
(-0.0105644 -0.142933 0)
(0.00289793 -0.150051 0)
(0.000966614 -0.114324 0)
(-0.000499479 -0.12717 0)
(0.00579077 -0.124037 0)
(0.0260449 -0.109833 0)
(0.0489586 -0.0787063 0)
(0.0663853 -0.057936 0)
(0.0784613 -0.0264449 0)
(0.0754208 -0.00676791 0)
(0.0726536 0.00332355 0)
(0.0691486 0.00816136 0)
(0.060326 -0.00423874 0)
(0.0359805 -0.0181816 0)
(0.00942714 -0.0135606 0)
(-0.0184793 -0.0110927 0)
(-0.0237825 -0.0104771 0)
(-0.0302425 -0.0177829 0)
(-0.0246718 -0.0277765 0)
(-0.0278772 -0.0322104 0)
(-0.0287727 -0.0377709 0)
(-0.0291954 -0.0458254 0)
(-0.0325622 -0.0466295 0)
(-0.041083 -0.0409072 0)
(-0.0527255 -0.0321099 0)
(-0.0503012 -0.034799 0)
(-0.0422882 -0.0559023 0)
(-0.0367624 -0.0706963 0)
(-0.0283108 -0.0971318 0)
(-0.0161509 -0.119838 0)
(-0.00734151 -0.143807 0)
(-0.00100347 -0.152806 0)
(-0.00570505 -0.11674 0)
(-0.000982389 -0.128379 0)
(0.00921849 -0.127949 0)
(0.0290986 -0.11199 0)
(0.0510887 -0.0808946 0)
(0.0721234 -0.0583311 0)
(0.0889165 -0.0249634 0)
(0.0905562 -0.00165166 0)
(0.0823171 0.0094432 0)
(0.0788309 0.0119741 0)
(0.0708282 0.00705383 0)
(0.0571234 -0.00535792 0)
(0.0257791 0.000830473 0)
(-0.00465933 0.00747907 0)
(-0.0123934 0.0115993 0)
(-0.0193541 -0.00115073 0)
(-0.017512 -0.0173434 0)
(-0.0220746 -0.0232446 0)
(-0.0225168 -0.0299017 0)
(-0.0249011 -0.037206 0)
(-0.0296615 -0.0387081 0)
(-0.0412945 -0.0333287 0)
(-0.0528036 -0.0258603 0)
(-0.0451515 -0.0297269 0)
(-0.0344956 -0.0557346 0)
(-0.0303357 -0.0688837 0)
(-0.0219319 -0.097023 0)
(-0.0125006 -0.12285 0)
(-0.00360268 -0.14605 0)
(-0.000682398 -0.158563 0)
(-0.00655611 -0.118451 0)
(0.0015917 -0.12935 0)
(0.0124301 -0.132759 0)
(0.0318827 -0.116175 0)
(0.0516244 -0.0836488 0)
(0.0776382 -0.0605144 0)
(0.0956845 -0.0258557 0)
(0.103706 0.00247681 0)
(0.096697 0.0144872 0)
(0.0888307 0.018129 0)
(0.0792267 0.0189011 0)
(0.0689664 0.0110718 0)
(0.0394666 0.0137933 0)
(0.0100705 0.0249015 0)
(0.000907574 0.0322589 0)
(-0.00526318 0.0138559 0)
(-0.00488004 -0.0030525 0)
(-0.012416 -0.0161065 0)
(-0.0160605 -0.020551 0)
(-0.0211956 -0.029302 0)
(-0.028916 -0.0311914 0)
(-0.0411123 -0.0243493 0)
(-0.0509115 -0.0183774 0)
(-0.0385511 -0.0258406 0)
(-0.0262031 -0.0594603 0)
(-0.021191 -0.0735169 0)
(-0.0147204 -0.0991328 0)
(-0.00895499 -0.125785 0)
(0.000980308 -0.147624 0)
(0.00312829 -0.162363 0)
(-0.00207413 -0.117567 0)
(0.00668044 -0.128163 0)
(0.0169162 -0.135498 0)
(0.0362237 -0.123298 0)
(0.0526371 -0.0879845 0)
(0.0807465 -0.0621259 0)
(0.0968151 -0.0275664 0)
(0.109715 0.00421566 0)
(0.104527 0.0201502 0)
(0.0975434 0.0234445 0)
(0.086915 0.0275761 0)
(0.0790884 0.0264306 0)
(0.0549661 0.0242964 0)
(0.0223941 0.0422532 0)
(0.0172362 0.0453119 0)
(0.0111906 0.0287337 0)
(0.00783311 0.00985651 0)
(-0.00169905 -0.0085807 0)
(-0.00993079 -0.0123931 0)
(-0.0181176 -0.0217728 0)
(-0.028656 -0.0249179 0)
(-0.0406625 -0.0163323 0)
(-0.0458706 -0.0137192 0)
(-0.028178 -0.0252427 0)
(-0.0194712 -0.0650552 0)
(-0.0134907 -0.0829429 0)
(-0.00861715 -0.106959 0)
(-0.00462086 -0.128094 0)
(0.00412254 -0.147746 0)
(0.00972188 -0.166769 0)
(0.00304973 -0.116615 0)
(0.0151255 -0.124627 0)
(0.0257383 -0.133946 0)
(0.0399181 -0.127915 0)
(0.0531356 -0.0947188 0)
(0.0782862 -0.066138 0)
(0.0974034 -0.0301405 0)
(0.108793 0.00497137 0)
(0.108001 0.0250099 0)
(0.103599 0.0275072 0)
(0.0949635 0.0340349 0)
(0.0850876 0.0406993 0)
(0.0689276 0.0389581 0)
(0.0371118 0.0534984 0)
(0.0289131 0.0602193 0)
(0.0249527 0.0423296 0)
(0.0181071 0.0216906 0)
(0.0062015 -0.00142458 0)
(-0.00494159 -0.00481432 0)
(-0.0150686 -0.0149303 0)
(-0.0279493 -0.019268 0)
(-0.0375688 -0.0113286 0)
(-0.0392362 -0.0106277 0)
(-0.0196578 -0.0294051 0)
(-0.0153936 -0.0731981 0)
(-0.00809593 -0.092057 0)
(-0.00463705 -0.115585 0)
(-0.00112086 -0.132238 0)
(0.00731479 -0.147862 0)
(0.0155629 -0.165719 0)
(0.00915913 -0.123059 0)
(0.0244697 -0.129873 0)
(0.0347459 -0.134559 0)
(0.0468853 -0.131528 0)
(0.0544837 -0.0998356 0)
(0.0750022 -0.0658398 0)
(0.0946548 -0.035299 0)
(0.108126 0.00642227 0)
(0.105992 0.0278774 0)
(0.105916 0.0330778 0)
(0.0977765 0.0411554 0)
(0.0878432 0.0515085 0)
(0.0783532 0.0545365 0)
(0.0526212 0.0632854 0)
(0.0389034 0.0703829 0)
(0.0303443 0.0577165 0)
(0.0260037 0.0327741 0)
(0.01087 0.00613789 0)
(-0.00186096 0.000734732 0)
(-0.0125526 -0.0086018 0)
(-0.0261572 -0.0136261 0)
(-0.0323237 -0.00628361 0)
(-0.0314189 -0.00883316 0)
(-0.0157747 -0.0316497 0)
(-0.0153648 -0.0794872 0)
(-0.00260014 -0.0993715 0)
(-0.00258795 -0.120244 0)
(0.000440631 -0.133029 0)
(0.00951904 -0.145443 0)
(0.0142706 -0.161834 0)
(0.0100653 -0.132393 0)
(0.0266772 -0.143719 0)
(0.0371962 -0.143023 0)
(0.0490758 -0.133298 0)
(0.0552961 -0.102107 0)
(0.0732492 -0.0652361 0)
(0.0900482 -0.0359537 0)
(0.104374 0.00322369 0)
(0.107009 0.0303223 0)
(0.108385 0.0385554 0)
(0.100576 0.0483712 0)
(0.0902982 0.0597105 0)
(0.0809944 0.0666551 0)
(0.0660783 0.0694929 0)
(0.0422669 0.0750544 0)
(0.033719 0.0700736 0)
(0.0315565 0.0435842 0)
(0.01556 0.0129999 0)
(0.00141058 0.00557296 0)
(-0.00719944 -0.000892838 0)
(-0.0218942 -0.00706819 0)
(-0.0277155 -0.00177256 0)
(-0.0240237 -0.00652946 0)
(-0.0129223 -0.0298787 0)
(-0.0130276 -0.0804625 0)
(0.00128434 -0.105077 0)
(-0.00255313 -0.122904 0)
(-0.00197134 -0.131437 0)
(0.00732896 -0.150057 0)
(0.0107384 -0.155767 0)
(0.00798095 -0.139785 0)
(0.0265767 -0.15997 0)
(0.0351085 -0.153768 0)
(0.0477178 -0.137841 0)
(0.0539742 -0.104834 0)
(0.068831 -0.0640495 0)
(0.0857262 -0.0412154 0)
(0.0967467 -0.00186034 0)
(0.104344 0.0293534 0)
(0.108273 0.0427735 0)
(0.103372 0.0540566 0)
(0.0932277 0.0657275 0)
(0.0806499 0.0767822 0)
(0.0674042 0.0788617 0)
(0.0532475 0.0775808 0)
(0.0382391 0.0778776 0)
(0.0350767 0.0518223 0)
(0.0188606 0.0194793 0)
(0.00494369 0.00838209 0)
(-0.00194866 0.00462828 0)
(-0.0156823 -0.00108735 0)
(-0.0233991 0.00407968 0)
(-0.0208729 -0.00619787 0)
(-0.00894282 -0.0321847 0)
(-0.00849344 -0.0856477 0)
(0.00115538 -0.10805 0)
(-0.00182815 -0.120187 0)
(0.000544574 -0.128886 0)
(0.00531997 -0.155163 0)
(0.0062102 -0.151148 0)
(0.00712648 -0.14651 0)
(0.0271531 -0.169484 0)
(0.03509 -0.163563 0)
(0.0447512 -0.140454 0)
(0.0495934 -0.107624 0)
(0.0613343 -0.0652577 0)
(0.0789088 -0.041639 0)
(0.0877758 -0.00701584 0)
(0.0989496 0.0251662 0)
(0.10492 0.0451952 0)
(0.103705 0.0596343 0)
(0.0942116 0.0721566 0)
(0.0783041 0.0835817 0)
(0.0671627 0.0863531 0)
(0.0585665 0.0855041 0)
(0.0462985 0.0802766 0)
(0.0401989 0.0590699 0)
(0.0233514 0.0227818 0)
(0.00776989 0.010635 0)
(-0.000465238 0.00572107 0)
(-0.0101993 0.00265206 0)
(-0.0152808 0.00871604 0)
(-0.0179186 -0.00791193 0)
(-0.00629475 -0.0492455 0)
(-0.00778979 -0.0960585 0)
(-0.00116581 -0.112367 0)
(-0.000110041 -0.122782 0)
(0.00455944 -0.138017 0)
(0.00563148 -0.165901 0)
(0.0044204 -0.150981 0)
(0.00611883 -0.15377 0)
(0.030311 -0.177587 0)
(0.0354819 -0.166563 0)
(0.0414971 -0.143859 0)
(0.0460983 -0.111569 0)
(0.0521852 -0.0681172 0)
(0.0713517 -0.0415267 0)
(0.0793139 -0.0104224 0)
(0.0892282 0.0206196 0)
(0.0976294 0.0468119 0)
(0.099706 0.0645226 0)
(0.0900971 0.0777883 0)
(0.0750208 0.0873045 0)
(0.0656598 0.0907246 0)
(0.0632204 0.0920925 0)
(0.0624785 0.0821146 0)
(0.0458367 0.061626 0)
(0.0259822 0.0262584 0)
(0.00949914 0.0104348 0)
(-0.00228882 0.00272306 0)
(-0.0076566 -0.00190926 0)
(-0.00857695 0.00423087 0)
(-0.0123314 -0.0158214 0)
(-0.00468312 -0.0636795 0)
(-0.00398614 -0.107023 0)
(0.0026067 -0.12789 0)
(0.00327224 -0.137546 0)
(0.00865795 -0.161224 0)
(0.00454096 -0.177843 0)
(0.00271009 -0.153675 0)
(0.00396431 -0.160196 0)
(0.0296137 -0.181219 0)
(0.0343025 -0.164935 0)
(0.0384818 -0.145782 0)
(0.0400647 -0.115048 0)
(0.0434799 -0.0732152 0)
(0.0586629 -0.0424961 0)
(0.0682888 -0.0145607 0)
(0.0745928 0.0195959 0)
(0.0868541 0.049329 0)
(0.0902514 0.0673806 0)
(0.0820277 0.0785026 0)
(0.0710283 0.0876933 0)
(0.0642052 0.0910761 0)
(0.0693806 0.0932479 0)
(0.0706377 0.0858731 0)
(0.0449767 0.0636573 0)
(0.0159102 0.0237685 0)
(0.00680109 0.00274625 0)
(-0.00251172 -0.00841663 0)
(-0.00496127 -0.0137532 0)
(-0.00494718 -0.00716618 0)
(-0.00848238 -0.0232944 0)
(-0.000251679 -0.0660199 0)
(0.00643511 -0.116928 0)
(0.00989536 -0.15172 0)
(0.0110578 -0.167443 0)
(0.0136328 -0.189442 0)
(0.005685 -0.204776 0)
(-0.000103763 -0.166282 0)
(0.000907941 -0.16914 0)
(0.0258764 -0.183979 0)
(0.0300243 -0.161359 0)
(0.0336057 -0.145757 0)
(0.0317612 -0.117105 0)
(0.0318903 -0.0784261 0)
(0.04163 -0.0453727 0)
(0.0531549 -0.0190995 0)
(0.0588138 0.0200265 0)
(0.0733272 0.0486994 0)
(0.0758312 0.0664087 0)
(0.0742874 0.0758238 0)
(0.0674412 0.0831783 0)
(0.0650968 0.0887732 0)
(0.0688219 0.0902661 0)
(0.0658454 0.0867136 0)
(0.0416787 0.0626544 0)
(0.0139354 0.018401 0)
(0.00657849 -0.00122951 0)
(-0.00171117 -0.00957122 0)
(-0.00656563 -0.015301 0)
(-0.00962469 -0.0137314 0)
(-0.0121161 -0.0337433 0)
(-0.00394135 -0.0751075 0)
(0.0117989 -0.120483 0)
(0.0153676 -0.159274 0)
(0.0152398 -0.178081 0)
(0.0151992 -0.198653 0)
(0.00644705 -0.213338 0)
(0.00494091 -0.186075 0)
(-0.00215873 -0.177362 0)
(0.0203386 -0.189632 0)
(0.0236325 -0.162733 0)
(0.0273027 -0.145174 0)
(0.0215607 -0.119957 0)
(0.0184876 -0.0847675 0)
(0.0243809 -0.0487412 0)
(0.0351549 -0.0235131 0)
(0.0452818 0.0148166 0)
(0.0578291 0.0435165 0)
(0.0632793 0.0622529 0)
(0.0670114 0.0711971 0)
(0.0636405 0.0784568 0)
(0.0627069 0.082981 0)
(0.0609076 0.0858209 0)
(0.0550143 0.0844055 0)
(0.036018 0.066048 0)
(0.0109139 0.018558 0)
(0.00585254 0.00284529 0)
(-0.00339234 -0.00661183 0)
(-0.0111291 -0.0136781 0)
(-0.0138647 -0.0206392 0)
(-0.0166911 -0.0491001 0)
(-0.0136724 -0.0910123 0)
(0.00878601 -0.127355 0)
(0.0160624 -0.161883 0)
(0.0170426 -0.176977 0)
(0.0160718 -0.192446 0)
(0.00643228 -0.210729 0)
(0.00788458 -0.188848 0)
(-0.00628421 -0.178468 0)
(0.0149979 -0.191121 0)
(0.0174856 -0.163015 0)
(0.0214023 -0.144467 0)
(0.013353 -0.125736 0)
(0.00593849 -0.0929693 0)
(0.00703472 -0.0540477 0)
(0.01966 -0.0275217 0)
(0.0320898 0.00456896 0)
(0.0415041 0.0386202 0)
(0.0506479 0.0565198 0)
(0.0575276 0.0667085 0)
(0.0589948 0.0746405 0)
(0.0582714 0.0786497 0)
(0.0547274 0.0817638 0)
(0.0447758 0.0826611 0)
(0.0303129 0.0740059 0)
(0.0114467 0.0271051 0)
(0.0043917 0.00945338 0)
(-0.00831251 0.000337246 0)
(-0.0158808 -0.0123129 0)
(-0.0183358 -0.0279896 0)
(-0.022985 -0.0617735 0)
(-0.0150207 -0.100369 0)
(0.0040608 -0.134264 0)
(0.0142183 -0.162133 0)
(0.0166157 -0.17139 0)
(0.0162927 -0.184209 0)
(0.00598949 -0.203685 0)
(0.00765056 -0.184194 0)
(-0.012916 -0.175539 0)
(0.0091306 -0.188038 0)
(0.011474 -0.160151 0)
(0.014041 -0.143206 0)
(0.00344582 -0.130679 0)
(-0.00588919 -0.103131 0)
(-0.00579758 -0.0626688 0)
(0.0078435 -0.0351417 0)
(0.0191894 -0.00177076 0)
(0.029115 0.0309232 0)
(0.0402087 0.0522067 0)
(0.047416 0.0640999 0)
(0.050818 0.0729176 0)
(0.0493117 0.0733005 0)
(0.0458703 0.0783937 0)
(0.0327736 0.0845397 0)
(0.0228284 0.0809064 0)
(0.00857631 0.0330756 0)
(-0.000504215 0.0208054 0)
(-0.00933516 0.00922602 0)
(-0.0181655 -0.00968787 0)
(-0.0217484 -0.0338145 0)
(-0.0280286 -0.0696247 0)
(-0.0132133 -0.104763 0)
(0.00183652 -0.138978 0)
(0.010305 -0.162842 0)
(0.0143411 -0.166961 0)
(0.0138598 -0.178473 0)
(0.00387734 -0.198094 0)
(0.00573654 -0.180591 0)
(-0.0138612 -0.165501 0)
(0.00446282 -0.179009 0)
(0.00367012 -0.156214 0)
(0.00576435 -0.141839 0)
(-0.00636139 -0.133211 0)
(-0.0158222 -0.11136 0)
(-0.0169891 -0.069722 0)
(-0.00267814 -0.0368776 0)
(0.00905443 -0.00742483 0)
(0.0196721 0.0245191 0)
(0.0321655 0.0460236 0)
(0.0402856 0.0631944 0)
(0.0441723 0.0704739 0)
(0.0447966 0.0727663 0)
(0.0386375 0.0787314 0)
(0.0229008 0.089353 0)
(0.0160909 0.0885165 0)
(0.00621438 0.0407101 0)
(-0.00649654 0.0281442 0)
(-0.0149291 0.0182792 0)
(-0.0216185 -0.00806468 0)
(-0.0253927 -0.0356391 0)
(-0.030041 -0.0729576 0)
(-0.0138012 -0.105167 0)
(-0.000165287 -0.141296 0)
(0.00466257 -0.162402 0)
(0.00875136 -0.162145 0)
(0.00833485 -0.170308 0)
(0.000203152 -0.188701 0)
(0.00441558 -0.171899 0)
(-0.0102206 -0.157299 0)
(0.00155802 -0.166525 0)
(-0.00207402 -0.149408 0)
(-0.00467691 -0.136508 0)
(-0.0152935 -0.132466 0)
(-0.0255709 -0.117802 0)
(-0.0307011 -0.0728776 0)
(-0.0149565 -0.0387573 0)
(0.00152524 -0.0112244 0)
(0.0136435 0.0190473 0)
(0.0270682 0.0453403 0)
(0.0367333 0.0617295 0)
(0.0407444 0.0716827 0)
(0.0420943 0.0735684 0)
(0.032849 0.0830585 0)
(0.0165785 0.0966795 0)
(0.0104889 0.0938036 0)
(-0.000521659 0.0431665 0)
(-0.0185941 0.0306896 0)
(-0.0247476 0.0177663 0)
(-0.0282251 -0.00862348 0)
(-0.0298888 -0.0357251 0)
(-0.0308576 -0.0708021 0)
(-0.0149534 -0.103936 0)
(-0.00423372 -0.141013 0)
(-0.00208579 -0.161513 0)
(0.001832 -0.158406 0)
(0.00285578 -0.161955 0)
(-0.00244694 -0.177561 0)
(0.00425054 -0.163328 0)
(-0.00761631 -0.153237 0)
(-0.000284461 -0.155606 0)
(-0.00657673 -0.143107 0)
(-0.0151009 -0.128943 0)
(-0.0233769 -0.128478 0)
(-0.0353286 -0.11807 0)
(-0.0429405 -0.0761152 0)
(-0.0247701 -0.0407806 0)
(-0.00263047 -0.0171607 0)
(0.0105703 0.0152994 0)
(0.0239888 0.0458618 0)
(0.0352778 0.0637866 0)
(0.0380874 0.0747422 0)
(0.037453 0.0803643 0)
(0.026407 0.0899554 0)
(0.0127462 0.104341 0)
(0.00563044 0.0971631 0)
(-0.00894227 0.0483542 0)
(-0.0273486 0.0323704 0)
(-0.0305509 0.0196212 0)
(-0.0326527 -0.00612952 0)
(-0.0326522 -0.0303272 0)
(-0.0275587 -0.0667575 0)
(-0.0130036 -0.0990957 0)
(-0.00731376 -0.13886 0)
(-0.00721584 -0.155783 0)
(-0.00360416 -0.150802 0)
(-0.00105719 -0.151947 0)
(-0.00480655 -0.165543 0)
(0.00376093 -0.153211 0)
(-0.00741459 -0.149243 0)
(-0.00231495 -0.146644 0)
(-0.0116694 -0.135838 0)
(-0.0229812 -0.124112 0)
(-0.0311984 -0.122861 0)
(-0.042648 -0.115894 0)
(-0.0509216 -0.0798752 0)
(-0.0268652 -0.043723 0)
(-0.000949695 -0.0197775 0)
(0.00985829 0.0135966 0)
(0.0205525 0.0447034 0)
(0.0344601 0.0641876 0)
(0.0359584 0.0800115 0)
(0.0327958 0.0862297 0)
(0.0225977 0.0984839 0)
(0.0109056 0.113979 0)
(0.00213294 0.0984871 0)
(-0.0131136 0.0544636 0)
(-0.031967 0.0378416 0)
(-0.036245 0.0240068 0)
(-0.0394515 -0.00133905 0)
(-0.0379891 -0.033798 0)
(-0.0242336 -0.0651047 0)
(-0.0110386 -0.094721 0)
(-0.00868476 -0.132413 0)
(-0.00979801 -0.144539 0)
(-0.00594469 -0.141776 0)
(-0.00428873 -0.142928 0)
(-0.00688993 -0.155258 0)
(0.00307948 -0.147477 0)
(-0.00843268 -0.144678 0)
(-0.00343188 -0.14427 0)
(-0.0187687 -0.13289 0)
(-0.0265632 -0.122432 0)
(-0.0355438 -0.118012 0)
(-0.0452183 -0.112985 0)
(-0.0500979 -0.0830955 0)
(-0.0240329 -0.0447592 0)
(0.000170776 -0.0178379 0)
(0.0116012 0.0172077 0)
(0.0199114 0.049657 0)
(0.0310976 0.0662938 0)
(0.0338192 0.0857493 0)
(0.0292264 0.0931742 0)
(0.0201465 0.106272 0)
(0.00907007 0.12251 0)
(0.000386961 0.0967868 0)
(-0.0138412 0.063096 0)
(-0.0345622 0.0446402 0)
(-0.0417587 0.0293765 0)
(-0.0450694 -0.00352033 0)
(-0.0391621 -0.0377892 0)
(-0.0238662 -0.0627067 0)
(-0.00812952 -0.0856485 0)
(-0.00852886 -0.121889 0)
(-0.0104484 -0.132599 0)
(-0.00828749 -0.133703 0)
(-0.00680223 -0.134918 0)
(-0.00777641 -0.14638 0)
(0.00433561 -0.141892 0)
(-0.00823504 -0.141333 0)
(-0.00216417 -0.146729 0)
(-0.0147071 -0.133739 0)
(-0.0265501 -0.120525 0)
(-0.0358843 -0.113411 0)
(-0.0421611 -0.111095 0)
(-0.0440494 -0.0803991 0)
(-0.0207922 -0.0434608 0)
(-0.00092958 -0.0128599 0)
(0.0128366 0.0197042 0)
(0.0214967 0.0567562 0)
(0.0295688 0.0740481 0)
(0.03133 0.0939935 0)
(0.0254992 0.100755 0)
(0.0178611 0.115338 0)
(0.00746 0.127917 0)
(0.000108946 0.0979438 0)
(-0.0126289 0.0717197 0)
(-0.035425 0.0547809 0)
(-0.0434045 0.0408809 0)
(-0.0435915 0.0021248 0)
(-0.0335004 -0.0329093 0)
(-0.0202822 -0.0566471 0)
(-0.005843 -0.0771069 0)
(-0.00806716 -0.110877 0)
(-0.0105711 -0.124844 0)
(-0.0106902 -0.12638 0)
(-0.00931313 -0.128053 0)
(-0.00874965 -0.14296 0)
(0.00555074 -0.136568 0)
(-0.00911309 -0.13653 0)
(-0.000516695 -0.143636 0)
(-0.0142354 -0.130367 0)
(-0.0300472 -0.117529 0)
(-0.04038 -0.109741 0)
(-0.0370949 -0.107525 0)
(-0.0370062 -0.0747855 0)
(-0.0220796 -0.0409994 0)
(-0.00204016 -0.00787817 0)
(0.0135936 0.0250619 0)
(0.0204893 0.0623376 0)
(0.0278694 0.0841 0)
(0.0279129 0.101373 0)
(0.0219242 0.110351 0)
(0.0158303 0.124744 0)
(0.00566683 0.132161 0)
(-0.00031263 0.100858 0)
(-0.00894655 0.0817604 0)
(-0.0324835 0.0676042 0)
(-0.0414874 0.054385 0)
(-0.0381357 0.00733764 0)
(-0.0266865 -0.0256911 0)
(-0.0155795 -0.0484326 0)
(-0.00329165 -0.0688674 0)
(-0.00592571 -0.101806 0)
(-0.0114538 -0.115549 0)
(-0.0138655 -0.117811 0)
(-0.0107789 -0.124764 0)
(-0.0115808 -0.141164 0)
(0.00630909 -0.130947 0)
(-0.0111335 -0.129499 0)
(-0.00277671 -0.138468 0)
(-0.0165664 -0.123055 0)
(-0.0311044 -0.109573 0)
(-0.039472 -0.102904 0)
(-0.0326191 -0.0980529 0)
(-0.0370028 -0.0679846 0)
(-0.0247516 -0.0375572 0)
(-0.00159031 -0.00333359 0)
(0.0122733 0.0302731 0)
(0.0196259 0.0688683 0)
(0.0266411 0.0928863 0)
(0.0238103 0.111412 0)
(0.017378 0.118926 0)
(0.0135172 0.133207 0)
(0.00482208 0.13469 0)
(-0.000378514 0.105734 0)
(-0.00578969 0.0923418 0)
(-0.0270163 0.0819935 0)
(-0.0391299 0.067029 0)