/*--------------------------------*- C++ -*----------------------------------*\
| =========                 |                                                 |
| \\      /  F ield         | OpenFOAM: The Open Source CFD Toolbox           |
|  \\    /   O peration     | Version:  2.3.0                                 |
|   \\  /    A nd           | Web:      www.OpenFOAM.org                      |
|    \\/     M anipulation  |                                                 |
\*---------------------------------------------------------------------------*/
FoamFile
{
    version     2.0;
    format      ascii;
    class       volScalarField;
    location    "0.142";
    object      epsilon;
}
// * * * * * * * * * * * * * * * * * * * * * * * * * * * * * * * * * * * * * //

dimensions      [0 2 -3 0 0 0 0];

internalField   nonuniform List<scalar> 
545
(
1.70797e+08
1.62645e+08
1.49637e+08
1.38414e+08
1.30733e+08
1.74102e+08
1.6302e+08
1.49239e+08
1.37729e+08
1.2945e+08
1.79786e+08
1.63325e+08
1.48284e+08
1.36308e+08
1.27155e+08
1.8838e+08
1.63078e+08
1.46752e+08
1.34273e+08
1.23647e+08
2.0112e+08
1.61678e+08
1.4499e+08
1.32093e+08
1.18704e+08
1.26806e+08
1.2466e+08
1.23976e+08
1.23758e+08
1.23688e+08
1.23664e+08
1.23655e+08
1.2365e+08
1.23646e+08
1.23643e+08
1.2364e+08
1.23637e+08
1.23635e+08
1.23632e+08
1.2363e+08
1.23627e+08
1.23625e+08
1.23623e+08
1.23621e+08
1.23619e+08
1.23617e+08
1.23615e+08
1.23613e+08
1.23611e+08
1.2361e+08
1.23608e+08
1.23606e+08
1.23605e+08
1.23604e+08
1.23602e+08
1.23601e+08
1.236e+08
1.23599e+08
1.23598e+08
1.23597e+08
1.23597e+08
1.23596e+08
1.23595e+08
1.23595e+08
1.23594e+08
1.23594e+08
1.23594e+08
1.23593e+08
1.23593e+08
1.23593e+08
1.25824e+08
1.24359e+08
1.2388e+08
1.23728e+08
1.23679e+08
1.23661e+08
1.23654e+08
1.23649e+08
1.23646e+08
1.23643e+08
1.2364e+08
1.23637e+08
1.23635e+08
1.23632e+08
1.2363e+08
1.23627e+08
1.23625e+08
1.23623e+08
1.23621e+08
1.23618e+08
1.23616e+08
1.23615e+08
1.23613e+08
1.23611e+08
1.23609e+08
1.23608e+08
1.23606e+08
1.23605e+08
1.23604e+08
1.23602e+08
1.23601e+08
1.236e+08
1.23599e+08
1.23598e+08
1.23597e+08
1.23596e+08
1.23596e+08
1.23595e+08
1.23595e+08
1.23594e+08
1.23594e+08
1.23594e+08
1.23593e+08
1.23593e+08
1.23593e+08
1.24395e+08
1.23856e+08
1.23719e+08
1.23678e+08
1.23663e+08
1.23656e+08
1.23652e+08
1.23649e+08
1.23646e+08
1.23643e+08
1.2364e+08
1.23637e+08
1.23635e+08
1.23632e+08
1.2363e+08
1.23627e+08
1.23625e+08
1.23623e+08
1.2362e+08
1.23618e+08
1.23616e+08
1.23615e+08
1.23613e+08
1.23611e+08
1.23609e+08
1.23608e+08
1.23606e+08
1.23605e+08
1.23603e+08
1.23602e+08
1.23601e+08
1.236e+08
1.23599e+08
1.23598e+08
1.23597e+08
1.23596e+08
1.23596e+08
1.23595e+08
1.23595e+08
1.23594e+08
1.23594e+08
1.23593e+08
1.23593e+08
1.23593e+08
1.23593e+08
1.22536e+08
1.23268e+08
1.23538e+08
1.23622e+08
1.23646e+08
1.23651e+08
1.23651e+08
1.23648e+08
1.23646e+08
1.23643e+08
1.2364e+08
1.23637e+08
1.23635e+08
1.23632e+08
1.23629e+08
1.23627e+08
1.23625e+08
1.23623e+08
1.2362e+08
1.23618e+08
1.23616e+08
1.23614e+08
1.23613e+08
1.23611e+08
1.23609e+08
1.23608e+08
1.23606e+08
1.23605e+08
1.23603e+08
1.23602e+08
1.23601e+08
1.236e+08
1.23599e+08
1.23598e+08
1.23597e+08
1.23596e+08
1.23596e+08
1.23595e+08
1.23595e+08
1.23594e+08
1.23594e+08
1.23593e+08
1.23593e+08
1.23593e+08
1.23593e+08
1.2037e+08
1.22771e+08
1.23394e+08
1.23578e+08
1.23632e+08
1.23647e+08
1.23649e+08
1.23648e+08
1.23645e+08
1.23643e+08
1.2364e+08
1.23637e+08
1.23634e+08
1.23632e+08
1.23629e+08
1.23627e+08
1.23625e+08
1.23623e+08
1.2362e+08
1.23618e+08
1.23616e+08
1.23614e+08
1.23613e+08
1.23611e+08
1.23609e+08
1.23608e+08
1.23606e+08
1.23605e+08
1.23603e+08
1.23602e+08
1.23601e+08
1.236e+08
1.23599e+08
1.23598e+08
1.23597e+08
1.23596e+08
1.23596e+08
1.23595e+08
1.23594e+08
1.23594e+08
1.23594e+08
1.23593e+08
1.23593e+08
1.23593e+08
1.23593e+08
1.2061e+08
1.22619e+08
1.23336e+08
1.23559e+08
1.23626e+08
1.23645e+08
1.23649e+08
1.23648e+08
1.23645e+08
1.23643e+08
1.2364e+08
1.23637e+08
1.23634e+08
1.23632e+08
1.23629e+08
1.23627e+08
1.23625e+08
1.23622e+08
1.2362e+08
1.23618e+08
1.23616e+08
1.23614e+08
1.23613e+08
1.23611e+08
1.23609e+08
1.23608e+08
1.23606e+08
1.23605e+08
1.23603e+08
1.23602e+08
1.23601e+08
1.236e+08
1.23599e+08
1.23598e+08
1.23597e+08
1.23596e+08
1.23596e+08
1.23595e+08
1.23594e+08
1.23594e+08
1.23594e+08
1.23593e+08
1.23593e+08
1.23593e+08
1.23593e+08
2.0112e+08
1.61678e+08
1.4499e+08
1.32093e+08
1.18704e+08
1.8838e+08
1.63078e+08
1.46752e+08
1.34273e+08
1.23647e+08
1.79786e+08
1.63325e+08
1.48284e+08
1.36308e+08
1.27155e+08
1.74102e+08
1.6302e+08
1.49239e+08
1.37729e+08
1.2945e+08
1.70797e+08
1.62645e+08
1.49637e+08
1.38414e+08
1.30733e+08
1.2037e+08
1.22771e+08
1.23394e+08
1.23578e+08
1.23632e+08
1.23647e+08
1.23649e+08
1.23648e+08
1.23645e+08
1.23643e+08
1.2364e+08
1.23637e+08
1.23634e+08
1.23632e+08
1.23629e+08
1.23627e+08
1.23625e+08
1.23623e+08
1.2362e+08
1.23618e+08
1.23616e+08
1.23614e+08
1.23613e+08
1.23611e+08
1.23609e+08
1.23608e+08
1.23606e+08
1.23605e+08
1.23603e+08
1.23602e+08
1.23601e+08
1.236e+08
1.23599e+08
1.23598e+08
1.23597e+08
1.23596e+08
1.23596e+08
1.23595e+08
1.23594e+08
1.23594e+08
1.23594e+08
1.23593e+08
1.23593e+08
1.23593e+08
1.23593e+08
1.22536e+08
1.23268e+08
1.23538e+08
1.23622e+08
1.23646e+08
1.23651e+08
1.23651e+08
1.23648e+08
1.23646e+08
1.23643e+08
1.2364e+08
1.23637e+08
1.23635e+08
1.23632e+08
1.23629e+08
1.23627e+08
1.23625e+08
1.23623e+08
1.2362e+08
1.23618e+08
1.23616e+08
1.23614e+08
1.23613e+08
1.23611e+08
1.23609e+08
1.23608e+08
1.23606e+08
1.23605e+08
1.23603e+08
1.23602e+08
1.23601e+08
1.236e+08
1.23599e+08
1.23598e+08
1.23597e+08
1.23596e+08
1.23596e+08
1.23595e+08
1.23595e+08
1.23594e+08
1.23594e+08
1.23593e+08
1.23593e+08
1.23593e+08
1.23593e+08
1.24395e+08
1.23856e+08
1.23719e+08
1.23678e+08
1.23663e+08
1.23656e+08
1.23652e+08
1.23649e+08
1.23646e+08
1.23643e+08
1.2364e+08
1.23637e+08
1.23635e+08
1.23632e+08
1.2363e+08
1.23627e+08
1.23625e+08
1.23623e+08
1.2362e+08
1.23618e+08
1.23616e+08
1.23615e+08
1.23613e+08
1.23611e+08
1.23609e+08
1.23608e+08
1.23606e+08
1.23605e+08
1.23603e+08
1.23602e+08
1.23601e+08
1.236e+08
1.23599e+08
1.23598e+08
1.23597e+08
1.23596e+08
1.23596e+08
1.23595e+08
1.23595e+08
1.23594e+08
1.23594e+08
1.23593e+08
1.23593e+08
1.23593e+08
1.23593e+08
1.25824e+08
1.24359e+08
1.2388e+08
1.23728e+08
1.23679e+08
1.23661e+08
1.23654e+08
1.23649e+08
1.23646e+08
1.23643e+08
1.2364e+08
1.23637e+08
1.23635e+08
1.23632e+08
1.2363e+08
1.23627e+08
1.23625e+08
1.23623e+08
1.23621e+08
1.23618e+08
1.23616e+08
1.23615e+08
1.23613e+08
1.23611e+08
1.23609e+08
1.23608e+08
1.23606e+08
1.23605e+08
1.23604e+08
1.23602e+08
1.23601e+08
1.236e+08
1.23599e+08
1.23598e+08
1.23597e+08
1.23596e+08
1.23596e+08
1.23595e+08
1.23595e+08
1.23594e+08
1.23594e+08
1.23594e+08
1.23593e+08
1.23593e+08
1.23593e+08
1.26806e+08
1.2466e+08
1.23976e+08
1.23758e+08
1.23688e+08
1.23664e+08
1.23655e+08
1.2365e+08
1.23646e+08
1.23643e+08
1.2364e+08
1.23637e+08
1.23635e+08
1.23632e+08
1.2363e+08
1.23627e+08
1.23625e+08
1.23623e+08
1.23621e+08
1.23619e+08
1.23617e+08
1.23615e+08
1.23613e+08
1.23611e+08
1.23609e+08
1.23608e+08
1.23606e+08
1.23605e+08
1.23604e+08
1.23602e+08
1.23601e+08
1.236e+08
1.23599e+08
1.23598e+08
1.23597e+08
1.23597e+08
1.23596e+08
1.23595e+08
1.23595e+08
1.23594e+08
1.23594e+08
1.23594e+08
1.23593e+08
1.23593e+08
1.23593e+08
)
;

boundaryField
{
    AirInlet
    {
        type            fixedValue;
        value           uniform 0.1;
    }
    WaterInlet
    {
        type            fixedValue;
        value           uniform 0.1;
    }
    ChannelWall
    {
        type            fixedValue;
        value           uniform 0.1;
    }
    Outlet
    {
        type            inletOutlet;
        inletValue      uniform 0.1;
        value           nonuniform List<scalar> 
11
(
1.23593e+08
1.23593e+08
1.23593e+08
1.23593e+08
1.23593e+08
1.23593e+08
1.23593e+08
1.23593e+08
1.23593e+08
1.23593e+08
1.23593e+08
)
;
    }
    FrontAndBack
    {
        type            empty;
    }
}


// ************************************************************************* //
