/*--------------------------------*- C++ -*----------------------------------*\
| =========                 |                                                 |
| \\      /  F ield         | OpenFOAM: The Open Source CFD Toolbox           |
|  \\    /   O peration     | Version:  2.3.0                                 |
|   \\  /    A nd           | Web:      www.OpenFOAM.org                      |
|    \\/     M anipulation  |                                                 |
\*---------------------------------------------------------------------------*/
FoamFile
{
    version     2.0;
    format      ascii;
    class       volScalarField;
    location    "0.142";
    object      p_rgh;
}
// * * * * * * * * * * * * * * * * * * * * * * * * * * * * * * * * * * * * * //

dimensions      [1 -1 -2 0 0 0 0];

internalField   nonuniform List<scalar> 
545
(
-9.09103e+07
-1.66494e+07
-2.12544e+06
-2.81945e+06
-9.62904e+06
6.56252e+07
-3.28518e+06
-2.53303e+06
-2.70528e+06
-7.80373e+06
1.14019e+08
4.22133e+06
-287802
-346059
-8.19565e+06
6.61983e+07
-3.49208e+06
-2.00057e+06
-35815.1
-7.30968e+06
-1.04627e+08
-2.54034e+06
-394290
4.92549e+06
1.34231e+07
-7.90793e+06
-1.973e+06
-751125
3672.43
136827
165054
149962
135666
128832
124766
123620
121813
121718
120430
120965
120295
121308
120744
121788
120781
121261
119415
119011
116286
115037
111265
109464
105059
102656
97671.6
94767.3
89132.4
85548.9
79153.6
74864.6
67681.3
62694.2
54847.8
49484.8
41321.3
35553.4
27048
21119.6
12767.3
7759.55
-6.95146e+06
-1.18999e+06
-706991
-131853
15275
100092
120721
125490
125324
124436
123180
122273
121317
120907
120509
120804
120847
121309
121325
121380
120757
120024
118477
116905
114469
111913
108887
105735
102060
98370.1
94154
89856.4
84903.2
79868.4
74159.2
68410.2
61989.9
55554.8
48786.2
42111.7
34856.6
27741.8
20156.7
12762.4
3741.8
-8.17412e+06
-526073
-385901
7466.35
48206.8
107050
121178
123972
124692
123802
123260
121954
121558
120628
120794
120553
121170
121027
121669
121059
121105
119666
118823
116558
114857
111521
109307
105366
102483
97972.1
94596.1
89456
85326
79401.7
74554.3
67941
62413.6
55069.7
49255.4
41743.5
35330
27250.4
20329.6
12333.3
6154.28
-8.65316e+06
798954
268045
264850
130639
136671
129934
125672
124308
123729
122878
122104
121264
120900
120492
120916
120858
121354
121346
121365
120716
119999
118372
116967
114466
111854
108940
105773
102080
98360.4
94186.2
89878.7
84866
79760.9
74004.5
68363.2
61913.8
55470.1
48813.8
42289.7
34926.3
27617.4
19651.4
11782.6
2337.61
-1.91893e+06
3.83737e+06
1.39635e+06
519905
197004
148386
130291
123213
123569
122982
123058
121692
121616
120579
120786
120707
121186
120976
121773
120876
121096
119538
118634
116589
114954
111190
109554
105217
102657
97711.2
94807.1
89262.6
85467.2
78996.6
74471.5
67716
62494.7
54727.3
49458.2
41840.8
35573.8
27031.1
19926.4
11443.8
5144.43
-1.53845e+07
5.44665e+06
2.27214e+06
694322
224758
149709
130807
126664
125644
126556
123116
122358
122964
124735
124477
123266
124880
124765
121805
121631
121954
123891
122993
119193
117983
117325
112586
108034
102612
101059
95993.4
90868.4
84678.4
79747.4
76847.2
71937.3
65310.1
60454.5
52392
46001.4
35328.3
27856.1
20566.8
14614.2
4877.55
-1.04623e+08
-2.53675e+06
-391540
4.9278e+06
1.34245e+07
6.62024e+07
-3.48848e+06
-1.99759e+06
-33290.6
-7.308e+06
1.14023e+08
4.22494e+06
-284485
-343196
-8.19348e+06
6.56291e+07
-3.28153e+06
-2.52932e+06
-2.70201e+06
-7.80112e+06
-9.09065e+07
-1.66458e+07
-2.12143e+06
-2.81586e+06
-9.62617e+06
-1.91883e+06
3.83816e+06
1.39634e+06
520676
196412
148712
129603
123571
122979
123433
122484
122264
121102
121149
120313
121303
120680
121524
121164
121420
120451
120002
118003
117064
114332
111678
108944
105746
102011
98253.9
94166.7
89808.6
84771.6
79547.5
73840.2
68221.4
61858.9
55225.1
48802.9
42312.9
34886.1
27667.4
19361.4
12168.8
4688.42
-8.6523e+06
800026
268694
265590
130196
136556
129245
125653
123851
123892
122526
122418
121028
121287
120330
121333
120635
121659
120968
121574
120247
120115
117881
117092
113997
112012
108511
105981
101650
98579.3
93757.5
90081.2
84379.6
79946.1
73550.8
68532.3
61454.5
55632.3
48323.3
42403.2
34444.8
27939.3
19359
12133.8
2031.61
-8.17254e+06
-524723
-384829
8000.25
47829.5
106518
120484
123648
124357
123712
123091
122051
121560
120870
120908
120821
121194
121126
121486
120978
120770
119467
118436
116362
114508
111381
109023
105288
102228
97909.3
94335.3
89361.2
85003.1
79266.9
74230.5
67802.7
62094.7
54937.4
48913.9
41562.7
35009.9
27262.9
20191.2
12405.5
6077.08
-6.94942e+06
-1.18834e+06
-705859
-131537
14813.9
99274.1
119932
125027
125005
124244
123059
122292
121413
121129
120751
121053
120976
121348
121199
121175
120427
119670
118071
116545
114107
111628
108612
105528
101835
98183
93919.1
89627.4
84599.6
79580.3
73829.9
68117.2
61672.1
55281.2
48467.7
41814.1
34557.7
27561.6
20001.2
12731
3745.28
-7.90566e+06
-1.97119e+06
-750082
3787.68
136286
164096
149135
135172
128500
124522
123497
121812
121842
120663
121254
120556
121476
120776
121676
120534
120912
118997
118568
115854
114641
110916
109165
104798
102417
97435.1
94518.3
88849.6
85229.3
78804.4
74503.8
67318.9
62344
54512.3
49156.2
40991.5
35233.2
26764.5
20903.1
12713.3
7822.31
)
;

boundaryField
{
    AirInlet
    {
        type            fixedFluxPressure;
        gradient        uniform 3.60124e+08;
        value           uniform -1.53809e+07;
    }
    WaterInlet
    {
        type            fixedFluxPressure;
        gradient        nonuniform List<scalar> 10(0 -0.218639 0 0 0 0 0 0 0 0);
        value           nonuniform List<scalar> 10(-9.09103e+07 6.56252e+07 1.14019e+08 6.61983e+07 -1.04627e+08 -1.04623e+08 6.62024e+07 1.14023e+08 6.56291e+07 -9.09065e+07);
    }
    ChannelWall
    {
        type            fixedFluxPressure;
        gradient        uniform 0;
        value           nonuniform List<scalar> 
110
(
-1.04627e+08
-2.54034e+06
-394290
4.92549e+06
1.34231e+07
-1.04623e+08
-2.53675e+06
-391540
4.9278e+06
1.34245e+07
-9.09065e+07
-1.66458e+07
-2.12143e+06
-2.81586e+06
-9.62617e+06
-7.90566e+06
-1.97119e+06
-750082
3787.68
136286
164096
149135
135172
128500
124522
123497
121812
121842
120663
121254
120556
121476
120776
121676
120534
120912
118997
118568
115854
114641
110916
109165
104798
102417
97435.1
94518.3
88849.6
85229.3
78804.4
74503.8
67318.9
62344
54512.3
49156.2
40991.5
35233.2
26764.5
20903.1
12713.3
7822.31
-9.09103e+07
-1.66494e+07
-2.12544e+06
-2.81945e+06
-9.62904e+06
-7.90793e+06
-1.973e+06
-751125
3672.43
136827
165054
149962
135666
128832
124766
123620
121813
121718
120430
120965
120295
121308
120744
121788
120781
121261
119415
119011
116286
115037
111265
109464
105059
102656
97671.6
94767.3
89132.4
85548.9
79153.6
74864.6
67681.3
62694.2
54847.8
49484.8
41321.3
35553.4
27048
21119.6
12767.3
7759.55
)
;
    }
    Outlet
    {
        type            totalPressure;
        rho             rho;
        psi             none;
        gamma           1;
        p0              uniform 0;
        value           uniform 0;
    }
    FrontAndBack
    {
        type            empty;
    }
}


// ************************************************************************* //
