/*--------------------------------*- C++ -*----------------------------------*\
| =========                 |                                                 |
| \\      /  F ield         | OpenFOAM: The Open Source CFD Toolbox           |
|  \\    /   O peration     | Version:  2.3.0                                 |
|   \\  /    A nd           | Web:      www.OpenFOAM.org                      |
|    \\/     M anipulation  |                                                 |
\*---------------------------------------------------------------------------*/
FoamFile
{
    version     2.0;
    format      ascii;
    class       volScalarField;
    location    "4.59924";
    object      nut.water;
}
// * * * * * * * * * * * * * * * * * * * * * * * * * * * * * * * * * * * * * //

dimensions      [0 2 -1 0 0 0 0];

internalField   nonuniform List<scalar> 
18816
(
2.5147e-06
2.52545e-06
4.68368e-06
5.30786e-06
6.03721e-06
6.42049e-06
6.88655e-06
7.19157e-06
7.51304e-06
7.69215e-06
7.86034e-06
7.93089e-06
7.91282e-06
7.81729e-06
7.6362e-06
7.34287e-06
6.92812e-06
6.37451e-06
5.68722e-06
4.82277e-06
3.82736e-06
2.82587e-06
2.59427e-06
3.18089e-06
4.43256e-06
5.25552e-06
5.37022e-06
2.78095e-06
7.41433e-33
7.68125e-06
7.4198e-06
7.46402e-06
7.48122e-06
7.5866e-06
7.70031e-06
7.71444e-06
7.67885e-06
7.61741e-06
7.57386e-06
7.54854e-06
7.37078e-06
7.1453e-06
6.8802e-06
6.56924e-06
6.19506e-06
5.74544e-06
5.2497e-06
4.73656e-06
4.19861e-06
3.90664e-06
3.90253e-06
3.99121e-06
4.46274e-06
5.11363e-06
5.98694e-06
1.10832e-32
9.34387e-33
2.95632e-33
3.50204e-33
3.6011e-33
3.67287e-33
3.54032e-33
3.34288e-33
3.25592e-33
3.21039e-33
3.15417e-33
3.24953e-33
6.93361e-06
6.58615e-06
6.30092e-06
6.06025e-06
5.78476e-06
5.49689e-06
5.18916e-06
4.83834e-06
4.42365e-06
3.97875e-06
3.61841e-06
3.53277e-06
3.42633e-06
3.65999e-06
4.4731e-06
5.69851e-06
9.89273e-33
9.27115e-33
3.285e-33
3.76356e-33
3.71304e-33
3.70455e-33
3.59491e-33
3.38213e-33
3.29016e-33
3.42283e-33
3.41823e-33
3.91583e-33
5.35344e-33
5.95528e-06
5.80156e-06
5.63645e-06
5.41016e-06
5.19224e-06
4.91218e-06
4.51034e-06
3.93172e-06
3.35628e-06
2.80967e-06
2.69463e-06
2.69037e-06
3.09067e-06
4.07824e-06
5.54303e-06
9.36448e-33
1.40562e-32
6.76498e-06
4.16398e-33
4.0993e-33
4.14017e-33
3.74475e-33
3.66435e-33
3.63444e-33
3.47013e-33
3.59233e-33
4.58568e-33
7.18133e-33
5.42274e-06
5.10412e-06
4.58348e-06
3.95525e-06
3.3449e-06
2.6369e-06
2.12068e-06
1.93845e-06
1.87166e-06
1.88115e-06
1.93345e-06
2.69558e-06
2.4872e-06
3.71631e-06
5.36484e-06
9.12567e-33
8.16334e-33
9.58443e-06
6.36635e-06
4.29813e-33
4.18648e-33
3.83451e-33
3.73251e-33
3.48218e-33
3.72919e-33
3.74397e-33
4.95549e-33
8.72775e-33
4.58041e-06
3.64518e-06
2.47885e-06
1.82707e-06
1.61098e-06
1.58467e-06
1.64097e-06
1.6526e-06
1.66495e-06
1.76175e-06
1.88073e-06
2.07454e-06
2.31479e-06
3.60001e-06
5.30992e-06
8.9933e-33
7.70578e-33
1.01059e-05
8.92859e-06
6.31574e-06
5.91953e-06
5.55851e-06
4.86421e-06
3.86769e-33
3.87683e-33
4.29834e-33
5.19814e-33
1.82177e-32
3.62736e-06
2.27294e-06
1.24849e-06
1.04746e-06
9.88533e-07
1.34064e-06
1.55978e-06
1.63928e-06
1.64546e-06
1.7063e-06
1.87451e-06
2.03094e-06
2.28378e-06
3.43106e-06
5.2341e-06
9.04092e-33
5.59397e-33
1.01513e-05
9.31041e-06
8.58986e-06
7.92203e-06
7.31736e-06
6.72231e-06
4.90278e-06
4.68041e-06
4.09485e-06
6.29274e-33
2.38262e-32
2.91989e-06
1.64499e-06
8.47426e-07
6.65111e-07
7.69964e-07
1.01326e-06
1.41603e-06
1.62285e-06
1.62312e-06
1.67679e-06
1.75201e-06
2.00574e-06
2.38212e-06
3.22024e-06
5.16773e-06
9.10612e-33
5.32726e-33
1.01337e-05
9.36212e-06
8.78158e-06
8.04021e-06
7.37667e-06
6.82492e-06
6.3787e-06
6.15391e-06
5.42337e-06
6.16817e-33
2.91121e-32
2.4511e-06
1.30131e-06
8.92987e-07
7.94317e-07
1.10171e-06
1.09638e-06
1.12586e-06
1.60287e-06
1.61473e-06
1.6548e-06
1.71559e-06
1.89058e-06
2.40015e-06
2.97363e-06
5.11819e-06
9.08425e-33
4.3835e-33
1.01382e-05
9.38462e-06
8.75082e-06
7.96943e-06
7.27098e-06
6.73378e-06
6.45772e-06
6.32727e-06
5.31948e-06
7.61943e-33
4.30114e-32
1.74759e-06
1.28048e-06
1.15237e-06
9.78148e-07
1.21672e-06
1.3635e-06
1.35744e-06
1.61255e-06
1.61986e-06
1.63413e-06
1.68979e-06
1.81488e-06
2.25615e-06
2.82474e-06
5.09845e-06
9.3588e-33
4.10653e-33
1.01472e-05
9.38448e-06
8.70138e-06
7.92039e-06
7.21675e-06
6.73807e-06
6.50963e-06
6.41092e-06
4.68925e-06
9.09038e-33
7.62084e-32
1.64614e-06
1.43012e-06
1.33044e-06
1.05369e-06
1.0253e-06
1.2542e-06
1.18572e-06
1.6191e-06
1.61261e-06
1.61016e-06
1.66222e-06
1.76668e-06
1.9262e-06
3.01664e-06
5.04356e-06
9.36629e-33
4.00152e-33
1.01449e-05
9.35416e-06
8.67422e-06
7.88875e-06
7.18743e-06
6.74468e-06
6.65103e-06
6.36455e-06
4.6356e-06
2.95312e-06
2.58766e-06
1.79987e-06
1.55091e-06
1.36994e-06
1.24718e-06
1.16778e-06
1.28444e-06
1.28323e-06
1.6328e-06
1.5983e-06
1.58923e-06
1.63024e-06
1.71425e-06
1.91058e-06
2.287e-06
4.94086e-06
9.6137e-33
3.61435e-33
1.01112e-05
9.30581e-06
8.65847e-06
7.86913e-06
7.17353e-06
6.76161e-06
6.76224e-06
6.28493e-06
4.36857e-06
3.58211e-06
2.87612e-06
1.72637e-06
1.52753e-06
1.37527e-06
1.34513e-06
1.31693e-06
1.40701e-06
1.52283e-06
1.61464e-06
1.55844e-06
1.55917e-06
1.59742e-06
1.67537e-06
1.8887e-06
2.44436e-06
4.83513e-06
9.60879e-33
3.58781e-33
1.00669e-05
9.25829e-06
8.65214e-06
7.85424e-06
7.16965e-06
6.79566e-06
6.90581e-06
6.26062e-06
4.05509e-06
3.3009e-06
2.73688e-06
1.61746e-06
1.64526e-06
1.40557e-06
1.41727e-06
1.4537e-06
1.53207e-06
1.51646e-06
1.45449e-06
1.48344e-06
1.50782e-06
1.54483e-06
1.62985e-06
1.82389e-06
2.5672e-06
4.73421e-06
9.84128e-33
3.33291e-33
1.00755e-05
9.24415e-06
8.63959e-06
7.83764e-06
7.16882e-06
6.8326e-06
7.00895e-06
6.1991e-06
3.76906e-06
2.87684e-06
2.3851e-06
1.35338e-06
1.55417e-06
1.38623e-06
1.35347e-06
1.49007e-06
1.49323e-06
1.36919e-06
1.31638e-06
1.40524e-06
1.44768e-06
1.49261e-06
1.57913e-06
1.73386e-06
2.58946e-06
4.57517e-06
1.00345e-32
3.32379e-33
1.01399e-05
9.27151e-06
8.63035e-06
7.82685e-06
7.16973e-06
6.90474e-06
7.14728e-06
6.03153e-06
3.336e-06
2.41521e-06
2.00595e-06
1.30768e-06
1.35704e-06
1.29876e-06
1.24902e-06
1.2309e-06
1.25998e-06
1.2624e-06
1.23465e-06
1.33437e-06
1.37498e-06
1.42904e-06
1.52129e-06
1.62555e-06
2.45824e-06
4.4572e-06
9.97391e-33
3.13182e-33
1.01599e-05
9.30753e-06
8.61319e-06
7.80736e-06
7.17234e-06
6.97846e-06
7.1948e-06
5.70346e-06
2.84247e-06
1.99293e-06
1.45245e-06
1.21303e-06
1.41056e-06
1.12355e-06
1.08467e-06
1.09577e-06
1.2721e-06
1.33572e-06
1.22891e-06
1.26313e-06
1.31231e-06
1.37902e-06
1.47564e-06
1.54229e-06
2.23381e-06
4.42459e-06
1.05565e-32
3.1329e-33
1.0093e-05
9.33373e-06
8.59797e-06
7.79372e-06
7.18946e-06
7.12408e-06
7.22716e-06
5.20821e-06
2.32823e-06
1.489e-06
1.32411e-06
1.29e-06
1.10311e-06
1.151e-06
1.18562e-06
1.22026e-06
1.36272e-06
1.49935e-06
1.29421e-06
1.21481e-06
1.25383e-06
1.32696e-06
1.43439e-06
1.49416e-06
1.96357e-06
4.40027e-06
1.08414e-32
2.94751e-33
1.00323e-05
9.31521e-06
8.59595e-06
7.79233e-06
7.25645e-06
7.25151e-06
7.12743e-06
4.24153e-06
1.59728e-06
1.18169e-06
9.0439e-07
1.2991e-06
1.06516e-06
1.33087e-06
1.16812e-06
1.19313e-06
1.38296e-06
1.53708e-06
1.38846e-06
1.18937e-06
1.20711e-06
1.29149e-06
1.40576e-06
1.45343e-06
1.74107e-06
4.35401e-06
1.07744e-32
2.95806e-33
1.00701e-05
9.2738e-06
8.60501e-06
7.7926e-06
7.36732e-06
7.4512e-06
6.80616e-06
3.26526e-06
1.46028e-06
1.32771e-06
1.29763e-06
1.4538e-06
1.42128e-06
1.43039e-06
1.27966e-06
1.21419e-06
1.29149e-06
1.38343e-06
1.27846e-06
1.12616e-06
1.12352e-06
1.24367e-06
1.37435e-06
1.39948e-06
1.60272e-06
4.30185e-06
1.14786e-32
2.76512e-33
1.02535e-05
9.25951e-06
8.63329e-06
7.86861e-06
7.66048e-06
7.7453e-06
6.235e-06
2.11115e-06
1.602e-06
1.79288e-06
2.0451e-06
2.20908e-06
2.55255e-06
2.31678e-06
2.22713e-06
1.71272e-06
1.0975e-06
7.76696e-07
8.80533e-07
9.33718e-07
1.04995e-06
1.22087e-06
1.36019e-06
1.31328e-06
1.54582e-06
4.23617e-06
1.14142e-32
2.76351e-33
1.04436e-05
9.33095e-06
8.73044e-06
8.08143e-06
7.97847e-06
7.52523e-06
6.88037e-33
1.455e-06
1.04622e-06
9.35771e-07
8.6623e-07
7.88095e-07
8.11591e-07
7.11303e-07
7.11964e-07
6.79672e-07
6.96487e-07
7.60113e-07
8.3687e-07
9.28903e-07
1.0597e-06
1.22011e-06
1.3512e-06
1.12165e-06
1.47762e-06
4.13377e-06
1.20711e-32
2.58704e-33
1.0444e-05
9.42386e-06
8.81962e-06
8.27996e-06
8.21132e-06
7.40534e-06
7.46005e-33
3.41305e-31
7.5727e-07
7.20999e-07
6.51777e-07
6.32292e-07
5.9974e-07
5.86265e-07
5.93548e-07
6.10005e-07
6.61601e-07
7.1483e-07
8.2048e-07
9.12286e-07
1.04236e-06
1.20588e-06
1.33565e-06
6.1409e-07
1.36277e-06
3.99586e-06
1.24056e-32
2.57867e-33
1.045e-05
9.57904e-06
8.96101e-06
8.47871e-06
8.37829e-06
7.22806e-06
7.52652e-33
7.09144e-31
1.2088e-29
5.66108e-07
5.36704e-07
5.65309e-07
5.63112e-07
5.82028e-07
5.96832e-07
6.15226e-07
6.40882e-07
6.97851e-07
8.00949e-07
9.0394e-07
1.0378e-06
1.19634e-06
1.31913e-06
1.76613e-30
1.23862e-06
3.76359e-06
1.2365e-32
2.43053e-33
1.047e-05
9.6927e-06
9.05846e-06
8.63339e-06
8.47347e-06
6.91929e-06
7.78358e-33
3.60401e-31
5.62898e-07
5.17662e-07
5.1938e-07
5.70896e-07
5.59166e-07
5.46256e-07
5.56284e-07
5.81431e-07
6.38975e-07
6.96464e-07
7.92794e-07
8.91878e-07
1.01342e-06
1.16185e-06
1.2779e-06
1.59027e-30
1.16718e-06
3.25298e-06
1.30071e-32
2.42813e-33
1.06152e-05
9.8646e-06
9.1965e-06
8.78131e-06
8.4957e-06
6.47319e-06
8.61103e-33
5.44677e-31
7.826e-07
5.59291e-07
5.30155e-07
5.5351e-07
5.52292e-07
5.43929e-07
5.49509e-07
5.77387e-07
6.23897e-07
6.74716e-07
7.56142e-07
8.48469e-07
9.59874e-07
1.0873e-06
1.18296e-06
1.19799e-30
1.07993e-06
2.43685e-06
1.34341e-32
2.30098e-33
1.06971e-05
9.89892e-06
9.25704e-06
8.88405e-06
8.48025e-06
6.10419e-06
8.50786e-33
3.06406e-30
8.43645e-07
6.53655e-07
6.09314e-07
5.37259e-07
5.33703e-07
5.25018e-07
5.26975e-07
5.50068e-07
5.84212e-07
6.26033e-07
6.87532e-07
7.53524e-07
8.27923e-07
9.1684e-07
9.78641e-07
9.09443e-31
9.53915e-07
1.9622e-06
1.34303e-32
2.25036e-33
1.07631e-05
9.92452e-06
9.37787e-06
8.96198e-06
8.20046e-06
5.82788e-33
1.28269e-32
4.56803e-07
4.93899e-07
8.34938e-07
6.70171e-07
3.89891e-07
3.80402e-07
3.75114e-07
3.74213e-07
3.83822e-07
3.99321e-07
4.16771e-07
4.41761e-07
4.65363e-07
4.88686e-07
5.05239e-07
5.16915e-07
6.78858e-07
6.33738e-07
2.00474e-06
1.4453e-32
9.63299e-07
1.03389e-06
2.95935e-06
3.44259e-06
3.98927e-06
4.28031e-06
4.61518e-06
4.83225e-06
5.04567e-06
5.15325e-06
5.24245e-06
5.23646e-06
5.18072e-06
5.05543e-06
4.86634e-06
4.58238e-06
4.20889e-06
3.74216e-06
3.1965e-06
2.5392e-06
1.86416e-06
1.38311e-06
1.3073e-06
1.5517e-06
2.42829e-06
3.24697e-06
3.39131e-06
3.74852e-32
7.13105e-32
4.83699e-06
4.82998e-06
4.91053e-06
4.97679e-06
5.0729e-06
5.15656e-06
5.16495e-06
5.14419e-06
5.11508e-06
5.11037e-06
5.13738e-06
5.03148e-06
4.88522e-06
4.71509e-06
4.50752e-06
4.24429e-06
3.91534e-06
3.54429e-06
3.17531e-06
2.78963e-06
2.62524e-06
2.59959e-06
2.69308e-06
3.02676e-06
3.49185e-06
4.02348e-06
4.29866e-32
1.54068e-07
9.19903e-07
8.62971e-07
8.37782e-07
7.92114e-07
7.57287e-07
7.04768e-07
6.53517e-07
6.22292e-07
6.29578e-07
1.10064e-06
4.85905e-06
4.62837e-06
4.4605e-06
4.3146e-06
4.13474e-06
3.93253e-06
3.70469e-06
3.44889e-06
3.15675e-06
2.86676e-06
2.71228e-06
2.70179e-06
2.6388e-06
2.70343e-06
3.19346e-06
3.97626e-06
4.5148e-32
1.08731e-07
1.61678e-07
1.46055e-07
1.32179e-07
1.10168e-07
8.18808e-08
7.10528e-08
6.32545e-08
5.9208e-08
4.38026e-08
7.76953e-08
9.38237e-07
4.27694e-06
4.21904e-06
4.13528e-06
3.9843e-06
3.82897e-06
3.60921e-06
3.27448e-06
2.82017e-06
2.41722e-06
2.14529e-06
2.1901e-06
2.17554e-06
2.28672e-06
2.89784e-06
3.87132e-06
3.5e-32
1.34405e-31
3.39948e-06
6.71192e-08
4.30627e-08
3.73811e-08
2.64999e-08
2.03536e-08
1.71328e-08
1.71902e-08
1.18846e-08
9.21754e-09
4.59679e-07
3.98549e-06
3.81673e-06
3.48886e-06
3.07067e-06
2.60406e-06
1.99675e-06
1.66048e-06
1.58745e-06
1.56997e-06
1.63514e-06
1.83438e-06
2.72526e-06
1.94784e-06
2.65345e-06
3.7515e-06
3.38577e-32
8.142e-32
6.36551e-06
3.10761e-06
4.22234e-08
7.35796e-09
8.51747e-10
3.48102e-10
6.43986e-10
9.56636e-10
6.94438e-10
1.23059e-09
2.33851e-07
3.42736e-06
2.77292e-06
1.88717e-06
1.42873e-06
1.35037e-06
1.35415e-06
1.4231e-06
1.47684e-06
1.52811e-06
1.5853e-06
1.66719e-06
1.85744e-06
2.03411e-06
2.58426e-06
3.71866e-06
3.13624e-32
5.5936e-32
7.00724e-06
5.83608e-06
3.26459e-06
3.08017e-06
2.90169e-06
2.32687e-06
1.48168e-08
1.32953e-09
2.62353e-09
1.38022e-09
1.64253e-07
2.76146e-06
1.7195e-06
9.7101e-07
9.83187e-07
9.23889e-07
1.11911e-06
1.30555e-06
1.42689e-06
1.49868e-06
1.56654e-06
1.64808e-06
1.70969e-06
2.25471e-06
2.51178e-06
3.68235e-06
3.03562e-32
3.51735e-32
7.05299e-06
6.45758e-06
5.75763e-06
5.32523e-06
4.91594e-06
4.40678e-06
2.61501e-06
2.47335e-06
2.02798e-06
1.9359e-08
6.89536e-08
2.23662e-06
1.30437e-06
7.86184e-07
6.0671e-07
7.61493e-07
8.68445e-07
1.16256e-06
1.35928e-06
1.45625e-06
1.52183e-06
1.56954e-06
1.69538e-06
2.04492e-06
2.414e-06
3.63738e-06
3.02752e-32
3.0688e-32
7.03678e-06
6.56699e-06
6.11376e-06
5.5913e-06
5.11053e-06
4.70851e-06
4.30536e-06
4.14525e-06
3.61353e-06
1.16521e-08
7.62238e-09
1.89719e-06
1.06854e-06
8.25079e-07
7.01972e-07
8.87807e-07
1.23873e-06
9.56205e-07
1.34146e-06
1.44093e-06
1.48878e-06
1.54331e-06
1.62621e-06
1.96218e-06
2.29934e-06
3.60366e-06
2.97256e-32
2.37721e-32
7.04042e-06
6.58593e-06
6.1135e-06
5.57677e-06
5.06951e-06
4.6783e-06
4.48178e-06
4.40667e-06
3.71498e-06
2.60228e-08
2.2097e-08
1.39759e-06
1.00566e-06
9.96439e-07
7.91952e-07
8.55703e-07
1.26582e-06
1.34542e-06
1.37667e-06
1.43198e-06
1.45149e-06
1.51162e-06
1.58263e-06
1.77607e-06
2.25409e-06
3.60072e-06
3.07598e-32
2.29757e-32
7.04789e-06
6.5617e-06
6.07698e-06
5.5308e-06
5.01528e-06
4.66866e-06
4.54228e-06
4.53925e-06
3.26742e-06
4.55971e-08
6.00566e-08
1.28726e-06
1.14498e-06
1.29117e-06
9.7e-07
8.72008e-07
1.21465e-06
1.08749e-06
1.37588e-06
1.41222e-06
1.41724e-06
1.47184e-06
1.54925e-06
1.58279e-06
2.67442e-06
3.57635e-06
3.12267e-32
1.99675e-32
7.03705e-06
6.51349e-06
6.05821e-06
5.50393e-06
4.98949e-06
4.676e-06
4.6431e-06
4.53814e-06
3.36121e-06
1.73949e-06
1.62595e-06
1.50582e-06
1.20246e-06
1.33025e-06
1.01212e-06
9.57876e-07
1.30764e-06
1.11137e-06
1.36575e-06
1.38925e-06
1.38566e-06
1.42705e-06
1.5016e-06
1.59573e-06
2.03834e-06
3.52328e-06
3.08542e-32
1.90121e-32
7.00051e-06
6.4682e-06
6.05017e-06
5.48809e-06
4.97887e-06
4.68659e-06
4.72315e-06
4.47291e-06
3.2185e-06
2.58471e-06
2.12015e-06
1.57854e-06
1.33965e-06
1.36975e-06
1.26178e-06
1.25922e-06
1.37048e-06
1.29928e-06
1.35443e-06
1.34237e-06
1.34043e-06
1.38131e-06
1.47273e-06
1.56858e-06
2.0886e-06
3.47421e-06
3.09039e-32
1.86599e-32
6.98105e-06
6.44749e-06
6.0457e-06
5.47643e-06
4.97684e-06
4.71256e-06
4.83316e-06
4.46063e-06
3.02434e-06
2.45079e-06
2.05818e-06
1.6736e-06
1.23418e-06
1.40987e-06
1.12001e-06
1.1482e-06
1.3431e-06
1.23983e-06
1.27415e-06
1.26212e-06
1.27693e-06
1.32011e-06
1.41941e-06
1.51274e-06
2.08585e-06
3.42402e-06
3.07136e-32
1.73557e-32
7.0234e-06
6.46905e-06
6.03505e-06
5.46443e-06
4.97747e-06
4.74103e-06
4.92413e-06
4.44938e-06
2.75811e-06
2.13406e-06
1.82647e-06
1.45362e-06
1.31624e-06
1.49787e-06
1.24234e-06
1.24556e-06
1.29898e-06
1.30361e-06
1.23274e-06
1.17942e-06
1.20994e-06
1.26539e-06
1.37029e-06
1.44403e-06
2.05985e-06
3.27888e-06
3.01536e-32
1.73119e-32
7.07541e-06
6.5104e-06
6.02252e-06
5.45531e-06
4.97833e-06
4.79279e-06
5.04109e-06
4.36309e-06
2.46393e-06
1.81853e-06
1.57222e-06
1.32914e-06
1.12303e-06
1.40128e-06
1.00958e-06
1.02872e-06
1.30427e-06
1.33604e-06
1.19104e-06
1.10712e-06
1.1393e-06
1.20837e-06
1.32353e-06
1.38312e-06
1.92424e-06
3.12459e-06
3.13244e-32
1.63737e-32
7.04247e-06
6.53817e-06
6.00475e-06
5.44009e-06
4.98249e-06
4.85315e-06
5.1068e-06
4.15245e-06
2.08456e-06
1.51248e-06
1.21165e-06
1.41498e-06
1.41785e-06
1.10894e-06
1.08935e-06
1.15562e-06
1.44709e-06
1.49979e-06
1.20442e-06
1.04644e-06
1.0861e-06
1.17054e-06
1.29236e-06
1.35162e-06
1.7433e-06
3.07295e-06
3.19181e-32
1.63647e-32
6.95265e-06
6.52041e-06
5.98569e-06
5.4249e-06
4.99289e-06
4.96814e-06
5.15135e-06
3.82606e-06
1.73235e-06
1.26686e-06
1.47108e-06
1.55284e-06
1.30599e-06
1.24757e-06
1.36628e-06
1.43521e-06
1.55996e-06
1.71596e-06
1.26735e-06
1.01371e-06
1.03894e-06
1.13471e-06
1.26729e-06
1.33015e-06
1.54743e-06
3.07536e-06
3.17293e-32
1.54851e-32
6.93035e-06
6.46348e-06
5.98355e-06
5.4246e-06
5.04037e-06
5.05442e-06
5.12552e-06
3.10813e-06
1.32299e-06
1.23774e-06
9.25594e-07
1.59003e-06
1.16266e-06
1.64724e-06
1.29217e-06
1.30459e-06
1.6964e-06
1.70614e-06
1.27501e-06
9.91726e-07
9.99457e-07
1.11226e-06
1.2522e-06
1.29947e-06
1.40994e-06
3.06833e-06
3.32867e-32
1.54313e-32
7.02382e-06
6.4114e-06
5.98581e-06
5.41005e-06
5.0967e-06
5.15578e-06
4.84511e-06
2.37637e-06
1.4735e-06
1.64011e-06
1.56274e-06
1.87183e-06
1.76718e-06
1.83581e-06
1.59415e-06
1.48322e-06
1.64919e-06
1.67453e-06
1.12063e-06
8.84809e-07
9.1977e-07
1.08518e-06
1.23891e-06
1.24418e-06
1.35959e-06
3.04825e-06
3.28622e-32
1.4584e-32
7.20052e-06
6.39934e-06
5.98717e-06
5.42681e-06
5.25518e-06
5.34087e-06
4.47243e-06
1.65175e-06
1.96612e-06
2.24109e-06
2.502e-06
2.68504e-06
2.97724e-06
2.80675e-06
2.66412e-06
2.19123e-06
1.48941e-06
9.22847e-07
7.0817e-07
7.7716e-07
9.04569e-07
1.09295e-06
1.24158e-06
1.14752e-06
1.34585e-06
3.00454e-06
3.49617e-32
1.45673e-32
7.26835e-06
6.46769e-06
6.03131e-06
5.55033e-06
5.45016e-06
5.10557e-06
7.73923e-07
1.16935e-06
9.11623e-07
8.117e-07
7.75895e-07
7.11092e-07
7.35242e-07
6.42463e-07
6.34469e-07
5.91792e-07
6.37613e-07
6.95964e-07
7.28929e-07
8.09971e-07
9.41442e-07
1.10519e-06
1.23728e-06
9.38924e-07
1.26517e-06
2.94023e-06
3.57088e-32
1.37161e-32
7.18661e-06
6.54563e-06
6.07283e-06
5.68403e-06
5.62288e-06
4.98389e-06
1.23805e-07
1.61544e-07
5.99273e-07
5.64859e-07
5.02726e-07
4.90771e-07
4.68292e-07
4.59318e-07
4.73115e-07
4.93519e-07
5.42927e-07
5.86356e-07
6.90167e-07
7.97392e-07
9.29238e-07
1.09234e-06
1.2188e-06
5.94045e-07
1.15711e-06
2.85466e-06
3.57213e-32
1.36879e-32
7.1608e-06
6.66037e-06
6.15731e-06
5.81897e-06
5.76427e-06
4.93317e-06
4.63036e-08
5.3061e-08
1.95608e-07
4.81133e-07
4.79443e-07
5.05207e-07
5.13853e-07
5.3368e-07
5.53887e-07
5.81014e-07
5.94321e-07
6.37862e-07
7.08111e-07
8.03725e-07
9.2992e-07
1.08026e-06
1.19299e-06
4.40293e-07
1.06291e-06
2.71631e-06
3.74963e-32
1.28429e-32
7.20307e-06
6.73408e-06
6.22025e-06
5.93133e-06
5.85044e-06
4.79556e-06
3.53178e-08
1.1025e-07
4.8251e-07
4.94001e-07
4.48964e-07
4.7846e-07
4.75563e-07
4.69756e-07
4.83057e-07
5.11723e-07
5.58116e-07
6.09135e-07
6.9038e-07
7.83009e-07
8.93444e-07
1.02765e-06
1.12501e-06
3.93034e-07
1.01684e-06
2.3801e-06
3.74743e-32
1.28686e-32
7.34428e-06
6.81727e-06
6.31896e-06
6.04507e-06
5.89745e-06
4.56385e-06
3.17452e-08
9.03621e-08
6.3353e-07
4.9507e-07
5.14961e-07
4.73483e-07
4.76651e-07
4.76371e-07
4.81014e-07
5.08623e-07
5.46208e-07
5.88176e-07
6.50469e-07
7.25646e-07
8.17862e-07
9.22729e-07
9.87771e-07
3.23184e-07
9.33228e-07
1.84293e-06
3.86734e-32
1.2016e-32
7.40232e-06
6.79789e-06
6.3665e-06
6.13105e-06
5.9101e-06
4.38064e-06
2.83678e-08
9.93973e-08
6.73755e-07
5.50404e-07
5.73116e-07
4.40418e-07
4.36642e-07
4.34783e-07
4.3678e-07
4.56441e-07
4.79013e-07
5.09124e-07
5.50263e-07
5.95207e-07
6.44083e-07
6.95311e-07
7.16699e-07
2.93899e-07
7.60296e-07
1.73653e-06
3.9127e-32
1.18212e-32
7.41654e-06
6.77339e-06
6.45632e-06
6.20151e-06
5.7002e-06
6.7273e-07
3.94849e-10
3.10263e-07
4.13066e-07
6.39779e-07
5.38859e-07
2.91698e-07
2.81518e-07
2.84821e-07
2.86202e-07
2.89273e-07
2.89775e-07
2.90474e-07
2.88049e-07
2.82496e-07
2.69302e-07
2.22835e-07
1.91405e-07
4.47466e-07
3.54624e-07
1.85622e-06
3.91283e-32
1.36943e-06
9.48926e-07
1.99843e-06
2.24626e-06
2.59986e-06
2.80606e-06
3.04093e-06
3.20051e-06
3.3524e-06
3.42775e-06
3.45458e-06
3.41501e-06
3.35126e-06
3.20301e-06
3.00771e-06
2.72663e-06
2.39638e-06
2.03588e-06
1.69234e-06
1.39596e-06
1.29909e-06
1.49511e-06
1.56737e-06
1.31007e-06
1.35759e-06
1.90495e-06
2.05128e-06
2.5822e-07
4.61611e-07
2.92864e-06
3.04962e-06
3.17368e-06
3.29126e-06
3.40184e-06
3.50488e-06
3.54886e-06
3.57901e-06
3.6074e-06
3.66307e-06
3.72323e-06
3.65858e-06
3.55567e-06
3.42584e-06
3.24529e-06
3.03049e-06
2.77839e-06
2.51093e-06
2.26615e-06
2.06331e-06
2.01941e-06
1.99818e-06
2.05304e-06
2.21867e-06
2.52981e-06
2.84858e-06
1.64775e-07
3.80378e-07
1.31944e-06
1.30022e-06
1.28551e-06
1.26817e-06
1.24673e-06
1.1904e-06
1.14524e-06
1.13675e-06
1.25395e-06
1.88273e-06
3.64837e-06
3.49975e-06
3.37416e-06
3.2697e-06
3.13925e-06
2.99187e-06
2.8271e-06
2.64541e-06
2.46346e-06
2.33056e-06
2.3381e-06
2.38413e-06
2.33806e-06
2.24144e-06
2.44437e-06
2.96157e-06
2.0197e-31
4.23085e-31
6.98394e-07
6.63935e-07
6.6598e-07
5.98623e-07
5.39879e-07
4.94732e-07
4.91533e-07
5.19502e-07
6.34279e-07
8.6435e-07
1.7511e-06
3.29211e-06
3.28081e-06
3.21854e-06
3.11173e-06
2.99362e-06
2.81022e-06
2.5139e-06
2.16599e-06
1.92696e-06
1.93756e-06
2.13904e-06
2.17002e-06
1.99657e-06
2.22197e-06
2.89857e-06
1.43467e-31
5.52013e-31
1.47097e-06
6.56345e-07
7.04593e-07
6.54296e-07
6.07226e-07
5.66809e-07
5.68705e-07
5.95715e-07
6.30744e-07
6.87561e-07
1.28788e-06
3.09549e-06
3.01704e-06
2.80471e-06
2.48769e-06
2.06956e-06
1.59729e-06
1.4638e-06
1.50115e-06
1.53745e-06
1.67673e-06
1.9335e-06
2.81515e-06
1.95976e-06
2.06949e-06
2.80765e-06
1.43323e-31
2.67783e-31
4.1226e-06
1.28406e-06
6.00609e-07
5.39197e-07
4.68447e-07
5.26187e-07
6.19835e-07
6.30735e-07
6.04086e-07
5.80659e-07
9.89929e-07
2.67111e-06
2.18638e-06
1.48232e-06
1.18866e-06
1.20279e-06
1.22498e-06
1.34367e-06
1.46309e-06
1.54119e-06
1.60436e-06
1.64413e-06
1.8755e-06
2.2152e-06
2.05223e-06
2.77937e-06
1.21504e-31
1.34623e-31
4.97857e-06
3.7224e-06
1.49454e-06
1.44903e-06
1.40629e-06
1.00854e-06
5.87073e-07
6.01069e-07
6.43785e-07
5.81547e-07
7.80678e-07
2.17657e-06
1.33008e-06
8.25227e-07
1.05671e-06
9.72197e-07
1.0215e-06
1.20474e-06
1.38774e-06
1.48813e-06
1.56773e-06
1.59033e-06
1.69514e-06
2.39031e-06
2.06328e-06
2.76653e-06
1.22083e-31
1.03488e-31
5.09728e-06
4.62147e-06
3.88351e-06
3.62953e-06
3.3933e-06
2.93214e-06
1.36943e-06
1.2535e-06
9.11594e-07
6.70609e-07
5.83465e-07
1.78505e-06
1.07833e-06
7.881e-07
6.7072e-07
8.44326e-07
9.12168e-07
1.09078e-06
1.32622e-06
1.41994e-06
1.49024e-06
1.54002e-06
1.61207e-06
1.94935e-06
2.06506e-06
2.73503e-06
1.20805e-31
8.10556e-32
5.09242e-06
4.80155e-06
4.41979e-06
4.06119e-06
3.74001e-06
3.44804e-06
3.03146e-06
2.88806e-06
2.46393e-06
4.72736e-07
4.27914e-07
1.54686e-06
9.2693e-07
8.57237e-07
7.14351e-07
8.53583e-07
1.59602e-06
1.13585e-06
1.37457e-06
1.39315e-06
1.44067e-06
1.50872e-06
1.56083e-06
1.79665e-06
2.08923e-06
2.71139e-06
1.25732e-31
7.48934e-32
5.0875e-06
4.81257e-06
4.45733e-06
4.08751e-06
3.74212e-06
3.46501e-06
3.30708e-06
3.23446e-06
2.70647e-06
5.23881e-07
4.36113e-07
1.26495e-06
8.84274e-07
1.0742e-06
8.20437e-07
7.55315e-07
1.47319e-06
1.49716e-06
1.47121e-06
1.37229e-06
1.38156e-06
1.45196e-06
1.51964e-06
1.59574e-06
2.15063e-06
2.71856e-06
1.20771e-31
6.57931e-32
5.0819e-06
4.77671e-06
4.44073e-06
4.05702e-06
3.70093e-06
3.45547e-06
3.37088e-06
3.3929e-06
2.50487e-06
7.84455e-07
5.97692e-07
1.3921e-06
1.11252e-06
1.63113e-06
1.13673e-06
9.87227e-07
1.61205e-06
1.24448e-06
1.49736e-06
1.3476e-06
1.33513e-06
1.39886e-06
1.47389e-06
1.509e-06
2.69406e-06
2.71846e-06
1.28011e-31
6.42454e-32
5.06371e-06
4.73014e-06
4.42426e-06
4.0335e-06
3.67813e-06
3.46211e-06
3.43898e-06
3.40679e-06
2.85397e-06
1.22994e-06
1.20853e-06
1.62202e-06
1.13251e-06
1.67501e-06
1.06471e-06
1.03094e-06
1.72535e-06
1.21116e-06
1.45549e-06
1.31735e-06
1.28509e-06
1.3372e-06
1.4437e-06
1.49809e-06
2.05609e-06
2.69655e-06
1.23591e-31
5.89094e-32
5.03738e-06
4.70254e-06
4.41797e-06
4.02051e-06
3.67026e-06
3.47026e-06
3.48932e-06
3.35122e-06
2.59924e-06
2.04989e-06
1.75246e-06
1.82356e-06
1.53306e-06
1.76004e-06
1.58538e-06
1.59686e-06
1.76803e-06
1.5429e-06
1.44266e-06
1.26457e-06
1.22203e-06
1.27959e-06
1.40166e-06
1.45254e-06
1.97457e-06
2.67639e-06
1.22689e-31
5.7008e-32
5.03986e-06
4.70474e-06
4.41291e-06
4.01171e-06
3.67032e-06
3.48966e-06
3.5679e-06
3.34034e-06
2.62476e-06
2.01244e-06
1.77876e-06
2.03771e-06
1.13425e-06
1.79754e-06
1.13871e-06
1.13334e-06
1.63585e-06
1.35793e-06
1.49678e-06
1.19183e-06
1.14741e-06
1.21326e-06
1.34546e-06
1.40294e-06
1.86327e-06
2.65027e-06
1.12295e-31
5.68044e-32
5.07133e-06
4.73408e-06
4.40314e-06
4.00361e-06
3.67216e-06
3.51118e-06
3.64255e-06
3.33657e-06
2.22556e-06
1.79323e-06
1.62435e-06
1.91054e-06
1.47904e-06
1.94139e-06
1.56217e-06
1.45016e-06
1.63834e-06
1.72997e-06
1.58853e-06
1.10609e-06
1.07835e-06
1.16313e-06
1.30604e-06
1.35354e-06
1.79614e-06
2.52218e-06
1.12779e-31
5.3445e-32
5.08411e-06
4.76233e-06
4.38912e-06
3.9966e-06
3.67372e-06
3.54593e-06
3.73505e-06
3.2962e-06
2.10067e-06
1.62104e-06
1.40585e-06
1.78672e-06
1.10378e-06
1.81483e-06
1.08503e-06
1.13979e-06
1.8176e-06
1.67843e-06
1.50933e-06
1.04451e-06
1.016e-06
1.11781e-06
1.27545e-06
1.33108e-06
1.66239e-06
2.3616e-06
1.10646e-31
5.43703e-32
5.03592e-06
4.76551e-06
4.37423e-06
3.98579e-06
3.67837e-06
3.59017e-06
3.80217e-06
3.17031e-06
1.78975e-06
1.45621e-06
1.20048e-06
1.96702e-06
1.52361e-06
1.51719e-06
1.36434e-06
1.5147e-06
1.98434e-06
1.88888e-06
1.46366e-06
9.80796e-07
9.75099e-07
1.0944e-06
1.26131e-06
1.32762e-06
1.51676e-06
2.32472e-06
1.19154e-31
5.14202e-32
4.97852e-06
4.72615e-06
4.35689e-06
3.97203e-06
3.68539e-06
3.67689e-06
3.84054e-06
2.95399e-06
1.53405e-06
1.51293e-06
1.82646e-06
2.09313e-06
1.75119e-06
1.57334e-06
1.82914e-06
1.93278e-06
1.99427e-06
2.2094e-06
1.40919e-06
9.41351e-07
9.37266e-07
1.07756e-06
1.25257e-06
1.31477e-06
1.37748e-06
2.3598e-06
1.16834e-31
5.20959e-32
4.9952e-06
4.67112e-06
4.35552e-06
3.97418e-06
3.71662e-06
3.72509e-06
3.83388e-06
2.40035e-06
1.35862e-06
1.72949e-06
1.13933e-06
2.1555e-06
1.45001e-06
2.22296e-06
1.63769e-06
1.65543e-06
2.36453e-06
2.15916e-06
1.33293e-06
9.03603e-07
8.98672e-07
1.06941e-06
1.25079e-06
1.28569e-06
1.3339e-06
2.38264e-06
1.2646e-31
4.91996e-32
5.08631e-06
4.63675e-06
4.356e-06
3.95431e-06
3.73807e-06
3.76308e-06
3.60072e-06
1.84708e-06
1.74431e-06
2.20297e-06
1.93737e-06
2.46347e-06
2.19972e-06
2.44046e-06
2.0652e-06
1.9691e-06
2.38389e-06
2.35301e-06
1.14101e-06
7.86662e-07
8.64754e-07
1.07944e-06
1.25658e-06
1.22377e-06
1.34007e-06
2.3833e-06
1.27656e-31
4.96481e-32
5.17138e-06
4.63485e-06
4.34503e-06
3.94681e-06
3.8114e-06
3.85854e-06
3.28257e-06
1.55371e-06
2.4631e-06
2.73915e-06
2.96507e-06
3.14315e-06
3.36898e-06
3.26321e-06
3.07718e-06
2.72526e-06
2.0548e-06
1.49467e-06
7.68687e-07
7.64756e-07
8.89375e-07
1.10245e-06
1.2653e-06
1.12552e-06
1.32345e-06
2.3457e-06
1.37368e-31
4.71145e-32
5.15877e-06
4.69167e-06
4.3558e-06
4.00738e-06
3.92379e-06
3.65061e-06
1.34244e-06
9.88929e-07
8.20097e-07
7.3247e-07
7.13448e-07
6.78772e-07
6.96895e-07
6.36114e-07
6.31747e-07
6.05196e-07
6.4643e-07
6.9896e-07
7.0133e-07
7.9024e-07
9.3577e-07
1.11559e-06
1.25374e-06
9.57168e-07
1.2259e-06
2.29555e-06
1.32263e-31
4.64683e-32
5.09139e-06
4.74774e-06
4.37616e-06
4.10836e-06
4.05555e-06
3.47763e-06
5.2738e-07
3.60499e-07
5.19769e-07
4.76623e-07
4.32571e-07
4.28757e-07
4.25403e-07
4.17382e-07
4.38094e-07
4.67663e-07
5.19679e-07
5.65139e-07
6.59251e-07
7.80785e-07
9.24389e-07
1.09566e-06
1.22256e-06
8.00612e-07
1.12886e-06
2.23167e-06
1.42443e-31
4.46306e-32
5.0814e-06
4.82539e-06
4.4332e-06
4.21288e-06
4.18686e-06
3.47142e-06
3.1718e-07
4.73476e-07
4.82992e-07
4.96099e-07
4.79655e-07
4.85684e-07
5.00806e-07
5.20745e-07
5.45777e-07
5.84791e-07
5.97908e-07
6.39976e-07
6.96835e-07
7.95207e-07
9.18385e-07
1.06715e-06
1.16901e-06
7.24601e-07
1.05114e-06
2.13347e-06
1.42195e-31
4.34893e-32
5.13843e-06
4.86263e-06
4.48468e-06
4.30669e-06
4.26941e-06
3.43964e-06
2.36798e-07
4.72675e-07
5.35075e-07
5.46127e-07
4.62381e-07
4.44855e-07
4.47216e-07
4.49594e-07
4.64979e-07
5.0034e-07
5.40859e-07
5.90299e-07
6.58687e-07
7.48475e-07
8.55809e-07
9.83925e-07
1.05487e-06
6.67688e-07
9.94199e-07
1.90822e-06
1.49169e-31
4.18684e-32
5.23775e-06
4.88814e-06
4.56646e-06
4.40399e-06
4.33318e-06
3.34323e-06
1.95572e-07
4.84564e-07
6.09583e-07
5.57651e-07
5.77836e-07
4.45967e-07
4.5055e-07
4.58152e-07
4.65767e-07
4.97115e-07
5.27128e-07
5.63604e-07
6.11179e-07
6.73168e-07
7.5365e-07
8.44808e-07
8.61792e-07
5.64406e-07
8.7202e-07
1.65007e-06
1.50864e-31
4.1476e-32
5.27434e-06
4.86859e-06
4.61203e-06
4.48092e-06
4.35125e-06
3.25632e-06
2.02494e-07
4.27228e-07
6.09645e-07
5.59655e-07
6.06045e-07
4.0191e-07
3.94374e-07
3.98635e-07
4.04624e-07
4.2449e-07
4.4028e-07
4.62429e-07
4.90134e-07
5.23833e-07
5.65667e-07
6.06128e-07
5.78736e-07
4.66185e-07
6.3623e-07
1.93195e-06
1.48185e-31
3.96121e-32
5.2744e-06
4.86132e-06
4.68815e-06
4.54599e-06
4.19456e-06
1.25158e-06
1.95938e-07
3.00091e-07
4.12002e-07
5.48237e-07
4.98184e-07
3.38325e-07
3.3622e-07
3.45507e-07
3.52638e-07
3.60475e-07
3.62275e-07
3.68015e-07
3.80845e-07
4.03339e-07
4.36151e-07
3.09074e-07
3.42261e-07
3.265e-07
2.98193e-07
2.18347e-06
1.3444e-31
2.94871e-06
2.24533e-06
2.19439e-06
2.07508e-06
2.14717e-06
2.21474e-06
2.31461e-06
2.38166e-06
2.4395e-06
2.45639e-06
2.4191e-06
2.36546e-06
2.27794e-06
2.1374e-06
1.98508e-06
1.80551e-06
1.6676e-06
1.59572e-06
1.63795e-06
1.83704e-06
2.20101e-06
2.57938e-06
2.63514e-06
2.2372e-06
1.63327e-06
1.39412e-06
1.41923e-06
8.92119e-07
1.2247e-06
1.93117e-06
2.06852e-06
2.2192e-06
2.3588e-06
2.46983e-06
2.57052e-06
2.61848e-06
2.66264e-06
2.70924e-06
2.77446e-06
2.80637e-06
2.74393e-06
2.66272e-06
2.56449e-06
2.43456e-06
2.2848e-06
2.1246e-06
1.99951e-06
1.93826e-06
1.95423e-06
2.01268e-06
2.0043e-06
1.98241e-06
1.91197e-06
1.97897e-06
2.11341e-06
5.08394e-07
9.93328e-07
1.347e-06
1.33175e-06
1.32657e-06
1.31012e-06
1.28647e-06
1.23511e-06
1.21803e-06
1.2669e-06
1.47301e-06
2.04837e-06
2.87186e-06
2.7858e-06
2.70583e-06
2.63875e-06
2.54727e-06
2.44888e-06
2.3557e-06
2.2609e-06
2.18927e-06
2.21109e-06
2.34e-06
2.43971e-06
2.40743e-06
2.15584e-06
2.05136e-06
2.31962e-06
3.11207e-07
4.43325e-07
9.22439e-07
8.6118e-07
8.21499e-07
7.42027e-07
6.86824e-07
6.78856e-07
7.01126e-07
8.10882e-07
9.78301e-07
1.25476e-06
1.97096e-06
2.67812e-06
2.68458e-06
2.63461e-06
2.56873e-06
2.47665e-06