/*--------------------------------*- C++ -*----------------------------------*\
| =========                 |                                                 |
| \\      /  F ield         | OpenFOAM: The Open Source CFD Toolbox           |
|  \\    /   O peration     | Version:  2.3.0                                 |
|   \\  /    A nd           | Web:      www.OpenFOAM.org                      |
|    \\/     M anipulation  |                                                 |
\*---------------------------------------------------------------------------*/
FoamFile
{
    version     2.0;
    format      ascii;
    class       volVectorField;
    location    "4.59924";
    object      U.water;
}
// * * * * * * * * * * * * * * * * * * * * * * * * * * * * * * * * * * * * * //

dimensions      [0 1 -1 0 0 0 0];

internalField   nonuniform List<vector> 
18816
(
(-0.006995 0.00882271 -0.00330427)
(-0.0169333 0.00759829 0.000518561)
(-0.0304042 0.00938846 -0.00215982)
(-0.0370504 0.00932456 -0.00228712)
(-0.0470175 0.0107863 -0.00263252)
(-0.0528457 0.0104147 -0.00263144)
(-0.0609426 0.0112275 -0.00278961)
(-0.0665591 0.0117711 -0.00283101)
(-0.0733158 0.013145 -0.00292528)
(-0.0784624 0.0146734 -0.00296776)
(-0.0842223 0.0165732 -0.00305257)
(-0.0887292 0.0183711 -0.00309128)
(-0.0932634 0.0192322 -0.00309549)
(-0.0961783 0.0209702 -0.00322879)
(-0.0979638 0.0227301 -0.00334875)
(-0.0978812 0.0247262 -0.0035547)
(-0.0949712 0.0262107 -0.00376577)
(-0.0882161 0.0273681 -0.0039673)
(-0.0776785 0.0272317 -0.004137)
(-0.0619404 0.0258668 -0.00423276)
(-0.0426529 0.0251176 -0.00413907)
(-0.0168379 0.0243344 -0.00383285)
(0.0053585 0.0236041 -0.00356704)
(0.0278777 0.0227122 -0.00371395)
(0.0488421 0.0222262 -0.00331668)
(0.0517211 0.0243666 -0.0027316)
(0.041027 0.0244256 -0.00271033)
(0.0193645 0.016189 -0.00481805)
(-0.00903319 0.0724212 -0.00332276)
(-0.022636 0.0802954 -0.0048198)
(-0.0294442 0.0714263 -0.004476)
(-0.0356468 0.068292 -0.00423105)
(-0.0431763 0.0643851 -0.00405636)
(-0.0490223 0.0629827 -0.00389935)
(-0.0565815 0.0617435 -0.00366953)
(-0.06225 0.0599456 -0.0034069)
(-0.0685203 0.0577877 -0.00315356)
(-0.0731962 0.0558185 -0.00285044)
(-0.0780457 0.0536333 -0.00230434)
(-0.0808894 0.0515948 -0.00062605)
(-0.084668 0.0515449 -0.000642179)
(-0.0866805 0.0511213 -0.000566413)
(-0.0876303 0.0513658 -0.000499771)
(-0.087124 0.0519711 -0.000428706)
(-0.0846868 0.0529002 -0.000353643)
(-0.0793204 0.0533576 -0.000307309)
(-0.0701356 0.0530541 -0.000258766)
(-0.0566642 0.0534698 -0.000269183)
(-0.0406211 0.0528519 -0.000256976)
(-0.0201436 0.0517788 -0.000250332)
(-0.00208133 0.0521816 -0.000252606)
(0.0175872 0.0472084 -0.000216644)
(0.0332365 0.0454518 -0.000148632)
(0.0368039 0.0488325 7.12587e-06)
(0.0293041 0.0611881 -0.000196249)
(0.0136065 0.0945449 -0.00402658)
(-0.00256089 0.102609 -0.00187884)
(-0.0037425 0.0982922 -0.00849662)
(-0.0164999 0.0909663 -0.00631158)
(-0.0216855 0.0876608 -0.00646149)
(-0.0287127 0.0847498 -0.00631852)
(-0.034175 0.0824695 -0.00628672)
(-0.0400981 0.0791232 -0.00632256)
(-0.0436388 0.0753931 -0.00609322)
(-0.0473696 0.0724533 -0.00573858)
(-0.0509356 0.068361 -0.00529928)
(-0.0594199 0.060519 -0.00808804)
(-0.0703215 0.0490218 -0.0022405)
(-0.0735421 0.0480154 0.000248885)
(-0.0754319 0.0470778 0.000140373)
(-0.07757 0.0461653 0.000243339)
(-0.078306 0.0448975 0.000349408)
(-0.0775652 0.0425455 0.000439923)
(-0.0744219 0.0397569 0.000492778)
(-0.0679321 0.0368669 0.000475259)
(-0.0566306 0.033994 0.000393264)
(-0.0418542 0.0302818 0.000227462)
(-0.0234591 0.0279425 -1.81383e-05)
(-0.00673661 0.0284414 -0.000199271)
(0.0110522 0.0243236 -0.000333561)
(0.0228053 0.0287892 -0.000196194)
(0.0295071 0.0421668 0.000224532)
(0.0187323 0.059203 0.000419674)
(0.00863689 0.108206 -0.0023892)
(0.000938415 0.127206 -0.000322866)
(0.00254435 0.116548 0.00874545)
(-0.0105821 0.098805 -0.00267922)
(-0.011182 0.0962663 -0.000470969)
(-0.0167057 0.0916399 -0.000583087)
(-0.0203452 0.0887325 -0.000530508)
(-0.0245333 0.0850752 -0.00064729)
(-0.0269869 0.0818287 -0.0007366)
(-0.0289502 0.0774699 -0.000649956)
(-0.0301876 0.073402 -0.000459301)
(-0.0350708 0.0669704 -0.000570077)
(-0.0485336 0.0566751 -0.0057689)
(-0.0607049 0.0481391 -0.0004961)
(-0.0650416 0.0459905 0.000599813)
(-0.0683679 0.0432569 0.000788173)
(-0.0700909 0.0391401 0.00110733)
(-0.0707741 0.0356391 0.00146327)
(-0.0693047 0.0310996 0.0018117)
(-0.064475 0.0250602 0.00178597)
(-0.0531695 0.019322 0.00157714)
(-0.0399354 0.0152068 0.00121536)
(-0.0230205 0.0131142 0.000805613)
(-0.00713147 0.0152271 0.000359827)
(0.00901131 0.0163079 0.000223)
(0.0165479 0.0253587 0.00014004)
(0.0216312 0.0428275 0.000385978)
(0.0117139 0.064908 0.000517828)
(0.00488648 0.117658 -0.00121261)
(0.00202282 0.134617 4.93242e-05)
(-0.00292272 0.121856 0.00557456)
(-0.00586831 0.112219 0.00783158)
(-0.00741716 0.101136 -0.00132868)
(-0.0120992 0.0955625 -0.00110263)
(-0.0147295 0.091228 -0.000951272)
(-0.0186539 0.0859557 -0.000895249)
(-0.0197313 0.0807731 -1.30907e-05)
(-0.0207287 0.0763719 -5.87717e-05)
(-0.0211783 0.071898 3.77952e-05)
(-0.0233848 0.0647542 0.000192058)
(-0.0355833 0.0538496 -0.00263706)
(-0.0514991 0.0456152 -0.000251351)
(-0.0541334 0.0401678 0.000641997)
(-0.0537454 0.0327772 0.00105997)
(-0.0509981 0.0232122 0.0014371)
(-0.0499688 0.0140867 0.00146173)
(-0.0500286 0.00341873 0.0012985)
(-0.0495402 -0.00593803 0.00104333)
(-0.0447196 -0.0126217 0.000789851)
(-0.0370259 -0.01525 0.00070822)
(-0.0257633 -0.0167241 0.000549577)
(-0.0118751 -0.0108933 0.000619708)
(0.00252456 -0.00475168 0.000264658)
(0.0108605 0.0166436 0.000100284)
(0.0139175 0.0388382 0.000208606)
(0.00799873 0.0641447 0.000292618)
(0.0040273 0.120315 -0.000858882)
(0.002215 0.136314 -4.35184e-06)
(-0.00467764 0.115786 0.0023132)
(-0.0108419 0.115169 0.00532476)
(-0.00503781 0.107391 0.0077835)
(-0.00875434 0.099739 0.00665911)
(-0.0103198 0.0941441 0.00609529)
(-0.0132321 0.0877615 0.00493474)
(-0.0141528 0.0814176 -0.000591368)
(-0.015493 0.0772802 -0.000448355)
(-0.0153184 0.0723665 -0.000258576)
(-0.0159684 0.0629013 0.000389229)
(-0.0227706 0.0511935 -0.00156093)
(-0.034556 0.0412153 -7.62759e-05)
(-0.0302297 0.0287667 0.00038018)
(-0.0220772 0.0136438 0.00050741)
(-0.0176642 0.00246002 0.000482118)
(-0.0204637 -0.00291957 0.000742328)
(-0.0301042 -0.00896514 0.00102962)
(-0.039121 -0.0174746 0.000897282)
(-0.039962 -0.0255201 0.00063934)
(-0.0361236 -0.0293808 0.000371433)
(-0.0286824 -0.0324937 8.95158e-05)
(-0.0180933 -0.0305177 0.000121266)
(-0.00639383 -0.0174402 0.000150654)
(0.00423662 0.0109298 0.000417051)
(0.00909577 0.0384617 0.000193979)
(0.00464883 0.0656282 0.00029059)
(0.00270996 0.121479 -0.000463496)
(0.00195804 0.136101 -0.000256241)
(-0.00507154 0.11141 0.00076813)
(-0.0110537 0.108027 0.00223211)
(-0.0118777 0.108064 0.00484751)
(-0.0171751 0.0986865 0.00422956)
(-0.0185519 0.0896932 0.00387504)
(-0.0202942 0.0815614 0.00367164)
(-0.0112762 0.0810846 0.00524786)
(-0.0113117 0.0769132 0.0043325)
(-0.0114723 0.0704088 0.00356219)
(-0.0110699 0.0599846 -1.79114e-05)
(-0.0125423 0.0450531 -0.000544287)
(-0.0167633 0.0322611 -0.000154384)
(-0.00991775 0.0156846 2.7768e-05)
(-0.00398165 0.00235967 6.41073e-05)
(-0.00049025 -0.00185711 7.20388e-05)
(-0.00194891 -0.00135559 0.000209195)
(-0.0083481 -0.00607964 0.000616616)
(-0.0223774 -0.0204287 0.000783258)
(-0.029024 -0.034026 0.000541687)
(-0.029676 -0.0386565 0.000495226)
(-0.0267541 -0.0408756 0.000137321)
(-0.020031 -0.0411675 0.000157719)
(-0.0120731 -0.0326183 0.000188448)
(-0.00356175 -0.0081257 0.000380479)
(0.00684684 0.0336399 -3.02036e-05)
(0.0031229 0.064673 0.000217077)
(0.0023549 0.121923 -0.000313209)
(0.00141959 0.135292 -0.000398968)
(-0.0042727 0.110556 0.00044447)
(-0.00924777 0.103651 0.00094405)
(-0.0116051 0.0998925 0.00194637)
(-0.0148268 0.0904579 0.00167789)
(-0.0152008 0.0803357 0.00147562)
(-0.0163398 0.0734395 0.00145085)
(-0.0151206 0.0749643 0.00311813)
(-0.0156598 0.072731 0.00282803)
(-0.0149767 0.0686762 0.00251812)
(-0.00790332 0.0566075 0.000622817)
(-0.00536878 0.0402502 4.78262e-06)
(-0.00546858 0.0251042 3.171e-05)
(-0.000916974 0.0090012 0.000210669)
(0.000448001 -0.000627868 0.000110068)
(0.00206752 -0.00299603 -1.16276e-07)
(0.000962454 -0.00173877 4.10503e-05)
(0.00163782 -0.00780303 0.00022316)
(-0.00551046 -0.0143608 0.000523908)
(-0.0181802 -0.0362653 0.000418749)
(-0.0221915 -0.0451652 0.000478429)
(-0.022868 -0.0467108 0.000180431)
(-0.0187032 -0.048111 0.000113134)
(-0.012953 -0.0425459 0.000143106)
(-0.00724293 -0.0191363 0.000198525)
(0.00416989 0.0287788 -0.000158115)
(0.00239484 0.064159 0.000201269)
(0.00153817 0.122534 -0.000233419)
(0.000683517 0.134262 -0.000413901)
(-0.00340364 0.110142 0.000271398)
(-0.00696248 0.101487 0.000433501)
(-0.00833163 0.0948089 0.000573891)
(-0.00986688 0.085463 0.000435915)
(-0.00908884 0.0755389 0.000345319)
(-0.00959842 0.0683353 0.000381788)
(-0.00909587 0.0665288 0.000989024)
(-0.0106225 0.0660551 0.000939665)
(-0.0102262 0.0603729 0.00114302)
(-0.00352587 0.051456 0.000769744)
(-0.00240162 0.0339812 0.000199672)
(0.000343972 0.0183832 0.000226)
(0.0022435 0.00275001 0.000157563)
(0.000818309 -0.00356423 5.58946e-05)
(0.00265496 -0.00136635 -7.45173e-05)
(-0.00666445 -0.00207448 0.000148416)
(0.00336505 -0.00228286 -0.00106107)
(0.00462279 -0.00894837 7.61411e-05)
(-0.00720404 -0.0295353 0.00015927)
(-0.0149738 -0.0471926 0.000369472)
(-0.0182284 -0.0498406 0.000180147)
(-0.0168446 -0.0516456 4.06554e-05)
(-0.013009 -0.0495699 0.000110813)
(-0.00914761 -0.03147 0.000222766)
(0.00188405 0.0224799 -0.000156512)
(0.000523347 0.063484 0.000103494)
(0.00115422 0.123042 -9.81478e-05)
(0.000285632 0.134104 -0.000364803)
(-0.00265814 0.110137 0.000174775)
(-0.00503211 0.100671 0.0001836)
(-0.00555123 0.0932751 0.000207249)
(-0.00641072 0.084061 0.000115609)
(-0.00547314 0.0740136 6.29141e-05)
(-0.00596899 0.0673848 5.51824e-05)
(-0.00571593 0.0648417 0.000207184)
(-0.0115574 0.0662693 0.000610621)
(-0.013016 0.0509601 0.00049247)
(-0.00311325 0.04614 0.000579061)
(-0.00163936 0.0278183 -4.50194e-05)
(0.00352784 0.00773315 -1.73193e-05)
(0.00406423 0.00428705 -0.000215376)
(0.00583127 -0.00297087 -0.000251829)
(0.00430878 0.00119985 -0.000166589)
(0.0111169 -0.000446197 -0.000353222)
(0.00825052 -0.00103229 0.000765506)
(0.0014629 -0.00120535 -0.000178691)
(-0.00167209 -0.0242043 0.000342855)
(-0.0109148 -0.0477456 0.000424157)
(-0.015015 -0.0516298 0.000237811)
(-0.0145081 -0.0538673 5.45969e-05)
(-0.0121431 -0.053121 8.35632e-05)
(-0.0106277 -0.0397844 0.000444509)
(0.00028827 0.0174592 0.000349694)
(0.000443256 0.0626707 0.000145446)
(0.000332518 0.123481 -4.60723e-05)
(-6.95126e-05 0.134115 -0.000284093)
(-0.00205847 0.110193 8.23724e-05)
(-0.00355575 0.100097 6.17127e-05)
(-0.00337064 0.0925012 7.48845e-05)
(-0.00388913 0.0832813 3.41204e-05)
(-0.00238797 0.0734195 -8.66995e-06)
(-0.00353947 0.067853 5.83356e-05)
(-0.00187407 0.0669262 0.000231398)
(-0.0163426 0.0658681 0.00124938)
(-0.0157808 0.0440388 -0.000688675)
(0.000483168 0.0423452 0.00210005)
(0.000377128 0.0285108 0.000847933)
(0.00536085 0.00770311 -4.12516e-05)
(0.00567691 0.00409289 -9.93504e-05)
(0.00583311 -9.59263e-05 -3.26922e-05)
(0.00420708 -0.000113554 -2.23893e-05)
(0.00593196 -0.00147459 -0.000106766)
(0.006069 -0.00668435 0.000150202)
(0.00541007 -0.00024314 0.000142171)
(0.00215899 -0.0218498 0.00043639)
(-0.00639405 -0.0490575 0.000489173)
(-0.0114338 -0.0527317 0.000209519)
(-0.011845 -0.0551848 3.39576e-05)
(-0.0107022 -0.0555397 5.00806e-05)
(-0.00980721 -0.0472406 0.00028778)
(-0.00108699 -0.00442966 0.000454239)
(0.00226224 0.0610974 0.000209769)
(-0.000375785 0.124038 -0.00015471)
(-0.000240538 0.13452 -0.00023374)
(-0.00165298 0.110132 -1.70091e-06)
(-0.00257664 0.0998014 1.18408e-05)
(-0.001996 0.092193 2.19435e-05)
(-0.00229448 0.0827801 -7.25751e-06)
(-0.000832578 0.0731444 -2.61429e-05)
(-0.00189158 0.0677613 2.05792e-05)
(-0.00102491 0.069586 0.000300702)
(-0.0141205 0.0649813 0.000710137)
(-0.0120812 0.0411892 9.42664e-05)
(-0.00471585 0.0385435 0.0011633)
(-0.000558467 0.0290785 0.000489866)
(0.00329819 0.00645313 -6.11617e-05)
(0.00492361 0.00701901 -0.00018356)
(0.00580156 0.000168699 -3.28066e-05)
(0.00511474 0.00353171 -0.000119296)
(0.00651777 0.00143237 -9.12596e-05)
(0.00559209 -0.00467524 -1.06108e-05)
(0.00752737 -0.000357398 -2.94828e-05)
(0.0072547 -0.0210396 0.00070925)
(-0.00320054 -0.0494392 0.000567513)
(-0.00809425 -0.0528179 0.000244698)
(-0.00942685 -0.0554467 4.7775e-05)
(-0.00845309 -0.0563641 4.06308e-05)
(-0.00763163 -0.0512109 9.48285e-05)
(-0.0010558 -0.0144782 -4.23338e-05)
(0.00439473 0.0582632 0.000275679)
(-0.00118993 0.124675 -0.000328531)
(-0.000378414 0.134942 -0.000191947)
(-0.00133976 0.110017 -1.96126e-05)
(-0.00189294 0.0994499 1.96761e-05)
(-0.00106325 0.091837 -6.73066e-06)
(-0.00126477 0.0824271 -1.38216e-05)
(0.000211814 0.0730237 -2.25763e-05)
(-0.00113822 0.0682535 5.49032e-05)
(-0.000720982 0.0718182 0.000268926)
(-0.0128637 0.0662522 0.000771045)
(-0.0145495 0.0349696 0.000182383)
(-0.00668914 0.028549 0.000200331)
(-0.00121278 0.0215792 0.000116984)
(0.00321499 0.00366134 -2.63565e-05)
(0.00551524 0.00384734 8.03882e-06)
(0.00528301 0.000255541 -3.88141e-05)
(0.0065066 0.000182018 6.35706e-06)
(0.00670294 -0.00122138 -2.72925e-05)
(0.00640394 -0.00556938 1.48014e-05)
(0.0112355 -0.00607285 0.000189946)
(0.00970204 -0.0262456 0.00098388)
(-0.00110009 -0.0508894 0.000598396)
(-0.00538547 -0.0531447 0.000239106)
(-0.00739926 -0.0558339 4.38918e-05)
(-0.00709331 -0.0573895 2.98309e-05)
(-0.00640981 -0.0541243 5.55515e-05)
(-0.000926003 -0.0209818 -3.82873e-05)
(0.00372594 0.0552367 0.000331111)
(-0.00172679 0.124229 -0.000321005)
(-0.000525014 0.135811 -0.000168872)
(-0.00118916 0.109915 6.16889e-05)
(-0.00151712 0.0992509 4.68568e-05)
(-0.000535846 0.0916683 -2.83385e-05)
(-0.00071808 0.0821559 -2.86525e-05)
(0.000734433 0.0730646 -1.4858e-05)
(-0.000819458 0.0687223 5.86718e-05)
(-0.00079376 0.0746925 0.000338907)
(-0.0136229 0.0679647 0.000879896)
(-0.0147529 0.0308901 5.1029e-05)
(-0.00736421 0.02358 -0.000229253)
(-0.00255078 0.0200541 -8.12077e-05)
(0.00292386 -0.000195025 2.77555e-05)
(0.0062774 0.00792824 6.44027e-05)
(0.00460918 -0.000392073 -5.84966e-05)
(0.00683092 0.00361285 -4.06534e-05)
(0.00718939 0.00305179 3.87837e-06)
(0.00853653 -0.00766554 3.68269e-05)
(0.0147593 -0.00842036 0.000247934)
(0.0116187 -0.0311248 0.0010253)
(0.000403346 -0.0513267 0.000449022)
(-0.00253322 -0.0523975 0.000225374)
(-0.00558077 -0.0547398 2.64695e-05)
(-0.00595383 -0.0570409 4.07922e-05)
(-0.00617499 -0.0552825 2.8116e-05)
(-0.00305525 -0.0269927 1.27901e-05)
(0.00179882 0.0516162 0.000261303)
(-0.00223475 0.122395 -0.000174915)
(-0.000559389 0.13651 -0.000149458)
(-0.00106952 0.110384 8.31758e-05)
(-0.00130509 0.0990021 6.07797e-05)
(-0.000347341 0.0913384 -3.09866e-05)
(-0.000487243 0.08183 -2.59674e-05)
(0.000792566 0.0730737 -6.4763e-06)
(-0.000717101 0.0692808 0.000104561)
(-0.00236278 0.076491 0.000467542)
(-0.0154353 0.067465 0.00106265)
(-0.0183039 0.0271018 0.000246778)
(-0.00883041 0.0184608 -0.000115247)
(-0.00577652 0.0140698 6.47767e-05)
(0.000186446 -0.00740782 0.000221408)
(0.00579706 0.0040586 4.89332e-05)
(0.00369857 -0.00079829 -4.60824e-05)
(0.00660019 -0.00077155 0.00012436)
(0.00989539 -0.00267094 0.000248979)
(0.0128356 -0.0124454 0.000199057)
(0.0157676 -0.0147479 0.000157258)
(0.0107862 -0.0343555 0.000764135)
(0.00178856 -0.049734 0.000212114)
(-0.000387299 -0.0508862 0.000142374)
(-0.00393856 -0.0531249 6.03759e-06)
(-0.00522367 -0.0558978 3.6751e-05)
(-0.00644638 -0.0552359 -2.17479e-05)
(-0.00596897 -0.0308752 4.12755e-05)
(-0.000432384 0.0475036 -7.31064e-05)
(-0.001805 0.118813 -3.54637e-05)
(-0.000512708 0.137694 -0.000156627)
(-0.00106534 0.110703 -6.83359e-05)
(-0.00138358 0.0989757 1.50404e-05)
(-0.000468286 0.0913232 -4.18617e-05)
(-0.000623853 0.0817093 -3.3215e-05)
(0.000593648 0.0732131 -5.76781e-06)
(-0.00103627 0.0706837 0.000120586)
(-0.00383132 0.0792131 0.000557018)
(-0.0173257 0.0663152 0.00113051)
(-0.0171665 0.0211568 0.000273836)
(-0.00831317 0.0126712 -0.000148499)
(-0.00445174 0.00984505 0.000206382)
(-0.000548364 -0.0158974 8.6303e-05)
(0.0032192 0.00303108 0.000211045)
(0.00383652 -0.00240557 9.31056e-05)
(0.00923818 -0.0053734 0.000402424)
(0.0107574 -0.00914455 0.000417601)
(0.0138675 -0.0166762 9.15658e-05)
(0.0129647 -0.0156827 0.000399243)
(0.00924295 -0.0344052 0.000411483)
(0.00264751 -0.0466704 2.56031e-05)
(0.00138621 -0.0476968 5.11649e-05)
(-0.0024009 -0.049885 -1.99005e-05)
(-0.00427401 -0.0531375 4.21312e-05)
(-0.00662393 -0.0530775 -7.39728e-05)
(-0.00749487 -0.032138 6.78952e-05)
(-0.00180611 0.045698 -0.000523272)
(-0.000131506 0.117502 2.43994e-05)
(-0.00040781 0.138745 -0.000160897)
(-0.00110405 0.110573 -0.000160306)
(-0.00165654 0.0988664 -4.29234e-05)
(-0.00084648 0.0911168 -3.02883e-05)
(-0.00101144 0.0814353 -3.10881e-05)
(0.000176028 0.0732124 2.09695e-05)
(-0.00232667 0.0716301 0.000257058)
(-0.00680278 0.0798104 0.000747017)
(-0.0215785 0.0624141 0.00123447)
(-0.0157661 0.0160177 2.52679e-05)
(-0.0098765 0.00753001 -4.40105e-05)
(-0.00123237 0.00506124 -0.00013502)
(-0.00169255 -0.0176192 7.72717e-05)
(0.00101048 -0.00172912 2.30964e-06)
(0.00625104 -0.00962706 0.000427)
(0.00655546 -0.0115145 -0.000263454)
(0.0126439 -0.0140191 -0.000158658)
(0.0135075 -0.0192209 0.000343891)
(0.0114812 -0.0165806 -0.000141282)
(0.0113065 -0.0312581 0.000206619)
(0.00391466 -0.0422607 -4.87226e-05)
(0.00308711 -0.0438735 1.62846e-05)
(-0.000989509 -0.0465634 -3.37584e-05)
(-0.00300834 -0.0502483 2.81591e-05)
(-0.00575391 -0.0504357 -7.12634e-05)
(-0.00704369 -0.0326729 9.59781e-05)
(-0.00211346 0.0463218 -0.000665291)
(0.00153088 0.118494 0.000104565)
(-0.000447554 0.140081 -0.000182432)
(-0.00129152 0.111116 -9.79378e-05)
(-0.00205253 0.0990796 -0.00011702)
(-0.00147721 0.0914182 -4.17042e-05)
(-0.00190279 0.0816083 -2.85646e-05)
(-0.00121636 0.0739444 5.7797e-05)
(-0.00545809 0.0743183 0.000330197)
(-0.012508 0.0818917 0.000873105)
(-0.0239628 0.0552973 0.00102795)
(-0.0141533 0.00985243 0.000606572)
(-0.00775872 0.0020774 0.00023282)
(5.1099e-05 0.0014793 0.000255328)
(9.41849e-05 -0.0177714 2.47884e-05)
(0.000592067 -0.00942714 5.52433e-05)
(0.00496837 -0.0138766 3.10257e-05)
(0.0075879 -0.0143918 9.3626e-05)
(0.00833511 -0.0166968 -1.79255e-05)
(0.0115108 -0.0192315 -3.10765e-05)
(0.0133385 -0.0181241 0.000303452)
(0.0108967 -0.0279652 0.000118745)
(0.00412614 -0.0378252 -0.000168682)
(0.00431152 -0.0394888 -2.46735e-06)
(0.000226837 -0.0426094 -4.40183e-05)
(-0.00158986 -0.0468927 2.36461e-05)
(-0.00445868 -0.0479424 -4.44606e-05)
(-0.00479278 -0.0327824 7.67617e-05)
(-0.00192868 0.0464839 -0.0005118)
(0.00249225 0.120294 0.000155089)
(-0.000453613 0.141567 -0.000218743)
(-0.00161353 0.111963 0.000115278)
(-0.00266478 0.0993768 -8.51829e-05)
(-0.00242331 0.09182 -6.86696e-07)
(-0.00305649 0.0817178 4.56528e-05)
(-0.00373243 0.0751089 0.000196872)
(-0.00977621 0.0764895 0.000291047)
(-0.016442 0.0799217 0.00067085)
(-0.0203486 0.0412124 0.000595803)
(-0.0086455 -0.00402184 0.000796329)
(-0.00552487 -0.00960359 0.000143229)
(9.07673e-05 -0.00657103 0.000275162)
(0.00105374 -0.0185808 1.92669e-05)
(-0.000435724 -0.0136411 0.000260245)
(0.00336353 -0.0195165 -0.000322123)
(0.00710712 -0.0174698 0.000257898)
(0.00513184 -0.019089 0.000358714)
(0.0105215 -0.0256026 -0.00040441)
(0.0174348 -0.0239943 0.000547762)
(0.0147079 -0.0273577 0.000813891)
(0.00395513 -0.0339285 -0.000107154)
(0.00517036 -0.0364384 6.58178e-05)
(0.00108055 -0.0396706 -2.43876e-05)
(-0.00031441 -0.0443682 1.84096e-05)
(-0.00294486 -0.0459252 -6.043e-06)
(-0.00275078 -0.0327381 3.31964e-05)
(-0.00169224 0.04553 -0.000316229)
(0.00257965 0.122539 0.000138669)
(-0.000489748 0.143134 -0.000237769)
(-0.00190006 0.113762 0.000222659)
(-0.00329645 0.100279 -1.54951e-05)
(-0.00368457 0.0926183 2.87749e-06)
(-0.00543255 0.0826092 -1.91209e-05)
(-0.00794616 0.0782252 9.85421e-05)
(-0.0174923 0.0836004 0.000136021)
(-0.0259822 0.0822733 0.000522365)
(-0.019208 0.0343075 0.000123016)
(-0.00513902 -0.00818681 -0.000126382)
(-0.00535727 -0.0121112 -0.000316167)
(-0.00149175 -0.00962185 -0.000566842)
(-0.00138139 -0.016981 -0.000375585)
(-0.00112256 -0.013614 -0.00066453)
(0.00032267 -0.018338 -0.000398661)
(0.000269527 -0.017344 -0.000741532)
(0.00652841 -0.0210606 -0.000700138)
(0.00917643 -0.0271741 -0.00046598)
(0.0219156 -0.0306912 -0.000623446)
(0.020184 -0.0338706 0.0013467)
(0.00686963 -0.0315039 -1.1334e-05)
(0.00624911 -0.033438 9.04842e-05)
(0.00260236 -0.0367337 -1.0966e-05)
(0.0009522 -0.0416827 1.68488e-05)
(-0.00126781 -0.0440684 1.08786e-05)
(-0.000844123 -0.0323822 -5.34979e-05)
(-0.00132868 0.0443912 -0.000137999)
(0.00229874 0.125073 0.000105855)
(-0.000497727 0.145321 -0.000391253)
(-0.00261605 0.115625 -1.07763e-05)
(-0.00473403 0.102133 4.29023e-05)
(-0.00591125 0.0946335 -9.00955e-06)
(-0.00831062 0.0867062 2.96686e-05)
(-0.0148775 0.0868693 0.000100073)
(-0.024371 0.0930856 2.7928e-05)
(-0.0283316 0.0777779 -0.00137931)
(-0.0200724 0.0137604 0.000340166)
(-0.016797 -0.00484589 -0.00130976)
(-0.0126638 -0.00464006 -0.00139633)
(-0.0109144 -0.00245304 -0.00146697)
(-0.00800768 -0.00627373 -0.00165371)
(-0.00655075 -0.00491046 -0.00170225)
(-0.00364704 -0.00824397 -0.00180171)
(-0.00293483 -0.008501 -0.00197224)
(0.00476807 -0.0109949 -0.00224468)
(0.00568815 -0.0159384 -0.00210088)
(0.023274 -0.018856 -0.0023287)
(0.0221144 -0.0242017 9.60576e-06)
(0.0102401 -0.0235081 -0.000177662)
(0.00674592 -0.027639 -4.57322e-05)
(0.00353909 -0.0335152 -4.99381e-05)
(0.00183159 -0.0393425 -1.61603e-05)
(0.000202393 -0.0421714 1.5191e-05)
(0.000879156 -0.0311988 -7.72022e-05)
(-0.000708014 0.0436103 -1.12376e-05)
(0.00181379 0.127531 5.92164e-05)
(-0.000197694 0.147946 -0.000360962)
(-0.00259621 0.117701 -0.000189898)
(-0.00496474 0.104957 5.60789e-05)
(-0.00633576 0.0978136 4.83673e-06)
(-0.00925195 0.0926253 4.1025e-05)
(-0.0152563 0.0956588 3.1581e-05)
(-0.0203125 0.0990311 0.000462994)
(-0.0170319 0.0719401 -0.00330665)
(-0.00318288 0.0154111 0.000128912)
(-0.00269172 0.0104845 0.000619944)
(-0.00636568 0.0086019 0.000576857)
(-0.00587555 0.00765693 0.000626077)
(-0.00488376 0.00647978 0.000539704)
(-0.00384826 0.00759076 0.000565209)
(-0.00197612 0.00731301 0.000450305)
(-0.00100003 0.00803254 0.00042311)
(0.00193266 0.00896752 0.000295154)
(0.00325389 0.00461377 0.000314376)
(0.00429627 0.00343765 0.00031539)
(0.00321572 -0.0143891 0.000185761)
(0.00259408 -0.0188436 -4.24807e-05)
(0.00315644 -0.0250787 -3.36678e-06)
(0.00211907 -0.0316637 -1.22973e-05)
(0.00157988 -0.0379159 4.26336e-06)
(0.000868542 -0.039739 8.60861e-05)
(0.0019584 -0.029894 -8.15463e-05)
(-2.11234e-05 0.0432913 0.000117278)
(0.00122649 0.129669 5.16451e-06)
(-0.000225624 0.150041 -0.000441001)
(-0.00306367 0.119149 -0.000167454)
(-0.00581517 0.107261 2.32902e-05)
(-0.00763687 0.101181 -3.99567e-06)
(-0.0117234 0.0982133 5.10448e-05)
(-0.017171 0.101757 6.6632e-05)
(-0.0207535 0.0998176 0.000456132)
(-0.013826 0.0560876 0.00107656)
(-0.00398538 0.00169759 -0.000481183)
(-0.0046661 -0.0077194 -0.000136885)
(-0.00419761 -0.00884021 -2.12143e-05)
(-0.00424013 -0.00998948 -6.12541e-05)
(-0.00366587 -0.0104389 -6.29236e-05)
(-0.00282418 -0.00997199 -7.0813e-05)
(-0.00123035 -0.00978863 -7.55473e-05)
(-0.00052975 -0.00992262 -4.41137e-05)
(0.00189073 -0.0103034 -5.05529e-05)
(0.00309489 -0.0120618 -4.50261e-05)
(0.00556278 -0.0136032 -0.000132569)
(0.00582244 -0.016572 -4.04326e-05)
(0.00358674 -0.018685 -6.18196e-05)
(0.00308888 -0.0236276 -1.78783e-05)
(0.00212025 -0.0305133 -3.20267e-05)
(0.00191334 -0.037183 -3.23707e-05)
(0.00157591 -0.0350977 0.000253566)
(0.00256772 -0.0285414 -3.36865e-05)
(0.000590757 0.0432514 0.000244705)
(0.000471213 0.131635 -6.9069e-05)
(-0.000152793 0.152862 -0.00040146)
(-0.00287329 0.12242 4.35668e-05)
(-0.00558107 0.110886 3.48199e-05)
(-0.00733964 0.105668 2.63902e-05)
(-0.0114757 0.103806 6.76642e-05)
(-0.0154803 0.106346 0.000183604)
(-0.0197986 0.0990713 0.000439923)
(-0.00860788 0.0477366 0.00155062)
(-0.00134462 0.00759349 8.1384e-05)
(-0.00211956 0.00593152 8.76528e-05)
(-0.00330101 0.00184835 -2.31007e-05)
(-0.00352199 -0.00110276 4.11447e-05)
(-0.00302558 -0.00264051 4.81333e-05)
(-0.00216649 -0.00239786 5.92276e-05)
(-0.00125812 -0.00210351 4.22465e-05)
(-0.000700434 -0.00254168 5.59115e-05)
(0.000377273 -0.00316654 3.30579e-05)
(0.00105843 -0.00581543 5.33233e-05)
(0.00179616 -0.00792175 2.63325e-05)
(0.00197255 -0.0132063 2.25043e-05)
(0.00156161 -0.0170189 -1.777e-05)
(0.00154225 -0.0226815 -1.91424e-05)
(0.0012671 -0.0297836 -2.19803e-05)
(0.00171212 -0.0366445 -5.21009e-05)
(0.00157691 -0.0293054 0.000216961)
(0.00273644 -0.0277654 1.80173e-05)
(0.000707546 0.0418916 0.000428256)
(-0.000296387 0.133044 -8.06792e-05)
(-0.000197889 0.154528 -0.000430763)
(-0.00304932 0.124439 0.000147004)
(-0.00571985 0.113297 -5.61058e-06)
(-0.00780115 0.108912 6.19673e-05)
(-0.0121883 0.108079 8.5737e-05)
(-0.0154356 0.10915 0.000229189)
(-0.0194033 0.0957321 0.000281328)
(-0.00688795 0.0381204 0.00135984)
(-0.00234262 0.00465691 -6.34684e-05)
(-0.00269805 0.0012625 -2.80954e-05)
(-0.00184928 -0.00217515 -6.50394e-05)
(-0.00232361 -0.00474855 -8.19059e-05)
(-0.00214028 -0.00692112 -5.76829e-05)
(-0.00147444 -0.00702743 -4.85431e-05)
(-0.000759357 -0.00663712 -5.49689e-05)
(-0.000232622 -0.00685599 -4.11842e-05)
(0.000535855 -0.00728548 -4.98926e-05)
(0.000995607 -0.00880812 -3.02805e-05)
(0.00146857 -0.010321 -4.94545e-05)
(0.00154041 -0.013505 -1.66172e-05)
(0.00114715 -0.0168731 -1.46571e-05)
(0.00106567 -0.0219585 -7.55948e-06)
(0.000876186 -0.0292344 -2.21374e-05)
(0.00142166 -0.0361753 -7.6237e-05)
(0.00167577 -0.0277675 -0.000136099)
(0.00223655 -0.0276205 4.29648e-05)
(0.000831312 0.0369354 0.000569848)
(-0.000278862 0.133385 -2.1443e-05)
(-8.65225e-05 0.157202 -0.000387496)
(-0.0027923 0.127874 7.60495e-05)
(-0.00517854 0.117229 -7.85694e-05)
(-0.00692865 0.113033 6.80907e-05)
(-0.0103887 0.111796 0.00015746)
(-0.0141292 0.110129 0.000436998)
(-0.0181357 0.0884336 0.000471038)
(-0.00555018 0.0295131 0.00129705)
(-0.00212413 0.00647798 7.85067e-06)
(-0.00216699 0.00464494 -6.64609e-05)
(-0.00134053 0.00254297 -7.3689e-05)
(-0.00217638 -0.000908405 -8.09502e-05)
(-0.00177454 -0.00546817 6.55492e-06)
(-0.00101718 -0.00570143 1.82193e-05)
(-0.000616545 -0.00531755 2.0402e-05)
(-0.000305535 -0.00560444 2.06679e-05)
(5.85024e-05 -0.00626546 1.40652e-05)
(0.000311277 -0.00789957 1.08657e-05)
(0.000548498 -0.00953536 1.18742e-07)
(0.000651019 -0.0126104 2.32758e-06)
(0.000490255 -0.016187 -1.35518e-05)
(0.000517789 -0.0212999 -2.73804e-05)
(0.000575123 -0.028322 -4.69872e-05)
(0.00116835 -0.0347799 -0.000109543)
(0.00133335 -0.0258273 -9.45607e-05)
(0.0015119 -0.0270076 4.19408e-05)
(0.00142439 0.0289109 0.000410803)
(-6.26773e-05 0.133908 -0.000106804)
(-3.72082e-05 0.157867 -0.000352612)
(-0.00275593 0.128436 2.36329e-05)
(-0.00506476 0.118153 -4.93776e-05)
(-0.00679225 0.114695 8.81247e-05)
(-0.0101618 0.113882 0.000210965)
(-0.013232 0.11007 0.000376523)
(-0.0160887 0.0812492 -0.00131412)
(-0.00442454 0.0246055 0.00112368)
(-0.00238657 0.00833673 -1.53579e-05)
(-0.000796744 0.00523757 7.81261e-05)
(0.000411708 0.00341698 -0.000100017)
(-0.000895704 0.000919523 -0.000116341)
(-0.000780072 -0.00636818 -3.27445e-05)
(-0.000399665 -0.00658213 -2.02933e-05)
(-0.0002528 -0.00620985 -1.75774e-05)
(-0.00010167 -0.00629776 -1.70842e-05)
(6.703e-05 -0.00691731 -1.64223e-05)
(0.000144876 -0.0081664 -1.4829e-05)
(0.000230106 -0.00965092 -1.94372e-05)
(0.000267483 -0.0123028 -1.72696e-05)
(0.000321545 -0.0155072 -2.05683e-05)
(0.000409648 -0.0199462 -2.0219e-05)
(0.000476028 -0.0262816 -3.35288e-05)
(0.000718944 -0.0316873 -6.43467e-05)
(0.00126079 -0.0252001 -0.000195874)
(0.00170471 -0.0268519 8.36141e-05)
(0.00273081 0.0198861 0.000266212)
(-0.000514707 0.133532 -5.08781e-05)
(-0.000126355 0.161251 -0.000430059)
(-0.00252431 0.132117 -7.47546e-05)
(-0.00426552 0.122264 -3.86003e-05)
(-0.00568847 0.117904 7.48565e-05)
(-0.00772804 0.11537 0.000174182)
(-0.0102186 0.107942 0.000527225)
(-0.00897163 0.070511 -0.00413255)
(-0.00391474 0.018497 9.17983e-05)
(-0.00224693 0.00313283 0.000138517)
(-0.000106503 -0.00236808 3.27008e-05)
(0.00087913 0.00634654 -4.31093e-05)
(-0.000484187 0.00426571 -4.94134e-05)
(-0.000378838 -0.00587916 -6.68701e-05)
(-0.000209235 -0.00601348 -7.51274e-05)
(-0.000132656 -0.00561943 -7.65329e-05)
(-7.69812e-05 -0.00563374 -8.03097e-05)
(-3.54189e-05 -0.0061935 -8.8405e-05)
(-3.12995e-06 -0.00726027 -0.000101669)
(1.7173e-05 -0.00854143 -0.000114814)
(2.88817e-05 -0.0108186 -0.000133812)
(4.68155e-05 -0.0135797 -0.0001545)
(0.000101195 -0.0173404 -0.000173681)
(0.000133218 -0.0220522 -0.000187589)
(0.000200504 -0.0264144 -0.000182811)
(0.000803309 -0.0303963 -0.000183052)
(0.000887839 -0.0257047 1.88882e-05)
(0.00255335 0.0188194 0.000110803)
(-0.00124969 0.131564 -8.55116e-05)
(-0.0135884 0.00802546 -0.00461097)
(-0.0249728 0.0119207 -0.00636395)
(-0.0375793 0.0106629 -0.00506826)
(-0.0447147 0.0105035 -0.00466967)
(-0.0556821 0.0116819 -0.00462806)
(-0.0620407 0.0110189 -0.00446809)
(-0.0709704 0.011667 -0.00444679)
(-0.0770398 0.0121919 -0.00433327)
(-0.0844103 0.0137869 -0.00426173)
(-0.0899844 0.0153369 -0.00422222)
(-0.0962731 0.0170544 -0.0042529)
(-0.101146 0.0186419 -0.00434615)
(-0.10603 0.0196047 -0.0044406)
(-0.109082 0.0211933 -0.00469441)
(-0.110809 0.0227711 -0.0050023)
(-0.110478 0.0245435 -0.00549301)
(-0.107013 0.0256675 -0.00607598)
(-0.0991854 0.0262257 -0.00670461)
(-0.0870943 0.0255184 -0.0072676)
(-0.0694453 0.0230055 -0.00788946)
(-0.0483701 0.0203327 -0.00847233)
(-0.0203825 0.0180567 -0.00903582)
(0.00469616 0.0175867 -0.00868909)
(0.0302945 0.0177451 -0.00795831)
(0.0537356 0.0186529 -0.00606137)
(0.0582182 0.0234097 -0.0042854)
(0.0467824 0.025202 -0.00367159)
(0.0268056 0.0165475 -0.00293499)