/*--------------------------------*- C++ -*----------------------------------*\
| =========                 |                                                 |
| \\      /  F ield         | OpenFOAM: The Open Source CFD Toolbox           |
|  \\    /   O peration     | Version:  2.3.0                                 |
|   \\  /    A nd           | Web:      www.OpenFOAM.org                      |
|    \\/     M anipulation  |                                                 |
\*---------------------------------------------------------------------------*/
FoamFile
{
    version     2.0;
    format      ascii;
    class       volScalarField;
    location    "3.00001";
    object      k.air;
}
// * * * * * * * * * * * * * * * * * * * * * * * * * * * * * * * * * * * * * //

dimensions      [0 2 -2 0 0 0 0];

internalField   nonuniform List<scalar> 
10000
(
1.37298
0.999816
0.946255
0.371485
0.0475061
0.0135369
0.00273447
0.00412197
0.00205992
0.00152629
0.0016997
0.00602677
0.00416787
0.00821991
0.00617158
0.0225769
0.128633
0.205095
0.254221
0.267467
0.846301
0.581224
1.6564
0.226546
0.00408594
9.25322e-05
0.000224316
0.000204917
0.000103209
0.000126981
0.000228733
0.00283867
0.000736248
0.000736773
0.000431387
0.00330317
0.101576
0.222304
0.927396
0.574603
0.846118
0.768824
5.54407
0.308856
0.00783848
0.00131156
3.66865e-05
0.000136189
7.28372e-05
6.39651e-05
0.000105987
0.000547006
0.000177802
0.00120619
0.000250772
0.00428865
0.137955
0.283692
1.28701
2.72882
0.943541
1.05834
18.2893
0.161882
0.00923453
9.72713e-05
4.0063e-05
4.59503e-05
4.76317e-05
5.05086e-05
4.51822e-05
5.09067e-05
8.31349e-05
7.35311e-05
6.14578e-05
0.00251011
0.484817
0.970776
0.438353
1.19652
1.05104
1.87896
12.5992
0.239258
0.0174103
0.000157316
5.04888e-05
4.49252e-05
4.96198e-05
5.1712e-05
4.79411e-05
5.93347e-05
5.66685e-05
5.71689e-05
5.8749e-05
0.0034116
2.13256
8.75112
0.308867
0.229629
1.13161
6.06374
0.757491
0.491837
0.036617
0.000190606
4.17206e-05
4.239e-05
4.88239e-05
5.08865e-05
4.72309e-05
5.06649e-05
5.0022e-05
4.90832e-05
5.63491e-05
0.00456094
1.99672
1.44943
0.56778
0.22641
1.01965
21.7995
1.74842
1.97314
0.0595025
0.000209942
4.64128e-05
4.64093e-05
5.57757e-05
6.23981e-05
5.70109e-05
6.62538e-05
5.92041e-05
5.78486e-05
7.2273e-05
0.00742127
0.486422
0.692579
3.61113
0.36897
0.983951
1.68485
6.59066
1.30984
0.0618618
0.000232071
0.000108362
0.000110706
0.000163853
0.000219035
0.000186904
0.000243793
0.00020293
0.00018709
0.000256694
0.0204114
0.213825
0.66494
6.35269
1.92514
1.10713
3.67558
24.278
1.41264
0.0468654
0.00675648
0.00503318
0.00408558
0.00616379
0.00791946
0.00615614
0.00855033
0.00902279
0.00876802
0.0113855
0.0489544
0.209797
2.0287
6.52429
3.28275
1.11492
9.28425
24.0962
0.600625
0.0296564
0.0602085
0.0631414
0.0520271
0.0687068
0.072541
0.0572318
0.0729893
0.0730561
0.0733972
0.0793906
0.102204
0.272991
7.548
7.37692
3.39414
1.4272
30.3683
2.66134
0.826378
0.0563569
0.0852761
0.0890379
0.0857143
0.0939809
0.0935839
0.087676
0.093082
0.0944826
0.0976138
0.0953459
0.10464
0.30038
2.69151
7.92746
0.619731
1.90508
28.6561
0.440512
3.03797
0.0620052
0.0864751
0.0955128
0.0915177
0.0980325
0.097982
0.0925891
0.0983264
0.100584
0.101135
0.100134
0.0696484
0.310325
7.67023
8.57604
0.43613
3.31399
28.0037
0.390534
2.88371
0.0620768
0.0834542
0.0941518
0.0913808
0.098941
0.0993318
0.0933433
0.0998513
0.101982
0.101762
0.0978033
0.0836145
0.267718
9.64196
9.26346
1.27514
8.49434
24.8343
0.351542
2.60337
0.0467678
0.0675133
0.0779296
0.0864765
0.0956676
0.0958318
0.0891488
0.0968931
0.10128
0.101021
0.0952976
0.0732603
1.08184
10.1834
8.19425
4.87808
28.4071
25.0926
0.350257
2.28503
0.042458
0.0617451
0.0859356
0.0745196
0.0766106
0.075599
0.0706354
0.0789182
0.0946595
0.0960716
0.12544
0.062003
1.44661
9.232
2.91253
4.68449
22.4979
23.7063
0.253908
2.15714
0.0490435
0.0739443
0.0889395
0.0740289
0.0828346
0.0824802
0.0434176
0.0852949
0.0765909
0.0831914
0.119467
0.0770256
1.34382
2.17495
0.294905
2.2882
17.535
18.856
0.134488
1.80855
0.0904254
0.0931639
0.106357
0.0866742
0.0913839
0.0861508
0.0712449
0.0802491
0.0800031
0.0906377
0.0957055
0.0819916
1.20626
0.0337662
0.235399
0.903738
8.18063
8.2301
0.0357625
1.0418
0.106406
0.0968246
0.117787
0.0873885
0.0996001
0.0922876
0.0744753
0.0737525
0.0759669
0.0842691
0.0811971
0.0973669
1.08178
0.0116901
0.0500052
2.80223
4.49806
2.34488
0.00513389
0.323556
0.105449
0.0989495
0.0900146
0.0862737
0.0846235
0.0822004
0.0673085
0.0697295
0.072522
0.0831577
0.0752642
0.106582
0.0899519
0.00117512
0.0065996
0.633704
0.0824432
0.243352
0.000494209
0.0988115
0.00838858
0.00779902
0.0190864
0.0337604
0.0382878
0.0465438
0.0504876
0.0725251
0.0828307
0.0490501
0.0709306
0.0531318
0.0042812
0.000365957
0.000784952
0.0748466
1.36946
1.01548
0.942957
0.383691
0.044527
0.0129648
0.0025427
0.00247436
0.00117202
0.00165644
0.00127692
0.00497419
0.00309506
0.0065667
0.00659907
0.0228752
0.130332
0.203904
0.252949
0.265328
0.861714
0.591334
1.59455
0.311914
0.00371079
7.48822e-05
0.000249032
0.00020443
0.000103632
0.000132722
0.000249981
0.00313536
0.00075235
0.000633736
0.00036448
0.00349317
0.108996
0.212136
0.85858
0.456714
0.86635
0.776193
4.88039
0.347531
0.00855015
0.00125362
4.65203e-05
0.000131243
7.20709e-05
6.33337e-05
0.000105188
0.000547449
0.000181554
0.00089687
0.000270985
0.00473742
0.142037
0.259199
1.21214
1.40743
0.973647
1.01935
11.8235
0.210469
0.0102441
9.92848e-05
3.95013e-05
4.54724e-05
4.69859e-05
4.98979e-05
4.46469e-05
4.94135e-05
8.84623e-05
7.39862e-05
5.98512e-05
0.0025045
0.3543
0.578036
0.426865
0.949535
1.11276
1.71762
6.09971
0.263452
0.0181842
0.000158336
5.01302e-05
4.4614e-05
4.90509e-05
5.10709e-05
4.75074e-05
5.8771e-05
5.61404e-05
5.66424e-05
5.81156e-05
0.00319114
1.23874
3.34653
0.300832
0.240457
1.22629
4.75588
0.736191
0.406321
0.0342971
0.000172519
4.14236e-05
4.20243e-05
4.8083e-05
5.00449e-05
4.6614e-05
4.97287e-05
4.92491e-05
4.83625e-05
5.59534e-05
0.00403203
1.25615
0.842636
0.516733
0.243697
1.07235
11.4105
1.62973
1.16567
0.0556952
0.000181347
4.53108e-05
4.52973e-05
5.33973e-05
5.86896e-05
5.42417e-05
6.19229e-05
5.59928e-05
5.49559e-05
6.7376e-05
0.00692647
0.461417
0.662906
1.97321
0.35681
1.01464
1.66841
5.69573
0.906718
0.0633367
0.000206549
9.82096e-05
0.000101428
0.000144683
0.000190441
0.00016779
0.000211899
0.000177721
0.000164363
0.000219777
0.0197347
0.221177
0.609192
4.37801
1.05062
1.14835
3.55461
15.944
0.891706
0.0567115
0.00592923
0.00440077
0.00363059
0.0053219
0.00676318
0.00545104
0.00734872
0.00782183
0.0075865
0.00957001
0.0481493
0.222556
1.60119
4.58416
2.25731
1.14966
8.39374
15.0617
0.542323
0.0456995
0.0636826
0.0661318
0.0558385
0.0708733
0.0738297
0.0605607
0.0740841
0.0745894
0.0752511
0.0801941
0.100305
0.279847
4.41829
5.10342
2.19992
1.39342
21.2494
2.22091
0.642657
0.0707818
0.086134
0.0893897
0.0859889
0.0931543
0.0925014
0.0861128
0.0919935
0.0936275
0.0966283
0.0960137
0.110339
0.30228
2.41734
5.43917
0.584726
1.83363
20.2788
0.343043
1.89236
0.0701144
0.087412
0.0959812
0.0917651
0.0983349
0.0983102
0.0921592
0.0986415
0.10088
0.101495
0.100942
0.0768951
0.304357
6.13136
5.83836
0.39852
3.17056
19.6767
0.304687
1.89802
0.0622323
0.0850293
0.0951201
0.0917396
0.099339
0.0997108
0.0936319
0.100188
0.102306
0.102183
0.0988944
0.0736709
0.245058
6.48064
6.13788
1.01019
7.5497
17.2429
0.285307
1.74235
0.0539365
0.0699291
0.0796606
0.0872418
0.0966932
0.0968146
0.0896941
0.0977163
0.101873
0.101692
0.0965497
0.0729739
0.423556
6.68212
5.17461
3.01307
19.1208
16.8977
0.285205
1.54481
0.0502516
0.0574187
0.0759155
0.0758881
0.0785342
0.077567
0.0724135
0.0806642
0.096201
0.0973722
0.108833
0.0661997
0.725627
5.70124
1.79824
2.99776
14.6184
15.3147
0.198927
1.43844
0.0538712
0.0694203
0.0799997
0.0700381
0.0732111
0.0723239
0.0468001
0.074102
0.0786817
0.0849178
0.111157
0.0708329
0.788806
1.55177
0.27575
1.9022
10.9207
11.8271
0.125389
1.17553
0.086172
0.0889041
0.0984975
0.0836488
0.0824262
0.0768188
0.0666092
0.0703607
0.0711102
0.0810611
0.0851417
0.0821518
0.757235
0.0466366
0.233177
0.773472
4.71781
4.72855
0.0475918
0.639293
0.112203
0.0982107
0.109486
0.088183
0.0923245
0.0852603
0.0714589
0.0673243
0.0691034
0.0760987
0.0742924
0.094133
0.607601
0.0242757
0.0631439
1.61288
2.42971
1.25581
0.0123769
0.191407
0.11586
0.104557
0.0922541
0.0876933
0.0860696
0.083497
0.0686491
0.0669089
0.0693661
0.0770571
0.0721574
0.110627
0.0813293
0.00195288
0.0142646
0.334251
0.0982637
0.120949
0.000467676
0.0395986
0.0244904
0.0208894
0.0297591
0.0399195
0.0434446
0.0500415
0.0523849
0.0691721
0.0771959
0.0519362
0.0668538
0.0597196
0.0034924
0.000384555
0.00132671
0.0334042
1.3585
1.01574
0.92294
0.390507
0.0435811
0.0126084
0.00246974
0.00202547
0.00086957
0.0018015
0.00109953
0.00446077
0.00259052
0.00579789
0.00686639
0.0232184
0.129068
0.19415
0.244941
0.262843
0.884555
0.604981
1.5028
0.329275
0.00319778
6.85817e-05
0.00025813
0.000202093
0.000101914
0.000135458
0.000259693
0.00327648
0.000904148
0.000652394
0.000364689
0.0036289
0.118452
0.195923
0.750635
0.401858
0.903425
0.784687
4.09677
0.367678
0.00891604
0.00120082
5.36185e-05
0.000127984
7.06743e-05
6.19908e-05
0.000103096
0.000538273
0.000183188
0.000848446
0.000276546
0.00520763
0.151774
0.231458
1.0826
0.783228
1.02678
0.975232
7.70932
0.249771
0.0111192
9.95199e-05
3.92564e-05
4.50684e-05
4.63062e-05
4.91025e-05
4.40693e-05
4.85315e-05
9.08322e-05
7.24792e-05
5.87686e-05
0.00250622
0.263048
0.383782
0.408619
0.693594
1.21246
1.51324
2.84942
0.281097
0.019025
0.000156281
4.95554e-05
4.41861e-05
4.83278e-05
5.02062e-05
4.68915e-05
5.76657e-05
5.51717e-05
5.57297e-05
5.75775e-05
0.00318503
0.741987
1.1484
0.298709
0.255691
1.35938
3.4703
0.712634
0.35117
0.0328016
0.000162973
4.11341e-05
4.1725e-05
4.74052e-05
4.92273e-05
4.60072e-05
4.8901e-05
4.84815e-05
4.76489e-05
5.5503e-05
0.00381011
0.828807
0.743321
0.480366
0.267816
1.15275
6.00486
1.48539
0.697523
0.0529226
0.000169016
4.48384e-05
4.48108e-05
5.24118e-05
5.72335e-05
5.31293e-05
6.02336e-05
5.47212e-05
5.37939e-05
6.54522e-05
0.00676279
0.420938
0.609591
1.43313
0.356109
1.06552
1.6569
4.65445
0.659597
0.0635939
0.000195939
9.44732e-05
9.79676e-05
0.000137522
0.000179655
0.000160505
0.000199723
0.000168215
0.000155861
0.000205874
0.0190988
0.23224
0.534682
3.09879
0.812095
1.21279
3.37843
10.6238
0.643367
0.0662778
0.0054763
0.00407244
0.00340961
0.00476856
0.00590904
0.00501768
0.00641258
0.00691933
0.00673482
0.00824886
0.0469396
0.241363
1.14896
3.3047
1.59201
1.1976
7.30916
9.51351
0.493552
0.0616826
0.0674684
0.0692162
0.0593074
0.0733697
0.0758126
0.0640755
0.0759672
0.076709
0.0775301
0.0819645
0.103864
0.293495
2.64556
3.62078
1.53342
1.36246
15.1572
1.53852
0.538708
0.0876379
0.0876399
0.0900068
0.0864707
0.0930154
0.0922948
0.0857679
0.0917987
0.0935197
0.096431
0.0971953
0.119626
0.309156
2.05121
3.82584
0.53497
1.73973
14.6097
0.263039
1.2366
0.0846696
0.0890444
0.0968268
0.0921982
0.0988895
0.0989148
0.0922426
0.0992221
0.101422
0.102153
0.102405
0.0885223
0.307222
4.45952
4.05648
0.356097
2.95915
14.082
0.241383
1.30687
0.0772304
0.0876808
0.0968077
0.0923627
0.100057
0.100396
0.0941386
0.100798
0.102895
0.102947
0.100864
0.0790799
0.259831
4.42144
4.13687
0.73258
6.40399
12.1789
0.233547
1.23548
0.0680222
0.0742357
0.0829266
0.0885217
0.0984564
0.0985007
0.0906247
0.0991164
0.102932
0.1029
0.0990411
0.0798838
0.296476
4.43365
3.24313
1.89711
13.0487
11.5787
0.234942
1.11717
0.0632185
0.0581385
0.0730271
0.0783901
0.082168
0.0812787
0.0754591
0.0840043
0.0988376
0.0996823
0.102649
0.0746735
0.416802
3.48799
0.920392
1.96379
9.55003
9.99153
0.171399
1.02865
0.0645242
0.0689239
0.0770363
0.0695178
0.0707526
0.0698772
0.0517193
0.0712687
0.082752
0.0882347
0.106003
0.0798865
0.491761
0.809006
0.242374
1.39044
6.81184
7.40325
0.132347
0.827513
0.0905023
0.0876381
0.0948475
0.0829138
0.0792915
0.0740177
0.0662485
0.0681539
0.069124
0.0779093
0.0814879
0.0889721
0.496737
0.0592731
0.205579
0.627958
2.78215
2.73489
0.0840019
0.433721
0.121317
0.100521
0.105328
0.0896021
0.089163
0.0825709
0.0708418
0.06606
0.0676607
0.0736531
0.0725248
0.0978556
0.355554
0.0334165
0.0457057
0.940845
1.39427
0.782821
0.0258414
0.105859
0.130225
0.11213
0.0958849
0.0900412
0.0885171
0.0857227
0.0710112
0.0669197
0.069079
0.0755592
0.072024
0.117441
0.0508788
0.00318438
0.00631014
0.180112
0.0166559
0.0177513
0.000627777
0.00748804
0.0478918
0.0407402
0.0439678
0.049742
0.0519405
0.0560157
0.0557393
0.0685821
0.0744327
0.0570177
0.0662807
0.070685
0.00303644
0.000435835
0.00124276
0.00386128
1.35955
1.02942
0.916173
0.400272
0.0432227
0.0120695
0.00227305
0.00185368
0.000610989
0.00214858
0.000834928
0.00386636
0.00207908
0.00478543
0.00715978
0.0236448
0.129526
0.190614
0.242216
0.264729
0.912101
0.619383
1.39926
0.333669
0.00270713
6.15321e-05
0.000278009
0.000198125
0.000100299
0.000141864
0.000281327
0.00345679
0.0010661
0.000762727
0.000373703
0.00370753
0.127487
0.177091
0.632948
0.385002
0.953448
0.789242
3.34405
0.377623
0.00919384
0.00112041
6.35194e-05
0.000125397
7.01227e-05
6.14622e-05
0.000102256
0.000533782
0.000189218
0.000844677
0.000278565
0.00568337
0.163861
0.202151
0.924402
0.561175
1.09471
0.932829
5.03275
0.286334
0.0120558
9.87885e-05
3.89962e-05
4.4803e-05
4.59866e-05
4.87578e-05
4.38002e-05
4.76183e-05
9.5742e-05
7.0812e-05
5.75882e-05
0.00255584
0.22623
0.295375
0.386978
0.542676
1.32848
1.32533
1.46419
0.303483
0.0194796
0.000151473
4.93064e-05
4.40032e-05
4.80087e-05
4.98319e-05
4.66321e-05
5.72303e-05
5.47857e-05
5.53662e-05
5.73137e-05
0.00328444
0.482438
0.633243
0.296965
0.274337
1.50452
2.48805
0.687561
0.33954
0.0304632
0.000144357
4.09925e-05
4.1552e-05
4.70546e-05
4.88298e-05
4.57147e-05
4.84714e-05
4.81116e-05
4.73019e-05
5.51129e-05
0.00368739
0.575556
0.657162
0.447753
0.292509
1.24692
3.32017
1.34092
0.5002
0.049307
0.000142603
4.41597e-05
4.41183e-05
5.09736e-05
5.50675e-05
5.14353e-05
5.76968e-05
5.28277e-05
5.20743e-05
6.22231e-05
0.00664314
0.374976
0.543015
1.15595
0.358204
1.12853
1.64741
3.69089
0.525263
0.0623121
0.000173063
8.88114e-05
9.25034e-05
0.000127316
0.000165214
0.000149735
0.000183496
0.000155256
0.000144206
0.000187442
0.0184465
0.244566
0.461147
2.26198
0.670612
1.28386
3.17536
7.16316
0.527014
0.0742113
0.00474465
0.00352649
0.00307132
0.0041078
0.0050065
0.00443319
0.00544143
0.00592928
0.00578206
0.00684108
0.045255
0.262252
0.776466
2.45109
1.17265
1.24158
6.26308
5.99668
0.471696
0.0775221
0.0710485
0.0721874
0.0621582
0.0759702
0.0781923
0.0673828
0.0783205
0.0791409
0.0799956
0.0843037
0.110661
0.310236
1.65318
2.6387
1.14986
1.33039
11.0401
0.866347
0.496564
0.102901
0.0893681
0.0907157
0.0870234
0.0933113
0.0926426
0.0861873
0.0921668
0.0938783
0.0967328
0.0985585
0.12955
0.321323
1.70533
2.76136
0.479329
1.63219
10.7433
0.207251
0.883616
0.0989424
0.0909042
0.0978875
0.0926922
0.0995905
0.0996815
0.092629
0.0999589
0.102108
0.102982
0.104235
0.101486
0.318258
3.15002
2.87641
0.317516
2.71235
10.2764
0.194116
0.967512
0.0940945
0.0906373
0.0988568
0.0930708
0.100957
0.101257
0.0947176
0.101563
0.103634
0.103906
0.103316
0.090174
0.287962
3.04967
2.8276
0.525312
5.27501
8.77661
0.193087
0.948464
0.084469
0.0791644
0.0871373
0.089954
0.100589
0.100534
0.0916737
0.100816
0.104252
0.104407
0.102255
0.0913567
0.304263
2.95353
2.00067
1.22651
9.00394
8.07647
0.199694
0.88417
0.0779407
0.0613915
0.0742869
0.0812988
0.0868329
0.0860436
0.0788664
0.0882883
0.102042
0.102523
0.102517
0.0856124
0.342641
2.08233
0.46528
1.32222
6.23804
6.5608
0.169571
0.814374
0.0773301
0.0707118
0.0777698
0.0710165
0.072447
0.0717992
0.0570932
0.0730634
0.0880003
0.0924962
0.104593
0.0914271
0.369913
0.355428
0.184367
0.970149
4.24264
4.59191
0.155224
0.662083
0.098211
0.0881872
0.0940799
0.0835654
0.0797989
0.0752316
0.0682594
0.0702964
0.0711027
0.0787276
0.0820314
0.0986227
0.357145
0.0706269
0.140839
0.478026
1.65587
1.51489
0.117668
0.358007
0.130687
0.103045
0.104002
0.0912367
0.0887901
0.0826888
0.0722933
0.0679519
0.069524
0.074732
0.0738848
0.104599
0.212117
0.0404713
0.018122
0.514123
0.732344
0.297781
0.040496
0.0665305
0.144229
0.119508
0.0997923
0.0926087
0.0912284
0.0882253
0.0737951
0.0685619
0.0705384
0.0766924
0.0735831
0.124725
0.038243
0.00479339
0.0033517
0.0483122
0.00202628
0.00181013
0.00122936
0.00247884
0.0698005
0.0589472
0.0579805
0.0602461
0.0612245
0.0627293
0.0596987
0.069652
0.0738183
0.0628658
0.0677394
0.0824522
0.0110688
0.000518951
0.0028775
0.00130317
1.35831
1.03916
0.905041
0.406112
0.0430016
0.0115682
0.00217049
0.00183875
0.000520276
0.00258795
0.000650468
0.00334559
0.00178221
0.00421477
0.00737977
0.0240938
0.129197
0.186497
0.23771
0.265863
0.94322
0.63303
1.2984
0.351017
0.00218265
5.86378e-05
0.000305309
0.000192269
9.70134e-05
0.000144775
0.000295299
0.00357698
0.00128669
0.000889147
0.000437516
0.00372906
0.134943
0.158326
0.531037
0.381234
1.01322
0.788806
2.66033
0.379574
0.00915349
0.00103643
7.71791e-05
0.000122087
6.87915e-05
6.0245e-05
0.000100093
0.000520772
0.000205556
0.000752266
0.000273105
0.0060542
0.175914
0.173437
0.764599
0.49192
1.17159
0.89489
3.30267
0.314448
0.0129613
9.5759e-05
3.87652e-05
4.43657e-05
4.53331e-05
4.80207e-05
4.32549e-05
4.6673e-05
9.80672e-05
6.72344e-05
5.63598e-05
0.00259599
0.216413
0.236315
0.364514
0.475574
1.45019
1.18298
0.918335
0.32536
0.0194906
0.0001446
4.873e-05
4.36089e-05
4.73299e-05
4.90295e-05
4.60695e-05
5.62271e-05
5.39014e-05
5.45193e-05
5.66719e-05
0.00341763
0.356521
0.477768
0.293832
0.299201
1.65267
1.83566
0.661813
0.353347
0.0277804
0.000129848
4.07106e-05
4.12492e-05
4.63612e-05
4.80141e-05
4.51177e-05
4.76324e-05
4.73451e-05
4.6586e-05
5.44974e-05
0.00362257
0.427576
0.553799
0.417237
0.315212
1.35191
2.10926
1.2027
0.439966
0.0448599
0.00012957
4.37415e-05
4.36744e-05
5.01117e-05
5.39014e-05
5.05154e-05
5.63545e-05
5.17976e-05
5.11082e-05
6.03291e-05
0.00654262
0.334767
0.471104
0.954749
0.361743
1.19967
1.63687
2.87163
0.465672
0.0594872
0.000161576
8.61226e-05
8.98579e-05
0.000122376
0.000158192
0.000144507
0.000175566
0.000148961
0.000138567
0.000178529
0.0177903
0.256937
0.398722
1.70201
0.571522
1.35185
2.95873
4.86013
0.479888
0.079861
0.00420705
0.00311382
0.00280197
0.00352207
0.00418791
0.00393701
0.00454906
0.00501919
0.00491166
0.00556389
0.0428828
0.283021
0.535822
1.8652
0.909292
1.27096
5.32784
3.70767
0.474056
0.0893864
0.0735243
0.0746945
0.0639386
0.0782915
0.0804926
0.0696866
0.0806354
0.0814317
0.0822405
0.0866299
0.118036
0.328398
1.09693
1.97322
0.90929
1.29185
8.20973
0.438679
0.494508
0.113851
0.0906717
0.0912544
0.08744
0.093697
0.0931126
0.0867861
0.0926568
0.0943228
0.0971469
0.0995935
0.136814
0.337523
1.40437
2.03869
0.422475
1.51157
8.04809
0.180636
0.713516
0.109522
0.0922972
0.098924
0.0930617
0.100281
0.100438
0.0930214
0.100686
0.102783
0.103794
0.106012
0.113406
0.33521
2.21605
2.08267
0.282003
2.44612
7.61903
0.169141
0.789462
0.106516
0.0928166
0.10083
0.0935994
0.101839
0.102099
0.0951512
0.102313
0.104355
0.104839
0.105692
0.101975
0.318228
2.1113
1.95036
0.388428
4.26987
6.4466
0.170953
0.795519
0.0969888
0.0828812
0.0913309
0.0910138
0.102635
0.102482
0.092453
0.102451
0.105536
0.105874
0.105419
0.103638
0.332044
1.95484
1.2023
0.818567
6.25949
5.71762
0.185469
0.76583
0.0893716
0.0646428
0.0773327
0.0835124
0.0914627
0.0907685
0.0813888
0.0925309
0.105114
0.105259
0.104777
0.0968053
0.344333
1.20651
0.231844
0.913974
4.03255
4.30457
0.183879
0.71508
0.0875505
0.0728547
0.0802326
0.0728478
0.0758749
0.075495
0.0612321
0.0767147
0.0932164
0.0967341
0.10542
0.102423
0.341838
0.186499
0.0933075
0.693884
2.59338
2.72438
0.181245
0.600137
0.104936
0.089253
0.0949201
0.0845663
0.08209
0.0782606
0.0706014
0.0741973
0.0747012
0.0813596
0.0845163
0.108214
0.29866
0.0812249
0.0507924
0.307551
0.875886
0.654539
0.144284
0.353561
0.137316
0.104862
0.104294
0.0924648
0.0898562
0.0842017
0.0741347
0.0711849
0.0727957
0.0774022
0.0766078
0.111655
0.153438
0.0458805
0.00416798
0.179678
0.2078
0.0412018
0.0538108
0.0776782
0.153531
0.124433
0.102572
0.0944568
0.0932066
0.0900743
0.0760153
0.0703814
0.0722746
0.0784359
0.0753411
0.129875
0.0535754
0.00635354
0.00144063
0.00477678
0.00106002
0.00958416
0.00188681
0.00811667
0.0860787
0.0726499
0.0682997
0.068047
0.0681522
0.067782
0.0628759
0.0710565
0.0742242
0.0673038
0.0695513
0.0911564
0.0252447
0.000608547
0.00117875
0.0011452
1.36023
1.05051
0.894425
0.408603
0.0427628
0.0110052
0.00198163
0.0021168
0.00050351
0.00286894
0.000516006
0.00290016
0.00134496
0.00351703
0.00758482
0.0245295
0.128792
0.183722
0.234616
0.266873
0.97735
0.645108
1.21029
0.35491
0.00176978
5.76277e-05
0.000367593
0.000184766
9.37277e-05
0.000146084
0.000313548
0.00361833
0.00149497
0.00102005
0.000495775
0.00367844
0.139779
0.141914
0.452724
0.378958
1.08083
0.782865
2.04833
0.376075
0.00888229
0.000959401
8.98757e-05
0.000120091
6.81604e-05
5.96612e-05
9.90559e-05
0.000509421
0.000239064
0.000524901
0.0002531
0.00620592
0.186944
0.148817
0.624264
0.471914
1.25445
0.861427
2.19209
0.335303
0.0137055
9.23008e-05
3.85965e-05
4.41162e-05
4.50209e-05
4.76705e-05
4.29931e-05
4.5915e-05
9.99448e-05
6.40819e-05
5.53872e-05
0.00263138
0.21594
0.190035
0.342913
0.453387
1.57364
1.0707
0.705111
0.347011
0.0192235
0.000136108
4.84487e-05
4.3421e-05
4.70061e-05
4.86475e-05
4.58032e-05
5.57486e-05
5.34798e-05
5.41107e-05
5.63637e-05
0.00355315
0.297754
0.372037
0.288957
0.330833
1.80059
1.46234
0.637994
0.375218
0.0246775
0.00011242
4.05753e-05
4.11014e-05
4.60257e-05
4.76239e-05
4.48324e-05
4.7228e-05
4.69775e-05
4.62419e-05
5.38982e-05
0.00359819
0.345673
0.449343
0.389111
0.335073
1.47122
1.61244
1.07245
0.431515
0.039331
0.000106116
4.31619e-05
4.30858e-05
4.88957e-05
5.20837e-05
4.90722e-05
5.42236e-05
5.02026e-05
4.96556e-05
5.72248e-05
0.00641707
0.308281
0.399989
0.798041
0.365736
1.27901
1.62446
2.20922
0.44861
0.0543926
0.000140309
8.21476e-05
8.5705e-05
0.000115554
0.000149191
0.000136986
0.000165455
0.000140748
0.000131179
0.000167414
0.0171572
0.268756
0.346624
1.31851
0.504723
1.41299
2.73588
3.30929
0.470728
0.0824616
0.00379064
0.00275982
0.00256231
0.00310351
0.00365651
0.00359961
0.00396557
0.00442261
0.00433978
0.00477645
0.0397415
0.302215
0.416913
1.45132
0.739338
1.28078
4.51725
2.25028
0.491437
0.152102
2.25276e-05
0.0758393
2.25276e-05
0.0794661
0.0817757
2.25276e-05
0.0819525
0.0826661
0.0833973
0.0879166
0.123077
0.346903
0.767123
1.51148
0.745748
1.24309
6.23241
0.276788
0.51018
0.132637
2.25276e-05
2.25276e-05
2.25276e-05
2.25276e-05
2.25276e-05
2.25276e-05
2.25276e-05
2.25276e-05
2.25276e-05
2.25276e-05
0.207732
0.355919
1.13353
1.53636
0.36681
1.3777
6.13017
0.179248
0.641302
0.0974929
2.25276e-05
0.0996405
2.25276e-05
0.100759
0.100963
2.25276e-05
0.101189
0.103246
0.104345
0.107208
0.121725
0.355502
1.5594
1.53529
0.246252
2.16612
5.72462
0.166143
0.705355
0.086557
2.25276e-05
0.102183
2.25276e-05
0.102442
0.102675
2.25276e-05
0.102825
0.104841
0.105466
0.107289
0.110641
0.347567
1.45323
1.34991
0.295644
3.38769
4.80774
0.168493
0.719989
0.0830137
2.25276e-05
0.0942767
2.25276e-05
0.104028
0.103806
2.25276e-05
0.103563
0.106404
0.106862
0.107564
0.112792
0.360573
1.27154
0.687874
0.560985
4.35393
4.08207
0.196863
0.710069
0.0809512
2.25276e-05
0.0800683
2.25276e-05
0.094704
0.0940752
2.25276e-05
0.0954825
0.107187
0.107098
0.106859
0.105099
0.36512
0.685547
0.0931236
0.641073
2.52623
2.77156
0.206303
0.675862
0.0963996
2.25276e-05
0.0825582
2.25276e-05
0.0788534
0.078682
2.25276e-05
0.0798754
0.0968662
0.0996785
0.106784
0.110308
0.347024
0.142842
0.0241816
0.490243
1.43705
1.41083
0.205473
0.586971
0.169338
2.25276e-05
0.0960813
2.25276e-05
0.0843215
0.0810102
2.25276e-05
0.0775429
0.0777644
0.0838232
0.0868873
0.115136
0.286389
0.0916703
0.00803921
0.145593
0.282007
0.160937
0.164517
0.374395
0.323585
2.25276e-05
0.105079
2.25276e-05
0.0911037
0.0857625
2.25276e-05
0.0739484
0.0756018
0.0798323
0.0789681
0.116788
0.149613
0.0500591
0.0017658
0.0237928
0.0183058
0.0171079
0.062551
0.105433
0.473734
2.25276e-05
2.25276e-05
2.25276e-05
2.25276e-05
2.25276e-05
2.25276e-05
2.25276e-05
2.25276e-05
2.25276e-05
2.25276e-05
0.615854
0.0719458
0.00775864
0.000682614
0.00181914
0.00146546
0.0155613
0.00228105
0.0241002
0.514534
9.47934e-05
9.47934e-05
9.47934e-05
9.47934e-05
9.47934e-05
9.47934e-05
9.47934e-05
9.47934e-05
9.47934e-05
9.47934e-05
0.645033
0.0378314
0.000694502
0.000442635
0.00171789
1.36242
1.06092
0.880922
0.402049
0.0422835
0.0104545
0.00188911
0.00243943
0.000573854
0.00295094
0.0004508
0.00260119
0.00115365
0.00304672
0.0077484
0.024933
0.127823
0.181563
0.232533
0.267505
1.01439
0.655032
1.08891
0.348813
0.00140155
5.95746e-05
0.00045633
0.000173443
8.9161e-05
0.000146226
0.000322044
0.00363663
0.00175033
0.00118928
0.000558677
0.00354154
0.141239
0.129571
0.394568
0.371971
1.15582
0.772739
1.56278
0.371708
0.00838019
0.000908752
0.000104717
0.000116756
6.67047e-05
5.83978e-05
9.66444e-05
0.000492043
0.000264561
0.000324142
0.00023073
0.00602047
0.196551
0.131107
0.513474
0.46652
1.34263
0.834013
1.4791
0.349884
0.014062
8.78954e-05
3.84303e-05
4.36688e-05
4.44004e-05
4.69463e-05
4.24779e-05
4.49881e-05
0.000100468
5.9228e-05
5.42961e-05
0.00263935
0.21884
0.157405
0.322838
0.452312
1.69837
0.988151
0.615161
0.367217
0.0187516
0.000125343
4.78257e-05
4.30264e-05
4.63401e-05
4.78612e-05
4.52459e-05
5.47041e-05
5.25786e-05
5.31651e-05
5.56416e-05
0.00365002
0.270123
0.285052
0.282226
0.354678
1.94941
1.26052
0.619914
0.397605
0.0214657
9.8217e-05
4.03129e-05
4.08185e-05
4.53625e-05
4.68469e-05
4.42656e-05
4.64386e-05
4.62354e-05
4.55547e-05
5.30471e-05
0.00359197
0.303927
0.35615
0.363088
0.352746
1.60852
1.39963
0.952191
0.440585
0.0330401
9.4724e-05
4.27751e-05
4.26803e-05
4.8093e-05
5.10416e-05
4.82495e-05
5.30343e-05
4.92777e-05
4.87709e-05
5.53282e-05
0.00626769
0.294623
0.334738
0.675337
0.369338
1.37015
1.61008
1.69427
0.453576
0.0467039
0.000124899
7.57604e-05
7.89362e-05
0.000104412
0.000133735
0.000123707
0.000147943
0.000126518
0.000118308
0.000149872
0.0160659
0.279724
0.30131
1.048
0.457797
1.45981
2.51173
2.26806
0.479904
0.0823363
0.00366527
0.00265519
0.00246763
0.00298519
0.00353202
0.00350058
0.00382422
0.00428124
0.00421325
0.00461935
0.0382959
0.31894
0.344193
1.15077
0.622258
1.28176
3.82405
1.37256
0.514326
0.367003
2.25276e-05
2.25276e-05
2.25276e-05
2.25276e-05
2.25276e-05
2.25276e-05
2.25276e-05
2.25276e-05
2.25276e-05
2.25276e-05
0.353554
0.364676
0.570809
1.18125
0.626449
1.17505
4.82762
0.257926
0.531147
0.339567
2.25276e-05
2.25276e-05
2.25276e-05
2.25276e-05
2.25276e-05
2.25276e-05
2.25276e-05
2.25276e-05
2.25276e-05
2.25276e-05
0.320955
0.375049
0.888204
1.18137
0.31345
1.23216
4.73661
0.208762
0.614891
0.278688
2.25276e-05
2.25276e-05
2.25276e-05
2.25276e-05
2.25276e-05
2.25276e-05
2.25276e-05
2.25276e-05
2.25276e-05
2.25276e-05
0.296231
0.376966
1.09268
1.14516
0.207158
1.87445
4.34652
0.190431
0.668667
0.232109
2.25276e-05
2.25276e-05
2.25276e-05
2.25276e-05
2.25276e-05
2.25276e-05
2.25276e-05
2.25276e-05
2.25276e-05
2.25276e-05
0.304954
0.37493
0.984477
0.92911
0.22402
2.60877
3.61632
0.191941
0.686104
0.203142
2.25276e-05
2.25276e-05
2.25276e-05
2.25276e-05
2.25276e-05
2.25276e-05
2.25276e-05
2.25276e-05
2.25276e-05
2.25276e-05
0.328827
0.387187
0.805956
0.361524
0.384381
2.98621
2.90108
0.220678
0.686217
0.188542
2.25276e-05
2.25276e-05
2.25276e-05
2.25276e-05
2.25276e-05
2.25276e-05
2.25276e-05
2.25276e-05
2.25276e-05
2.25276e-05
0.353346
0.38886
0.39913
0.0347587
0.443704
1.45699
1.67135
0.231712
0.665052
0.217806
2.25276e-05
2.25276e-05
2.25276e-05
2.25276e-05
2.25276e-05
2.25276e-05
2.25276e-05
2.25276e-05
2.25276e-05
2.25276e-05
0.395513
0.362008
0.135079
0.00987165
0.317518
0.598814
0.51681
0.227201
0.593663
0.312774
2.25276e-05
2.25276e-05
2.25276e-05
2.25276e-05
2.25276e-05
2.25276e-05
2.25276e-05
2.25276e-05
2.25276e-05
2.25276e-05
0.46994
0.29306
0.100512
0.00528928
0.0490651
0.0335526
0.0266542
0.177535
0.400778
0.440376
2.25276e-05
2.25276e-05
2.25276e-05
2.25276e-05
2.25276e-05
2.25276e-05
2.25276e-05
2.25276e-05
2.25276e-05
2.25276e-05
0.568191
0.162408
0.0532413
0.00163449
0.00158767
0.00285883
0.0151333
0.0669156
0.125135
0.523408
2.25276e-05
2.25276e-05
2.25276e-05
2.25276e-05
2.25276e-05
2.25276e-05
2.25276e-05
2.25276e-05
2.25276e-05
2.25276e-05
0.632153
0.0818843
0.00895096
0.000521656
0.000834372
0.00307463
0.0116781
0.00245625
0.0282989
0.521706
9.47934e-05
9.47934e-05
9.47934e-05
9.47934e-05
9.47934e-05
9.47934e-05
9.47934e-05
9.47934e-05
9.47934e-05
9.47934e-05
0.63267
0.0423489
0.000772528
0.00036023
0.000805446
1.36594
1.07132
0.866085
0.391706
0.0414413
0.00994156
0.00177248
0.00275134
0.000681672
0.0029519
0.000429837
0.00223243
0.000911234
0.00266694
0.00789278
0.0253016
0.126678
0.180283
0.231235
0.267873
1.05462
0.662369
0.949884
0.345588
0.00124927
6.74247e-05
0.000578212
0.000161709
8.48669e-05
0.000142585
0.000332748
0.00362784
0.00197365
0.00139257
0.000601294
0.00335048
0.139366
0.122363
0.351259
0.367346
1.23901
0.760865
1.20663
0.369396
0.00777559
0.000887353
0.000119945
0.000114836
6.59661e-05
5.77672e-05
9.53819e-05
0.000474134
0.00026519
0.000200452
0.000205023
0.00557797
0.204569
0.121451
0.431734
0.460964
1.43739
0.813233
1.02793
0.360468
0.0140955
8.21907e-05
3.82902e-05
4.34215e-05
4.40965e-05
4.65911e-05
4.22257e-05
4.43541e-05
8.42151e-05
5.58614e-05
5.36843e-05
0.00263204
0.222893
0.137669
0.304147
0.460706
1.82576
0.938812
0.56841
0.385442
0.0180285
0.000114277
4.75155e-05
4.28337e-05
4.60131e-05
4.74749e-05
4.49739e-05
5.41848e-05
5.21385e-05
5.26647e-05
5.52819e-05
0.00367206
0.256832
0.220471
0.273557
0.374387
2.10134
1.14989
0.610954
0.417864
0.0183572
8.42116e-05
4.01857e-05
4.0681e-05
4.5036e-05
4.64649e-05
4.39887e-05
4.60515e-05
4.58705e-05
4.52175e-05
5.21549e-05
0.00358228
0.284553
0.282768
0.338397
0.368157
1.76923
1.2948
0.846319
0.454956
0.0267351
7.78186e-05
4.23183e-05
4.22254e-05
4.71591e-05
4.96862e-05
4.71574e-05
5.14453e-05
4.80859e-05
4.76757e-05
5.28162e-05
0.00611204