/*--------------------------------*- C++ -*----------------------------------*\
| =========                 |                                                 |
| \\      /  F ield         | OpenFOAM: The Open Source CFD Toolbox           |
|  \\    /   O peration     | Version:  2.3.0                                 |
|   \\  /    A nd           | Web:      www.OpenFOAM.org                      |
|    \\/     M anipulation  |                                                 |
\*---------------------------------------------------------------------------*/
FoamFile
{
    version     2.0;
    format      ascii;
    class       volVectorField;
    location    "2.40001";
    object      U.air;
}
// * * * * * * * * * * * * * * * * * * * * * * * * * * * * * * * * * * * * * //

dimensions      [0 1 -1 0 0 0 0];

internalField   nonuniform List<vector> 
10000
(
(-0.16741 -0.803883 -0.516912)
(0.0385237 -0.806919 -0.508063)
(0.0965156 -0.506324 -0.367456)
(0.0866507 -0.458084 -0.325557)
(0.101629 -0.320383 -0.200625)
(0.0485948 -0.178821 -0.289601)
(0.00372585 -0.0980858 -0.260324)
(0.00274791 -0.0950742 -0.311616)
(-0.00318596 -0.0973151 -0.30229)
(0.0075355 -0.108712 -0.292434)
(-0.0787882 -0.163337 -0.434208)
(-0.259596 -0.421152 -0.381897)
(-0.239132 -0.382612 -0.176216)
(-0.282346 -0.370488 -0.190828)
(-0.289706 -0.36982 -0.127501)
(-0.205652 -0.456214 -0.212218)
(-0.216383 -0.726922 -0.497315)
(-0.15083 -1.13119 -0.807932)
(-0.0481554 -1.3975 -0.968245)
(0.319571 -1.32701 -0.924534)
(0.0049146 -0.857194 -0.0786921)
(-0.0199775 -1.02322 -0.080813)
(0.0342845 -0.656477 -0.0816426)
(0.018071 -0.548135 -0.0669973)
(0.00863695 -0.301994 -0.142462)
(-0.0600142 -0.0440172 -0.659513)
(0.0115183 -0.0494358 -0.523179)
(-0.000406181 -0.0906396 -0.432932)
(0.000204714 -0.0794944 -0.390525)
(0.00143803 -0.0696519 -0.477077)
(-0.0193728 -0.0220438 -1.21443)
(-0.0072409 -0.0114991 -1.26116)
(0.00718327 -0.0664521 -0.203857)
(-0.0053246 -0.0814848 -0.185974)
(0.0101299 -0.113604 -0.127252)
(0.0557984 -0.306428 -0.0724327)
(-0.00407621 -0.696627 -0.0481223)
(0.0033671 -1.20242 -0.0963495)
(-0.0130733 -1.53531 -0.13757)
(0.00392628 -1.52694 -0.160906)
(0.00472717 -0.834959 -0.011958)
(-0.00649584 -1.03355 -0.0105923)
(0.00906494 -0.707049 -0.0472815)
(0.0159638 -0.572791 -0.0224597)
(0.0142837 -0.369042 -0.0728974)
(0.00542237 -0.150004 -0.162137)
(0.00283233 -0.0938618 -0.267066)
(0.000368569 -0.0797522 -0.303782)
(-0.000249764 -0.0857771 -0.285646)
(-0.000674275 -0.0911297 -0.26769)
(-0.000895478 -0.0907618 -0.310702)
(0.00315755 -0.102338 -0.263334)
(0.00126044 -0.0881062 -0.228887)
(-0.000116162 -0.0971393 -0.219449)
(0.0018992 -0.124875 -0.1805)
(-0.00936037 -0.318978 -0.0866029)
(0.0104557 -0.739579 -0.0318528)
(-0.0127851 -1.14838 -0.0281383)
(-0.0150465 -1.55985 -0.0547735)
(-0.00988608 -1.59309 -0.095226)
(0.00395737 -0.800991 -0.00966946)
(-0.0102795 -1.02592 -0.0108492)
(-0.00539914 -0.721671 -0.0486273)
(0.00543014 -0.550152 -0.00343008)
(0.0104437 -0.366437 -0.0604468)
(-0.000889115 -0.131802 -0.18656)
(-3.30432e-05 -0.0780401 -0.313132)
(-0.000185845 -0.0801036 -0.307322)
(2.82853e-05 -0.0826463 -0.297758)
(-9.20673e-05 -0.081872 -0.299387)
(-0.000314994 -0.0680297 -0.354429)
(-0.00042192 -0.0698995 -0.343882)
(0.000462094 -0.077386 -0.337348)
(0.000398068 -0.0812921 -0.314832)
(0.00181885 -0.119663 -0.215196)
(0.00227821 -0.294302 -0.0935645)
(0.0187416 -0.668827 0.00818024)
(-0.0111469 -0.977373 0.00403978)
(0.00113366 -1.46356 -0.0394751)
(-0.0374429 -1.52069 -0.0426304)
(0.000674943 -0.657402 0.00558778)
(-0.0135591 -1.01282 -0.0111038)
(-0.0115503 -0.770046 -0.0507702)
(0.0100213 -0.51577 -0.00953461)
(0.0088725 -0.350408 -0.0564829)
(-0.00288688 -0.129957 -0.189135)
(-0.000421975 -0.0824992 -0.295581)
(-7.89673e-05 -0.0813988 -0.30319)
(-1.18866e-05 -0.083573 -0.291739)
(-4.86454e-05 -0.0863117 -0.287041)
(-5.18545e-05 -0.0782894 -0.311732)
(0.000136707 -0.085915 -0.286631)
(0.00026668 -0.0817469 -0.293992)
(0.000208264 -0.0852392 -0.285814)
(0.00115812 -0.11796 -0.206199)
(0.00439396 -0.282838 -0.101525)
(0.0224296 -0.487455 0.0182487)
(-0.000442456 -1.00714 -0.00548748)
(0.0257161 -1.36628 -0.0330245)
(-0.0133336 -1.44173 -0.0321158)
(0.00330949 -0.40537 0.0329234)
(-0.00948451 -0.969763 -0.00617529)
(-0.00970017 -0.813435 -0.0151329)
(0.0123217 -0.470966 -0.00646041)
(0.00504318 -0.307882 -0.0643068)
(-0.00391362 -0.113806 -0.213848)
(-0.000814245 -0.0818393 -0.297837)
(-0.000132981 -0.0810783 -0.301394)
(5.62125e-05 -0.0846727 -0.292651)
(0.000149558 -0.0843377 -0.287736)
(6.31931e-06 -0.0768319 -0.322632)
(-0.000106246 -0.0806949 -0.299684)
(0.000185483 -0.0815804 -0.301594)
(0.000453847 -0.0831396 -0.292395)
(0.00102045 -0.114803 -0.210055)
(0.00704937 -0.265072 -0.106927)
(0.015872 -0.423966 0.0128177)
(0.00776333 -0.892847 0.0125688)
(0.0268352 -1.26503 -0.0217385)
(-0.030006 -1.31095 -0.0312213)
(0.0025523 -0.334302 0.0323226)
(0.00101733 -0.873609 0.00112868)
(-0.0084614 -0.823079 -0.00165897)
(0.00606019 -0.3555 -0.000438527)
(0.000336735 -0.256871 -0.0794564)
(-0.00293076 -0.107467 -0.22535)
(-0.000897387 -0.0849966 -0.289561)
(6.19921e-05 -0.0828306 -0.291547)
(5.85142e-05 -0.085073 -0.284018)
(0.000214891 -0.0868545 -0.280898)
(-1.581e-05 -0.0760449 -0.313905)
(-7.95071e-05 -0.0848929 -0.288973)
(0.000377341 -0.0826322 -0.29182)
(0.000477328 -0.0844209 -0.292514)
(0.00107564 -0.114282 -0.213092)
(0.00242571 -0.256701 -0.101935)
(-0.00423852 -0.412124 0.0104128)
(0.0192814 -0.992549 0.020249)
(0.0294978 -1.22849 -0.0385014)
(-0.0332183 -1.26918 -0.0347983)
(0.0022474 -0.500776 -0.00939079)
(0.0103035 -0.98076 0.000388666)
(-0.00456272 -0.834578 -0.00485654)
(0.00147705 -0.319742 0.000489062)
(0.0012707 -0.20945 -0.0780997)
(-0.000554836 -0.100216 -0.23253)
(-0.000484191 -0.08811 -0.267844)
(0.00035436 -0.0846882 -0.274293)
(2.29903e-05 -0.087301 -0.266371)
(0.000293781 -0.0867589 -0.270241)
(-6.82713e-05 -0.0772284 -0.306168)
(-0.000141544 -0.0834584 -0.279857)
(-0.000109153 -0.0836873 -0.282152)
(9.30885e-07 -0.080671 -0.286267)
(-0.000866463 -0.110208 -0.211401)
(-0.00396967 -0.22607 -0.0912086)
(-0.0111274 -0.442904 0.00347292)
(0.00110445 -1.27583 -0.00456978)
(0.0214406 -1.14895 0.00136426)
(-0.0163705 -1.24186 -0.027355)
(-0.00571756 -0.778582 -0.0331007)
(0.00752473 -1.00841 -0.004145)
(0.00156976 -0.840415 -0.00460877)
(0.00778191 -0.406077 -0.000662387)
(-0.00172115 -0.143584 -0.0437376)
(-0.00098518 -0.0664312 -0.193931)
(0.000288834 -0.0667889 -0.184789)
(0.000662069 -0.0613832 -0.19893)
(-0.000875558 -0.0651077 -0.185102)
(0.00119226 -0.0637654 -0.189452)
(-8.14635e-05 -0.0559883 -0.227732)
(-0.00113981 -0.061864 -0.203449)
(5.3143e-05 -0.0599285 -0.214733)
(-0.000686551 -0.0605775 -0.223997)
(-3.00255e-05 -0.0766158 -0.161926)
(-0.00414547 -0.169835 -0.0471889)
(-0.00778118 -0.506122 0.00284351)
(-0.00958548 -1.29667 -0.0270878)
(0.0129279 -1.10697 0.0206927)
(-0.00724263 -1.14678 0.00268794)
(-0.00513995 -0.865345 -0.0247517)
(0.00372711 -1.04463 -0.00977151)
(0.000765939 -0.838686 -0.00396519)
(0.0119591 -0.440878 -0.00221137)
(0.00454597 -0.0505243 0.0124106)
(-0.000469697 -0.0293999 0.00292486)
(0.000242921 -0.0323296 0.00397169)
(0.000162791 -0.0207159 0.00341889)
(0.000178557 -0.0262171 0.00413577)
(-7.51101e-05 -0.0255886 0.00390555)
(-0.000132458 -0.0150947 0.00339579)
(-0.000112448 -0.0263863 0.00326823)
(-2.13648e-05 -0.0259288 0.003042)
(-0.000216759 -0.0258048 0.00309275)
(-0.000388914 -0.0381792 0.00343603)
(-0.00484936 -0.0687578 0.0104136)
(-0.00329073 -0.565899 0.00256285)
(-0.00668224 -1.28263 -0.0398393)
(0.000783625 -1.07051 0.026805)
(-0.0114018 -1.06493 0.0301)
(-0.00192178 -0.865195 -0.0202532)
(-0.00905031 -1.00151 -0.0110201)
(-0.00829881 -0.839739 -0.00635707)
(0.00557034 -0.435277 -0.00682739)
(0.00414316 -0.0486903 0.00228723)
(-0.000799988 -0.0451295 -0.00037421)
(-0.000377695 -0.0386706 -0.000837361)
(-0.000168264 -0.0371741 -0.00154735)
(-0.000167016 -0.034782 -0.00216762)
(5.27545e-05 -0.0348189 -0.00254055)
(-6.47062e-05 -0.0314736 -0.00157916)
(-0.000127448 -0.0393234 -0.00358864)
(7.4478e-05 -0.0397235 -0.00357373)
(0.000179414 -0.0388031 -0.00284923)
(0.000676446 -0.0500763 -0.00253458)
(-0.00283386 -0.104496 0.000458497)
(0.00181006 -0.613061 -0.0083381)
(-0.0010377 -1.22385 -0.0318216)
(-0.00613023 -0.960024 0.0414)
(-0.0136045 -1.0616 0.0280223)
(0.000104201 -0.798075 -0.0101554)
(-0.0110036 -0.936742 0.000427663)
(-0.0079507 -0.860325 -0.00658399)
(0.00213231 -0.429908 -0.0103069)
(0.0026051 -0.0385764 0.00107231)
(-0.000282444 -0.0338454 0.000709697)
(-0.000242357 -0.0516083 -0.00133494)
(-0.000162546 -0.0446766 -0.000458222)
(-0.000242953 -0.0568278 -0.00250317)
(-0.000420584 -0.0597357 -0.00299628)
(-2.84267e-05 -0.0390804 -0.00190309)
(0.000393199 -0.07123 -0.00393506)
(0.000176174 -0.0710672 -0.00369127)
(0.00033604 -0.0644999 -0.00284493)
(0.000422575 -0.0703216 -0.00175812)
(0.00109507 -0.0838913 0.000489835)
(0.0049169 -0.579836 -0.0117303)
(-0.0210784 -1.15932 -0.0209145)
(-0.00885014 -0.974256 0.0264627)
(-0.0121782 -1.1115 0.0157696)
(-0.000702765 -0.581418 0.0114156)
(-0.0072034 -0.993709 0.000735193)
(0.00264984 -0.875854 -0.00489377)
(0.000591432 -0.434649 -0.0102015)
(0.00183587 -0.035682 0.000329614)
(0.000283403 -0.0317554 0.000342825)
(0.000273699 -0.0422771 0.000667475)
(-2.24807e-05 -0.0379821 0.00047366)
(3.99446e-05 -0.0479397 0.000673072)
(-0.000507622 -0.0518599 0.000444971)
(-5.50457e-05 -0.0533975 -0.00104458)
(0.000398044 -0.060928 -4.57535e-05)
(0.000245369 -0.0592994 0.000316984)
(0.000282476 -0.0531119 0.000871508)
(-0.000339088 -0.0528521 0.00170518)
(0.00191844 -0.0738663 0.00257602)
(0.0112143 -0.532985 -0.00132236)
(-0.0327193 -1.08921 -0.0114778)
(-0.0158715 -1.08981 0.0133061)
(0.0190379 -1.11569 0.0255264)
(0.00035614 -0.524497 0.0181929)
(-0.000326551 -1.06074 -0.00706846)
(0.00304458 -0.88169 -0.00570764)
(6.03724e-06 -0.442072 -0.00754639)
(0.00136209 -0.0347124 0.000140266)
(6.93843e-05 -0.0296578 0.000234023)
(4.62931e-05 -0.0407868 0.000512593)
(8.4715e-05 -0.035675 0.000542608)
(9.86211e-05 -0.0447246 0.000960455)
(0.000128948 -0.0488129 0.0011184)
(-0.000103988 -0.0452669 0.000490111)
(-0.000328609 -0.0603202 0.000856481)
(9.10992e-05 -0.0578982 0.000733702)
(-0.000435073 -0.0491066 0.00115983)
(-8.35433e-05 -0.0498914 0.000586609)
(0.000450439 -0.0689914 0.00367432)
(0.0158492 -0.446335 0.00311711)
(-0.00859674 -1.01703 -0.00790677)
(-0.0185837 -1.21572 -0.00135023)
(0.0235367 -1.12331 0.0249712)
(4.13036e-06 -0.583069 0.00466179)
(0.00594986 -1.06926 -0.0136008)
(-0.00517833 -0.892301 -0.00901241)
(-0.00244569 -0.447935 -0.00737459)
(0.000801022 -0.0341367 0.000312932)
(1.61898e-05 -0.0284528 0.000139563)
(5.14236e-05 -0.0383861 0.000463975)
(5.13235e-05 -0.033279 0.000421535)
(0.000118779 -0.0409953 0.000706715)
(-1.21723e-05 -0.0437147 0.000986613)
(-2.22386e-05 -0.0420442 0.00081714)
(-6.06974e-05 -0.0551893 0.00128504)
(-0.000636588 -0.0546532 0.00076419)
(-0.00051249 -0.0452639 0.000526403)
(5.2736e-05 -0.0562736 -1.29231e-05)
(-0.00149918 -0.0725812 0.000863085)
(0.010686 -0.445762 0.00319055)
(-0.00316247 -0.936466 0.00632688)
(-0.00160128 -1.09624 0.0124517)
(0.0182979 -1.11795 0.0198487)
(-0.00134181 -0.697634 -0.00648348)
(0.00346748 -1.07671 -0.0115751)
(-0.0055321 -0.911923 -0.0101943)
(-0.00651525 -0.455464 -0.00911532)
(0.000414517 -0.0338681 0.000615298)
(-0.000103039 -0.0277755 6.4907e-05)
(3.5735e-05 -0.037046 0.000301909)
(5.76145e-06 -0.0318677 0.000248116)
(4.75132e-05 -0.0392503 0.000333968)
(6.55121e-05 -0.0414285 0.000472414)
(6.97379e-05 -0.0385504 0.000662169)
(-6.27751e-05 -0.0514756 0.00100846)
(-0.000748577 -0.0524228 0.000644795)
(-0.000162053 -0.0510892 -0.00073027)
(0.000122968 -0.0545387 -0.000121271)
(0.000642268 -0.101773 -0.00305944)
(-0.0132729 -0.423858 0.00373329)
(-0.00513214 -0.924229 0.00882808)
(0.0069196 -1.026 0.0216531)
(0.0240113 -1.11256 0.0155687)
(-0.000105612 -0.680616 -0.00599522)
(-0.00274502 -1.07917 -0.00502491)
(-0.00455584 -0.936783 -0.00830687)
(-0.0114983 -0.471165 -0.00947705)
(0.000154278 -0.034129 0.00107541)
(-0.000215007 -0.0276671 0.000100599)
(1.48391e-05 -0.0359716 0.000236376)
(-3.5848e-05 -0.0309916 0.000134675)
(1.84153e-05 -0.0384125 0.000103655)
(0.000116758 -0.040108 0.00023109)
(0.000163665 -0.0362031 0.000620354)
(-2.02549e-05 -0.0477407 0.00115654)
(-0.000143851 -0.0501613 0.000722556)
(-0.00028018 -0.0579285 -0.000960316)
(0.000109667 -0.0582354 -0.00130505)
(0.00121081 -0.0994339 0.000154418)
(-0.00549228 -0.383783 0.00798301)
(-0.0058557 -0.995276 -0.01041)
(-0.00650065 -0.996035 0.00394017)
(0.0187309 -1.01071 0.0158107)
(0.00445736 -0.483292 0.00368961)
(-0.00323655 -1.07762 -0.0036917)
(-0.00221828 -0.94828 -0.00501837)
(-0.011149 -0.503019 -0.00738234)
(0.000509807 -0.0336582 0.000899366)
(0.000258504 -0.0268394 7.68458e-05)
(0.000243257 -0.0350398 0.00131816)
(-3.33492e-05 -0.0305857 8.72029e-05)
(0.0001779 -0.0382803 0.00120609)
(-0.00026282 -0.0393809 0.00143439)
(-0.000156444 -0.0327889 0.000738273)
(-0.000125373 -0.0427579 0.00193517)
(-0.00012537 -0.0473543 0.00107783)
(-0.000152876 -0.0603087 -3.15858e-06)
(0.000416899 -0.0691132 -0.00233353)
(0.000338653 -0.075168 0.00230867)
(0.00362443 -0.315135 0.00957915)
(-0.00190776 -0.765087 -0.000494408)
(-0.00760102 -0.840283 0.0139205)
(0.0114401 -0.867127 0.00984985)
(0.00390046 -0.365945 0.00597896)
(6.80412e-05 -1.07917 -0.00231335)
(-6.52925e-05 -0.952002 -0.00212017)
(-0.00267431 -0.532409 -0.0043777)
(-0.00105025 -0.0379128 -0.000278473)
(6.94522e-05 -0.0289309 -0.000417515)
(0.00010025 -0.0276624 0.00123335)
(0.00017252 -0.03011 6.01036e-05)
(0.000226609 -0.0315982 0.00128403)
(-0.000351563 -0.031305 0.00171744)
(-0.000367192 -0.0319426 -0.000125133)
(-0.000188711 -0.040462 -0.000596342)
(-9.73284e-07 -0.0535171 -0.00358401)
(0.00049574 -0.0681897 -0.00631632)
(0.000714855 -0.0954931 -0.00906251)
(0.000201415 -0.0930857 -0.0010964)
(-0.00230312 -0.205916 0.00751608)
(5.19162e-05 -0.469573 0.00870258)
(0.0034038 -0.466616 0.0194748)
(0.00538372 -0.492928 0.0149544)
(0.00249081 -0.191928 0.001685)
(0.000275999 -1.1075 -0.000326013)
(0.000249057 -0.969714 -0.000815843)
(-0.000773586 -0.547898 -0.00233961)
(-0.0090322 -0.0431328 -0.000267871)
(-0.000519317 -0.0316861 0.000361049)
(-0.000268901 -0.0301989 -6.18884e-06)
(-9.24229e-05 -0.0299533 0.000108193)
(7.14738e-05 -0.0307977 0.000196769)
(0.00027154 -0.0280429 0.000490036)
(0.000652642 -0.0374317 -0.000486486)
(0.000604221 -0.0618039 -0.00195844)
(0.000627354 -0.102433 -0.00441268)
(0.000695612 -0.14861 -0.00683358)
(0.000470999 -0.198554 -0.00783933)
(0.00182994 -0.109278 -0.00184564)
(-0.00108339 -0.10381 0.00283067)
(-0.000227699 -0.321754 -0.000917082)
(0.000338773 -0.264834 0.00590709)
(0.00212758 -0.250129 0.00747739)
(-0.184853 -0.79875 -0.438917)
(0.0432361 -0.795611 -0.420771)
(0.101504 -0.499179 -0.29739)
(0.0906136 -0.452712 -0.264417)
(0.108192 -0.317434 -0.165954)
(0.0517487 -0.177895 -0.273308)
(0.0044583 -0.0943764 -0.250105)
(0.0136772 -0.100607 -0.302224)
(-0.00174899 -0.0961447 -0.287325)
(0.0112265 -0.104173 -0.279185)
(-0.0810035 -0.160798 -0.412249)
(-0.269157 -0.420461 -0.35536)
(-0.247943 -0.381783 -0.15673)
(-0.290642 -0.367379 -0.164985)
(-0.297837 -0.371433 -0.109589)
(-0.222552 -0.456816 -0.173526)
(-0.23275 -0.721747 -0.417472)
(-0.167647 -1.11736 -0.688208)
(-0.0520525 -1.38687 -0.820983)
(0.344734 -1.31427 -0.751959)
(0.00236669 -0.85977 -0.0762362)
(-0.0206142 -1.01577 -0.0726338)
(0.0351046 -0.650581 -0.0754298)
(0.018627 -0.543125 -0.0588788)
(0.00951295 -0.292324 -0.135789)
(-0.060362 -0.0402767 -0.660427)
(0.0114406 -0.0458262 -0.526517)
(-0.000333629 -0.0901449 -0.433041)
(3.09437e-05 -0.076185 -0.391435)
(0.00139592 -0.0662582 -0.477065)
(-0.0197456 -0.0212751 -1.21826)
(-0.00849955 0.001196 -1.2724)
(0.0117931 -0.0491182 -0.21398)
(-0.00466148 -0.0659127 -0.195872)
(0.0134417 -0.105207 -0.138321)
(0.0637772 -0.296835 -0.0789164)
(-0.00644831 -0.692012 -0.0446713)
(0.000643625 -1.19421 -0.0948804)
(-0.0134865 -1.53063 -0.131942)
(0.00452879 -1.51781 -0.153106)
(0.00359469 -0.849115 -0.0138645)
(-0.0068544 -1.04032 -0.010984)
(0.00914351 -0.705679 -0.0460817)
(0.0162606 -0.570234 -0.0227909)
(0.0140855 -0.362189 -0.0696533)
(0.00548327 -0.144909 -0.156971)
(0.00274745 -0.0882478 -0.265339)
(0.000380052 -0.0744781 -0.304159)
(-0.000245869 -0.0803109 -0.285371)
(-0.000654149 -0.085213 -0.266998)
(-0.000867387 -0.0868782 -0.308484)
(0.00318441 -0.098572 -0.260608)
(0.00134636 -0.0809035 -0.228698)
(-0.000237513 -0.089481 -0.220012)
(0.00154535 -0.115389 -0.180109)
(-0.0104564 -0.311493 -0.0878201)
(0.0103845 -0.745923 -0.0331719)
(-0.0113947 -1.17392 -0.0277587)
(-0.015242 -1.57104 -0.0577151)
(-0.00972093 -1.5962 -0.0958918)
(0.00400018 -0.826382 -0.0130404)
(-0.0105966 -1.0381 -0.0112939)
(-0.0054219 -0.720592 -0.0470496)
(0.00597744 -0.549017 -0.00625681)
(0.0102868 -0.360121 -0.0610454)
(-0.00104832 -0.122423 -0.187046)
(-5.28591e-05 -0.0728428 -0.313748)
(-0.000188728 -0.0749228 -0.30724)
(1.8247e-05 -0.0772838 -0.297876)
(-0.000102626 -0.0764607 -0.299617)
(-0.000238948 -0.0634351 -0.355058)
(-0.000416786 -0.0650771 -0.344678)
(0.000387808 -0.0724573 -0.337776)
(0.000445634 -0.0760836 -0.315598)
(0.00204193 -0.111868 -0.215646)
(0.00256258 -0.283204 -0.0961667)
(0.0194982 -0.691276 -0.00744615)
(-0.0111427 -1.027 0.000247001)
(0.00170875 -1.48734 -0.0458102)
(-0.0363905 -1.52936 -0.0463253)
(0.00123864 -0.745147 -0.00693727)
(-0.0133684 -1.02662 -0.0127361)
(-0.0111378 -0.769141 -0.0484258)
(0.0107341 -0.51487 -0.0134671)
(0.00862122 -0.344733 -0.0586103)
(-0.00301144 -0.121077 -0.189534)
(-0.000444624 -0.0771736 -0.29553)
(-8.40456e-05 -0.0761153 -0.30316)
(-1.33356e-05 -0.0781338 -0.291636)
(-4.87791e-05 -0.0807637 -0.286909)
(-4.96168e-05 -0.0732299 -0.311287)
(0.000140648 -0.0805669 -0.286087)
(0.000272174 -0.0764369 -0.293779)
(0.000254031 -0.0797364 -0.285761)
(0.00131911 -0.110098 -0.206654)
(0.00417266 -0.267276 -0.104144)
(0.0228752 -0.55279 -0.00323268)
(0.000891758 -1.02374 -0.00732557)
(0.025245 -1.3835 -0.0397296)
(-0.0127121 -1.45354 -0.0376881)
(0.00331826 -0.510437 0.0217153)
(-0.00843257 -0.995855 -0.00578325)
(-0.00965934 -0.812499 -0.0140525)
(0.0127189 -0.476327 -0.011754)
(0.00491721 -0.301372 -0.0678501)
(-0.00398152 -0.106192 -0.214687)
(-0.000842835 -0.0765126 -0.297903)
(-0.000137249 -0.0758189 -0.301363)
(5.57448e-05 -0.0792129 -0.292587)
(0.000149405 -0.0788541 -0.287705)
(1.15513e-05 -0.0718376 -0.322735)
(-0.000104429 -0.0754111 -0.299744)
(0.000180166 -0.0762948 -0.301576)
(0.000463785 -0.0777001 -0.292482)
(0.00127274 -0.107244 -0.210631)
(0.00620922 -0.250538 -0.109074)
(0.0148468 -0.47569 0.00739818)
(0.0093401 -0.942688 0.0165114)
(0.026117 -1.27885 -0.025227)
(-0.028286 -1.32403 -0.0350905)
(0.00253209 -0.427593 0.033363)
(0.00178905 -0.94119 0.0016308)
(-0.00867402 -0.82252 -0.00104398)
(0.00780873 -0.393235 -0.00486786)
(0.000998843 -0.249164 -0.0835312)
(-0.00309499 -0.100405 -0.225996)
(-0.000924411 -0.0794004 -0.289385)
(5.45316e-05 -0.0773752 -0.291407)
(5.75588e-05 -0.0794196 -0.28388)
(0.000214981 -0.081092 -0.280768)
(-1.4162e-05 -0.0710044 -0.313867)
(-7.74242e-05 -0.0793157 -0.288849)
(0.00037863 -0.0771858 -0.291738)
(0.00045362 -0.0789348 -0.292679)
(0.00120382 -0.106901 -0.213458)
(0.00144487 -0.245487 -0.103523)
(-0.00754924 -0.459728 0.0104057)
(0.0216549 -1.05675 0.0243052)
(0.0291451 -1.2417 -0.0304274)
(-0.0329531 -1.28138 -0.0350066)
(0.00247047 -0.526066 0.00655463)
(0.010001 -0.990685 0.00225414)
(-0.00525554 -0.833616 -0.00374253)
(0.00306903 -0.352677 0.000781737)
(0.00279279 -0.204483 -0.0830606)
(-0.000588622 -0.0937072 -0.234769)
(-0.000497541 -0.0822992 -0.268958)
(0.000342074 -0.0789474 -0.275584)
(3.60431e-05 -0.0815598 -0.267495)
(0.000271522 -0.0810593 -0.271554)
(-6.81602e-05 -0.0720039 -0.307314)
(-0.000122252 -0.077878 -0.281187)
(-0.000112803 -0.0780585 -0.283494)
(-1.5382e-05 -0.0752301 -0.287584)
(-0.000959245 -0.103227 -0.213351)
(-0.00543399 -0.219443 -0.0946244)
(-0.0133059 -0.483548 0.00680594)
(0.000644673 -1.29253 -0.00124793)
(0.0222848 -1.18248 0.00392386)
(-0.0184234 -1.25593 -0.0197121)
(-0.00575459 -0.792026 -0.0189353)
(0.00755116 -1.02276 -0.00176535)
(0.00126895 -0.83928 -0.00441053)
(0.00743243 -0.408727 0.00292917)
(-0.000722806 -0.141243 -0.0504744)
(-0.000946979 -0.0604836 -0.196868)
(0.000290706 -0.0608982 -0.187178)
(0.000649885 -0.0556419 -0.201505)
(-0.000891638 -0.0593959 -0.187764)
(0.00118674 -0.058058 -0.192105)
(-8.14069e-05 -0.0507349 -0.230136)
(-0.00113678 -0.0562134 -0.205841)
(4.49465e-05 -0.0544356 -0.217109)
(-0.000684815 -0.0552098 -0.226196)
(-9.54924e-05 -0.0702145 -0.164731)
(-0.00453954 -0.16781 -0.0536044)
(-0.00814019 -0.54462 0.00788131)
(-0.0112739 -1.32062 -0.028097)
(0.012443 -1.15795 0.0176922)
(-0.00771633 -1.18601 0.00448316)
(-0.00531909 -0.884397 -0.021424)
(0.00356705 -1.06415 -0.0108148)
(0.000814743 -0.838165 -0.00424616)
(0.0112211 -0.440123 -0.00139392)
(0.00585396 -0.0651443 0.00960038)
(-0.000330242 -0.0327205 0.00238041)
(0.000243431 -0.0366136 0.00302265)
(0.00016579 -0.0236342 0.00262691)
(0.00017688 -0.0299638 0.00319943)
(-6.49539e-05 -0.0293688 0.00300787)
(-0.00012054 -0.0184167 0.0026188)
(-0.000104274 -0.0304314 0.00255296)
(-1.86097e-05 -0.0301612 0.00242061)
(-0.000236091 -0.0302476 0.00242057)
(-0.00052473 -0.0424756 0.00274059)
(-0.00750058 -0.105386 0.00839719)
(-0.00273204 -0.594348 0.00371787)
(-0.00656192 -1.30906 -0.0428622)
(-0.000867385 -1.12897 0.0219736)
(-0.0105401 -1.11882 0.0288208)
(-0.00198263 -0.888456 -0.0225759)
(-0.00801726 -1.02875 -0.0120112)
(-0.00816962 -0.839284 -0.00613482)
(0.00526708 -0.43466 -0.00754238)
(0.0038798 -0.0471477 0.00204512)
(-0.000757698 -0.0415425 -5.12657e-05)
(-0.000347873 -0.0355768 -0.000326607)
(-0.000154784 -0.0341871 -0.000846491)
(-0.000153151 -0.0319946 -0.00128271)
(4.98072e-05 -0.0320236 -0.00153472)
(-5.71089e-05 -0.0289617 -0.000868214)
(-0.000116153 -0.036131 -0.00221912)
(6.77533e-05 -0.0364991 -0.00219827)
(0.000162691 -0.0356699 -0.00169878)
(0.000633228 -0.0460146 -0.00146935)
(-0.0032789 -0.109075 0.00085818)
(0.00131803 -0.616595 -0.0111473)
(-0.00096566 -1.249 -0.0363391)
(-0.00808322 -1.03124 0.0385039)
(-0.0124347 -1.11496 0.0294581)
(-1.33026e-05 -0.830064 -0.016578)
(-0.0114941 -0.990331 0.000284602)
(-0.00801971 -0.858237 -0.00571816)
(0.00200322 -0.4294 -0.0106508)
(0.00229076 -0.0367166 0.000779341)
(-0.000243293 -0.0331622 0.000490768)
(-0.000225209 -0.0486945 -0.00106197)
(-0.00014835 -0.0410757 -0.000303216)
(-0.000229716 -0.0535704 -0.00187836)
(-0.000392827 -0.0563002 -0.00224023)
(-2.73853e-05 -0.0358926 -0.00119109)
(0.000363621 -0.0671049 -0.00297664)
(0.000166362 -0.0669458 -0.00280308)
(0.00031239 -0.0607661 -0.0021747)
(0.000365959 -0.0663008 -0.00149109)
(0.00104458 -0.0981518 -0.0010777)
(0.00452761 -0.587737 -0.0137072)
(-0.0215548 -1.17816 -0.0252886)
(-0.0102597 -1.03434 0.0300993)
(-0.010786 -1.15777 0.0171862)
(-0.000506342 -0.64798 0.00457315)
(-0.00709807 -1.0095 0.00287513)
(0.00238229 -0.874159 -0.00429895)
(0.000558575 -0.434208 -0.00982183)
(0.00156081 -0.0337877 0.000237458)
(0.000268883 -0.0308827 0.000261395)
(0.000273755 -0.0426953 0.00046122)
(-2.55685e-05 -0.0377903 0.000280475)
(3.92418e-05 -0.0492878 0.00042051)
(-0.000491628 -0.0539359 0.000196616)
(-5.52005e-05 -0.0490843 -0.000716307)
(0.000379236 -0.0655669 -0.000301761)
(0.000256948 -0.0634868 -6.24323e-05)
(0.000286474 -0.0556647 0.000504127)
(-0.000395841 -0.0553594 0.00111473)
(0.00235954 -0.0948535 0.00139413)
(0.0110209 -0.550404 -0.00319673)
(-0.033218 -1.10395 -0.0153693)
(-0.0173286 -1.13762 0.0123928)
(0.0205774 -1.17131 0.024497)
(1.2754e-05 -0.58668 0.0184618)
(0.00110399 -1.0738 -0.00355688)
(0.00287927 -0.881139 -0.00512352)
(9.22068e-06 -0.441545 -0.00710103)
(0.00115534 -0.032824 0.000100042)
(5.78359e-05 -0.0287 0.000177344)
(4.0173e-05 -0.0409507 0.000384352)
(7.69953e-05 -0.0351901 0.000379832)
(9.09935e-05 -0.0454328 0.000729112)
(0.000138719 -0.0502903 0.000847423)
(-0.000105215 -0.0463752 0.000209832)
(-0.000354808 -0.0652389 0.000629298)
(9.81897e-05 -0.061464 0.000565637)
(-0.000444964 -0.0504322 0.000918125)
(-0.000129999 -0.050811 0.00048986)
(0.000329688 -0.0898625 0.0027381)
(0.0171495 -0.494991 0.00169489)
(-0.00876867 -1.03594 -0.00533795)
(-0.0187705 -1.23464 -0.00200584)
(0.0241924 -1.18196 0.0230992)
(0.000379229 -0.62731 0.00732558)
(0.00843055 -1.08111 -0.0124927)
(-0.00500365 -0.891569 -0.00768237)
(-0.00229923 -0.447373 -0.00714785)
(0.000630179 -0.0322817 0.000211711)
(1.02412e-05 -0.0274524 0.000106384)
(4.56947e-05 -0.0383407 0.000344351)
(4.68321e-05 -0.0325892 0.000293117)
(0.000110601 -0.0411861 0.000533815)
(-1.56783e-05 -0.0442726 0.000751903)
(-2.7369e-05 -0.0424654 0.000578007)
(-6.1162e-05 -0.0584286 0.000994844)
(-0.000665031 -0.0572807 0.000593585)
(-0.000503701 -0.0455602 0.000400419)
(6.16031e-05 -0.0531152 5.81539e-05)
(-0.0017334 -0.0815485 0.00140409)
(0.010854 -0.497555 0.00234841)
(-0.00346881 -0.983211 0.00740571)
(-0.00203597 -1.15039 0.0116231)
(0.0192176 -1.17823 0.0176778)
(-0.00122193 -0.718109 -0.00597825)
(0.00564597 -1.08858 -0.0109301)
(-0.0052848 -0.910458 -0.00824387)
(-0.0061118 -0.454791 -0.00858409)
(0.000238131 -0.0320902 0.000406135)
(-9.64457e-05 -0.0267615 5.07648e-05)
(3.21084e-05 -0.0368756 0.000221832)
(5.2814e-06 -0.0310666 0.000172892)
(4.40518e-05 -0.0392202 0.000250007)
(5.90599e-05 -0.0416183 0.000355513)
(6.18935e-05 -0.0384184 0.000465751)
(-6.32883e-05 -0.0535005 0.000780795)
(-0.000755203 -0.0543742 0.000497919)
(-0.000152541 -0.0481873 -0.000470994)
(0.000129752 -0.0514119 -7.63791e-05)
(0.000548891 -0.0945208 -0.00140825)
(-0.0144677 -0.475791 0.00174098)
(-0.00638244 -0.987408 0.00371677)
(0.00680528 -1.09909 0.0154683)
(0.0256623 -1.17665 0.00985282)
(0.000122678 -0.715988 -0.0118866)
(-0.00102719 -1.09219 -0.00475441)
(-0.00465785 -0.934064 -0.00651416)
(-0.0107051 -0.469818 -0.00814293)
(-2.09001e-05 -0.0325026 0.000700403)
(-0.000195062 -0.0266648 7.45279e-05)
(1.39516e-05 -0.0357569 0.000161329)
(-3.31041e-05 -0.0301359 9.26198e-05)
(1.60418e-05 -0.0383206 6.03486e-05)
(0.000108246 -0.0401816 0.000151912)
(0.000150241 -0.0358035 0.000434141)
(-2.0808e-05 -0.0490492 0.000876457)
(-0.000115394 -0.0516023 0.000569489)
(-0.000263347 -0.0545973 -0.000654654)
(0.00010098 -0.0548617 -0.00086787)
(0.000980717 -0.0975026 -0.00042984)
(-0.00580978 -0.444253 0.00396455)
(-0.00646645 -1.02742 -0.0177493)
(-0.00781273 -1.06608 -0.00518906)
(0.0202845 -1.09405 0.00435676)
(0.00465343 -0.571888 -0.00626412)
(-0.00124138 -1.09115 -0.00337805)
(-0.00232072 -0.945564 -0.00404199)
(-0.0101606 -0.497789 -0.00539321)
(0.000342145 -0.0322204 0.000503872)
(0.000250951 -0.0258002 2.58553e-05)
(0.000246382 -0.0349213 0.0010334)
(-3.15474e-05 -0.0297163 5.85344e-05)
(0.000155265 -0.038419 0.000950908)
(-0.00026392 -0.0396768 0.00111756)
(-0.000162683 -0.0320501 0.000462041)
(-0.000123037 -0.0432526 0.00152008)
(-7.78103e-05 -0.0479977 0.00100694)
(-0.000116318 -0.0568625 0.000361315)
(0.000377603 -0.0649038 -0.00104736)
(-0.000269059 -0.0831975 0.00174655)
(0.00276001 -0.396942 0.00237766)
(-0.00264083 -0.842767 -0.0139044)
(-0.00806387 -0.949664 -0.00747921)
(0.0136313 -0.976121 -0.0115143)
(0.00306187 -0.492504 -0.00596863)
(0.00154539 -1.09242 -0.00200502)
(-3.0895e-05 -0.949453 -0.00186806)
(-0.0029085 -0.518627 -0.0026569)
(-0.000965198 -0.0349178 -0.00017053)
(6.48292e-05 -0.0266375 -0.000297428)
(8.99964e-05 -0.0267057 0.000924514)
(0.000171993 -0.0292304 3.47156e-05)
(0.000197578 -0.0309015 0.00102066)
(-0.000325105 -0.030639 0.00133942)
(-0.000332848 -0.0293857 -5.39881e-05)
(-0.000158285 -0.0371746 -6.97076e-05)
(2.5715e-05 -0.0489825 -0.00186151)
(0.00048112 -0.0620675 -0.00332347)
(0.000633241 -0.0858642 -0.00454932)
(-0.000175346 -0.0850845 0.000211343)
(-0.00526476 -0.34186 -0.00135716)
(-0.00123438 -0.657744 -0.0131288)
(0.00315615 -0.681658 -0.0068941)
(0.00836056 -0.705868 -0.0137364)
(0.00145566 -0.4589 -0.00716883)
(0.000622137 -1.12187 -0.000153545)
(0.000193822 -0.967299 -0.000747929)
(-0.00139897 -0.532325 -0.00138377)
(-0.00830271 -0.0396796 -0.000110441)
(-0.000518821 -0.0309369 9.54971e-05)
(-0.000252106 -0.0277952 -1.85351e-05)
(-0.000100724 -0.0291144 -4.91961e-05)
(6.2818e-05 -0.0299888 -1.67069e-06)
(0.000284961 -0.0270407 0.000188398)
(0.000611199 -0.0344055 -0.000312168)
(0.000552198 -0.0566978 -0.00119504)
(0.000561053 -0.0930788 -0.00251904)
(0.000603997 -0.130437 -0.00343689)
(0.000410746 -0.16664 -0.00341053)
(0.00198767 -0.099994 -0.0011506)
(-0.00304543 -0.333486 -0.00206958)
(-0.000861172 -0.610199 -0.0099721)
(0.000177207 -0.576396 -0.00506082)
(0.00376805 -0.578733 -0.00560492)
(-0.198961 -0.795189 -0.397601)
(0.0485985 -0.784249 -0.374028)
(0.107396 -0.4906 -0.260424)
(0.0944307 -0.446483 -0.231812)
(0.11483 -0.314497 -0.148601)
(0.0533614 -0.176374 -0.268385)
(0.0049707 -0.0917262 -0.247488)
(0.0135535 -0.0995853 -0.293907)
(-0.00472342 -0.0942945 -0.281189)
(0.0117253 -0.101363 -0.275268)
(-0.0848639 -0.15814 -0.402668)
(-0.274786 -0.419062 -0.340751)
(-0.252595 -0.38029 -0.144541)
(-0.300604 -0.363996 -0.148603)
(-0.309797 -0.369235 -0.101027)
(-0.242343 -0.457987 -0.1537)
(-0.248868 -0.717526 -0.375454)
(-0.180145 -1.10692 -0.628845)
(-0.0528704 -1.37882 -0.749007)
(0.366219 -1.3018 -0.67114)
(-0.00123399 -0.869478 -0.073028)
(-0.021309 -1.01479 -0.0660304)
(0.0364124 -0.645707 -0.0699583)
(0.019418 -0.536629 -0.0535894)
(0.0085483 -0.283319 -0.132966)
(-0.0599697 -0.0387128 -0.66074)
(0.0111826 -0.0441275 -0.527358)
(-0.000346284 -0.0891063 -0.433311)
(-2.36632e-05 -0.0746839 -0.391685)
(0.00127195 -0.06427 -0.477106)
(-0.0221761 -0.019174 -1.21931)
(-0.0121532 0.00707378 -1.27705)
(0.0160077 -0.0341107 -0.221759)
(-0.00397976 -0.052328 -0.203702)
(0.0193211 -0.0958874 -0.147959)
(0.0718584 -0.287121 -0.0818477)
(-0.00977818 -0.689103 -0.04145)