/*--------------------------------*- C++ -*----------------------------------*\
| =========                 |                                                 |
| \\      /  F ield         | OpenFOAM: The Open Source CFD Toolbox           |
|  \\    /   O peration     | Version:  2.3.0                                 |
|   \\  /    A nd           | Web:      www.OpenFOAM.org                      |
|    \\/     M anipulation  |                                                 |
\*---------------------------------------------------------------------------*/
FoamFile
{
    version     2.0;
    format      ascii;
    class       volScalarField;
    location    "4.30161";
    object      alpha.airMean;
}
// * * * * * * * * * * * * * * * * * * * * * * * * * * * * * * * * * * * * * //

dimensions      [0 0 0 0 0 0 0];

internalField   nonuniform List<scalar> 
1000
(
0.273814
0.234798
0.217176
0.214901
0.211803
0.212887
0.218382
0.238799
0.256619
0.258882
0.255916
0.251462
0.231468
0.206559
0.185523
0.175539
0.17289
0.175915
0.197506
0.256163
0.132578
0.0644641
0.0562236
0.0481527
0.0395894
0.0393549
0.047533
0.0724926
0.112633
0.123626
0.101436
0.0802424
0.0644945
0.0423871
0.0305651
0.0289284
0.0313368
0.0324836
0.0408362
0.114034
0.0877054
0.0429562
0.0345652
0.0219068
0.0168897
0.0213112
0.0278775
0.047461
0.0841069
0.0886345
0.0716614
0.0557227
0.0419613
0.0286626
0.0146499
0.0111628
0.0137277
0.0190137
0.0246836
0.0710382
0.0721087
0.0349261
0.0210991
0.0104555
0.0108552
0.0208054
0.0245661
0.0413192
0.0709699
0.0703004
0.0655708
0.0572004
0.0414564
0.0311185
0.015349
0.00761484
0.00365227
0.00916151
0.0179698
0.0592314
0.0593328
0.0241826
0.0160249
0.0088059
0.0135301
0.0201191
0.0191137
0.0334417
0.0588634
0.0572022
0.0608014
0.05923
0.0411983
0.0329015
0.0210865
0.00972084
0.00338807
0.00698331
0.0122036
0.0513749
0.0502032
0.0171084
0.0152287
0.0149504
0.0176587
0.0182155
0.0167362
0.0294431
0.0501198
0.0472839
0.0555429
0.0601377
0.0448806
0.0367913
0.0273972
0.0182927
0.00836033
0.00820917
0.0120114
0.0472604
0.043812
0.0153751
0.0153555
0.0204068
0.0169911
0.0161326
0.0156708
0.0275556
0.044104
0.0411553
0.0471835
0.0543935
0.0432048
0.0398452
0.0319775
0.0267807
0.0151082
0.00983935
0.0125368
0.0439488
0.0389243
0.0140829
0.0142339
0.0202131
0.0147716
0.0141755
0.0144996
0.026526
0.039972
0.0374848
0.0387385
0.0461422
0.0382965
0.0373889
0.032659
0.028148
0.0170543
0.0107135
0.0129857
0.040913
0.0351461
0.0130407
0.011282
0.0178396
0.0125009
0.0125986
0.0138257
0.0250214
0.0363575
0.0360363
0.0337125
0.0405835
0.0341877
0.0347981
0.0305638
0.0276574
0.0125274
0.00996117
0.0133022
0.0380758
0.031503
0.0122377
0.00916856
0.00860035
0.00940808
0.0107611
0.0126482
0.0236484
0.0307756
0.0316953
0.030788
0.0359935
0.0286485
0.0318069
0.027579
0.023048
0.00674443
0.00526306
0.0130826
0.0355321
0.219439
0.190434
0.187354
0.195656
0.20045
0.20176
0.209153
0.223475
0.237467
0.234497
0.235096
0.237244
0.226717
0.202153
0.187435
0.178622
0.17381
0.169798
0.181103
0.223711
0.093524
0.0713365
0.0710215
0.0649346
0.0629006
0.0688977
0.0784539
0.0948366
0.108569
0.107346
0.108816
0.0911673
0.0826002
0.0675375
0.0625633
0.0564284
0.056624
0.0591333
0.0593929
0.0940511
0.050912
0.045144
0.0471344
0.0423899
0.0418332
0.0452126
0.0543785
0.0693361
0.0825215
0.0774908
0.0758794
0.0621949
0.053584
0.0445295
0.037876
0.0366803
0.0357734
0.0385118
0.0334846
0.0502385
0.0408317
0.0381541
0.0261387
0.0225648
0.028648
0.0363806
0.0464392
0.0639587
0.0751384
0.0603863
0.0680758
0.0646006
0.0541015
0.0422859
0.0307863
0.0222551
0.0121062
0.0168098
0.0295904
0.0412889
0.030444
0.025885
0.0129422
0.0131661
0.0245068
0.031724
0.0385609
0.0581527
0.0672086
0.0521051
0.0569783
0.0623953
0.0544556
0.0402183
0.0290125
0.018782
0.00699132
0.00682493
0.0127295
0.0333783
0.0240211
0.00960284
0.0126899
0.020855
0.0252102
0.0289205
0.0345711
0.0527783
0.0586894
0.047398
0.0532095
0.0570541
0.0514418
0.0414582
0.0321049
0.0250645
0.0141242
0.0070406
0.00770362
0.0306763
0.0214644
0.0081858
0.0145971
0.026732
0.0246088
0.026537
0.0320603
0.0476889
0.0494286
0.0434551
0.0503365
0.0544224
0.0478089
0.0411224
0.0335957
0.0297676
0.0217454
0.00847046
0.00824247
0.028888
0.0195047
0.0076304
0.0127541
0.0261718
0.0224168
0.0243595
0.0297423
0.0427325
0.0434612
0.0415555
0.0468467
0.0528143
0.0449443
0.0394498
0.0326674
0.0295088
0.0229444
0.00846876
0.00857377
0.0271386
0.0181262
0.00717915
0.00843835
0.0226124
0.0194672
0.0221011
0.027007
0.0373229
0.036357
0.039496
0.0444413
0.0505243
0.0424014
0.0381387
0.0304709
0.0283098
0.0175264
0.00624802
0.00890544
0.0255959
0.0165841
0.00674728
0.00575545
0.0141458
0.0163105
0.0197178
0.0239505
0.0320496
0.0272797
0.035589
0.042817
0.0479729
0.0385238
0.036429
0.0283418
0.025437
0.00681203
0.00290556
0.00880203
0.0241764
0.2132
0.191557
0.193568
0.206884
0.215132
0.223818
0.225864
0.242185
0.259332
0.255827
0.252291
0.261769
0.240822
0.222346
0.208693
0.197107
0.189099
0.183166
0.189106
0.222433
0.0848206
0.0872834
0.0907657
0.0900175
0.0886912
0.10405
0.110318
0.125838
0.138678
0.130272
0.138275
0.125419
0.10825
0.104357
0.0937294
0.084332
0.0845589
0.0850434
0.0791945
0.0909623
0.0347137
0.0564095
0.0600883
0.0595701
0.057543
0.0669379
0.0759285
0.0915159
0.103861
0.0876392
0.0963135
0.0906546
0.0746748
0.0692759
0.0601978
0.0545944
0.0547571
0.0532606
0.0477671
0.0400878
0.0273974
0.0441792
0.0331953
0.0379937
0.0428375
0.053597
0.0646107
0.0812864
0.0943373
0.0744732
0.079199
0.0832919
0.0683958
0.0587208
0.0459828
0.0380243
0.0256024
0.0233782
0.0356876
0.0319413
0.0176151
0.0286806
0.0101953
0.0171992
0.0325128
0.0434728
0.0546801
0.0745807
0.0872443
0.0623749
0.0664322
0.0771759
0.0664309
0.0541145
0.0376694
0.0267042
0.00914472
0.00597779
0.0155134
0.0237169
0.0114342
0.00523708
0.00916021
0.019174
0.0303618
0.0391299
0.0491432
0.0689301
0.0786374
0.0573872
0.0605459
0.0673385
0.0586065
0.0513873
0.0383567
0.0276304
0.0155696
0.00502405
0.00397531
0.0208351
0.0101327
0.00370292
0.0113664
0.0267884
0.0289143
0.0362306
0.0452061
0.0635392
0.0654817
0.0522686
0.0571901
0.0630571
0.0526356
0.0469644
0.037263
0.0296029
0.0228323
0.00623168
0.00429932
0.0196939
0.00921863
0.00345355
0.00941357
0.0273876
0.0266968
0.0338243
0.041642
0.0573023
0.0567528
0.0493909
0.0553802
0.060811
0.0495295
0.0433886
0.0345991
0.0284483
0.0237223
0.00598478
0.00459413
0.0184826
0.0085615
0.00319546
0.00488284
0.0234018
0.0236112
0.0309492
0.037466
0.0495529
0.0460567
0.0465742
0.0544314
0.0588158
0.0472523
0.0405095
0.0316265
0.0265861
0.0196621
0.00367445
0.00478162
0.0173809
0.00778612
0.00304775
0.00245461
0.016229
0.0203805
0.0281389
0.0332168
0.0420895
0.0342481
0.0427112
0.0537446
0.0571807
0.0443243
0.0380366
0.0290559
0.0238518
0.00729831
0.00153083
0.00473547
0.01629
0.219448
0.189639
0.186555
0.197046
0.199918
0.2031
0.209144
0.223531
0.235949
0.23545
0.235881
0.239078
0.226019
0.20137
0.186405
0.176811
0.174826
0.169871
0.181175
0.223735
0.0922834
0.067971
0.0679982
0.0634724
0.0619837
0.0690995
0.0780557
0.0967862
0.106172
0.107293
0.107058
0.091559
0.0823171
0.0678036
0.0626293
0.0556816
0.0568486
0.0592605
0.0593559
0.0941235
0.0495962
0.0440764
0.0465118
0.0412413
0.0411299
0.0446504
0.0539676
0.0698377
0.0827973
0.07688
0.0748661
0.0628155
0.0535825
0.044711
0.0382585
0.037053
0.0355498
0.0386693
0.0334629
0.0503145
0.0396596
0.0380533
0.025936
0.0226124
0.0287327
0.0362331
0.0462183
0.0639875
0.0750918
0.0600573
0.0673253
0.0645397
0.0538685
0.0422496
0.0308857
0.0223963
0.0122313
0.0170217
0.0296132
0.0413455
0.0294295
0.0257762
0.0127873
0.013088
0.0246279
0.0316727
0.0384565
0.058077
0.0664916
0.0516617
0.0566462
0.0629428
0.0550763
0.0402953
0.0290622
0.018795
0.00713595
0.00709797
0.012804
0.0334326
0.0231394
0.00944428
0.0124858
0.02085
0.0252869
0.0288999
0.0344995
0.0526317
0.0578863
0.0472082
0.0507674
0.0540926
0.050119
0.0412744
0.0323544
0.0253347
0.0144544
0.00736664
0.00783338
0.0307166
0.0206852
0.00804804
0.014516
0.0267642
0.0246416
0.0265257
0.0319845
0.0474982
0.0487451
0.0432892
0.0481856
0.0511889
0.0440863
0.0383007
0.032227
0.0295611
0.0220301
0.00875651
0.00840637
0.0289184
0.018804
0.00751982
0.0126792
0.0261805
0.022425
0.0243483
0.0296643
0.0425135
0.0428952
0.0413659
0.0456675
0.0497094
0.0411434
0.0361408
0.0298053
0.0278896
0.0224508
0.00837619
0.00869754
0.0271588
0.0174863
0.00707596
0.00837547
0.0226248
0.0194688
0.0220863
0.0269297
0.0371087
0.0359009
0.0393344
0.0438659
0.0488725
0.0395686
0.0352012
0.0278194
0.0261712
0.0162735
0.00569742
0.00890664
0.0255807
0.0160117
0.00665472
0.0057
0.0141571
0.0163109
0.0196936
0.0238523
0.0318491
0.0269304
0.0354757
0.0424388
0.0479397
0.0373844
0.0349951
0.026719
0.0238707
0.00541906
0.00221297
0.00875059
0.0241438
0.273245
0.23305
0.215319
0.212647
0.209173
0.210337
0.216339
0.236932
0.255364
0.258459
0.256439
0.252661
0.232219
0.207612
0.186309
0.176178
0.173257
0.176185
0.197803
0.256508
0.130254
0.0591612
0.0519158
0.044431
0.0376336
0.0384918
0.047232
0.0721368
0.112112
0.123672
0.101452
0.0811326
0.0652594
0.0425195
0.0306186
0.0288632
0.0312426
0.0324653
0.0407633
0.114318
0.0849259
0.0407755
0.0330346
0.0209544
0.0166864
0.0212008
0.0277064
0.0472518
0.0839289
0.088974
0.0722178
0.0560785
0.0422142
0.0286256
0.0146187
0.0111038
0.0135632
0.0189807
0.0246239
0.0712943
0.0696138
0.0346471
0.0209285
0.0104362
0.0109048
0.0208094
0.0245139
0.0411862
0.070798
0.0705934
0.0663006
0.0581074
0.0415497
0.0309534
0.0152665
0.00759544
0.00362473
0.00912163
0.0179683
0.0594656
0.0572012
0.024117
0.0160231
0.00882176
0.0135172
0.0201554
0.0190951
0.0333396
0.058769
0.057689
0.0612738
0.0607786
0.0424595
0.0333605
0.0212098
0.00974389
0.00340158
0.00694804
0.0122278
0.0515945
0.0484084
0.0170829
0.0152715
0.0149891
0.017683
0.0182523
0.0167335
0.0293602
0.0501154
0.0479567
0.0562324
0.0596474
0.0448053
0.0371132
0.0278692
0.0186211
0.00852251
0.00817708
0.0119994
0.0474568
0.0422907
0.0153586
0.0153984
0.0204539
0.0170124
0.016164
0.0156627
0.0274976
0.0441581
0.0416753
0.0488649
0.0555566
0.0432217
0.039524
0.0318114
0.0267968
0.015195
0.00973449
0.0124217
0.044168
0.0376154
0.0140632
0.0142685
0.0202685
0.0147935
0.0142014
0.0144837
0.0264949
0.0400587
0.0378743
0.0404327
0.0476237
0.0386377
0.0376643
0.0324514
0.0277847
0.0166755
0.0103097
0.0128041
0.0411469
0.033998
0.0130132
0.0113222
0.0179137
0.0125209
0.0126192
0.0138073
0.025021
0.0364461
0.0364215
0.0350474
0.0425065
0.0353842
0.0348434
0.0306113
0.0272556
0.0119219
0.00932051
0.0130236
0.038304
0.0305505
0.0122088
0.00920789
0.00861673
0.00941075
0.0107703
0.012607
0.0236562
0.0308567
0.0320493
0.0315809
0.0377078
0.0294914
0.0315708
0.027005
0.0223682
0.00598183
0.0046075
0.012857
0.0357306
)
;

boundaryField
{
    aeration
    {
        type            calculated;
        value           uniform 0.5;
    }
    xsides
    {
        type            calculated;
        value           nonuniform List<scalar> 
100
(
0.273814
0.132578
0.0877054
0.0721087
0.0593328
0.0502032
0.043812
0.0389243
0.0351461
0.031503
0.219439
0.093524
0.050912
0.0408317
0.030444
0.0240211
0.0214644
0.0195047
0.0181262
0.0165841
0.2132
0.0848206
0.0347137
0.0273974
0.0176151
0.0114342
0.0101327
0.00921863
0.0085615
0.00778612
0.219448
0.0922834
0.0495962
0.0396596
0.0294295
0.0231394
0.0206852
0.018804
0.0174863
0.0160117
0.273245
0.130254
0.0849259
0.0696138
0.0572012
0.0484084
0.0422907
0.0376154
0.033998
0.0305505
0.256163
0.114034
0.0710382
0.0592314
0.0513749
0.0472604
0.0439488
0.040913
0.0380758
0.0355321
0.223711
0.0940511
0.0502385
0.0412889
0.0333783
0.0306763
0.028888
0.0271386
0.0255959
0.0241764
0.222433
0.0909623
0.0400878
0.0319413
0.0237169
0.0208351
0.0196939
0.0184826
0.0173809
0.01629
0.223735
0.0941235
0.0503145
0.0413455
0.0334326
0.0307166
0.0289184
0.0271588
0.0255807
0.0241438
0.256508
0.114318
0.0712943
0.0594656
0.0515945
0.0474568
0.044168
0.0411469
0.038304
0.0357306
)
;
    }
    zsides
    {
        type            calculated;
        value           nonuniform List<scalar> 
400
(
0.273814
0.132578
0.0877054
0.0721087
0.0593328
0.0502032
0.043812
0.0389243
0.0351461
0.031503
0.234798
0.0644641
0.0429562
0.0349261
0.0241826
0.0171084
0.0153751
0.0140829
0.0130407
0.0122377
0.217176
0.0562236
0.0345652
0.0210991
0.0160249
0.0152287
0.0153555
0.0142339
0.011282
0.00916856
0.214901
0.0481527
0.0219068
0.0104555
0.0088059
0.0149504
0.0204068
0.0202131
0.0178396
0.00860035
0.211803
0.0395894
0.0168897
0.0108552
0.0135301
0.0176587
0.0169911
0.0147716
0.0125009
0.00940808
0.212887
0.0393549
0.0213112
0.0208054
0.0201191
0.0182155
0.0161326
0.0141755
0.0125986
0.0107611
0.218382
0.047533
0.0278775
0.0245661
0.0191137
0.0167362
0.0156708
0.0144996
0.0138257
0.0126482
0.238799
0.0724926
0.047461
0.0413192
0.0334417
0.0294431
0.0275556
0.026526
0.0250214
0.0236484
0.256619
0.112633
0.0841069
0.0709699
0.0588634
0.0501198
0.044104
0.039972
0.0363575
0.0307756
0.258882
0.123626
0.0886345
0.0703004
0.0572022
0.0472839
0.0411553
0.0374848
0.0360363
0.0316953
0.255916
0.101436
0.0716614
0.0655708
0.0608014
0.0555429
0.0471835
0.0387385
0.0337125
0.030788
0.251462
0.0802424
0.0557227
0.0572004
0.05923
0.0601377
0.0543935
0.0461422
0.0405835
0.0359935
0.231468
0.0644945
0.0419613
0.0414564
0.0411983
0.0448806
0.0432048
0.0382965
0.0341877
0.0286485
0.206559
0.0423871
0.0286626
0.0311185
0.0329015
0.0367913
0.0398452
0.0373889
0.0347981
0.0318069
0.185523
0.0305651
0.0146499
0.015349
0.0210865
0.0273972
0.0319775
0.032659
0.0305638
0.027579
0.175539
0.0289284
0.0111628
0.00761484
0.00972084
0.0182927
0.0267807
0.028148
0.0276574
0.023048
0.17289
0.0313368
0.0137277
0.00365227
0.00338807
0.00836033
0.0151082
0.0170543
0.0125274
0.00674443
0.175915
0.0324836
0.0190137
0.00916151
0.00698331
0.00820917
0.00983935
0.0107135
0.00996117
0.00526306
0.197506
0.0408362
0.0246836
0.0179698
0.0122036
0.0120114
0.0125368
0.0129857
0.0133022
0.0130826
0.256163
0.114034
0.0710382
0.0592314
0.0513749
0.0472604
0.0439488
0.040913
0.0380758
0.0355321
0.273245
0.130254
0.0849259
0.0696138
0.0572012
0.0484084
0.0422907
0.0376154
0.033998
0.0305505
0.23305
0.0591612
0.0407755
0.0346471
0.024117
0.0170829
0.0153586
0.0140632
0.0130132
0.0122088
0.215319
0.0519158
0.0330346
0.0209285
0.0160231
0.0152715
0.0153984
0.0142685
0.0113222
0.00920789
0.212647
0.044431
0.0209544
0.0104362
0.00882176
0.0149891
0.0204539
0.0202685
0.0179137
0.00861673
0.209173
0.0376336
0.0166864
0.0109048
0.0135172
0.017683
0.0170124
0.0147935
0.0125209
0.00941075
0.210337
0.0384918
0.0212008
0.0208094
0.0201554
0.0182523
0.016164
0.0142014
0.0126192
0.0107703
0.216339
0.047232
0.0277064
0.0245139
0.0190951
0.0167335
0.0156627
0.0144837
0.0138073
0.012607
0.236932
0.0721368
0.0472518
0.0411862
0.0333396
0.0293602
0.0274976
0.0264949
0.025021
0.0236562
0.255364
0.112112
0.0839289
0.070798
0.058769
0.0501154
0.0441581
0.0400587
0.0364461
0.0308567
0.258459
0.123672
0.088974
0.0705934
0.057689
0.0479567
0.0416753
0.0378743
0.0364215
0.0320493
0.256439
0.101452
0.0722178
0.0663006
0.0612738
0.0562324
0.0488649
0.0404327
0.0350474
0.0315809
0.252661
0.0811326
0.0560785
0.0581074
0.0607786
0.0596474
0.0555566
0.0476237
0.0425065
0.0377078
0.232219
0.0652594
0.0422142
0.0415497
0.0424595
0.0448053
0.0432217
0.0386377
0.0353842
0.0294914
0.207612
0.0425195
0.0286256
0.0309534
0.0333605
0.0371132
0.039524
0.0376643
0.0348434
0.0315708
0.186309
0.0306186
0.0146187
0.0152665
0.0212098
0.0278692
0.0318114
0.0324514
0.0306113
0.027005
0.176178
0.0288632
0.0111038
0.00759544
0.00974389
0.0186211
0.0267968
0.0277847
0.0272556
0.0223682
0.173257
0.0312426
0.0135632
0.00362473
0.00340158
0.00852251
0.015195
0.0166755
0.0119219
0.00598183
0.176185
0.0324653
0.0189807
0.00912163
0.00694804
0.00817708
0.00973449
0.0103097
0.00932051
0.0046075
0.197803
0.0407633
0.0246239
0.0179683
0.0122278
0.0119994
0.0124217
0.0128041
0.0130236
0.012857
0.256508
0.114318
0.0712943
0.0594656
0.0515945
0.0474568
0.044168
0.0411469
0.038304
0.0357306
)
;
    }
    outlet
    {
        type            calculated;
        value           nonuniform List<scalar> 
100
(
0.031503
0.0165841
0.00778612
0.0160117
0.0305505
0.0122377
0.00674717
0.00304773
0.00665461
0.0122087
0.00906048
0.00557223
0.00222117
0.00552294
0.00909995
0.00664521
0.0129068
0.0152192
0.0129105
0.00662964
0.00916632
0.0160893
0.0201514
0.01609
0.00916907
0.0106503
0.0195692
0.0279423
0.0195452
0.0106597
0.0125902
0.0238666
0.0330721
0.0237679
0.0125493
0.023593
0.0319809
0.0420077
0.031782
0.0235978
0.0304868
0.0261446
0.0323942
0.0257896
0.0305622
0.0315493
0.0355078
0.0426737
0.0353842
0.0318873
0.0306055
0.0426502
0.0536889
0.0422385
0.0313945
0.0355846
0.0476327
0.0570486
0.047649
0.0375878
0.0281171
0.0378362
0.0430172
0.0367333
0.0291137
0.0313849
0.0359036
0.0371593
0.0344754
0.031305
0.0270531
0.0276766
0.0281569
0.026019
0.0265675
0.0222246
0.0243871
0.0227011
0.0228043
0.0215525
0.00648064
0.00442345
0.00185916
0.00300852
0.00573016
0.00443429
0.00241608
0.00132024
0.00171902
0.00379486
0.0124293
0.00839693
0.0045212
0.00833321
0.0122116
0.0355321
0.0241764
0.01629
0.0241438
0.0357306
)
;
    }
}


// ************************************************************************* //
