/*--------------------------------*- C++ -*----------------------------------*\
| =========                 |                                                 |
| \\      /  F ield         | OpenFOAM: The Open Source CFD Toolbox           |
|  \\    /   O peration     | Version:  2.3.0                                 |
|   \\  /    A nd           | Web:      www.OpenFOAM.org                      |
|    \\/     M anipulation  |                                                 |
\*---------------------------------------------------------------------------*/
FoamFile
{
    version     2.0;
    format      ascii;
    class       volScalarField;
    location    "4.30161";
    object      rho;
}
// * * * * * * * * * * * * * * * * * * * * * * * * * * * * * * * * * * * * * //

dimensions      [1 -3 0 0 0 0 0];

internalField   nonuniform List<scalar> 
1000
(
613.84
639.649
634.312
673.878
746.048
803.511
853.061
892.652
924.645
952.869
948.478
891.126
729.017
690.037
831.888
889.906
925.231
950.805
942.391
804.456
640.335
719.188
767.251
885.885
980.366
1013.04
1023.77
1025.58
1026.3
1025.76
1024.29
1014.43
872.185
748.05
969.191
1020.02
1019.88
1022.24
1024.18
901.246
670.271
875.675
930.082
1001.8
1025.93
1027.05
1027.1
1027.1
1026.94
1025.34
1019.38
1017.48
941.947
810.205
958.885
1019.7
1017.07
1016.73
1023.15
924.641
708.731
1005.49
1019.83
1026.36
1027.11
1027.11
1027.11
1027.1
1026.89
1024.8
1015.66
1004.25
949.97
863.047
940.988
1009.92
1013.98
1009.89
1019.85
935.838
742.368
1025.38
1027.07
1027.11
1027.11
1027.11
1027.11
1027.11
1027.04
1025.96
1013.53
980.722
944.859
895.313
919.388
980.575
1008.11
1000.32
1012.01
935.472
768.388
1025.84
1027.06
1026.96
1027.11
1027.11
1027.11
1027.11
1027.11
1026.79
1018.69
979.755
928.868
901.345
908.781
938.863
984.51
983.559
1002.97
934.689
789.639
1025.76
1026.48
1025.77
1027.11
1027.11
1027.11
1027.11
1027.11
1027.11
1026.6
1017.55
976.655
932.654
902.716
905.063
928.947
955.177
995.209
935.421
806.065
1025.38
1024.95
1024.95
1027.11
1027.11
1027.11
1027.11
1027.11
1027.11
1027.11
1027.07
1026.52
1023.17
947.658
907.925
909.029
931.396
983.109
937.803
819.156
1024.74
1023.94
1026.53
1027.11
1027.11
1027.11
1027.11
1027.11
1027.11
1027.11
1027.11
1027.11
1027.1
1008.99
938.343
912.075
921.959
971.049
940.756
835.95
1022.84
1021.03
1027.09
1027.11
1027.11
1027.11
1027.11
1027.11
1027.11
1027.11
1027.11
1027.11
1027.11
1025.23
969.045
924.223
927.49
977.44
946.082
745.973
817.406
807.065
815.475
854.21
882.091
913.733
945.9
966.382
983.189
979.571
964.339
929.557
771.818
847.462
898.235
926.926
949.218
942.056
813.969
817.209
868.636
908.171
974.234
1016.98
1024.19
1026
1026.66
1026.91
1026.39
1023.89
1019.54
962.36
858.754
980.513
1018.45
1016.92
1018.39
1024.22
908.474
848.823
949.856
985.7
1020.77
1026.95
1027.11
1027.11
1027.11
1027.05
1026.2
1021.56
1017.12
977.495
898.43
972.363
1016.25
1013.16
1011.41
1024.26
935.669
875.107
1019.41
1024.97
1027.01
1027.11
1027.11
1027.11
1027.11
1027.05
1026.22
1020.89
1007.61
974.661
922.173
961.986
1007.53
1010.3
1005.35
1021.41
946.794
894.581
1026.49
1027.1
1027.1
1027.11
1027.11
1027.11
1027.11
1027.1
1026.83
1022.3
1002.73
975.1
943.175
951.908
986.4
1005.61
998.561
1009.75
950.346
907.233
1026.52
1027
1026.9
1027.11
1027.11
1027.11
1027.11
1027.11
1027.06
1025.57
1013.24
984.155
964.265
961.537
967.6
987.979
989.796
998.767
951.579
916.056
1026.44
1026.69
1026.79
1027.11
1027.11
1027.11
1027.11
1027.11
1027.11
1027.09
1025.98
1013.46
992.049
966.085
967.609
975.918
981.311
992.127
954.119
922.026
1026.26
1026.42
1027.04
1027.11
1027.11
1027.11
1027.11
1027.11
1027.11
1027.11
1027.11
1027.06
1026.35
1004.44
970.869
970.412
972.843
987.366
957.868
927.246
1026
1026.06
1027.1
1027.11
1027.11
1027.11
1027.11
1027.11
1027.11
1027.11
1027.11
1027.11
1027.11
1022.99
983.991
964.972
967.247
984.115
962.121
933.116
1024.73
1023.16
1027.11
1027.11
1027.11
1027.11
1027.11
1027.11
1027.11
1027.11
1027.11
1027.11
1027.11
1026.91
1000.46
969.069
968.241
986.148
967.784
784.208
864.582
852.794
854.78
879.723
898.851
926.321
952.715
969.708
986.261
983.693
974.11
941.853
773.364
851.676
899.869
926.736
946.928
941.073
816.222
940.511
1013.75
1016
1021.17
1025.09
1025.88
1026.51
1026.89
1027.01
1026.98
1026.13
1024.15
1014.68
916.172
986.462
1017.4
1014.86
1014.62
1023.31
911.711
973.129
1018.92
1023.85
1026.91
1027.11
1027.11
1027.11
1027.11
1027.11
1027.01
1025.67
1019.53
1010.61
950.188
983.686
1015.05
1010.9
1007.03
1023.55
940.219
980.511
1026.58
1027.05
1027.11
1027.11
1027.11
1027.11
1027.11
1027.11
1027.04
1025.62
1016.41
1007.81
970.637
982.687
1008.2
1008.72
1002.35
1018.81
950.915
982.672
1026.93
1027.11
1027.1
1027.11
1027.11
1027.11
1027.11
1027.11
1027.1
1026.63
1020.65
997.729
974.615
976.931
994.073
1004.9
998.146
1006.59
954.669
982.955
1026.9
1027.07
1027.05
1027.11
1027.11
1027.11
1027.11
1027.11
1027.11
1027.06
1026.39
1023.08
1005.72
984.376
983.974
989.234
994.944
999.195
956.387
983.192
1026.87
1027.01
1027.08
1027.11
1027.11
1027.11
1027.11
1027.11
1027.11
1027.11
1027.04
1026.52
1024.26
1016.44
1000.94
994.109
994.991
997.422
960.296
983.473
1026.83
1026.98
1027.11
1027.11
1027.11
1027.11
1027.11
1027.11
1027.11
1027.11
1027.11
1027.11
1027.07
1026.64
1019.68
1008.81
999.197
998.452
966.113
984.201
1026.73
1026.78
1027.11
1027.11
1027.11
1027.11
1027.11
1027.11
1027.11
1027.11
1027.11
1027.11
1027.11
1026.87
1022.56
1015.6
1006.28
1001.78
971.919
985.26
1026.14
1025.4
1027.11
1027.11
1027.11
1027.11
1027.11
1027.11
1027.11
1027.11
1027.11
1027.11
1027.11
1027.1
1023.27
1018.37
1009.8
1004.79
978.241
723.717
814.283
808.239
829.506
860.794
882.339
915.549
945.873
965.405
983.783
980.374
965.955
929.777
770.157
846.869
897.327
925.345
946.33
940.071
813.296
858.964
968.121
983.974
1017.29
1024.2
1025.2
1026.12
1026.66
1026.85
1026.45
1024.79
1021.12
966.261
859.9
980.846
1018
1015.9
1015.25
1023.21
908.219
912.058
1025.16
1026.2
1026.87
1027.1
1027.11
1027.11
1027.1
1026.99
1026.22
1023.52
1017.8
978.687
897.659
972.448
1015.82
1011.91
1006.76
1023.46
935.188
929.338
1026.7
1027.11
1027.11
1027.11
1027.11
1027.11
1027.1
1026.96
1026.19
1023.15
1010.82
977.096
927.12
964.777
1007.73
1009.42
1000.94
1019.44
946.551
936.623
1026.68
1027.11
1027.1
1027.11
1027.11
1027.11
1027.11
1027.03
1026.68
1024.8
1009.43
968.441
940.859
951.511
986.346
1004.59
994.604
1005.88
950
938.877
1026.61
1027
1026.9
1027.11
1027.11
1027.11
1027.11
1027.1
1026.98
1026.08
1021.13
1003.47
984.546
961.762
964.205
979.831
986.354
995.024
951.462
939.891
1026.48
1026.7
1026.79
1027.11
1027.11
1027.11
1027.11
1027.11
1027.1
1026.67
1023.29
1018.08
1021.56
1011.75
987.901
980.381
981.623
990.078
954.461
940.578
1026.29
1026.43
1027.04
1027.11
1027.11
1027.11
1027.11
1027.11
1027.11
1027.11
1027.08
1027.07
1023.45
1022.39
1009.15
993.546
986.452
990.02
959.078
942.002
1026.03
1026.09
1027.1
1027.11
1027.11
1027.11
1027.11
1027.11
1027.11
1027.11
1027.11
1027.11
1027.08
1024.81
1001.36
998.069
994.487
993.983
964.965
943.866
1024.77
1023.19
1027.11
1027.11
1027.11
1027.11
1027.11
1027.11
1027.11
1027.11
1027.11
1027.11
1027.11
1026.95
987.127
988.046
993.063
997.163
971.657
574.809
615.125
632.439
707.584
779.157
820.681
854.989
893.692
922.991
953.809
949.87
898.389
732.177
687.707
831.378
889.765
925.177
950.384
942.051
804.035
646.01
813.955
858.748
962.684
1012.56
1021.4
1023.82
1025.38
1025.82
1025.07
1023.45
1015.44
876.737
746.772
969.709
1020.31
1020.17
1022.47
1024.21
900.987
714.922
987.08
1001.55
1021.73
1026.94
1027.09
1027.09
1027.01
1026.5
1023.35
1015.28
1014.51
941.947
808.842
959.039
1020.03
1017.14
1017.17
1022.62
924.521
762.547
1024.23
1026.47
1027.05
1027.11
1027.11
1027.11
1027.06
1026.29
1021.39
1008.04
1000.61
951.007
866.803
943.152
1010.59
1013.56
1009.96
1018.36
935.645
792.398
1025.96
1027.11
1027.11
1027.11
1027.11
1027.11
1027.08
1026.37
1021.7
1005.27
978.871
940.354
892.649
919.392
979.805
1006.12
999.239
1011.11
935.258
811.966
1025.96
1027.06
1026.96
1027.11
1027.11
1027.11
1027.11
1027.05
1025.75
1012.58
977.836
939.529
906.437
908.389
932.849
978.389
980.974
1004.77
934.803
827.073
1025.85
1026.47
1025.75
1027.11
1027.11
1027.11
1027.11
1027.11
1027.05
1025.3
1012.1
977.257
931.798
911.322
912.026
925.689
954.925
1000.22
935.003
838.405
1025.46
1024.92
1024.88
1027.11
1027.11
1027.11
1027.11
1027.11
1027.11
1027.1
1026.99
1026.41
1010.96
947.963
913.05
914.081
941.863
990.703
936.636
847.669
1024.81
1023.86
1026.47
1027.11
1027.11
1027.11
1027.11
1027.11
1027.11
1027.11
1027.11
1027.11
1027.01
984.441
923.295
914.176
932.017
984.055
939.867
859.1
1022.88
1020.95
1027.09
1027.11
1027.11
1027.11
1027.11
1027.11
1027.11
1027.11
1027.11
1027.11
1027.11
1015.83
953.515
919.266
934.686
989.978
945.963
)
;

boundaryField
{
    aeration
    {
        type            calculated;
        value           nonuniform List<scalar> 
100
(
514.137
514.137
514.137
514.137
514.137
514.137
514.137
514.137
514.137
514.137
514.137
514.137
514.137
514.137
514.137
514.137
514.137
514.137
514.137
514.137
514.137
514.137
514.137
514.137
514.137
514.137
514.137
514.137
514.137
514.137
514.137
514.137
514.137
514.137
514.137
514.137
514.137
514.137
514.137
514.137
514.137
514.137
514.137
514.137
514.137
514.137
514.137
514.137
514.137
514.137
514.137
514.137
514.137
514.137
514.137
514.137
514.137
514.137
514.137
514.137
514.137
514.137
514.137
514.137
514.137
514.137
514.137
514.137
514.137
514.137
514.137
514.137
514.137
514.137
514.137
514.137
514.137
514.137
514.137
514.137
514.137
514.137
514.137
514.137
514.137
514.137
514.137
514.137
514.137
514.137
514.137
514.137
514.137
514.137
514.137
514.137
514.137
514.137
514.137
514.137
)
;
    }
    xsides
    {
        type            calculated;
        value           nonuniform List<scalar> 
100
(
613.84
640.335
670.271
708.731
742.368
768.388
789.639
806.065
819.156
835.95
745.973
817.209
848.823
875.107
894.581
907.233
916.056
922.026
927.246
933.116
784.208
940.511
973.129
980.511
982.672
982.955
983.192
983.473
984.201
985.26
723.717
858.964
912.058
929.338
936.623
938.877
939.891
940.578
942.002
943.866
574.809
646.01
714.922
762.547
792.398
811.966
827.073
838.405
847.669
859.1
804.456
901.246
924.641
935.838
935.472
934.689
935.421
937.803
940.756
946.082
813.969
908.474
935.669
946.794
950.346
951.579
954.119
957.868
962.121
967.784
816.222
911.711
940.219
950.915
954.669
956.387
960.296
966.113
971.919
978.241
813.296
908.219
935.188
946.551
950
951.462
954.461
959.078
964.965
971.657
804.035
900.987
924.521
935.645
935.258
934.803
935.003
936.636
939.867
945.963
)
;
    }
    zsides
    {
        type            calculated;
        value           nonuniform List<scalar> 
400
(
613.84
640.335
670.271
708.731
742.368
768.388
789.639
806.065
819.156
835.95
639.649
719.188
875.675
1005.49
1025.38
1025.84
1025.76
1025.38
1024.74
1022.84
634.312
767.251
930.082
1019.83
1027.07
1027.06
1026.48
1024.95
1023.94
1021.03
673.878
885.885
1001.8
1026.36
1027.11
1026.96
1025.77
1024.95
1026.53
1027.09
746.048
980.366
1025.93
1027.11
1027.11
1027.11
1027.11
1027.11
1027.11
1027.11
803.511
1013.04
1027.05
1027.11
1027.11
1027.11
1027.11
1027.11
1027.11
1027.11
853.061
1023.77
1027.1
1027.11
1027.11
1027.11
1027.11
1027.11
1027.11
1027.11
892.652
1025.58
1027.1
1027.1
1027.11
1027.11
1027.11
1027.11
1027.11
1027.11
924.645
1026.3
1026.94
1026.89
1027.04
1027.11
1027.11
1027.11
1027.11
1027.11
952.869
1025.76
1025.34
1024.8
1025.96
1026.79
1027.11
1027.11
1027.11
1027.11
948.478
1024.29
1019.38
1015.66
1013.53
1018.69
1026.6
1027.11
1027.11
1027.11
891.126
1014.43
1017.48
1004.25
980.722
979.755
1017.55
1027.07
1027.11
1027.11
729.017
872.185
941.947
949.97
944.859
928.868
976.655
1026.52
1027.11
1027.11
690.037
748.05
810.205
863.047
895.313
901.345
932.654
1023.17
1027.1
1027.11
831.888
969.191
958.885
940.988
919.388
908.781
902.716
947.658
1008.99
1025.23
889.906
1020.02
1019.7
1009.92
980.575
938.863
905.063
907.925
938.343
969.045
925.231
1019.88
1017.07
1013.98
1008.11
984.51
928.947
909.029
912.075
924.223
950.805
1022.24
1016.73
1009.89
1000.32
983.559
955.177
931.396
921.959
927.49
942.391
1024.18
1023.15
1019.85
1012.01
1002.97
995.209
983.109
971.049
977.44
804.456
901.246
924.641
935.838
935.472
934.689
935.421
937.803
940.756
946.082
574.809
646.01
714.922
762.547
792.398
811.966
827.073
838.405
847.669
859.1
615.125
813.955
987.08
1024.23
1025.96
1025.96
1025.85
1025.46
1024.81
1022.88
632.439
858.748
1001.55
1026.47
1027.11
1027.06
1026.47
1024.92
1023.86
1020.95
707.584
962.684
1021.73
1027.05
1027.11
1026.96
1025.75
1024.88
1026.47
1027.09
779.157
1012.56
1026.94
1027.11
1027.11
1027.11
1027.11
1027.11
1027.11
1027.11
820.681
1021.4
1027.09
1027.11
1027.11
1027.11
1027.11
1027.11
1027.11
1027.11
854.989
1023.82
1027.09
1027.11
1027.11
1027.11
1027.11
1027.11
1027.11
1027.11
893.692
1025.38
1027.01
1027.06
1027.08
1027.11
1027.11
1027.11
1027.11
1027.11
922.991
1025.82
1026.5
1026.29
1026.37
1027.05
1027.11
1027.11
1027.11
1027.11
953.809
1025.07
1023.35
1021.39
1021.7
1025.75
1027.05
1027.11
1027.11
1027.11
949.87
1023.45
1015.28
1008.04
1005.27
1012.58
1025.3
1027.1
1027.11
1027.11
898.389
1015.44
1014.51
1000.61
978.871
977.836
1012.1
1026.99
1027.11
1027.11
732.177
876.737
941.947
951.007
940.354
939.529
977.257
1026.41
1027.11
1027.11
687.707
746.772
808.842
866.803
892.649
906.437
931.798
1010.96
1027.01
1027.11
831.378
969.709
959.039
943.152
919.392
908.389
911.322
947.963
984.441
1015.83
889.765
1020.31
1020.03
1010.59
979.805
932.849
912.026
913.05
923.295
953.515
925.177
1020.17
1017.14
1013.56
1006.12
978.389
925.689
914.081
914.176
919.266
950.384
1022.47
1017.17
1009.96
999.239
980.974
954.925
941.863
932.017
934.686
942.051
1024.21
1022.62
1018.36
1011.11
1004.77
1000.22
990.703
984.055
989.978
804.035
900.987
924.521
935.645
935.258
934.803
935.003
936.636
939.867
945.963
)
;
    }
    outlet
    {
        type            calculated;
        value           nonuniform List<scalar> 
100
(
835.95
933.116
985.259
943.866
859.1
1022.84
1024.73
1026.14
1024.77
1022.88
1021.03
1027.11
1027.11
1023.19
1020.95
1027.11
1027.11
1027.11
1027.11
1027.11
1027.11
1027.11
1027.11
1027.11
1027.11
1027.11
1027.11
1027.11
1027.11
1027.11
1027.11
1027.11
1027.11
1027.11
1027.11
1027.11
1027.11
1027.11
1027.11
1027.11
1027.11
1027.11
1027.11
1027.11
1027.11
1027.11
1027.11
1027.11
1027.11
1027.11
1027.11
1027.11
1027.11
1027.11
1027.11
1027.11
1027.11
1027.11
1027.11
1027.11
1027.11
1027.11
1027.11
1027.11
1027.11
1027.11
1027.11
1027.11
1027.11
1027.11
1027.11
1027.11
1027.11
1027.11
1027.11
969.045
1000.46
1023.27
987.127
953.515
924.223
969.069
1018.37
988.046
919.266
927.49
968.241
1009.8
993.063
934.686
977.44
986.148
1004.79
997.163
989.978
946.082
967.784
978.241
971.657
945.963
)
;
    }
}


// ************************************************************************* //
