/*--------------------------------*- C++ -*----------------------------------*\
| =========                 |                                                 |
| \\      /  F ield         | OpenFOAM: The Open Source CFD Toolbox           |
|  \\    /   O peration     | Version:  2.3.0                                 |
|   \\  /    A nd           | Web:      www.OpenFOAM.org                      |
|    \\/     M anipulation  |                                                 |
\*---------------------------------------------------------------------------*/
FoamFile
{
    version     2.0;
    format      ascii;
    class       volScalarField;
    location    "0.408";
    object      p;
}
// * * * * * * * * * * * * * * * * * * * * * * * * * * * * * * * * * * * * * //

dimensions      [1 -1 -2 0 0 0 0];

internalField   nonuniform List<scalar> 
545
(
-6.58634e+07
-1.2164e+07
-1.6571e+06
-2.1578e+06
-7.07388e+06
4.73388e+07
-2.4975e+06
-1.95207e+06
-2.07448e+06
-5.7578e+06
8.23367e+07
2.93049e+06
-327728
-369601
-6.04201e+06
4.77536e+07
-2.6466e+06
-1.56685e+06
-145735
-5.40486e+06
-7.57824e+07
-1.95838e+06
-403247
3.43915e+06
9.57641e+06
-5.81973e+06
-1.53902e+06
-660607
-96912.3
-9051.52
-3174.1
-16145.6
-23252.2
-27465.3
-29819.1
-31141.6
-31781.1
-32332.8
-32533.9
-32705.3
-32521.8
-32407.2
-32086
-31806.2
-31187.5
-30691
-29829.2
-28912.9
-27428.1
-25877.9
-23637.6
-21453.9
-18855
-16568.9
-14104.4
-12258.5
-10287.7
-8997.17
-7918.15
-7320.94
-6802.19
-6747.36
-6514.3
-6653.13
-6251.85
-6115.96
-5029.47
-4137.19
-2379.32
-1082.97
-5.13242e+06
-972968
-625850
-193714
-93380.1
-46850.1
-35003.3
-30117.1
-29911.7
-30370.7
-31321.9
-31677
-32334.1
-32361.1
-32717
-32365.1
-32371.7
-31949.4
-31814.6
-31060.4
-30716.2
-29724.9
-28996.5
-27364.3
-25950.9
-23563.7
-21498.3
-18722.1
-16604.4
-14018.3
-12277.5
-10197.5
-9019.39
-7856.89
-7349.94
-6714.7
-6823.29
-6473.94
-6745.11
-6269.68
-6200.39
-5091.56
-4154.12
-2263.7
-816.385
-6.0145e+06
-493699
-395248
-84839.6
-63832.5
-42154.7
-37010
-30832.5
-31097.4
-30187.3
-32057.6
-31178.2
-32926.1
-31751.2
-33354.3
-31718.8
-32885.9
-31309.3
-32393.8
-30413.3
-31339.5
-29123.9
-29725.7
-26771.7
-26663.6
-22939.7
-22181.2
-18030.4
-17327.7
-13379.1
-12984
-9567.01
-9689.75
-7255.26
-8050.04
-6070.87
-7618.31
-5802.34
-7538.91
-5662.85
-6987.3
-4456.74
-4890.84
-1428.8
-1530.47
-6.364e+06
460502
71547.6
107430
-2489.17
-23297.8
-34754.5
-28494.4
-32609.2
-28928.2
-33745.4
-29741.6
-34506.4
-30159.6
-35040.9
-30068
-34338.2
-29703.2
-33962.4
-28778.2
-32969.6
-27520.1
-31509.4
-25154.2
-28429.7
-21293.3
-23946.7
-16273.1
-19157.6
-11752.3
-14764.8
-7954.06
-11391.3
-5697.24
-9818.76
-4390.36
-9561.64
-4062.77
-9372.82
-4057.4
-8787.82
-2851.91
-6577.49
535.875
-2866.31
-1.53402e+06
2.64383e+06
871461
268226
17142.6
-16949.1
-35144.9
-26522.7
-34785.6
-27538.7
-35756.6
-27930.6
-36419
-28186.4
-37170.3
-27986.8
-36106.3
-27774.6
-35901.3
-26749.6
-34989.4
-25523.7
-33736.9
-23032.6
-30698.1
-19165.7
-26218.7
-14006.2
-21492.4
-9574.13
-17083.7
-5944.27
-13430.7
-3847.98
-12020.9
-2281.25
-12050.2
-1756.63
-11735.3
-1887.58
-11128.7
-751.878
-8832.29
2905.21
-5145.11
-1.13246e+07
3.80094e+06
1.48272e+06
365274
26233.7
-24431.3
-32240.1
-30310.9
-27673.5
-27189.2
-28418.4
-28844.2
-29081.9
-31942.6
-32448.9
-30974.7
-27921.6
-26977.3
-28378.9
-27903.7
-27319
-28035.9
-28403.1
-25227.6
-22682.2
-21396.5
-19633.7
-18970.5
-16353.6
-10704.4
-7493.94
-7318.49
-6789.8
-3876.82
-3911.45
-6583.07
-6939.84
-7021.94
-4955.42
-2269.57
-927.316
-2044.22
-703.017
801.999
315.439
-7.57647e+07
-1.94169e+06
-387976
3.45292e+06
9.58813e+06
4.77713e+07
-2.62987e+06
-1.55152e+06
-132030
-5.39315e+06
8.23544e+07
2.94736e+06
-312309
-355941
-6.03058e+06
4.73565e+07
-2.48061e+06
-1.93659e+06
-2.06095e+06
-5.74668e+06
-6.58457e+07
-1.2147e+07
-1.6416e+06
-2.14431e+06
-7.06291e+06
-1.52388e+06
2.63803e+06
879345
261110
24742
-25264.7
-26724.9
-35112.5
-27088.9
-35774.3
-27805.8
-36230.7
-28274.4
-37084.7
-27974.5
-36749.7
-27652.6
-36190
-27156.2
-35441.2
-26325.1
-34648
-24419.4
-32186.4
-21596.7
-28434.8
-17013.4
-23987.4
-11671.9
-18704.8
-8143.82
-15270.1
-4452.18
-13244.2
-3057.65
-12385.1
-2093.35
-12184.4
-2277.33
-11111.5
-2082.09
-10286.2
51.27
-8624.71
2332.14
-6.35426e+06
459040
76948.5
103903
1797.63
-27981
-30373.5
-33479.9
-28765.5
-33784.3
-29610.7
-34507.9
-30167.1
-35077.3
-29946.8
-34707.5
-29559.7
-34192.7
-29030.8
-33570.6
-28300.2
-32658.2
-26499.3
-30233.1
-23523.2
-26464.2
-19060.3
-21880
-13938
-16893.1
-10077.5
-13388.7
-6736.08
-11203.2
-5249.18
-10271.3
-4474.51
-10038.9
-4473.12
-9309.01
-4027.71
-8384.6
-2101.1
-6323.78
1154.55
-6.00637e+06
-491150
-392129
-85139.4
-62423.5
-43718.3
-36040.4
-32824.7
-30508.3
-32130
-31209.1
-32884.4
-31833
-33272.4
-31687.5
-32902.2
-31230.4
-32416.1
-30763.1
-31840.3
-30084.1
-30838.9
-28363.1
-28407.5
-25313.9
-24616.9
-20927.1
-19961.3
-15979.3
-15187.2
-11967.4
-11645.4
-8778.37
-9406.41
-7243.84
-8370.67
-6580.45
-8083.5
-6449.76
-7564.12
-5877.72
-6573.79
-3994.75
-4429.71
-1279.31
-5.12451e+06
-968805
-623145
-192814
-92849.8
-47384.1
-35285.3
-31162.8
-30503.8
-31391.9
-31651.5
-32372.4
-32330.2
-32698.8
-32225.3
-32330.1
-31741.6
-31880.5
-31303.7
-31332.4
-30614.5
-30277.4
-28914.8
-27843.7
-25822.6
-24055.3
-21477.5
-19399.3
-16654.6
-14766.5
-12585.3
-11200.6
-9466.3
-8947.35
-7893.35
-7862.98
-7262.7
-7525.65
-7048.05
-7065.86
-6421.59
-5988.55
-4620.96
-3636.73
-1217.14
-5.81198e+06
-1.53404e+06
-657967
-95503.1
-8767.62
-3409.76
-16860.7
-24079.9
-28401.5
-30613.5
-31827.8
-32225.2
-32628.5
-32512.9
-32530.7
-32147.3
-32047.3
-31709.5
-31606.8
-31139.1
-30888.5
-30038.4
-29189.2
-27601.6
-26095.4
-23809.6
-21773.4
-19174.3
-17028.5
-14607.2
-12950.7
-11035.7
-9855.82
-8768.61
-8276.38
-7658.76
-7635.75
-7289.74
-7325.31
-6838.19
-6634.08
-5698.57
-4875.91
-3547.02
-2213.44
)
;

boundaryField
{
    AirInlet
    {
        type            calculated;
        value           uniform -1.13209e+07;
    }
    WaterInlet
    {
        type            calculated;
        value           nonuniform List<scalar> 10(-6.58634e+07 4.73388e+07 8.23367e+07 4.77536e+07 -7.57824e+07 -7.57647e+07 4.77713e+07 8.23544e+07 4.73565e+07 -6.58457e+07);
    }
    ChannelWall
    {
        type            calculated;
        value           nonuniform List<scalar> 
110
(
-7.57824e+07
-1.95838e+06
-403248
3.43915e+06
9.57641e+06
-7.57647e+07
-1.94169e+06
-387976
3.45292e+06
9.58813e+06
-6.58457e+07
-1.2147e+07
-1.6416e+06
-2.14431e+06
-7.06291e+06
-5.81198e+06
-1.53404e+06
-657967
-95503.1
-8767.66
-3409.81
-16860.8
-24079.9
-28401.6
-30613.5
-31827.8
-32225.3
-32628.5
-32513
-32530.8
-32147.3
-32047.3
-31709.6
-31606.8
-31139.1
-30888.5
-30038.5
-29189.2
-27601.6
-26095.4
-23809.7
-21773.4
-19174.4
-17028.5
-14607.3
-12950.8
-11035.7
-9855.87
-8768.65
-8276.42
-7658.8
-7635.8
-7289.78
-7325.35
-6838.23
-6634.12
-5698.61
-4875.95
-3547.06
-2213.49
-6.58634e+07
-1.2164e+07
-1.6571e+06
-2.1578e+06
-7.07388e+06
-5.81973e+06
-1.53902e+06
-660607
-96912.3
-9051.48
-3174.06
-16145.6
-23252.1
-27465.3
-29819.1
-31141.5
-31781
-32332.8
-32533.8
-32705.2
-32521.8
-32407.1
-32086
-31806.2
-31187.4
-30690.9
-29829.2
-28912.9
-27428.1
-25877.8
-23637.6
-21453.9
-18855
-16568.8
-14104.3
-12258.5
-10287.7
-8997.12
-7918.11
-7320.89
-6802.15
-6747.32
-6514.26
-6653.09
-6251.81
-6115.92
-5029.43
-4137.15
-2379.28
-1082.93
)
;
    }
    Outlet
    {
        type            calculated;
        value           nonuniform List<scalar> 
11
(
-0.044145
-0.132435
-0.220725
-0.308995
-0.395339
-0.334749
-0.580801
-0.671942
-0.760274
-0.848565
-0.936855
)
;
    }
    FrontAndBack
    {
        type            empty;
    }
}


// ************************************************************************* //
