/*--------------------------------*- C++ -*----------------------------------*\
| =========                 |                                                 |
| \\      /  F ield         | OpenFOAM: The Open Source CFD Toolbox           |
|  \\    /   O peration     | Version:  2.3.0                                 |
|   \\  /    A nd           | Web:      www.OpenFOAM.org                      |
|    \\/     M anipulation  |                                                 |
\*---------------------------------------------------------------------------*/
FoamFile
{
    version     2.0;
    format      ascii;
    class       volScalarField;
    location    "0.09";
    object      epsilon.air;
}
// * * * * * * * * * * * * * * * * * * * * * * * * * * * * * * * * * * * * * //

dimensions      [0 2 -3 0 0 0 0];

internalField   nonuniform List<scalar> 
6000
(
120.746
17.3041
10.5585
9.50648
9.20491
9.09499
9.05018
9.04181
9.04925
9.06168
9.07346
9.08257
9.08859
9.09216
9.09391
9.0942
9.0926
9.089
9.08293
9.07377
9.06196
9.04952
9.04213
9.05071
9.09553
9.20536
9.50695
10.5587
17.3043
120.742
64.6003
21.5921
13.3117
10.9463
10.1404
9.80612
9.64844
9.56625
9.53706
9.53836
9.55129
9.56575
9.5775
9.58517
9.58961
9.59064
9.58675
9.57904
9.5672
9.55265
9.5397
9.5385
9.5678
9.64964
9.80678
10.1405
10.9457
13.3099
21.586
64.5767
39.4841
19.3279
13.0774
10.8252
9.87532
9.42349
9.19519
9.07971
9.02839
9.01154
9.0114
9.0173
9.02398
9.029
9.03197
9.03247
9.02991
9.02491
9.01816
9.01219
9.0123
9.02916
9.08052
9.196
9.42412
9.87573
10.8249
13.0754
19.3212
39.4681
27.4532
15.3468
11.8402
10.1551
9.25808
8.78079
8.52914
8.40027
8.3381
8.31155
8.30307
8.30267
8.30488
8.30712
8.30841
8.30858
8.3074
8.30517
8.30295
8.30333
8.31184
8.33845
8.40068
8.52963
8.7814
9.25893
10.1554
11.8387
15.3422
27.4459
21.1792
12.1956
10.1833
9.11844
8.4643
8.07493
7.85551
7.73611
7.67364
7.64273
7.6289
7.62369
7.6223
7.62219
7.62226
7.62237
7.62231
7.62245
7.62387
7.62913
7.64308
7.67416
7.73681
7.85631
8.07588
8.46563
9.1198
10.1838
12.1943
21.1802
16.8766
9.80159
8.60603
8.01505
7.61262
7.35082
7.20154
7.11829
7.06978
7.04126
7.02522
7.01677
7.01255
7.01053
7.0097
7.00976
7.0106
7.01264
7.01688
7.02539
7.04155
7.07026
7.11896
7.20227
7.35141
7.61322
8.01572
8.60638
9.80179
16.88
13.2204
7.96848
7.18643
6.92962
6.7588
6.63033
6.55841
6.52447
6.50295
6.48556
6.47237
6.46346
6.45796
6.45486
6.45352
6.45359
6.45497
6.45806
6.46355
6.47248
6.48577
6.5033
6.5249
6.55859
6.62969
6.75724
6.92721
7.18326
7.96454
13.202
10.3393
6.56493
6.04377
5.98527
5.97957
5.96439
5.95794
5.96551
5.97221
5.97087
5.96509
5.95886
5.95401
5.9509
5.94945
5.94949
5.95094
5.954
5.95879
5.965
5.97083
5.97227
5.96559
5.95754
5.96259
5.97605
5.9807
6.03761
6.55121
10.28
8.32913
5.5019
5.19827
5.25276
5.33404
5.38926
5.42805
5.46305
5.48999
5.50381
5.50753
5.50649
5.50423
5.50231
5.50129
5.50127
5.50223
5.50405
5.50621
5.50717
5.50348
5.48983
5.46304
5.42759
5.38716
5.33002
5.24946
5.19402
5.48225
8.24547
7.06572
4.76152
4.60743
4.71978
4.8274
4.91247
4.97638
5.02632
5.06422
5.08844
5.10081
5.10583
5.10731
5.10746
5.10731
5.10726
5.1073
5.10703
5.10541
5.10032
5.088
5.0641
5.02663
4.97655
4.91095
4.82364
4.71783
4.60712
4.75018
7.00302
6.48765
4.32474
4.21306
4.3292
4.43326
4.52324
4.59643
4.65259
4.69465
4.724
4.7423
4.75251
4.75777
4.76027
4.76122
4.76116
4.76009
4.75745
4.75206
4.74179
4.72364
4.69478
4.65348
4.5976
4.52278
4.42973
4.32643
4.2193
4.33766
6.51803
6.45801
4.11489
3.95746
4.02942
4.12042
4.20512
4.2767
4.33299
4.37554
4.40662
4.42806
4.44182
4.45011
4.45469
4.4567
4.45664
4.4545
4.4498
4.4414
4.42761
4.4064
4.37596
4.33447
4.27896
4.20628
4.1182
4.02582
3.96286
4.14363
6.55727
6.56967
4.00527
3.77663
3.7976
3.86782
3.94163
4.00593
4.05847
4.09962
4.13083
4.15366
4.16951
4.17984
4.18595
4.18876
4.1887
4.18577
4.17955
4.16913
4.15329
4.13076
4.10035
4.06062
4.00969
3.94551
3.86927
3.79585
3.77765
4.04638
6.74331
6.62871
3.91131
3.6307
3.61367
3.65962
3.71855
3.77388
3.82138
3.8603
3.891
3.91435
3.93132
3.94288
3.94998
3.95332
3.95326
3.94981
3.9426
3.93096
3.91403
3.89102
3.86131
3.82436
3.77979
3.72715
3.66899
3.62028
3.63602
3.96071
6.90774
6.54023
3.81158
3.50261
3.45758
3.48226
3.52641
3.57302
3.61565
3.65214
3.68199
3.7054
3.7229
3.73516
3.74285
3.7465
3.74645
3.74268
3.73488
3.72253
3.70504
3.68196
3.65314
3.61899
3.58058
3.53995
3.50172
3.47886
3.51787
3.84623
6.83744
6.20452
3.71406
3.38722
3.32511
3.33209
3.36287
3.40075
3.4381
3.47161
3.50001
3.52294
3.5405
3.55303
3.56101
3.56484
3.56479
3.56083
3.55272
3.54006
3.52242
3.49961
3.47186
3.44019
3.40667
3.37507
3.35123
3.34462
3.39288
3.69779
6.47393
6.03818
3.64905
3.30365
3.22328
3.21411
3.2306
3.25774
3.2879
3.31697
3.34283
3.36445
3.38143
3.39381
3.40181
3.40569
3.40564
3.40163
3.39348
3.3809
3.36366
3.34175
3.31568
3.28678
3.25756
3.23261
3.21887
3.22287
3.27658
3.54973
5.86787
6.05682
3.60628
3.25052
3.1547
3.12916
3.12945
3.14313
3.16386
3.18681
3.20888
3.22826
3.244
3.25574
3.26346
3.26725
3.2672
3.2633
3.25542
3.24341
3.22722
3.20709
3.18379
3.15892
3.13539
3.11829
3.11503
3.13585
3.20148
3.46865
5.52481
6.09139
3.5857
3.2107
3.11192
3.07549
3.05644
3.05366
3.06317
3.07887
3.09631
3.11278
3.12675
3.13746
3.14464
3.1482
3.14817
3.14451
3.13719
3.1262
3.11169
3.09417
3.07478
3.0556
3.04026
3.03438
3.04485
3.08547
3.17216
3.45768
5.54455
6.03367
3.54468
3.17969
3.08249
3.0399
3.00305
2.98307
2.98138
2.9899
3.00267
3.01605
3.02801
3.03746
3.04391
3.04716
3.04714
3.04385
3.0373
3.02763
3.01521
3.00086
2.98617
2.97394
2.96887
2.97741
3.00555
3.06212
3.17293
3.50854
5.76539
5.99274
3.52196
3.15983
3.03816
2.98864
2.94927
2.92137
2.91289
2.91625
2.92521
2.93582
2.94582
2.95395
2.95961
2.96249
2.96249
2.95962
2.95395
2.94574
2.93555
2.92454
2.91479
2.91005
2.91662
2.94277
2.99145
3.06266
3.18991
3.56881
5.89118
5.75727
3.44328
3.12207
3.00403
2.93816
2.89229
2.86471
2.85457
2.8553
2.86161
2.86995
2.87816
2.88501
2.88985
2.89235
2.89237
2.88992
2.88514
2.87838
2.87035
2.86243
2.85713
2.85896
2.87537
2.91631
2.97942
3.0644
3.19874
3.56044
5.92945
5.13763
3.30176
3.09723
3.01074
2.92474
2.85343
2.8206
2.80796
2.80633
2.81032
2.81659
2.82312
2.82874
2.83277
2.83487
2.83489
2.83286
2.82893
2.82352
2.8174
2.81205
2.81007
2.81599
2.83697
2.88257
2.94789
3.03997
3.18381
3.53547
5.95442
4.90866
3.24032
3.12358
3.04419
2.92702
2.83526
2.792
2.77391
2.76874
2.77002
2.77413
2.779
2.78339
2.78661
2.78831
2.78833
2.78668
2.78355
2.77936
2.77492
2.77166
2.77205
2.78009
2.80194
2.84678
2.92597
3.03145
3.12683
3.39785
5.59142
5.18316
3.33196
3.22624
3.08918
2.93276
2.82782
2.77445
2.75019
2.74088
2.73915
2.741
2.74416
2.74733
2.74977
2.75108
2.75108
2.7498
2.74742
2.74437
2.74149
2.74016
2.74275
2.75316
2.77789
2.82851
2.92858
3.04827
3.14494
3.3131
5.02161
5.51111
3.58644
3.37066
3.15387
2.94779
2.82782
2.76495
2.73438
2.72076
2.71596
2.71555
2.71706
2.71907
2.72075
2.72169
2.72169
2.72075
2.71908
2.71713
2.71574
2.71636
2.72141
2.73508
2.76489
2.82514
2.94135
3.11427
3.23812
3.3589
5.09282
5.67597
3.8742
3.54072
3.21937
2.97456
2.83457
2.76192
2.7247
2.70667
2.69882
2.69626
2.69622
2.69715
2.69815
2.69876
2.69875
2.69814
2.69714
2.69622
2.69629
2.69885
2.70655
2.72397
2.7596
2.82935
2.96572
3.19448
3.41242
3.5099
5.53163
5.6384
3.93219
3.59575
3.25935
2.9985
2.84522
2.76246
2.71908
2.69693
2.68627
2.68172
2.68029
2.68027
2.68067
2.68099
2.68099
2.68069
2.6803
2.68035
2.68179
2.68627
2.69666
2.71804
2.75988
2.83998
2.99492
3.27067
3.58416
3.78566
5.67085
5.61255
3.78591
3.55902
3.25115
3.00096
2.84869
2.76222
2.71506
2.68986
2.67694
2.67076
2.66815
2.66732
2.66721
2.6673
2.66732
2.66729
2.66745
2.66837
2.67107
2.67735
2.69034
2.71563
2.7634
2.85407
3.02248
3.31746
3.71788
4.05725
5.80886
5.63937
3.79221
3.5175
3.21717
2.98882
2.84484
2.75981
2.71121
2.68429
2.66983
2.66241
2.65888
2.65739
2.65687
2.65676
2.65681
2.65702
2.65766
2.65933
2.66313
2.671
2.6863
2.71505
2.76805
2.86527
3.03914
3.32948
3.71411
4.1026
5.86252
5.85577
3.89938
3.52739
3.19796
2.97406
2.83726
2.75549
2.70738
2.67977
2.66434
2.65602
2.65177
2.64976
2.64892
2.64865
2.64872
2.64913
2.65017
2.65246
2.65717
2.6663
2.68335
2.71438
2.76997
2.86835
3.03803
3.31297
3.67503
4.01866
5.95822
6.15791
4.04747
3.58004
3.20644
2.97186
2.83404
2.75282
2.70467
2.67645
2.66024
2.6512
2.64636
2.64391
2.64279
2.64241
2.64249
2.64305
2.6444
2.64719
2.65259
2.66265
2.68082
2.71298
2.76908
2.8654
3.02666
3.2825
3.63986
4.05063
6.0429
6.33262
4.22386
3.66066
3.2374
2.9821
2.83784
2.75387
2.70414
2.67464
2.65746
2.64767
2.64227
2.63944
2.63808
2.63758
2.63766
2.63834
2.63994
2.6431
2.64902
2.65971
2.67856
2.71116
2.76677
2.86028
3.01585
3.26966
3.64946
4.14195
6.25476
6.40897
4.33348
3.7364
3.28139
3.00694
2.85024
2.75921
2.70583
2.67439
2.65587
2.64522
2.63925
2.63603
2.63444
2.63382
2.6339
2.63467
2.63645
2.63991
2.64623
2.65741
2.67675
2.70967
2.76518
2.85825
3.01453
3.27561
3.68153
4.22757
6.39754
6.47449
4.30188
3.73546
3.31628
3.04069
2.86978
2.76886
2.70976
2.67525
2.65518
2.64359
2.63702
2.63343
2.63161
2.63089
2.63094
2.63179
2.63372
2.63742
2.64408
2.65569
2.67552
2.70899
2.76519
2.85952
3.01949
3.29108
3.71631
4.27222
6.43371
6.50491
4.17874
3.68428
3.31869
3.06167
2.88638
2.77771
2.71383
2.67664
2.65501
2.64249
2.63536
2.63141
2.62938
2.62855
2.62859
2.62948
2.63155
2.63547
2.64243
2.65444
2.6748
2.709
2.76632
2.86309
3.02771
3.30415
3.72341
4.24678
6.36525
6.45613
4.12501
3.61462
3.25482
3.03521
2.88289
2.77915
2.71536
2.67728
2.65479
2.64163
2.63404
2.6298
2.62758
2.62665
2.62666
2.62761
2.62979
2.6339
2.64114
2.65353
2.6744
2.70931
2.76781
2.86643
3.03327
3.30808
3.70634
4.17089
6.29041
6.2129
3.94984
3.508
3.21381
2.9968
2.8657
2.77438
2.71427
2.67693
2.65431
2.64082
2.63292
2.62844
2.62606
2.62504
2.62503
2.62602
2.62831
2.63259
2.64007
2.65276
2.674
2.7093
2.76808
2.86637
3.03092
3.29567
3.67082
4.10674
6.20935
6.15593
3.86725
3.49785
3.25816
3.014
2.85874
2.76995
2.7125
2.67617
2.65368
2.64003
2.63192
2.62724
2.62472
2.62362
2.6236
2.62463
2.62701
2.63144
2.6391
2.65202
2.67346
2.70883
2.76711
2.86336
3.0218
3.27245
3.63701
4.06797
6.06166
6.24237
3.89628
3.67224
3.37736
3.06886
2.87215
2.77248
2.71279
2.67597
2.65323
2.63935
2.63101
2.62616
2.62351
2.62234
2.62229
2.62336
2.62583
2.63038
2.63822
2.65131
2.67287
2.70813
2.76574
2.86029
3.01701
3.28037
3.6676
4.10927
6.09601
5.8656
4.07846
3.94749
3.54277
3.12546
2.89698
2.78024
2.71512
2.6766
2.65318
2.63887
2.63025
2.6252
2.62242
2.62117
2.62111
2.6222
2.62475
2.62944
2.63746
2.65077
2.67258
2.7081
2.7661
2.86217
3.02623
3.31987
3.78563
4.26697
6.4649
5.99351
4.3764
4.16308
3.59879
3.15779
2.91685
2.78961
2.71918
2.67816
2.65356
2.63867
2.62968
2.6244
2.62147
2.62015
2.62006
2.62119
2.62383
2.62867
2.63691
2.65056
2.67284
2.70913
2.76893
2.8701
3.04969
3.3826
3.92486
4.4439
6.59837
6.10992
4.6588
4.19845
3.59896
3.17152
2.93093
2.79841
2.72385
2.68038
2.65442
2.63876
2.62934
2.62378
2.6207
2.61929
2.61919
2.62035
2.62309
2.62812
2.63666
2.65078
2.67386
2.71174
2.7748
2.88304
3.07753
3.43648
4.02411
4.64956
6.61935
6.62162
4.72188
4.17969
3.58703
3.17813
2.94112
2.8061
2.72849
2.68287
2.65557
2.6391
2.62921
2.62337
2.62013
2.61864
2.61852
2.61973
2.62259
2.62782
2.63674
2.65147
2.67569
2.71558
2.78234
2.89738
3.10292
3.47662
4.08636
4.7405
6.7298
6.91516
4.73443
4.1475
3.56935
3.17877
2.94712
2.81178
2.73239
2.68518
2.65677
2.63959
2.62924
2.62314
2.61974
2.61817
2.61804
2.61931
2.6223
2.62778
2.63709
2.65255
2.67796
2.71989
2.79013
2.91065
3.12349
3.50365
4.1177
4.78286
6.92295
7.06871
4.75962
4.1117
3.54637
3.17366
2.94837
2.81476
2.73501
2.68696
2.6578
2.64007
2.62935
2.62302
2.61948
2.61786
2.61772
2.61905
2.62217
2.62789
2.63763
2.65376
2.68028
2.72399
2.79694
2.921
3.13713
3.51679
4.12676
4.81063
7.03294
7.14045
4.79439
4.0937
3.52538
3.16421
2.94608
2.81525
2.73622
2.68802
2.6585
2.64043
2.62945
2.62294
2.61931
2.61764
2.61751
2.61889
2.62215
2.6281
2.63821
2.65494
2.68237
2.7274
2.80208
2.92784
3.14413
3.51935
4.1246
4.83344
7.10539
7.12343
4.80079
4.08142
3.51003
3.15437
2.94166
2.81417
2.73632
2.68844
2.65886
2.64062
2.62949
2.62287
2.61916
2.61746
2.61735
2.61879
2.62217
2.62832
2.63874
2.65595
2.68404
2.72995
2.80553
2.93178
3.14699
3.51872
4.12381
4.8574
7.16689
6.89854
4.75192
4.05686
3.49287
3.14422
2.93666
2.81216
2.73579
2.6884
2.65893
2.64066
2.62945
2.62276
2.61901
2.61729
2.61719
2.61869
2.62217
2.62849
2.63917
2.65673
2.68528
2.73168
2.80762
2.93372
3.14769
3.51753
4.12736
4.87187
7.19162
6.82673
4.74559
4.03795
3.47443
3.13399
2.93182
2.81001
2.73493
2.68813
2.65883
2.64058
2.62934
2.6226
2.61882
2.6171
2.61702
2.61858
2.62214
2.6286
2.63948
2.65729
2.68613
2.73277
2.8087
2.93423
3.14682
3.51518
4.12542
4.85319
7.12626
7.045
4.90506
4.07097
3.46976
3.12807
2.92851
2.80835
2.73417
2.68779
2.65865
2.64043
2.62917
2.62241
2.61861
2.61689
2.61682
2.61842
2.62207
2.62864
2.63966
2.65766
2.68668
2.73339
2.80907
2.93371
3.14405
3.50771
4.10765
4.82035
6.98786
7.52017
5.16031
4.16673
3.49183
3.13158
2.92875
2.80808
2.73396
2.68765
2.65854
2.64029
2.62899
2.6222
2.61838
2.61665
2.6166
2.61823
2.62195
2.62861
2.63977
2.6579
2.68704
2.73376
2.80913
2.93271
3.14027
3.4977
4.10071
4.88291
6.97963
7.78297
5.34154
4.28598
3.54169
3.14659
2.93346
2.80975
2.73463
2.68793
2.65862
2.64025
2.62887
2.62201
2.61815
2.61641
2.61637
2.61803
2.62181
2.62856
2.63984
2.65811
2.68737
2.73414
2.80944
2.93274
3.13999
3.49979
4.14039
5.08267
7.29266
7.8623
5.44053
4.40289
3.60579
3.17373
2.94452
2.81445
2.73677
2.68893
2.65906
2.64039
2.62884
2.62187
2.61795
2.61618
2.61615
2.61785
2.62168
2.62853
2.63993
2.65838
2.68786
2.73493
2.81071
2.9352
3.14686
3.52572
4.23757
5.30934
7.72055
7.92579
5.51833
4.5066
3.66788
3.20604
2.96023
2.82213
2.74058
2.69084
2.65999
2.64079
2.62894
2.62182
2.61781
2.616
2.61596
2.61769
2.62159
2.62856
2.64014
2.65886
2.68877
2.7366
2.81392
2.9422
3.16455
3.57513
4.34816
5.47298
7.94647
7.96726
5.56066
4.56524
3.71471
3.23578
2.9771
2.83119
2.74539
2.69337
2.6613
2.64143
2.6292
2.62186
2.61773
2.61587
2.61583
2.6176
2.62158
2.6287
2.64053
2.65967
2.69033
2.73955
2.81972
2.95425
3.19098
3.63273
4.4525
5.56525
8.06308
7.98823
5.54191
4.56655
3.7358
3.25651
2.99142
2.83978
2.75031
2.69612
2.66279
2.6422
2.62955
2.62197
2.61772
2.6158
2.61576
2.61757
2.62166
2.62897
2.64114
2.66086
2.69257
2.74375
2.82768
2.96959
3.22082
3.68827
4.54355
5.63941
8.15259
7.99899
5.49545
4.53408
3.73371
3.26567
3.00059
2.84627
2.75444
2.69861
2.66423
2.64299
2.62995
2.62215
2.61777
2.6158
2.61576
2.61762
2.62184
2.62938
2.64195
2.66238
2.69533
2.74877
2.83681
2.98608
3.24936
3.73344
4.60169
5.67321
8.20567
8.02007
5.45129
4.49154
3.71982
3.26528
3.00424
2.84997
2.75723
2.70049
2.66541
2.64369
2.63035
2.62235
2.61787
2.61585
2.61582
2.61775
2.62211
2.6299
2.6429
2.66406
2.69828
2.7539
2.84565
3.00094
3.27198
3.76186
4.62168
5.65183
8.22518
8.01107
5.41459
4.46132
3.70269
3.25991
3.00362
2.851
2.75856
2.70161
2.66623
2.64424
2.6307
2.62257
2.61801
2.61596
2.61594
2.61794
2.62244
2.63047
2.64386
2.66568
2.70098
2.75831
2.85267
3.01149
3.28507
3.77003
4.60277
5.57425
8.17878
7.80242
5.35304
4.43685
3.6857
3.25149
3.00012
2.85
2.75859
2.702
2.66667
2.64462
2.63099
2.62279
2.61819
2.61612
2.61613
2.61819
2.62281
2.63103
2.64475
2.66705
2.70305
2.76132
2.8567
3.01589
3.2867
3.76044
4.56053
5.45896
8.03648
7.56645
5.31203
4.4066
3.665
3.23972
2.99375
2.84728
2.75764
2.70181
2.66679
2.64485
2.63123
2.62302
2.6184
2.61634
2.61637
2.61849
2.62319
2.63156
2.64547
2.66801
2.70423
2.76251
2.85717
3.01382
3.2776
3.73235
4.49618
5.32805
7.70769
7.48764
5.3378
4.37221
3.6387
3.22446
2.98562
2.84333
2.7559
2.7012
2.6667
2.64499
2.63147
2.62329
2.61868
2.61663
2.61668
2.61883
2.62359
2.63202
2.64598
2.6685
2.70447
2.76196
2.85459
3.00598
3.25823
3.6902
4.42932
5.27506
7.46447
7.62933
5.50045
4.37251
3.61877
3.21047
2.97769
2.83923
2.75395
2.70042
2.66653
2.64511
2.63173
2.6236
2.61903
2.61699
2.61705
2.61922
2.62399
2.63242
2.64631
2.6686
2.70398
2.76002
2.84934
2.99393
3.2338
3.64595
4.3768
5.37392
7.404
8.09355
5.75433
4.41743
3.61621
3.20328
2.97229
2.83607
2.75237
2.6998
2.66645
2.64531
2.63207
2.62402
2.61946
2.61745
2.61751
2.61968
2.62443
2.6328
2.64654
2.66845
2.703
2.75736
2.8434
2.98192
3.21234
3.61505
4.37699
5.60395
7.72897
8.60105
6.02553
4.51366
3.63718
3.20651
2.97149
2.83493
2.75172
2.69964
2.66662
2.64569
2.63256
2.62455
2.62003
2.61801
2.61807
2.62023
2.62494
2.63322
2.64676
2.66829
2.70209
2.75508
2.83885
2.97424
3.20276
3.61355
4.44914
5.94832
8.43683
8.99382
6.21064
4.615
3.67851
3.21975
2.97541
2.83619
2.75231
2.70013
2.66718
2.64632
2.63322
2.62523
2.62069
2.61865
2.6187
2.62086
2.62555
2.63376
2.64714
2.66839
2.70174
2.75408
2.83729
2.97339
3.20788
3.64178
4.56937
6.24388
9.00754
9.21569
6.25658
4.69837
3.72926
3.24155
2.98446
2.84018
2.7544
2.70152
2.6683
2.6473
2.63412
2.62609
2.62151
2.61948
2.61952
2.62163
2.62632
2.63449
2.64781
2.66896
2.70223
2.75474
2.83898
2.97881
3.22582
3.69399
4.67805
6.33102
9.28682
9.36564
6.24483
4.75869
3.7791
3.26704
2.99708
2.84676
2.75816
2.70393
2.67004
2.6487
2.63533
2.62716
2.62254
2.62043
2.62046
2.62261
2.6273
2.6355
2.64891
2.67021
2.70385
2.75733
2.84414
2.99066
3.25355
3.75522
4.76298
6.30372
9.44426
9.40378
6.18606
4.80103
3.82289
3.29307
3.01161
2.85507
2.76319
2.70724
2.67241
2.65053
2.63686
2.62851
2.62375
2.6216
2.62161
2.62379
2.62855
2.6369
2.65052
2.67225
2.70672
2.76191
2.85233
3.00646
3.2849
3.8149
4.82179
6.22469
9.47186
9.20963
6.10721
4.82422
3.85313
3.31549
3.02589
2.86402
2.76901
2.71123
2.67532
2.6528
2.63871
2.63013
2.62524
2.62307
2.62307
2.62524
2.63012
2.63868
2.65266
2.67502
2.71061
2.76785
2.86209
3.02331
3.31444
3.86192
4.8583
6.13008
9.22945
8.85697
5.97914
4.80281
3.86014
3.32862
3.03709
2.87218
2.77488
2.71554
2.6786
2.6554
2.6409
2.63202
2.62702
2.6247
2.62469
2.62699
2.63199
2.64081
2.65525
2.67834
2.7151
2.77427
2.87166
3.03776
3.33466
3.88115
4.84629
5.99867
8.86058
8.59167
5.87136
4.7493
3.84474
3.33064
3.04355
2.87851
2.78016
2.71977
2.68201
2.65822
2.64332
2.6342
2.62897
2.62663
2.62663
2.62898
2.63418
2.64329
2.65817
2.68193
2.71971
2.78031
2.87948
3.04706
3.34211
3.87154
4.79147
5.88604
8.63704
8.33672
5.83527
4.70339
3.81202
3.32325
3.04531
2.88258
2.78441
2.72358
2.68527
2.66103
2.64578
2.63644
2.63109
2.62869
2.62869
2.6311
2.63648
2.64584
2.66112
2.68544
2.72394
2.78529
2.88474
3.05067
3.3369
3.84124
4.74496
5.84242
8.37519
8.07068
5.85088
4.67923
3.77552
3.31073
3.04346
2.88455
2.78756
2.72685
2.68835
2.66384
2.64833
2.63877
2.63333
2.63082
2.63083
2.63336
2.63884
2.64845
2.66406
2.68873
2.72759
2.78899
2.88738
3.04933
3.32413
3.79998
4.71803
5.84683
8.13665
7.98756
5.80097
4.57236
3.72001
3.29024
3.03752
2.88416
2.78933
2.72932
2.69093
2.66632
2.65068
2.64102
2.63543
2.63292
2.63294
2.63551
2.64114
2.65089
2.66666
2.69151
2.73033
2.79108
2.88725
3.04308
3.30053
3.73572
4.60301
5.84689
8.07673
8.23478
5.83665
4.4656
3.67734
3.26664
3.02899
2.88243
2.79025
2.73125
2.69318
2.66863
2.65295
2.64322
2.63761
2.63508
2.6351
2.63769
2.64339
2.65321
2.66905
2.69388
2.73236
2.79199
2.88511
3.03288
3.27146
3.68114
4.46762
5.89206
8.29292
8.72775
6.26257
4.58954
3.68192
3.25446
3.02351
2.88147
2.79109
2.73282
2.69506
2.67061
2.65498
2.64525
2.63966
2.63712
2.63715
2.63974
2.64543
2.65527
2.67108
2.69581
2.73398
2.79281
2.88371
3.02582
3.25508
3.67686
4.57542
6.2417
8.8571
8.85078
6.60492
4.84357
3.73061
3.26623
3.02736
2.88373
2.79291
2.73459
2.69686
2.67248
2.65693
2.64731
2.64175
2.63926
2.63929
2.64184
2.64746
2.65723
2.67297
2.69761
2.73576
2.79469
2.88619
3.02988
3.26759
3.72971
4.83081
6.54657
9.02342
8.51447
6.61674
5.03656
3.81951
3.30092
3.04114
2.89004
2.79645
2.73706
2.69899
2.67458
2.65905
2.64946
2.64396
2.64143
2.64145
2.64406
2.64963
2.65934
2.67506
2.69975
2.73825
2.79833
2.89298
3.0452
3.30667
3.83262
5.0375
6.53288
8.46133
8.48881
6.53776
5.11031
3.91017
3.34562
3.0618
2.89968
2.80139
2.74008
2.70124
2.67658
2.66101
2.65146
2.64602
2.64351
2.64356
2.64613
2.65166
2.66132
2.67704
2.702
2.74129
2.80339
2.90296
3.06718
3.35444
3.92685
5.10184
6.44654
8.35199
9.02755
6.53401
5.14381
3.99635
3.39261
3.08503
2.91143
2.80782
2.74411
2.70428
2.67919
2.6635
2.65391
2.6485
2.64606
2.64611
2.64859
2.65408
2.66377
2.67963
2.70499
2.74527
2.80974
2.91461
3.09028
3.40064
4.00697
5.11864
6.42443
8.82179
9.79458
6.61876
5.20516
4.08643
3.43937
3.10775
2.92315
2.81456
2.74858
2.70772
2.68217
2.66627
2.65657
2.65111
2.64862
2.64864
2.65117
2.65668
2.66647
2.68255
2.70834
2.7496
2.81624
2.92585
3.11189
3.44471
4.09001
5.17376
6.52689
9.62702
10.225
6.65833
5.28042
4.17699
3.48774
3.13141
2.93601
2.82263
2.75439
2.71238
2.68626
2.67003
2.66018
2.65458
2.65207
2.65208
2.65462
2.66027
2.67021
2.68655
2.71289
2.75523
2.82398
2.9381
3.13436
3.491
4.17701
5.25535
6.60212
10.1402
10.3263
6.62108
5.34521
4.26033
3.53314
3.15364
2.94842
2.83067
2.76039
2.71741
2.69079
2.67428
2.66428
2.65856
2.65601
2.65601
2.65859
2.66434
2.67441
2.69101
2.71779
2.76103
2.83168
2.94991
3.15566
3.53533
4.26026
5.32857
6.59384
10.2804
10.1008
6.49308
5.37487
4.31822
3.5666
3.17113
2.95866
2.83775
2.76605
2.7224
2.69544
2.67878
2.66866
2.66294
2.66037
2.66037
2.66296
2.66871
2.67886
2.69559
2.72266
2.76649
2.83842
2.95964
3.17245
3.56823
4.31972
5.37016
6.48707
10.0999
9.45361
6.28931
5.36805
4.3413
3.5819
3.18127
2.96609
2.84411
2.77196
2.72807
2.70096
2.68422
2.67406
2.66827
2.66564
2.66564
2.66829
2.67409
2.68427
2.70106
2.72823
2.77221
2.84448
2.96662
3.18203
3.58316
4.3444
5.37032
6.29309
9.46399
8.97626
6.14333
5.32873
4.32313
3.57454
3.18045
2.96812
2.84754
2.77609
2.73261
2.70575
2.68913
2.67905
2.67332
2.67076
2.67076
2.67334
2.67908
2.68917
2.70581
2.73268
2.77619
2.84767
2.96833
3.18085
3.57552
4.32706
5.33675
6.15411
8.99095
8.77631
6.1067
5.27818
4.26838
3.54725
3.17003
2.96514
2.8481
2.7786
2.73621
2.70999
2.69375
2.68387
2.67822
2.67564
2.67564
2.67823
2.68389
2.69377
2.71001
2.73622
2.7786
2.84809
2.96514
3.17015
3.54796
4.27217
5.2888
6.1222
8.7948
8.74282
6.2209
5.24885
4.18744
3.50471
3.15154
2.95826
2.84696
2.78048
2.73974
2.71439
2.6986
2.68893
2.68339
2.68086
2.68086
2.68339
2.68893
2.69858
2.71435
2.73967
2.78039
2.84684
2.95815
3.15156
3.50539
4.19096
5.2628
6.2422
8.76289
8.98483
6.52505
5.26688
4.10045
3.45724
3.1291
2.94864
2.84402
2.78111
2.74234
2.71816
2.70305
2.69382
2.68859
2.68626
2.68625
2.68858
2.69379
2.703
2.71809
2.74225
2.78098
2.84386
2.94849
3.12908
3.45784
4.10342
5.28278
6.55036
9.0099
9.60016
6.96223
5.31295
4.02271
3.41459
3.10776
2.93905
2.84088
2.78161
2.74499
2.72214
2.70793
2.69932
2.69446
2.69224
2.69223
2.69443
2.69927
2.70787
2.72205
2.74487
2.78146
2.84071
2.93891
3.10779
3.41515
4.02489
5.32618
6.99047
9.62853
10.3026
7.434
5.31337
3.96402
3.38172
3.09107
2.93192
2.83937
2.78349
2.74899
2.72743
2.71397
2.70575
2.70103
2.69887
2.69886
2.70101
2.7057
2.7139
2.72733
2.74885
2.78332
2.8392
2.93181
3.0912
3.38252
3.96631
5.32255
7.46246
10.3319
10.7558
7.81541
5.31281
3.93301
3.36058
3.07905
2.92675
2.83893
2.78618
2.75365
2.73329
2.7205
2.71258
2.70795
2.70583
2.70582
2.70792
2.71253
2.72042
2.73318
2.75352
2.78603
2.83881
2.92672
3.07932
3.36167
3.93587
5.32164
7.84165
10.7803
10.9555
7.96432
5.30272
3.91533
3.34678
3.0705
2.92323
2.83925
2.78913
2.75838
2.73922
2.72724
2.71989
2.71566
2.71372
2.71371
2.71563
2.71982
2.72716
2.73911
2.75825
2.789
2.83914
2.92326
3.07085
3.3479
3.9183
5.31093
7.98826
10.9748
11.0349
7.93803
5.25916
3.89593
3.33595
3.06496
2.92204
2.84137
2.79371
2.76462
2.74659
2.73542
2.72864
2.72487
2.72317
2.72316
2.72483
2.72857
2.73533
2.74649
2.76449
2.79358
2.84127
2.92206
3.06528
3.33701
3.89864
5.26621
7.95928
11.0523
11.1435
7.75864
5.16157
3.86492
3.32497
3.06162
2.92316
2.84562
2.80015
2.77266
2.75581
2.74557
2.73942
2.73591
2.73432
2.7343
2.73588
2.73936
2.74548
2.7557
2.77253
2.80001
2.84552
2.92316
3.06187
3.32587
3.86715
5.16699
7.7752
11.1607
11.1966
7.48412
5.02472
3.82244
3.31218
3.05911
2.92583
2.85132
2.80815
2.78256
2.76724
2.75809
2.75264
2.74953
2.7481
2.74808
2.74948
2.75257
2.75798
2.76711
2.78242
2.808
2.85121
2.92582
3.05936
3.31298
3.82436
5.02953
7.49726
11.2129
11.3391
7.12171
4.87357
3.77817
3.29993
3.05861
2.93123
2.86056
2.8201
2.79673
2.78312
2.77507
2.77045
2.76795
2.76688
2.76686
2.76789
2.77035
2.77495
2.78297
2.79654
2.81991
2.86039
2.93114
3.05875
3.30061
3.78003
4.87769
7.13466
11.344
11.4771
6.76978
4.76002
3.75079
3.29608
3.06456
2.94316
2.8767
2.83935
2.81825
2.80644
2.79997
2.79662
2.79504
2.79446
2.79443
2.79497
2.79649
2.79981
2.80624
2.81802
2.83911
2.87645
2.94297
3.06454
3.29653
3.75249
4.76379
6.78184
11.4838
11.0804
6.48507
4.69671
3.74217
3.30391
3.08115
2.96531
2.9029
2.86907
2.85091
2.84161
2.83729
2.83557
2.8351
2.83504
2.83501
2.835
2.83541
2.83707
2.84135
2.85063
2.86877
2.9026
2.96505
3.08102
3.30415
3.74372
4.70046
6.49549
11.0997
9.58655
6.20956
4.64029
3.73798
3.3209
3.10931
3.00041
2.9434
2.91418
2.90003
2.89415
2.8926
2.89305
2.89411
2.89488
2.89483
2.89398
2.89283
2.89231
2.8938
2.89966
2.91378
2.943
3.00005
3.10907
3.32096
3.73911
4.64511
6.22179
9.60937
8.79935
6.1027
4.58286
3.73524
3.34629
3.15062
3.05212
3.003
2.98013
2.97138
2.9699
2.97181
2.97481
2.97754
2.97912
2.97904
2.97734
2.97449
2.9714
2.96942
2.97085
2.97957
3.00244
3.05156
3.15015
3.34607
3.73594
4.58686
6.11661
8.81175
8.61558
6.12473
4.52741
3.74492
3.38948
3.21391
3.12794
3.08789
3.07237
3.06954
3.07269
3.07787
3.08291
3.08658
3.08843
3.08834
3.08631
3.08249
3.07733
3.07205
3.06883
3.0716
3.08708
3.1271
3.21308
3.38882
3.74521
4.53033
6.13837
8.62452
8.75714
6.2128
4.50835
3.78346
3.46126
3.30648
3.234
3.20374
3.19531
3.19766
3.20465
3.21273
3.21964
3.22421
3.22633
3.22623
3.22388
3.21912
3.21205
3.20385
3.19678
3.19435
3.20269
3.23288
3.30531
3.46009
3.78303
4.50989
6.22262
8.76487
9.63881
6.51388
4.58456
3.87197
3.57085
3.43148
3.37092
3.35045
3.34987
3.35852
3.37014
3.38164
3.39118
3.39767
3.40078
3.40064
3.39726
3.39054
3.3808
3.36919
3.35745
3.34868
3.34916
3.36949
3.42991
3.56918
3.87086
4.58435
6.51883
9.6593
10.7917
7.05792
4.79771
4.03295
3.72908
3.59693
3.54562
3.53422
3.54169
3.55715
3.57471
3.59087
3.60404
3.61316
3.61771
3.61754
3.61266
3.60329
3.58996
3.57364
3.55594
3.54037
3.53279
3.54399
3.59501
3.72697
4.03116
4.79555
7.05982
10.8449
11.8977
7.68464
5.14058
4.28152
3.95046
3.81551
3.76881
3.76381
3.77786
3.79948
3.82273
3.84411
3.86157
3.87386
3.88009
3.87992
3.87335
3.86084
3.8432
3.82168
3.79832
3.77661
3.76242
3.76718
3.81356
3.94826
4.27952
5.13753
7.68327
11.9948
12.8166
8.32481
5.58977
4.61801
4.2412
4.09228
4.04421
4.04212
4.06056
4.08736
4.11569
4.14181
4.16311
4.17805
4.18558
4.18549
4.17779
4.16261
4.14118
4.115
4.08664
4.05982
4.04121
4.04311
4.09073
4.2394
4.61747
5.59139
8.33787
12.9644
13.6013
9.08856
6.1421
5.02724
4.59272
4.42148
4.36678
4.36516
4.38684
4.4175
4.4488
4.47711
4.49992
4.51583
4.52383
4.52398
4.51622
4.50038
4.47762
4.44937
4.41793
4.38738
4.3654
4.36678
4.42089
4.59143
5.02918
6.15415
9.11737
13.8027
13.9944
9.98645
6.75692
5.47319
4.9796
4.78566
4.7229
4.72014
4.74344
4.77617
4.8092
4.83838
4.86181
4.87805
4.88662
4.88707
4.87939
4.86377
4.84088
4.81192
4.77897
4.74648
4.7229
4.72508
4.78643
4.97877
5.47385
6.76657
9.97877
14.2056
14.078
10.7343
7.32339
5.90065
5.36231
5.15248
5.08521
5.08285
5.10758
5.1424
5.1781
5.20932
5.23402
5.2512
5.26042
5.2612
5.25352
5.2377
5.21396
5.18345
5.14863
5.1143
5.08966
5.09142
5.15578
5.36122
5.89398
7.31222
10.6608
14.2854
13.8435
11.0747
7.7642
6.26075
5.70283
5.49105
5.42845
5.43172
5.46162
5.50051
5.53979
5.57385
5.60088
5.61958
5.62975
5.63101
5.62349
5.60705
5.58182
5.54888
5.51104
5.47269
5.44372
5.44024
5.49854
5.70164
6.24283
7.71559
10.9261
13.9808
13.403
10.9388
7.88511
6.45858
5.94202
5.764
5.72714
5.747
5.78914
5.83631
5.88131
5.92031
5.95125
5.9721
5.9828
5.98439
5.97733
5.95974
5.93153
5.89439
5.85039
5.8041
5.76387
5.74481
5.777
5.93975
6.42599
7.78308
10.5931
13.1762
12.4804
10.0987
7.6868
6.44293
6.02285
5.91884
5.93069
5.98162
6.04337
6.10434
6.15827
6.2047
6.24191
6.26718
6.27836
6.28035
6.27329
6.25303
6.21975
6.17565
6.12197
6.0627
6.00385
5.95624
5.93942
6.02165
6.39629
7.54295
9.57169
12.0135
11.7781
9.04141
7.40581
6.34715
6.04501
6.02521
6.0956
6.18382
6.26723
6.34274
6.40623
6.45984
6.50317
6.53435
6.54897
6.5527
6.54495
6.52099
6.48193
6.43153
6.36776
6.29435
6.21324
6.13107
6.05491
6.04636
6.29282
7.22821
8.52759
11.1862
11.5208
8.11958
7.11197
6.24861
6.07179
6.13403
6.26691
6.39425
6.50129
6.59043
6.66471
6.72526
6.77384
6.81067
6.83224
6.83839
6.8302
6.80212
6.75755
6.70069
6.62816
6.53907
6.43331
6.31112
6.17226
6.07541
6.18518
6.8982
7.54351
10.3559
10.6509
7.20795
6.81384
6.1577
6.10691
6.24257
6.41828
6.57731
6.70329
6.81163
6.89874
6.96858
7.02518
7.06997
7.09696
7.10462
7.09854
7.06338
7.00972
6.94167
6.8557
6.74899
6.62007
6.46534
6.28345
6.10583
6.0799
6.53933
6.6563
9.50933
10.1461
6.5803
6.49359
6.11736
6.19243
6.38137
6.58372
6.74889
6.88589
7.00971
7.11845
7.19359
7.25823
7.31289
7.34702
7.35696
7.35033
7.31398
7.23645
7.16497
7.06439
6.94281
6.79725
6.62309
6.41271
6.18568
6.03787
6.22771
6.19903
9.08289
9.9773
6.31606
6.30385
6.16567
6.31845
6.52881
6.71361
6.8954
7.05174
7.19459
7.30313
7.38897
7.46424
7.53343
7.56387
7.58349
7.57754
7.52835
7.44958
7.37059
7.26024
7.12918
6.97592
6.78516
6.54476
6.30053
6.10495
6.10816
6.01359
8.77899
9.15135
6.18596
6.30397
6.41674
6.55616
6.7084
6.87798
7.0611
7.23862
7.37833
7.48504
7.57355
7.64462
7.713
7.75296
7.77074
7.77732
7.74532
7.67222
7.57445
7.46392
7.3329
7.16633
6.96935
6.7614
6.57124
6.39686
6.20829
6.10819
8.04063
7.67919
6.26626
6.52595
6.93838
7.00252
7.06702
7.17745
7.34503
7.52714
7.66559
7.77173
7.85969
7.9396
7.9995
8.03562
8.05134
8.0573
8.0528
8.00635
7.89295
7.76933
7.64303
7.48492
7.29477
7.12359
6.98988
6.87163
6.42366
6.30714
7.18898
6.65226
6.1428
6.59567
7.38626
7.54623
7.4918
7.55298
7.71685
7.90432
8.05924
8.1852
8.29001
8.36532
8.40901
8.44629
8.46849
8.48111
8.49679
8.47304
8.34307
8.18319
8.02619
7.85822
7.70453
7.58725
7.52642
7.33086
6.63254
6.24891
6.74715
6.85463
6.151