/*--------------------------------*- C++ -*----------------------------------*\
| =========                 |                                                 |
| \\      /  F ield         | OpenFOAM: The Open Source CFD Toolbox           |
|  \\    /   O peration     | Version:  2.3.0                                 |
|   \\  /    A nd           | Web:      www.OpenFOAM.org                      |
|    \\/     M anipulation  |                                                 |
\*---------------------------------------------------------------------------*/
FoamFile
{
    version     2.0;
    format      ascii;
    class       volVectorField;
    location    "0.999985";
    object      U.waterMean;
}
// * * * * * * * * * * * * * * * * * * * * * * * * * * * * * * * * * * * * * //

dimensions      [0 1 -1 0 0 0 0];

internalField   nonuniform List<vector> 
10000
(
(-0.231363 -1.03645 -0.603983)
(0.0393012 -0.99803 -0.587966)
(0.0980075 -0.833315 -0.537866)
(0.152901 -0.577895 -0.365631)
(0.153758 -0.386178 -0.245743)
(0.15298 -0.284969 -0.236881)
(0.103011 -0.203052 -0.208578)
(0.0446 -0.192326 -0.20154)
(0.0133758 -0.190426 -0.188176)
(-0.00450324 -0.194087 -0.174575)
(-0.00698015 -0.198029 -0.172589)
(-0.0118253 -0.1922 -0.175255)
(-0.0327871 -0.185895 -0.190013)
(-0.0750942 -0.198528 -0.213657)
(-0.136807 -0.24498 -0.227117)
(-0.159421 -0.360948 -0.236808)
(-0.119012 -0.554996 -0.331675)
(-0.0629052 -0.733821 -0.465519)
(-0.0145208 -0.803838 -0.481467)
(0.202632 -0.79928 -0.490428)
(0.00842452 -1.13152 -0.0881848)
(-0.000994978 -1.01873 -0.0749802)
(0.000900454 -0.837827 -0.0602779)
(0.00150273 -0.439849 -0.00434354)
(0.0175668 -0.276969 -0.0745045)
(0.0141012 -0.141575 -0.289588)
(0.00141878 -0.139951 -0.252565)
(-0.0120763 -0.147817 -0.2417)
(0.00121804 -0.161057 -0.201378)
(-0.000612727 -0.171572 -0.164468)
(-0.00222396 -0.169561 -0.153628)
(-0.00314819 -0.169353 -0.163247)
(-0.00637177 -0.158189 -0.205031)
(0.00985878 -0.145096 -0.247035)
(-0.017734 -0.152757 -0.25636)
(-0.0304866 -0.273702 -0.136067)
(-0.00350064 -0.459683 -0.016737)
(-0.000561449 -0.762622 -0.0536612)
(0.00220801 -0.808178 -0.0635519)
(-0.000998638 -0.817085 -0.062285)
(0.000688611 -1.156 -0.0309115)
(0.00197849 -1.00524 -0.0207883)
(0.0034724 -0.832981 -0.0223148)
(0.000376742 -0.468908 -0.00853977)
(0.00146868 -0.291734 -0.049257)
(0.00125924 -0.17103 -0.114171)
(0.00068441 -0.164862 -0.144586)
(0.000111908 -0.166249 -0.138101)
(0.000384271 -0.177502 -0.1393)
(-0.000109629 -0.181853 -0.134498)
(-0.000760956 -0.17657 -0.128366)
(-0.00152467 -0.181963 -0.132395)
(-0.00248103 -0.179796 -0.1339)
(-0.00347591 -0.174353 -0.135452)
(-0.00506831 -0.190553 -0.120698)
(-0.00617031 -0.318493 -0.0764192)
(-0.00257047 -0.501586 -0.0152123)
(-0.00400333 -0.759309 -0.0206276)
(-0.000255016 -0.807277 -0.0220878)
(0.00121173 -0.818073 -0.0198679)
(0.00335456 -1.12583 -0.0123014)
(0.00113983 -0.97483 -0.00929384)
(0.00310663 -0.79755 -0.00602276)
(0.000133769 -0.409322 0.00693886)
(-0.000625802 -0.261791 -0.0442668)
(-0.000567642 -0.159263 -0.130036)
(0.000460906 -0.153084 -0.170896)
(8.33415e-05 -0.151879 -0.157451)
(0.00013402 -0.165836 -0.153193)
(-0.000108527 -0.170679 -0.144873)
(-0.000393521 -0.164177 -0.137886)
(-0.000844612 -0.170153 -0.143007)
(-0.00142549 -0.167111 -0.147312)
(-0.00238898 -0.162027 -0.154399)
(-0.00243727 -0.178016 -0.135898)
(-0.00268022 -0.301405 -0.0720196)
(-0.00284928 -0.446559 -0.0006894)
(-0.00412337 -0.731315 -0.00431058)
(0.000401578 -0.783175 -0.0100967)
(-0.00222894 -0.785969 -0.00542282)
(0.0011135 -1.14771 -0.0141595)
(0.00194715 -0.980173 -0.00947844)
(0.00378525 -0.822725 -0.00841146)
(0.00212614 -0.42517 0.00320085)
(0.00190963 -0.248836 -0.0454078)
(-0.000229553 -0.155182 -0.128962)
(0.000314959 -0.150598 -0.168743)
(5.31574e-05 -0.147614 -0.155124)
(0.000144996 -0.162232 -0.151187)
(-9.02627e-05 -0.166691 -0.14411)
(-0.000269329 -0.159367 -0.13784)
(-0.000655439 -0.16622 -0.142652)
(-0.00117382 -0.162932 -0.146092)
(-0.00208079 -0.157399 -0.153123)
(-0.00223816 -0.174453 -0.134043)
(-0.00534716 -0.291588 -0.0726378)
(-0.00418655 -0.453593 -0.00205167)
(-0.00581645 -0.7601 -0.00570883)
(-9.87239e-06 -0.796001 -0.00780669)
(0.000107071 -0.800578 -0.00671438)
(0.00147301 -1.15271 -0.0119326)
(0.00124781 -0.975136 -0.0077291)
(0.00321903 -0.823268 -0.00660452)
(0.00112356 -0.413177 0.00555399)
(0.000215379 -0.219601 -0.044089)
(0.000282231 -0.140485 -0.13546)
(0.000672654 -0.138453 -0.175641)
(0.000344819 -0.135174 -0.161778)
(0.000317914 -0.149668 -0.156387)
(-4.08068e-05 -0.153349 -0.14806)
(-0.000239229 -0.144317 -0.14182)
(-0.000535416 -0.152541 -0.14629)
(-0.00101855 -0.149996 -0.150309)
(-0.00191551 -0.144644 -0.159096)
(-0.00215064 -0.15916 -0.140034)
(-0.00411976 -0.266286 -0.073979)
(-0.00284348 -0.432013 -1.25375e-05)
(-0.00571006 -0.773254 -0.0044458)
(0.000716342 -0.802735 -0.00628591)
(0.000608882 -0.802223 -0.00686271)
(0.000315441 -1.16361 -0.0110895)
(0.00105224 -0.971089 -0.00668737)
(0.00328893 -0.835581 -0.00608512)
(0.00270518 -0.41329 0.005547)
(0.00265921 -0.193203 -0.0393321)
(0.00132485 -0.130939 -0.133405)
(0.0013324 -0.1292 -0.173574)
(0.000813329 -0.123815 -0.160283)
(0.000538201 -0.137 -0.154871)
(5.86039e-05 -0.140183 -0.145743)
(-0.000131582 -0.1309 -0.139244)
(-0.000363427 -0.139996 -0.143331)
(-0.000777588 -0.137786 -0.147903)
(-0.00168123 -0.133142 -0.158176)
(-0.00209341 -0.147346 -0.138912)
(-0.00584168 -0.24406 -0.0709819)
(-0.00366941 -0.422298 0.00110315)
(-0.00525582 -0.789075 -0.00445831)
(0.00108109 -0.816076 -0.00594778)
(0.000607687 -0.805104 -0.00660636)
(-0.000788657 -1.17009 -0.0108589)
(0.000474092 -0.965424 -0.00494695)
(0.00300891 -0.849825 -0.00548934)
(0.00293226 -0.412014 0.00661822)
(0.00242944 -0.141558 -0.0285916)
(0.0030628 -0.109823 -0.127222)
(0.00204607 -0.107529 -0.165442)
(0.00128546 -0.102119 -0.152734)
(0.000779629 -0.112267 -0.146128)
(0.0002504 -0.114872 -0.135451)
(4.77346e-05 -0.106876 -0.128727)
(-0.000134633 -0.115195 -0.131986)
(-0.00053605 -0.114277 -0.137444)
(-0.001337 -0.110834 -0.150305)
(-0.00234656 -0.122231 -0.132604)
(-0.00511137 -0.19706 -0.0612237)
(-0.0035053 -0.411185 0.00270348)
(-0.00477648 -0.807236 -0.00423264)
(0.00113616 -0.826798 -0.0057554)
(0.000585864 -0.804029 -0.00595154)
(-0.000208354 -1.1709 -0.0104943)
(0.000537324 -0.962789 -0.00389165)
(0.00263429 -0.868305 -0.00532426)
(0.00392634 -0.42268 0.00706412)
(0.000575628 -0.0833772 0.0115419)
(0.00037668 -0.0726095 -0.0854444)
(0.00194003 -0.069834 -0.118548)
(0.00104116 -0.0627126 -0.107652)
(0.000242148 -0.0691904 -0.100946)
(0.000621556 -0.0710493 -0.0899586)
(0.000149534 -0.0657784 -0.0837326)
(-0.000352351 -0.0722507 -0.0852893)
(-0.000207137 -0.0722743 -0.0910171)
(-0.00106182 -0.0715297 -0.105787)
(0.000479348 -0.0789031 -0.0916103)
(-0.00181779 -0.131832 -0.0167813)
(-0.00414107 -0.414024 0.00363247)
(-0.00419865 -0.821385 -0.00512291)
(0.000366677 -0.835097 -0.00497016)
(0.000562547 -0.803822 -0.00404602)
(-0.000368324 -1.17011 -0.00847732)
(0.000869435 -0.957933 -0.00199171)
(0.00271747 -0.887115 -0.00606852)
(0.00260079 -0.442711 0.00394464)
(0.00196724 -0.07479 0.00643003)
(0.000599691 -0.0381777 0.00510936)
(0.000407156 -0.0345302 0.00583321)
(0.000191392 -0.0278538 0.00543957)
(0.000248788 -0.0324062 0.00632013)
(-0.000129665 -0.0334196 0.0065059)
(3.63735e-05 -0.0291211 0.00595241)
(0.0002484 -0.0337976 0.00664306)
(2.9299e-05 -0.0330636 0.00660956)
(-0.000303422 -0.0332289 0.00632016)
(-0.000578884 -0.039123 0.00630395)
(-0.00206708 -0.061006 0.0100967)
(-0.00337874 -0.428882 0.00133653)
(-0.00383063 -0.832169 -0.0046556)
(0.000725754 -0.841863 -0.00446218)
(0.00139519 -0.805099 -0.00310664)
(-0.000735135 -1.16903 -0.00696792)
(0.000682009 -0.95762 0.000181371)
(0.00322014 -0.903969 -0.00552936)
(0.00277048 -0.452272 0.00259438)
(0.000845992 -0.0843616 0.000640762)
(-0.000368335 -0.0494434 -0.000192685)
(0.000107443 -0.0353524 -0.000206143)
(9.34747e-05 -0.0325841 0.000245277)
(-0.00016242 -0.030061 0.000483931)
(0.000198971 -0.030909 0.000344437)
(1.04993e-05 -0.0321861 0.000351376)
(-0.000152475 -0.0310075 0.000332868)
(6.01119e-06 -0.0298679 0.000522792)
(-0.000160552 -0.0307707 0.000494738)
(-0.000173864 -0.0400192 -0.000108316)
(-0.00058941 -0.0921761 -0.00158085)
(-0.00331717 -0.430577 0.000245693)
(-0.0038622 -0.842198 -0.00471978)
(0.000937426 -0.848 -0.00454014)
(0.00146413 -0.80329 -0.00229933)
(-0.000516294 -1.1637 -0.00402801)
(0.00105365 -0.957722 0.000994825)
(0.00286638 -0.919677 -0.00508227)
(0.00333886 -0.457556 0.00345994)
(0.00107061 -0.0753891 0.000909244)
(-0.000423826 -0.0452214 0.000114258)
(-9.67362e-05 -0.0472657 -0.00174897)
(1.20363e-06 -0.0302397 0.000145942)
(-8.11536e-05 -0.0369625 -0.00108351)
(0.00019861 -0.0392159 -0.0010824)
(4.29611e-05 -0.0298192 0.00015325)
(-7.08401e-05 -0.0393935 -0.00105028)
(-6.46339e-05 -0.036668 -0.000840273)
(-1.95448e-06 -0.0374915 -0.000822744)
(0.000296823 -0.0502089 -0.00124533)
(0.00110402 -0.0964209 -0.00159497)
(-0.00400517 -0.421552 0.000681906)
(-0.00395121 -0.853197 -0.00502005)
(0.000458572 -0.85118 -0.00454847)
(0.00222188 -0.795991 -0.00122549)
(-0.00299413 -1.16225 8.12332e-05)
(0.00193119 -0.954662 0.00313297)
(0.00271206 -0.936331 -0.00534245)
(0.00316199 -0.464436 0.00279947)
(0.00138558 -0.0711052 0.000810477)
(-5.23696e-05 -0.0468644 2.37577e-05)
(-0.000206868 -0.0475562 -0.000221595)
(-0.000125327 -0.031813 -0.000225309)
(0.000169789 -0.0375147 -0.000583939)
(-5.30577e-05 -0.0368574 -0.000446217)
(6.37873e-05 -0.0307913 -0.000111129)
(0.000162551 -0.0360226 -0.00032195)
(-6.27609e-05 -0.0337877 -0.000327881)
(2.53559e-05 -0.0354702 -0.000370376)
(0.000341855 -0.0473453 -0.000313658)
(0.000634048 -0.079676 0.000501868)
(-0.00349452 -0.407445 0.0015716)
(-0.00364484 -0.862629 -0.00570531)
(-8.09575e-05 -0.85523 -0.00400007)
(0.00390065 -0.790659 -0.000232608)
(-0.0057541 -1.1614 0.00129934)
(0.0021444 -0.952459 0.00392765)
(0.00187434 -0.952886 -0.00694208)
(0.00138842 -0.46919 0.0021394)
(0.000932137 -0.0653781 0.000839444)
(-0.00020873 -0.0428697 0.000175629)
(-0.000231751 -0.0453435 -0.00048375)
(-0.000196279 -0.0336143 -0.000712282)
(-8.15216e-05 -0.0413199 -0.00151246)
(5.09024e-05 -0.041565 -0.00145291)
(0.000111784 -0.0315018 -0.00061632)
(-7.96907e-05 -0.0402141 -0.00116314)
(-6.16775e-05 -0.0383655 -0.0012414)
(0.000173749 -0.0405909 -0.00130145)
(0.000524089 -0.0524697 -0.00108097)
(0.000597416 -0.0792543 0.000301046)
(-0.00237435 -0.395487 0.00217899)
(-0.00279264 -0.871758 -0.00647827)
(-0.000558648 -0.858315 -0.00500296)
(0.00557463 -0.779812 0.000909369)
(-0.00611727 -1.1556 -0.00115922)
(0.0016374 -0.942628 0.00372651)
(0.000412135 -0.959633 -0.00740588)
(-0.000774157 -0.472284 0.00062461)
(0.000529925 -0.0615297 0.000839189)
(-0.000153939 -0.0416913 0.000233473)
(-8.66476e-05 -0.0511458 -0.000387521)
(-0.000177654 -0.0398706 -0.000751011)
(-4.86979e-05 -0.0528262 -0.00148609)
(-1.60864e-05 -0.0526797 -0.00146934)
(-8.01874e-06 -0.0382093 -0.000692568)
(-2.70019e-05 -0.048265 -0.000842818)
(0.000111685 -0.0476565 -0.0010036)
(0.000273315 -0.0496369 -0.00102837)
(0.000465559 -0.0588408 -0.000620155)
(0.000248529 -0.071791 0.00081192)
(-0.00082368 -0.380667 0.00242178)
(-0.00184734 -0.873258 -0.00710847)
(-0.00129563 -0.85382 -0.0043772)
(0.00542297 -0.763566 0.00160766)
(-0.00539769 -1.1265 0.000250778)
(0.001316 -0.920527 0.00370326)
(-0.00100305 -0.959817 -0.00390091)
(-0.00221532 -0.477018 -3.90186e-05)
(0.00063059 -0.0578791 0.000869821)
(-4.0337e-05 -0.039294 0.000371909)
(4.73011e-05 -0.0459058 0.000349139)
(-7.41835e-05 -0.0387792 7.2321e-06)
(4.29522e-05 -0.0516702 -0.000388709)
(-0.000144581 -0.0520459 -0.00042617)
(-0.000174602 -0.0368517 -7.76839e-05)
(1.97111e-06 -0.045462 -0.000440021)
(0.000157939 -0.0450145 -0.000526426)
(0.000231202 -0.0469911 -0.000476345)
(0.000269072 -0.0540195 0.000165727)
(-0.000161796 -0.0681493 0.0010126)
(0.00104503 -0.365565 0.00278742)
(-0.000633388 -0.867466 -0.00639609)
(-0.00223953 -0.840259 -0.00344555)
(0.00529489 -0.733312 0.00289347)
(-0.00568675 -1.06234 0.00267111)
(0.000933773 -0.875969 0.005725)
(-0.00175173 -0.956477 -0.00085301)
(-0.00302803 -0.483605 -0.000712902)
(0.00101811 -0.0559316 0.000862105)
(-8.54929e-06 -0.0382135 0.00014389)
(0.000144348 -0.04462 0.000599569)
(4.32028e-05 -0.0368904 0.000498072)
(0.000131453 -0.0493362 0.000402719)
(-0.000192512 -0.0491344 0.000375416)
(-3.68146e-05 -0.0366261 0.000290189)
(0.00014999 -0.0495918 -0.000140814)
(-7.37403e-05 -0.0493448 -0.000264826)
(1.14327e-05 -0.0507634 -0.000132172)
(0.000162361 -0.051566 0.00029033)
(-0.000165956 -0.0648266 0.00109421)
(0.00252287 -0.349788 0.00378215)
(0.0010995 -0.851777 -0.0053775)
(-0.00243959 -0.801275 -0.002929)
(0.0043716 -0.674909 0.0037623)
(-0.00375268 -0.967503 0.00307805)
(5.67923e-05 -0.80567 0.0062893)
(-0.00214361 -0.947101 0.000748132)
(-0.00306614 -0.492552 -0.00126958)
(0.000812497 -0.0547414 0.000459069)
(0.000120809 -0.039628 -0.000271089)
(8.04645e-05 -0.0412112 0.0017722)
(0.000103016 -0.0348648 0.00046799)
(0.000372522 -0.0451737 0.00203631)
(-0.000327412 -0.0455124 0.0020511)
(7.55164e-05 -0.035319 0.000367793)
(0.000137284 -0.0444462 0.00185451)
(-0.000337301 -0.045891 0.00120815)
(-0.000110035 -0.0478439 0.000970379)
(0.000168781 -0.0507176 0.000845522)
(0.000186278 -0.063241 0.00184603)
(0.00344586 -0.328213 0.00329731)
(0.00215155 -0.825979 -0.00314179)
(-0.002104 -0.738808 -0.000472285)
(0.00250562 -0.591029 0.00389606)
(-0.00140551 -0.810241 0.00506113)
(-0.00066475 -0.69333 0.00613699)
(-0.00259922 -0.925433 0.0012386)
(-0.0030937 -0.489915 -0.000177415)
(-0.000862968 -0.0578978 -0.00104714)
(-0.000157431 -0.0425483 -0.00136309)
(-1.8353e-05 -0.036089 0.000686308)
(8.23121e-05 -0.035748 -0.000534494)
(0.000194008 -0.0378304 0.00123308)
(-0.000120046 -0.0379782 0.00135574)
(-4.18162e-05 -0.0360614 -0.000407297)
(-0.000234325 -0.0370501 0.00128608)
(-3.63673e-05 -0.0464829 -0.00112165)
(9.55785e-05 -0.0521708 -0.00229642)
(0.000343987 -0.0567471 -0.00231512)
(0.000879792 -0.0681095 -0.000539777)
(0.00361663 -0.293166 0.00653126)
(0.00347025 -0.780806 0.00306925)
(-0.00064545 -0.634296 0.00016713)
(-0.00237989 -0.46702 0.00413083)
(-0.00100675 -0.68196 0.00297129)
(-0.000642416 -0.592515 0.0037494)
(-0.00185467 -0.891696 -0.000308412)
(-0.00326354 -0.473125 -0.000362766)
(-0.0054237 -0.0736912 -0.000864406)
(-0.000511001 -0.055998 -0.0007004)
(-0.000105414 -0.0463659 -0.000666061)
(-6.1418e-05 -0.0437384 -0.000689135)
(-0.000137244 -0.0460919 -0.000372924)
(0.000138597 -0.0454365 -0.000297556)
(2.56331e-05 -0.0422949 -0.000516925)
(0.000244394 -0.0450148 -0.000327018)
(0.000379936 -0.0743996 -0.00231842)
(0.000133259 -0.093036 -0.0032169)
(0.000220637 -0.0977646 -0.00291503)
(0.00221276 -0.0968064 -0.00166344)
(0.00305944 -0.238479 0.00599598)
(0.00256358 -0.72251 0.00442386)
(0.000378702 -0.529392 0.00450041)
(-0.0020722 -0.340229 0.0077051)
(-0.245644 -1.03032 -0.541562)
(0.0419569 -0.995447 -0.526554)
(0.104571 -0.829293 -0.480229)
(0.161038 -0.579039 -0.330333)
(0.160543 -0.385017 -0.221398)
(0.15722 -0.283216 -0.217951)
(0.104709 -0.198296 -0.189581)
(0.0452007 -0.189216 -0.182829)
(0.0135916 -0.187037 -0.171275)
(-0.00464803 -0.190599 -0.158601)
(-0.00707718 -0.195014 -0.157121)
(-0.0118473 -0.188822 -0.159348)
(-0.0329825 -0.182611 -0.173111)
(-0.0759328 -0.195459 -0.195376)
(-0.139508 -0.241814 -0.208564)
(-0.165919 -0.358845 -0.2146)
(-0.125771 -0.556163 -0.298195)
(-0.0670603 -0.729679 -0.414539)
(-0.0157444 -0.80252 -0.432369)
(0.214326 -0.797568 -0.443082)
(0.00652768 -1.13341 -0.0826855)
(-0.000637423 -1.02912 -0.072858)
(0.00207763 -0.846638 -0.0589149)
(0.00320932 -0.47214 -0.00787155)
(0.0205314 -0.282718 -0.0787593)
(0.0150266 -0.139475 -0.293304)
(0.00166229 -0.13503 -0.253333)
(-0.0121903 -0.14658 -0.24261)
(0.00124331 -0.156292 -0.20236)
(-0.000607841 -0.166665 -0.164735)
(-0.00223593 -0.167719 -0.154305)
(-0.00313457 -0.16453 -0.163463)
(-0.00636469 -0.153608 -0.20589)
(0.010052 -0.140809 -0.247463)
(-0.0179738 -0.146967 -0.256937)
(-0.0331034 -0.264572 -0.13858)
(-0.00522569 -0.490679 -0.0189833)
(-0.00109149 -0.76876 -0.0516814)
(0.00222134 -0.820032 -0.0619871)
(0.000875618 -0.826004 -0.0605398)
(0.000345985 -1.17463 -0.0284892)
(0.00205369 -1.03485 -0.0201892)
(0.003652 -0.860502 -0.0214055)
(0.0010211 -0.50108 -0.00889239)
(0.00207309 -0.303969 -0.0498461)
(0.0014618 -0.174071 -0.113459)
(0.000719607 -0.162974 -0.143863)
(0.000124888 -0.167856 -0.137766)
(0.000406036 -0.17565 -0.138967)
(-0.000111152 -0.179912 -0.134379)
(-0.000754072 -0.17832 -0.128427)
(-0.0015066 -0.180234 -0.13221)
(-0.00247357 -0.17803 -0.133362)
(-0.00347351 -0.172696 -0.134537)
(-0.0051421 -0.18779 -0.119506)
(-0.00691816 -0.315517 -0.0753804)
(-0.00323952 -0.526721 -0.0152681)
(-0.00400837 -0.783661 -0.0193963)
(-0.000334018 -0.833918 -0.0210347)
(0.00163377 -0.8434 -0.0189814)
(0.00369712 -1.15498 -0.0110266)
(0.00121161 -1.01165 -0.00872037)
(0.003273 -0.835787 -0.00524657)
(0.000497791 -0.45372 0.00625341)
(-0.000707027 -0.274588 -0.0459682)
(-0.00056413 -0.162142 -0.130781)
(0.000469071 -0.151206 -0.171537)
(9.38666e-05 -0.153986 -0.158212)
(0.000147566 -0.163898 -0.153814)
(-0.000101476 -0.168788 -0.145463)
(-0.000382586 -0.166008 -0.13856)
(-0.000826875 -0.168449 -0.143622)
(-0.00141468 -0.165162 -0.147975)
(-0.00238491 -0.160042 -0.155099)
(-0.00244974 -0.174731 -0.136585)
(-0.00282739 -0.297951 -0.0731172)
(-0.0035219 -0.48392 -0.00168751)
(-0.00413016 -0.766399 -0.00319612)
(0.000458961 -0.817542 -0.0088236)
(-0.00247824 -0.820859 -0.00452024)
(0.00131668 -1.17614 -0.0132277)
(0.00211083 -1.01682 -0.00921559)
(0.00409842 -0.856477 -0.00734606)
(0.00280573 -0.463882 0.00368544)
(0.00211095 -0.262964 -0.0469712)
(-0.000244165 -0.158742 -0.12968)
(0.000304053 -0.149239 -0.169363)
(5.46386e-05 -0.150241 -0.155796)
(0.000141747 -0.160901 -0.151835)
(-8.63797e-05 -0.165446 -0.144793)
(-0.00026415 -0.161784 -0.138626)
(-0.000650656 -0.165031 -0.143331)
(-0.00116271 -0.161488 -0.146727)
(-0.00206415 -0.155922 -0.153784)
(-0.00220622 -0.171772 -0.134662)
(-0.00540698 -0.289708 -0.073948)
(-0.00512837 -0.486316 -0.00239467)
(-0.00598524 -0.792535 -0.00458859)
(-3.99867e-05 -0.83081 -0.00693037)
(8.63379e-06 -0.83531 -0.00627589)
(0.00173566 -1.18305 -0.0110166)
(0.00134366 -1.01225 -0.00774871)
(0.00346497 -0.858722 -0.00551448)
(0.00161288 -0.452541 0.0056471)
(0.00022237 -0.233278 -0.0462999)
(0.000152489 -0.144624 -0.136522)
(0.000636681 -0.137855 -0.176533)
(0.000326231 -0.138314 -0.162751)
(0.000299089 -0.149189 -0.157384)
(-3.50809e-05 -0.152853 -0.149083)
(-0.000235607 -0.147423 -0.142937)
(-0.000537799 -0.152 -0.147291)
(-0.00100809 -0.149081 -0.151248)
(-0.0018948 -0.143663 -0.160021)
(-0.00211586 -0.157421 -0.14101)
(-0.00418917 -0.265968 -0.0758323)
(-0.00370854 -0.467039 -0.000673338)
(-0.00584879 -0.805461 -0.0036432)
(0.000699562 -0.838763 -0.00560978)
(0.000554549 -0.836861 -0.00656814)
(0.00056084 -1.19452 -0.0106843)
(0.00119704 -1.00911 -0.00658577)
(0.00358352 -0.871945 -0.00498768)
(0.00330251 -0.451709 0.00606895)
(0.00248095 -0.20805 -0.0424047)
(0.00118349 -0.134762 -0.134631)
(0.00129682 -0.129076 -0.174783)
(0.000788524 -0.126523 -0.16156)
(0.000517922 -0.136805 -0.156266)
(6.51898e-05 -0.139964 -0.147167)
(-0.000130813 -0.133636 -0.140664)
(-0.00037021 -0.139707 -0.144711)
(-0.000767327 -0.13722 -0.1492)
(-0.00166004 -0.132439 -0.159415)
(-0.00203004 -0.146013 -0.140142)
(-0.00593743 -0.244747 -0.0736089)
(-0.00450158 -0.457374 0.00081822)
(-0.00548338 -0.821562 -0.00377709)
(0.00108229 -0.851792 -0.00529548)
(0.000443813 -0.84003 -0.0060019)
(-0.000545754 -1.20102 -0.0108632)
(0.000594076 -1.00427 -0.00482126)
(0.00329237 -0.886033 -0.00444493)
(0.00333725 -0.450288 0.00751611)
(0.00218304 -0.160005 -0.0329404)
(0.00302515 -0.112256 -0.129528)
(0.00202527 -0.107925 -0.167631)
(0.0012734 -0.103773 -0.154977)
(0.000764463 -0.112556 -0.148596)
(0.000259876 -0.115189 -0.137971)
(4.98215e-05 -0.108819 -0.131121)
(-0.000141458 -0.115435 -0.134457)
(-0.000530512 -0.114131 -0.139816)
(-0.00131884 -0.110516 -0.15252)
(-0.00235019 -0.12155 -0.135024)
(-0.00552953 -0.199187 -0.0654192)
(-0.00429098 -0.447594 0.00289692)
(-0.00501208 -0.838012 -0.00394838)
(0.00109505 -0.862153 -0.00517639)
(0.000442509 -0.840129 -0.00525677)
(-9.71972e-05 -1.20224 -0.0102298)
(0.000666584 -1.00206 -0.00345788)
(0.00289301 -0.903448 -0.00435557)
(0.00400022 -0.458827 0.00831858)
(0.00123279 -0.10407 0.00918587)
(0.000270516 -0.0740096 -0.0878691)
(0.00197113 -0.0700839 -0.120919)
(0.00106703 -0.0639886 -0.110054)
(0.000235258 -0.0700243 -0.103533)
(0.000667569 -0.0720017 -0.0926087)
(0.000149968 -0.0672152 -0.0862947)
(-0.000402829 -0.0731115 -0.0879198)
(-0.000230798 -0.0727319 -0.0936344)
(-0.0010951 -0.0714567 -0.108319)
(0.000452426 -0.0787618 -0.0942804)
(-0.00243041 -0.13864 -0.021334)
(-0.00447239 -0.449295 0.0043799)
(-0.00440376 -0.851622 -0.00465704)
(0.00024318 -0.870501 -0.00440056)
(0.000492379 -0.841006 -0.00367132)
(-0.000446057 -1.20311 -0.00856955)
(0.00103069 -0.998875 -0.00154008)
(0.00302204 -0.920991 -0.00501119)
(0.00253882 -0.47346 0.00480638)
(0.00222977 -0.0895716 0.00656473)
(0.000674534 -0.0420493 0.00442924)
(0.000422391 -0.0386825 0.00484761)
(0.000189742 -0.0306999 0.00454291)
(0.000250433 -0.0360245 0.00519592)
(-0.000141984 -0.0369094 0.00534047)
(3.63328e-05 -0.0316493 0.00492601)
(0.000262031 -0.0371886 0.00544241)
(3.7566e-05 -0.0364026 0.00541473)
(-0.000319449 -0.0368644 0.00519932)
(-0.000700932 -0.0433687 0.00519865)
(-0.00273088 -0.0793992 0.00870992)
(-0.00336517 -0.458076 0.00169716)
(-0.00405345 -0.861912 -0.00421034)
(0.000587857 -0.877578 -0.00414323)
(0.00138237 -0.841941 -0.00299798)
(-0.000968537 -1.20345 -0.00696751)
(0.000861016 -0.998836 0.000396991)
(0.00356553 -0.936862 -0.00458106)
(0.00275317 -0.479941 0.00317326)
(0.00107556 -0.0876669 0.000737476)
(-0.000359595 -0.0473213 1.06736e-05)
(0.00010111 -0.03371 -1.09549e-05)
(8.56129e-05 -0.0315321 0.000301551)
(-0.000162714 -0.0287203 0.00044982)
(0.000196925 -0.0295036 0.000343521)
(9.82207e-06 -0.0311789 0.000366306)
(-0.000154773 -0.0296143 0.00033149)
(5.33778e-06 -0.0285427 0.000465373)
(-0.000142415 -0.0295105 0.000455386)
(-0.000137439 -0.0378934 7.43064e-05)
(-0.00060323 -0.084986 -0.000412772)
(-0.00329261 -0.456081 -2.26641e-05)
(-0.00411509 -0.872238 -0.00455445)
(0.000803463 -0.884103 -0.00418693)
(0.00155364 -0.840169 -0.00229226)
(-0.000820576 -1.20056 -0.0039593)
(0.0012614 -0.999093 0.00124358)
(0.00323976 -0.951568 -0.00440262)
(0.00328234 -0.482775 0.00393475)
(0.00126009 -0.0795468 0.000617129)
(-0.000409175 -0.0440763 8.18447e-05)
(-9.07841e-05 -0.0446453 -0.00135998)
(-1.40767e-06 -0.0288282 0.000117321)
(-7.89163e-05 -0.0349512 -0.000872633)
(0.000191041 -0.0370786 -0.000874452)
(3.93953e-05 -0.0284846 0.000118515)
(-6.91698e-05 -0.0372519 -0.000846528)
(-6.23625e-05 -0.0346881 -0.000693925)
(9.22686e-08 -0.0354675 -0.000694672)
(0.000278817 -0.0474529 -0.00101858)
(0.00106089 -0.0932013 -0.0017291)
(-0.00393843 -0.446412 0.000346566)
(-0.00428498 -0.88201 -0.00493332)
(0.000241672 -0.888402 -0.00421716)
(0.00230165 -0.833978 -0.00134895)
(-0.00349091 -1.20047 -0.000512822)
(0.00228667 -0.997305 0.00293098)
(0.00310657 -0.966882 -0.00496444)
(0.00303386 -0.48655 0.00311781)
(0.00151101 -0.0735035 0.000614605)
(-4.37906e-05 -0.0446918 2.00098e-05)
(-0.000196112 -0.0463271 -0.000166703)
(-0.000113699 -0.0300421 -0.000163151)
(0.000166758 -0.0359088 -0.000395668)
(-5.72428e-05 -0.0360732 -0.000297627)
(5.97743e-05 -0.0292863 -8.63343e-05)
(0.000162652 -0.0355053 -0.000205729)
(-6.11473e-05 -0.0329656 -0.00020604)
(1.99108e-05 -0.0342295 -0.00023928)
(0.000312229 -0.0459108 -0.000202496)
(0.000668315 -0.0841368 0.000131679)
(-0.00341507 -0.433491 0.00108101)
(-0.0041191 -0.890603 -0.00583225)
(-0.000352338 -0.893371 -0.0040329)
(0.00402613 -0.82917 -0.000690766)
(-0.00638107 -1.20021 -0.000463199)
(0.00255726 -0.995342 0.00314527)
(0.00235054 -0.979869 -0.00671284)
(0.00139731 -0.48863 0.00236373)
(0.000946288 -0.0670669 0.00060365)
(-0.000187187 -0.0421838 9.18622e-05)
(-0.000221538 -0.0453567 -0.00035469)
(-0.000180911 -0.031824 -0.000474461)
(-7.99775e-05 -0.0398416 -0.00106057)
(4.86495e-05 -0.040329 -0.00101353)
(0.000107312 -0.03005 -0.000404286)
(-8.19688e-05 -0.0392197 -0.000786159)
(-6.17358e-05 -0.0369867 -0.00087992)
(0.000163201 -0.0388407 -0.000918603)
(0.000492471 -0.0504133 -0.00074763)
(0.000620828 -0.0830391 0.000151486)
(-0.00229678 -0.421625 0.00159244)
(-0.00338923 -0.897227 -0.00673047)
(-0.000913669 -0.896625 -0.00535795)
(0.00575927 -0.819408 -8.15287e-05)
(-0.0067575 -1.19403 -0.00268994)
(0.00199353 -0.987177 0.0023994)
(0.00099325 -0.985343 -0.006835)
(-0.000636056 -0.490399 0.000940043)
(0.000507744 -0.0626496 0.000603946)
(-0.00014216 -0.0412814 0.000174654)
(-7.74334e-05 -0.0506232 -0.000277956)
(-0.000167963 -0.0376797 -0.000503615)
(-4.99306e-05 -0.0503554 -0.00108562)
(-1.11932e-05 -0.0503037 -0.00107552)
(-1.12914e-05 -0.0357978 -0.000461242)
(-3.24004e-05 -0.0464859 -0.000659779)
(0.000107355 -0.0453663 -0.000760881)
(0.000259022 -0.047237 -0.000761352)
(0.000437873 -0.0565784 -0.000470067)
(0.000232146 -0.0778958 0.000531109)
(-0.000769357 -0.407996 0.00168297)
(-0.00252048 -0.896786 -0.00735624)
(-0.00164334 -0.893937 -0.00529009)
(0.00564788 -0.804772 7.10072e-05)
(-0.00617893 -1.16969 -0.00252867)
(0.00173172 -0.969496 0.001514)
(-0.000407372 -0.987147 -0.00360259)
(-0.00197034 -0.494193 0.000288017)
(0.000646059 -0.0586201 0.000638695)
(-4.051e-05 -0.0389588 0.000280327)
(5.72245e-05 -0.0479613 0.000219641)
(-7.07905e-05 -0.0389293 -9.66492e-06)
(3.99227e-05 -0.0528114 -0.000400744)
(-0.000139763 -0.0531876 -0.000440782)
(-0.000164186 -0.0367194 -8.70618e-05)
(9.12955e-06 -0.0466887 -0.00042802)
(0.000155419 -0.0458974 -0.000437785)
(0.000210376 -0.0477411 -0.000378184)
(0.000242522 -0.0549215 4.42233e-05)
(-0.000253921 -0.0735227 0.000767715)
(0.00108357 -0.394945 0.00189768)
(-0.00133262 -0.890835 -0.00678889)
(-0.00261022 -0.883655 -0.00548232)
(0.00565876 -0.778412 0.000210536)
(-0.00684795 -1.11788 -0.00339455)
(0.00155956 -0.935688 0.00159909)
(-0.00109448 -0.985573 -0.00107734)
(-0.00268259 -0.499616 -0.000462942)
(0.00104144 -0.0554496 0.00065565)
(-9.42868e-06 -0.0369894 0.000121336)
(0.00015221 -0.046415 0.000451494)
(4.26215e-05 -0.036858 0.000357605)
(0.000133335 -0.0521622 0.000252418)
(-0.000193874 -0.0523168 0.000218519)
(-2.9998e-05 -0.0362012 0.000211926)
(0.000145289 -0.0503391 -9.32073e-05)
(-7.41105e-05 -0.0495767 -0.000143999)
(-2.02338e-06 -0.0508033 -6.11867e-05)
(0.000144604 -0.0532244 0.000214393)
(-0.000280062 -0.0691898 0.000849763)
(0.00249235 -0.381979 0.0024622)
(0.000429198 -0.877221 -0.00615975)
(-0.00292795 -0.854976 -0.00658041)
(0.00500272 -0.731501 -0.000989822)
(-0.00519249 -1.04302 -0.00706178)
(0.000605212 -0.883889 -0.00115649)
(-0.00151479 -0.979319 -0.000589516)
(-0.00266539 -0.508105 -0.00128227)
(0.000850381 -0.052525 0.000384518)
(0.000109357 -0.0372465 -0.000162683)
(7.09528e-05 -0.0426814 0.00144057)
(9.89649e-05 -0.034042 0.000315553)
(0.000379101 -0.0481156 0.0016754)
(-0.000330354 -0.0487527 0.00169053)
(7.60655e-05 -0.0343555 0.000258213)
(0.000132613 -0.0470719 0.00153448)
(-0.000335219 -0.047509 0.00109579)
(-0.000113977 -0.0488954 0.000960611)
(0.000161747 -0.0518636 0.000923327)
(5.19058e-05 -0.066039 0.00179222)
(0.00332069 -0.366896 0.00145541)
(0.0015099 -0.857705 -0.00489999)
(-0.0025474 -0.81071 -0.0068331)
(0.00361129 -0.668181 -0.00423427)
(-0.00291198 -0.934103 -0.0073563)
(-0.000254819 -0.811147 -0.003433)
(-0.00237467 -0.966205 -0.00154417)
(-0.00297896 -0.512584 -0.00117402)
(-0.000671507 -0.0542216 -0.000589249)
(-0.000146124 -0.0396676 -0.000860502)
(-2.91643e-05 -0.0349345 0.000678835)
(7.72217e-05 -0.0333878 -0.000338908)
(0.000173227 -0.0379886 0.00111204)
(-0.000102397 -0.0382356 0.00120308)
(-4.04064e-05 -0.0336849 -0.000244849)
(-0.000212157 -0.0369832 0.00111831)
(-2.4784e-05 -0.0438231 -0.000369642)
(9.14794e-05 -0.0486996 -0.00100174)
(0.000310421 -0.0529614 -0.000953196)
(0.000641647 -0.0641621 0.000336601)
(0.00331892 -0.3501 0.00338354)
(0.00325805 -0.830494 -0.000507483)
(-0.000798417 -0.745811 -0.00815115)
(-0.00100839 -0.588601 -0.00620406)
(-0.00223759 -0.878453 -0.00470589)
(-0.000815115 -0.773532 -0.00281764)
(-0.00204269 -0.955686 -0.00324914)
(-0.00345863 -0.509764 -0.0021454)
(-0.0049842 -0.0674872 -0.000496111)
(-0.000468903 -0.0520715 -0.000464142)
(-9.75301e-05 -0.0429685 -0.000459297)
(-5.90147e-05 -0.0405277 -0.000469196)
(-0.000135473 -0.0431756 -0.00028242)
(0.000138677 -0.0426269 -0.000231117)
(2.43497e-05 -0.0391676 -0.000356092)
(0.000218364 -0.0418108 -0.000234594)
(0.000347127 -0.0676112 -0.00135437)
(0.000116853 -0.0814375 -0.00165882)
(0.000188821 -0.0850743 -0.00142514)
(0.00209389 -0.0850069 -0.000743663)
(0.00285181 -0.336959 0.00259416)
(0.00268941 -0.807335 0.000200646)
(0.000618893 -0.701355 -0.00218532)
(-0.000788311 -0.537704 -0.000176946)
(-0.260818 -1.02397 -0.486222)
(0.0442493 -0.993657 -0.479336)
(0.110635 -0.826288 -0.437067)
(0.169483 -0.580412 -0.300928)
(0.168319 -0.383554 -0.201267)
(0.161262 -0.28132 -0.204678)
(0.105819 -0.194203 -0.178792)
(0.0454582 -0.186984 -0.173107)
(0.013791 -0.184383 -0.162089)
(-0.00471861 -0.187761 -0.149461)
(-0.00713299 -0.19261 -0.147893)
(-0.0118004 -0.18616 -0.150134)
(-0.033046 -0.18 -0.163441)
(-0.0764778 -0.192937 -0.184194)
(-0.141927 -0.238648 -0.195176)
(-0.173054 -0.356484 -0.196505)
(-0.13277 -0.557077 -0.270223)
(-0.0709225 -0.726281 -0.375747)
(-0.0169844 -0.801918 -0.394423)
(0.226338 -0.796359 -0.402196)
(0.0039566 -1.1377 -0.0779602)
(-0.000324865 -1.04407 -0.0714007)
(0.00358672 -0.858665 -0.0579381)
(0.00579112 -0.50136 -0.010419)
(0.0228917 -0.287878 -0.080724)
(0.0154032 -0.14103 -0.294801)
(0.00183026 -0.133048 -0.253513)
(-0.0118382 -0.146766 -0.242979)
(0.00122127 -0.15361 -0.202671)