/*--------------------------------*- C++ -*----------------------------------*\
| =========                 |                                                 |
| \\      /  F ield         | OpenFOAM: The Open Source CFD Toolbox           |
|  \\    /   O peration     | Version:  2.3.0                                 |
|   \\  /    A nd           | Web:      www.OpenFOAM.org                      |
|    \\/     M anipulation  |                                                 |
\*---------------------------------------------------------------------------*/
FoamFile
{
    version     2.0;
    format      ascii;
    class       volScalarField;
    location    "18";
    object      km;
}
// * * * * * * * * * * * * * * * * * * * * * * * * * * * * * * * * * * * * * //

dimensions      [0 2 -2 0 0 0 0];

internalField   nonuniform List<scalar> 
1875
(
0.00703275
0.0069194
0.00658279
0.00640971
0.00606943
0.00545705
0.00519397
0.00482435
0.0049537
0.00532792
0.00544498
0.00496904
0.0038624
0.00225614
0.000609368
0.00266964
0.00330014
0.00348455
0.00353954
0.00378837
0.00387158
0.00406747
0.00408642
0.00342427
0.0031816
0.00308673
0.00580669
0.00694507
0.00883971
0.00954697
0.00943913
0.00879063
0.00837949
0.00792004
0.00819741
0.0086483
0.00904638
0.00852079
0.00626495
0.0034112
0.00304472
0.00466641
0.00503875
0.00504516
0.00514995
0.00651339
0.0067994
0.00670504
0.00555175
0.00692505
1.13459e-13
0.00570602
0.00665962
0.00833225
0.00826934
0.00808498
0.00878831
0.00970679
0.00984019
0.00998122
0.00996258
0.00914715
0.00764573
0.00599406
0.0037821
0.00271994
0.00359413
0.00471439
0.00497504
0.00518347
0.00615906
0.00661301
0.00653275
0.00239923
2.12439e-07
1e-15
0.0039045
0.00465407
0.00673125
0.00782656
0.00755657
0.00759875
0.00874057
0.00908283
0.00924072
0.00927535
0.0083612
0.00651145
0.00530719
0.00402788
0.00251626
0.00193047
0.00315375
0.0039265
0.00372232
0.00378757
0.00498889
0.0068984
0.00294513
4.96164e-15
1e-15
0.00325511
0.00374648
0.00538454
0.00639795
0.00674531
0.00663219
0.00654904
0.0067874
0.00709431
0.00723773
0.00679888
0.00597201
0.00484097
0.00389977
0.00221238
0.0014397
0.00169984
0.00302866
0.00331914
0.00311127
0.00507259
0.00877446
0.00471361
1e-15
1e-15
0.00303183
0.00339524
0.00388228
0.00502282
0.00552704
0.00575249
0.00591276
0.00602494
0.00611198
0.00612471
0.00544895
0.00482768
0.00381393
0.00325476
0.00183392
0.00146284
0.00162612
0.00310974
0.00360921
0.00477972
0.00959435
0.00990555
0.0086271
1e-15
1e-15
0.002953
0.00407025
0.00343808
0.00401403
0.00435306
0.00473086
0.00495057
0.00504939
0.00508715
0.0047734
0.00402509
0.00352459
0.00306098
0.00244098
0.0019648
0.00183244
0.00224444
0.00383565
0.00630765
0.0111048
0.0124603
0.0136791
0.0140661
2.85354e-15
1e-15
0.00305693
0.00582699
0.00413813
0.00371735
0.00382478
0.00384641
0.00400931
0.00407126
0.00406298
0.00380467
0.00335852
0.00310858
0.00272386
0.00244007
0.00229036
0.00266535
0.00375093
0.0066109
0.0118561
0.0136248
0.0160854
0.0180581
0.0166632
6.13311e-13
1.36191e-15
0.00737958
0.00675363
0.00697454
0.00478156
0.00373951
0.00343019
0.00365494
0.0039994
0.00401594
0.00378067
0.00343232
0.00311888
0.00285819
0.0027759
0.00339102
0.00485938
0.00898132
0.0126252
0.0143484
0.0164666
0.018721
0.0196033
0.0173077
1.46663e-10
3.98935e-05
0.0217312
0.0132007
0.00726516
0.0061116
0.00391789
0.00323339
0.00321812
0.00390744
0.00452309
0.00457256
0.00423934
0.00395967
0.00406776
0.00486216
0.00682979
0.0102621
0.0120243
0.0134325
0.0147909
0.0166721
0.0189783
0.0198468
0.0174867
9.36822e-10
0.00160746
0.0289394
0.0249766
0.0113856
0.00703383
0.00483967
0.00329811
0.00295124
0.00332641
0.00449095
0.0051879
0.00555493
0.00597802
0.00673643
0.00796449
0.009822
0.0109902
0.011623
0.0119036
0.0122601
0.01309
0.0156542
0.0180489
0.0175231
7.96746e-11
0.00040986
0.0307367
0.0302838
0.0219637
0.0103473
0.00698642
0.00425179
0.00305715
0.00281668
0.00343191
0.00469433
0.00543255
0.00602739
0.0068353
0.00785774
0.00880692
0.00875316
0.00841442
0.0078936
0.00734779
0.00775775
0.0102685
0.0156192
0.016825
2.53171e-13
1.69396e-06
0.030607
0.0326454
0.0295068
0.0215863
0.0149851
0.00748645
0.00435895
0.00316285
0.00288296
0.00296162
0.00357221
0.00412463
0.00469699
0.00531307
0.00511882
0.00454818
0.00395768
0.0039319
0.00493284
0.00589969
0.00862255
0.0149288
0.016768
1e-15
1.0074e-10
0.0261041
0.0331439
0.0326926
0.0294547
0.025295
0.0197357
0.00899838
0.00483905
0.00334624
0.00286068
0.00253682
0.00259644
0.00269635
0.00281764
0.00303594
0.00299598
0.00295902
0.00315075
0.00429097
0.0055313
0.00857585
0.0156404
0.0175494
1e-15
8.77974e-14
0.0220947
0.0310692
0.0331961
0.0319434
0.0285907
0.0267871
0.0219954
0.0104313
0.00526959
0.0034386
0.00267907
0.00227744
0.0023116
0.00240294
0.00268973
0.00281293
0.00292314
0.00337943
0.00478093
0.00607002
0.0101922
0.0172451
0.0182986
1.20688e-15
2.22512e-13
0.0203156
0.0286318
0.0328164
0.0318298
0.0296929
0.0278182
0.0268781
0.0225457
0.0105087
0.00522442
0.00327274
0.00246718
0.00227046
0.00243753
0.00273229
0.00285725
0.00315082
0.00459692
0.00564612
0.00704949
0.0120131
0.0179446
0.0186395
2.11154e-15
1.73886e-13
0.0184005
0.0256927
0.0306853
0.0305371
0.0291126
0.0273132
0.0271976
0.0266567
0.0208532
0.0088196
0.00458554
0.00299113
0.00248739
0.00268469
0.00307724
0.00328012
0.00414934
0.00565859
0.00622837
0.00763096
0.0129757
0.0183111
0.0188079
2.65705e-15
3.93733e-15
0.0157152
0.0197022
0.026269
0.0283651
0.0274861
0.0263777
0.0265218
0.0276696
0.0253968
0.0142251
0.00606755
0.00342919
0.00269841
0.0029521
0.00347573
0.00397822
0.00505017
0.00560986
0.00613091
0.00778657
0.0132465
0.0183692
0.0187899
2.1659e-15
1e-15
0.0121433
0.0140077
0.0208021
0.025101
0.0250603
0.024843
0.0252916
0.027443
0.0273792
0.0213368
0.00946411
0.00440999
0.00303038
0.00302478
0.00344861
0.00414788
0.00516839
0.00553732
0.00598059
0.00762479
0.0126558
0.0175188
0.0182025
1.40487e-15
1e-15
0.0106271
0.0112829
0.0159436
0.0201927
0.0210088
0.0212776
0.0226049
0.0259044
0.02677
0.0227023
0.0125673
0.00636541
0.0039382
0.00331677
0.00349655
0.0040338
0.00484442
0.00525367
0.00573673
0.00715074
0.0114876
0.0164309
0.0173852
1e-15
1e-15
0.00939227
0.00961311
0.0132218
0.0155326
0.0162689
0.0171442
0.0193802
0.0228179
0.0244485
0.0213274
0.0121304
0.00636655
0.00418294
0.00352414
0.00360396
0.00389736
0.00446586
0.00483066
0.00529711
0.00637124
0.00979302
0.0151924
0.0167451
1e-15
1e-15
0.00862869
0.00741771
0.00865437
0.00981539
0.0110623
0.0127727
0.015317
0.0179769
0.0191163
0.0177165
0.0104818
0.00604989
0.00415657
0.00353252
0.00356247
0.00379861
0.00427864
0.00463312
0.00504584
0.00597785
0.00901133
0.0146013
0.0164161
1e-15
1e-15
0.00859974
0.00669544
0.00668921
0.00677125
0.00712202
0.008142
0.00993569
0.0112776
0.0118693
0.0112997
0.00702137
0.00496067
0.00398469
0.00352742
0.00356575
0.00378067
0.00410829
0.00438345
0.00471806
0.00553377
0.0082324
0.0142317
0.0162637
1e-15
1e-15
0.0116396
0.00673886
0.00642182
0.00643303
0.00642161
0.00648716
0.00701544
0.00741356
0.00762348
0.00716638
0.00573988
0.00486333
0.00410527
0.00373316
0.00371437
0.00381193
0.00409477
0.00416625
0.00440597
0.00511048
0.00786978
0.0143237
0.0166138
1e-15
1e-15
0.0198773
0.00880281
0.00729358
0.00780781
0.00805197
0.00806674
0.00793278
0.00746093
0.00719502
0.00664824
0.00589589
0.00522803
0.00468177
0.00429697
0.00416761
0.00418581
0.00439976
0.00449072
0.00479335
0.00578882
0.0103052
0.0161503
0.0174157
1e-15
1e-15
0.0231427
0.0155599
0.00818929
0.00774871
0.00832737
0.00887828
0.00877743
0.00838807
0.00803996
0.00753432
0.00704941
0.00668315
0.0063021
0.0058561
0.0055459
0.0055395
0.00538858
0.00543571
0.00576863
0.00786009
0.0137953
0.0174691
0.0177914
1e-15
1e-15
0.0234458
0.0175148
0.009614
0.00852737
0.0089928
0.00930833
0.00893812
0.00886635
0.00854619
0.00833234
0.00783511
0.00729142
0.00694216
0.00669963
0.00638991
0.00617369
0.00608896
0.00631352
0.00810546
0.0112789
0.0155686
0.0180419
0.0179204
1e-15
1.2305e-15
0.0244079
0.0182926
0.0106706
0.00972987
0.0100202
0.00988762
0.00929786
0.00861775
0.0074579
0.00710229
0.00708379
0.00688944
0.00665586
0.00660965
0.00655254
0.00667559
0.00723491
0.00837004
0.0100787
0.0123553
0.015919
0.0176368
0.0173396
1e-15
1.02261e-15
0.0265046
0.0209318
0.0120999
0.0103971
0.0103945
0.00976463
0.00933746
0.0085406
0.00761127
0.00703653
0.0068852
0.00688747
0.00674679
0.00669149
0.0067671
0.00702773
0.00760074
0.00869832
0.00968673
0.0109297
0.0150266
0.0172303
0.0170286
1e-15
3.05005e-15
0.0281642
0.0244163
0.0159789
0.011619
0.0109264
0.0101946
0.00980209
0.0103197
0.0105058
0.009836
0.00841291
0.00795172
0.0077643
0.0076064
0.00760606
0.00778094
0.00801726
0.00866582
0.00925562
0.0117223
0.0161403
0.0174191
0.0168849
1e-15
1.64103e-15
0.0291073
0.0261797
0.019938
0.0150854
0.0131521
0.0124893
0.0112312
0.0109692
0.010738
0.0111181
0.0118361
0.01195
0.0113222
0.0107395
0.0104939
0.0104235
0.0104133
0.0109885
0.0127987
0.0160662
0.0175104
0.0176695
0.0166783
1e-15
3.31985e-15
0.0300877
0.0275374
0.0226249
0.0190122
0.0175849
0.0150776
0.012312
0.0114299
0.0113923
0.0119734
0.0124245
0.012927
0.0133307
0.0133598
0.0133428
0.0133419
0.0135871
0.0147685
0.0163439
0.0172929
0.0175877
0.0173714
0.0159175
1e-15
2.71618e-15
0.0299852
0.0287425
0.0244487
0.0214268
0.0191501
0.0150528
0.0126185
0.012127
0.0129327
0.0144809
0.0152428
0.0156061
0.0157007
0.0154433
0.0149255
0.01444
0.014484
0.0157954
0.017025
0.0174888
0.017405
0.0170773
0.0154791
1e-15
4.09195e-15
0.0290272
0.0292932
0.0255098
0.0224645
0.0187716
0.0150629
0.0134632
0.0138458
0.0157649
0.0168514
0.0172647
0.0167942
0.0164169
0.0162621
0.0156768
0.0148197
0.0149535
0.0163223
0.0169981
0.0171212
0.0169161
0.0167679
0.0144676
1e-15
2.01593e-15
0.0285573
0.0303683
0.0268169
0.0230869
0.0187756
0.0159607
0.0155436
0.0166012
0.0183783
0.0190469
0.0190967
0.0173196
0.0156282
0.0151011
0.0151459
0.0150696
0.0154283
0.0161601
0.0164845
0.0166255
0.0166343
0.0162781
0.0134999
1e-15
1.66836e-15
0.0289148
0.0315833
0.0286124
0.0245611
0.0203652
0.0182493
0.0176872
0.0180168
0.0190551
0.0196269
0.0197058
0.019315
0.0172561
0.0146098
0.013964
0.0148538
0.0155905
0.0158224
0.016151
0.0162656
0.0162837
0.0155273
0.0123511
1e-15
1.00581e-15
0.027284
0.0315216
0.0295473
0.0267578
0.0235036
0.021456
0.0204756
0.0202953
0.020698
0.0211721
0.0212128
0.0207576
0.0191607
0.0152998
0.0136709
0.0141996
0.0150784
0.0152655
0.0159437
0.0161138
0.0160241
0.0149196
0.010985
1e-15
1e-15
0.0246846
0.0288488
0.0293398
0.0277947
0.0258716
0.0243634
0.0234648
0.0232216
0.0230699
0.0227417
0.0220846
0.0212444
0.0195012
0.0148657
0.0128957
0.0141436
0.0148207
0.0150557
0.0158388
0.016114
0.0159522
0.0142085
0.00932099
1e-15
1e-15
0.0225032
0.0254876
0.0277167
0.0276146
0.0266848
0.0256056
0.0248123
0.0239857
0.022997
0.0225674
0.0220524
0.0208616
0.0174854
0.0131176
0.0132961
0.0147157
0.0148601
0.0155973
0.016224
0.0163639
0.0159183
0.0137053
0.00875246
1e-15
1e-15
0.0208683
0.0226207
0.0245036
0.0258052
0.025493
0.0244335
0.0229921
0.0217426
0.0207687
0.0202108
0.0189357
0.0161139
0.0137719
0.0134063
0.0146215
0.0152186
0.0156405
0.0165281
0.0169039
0.0168505
0.0159081
0.013593
0.00877223
1.0829e-15
1e-15
0.0197802
0.0199695
0.020828
0.0203815
0.018173
0.0157942
0.0142132
0.0133977
0.0131529
0.0131879
0.0132594
0.0134581
0.013808
0.0145073
0.0151432
0.0160191
0.0168171
0.017374
0.0175207
0.017025
0.0157998
0.0136809
0.00917231
1.42085e-15
1e-15
0.0188775
0.0186584
0.0181854
0.0162309
0.0134435
0.0113059
0.00994805
0.00976965
0.0102722
0.0112681
0.0125401
0.0136255
0.0145355
0.0152132
0.0157492
0.0170572
0.0178716
0.0182056
0.0179412
0.0172134
0.0159639
0.0137886
0.00917253
3.70746e-15
1e-15
0.0179778
0.018272
0.0177396
0.0157317
0.0124305
0.0101401
0.00922062
0.00923091
0.00973398
0.0110154
0.012232
0.0135483
0.0146381
0.0158026
0.0176796
0.0188364
0.0189736
0.0186812
0.0183131
0.0175446
0.0161185
0.0135729
0.00833924
2.09869e-14
1.05519e-15
0.00695151
0.0157552
0.0170357
0.0163764
0.0131765
0.0106946
0.00958277
0.00927274
0.00955187
0.0103845
0.0118016
0.0131147
0.0142392
0.0163723
0.0184686
0.0194806
0.0197866
0.019103
0.0183541
0.0173973
0.0156741
0.0125149
0.00622583
1.69156e-13
1.148e-13
0.00291412
0.00813892
0.0141092
0.0158069
0.0151712
0.0125363
0.0109554
0.0100342
0.00967326
0.00992488
0.0105343
0.0117649
0.0133371
0.0159796
0.0181712
0.0190585
0.0193783
0.0193667
0.0183785
0.0170117
0.0146298
0.0101353
0.00373639
1.03871e-13
1.95443e-12
0.0111397
0.0074824
0.0118131
0.0151286
0.0151849
0.0136864
0.0123476
0.0119297
0.0110883
0.0103076
0.0102914
0.0105772
0.0116111
0.0147175
0.0173528
0.0183852
0.0185149
0.0183308
0.0177975
0.0166036
0.013668
0.00776915
0.00329333
8.29907e-15
4.01727e-14
0.0173799
0.0127486
0.0127398
0.0148758
0.0149554
0.0137416
0.0131872
0.0131701
0.0129243
0.0123821
0.0112414
0.0107026
0.0109287
0.0121894
0.0152806
0.0171204
0.0177472
0.0177321
0.0174508
0.0165239
0.0137759
0.00723168
0.00410838
4.70698e-15
1.05022e-12
0.0187158
0.0151992
0.0143499
0.01504
0.0150451
0.0143118
0.0142525
0.0146802
0.0145709
0.0144819
0.0141092
0.0123963
0.0113822
0.0117762
0.0135251
0.0155412
0.016736
0.0172455
0.0171705
0.016393
0.0138951
0.00734676
0.00645711
2.39927e-15
1.0474e-11
0.0198045
0.0168328
0.0157154
0.0156685
0.0155385
0.0153635
0.0163891
0.0162057
0.0156239
0.0154868
0.0154406
0.0150267
0.0135535
0.012707
0.0133107
0.0149607
0.0166091
0.0171479
0.0169216
0.0160765
0.0136921
0.00767593
0.00854136
2.91687e-15
6.12799e-12
0.0212584
0.0188709
0.0167084
0.0163241
0.0164875
0.0178839
0.0185305
0.0172368
0.0160959
0.0161908
0.0166161
0.0161689
0.0143347
0.0132284
0.0135254
0.0152395
0.0170328
0.017257
0.0168823
0.0158357
0.0132141
0.00840387
0.00944587
4.67091e-15
2.14861e-14
0.021851
0.0199145
0.018067
0.0178283
0.0189094
0.0193035
0.0176492
0.0153136
0.0152951
0.0160072
0.0159099
0.01509
0.0137974
0.0134968
0.0142619
0.016493
0.0174926
0.0173305
0.0167537
0.0155968
0.0128314
0.00944681
0.0104104
1.19721e-14
1.5285e-15
0.0222119
0.0208252
0.018905
0.0188093
0.0185643
0.0160468
0.0141239
0.013971
0.0139687
0.0136322
0.0137256
0.0139955
0.013936
0.0148037
0.0163913
0.0174303
0.0174086
0.0168785
0.0161266
0.0153331
0.0128212
0.0105617
0.0115998
2.12369e-14
1e-15
0.0224643
0.0213933
0.0192662
0.0180541
0.015124
0.0134278
0.0131181
0.0136489
0.0137286
0.013618
0.0139449
0.0143446
0.0151623
0.0164578
0.016995
0.0171356
0.0166897
0.016256
0.0159778
0.0153398
0.0130746
0.0114057
0.0126491
4.63865e-14
1e-15
0.0231802
0.021697
0.0191918
0.0162997
0.0135104
0.0128978
0.0135956
0.0141449
0.0143372
0.0146052
0.0150235
0.0156403
0.0161389
0.0164989
0.0165732
0.0163007
0.0161078
0.0160067
0.0159337
0.0154475
0.0132231
0.0119165
0.0134497
7.97276e-14
1e-15
0.0234884
0.0218072
0.0187882
0.0148612
0.0131444
0.013265
0.0140593
0.0148636
0.0152367
0.0154792
0.0156825
0.0158841
0.0161156
0.0161361
0.0160892
0.0160894
0.0161474
0.0162639
0.0161858
0.0155371
0.0131174
0.0123399
0.0139109
4.30802e-14
1e-15
0.0241776
0.0223214
0.0185963
0.0145075
0.0135325
0.0137316
0.0148506
0.015287
0.0154941
0.0155274
0.0157049
0.0159753
0.0161548
0.0163037
0.0164411
0.016548
0.0166156
0.0165389
0.0161934
0.0151964
0.0129427
0.0126592
0.0144398
1.17008e-14
1e-15
0.0243037
0.0229377
0.0191901
0.0151918
0.0142909
0.0145667
0.015164
0.0153039
0.0155347
0.0160255
0.0165661
0.0167037
0.0166167
0.0164646
0.0162279
0.0159931
0.0157853
0.0157411
0.0155021
0.0143857
0.0128669
0.012977
0.0152515
1e-15
1e-15
0.0240792
0.0242768
0.0209399
0.0166532
0.015031
0.0148641
0.0151425
0.0158148
0.0163523
0.0164504
0.0161552
0.0159498
0.0161494
0.0163743
0.0163815
0.0162084
0.0157586
0.0152689
0.014731
0.013773
0.0128958
0.0132962
0.015492
1e-15
1e-15
0.0238661
0.0264068
0.0232018
0.0188409
0.016029
0.0153345
0.015365
0.0160392
0.0161921
0.0161708
0.0162485
0.0176523
0.0195742
0.0201542
0.020074
0.0197507
0.0186301
0.0166739
0.0146766
0.0133647
0.0129757
0.0140152
0.0152187
1e-15
1e-15
0.0220535
0.0271103
0.0249715
0.020712
0.0177072
0.0159296
0.0154646
0.0158936
0.0163179
0.0169043
0.0191631
0.0220574
0.0229892
0.0229333
0.0216015
0.0206534
0.018918
0.0162695
0.0138648
0.0130874
0.0131545
0.0144122
0.0145861
1e-15
1e-15
0.0198337
0.0263419
0.0263226
0.0234147
0.0192451
0.0166051
0.0157483
0.0160901
0.0166887
0.0177552
0.0205134
0.023443
0.0241725
0.023763
0.0221624
0.0204173
0.0182532
0.0153909
0.0134238
0.0131629
0.0135782
0.0147005
0.0148505
1e-15
1e-15
0.017407
0.0231361
0.0267465
0.0253979
0.0218299
0.018098
0.0160846
0.0160271
0.0165611
0.0174255
0.0198351
0.0228849
0.0238183
0.0237751
0.0232734
0.0224861
0.0216797
0.0210204
0.0169205
0.014602
0.0141693
0.0146502
0.0145662
1e-15
1e-15
0.0169117
0.0209428
0.0252893
0.0269568
0.0253334
0.0217315
0.0179399
0.0163655
0.01592
0.0161193
0.0171701
0.0192817
0.019258
0.019879
0.0217311
0.023029
0.0231573
0.0231148
0.0232468
0.0201249
0.0173343
0.0160123
0.015119
1e-15
1e-15
0.0180422
0.0216908
0.0238283
0.0259007
0.0264297
0.025102
0.0219738
0.0183443
0.0164383
0.0156827
0.0156872
0.0160628
0.0160463
0.0159196
0.016086
0.0167134
0.0181037
0.0213079
0.0236348
0.0243606
0.0217562
0.0177934
0.0153685
1e-15
1e-15
0.0230132
0.0251821
0.0247644
0.0252342
0.0258822
0.0252528
0.0232203
0.0203938
0.0179829
0.0163263
0.0157455
0.0156375
0.0156629
0.015718
0.0158174
0.0160977
0.0166729
0.0178871
0.020686
0.025184
0.0264302
0.0230542
0.0177682
1e-15
8.02137e-10
0.0329512
0.033256
0.0273985
0.0244033
0.0235234
0.0231878
0.0215955
0.0194676
0.0176216
0.0164017
0.01573
0.0156072
0.0156541
0.0157249
0.0159087
0.0163738
0.0166919
0.017547
0.019802
0.0265307
0.0310646
0.0282357
0.021101
1e-15
0.0683482
0.0680467
0.066653
0.0633388
0.0579499
0.0491683
0.0453106
0.0477949
0.042197
0.0396864
0.039281
0.0403746
0.0428763
0.0459238
0.0496156
0.0537853
0.0527163
0.0515862
0.0526469
0.057112
0.0641891
0.0793541
0.0798869
0.0657939
0.0105754
0.0658747
0.0630087
0.0637431
0.0684017
0.0744188
0.079793
0.0897055
0.104299
0.107837
0.109547
0.112018
0.116372
0.122792
0.131118
0.140461
0.144274
0.130576
0.105473
0.0884495
0.0782397
0.0766373
0.0884058
0.0981392
0.0825495
7.41145e-14
0.0359347
0.0372563
0.0421726
0.0477593
0.051387
0.0475316
0.025763
0.0189862
0.0170341
0.0167849
0.0174998
0.0190048
0.0229165
0.0285602
0.0379106
0.0618194
0.0684768
0.0639991
0.0582631
0.0557002
0.0532853
0.0532376
0.0526034
0.0422348
1e-15
0.00788687
0.00935026
0.0150434
0.0282659
0.0300002
0.0140693
0.00305459
0.000511878
0.000244505
0.000133661
0.000100435
0.000103158
0.000141571
0.00106746
0.00386288
0.0112858
0.0295998
0.0328022
0.0278734
0.021497
0.0195309
0.0211378
0.0253981
0.0217738
1e-15
0.00782125
0.0100985
0.0161375
0.0234686
0.0226799
0.00865079
0.00245116
0.00107138
0.000423677
0.000144722
7.39429e-05
7.0308e-05
6.86091e-05
9.3978e-05
0.000365453
0.00216318
0.0113595
0.0184084
0.0151615
0.00676025
0.00471367
0.00544571
0.00984061
0.013277
1e-15
0.00430047
0.0110021
0.0144101
0.0159704
0.0141836
0.00638518
0.00225519
0.000685822
0.000188074
6.28279e-05
7.2633e-05
0.000126841
0.000132769
0.000130702
0.000236252
0.0018622
0.0109335
0.0149235
0.0091704
0.00256146
0.000989718
0.00136218
0.00504623
0.00893047
1e-15
0.00277009
0.00515493
0.00614712
0.00490782
0.00206115
0.000356748
7.70952e-05
3.23598e-05
2.27764e-05
2.83863e-05
0.000241869
0.000404012
0.000308278
0.000676964
0.00349507
0.00635306
0.0103856
0.0049367
0.00106637
0.000229917
0.000132478
0.000344649
0.00271534
0.00573489
1e-15
0.00225467
0.00130607
0.00121648
0.000304247
2.51315e-05
2.3358e-05
2.51974e-05
2.64506e-05
2.73477e-05
5.08333e-05
0.000578272
0.00127569
0.00190265
0.00404462
0.00515657
0.00546407
0.00280412
0.000488567
6.92615e-05
3.43209e-05
7.24782e-05
0.000355739
0.00185988
0.00311303
1e-15
0.00270529
0.000278886
0.000141789
2.35701e-05
3.09038e-05
3.23034e-05
3.27367e-05
3.25674e-05
3.17511e-05
6.17028e-05
0.000681484
0.00269146
0.00406581
0.00457198
0.00439745
0.00224331
0.000540365
0.000104102
3.38838e-05
2.43264e-05
2.15365e-05
6.29787e-05
0.000660039
0.00108285
1e-15
)
;

boundaryField
{
    inlet
    {
        type            fixedValue;
        value           nonuniform List<scalar> 
25
(
3.75e-05
3.75e-05
3.75e-05
3.75e-05
3.75e-05
3.75e-05
3.75e-05
3.75e-05
3.75e-05
3.75e-05
3.75e-05
3.75e-05
3.75e-05
3.75e-05
3.75e-05
3.75e-05
3.75e-05
3.75e-05
3.75e-05
3.75e-05
3.75e-05
3.75e-05
3.75e-05
3.75e-05
3.75e-05
)
;
    }
    outlet
    {
        type            inletOutlet;
        inletValue      uniform 3.75e-05;
        value           nonuniform List<scalar> 
25
(
0.00270529
0.000278886
0.000141789
3.75e-05
3.75e-05
3.75e-05
3.75e-05
3.75e-05
3.75e-05
3.75e-05
3.75e-05
0.00269146
0.00406581
0.00457198
0.00439745
0.00224331
0.000540365
3.75e-05
3.75e-05
3.75e-05
3.75e-05
6.29787e-05
0.000660039
0.00108285
1e-15
)
;
    }
    walls
    {
        type            kqRWallFunction;
        value           nonuniform List<scalar> 
150
(
0.00703275
0.00308673
1.13459e-13
1e-15
1e-15
1e-15
1e-15
1e-15
1.36191e-15
3.98935e-05
0.00160746
0.00040986
1.69396e-06
1.0074e-10
8.77974e-14
2.22512e-13
1.73886e-13
3.93733e-15
1e-15
1e-15
1e-15
1e-15
1e-15
1e-15
1e-15
1e-15
1e-15
1.2305e-15
1.02261e-15
3.05005e-15
1.64103e-15
3.31985e-15
2.71618e-15
4.09195e-15
2.01593e-15
1.66836e-15
1.00581e-15
1e-15
1e-15
1e-15
1e-15
1e-15
1e-15
1.05519e-15
1.148e-13
1.95443e-12
4.01727e-14
1.05022e-12
1.0474e-11
6.12799e-12
2.14861e-14
1.5285e-15
1e-15
1e-15
1e-15
1e-15
1e-15
1e-15
1e-15
1e-15
1e-15
1e-15
1e-15
1e-15
1e-15
8.02137e-10
0.0683482
0.0658747
0.0359347
0.00788687
0.00782125
0.00430047
0.00277009
0.00225467
0.00270529
0.0031816
0.00692505
2.12439e-07
4.96164e-15
1e-15
1e-15
2.85354e-15
6.13311e-13
1.46663e-10
9.36822e-10
7.96746e-11
2.53171e-13
1e-15
1e-15
1.20688e-15
2.11154e-15
2.65705e-15
2.1659e-15
1.40487e-15
1e-15
1e-15
1e-15
1e-15
1e-15
1e-15
1e-15
1e-15
1e-15
1e-15
1e-15
1e-15
1e-15
1e-15
1e-15
1e-15
1e-15
1e-15
1e-15
1e-15
1.0829e-15
1.42085e-15
3.70746e-15
2.09869e-14
1.69156e-13
1.03871e-13
8.29907e-15
4.70698e-15
2.39927e-15
2.91687e-15
4.67091e-15
1.19721e-14
2.12369e-14
4.63865e-14
7.97276e-14
4.30802e-14
1.17008e-14
1e-15
1e-15
1e-15
1e-15
1e-15
1e-15
1e-15
1e-15
1e-15
1e-15
0.0105754
7.41145e-14
1e-15
1e-15
1e-15
1e-15
1e-15
1e-15
1e-15
)
;
    }
    defaultFaces
    {
        type            empty;
    }
}


// ************************************************************************* //
