/*--------------------------------*- C++ -*----------------------------------*\
| =========                 |                                                 |
| \\      /  F ield         | OpenFOAM: The Open Source CFD Toolbox           |
|  \\    /   O peration     | Version:  2.3.0                                 |
|   \\  /    A nd           | Web:      www.OpenFOAM.org                      |
|    \\/     M anipulation  |                                                 |
\*---------------------------------------------------------------------------*/
FoamFile
{
    version     2.0;
    format      ascii;
    class       surfaceScalarField;
    location    "18";
    object      phi.air;
}
// * * * * * * * * * * * * * * * * * * * * * * * * * * * * * * * * * * * * * //

dimensions      [0 3 -1 0 0 0 0];

internalField   nonuniform List<scalar> 
3650
(
0.00029198
-5.24498e-07
0.000548953
5.85013e-06
0.000730952
5.18452e-05
0.000828567
9.05994e-05
0.000859688
0.00012245
0.000842586
0.000147479
0.000782598
0.000177402
0.000683155
0.000204207
0.000559104
0.000231213
0.000431266
0.000252767
0.000298403
0.00027295
0.000151416
0.000296264
1.51031e-05
0.000298168
-0.000103625
0.000324654
-0.000143419
0.000325497
-0.000209233
0.00032099
-0.000355119
0.000304265
-0.000521518
0.000278731
-0.000643883
0.000246814
-0.000679439
0.00018407
-0.000654028
0.000143044
-0.000554004
0.000107132
-0.000379532
6.24344e-05
-0.00019301
5.15156e-05
5.17627e-05
0.000251204
-0.00014616
0.000439166
-0.000116507
0.000535624
-1.97432e-05
0.000564644
3.16043e-05
0.00055735
8.01571e-05
0.000521038
0.000122141
0.000450071
0.000165814
0.000365332
0.000214884
0.000274346
0.000258656
0.000171205
0.000300279
7.47424e-05
0.000332141
-3.05363e-05
0.000382197
-0.000126582
0.000412474
-0.000140988
0.000431312
-0.000150344
0.000462869
-0.000180573
0.000450256
-0.000284527
0.000432579
-0.000445499
0.00039867
-0.000568926
0.000299616
-0.000616593
0.000193843
-0.000604843
0.000119626
-0.000535494
5.41709e-05
-0.00040837
-2.26988e-05
-0.000223384
-7.14772e-05
-8.94677e-05
0.000111443
-0.000230189
0.000134235
-0.000176991
9.83655e-05
-5.79829e-05
8.39619e-05
-8.37419e-06
8.47863e-05
4.89853e-05
8.70314e-05
0.000103778
0.00011085
0.000133978
0.00013153
0.000175532
0.000124701
0.000238329
8.89036e-05
0.000308208
3.3011e-05
0.00036403
-3.02472e-05
0.000423761
-8.36235e-05
0.000453881
-8.71169e-05
0.000455805
-6.95511e-05
0.000490122
-6.78565e-05
0.000488336
-0.000108459
0.000472984
-0.000219167
0.000444582
-0.000348833
0.000323324
-0.000421613
0.000187176
-0.000445734
8.75567e-05
-0.000407056
-2.29865e-05
-0.000322635
-0.000114154
-0.000200801
-0.000196553
-0.000256148
4.88615e-05
-0.000232906
3.70477e-05
-0.000182366
3.31501e-05
-9.01811e-05
4.78094e-05
-4.07083e-05
5.29012e-05
1.99908e-05
4.84288e-05
7.96246e-05
3.53453e-05
0.000125157
1.87863e-05
0.000172483
-1.16303e-05
0.000237815
-4.79872e-05
0.000312662
-8.75632e-05
0.000379402
-0.00011221
0.000431599
-0.000105969
0.000448733
-7.47545e-05
0.000443021
-3.2376e-05
0.000469415
1.28713e-05
0.000461066
6.71006e-05
0.000434409
7.05509e-05
0.000423699
-5.98669e-06
0.000337576
-0.00010651
0.000204727
-0.000171749
8.06592e-05
-0.000182743
-4.96981e-05
-0.000148903
-0.000143196
-8.97023e-05
-0.00024651
-0.000339415
-2.22939e-05
-0.000189481
-2.85634e-05
-0.000139752
-4.37139e-05
-6.2466e-05
-6.44185e-05
-2.36744e-05
-8.62432e-05
3.01859e-05
-0.000106386
8.10023e-05
-0.000148631
0.00013496
-0.000207535
0.000188522
-0.000258779
0.000247613
-0.00028555
0.000306787
-0.000279649
0.000356823
-0.000231831
0.000388879
-0.000167997
0.00039835
-0.000119202
0.00040313
-6.42325e-05
0.000426347
-1.62229e-06
0.000408658
5.86775e-05
0.000383396
8.52195e-05
0.000393168
6.76665e-05
0.000339953
5.1443e-05
0.000211521
5.2015e-05
7.72122e-05
3.04422e-05
-3.37886e-05
9.24757e-07
-0.000130714
-1.81454e-05
-0.000235816
-0.000359046
-5.38835e-05
-0.000142869
-6.41112e-05
-8.68989e-05
-7.28263e-05
3.08355e-06
-0.00012443
4.91037e-05
-0.000185033
9.02105e-05
-0.000237704
0.000124654
-0.000284968
0.000171528
-0.000326203
0.000212281
-0.000352348
0.00025782
-0.000349342
0.000295312
-0.000316997
0.000327154
-0.000257985
0.000340789
-0.000201506
0.00034588
-0.000150975
0.000356887
-8.77521e-05
0.000372216
-3.63414e-05
0.000360462
-6.32572e-06
0.000354754
1.45549e-05
0.000374649
2.08678e-05
0.000342854
5.7883e-05
0.000198168
9.18703e-05
6.73572e-05
8.86662e-05
-2.29733e-05
6.16048e-05
-0.000109013
2.15522e-05
-0.000205846
-0.000343328
-3.6725e-05
-0.000115886
-4.09838e-05
-5.60254e-05
-3.06944e-05
5.83877e-05
-8.44461e-05
0.000149263
-0.000151379
0.000172926
-0.000219342
0.000196347
-0.000265018
0.000214197
-0.000297472
0.000241126
-0.000309669
0.000269696
-0.000295121
0.000287897
-0.000257213
0.000303783
-0.000210097
0.000309027
-0.000176918
0.000320336
-0.000149908
0.000335414
-0.000118728
0.000344814
-0.000109044
0.000353312
-0.000128396
0.000367717
-0.000122518
0.000371638
-6.58013e-05
0.000314507
1.72475e-05
0.000152795
5.1681e-05
5.7313e-05
5.93629e-05
-2.20058e-05
4.69007e-05
-9.48143e-05
2.75067e-05
-0.000185158
-0.000321014
5.84067e-06
-0.00013451
1.12983e-06
-4.69052e-05
2.80123e-05
6.88799e-05
2.97633e-05
0.000197351
-3.96273e-05
0.000258255
-9.72606e-05
0.000257307
-0.000133576
0.000256621
-0.00015709
0.000271874
-0.000160794
0.000281834
-0.000154325
0.000292008
-0.000145408
0.000304355
-0.000142136
0.000313105
-0.000146007
0.000327339
-0.000150599
0.000342885
-0.000164063
0.000357858
-0.000197188
0.000376746
-0.0002175
0.000380367
-0.000181922
0.000348378
-8.6045e-05
0.000245375
-2.89538e-05
0.000123821
-2.45732e-06
4.79093e-05
1.38421e-05
-2.68818e-05
1.65143e-05
-9.49641e-05
1.09761e-05
-0.00017767
-0.000308909
4.84816e-05
-0.000186823
3.60705e-05
-5.74782e-05
3.69811e-05
5.96654e-05
6.49611e-05
0.000190527
3.05561e-05
0.000320992
-2.31911e-05
0.000323531
-5.00998e-05
0.000293909
-6.11409e-05
0.000295699
-6.86097e-05
0.000299966
-7.75662e-05
0.000311933
-9.01706e-05
0.000322424
-0.000116672
0.000338889
-0.000148286
0.000355329
-0.000182334
0.000371156
-0.000218369
0.000386378
-0.000245246
0.000393113
-0.000237096
0.00036941
-0.000170855
0.000295943
-0.000105253
0.000199191
-8.34853e-05
0.000116022
-6.43021e-05
3.34129e-05
-4.37322e-05
-4.5383e-05
-2.41198e-05
-0.000112139
-7.11664e-06
-0.000194714
-0.000319691
2.97099e-05
-0.000220242
6.68028e-06
-5.73459e-05
-7.81054e-06
5.63729e-05
1.78655e-05
0.000165136
3.22732e-05
0.000320948
-1.1996e-06
0.00037829
-3.64769e-05
0.000347799
-4.03202e-05
0.000317107
-4.70421e-05
0.000322049
-6.95638e-05
0.000341418
-9.71007e-05
0.000351664
-0.000126217
0.000365374
-0.000157645
0.000380966
-0.000185793
0.000392494
-0.000209231
0.00039979
-0.000214541
0.000387877
-0.000180654
0.000335962
-0.000133286
0.000254828
-0.000117926
0.000187053
-0.000112331
0.000103326
-0.000107612
1.83273e-05
-8.84331e-05
-7.35287e-05
-5.65657e-05
-0.000147924
-2.88643e-05
-0.000225386
-0.000345776
3.13481e-06
-0.000224313
-2.50567e-05
-4.42509e-05
-4.23737e-05
5.91837e-05
-1.44541e-05
0.000135379
3.85245e-05
0.000284689
5.00118e-05
0.000387732
7.65001e-06
0.000413089
-2.81709e-05
0.000371424
-4.50466e-05
0.00035284
-6.20566e-05
0.000366361
-8.77236e-05
0.000377607
-0.00011307
0.000388455
-0.000131319
0.000396576
-0.000148832
0.000401773
-0.000162187
0.000398208
-0.000150469
0.000363227
-0.00011591
0.00029308
-9.6476e-05
0.000225173
-8.85966e-05
0.000157733
-9.32544e-05
8.21159e-05
-9.86195e-05
-1.94476e-06
-8.50268e-05
-0.000103398
-5.48093e-05
-0.000184991
-2.8388e-05
-0.000252827
-0.000371629
-9.42687e-06
-0.00021633
-1.78775e-05
-3.52912e-05
-3.62204e-05
6.48072e-05
-2.78538e-05
0.000124377
5.18845e-05
0.000221462
0.000122401
0.000341761
0.000118118
0.000432499
6.35293e-05
0.000443791
8.72104e-06
0.000419159
-2.39463e-05
0.000405559
-3.95071e-05
0.000398629
-4.85705e-05
0.000398471
-5.1488e-05
0.000398178
-5.28092e-05
0.000391772
-4.70619e-05
0.000375394
-3.66562e-05
0.000329939
-3.25237e-05
0.000265411
-3.78799e-05
0.000201088
-4.6865e-05
0.000128981
-5.01743e-05
5.49719e-05
-5.97091e-05
-1.38867e-05
-6.03866e-05
-0.000113116
-4.07604e-05
-0.000201889
-1.94322e-05
-0.000269157
-0.000388956
-3.8679e-06
-0.000212318
1.20341e-05
-4.41157e-05
9.9867e-06
6.29768e-05
3.10228e-07
0.000128046
5.87209e-05
0.000178239
0.00016459
0.000261995
0.000238572
0.000379508
0.000231374
0.00045769
0.000177681
0.000479287
0.000121501
0.000468696
7.43069e-05
0.000443494
5.87768e-05
0.000410116
7.37483e-05
0.000378958
0.00010088
0.000356334
0.000133319
0.000328862
0.000153782
0.000290792
0.00014126
0.000248644
0.00010292
0.00020479
6.80719e-05
0.000139392
5.35919e-05
5.50414e-05
3.53241e-05
-2.3952e-06
1.60721e-05
-9.67695e-05
1.81499e-06
-0.000189837
-4.71635e-06
-0.000258915
-0.000381771
1.60029e-05
-0.000224127
5.468e-05
-7.25733e-05
7.64985e-05
4.64873e-05
6.70284e-05
0.00012995
7.24146e-05
0.000172467
0.000141259
0.000210327
0.000249206
0.000291135
0.000315759
0.000402578
0.00032582
0.000474312
0.000300546
0.00049351
0.000246379
0.000486357
0.000187683
0.000455291
0.000158526
0.000395997
0.000157599
0.000344599
0.000174932
0.000301689
0.000191818
0.000267969
0.000189877
0.000242776
0.000171681
0.000216329
0.000142966
0.000166618
0.000115225
8.20745e-05
8.9897e-05
2.81544e-05
6.75105e-05
-6.81373e-05
4.33264e-05
-0.000163783
1.99849e-05
-0.000235636
-0.000362442
3.29728e-05
-0.000251909
7.03905e-05
-0.000110774
9.65568e-05
1.86421e-05
9.96206e-05
0.000118912
9.0403e-05
0.000171729
0.000107878
0.000194221
0.000181151
0.000229702
0.000279905
0.000313027
0.00032448
0.000426843
0.000320726
0.000490741
0.000301053
0.000501792
0.000256446
0.00048715
0.000197705
0.000442052
0.000168187
0.000368246
0.000169896
0.000304943
0.000174163
0.000268987
0.00016577
0.000253199
0.000146799
0.000240156
0.00013566
0.000186331
0.000119324
0.000110504
9.38852e-05
6.15319e-05
7.13711e-05
-4.07499e-05
4.69415e-05
-0.000139123
2.23744e-05
-0.000213069
-0.000342989
3.47979e-05
-0.000285234
5.96506e-05
-0.000148734
7.47616e-05
-1.30274e-05
7.6242e-05
0.000101258
7.09278e-05
0.000161413
7.58485e-05
0.000182387
0.000106218
0.00020039
0.000179411
0.000244303
0.000259689
0.000344258
0.000282758
0.000458828
0.00027253
0.000504013
0.000245822
0.000504775
0.00020125
0.000482363
0.000163153
0.000410572
0.000151749
0.000325592
0.00013341
0.000293854
0.000101876
0.000289302
8.18876e-05
0.000269267
9.92264e-05
0.000183755
9.50024e-05
0.000127882
7.6878e-05
8.32869e-05
6.24844e-05
-2.39296e-05
4.22529e-05
-0.000119141
1.99001e-05
-0.000192649
-0.000323546
2.12135e-05
-0.00030537
2.47894e-05
-0.000167486
2.58943e-05
-3.16005e-05
3.09664e-05
8.01669e-05
2.96331e-05
0.00014657
3.39654e-05
0.000165061
5.45428e-05
0.000176044
9.27439e-05
0.000206319
0.000154538
0.000276468
0.000195608
0.000402903
0.000191816
0.000491383
0.000172477
0.000517208
0.000146266
0.000509347
0.000117821
0.000453706
0.000104691
0.000354449
7.35608e-05
0.000333426
2.97554e-05
0.000335737
2.56864e-05
0.000280123
4.97654e-05
0.000172348
4.93225e-05
0.000133774
4.19852e-05
8.94749e-05
3.72008e-05
-1.82913e-05
2.62698e-05
-0.000107563
1.21993e-05
-0.000179217
-0.000311361
2.92766e-06
-0.000300146
-1.37395e-05
-0.000163645
-2.17575e-05
-3.71616e-05
-9.9838e-06
5.9096e-05
-8.18169e-07
0.000127065
8.02005e-06
0.000142669
2.32793e-05
0.000152468
4.49578e-05
0.000180156
7.31785e-05
0.00024126
0.000107308
0.000354913
0.000111505
0.000471703
9.42164e-05
0.000525367
7.61036e-05
0.000527675
5.54885e-05
0.000489256
3.92898e-05
0.000389322
1.56965e-05
0.000363241
-1.00447e-05
0.000360164
-7.0384e-06
0.000279251
-2.58418e-06
0.000167467
5.15822e-06
0.000123985
1.47061e-05
7.79559e-05
1.63076e-05
-2.09067e-05
1.12339e-05
-0.000103199
4.76542e-06
-0.000172649
-0.00030566
-1.55833e-05
-0.00027404
-3.64191e-05
-0.000147806
-4.37641e-05
-3.9499e-05
-2.74175e-05
3.66109e-05
-8.41783e-08
9.69648e-05
2.17498e-05
0.000113121
3.58699e-05
0.000126874
4.09617e-05
0.000163123
4.30786e-05
0.00022635
5.72943e-05
0.000326154
6.62324e-05
0.000448332
5.78553e-05
0.000523586
4.94041e-05
0.000533991
3.86743e-05
0.000506983
1.49998e-05
0.000426657
-2.91848e-06
0.000388338
-1.21784e-05
0.000368798
-1.47766e-05
0.000279266
-2.34882e-05
0.000167581
-1.45612e-05
0.000107147
1.04785e-06
5.95144e-05
5.53428e-06
-2.74435e-05
4.94333e-06
-0.000104564
2.35307e-06
-0.000170675
-0.000301309
-1.56822e-05
-0.000244998
-2.99924e-05
-0.000129727
-3.33105e-05
-4.29386e-05
-1.23465e-05
1.07319e-05
2.49229e-05
5.77741e-05
5.59062e-05
7.91622e-05
6.50524e-05
0.000103143
4.69541e-05
0.000156809
2.52547e-05
0.000224142
1.3889e-05
0.000313276
1.28965e-05
0.000427796
1.4547e-05
0.000510056
1.98803e-05
0.000526413
2.57892e-05
0.000506904
2.31342e-05
0.000442661
1.68704e-05
0.000400184
1.05883e-05
0.000372187
1.17039e-06
0.000280872
-6.7331e-06
0.000167828
-4.79615e-06
9.90571e-05
2.64521e-06
4.59517e-05
4.54303e-06
-3.31039e-05
3.11503e-06
-0.000105298
1.30509e-06
-0.000167504
-0.000295993
-1.22641e-05
-0.000215665
-2.32269e-05
-0.000112493
-2.34452e-05
-4.86555e-05
-7.29533e-06
-1.14187e-05
2.09849e-05
2.407e-05
3.67449e-05
5.63869e-05
2.96512e-05
9.37015e-05
6.93714e-07
0.000155472
-3.76667e-05
0.00022216
-6.79782e-05
0.000306133
-7.53751e-05
0.000409815
-5.73061e-05
0.000480294
-2.40973e-05
0.000498763
8.06701e-06
0.0004864
2.72507e-05
0.000434854
4.09365e-05
0.000392702
4.64973e-05
0.000364997
3.70108e-05
0.000281144
2.50867e-05
0.000169248
2.32348e-05
9.49782e-05
2.41549e-05
3.97693e-05
1.93302e-05
-3.16237e-05
1.22155e-05
-9.88282e-05
4.99248e-06
-0.000157934
-0.000286666
-2.05015e-05
-0.000169935
-3.8174e-05
-7.79078e-05
-5.01697e-05
-3.53732e-05
-6.03081e-05
-6.88123e-06
-6.88311e-05
2.32968e-05
-8.38534e-05
5.87153e-05
-0.000111445
9.83787e-05
-0.000136931
0.000151901
-0.00016146
0.000212879
-0.000173529
0.000288311
-0.000155476
0.000373903
-0.000105324
0.000427008
-4.25584e-05
0.000443664
1.01683e-05
0.000441071
4.19635e-05
0.000410401
6.80535e-05
0.000370728
8.37347e-05
0.000347266
7.64685e-05
0.000279235
5.89123e-05
0.000174793
5.10258e-05
9.53579e-05
4.54146e-05
4.08437e-05
3.57411e-05
-2.49556e-05
2.3299e-05
-8.68462e-05
1.05324e-05
-0.000143847
-0.000272849
-3.47718e-05
-0.000100706
-8.13356e-05
7.90394e-07
-0.000127144
2.62533e-05
-0.000168296
3.60263e-05
-0.00021187
5.60686e-05
-0.000248683
7.83008e-05
-0.000267798
0.000105235
-0.000268921
0.00014446
-0.000258353
0.00019511
-0.000234531
0.000260004
-0.000180093
0.000323974
-0.000103143
0.000362592
-2.21979e-05
0.000377277
4.53159e-05
0.000384912
8.71609e-05
0.000374822
0.000118192
0.000343127
0.000138372
0.000324375
0.000132185
0.000276198
0.000105884
0.000187558
8.25333e-05
0.000108456
6.65156e-05
5.29536e-05
5.01261e-05
-8.24734e-06
3.14354e-05
-6.59994e-05
1.3063e-05
-0.000121878
-0.000253553
-4.33909e-05
-3.69798e-05
-9.97693e-05
9.39236e-05
-0.000185822
0.000132286
-0.000269535
0.000117185
-0.000315198
9.93034e-05
-0.000332417
9.65228e-05
-0.000319994
0.000102687
-0.000287696
0.000127882
-0.000249403
0.000172022
-0.000195656
0.000221856
-0.000124278
0.000270613
-4.6119e-05
0.00030212
3.15506e-05
0.000316068
9.82353e-05
0.000330968
0.000147656
0.000332417
0.000180894
0.000314099
0.000204867
0.000299546
0.000202825
0.000270759
0.000168409
0.000208719
0.000132698
0.00013305
0.00010581
8.1774e-05
8.06423e-05
2.49666e-05
5.21667e-05
-3.14807e-05
2.32845e-05
-8.87517e-05
-0.000225588
-1.44485e-05
-1.74377e-05
-3.38119e-05
0.000128094
-8.98185e-05
0.000205623
-0.000189519
0.000216754
-0.000275667
0.000168187
-0.000303793
0.000115536
-0.000290931
9.48654e-05
-0.000249017
0.000103216
-0.000189784
0.000137169
-0.000119744
0.000177123
-5.06437e-05
0.000222974
1.4774e-05
0.000254216
7.56184e-05
0.000268824
0.000131831
0.000285136
0.000172459
0.000297832
0.000189124
0.000295216
0.000198959
0.000286882
0.000200485
0.000270042
0.000183315
0.000223873
0.000154848
0.0001652
0.000124354
0.000123808
9.58396e-05
6.45855e-05
6.11909e-05
7.00022e-06
2.73436e-05
-5.39181e-05
-0.000196915
5.24042e-06
-2.13298e-05
9.9644e-06
0.000125129
9.40592e-06
0.000212687
-4.23816e-05
0.000262904
-0.000135986
0.000236649
-0.000187813
0.000142644
-0.000183853
8.83936e-05
-0.000155912
8.5649e-05
-0.000112172
0.000105983
-5.98398e-05
0.000139448
-5.77479e-07
0.000178511
4.9656e-05
0.000213178
8.79847e-05
0.0002375
0.000122836
0.00025473
0.00014636
0.000276766
0.000155478
0.000285276
0.000158618
0.000282989
0.000156383
0.00027312
0.000146416
0.00024095
0.000119438
0.000206102
0.000100039
0.000158503
7.94012e-05
9.33783e-05
4.94313e-05
3.68439e-05
2.14336e-05
-2.63486e-05
-0.000174311
2.20276e-07
-2.20758e-05
-5.89909e-06
0.00012854
-9.57068e-06
0.000213314
-2.34305e-05
0.000273564
-5.83274e-05
0.000266508
-7.94247e-05
0.000161449
-7.70201e-05
8.80551e-05
-6.71249e-05
7.77484e-05
-4.74121e-05
8.71415e-05
-2.17505e-05
0.000110214
5.15843e-06
0.000145511
2.66097e-05
0.00018532
4.14651e-05
0.000217768
5.57781e-05
0.000235398
6.87183e-05
0.000256529
7.40571e-05
0.000273205
7.42653e-05
0.000278903
7.45711e-05
0.000276243
6.68304e-05
0.000260042
5.56964e-05
0.000228863
5.92153e-05
0.000165152
5.07093e-05
0.000105095
3.26801e-05
5.30873e-05
1.47046e-05
-8.68192e-06
-0.000159213
-5.58596e-06
-1.62589e-05
-2.09124e-05
0.000141974
-3.2958e-05
0.000223326
-4.58142e-05
0.000286326
-6.41781e-05
0.000287088
-7.60802e-05
0.000180026
-8.19324e-05
0.000104766
-7.98901e-05
8.73492e-05
-7.49107e-05
8.73557e-05
-7.62311e-05
0.000102956
-7.9069e-05
0.000127878
-7.98679e-05
0.000163172
-8.15356e-05
0.00020162
-7.90546e-05
0.000222144
-6.6835e-05
0.000236579
-5.2771e-05
0.000255588
-3.86255e-05
0.000265332
-2.53233e-05
0.000266554
-1.46117e-05
0.000255422
1.05535e-05
0.000211317
2.62916e-05
0.00015125
2.40145e-05
0.00010577
1.69658e-05
6.00877e-05
7.16343e-06
2.29885e-06
-0.000149703
-5.9061e-06
-1.02757e-05
-2.07673e-05
0.00015652
-2.86037e-05
0.000233617
-3.94831e-05
0.000298891
-6.47178e-05
0.000311401
-9.99751e-05
0.000217397
-0.000134868
0.00014575
-0.000168741
0.00012432
-0.000196494
0.000114356
-0.000212984
0.000112505
-0.000211709
0.000119435
-0.000193409
0.000136446
-0.000168247
0.000167791
-0.000147056
0.000193815
-0.000121998
0.000208733
-9.04061e-05
0.000224016
-5.94863e-05
0.000236842
-3.3354e-05
0.000243289
-9.12342e-06
0.000232258
1.80413e-05
0.000184696
2.56716e-05
0.000144069
2.3101e-05
0.000107431
1.56711e-05
6.87103e-05
6.5298e-06
1.30182e-05
-0.000140634
-1.19369e-06
-7.90133e-06
-8.75188e-06
0.000163811
-8.70104e-06
0.000236932
-6.39019e-06
0.000298754
-2.14935e-05
0.000322658
-6.78568e-05
0.000249558
-0.000113108
0.000184155
-0.000157439
0.00017495
-0.000209467
0.000172868
-0.000251417
0.000150711
-0.00027557
0.00013945
-0.00027106
0.000132241
-0.000239735
0.000137606
-0.00019426
0.0001518
-0.000147664
0.000167003
-9.98146e-05
0.000180889
-5.31942e-05
0.000194637
-1.25335e-05
0.000206461
2.24078e-05
0.000199554
3.77936e-05
0.000170389
3.66591e-05
0.000145687
3.08208e-05
0.0001144
1.9256e-05
8.14684e-05
9.93054e-06
2.2453e-05
-0.000130608
-2.18199e-06
-5.31902e-06
-8.43411e-06
0.00016981
-1.1723e-05
0.000242045
-4.63805e-07
0.000291015
6.29999e-06
0.000314043
-8.98649e-06
0.000256517
-2.64912e-05
0.000197937
-5.07116e-05
0.000200291
-0.000103646
0.000219162
-0.000163648
0.000201538
-0.000204008
0.000177112
-0.000221062
0.000154688
-0.000216407
0.000144685
-0.000200096
0.0001454
-0.00017911
0.00014974
-0.000144531
0.000150387
-9.65498e-05
0.000154125
-4.25939e-05
0.00016134
2.15123e-06
0.000163055
2.17118e-05
0.000155702
2.58181e-05
0.000141464
2.13598e-05
0.000118558
1.19069e-05
9.01447e-05
7.60166e-06
2.64766e-05
-0.000122366
-3.59067e-06
-1.224e-06
-8.69675e-06
0.000177041
-2.02876e-05
0.000254198
-9.93145e-06
0.000287447
1.11371e-05
0.000297751
1.80766e-05
0.000253925
5.80543e-06
0.000210616
-1.93428e-05
0.000223338
-4.46994e-05
0.000243697
-6.79947e-05
0.000225153
-8.79113e-05
0.000195325
-0.000109808
0.000171237
-0.00012692
0.000156735
-0.000135597
0.00015448
-0.000133778
0.000155522
-0.000122415
0.000150245
-0.000100984
0.000140831
-6.46075e-05
0.000131687
-2.62358e-05
0.000131901
-3.42674e-06
0.000135951
5.59133e-06
0.000133164
5.92528e-06
0.000118823
2.33828e-06
9.27146e-05
6.0026e-06
2.39974e-05
-0.000115363
-6.47737e-07
1.01851e-07
-6.59032e-07
0.000182541
-1.94627e-05
0.000271669
-1.85499e-05
0.000294317
2.57493e-06
0.000289623
1.56599e-05
0.000254268
-6.58255e-06
0.000234005
-4.21882e-05
0.000254021
-6.40429e-05
0.00026403
-7.56718e-05
0.000238449
-8.60536e-05
0.000207236
-9.18669e-05
0.000178022
-8.67539e-05
0.000153603
-7.67144e-05
0.000146301
-7.03062e-05
0.000149744
-7.54258e-05
0.000155324
-7.41977e-05
0.000144407
-5.72671e-05
0.000123019
-3.68153e-05
0.000116598
-2.26392e-05
0.000123834
-1.50059e-05
0.000126849
-1.29845e-05
0.000116831
-8.00215e-06
8.81111e-05
5.4951e-06
1.30279e-05
-0.000109652
3.20349e-06
-3.05275e-06
7.94839e-06
0.000181993
-8.88641e-06
0.000288534
-2.01279e-05
0.00031071
-8.22982e-06
0.000293298
-5.70729e-06
0.000263444
-3.33725e-05
0.000260791
-6.28703e-05
0.000278884
-8.02216e-05
0.000280681
-9.37921e-05
0.00025291
-0.000107917
0.000221445
-0.000115234
0.000184793
-0.000106887
0.00014605
-8.98876e-05
0.00013071
-7.1978e-05
0.000130774
-6.43353e-05
0.000147059
-6.2586e-05
0.000145269
-5.6304e-05
0.000120755
-4.6705e-05
0.000110899
-4.03436e-05
0.000118893
-3.56988e-05
0.000122339
-2.95619e-05
0.000110008
-1.42596e-05
7.38878e-05
3.80659e-06
-2.30869e-06
-0.000105953
4.02768e-06
-7.64983e-06
1.21044e-05
0.00017574
4.59203e-06
0.000295726
-1.25304e-05
0.000328939
-2.00883e-05
0.000308256
-3.14725e-05
0.000280545
-4.56202e-05
0.000275418
-5.49181e-05
0.000287689
-6.2114e-05
0.000287191
-7.45456e-05
0.000263098
-9.30955e-05
0.000234277
-0.000116281
0.000198194
-0.000133088
0.00015223
-0.00012362
0.000118514
-9.61265e-05
0.00010793
-7.43995e-05
0.000129544
-6.7807e-05
0.000140888
-6.36191e-05
0.000117765
-5.94807e-05
0.000108947
-5.6785e-05
0.000117206
-5.08228e-05
0.000115974
-3.79139e-05
9.67765e-05
-1.63892e-05
5.43506e-05
2.54482e-06
-1.76038e-05
-0.000103792
4.40392e-06
-1.31825e-05
1.25422e-05
0.00016575
1.8935e-05
0.000288154
9.78644e-06
0.000335585
-8.08225e-06
0.000324158
-2.54473e-05
0.000298543
-3.11535e-05
0.000282984
-2.48071e-05
0.000283074
-1.57461e-05
0.000277344
-1.6064e-05
0.000258281
-2.73284e-05
0.000236828
-5.28958e-05
0.000208587
-8.83608e-05
0.000170971
-0.000100803
0.000126199
-8.63197e-05
0.000101352
-6.73339e-05
0.000118335
-6.19364e-05
0.000138045
-6.056e-05
0.000116694
-6.08082e-05
0.000110048
-6.20458e-05
0.000118178
-5.51013e-05
0.000108205
-4.01722e-05
8.25017e-05
-1.68036e-05
3.48086e-05
1.38544e-06
-3.14555e-05
-0.000103044
4.91114e-06
-1.73352e-05
6.33924e-06
0.00015835
2.58986e-05
0.000266168
2.91501e-05
0.000327046
2.0657e-05
0.000325783
9.6493e-06
0.000305061
8.48757e-06
0.00028443
2.20885e-05
0.000272962
3.94611e-05
0.000262143
4.93892e-05
0.000246451
5.02677e-05
0.000230757
4.13073e-05
0.00020876
1.36141e-05
0.000182057
-2.39925e-05
0.000146223
-3.54388e-05
0.00011724
-3.59445e-05
0.000131269
-3.921e-05
0.000145797
-4.38089e-05
0.000122678
-5.1709e-05
0.000117009
-5.59539e-05
0.000121007
-5.08296e-05
0.000102751
-3.77536e-05
7.05347e-05
-1.5263e-05
1.69974e-05
-8.44015e-07
-4.20737e-05
-0.000104816
2.32101e-06
-1.62059e-05
-5.97672e-06
0.000160458
1.23507e-05
0.000243942
3.16049e-05
0.000302737
3.59924e-05
0.000313892
3.7158e-05
0.00029774
4.29448e-05
0.000276395
5.64956e-05
0.000261057
7.33654e-05
0.000247265
8.98699e-05
0.000230696
0.000101253
0.000218298
0.000100227
0.000206015
8.6894e-05
0.000190162
6.1449e-05
0.000169266
2.4888e-05
0.000156476
-2.71812e-06
0.000166489
-1.13e-05
0.000161764
-2.42716e-05
0.000136226
-4.16072e-05
0.000131405
-4.67534e-05
0.000124294
-4.22419e-05
9.81592e-05
-2.88564e-05
5.87406e-05
-1.30939e-05
5.20107e-06
-5.50227e-06
-4.77875e-05
-0.000110701
-2.79675e-06
-9.20108e-06
-1.97031e-05
0.000173632
-1.74082e-05
0.000239141
8.95823e-06
0.000275278
3.54164e-05
0.000284304
5.63427e-05
0.000271475
7.78742e-05
0.000251193
0.000101139
0.000235401
0.000124115
0.000223978
0.000141243
0.000215011
0.000148167
0.000213296
0.000140369
0.000213406
0.000120405
0.000213007
8.12051e-05
0.000217034
3.83472e-05
0.000209671
1.23811e-05
0.000199828
2.69845e-07
0.000176189
-1.92075e-05
0.000153387
-3.76471e-05
0.000145473
-4.00712e-05
0.000125514
-3.20568e-05
9.11073e-05
-1.84911e-05
4.75135e-05
-1.1105e-05
5.3383e-07
-9.52136e-06
-4.91925e-05
-0.000119953
-3.23369e-06
-2.04386e-06
-1.98711e-05
0.00018969
-2.45936e-05
0.000242697
-5.94501e-06
0.000256778
3.88803e-05
0.000241791
9.13241e-05
0.000220429
0.000137367
0.000205201
0.00017296
0.000199543
0.000189818
0.000206616
0.000183025
0.000218245
0.000159214
0.000233201
0.000122951
0.000251048
7.65033e-05
0.000267483
3.37679e-05
0.00027335
9.61266e-06
0.000241817
-1.06603e-06
0.0002127
-1.51982e-05
0.000188114
-3.49863e-05
0.000168349
-4.28078e-05
0.000150189
-3.63144e-05
0.000119553
-2.26898e-05
8.029e-05
-1.04534e-05
3.89248e-05
-7.50301e-06
-6.90705e-07
-7.72008e-06
-4.96301e-05
-0.000127841
1.24525e-06
9.41668e-07
-9.15898e-07
0.000191825
3.46076e-06
0.000238298
2.95729e-05
0.000233374
8.31682e-05
0.000194756
0.000142665
0.000170588
0.000183546
0.000169223
0.000194962
0.000187094
0.00017714
0.000219084
0.00013826
0.000250158
8.56944e-05
0.000281157
2.75547e-05
0.000309375
-2.25866e-05
0.000321775
-3.78139e-05
0.000295458
-3.64096e-05
0.000246654
-3.76783e-05
0.000215137
-5.1537e-05
0.000198032
-6.0033e-05
0.00017436
-5.29755e-05
0.000144574
-3.70207e-05
0.00010799
-2.15551e-05
7.05205e-05
-1.14612e-05
3.374e-05
-8.98334e-06
-1.53816e-06
-4.76809e-06
-5.27742e-05
-0.00013266
-1.4949e-06
3.60776e-06
2.6018e-05
0.000173918
4.71572e-05
0.000221693
7.56071e-05
0.000210947
0.000110698
0.000168302
0.000140055
0.000153323
0.000152065
0.000166615
0.000132639
0.00020625
8.57553e-05
0.000253366
3.48793e-05
0.000289521
-1.24961e-05
0.000322115
-4.55215e-05
0.000340367
-6.0271e-05
0.000338974
-5.94497e-05
0.000297122
-6.29499e-05
0.000251197
-7.72044e-05
0.000225029
-8.94242e-05
0.000205597
-8.54954e-05
0.000171965
-7.02884e-05
0.000134673
-5.29057e-05
9.7323e-05
-3.88649e-05
6.26134e-05
-2.96305e-05
2.84806e-05
-2.30982e-05
-5.78476e-06
-8.59918e-06
-6.44664e-05
-0.000140636
-3.90695e-06
9.19219e-06
7.91823e-05
0.000120956
0.000112002
0.000203503
0.000115828
0.00021302
0.000109188
0.000183461
0.000104744
0.000165777
8.73208e-05
0.000185557
5.23394e-05
0.000234071
1.75467e-05
0.000280352
-7.32036e-06
0.000311287
-2.41239e-05
0.000337412
-3.54627e-05
0.000349849
-4.23149e-05
0.000343171
-4.75448e-05
0.000298936
-6.70553e-05
0.00026433
-9.0636e-05
0.000240572
-0.00010323
0.000213987
-0.000106373
0.000172064
-9.8728e-05
0.000128961
-8.71185e-05
8.93458e-05
-7.64536e-05
5.4203e-05
-6.82691e-05
2.10269e-05
-5.4169e-05
-1.85052e-05
-2.1686e-05
-9.1501e-05
-0.000158483
2.67319e-05
-1.38321e-05
0.000106812
5.52325e-05
0.000157046
0.00016947
0.000146229
0.000224843
0.000113666
0.000219201
8.1998e-05
0.000201385
5.33815e-05
0.000215733
2.64789e-05
0.000257368
1.37729e-05
0.000291609
7.58016e-06
0.00031939
5.66492e-06
0.000341683
5.50658e-06
0.000350285
1.58242e-06
0.000342584
-1.2891e-05
0.000306109
-3.91136e-05
0.0002808
-6.33398e-05
0.000258965
-7.93238e-05
0.00022571
-9.46771e-05
0.000180612
-0.000104275
0.000130051
-0.000104927
8.36815e-05
-0.000101755
4.78188e-05
-9.89257e-05
1.61508e-05
-8.22722e-05
-3.18434e-05
-3.82499e-05
-0.000129235
-0.000188117
5.67606e-05
-6.88267e-05
8.67639e-05
1.73556e-05
0.000122379
0.000126828
0.000115091
0.000224624
8.90263e-05
0.000242607
5.81988e-05
0.000233474
3.50519e-05
0.000242918
2.20917e-05
0.000271816
2.71801e-05
0.000288772
4.52484e-05
0.00030584
6.36339e-05
0.000327476
7.46708e-05
0.000341898
7.47585e-05
0.000340487
5.36015e-05
0.000320821
2.81743e-05
0.000300156
6.30513e-06
0.000275383
-1.64558e-05
0.00024014
-4.14638e-05
0.000194907
-6.7396e-05
0.000142659
-8.37062e-05
8.91168e-05
-8.90263e-05
4.81364e-05
-9.22905e-05
1.49074e-05
-8.4563e-05
-4.17913e-05
-5.69729e-05
-0.000160124
-0.00023353
3.26771e-05
-0.000107812
2.71676e-05
7.78196e-06
1.86878e-05
0.000111147
1.53279e-05
0.000211281
9.53773e-06
0.0002426
-1.82234e-07
0.000246028
-1.28731e-05
0.000257536
-8.34271e-06
0.000269984
1.694e-05
0.00026885
6.04229e-05
0.000270078
0.000110389
0.000285607
0.000145481
0.000313798
0.000156898
0.000332806
0.000144018
0.000331481
0.00012085
0.000319233
9.82212e-05
0.000292299
7.50651e-05
0.000253717
4.87505e-05
0.000208461
1.87288e-05
0.000158334
-1.12776e-05
0.000105811
-2.93339e-05
6.13143e-05
-4.24783e-05
2.35783e-05
-4.51928e-05
-4.52224e-05
-4.55505e-05
-0.000175029
-0.000281101
-6.02971e-06
-9.96009e-05
-4.66749e-05
3.15898e-05
-8.34138e-05
0.000123232
-8.61096e-05
0.00020141
-8.04964e-05
0.000232404
-8.08606e-05
0.000246625
-8.2325e-05
0.000258206
-5.9348e-05
0.000252155
-8.93384e-06
0.000228001
5.45733e-05
0.000219576
0.000126953
0.000228618
0.000191524
0.000262242
0.000227161
0.000305586
0.000237079
0.000324851
0.000225725
0.000328561
0.000196509
0.000315355
0.000162588
0.000279043
0.000134679
0.000227429
0.000111054
0.000173722
8.64178e-05
0.00012335
6.18343e-05
7.87631e-05
3.8537e-05
4.00189e-05
1.58063e-05
-3.63705e-05
-1.25268e-05
-0.00016596
-0.000303083
-4.13221e-05
-5.01312e-05
-8.4779e-05
7.06147e-05
-0.000115113
0.000145719
-0.000120464
0.000204105
-0.000121914
0.000230373
-0.000123098
0.00024437
-0.000119056
0.000250995
-8.8732e-05
0.0002228
-2.50166e-05
0.000173687
4.80191e-05
0.000163562
0.00012371
0.000172694
0.000201961
0.000203075
0.000255515
0.000264149
0.000269209
0.000315506
0.000262594
0.000335958
0.000245992
0.000330388
0.000216608
0.000305232
0.000187276
0.000252776
0.000163354
0.000194859
0.000144907
0.000140031
0.000125676
9.43916e-05
0.000102248
5.58109e-05
6.77306e-05
-1.94405e-05
1.4738e-05
-0.000130649
-0.000290131
-3.72372e-05
-6.88453e-06
-6.55704e-05
0.000105558
-8.48755e-05
0.000166938
-9.06889e-05
0.000209667
-8.98206e-05
0.00022907
-8.47114e-05
0.000236679
-6.9391e-05
0.000230612
-2.64754e-05
0.000174936
3.05755e-05
0.000121225
9.06566e-05
0.000116916
0.000150941
0.000132225
0.00020709
0.000168042
0.000240473
0.000239515
0.000242374
0.000312129