/*--------------------------------*- C++ -*----------------------------------*\
| =========                 |                                                 |
| \\      /  F ield         | OpenFOAM: The Open Source CFD Toolbox           |
|  \\    /   O peration     | Version:  2.3.0                                 |
|   \\  /    A nd           | Web:      www.OpenFOAM.org                      |
|    \\/     M anipulation  |                                                 |
\*---------------------------------------------------------------------------*/
FoamFile
{
    version     2.0;
    format      ascii;
    class       surfaceScalarField;
    location    "18";
    object      phi.water;
}
// * * * * * * * * * * * * * * * * * * * * * * * * * * * * * * * * * * * * * //

dimensions      [0 3 -1 0 0 0 0];

internalField   nonuniform List<scalar> 
3650
(
0.000218018
-0.000209909
0.000421934
-0.000194117
0.000565913
-0.000135217
0.000664907
-9.00969e-05
0.000728847
-5.44903e-05
0.0007687
-2.90823e-05
0.000779004
1.98508e-08
0.000758126
3.21464e-05
0.000709396
5.59683e-05
0.000633626
7.76903e-05
0.000529532
9.51207e-05
0.000388999
0.000127807
0.000242113
0.00014177
4.97953e-05
0.000172053
-0.000157931
0.000170685
-0.00034264
0.000160656
-0.000487111
0.000137998
-0.000577898
0.00010243
-0.000624998
6.41777e-05
-0.000602949
-7.95309e-06
-0.000544743
-4.68056e-05
-0.000453128
-8.54905e-05
-0.00031434
-0.000136035
-0.000156883
-0.000154252
-0.000154611
0.000142677
-0.000353297
0.000256387
-0.000313856
0.000304945
-0.000205679
0.000338148
-0.000149384
0.000357489
-8.97997e-05
0.000359387
-3.96195e-05
0.000352336
1.14969e-05
0.000342626
5.03025e-05
0.00032545
8.87658e-05
0.000294997
0.000124502
0.00024933
0.000151294
0.000169866
0.000194322
5.39088e-05
0.000230321
-3.05431e-05
0.000241752
-0.000148697
0.000273479
-0.000262687
0.000260142
-0.000373014
0.000241965
-0.000465893
0.000207851
-0.000493497
0.000105023
-0.000496199
2.67132e-06
-0.000459943
-7.8254e-05
-0.00039307
-0.000150969
-0.000296214
-0.000234875
-0.000160116
-0.000295383
-0.000322061
3.01742e-05
-0.000387424
2.58022e-05
-0.000323471
7.00408e-06
-0.000204551
1.35532e-05
-0.000160825
2.40071e-05
-0.000106139
3.2288e-05
-5.4861e-05
6.69875e-05
-3.08412e-05
0.000117617
2.01017e-06
0.0001526
6.50619e-05
0.000157099
0.000133676
0.000132428
0.000188206
8.49873e-05
0.000247267
1.76934e-05
0.000287741
-2.80305e-05
0.00027741
-7.06515e-05
0.000308325
-0.000125861
0.000306517
-0.000180129
0.000295878
-0.000229052
0.000273893
-0.000263507
0.000154057
-0.00028706
2.12667e-05
-0.000293364
-7.54417e-05
-0.000256241
-0.000188248
-0.000206031
-0.000287293
-0.000124138
-0.000381596
-0.000454738
-2.51207e-05
-0.000370237
-5.57313e-05
-0.000306735
-4.71591e-05
-0.000212949
-2.9052e-05
-0.000171195
-7.08052e-06
-0.000116489
1.38363e-05
-6.19182e-05
1.40631e-05
-2.0333e-05
3.61943e-06
2.23225e-05
1.6134e-06
8.23204e-05
-9.67834e-07
0.000152751
-1.70949e-05
0.000216271
-3.2127e-05
0.000270597
-3.59694e-05
0.000288091
-4.19289e-05
0.000276106
-3.73302e-05
0.000299963
-2.54682e-05
0.000290834
9.99584e-07
0.000267615
1.22007e-05
0.000266599
-5.90562e-06
0.000189876
-3.75401e-05
6.83003e-05
-5.71509e-05
-5.3314e-05
-5.88588e-05
-0.000190173
-5.79038e-05
-0.000293974
-4.30618e-05
-0.000403978
-0.000504914
-5.36902e-05
-0.000322718
-0.000107637
-0.000264579
-0.000151167
-0.000176237
-0.000183326
-0.000138815
-0.000203773
-9.00453e-05
-0.000213156
-4.33798e-05
-0.000227499
1.06587e-05
-0.000240244
5.60766e-05
-0.000245964
0.0001094
-0.000239608
0.000163058
-0.000221142
0.000209502
-0.000182442
0.000235756
-0.000131396
0.000237525
-9.96522e-05
0.000241463
-6.48752e-05
0.000263151
-2.23904e-05
0.00024658
1.83274e-05
0.000225368
4.34932e-05
0.000242323
4.06721e-05
0.000198296
4.00899e-05
7.43002e-05
5.04267e-05
-6.23215e-05
3.49225e-05
-0.00017497
1.79126e-05
-0.000275552
-3.17295e-06
-0.000382882
-0.000509876
-4.04176e-05
-0.000283797
-8.26976e-05
-0.000225781
-0.000143295
-0.000126217
-0.000219866
-7.15124e-05
-0.000273651
-3.62595e-05
-0.000306782
-4.81258e-06
-0.000329238
3.83852e-05
-0.000339395
7.64419e-05
-0.000339914
0.00011986
-0.000320667
0.000153294
-0.000284906
0.000181162
-0.000231308
0.000188535
-0.000180162
0.000189763
-0.000139084
0.000199362
-9.00746e-05
0.000212556
-4.72612e-05
0.000203159
-2.53685e-05
0.000200018
-6.5631e-06
0.000222509
-2.21623e-06
0.00019289
2.68697e-05
4.40462e-05
5.17353e-05
-8.53365e-05
5.25866e-05
-0.000174064
3.80026e-05
-0.000259703
1.38422e-05
-0.000356504
-0.000494976
-3.80781e-06
-0.000280622
-1.27445e-05
-0.000218166
-4.33372e-05
-9.8085e-05
-0.000131022
7.15803e-06
-0.000207134
3.36448e-05
-0.000265384
5.2232e-05
-0.000292849
6.96055e-05
-0.00030734
9.61366e-05
-0.000304069
0.000122804
-0.000281256
0.000136511
-0.000243892
0.000148921
-0.000204169
0.000151975
-0.000176203
0.000162357
-0.00015353
0.000175706
-0.00012446
0.000182832
-0.000115771
0.000192666
-0.000128769
0.000208815
-0.0001175
0.000211025
-7.543e-05
0.000147408
-1.46732e-05
-1.69612e-05
9.7813e-06
-0.000108134
2.24298e-05
-0.000186197
2.00014e-05
-0.000257689
1.02949e-05
-0.000347074
-0.00048334
2.74219e-05
-0.000309056
2.48124e-05
-0.000218436
2.85104e-05
-0.000102511
1.55834e-08
3.28714e-05
-7.36876e-05
0.0001048
-0.000121246
0.0001008
-0.000151491
0.000102382
-0.000169956
0.00011818
-0.000169061
0.000126345
-0.000163314
0.000135276
-0.000157278
0.000146129
-0.000158095
0.000153412
-0.000161783
0.000165676
-0.00016599
0.000179435
-0.000177847
0.000194333
-0.000200507
0.000212808
-0.000206248
0.000213282
-0.000168766
0.000173396
-8.54032e-05
6.48564e-05
-4.90499e-05
-5.33501e-05
-2.91863e-05
-0.000129363
-1.38533e-05
-0.000203337
-3.19846e-06
-0.000269893
1.4128e-06
-0.000352213
-0.000481922
4.66232e-05
-0.000358165
4.79656e-05
-0.000223635
5.39051e-05
-0.000109042
7.2897e-05
1.77662e-05
1.75947e-05
0.000160098
-4.92277e-05
0.000167721
-8.02706e-05
0.000136622
-9.30526e-05
0.000135682
-0.000102121
0.000140587
-0.000116629
0.000152739
-0.000131539
0.000162326
-0.000155552
0.000177775
-0.000181955
0.000192704
-0.000209173
0.000207524
-0.000235008
0.00021923
-0.00024579
0.000221511
-0.000221946
0.00019164
-0.000157414
0.000111685
-0.000107185
1.63321e-05
-9.70599e-05
-6.49395e-05
-7.95641e-05
-0.000148044
-5.8398e-05
-0.000226553
-3.76111e-05
-0.000292676
-1.60056e-05
-0.000373794
-0.000497014
2.32504e-05
-0.000383132
1.27564e-05
-0.000216891
9.1809e-06
-0.000107455
3.54624e-05
-5.86333e-06
4.66447e-05
0.000154618
-6.01979e-06
0.000219896
-6.17971e-05
0.000192781
-8.13191e-05
0.000158994
-9.98476e-05
0.000162755
-0.000126049
0.000181385
-0.000153159
0.000190281
-0.000177813
0.000203147
-0.000200947
0.00021688
-0.00021848
0.000225224
-0.00022987
0.000228049
-0.000217601
0.000211175
-0.000176218
0.000153464
-0.000134259
7.21906e-05
-0.000121597
3.29424e-06
-0.000111099
-7.64362e-05
-0.000101467
-0.000158781
-7.96034e-05
-0.000249618
-4.83712e-05
-0.000323824
-2.25073e-05
-0.000398965
-0.000520065
4.55685e-07
-0.00038468
-1.29439e-05
-0.000203378
-2.25383e-05
-0.000103077
4.6491e-06
-3.26112e-05
5.40034e-05
0.00011025
5.26372e-05
0.000223179
-1.13874e-05
0.0002545
-6.70752e-05
0.000214131
-9.73187e-05
0.000193643
-0.000121318
0.000205608
-0.000146171
0.000215837
-0.000167127
0.000224774
-0.000180868
0.00023058
-0.000189868
0.000232755
-0.000188853
0.000226975
-0.000163254
0.000188646
-0.000124627
0.000118136
-0.000103213
5.08707e-05
-8.44054e-05
-1.62985e-05
-7.54355e-05
-8.53314e-05
-6.90582e-05
-0.000164296
-5.33588e-05
-0.000264164
-2.8757e-05
-0.000347246
-1.33243e-05
-0.000414389
-0.000534072
-4.1469e-06
-0.000380497
-7.09321e-06
-0.00020022
-1.5256e-05
-9.99032e-05
-7.37973e-06
-4.34328e-05
5.97773e-05
4.46391e-05
0.000122588
0.000164058
0.000111285
0.00026594
3.78274e-05
0.000283854
-3.20738e-05
0.000261001
-7.27557e-05
0.000245276
-9.39747e-05
0.000236181
-0.00010358
0.000233887
-0.000106603
0.000232441
-9.95921e-05
0.00022496
-7.89645e-05
0.000207856
-4.98351e-05
0.000163733
-3.24769e-05
0.00010328
-2.42838e-05
4.40808e-05
-1.3757e-05
-2.37172e-05
-6.93233e-07
-9.57817e-05
-2.38437e-06
-0.000160804
-7.52866e-06
-0.000259033
-6.15196e-06
-0.000350527
-4.42892e-06
-0.000418291
-0.000539102
3.37974e-06
-0.000383604
2.07373e-05
-0.000217503
2.72133e-05
-0.000108538
1.88765e-05
-4.23141e-05
5.89267e-05
2.19991e-06
0.00014459
7.99411e-05
0.000210851
0.000200834
0.000206549
0.000288028
0.000150491
0.000315044
8.55999e-05
0.000308046
3.86753e-05
0.000282666
2.42397e-05
0.000247887
4.06807e-05
0.00021484
7.05347e-05
0.000194393
0.0001103
0.000170102
0.000140957
0.000136898
0.000148456
0.000101033
0.000134788
6.37034e-05
0.000109696
5.41033e-06
9.72043e-05
-8.23158e-05
7.64619e-05
-0.000140171
5.24824e-05
-0.0002361
3.24217e-05
-0.000331734
1.43018e-05
-0.000402822
-0.000527929
1.81504e-05
-0.000402354
5.25163e-05
-0.00025259
7.43698e-05
-0.000131462
7.1267e-05
-4.48879e-05
7.19348e-05
-2.68002e-06
0.000118519
3.22039e-05
0.000212742
0.000107975
0.00027824
0.000223141
0.000289199
0.000303468
0.000267268
0.000328446
0.000224872
0.000325861
0.000173423
0.000300416
0.00014465
0.000244072
0.00014847
0.000191818
0.000169154
0.000152085
0.000186768
0.000121547
0.000190063
9.9958e-05
0.000178418
7.68741e-05
0.000154365
2.98381e-05
0.000127815
-5.55246e-05
9.69255e-05
-0.000110823
6.83403e-05
-0.000209956
4.27182e-05
-0.000307699
1.9642e-05
-0.000380702
-0.000508948
2.54031e-05
-0.000428859
5.94437e-05
-0.000287664
8.44245e-05
-0.000158449
9.35389e-05
-5.70753e-05
8.65738e-05
-2.05843e-06
9.63585e-05
2.02823e-05
0.000150666
5.34992e-05
0.000242908
0.000132581
0.000297683
0.000250478
0.000303503
0.000323129
0.000288864
0.000339817
0.000259339
0.00033091
0.000209514
0.000295252
0.000178985
0.000223414
0.000173763
0.000157225
0.00017395
0.000121465
0.000165703
0.000108279
0.000145031
9.66264e-05
0.000132508
4.08707e-05
0.000110143
-3.47124e-05
8.15612e-05
-8.41348e-05
5.7692e-05
-0.000188316
3.61087e-05
-0.00028684
1.6761e-05
-0.000361141
-0.000491784
2.09987e-05
-0.000450461
4.46782e-05
-0.000313105
6.32121e-05
-0.0001821
7.17434e-05
-7.21572e-05
7.18855e-05
-7.31612e-06
7.35684e-05
1.4221e-05
9.49956e-05
3.1169e-05
0.000155589
7.25959e-05
0.000239872
0.000168436
0.000277191
0.000288093
0.0002763
0.000340832
0.000260816
0.000346553
0.000225152
0.000330685
0.000181539
0.000266274
0.000160426
0.000177055
0.000136031
0.000145273
0.000101187
0.000141476
7.66859e-05
0.000118666
8.71774e-05
2.81196e-05
7.5353e-05
-2.53653e-05
5.89724e-05
-6.98669e-05
4.6947e-05
-0.000177956
3.16437e-05
-0.000271671
1.56989e-05
-0.000344766
-0.000475918
6.67562e-06
-0.000457917
1.03271e-05
-0.000319611
1.87195e-05
-0.000193697
3.16802e-05
-8.67789e-05
3.53964e-05
-1.70641e-05
4.01989e-05
3.54144e-06
5.57202e-05
1.28657e-05
8.63113e-05
4.1448e-05
0.000148394
0.000108207
0.000206917
0.000233346
0.000222244
0.000328128
0.000209888
0.000358826
0.000184949
0.000354183
0.000142515
0.000305366
0.000111727
0.000204217
7.32903e-05
0.00018123
2.99355e-05
0.000182159
2.24044e-05
0.000122583
3.66069e-05
1.12549e-05
3.47914e-05
-2.55236e-05
3.22778e-05
-6.91693e-05
2.91844e-05
-0.000175828
2.04189e-05
-0.000263332
9.89042e-06
-0.000334312
-0.000466121
-1.82546e-05
-0.000442542
-3.29871e-05
-0.000306453
-2.88284e-05
-0.000193741
-8.77751e-06
-0.000102471
5.88055e-06
-3.43346e-05
1.76911e-05
-1.38833e-05
3.09644e-05
-6.30983e-06
5.06599e-05
1.98738e-05
8.01558e-05
7.92148e-05
0.000127543
0.000189317
0.000150712
0.000308415
0.000143833
0.000366749
0.000125286
0.000371323
8.86741e-05
0.000338085
4.96947e-05
0.000239075
1.93852e-05
0.000208781
-3.62239e-06
0.000203377
-4.69602e-06
0.000119771
-4.95275e-06
7.11768e-06
3.75908e-06
-3.65623e-05
1.57223e-05
-8.21554e-05
1.82083e-05
-0.000178668
1.40231e-05
-0.00025967
6.92788e-06
-0.000327905
-0.000459688
-3.52906e-05
-0.000410502
-5.63267e-05
-0.000285513
-5.44294e-05
-0.000191406
-3.25926e-05
-0.000121374
-2.44283e-06
-6.35748e-05
2.11928e-05
-4.07136e-05
3.71659e-05
-2.82603e-05
4.49877e-05
7.34628e-06
5.36879e-05
6.98739e-05
7.9264e-05
0.000166131
0.00010357
0.000287575
0.000105435
0.000366694
9.69562e-05
0.000379246
7.76436e-05
0.000355313
3.643e-05
0.00027732
7.24721e-06
0.000235625
-3.61903e-06
0.000213176
-6.40572e-06
0.000122567
-1.28183e-05
1.15375e-05
-1.61697e-06
-4.96114e-05
1.29437e-05
-9.71815e-05
1.60607e-05
-0.000181991
1.40155e-05
-0.000257896
8.03349e-06
-0.000322532
-0.000452458
-3.67393e-05
-0.00037736
-6.07586e-05
-0.00026281
-6.1144e-05
-0.000189209
-3.83037e-05
-0.000141732
-2.3819e-06
-9.80212e-05
2.61198e-05
-7.09014e-05
3.98863e-05
-4.41997e-05
3.46428e-05
9.03478e-06
2.73454e-05
7.52466e-05
3.42243e-05
0.000161135
5.32894e-05
0.000272934
6.49113e-05
0.000357475
6.7826e-05
0.000376278
6.26715e-05
0.000358576
4.20135e-05
0.000295166
2.69953e-05
0.000249688
2.03453e-05
0.000220638
1.61693e-05
0.000129833
1.3055e-05
1.74821e-05
1.49052e-05
-5.17934e-05
2.27558e-05
-0.000104907
2.33191e-05
-0.000182457
1.89579e-05
-0.000253542
1.03916e-05
-0.000315081
-0.000443406
-4.15448e-05
-0.000340354
-7.0568e-05
-0.000236624
-7.65743e-05
-0.0001816
-6.41016e-05
-0.000151348
-4.03299e-05
-0.000118759
-2.65298e-05
-8.32876e-05
-2.61727e-05
-4.2853e-05
-3.3449e-05
1.9497e-05
-3.98193e-05
8.59869e-05
-3.96577e-05
0.000166081
-2.59739e-05
0.000264972
-4.65058e-07
0.000334629
2.22713e-05
0.000351877
3.88798e-05
0.000338821
4.25538e-05
0.000289009
4.65672e-05
0.000244897
5.13612e-05
0.000217023
4.9828e-05
0.000134799
4.71808e-05
2.4045e-05
4.82157e-05
-5.07295e-05
4.89618e-05
-0.000105609
4.20592e-05
-0.000175687
3.04888e-05
-0.00024221
1.51237e-05
-0.000301116
-0.000429725
-5.51804e-05
-0.000291202
-0.000103167
-0.000195852
-0.000130254
-0.000156108
-0.000145082
-0.000133462
-0.000153644
-0.000105758
-0.000161138
-7.04829e-05
-0.000166163
-2.8464e-05
-0.000161034
2.70117e-05
-0.00015129
8.73064e-05
-0.000136265
0.000158768
-0.000105401
0.000239308
-5.74704e-05
0.000288036
-8.65552e-06
0.000301559
3.10559e-05
0.000297209
5.1685e-05
0.000266839
6.99723e-05
0.000226578
8.54545e-05
0.00020351
8.64494e-05
0.000137525
7.98296e-05
3.50827e-05
7.60334e-05
-4.40538e-05
6.9285e-05
-9.80561e-05
5.68587e-05
-0.000162893
3.94279e-05
-0.000224842
1.93918e-05
-0.000282083
-0.000411421
-6.61247e-05
-0.000232438
-0.000149525
-0.000123673
-0.000216996
-9.65142e-05
-0.000259818
-9.10608e-05
-0.000282959
-7.4554e-05
-0.000286562
-5.35006e-05
-0.000278623
-2.40889e-05
-0.000258503
1.70337e-05
-0.0002299
6.50901e-05
-0.000194099
0.000126488
-0.000140606
0.000186133
-7.50263e-05
0.000220501
-9.846e-06
0.000233315
4.48347e-05
0.000239931
7.95804e-05
0.000230593
0.00010644
0.000199747
0.000130682
0.000182238
0.000134442
0.000137167
0.00012302
5.18374e-05
0.000108436
-2.57506e-05
9.24696e-05
-8.07957e-05
7.21434e-05
-0.000142251
4.77707e-05
-0.000201075
2.1914e-05
-0.000257924
-0.000391223
-5.26517e-05
-0.000183796
-0.00013922
-4.8081e-05
-0.000237576
-5.83007e-06
-0.000305257
-2.06296e-05
-0.00032927
-4.38275e-05
-0.000325415
-4.83195e-05
-0.000301018
-4.23652e-05
-0.000262794
-1.80822e-05
-0.000221863
2.57342e-05
-0.000169775
7.43391e-05
-0.000107302
0.000121876
-4.16243e-05
0.000151985
2.26486e-05
0.000165335
7.89843e-05
0.000180579
0.00012442
0.000183503
0.000155773
0.000167424
0.000185065
0.000154746
0.000195795
0.000129778
0.000180391
7.20675e-05
0.000158129
9.61594e-07
0.000128696
-5.11171e-05
9.51049e-05
-0.000109886
6.04833e-05
-0.000168029
2.71585e-05
-0.000226583
-0.000365326
-1.07221e-05
-0.000174221
-3.42664e-05
-2.85578e-05
-9.79445e-05
5.33417e-05
-0.000189179
7.05686e-05
-0.000250457
2.1906e-05
-0.000259444
-3.50227e-05
-0.00023939
-5.99079e-05
-0.000203721
-5.40778e-05
-0.000157154
-2.32883e-05
-0.000101082
1.49053e-05
-4.45984e-05
6.20369e-05
9.74435e-06
9.41888e-05
6.15227e-05
0.000110307
0.000111649
0.000128078
0.00014981
0.000143884
0.000172514
0.000144454
0.000190259
0.000138213
0.000196842
0.000124239
0.000188221
8.24312e-05
0.000162235
2.70644e-05
0.000125006
-1.4743e-05
8.94794e-05
-7.6349e-05
5.46015e-05
-0.000135022
2.41155e-05
-0.000196884
-0.000341178
2.80842e-06
-0.000178854
4.88773e-06
-3.23722e-05
-4.07607e-08
5.60084e-05
-3.90793e-05
0.000110362
-0.000100541
8.72372e-05
-0.000130266
-4.24518e-06
-0.000125111
-6.64446e-05
-0.000110097
-7.19917e-05
-8.11923e-05
-5.5483e-05
-4.51764e-05
-2.49756e-05
1.06499e-06
1.17888e-05
4.40311e-05
4.82759e-05
7.68499e-05
7.52296e-05
0.00010967
9.42399e-05
0.000133989
0.00011842
0.000147154
0.000129642
0.000155385
0.000129384
0.000158798
0.000121686
0.000147783
9.33086e-05
0.000112597
6.04139e-05
8.67083e-05
1.00621e-05
6.41312e-05
-5.5753e-05
3.91827e-05
-0.000111851
1.74038e-05
-0.000175058
-0.000323387
-3.86282e-06
-0.000176343
-1.26932e-05
-2.48207e-05
-1.71338e-05
5.95455e-05
-2.76407e-05
0.000120242
-5.12913e-05
0.000110903
-6.87368e-05
1.10146e-05
-7.11082e-05
-6.51809e-05
-6.66325e-05
-7.72248e-05
-5.26822e-05
-6.99362e-05
-2.92365e-05
-4.83512e-05
-4.05753e-06
-1.46187e-05
1.66996e-05
2.50099e-05
3.07395e-05
5.89374e-05
4.59834e-05
7.76979e-05
6.44956e-05
9.90152e-05
7.58805e-05
0.00011749
8.07511e-05
0.000124642
7.98246e-05
0.000122616
6.39591e-05
0.000107837
4.77187e-05
7.581e-05
4.7739e-05
8.73714e-06
3.90498e-05
-4.88569e-05
2.627e-05
-9.95611e-05
1.2206e-05
-0.000160598
-0.000310839
-6.52345e-06
-0.000169799
-2.24539e-05
-9.90534e-06
-3.38736e-05
7.08031e-05
-4.63959e-05
0.00013167
-6.52536e-05
0.000128625
-8.29825e-05
2.80929e-05
-0.00010279
-4.68212e-05
-0.000118327
-6.45691e-05
-0.000125853
-6.45143e-05
-0.000127299
-4.92247e-05
-0.000116477
-2.52532e-05
-9.89118e-05
9.51451e-06
-8.5819e-05
4.61163e-05
-7.65192e-05
6.68597e-05
-6.04334e-05
8.09954e-05
-4.33693e-05
9.9833e-05
-2.902e-05
0.000109646
-1.76903e-05
0.000110745
-1.03208e-05
9.93337e-05
1.12204e-05
5.31842e-05
2.48249e-05
-5.51664e-06
2.39125e-05
-4.90955e-05
1.80227e-05
-9.357e-05
8.20369e-06
-0.000150866
-0.000303159
-5.13863e-06
-0.000164101
-1.92526e-05
3.40404e-06
-2.89025e-05
8.03887e-05
-4.11921e-05
0.000143254
-6.40545e-05
0.00015163
-0.000102977
6.61004e-05
-0.000147235
-3.79701e-06
-0.000188883
-2.38184e-05
-0.000221899
-3.46036e-05
-0.000235673
-3.8349e-05
-0.000229282
-3.19996e-05
-0.000201961
-1.59461e-05
-0.000167445
1.33104e-05
-0.000138479
3.79111e-05
-0.000110353
5.26283e-05
-7.75552e-05
6.68101e-05
-4.77948e-05
7.9358e-05
-2.3877e-05
8.61624e-05
7.29592e-07
7.42377e-05
2.66561e-05
2.69337e-05
3.10752e-05
-1.05817e-05
2.86628e-05
-4.70405e-05
1.99393e-05
-8.49215e-05
9.11028e-06
-0.000140767
-0.000294853
-1.4931e-06
-0.000162511
-8.77243e-06
1.01643e-05
-1.12995e-05
8.29069e-05
-1.08618e-05
0.000142926
-1.93183e-05
0.000161841
-4.92806e-05
9.78582e-05
-8.66776e-05
3.38284e-05
-0.000139225
2.73375e-05
-0.000205413
2.64567e-05
-0.000246475
3.1183e-06
-0.0002667
-1.01073e-05
-0.000259986
-2.02401e-05
-0.000225917
-1.7945e-05
-0.000181155
-5.91373e-06
-0.000137484
8.45503e-06
-9.2871e-05
2.16703e-05
-4.85538e-05
3.46639e-05
-8.90909e-06
4.63402e-05
2.55735e-05
3.99097e-05
3.90884e-05
1.36478e-05
3.7629e-05
-1.00514e-05
3.06826e-05
-4.04012e-05
1.83141e-05
-7.28686e-05
9.50438e-06
-0.000132404
-0.000285308
-2.65698e-06
-0.000159877
-8.53742e-06
1.61453e-05
-1.42373e-05
8.85595e-05
-6.05516e-06
0.000136043
3.66768e-06
0.000154441
5.08122e-07
0.000103669
-1.02726e-05
4.50995e-05
-3.07597e-05
4.7723e-05
-7.14227e-05
6.84211e-05
-0.000118486
5.3362e-05
-0.000155832
2.77459e-05
-0.000179312
2.61616e-06
-0.000188158
-1.0029e-05
-0.000183652
-1.06035e-05
-0.000165984
-7.65308e-06
-0.000134004
-8.72966e-06
-9.22206e-05
-6.93354e-06
-4.4876e-05
-1.37258e-06
-5.86601e-06
6.40348e-07
1.17156e-05
-4.30294e-06
1.7683e-05
-1.65511e-05
1.55213e-05
-3.81387e-05
8.70939e-06
-6.62152e-05
6.72804e-06
-0.00013031
-0.000278474
-2.28502e-06
-0.000157542
-7.47105e-06
2.18876e-05
-1.92415e-05
0.000100052
-1.27714e-05
0.00013201
5.37575e-06
0.000139707
1.41058e-05
9.81583e-05
4.13827e-06
5.67144e-05
-1.8878e-05
7.00178e-05
-4.00499e-05
8.98761e-05
-5.732e-05
7.08644e-05
-6.8718e-05
4.0145e-05
-8.04984e-05
1.56512e-05
-8.9724e-05
9.11049e-07
-9.6673e-05
-2.51138e-06
-0.000102156
-1.90006e-06
-0.000103086
-7.90826e-06
-9.03653e-05
-1.86386e-05
-6.05992e-05
-2.97242e-05
-2.93893e-05
-3.0282e-05
-8.90851e-06
-2.50594e-05
6.08176e-07
-2.6208e-05
2.08657e-06
-3.95714e-05
1.08371e-06
-6.54964e-05
6.08296e-06
-0.000135057
-0.000272576
1.56725e-06
-0.0001591
-2.80059e-08
2.42887e-05
-1.57848e-05
0.000115776
-1.8465e-05
0.000137452
-4.87507e-06
0.000130913
1.35576e-06
9.61062e-05
-1.97404e-05
7.91189e-05
-5.02019e-05
9.94422e-05
-6.69394e-05
0.000107344
-7.61482e-05
8.06396e-05
-8.38565e-05
4.88105e-05
-8.56795e-05
1.79904e-05
-7.65095e-05
-7.612e-06
-6.29281e-05
-1.55671e-05
-5.24015e-05
-1.18852e-05
-5.51273e-05
-4.32929e-06
-5.82097e-05
-1.44264e-05
-4.98844e-05
-3.70235e-05
-3.51865e-05
-4.41646e-05
-2.36293e-05
-3.66633e-05
-1.68967e-05
-3.29994e-05
-1.38972e-05
-4.27342e-05
-7.96611e-06
-7.19258e-05
4.87875e-06
-0.000147656
-0.000267859
4.58436e-06
-0.00016379
9.93411e-06
2.04665e-05
-4.71015e-06
0.000129985
-1.90974e-05
0.000152733
-1.73658e-05
0.000133493
-2.29958e-05
0.000105377
-4.7827e-05
0.000104033
-6.95689e-05
0.000121122
-8.29452e-05
0.000121592
-9.49081e-05
9.3173e-05
-0.000107842
6.13766e-05
-0.000114824
2.3336e-05
-0.000105012
-1.70536e-05
-8.73124e-05
-3.24836e-05
-6.52405e-05
-3.25714e-05
-5.39327e-05
-1.4743e-05
-5.3167e-05
-1.45228e-05
-5.0063e-05
-3.92865e-05
-4.41083e-05
-4.90439e-05
-3.97247e-05
-4.09366e-05
-3.50388e-05
-3.78067e-05
-2.78692e-05
-5.04725e-05
-1.27579e-05
-8.73787e-05
3.40797e-06
-0.000163367
-0.000264686
4.75352e-06
-0.000168711
1.26531e-05
1.31819e-05
7.71538e-06
0.000134883
-1.02433e-05
0.000169915
-2.47925e-05
0.000149421
-4.08121e-05
0.000122234
-5.3562e-05
0.000116571
-6.00748e-05
0.000127905
-6.4528e-05
0.000126995
-7.39131e-05
0.000103163
-8.6895e-05
7.50018e-05
-0.000103281
3.98367e-05
-0.000114936
-5.79678e-06
-0.000103746
-4.17385e-05
-8.15263e-05
-5.35606e-05
-6.33996e-05
-3.20175e-05
-5.86998e-05
-1.91773e-05
-5.56037e-05
-4.20426e-05
-5.33386e-05
-5.07103e-05
-5.23837e-05
-4.22325e-05
-4.6629e-05
-4.41801e-05
-3.34432e-05
-6.41102e-05
-1.37846e-05
-0.000107153
2.2025e-06
-0.000178769
-0.000262906
3.92166e-06
-0.000172563
1.13383e-05
5.21874e-06
2.0696e-05
0.000125794
1.35696e-05
0.000175688
-3.91102e-06
0.000165988
-2.28289e-05
0.000140991
-3.05418e-05
0.000124705
-2.50585e-05
0.000123411
-1.3857e-05
0.000117278
-8.06419e-06
9.92053e-05
-9.36376e-06
7.91771e-05
-1.78892e-05
5.29458e-05
-4.22519e-05
1.82028e-05
-5.83432e-05
-2.76859e-05
-5.75603e-05
-5.4872e-05
-4.98055e-05
-4.00539e-05
-4.91798e-05
-1.98819e-05
-4.9772e-05
-4.14472e-05
-5.20919e-05
-4.86399e-05
-5.43649e-05
-4.08437e-05
-4.7661e-05
-5.15204e-05
-3.38087e-05
-7.81692e-05
-1.3695e-05
-0.000126827
9.12214e-07
-0.000192735
-0.000262509
1.08324e-06
-0.000173764
3.99757e-06
1.25856e-06
2.46556e-05
0.000105693
3.13992e-05
0.000167194
2.77506e-05
0.000167462
2.05596e-05
0.00014791
1.90916e-05
0.000126951
2.96588e-05
0.000114747
4.49564e-05
0.000103771
5.7503e-05
8.87722e-05
6.44714e-05
7.44374e-05
6.61232e-05
5.43674e-05
5.7728e-05
3.01705e-05
3.10753e-05
-2.59859e-06
6.64583e-06
-3.33645e-05
-1.35902e-05
-2.22543e-05
-2.47674e-05
-9.29865e-06
-3.27814e-05
-3.37133e-05
-4.25007e-05
-3.98657e-05
-4.77767e-05
-3.68786e-05
-4.29609e-05
-5.65814e-05
-3.12452e-05
-8.98625e-05
-1.26596e-05
-0.000144296
-2.05469e-06
-0.000202875
-0.000264802
-3.53571e-06
-0.00017074
-1.09345e-05
7.05782e-06
8.02836e-06
8.75288e-05
3.11041e-05
0.000143733
4.03664e-05
0.000155363
4.56171e-05
0.000140207
5.39299e-05
0.000118363
6.74406e-05
0.000102349
8.44798e-05
8.85693e-05
0.000102903
7.28176e-05
0.000118027
6.17158e-05
0.000122938
5.1027e-05
0.000117514
3.74076e-05
9.31866e-05
1.95763e-05
4.947e-05
7.92426e-06
1.04142e-05
1.50444e-05
-6.68102e-06
6.32346e-06
-2.13726e-05
-1.98108e-05
-3.80946e-05
-2.49073e-05
-4.18485e-05
-3.35951e-05
-3.67651e-05
-6.13543e-05
-2.4102e-05
-0.000101745
-1.17705e-05
-0.000155214
-6.63472e-06
-0.000207815
-0.000271473
-8.54838e-06
-0.000162518
-2.46682e-05
2.20863e-05
-2.1393e-05
8.46036e-05
4.57911e-06
0.00011803
3.39996e-05
0.000124571
6.03729e-05
0.000110724
8.65204e-05
9.01646e-05
0.00011427
7.4185e-05
0.000139901
6.35109e-05
0.000157833
5.5947e-05
0.000165044
5.53742e-05
0.000159052
5.74756e-05
0.000136276
5.97066e-05
8.73717e-05
6.64522e-05
3.57325e-05
5.75571e-05
5.2789e-06
4.39619e-05
-7.39577e-06
1.8187e-05
-2.50225e-05
-4.00644e-06
-3.91914e-05
-1.24867e-05
-3.82214e-05
-3.41125e-05
-2.94825e-05
-6.93344e-05
-1.6362e-05
-0.000113256
-1.09235e-05
-0.000159486
-9.5322e-06
-0.000209134
-0.000281095
-6.17698e-06
-0.000156486
-2.10013e-05
3.66035e-05
-2.32617e-05
8.72056e-05
-2.96459e-06
9.81124e-05
4.12976e-05
7.98237e-05
9.3311e-05
5.67318e-05
0.000139285
4.19047e-05
0.000174851
3.73078e-05
0.000192547
4.51021e-05
0.000189076
5.89538e-05
0.000168004
7.60381e-05
0.00012785
9.71064e-05
7.03415e-05
0.000115446
1.66732e-05
0.000118935
-9.06845e-06
8.28356e-05
-1.72444e-05
5.1702e-05
-2.8293e-05
2.75642e-05
-4.29928e-05
8.49694e-06
-4.51505e-05
-1.06838e-05
-3.60663e-05
-4.24001e-05
-2.25661e-05
-8.14497e-05
-1.15715e-05
-0.000122445
-9.20856e-06
-0.000161286
-7.97212e-06
-0.00021027
-0.000289151
-2.31764e-06
-0.000155098
-9.55332e-07
3.58425e-05
6.55746e-06
8.03676e-05
3.25118e-05
7.26985e-05
8.08808e-05
3.15138e-05
0.000130365
7.26554e-06
0.000165413
7.26842e-06
0.000175445
2.78491e-05
0.000158208
6.16938e-05
0.000120904
9.51525e-05
6.92947e-05
0.000127574
1.18229e-05
0.000154614
-3.63261e-05
0.000163654
-4.89946e-05
0.00013293
-4.94271e-05
8.24466e-05
-4.99942e-05
5.14323e-05
-6.02118e-05
3.52115e-05
-6.36922e-05
1.11228e-05
-5.36766e-05
-2.00245e-05
-3.76855e-05
-5.69834e-05
-2.38207e-05
-9.39167e-05
-1.53033e-05
-0.000130063
-1.21205e-05
-0.000164641
-6.50583e-06
-0.000216251
-0.000295793
-8.82887e-07
-0.000154968
2.42811e-05
1.13792e-05
4.44142e-05
6.09958e-05
6.79783e-05
4.99684e-05
9.47649e-05
6.9259e-06
0.000111936
-7.5421e-06
0.000111302
8.65269e-06
8.70228e-05
5.15902e-05
4.85255e-05
0.000100228
1.02761e-05
0.000135531
-2.56254e-05
0.000165717
-5.12326e-05
0.000181062
-6.38884e-05
0.000176363
-6.25522e-05
0.000131976
-6.78924e-05
8.62946e-05
-8.0683e-05
6.08102e-05
-8.90516e-05
4.05718e-05
-8.31378e-05
5.32965e-06
-6.93278e-05
-3.28496e-05
-5.4589e-05
-7.05341e-05
-4.28362e-05
-0.000105185
-3.46194e-05
-0.000138681
-2.72908e-05
-0.000172842
-1.17348e-05
-0.000232438
-0.000307301
4.63449e-06
-0.000160039
7.06493e-05
-5.60964e-05
9.6098e-05
3.60534e-05
9.87614e-05
4.94157e-05
8.43609e-05
2.31422e-05
7.10064e-05
7.56589e-06
5.05511e-05
2.96188e-05
2.23115e-05
7.93325e-05
-2.2267e-06
0.000125417
-2.05776e-05
0.000155184
-3.38734e-05
0.000179716
-4.23226e-05
0.000190355
-4.67568e-05
0.000181328
-5.09393e-05
0.000135699
-7.01456e-05
0.000101798
-9.06244e-05
7.76071e-05
-0.00010055
4.88518e-05
-0.000101223
4.50383e-06
-9.45522e-05
-3.919e-05
-8.58826e-05
-7.93605e-05
-7.70167e-05
-0.000114543
-6.89293e-05
-0.000147571
-5.42821e-05
-0.000188099
-2.26423e-05
-0.000264463
-0.000329143
2.89746e-05
-0.000190064
9.67846e-05
-0.000123271
0.000141074
-7.12993e-06
0.0001359
5.76999e-05
0.000100569
5.90364e-05
6.39372e-05
4.39761e-05
3.38806e-05
5.89477e-05
1.19811e-05
0.000100666
3.58465e-06
0.000134366
-3.38823e-06
0.000162029
-7.29093e-06
0.000183316
-7.75173e-06
0.000191049
-8.73014e-06
0.000183006
-2.04681e-05
0.000146896
-4.2555e-05
0.000121896
-6.36605e-05
9.84849e-05
-7.66989e-05
6.33243e-05
-9.00541e-05
1.6787e-05
-9.54831e-05
-3.53818e-05
-9.20183e-05
-8.28419e-05
-8.7913e-05
-0.000118989
-8.46735e-05
-0.000151202
-7.24763e-05
-0.000201025
-3.38495e-05
-0.000303421
-0.000362905
4.66056e-05
-0.000238978
7.21018e-05
-0.000148655
0.000111426
-4.40978e-05
0.000113024
5.89507e-05
9.13054e-05
8.1824e-05
5.94503e-05
7.55954e-05
3.1015e-05
8.60226e-05
1.65936e-05
0.000114249
2.08658e-05
0.000130107
3.65239e-05
0.000145948
5.12238e-05
0.000168205
5.81597e-05
0.00018398
5.78946e-05
0.000183784
3.90863e-05
0.000165215
1.7304e-05
0.000144619
-8.05256e-07
0.000118422
-1.69072e-05
8.22113e-05
-3.3282e-05
3.6646e-05
-5.23276e-05
-1.59988e-05
-6.50331e-05
-7.08061e-05
-7.07766e-05
-0.000113424
-7.31767e-05
-0.000148341
-6.70356e-05
-0.000206873
-4.28288e-05
-0.000327728
-0.00040762
2.08124e-05
-0.000261174
1.51464e-05
-0.000144344
1.78125e-05
-4.4544e-05
2.73019e-05
5.30437e-05
2.57544e-05
8.49632e-05
1.08805e-05
8.95788e-05
-5.98242e-06
0.000101165
-4.34044e-06
0.000111982
1.71547e-05
0.000108613
5.39561e-05
0.000108753
9.67778e-05
0.000124851
0.000125297
0.000154958
0.000132343
0.000176511
0.000119961
0.00017757
9.97382e-05
0.00016624
8.08586e-05
0.00013938
6.52455e-05
0.00010096
5.06986e-05
5.55309e-05
3.29466e-05
6.28587e-06
9.22974e-06
-4.66256e-05
-1.27747e-05
-9.25835e-05
-2.90586e-05
-0.000131866
-3.36586e-05
-0.000202031
-3.20938e-05
-0.000330217
-0.000441677
-2.20005e-05
-0.000241761
-5.56709e-05
-0.000110185
-7.3796e-05
-2.2067e-05
-6.7278e-05
5.00235e-05
-5.95225e-05
7.82973e-05
-6.28342e-05
9.16209e-05
-6.54488e-05
0.00010223
-4.68936e-05
9.27561e-05
-2.69584e-06
6.44682e-05
5.03401e-05
5.5479e-05
0.00010989
6.44249e-05
0.00016525
9.90876e-05
0.000195776
0.000145721
0.000203665
0.000169679
0.000195106
0.000175838
0.000171812
0.000164725
0.000145006
0.000130843
0.000123622
7.9821e-05
0.000106299
2.6545e-05
8.47845e-05
-2.37601e-05
6.05824e-05
-6.84666e-05
3.61659e-05
-0.000107325
1.81634e-05
-0.000183406
-4.61715e-06
-0.000308944
-0.000448201
-5.19058e-05
-0.000192896
-8.96029e-05
-7.19978e-05
-0.000110152
1.16629e-06
-0.000112005
5.36936e-05
-0.00011033
7.71545e-05
-0.000108788
8.90051e-05
-0.000100089
9.35376e-05
-6.74166e-05
6.07367e-05
-8.84923e-06
7.11774e-06
5.1665e-05
-4.40776e-06
0.000112073
4.42631e-06
0.000175673
3.58928e-05
0.000221526
0.000100638
0.00023554
0.000156547
0.000231109
0.000180856
0.000218484
0.000178094
0.000193286
0.000157189
0.000167311
0.000107428
0.000145067
4.98705e-05
0.000126816
-4.49126e-06
0.000108106
-4.92588e-05
8.83417e-05
-8.72059e-05
6.6948e-05
-0.000160675
2.51676e-05
-0.000266144
-0.000425528
-3.87842e-05
-0.000155128