/*--------------------------------*- C++ -*----------------------------------*\
| =========                 |                                                 |
| \\      /  F ield         | OpenFOAM: The Open Source CFD Toolbox           |
|  \\    /   O peration     | Version:  2.3.0                                 |
|   \\  /    A nd           | Web:      www.OpenFOAM.org                      |
|    \\/     M anipulation  |                                                 |
\*---------------------------------------------------------------------------*/
FoamFile
{
    version     2.0;
    format      ascii;
    class       volScalarField;
    location    "11";
    object      k.air;
}
// * * * * * * * * * * * * * * * * * * * * * * * * * * * * * * * * * * * * * //

dimensions      [0 2 -2 0 0 0 0];

internalField   nonuniform List<scalar> 
1875
(
1e-15
0.000388251
0.00107844
0.00161191
0.00187919
0.00208319
0.00224007
0.00236215
0.00244825
0.00251885
0.00253769
0.00258764
0.0026863
0.00290048
0.00304233
0.00304198
0.00299275
0.00285065
0.00227861
0.00179577
0.0015364
0.000568853
0.000811388
0.00396831
0.00719702
4.20838e-05
0.00251469
0.00421083
0.00431266
0.0046789
0.00502151
0.00518663
0.00546268
0.00541141
0.00518998
0.00474844
0.00445471
0.00398668
0.00378586
0.00368573
0.00365623
0.00363579
0.00361333
0.00366908
0.00358369
0.0034503
0.00227491
0.00189836
0.00345277
0.0066384
1e-15
0.00588843
0.00534835
0.00418172
0.00433895
0.00474294
0.0049326
0.00466063
0.00425731
0.00413707
0.00412945
0.00403765
0.00391165
0.00386292
0.00381792
0.00368645
0.00360214
0.003559
0.00354661
0.00345113
0.00311449
0.00191606
0.00188148
0.00361343
1.08815e-12
1e-15
0.0101227
0.0050621
0.00366014
0.00430449
0.00437267
0.00400692
0.00396007
0.003974
0.00396446
0.00399867
0.00405871
0.00397985
0.00375143
0.00369004
0.00368723
0.00347852
0.00340246
0.0032764
0.002906
0.00215848
0.00176281
0.00196054
0.00366724
4.81943e-14
1e-15
0.0129261
0.0105518
0.00412869
0.00451472
0.00506565
0.00528445
0.00561946
0.00597535
0.00633088
0.00673593
0.00693574
0.00716696
0.00718136
0.00626476
0.00510808
0.00370617
0.00325613
0.00260968
0.00208611
0.00182225
0.00178393
0.00215322
0.00359384
1.99063e-14
1e-15
0.0147411
0.013919
0.00806467
0.0051068
0.00520953
0.00588577
0.00595341
0.00614162
0.00631365
0.00626017
0.00628307
0.00670992
0.00739499
0.00795607
0.00735435
0.00542391
0.00369474
0.00260598
0.00204971
0.00185643
0.00188428
0.00258109
0.00315928
1e-15
1e-15
0.0138074
0.0144362
0.0155038
0.0102517
0.00647466
0.00585439
0.00525201
0.00511145
0.00535134
0.00517652
0.00392823
0.00441991
0.00529097
0.00723363
0.00798665
0.00741902
0.00570303
0.00401001
0.0026991
0.00228467
0.00231705
0.00273219
0.00258599
1e-15
1e-15
0.0104257
0.0110698
0.0137567
0.0150346
0.0114502
0.00741629
0.00574431
0.00491395
0.00474993
0.00469842
0.00409296
0.00393007
0.00457623
0.0063072
0.00799471
0.00771494
0.00613628
0.00387454
0.00283017
0.00274424
0.0027724
0.00251085
0.00165895
1e-15
1e-15
0.00608008
0.00493968
0.00719613
0.0107779
0.0103623
0.00723572
0.00564993
0.00485664
0.00468928
0.00411039
0.00386971
0.00427347
0.00472256
0.00678003
0.0086263
0.00602572
0.00447517
0.00346515
0.00289033
0.00263627
0.00231473
0.00207418
0.000772551
1.18835e-13
1e-15
0.00505172
0.00327388
0.00484303
0.0061512
0.00652988
0.00522039
0.0044969
0.00423996
0.00410596
0.00483691
0.0050217
0.00608654
0.00624614
0.00626789
0.0060626
0.00417539
0.00348833
0.0031455
0.00304335
0.00329085
0.00429526
0.00503785
0.00466014
0.00278073
1e-15
0.00747753
0.00302302
0.00333544
0.00375578
0.00379416
0.00387678
0.00417388
0.00499975
0.00594544
0.00696424
0.00555268
0.00592888
0.00608464
0.00507653
0.0040843
0.00359324
0.00349389
0.00355863
0.00488797
0.00633399
0.00751741
0.00749948
0.00570815
0.000734375
1e-15
0.012518
0.00419544
0.00319331
0.00325628
0.00368844
0.00452934
0.00588425
0.00617007
0.00517707
0.00520189
0.00541698
0.00519892
0.00507856
0.00416185
0.00376326
0.00360487
0.00361165
0.00413558
0.0050093
0.00611694
0.0062362
0.00560317
0.00531336
1e-15
1e-15
0.0134548
0.011084
0.00391302
0.00309441
0.00329117
0.00488238
0.00607433
0.00570105
0.00531742
0.00517747
0.00500288
0.0047947
0.0045425
0.00405457
0.00385054
0.00377133
0.00381632
0.00403205
0.00466306
0.00491538
0.00524162
0.0049897
0.00471174
1e-15
1e-15
0.0117326
0.0123251
0.00606423
0.00327268
0.00326605
0.00526845
0.00615305
0.00590109
0.00544888
0.00527041
0.00514384
0.00479001
0.0044854
0.00418911
0.00414879
0.00434004
0.00557421
0.0065231
0.00800329
0.00816093
0.00748525
0.00631523
0.00572543
1e-15
1e-15
0.00905699
0.0118496
0.0107677
0.00492729
0.00333944
0.00461633
0.00649177
0.00660941
0.00614711
0.00590014
0.00558019
0.00534676
0.0054232
0.00596368
0.00723889
0.00853937
0.00887335
0.00873598
0.00898238
0.00909029
0.00746728
0.00700258
0.00688291
3.62718e-15
1e-15
0.00434093
0.0117995
0.011504
0.00943443
0.00461699
0.0042256
0.0053457
0.00676585
0.0070606
0.00692936
0.00670175
0.00670352
0.00665325
0.00669514
0.00713497
0.00752352
0.0074599
0.00717832
0.00850538
0.00990488
0.0109936
0.0112236
0.010981
5.06256e-12
1e-15
0.00260162
0.0118104
0.0114752
0.0107027
0.00812402
0.00484157
0.00469784
0.00554164
0.00628268
0.00643157
0.00638431
0.00644098
0.00632685
0.00620665
0.00602202
0.00539489
0.00434364
0.00390821
0.00461471
0.00601477
0.0101363
0.0120456
0.0108121
2.86476e-12
1e-15
0.00250959
0.0105162
0.0137882
0.0116852
0.00971311
0.0061279
0.00468454
0.00475758
0.0058897
0.00713421
0.00817652
0.00890263
0.00908456
0.00901559
0.0084511
0.00719502
0.0056263
0.00460509
0.00366003
0.00343111
0.00715314
0.0099932
0.00560528
1.33137e-11
1e-15
0.00357689
0.00857791
0.0153138
0.0138329
0.0102674
0.00667107
0.00483061
0.00476741
0.00585996
0.00917367
0.0113143
0.0119689
0.0118592
0.0118752
0.0118953
0.0114792
0.00916662
0.00623811
0.00441773
0.00398444
0.00691039
0.00569992
0.00149955
1.93985e-15
1e-15
0.00632173
0.00850701
0.0149014
0.0157058
0.0123876
0.00752918
0.00523655
0.0049167
0.00544685
0.00745023
0.00925084
0.00981867
0.00984056
0.0102726
0.011449
0.0114277
0.0092058
0.00596299
0.00472525
0.00665156
0.00518936
0.00216424
0.00224978
2.5137e-15
1e-15
0.00938615
0.00920932
0.012034
0.0157941
0.0151972
0.0103563
0.00702734
0.00590824
0.00598325
0.00684251
0.00844968
0.00887545
0.0090807
0.00989785
0.0113714
0.0111085
0.00794087
0.00546584
0.00525009
0.00563287
0.00353981
0.0047788
0.0116843
1e-15
1e-15
0.011736
0.0117435
0.0114224
0.013947
0.0154278
0.0135029
0.0102039
0.00884085
0.00867643
0.0093833
0.00999501
0.00981087
0.0098387
0.0104261
0.0107171
0.00889583
0.00627608
0.00517768
0.00520011
0.00438701
0.0033422
0.00861269
0.0152763
1e-15
1e-15
0.0130862
0.0158827
0.0133133
0.0129443
0.0149936
0.0149176
0.0130853
0.0119311
0.0118036
0.0113082
0.00975986
0.00900783
0.00907817
0.00961325
0.00863492
0.00640283
0.00531334
0.00503905
0.00507638
0.00403099
0.00413844
0.00770109
0.0139764
1e-15
1e-15
0.013938
0.0191297
0.0189037
0.0155194
0.014546
0.0148349
0.0140597
0.0132503
0.0123567
0.0100289
0.00812568
0.0077984
0.00831768
0.00812192
0.00641404
0.00532624
0.00497443
0.0050961
0.00507095
0.00427132
0.00450093
0.0058858
0.0111947
1e-15
1e-15
0.0154442
0.0204005
0.0215253
0.0205849
0.01671
0.0152558
0.0142329
0.0132923
0.0119811
0.00882905
0.00727087
0.00728556
0.00732461
0.00648136
0.0052326
0.0047917
0.00477464
0.0054218
0.00534005
0.00511108
0.00527214
0.00604698
0.0108981
1e-15
1e-15
0.0164722
0.0207771
0.0224183
0.0221268
0.02036
0.0166194
0.0151351
0.0132745
0.0117876
0.00843
0.00720657
0.00672681
0.00620867
0.00540806
0.00484311
0.00454701
0.00473828
0.00575728
0.00607633
0.00631677
0.0067015
0.00746661
0.0134405
1e-15
1e-15
0.0168079
0.0208026
0.0225427
0.02253
0.021357
0.018549
0.0159666
0.0135557
0.0118699
0.00871768
0.00722205
0.00663925
0.00565285
0.00491893
0.00453394
0.00448951
0.00472932
0.00577335
0.00653423
0.0069502
0.00753766
0.00956099
0.0194847
1e-15
1e-15
0.0166905
0.0200071
0.0223359
0.0226921
0.0219335
0.020168
0.018005
0.0152151
0.0128213
0.0100676
0.00750316
0.00666382
0.00554983
0.0048643
0.00440565
0.0042408
0.004561
0.00561013
0.00660682
0.00734075
0.008924
0.0133987
0.0222832
1e-15
1e-15
0.0160531
0.0191859
0.0215094
0.0227408
0.0224686
0.0215894
0.0202748
0.0188407
0.0153433
0.0113379
0.00815265
0.00672704
0.00560997
0.0049048
0.00443918
0.00405371
0.00404541
0.0047095
0.00651464
0.00761979
0.00971544
0.0149769
0.0223423
1e-15
1e-15
0.0157927
0.0185701
0.0208778
0.0219061
0.0223343
0.0220367
0.0215895
0.0215187
0.0187402
0.0144634
0.00999834
0.00715083
0.00589898
0.00508338
0.0045571
0.00412846
0.0040731
0.00433365
0.00570418
0.00751554
0.00956141
0.0145856
0.0211444
1e-15
1e-15
0.0151749
0.0173366
0.0198155
0.0209314
0.0209616
0.0206554
0.0204854
0.0202421
0.0183175
0.0152082
0.0121346
0.0090475
0.0069037
0.00565202
0.00497796
0.00449652
0.00440183
0.00458303
0.00580841
0.00743936
0.00930111
0.0142031
0.0206839
1e-15
1e-15
0.0149115
0.0168147
0.0191383
0.020544
0.0203621
0.0195328
0.0185288
0.0174907
0.0164476
0.014478
0.0123348
0.00979522
0.00801657
0.0070495
0.00617761
0.00555982
0.00560849
0.00574908
0.00670797
0.00811321
0.0093252
0.0135256
0.0212764
1e-15
1e-15
0.0147703
0.0166301
0.0189105
0.0209689
0.0207645
0.0196443
0.0185576
0.0174017
0.0159654
0.0144255
0.0127289
0.0113313
0.0105458
0.00959231
0.00864259
0.0076996
0.00735648
0.00761602
0.00855936
0.00916177
0.00979168
0.013856
0.0228653
1e-15
1e-15
0.0144736
0.0164291
0.0185227
0.0212882
0.0214356
0.0204955
0.0195415
0.018479
0.0169538
0.0153627
0.0140555
0.0133108
0.0123015
0.0111208
0.00994693
0.00912043
0.00902802
0.00906687
0.00958509
0.00985782
0.0101469
0.0148729
0.0246513
1e-15
1e-15
0.014143
0.0163618
0.0184198
0.0214093
0.0217038
0.0206813
0.019642
0.018793
0.0178274
0.0162995
0.014822
0.0135931
0.0123415
0.0114959
0.0109227
0.0106009
0.0102992
0.0102189
0.0104082
0.0103768
0.0106472
0.0172322
0.0265526
1e-15
1e-15
0.013546
0.0163335
0.0184777
0.0215885
0.0218981
0.0205062
0.0190849
0.0183168
0.0175121
0.0160674
0.0144112
0.0131028
0.0123193
0.0119288
0.0118985
0.0116951
0.0114541
0.0113666
0.0114102
0.0107414
0.0121042
0.023684
0.0279732
1e-15
1e-15
0.0124706
0.0162717
0.0187738
0.0219299
0.0221573
0.0203695
0.0180028
0.0163423
0.0155056
0.0147201
0.0136638
0.0131863
0.0128676
0.0127664
0.0126114
0.0127955
0.012961
0.0128523
0.0120858
0.0111826
0.0157479
0.0293417
0.0278599
1e-15
1e-15
0.0113082
0.0160931
0.0193043
0.0222566
0.0224553
0.0206243
0.0180039
0.0158046
0.0147052
0.0143533
0.0141643
0.0140192
0.0139106
0.0138889
0.0143378
0.0146264
0.0142844
0.0131487
0.012222
0.0133028
0.0252025
0.0330374
0.027977
1.16231e-15
1e-15
0.00999585
0.0159952
0.0195345
0.022271
0.0224584
0.0211857
0.0187849
0.0161937
0.0150717
0.0149013
0.0148551
0.0149647
0.0155878
0.0159402
0.0155877
0.0147373
0.0138165
0.0131446
0.0137094
0.0214312
0.0324887
0.0334533
0.0271762
1e-15
1e-15
0.00780526
0.0153984
0.0195263
0.0222047
0.0224379
0.021312
0.0191825
0.0165534
0.0153784
0.0150721
0.0152826
0.0159483
0.0159932
0.0154207
0.0144603
0.0137194
0.0134445
0.0139967
0.0184518
0.0286787
0.0329468
0.0311334
0.0260901
1.58399e-15
1e-15
0.00529469
0.0139503
0.0187772
0.0219035
0.0225484
0.0214551
0.0193903
0.0167582
0.0153493
0.0150432
0.0157481
0.015882
0.0150528
0.0137372
0.0129732
0.0128121
0.0129533
0.0142447
0.0192812
0.0276582
0.0292972
0.0279572
0.0259656
1e-15
1e-15
0.00294865
0.0106219
0.0169294
0.0210393
0.0225165
0.022059
0.0199509
0.01713
0.0154793
0.0153699
0.0164811
0.0162648
0.0149737
0.0136676
0.0129474
0.0127161
0.0128311
0.0138314
0.0173635
0.0220749
0.0241412
0.026118
0.0263175
4.98458e-15
1e-15
0.00154595
0.00580587
0.0133589
0.0184716
0.021965
0.0229612
0.0218894
0.0186694
0.015988
0.0159337
0.0179374
0.0184113
0.0175126
0.0160283
0.0151978
0.0148933
0.0148799
0.0155936
0.0179116
0.0214322
0.0243533
0.0268437
0.027517
1e-15
1e-15
0.000921242
0.00390121
0.00848688
0.0138535
0.0189599
0.0222808
0.0231196
0.0220131
0.0189637
0.0169674
0.0177765
0.019558
0.021038
0.021494
0.0215061
0.0221336
0.0229758
0.0238256
0.0245681
0.0256637
0.0270091
0.0280736
0.0259722
1e-15
1e-15
0.000642569
0.00342483
0.0068913
0.00945601
0.0138972
0.0190235
0.0224058
0.0232515
0.0224755
0.0203567
0.0185972
0.019032
0.0200238
0.0214332
0.0226132
0.0237999
0.0247931
0.0257436
0.0269269
0.0277118
0.0279565
0.0278476
0.0240021
1e-15
1e-15
0.000603416
0.00380459
0.0075422
0.00912967
0.0104502
0.0138833
0.0183045
0.0220855
0.0231134
0.0226627
0.0213364
0.0196718
0.0194211
0.019631
0.0206262
0.0216766
0.0225838
0.0235559
0.0253278
0.027302
0.0278124
0.0274301
0.0235247
1e-15
1.22717e-15
0.00153114
0.00747551
0.0132634
0.0147152
0.013713
0.013074
0.0140796
0.0180094
0.022111
0.0230092
0.0227042
0.021824
0.0204048
0.0196402
0.0193301
0.0192361
0.0192806
0.0199726
0.0219391
0.0252166
0.0267712
0.0264109
0.0217418
1e-15
7.09456e-15
0.00675843
0.0180236
0.0225987
0.0237264
0.0223553
0.0188568
0.0154349
0.0163577
0.0192904
0.022214
0.0227349
0.0224496
0.0217699
0.020633
0.0196398
0.0191157
0.0187033
0.0187931
0.0199533
0.0230727
0.0254422
0.0247606
0.0165144
1e-15
1e-15
0.0132517
0.0240873
0.0267102
0.026192
0.0247721
0.0224066
0.0182701
0.016096
0.0177264
0.0201214
0.0216171
0.0220282
0.0218167
0.0214632
0.020699
0.0194513
0.0187798
0.0186465
0.0194081
0.021668
0.0235921
0.022433
0.0118616
1e-15
1e-15
0.0151523
0.0248982
0.026337
0.0257488
0.0238649
0.0216027
0.0181088
0.0163226
0.0173305
0.0193437
0.0203845
0.0209623
0.0212984
0.0213928
0.0212654
0.0205375
0.0191427
0.0186235
0.0190793
0.0208174
0.0222951
0.0214366
0.0124918
1e-15
1e-15
0.0154188
0.0247408
0.0259195
0.0252763
0.0232343
0.0206461
0.0176354
0.0164282
0.0169859
0.0187073
0.0198614
0.0205456
0.0209732
0.0213187
0.0214124
0.0213021
0.0200847
0.0189344
0.0190671
0.0203942
0.0217198
0.021313
0.0187727
1e-15
1e-15
0.0134306
0.024525
0.0258914
0.0250032
0.0228999
0.0199777
0.0174871
0.0167855
0.0172365
0.0188878
0.0200907
0.0207087
0.0210777
0.0214918
0.021758
0.0214756
0.0206367
0.0194651
0.019752
0.0207037
0.0218698
0.0221025
0.0204972
1e-15
1e-15
0.0111832
0.023946
0.0254637
0.024281
0.021746
0.0191624
0.0179377
0.0175768
0.0178284
0.0194044
0.0203942
0.020938
0.0215001
0.0222694
0.0223292
0.0215071
0.0208007
0.0206794
0.0215285
0.0212638
0.0217692
0.0221169
0.0154797
1e-15
1e-15
0.00997221
0.0230926
0.025024
0.0237719
0.0210109
0.0194067
0.0186939
0.0185258
0.0190117
0.0200343
0.0210973
0.0219351
0.0224902
0.0225399
0.0222164
0.0216966
0.0214291
0.0219349
0.0222709
0.0216566
0.021656
0.0202873
0.00319658
1e-15
1e-15
0.00602635
0.0220616
0.0251075
0.024086
0.021622
0.0206824
0.0204269
0.0208628
0.0216603
0.0222018
0.0224164
0.0225534
0.0226224
0.0227315
0.0226945
0.0229632
0.0232495
0.0233509
0.0225807
0.0216441
0.0206707
0.0162298
0.000553908
1e-15
1e-15
0.00167466
0.0189489
0.0252714
0.0252796
0.0238756
0.0235665
0.0235512
0.0235551
0.0233839
0.0231755
0.023164
0.0233002
0.0234273
0.0237476
0.0241097
0.0240589
0.0237853
0.0233528
0.0225495
0.0215786
0.0203082
0.0158261
4.36434e-05
1e-15
1e-15
4.7216e-05
0.0119924
0.0247614
0.0263505
0.0254262
0.0243024
0.0238591
0.0233076
0.022638
0.0216999
0.0204608
0.0184725
0.0162882
0.0156579
0.015588
0.0160401
0.0177633
0.0195267
0.020542
0.0207272
0.0195133
0.0103309
1.12235e-05
1e-15
1e-15
4.57982e-07
0.000126467
0.0186962
0.026101
0.0270418
0.0257756
0.0239115
0.0223908
0.0197822
0.0159718
0.0107378
0.00574365
0.00347597
0.00244635
0.00193058
0.00173656
0.00161543
0.00198948
0.00404035
0.0117194
0.0135144
9.45155e-05
1.78269e-08
1e-15
1e-15
8.6889e-12
3.96132e-06
4.40459e-05
0.0133555
0.0256671
0.026675
0.0252451
0.023093
0.0205519
0.016631
0.0110242
0.00813162
0.0082764
0.00986719
0.0100004
0.00604566
0.00168782
0.000394445
2.77691e-05
3.24687e-05
0.000106107
3.0641e-06
2.13861e-12
1e-15
1e-15
8.49596e-05
4.77296e-06
9.56666e-06
6.22124e-05
0.0162328
0.0251865
0.0262989
0.0249689
0.0226855
0.019699
0.0150473
0.0132583
0.0152933
0.0176349
0.0178755
0.0142613
0.00438452
0.000487961
1.05648e-05
1.03705e-05
9.34557e-06
4.67889e-06
6.10359e-05
1e-15
1e-15
8.71815e-05
1.3688e-05
7.71794e-06
0.00419381
0.0164375
0.024894
0.0266701
0.026333
0.0251772
0.0237112
0.0217894
0.0205252
0.0203883
0.0191077
0.0127373
0.000941535
8.29685e-05
4.32261e-06
4.19705e-06
4.69321e-06
4.42646e-06
9.78668e-06
6.78677e-05
1e-15
1e-15
8.70199e-05
2.13396e-05
7.18313e-08
1.8829e-09
0.0195003
0.0249018
0.0264837
0.026315
0.0253948
0.0243604
0.0231897
0.0208787
0.012899
2.19809e-05
1.51246e-11
6.28206e-14
5.46953e-14
6.77128e-14
6.91914e-14
1.1684e-13
7.87539e-08
1.83079e-05
8.73384e-05
1e-15
1e-15
8.97812e-05
3.2895e-05
1.54621e-13
1.06474e-15
5.09688e-10
0.0107694
0.0199928
0.0193886
0.0117169
0.00017823
1.2921e-07
3.28612e-11
6.33133e-15
1.00127e-15
1.00001e-15
1.00001e-15
1.31393e-15
2.48015e-15
2.67374e-15
1.06886e-15
1.70955e-13
3.61876e-05
9.28023e-05
1e-15
1e-15
8.07936e-05
4.27533e-05
9.123e-15
9.36979e-15
1.39711e-14
2.94336e-14
3.47189e-13
1.00542e-13
5.30802e-15
1.00731e-15
1.00002e-15
1.00001e-15
1.00001e-15
1.00001e-15
1.48017e-15
2.51036e-15
7.72049e-15
1.22892e-14
1.41206e-14
9.4216e-15
1.83921e-14
3.71192e-05
8.91978e-05
1e-15
1e-15
6.47287e-05
2.81524e-05
1.66212e-15
3.47053e-15
5.54414e-15
5.629e-15
4.60744e-15
3.50803e-15
3.10098e-15
2.30768e-15
2.04903e-15
1.94084e-15
2.05731e-15
2.34249e-15
3.20654e-15
3.61089e-15
4.72331e-15
5.76062e-15
5.65224e-15
3.49674e-15
9.69695e-15
3.39433e-05
6.66474e-05
1e-15
1e-15
4.50028e-05
1.05472e-05
1.31014e-15
1e-15
1.29639e-15
1.76985e-15
2.159e-15
2.3328e-15
2.50028e-15
2.49553e-15
2.69651e-15
2.69369e-15
2.69829e-15
2.51176e-15
2.53563e-15
2.40617e-15
2.22046e-15
1.81146e-15
1.31235e-15
1e-15
1.57389e-15
2.35995e-05
4.22286e-05
1e-15
5.11503e-13
0.000144174
1.02275e-05
1.01158e-15
1e-15
1e-15
1e-15
1.00363e-15
1.73483e-15
2.68545e-15
3.26509e-15
4.51239e-15
4.65602e-15
4.49868e-15
3.25037e-15
2.69736e-15
1.77662e-15
1.03289e-15
1e-15
1e-15
1e-15
1.01307e-15
3.07613e-06
2.28603e-05
1e-15
2.61129e-08
0.00025001
2.39337e-10
1e-15
1e-15
1e-15
1e-15
1e-15
1.35301e-15
2.10045e-15
4.03615e-15
6.82873e-15
4.83996e-15
6.56425e-15
3.9903e-15
2.08097e-15
1.34918e-15
1e-15
1e-15
1e-15
1e-15
1e-15
3.24624e-10
4.52228e-05
1e-15
1e-15
0.000178442
8.92864e-09
1.00001e-15
1e-15
1e-15
1e-15
4.36138e-15
9.92633e-14
1.41627e-11
9.91794e-08
3.79281e-06
6.64501e-06
5.22186e-06
1.29639e-07
1.54792e-11
1.00957e-13
4.3448e-15
1e-15
1e-15
1e-15
1e-15
2.32799e-13
0.000635864
0.0186526
1e-15
1.05187e-05
1.03139e-06
1.03297e-15
1e-15
2.00508e-15
1.21351e-10
1.7805e-07
5.82349e-07
6.72019e-07
6.42878e-07
9.98334e-07
1.25293e-06
7.84163e-07
2.45766e-07
2.19333e-07
2.28817e-07
2.73386e-07
1.30719e-10
2.0805e-15
1e-15
1.00001e-15
6.52632e-10
0.000143785
2.42209e-14
1e-15
1.70619e-07
1.96981e-08
2.33754e-10
1.7875e-11
1.29278e-11
1.35714e-09
4.55955e-09
7.23954e-08
3.05549e-08
5.32562e-10
5.75456e-09
1.40967e-08
1.16506e-08
9.47372e-09
9.86183e-09
1.15066e-08
1.22644e-08
2.44987e-09
1.32626e-09
1.10997e-09
7.13972e-11
2.28059e-13
1.31244e-05
1e-15
1e-15
1.81829e-08
9.17539e-07
2.55357e-06
2.97118e-06
3.01602e-06
2.74684e-06
2.64274e-06
1.84965e-06
8.15295e-07
2.86061e-07
3.9812e-08
2.15201e-11
1.23661e-11
1.19875e-11
3.10525e-12
1.53842e-11
6.19597e-10
2.82953e-08
1.17483e-09
2.04841e-12
4.10328e-15
5.82261e-15
1.14286e-06
1e-15
1e-15
2.58637e-09
2.98106e-06
4.42952e-06
5.09309e-06
6.17852e-06
7.74711e-06
9.11559e-06
1.03442e-05
1.05355e-05
9.3402e-06
6.92945e-06
4.59449e-06
3.10786e-06
2.48504e-06
2.27882e-06
2.46666e-06
4.4656e-06
5.15826e-06
4.04313e-06
2.65423e-06
8.69556e-07
1.7486e-07
2.61449e-09
1e-15
1e-15
6.08131e-10
2.5639e-06
3.82239e-06
3.99639e-06
4.0063e-06
4.90519e-06
8.72862e-06
1.65213e-05
1.97448e-05
2.0375e-05
1.99337e-05
1.75312e-05
1.28638e-05
9.96408e-06
8.74329e-06
8.39256e-06
8.97138e-06
9.5073e-06
9.45222e-06
8.44393e-06
5.28657e-06
1.42272e-06
2.38542e-10
1e-15
1e-15
1.63708e-11
7.6472e-07
1.66768e-06
1.62449e-06
1.40595e-06
1.36373e-06
4.27873e-06
1.93567e-05
2.89333e-05
3.14074e-05
3.17425e-05
3.10192e-05
2.76136e-05
2.29085e-05
1.89307e-05
1.667e-05
1.60191e-05
1.62544e-05
1.6861e-05
1.62097e-05
1.40515e-05
8.11831e-06
5.11838e-08
1e-15
)
;

boundaryField
{
    inlet
    {
        type            fixedValue;
        value           uniform 3.75e-05;
    }
    outlet
    {
        type            inletOutlet;
        phi             phi.air;
        inletValue      uniform 3.75e-05;
        value           nonuniform List<scalar> 
25
(
1e-15
1.63708e-11
7.6472e-07
1.66768e-06
1.62449e-06
1.40595e-06
1.36373e-06
3.75e-05
3.75e-05
3.75e-05
3.75e-05
3.75e-05
3.75e-05
3.75e-05
3.75e-05
1.89307e-05
1.667e-05
1.60191e-05
1.62544e-05
1.6861e-05
1.62097e-05
1.40515e-05
8.11831e-06
5.11838e-08
1e-15
)
;
    }
    walls
    {
        type            kqRWallFunction;
        value           nonuniform List<scalar> 
150
(
1e-15
4.20838e-05
1e-15
1e-15
1e-15
1e-15
1e-15
1e-15
1e-15
1e-15
1e-15
1e-15
1e-15
1e-15
1e-15
1e-15
1e-15
1e-15
1e-15
1e-15
1e-15
1e-15
1e-15
1e-15
1e-15
1e-15
1e-15
1e-15
1e-15
1e-15
1e-15
1e-15
1e-15
1e-15
1e-15
1e-15
1e-15
1e-15
1e-15
1e-15
1e-15
1e-15
1e-15
1e-15
1e-15
1e-15
1.22717e-15
7.09456e-15
1e-15
1e-15
1e-15
1e-15
1e-15
1e-15
1e-15
1e-15
1e-15
1e-15
1e-15
1e-15
1e-15
1e-15
1e-15
1e-15
1e-15
1e-15
5.11503e-13
2.61129e-08
1e-15
1e-15
1e-15
1e-15
1e-15
1e-15
1e-15
0.00719702
0.0066384
1.08815e-12
4.81943e-14
1.99063e-14
1e-15
1e-15
1e-15
1.18835e-13
0.00278073
0.000734375
1e-15
1e-15
1e-15
3.62718e-15
5.06256e-12
2.86476e-12
1.33137e-11
1.93985e-15
2.5137e-15
1e-15
1e-15
1e-15
1e-15
1e-15
1e-15
1e-15
1e-15
1e-15
1e-15
1e-15
1e-15
1e-15
1e-15
1e-15
1e-15
1e-15
1.16231e-15
1e-15
1.58399e-15
1e-15
4.98458e-15
1e-15
1e-15
1e-15
1e-15
1e-15
1e-15
1e-15
1e-15
1e-15
1e-15
1e-15
1e-15
1e-15
1e-15
1e-15
1e-15
1e-15
1e-15
1e-15
1e-15
1e-15
1e-15
1e-15
1e-15
1e-15
1e-15
0.0186526
2.42209e-14
1e-15
1e-15
1e-15
1e-15
1e-15
)
;
    }
    defaultFaces
    {
        type            empty;
    }
}


// ************************************************************************* //
