/*--------------------------------*- C++ -*----------------------------------*\
| =========                 |                                                 |
| \\      /  F ield         | OpenFOAM: The Open Source CFD Toolbox           |
|  \\    /   O peration     | Version:  2.3.0                                 |
|   \\  /    A nd           | Web:      www.OpenFOAM.org                      |
|    \\/     M anipulation  |                                                 |
\*---------------------------------------------------------------------------*/
FoamFile
{
    version     2.0;
    format      ascii;
    class       volScalarField;
    location    "1.86";
    object      nut.air;
}
// * * * * * * * * * * * * * * * * * * * * * * * * * * * * * * * * * * * * * //

dimensions      [0 2 -1 0 0 0 0];

internalField   nonuniform List<scalar> 
6000
(
0.000509563
0.00440407
0.00749144
0.00837871
0.00872149
0.00891054
0.00901744
0.00909257
0.00914782
0.00917323
0.00923423
0.00935154
0.00944681
0.00950267
0.00950709
0.00947699
0.00942232
0.00936006
0.00927319
0.00912608
0.0089382
0.00876384
0.00867759
0.00869413
0.00874506
0.00866947
0.00832572
0.00733202
0.00434462
0.000509313
0.000440576
0.00310783
0.0059509
0.00769045
0.00857625
0.00907179
0.00935235
0.00953825
0.0096743
0.00981205
0.00994694
0.0100723
0.0101929
0.0102512
0.010233
0.0101359
0.0100312
0.00989141
0.00970432
0.00946275
0.00922926
0.00906847
0.00906598
0.00894409
0.00871334
0.00831235
0.00745413
0.0056257
0.00277819
0.000432375
0.000393505
0.00278767
0.00541156
0.00720338
0.00830498
0.00899801
0.00945854
0.00978241
0.010003
0.0101625
0.0102871
0.0103883
0.0105192
0.0106715
0.0107425
0.0107177
0.010625
0.010485
0.0102805
0.0100474
0.00988655
0.00988577
0.00994618
0.00967564
0.0090974
0.00836428
0.00716246
0.00519162
0.00247859
0.000369452
0.000368335
0.00268059
0.00508242
0.00686778
0.00810491
0.00895677
0.00958632
0.0100347
0.0103404
0.0105371
0.0106473
0.0108051
0.0109918
0.0111585
0.0112959
0.0113214
0.0112541
0.0111201
0.010922
0.0107229
0.0106222
0.0107039
0.0107081
0.0103768
0.0096084
0.00858338
0.00720176
0.00508305
0.00236842
0.000332245
0.000346233
0.00261566
0.00491103
0.00664631
0.007956
0.00897022
0.00974174
0.0103053
0.0106768
0.0108926
0.0110963
0.0112998
0.011501
0.011708
0.0118781
0.011941
0.0118962
0.0117621
0.0115692
0.0113925
0.0113245
0.0114046
0.0112532
0.0109152
0.0101322
0.00890648
0.00742979
0.0053183
0.00251198
0.000323453
0.000328287
0.0025337
0.0048237
0.00659972
0.00798924
0.00909791
0.00995088
0.0105805
0.0110293
0.011347
0.0116068
0.0118597
0.0121381
0.0123962
0.0125388
0.0125874
0.0125282
0.012384
0.0121893
0.0120234
0.0119711
0.0120098
0.0117113
0.0113687
0.010603
0.00924906
0.00770077
0.0056487
0.00285912
0.000335468
0.000316824
0.00252581
0.00480685
0.0066591
0.00814425
0.0093169
0.0102389
0.0109584
0.0115014
0.0119216
0.0122735
0.0126096
0.0129178
0.0131363
0.0132462
0.0132592
0.0131679
0.0129968
0.0127877
0.0126155
0.0125573
0.0124922
0.0120937
0.0117312
0.0109611
0.0095503
0.00794158
0.0058863
0.00311018
0.000360964
0.000312136
0.00255083
0.00487077
0.00679158
0.008386
0.00968783
0.0107211
0.0115238
0.0121423
0.0126275
0.0130339
0.0133836
0.0136763
0.0138837
0.0139608
0.0139482
0.0138272
0.0136116
0.0133665
0.0131616
0.0130221
0.0127114
0.0123587
0.0119314
0.0111832
0.00978443
0.0081133
0.00601897
0.00326404
0.000379097
0.000309725
0.00260347
0.00502455
0.00708855
0.00882273
0.0102335
0.0113304
0.0121746
0.0128204
0.0133275
0.0137505
0.0141231
0.0144306
0.0146139
0.0146689
0.0146611
0.0145105
0.0142365
0.0139267
0.0136421
0.0133481
0.0129302
0.0124911
0.012024
0.0112755
0.00996208
0.00825598
0.0061062
0.00337511
0.000387954
0.000308598
0.00270184
0.00536214
0.00756311
0.00937074
0.0108385
0.0119719
0.0128383
0.0134985
0.0140229
0.014466
0.0148586
0.0151499
0.0153084
0.0153594
0.0153236
0.0151419
0.0148201
0.0144414
0.0140173
0.0135495
0.0131146
0.0126355
0.0120969
0.0113739
0.010145
0.00843008
0.0062151
0.00343712
0.000388598
0.000310745
0.00284161
0.00584516
0.00818855
0.0100499
0.0115499
0.0126879
0.0135431
0.0141909
0.0147146
0.015165
0.0155539
0.0158138
0.015959
0.0159753
0.0158477
0.0156196
0.0152807
0.0148253
0.0142697
0.0137816
0.0133049
0.0127817
0.0122196
0.0115246
0.0103689
0.00868076
0.00641177
0.00351088
0.000383237
0.000321335
0.00312154
0.0064843
0.00897133
0.0108453
0.0123446
0.0134577
0.014263
0.0148724
0.0153832
0.0158238
0.0161809
0.0164245
0.0165395
0.0164938
0.0163084
0.0160193
0.0156274
0.0151258
0.0145797
0.0140471
0.0135221
0.0129818
0.0124204
0.0117472
0.010624
0.0089293
0.00660454
0.00355422
0.000378836
0.000347423
0.00350874
0.00721651
0.00984642
0.0117058
0.0131665
0.0142396
0.0149725
0.015527
0.016004
0.0164195
0.0167525
0.0169721
0.0170462
0.0169855
0.0167966
0.0164914
0.0160655
0.0155228
0.0149388
0.0143629
0.0138066
0.0132542
0.0126988
0.0120201
0.010877
0.00914671
0.00676191
0.00358685
0.000380917
0.000385059
0.00391909
0.00795117
0.010729
0.0125786
0.0139711
0.0149943
0.015664
0.0161389
0.0165637
0.0169466
0.0172604
0.0174604
0.0175238
0.0174735
0.0172972
0.0169858
0.016549
0.0159866
0.0153731
0.0147645
0.0141805
0.0136083
0.013045
0.0123382
0.0111366
0.00935091
0.00691591
0.00365736
0.000386428
0.00042455
0.00435187
0.00862302
0.0115532
0.0134225
0.0147402
0.0157234
0.0163149
0.0167103
0.0170622
0.0174052
0.017704
0.0179066
0.0179909
0.0179565
0.017798
0.0174895
0.0170548
0.0164994
0.0158778
0.0152512
0.0146429
0.0140471
0.0134588
0.0126829
0.0114057
0.00956486
0.00707334
0.00375618
0.000392409
0.000461718
0.00475724
0.00919262
0.0122627
0.014199
0.015462
0.0164053
0.0169809
0.0172554
0.0175145
0.0178145
0.0181062
0.0183343
0.0184545
0.0184435
0.018299
0.0180196
0.0175655
0.0170301
0.0164291
0.0157993
0.0151776
0.0145613
0.0139285
0.0130493
0.011676
0.00977056
0.00721092
0.00383917
0.000398952
0.000492528
0.0050609
0.00963321
0.012808
0.0148728
0.0161496
0.0170365
0.0176894
0.0178408
0.0179759
0.0182178
0.0185011
0.0187543
0.0189117
0.0189266
0.0187941
0.0185284
0.0180691
0.0175471
0.0169599
0.016339
0.0157131
0.0150849
0.0144027
0.0134059
0.0119282
0.009945
0.00732253
0.00391608
0.000408657
0.000519274
0.00528384
0.00991802
0.0131691
0.0153674
0.0167728
0.0176161
0.0183954
0.0185292
0.0185088
0.0186616
0.0189153
0.0191743
0.0193569
0.0193982
0.0192878
0.0190423
0.0185895
0.0180817
0.0175096
0.0168823
0.0162496
0.0156035
0.0148233
0.0137034
0.0121232
0.0100501
0.00738098
0.003957
0.000432618
0.000558448
0.00540483
0.0100396
0.013352
0.0156776
0.0172658
0.0181749
0.0189933
0.0192557
0.0191111
0.0191583
0.0193614
0.0196013
0.0197899
0.0198582
0.0197719
0.0195512
0.0190981
0.0186112
0.0180529
0.0174372
0.0167959
0.0160656
0.0151416
0.0138966
0.0122143
0.0100462
0.00735683
0.00396979
0.000439567
0.00057388
0.00535259
0.00997857
0.0133982
0.0158611
0.0176036
0.0186531
0.0194397
0.0198453
0.0197068
0.019688
0.0198344
0.0200355
0.020215
0.0203003
0.0202481
0.0200454
0.0195824
0.0190926
0.0185704
0.0179543
0.0172393
0.0163858
0.0153336
0.0139609
0.0121669
0.00987791
0.00706394
0.00377857
0.000454621
0.000564692
0.00496694
0.00960089
0.0132913
0.0159811
0.0178477
0.0189874
0.0197378
0.0202077
0.0202204
0.0202242
0.0203209
0.0204686
0.0206289
0.0207264
0.0207123
0.0205036
0.0200403
0.019593
0.0190464
0.0183663
0.01754
0.0165876
0.0154236
0.0139311
0.0120032
0.00953362
0.00677908
0.00366152
0.000449232
0.000533991
0.00443764
0.0091392
0.0130771
0.0160481
0.0179839
0.0191598
0.0199048
0.0203496
0.0206222
0.0207573
0.020815
0.020889
0.0210147
0.0211217
0.0211308
0.0208852
0.0204707
0.0200159
0.0194049
0.0186352
0.0177495
0.0167089
0.0154399
0.0138363
0.0117607
0.00914234
0.00659077
0.00356923
0.00043484
0.000498482
0.00415074
0.00890405
0.0130126
0.0160153
0.0179683
0.0192325
0.0200712
0.0206067
0.0210746
0.0213255
0.021329
0.0212867
0.021353
0.0214574
0.0214613
0.0212129
0.0208427
0.0203361
0.0196548
0.0188392
0.0178926
0.0167725
0.0154088
0.0137036
0.0114867
0.00881733
0.00634559
0.00346695
0.000422873
0.000485184
0.00432259
0.0090937
0.0130656
0.0159197
0.0178543
0.0192176
0.0201945
0.0209078
0.0216291
0.0218799
0.0218197
0.0216778
0.021661
0.0217336
0.0217105
0.0214969
0.0211227
0.0205596
0.0198333
0.0189833
0.0179901
0.0168075
0.0153663
0.0135725
0.0112576
0.00855405
0.0060911
0.00334235
0.000413249
0.000490723
0.00463527
0.00941503
0.013184
0.0158714
0.0177916
0.019226
0.0203392
0.0212442
0.0218908
0.022144
0.0221251
0.0219889
0.0219284
0.0219765
0.0219296
0.0217167
0.0213036
0.0207013
0.0199549
0.0190829
0.0180621
0.0168435
0.0153582
0.0135126
0.0111718
0.00836827
0.00580218
0.00318281
0.000404726
0.00050982
0.00501932
0.00969683
0.013315
0.0159549
0.0178727
0.0193168
0.0204335
0.0212256
0.0217031
0.0219378
0.0220357
0.0220703
0.0221213
0.0221736
0.0221045
0.0218479
0.0213958
0.0207879
0.0200507
0.0191773
0.0181458
0.0169145
0.0154193
0.0135721
0.0112669
0.00836853
0.00551149
0.00294247
0.000393563
0.00053934
0.00521644
0.00991298
0.01347
0.016041
0.0178856
0.0192401
0.0202137
0.0208926
0.0213227
0.0216221
0.021828
0.0219769
0.0221259
0.0222209
0.0221464
0.0218741
0.0214321
0.0208499
0.0201306
0.0192655
0.0182404
0.0170222
0.0155535
0.0137464
0.0114832
0.00863964
0.00539225
0.00262979
0.000370351
0.000572155
0.00523466
0.00994621
0.0134673
0.0159526
0.0176732
0.0189095
0.0198177
0.0204949
0.020958
0.0213224
0.0215951
0.0217962
0.0219922
0.0221153
0.0220688
0.0218432
0.021452
0.0209042
0.0202039
0.0193546
0.0183506
0.0171671
0.0157515
0.0140219
0.0118493
0.00906468
0.0054955
0.0021777
0.000339932
0.000570387
0.00527967
0.00990073
0.0132869
0.0156491
0.017312
0.0185119
0.0194092
0.0201031
0.0206035
0.0210126
0.0213207
0.0215586
0.0217944
0.0219621
0.0219778
0.0218181
0.0214786
0.0209641
0.0202894
0.0194675
0.0185
0.0173675
0.0160211
0.0143792
0.0122948
0.00954934
0.00586135
0.00177625
0.000300588
0.00055784
0.00521567
0.00967715
0.0129244
0.0152195
0.0168497
0.0180385
0.0189413
0.0196635
0.0202096
0.020661
0.0210078
0.0212994
0.0215954
0.0218287
0.0219123
0.0218111
0.0215167
0.0210409
0.0204057
0.0196295
0.0187143
0.0176445
0.0163746
0.0148273
0.0128536
0.0101867
0.0065615
0.00201874
0.00028354
0.000541432
0.00501388
0.00928675
0.0124084
0.0146495
0.0162699
0.0174757
0.018411
0.0191711
0.0197818
0.0202817
0.0206773
0.0210444
0.0214194
0.021727
0.0218685
0.0218221
0.021577
0.0211558
0.0205847
0.0198808
0.0190309
0.0180188
0.0168049
0.0153261
0.0134492
0.0109451
0.0075344
0.00281954
0.000298524
0.000521829
0.00474232
0.00880029
0.0118003
0.0139978
0.0156242
0.0168644
0.01785
0.0186641
0.0193414
0.0198924
0.0203506
0.0208126
0.0212737
0.021648
0.0218458
0.0218502
0.021677
0.0213462
0.0208744
0.0202639
0.0195169
0.0185489
0.0173504
0.0158673
0.0140179
0.0116389
0.00841728
0.00387194
0.000343529
0.000500051
0.00445308
0.00828803
0.0111706
0.0133284
0.0149662
0.0162473
0.017289
0.0181641
0.0189007
0.0195038
0.0200505
0.0206061
0.0211594
0.0215823
0.0218294
0.0219099
0.0218442
0.0216498
0.0213329
0.0208791
0.0202481
0.0193153
0.0180724
0.0165091
0.0146371
0.0122625
0.00904635
0.00450062
0.000411572
0.000477574
0.00417407
0.00779153
0.0105602
0.0126782
0.0143264
0.0156472
0.0167433
0.0176762
0.0184682
0.0191282
0.0197759
0.0204444
0.0210542
0.021513
0.0218267
0.0220167
0.0221036
0.0220999
0.0220046
0.021797
0.0213493
0.0203714
0.0190182
0.0173458
0.0153479
0.012872
0.009572
0.00496294
0.000478039
0.00045538
0.00391482
0.00732815
0.00998723
0.0120643
0.0137196
0.015075
0.0162196
0.0172033
0.018043
0.0187846
0.0195477
0.0202938
0.0209281
0.0214385
0.0218492
0.0221858
0.0224669
0.0227008
0.0228851
0.0229675
0.0227119
0.0216913
0.0201733
0.0183484
0.0161593
0.0134752
0.00998366
0.00526646
0.000537292
0.000433957
0.00367651
0.00690225
0.00945785
0.0114952
0.0131541
0.0145385
0.0157242
0.0167474
0.0176404
0.0184902
0.0193385
0.0201177
0.0207884
0.0213773
0.0219154
0.022428
0.0229286
0.0234177
0.023865
0.0241506
0.0239383
0.0230331
0.0214267
0.0194056
0.017001
0.0140534
0.0103336
0.00549395
0.00058498
0.000413283
0.00345769
0.00651432
0.00897486
0.0109769
0.0126377
0.014046
0.0152619
0.0163208
0.0172888
0.0182346
0.0191321
0.0199343
0.020665
0.0213603
0.022051
0.0227549
0.0234722
0.0241765
0.0247932
0.0251259
0.024798
0.0240568
0.0225411
0.0203867
0.0177377
0.0145418
0.010611
0.00569034
0.00061484
0.000393394
0.00325901
0.00616577
0.00854217
0.0105164
0.0121783
0.0136069
0.0148496
0.0159593
0.017007
0.0180141
0.0189336
0.0197816
0.0206002
0.0214278
0.0222875
0.0231819
0.0240885
0.0249534
0.0256717
0.0259219
0.025451
0.0247005
0.0232996
0.0211294
0.0182249
0.014776
0.0105558
0.00547787
0.000619618
0.000374161
0.00306417
0.00584122
0.00815217
0.0101161
0.0117894
0.0132471
0.0145325
0.015703
0.0168055
0.0178379
0.0187894
0.0197076
0.0206401
0.0216189
0.0226544
0.0237306
0.0248036
0.0258072
0.0265603
0.0265629
0.0260246
0.0251829
0.023726
0.0214914
0.0183708
0.0146019
0.0101362
0.00497197
0.000606617
0.000354164
0.00284155
0.00552688
0.0078129
0.00979329
0.0115042
0.0130156
0.0143596
0.0155785
0.016705
0.017747
0.018747
0.0197572
0.0208206
0.0219595
0.0231704
0.0244205
0.0256512
0.0267736
0.0273666
0.0270853
0.0265324
0.0255505
0.0238964
0.0215104
0.0183287
0.0145241
0.00989928
0.00451615
0.000568365
0.000333338
0.00260673
0.00525756
0.00757681
0.00960434
0.0113774
0.012955
0.014354
0.0155893
0.0167106
0.0177776
0.0188423
0.019957
0.0211575
0.0224566
0.0238384
0.0252569
0.026645
0.027756
0.0279529
0.027544
0.0269297
0.0257434
0.0238897
0.0214569
0.0183983
0.0146723
0.0100175
0.00469799
0.000553951
0.00031205
0.00241547
0.00510628
0.00751746
0.00961365
0.0114499
0.0130663
0.0144845
0.0157195
0.0168468
0.0179508
0.0190896
0.0203106
0.021645
0.023099
0.0246465
0.0262269
0.0277223
0.0285244
0.0283513
0.0279575
0.0271874
0.0258214
0.0238751
0.0214101
0.0184555
0.0149233
0.0104908
0.00524428
0.000565183
0.000294631
0.00234065
0.00514973
0.0076766
0.00980999
0.0116847
0.0133096
0.0147109
0.0159552
0.017113
0.018268
0.0194825
0.0208028
0.0222609
0.0238617
0.0255707
0.0273224
0.0287237
0.0290174
0.0287437
0.028297
0.0273803
0.0259317
0.0239545
0.0215644
0.0187521
0.0153729
0.0111341
0.0058386
0.000586961
0.000290401
0.00239509
0.00531431
0.00796132
0.0101801
0.0120431
0.013627
0.015017
0.0162853
0.017495
0.0187121
0.0199987
0.0214056
0.0229745
0.024717
0.0265929
0.0284336
0.0294352
0.0293418
0.0291274
0.0286434
0.0276594
0.0261905
0.0242938
0.0219896
0.0192309
0.0158816
0.0116208
0.00613503
0.000601304
0.000294001
0.00254451
0.00566514
0.00839557
0.0105934
0.0124295
0.0139958
0.0153924
0.0166973
0.0179689
0.0192565
0.0206086
0.0220865
0.0237507
0.0256207
0.027647
0.0293403
0.029847
0.0297133
0.0295181
0.0290004
0.028049
0.0266458
0.02482
0.0225623
0.0197662
0.0163098
0.0118825
0.0062037
0.000606853
0.000307396
0.00282849
0.00604108
0.00880976
0.0110117
0.0128363
0.0144054
0.015827
0.0171781
0.0185104
0.0198666
0.0212828
0.0228179
0.0245579
0.0265386
0.0285813
0.0299214
0.0301144
0.0300616
0.0299098
0.029408
0.0285067
0.0272021
0.0254253
0.0231335
0.0202618
0.0166617
0.0120333
0.0061812
0.000610773
0.000326137
0.00305491
0.00638218
0.00920519
0.0114271
0.0132669
0.0148618
0.0163194
0.0177133
0.0190962
0.0205085
0.0219872
0.0235771
0.0253588
0.0273662
0.0292313
0.0301266
0.0302819
0.0303084
0.0302575
0.0298743
0.0290952
0.0278032
0.0260041
0.0236802
0.0207346
0.0169966
0.0121792
0.00617958
0.000618469
0.000341672
0.00324582
0.00669556
0.00958572
0.0118587
0.0137397
0.0153704
0.0168584
0.018283
0.0197029
0.0211589
0.0226852
0.0243193
0.0261198
0.0280513
0.0296272
0.0302679
0.0303616
0.0304389
0.0304509
0.0302633
0.0296293
0.0284289
0.0266397
0.0242762
0.0212479
0.0173767
0.012394
0.00625533
0.000628394
0.000356448
0.00341765
0.0069935
0.00997219
0.0123203
0.0142557
0.0159187
0.0174241
0.0188654
0.0203089
0.0217944
0.0233467
0.0249968
0.02678
0.0285908
0.0299046
0.0303381
0.0304386
0.0305805
0.030682
0.0306039
0.0301271
0.0290722
0.027376
0.024996
0.0218743
0.0178564
0.01268
0.00634077
0.000637188
0.000371446
0.00358363
0.00730817
0.0103841
0.0128064
0.0147906
0.0164809
0.017997
0.0194427
0.0209001
0.022404
0.0239662
0.025605
0.0273244
0.0289959
0.030126
0.030437
0.0305709
0.0307747
0.0309263
0.0308774
0.030447
0.0294972
0.0279664
0.025754
0.0226384
0.0184579
0.0130116
0.0064124
0.00064121
0.00038571
0.00372864
0.00762004
0.0108003
0.0132954
0.0153223
0.0170418
0.0185747
0.0200236
0.0214787
0.0229862
0.0245443
0.0261455
0.0277766
0.0293479
0.0303451
0.030581
0.0307376
0.0309755
0.0311439
0.0310922
0.0306236
0.0296728
0.0282047
0.026157
0.0232765
0.0191436
0.0134223
0.00651805
0.000654807
0.000400296
0.00387388
0.00792379
0.0112043
0.0137708
0.015841
0.017589
0.0191403
0.020598
0.0220536
0.0235491
0.0250784
0.0266207
0.028171
0.0296651
0.0305695
0.0307487
0.0309113
0.0311411
0.0312895
0.0311701
0.030693
0.0297542
0.0282997
0.0262664
0.0234913
0.0195639
0.0139445
0.00678255
0.000675353
0.000416833
0.00406583
0.00823297
0.0115942
0.0142255
0.01634
0.0181176
0.0196902
0.0211663
0.0226249
0.024094
0.0255752
0.0270597
0.0285537
0.0299865
0.0307945
0.0309215
0.0310626
0.0312446
0.0313269
0.0311785
0.0306939
0.0297935
0.028379
0.0263463
0.0235667
0.0197217
0.0142709
0.00707208
0.000707189
0.000429935
0.00428548
0.00854783
0.0119778
0.0146709
0.0168335
0.0186472
0.0202481
0.0217406
0.0231901
0.0246263
0.0260615
0.0274988
0.028949
0.0303139
0.0310069
0.0310822
0.0311821
0.0313019
0.0313169
0.0311274
0.0306514
0.0298075
0.02847
0.0264706
0.0236536
0.0197644
0.0143514
0.00721383
0.000730654
0.000439617
0.00443632
0.00882286
0.0123451
0.0151123
0.0173301
0.0191837
0.0208099
0.0223079
0.0237416
0.0251484
0.0265475
0.0279484
0.0293616
0.0306409
0.0311918
0.0312241
0.0312779
0.0313351
0.0312958
0.0310775
0.0306168
0.029838
0.0285826
0.0266238
0.023769
0.0197627
0.0142828
0.00727792
0.000736917
0.000448153
0.00453436
0.00905462
0.0126845
0.0155349
0.0178121
0.0197057
0.0213533
0.0228533
0.0242723
0.0256547
0.0270277
0.0284045
0.0297956
0.0309479
0.0313468
0.0313528
0.0313627
0.0313692
0.0312912
0.0310602
0.0306188
0.029897
0.028717
0.026782
0.0238746
0.0197434
0.0141642
0.00721579
0.000733147
0.000456509
0.0046335
0.00927185
0.0130025
0.0159339
0.0182704
0.0202036
0.0218716
0.0233737
0.0247777
0.0261387
0.027498
0.0288727
0.0302169
0.0311766
0.031466
0.0314659
0.0314441
0.0314168
0.031319
0.0310846
0.0306606
0.0299827
0.0288546
0.0269293
0.0239644
0.0197233
0.0140677
0.00713826
0.000728438
0.000464724
0.00474936
0.00949246
0.0133108
0.0163141
0.0187055
0.0206755
0.022363
0.0238657
0.0252546
0.0265967
0.0279534
0.0293467
0.0305601
0.0312991
0.0315484
0.0315545
0.031521
0.03148
0.0313755
0.0311444
0.0307322
0.030078
0.0289756
0.0270506
0.0240557
0.0197513
0.0140322
0.00708681
0.000726945
0.000472313
0.00486264
0.0097028
0.0136035
0.0166728
0.0191145
0.0211181
0.0228214
0.0243224
0.0257016
0.0270322
0.0283808
0.0297144
0.0307809
0.0313932
0.0316082
0.0316225
0.0315948
0.0315534
0.0314492
0.03122
0.0308131
0.0301692
0.0290719
0.0271428
0.0241521
0.0198223
0.0140568
0.00708957
0.000728299
0.000479014
0.00495769
0.00988333
0.0138627
0.0169957
0.0194868
0.0215239
0.0232429
0.0247481
0.026125
0.0274382
0.0287462
0.0299994
0.0309648
0.0314939
0.0316702
0.0316875
0.0316711
0.0316324
0.0315259
0.031294
0.0308845
0.0302376
0.0291317
0.0271899
0.0242264
0.0199073
0.0141218
0.00714996
0.000732701
0.000484973
0.00503446
0.0100327
0.014085
0.0172801
0.0198206
0.0218915
0.0236332
0.0251521
0.0265275
0.0278208
0.0290772
0.0302573
0.0311538
0.0316122
0.0317537
0.0317679
0.0317558
0.0317128
0.0315959
0.0313501
0.0309339
0.0302783
0.0291573
0.0271926
0.0242314
0.0199588
0.0142345
0.00723087
0.000743948
0.000490627
0.00509504
0.0101586
0.0142798
0.0175354
0.020125
0.0222305
0.0239945
0.0255265
0.0269066
0.0281876
0.0293981
0.030511
0.0313529
0.0317614
0.0318704
0.0318758
0.0318536
0.0317928
0.0316521
0.0313815
0.0309466
0.0302825
0.0291481
0.0271573
0.024183
0.0199778
0.0143745
0.00734737
0.00074779
0.000495848
0.00514823
0.0102716
0.0144592
0.0177746
0.0204118
0.0225511
0.0243341
0.0258714
0.0272499
0.0285224
0.0297059
0.0307668
0.0315705
0.0319487
0.0320289
0.0320128
0.0319644
0.0318704
0.031693
0.031387
0.0309197
0.0302495
0.0291057
0.0270802
0.0240769
0.0199497
0.0144949
0.00748009
0.000735316
0.000500943
0.00519501
0.0103785
0.0146334
0.0180068
0.0206876
0.0228583
0.0246551
0.0261868
0.0275493
0.0288077
0.0299798
0.0310142
0.0318006
0.0321655
0.0322192
0.0321706
0.0320835
0.0319448
0.0317199
0.0313675
0.0308613
0.0301768
0.0290177
0.0269544
0.0239343
0.0198519
0.0144265
0.00741181
0.00071861
0.000505928
0.00523959
0.0104849
0.0148066
0.0182321
0.0209478
0.0231464
0.0249484
0.0264657
0.0277995
0.029033
0.0301976
0.0312318
0.0320252
0.032388
0.0324161
0.0323339
0.0322041
0.0320156
0.0317361
0.0313274
0.0307751
0.030061
0.0288743
0.0267775
0.0237345
0.0196397
0.0141964
0.00725976
0.00070316
0.000510784
0.00528365
0.0105878
0.014968
0.0184308
0.021166
0.0233649
0.0251688
0.0266959
0.02803
0.0292304
0.0303611
0.0314062
0.0322167
0.0325837
0.0325978
0.0324913
0.0323231
0.032082
0.0317429
0.0312727
0.0306642
0.0298981
0.0286728
0.0265465
0.0234498
0.0193116
0.0138904
0.00708311
0.000689912
0.000513931
0.00533115
0.010675
0.0150745
0.0185519
0.0213053
0.0235343
0.025369
0.0269119
0.0282489
0.029446
0.0305436
0.0315403
0.0323414
0.0327365
0.0327576
0.0326386
0.0324382
0.0321421
0.0317414
0.0312093
0.030536
0.0296963
0.0284096
0.0262351
0.0230701
0.0189152
0.0135671
0.00691528
0.000674874
0.000515777
0.00536014
0.0107271
0.0151502
0.0186665
0.0214679
0.0237341
0.0256018
0.0271662
0.0285121
0.0296964
0.0307457
0.0316694
0.0324265
0.0328642
0.0329072
0.0327758
0.0325392
0.0321927
0.0317385
0.0311529
0.0304178
0.0294844
0.0280767
0.025824
0.0226271
0.0185097
0.013267
0.0067602
0.000656163
0.000520372
0.00540995
0.0108126
0.0152665
0.0188265
0.0216735
0.0239747
0.0258605
0.02744
0.0287857
0.0299423
0.030939
0.0317968
0.0325124
0.0329903
0.0330624
0.0329019
0.0326242
0.0322443
0.0317549
0.0311229
0.0303289
0.0292612
0.0276782
0.0253149
0.0221496
0.018151
0.0130406
0.00659656
0.000648534
0.000528393
0.00546886
0.0109224
0.0154175
0.0190177
0.0219006
0.0242294
0.0261363
0.0277184
0.0290519
0.0301752
0.0311231
0.0319242
0.0325951
0.0331075
0.0332232
0.0330301
0.0327269
0.0323441
0.0318276
0.0311321
0.0302416
0.02898
0.0271884
0.0247644
0.0217088
0.017946
0.0130641
0.00662464
0.000651983
0.000537065
0.00554252
0.0110576
0.0156044
0.0192484
0.0221619
0.024507
0.0264223
0.0280051
0.0293114
0.0303993
0.0313026
0.0320535
0.0326788
0.0331956
0.0333755
0.033188
0.0328964
0.0325321
0.03199
0.0312111
0.0301576
0.0287048
0.0267998
0.0244299
0.0214657
0.0176804
0.012817
0.00652964
0.000673966
0.000547478
0.00563595
0.0112326
0.0158418
0.0195347
0.02247
0.024812
0.0267242
0.0282945
0.029565
0.0306039
0.0314685
0.0321783
0.0327607
0.0332478
0.033494
0.0333555
0.0330914
0.0327447
0.0321905
0.0313179
0.0301099
0.0285276
0.026581
0.024193
0.0212059
0.0174114
0.012568
0.00645534
0.000672577
0.000560598
0.00575621
0.0114574
0.0161203
0.019864
0.022807
0.0251192
0.027012
0.0285513
0.0297762
0.0307823
0.0316161
0.0322942
0.0328383
0.0332808
0.0335611
0.0334768
0.033275
0.0329465
0.0323383
0.0313742
0.0300428
0.0283696
0.0263657
0.0239466
0.020965
0.0172259
0.0124659
0.00643031
0.000661018
0.00057668
0.005892
0.0116702
0.0163354
0.0200682
0.0230504
0.0253882
0.0272453
0.0287457
0.0299636
0.0309563
0.0317528
0.0324005
0.0329105
0.033309
0.033579
0.0335283
0.0333193
0.0329685
0.0323271
0.0313114
0.0298992
0.0281605
0.0261154
0.0236835
0.0207317
0.0170615
0.0123665
0.00637391
0.000640481
0.00059375
0.00595473
0.0116915
0.0163283
0.0200917
0.0231302
0.0255594
0.0274492
0.028937
0.0301385
0.0311082
0.0318805
0.0324921
0.0329755
0.03334
0.0335725
0.0335223
0.0332806
0.0328664
0.0321764
0.0311308
0.0297027
0.0279233
0.0258398
0.0233906
0.0204471
0.0167922
0.0121086
0.00619755
0.000620795
0.00060167
0.00589388
0.0115729
0.0162882
0.0201512
0.0232475
0.0257116
0.0276097
0.0290948
0.0302818
0.0312331
0.0319738
0.0325563
0.0330247
0.0333733
0.0335795
0.0335382
0.0332646
0.0327886
0.0320237
0.0309357
0.0295105
0.0277027
0.0255729
0.023082
0.0200959
0.0163982
0.0117281
0.0059664
0.000601114
0.000600183
0.00587265
0.0115964
0.0163629
0.020235
0.0233326
0.0258181
0.0277294
0.0291897
0.0303626
0.0312994
0.0320191
0.0325901
0.0330466
0.0333925
0.0335894
0.0335706
0.0332973
0.0327393
0.0318666
0.0307483
0.029322
0.0275104
0.025347
0.0228065
0.0197558
0.016002
0.0113489
0.0057252
0.000580153
0.000599712
0.00594661
0.0116942
0.0164399
0.0202674
0.0233421
0.0258228
0.027742
0.029218
0.030389
0.0313115
0.0320218
0.0325886
0.0330284
0.0333587
0.0335404
0.0335033
0.0332172
0.0325995
0.0316805
0.0305575
0.0291308
0.0273346
0.0251653
0.0226012
0.0195143
0.0157002
0.0110282
0.00543443
0.000559991
0.000605117
0.00603033
0.0117713
0.0164466
0.0202088
0.0232525
0.0257186
0.0276532
0.029154
0.0303493
0.0312716
0.031988
0.0325502
0.0329614
0.0332461
0.0333894
0.0333079
0.0329539
0.0323008
0.0314083
0.0302758
0.0288317
0.0270516
0.0249291
0.0224168
0.0193859
0.015592
0.0108613
0.00521477
0.000550011
0.000611968
0.00610551
0.0117966
0.0163644
0.0200536
0.0230793
0.025546
0.0275006
0.0290302
0.0302317
0.0311805
0.0319266
0.0324832
0.0328584
0.0330742
0.033127
0.0329576
0.0325438
0.0319123
0.031059
0.0299423
0.0284931
0.0267029
0.0245986
0.0221129
0.0191109
0.0153859
0.0107137
0.005143
0.000550616
0.000620574
0.00613879
0.011742
0.0161752
0.0197911
0.0228248
0.0253214
0.0273112
0.0288707
0.0301058
0.0310892
0.0318555
0.0323915
0.032738
0.0328813
0.0328564
0.0326303
0.0321976
0.0315638
0.0307097
0.0295812
0.0281287
0.0263561
0.0242797
0.02182
0.0188408
0.0151571
0.0105744
0.00512175
0.000539096
0.000628764
0.0061448
0.0115974
0.0158567
0.0194053
0.0224877
0.0250653
0.02714
0.0287741
0.0300574
0.0310644
0.0318058
0.0323294
0.0326263
0.0327137
0.0326167
0.032369
0.0319355
0.0313021
0.0304416
0.0292911
0.0278222
0.0260613
0.024006
0.0215756
0.0186417
0.015027
0.0105554
0.00521723
0.000539973
0.000631969
0.00613859
0.0113535
0.0153429
0.0187896
0.0219971
0.0247797
0.0270342
0.028803
0.0301787
0.0311882
0.0319212
0.0323774
0.0325978
0.0326199
0.0324753
0.0322058
0.0317759
0.0311508
0.0302831
0.029117
0.0276459
0.0258986
0.0238642
0.0214712
0.0185992
0.0150756
0.0107084
0.00536122
0.000551662
0.00060558
0.00502586
0.0105612
0.0147267
0.0182529
0.02151
0.0244865
0.0269717
0.0289259
0.0304214
0.0315157
0.0322498
0.0326431
0.0327718
0.0326989
0.0324774
0.0321484
0.0317316
0.0311114
0.030235
0.0290634
0.0276026
0.0258838
0.0238862
0.0215398
0.0187296
0.0152865
0.0109785
0.00556129
0.000550188
0.000603342
0.00465551
0.0102084
0.0144176
0.0179187
0.0211812
0.0241764
0.0267906
0.0289139
0.0305642
0.0318081
0.0326516
0.0331228
0.0332357
0.0330762
0.0327447
0.0323141
0.0318107
0.0311746
0.0302957
0.0291326
0.0276952
0.0260121
0.024054
0.0217399
0.0189492
0.0155026
0.0111418
0.00566451
0.000545685
0.000624143
0.00512145
0.0104992
0.014635
0.0179883
0.0210004
0.0238886
0.0264732
0.0286602
0.0304427
0.0318464
0.0328945
0.033581
0.0338591
0.0337609
0.03337
0.0328167
0.0321808
0.0314396
0.0305262
0.0293575
0.0279357
0.0262736
0.0243253
0.0219963
0.0191679
0.0156623
0.0112125
0.00566472
0.000544714
0.000643571
0.00558938
0.0110273
0.0152435
0.0185333
0.0213943
0.0240247
0.026408
0.0284783
0.0302156
0.0316654
0.0328531
0.0337833
0.0343503
0.0344921
0.0342544
0.0336896
0.0329224
0.0320421
0.0310182
0.0298073
0.0283669
0.026669
0.0246597
0.0222632
0.0193613
0.0157656
0.0112243
0.00561357
0.000545228
0.000657863
0.0059469
0.0116054
0.0159505
0.0192948
0.0220954
0.0245501
0.0267163
0.0285922
0.0301934
0.0315667
0.0327419
0.0337294
0.0345104
0.0349925
0.0350516
0.0347199
0.0340054
0.0330013
0.0318407
0.0305234
0.0289914
0.0271899
0.0250761
0.0225802
0.0195748
0.0158667
0.0111976
0.00542015
0.000545501
0.000668593
0.00621508
0.0121157
0.016639
0.0201017
0.0229103
0.0252773
0.0272977
0.0289989
0.03043
0.0316684
0.0327616
0.0337269
0.0345561
0.035185
0.0355563
0.0355375
0.0351072
0.0342228
0.0329613
0.0314809
0.0297855
0.0278314
0.0255796
0.0229484
0.0198072
0.0159767
0.011176
0.00526877
0.000553506
0.000677115
0.00642014
0.0125315
0.01725
0.0208618
0.0237203
0.0260538
0.0279803
0.0295726
0.0308845
0.0319833
0.0329665
0.0338653
0.0346786
0.0353658
0.0358432
0.0360646
0.0359124
0.0353115
0.034193
0.032609
0.030711
0.0285706
0.0261433
0.0233357
0.0200308
0.0161244
0.0113285
0.00553375
0.000595595
0.000684441
0.00657141
0.0128647
0.0177792
0.0215447
0.0244861
0.0268387
0.0287361
0.0302544
0.0314628
0.032468
0.0333424
0.0341589
0.0349214
0.0356038
0.0361384
0.0364406
0.0364625
0.0360832
0.0351874
0.033707
0.0316972
0.0293524
0.0267168
0.0237416
0.0203915
0.0164526
0.0116474
0.00587617
0.000609561
0.000691243
0.0066757
0.0131424
0.0182387
0.0221599
0.0252081
0.0276084
0.0295095
0.0310007
0.0321503
0.0330606
0.0338517
0.0345882
0.0352788
0.0359203
0.0364641
0.0368387
0.0369463
0.0366929
0.0359658
0.034607
0.0325972
0.0301186
0.027325
0.0242776
0.0208757
0.0168254
0.0118691
0.00593886
0.000606928
0.000697657
0.00677101
0.0133881
0.0186562
0.0227264
0.0258963
0.0283673
0.0302956
0.0317839
0.0329074
0.0337464
0.0344565
0.0351303
0.03574
0.03632
0.036836
0.0372228
0.037389
0.0372553
0.0366698
0.0354117
0.0334059
0.0308662
0.0280005
0.0248864
0.0214178
0.0172422
0.0121019
0.00593983
0.000619824
0.000703863
0.00686106
0.0136132
0.0190415
0.0232691
0.026566
0.0291224
0.0310963
0.0326003
0.0337166
0.0345218
0.0351297
0.0357569
0.0362916
0.0368048
0.0372796
0.0376625
0.0378737
0.0378094
0.0373356
0.0361867
0.0341914
0.0316058
0.0287242
0.025577
0.0220535
0.0177872
0.0125235
0.00619073
0.000659811
0.000709904
0.00694082
0.0138127
0.0193965
0.0237844
0.0272188
0.029876
0.0319156
0.0334515
0.0345661
0.0353466
0.0358968
0.0364094
0.0369148
0.0373605
0.0377868
0.0381509
0.0383637
0.0383507
0.0379455
0.0368986
0.0349475
0.0323387
0.0294853
0.0263446
0.0228028
0.0185353
0.0132785
0.00675948
0.000673773
0.000715261
0.00700118
0.0139747
0.0197136
0.0242687
0.0278504
0.0306243
0.0327448
0.0343229
0.0354464
0.0362095
0.0367204
0.0371339
0.0375442
0.0379411
0.0383203
0.038646
0.0388687