/*--------------------------------*- C++ -*----------------------------------*\
| =========                 |                                                 |
| \\      /  F ield         | OpenFOAM: The Open Source CFD Toolbox           |
|  \\    /   O peration     | Version:  2.3.0                                 |
|   \\  /    A nd           | Web:      www.OpenFOAM.org                      |
|    \\/     M anipulation  |                                                 |
\*---------------------------------------------------------------------------*/
FoamFile
{
    version     2.0;
    format      ascii;
    class       volScalarField;
    location    "63";
    object      alpha.water;
}
// * * * * * * * * * * * * * * * * * * * * * * * * * * * * * * * * * * * * * //

dimensions      [0 0 0 0 0 0 0];

internalField   nonuniform List<scalar> 
1875
(
0.696476
0.738279
0.765242
0.765117
0.76295
0.759025
0.753971
0.748202
0.742079
0.735985
0.730387
0.726314
0.724614
0.723498
0.724116
0.726904
0.732449
0.741273
0.751319
0.762948
0.771599
0.767807
0.741296
0.696798
0.705873
0.752115
0.780176
0.807642
0.818393
0.821867
0.820835
0.817955
0.813341
0.807104
0.799142
0.789197
0.777039
0.764556
0.753245
0.743892
0.737062
0.737847
0.740118
0.747391
0.759256
0.771608
0.786494
0.788904
0.770044
0.805701
0.82431
0.836414
0.847484
0.852059
0.851849
0.850483
0.847904
0.844265
0.839164
0.832628
0.824884
0.814863
0.800542
0.783384
0.765667
0.749777
0.736015
0.733981
0.740137
0.752246
0.767827
0.78438
0.789553
0.789471
0.809883
0.905079
0.897237
0.883458
0.877197
0.873024
0.868363
0.862446
0.855809
0.848572
0.840584
0.831172
0.820376
0.807844
0.792131
0.773161
0.751382
0.73213
0.732155
0.735037
0.747336
0.765571
0.783124
0.788569
0.790526
0.809883
0.952407
0.927717
0.895986
0.887777
0.882987
0.876052
0.866467
0.854969
0.845357
0.83619
0.826003
0.814277
0.800838
0.784292
0.764761
0.744223
0.732155
0.73213
0.736582
0.750301
0.768638
0.784667
0.78936
0.791631
0.809883
0.964413
0.928627
0.888666
0.887784
0.88087
0.86968
0.857342
0.844121
0.832035
0.820718
0.808524
0.794776
0.779345
0.762173
0.74562
0.734447
0.732148
0.734765
0.743305
0.758806
0.775571
0.787695
0.791809
0.793896
0.808435
0.964413
0.914897
0.871608
0.877992
0.862534
0.84461
0.829211
0.814448
0.800614
0.787734
0.774591
0.761249
0.748859
0.739724
0.735699
0.73503
0.73645
0.744505
0.756691
0.771377
0.783942
0.791755
0.795443
0.796707
0.803122
0.964413
0.883534
0.843454
0.847269
0.819841
0.799106
0.782471
0.768111
0.756297
0.748267
0.74228
0.739069
0.73791
0.737917
0.738551
0.742478
0.750002
0.761307
0.773138
0.783821
0.791485
0.796312
0.799425
0.798388
0.794863
0.954986
0.839425
0.808303
0.802852
0.772667
0.75629
0.745068
0.738961
0.738221
0.737889
0.738221
0.738201
0.740451
0.744382
0.750678
0.759325
0.769503
0.779471
0.787743
0.793897
0.798114
0.801424
0.804052
0.797906
0.783326
0.926202
0.786225
0.77483
0.771077
0.750095
0.742276
0.738534
0.738221
0.737851
0.738221
0.7394
0.744783
0.751888
0.759996
0.769534
0.779062
0.787586
0.794271
0.799092
0.802443
0.805061
0.8078
0.810084
0.797565
0.770567
0.890573
0.738493
0.742739
0.757594
0.743333
0.739012
0.738221
0.738035
0.738221
0.741725
0.749255
0.75881
0.76858
0.778349
0.787318
0.794824
0.80062
0.804886
0.80797
0.81019
0.811992
0.813731
0.814805
0.798568
0.763171
0.868608
0.739678
0.738093
0.749858
0.739491
0.738221
0.738111
0.738221
0.742828
0.752495
0.764112
0.775243
0.785306
0.793968
0.800807
0.80594
0.809586
0.812137
0.813956
0.81483
0.814819
0.814852
0.814819
0.801155
0.76018
0.859779
0.738521
0.739664
0.745088
0.738221
0.737799
0.738221
0.741831
0.753056
0.766556
0.779418
0.79041
0.799238
0.805767
0.81025
0.813074
0.814532
0.814819
0.814877
0.814819
0.814931
0.814819
0.815081
0.800363
0.748921
0.856057
0.739664
0.738166
0.742563
0.737869
0.738221
0.739441
0.749511
0.765137
0.780076
0.792629
0.802038
0.808519
0.812368
0.814212
0.814827
0.814819
0.814944
0.814819
0.815025
0.814819
0.815151
0.814819
0.788427
0.720427
0.856129
0.73939
0.73965
0.741052
0.738221
0.737801
0.74267
0.758392
0.77577
0.790491
0.80112
0.807192
0.810739
0.812797
0.814096
0.81472
0.814897
0.814819
0.815098
0.814819
0.815168
0.814819
0.815022
0.767913
0.720427
0.856931
0.73965
0.739246
0.739898
0.738051
0.738221
0.746352
0.765369
0.781821
0.793547
0.801191
0.806709
0.809951
0.811943
0.813278
0.814262
0.814819
0.815051
0.814819
0.81516
0.814819
0.814974
0.804359
0.766742
0.730493
0.859144
0.740734
0.739636
0.739629
0.738221
0.738
0.745435
0.76434
0.780748
0.792303
0.799813
0.804747
0.807741
0.809868
0.811663
0.813355
0.814676
0.814819
0.813932
0.810055
0.805432
0.79939
0.793879
0.792575
0.784807
0.858244
0.746104
0.740678
0.739867
0.738224
0.738221
0.742557
0.759206
0.776324
0.788578
0.796454
0.801226
0.80416
0.806532
0.808985
0.811496
0.813188
0.813514
0.807202
0.800602
0.79488
0.78914
0.787172
0.825632
0.856653
0.853305
0.758714
0.74471
0.740865
0.738667
0.738202
0.739216
0.749732
0.766394
0.780817
0.790588
0.796393
0.799764
0.802287
0.805005
0.808131
0.810407
0.810688
0.803578
0.797899
0.795729
0.792643
0.784638
0.832396
0.898463
0.844239
0.77731
0.753705
0.743735
0.740041
0.738622
0.738619
0.741643
0.752138
0.766845
0.78003
0.788993
0.794333
0.797712
0.800554
0.803677
0.806658
0.808259
0.804824
0.800395
0.799474
0.801023
0.78465
0.816819
0.90676
0.832556
0.797006
0.769169
0.750762
0.743255
0.740149
0.739009
0.739027
0.741453
0.750083
0.7626
0.774604
0.784162
0.790828
0.795437
0.799146
0.802624
0.805873
0.805921
0.804876
0.804408
0.806551
0.78906
0.796648
0.90676
0.81948
0.812769
0.789823
0.764397
0.750169
0.743739
0.740634
0.739315
0.739311
0.740031
0.742768
0.748897
0.762731
0.775652
0.785446
0.792439
0.797749
0.802559
0.805904
0.807426
0.807327
0.807426
0.794521
0.785104
0.900259
0.807172
0.82316
0.809592
0.783712
0.763012
0.751152
0.744639
0.741019
0.739382
0.738661
0.737789
0.738661
0.740386
0.751817
0.766138
0.77888
0.788765
0.796628
0.803722
0.807475
0.807426
0.807581
0.796379
0.779648
0.888557
0.787111
0.823171
0.823123
0.804684
0.781845
0.764328
0.752879
0.745483
0.741146
0.738575
0.738661
0.737644
0.738661
0.739485
0.746901
0.759476
0.773331
0.785639
0.796802
0.806614
0.807593
0.807426
0.796134
0.775362
0.880104
0.745214
0.823181
0.834281
0.822809
0.803081
0.782993
0.766572
0.754269
0.745882
0.739656
0.738072
0.738661
0.738017
0.738661
0.74007
0.745726
0.756673
0.770607
0.784803
0.80044
0.807426
0.807795
0.795481
0.769513
0.875225
0.74478
0.818545
0.837855
0.834599
0.821866
0.803475
0.784327
0.76727
0.754032
0.743184
0.738661
0.737684
0.738661
0.738519
0.739276
0.741237
0.746819
0.757367
0.771325
0.789141
0.807469
0.807426
0.792753
0.759933
0.871702
0.744784
0.811029
0.837738
0.837797
0.833033
0.82029
0.801935
0.781946
0.764233
0.749303
0.738331
0.738661
0.738267
0.738661
0.739321
0.741299
0.744541
0.750679
0.761401
0.777704
0.802503
0.807796
0.78002
0.749053
0.868713
0.744787
0.800662
0.838009
0.837738
0.836605
0.829669
0.81503
0.794865
0.773828
0.755643
0.738661
0.738152
0.738661
0.738615
0.739482
0.741615
0.744882
0.750192
0.757626
0.770419
0.795368
0.807426
0.749036
0.748669
0.865832
0.744792
0.785889
0.837486
0.837945
0.837365
0.832554
0.821258
0.80224
0.77882
0.755555
0.738308
0.738661
0.738534
0.738661
0.739811
0.742309
0.745749
0.750773
0.758002
0.768514
0.789915
0.807585
0.746821
0.749029
0.863379
0.753523
0.774301
0.825399
0.837738
0.837692
0.832031
0.820014
0.800152
0.775961
0.752707
0.738661
0.738545
0.738661
0.738754
0.740498
0.743474
0.747159
0.752055
0.759102
0.769514
0.790496
0.806048
0.749029
0.748954
0.86269
0.778157
0.774324
0.80292
0.837155
0.837335
0.830031
0.815515
0.793145
0.767954
0.747195
0.738594
0.738661
0.738653
0.739208
0.741682
0.745106
0.749026
0.753878
0.760939
0.772264
0.792866
0.8032
0.746344
0.749379
0.862014
0.814828
0.774528
0.786723
0.833709
0.835623
0.825179
0.805849
0.780363
0.756726
0.742301
0.738661
0.73877
0.738902
0.740208
0.743388
0.747099
0.751126
0.756066
0.763765
0.777228
0.795808
0.798064
0.749029
0.7533
0.859492
0.851467
0.774543
0.785275
0.830598
0.83122
0.815045
0.790112
0.764744
0.747225
0.739913
0.738909
0.739105
0.739567
0.741818
0.74543
0.749174
0.753233
0.758729
0.76807
0.783619
0.798137
0.791022
0.746312
0.761203
0.855212
0.87475
0.775941
0.789653
0.828154
0.821803
0.798108
0.771741
0.752219
0.742638
0.740049
0.739503
0.739545
0.740831
0.743858
0.747475
0.751034
0.755374
0.762264
0.773986
0.789737
0.798425
0.783656
0.749029
0.769635
0.850869
0.882007
0.777789
0.796308
0.823975
0.805427
0.778107
0.757409
0.74613
0.741881
0.740483
0.740105
0.74042
0.742525
0.745875
0.749157
0.752623
0.757869
0.76701
0.780854
0.794518
0.798373
0.777524
0.746141
0.772773
0.8477
0.882023
0.776247
0.797521
0.81543
0.784981
0.762295
0.74991
0.744255
0.741957
0.74085
0.740731
0.741773
0.744241
0.747422
0.750325
0.754175
0.76111
0.772888
0.787694
0.797722
0.797696
0.77259
0.749029
0.770263
0.845557
0.882077
0.765856
0.794022
0.802146
0.768355
0.753976
0.747301
0.744001
0.742117
0.741471
0.741582
0.742973
0.745613
0.748295
0.751153
0.756076
0.765352
0.779334
0.793403
0.799997
0.79567
0.76805
0.745937
0.761148
0.844391
0.882095
0.747486
0.785762
0.787707
0.759473
0.751391
0.746974
0.74411
0.742583
0.74224
0.742379
0.743958
0.746395
0.748709
0.75199
0.758655
0.770509
0.785508
0.797215
0.800631
0.792504
0.763836
0.749029
0.748847
0.844611
0.881765
0.746249
0.775721
0.776022
0.755989
0.751133
0.747005
0.744387
0.743191
0.74291
0.742941
0.744645
0.746768
0.748999
0.752945
0.761344
0.775017
0.789685
0.798689
0.80061
0.790138
0.761653
0.745884
0.749029
0.84649
0.879696
0.747486
0.767002
0.768333
0.754753
0.751043
0.74709
0.744794
0.743766
0.743392
0.743334
0.745031
0.746985
0.749268
0.753585
0.762143
0.775583
0.78982
0.798527
0.800478
0.790224
0.761846
0.749029
0.748239
0.850977
0.877195
0.746127
0.76068
0.764204
0.754704
0.750929
0.747273
0.745285
0.744305
0.743791
0.743652
0.745238
0.747144
0.749439
0.75351
0.761703
0.77482
0.789097
0.797933
0.800168
0.791143
0.763022
0.745914
0.749029
0.857588
0.874945
0.747486
0.75631
0.763602
0.754787
0.75086
0.747576
0.745832
0.744837
0.744193
0.743961
0.745341
0.747279
0.749446
0.753235
0.760537
0.772696
0.787026
0.796746
0.799546
0.792953
0.765538
0.749029
0.747921
0.865091
0.873009
0.746462
0.752874
0.763892
0.755027
0.750899
0.747951
0.746428
0.745371
0.74466
0.744311
0.745393
0.747413
0.749422
0.752815
0.758821
0.769284
0.783509
0.794807
0.798437
0.794545
0.769023
0.746098
0.749029
0.872519
0.871079
0.747486
0.750375
0.764674
0.755394
0.751011
0.74829
0.746985
0.745933
0.745178
0.744707
0.745475
0.747396
0.74934
0.752227
0.757216
0.765361
0.77894
0.791923
0.796743
0.794843
0.772698
0.749029
0.747746
0.879344
0.869295
0.746836
0.749614
0.766092
0.755962
0.751155
0.748743
0.747366
0.746476
0.745583
0.745096
0.745537
0.747435
0.749211
0.751573
0.755714
0.762315
0.774126
0.78817
0.794435
0.794378
0.775846
0.746327
0.749029
0.885104
0.868263
0.747486
0.749787
0.768085
0.756973
0.751314
0.74929
0.747906
0.74695
0.745981
0.745561
0.745689
0.747597
0.749079
0.751024
0.754133
0.76035
0.770352
0.784092
0.791525
0.79284
0.777483
0.749029
0.747822
0.889579
0.867841
0.747173
0.750393
0.770464
0.757989
0.751743
0.74963
0.748649
0.747551
0.746542
0.746173
0.746154
0.747574
0.748949
0.750445
0.753176
0.758784
0.768569
0.780384
0.788176
0.790451
0.777643
0.746532
0.749029
0.892696
0.867719
0.747486
0.751526
0.772601
0.758054
0.752535
0.750155
0.748728
0.74799
0.747165
0.746807
0.746693
0.747454
0.748683
0.749732
0.752511
0.758435
0.767481
0.777716
0.78481
0.787916
0.777438
0.749029
0.747952
0.894933
0.868052
0.747369
0.75335
0.772856
0.758264
0.753236
0.750775
0.748883
0.747886
0.747396
0.747063
0.74669
0.74746
0.748288
0.749426
0.751921
0.758356
0.766649
0.776071
0.782229
0.785581
0.776701
0.746739
0.749029
0.896768
0.869502
0.747486
0.755589
0.772831
0.75842
0.753921
0.751216
0.749095
0.747937
0.74749
0.747151
0.74682
0.747506
0.748076
0.749113
0.752042
0.758171
0.766635
0.774927
0.781308
0.783529
0.775324
0.749029
0.748105
0.898458
0.872419
0.747451
0.757104
0.772566
0.758222
0.754911
0.75187
0.749301
0.748131
0.747706
0.747328
0.746956
0.747421
0.747834
0.748758
0.752118
0.758399
0.766522
0.774108
0.781384
0.781849
0.773507
0.746971
0.749029
0.899999
0.876408
0.747486
0.757326
0.771404
0.75835
0.75602
0.752581
0.749562
0.748202
0.747748
0.747283
0.74695
0.74731
0.747503
0.748827
0.752217
0.758896
0.766344
0.773569
0.781486
0.780759
0.771501
0.749029
0.748254
0.901397
0.880253
0.747473
0.757215
0.769195
0.75848
0.756537
0.752755
0.749676
0.748368
0.747758
0.747238
0.746964
0.747202
0.747453
0.748835
0.752743
0.759408
0.766564
0.773284
0.781575
0.780235
0.7696
0.747241
0.749029
0.902656
0.883052
0.747486
0.7566
0.766673
0.758305
0.75677
0.752717
0.750012
0.748702
0.747926
0.747351
0.747012
0.746953
0.747381
0.748887
0.753459
0.760397
0.766891
0.773352
0.781573
0.779922
0.768058
0.749029
0.748409
0.903833
0.885588
0.747469
0.755226
0.764215
0.758399
0.756659
0.752661
0.750443
0.748956
0.748121
0.747438
0.746808
0.746854
0.747271
0.749272
0.754157
0.761458
0.767192
0.773656
0.781505
0.779567
0.766946
0.747538
0.749029
0.904983
0.886527
0.747486
0.753126
0.762201
0.758392
0.756199
0.752422
0.750405
0.74935
0.748325
0.747505
0.746654
0.746736
0.74735
0.74988
0.755193
0.761625
0.767682
0.774295
0.78135
0.779021
0.766229
0.749029
0.748564
0.906196
0.886332
0.747702
0.750858
0.761041
0.758057
0.755749
0.752079
0.750452
0.749526
0.748635
0.747648
0.746613
0.746607
0.747508
0.750545
0.756208
0.761898
0.768287
0.77537
0.781095
0.778189
0.76576
0.74785
0.749029
0.907511
0.885499
0.748716
0.749447
0.759997
0.757714
0.755405
0.752044
0.750459
0.749384
0.74863
0.747603
0.746428
0.746625
0.747725
0.751378
0.756816
0.762271
0.769002
0.776811
0.780673
0.777039
0.765441
0.749029
0.748702
0.908939
0.883309
0.751062
0.749441
0.758172
0.75724
0.755268
0.752035
0.750354
0.749428
0.748527
0.747451
0.746207
0.746554
0.748126
0.752262
0.75759
0.76267
0.769842
0.77814
0.780028
0.775698
0.765279
0.74817
0.749029
0.910441
0.879883
0.755135
0.74985
0.754437
0.756284
0.755471
0.752174
0.750391
0.749319
0.748426
0.74719
0.745944
0.746386
0.748564
0.752951
0.758408
0.763386
0.770581
0.778647
0.779263
0.774648
0.765356
0.749029
0.748817
0.912022
0.875681
0.760532
0.750916
0.749999
0.755077
0.755427
0.752657
0.750594
0.748957
0.748158
0.74653
0.745444
0.746526
0.748792
0.753193
0.758389
0.764119
0.770923
0.778614
0.778621
0.774551
0.765749
0.748512
0.749029
0.913762
0.870604
0.766353
0.752583
0.749906
0.75308
0.754958
0.75308
0.750793
0.748981
0.74772
0.745536
0.745368
0.746413
0.748757
0.753105
0.758263
0.764133
0.770817
0.778323
0.778033
0.774603
0.766618
0.749029
0.748902
0.915267
0.864297
0.772121
0.754605
0.749999
0.750105
0.753793
0.752797
0.75067
0.748804
0.747088
0.745368
0.745385
0.74593
0.748239
0.752406
0.757593
0.763554
0.770077
0.777112
0.77689
0.774389
0.767626
0.748854
0.749029
0.915219
0.857848
0.7772
0.75603
0.749962
0.749999
0.752212
0.752046
0.750456
0.748256
0.746116
0.745385
0.745372
0.745408
0.747162
0.75087
0.755928
0.762097
0.768696
0.774994
0.775199
0.773787
0.768632
0.749029
0.749002
0.914303
0.858879
0.782596
0.757466
0.750458
0.750385
0.752589
0.752677
0.751354
0.749169
0.746962
0.746252
0.746248
0.746414
0.748046
0.751559
0.75643
0.762962
0.770359
0.775914
0.776179
0.7752
0.772205
0.752839
0.752289
0.912752
0.865634
0.790679
0.76366
0.756308
0.755717
0.757696
0.758335
0.757579
0.755792
0.753654
0.752933
0.753053
0.753582
0.755119
0.758302
0.762875
0.769982
0.778916
0.781885
0.781885
0.781886
0.781885
0.768342
0.765965
0.912552
0.860919
0.788169
0.771265
0.763913
0.761225
0.762629
0.763965
0.763965
0.762957
0.76117
0.760149
0.760068
0.7605
0.761647
0.764008
0.767542
0.771899
0.77847
0.781885
0.781886
0.781885
0.781886
0.781205
0.774
0.897762
0.728593
0.694991
0.688669
0.676363
0.671314
0.673081
0.675897
0.677181
0.676832
0.675264
0.673691
0.672602
0.671574
0.670564
0.669874
0.669626
0.669274
0.669616
0.671677
0.670661
0.666439
0.664729
0.665833
0.65883
0.709387
0.215613
0.266547
0.280355
0.276673
0.277201
0.281886
0.287393
0.29165
0.294074
0.294688
0.293772
0.291592
0.288047
0.283005
0.276508
0.268774
0.25988
0.24987
0.241587
0.233775
0.225193
0.21904
0.217883
0.209602
0.165222
0.0103661
0.0193411
0.0252457
0.0268786
0.0278473
0.0288398
0.0298095
0.0306441
0.0312543
0.0315839
0.0315512
0.0311908
0.0304648
0.0293935
0.0280135
0.0263977
0.0246343
0.0227918
0.0211373
0.0197772
0.0186545
0.0178221
0.0170703
0.0133108
0.00655345
2.68112e-05
0.000171452
0.000533054
0.000692501
0.000706588
0.000706663
0.000710756
0.000720758
0.000733808
0.000743658
0.000744518
0.000736755
0.000718337
0.000690408
0.000654618
0.00061333
0.000569811
0.000527086
0.000488234
0.000459508
0.00044487
0.000439707
0.000376806
0.000138465
2.58277e-05
1.74438e-08
1.75752e-07
2.55175e-06
4.06753e-06
3.45288e-06
2.97193e-06
2.78392e-06
2.85813e-06
3.15798e-06
3.50942e-06
3.69156e-06
3.69218e-06
3.58153e-06
3.37617e-06
3.13461e-06
2.92489e-06
2.78165e-06
2.74225e-06
2.75413e-06
2.79057e-06
2.90284e-06
3.18602e-06
2.5411e-06
2.27945e-07
2.26427e-08
2.60586e-10
5.48986e-10
3.12551e-09
3.06656e-09
6.32702e-10
4.085e-11
7.14263e-11
3.78836e-10
2.01085e-09
4.83577e-09
6.73671e-09
7.1015e-09
6.64018e-09
5.47755e-09
3.95461e-09
2.6931e-09
2.09081e-09
2.30848e-09
3.03933e-09
4.16749e-09
5.22061e-09
6.7022e-09
6.70029e-09
8.53467e-10
2.00546e-10
2.58763e-10
2.15994e-12
9.88321e-13
2.04503e-13
2.61346e-13
3.04534e-13
7.15428e-13
1.45084e-12
1.9742e-12
4.7945e-12
1.05856e-11
1.13406e-11
7.63334e-12
3.56548e-12
1.26599e-12
6.21614e-13
1.16174e-12
1.4454e-12
7.96696e-13
2.02793e-12
4.67115e-12
9.24305e-12
1.13544e-11
9.23639e-12
1.99419e-10
2.62411e-10
1.97276e-12
6.01408e-13
5.21805e-15
9.99201e-16
4.21885e-15
3.95239e-14
4.10894e-13
1.86406e-12
4.52915e-12
8.194e-12
7.66176e-12
4.61897e-12
1.9148e-12
6.31162e-13
1.80855e-13
3.51941e-14
3.66374e-15
7.66054e-15
4.20664e-13
2.41696e-12
6.07658e-12
8.86347e-12
9.21996e-12
1.85972e-10
)
;

boundaryField
{
    inlet
    {
        type            calculated;
        value           uniform 0.5;
    }
    outlet
    {
        type            calculated;
        value           nonuniform List<scalar> 
25
(
2.62411e-10
1.97276e-12
6.01408e-13
0
0
0
0
0
1.86406e-12
4.52915e-12
8.194e-12
7.66176e-12
4.61897e-12
1.9148e-12
6.31162e-13
0
0
0
0
0
2.41696e-12
6.07658e-12
8.86347e-12
9.21996e-12
1.85972e-10
)
;
    }
    walls
    {
        type            calculated;
        value           nonuniform List<scalar> 
150
(
0.696476
0.752115
0.82431
0.905079
0.952407
0.964413
0.964413
0.964413
0.954986
0.926202
0.890573
0.868608
0.859779
0.856057
0.856129
0.856931
0.859144
0.858244
0.853305
0.844239
0.832556
0.81948
0.807172
0.787111
0.745214
0.74478
0.744784
0.744787
0.744792
0.753523
0.778157
0.814828
0.851467
0.87475
0.882007
0.882023
0.882077
0.882095
0.881765
0.879696
0.877195
0.874945
0.873009
0.871079
0.869295
0.868263
0.867841
0.867719
0.868052
0.869502
0.872419
0.876408
0.880253
0.883052
0.885588
0.886527
0.886332
0.885499
0.883309
0.879883
0.875681
0.870604
0.864297
0.857848
0.858879
0.865634
0.860919
0.728593
0.215613
0.0103661
2.68112e-05
1.74438e-08
2.60586e-10
2.58763e-10
2.62411e-10
0.705873
0.805701
0.809883
0.809883
0.809883
0.808435
0.803122
0.794863
0.783326
0.770567
0.763171
0.76018
0.748921
0.720427
0.720427
0.730493
0.784807
0.856653
0.898463
0.90676
0.90676
0.900259
0.888557
0.880104
0.875225
0.871702
0.868713
0.865832
0.863379
0.86269
0.862014
0.859492
0.855212
0.850869
0.8477
0.845557
0.844391
0.844611
0.84649
0.850977
0.857588
0.865091
0.872519
0.879344
0.885104
0.889579
0.892696
0.894933
0.896768
0.898458
0.899999
0.901397
0.902656
0.903833
0.904983
0.906196
0.907511
0.908939
0.910441
0.912022
0.913762
0.915267
0.915219
0.914303
0.912752
0.912552
0.897762
0.709387
0.165222
0.00655345
2.58277e-05
2.26427e-08
2.00546e-10
1.99419e-10
1.85972e-10
)
;
    }
    defaultFaces
    {
        type            empty;
    }
}


// ************************************************************************* //
