/*--------------------------------*- C++ -*----------------------------------*\
| =========                 |                                                 |
| \\      /  F ield         | OpenFOAM: The Open Source CFD Toolbox           |
|  \\    /   O peration     | Version:  2.3.0                                 |
|   \\  /    A nd           | Web:      www.OpenFOAM.org                      |
|    \\/     M anipulation  |                                                 |
\*---------------------------------------------------------------------------*/
FoamFile
{
    version     2.0;
    format      ascii;
    class       volScalarField;
    location    "63";
    object      nut.air;
}
// * * * * * * * * * * * * * * * * * * * * * * * * * * * * * * * * * * * * * //

dimensions      [0 2 -1 0 0 0 0];

internalField   nonuniform List<scalar> 
1875
(
2.09115e-05
2.20879e-05
2.40243e-05
2.57955e-05
2.73895e-05
2.87716e-05
2.995e-05
3.09675e-05
3.18503e-05
3.26289e-05
3.33231e-05
3.39261e-05
3.44304e-05
3.48454e-05
3.50205e-05
3.50598e-05
3.48364e-05
3.4147e-05
3.30666e-05
3.15991e-05
2.97704e-05
2.7578e-05
2.49536e-05
2.17658e-05
1.80407e-05
2.17419e-05
2.53645e-05
2.83513e-05
3.04494e-05
3.191e-05
3.29016e-05
3.35643e-05
3.39881e-05
3.42268e-05
3.43904e-05
3.456e-05
3.46727e-05
3.48075e-05
3.49711e-05
3.51271e-05
3.52522e-05
3.5289e-05
3.50197e-05
3.44152e-05
3.32104e-05
3.14485e-05
2.90631e-05
2.5902e-05
2.17426e-05
1.70032e-05
2.81323e-05
3.24205e-05
3.54988e-05
3.73732e-05
3.84004e-05
3.88394e-05
3.89013e-05
3.87104e-05
3.83694e-05
3.79845e-05
3.75791e-05
3.71557e-05
3.67759e-05
3.64736e-05
3.6205e-05
3.59456e-05
3.56327e-05
3.52088e-05
3.46102e-05
3.35245e-05
3.19187e-05
2.98444e-05
2.71664e-05
2.40667e-05
2.12527e-05
3.66833e-05
4.07327e-05
4.25816e-05
4.31925e-05
4.31191e-05
4.26627e-05
4.20428e-05
4.13161e-05
4.05813e-05
3.98713e-05
3.91701e-05
3.84931e-05
3.78716e-05
3.73129e-05
3.68056e-05
3.63208e-05
3.57853e-05
3.51541e-05
3.43746e-05
3.32518e-05
3.17483e-05
2.98382e-05
2.75941e-05
2.51348e-05
2.28059e-05
6.19703e-05
4.93275e-05
4.72301e-05
4.64888e-05
4.54563e-05
4.42993e-05
4.31373e-05
4.20359e-05
4.10331e-05
4.01273e-05
3.9296e-05
3.85386e-05
3.78365e-05
3.71716e-05
3.65477e-05
3.59283e-05
3.52506e-05
3.45351e-05
3.36503e-05
3.25371e-05
3.1174e-05
2.94965e-05
2.75566e-05
2.5531e-05
2.35872e-05
7.27638e-05
5.42406e-05
5.01885e-05
4.82485e-05
4.62767e-05
4.44266e-05
4.2793e-05
4.13761e-05
4.01816e-05
3.92017e-05
3.8376e-05
3.76234e-05
3.69395e-05
3.62923e-05
3.56259e-05
3.49076e-05
3.42407e-05
3.35482e-05
3.26467e-05
3.15839e-05
3.03391e-05
2.88717e-05
2.72893e-05
2.56626e-05
2.41045e-05
7.77453e-05
5.4188e-05
5.13105e-05
4.85372e-05
4.59376e-05
4.3582e-05
4.1544e-05
3.99091e-05
3.86212e-05
3.76052e-05
3.68192e-05
3.61415e-05
3.54912e-05
3.4885e-05
3.42989e-05
3.37133e-05
3.31164e-05
3.24222e-05
3.15655e-05
3.05964e-05
2.95016e-05
2.82503e-05
2.69416e-05
2.56431e-05
2.44116e-05
8.26434e-05
5.57253e-05
5.17196e-05
4.81341e-05
4.4949e-05
4.22017e-05
3.99495e-05
3.81334e-05
3.67108e-05
3.5758e-05
3.50345e-05
3.43917e-05
3.38538e-05
3.339e-05
3.29024e-05
3.24685e-05
3.19514e-05
3.12668e-05
3.04794e-05
2.95899e-05
2.85974e-05
2.74837e-05
2.63331e-05
2.51531e-05
2.39201e-05
8.11087e-05
5.53834e-05
5.09048e-05
4.71091e-05
4.36296e-05
4.06059e-05
3.81403e-05
3.61997e-05
3.48535e-05
3.40305e-05
3.33691e-05
3.28522e-05
3.24622e-05
3.20782e-05
3.17266e-05
3.12991e-05
3.07451e-05
3.01205e-05
2.94169e-05
2.86062e-05
2.76816e-05
2.66452e-05
2.55265e-05
2.42966e-05
2.29297e-05
6.0022e-05
5.38954e-05
4.96558e-05
4.57627e-05
4.21374e-05
3.90169e-05
3.64846e-05
3.45747e-05
3.34026e-05
3.26541e-05
3.21875e-05
3.18209e-05
3.15006e-05
3.11835e-05
3.08434e-05
3.04506e-05
2.99847e-05
2.94235e-05
2.87522e-05
2.79709e-05
2.70604e-05
2.60411e-05
2.48802e-05
2.35227e-05
2.19348e-05
5.6263e-05
5.21314e-05
4.81146e-05
4.44019e-05
4.09368e-05
3.79439e-05
3.55834e-05
3.38687e-05
3.27438e-05
3.21093e-05
3.17012e-05
3.14367e-05
3.12421e-05
3.10269e-05
3.07573e-05
3.03993e-05
2.99416e-05
2.93739e-05
2.86905e-05
2.7881e-05
2.69379e-05
2.58657e-05
2.46256e-05
2.31642e-05
2.14516e-05
5.3519e-05
4.9936e-05
4.64638e-05
4.32102e-05
4.01364e-05
3.74801e-05
3.54043e-05
3.39318e-05
3.30183e-05
3.25253e-05
3.22583e-05
3.21058e-05
3.19811e-05
3.18166e-05
3.1571e-05
3.1217e-05
3.07359e-05
3.01133e-05
2.93559e-05
2.84537e-05
2.74072e-05
2.62023e-05
2.48186e-05
2.32168e-05
2.13743e-05
4.82785e-05
4.6777e-05
4.45633e-05
4.2083e-05
3.95999e-05
3.73991e-05
3.56483e-05
3.44722e-05
3.38223e-05
3.35427e-05
3.34738e-05
3.34781e-05
3.34612e-05
3.33559e-05
3.31287e-05
3.2774e-05
3.22602e-05
3.15791e-05
3.07257e-05
2.96946e-05
2.84781e-05
2.70807e-05
2.54785e-05
2.36132e-05
2.14635e-05
4.39545e-05
4.37678e-05
4.26682e-05
4.10481e-05
3.92433e-05
3.75796e-05
3.63094e-05
3.55178e-05
3.516e-05
3.50959e-05
3.51797e-05
3.52965e-05
3.53645e-05
3.53137e-05
3.5133e-05
3.48006e-05
3.42872e-05
3.35805e-05
3.26685e-05
3.15416e-05
3.01893e-05
2.85946e-05
2.67942e-05
2.4711e-05
2.24829e-05
4.10239e-05
4.14913e-05
4.11517e-05
4.02449e-05
3.90766e-05
3.79664e-05
3.71367e-05
3.66939e-05
3.6588e-05
3.67081e-05
3.69289e-05
3.71526e-05
3.7315e-05
3.73641e-05
3.72684e-05
3.70241e-05
3.6589e-05
3.5941e-05
3.50575e-05
3.39168e-05
3.2505e-05
3.0817e-05
2.88322e-05
2.64705e-05
2.40058e-05
3.96086e-05
4.01507e-05
4.01333e-05
3.96813e-05
3.90141e-05
3.83633e-05
3.7918e-05
3.77666e-05
3.78688e-05
3.81279e-05
3.84559e-05
3.87848e-05
3.90612e-05
3.92468e-05
3.92985e-05
3.92081e-05
3.8935e-05
3.8446e-05
3.77056e-05
3.66778e-05
3.53192e-05
3.35838e-05
3.14126e-05
2.87198e-05
2.57218e-05
3.85471e-05
3.91824e-05
3.94074e-05
3.92944e-05
3.90007e-05
3.86854e-05
3.85217e-05
3.85832e-05
3.88328e-05
3.92032e-05
3.963e-05
4.0061e-05
4.04567e-05
4.07858e-05
4.10183e-05
4.1126e-05
4.10907e-05
4.08549e-05
4.03834e-05
3.96404e-05
3.85691e-05
3.70928e-05
3.50916e-05
3.24106e-05
2.89189e-05
3.7996e-05
3.86439e-05
3.89955e-05
3.9091e-05
3.90101e-05
3.89091e-05
3.89245e-05
3.91201e-05
3.94704e-05
3.99234e-05
4.04309e-05
4.0952e-05
4.14547e-05
4.19147e-05
4.23088e-05
4.26067e-05
4.27853e-05
4.28231e-05
4.26802e-05
4.23144e-05
4.17007e-05
4.0774e-05
3.94336e-05
3.75215e-05
3.45737e-05
3.82788e-05
3.86431e-05
3.8957e-05
3.90986e-05
3.91242e-05
3.91328e-05
3.92223e-05
3.94637e-05
3.98507e-05
4.03446e-05
4.09028e-05
4.14896e-05
4.20756e-05
4.26389e-05
4.31599e-05
4.3612e-05
4.39657e-05
4.41887e-05
4.42571e-05
4.41849e-05
4.39391e-05
4.34709e-05
4.27273e-05
4.17155e-05
4.02694e-05
3.87286e-05
3.90019e-05
3.9191e-05
3.9306e-05
3.93934e-05
3.94559e-05
3.95448e-05
3.97413e-05
4.00825e-05
4.05567e-05
4.11277e-05
4.17506e-05
4.23929e-05
4.30377e-05
4.36575e-05
4.42278e-05
4.472e-05
4.51023e-05
4.53435e-05
4.54312e-05
4.53519e-05
4.50856e-05
4.45862e-05
4.38637e-05
4.2827e-05
3.8609e-05
3.90185e-05
3.92989e-05
3.94876e-05
3.95966e-05
3.96912e-05
3.97862e-05
3.99398e-05
4.02173e-05
4.06349e-05
4.11626e-05
4.17861e-05
4.24747e-05
4.31864e-05
4.38926e-05
4.45663e-05
4.51784e-05
4.5697e-05
4.60878e-05
4.63241e-05
4.6383e-05
4.62151e-05
4.57597e-05
4.50595e-05
4.41158e-05
3.792e-05
3.8487e-05
3.89278e-05
3.92155e-05
3.9419e-05
3.9559e-05
3.97256e-05
3.99024e-05
4.0141e-05
4.05194e-05
4.10536e-05
4.16246e-05
4.23394e-05
4.31162e-05
4.39143e-05
4.46973e-05
4.54312e-05
4.60812e-05
4.66092e-05
4.69756e-05
4.71316e-05
4.70426e-05
4.66211e-05
4.58653e-05
4.48935e-05
3.5657e-05
3.65719e-05
3.73725e-05
3.80461e-05
3.85631e-05
3.89457e-05
3.91809e-05
3.94303e-05
3.97225e-05
4.00806e-05
4.0568e-05
4.11977e-05
4.19208e-05
4.27879e-05
4.37108e-05
4.46347e-05
4.55151e-05
4.63118e-05
4.69866e-05
4.7497e-05
4.77811e-05
4.77824e-05
4.74407e-05
4.66875e-05
4.56055e-05
3.09573e-05
3.29392e-05
3.44732e-05
3.57005e-05
3.66997e-05
3.74882e-05
3.81324e-05
3.86113e-05
3.90159e-05
3.94273e-05
3.98997e-05
4.05162e-05
4.13353e-05
4.22849e-05
4.33454e-05
4.44306e-05
4.54663e-05
4.64176e-05
4.72571e-05
4.79337e-05
4.83765e-05
4.85373e-05
4.83604e-05
4.77994e-05
4.69319e-05
2.70719e-05
2.96446e-05
3.17071e-05
3.33546e-05
3.4721e-05
3.5789e-05
3.66525e-05
3.7386e-05
3.80408e-05
3.86521e-05
3.92962e-05
3.9995e-05
4.08143e-05
4.18165e-05
4.29716e-05
4.41725e-05
4.53748e-05
4.64789e-05
4.74636e-05
4.83041e-05
4.89296e-05
4.92763e-05
4.93076e-05
4.90296e-05
4.85089e-05
2.533e-05
2.80142e-05
3.03222e-05
3.21938e-05
3.37061e-05
3.49465e-05
3.59026e-05
3.66849e-05
3.73687e-05
3.80421e-05
3.87473e-05
3.95695e-05
4.05034e-05
4.15881e-05
4.27725e-05
4.40446e-05
4.53404e-05
4.65794e-05
4.76818e-05
4.86649e-05
4.94612e-05
4.99821e-05
5.02144e-05
5.02119e-05
5.00448e-05
2.48318e-05
2.77118e-05
3.02844e-05
3.2389e-05
3.40638e-05
3.53455e-05
3.62724e-05
3.69856e-05
3.75954e-05
3.81943e-05
3.88588e-05
3.96412e-05
4.0564e-05
4.16364e-05
4.28648e-05
4.41792e-05
4.5518e-05
4.68199e-05
4.80045e-05
4.90877e-05
5.00088e-05
5.06697e-05
5.10642e-05
5.13027e-05
5.14543e-05
2.5693e-05
2.87571e-05
3.15229e-05
3.37541e-05
3.54916e-05
3.67497e-05
3.76136e-05
3.81736e-05
3.85944e-05
3.8998e-05
3.94962e-05
4.01828e-05
4.10758e-05
4.21454e-05
4.33522e-05
4.4654e-05
4.59899e-05
4.72907e-05
4.85005e-05
4.96147e-05
5.05844e-05
5.13223e-05
5.18231e-05
5.22796e-05
5.26952e-05
2.75233e-05
3.07974e-05
3.37314e-05
3.6027e-05
3.7736e-05
3.8896e-05
3.96077e-05
3.99703e-05
4.01632e-05
4.03599e-05
4.07001e-05
4.1273e-05
4.20734e-05
4.30671e-05
4.42135e-05
4.54542e-05
4.67223e-05
4.79606e-05
4.91346e-05
5.02251e-05
5.11935e-05
5.19606e-05
5.25141e-05
5.30953e-05
5.36708e-05
3.01688e-05
3.36369e-05
3.66408e-05
3.89199e-05
4.05042e-05
4.14821e-05
4.1977e-05
4.2138e-05
4.21396e-05
4.21486e-05
4.23169e-05
4.27405e-05
4.34125e-05
4.42975e-05
4.53394e-05
4.64784e-05
4.76588e-05
4.88224e-05
4.99293e-05
5.09488e-05
5.18521e-05
5.25777e-05
5.31186e-05
5.3715e-05
5.43279e-05
3.41684e-05
3.74491e-05
4.01883e-05
4.2232e-05
4.35268e-05
4.42095e-05
4.44339e-05
4.43656e-05
4.41769e-05
4.40374e-05
4.4084e-05
4.43871e-05
4.4942e-05
4.57123e-05
4.66453e-05
4.76807e-05
4.87481e-05
4.97973e-05
5.07887e-05
5.16944e-05
5.24804e-05
5.30975e-05
5.35598e-05
5.411e-05
5.47372e-05
3.92252e-05
4.20272e-05
4.42343e-05
4.57861e-05
4.6631e-05
4.69283e-05
4.6841e-05
4.65328e-05
4.61705e-05
4.5917e-05
4.58721e-05
4.60824e-05
4.65374e-05
4.72051e-05
4.80337e-05
4.89492e-05
4.98893e-05
5.07996e-05
5.16479e-05
5.23967e-05
5.30036e-05
5.3414e-05
5.36446e-05
5.38766e-05
5.40985e-05
4.55017e-05
4.72905e-05
4.85839e-05
4.93891e-05
4.96658e-05
4.95264e-05
4.91149e-05
4.85781e-05
4.80932e-05
4.77552e-05
4.76431e-05
4.77671e-05
4.81404e-05
4.87179e-05
4.94406e-05
5.02331e-05
5.10413e-05
5.18077e-05
5.25049e-05
5.30803e-05
5.34776e-05
5.36512e-05
5.36141e-05
5.34894e-05
5.32339e-05
5.19317e-05
5.23389e-05
5.26159e-05
5.27001e-05
5.24385e-05
5.19038e-05
5.12087e-05
5.05196e-05
4.99327e-05
4.95324e-05
4.93584e-05
4.94289e-05
4.97354e-05
5.0228e-05
5.08468e-05
5.1528e-05
5.22103e-05
5.28528e-05
5.34091e-05
5.38244e-05
5.40387e-05
5.40245e-05
5.38145e-05
5.3523e-05
5.31025e-05
5.62155e-05
5.61118e-05
5.5892e-05
5.55121e-05
5.48709e-05
5.40436e-05
5.31731e-05
5.23706e-05
5.17107e-05
5.1253e-05
5.10496e-05
5.10862e-05
5.13286e-05
5.17453e-05
5.22754e-05
5.28619e-05
5.3443e-05
5.39819e-05
5.44172e-05
5.46865e-05
5.47415e-05
5.45554e-05
5.41753e-05
5.36953e-05
5.30492e-05
5.96343e-05
5.92607e-05
5.87207e-05
5.80166e-05
5.70885e-05
5.60685e-05
5.50712e-05
5.41842e-05
5.34701e-05
5.29725e-05
5.27428e-05
5.27421e-05
5.29434e-05
5.33022e-05
5.3767e-05
5.42788e-05
5.47914e-05
5.5248e-05
5.55838e-05
5.57301e-05
5.56455e-05
5.53058e-05
5.47662e-05
5.40929e-05
5.32245e-05
6.32051e-05
6.23713e-05
6.1447e-05
6.04306e-05
5.92706e-05
5.80924e-05
5.69975e-05
5.60617e-05
5.53181e-05
5.48066e-05
5.45408e-05
5.44906e-05
5.46434e-05
5.49538e-05
5.53704e-05
5.58355e-05
5.63019e-05
5.67007e-05
5.69581e-05
5.70104e-05
5.6815e-05
5.6358e-05
5.56982e-05
5.48826e-05
5.38833e-05
6.67489e-05
6.54297e-05
6.41235e-05
6.28287e-05
6.14813e-05
6.01903e-05
5.90328e-05
5.80527e-05
5.72777e-05
5.67328e-05
5.64271e-05
5.63514e-05
5.64678e-05
5.67431e-05
5.71268e-05
5.75682e-05
5.80068e-05
5.83684e-05
5.85699e-05
5.85541e-05
5.82769e-05
5.77312e-05
5.69773e-05
5.60348e-05
5.49077e-05
7.00135e-05
6.83297e-05
6.67308e-05
6.52324e-05
6.37651e-05
6.24021e-05
6.11919e-05
6.0172e-05
5.93677e-05
5.8794e-05
5.84599e-05
5.83572e-05
5.84475e-05
5.86989e-05
5.90638e-05
5.94937e-05
5.99199e-05
6.02624e-05
6.04346e-05
6.03822e-05
6.00597e-05
5.94621e-05
5.86417e-05
5.7603e-05
5.6354e-05
7.28078e-05
7.09929e-05
6.92536e-05
6.76505e-05
6.6125e-05
6.4726e-05
6.34889e-05
6.24448e-05
6.16193e-05
6.10262e-05
6.06672e-05
6.05368e-05
6.06046e-05
6.08376e-05
6.1191e-05
6.16145e-05
6.20381e-05
6.23795e-05
6.25521e-05
6.25009e-05
6.21796e-05
6.15813e-05
6.07551e-05
5.96933e-05
5.83996e-05
7.55078e-05
7.36124e-05
7.17962e-05
7.0145e-05
6.85995e-05
6.71893e-05
6.59429e-05
6.48884e-05
6.40485e-05
6.34374e-05
6.30582e-05
6.29045e-05
6.29512e-05
6.31666e-05
6.35087e-05
6.3927e-05
6.43537e-05
6.47079e-05
6.49048e-05
6.48863e-05
6.46096e-05
6.40619e-05
6.32896e-05
6.22882e-05
6.10512e-05
7.81684e-05
7.62483e-05
7.44098e-05
7.27534e-05
7.12139e-05
6.98092e-05
6.85661e-05
6.75102e-05
6.66624e-05
6.60366e-05
6.56382e-05
6.54626e-05
6.54874e-05
6.56831e-05
6.60107e-05
6.64211e-05
6.68516e-05
6.72245e-05
6.74583e-05
6.74921e-05
6.7286e-05
6.68262e-05
6.61602e-05
6.52934e-05
6.4228e-05
8.0813e-05
7.89283e-05
7.71186e-05
7.54939e-05
7.39821e-05
7.2597e-05
7.13661e-05
7.03149e-05
6.94631e-05
6.88252e-05
6.84077e-05
6.82084e-05
6.82088e-05
6.83806e-05
6.86879e-05
6.90848e-05
6.95115e-05
6.98992e-05
7.01697e-05
7.02584e-05
7.01284e-05
6.97645e-05
6.92165e-05
6.85168e-05
6.76733e-05
8.34697e-05
8.1687e-05
7.99526e-05
7.8386e-05
7.69164e-05
7.55597e-05
7.4347e-05
7.33016e-05
7.24467e-05
7.17965e-05
7.13589e-05
7.11327e-05
7.11035e-05
7.12459e-05
7.15265e-05
7.19045e-05
7.23181e-05
7.27107e-05
7.30099e-05
7.31485e-05
7.3089e-05
7.28135e-05
7.2366e-05
7.1787e-05
7.10766e-05
8.62592e-05
8.45944e-05
8.29491e-05
8.14498e-05
8.00279e-05
7.86987e-05
7.75059e-05
7.64638e-05
7.56003e-05
7.49348e-05
7.44755e-05
7.42234e-05
7.41693e-05
7.42751e-05
7.45138e-05
7.48463e-05
7.52463e-05
7.56358e-05
7.5955e-05
7.61366e-05
7.6142e-05
7.59524e-05
7.56037e-05
7.51573e-05
7.46243e-05
8.92519e-05
8.76855e-05
8.612e-05
8.46775e-05
8.32941e-05
8.19854e-05
8.07984e-05
7.97761e-05
7.89178e-05
7.82397e-05
7.77537e-05
7.74607e-05
7.73497e-05
7.74097e-05
7.76086e-05
7.79084e-05
7.82699e-05
7.86534e-05
7.89799e-05
7.91902e-05
7.92463e-05
7.91303e-05
7.88752e-05
7.85501e-05
7.81567e-05
9.23706e-05
9.0907e-05
8.94265e-05
8.80447e-05
8.66884e-05
8.5412e-05
8.42314e-05
8.31893e-05
8.23202e-05
8.16217e-05
8.11055e-05
8.0774e-05
8.06161e-05
8.06319e-05
8.07914e-05
8.10672e-05
8.13999e-05
8.17531e-05
8.20653e-05
8.22815e-05
8.23628e-05
8.22881e-05
8.20803e-05
8.18103e-05
8.14817e-05
9.5569e-05
9.42456e-05
9.28626e-05
9.15511e-05
9.02353e-05
8.89642e-05
8.77886e-05
8.67278e-05
8.58166e-05
8.50847e-05
8.45347e-05
8.41686e-05
8.39873e-05
8.3961e-05
8.40703e-05
8.42842e-05
8.45846e-05
8.4899e-05
8.51897e-05
8.53987e-05
8.54872e-05
8.54333e-05
8.52551e-05
8.50262e-05
8.47668e-05
9.90508e-05
9.78174e-05
9.65006e-05
9.52072e-05
9.39034e-05
9.26126e-05
9.1419e-05
9.03571e-05
8.94234e-05
8.86548e-05
8.8067e-05
8.76635e-05
8.74399e-05
8.73661e-05
8.74247e-05
8.75868e-05
8.78225e-05
8.81049e-05
8.83635e-05
8.85509e-05
8.86309e-05
8.8581e-05
8.84124e-05
8.81881e-05
8.79017e-05
0.000102861
0.000101696
0.000100379
9.90582e-05
9.77033e-05
9.63967e-05
9.51673e-05
9.4051e-05
9.30948e-05
9.22937e-05
9.16612e-05
9.11995e-05
9.08983e-05
9.07678e-05
9.07822e-05
9.09187e-05
9.11223e-05
9.1357e-05
9.15757e-05
9.17352e-05
9.17984e-05
9.17443e-05
9.15813e-05
9.13679e-05
9.11041e-05
0.000107161
0.000105883
0.000104453
0.000103036
0.000101607
0.000100226
9.89331e-05
9.7757e-05
9.67302e-05
9.58803e-05
9.52059e-05
9.47075e-05
9.43856e-05
9.42149e-05
9.41799e-05
9.42534e-05
9.44214e-05
9.46126e-05
9.48044e-05
9.49427e-05
9.49905e-05
9.49318e-05
9.4775e-05
9.45748e-05
9.43327e-05
0.000111748
0.000110158
0.000108525
0.00010696
0.000105439
0.000103971
0.00010262
0.00010141
0.000100357
9.94691e-05
9.8759e-05
9.82282e-05
9.78712e-05
9.76634e-05
9.75894e-05
9.76235e-05
9.7736e-05
9.79046e-05
9.80638e-05
9.81784e-05
9.82098e-05
9.81452e-05
9.79947e-05
9.78064e-05
9.75833e-05
0.000115594
0.000114085
0.000112404
0.000110767
0.00010916
0.000107655
0.000106263
0.000105012
0.000103926
0.000103008
0.000102265
0.000101694
0.000101282
0.000101039
0.000100942
0.00010097
0.00010107
0.000101207
0.000101339
0.000101435
0.000101455
0.000101386
0.000101242
0.000101065
0.000100858
0.000120463
0.000118401
0.000116366
0.000114515
0.000112788
0.000111196
0.000109749
0.000108458
0.000107328
0.000106388
0.000105632
0.000105054
0.000104652
0.0001044
0.000104285
0.000104278
0.000104368
0.000104485
0.000104614
0.000104708
0.000104727
0.000104663
0.000104531
0.000104367
0.000104175
0.000124646
0.000122162
0.00011987
0.000117877
0.000116086
0.000114447
0.000112983
0.000111697
0.000110596
0.000109669
0.000108921
0.00010835
0.000107951
0.000107701
0.000107586
0.00010758
0.00010765
0.000107777
0.000107908
0.000108007
0.000108037
0.000107988
0.000107878
0.000107737
0.000107568
0.000126549
0.00012464
0.000122614
0.000120733
0.000118991
0.000117416
0.000115997
0.000114749
0.000113679
0.000112783
0.000112061
0.000111508
0.000111111
0.000110879
0.000110789
0.000110822
0.000110923
0.000111063
0.00011121
0.00011133
0.000111388
0.000111373
0.000111302
0.000111201
0.00011107
0.000129842
0.000127461
0.000125243
0.000123322
0.000121614
0.000120093
0.000118738
0.000117551
0.000116526
0.000115682
0.000115013
0.000114513
0.000114183
0.000113997
0.000113942
0.000113992
0.000114134
0.000114314
0.000114503
0.000114669
0.000114778
0.000114823
0.000114817
0.000114782
0.000114718
0.000131596
0.000129249
0.000127132
0.000125336
0.000123769
0.00012236
0.000121122
0.00012005
0.000119151
0.000118405
0.000117817
0.000117389
0.000117118
0.000116989
0.000116988
0.00011709
0.000117274
0.000117516
0.000117773
0.000118009
0.000118198
0.000118336
0.00011843
0.000118498
0.000118539
0.000131004
0.000129646
0.000128153
0.000126745
0.000125442
0.000124272
0.000123222
0.000122305
0.000121531
0.0001209
0.000120413
0.000120069
0.000119857
0.000119796
0.000119868
0.000120054
0.000120316
0.000120634
0.000120978
0.000121312
0.000121619
0.000121891
0.000122136
0.000122363
0.000122573
0.000132095
0.000130622
0.000129229
0.000127997
0.000126895
0.00012591
0.000125032
0.000124266
0.000123613
0.0001231
0.000122724
0.000122487
0.000122396
0.000122429
0.000122579
0.000122831
0.000123177
0.000123589
0.00012404
0.000124504
0.00012497
0.000125433
0.000125898
0.000126373
0.000126866
0.000132302
0.000131019
0.000129873
0.00012888
0.00012801
0.000127218
0.000126524
0.000125934
0.000125459
0.000125088
0.000124829
0.00012469
0.000124676
0.000124781
0.000125
0.000125322
0.000125741
0.000126248
0.000126821
0.000127441
0.000128108
0.000128823
0.000129596
0.000130436
0.000131387
0.000130854
0.000130601
0.000130073
0.00012945
0.000128831
0.000128265
0.000127759
0.000127331
0.000126996
0.000126748
0.000126592
0.000126533
0.000126569
0.000126724
0.000126995
0.000127377
0.000127856
0.000128435
0.000129111
0.000129888
0.000130781
0.000131805
0.000132977
0.000134302
0.000135867
0.000132017
0.000131445
0.000130758
0.000130094
0.000129509
0.000129027
0.000128638
0.000128334
0.000128107
0.00012797
0.000127916
0.000127943
0.000128053
0.000128239
0.000128507
0.000128866
0.000129321
0.00012989
0.0001306
0.000131482
0.000132587
0.00013396
0.000135652
0.000137665
0.000139954
0.000133981
0.00013249
0.000131183
0.000130204
0.000129529
0.000129102
0.000128856
0.000128737
0.000128705
0.000128738
0.000128815
0.000128925
0.000129061
0.000129218
0.000129402
0.000129625
0.000129916
0.000130314
0.000130876
0.000131685
0.000132859
0.000134538
0.000136896
0.000140069
0.000143863
0.000135146
0.000131929
0.000129751
0.000128512
0.000127947
0.000127824
0.00012796
0.000128232
0.000128559
0.000128881
0.000129167
0.000129395
0.000129553
0.000129639
0.000129655
0.000129613
0.000129543
0.000129495
0.000129551
0.000129841
0.000130566
0.000132027
0.000134671
0.000139081
0.000145362
0.000130836
0.000125685
0.000123606
0.000123268
0.00012382
0.000124769
0.000125845
0.000126896
0.000127839
0.000128626
0.000129236
0.000129652
0.000129866
0.000129868
0.000129655
0.000129227
0.000128593
0.000127779
0.000126836
0.000125869
0.000125081
0.00012483
0.000125745
0.000129002
0.000136071
0.000105217
0.000106898
0.000110382
0.000114178
0.000117729
0.000120847
0.000123485
0.000125662
0.000127413
0.000128769
0.000129759
0.0001304
0.000130693
0.000130637
0.000130219
0.000129412
0.000128182
0.000126489
0.000124283
0.000121514
0.000118164
0.000114279
0.000110059
0.000106086
0.000104078
6.72898e-05
8.46445e-05
9.75756e-05
0.000106855
0.000113697
0.000118864
0.000122833
0.000125905
0.000128273
0.00013006
0.000131346
0.000132176
0.000132578
0.000132536
0.000132035
0.000131028
0.000129442
0.00012717
0.000124067
0.000119914
0.00011438
0.000106979
9.69662e-05
8.31413e-05
6.53088e-05
0.000112635
0.000109914
0.000112137
0.000115887
0.000120073
0.000124047
0.00012752
0.00013042
0.000132764
0.000134594
0.000135953
0.000136872
0.000137381
0.00013745
0.000137072
0.000136203
0.000134773
0.000132684
0.000129839
0.000126163
0.000121664
0.000116624
0.000111889
0.000109024
0.000112037
0.000273455
0.000161984
0.000135578
0.000128088
0.000127638
0.000129609
0.000132184
0.000134671
0.000136863
0.00013865
0.000140024
0.000140991
0.000141616
0.000141819
0.000141638
0.000141064
0.000140027
0.000138431
0.000136178
0.0001333
0.000130294
0.000128947
0.000134034
0.00016118
0.000289374
0.000794498
0.000284988
0.000166197
0.000139681
0.000134503
0.00013528
0.000137007
0.000138859
0.000140505
0.000141906
0.000143228
0.000144301
0.000145125
0.000145647
0.000145798
0.00014558
0.000145027
0.000143986
0.000142112
0.000139186
0.000135504
0.000134603
0.000148288
0.000223794
0.000538544
0.000933025
0.000395294
0.000204056
0.000148748
0.000127956
0.000117343
0.000113447
0.000115589
0.000123806
0.000131877
0.00013514
0.000135959
0.000136384
0.000137098
0.000137403
0.000136986
0.000136647
0.000136972
0.000138443
0.000137901
0.000133784
0.000132348
0.00015813
0.000282952
0.000679451
0.000442192
0.000325331
0.000198963
0.000115284
6.43596e-05
3.60752e-05
2.99518e-05
3.39458e-05
5.25433e-05
8.55603e-05
0.000107776
0.00012209
0.000129318
0.000128608
0.000118149
0.000105644
9.97719e-05
0.000102785
0.000113087
0.000130291
0.000136751
0.000136618
0.000167153
0.00026575
0.000412079
0.000251896
0.000232213
0.000127235
3.44618e-05
3.30736e-06
7.78303e-07
7.32097e-07
4.82643e-06
2.59559e-05
7.80944e-05
0.000105749
0.000118069
0.000115548
8.57812e-05
4.67364e-05
2.47508e-05
1.7759e-05
1.93738e-05
3.22448e-05
6.25656e-05
0.000104412
0.000128843
0.000157756
0.000236209
0.00029427
0.000133412
0.000137254
6.77922e-05
3.76441e-06
2.30875e-08
1.80078e-08
3.42362e-08
6.27538e-06
3.98423e-05
7.49322e-05
9.58567e-05
9.67114e-05
7.2681e-05
4.17059e-05
1.21028e-05
8.35953e-07
1.01655e-07
9.37623e-08
3.37061e-07
7.0923e-06
3.38043e-05
7.93033e-05
0.000128564
0.000174952
0.00016801
)
;

boundaryField
{
    inlet
    {
        type            calculated;
        value           nonuniform List<scalar> 
25
(
2.01949e-08
2.01954e-08
2.01954e-08
2.01951e-08
2.01944e-08
2.01935e-08
2.01924e-08
2.01913e-08
2.01901e-08
2.0189e-08
2.01881e-08
2.01874e-08
2.01868e-08
2.01865e-08
2.01864e-08
2.01865e-08
2.01869e-08
2.01873e-08
2.01879e-08
2.01884e-08
2.0189e-08
2.01895e-08
2.01899e-08
2.01902e-08
2.01911e-08
)
;
    }
    outlet
    {
        type            calculated;
        value           nonuniform List<scalar> 
25
(
0.000133418
0.000137269
6.78092e-05
1.88546e-08
1.88546e-08
1.88546e-08
1.88546e-08
1.88546e-08
3.98245e-05
7.49262e-05
9.58829e-05
9.67762e-05
7.27439e-05
4.1729e-05
1.21029e-05
1.88546e-08
1.88546e-08
1.88546e-08
1.88546e-08
1.88546e-08
3.38159e-05
7.93241e-05
0.000128582
0.000174964
0.000168016
)
;
    }
    walls
    {
        type            nutkWallFunction;
        Cmu             0.09;
        kappa           0.41;
        E               9.8;
        value           uniform 1e-08;
    }
    defaultFaces
    {
        type            empty;
    }
}


// ************************************************************************* //
