/*--------------------------------*- C++ -*----------------------------------*\
| =========                 |                                                 |
| \\      /  F ield         | OpenFOAM: The Open Source CFD Toolbox           |
|  \\    /   O peration     | Version:  2.3.0                                 |
|   \\  /    A nd           | Web:      www.OpenFOAM.org                      |
|    \\/     M anipulation  |                                                 |
\*---------------------------------------------------------------------------*/
FoamFile
{
    version     2.0;
    format      ascii;
    class       surfaceScalarField;
    location    "1.81";
    object      phi.air;
}
// * * * * * * * * * * * * * * * * * * * * * * * * * * * * * * * * * * * * * //

dimensions      [0 3 -1 0 0 0 0];

internalField   nonuniform List<scalar> 
11770
(
1.21364e-05
7.95201e-05
1.50705e-05
8.87863e-05
1.13593e-05
9.98691e-05
7.42637e-06
0.000101531
-3.61581e-06
0.000102566
-1.04282e-05
9.79144e-05
-1.04388e-05
9.4846e-05
-1.38229e-05
9.66236e-05
-1.6715e-05
9.33161e-05
-1.73065e-05
9.19202e-05
-1.81771e-05
9.24829e-05
-3.09894e-05
9.95895e-05
-4.37007e-05
9.56149e-05
-5.22407e-05
9.14526e-05
-5.37009e-05
8.73609e-05
-5.34905e-05
8.61732e-05
-4.6726e-05
8.04107e-05
-1.73549e-05
6.75497e-05
2.90714e-05
6.40643e-05
4.12782e-05
9.01391e-05
-2.22444e-05
0.000142078
-6.918e-05
0.000124752
-4.96014e-05
7.47535e-05
-1.8699e-05
6.63713e-05
-9.61956e-06
8.2709e-05
-8.8352e-06
9.4787e-05
-7.83968e-06
9.60192e-05
-8.94538e-06
9.60437e-05
-6.88412e-06
8.96863e-05
8.15311e-05
1.00455e-05
6.43682e-05
4.4265e-06
8.29369e-05
-1.82458e-06
9.23324e-05
-2.53814e-07
9.01834e-05
1.00818e-08
9.43429e-05
-7.89127e-06
9.50353e-05
-1.12988e-05
8.8516e-05
-9.89074e-06
8.66369e-05
-1.70871e-05
8.90896e-05
-2.71588e-05
8.93556e-05
-3.7762e-05
9.12417e-05
-4.14147e-05
9.5433e-05
-4.85634e-05
9.44772e-05
-5.86156e-05
9.00499e-05
-5.73517e-05
7.44642e-05
-4.76754e-05
6.50933e-05
-3.18247e-05
5.32664e-05
-1.11439e-05
4.16447e-05
1.46827e-05
3.62703e-05
1.37621e-05
7.70979e-05
-7.33047e-06
0.000152366
-4.68243e-05
0.000148603
-6.26104e-05
7.94313e-05
-4.36573e-05
4.56309e-05
-1.80407e-05
5.21625e-05
-6.91573e-06
6.96308e-05
-1.02252e-05
8.36346e-05
-1.6334e-05
8.7909e-05
-1.79019e-05
7.8611e-05
5.50255e-05
-6.04459e-07
6.21623e-05
-2.34223e-06
8.16737e-05
4.22329e-09
8.84417e-05
-2.81698e-06
9.00253e-05
-3.94014e-06
9.52862e-05
-5.24576e-06
9.78916e-05
-1.035e-05
9.28489e-05
-1.5878e-05
9.12955e-05
-1.92769e-05
9.50443e-05
-2.51574e-05
9.825e-05
-3.28469e-05
9.99126e-05
-4.05021e-05
0.000102109
-4.72565e-05
0.000100582
-4.80213e-05
9.053e-05
-3.91937e-05
6.59712e-05
-2.4543e-05
5.1848e-05
-6.58215e-06
3.86433e-05
5.31809e-06
3.27001e-05
1.65265e-05
3.18127e-05
1.88699e-05
7.75939e-05
6.28874e-06
0.000162841
-1.0198e-05
0.000161691
-6.43441e-05
0.000115762
-5.49056e-05
3.54316e-05
-2.33633e-05
3.01538e-05
-5.3221e-07
5.34559e-05
-2.72862e-06
8.69026e-05
-1.12484e-05
9.76343e-05
-1.50908e-05
8.65688e-05
4.90508e-05
-2.87509e-06
6.14524e-05
2.06242e-06
7.55408e-05
1.95191e-06
8.61438e-05
-1.25274e-06
9.13549e-05
-3.11786e-06
9.68404e-05
-4.11724e-06
9.99204e-05
-9.21364e-06
9.77142e-05
-1.49991e-05
9.66966e-05
-1.79443e-05
9.937e-05
-2.16594e-05
0.000103223
-2.62155e-05
0.000104359
-3.14754e-05
0.000105286
-3.70803e-05
0.000103735
-3.01652e-05
8.33306e-05
-1.65941e-05
5.18809e-05
-3.30785e-06
3.82209e-05
6.61588e-06
3.0013e-05
1.05479e-05
2.89121e-05
1.35973e-05
3.01189e-05
2.70086e-05
7.30993e-05
1.52197e-05
0.000173518
7.80736e-06
0.000165273
-3.6983e-05
0.000144601
-4.33463e-05
3.68537e-05
-2.8505e-05
1.89334e-05
-2.09123e-06
3.42757e-05
6.2282e-06
7.82743e-05
1.09025e-06
0.000100868
-8.42815e-06
9.44676e-05
4.42147e-05
1.07343e-06
5.96769e-05
1.01768e-05
6.77679e-05
7.01282e-06
8.66518e-05
2.25963e-06
9.37927e-05
-9.08908e-07
9.86639e-05
-2.78051e-06
0.000101664
-7.27638e-06
0.000101505
-1.2222e-05
0.000100878
-1.50498e-05
0.000102023
-1.68163e-05
0.000104865
-1.91888e-05
0.00010559
-2.13198e-05
0.000105266
-2.41859e-05
0.000104063
-1.39269e-05
7.36539e-05
-1.69951e-07
3.89697e-05
9.22314e-06
3.01429e-05
1.17897e-05
2.76611e-05
1.23722e-05
2.88763e-05
1.25498e-05
3.07133e-05
2.67319e-05
6.92562e-05
1.90833e-05
0.000180635
1.22187e-05
0.000167354
-1.48507e-06
0.000152476
-3.16838e-05
5.82532e-05
-2.65495e-05
1.54029e-05
-1.03018e-05
2.41089e-05
1.27274e-05
6.12009e-05
9.88934e-06
0.000102039
-2.90334e-06
0.000104234
4.44244e-05
2.26186e-06
5.64768e-05
1.54489e-05
5.71964e-05
1.52465e-05
8.59782e-05
7.40901e-06
9.84548e-05
1.47935e-06
0.000102829
-2.53215e-06
0.000104908
-7.02263e-06
0.000105158
-1.18995e-05
0.00010471
-1.52115e-05
0.000104576
-1.56968e-05
0.000104538
-1.46688e-05
0.000103089
-1.1976e-05
0.00010067
-7.56152e-06
9.72177e-05
1.73879e-06
6.34067e-05
1.13429e-05
3.00891e-05
1.58216e-05
2.61076e-05
1.57676e-05
2.85471e-05
1.43692e-05
3.10725e-05
1.3828e-05
3.37186e-05
1.38805e-05
7.88917e-05
1.62076e-05
0.000179432
1.35395e-05
0.0001639
1.31926e-05
0.000146826
-2.16001e-05
8.14112e-05
-2.10054e-05
1.28013e-05
-1.51999e-05
1.9838e-05
7.20065e-06
4.54399e-05
1.10154e-05
9.81617e-05
7.05887e-08
0.000112338
4.73046e-05
1.23346e-06
5.4747e-05
1.24527e-05
4.76714e-05
2.22306e-05
7.7845e-05
1.35564e-05
0.000104377
4.67569e-06
0.000108993
-2.48326e-06
0.000110535
-8.48772e-06
0.000110183
-1.40611e-05
0.000109185
-1.81172e-05
0.000107633
-1.88379e-05
0.000104185
-1.59779e-05
9.88314e-05
-7.5188e-06
9.11159e-05
4.82074e-06
8.34235e-05
1.53254e-05
5.2224e-05
2.05555e-05
2.59334e-05
2.17489e-05
2.5437e-05
2.05698e-05
3.04402e-05
1.85231e-05
3.38673e-05
1.78586e-05
3.59613e-05
-6.12531e-06
0.000103911
4.057e-06
0.000171816
5.93802e-06
0.000154995
9.85479e-06
0.000137263
-9.38495e-06
9.20179e-05
-1.56207e-05
1.6469e-05
-1.33338e-05
1.81118e-05
-3.04399e-06
3.80946e-05
9.1796e-06
8.88214e-05
2.74244e-06
0.000117332
5.27907e-05
1.0109e-06
5.31936e-05
5.5152e-06
4.37745e-05
2.16432e-05
6.50494e-05
1.87772e-05
0.00010581
9.14745e-06
0.000115976
-8.78606e-07
0.000118189
-9.74473e-06
0.000117051
-1.70075e-05
0.000114624
-2.23369e-05
0.00011117
-2.48228e-05
0.000104629
-2.0706e-05
9.31897e-05
-5.45335e-06
7.61955e-05
1.53519e-05
6.38922e-05
2.66179e-05
4.23789e-05
2.79463e-05
2.65252e-05
2.6303e-05
2.78629e-05
2.42598e-05
3.27418e-05
2.08542e-05
3.63887e-05
6.48108e-06
4.99535e-05
-2.61508e-05
0.000131177
-1.32287e-05
0.000157192
-8.08087e-06
0.000143908
-1.43637e-06
0.000127486
-5.71028e-07
8.73915e-05
-7.47346e-06
2.00527e-05
-9.41601e-06
1.86822e-05
-7.70377e-06
3.72007e-05
6.33852e-06
7.82515e-05
4.8838e-06
0.000118996
6.04943e-05
1.44248e-06
5.1223e-05
-4.32584e-07
4.63281e-05
1.06928e-05
5.70336e-05
2.14123e-05
9.6539e-05
1.31306e-05
0.000121639
2.21817e-06
0.000126718
-1.00799e-05
0.000126628
-2.07397e-05
0.000122758
-2.90479e-05
0.000116923
-3.24972e-05
0.000105541
-2.28008e-05
8.31239e-05
-5.99064e-08
5.63351e-05
2.28396e-05
4.48265e-05
3.28686e-05
3.47173e-05
3.09855e-05
3.04924e-05
2.60533e-05
3.295e-05
2.2338e-05
3.52948e-05
1.11926e-05
4.48428e-05
-2.52288e-05
8.482e-05
-3.56684e-05
0.000140087
-2.5942e-05
0.000142348
-1.70308e-05
0.000131854
-1.10479e-05
0.000118713
5.1459e-06
7.13811e-05
1.82911e-06
2.20033e-05
-4.9795e-06
2.40261e-05
-7.16442e-06
3.98675e-05
3.8941e-06
6.98457e-05
7.54123e-06
0.000117525
7.08532e-05
1.22933e-07
5.18489e-05
-6.09352e-06
5.32742e-05
-4.86162e-06
5.90457e-05
1.35008e-05
8.32594e-05
1.60979e-05
0.000118218
4.70965e-06
0.000135001
-1.03744e-05
0.000139076
-2.56954e-05
0.000135397
-3.68697e-05
0.000125068
-3.57713e-05
0.000102565
-1.59619e-05
6.56526e-05
4.29456e-06
3.94589e-05
2.1866e-05
3.03606e-05
3.20032e-05
2.66922e-05
2.54583e-05
3.54333e-05
1.47819e-05
4.05656e-05
2.86709e-06
4.55289e-05
-2.0667e-05
6.60527e-05
-4.57439e-05
0.00010453
-3.44338e-05
0.000127949
-2.62869e-05
0.000131576
-2.09864e-05
0.000124817
-8.70281e-06
0.000105056
1.33882e-05
5.15103e-05
1.03901e-05
2.63296e-05
1.78608e-06
3.27492e-05
-2.69885e-06
4.50676e-05
3.44308e-06
6.65162e-05
9.90087e-06
0.000114622
8.29465e-05
-4.33382e-06
5.69547e-05
-1.27529e-05
6.19198e-05
-1.83879e-05
6.6637e-05
-5.81068e-06
7.8133e-05
1.1502e-05
0.000105654
8.28202e-06
0.000136995
-1.14864e-05
0.000155322
-3.18791e-05
0.000151968
-4.18197e-05
0.000131161
-2.55976e-05
8.76311e-05
-6.21538e-06
4.91318e-05
4.30949e-06
3.00509e-05
1.65804e-05
1.86428e-05
2.46747e-05
1.73373e-05
1.23772e-05
3.77238e-05
-3.51592e-06
4.75335e-05
-2.12064e-05
5.70439e-05
-3.68905e-05
7.69318e-05
-3.51639e-05
0.000101719
-2.64119e-05
0.000118155
-1.9888e-05
0.000124075
-1.50006e-05
0.000118528
5.60444e-06
8.64454e-05
2.09487e-05
4.01202e-05
1.63118e-05
3.21231e-05
9.06046e-06
4.15946e-05
3.26613e-06
5.09999e-05
3.79787e-06
6.74416e-05
1.18208e-05
0.000110752
9.67316e-05
-9.75448e-06
6.98726e-05
-1.96398e-05
7.28568e-05
-2.71103e-05
7.4887e-05
-2.44527e-05
8.07363e-05
-4.85289e-06
9.56223e-05
7.05099e-06
0.000130625
-1.04992e-05
0.000171257
-3.57389e-05
0.000173039
-3.28173e-05
0.000129035
-1.21002e-05
7.26971e-05
-4.54508e-06
4.3668e-05
-1.73072e-06
2.60016e-05
4.36217e-06
1.11168e-05
6.04542e-06
1.23219e-05
3.23712e-07
3.68382e-05
-6.75935e-06
4.94184e-05
-1.51614e-05
6.18399e-05
-1.99026e-05
8.01963e-05
-1.80212e-05
9.98845e-05
-1.39245e-05
0.000113341
-9.47403e-06
0.000118926
1.4589e-06
0.000107444
2.28505e-05
6.82529e-05
2.7597e-05
3.83631e-05
2.18933e-05
3.97506e-05
1.62927e-05
4.88389e-05
1.03271e-05
5.70862e-05
5.62151e-06
7.23954e-05
1.22163e-05
0.000109801
0.000111616
-1.88834e-05
9.01449e-05
-2.75312e-05
8.20114e-05
-3.13759e-05
7.91163e-05
-3.19929e-05
8.23554e-05
-2.24822e-05
9.39441e-05
-5.09131e-06
0.000126098
-1.02377e-05
0.000182547
-2.76079e-05
0.000192384
-1.30199e-05
0.000124485
-6.40357e-06
7.22619e-05
-8.10826e-06
4.58203e-05
-1.0561e-05
2.78204e-05
-1.28765e-05
1.43272e-05
-1.36099e-05
1.50918e-05
-4.6193e-06
2.92957e-05
1.2528e-06
4.28751e-05
-1.09188e-06
6.13178e-05
-4.26975e-06
8.03256e-05
-4.32381e-06
9.79815e-05
-1.8299e-06
0.000109202
3.21073e-06
0.000112254
2.06505e-05
9.16446e-05
3.49708e-05
5.69305e-05
3.34295e-05
4.19401e-05
2.79878e-05
4.7552e-05
2.32506e-05
5.58513e-05
1.78101e-05
6.59122e-05
8.58852e-06
8.42563e-05
7.22274e-06
0.000117482
0.000122557
-3.30281e-05
0.000118676
-3.74706e-05
8.41996e-05
-3.27453e-05
7.43035e-05
-2.83993e-05
7.94574e-05
-2.53453e-05
9.4011e-05
-1.9863e-05
0.000131075
-1.19545e-05
0.000187361
-1.03237e-05
0.00020122
-3.27768e-06
0.000129131
-1.01534e-05
8.34345e-05
-1.20408e-05
5.26898e-05
-1.45979e-05
3.27243e-05
-2.07856e-05
2.19774e-05
-2.11006e-05
2.22473e-05
-9.14071e-06
2.33906e-05
6.36738e-06
3.02015e-05
1.03812e-05
5.61997e-05
7.17615e-06
8.02436e-05
5.39949e-06
9.59985e-05
6.96275e-06
0.000104758
1.84066e-05
0.000100522
3.77603e-05
7.55128e-05
4.37249e-05
5.44115e-05
4.00044e-05
4.79514e-05
3.54549e-05
5.47425e-05
3.2674e-05
6.37272e-05
2.8665e-05
7.81785e-05
1.10893e-05
0.000106665
-5.19067e-06
0.000135683
0.000124843
-2.15996e-05
0.000123143
-3.50491e-05
9.15327e-05
-2.84573e-05
6.95908e-05
-1.61004e-05
7.12005e-05
-1.44607e-05
9.30213e-05
-2.66032e-05
0.000144256
-1.57185e-05
0.000182975
-1.3938e-06
0.00019367
-1.38827e-05
0.000139342
-2.21286e-05
9.41798e-05
-1.95483e-05
5.7828e-05
-1.52958e-05
3.33204e-05
-1.64596e-05
2.37089e-05
-1.54473e-05
2.33881e-05
-9.71646e-06
2.59716e-05
5.70881e-07
2.76131e-05
1.28544e-05
4.71376e-05
1.29358e-05
7.85668e-05
1.09979e-05
9.42268e-05
1.68431e-05
9.70555e-05
3.65388e-05
8.43783e-05
5.06993e-05
6.66646e-05
5.06867e-05
5.86953e-05
4.65377e-05
5.45047e-05
4.49284e-05
6.026e-05
4.63183e-05
7.00159e-05
3.07973e-05
9.31918e-05
3.98018e-06
0.000118
-6.00734e-06
0.000128576
0.000113887
6.01934e-07
0.000115006
-1.39904e-05
9.47808e-05
-1.35037e-05
6.7517e-05
-2.79414e-06
6.5602e-05
-7.88482e-06
9.52271e-05
-2.89085e-05
0.000148868
-2.7592e-05
0.000168604
-2.11534e-05
0.000173394
-4.23224e-05
0.000139687
-4.5099e-05
8.35302e-05
-3.15557e-05
4.19207e-05
-1.67466e-05
2.28114e-05
-1.22109e-05
2.04664e-05
-1.1406e-05
2.25801e-05
-1.22449e-05
2.70967e-05
-1.03449e-05
3.22927e-05
1.95383e-06
4.3736e-05
9.46868e-06
7.43428e-05
1.40678e-05
9.0405e-05
2.88819e-05
8.55185e-05
4.84485e-05
7.20165e-05
5.4942e-05
6.60687e-05
5.32204e-05
6.3435e-05
5.17301e-05
5.72422e-05
5.44788e-05
6.16341e-05
4.29134e-05
7.7798e-05
1.81863e-05
9.50907e-05
4.9401e-06
0.000110101
3.85669e-06
0.000114002
0.000102589
6.1073e-06
0.000105021
1.42213e-05
8.42825e-05
1.45387e-05
6.33788e-05
1.20078e-05
6.57953e-05
-1.15979e-05
0.00011031
-3.2671e-05
0.000159072
-4.37132e-05
0.000168525
-5.43154e-05
0.000170807
-6.70532e-05
0.000136991
-4.85312e-05
5.52863e-05
-2.96556e-05
1.57245e-05
-1.57127e-05
8.37981e-06
-1.00361e-05
1.58442e-05
-9.63299e-06
2.18817e-05
-1.17616e-05
2.85951e-05
-1.5744e-05
3.6269e-05
-1.16944e-05
4.81281e-05
2.03744e-07
7.22561e-05
1.46118e-05
8.31921e-05
3.39271e-05
7.58154e-05
4.65525e-05
6.86333e-05
5.0421e-05
6.51366e-05
5.15892e-05
6.18411e-05
5.63257e-05
5.26411e-05
5.89166e-05
5.72928e-05
2.56391e-05
8.73752e-05
6.0037e-06
9.98638e-05
4.3136e-06
0.0001067
6.84008e-06
0.000107561
0.000103833
7.1487e-06
9.61031e-05
2.37916e-05
7.04335e-05
3.02229e-05
5.86359e-05
2.32544e-05
7.11988e-05
-3.87798e-06
0.00013231
-2.18077e-05
0.000175355
-3.94274e-05
0.000183073
-5.86741e-05
0.000182845
-4.57758e-05
0.000121789
-1.79184e-05
2.86816e-05
-8.60438e-06
8.22237e-06
-9.04621e-06
8.12245e-06
-7.20789e-06
1.55655e-05
-7.88937e-06
2.22549e-05
-1.00047e-05
2.98736e-05
-1.35751e-05
3.89238e-05
-1.50173e-05
5.07674e-05
-2.72111e-06
6.72519e-05
1.61377e-05
7.55739e-05
3.13755e-05
7.15955e-05
3.74185e-05
6.63375e-05
4.10359e-05
6.18362e-05
4.489e-05
5.63845e-05
5.42971e-05
4.42131e-05
4.0912e-05
5.84615e-05
1.35035e-05
9.98622e-05
6.17199e-06
0.000104549
5.52513e-06
0.000105419
4.87396e-06
0.00010658
0.000106911
1.26561e-05
8.67754e-05
2.44218e-05
6.31298e-05
2.7158e-05
5.8181e-05
2.65585e-05
7.24636e-05
1.08397e-05
0.000145668
-8.58091e-06
0.000190797
-3.03304e-05
0.000196854
-3.78658e-05
0.000182568
-6.78007e-06
9.75839e-05
1.34884e-06
2.66661e-05
-3.60087e-06
1.25086e-05
-5.55874e-06
1.19255e-05
-5.2924e-06
1.65754e-05
-6.30714e-06
2.34869e-05
-8.13062e-06
3.0951e-05
-1.02836e-05
3.99261e-05
-9.91877e-06
4.95546e-05
-2.74337e-07
5.9597e-05
1.42795e-05
6.54603e-05
2.23314e-05
6.49662e-05
2.59777e-05
6.24236e-05
2.86273e-05
5.83124e-05
3.17735e-05
5.14378e-05
3.65009e-05
4.10668e-05
1.71882e-05
6.87592e-05
8.86507e-06
0.000104295
7.95172e-06
0.000104612
7.67159e-06
0.000104159
5.46377e-06
0.000107079
0.000110329
1.59082e-05
7.66277e-05
1.99535e-05
6.424e-05
1.65355e-05
6.34064e-05
1.80736e-05
7.20335e-05
1.74523e-05
0.000146578
4.62683e-06
0.000198967
-2.46154e-06
0.000198511
1.41784e-05
0.000171793
2.93689e-05
9.91219e-05
2.47808e-06
5.56421e-05
-4.94014e-06
2.52779e-05
-5.82746e-06
1.64114e-05
-4.68654e-06
1.8228e-05
-6.07047e-06
2.61012e-05
-7.83448e-06
3.20642e-05
-8.88088e-06
3.94304e-05
-6.43659e-06
4.59872e-05
7.3058e-07
5.23507e-05
8.70576e-06
5.76938e-05
1.33318e-05
6.02018e-05
1.50166e-05
5.99813e-05
1.5143e-05
5.70967e-05
1.4737e-05
4.99864e-05
1.3003e-05
4.78478e-05
-2.44065e-07
7.9956e-05
1.49879e-06
0.000103504
6.44487e-06
0.00010124
8.86976e-06
0.00010217
7.42776e-06
0.000108142
0.000116181
1.2747e-05
6.95774e-05
1.09917e-05
6.95876e-05
4.23539e-06
7.12913e-05
1.9906e-06
7.70043e-05
1.56845e-05
0.000138599
2.41252e-05
0.000194441
4.3369e-05
0.000189817
7.31245e-05
0.000163095
5.31897e-05
0.0001237
2.75657e-06
9.89707e-05
-1.69699e-05
3.89331e-05
-1.08936e-05
1.71035e-05
-5.29529e-06
1.59491e-05
-9.53583e-06
2.93354e-05
-1.02638e-05
3.16619e-05
-9.44876e-06
3.62477e-05
-5.60333e-06
4.08705e-05
-9.25469e-08
4.6655e-05
4.39568e-06
5.34196e-05
6.0734e-06
5.83637e-05
4.83784e-06
6.06318e-05
1.43524e-06
5.96064e-05
-2.77827e-06
5.3258e-05
-8.45326e-06
6.21683e-05
-1.80475e-05
9.35684e-05
-1.21874e-05
0.000101386
-3.71964e-06
9.6411e-05
2.55029e-06
9.88538e-05
4.96738e-06
0.000107873
0.000121949
4.03217e-06
6.8484e-05
-3.66166e-08
7.5745e-05
-7.35368e-06
7.94807e-05
-1.34645e-05
8.6712e-05
1.0416e-05
0.000126097
4.59406e-05
0.000177457
7.87957e-05
0.000177919
8.10619e-05
0.000163164
3.5932e-05
0.000145808
-9.55845e-06
0.000120967
-3.13978e-05
5.12993e-05
-2.28645e-05
1.44334e-05
-1.3821e-05
1.93995e-05
-1.46775e-05
3.87701e-05
-1.15067e-05
3.84861e-05
-8.814e-06
3.14326e-05
-4.2162e-06
3.49914e-05
4.93559e-07
4.26939e-05
2.63368e-06
5.21324e-05
1.25114e-06
6.00303e-05
-3.42138e-06
6.52826e-05
-1.11941e-05
6.68534e-05
-1.95869e-05
6.37671e-05
-2.59937e-05
7.99538e-05
-2.86684e-05
0.00010273
-2.3556e-05
0.000100596
-1.72442e-05
9.43269e-05
-9.85248e-06
9.58616e-05
-3.5819e-06
0.000106011
0.000122633
-3.43338e-06
7.26091e-05
-9.34713e-06
8.05401e-05
-1.26212e-05
8.13156e-05
-1.5188e-05
8.85249e-05
1.16854e-05
0.000110384
4.96791e-05
0.000151819
5.49958e-05
0.000164835
2.90338e-05
0.000164598
-4.91666e-06
0.000158559
-1.88075e-05
0.000122827
-3.63881e-05
5.52431e-05
-4.01674e-05
1.08425e-05
-2.98137e-05
1.01841e-05
-2.1363e-05
2.99709e-05
-1.41105e-05
3.46928e-05
-4.75104e-06
3.05454e-05
2.94098e-07
2.90995e-05
4.35878e-06
4.13581e-05
3.9742e-06
5.4478e-05
-3.47793e-07
6.57519e-05
-8.40893e-06
7.37486e-05
-1.9825e-05
7.81411e-05
-3.18134e-05
7.94605e-05
-3.43973e-05
9.44086e-05
-3.15431e-05
0.00010677
-2.90073e-05
0.000101542
-2.54002e-05
9.4553e-05
-1.9268e-05
9.43724e-05
-1.084e-05
0.00010324
0.000118461
-8.86182e-06
8.16211e-05
-1.25899e-05
8.18458e-05
-1.11371e-05
8.08247e-05
-7.65729e-06
8.43542e-05
-2.0343e-06
9.82488e-05
9.38466e-07
0.000130537
-1.26638e-05
0.000154452
-2.96001e-05
0.000163855
-2.80609e-05
0.000149466
-1.91052e-05
0.000109068
-2.44263e-05
5.28493e-05
-3.22178e-05
1.12504e-05
-2.90956e-05
5.4442e-06
-1.86953e-05
1.91284e-05
-9.84661e-06
2.54541e-05
4.30215e-06
2.64929e-05
9.89887e-06
2.6098e-05
1.17979e-05
4.3784e-05
8.5731e-06
6.17586e-05
7.44038e-07
7.61989e-05
-1.01979e-05
8.61616e-05
-2.37453e-05
9.19664e-05
-3.74176e-05
9.533e-05
-3.47029e-05
0.000105111
-3.06268e-05
0.00010924
-2.97264e-05
0.000102819
-2.80396e-05
9.57527e-05
-2.31566e-05
9.3614e-05
-1.36094e-05
9.95912e-05
0.000111956
-3.77482e-06
6.82195e-05
-1.12036e-05
7.28418e-05
-1.93289e-05
7.38915e-05
-2.97366e-05
7.98839e-05
-4.68333e-05
9.62401e-05
-5.85413e-05
0.000123302
-5.99522e-05
0.000143097
-4.68273e-05
0.000145159
-2.54793e-05
0.0001253
-9.16369e-06
8.99833e-05
-6.41237e-06
4.50065e-05
-1.13898e-05
1.067e-05
-1.09313e-05
3.21791e-06
-3.35006e-06
1.31845e-05
4.30983e-06
2.18416e-05
2.19742e-05
2.48206e-05
2.45304e-05
3.06507e-05
2.341e-05
5.28813e-05
1.47924e-05
7.55946e-05
3.39559e-06
9.23717e-05
-1.05195e-05
0.000102672
-2.4906e-05
0.000107604
-3.71264e-05
0.000108923
-3.55981e-05
0.000111087
-2.98363e-05
0.000111136
-2.8414e-05
0.000104105
-2.71558e-05
9.63811e-05
-2.28191e-05
9.23765e-05
-1.33571e-05
9.50377e-05
0.000104233
-7.07153e-06
6.98762e-05
-1.70796e-05
7.70204e-05
-3.35189e-05
8.24637e-05
-5.18537e-05
8.95754e-05
-6.59886e-05
0.000102831
-6.69713e-05
0.000119035
-5.51056e-05
0.00012803
-3.37465e-05
0.0001221
-1.00505e-05
0.000100745
6.76006e-06
7.1864e-05
1.38851e-05
3.50942e-05
1.21909e-05
8.47388e-06
1.14507e-05
9.62728e-07
1.63098e-05
7.84857e-06
2.27857e-05
1.78094e-05
3.90272e-05
2.76545e-05
4.20846e-05
4.53847e-05
3.62236e-05
6.94631e-05
2.13779e-05
9.97922e-05
3.81804e-06
0.000115198
-1.19598e-05
0.000122045
-2.66426e-05
0.000122465
-3.61381e-05
0.000118915
-3.72648e-05
0.000114628
-3.16239e-05
0.000110605
-2.78002e-05
0.000103452
-2.50522e-05
9.52261e-05
-2.05317e-05
8.96173e-05
-1.18948e-05
8.91939e-05
9.5085e-05
-7.45063e-06
7.7787e-05
-1.63014e-05
8.6205e-05
-2.93013e-05
9.52249e-05
-4.1676e-05
0.000101513
-4.76581e-05
0.000108522
-4.28806e-05
0.000114231
-2.86041e-05
0.000113803
-9.15883e-06
0.000102648
1.00323e-05
8.17157e-05
2.57111e-05
5.61324e-05
3.4255e-05
2.58804e-05
3.57893e-05
5.57992e-06
3.5174e-05
-1.14612e-08
3.58884e-05
7.05666e-06
3.99418e-05
2.02367e-05
5.11767e-05
3.21952e-05
5.59401e-05
6.04995e-05
5.13062e-05
9.26335e-05
2.19476e-05
0.000128151
-1.85345e-06
0.000136046
-2.15501e-05
0.000136097
-3.14627e-05
0.000130047
-3.72768e-05
0.000122736
-3.70308e-05
0.000114738
-3.29825e-05
0.000108101
-2.78141e-05
0.000100326
-2.33724e-05
9.20292e-05
-1.82587e-05
8.5445e-05
-1.03956e-05
8.25703e-05
8.49994e-05
-5.52576e-06
8.42912e-05
-1.10457e-05
9.2905e-05
-1.78147e-05
0.00010296
-2.24291e-05
0.000107114
-2.21438e-05
0.00010923
-1.49659e-05
0.000108049
-1.69117e-06
0.000101573
1.44024e-05
8.76009e-05
2.90212e-05
6.80183e-05
4.36476e-05
4.24672e-05
5.28344e-05
1.76668e-05
5.61607e-05
2.97481e-06
5.68903e-05
1.15144e-07
5.69289e-05
8.0556e-06
6.28108e-05
2.23619e-05
7.3725e-05
3.64028e-05
7.78138e-05
6.87897e-05
5.64215e-05
0.000112146
2.35305e-05
0.00014658
-5.0361e-06
0.000149785
-2.72802e-05
0.000148762
-3.43165e-05
0.000132175
-3.71676e-05
0.000121001
-3.54951e-05
0.000112387
-3.22522e-05
0.000105755
-2.74152e-05
9.64056e-05
-2.21608e-05
8.74896e-05
-1.64945e-05
8.04439e-05
-9.32907e-06
7.61935e-05
7.54808e-05
-2.73011e-06
8.80778e-05
-5.22941e-06
9.65774e-05
-6.61033e-06
0.000105672
-5.94336e-06
0.000107831
-1.93935e-06
0.000106605
6.1961e-06
0.000101291
1.80491e-05
9.1154e-05
3.16918e-05
7.54213e-05
4.53337e-05
5.60482e-05
5.8903e-05
3.09255e-05
6.76793e-05
1.12267e-05
7.1686e-05
1.23081e-06
7.33158e-05
2.25933e-07
7.66094e-05
5.90923e-06
8.9077e-05
1.30349e-05
0.000110492
2.16001e-05
0.000129106
4.03593e-05
0.000116768
9.06805e-05
8.84938e-05
0.000144927
4.70933e-05
0.000166276
8.32627e-06
0.000167269
-1.85518e-05
0.000149132
-2.68091e-05
0.000129274
-3.13116e-05
0.000114002
-3.14455e-05
0.000104517
-2.73685e-05
9.42933e-05
-2.11316e-05
8.27302e-05
-1.44614e-05
7.47476e-05
-7.88249e-06
7.01927e-05
6.77755e-05
-5.51121e-07
8.96747e-05
-6.22498e-07
9.7723e-05
1.46299e-06
0.000104913
5.22193e-06
0.000105451
1.13673e-05
0.000101912
2.0264e-05
9.39551e-05
3.15215e-05
8.16171e-05
4.36349e-05
6.52907e-05
5.81208e-05
4.41214e-05
6.97985e-05
2.24328e-05
7.65523e-05
8.01298e-06
7.92114e-05
1.71178e-06
8.02344e-05
1.14285e-06
8.45944e-05
2.84102e-06
9.69875e-05
2.37252e-06
0.000116075
8.47599e-07
0.000126294
1.3623e-05
0.000129311
6.57661e-05
0.000124565
0.000133766
0.000103121
0.000174404
7.36848e-05
0.000183587
3.31905e-05
0.000172452
-3.13072e-07
0.000147485
-1.81429e-05
0.000127403
-2.5316e-05
0.000113252
-2.95812e-05
9.47047e-05
-2.11522e-05
7.74395e-05
-1.21503e-05
6.78962e-05
-5.30005e-06
6.46161e-05
6.28279e-05
1.16643e-06
8.96293e-05
2.73027e-06
9.73533e-05
6.71616e-06
0.000102367
1.2217e-05
0.000101479
1.9741e-05
9.60326e-05
2.93983e-05
8.61185e-05
4.03969e-05
7.27781e-05
5.35655e-05
5.48509e-05
6.69628e-05
3.42156e-05
7.62283e-05
1.73101e-05
8.0542e-05
7.77456e-06
8.12565e-05
3.82587e-06
8.13671e-05
2.5749e-06
8.40667e-05
1.3147e-06
9.07191e-05
-2.86806e-06
9.86952e-05
-8.79907e-06
0.000102436
-1.35938e-06
0.00011317
4.25546e-05
0.000123343
0.0001179
0.000114324
0.000179776
0.000102158
0.000194286
8.15343e-05
0.000187289
4.62156e-05
0.000169763
1.05222e-05
0.00014556
-1.56156e-05
0.000124357
-2.68063e-05
0.000104573
-2.30116e-05
7.03194e-05
-9.01142e-06
5.69698e-05
-1.35412e-06
5.91113e-05
6.30744e-05
2.17172e-06
8.87824e-05
5.00856e-06
9.59321e-05
1.00478e-05
9.89617e-05
1.66602e-05
9.66257e-05
2.51634e-05
8.94764e-05
3.50349e-05
7.85055e-05
4.73892e-05
6.31874e-05
6.12659e-05
4.44489e-05
7.23645e-05
2.73599e-05
7.87473e-05
1.55374e-05
8.04391e-05
9.67425e-06
7.94216e-05
6.90357e-06
7.85501e-05
4.70339e-06
7.91655e-05
1.60425e-06
8.07301e-05
-3.64221e-06
8.09535e-05
-1.0376e-05
8.08731e-05
-8.10316e-06
9.22835e-05
2.35189e-05
0.000112248
9.48085e-05
0.00010962
0.000179907
9.63362e-05
0.000205858
8.20898e-05
0.000200642
6.33678e-05
0.000186575
3.59099e-05
0.000165575
3.87397e-06
0.000142574
-2.15321e-05
0.000114703
-1.91862e-05
6.99577e-05
-7.18106e-07
3.80652e-05
8.44466e-06
5.32701e-05
6.9877e-05
2.84631e-06
8.74531e-05
6.4101e-06
9.40233e-05
1.19627e-05
9.53023e-05
1.9137e-05
9.15339e-05
2.84156e-05
8.25471e-05
3.97691e-05
6.99559e-05
5.35337e-05
5.28746e-05
6.58765e-05
3.63313e-05
7.4079e-05
2.39579e-05
7.74312e-05
1.6511e-05
7.71957e-05
1.25745e-05
7.5667e-05
9.74709e-06
7.41833e-05
7.003e-06
7.30465e-05
3.46274e-06
7.15069e-05
-2.04445e-06
6.79916e-05
-8.21308e-06
6.51272e-05
-8.37555e-06
7.27617e-05
1.15394e-05
9.30673e-05
7.19519e-05
9.47861e-05
0.000176444
7.97322e-05
0.000218448
6.58499e-05
0.000213499
5.15875e-05
0.000200124
3.46819e-05
0.000181545
1.85049e-05
0.000156258
4.34416e-06
0.000122255
4.96777e-06
6.93837e-05
2.28596e-05
3.36632e-05
2.28935e-05
4.98044e-05
8.92317e-05
3.20105e-06
8.59854e-05
7.60067e-06
9.15966e-05
1.39996e-05
9.11538e-05
2.20913e-05
8.5966e-05
3.19886e-05
7.55033e-05
4.45405e-05
6.08329e-05
5.71729e-05
4.43869e-05
6.71397e-05
3.11389e-05
7.26257e-05
2.3097e-05
7.39613e-05
1.82291e-05
7.31655e-05
1.47514e-05
7.17319e-05
1.19135e-05
7.00979e-05
9.06406e-06
6.8553e-05
4.71005e-06
6.56902e-05
-9.00605e-08
6.03263e-05
-3.842e-06
5.5622e-05
-4.58343e-06
5.84051e-05
6.48591e-06
7.14407e-05
5.57678e-05
7.04621e-05
0.000174523
5.6801e-05
0.000228884
4.49108e-05
0.000224116
3.37312e-05
0.00021066
2.33788e-05
0.000191473
1.8074e-05
0.000161584
3.14645e-05
0.000112388
4.61071e-05
6.1395e-05
5.26794e-05
3.98499e-05
4.13791e-05
5.95484e-05
0.000107145
3.27944e-06
8.47571e-05
8.76258e-06
8.85036e-05
1.62518e-05
8.6376e-05
2.55264e-05
7.97615e-05
3.6101e-05
6.84026e-05
4.75154e-05
5.34508e-05
5.79863e-05
3.85583e-05
6.52692e-05
2.85411e-05
6.85783e-05
2.3058e-05
6.92358e-05
1.88324e-05
6.91811e-05
1.52447e-05
6.87384e-05
1.23763e-05
6.72056e-05
9.76745e-06
6.44068e-05
6.5458e-06
6.02473e-05
3.50197e-06
5.48338e-05
1.14369e-06
5.01092e-05
7.30326e-08
4.92616e-05
6.64906e-06
5.13112e-05
4.94086e-05
4.13724e-05
0.000178468
3.10928e-05
0.000236476
2.26517e-05
0.000231496
1.52204e-05
0.000217239
1.0283e-05
0.000195756
1.55541e-05
0.000157345
4.6582e-05
8.93505e-05
6.67815e-05
5.05315e-05
7.0326e-05
3.63426e-05
3.97717e-05
7.31391e-05
0.000129662
3.66162e-06
8.35142e-05
1.01373e-05
8.48928e-05
1.86156e-05
8.11346e-05
2.84844e-05
7.34983e-05
3.86773e-05
6.21967e-05
4.82212e-05
4.83577e-05
5.58122e-05
3.56783e-05
6.04167e-05
2.74333e-05
6.25591e-05
2.21758e-05
6.38287e-05
1.77883e-05
6.46808e-05
1.41614e-05
6.43662e-05
1.17798e-05
6.2647e-05
1.0606e-05
5.97687e-05
9.01276e-06
5.5867e-05
6.91962e-06
5.11493e-05
5.46288e-06
4.65858e-05
5.03597e-06
4.2743e-05
1.08838e-05
3.25429e-05
5.43386e-05
1.23357e-05
0.000190647
5.72944e-06
0.000241223
2.32696e-07
0.000235768
-4.35548e-06
0.000221108
-2.84403e-06
0.000193888
1.53182e-05
0.000142463
4.83784e-05
6.46624e-05
6.37127e-05
4.33748e-05
5.40559e-05
4.08685e-05
1.66628e-05
9.55129e-05
0.000142177
4.47262e-06
8.18533e-05
1.17195e-05
8.09147e-05
2.08525e-05
7.56957e-05
3.07031e-05
6.76334e-05
3.97962e-05
5.7309e-05
4.69726e-05
4.55399e-05
5.13601e-05
3.48464e-05
5.34654e-05
2.68101e-05
5.50694e-05
2.1113e-05
5.65311e-05
1.64834e-05
5.73061e-05
1.29893e-05
5.75583e-05
1.08848e-05
5.73268e-05
1.03083e-05
5.55786e-05
1.03468e-05
5.22105e-05
9.78137e-06
4.80713e-05
9.46968e-06
4.31288e-05
1.09327e-05
3.57471e-05
1.9308e-05
7.88276e-06
7.62733e-05
-1.42921e-05
0.000206407
-1.84996e-05
0.000243938
-2.14757e-05
0.000237475
-2.38276e-05
0.000222367
-1.42601e-05
0.00018509
1.75694e-05
0.000117021
3.87111e-05
5.09309e-05
5.14483e-05
3.66436e-05
2.17074e-05
6.00226e-05
-8.49692e-07
0.000110347
0.00014066
5.70249e-06
7.92668e-05
1.33192e-05
7.6773e-05
2.24623e-05
7.03514e-05
3.16295e-05
6.23235e-05
3.91632e-05
5.34542e-05
4.38447e-05
4.3838e-05
4.56506e-05
3.45096e-05
4.64717e-05
2.66532e-05
4.75905e-05
2.06343e-05
4.84795e-05
1.59412e-05
4.9081e-05
1.24438e-05
4.95868e-05
1.02252e-05
5.00988e-05
9.43458e-06
4.99816e-05
1.00289e-05
4.81558e-05
1.13886e-05
4.45968e-05
1.34603e-05
3.8276e-05
1.94217e-05
2.39396e-05
3.43043e-05
-2.40995e-05
0.000114541
-3.98935e-05
0.000218993
-4.07441e-05
0.000243251
-4.07715e-05
0.00023624
-3.83275e-05
0.000219006
-1.95751e-05
0.000168593
1.59646e-05
8.88311e-05
2.88158e-05
4.60979e-05
3.02951e-05
3.52861e-05
-2.80991e-06
8.02493e-05
-1.06566e-05
0.000116367
0.000129275
7.174e-06
7.50948e-05
1.42735e-05
7.27979e-05
2.26753e-05
6.51155e-05
3.05004e-05
5.7329e-05
3.61912e-05
4.98746e-05
3.91841e-05
4.19772e-05
4.03124e-05
3.39617e-05
4.09464e-05
2.65574e-05
4.1735e-05
2.03338e-05
4.24159e-05
1.55979e-05
4.29122e-05
1.20445e-05
4.32046e-05
9.82948e-06
4.34739e-05
9.02295e-06
4.39738e-05
9.54195e-06
4.38833e-05
1.18161e-05
4.11824e-05
1.73285e-05
3.16291e-05
3.04898e-05
-4.48071e-06
6.51837e-05
-5.47253e-05
0.000154835
-6.27888e-05
0.000225319
-5.96479e-05
0.000238489
-5.48028e-05
0.000230667
-4.505e-05
0.000208712
-2.05395e-05
0.000146524
5.89927e-06
6.91095e-05
1.60775e-05
4.31011e-05
-7.73866e-06
5.25009e-05
-2.66308e-05
9.35558e-05
-1.69225e-05
0.00010736
0.000112196
8.01464e-06
6.92082e-05
1.39055e-05
6.86439e-05
2.1119e-05
5.97255e-05
2.73157e-05
5.24799e-05
3.17246e-05
4.6219e-05
3.44492e-05
3.97031e-05
3.58295e-05
3.29416e-05
3.65674e-05
2.61943e-05
3.73666e-05
1.98949e-05
3.82228e-05
1.50274e-05
3.88414e-05
1.15071e-05
3.9311e-05
9.24415e-06
3.97297e-05
8.39626e-06
4.06057e-05
8.74595e-06
4.12183e-05
1.17261e-05
3.76797e-05
2.10836e-05
1.85901e-05
4.47476e-05
-3.75959e-05
0.000110027
-7.48193e-05
0.000187333
-7.84128e-05
0.000228328
-7.29217e-05
0.000231677
-6.32884e-05
0.000219989
-4.45879e-05
0.000189476
-2.06119e-05
0.000123725
-7.61437e-06
6.09902e-05
-6.36693e-06
4.45095e-05
-3.77001e-05
7.59323e-05
-4.20231e-05
9.73747e-05
-2.46224e-05
9.17704e-05
8.92182e-05
7.11872e-06
6.2846e-05
1.26594e-05
6.34577e-05
1.84709e-05
5.46455e-05
2.33475e-05
4.80732e-05
2.72503e-05
4.26281e-05
3.00809e-05
3.71293e-05
3.17758e-05
3.14163e-05
3.26943e-05
2.54551e-05
3.3611e-05
1.92914e-05
3.48464e-05
1.42318e-05
3.58414e-05
1.08278e-05
3.65446e-05
8.35719e-06
3.76038e-05
7.12727e-06
3.9361e-05
6.92487e-06
3.98246e-05
1.07152e-05
3.05868e-05
2.65662e-05
-4.62675e-06
7.27466e-05
-5.93626e-05
0.000157146
-8.69281e-05
0.000212598
-9.06823e-05
0.000231456
-8.54279e-05
0.000224966
-7.07836e-05
0.000203942