/*--------------------------------*- C++ -*----------------------------------*\
| =========                 |                                                 |
| \\      /  F ield         | OpenFOAM: The Open Source CFD Toolbox           |
|  \\    /   O peration     | Version:  2.3.0                                 |
|   \\  /    A nd           | Web:      www.OpenFOAM.org                      |
|    \\/     M anipulation  |                                                 |
\*---------------------------------------------------------------------------*/
FoamFile
{
    version     2.0;
    format      ascii;
    class       surfaceScalarField;
    location    "1.16";
    object      phi.particles;
}
// * * * * * * * * * * * * * * * * * * * * * * * * * * * * * * * * * * * * * //

dimensions      [0 3 -1 0 0 0 0];

internalField   nonuniform List<scalar> 
11770
(
-4.48257e-06
-1.43735e-05
-4.80686e-06
-1.22231e-05
-1.18567e-06
-1.11091e-05
2.2046e-06
-1.05229e-05
4.65284e-06
-1.16151e-05
4.94864e-06
-1.57215e-05
2.51753e-06
-1.9258e-05
-9.24113e-07
-2.00779e-05
-3.73013e-06
-1.73642e-05
-4.81973e-06
-1.41754e-05
-5.63448e-06
-1.3567e-05
-5.90501e-06
-1.28844e-05
-5.79096e-06
-1.17017e-05
-5.99266e-06
-9.60122e-06
-7.38708e-06
-9.00131e-06
-1.00099e-05
-1.0475e-05
-1.17371e-05
-1.19134e-05
-1.23861e-05
-1.20632e-05
-1.19654e-05
-1.12556e-05
-1.0422e-05
-9.67428e-06
-8.12093e-06
-9.55766e-06
-5.83335e-06
-1.03854e-05
-4.2106e-06
-1.14624e-05
-3.4269e-06
-1.36713e-05
-3.63084e-06
-1.7743e-05
-2.95648e-06
-1.80074e-05
-1.73276e-06
-1.92809e-05
-1.67004e-06
-2.11125e-05
-1.03608e-06
-2.06162e-05
-1.8944e-05
-4.50745e-07
-5.80596e-08
1.24718e-06
4.42698e-07
5.13481e-06
-1.50017e-06
7.48128e-06
3.11514e-06
4.81629e-06
8.24227e-06
1.6301e-06
7.66739e-06
-7.46796e-07
4.61513e-06
-3.47503e-06
3.5131e-06
-4.62729e-06
3.59046e-06
-4.9601e-06
5.59808e-06
-5.90067e-06
7.76109e-06
-7.17955e-06
9.03902e-06
-9.18009e-06
1.01787e-05
-1.10543e-05
1.06532e-05
-1.21307e-05
1.20291e-05
-1.33522e-05
1.19683e-05
-1.4359e-05
1.16873e-05
-1.46376e-05
1.14092e-05
-1.38018e-05
1.05357e-05
-1.2296e-05
9.74325e-06
-1.04439e-05
8.99395e-06
-8.11779e-06
7.65866e-06
-5.6045e-06
6.14957e-06
-3.2105e-06
4.32295e-06
-3.37966e-06
4.08571e-06
-5.86622e-06
3.80311e-06
-6.74407e-06
2.26869e-06
-5.52422e-06
5.80184e-07
-4.1029e-06
1.05019e-07
-2.72193e-06
2.37754e-08
2.28006e-07
2.61004e-06
-3.62168e-06
5.21352e-06
-6.52258e-06
7.04688e-06
-1.97346e-06
3.53852e-06
8.47333e-06
-8.99497e-08
9.12907e-06
-1.36559e-06
8.37893e-06
-2.35391e-06
8.69085e-06
-2.55769e-06
9.35382e-06
-3.44764e-06
9.82902e-06
-5.67813e-06
1.35275e-05
-7.45794e-06
1.50652e-05
-9.95843e-06
1.62205e-05
-1.32097e-05
1.69491e-05
-1.47741e-05
1.79837e-05
-1.52948e-05
1.72615e-05
-1.46303e-05
1.48323e-05
-1.3388e-05
1.27661e-05
-1.20986e-05
1.02133e-05
-1.11272e-05
8.06025e-06
-1.0562e-05
7.0142e-06
-9.60567e-06
5.93283e-06
-8.57405e-06
6.06226e-06
-7.43145e-06
7.25939e-06
-7.10802e-06
8.30347e-06
-7.59522e-06
6.21043e-06
-5.65923e-06
1.06183e-06
-2.41121e-06
-5.81193e-07
-6.41923e-07
-1.46148e-07
-1.02076e-06
2.65917e-06
-4.02453e-07
7.50293e-06
-5.70057e-06
9.36174e-06
-7.32669e-06
7.63404e-06
-2.35091e-06
1.43869e-06
1.09702e-05
-2.05425e-06
1.39649e-05
-7.38368e-07
1.21371e-05
2.06189e-06
1.23119e-05
3.18683e-06
1.5149e-05
1.40291e-06
1.71601e-05
-2.08667e-06
2.01712e-05
-5.7537e-06
1.96392e-05
-8.91655e-06
1.95098e-05
-1.20771e-05
1.97491e-05
-1.3803e-05
1.9759e-05
-1.38862e-05
1.67147e-05
-1.19358e-05
1.06974e-05
-9.98819e-06
7.88691e-06
-9.89313e-06
6.97002e-06
-1.13148e-05
6.86891e-06
-1.30754e-05
7.20653e-06
-1.48868e-05
8.05168e-06
-1.66424e-05
1.12735e-05
-1.71082e-05
1.31321e-05
-1.48638e-05
1.27252e-05
-1.02274e-05
7.63498e-06
-5.10148e-06
4.91502e-07
-3.69427e-07
-6.85383e-07
1.99138e-06
4.77502e-06
7.2313e-06
5.20627e-06
-4.29619e-06
1.24398e-05
-1.09127e-05
1.53426e-05
-9.95635e-06
1.16947e-05
-3.16173e-06
1.76342e-06
1.43377e-05
-2.97114e-06
2.10769e-05
9.52902e-07
1.58608e-05
6.37235e-06
1.4274e-05
9.67574e-06
1.89951e-05
7.46214e-06
2.32586e-05
1.83241e-06
2.42197e-05
-3.79593e-06
1.96633e-05
-7.40717e-06
1.568e-05
-1.00737e-05
1.31676e-05
-1.12267e-05
1.00243e-05
-1.08587e-05
2.95966e-06
-9.96656e-06
-4.95064e-06
-9.95918e-06
-7.14934e-06
-1.12737e-05
-5.99216e-06
-1.38452e-05
-3.60422e-06
-1.65185e-05
-9.68588e-07
-1.93035e-05
2.67436e-06
-2.11844e-05
8.96198e-06
-2.05652e-05
1.14242e-05
-1.71787e-05
1.02441e-05
-1.16318e-05
2.23517e-06
-6.50862e-06
-5.74523e-06
-1.09849e-06
-7.01234e-06
2.45015e-06
3.16971e-06
1.20059e-05
6.91209e-06
-1.02704e-05
1.60644e-05
-1.59171e-05
1.86395e-05
-1.29458e-05
1.48934e-05
-1.62291e-06
5.90297e-06
1.98474e-05
1.72876e-06
2.55266e-05
6.81331e-06
1.70946e-05
1.13387e-05
1.32358e-05
1.16568e-05
1.86089e-05
7.43642e-06
2.2566e-05
1.80414e-06
1.99006e-05
-2.55842e-06
7.99281e-06
-5.09872e-06
-2.7071e-06
-6.33322e-06
-8.54847e-06
-7.1576e-06
-1.35266e-05
-7.99762e-06
-1.98785e-05
-9.29685e-06
-2.54853e-05
-1.01226e-05
-2.66203e-05
-1.13453e-05
-2.48446e-05
-1.33207e-05
-2.12826e-05
-1.612e-05
-1.73832e-05
-1.80858e-05
-1.27313e-05
-1.81336e-05
-6.86732e-06
-1.61303e-05
-4.35313e-06
-1.22971e-05
-5.29586e-06
-8.19905e-06
-1.1183e-05
-4.19382e-06
-1.66421e-05
-6.71834e-07
-1.68619e-05
1.71772e-06
-4.44122e-06
1.12643e-05
8.40603e-06
-1.8061e-05
1.66167e-05
-2.19865e-05
1.69656e-05
-1.71285e-05
1.29746e-05
-1.90517e-09
7.4519e-06
2.39174e-05
7.36569e-06
2.37112e-05
1.15229e-05
1.11815e-05
1.17313e-05
4.47979e-06
7.51217e-06
5.64548e-06
1.21781e-06
4.91883e-06
-2.69911e-06
-1.56163e-06
-5.06054e-06
-1.56952e-05
-6.93836e-06
-2.77457e-05
-7.48871e-06
-3.34382e-05
-7.749e-06
-3.62521e-05
-8.60817e-06
-3.79464e-05
-9.45741e-06
-3.92994e-05
-9.40181e-06
-3.99043e-05
-8.56415e-06
-3.91486e-05
-8.0452e-06
-3.70587e-05
-8.49329e-06
-3.44633e-05
-9.49067e-06
-3.11684e-05
-9.08897e-06
-2.68264e-05
-7.14132e-06
-2.45949e-05
-4.41895e-06
-2.43953e-05
-2.30603e-06
-2.59939e-05
-5.9245e-07
-2.76361e-05
-4.36371e-07
-2.714e-05
-1.98321e-07
-1.7828e-05
-2.63872e-06
7.53545e-06
-2.51233e-05
1.17213e-05
-2.90253e-05
1.02561e-05
-2.30799e-05
6.53587e-06
-2.05387e-06
5.68726e-06
2.10874e-05
9.89425e-06
1.23962e-05
9.04151e-06
-4.41825e-06
6.50845e-07
-1.27033e-05
-6.55161e-06
-1.81946e-05
-9.31049e-06
-2.33427e-05
-9.64147e-06
-2.97987e-05
-1.01421e-05
-3.64898e-05
-9.49199e-06
-3.93482e-05
-8.72059e-06
-4.02324e-05
-8.62785e-06
-3.97934e-05
-8.53928e-06
-3.89309e-05
-8.3437e-06
-3.87203e-05
-7.95193e-06
-3.91954e-05
-6.7991e-06
-3.87748e-05
-5.3562e-06
-3.75571e-05
-4.10046e-06
-3.65563e-05
-3.25801e-06
-3.52112e-05
-3.00214e-06
-3.36703e-05
-2.21564e-06
-3.26824e-05
-4.7113e-07
-3.14578e-05
9.83429e-07
-3.13018e-05
7.25937e-07
-3.28227e-05
-1.05415e-06
-3.44871e-05
-1.53806e-06
-3.08798e-05
-2.46208e-05
2.95223e-06
-2.89218e-05
-4.55445e-07
-3.42108e-05
-8.53004e-07
-2.77365e-05
1.48182e-06
-1.28376e-05
4.06438e-06
4.11531e-06
3.07542e-06
-8.52957e-06
-6.93737e-06
-2.4266e-05
-1.59057e-05
-3.1693e-05
-1.62942e-05
-3.53379e-05
-1.35481e-05
-3.81914e-05
-1.20718e-05
-3.99041e-05
-1.0783e-05
-3.99261e-05
-8.97785e-06
-3.90228e-05
-7.23424e-06
-3.79936e-05
-6.30877e-06
-3.65394e-05
-5.87703e-06
-3.54188e-05
-5.5106e-06
-3.49305e-05
-5.16316e-06
-3.55431e-05
-4.28624e-06
-3.48221e-05
-2.84815e-06
-3.32098e-05
-1.32468e-06
-3.17255e-05
-3.09731e-07
-3.07622e-05
6.2366e-07
-3.01391e-05
1.45847e-06
-2.94294e-05
2.13302e-06
-2.83367e-05
1.91552e-06
-2.83672e-05
-3.84038e-07
-3.04601e-05
-2.06141e-06
-3.26225e-05
-1.77902e-06
-3.1866e-05
-3.25842e-05
-1.77403e-06
-2.90899e-05
-7.78938e-06
-3.60799e-05
-5.80308e-06
-2.92764e-05
3.04801e-08
-2.47735e-05
-3.16343e-06
-2.02762e-05
-1.21463e-05
-2.93418e-05
-1.99985e-05
-3.56482e-05
-1.99368e-05
-3.81177e-05
-1.67215e-05
-4.00879e-05
-1.3905e-05
-4.00194e-05
-1.23063e-05
-3.9039e-05
-1.03546e-05
-3.8163e-05
-7.99143e-06
-3.68304e-05
-5.84039e-06
-3.53412e-05
-4.891e-06
-3.33142e-05
-4.56836e-06
-3.22037e-05
-4.33038e-06
-3.15941e-05
-3.85838e-06
-3.22519e-05
-2.57418e-06
-3.16373e-05
-8.88203e-07
-2.97409e-05
1.11646e-06
-2.77202e-05
2.81573e-06
-2.6304e-05
3.22808e-06
-2.52121e-05
2.677e-06
-2.4078e-05
2.15764e-06
-2.28681e-05
8.1529e-07
-2.31252e-05
-1.41818e-06
-2.53614e-05
-2.99348e-06
-2.69447e-05
-3.76043e-06
-2.68847e-05
-2.53562e-05
-4.07525e-06
-2.59851e-05
-1.01598e-05
-3.43351e-05
-8.34949e-06
-2.89008e-05
-3.53445e-06
-2.96992e-05
-1.14993e-05
-3.15863e-05
-1.91655e-05
-3.40397e-05
-2.0641e-05
-3.58072e-05
-1.86568e-05
-3.86681e-05
-1.55132e-05
-3.93411e-05
-1.33639e-05
-3.75242e-05
-1.12966e-05
-3.60223e-05
-9.086e-06
-3.47353e-05
-6.80245e-06
-3.31744e-05
-4.03958e-06
-3.2006e-05
-2.25644e-06
-3.01647e-05
-1.01356e-06
-2.90968e-05
-3.78968e-07
-2.85246e-05
-9.58443e-07
-2.90094e-05
-9.58041e-07
-2.79851e-05
7.11402e-07
-2.52104e-05
2.64882e-06
-2.27454e-05
3.61958e-06
-2.05583e-05
3.53334e-06
-1.86628e-05
2.27941e-06
-1.72693e-05
4.03433e-07
-1.64191e-05
-1.75641e-06
-1.71289e-05
-3.99017e-06
-1.93085e-05
-4.90022e-06
-2.12346e-05
-4.66864e-06
-2.15347e-05
-1.97543e-05
-3.04928e-06
-2.27841e-05
-1.10223e-05
-3.08073e-05
-1.19519e-05
-2.70078e-05
-9.14201e-06
-2.93939e-05
-1.48423e-05
-2.97589e-05
-1.95902e-05
-3.09343e-05
-1.98268e-05
-3.36637e-05
-1.73073e-05
-3.64585e-05
-1.44725e-05
-3.58412e-05
-1.22714e-05
-3.37352e-05
-9.42969e-06
-3.26964e-05
-6.2551e-06
-3.11104e-05
-3.52558e-06
-2.99355e-05
-9.8696e-07
-2.89034e-05
1.02003e-06
-2.7341e-05
3.06549e-06
-2.62317e-05
4.15031e-06
-2.57851e-05
3.706e-06
-2.59299e-05
3.04983e-06
-2.43225e-05
3.33019e-06
-2.01833e-05
3.9473e-06
-1.63302e-05
3.57254e-06
-1.36685e-05
2.59242e-06
-1.16936e-05
1.44921e-06
-1.02935e-05
-5.52033e-07
-9.90919e-06
-3.49055e-06
-1.07192e-05
-5.69019e-06
-1.24732e-05
-5.34472e-06
-1.43723e-05
-4.04716e-06
-1.54877e-05
-1.53132e-05
-1.35844e-06
-2.06749e-05
-1.0949e-05
-2.71117e-05
-1.63386e-05
-2.51537e-05
-1.51342e-05
-2.73852e-05
-1.7938e-05
-2.7163e-05
-1.9409e-05
-2.80518e-05
-1.80687e-05
-3.0945e-05
-1.50158e-05
-3.27089e-05
-1.21422e-05
-3.17933e-05
-8.47812e-06
-3.01943e-05
-4.37695e-06
-2.87936e-05
-1.93509e-06
-2.72109e-05
2.2524e-07
-2.60463e-05
2.50977e-06
-2.48397e-05
4.27054e-06
-2.33089e-05
6.64265e-06
-2.22742e-05
8.22671e-06
-2.22516e-05
7.5289e-06
-2.19641e-05
5.98593e-06
-2.02338e-05
4.58746e-06
-1.47138e-05
4.0255e-06
-9.71301e-06
3.96861e-06
-6.62898e-06
3.30319e-06
-4.82797e-06
1.63379e-06
-3.91266e-06
-7.45161e-07
-3.90844e-06
-3.40099e-06
-4.72924e-06
-5.38542e-06
-6.0848e-06
-5.76941e-06
-7.72956e-06
-3.68541e-06
-9.04292e-06
-9.42872e-06
-1.15693e-06
-1.91843e-05
-1.27672e-05
-2.31923e-05
-1.93989e-05
-2.3538e-05
-1.86389e-05
-2.54322e-05
-1.935e-05
-2.52761e-05
-1.88332e-05
-2.65962e-05
-1.63367e-05
-2.87289e-05
-1.18603e-05
-2.90315e-05
-7.27427e-06
-2.8376e-05
-2.59594e-06
-2.65419e-05
1.49123e-06
-2.42214e-05
2.9041e-06
-2.27944e-05
3.59836e-06
-2.13645e-05
4.77267e-06
-1.98157e-05
6.66846e-06
-1.85757e-05
9.55606e-06
-1.78941e-05
1.17012e-05
-1.78963e-05
1.12236e-05
-1.73031e-05
8.62917e-06
-1.49241e-05
6.15067e-06
-8.22576e-06
5.15464e-06
-2.84854e-06
4.17768e-06
9.59023e-08
2.57009e-06
1.29497e-06
6.52993e-07
1.30947e-06
-1.19795e-06
6.34606e-07
-2.93157e-06
-4.78889e-07
-4.22749e-06
-1.75896e-06
-4.52595e-06
-3.12584e-06
-3.04382e-06
-4.15853e-06
-4.44145e-06
-9.16959e-07
-1.87248e-05
-1.43692e-05
-1.97228e-05
-2.14538e-05
-2.23712e-05
-2.03297e-05
-2.42384e-05
-1.93448e-05
-2.38599e-05
-1.72813e-05
-2.56802e-05
-1.31591e-05
-2.65433e-05
-7.11736e-06
-2.58533e-05
-1.36785e-06
-2.49345e-05
3.34015e-06
-2.22161e-05
5.71396e-06
-1.9325e-05
5.31928e-06
-1.84769e-05
5.11232e-06
-1.69688e-05
6.28149e-06
-1.53832e-05
8.77713e-06
-1.37535e-05
1.22082e-05
-1.30903e-05
1.44796e-05
-1.26276e-05
1.38889e-05
-1.15778e-05
1.07679e-05
-7.86727e-06
7.4762e-06
-5.92995e-07
5.1109e-06
4.04998e-06
2.99626e-06
5.44866e-06
1.13447e-06
5.3487e-06
-2.8223e-07
4.50771e-06
-1.3426e-06
3.32484e-06
-2.15046e-06
1.96077e-06
-2.65099e-06
5.35281e-07
-2.74851e-06
-8.31189e-07
-1.66393e-06
-1.93534e-06
-2.18134e-06
-2.95076e-06
-1.70912e-05
-1.7013e-05
-1.77524e-05
-2.22693e-05
-2.124e-05
-2.02286e-05
-2.38463e-05
-1.82273e-05
-2.3054e-05
-1.37894e-05
-2.42452e-05
-8.25397e-06
-2.32256e-05
-2.23268e-06
-2.27368e-05
4.2839e-06
-2.07728e-05
8.38382e-06
-1.71823e-05
8.80222e-06
-1.47927e-05
6.85661e-06
-1.38726e-05
6.39893e-06
-1.17354e-05
8.42354e-06
-9.74334e-06
1.15015e-05
-7.8158e-06
1.46414e-05
-7.057e-06
1.6417e-05
-6.23436e-06
1.5248e-05
-4.49844e-06
1.12707e-05
1.0715e-06
6.89074e-06
6.94624e-06
3.89772e-06
8.83278e-06
2.04905e-06
8.72055e-06
8.06516e-07
7.82418e-06
-1.43483e-07
6.54732e-06
-8.77796e-07
5.07115e-06
-1.38578e-06
3.49609e-06
-1.61332e-06
1.90994e-06
-1.46996e-06
4.1753e-07
-8.18283e-07
-8.1785e-07
-1.16416e-06
-7.19237e-06
-1.5241e-05
-2.04899e-05
-1.77333e-05
-2.20592e-05
-2.04645e-05
-1.87508e-05
-2.31773e-05
-1.51989e-05
-2.08987e-05
-9.37722e-06
-2.18335e-05
-2.43983e-06
-1.93569e-05
4.16181e-06
-1.87787e-05
1.00545e-05
-1.58416e-05
1.26717e-05
-1.26045e-05
1.19752e-05
-1.08912e-05
1.01179e-05
-8.62016e-06
9.45903e-06
-5.84095e-06
1.05693e-05
-3.23631e-06
1.31687e-05
-1.60138e-06
1.62075e-05
-6.67416e-07
1.74643e-05
8.02503e-07
1.46406e-05
4.12895e-06
9.39176e-06
9.67395e-06
5.68253e-06
1.18537e-05
3.84701e-06
1.17896e-05
2.59793e-06
1.08948e-05
1.5614e-06
9.6137e-06
6.7372e-07
8.10676e-06
-4.77218e-08
6.45317e-06
-5.72007e-07
4.718e-06
-8.57887e-07
2.98075e-06
-8.53361e-07
1.35716e-06
-5.44035e-07
5.08422e-08
-5.02658e-07
-1.36946e-05
-1.36725e-05
-2.20753e-05
-1.68742e-05
-2.05964e-05
-2.0488e-05
-1.59581e-05
-2.19704e-05
-1.02221e-05
-1.65251e-05
-3.25167e-06
-1.73157e-05
4.22886e-06
-1.50171e-05
1.09323e-05
-1.35581e-05
1.52603e-05
-1.05852e-05
1.62373e-05
-8.27339e-06
1.51594e-05
-5.61594e-06
1.34355e-05
-2.34586e-06
1.24581e-05
3.61907e-07
1.30235e-05
2.95702e-06
1.53007e-05
4.54083e-06
1.77432e-05
6.11905e-06
1.69315e-05
8.54713e-06
1.23912e-05
1.25582e-05
8.17862e-06
1.4694e-05
6.3373e-06
1.46303e-05
5.05082e-06
1.37677e-05
3.89913e-06
1.25575e-05
2.82228e-06
1.1118e-05
1.84009e-06
9.48949e-06
9.95924e-07
7.71012e-06
3.35639e-07
5.83772e-06
-1.04381e-07
3.96097e-06
-3.15315e-07
2.22006e-06
-3.08974e-07
7.92702e-07
-3.23417e-08
-1.52675e-05
-1.02564e-05
-1.86383e-05
-1.30129e-05
-1.54363e-05
-1.81686e-05
-1.05896e-05
-1.71484e-05
-3.86261e-06
-9.68397e-06
4.68159e-06
-9.88043e-06
1.17867e-05
-9.09787e-06
1.71837e-05
-7.5391e-06
1.9531e-05
-5.11955e-06
1.90044e-05
-2.95591e-06
1.78136e-05
1.08375e-06
1.68617e-05
4.20689e-06
1.57821e-05
6.52591e-06
1.59553e-05
8.72223e-06
1.75547e-05
1.04023e-05
1.82326e-05
1.27254e-05
1.5242e-05
1.54886e-05
1.11255e-05
1.72456e-05
9.33124e-06
1.72178e-05
8.05759e-06
1.64161e-05
6.8395e-06
1.53116e-05
5.61942e-06
1.4012e-05
4.4154e-06
1.25158e-05
3.27322e-06
1.08179e-05
2.25417e-06
8.93888e-06
1.4239e-06
6.93779e-06
8.15715e-07
4.91811e-06
3.62293e-07
3.05996e-06
3.50742e-08
1.52665e-06
4.00789e-07
-1.19638e-05
-3.31827e-06
-1.48504e-05
-2.83102e-06
-9.79485e-06
-7.98844e-06
-2.59693e-06
-5.0573e-06
4.44292e-06
-1.15493e-06
1.23647e-05
-2.54156e-06
1.82812e-05
-3.17052e-06
2.19007e-05
-1.47976e-06
2.22096e-05
3.5363e-07
2.06362e-05
4.15704e-06
2.00446e-05
8.38979e-06
2.00252e-05
1.09298e-05
1.91268e-05
1.2489e-05
1.89451e-05
1.39525e-05
1.93004e-05
1.56482e-05
1.7639e-05
1.79004e-05
1.43255e-05
1.93458e-05
1.25814e-05
1.9417e-05
1.13964e-05
1.87406e-05
1.02096e-05
1.77652e-05
8.96002e-06
1.6641e-05
7.65624e-06
1.53521e-05
6.32662e-06
1.38574e-05
5.02044e-06
1.21296e-05
3.81252e-06
1.01743e-05
2.80269e-06
8.04324e-06
2.01162e-06
5.86342e-06
1.24663e-06
3.8504e-06
5.12542e-07
2.18794e-06
7.47973e-07
-7.93412e-06
3.6414e-06
-9.07654e-06
1.01034e-05
-4.87718e-06
7.44211e-06
3.25766e-06
7.92948e-06
1.16539e-05
5.53328e-06
1.84831e-05
2.55111e-06
2.34118e-05
2.56709e-06
2.49872e-05
4.60532e-06
2.31062e-05
7.90907e-06
2.17211e-05
1.27548e-05
2.23084e-05
1.57992e-05
2.25043e-05
1.72197e-05
2.17499e-05
1.77714e-05
2.11108e-05
1.83822e-05
1.98455e-05
1.95927e-05
1.74302e-05
2.08921e-05
1.58061e-05
2.1114e-05
1.47293e-05
2.06245e-05
1.36811e-05
1.98009e-05
1.25552e-05
1.88451e-05
1.13363e-05
1.77802e-05
1.00285e-05
1.65585e-05
8.6467e-06
1.512e-05
7.2216e-06
1.34105e-05
5.81931e-06
1.14166e-05
4.59271e-06
9.14146e-06
3.52734e-06
6.54276e-06
2.19588e-06
4.20442e-06
9.61144e-07
2.57356e-06
9.51333e-07
-5.52085e-07
8.29579e-06
5.80987e-07
1.63113e-05
4.50396e-06
1.65745e-05
1.07531e-05
1.50591e-05
1.80249e-05
1.01993e-05
2.39114e-05
8.28122e-06
2.67598e-05
1.00318e-05
2.55727e-05
1.32188e-05
2.34859e-05
1.79767e-05
2.3351e-05
2.10603e-05
2.38115e-05
2.22589e-05
2.36977e-05
2.22837e-05
2.3029e-05
2.18154e-05
2.1994e-05
2.15962e-05
2.02757e-05
2.19787e-05
1.87174e-05
2.22691e-05
1.77164e-05
2.1986e-05
1.68381e-05
2.13422e-05
1.59504e-05
2.05577e-05
1.50057e-05
1.96907e-05
1.39675e-05
1.87207e-05
1.28126e-05
1.75992e-05
1.15224e-05
1.62542e-05
1.00892e-05
1.46212e-05
8.52257e-06
1.26818e-05
6.91734e-06
1.03526e-05
5.44266e-06
7.5137e-06
2.93179e-06
5.22518e-06
1.22275e-06
2.85919e-06
1.07114e-06
2.47166e-06
1.30479e-05
5.77723e-06
1.3874e-05
1.1159e-05
1.50637e-05
1.6939e-05
1.60996e-05
2.30762e-05
1.36302e-05
2.76922e-05
1.54869e-05
2.79991e-05
1.97085e-05
2.54848e-05
2.40182e-05
2.38689e-05
2.65277e-05
2.36026e-05
2.68478e-05
2.35372e-05
2.63768e-05
2.33383e-05
2.54384e-05
2.29624e-05
2.43301e-05
2.22379e-05
2.35019e-05
2.11036e-05
2.31363e-05
2.01248e-05
2.28631e-05
1.93796e-05
2.23994e-05
1.87547e-05
2.17792e-05
1.81478e-05
2.1043e-05
1.75123e-05
2.02305e-05
1.68149e-05
1.93391e-05
1.60211e-05
1.83136e-05
1.51059e-05
1.70602e-05
1.4018e-05
1.54974e-05
1.2648e-05
1.36192e-05
1.09064e-05
1.12799e-05
8.29642e-06
8.10802e-06
2.14934e-06
3.54719e-06
9.73479e-07
3.72425e-06
1.68096e-06
5.3297e-06
1.53335e-05
8.09144e-06
7.72327e-06
1.33865e-05
8.78303e-06
2.02763e-05
1.3491e-05
2.72504e-05
1.65982e-05
3.0079e-05
2.36168e-05
2.72361e-05
2.91506e-05
2.3752e-05
3.07035e-05
2.23542e-05
3.04274e-05
2.20023e-05
2.96261e-05
2.19685e-05
2.84284e-05
2.20088e-05
2.70364e-05
2.20572e-05
2.5627e-05
2.19611e-05
2.44431e-05
2.15831e-05
2.36432e-05
2.10986e-05
2.30941e-05
2.06851e-05
2.25504e-05
2.03454e-05
2.19096e-05
2.00643e-05
2.11794e-05
1.98162e-05
2.03968e-05
1.95688e-05
1.95668e-05
1.93058e-05
1.86257e-05
1.90515e-05
1.74485e-05
1.88159e-05
1.58942e-05
1.85228e-05
1.39672e-05
1.78965e-05
1.17598e-05
1.04111e-05
9.47366e-06
2.06597e-06
7.22561e-06
8.82566e-07
5.53631e-07
1.8623e-06
7.98027e-06
1.15388e-05
1.16596e-05
3.73932e-06
1.61204e-05
4.04043e-06
2.30017e-05
9.5369e-06
2.96198e-05
1.86458e-05
2.87979e-05
2.84206e-05
2.40248e-05
3.29394e-05
2.15815e-05
3.3462e-05
2.09552e-05
3.24576e-05
2.07677e-05
3.11177e-05
2.0721e-05
2.96296e-05
2.07819e-05
2.79764e-05
2.09779e-05
2.6285e-05
2.12553e-05
2.48221e-05
2.14527e-05
2.37668e-05
2.14758e-05
2.3046e-05
2.14298e-05
2.24244e-05
2.13944e-05
2.17414e-05
2.14316e-05
2.09964e-05
2.1551e-05
2.0216e-05
2.17174e-05
1.94166e-05
2.19324e-05
1.8579e-05
2.22179e-05
1.75318e-05
2.26489e-05
1.60627e-05
2.31005e-05
1.42529e-05
2.29495e-05
1.28789e-05
1.2258e-05
1.38519e-05
2.83152e-06
1.37255e-05
8.98334e-07
-2.68833e-06
2.03376e-06
1.00382e-05
4.48502e-06
1.41814e-05
-2.535e-07
1.86832e-05
9.98092e-07
2.4732e-05
6.70543e-06
2.77797e-05
1.81472e-05
2.49632e-05
3.0299e-05
2.2298e-05
3.53693e-05
2.09738e-05
3.5158e-05
2.03447e-05
3.35269e-05
2.00796e-05
3.20506e-05
1.99379e-05
3.05004e-05
1.99027e-05
2.85693e-05
2.00626e-05
2.6545e-05
2.04372e-05
2.4836e-05
2.09081e-05
2.35897e-05
2.13039e-05
2.27591e-05
2.15784e-05
2.20958e-05
2.1821e-05
2.13889e-05
2.21065e-05
2.06276e-05
2.24839e-05
1.98438e-05
2.29542e-05
1.90255e-05
2.34779e-05
1.82347e-05
2.39673e-05
1.73552e-05
2.43969e-05
1.61956e-05
2.46758e-05
1.44916e-05
2.49428e-05
1.33428e-05
1.6863e-05
1.35291e-05
7.83134e-06
8.64606e-06
3.11073e-06
-1.64753e-05
2.14682e-06
1.04674e-05
-2.87282e-06
1.45308e-05
-4.46103e-06
1.7999e-05
-1.47831e-06
2.15454e-05
5.29821e-06
2.32181e-05
1.72084e-05
2.22251e-05
3.0348e-05
2.08118e-05
3.62708e-05
1.991e-05
3.56811e-05
1.95186e-05
3.35931e-05
1.9446e-05
3.26312e-05
1.93202e-05
3.11621e-05
1.92322e-05
2.87443e-05
1.93603e-05
2.64075e-05
1.97102e-05
2.46143e-05
2.02237e-05
2.32829e-05
2.07857e-05
2.23792e-05
2.1299e-05
2.166e-05
2.17671e-05
2.0934e-05
2.22222e-05
2.02173e-05
2.27175e-05
1.9575e-05
2.33447e-05
1.86983e-05
2.40951e-05
1.76826e-05
2.49276e-05
1.66211e-05
2.55881e-05
1.60805e-05
2.61206e-05
1.40597e-05
2.60637e-05
1.34997e-05
2.54266e-05
-1.27594e-06
1.74426e-05
-2.10116e-05
2.75949e-06
-4.2753e-05
-2.16623e-05
1.05345e-05
-1.65407e-05
1.32219e-05
-1.06907e-05
1.45815e-05
-5.85003e-06
1.61719e-05
2.15659e-06
1.77718e-05
1.46677e-05
1.82514e-05
2.83311e-05
1.9098e-05
3.37431e-05
1.86781e-05
3.52717e-05
1.86689e-05
3.22418e-05
1.87199e-05
3.29586e-05
1.86717e-05
3.14823e-05
1.85903e-05
2.78234e-05
1.8703e-05
2.54814e-05
1.89882e-05
2.40254e-05
1.95316e-05
2.30206e-05
2.01417e-05
2.21715e-05
2.07574e-05
2.12784e-05
2.13963e-05
2.03069e-05
2.20255e-05
1.94695e-05
2.26279e-05
1.94905e-05
2.3266e-05
1.87821e-05
2.39584e-05
1.7167e-05
2.55209e-05
1.5148e-05
2.6713e-05
1.61361e-05
2.84043e-05
8.95971e-06
2.66208e-05
-9.53968e-06
1.94812e-05
-3.67348e-05
1.18828e-05
-5.31295e-05
4.05049e-06
-5.77727e-05
-5.17714e-05
5.79367e-06
-3.59464e-05
9.47158e-06
-1.90149e-05
1.01443e-05
-1.23767e-05
1.04682e-05
-4.85578e-06
1.29625e-05
6.54541e-06
1.54666e-05
4.00658e-06
1.93059e-05
2.27723e-06
1.80357e-05
8.89112e-06
1.72767e-05
2.48834e-05
1.72807e-05
3.31413e-05
1.7688e-05
3.01362e-05
1.76938e-05
2.4457e-05
1.7713e-05
2.3459e-05
1.79767e-05
2.28732e-05
1.86375e-05
2.25296e-05
1.94773e-05
2.21283e-05
2.0232e-05
2.12547e-05
2.081e-05
1.94927e-05
2.14416e-05
1.7415e-05
2.22896e-05
1.8849e-05
2.31079e-05
1.94425e-05
2.26913e-05
1.6708e-05
2.3611e-05
7.97813e-06
2.61783e-05
-1.40604e-05
2.19109e-05
-3.21355e-05
1.2109e-05
-5.14961e-05
7.19556e-06
-5.9134e-05
5.62134e-06
-5.68583e-05
3.15669e-06
-5.52475e-05
-5.27417e-05
3.18668e-06
-4.67032e-05
6.15231e-06
-4.16693e-05
6.94924e-06
-2.28537e-05
9.96161e-06
-1.43855e-05
1.05359e-05
-2.65546e-05
1.49495e-05
-3.36093e-05
1.44123e-05
-3.75834e-05
1.35241e-05
-3.3649e-05
1.37212e-05
-1.58331e-05
1.61982e-05
-1.57374e-06
1.74258e-05
8.73705e-07
1.64639e-05
1.31107e-05
1.56085e-05
1.87069e-05
1.61316e-05
2.11741e-05
1.74291e-05
2.17542e-05
1.892e-05
2.17117e-05
2.00893e-05
2.11829e-05
1.98454e-05
1.84335e-05
1.87403e-05
7.34578e-06
1.92038e-05
-9.27435e-06
2.06989e-05
-1.82375e-05
1.98042e-05
-2.57549e-05
1.27889e-05
-3.8676e-05
4.52122e-06
-6.32686e-05
2.00589e-06
-6.79156e-05
2.6108e-06
-6.29796e-05
3.364e-06
-5.69087e-05
3.2739e-06
-5.18357e-05
2.16789e-06
-4.982e-05
-4.7984e-05
4.89102e-06
-4.90476e-05
5.82476e-06
-5.99191e-05
5.13694e-06
-4.72707e-05
5.80711e-06
-4.09193e-05
7.44452e-06
-4.92816e-05
8.26157e-06
-4.78487e-05
7.95072e-06
-4.8065e-05
6.09068e-06
-4.65362e-05
2.59006e-06
-4.34861e-05
1.14814e-06
-4.19098e-05
5.57382e-06
-4.10576e-05
1.09378e-05
-3.04472e-05
1.26716e-05
-2.65413e-05
1.36955e-05
-2.24204e-05
1.60058e-05
-1.78508e-05
1.81606e-05
-1.58709e-05
1.92102e-05
-1.83157e-05
1.66974e-05
-2.43943e-05
1.0709e-05
-3.80338e-05
5.18285e-06
-5.74433e-05
1.54802e-06
-6.54736e-05
-9.55296e-07
-6.95895e-05
-2.9799e-06
-7.1527e-05
-3.94902e-06
-7.10045e-05
-2.12898e-06
-6.68147e-05
1.31091e-06
-5.94852e-05
3.58774e-06
-5.26281e-05
3.57341e-06
-4.74686e-05
1.88403e-06
-4.52276e-05
-4.40651e-05
3.72024e-06
-5.02346e-05
6.84435e-06
-6.19998e-05
1.72215e-06
-5.83571e-05
-1.93374e-06
-4.94387e-05
1.90066e-06
-4.77674e-05
2.85067e-06
-4.73042e-05
2.41381e-06
-4.6637e-05
4.71391e-07
-4.48164e-05
-2.81749e-06
-4.51697e-05
-3.20944e-06
-4.87819e-05
-1.43442e-06
-5.03796e-05
2.38953e-07
-5.23268e-05
2.52659e-06
-5.83249e-05
4.73995e-06
-6.03228e-05
6.1829e-06
-5.93783e-05
6.66839e-06
-5.87561e-05
5.95347e-06
-6.01908e-05
3.91626e-06
-6.21333e-05
1.31549e-06
-6.40445e-05
-1.3282e-06
-6.53004e-05
-3.89793e-06
-6.65598e-05
-5.82746e-06
-6.85304e-05
-6.57314e-06
-6.91966e-05
-6.03213e-06
-6.84308e-05
-3.95644e-06
-6.4792e-05
-9.1905e-07
-5.75614e-05
1.4809e-06
-4.97791e-05
2.08129e-06
-4.39454e-05
1.22385e-06
-4.11651e-05
-4.05702e-05
2.2237e-06
-5.10254e-05
2.58317e-06
-6.22822e-05
-3.83389e-06
-5.59697e-05
-6.81533e-06
-4.69455e-05
-3.22105e-06
-4.5431e-05
-2.73136e-06
-4.61557e-05
-3.89794e-06
-4.53201e-05
-5.85772e-06
-4.48665e-05
-6.47823e-06
-4.64442e-05
-4.9404e-06
-4.89915e-05
-2.75448e-06
-4.86416e-05
-4.36189e-07
-5.11178e-05
1.91144e-06
-5.71646e-05
3.23116e-06
-5.94145e-05
2.8869e-06
-5.93561e-05
1.9572e-06
-5.91456e-05
8.54707e-07
-5.97511e-05
-3.02281e-07
-6.04297e-05
-2.11719e-06
-6.16164e-05
-4.26187e-06
-6.26852e-05
-6.20108e-06
-6.36563e-05
-7.5337e-06
-6.5627e-05
-8.16616e-06
-6.66868e-05
-7.81154e-06
-6.6282e-05
-5.43671e-06
-6.26515e-05
-1.91139e-06
-5.52706e-05
5.41621e-07
-4.68756e-05
9.2976e-07
-4.0528e-05
3.01754e-07
-3.75653e-05
-3.7317e-05
8.77218e-07
-5.15033e-05
-1.82639e-06
-6.11425e-05
-9.29344e-06
-5.24141e-05
-1.11221e-05
-4.53265e-05
-8.18743e-06
-4.47152e-05
-8.74282e-06
-4.53223e-05
-1.01626e-05
-4.49134e-05
-1.04118e-05
-4.51559e-05
-8.57189e-06
-4.68698e-05
-5.58581e-06
-4.79063e-05
-3.12341e-06
-4.6733e-05
-7.25823e-07
-5.01103e-05
1.17324e-06
-5.52042e-05
1.36369e-06
-5.73482e-05
2.13526e-08
-5.72462e-05
-1.31437e-06
-5.70316e-05
-2.27717e-06
-5.80071e-05
-3.06251e-06
-5.84278e-05
-4.57321e-06
-5.89914e-05
-6.68638e-06
-5.97335e-05
-8.45366e-06
-6.06757e-05
-9.42792e-06
-6.25785e-05
-9.81995e-06
-6.38953e-05
-9.61729e-06
-6.37853e-05
-7.61983e-06
-6.06608e-05
-3.96894e-06
-5.30881e-05
-7.6851e-07
-4.38293e-05
4.26162e-07
-3.65261e-05
-9.45577e-08
-3.33095e-05
-3.37212e-05
-3.24172e-07
-5.1524e-05
-5.34907e-06
-5.89724e-05
-1.37242e-05
-4.84438e-05
-1.46669e-05
-4.43044e-05
-1.35101e-05
-4.46546e-05
-1.38697e-05
-4.50127e-05
-1.36487e-05
-4.44449e-05
-1.18405e-05
-4.4855e-05
-8.93185e-06
-4.60008e-05
-5.86173e-06
-4.53017e-05
-3.17369e-06
-4.45563e-05
-5.66242e-07
-4.91165e-05
7.57169e-07
-5.32668e-05
-3.49758e-07
-5.51785e-05
-2.55606e-06
-5.51461e-05
-4.39773e-06
-5.54383e-05
-5.40278e-06
-5.59923e-05
-6.21595e-06
-5.66548e-05
-7.32794e-06
-5.69955e-05
-8.60569e-06
-5.70674e-05
-9.89372e-06
-5.79983e-05
-1.0805e-05
-5.98461e-05
-1.1263e-05
-6.13287e-05
-1.10206e-05
-6.14184e-05
-9.20393e-06
-5.88738e-05
-5.53825e-06
-5.13767e-05
-2.19339e-06
-4.15142e-05
-9.95037e-07
-3.33094e-05
-9.26633e-07
-2.99126e-05
-3.06109e-05
-1.52064e-06
-5.06528e-05
-8.09773e-06
-5.62225e-05
-1.7518e-05
-4.49042e-05
-1.83389e-05
-4.3051e-05
-1.71439e-05
-4.42948e-05
-1.5854e-05
-4.47281e-05
-1.40035e-05
-4.36762e-05
-1.15966e-05
-4.36989e-05
-8.39533e-06
-4.42904e-05
-5.30403e-06
-4.23986e-05
-2.68343e-06
-4.24995e-05
-2.8744e-07
-4.72123e-05
-4.93705e-08
-5.12008e-05
-2.17124e-06
-5.2846e-05
-5.26539e-06
-5.30694e-05
-7.55387e-06
-5.33406e-05
-8.29364e-06
-5.39884e-05
-8.78608e-06
-5.43093e-05
-9.57563e-06
-5.45089e-05
-1.03265e-05
-5.46104e-05
-1.10766e-05
-5.52945e-05
-1.1656e-05
-5.70406e-05
-1.19592e-05
-5.86476e-05
-1.19627e-05
-5.88079e-05
-1.0575e-05
-5.65783e-05
-7.09072e-06
-4.94956e-05
-3.32552e-06
-3.90891e-05
-1.47458e-06
-3.02792e-05
-1.12773e-06
-2.65764e-05
-2.72855e-05
-2.6517e-06
-4.87654e-05
-9.46379e-06
-5.31013e-05
-1.91611e-05
-4.19577e-05
-2.04619e-05
-4.17287e-05
-1.86142e-05
-4.36586e-05
-1.5739e-05
-4.39807e-05
-1.35129e-05
-4.21779e-05
-1.09346e-05
-4.16881e-05
-7.56089e-06
-4.16112e-05
-4.21436e-06
-4.00621e-05
-1.69763e-06
-4.08947e-05
-2.34811e-07
-4.49221e-05
-1.11844e-06
-4.87628e-05
-4.40978e-06
-5.0205e-05
-8.04346e-06
-5.06222e-05
-1.02513e-05
-5.11541e-05
-1.11112e-05
-5.19496e-05
-1.12619e-05
-5.19599e-05
-1.13666e-05
-5.15842e-05
-1.16935e-05
-5.14426e-05
-1.20847e-05
-5.21707e-05
-1.26912e-05
-5.3874e-05
-1.30555e-05
-5.57773e-05
-1.30572e-05
-5.61441e-05
-1.18569e-05
-5.44823e-05
-8.56298e-06
-4.78098e-05
-4.45541e-06
-3.70439e-05
-2.26012e-06
-2.74975e-05
-1.62896e-06
-2.33807e-05
-2.40446e-05
-3.65884e-06
-4.65619e-05
-1.07063e-05
-4.96744e-05
-1.99479e-05
-3.89845e-05
-2.10859e-05
-4.01939e-05
-1.81914e-05
-4.25522e-05
-1.47137e-05
-4.23283e-05
-1.25957e-05
-3.99362e-05
-9.71339e-06
-3.98462e-05
-6.26232e-06
-3.83398e-05
-3.05977e-06
-3.77839e-05
-5.93833e-07
-3.91277e-05
8.54118e-09
-4.29333e-05
-2.1579e-06
-4.5986e-05
-6.4231e-06
-4.72591e-05
-1.07546e-05
-4.79633e-05
-1.31688e-05
-4.88626e-05
-1.37103e-05
-4.93701e-05
-1.36395e-05
-4.94076e-05
-1.31484e-05
-4.90558e-05
-1.26569e-05
-4.85843e-05
-1.26683e-05
-4.92269e-05
-1.2992e-05
-5.08786e-05
-1.33203e-05
-5.28808e-05
-1.34592e-05
-5.33687e-05
-1.26843e-05
-5.21088e-05
-9.81149e-06
-4.61768e-05
-5.60275e-06
-3.53818e-05
-3.03315e-06
-2.49318e-05
-2.11434e-06
-2.04967e-05
-2.09144e-05
-4.37156e-06
-4.46652e-05
-1.24089e-05
-4.64116e-05
-1.99454e-05
-3.62017e-05
-2.03246e-05
-3.83183e-05
-1.70225e-05
-4.08289e-05
-1.37028e-05
-3.95192e-05
-1.13888e-05
-3.76178e-05
-7.90896e-06
-3.73165e-05
-4.5384e-06
-3.59837e-05
-1.66094e-06
-3.53071e-05
5.38421e-07
-3.73795e-05
-1.00044e-07
-4.0607e-05
-3.5758e-06
-4.28961e-05
-8.61977e-06
-4.4043e-05
-1.3271e-05
-4.5026e-05
-1.5562e-05
-4.60192e-05
-1.60499e-05
-4.6645e-05
-1.55352e-05
-4.65948e-05
-1.45225e-05
-4.62446e-05
-1.35886e-05
-4.57493e-05
-1.3204e-05
-4.60935e-05
-1.34712e-05
-4.7633e-05
-1.37968e-05
-4.97244e-05
-1.39924e-05
-5.03366e-05
-1.34776e-05
-4.94047e-05
-1.09412e-05
-4.42577e-05
-6.72844e-06
-3.38644e-05
-3.817e-06
-2.25788e-05
-2.61487e-06
-1.7517e-05
-1.77096e-05
-4.14084e-06
-4.27639e-05
-1.30055e-05
-4.27267e-05
-1.98155e-05
-3.34664e-05
-1.90325e-05
-3.6124e-05
-1.51136e-05
-3.84857e-05
-1.21956e-05
-3.66434e-05
-9.68048e-06
-3.56537e-05
-6.18353e-06
-3.39896e-05
-2.62496e-06
-3.3578e-05
6.07708e-08
-3.30959e-05
1.3465e-06
-3.5212e-05
-2.30017e-07
-3.77788e-05
-4.78076e-06
-3.93712e-05
-1.04469e-05
-4.0409e-05
-1.53612e-05
-4.16248e-05
-1.77125e-05
-4.2846e-05
-1.80955e-05
-4.34377e-05
-1.7346e-05
-4.36238e-05
-1.58349e-05
-4.32105e-05
-1.44208e-05
-4.2705e-05
-1.36036e-05