/*--------------------------------*- C++ -*----------------------------------*\
| =========                 |                                                 |
| \\      /  F ield         | OpenFOAM: The Open Source CFD Toolbox           |
|  \\    /   O peration     | Version:  2.3.0                                 |
|   \\  /    A nd           | Web:      www.OpenFOAM.org                      |
|    \\/     M anipulation  |                                                 |
\*---------------------------------------------------------------------------*/
FoamFile
{
    version     2.0;
    format      ascii;
    class       volScalarField;
    location    "0.57";
    object      alpha.air;
}
// * * * * * * * * * * * * * * * * * * * * * * * * * * * * * * * * * * * * * //

dimensions      [0 0 0 0 0 0 0];

internalField   nonuniform List<scalar> 
6000
(
0.568532
0.568526
0.568526
0.568525
0.568524
0.569392
0.568522
0.568528
0.621184
0.626539
0.566601
0.566577
0.566575
0.566573
0.566573
0.566571
0.566571
0.566569
0.566569
0.566571
0.566557
0.566558
0.566558
0.56656
0.566561
0.566563
0.566565
0.566567
0.566572
0.586969
0.64522
0.606916
0.612275
0.601614
0.576959
0.577081
0.574675
0.629059
0.692699
0.695634
0.677439
0.617108
0.577599
0.578224
0.575523
0.576779
0.608996
0.659998
0.703339
0.699096
0.624252
0.56831
0.568242
0.581585
0.596924
0.618143
0.629008
0.622688
0.634689
0.704364
0.73736
0.697046
0.702804
0.682245
0.612087
0.57477
0.574724
0.683226
0.695688
0.692703
0.695039
0.68725
0.616311
0.589989
0.59214
0.614995
0.701712
0.711521
0.708308
0.712218
0.708307
0.620448
0.590794
0.628678
0.671383
0.699796
0.70648
0.699169
0.701051
0.721835
0.73735
0.726856
0.726753
0.726651
0.686628
0.586498
0.597182
0.694419
0.692782
0.695697
0.692703
0.693897
0.664264
0.610764
0.618471
0.677878
0.710942
0.708308
0.712296
0.708308
0.711463
0.708308
0.685445
0.706617
0.709658
0.708308
0.708895
0.708308
0.704756
0.721675
0.737296
0.720067
0.711756
0.725319
0.71426
0.660498
0.664536
0.692858
0.695645
0.692782
0.694866
0.692703
0.691998
0.656199
0.66579
0.709194
0.708308
0.711956
0.708308
0.712255
0.708308
0.710461
0.708308
0.709701
0.708308
0.709108
0.70564
0.681359
0.688596
0.721516
0.737109
0.704781
0.675379
0.691992
0.697214
0.693003
0.692931
0.694846
0.692858
0.695659
0.692782
0.693733
0.692703
0.687954
0.69324
0.708308
0.710782
0.708308
0.711971
0.708308
0.711504
0.708308
0.709647
0.708308
0.709054
0.704402
0.654247
0.621772
0.655699
0.721372
0.73693
0.67485
0.62838
0.63252
0.642127
0.670432
0.693386
0.692858
0.695455
0.692782
0.694431
0.692703
0.692881
0.68267
0.683738
0.708676
0.708308
0.711194
0.708308
0.711543
0.708308
0.710203
0.708308
0.708834
0.692915
0.638212
0.568143
0.553465
0.606221
0.694346
0.714978
0.632333
0.576656
0.569951
0.569546
0.605002
0.678811
0.694056
0.692782
0.695283
0.692703
0.692993
0.666134
0.638892
0.641015
0.702607
0.709879
0.708308
0.711103
0.708308
0.710447
0.708308
0.704412
0.6593
0.598687
0.531988
0.499126
0.500771
0.544206
0.620297
0.656654
0.581167
0.530055
0.517079
0.51145
0.525219
0.625999
0.692782
0.694552
0.692703
0.693265
0.675881
0.59992
0.570823
0.585102
0.672701
0.708308
0.710106
0.708308
0.710374
0.708308
0.69947
0.625446
0.533397
0.493697
0.474174
0.468996
0.472484
0.491492
0.537768
0.585908
0.527977
0.493989
0.483949
0.481186
0.483989
0.541522
0.668848
0.692703
0.694397
0.69262
0.625787
0.529649
0.52034
0.545873
0.637092
0.70855
0.708308
0.709896
0.708308
0.700902
0.617561
0.498241
0.466914
0.458077
0.455699
0.455947
0.458604
0.466526
0.485849
0.529735
0.488775
0.471089
0.466488
0.466568
0.469505
0.481976
0.602908
0.690013
0.69262
0.677179
0.557366
0.489106
0.49452
0.521896
0.606187
0.691805
0.708751
0.708308
0.700155
0.624402
0.491926
0.454821
0.448906
0.447373
0.447545
0.448596
0.450753
0.45524
0.463625
0.493865
0.466793
0.457399
0.455768
0.456766
0.46015
0.465646
0.514261
0.65131
0.68978
0.637498
0.504921
0.473726
0.477538
0.506256
0.581184
0.656169
0.692723
0.684957
0.622969
0.493781
0.448018
0.443412
0.443395
0.443386
0.443704
0.444597
0.446255
0.44912
0.453201
0.469764
0.453695
0.448517
0.447841
0.449146
0.453204
0.458375
0.470264
0.56588
0.643965
0.594781
0.488142
0.468554
0.468255
0.5031
0.568784
0.611809
0.632375
0.593101
0.49141
0.44414
0.443246
0.443389
0.4431
0.443362
0.443319
0.443415
0.44447
0.446701
0.448267
0.453075
0.445667
0.443417
0.44317
0.445195
0.451342
0.457072
0.459084
0.487559
0.567525
0.590146
0.489415
0.468463
0.467667
0.508699
0.562943
0.56386
0.538697
0.47721
0.444286
0.443953
0.447299
0.447876
0.443397
0.442922
0.44336
0.44334
0.444151
0.447524
0.447143
0.444644
0.443134
0.443104
0.443176
0.44892
0.455714
0.46047
0.462188
0.465035
0.525048
0.647275
0.53394
0.471734
0.467641
0.507688
0.544861
0.504322
0.462701
0.444362
0.443966
0.452911
0.468534
0.505487
0.445374
0.443396
0.44292
0.443366
0.444176
0.451235
0.448497
0.443109
0.4431
0.44319
0.445821
0.476531
0.471183
0.470228
0.471534
0.478239
0.576621
0.761803
0.681493
0.489514
0.469312
0.495591
0.497119
0.459356
0.444403
0.443965
0.449778
0.500872
0.579208
0.671499
0.541812
0.447814
0.443406
0.443084
0.443423
0.455196
0.451225
0.443102
0.443222
0.460662
0.588812
0.664023
0.637517
0.612462
0.603797
0.636035
0.734323
0.783134
0.787166
0.56085
0.469236
0.475914
0.46149
0.444456
0.444059
0.449313
0.55701
0.694366
0.772811
0.784129
0.746406
0.512846
0.447106
0.443388
0.443185
0.456926
0.473457
0.443205
0.455076
0.623201
0.76136
0.785291
0.783177
0.785964
0.782997
0.78637
0.783049
0.789185
0.783134
0.692556
0.48187
0.458639
0.452522
0.444346
0.45146
0.597069
0.761708
0.787993
0.784133
0.789618
0.784131
0.704676
0.461715
0.443224
0.443448
0.446406
0.491427
0.458492
0.56213
0.718344
0.784191
0.783185
0.787562
0.783238
0.789169
0.783238
0.789223
0.783185
0.7888
0.77889
0.552764
0.466761
0.470477
0.455438
0.550054
0.742389
0.787108
0.784133
0.789261
0.784133
0.787577
0.784127
0.666892
0.457728
0.45096
0.449753
0.475313
0.533538
0.627112
0.713075
0.783185
0.78587
0.783238
0.788737
0.7833
0.78919
0.783238
0.789018
0.783185
0.785387
0.595383
0.493794
0.511352
0.48399
0.59428
0.764017
0.784133
0.788541
0.784133
0.788846
0.784133
0.786735
0.784059
0.677179
0.582222
0.574846
0.514075
0.571263
0.634897
0.696885
0.783622
0.783238
0.787262
0.7833
0.789012
0.7833
0.788838
0.783238
0.788806
0.783185
0.606936
0.497321
0.519438
0.519478
0.552893
0.746841
0.786493
0.784133
0.788174
0.784133
0.786099
0.784133
0.786591
0.78301
0.730786
0.708127
0.594698
0.576004
0.644466
0.681647
0.783185
0.78499
0.783238
0.788481
0.7833
0.788848
0.783238
0.788523
0.783185
0.785964
0.623026
0.495099
0.519446
0.519438
0.507059
0.72281
0.784133
0.787774
0.784133
0.787289
0.784133
0.786904
0.784133
0.7819
0.753158
0.726342
0.617484
0.580129
0.650101
0.662212
0.769777
0.783185
0.786515
0.783238
0.788833
0.783238
0.78863
0.783185
0.788546
0.783134
0.653754
0.49512
0.519176
0.508204
0.484599
0.707766
0.785262
0.784133
0.78703
0.784133
0.785469
0.784133
0.786156
0.771209
0.722471
0.699939
0.612051
0.575287
0.639484
0.635489
0.732395
0.783745
0.783185
0.788035
0.783238
0.788765
0.783185
0.788246
0.783134
0.787028
0.700028
0.51523
0.49772
0.489593
0.477373
0.695947
0.784133
0.786654
0.784133
0.786153
0.784133
0.786816
0.784133
0.755878
0.688006
0.660689
0.585499
0.559054
0.608257
0.601803
0.678029
0.771486
0.785258
0.783185
0.788552
0.783185
0.788173
0.783134
0.788116
0.783087
0.756242
0.558442
0.479269
0.474576
0.473906
0.680695
0.784501
0.784133
0.785406
0.784133
0.784927
0.784133
0.785192
0.735642
0.65416
0.628143
0.565242
0.538245
0.574709
0.567056
0.618919
0.733527
0.783134
0.787035
0.783185
0.788074
0.783134
0.78722
0.783087
0.787211
0.783041
0.636052
0.475534
0.470719
0.470931
0.665295
0.784133
0.785489
0.784133
0.784654
0.784133
0.785819
0.784133
0.71449
0.629443
0.602606
0.548809
0.519224
0.547339
0.538235
0.5739
0.680184
0.783657
0.783134
0.787428
0.783134
0.786945
0.783087
0.786979
0.783041
0.784878
0.706195
0.500942
0.470901
0.487701
0.65487
0.779636
0.784133
0.784376
0.784133
0.780452
0.784133
0.780524
0.694056
0.612683
0.577838
0.534063
0.501347
0.526391
0.519961
0.543443
0.622293
0.765513
0.78535
0.783134
0.786649
0.783087
0.786271
0.783041
0.78626
0.782993
0.735151
0.559058
0.485176
0.612197
0.673233
0.76169
0.784403
0.784065
0.764623
0.759638
0.784511
0.756736
0.670259
0.591037
0.554425
0.519977
0.481956
0.505087
0.506915
0.520987
0.574856
0.718537
0.783087
0.785971
0.783087
0.785863
0.783041
0.786121
0.782993
0.783901
0.731392
0.580318
0.583077
0.712281
0.712534
0.748781
0.780783
0.771684
0.720882
0.734773
0.780591
0.724483
0.64009
0.56621
0.531648
0.505573
0.464385
0.481493
0.491527
0.502222
0.537153
0.653643
0.783541
0.783087
0.785272
0.783041
0.785276
0.782993
0.78515
0.782942
0.721237
0.585248
0.612822
0.741355
0.742111
0.741925
0.761258
0.742019
0.674033
0.725743
0.754368
0.691366
0.606124
0.537751
0.508937
0.49051
0.452652
0.462731
0.473159
0.483523
0.501253
0.585769
0.764932
0.783813
0.783041
0.784346
0.782993
0.784548
0.782942
0.780384
0.697014
0.589196
0.646769
0.742757
0.741591
0.730913
0.720598
0.694218
0.64747
0.72535
0.71383
0.646625
0.563481
0.507152
0.489144
0.476602
0.446409
0.451715
0.459162
0.468093
0.478743
0.524353
0.69835
0.781859
0.783427
0.782993
0.783465
0.782942
0.783402
0.763819
0.668158
0.60871
0.690155
0.741398
0.743166
0.719667
0.665955
0.634759
0.641338
0.724875
0.671682
0.586687
0.514506
0.483368
0.473531
0.465003
0.444201
0.446197
0.450714
0.45767
0.466423
0.487206
0.612252
0.736273
0.75824
0.761149
0.763793
0.770256
0.771015
0.730069
0.640802
0.639261
0.729886
0.742965
0.741398
0.722242
0.63231
0.576043
0.640246
0.706788
0.622792
0.527207
0.480864
0.467605
0.460987
0.45555
0.444112
0.444215
0.44609
0.450772
0.458363
0.474251
0.550449
0.649203
0.679893
0.682516
0.685532
0.701576
0.712119
0.674438
0.623635
0.670098
0.74197
0.741201
0.742931
0.734529
0.63398
0.521448
0.616528
0.645413
0.561268
0.486084
0.463656
0.456003
0.451336
0.448519
0.444111
0.444112
0.444216
0.446446
0.453074
0.470318
0.5207
0.568031
0.5773
0.570941
0.566049
0.581788
0.608026
0.60026
0.611604
0.69519
0.740981
0.742652
0.741201
0.740913
0.626764
0.486632
0.56753
0.556418
0.497748
0.463281
0.45299
0.448456
0.445908
0.445495
0.444076
0.444115
0.444113
0.444344
0.449716
0.469245
0.501081
0.510507
0.497237
0.486487
0.48177
0.489867
0.509132
0.530384
0.597339
0.703199
0.741316
0.740981
0.742159
0.740981
0.590995
0.480993
0.522265
0.49724
0.464908
0.451858
0.447112
0.445498
0.445478
0.44547
0.444098
0.444824
0.44416
0.44417
0.447177
0.462593
0.479437
0.472043
0.460595
0.455207
0.455404
0.461309
0.468009
0.485818
0.56893
0.690506
0.739493
0.741274
0.740981
0.737806
0.535195
0.477779
0.496943
0.475191
0.454498
0.4474
0.445517
0.445489
0.445492
0.445474
0.449633
0.496396
0.444518
0.44424
0.445586
0.453581
0.45912
0.452554
0.447773
0.447272
0.454851
0.464091
0.464068
0.467463
0.521175
0.639835
0.709986
0.730302
0.735091
0.716842
0.525391
0.470032
0.479022
0.464865
0.451743
0.446739
0.445901
0.447035
0.449159
0.445555
0.550034
0.635227
0.469526
0.444362
0.444832
0.447442
0.447409
0.444931
0.444848
0.447299
0.465419
0.473538
0.466591
0.462568
0.480321
0.556547
0.635758
0.678762
0.691262
0.66808
0.53084
0.462095
0.463758
0.459156
0.452253
0.448112
0.454378
0.467701
0.587063
0.49258
0.650126
0.68588
0.539072
0.452644
0.447388
0.44485
0.444898
0.444815
0.44494
0.454979
0.477095
0.477012
0.469599
0.462652
0.463064
0.489429
0.541976
0.584414
0.593945
0.583912
0.51798
0.455416
0.453447
0.455383
0.453576
0.456873
0.507657
0.655679
0.77724
0.687324
0.643609
0.683544
0.65041
0.474674
0.452296
0.444916
0.444806
0.444867
0.44771
0.503002
0.478534
0.474022
0.46734
0.461762
0.459208
0.464134
0.480735
0.497693
0.494294
0.495747
0.49457
0.453517
0.453103
0.453433
0.456655
0.563582
0.722381
0.788403
0.787925
0.785481
0.605788
0.687222
0.683543
0.629218
0.449905
0.444865
0.444888
0.445446
0.611765
0.66911
0.486681
0.467688
0.465988
0.46039
0.458011
0.458147
0.46131
0.464438
0.464251
0.464334
0.512648
0.47931
0.453642
0.458033
0.606991
0.762068
0.788863
0.787925
0.788969
0.788064
0.57013
0.683544
0.687154
0.683497
0.602576
0.45494
0.45431
0.577336
0.761654
0.811622
0.661199
0.500626
0.463149
0.45976
0.458825
0.458368
0.458802
0.459112
0.46172
0.485109
0.658783
0.65082
0.581832
0.663628
0.775981
0.788641
0.787786
0.788863
0.787925
0.78167
0.563265
0.687454
0.683545
0.687145
0.683485
0.610905
0.578576
0.658871
0.789751
0.8113
0.813901
0.721406
0.589568
0.515814
0.483952
0.468624
0.468677
0.489972
0.558031
0.682235
0.80572
0.757199
0.723788
0.762041
0.787716
0.787647
0.788502
0.787786
0.788286
0.754475
0.606846
0.683545
0.686673
0.683545
0.685708
0.678026
0.643156
0.662521
0.780593
0.815976
0.811332
0.815158
0.798786
0.743923
0.687952
0.654012
0.648994
0.690078
0.770359
0.813681
0.811505
0.767695
0.728395
0.741383
0.775277
0.787705
0.787647
0.787905
0.779326
0.690149
0.645706
0.687009
0.683545
0.686411
0.683545
0.682347
0.642751
0.647796
0.765147
0.811332
0.817279
0.811363
0.815976
0.811403
0.813934
0.811438
0.809964
0.811262
0.814214
0.811505
0.816657
0.76659
0.712793
0.710887
0.746624
0.769701
0.772019
0.755317
0.726921
0.561238
0.66153
0.683545
0.685557
0.683545
0.685363
0.683545
0.640983
0.633566
0.747504
0.815632
0.811363
0.816887
0.811405
0.815892
0.811446
0.815345
0.811469
0.813582
0.811505
0.816628
0.811525
0.767822
0.695424
0.68407
0.711819
0.729784
0.721226
0.6713
0.598053
0.466404
0.657462
0.685418
0.683545
0.685329
0.683545
0.683719
0.635032
0.619402
0.731336
0.811363
0.817218
0.811405
0.816318
0.811446
0.815828
0.811469
0.813952
0.811505
0.815243
0.811525
0.817801
0.776469
0.680493
0.658163
0.677196
0.681197
0.641961
0.554187
0.469066
0.439343
0.608263
0.683545
0.684156
0.683545
0.684358
0.679809
0.622072
0.606248
0.719489
0.815991
0.811405
0.816747
0.811446
0.816175
0.811469
0.815656
0.811505
0.813606
0.811525
0.816781
0.811547
0.800627
0.662054
0.625697
0.647321
0.62348
0.545767
0.468257
0.440757
0.438168
0.498977
0.654618
0.679748
0.68396
0.683545
0.669982
0.60373
0.596095
0.716001
0.811405
0.817012
0.811446
0.816429
0.811469
0.816033
0.811505
0.814011
0.811525
0.815462
0.811547
0.817736
0.811547
0.636199
0.586966
0.614752
0.560156
0.478036
0.444043
0.437606
0.438189
0.454413
0.505998
0.597111
0.652297
0.672682
0.651268
0.586052
0.592595
0.732005
0.816201
0.811446
0.816709
0.811469
0.816092
0.811505
0.81589
0.811525
0.813525
0.811547
0.816686
0.811557
0.815653
0.619799
0.554437
0.57455
0.506037
0.45541
0.43815
0.437676
0.448803
0.449634
0.454035
0.483948
0.564032
0.612904
0.62601
0.572344
0.596053
0.76783
0.811446
0.816731
0.811469
0.816198
0.811505
0.81604
0.811525
0.813868
0.811547
0.815609
0.811557
0.817517
0.811557
0.685252
0.537962
0.528821
0.478632
0.447102
0.437621
0.437342
0.455236
0.452668
0.450943
0.452591
0.476828
0.533717
0.600838
0.554642
0.604227
0.794549
0.81639
0.811469
0.816457
0.811505
0.816103
0.811525
0.815798
0.811547
0.813545
0.811557
0.816587
0.811586
0.816373
0.768042
0.531076
0.496015
0.464728
0.442386
0.437255
0.43771
0.472527
0.473303
0.451149
0.450946
0.454136
0.475233
0.546079
0.530573
0.604747
0.804135
0.811469
0.816656
0.811505
0.816244
0.811525
0.816012
0.811547
0.813818
0.811557
0.815455
0.811586
0.817245
0.811596
0.81206
0.53012
0.483033
0.459452
0.44038
0.437573
0.437351
0.48181
0.485098
0.468313
0.45117
0.451039
0.457112
0.481508
0.501651
0.591478
0.808505
0.816253
0.811505
0.816525
0.811525
0.816023
0.811547
0.815729
0.811557
0.8133
0.811586
0.816485
0.811601
0.816621
0.811594
0.59383
0.476602
0.45769
0.439385
0.437211
0.44172
0.481976
0.533538
0.579277
0.486421
0.456296
0.455911
0.462079
0.47955
0.599001
0.812375
0.811505
0.816744
0.811525
0.816159
0.811547
0.815942
0.811557
0.813535
0.811586
0.815383
0.811601
0.816883
0.811608
0.814295
0.668124
0.469538
0.456509
0.439116
0.437672
0.457592
0.499596
0.581774
0.621692
0.618438
0.541973
0.457996
0.457645
0.474136
0.677809
0.811478
0.816488
0.811525
0.81646
0.811547
0.815939
0.811557
0.815471
0.811586
0.813141
0.811601
0.816183
0.811655
0.81665
0.811607
0.750764
0.467513
0.455001
0.440583
0.437428
0.466249
0.499536
0.572239
0.620248
0.621853
0.620401
0.539958
0.45917
0.529353
0.766971
0.814802
0.811525
0.816706
0.811547
0.816066
0.811557
0.815709
0.811586
0.813506
0.811601
0.815152
0.811655
0.816838
0.811655
0.814879
0.792675
0.614661
0.460762
0.444122
0.440658
0.462109
0.499438
0.508782
0.620946
0.620248
0.621853
0.620245
0.505976
0.691943
0.812274
0.811525
0.816641
0.811547
0.816305
0.811557
0.815784
0.811586
0.81551
0.811601
0.813101
0.811655
0.816331
0.811671
0.816626
0.811655
0.812082
0.745793
0.466243
0.446547
0.44291
0.457831
0.499405
0.461535
0.535024
0.620641
0.620248
0.621533
0.601529
0.744493
0.811524
0.815535
0.811547
0.816544
0.811557
0.815899
0.811586
0.815756
0.811601
0.813514
0.811559
0.815314
0.811671
0.816766
0.811671
0.815374
0.811646
0.798674
0.571489
0.453607
0.443843
0.45703
0.482906
0.444747
0.466606
0.532819
0.620808
0.620095
0.619209
0.760306
0.813649
0.811547
0.816585
0.811556
0.816068
0.811586
0.815819
0.811601
0.815594
0.811655
0.813185
0.811671
0.816343
0.811723
0.816598
0.811671
0.813313
0.811616
0.689654
0.492508
0.458632
0.537574
0.474947
0.443111
0.446248
0.473548
0.559033
0.576708
0.602581
0.775715
0.811547
0.815864
0.811547
0.816321
0.811586
0.815847
0.811601
0.815754
0.811655
0.813553
0.811671
0.815295
0.811723
0.8169
0.811723
0.815937
0.811671
0.811809
0.726412
0.601353
0.563411
0.627613
0.490853
0.443113
0.443075
0.452101
0.495109
0.550462
0.588566
0.786535
0.814051
0.811547
0.816376
0.811552
0.815901
0.811596
0.815699
0.811608
0.815541
0.811655
0.813037
0.811671
0.816272
0.811723
0.816916
0.811708
0.813702
0.811666
0.709977
0.632607
0.629276
0.629464
0.573328
0.449332
0.443158
0.446078
0.469748
0.529562
0.585002
0.788165
0.811508
0.815851
0.811547
0.816043
0.811553
0.815616
0.811596
0.815519
0.811611
0.81357
0.811655
0.815075
0.811671
0.816885
0.811708
0.816263
0.811666
0.811766
0.690787
0.630047
0.629844
0.630954
0.590015
0.452061
0.443013
0.444875
0.46239
0.510659
0.580405
0.781843
0.813971
0.811508
0.816266
0.811547
0.81568
0.811553
0.815373
0.811596
0.815243
0.811611
0.812673
0.811655
0.816045
0.811671
0.816885
0.811666
0.8134
0.808519
0.666514
0.630006
0.630475
0.629659
0.59073
0.452026
0.443182
0.444264
0.458961
0.504808
0.568668
0.763625
0.811505
0.815886
0.811508
0.815913
0.811547
0.815305
0.811553
0.815136
0.811596
0.814433
0.811611
0.814852
0.811655
0.816748
0.811666
0.816433
0.811654
0.785218
0.635914
0.62327
0.629659
0.630952
0.592733
0.452022
0.443009
0.443512
0.455852
0.497712
0.5455
0.743611
0.813573
0.811505
0.816213
0.811508
0.815364
0.811547
0.814975
0.811553
0.814826
0.811596
0.812171
0.811611
0.815799
0.811655
0.816832
0.811654
0.812374
0.734881
0.601258
0.612596
0.630134
0.629302
0.588447
0.451982
0.443127
0.442997
0.452256
0.48502
0.517898
0.731362
0.811462
0.81549
0.811505
0.815574
0.811508
0.814909
0.811547
0.814695
0.811553
0.814242
0.811596
0.814627
0.811611
0.81652
0.811654
0.81638
0.811611
0.675055
0.571662
0.603682
0.629303
0.630131
0.571155
0.4487
0.441966
0.441873
0.447575
0.471195
0.499919
0.726809
0.812804
0.811462
0.815865
0.811505
0.814901
0.811508
0.814483
0.811547
0.814301
0.811553
0.809883
0.811596
0.815497
0.811611
0.816518
0.811611
0.810624
0.618347
0.553441
0.599742
0.629275
0.628936
0.537268
0.446185
0.441829
0.441622
0.442641
0.461004
0.494647
0.726708
0.811446
0.814826
0.811462
0.81515
0.811505
0.814396
0.811508
0.814127
0.811547
0.813705
0.801323
0.814246
0.811596
0.816144
0.811611
0.815921
0.809532
0.569135
0.545301
0.596606
0.608072
0.591356
0.494513
0.474003
0.441759
0.441791
0.441727
0.457436
0.536441
0.730296
0.811735
0.811446
0.815447
0.811462
0.814341
0.811505
0.813916
0.811508
0.813707
0.811547
0.79879
0.811553
0.81494
0.811596
0.816041
0.811596
0.806352
0.538939
0.540086
0.581531
0.565441
0.511756
0.465713
0.522545
0.445609
0.441623
0.443899
0.467598
0.625342
0.736827
0.808395
0.814155
0.811446
0.814694
0.811462
0.813905
0.811505
0.813713
0.811508
0.813418
0.798216
0.813993
0.811553
0.815541
0.811596
0.815218
0.797061
0.530533
0.53326
0.557334
0.514274
0.469944
0.452475
0.561653
0.482495
0.452698
0.457658
0.559214
0.678553
0.736808
0.800414
0.811406
0.815085
0.811446
0.814004
0.811462
0.813709
0.811505
0.813659
0.811508
0.81342
0.811547
0.814469
0.811553
0.815548
0.811553
0.784693
0.530544
0.526079
0.52564
0.479289
0.455111
0.452106
0.589364
0.524407
0.472542
0.494122
0.598773
0.69011
0.749542
0.799498
0.813777
0.811406
0.814548
0.811446
0.81391
0.811459
0.813895
0.811505
0.814026
0.811508
0.814237
0.811547
0.814964
0.811553
0.814393
0.777232
0.549559
0.515403
0.496067
0.463645
0.45213
0.452104
0.601691
0.559461
0.497676
0.504087
0.589955
0.693218
0.767273
0.81163
0.811378
0.814999
0.811406
0.81421
0.811445
0.814104
0.811462
0.814252
0.811505
0.814308
0.811508
0.814312
0.811547
0.815225
0.811544
0.777783
0.574734
0.5004
0.478788
0.457628
0.452117
0.454859
0.601654
0.580115
0.519996
0.503947
0.564862
0.680347
0.774181
0.81134
0.813834
0.811378
0.814876
0.811404
0.814376
0.811446
0.814366
0.811462
0.81439
0.811505
0.814462
0.81149
0.814806
0.811544
0.813893
0.783871
0.604334
0.482812
0.46912
0.45488
0.452145
0.457
0.601595
0.59026
0.530352
0.503954
0.54077
0.652246
0.768228
0.811961
0.81134
0.815365
0.811378
0.814615
0.811406
0.814412
0.811446
0.814396
0.811462
0.81441
0.811505
0.814341
0.811508
0.815072
0.811505
0.794128
0.640335
0.473737
0.461133
0.45245
0.452359
0.457004
0.601595
0.595506
0.53585
0.505663
0.522382
0.615689
0.746361
0.811309
0.813834
0.81134
0.815213
0.811378
0.814558
0.811406
0.814396
0.811446
0.814386
0.811462
0.814412
0.811505
0.81491
0.811505
0.813467
0.800612
0.677652
0.47518
0.454366
0.452767
0.455274
0.456068
0.601586
0.595832
0.539185
0.507898
0.508882
0.572189
0.704355
0.809362
0.811309
0.815534
0.81134
0.814647
0.811378
0.814282
0.811406
0.814234
0.811446
0.814291
0.811462
0.814393
0.811505
0.81498
0.811498
0.789158
0.678226
0.532307
0.466517
0.473838
0.477322
0.500042
0.601392
0.586647
0.537768
0.508686
0.502489
0.532262
0.645874
0.788562
0.813173
0.811309
0.815295
0.81134
0.814336
0.811378
0.814064
0.811406
0.814079
0.811446
0.814281
0.811462
0.814935
0.811498
0.812651
0.757783
0.631708
0.548496
0.527845
0.532348
0.534139
0.532609
0.597566
0.570263
0.531465
0.508085
0.500456
0.50989
0.586712
0.748704
0.811258
0.815461
0.811309
0.814383
0.81134
0.813866
0.811378
0.813803
0.811406
0.813918
0.811446
0.814124
0.811462
0.814387
0.811451
0.714116
0.585938
0.529525
0.532637
0.534208
0.534062
0.534139
0.570152
0.551974
0.524035
0.507431
0.500502
0.502214
0.546794
0.701589
0.811892
0.811258
0.815104
0.811309
0.813838
0.81134
0.813542
0.811378
0.813596
0.811406
0.813817
0.811446
0.814627
0.811451
0.807114
0.665321
0.549937
0.518226
0.524315
0.533981
0.534139
0.534043
0.537116
0.5322
0.514833
0.505558
0.500792
0.500031
0.525214
0.661514
0.811208
0.81479
0.811258
0.813858
0.811309
0.813283
0.81134
0.813242
0.811378
0.813329
0.811406
0.813609
0.811446
0.813348
0.777512
0.6116
0.523027
0.508858
0.512916
0.525436
0.533966
0.534043
0.508809
0.509238
0.500409
0.497095
0.496389
0.496798
0.513121
0.62808
0.797555
0.811208
0.814609
0.811258
0.813161
0.811309
0.812901
0.81134
0.812912
0.811378
0.813075
0.811406
0.813886
0.811435
0.726922
0.562358
0.504188
0.496988
0.497982
0.502489
0.515037
0.504913
0.482902
0.484086
0.481651
0.482106
0.484329
0.4873
0.501043
0.598651
0.772342
0.814086
0.811208
0.813237
0.811258
0.812597
0.811309
0.812475
0.81134
0.812515
0.811378
0.812798
0.811406
0.811895
0.671642
0.522013
0.489126
0.482953
0.480243
0.479475
0.480765
0.472946
0.461198
0.462777
0.464155
0.466683
0.470537
0.475232
0.486487
0.569364
0.749443
0.811164
0.81389
0.811208
0.812453
0.811258
0.812044
0.811309
0.811993
0.81134
0.812075
0.811378
0.812589
0.80377
0.6134
0.493915
0.476823
0.470214
0.465451
0.461826
0.458342
0.453354
0.445697
0.447519
0.450746
0.4547
0.459782
0.465674
0.474177
0.540018
0.731518
0.813101
0.811164
0.812631
0.811208
0.811617
0.811258
0.811529
0.811309
0.811538
0.81134
0.811669
0.811378
0.769338
0.558567
0.477741
0.467154
0.460481
0.455035
0.450485
0.446833
0.444024
0.436913
0.438607
0.441516
0.445566
0.451392
0.458611
0.467204
0.517399
0.721185
0.811122
0.812941
0.811164
0.811558
0.810798
0.804899
0.800423
0.797828
0.796955
0.800368
0.807885
0.806757
0.719538
0.520584
0.468162
0.459851
0.453661
0.448518
0.444638
0.442773
0.442746
0.435856
0.435876
0.436363
0.439314
0.444724
0.452566
0.46339
0.511654
0.721417
0.81196
0.811122
0.81158
0.80298
0.790169
0.775344
0.764065
0.756233
0.752185
0.759005
0.776442
0.771915
0.673904
0.50164
0.461997
0.45446
0.449132
0.444922
0.442764
0.442739
0.442739
0.435875
0.435863
0.435939
0.437356
0.440773
0.447134
0.459786
0.517392
0.72436
0.811093
0.811504
0.801759
0.772038
0.74762
0.726506
0.709307
0.694417
0.684649
0.691263
0.712286
0.707989
0.631899
0.499115
0.458803
0.450918
0.446671
0.443705
0.44276
0.442774
0.442871
0.439518
0.43739
0.442814
0.443552
0.442759
0.444344
0.455997
0.52745
0.714682
0.791788
0.796212
0.769877
0.725007
0.69441
0.668795
0.645413
0.622744
0.607
0.612221
0.632235
0.632382
0.591138
0.511414
0.46175
0.450747
0.446792
0.445478
0.444666
0.449666
0.493866
0.560811
0.478143
0.470408
0.467012
0.453622
0.446343
0.455755
0.537431
0.672283
0.728936
0.741116
0.716125
0.670315
0.636319
0.605919
0.577687
0.551777
0.534897
0.537684
0.554895
0.564277
0.554364
0.534064
0.492157
0.459047
0.449844
0.450883
0.460071
0.514773
0.697947
0.778399
0.572421
0.477387
0.477284
0.462193
0.451506
0.471741
0.535709
0.58836
0.622732
0.64452
0.642009
0.610366
0.575442
0.544097
0.519248
0.501043
0.490605
0.488832
0.496415
0.512452
0.534742
0.53451
0.534211
0.501375
0.461304
0.456429
0.47064
0.662381
0.841311
0.888883
0.777782
0.553818
0.466007
0.462259
0.463368
0.4939
0.508515
0.500736
0.517674
0.543828
0.561079
0.550994
0.521889
0.499517
0.486408
0.478755
0.473636
0.46985
0.469505
0.478038
0.509526
0.534437
0.534159
0.534415
0.498162
0.461922
0.578186
0.801515
0.84231
0.889492
0.874646
0.784139
0.623587
0.513369
0.469482
0.478198
0.473851
0.467172
0.474269
0.488146
0.505863
0.509223
0.490591
0.479685
0.474062
0.470693
0.467953
0.464143
0.460329
0.460893
0.475394
0.513146
0.534432
0.534159
0.517604
0.543993
0.717405
0.830644
0.84231
0.889492
0.87627
0.846938
0.79541
0.703665
0.554885
0.465686
0.465559
0.465609
0.466735
0.475532
0.493717
0.491985
0.47975
0.472857
0.469001
0.466569
0.464834
0.462328
0.458114
0.454641
0.45665
0.47195
0.502311
0.524497
0.532808
0.59785
0.711585
0.805307
0.84231
0.889492
0.861477
0.830173
0.796787
0.768008
0.699289
0.519251
0.465649
0.465555
0.465655
0.47647
0.493632
0.485118
0.475443
0.469565
0.465985
0.463605
0.462126
0.460735
0.45795
0.454064
0.451344
0.453255
0.46402
0.484058
0.509079
0.564086
0.641351
0.738794
0.820829
0.880593
0.832299
0.793731
0.760422
0.739751
0.728226
0.652123
0.494249
0.466657
0.469262
0.49044
0.492463
0.479819
0.471406
0.466488
0.463179
0.460846
0.459357
0.458442
0.457093
0.454372
0.451311
0.449321
0.450523
0.457149
0.47166
0.500068
0.549795
0.642425
0.744424
0.851523
0.793579
0.74672
0.705885
0.684662
0.694799
0.685266
0.622689
0.510171
0.47449
0.49051
0.487157
0.474203
0.467015
0.462871
0.460026
0.45796
0.456511
0.455638
0.455013
0.453714
0.45151
0.449314
0.447953
0.448733
0.453372
0.463719
0.484954
0.540502
0.626019
0.804232
0.742856
0.688975
0.64542
0.622107
0.632318
0.660293
0.657842
0.614323
0.513763
0.489384
0.479165
0.468405
0.462546
0.459132
0.456847
0.455164
0.453871
0.452948
0.452384
0.45184
0.450731
0.4491
0.447505
0.446611
0.447354
0.450895
0.458913
0.478313
0.52163
0.741447
0.675527
0.617153
0.57761
0.557906
0.563373
0.60128
0.649113
0.644903
0.57234
0.488242
0.472072
0.463241
0.458594
0.455981
0.454289
0.452996
0.451883
0.450926
0.450199
0.449659
0.449025
0.448014
0.446677
0.445437
0.44488
0.445692
0.449039
0.458277
0.477258
0.664132
0.593498
0.539007
0.511912
0.501659
0.504962
0.532066
0.606527
0.632452
0.575807
0.486328
0.4657
0.458901
0.455727
0.454043
0.452897
0.451911
0.450902
0.449865
0.448922
0.448124
0.447374
0.446468
0.445301
0.444016
0.442978
0.442592
0.443758
0.449935
0.465892
0.580856
0.516075
0.482535
0.471752
0.468894
0.471235
0.483242
0.534644
0.591081
0.554033
0.479151
0.460104
0.455905
0.454407
0.45359
0.452796
0.451932
0.450928
0.449751
0.44848
0.447355
0.446355
0.445272
0.444018
0.442605
0.441244
0.440232
0.440155
0.443745
0.456053
0.514141
0.471883
0.457843
0.455129
0.455402
0.456901
0.461172
0.479206
0.529735
0.5131
0.469416
0.457099
0.454899
0.454571
0.454065
0.453328
0.452567
0.451618
0.450212
0.44854
0.446973
0.44582
0.444766
0.443573
0.442059
0.440268
0.438693
0.437924
0.439258
0.446136
0.479548
0.45457
0.448917
0.450124
0.452337
0.453007
0.453355
0.457877
0.478989
0.482634
0.468399
0.458015
0.455402
0.455846
0.456025
0.454925
0.454114
0.453421
0.451745
0.448987
0.446592
0.445523
0.445056
0.444585
0.443437
0.44121
0.438696
0.437252
0.437251
0.439551
0.462212
0.447545
0.447421
0.450707
0.454081
0.454304
0.452597
0.452181
0.457529
0.467179
0.468433
0.461201
0.457186
0.458585
0.461211
0.458728
0.457634
0.456978
0.455039
0.450015
0.446072
0.445595
0.446844
0.44927
0.44924
0.446295
0.441445
0.437535
0.437201
0.437213
0.450891
0.445075
0.4474
0.453821
0.458608
0.459465
0.454185
0.452033
0.452066
0.456583
0.466318
0.471464
0.471268
0.490078
0.503949
0.48976
0.476081
0.477366
0.466135
0.452672
0.446088
0.446311
0.45137
0.460692
0.459729
0.455511
0.448644
0.4411
0.437227
0.437195
0.445033
0.445021
0.449821
0.456492
0.461909
0.46759
0.457789
0.452047
0.451975
0.452064
0.461975
0.489889
0.526131
0.557419
0.566964
0.556861
0.542302
0.536485
0.494741
0.456912
0.446113
0.447851
0.458165
0.469945
0.465752
0.459794
0.454786
0.447211
0.437289
0.437194
0.444997
0.445037
0.452089
0.45621
0.460911
0.467913
0.462458
0.452823
0.452027
0.451959
0.45782
0.49116
0.557427
0.571773
0.572312
0.571773
0.572124
0.570874
0.508849
0.457669
0.446142
0.450094
0.4648
0.469799
0.464276
0.458787
0.456594
0.452378
0.441371
0.437313
0.445029
0.446679
0.455794
0.456371