/*--------------------------------*- C++ -*----------------------------------*\
| =========                 |                                                 |
| \\      /  F ield         | OpenFOAM: The Open Source CFD Toolbox           |
|  \\    /   O peration     | Version:  2.3.0                                 |
|   \\  /    A nd           | Web:      www.OpenFOAM.org                      |
|    \\/     M anipulation  |                                                 |
\*---------------------------------------------------------------------------*/
FoamFile
{
    version     2.0;
    format      ascii;
    class       volScalarField;
    location    "0.472";
    object      p;
}
// * * * * * * * * * * * * * * * * * * * * * * * * * * * * * * * * * * * * * //

dimensions      [1 -1 -2 0 0 0 0];

internalField   nonuniform List<scalar> 
545
(
-6.01344e+07
-1.14195e+07
-1.88803e+06
-2.35234e+06
-6.81998e+06
4.25608e+07
-2.65131e+06
-2.15833e+06
-2.2805e+06
-5.61628e+06
7.43105e+07
2.27344e+06
-682035
-725072
-5.86914e+06
4.29372e+07
-2.78538e+06
-1.80297e+06
-506278
-5.26053e+06
-6.91337e+07
-2.16243e+06
-751087
2.75472e+06
8.44774e+06
-5.84089e+06
-1.70549e+06
-830183
-306142
-211536
-199561
-209316
-212073
-210059
-206235
-202242
-198742
-195926
-193407
-191273
-189131
-186924
-184398
-181563
-178041
-174102
-169586
-164659
-159034
-153078
-146344
-139222
-131363
-123000
-113972
-104574
-94814.2
-85061.6
-75421.5
-66001.9
-57050.6
-48526.1
-40502.9
-33180.2
-26194.8
-20060.2
-14111.5
-9297.86
-4012.56
-808.115
-5.2244e+06
-1.19318e+06
-804820
-400091
-291093
-240286
-226307
-217432
-211933
-206272
-202386
-198351
-196029
-193078
-191451
-188798
-187103
-184118
-181775
-177781
-174318
-169271
-164892
-158794
-153291
-146108
-139451
-131136
-123252
-113672
-104790
-94476.2
-85171.3
-75101.9
-66169
-56750.8
-48700.7
-40246.5
-33436.2
-25938
-20230.5
-13971.7
-9238.84
-4021.6
-1374.51
-6.1477e+06
-753841
-572797
-294161
-260450
-232593
-227412
-217375
-213593
-205409
-203445
-197268
-197100
-191997
-192562
-187609
-188197
-182972
-182922
-176638
-175451
-168010
-166090
-157618
-154430
-144924
-140618
-129981
-124469
-112387
-106025
-93105.4
-86217.1
-73843
-67308.7
-55551.6
-49916.1
-39118.4
-34877.4
-24706.1
-21680.4
-12644.7
-10698.3
-1981.07
-1599.75
-6.49868e+06
137997
-117896
-110670
-199796
-211309
-226342
-213991
-216948
-202512
-206471
-194275
-200205
-188939
-195743
-184338
-191330
-179759
-186142
-173397
-178692
-164539
-169417
-154298
-157650
-141588
-143889
-126660
-127895
-108821
-109532
-89490.9
-89362
-70486.6
-70588.9
-52276.8
-53339.3
-35873.4
-38733.7
-21241.6
-25483.1
-9326.59
-13917.9
1584.67
-5143.37
-1.35626e+06
2.2091e+06
636038
39462.1
-183756
-210531
-232634
-211520
-221006
-199028
-210035
-190720
-203923
-185278
-199529
-180454
-195096
-175883
-190012
-169498
-182589
-160358
-173425
-150183
-161507
-137618
-147750
-122687
-132021
-104525
-113771
-85111.9
-93068.4
-66681.8
-74313.5
-48554.4
-57353.8
-32027.6
-43442.7
-16922.4
-30265.3
-5144.86
-18358.8
6504.15
-8129.93
-9.28084e+06
3.51502e+06
1.25738e+06
110678
-170070
-221474
-226330
-220767
-212886
-204920
-199149
-195403
-191527
-190000
-189216
-188750
-184299
-181459
-177736
-175192
-171639
-169351
-163451
-154523
-147834
-143219
-135844
-128162
-120830
-114000
-103921
-92824.2
-80372.7
-70268.1
-63239
-52156.6
-44705.1
-38202.5
-33689.5
-26974.2
-20669.3
-14680
-6350.71
-1759.2
1911.92
-6.90749e+07
-2.10656e+06
-700914
2.79755e+06
8.48045e+06
4.29962e+07
-2.72965e+06
-1.75293e+06
-463494
-5.22722e+06
7.43695e+07
2.32898e+06
-632232
-682429
-5.83558e+06
4.26196e+07
-2.59628e+06
-2.10896e+06
-2.2384e+06
-5.58293e+06
-6.0076e+07
-1.13648e+07
-1.8391e+06
-2.3108e+06
-6.78687e+06
-1.33427e+06
2.19905e+06
652929
26393.7
-168709
-224401
-217378
-227442
-204142
-214756
-194474
-206483
-188120
-201228
-183040
-197807
-178483
-192501
-173145
-186324
-165547
-178551
-155248
-166706
-144471
-154820
-130354
-139892
-114179
-123428
-94469
-103439
-75724.9
-84116.2
-56740.9
-66118.4
-40006.7
-50047.6
-24357.3
-36907.4
-11248.1
-25284.1
-2100.8
-18573.8
2667
-6.4746e+06
138152
-105158
-115961
-190099
-217959
-217197
-222346
-207479
-210988
-197975
-203068
-191549
-197763
-186702
-193925
-182238
-188796
-176722
-182534
-169280
-174419
-159236
-163065
-148018
-150928
-134078
-135924
-117927
-119004
-98824.8
-99398.8
-79826
-80132.9
-60869.8
-62141.4
-43970.4
-46047.9
-28662.8
-32665.5
-16048.2
-21364.2
-6848.31
-13893.1
808.379
-6.12453e+06
-744340
-563701
-292300
-255280
-232805
-223559
-219199
-210360
-207817
-201017
-200054
-194658
-194685
-189928
-190550
-185455
-185502
-179894
-179143
-172510
-170794
-162671
-159782
-151210
-147402
-137353
-132363
-121218
-115168
-102508
-95885.3
-83333.9
-76712
-64474.3
-58710.1
-47506.6
-42594.3
-32481.8
-29080.4
-20052.9
-18127.8
-10431.3
-10471.4
-3309.95
-5.20038e+06
-1.17938e+06
-795722
-394979
-286754
-237909
-223908
-216848
-210812
-206616
-202064
-199133
-195763
-193736
-191020
-189413
-186493
-184388
-180891
-177970
-173487
-169518
-163775
-158682
-152189
-146146
-138340
-131111
-122185
-113818
-103710
-94739.9
-84499.1
-75640.5
-65720.4
-57661.5
-48729.3
-41570.9
-33860.4
-28007.1
-21576.9
-17082.5
-12051.5
-8602.83
-3099.09
-5.81651e+06
-1.68937e+06
-820544
-299378
-207060
-196219
-207171
-210674
-209471
-206041
-202475
-199023
-196269
-193566
-191460
-189113
-186850
-184062
-181226
-177593
-173791
-169088
-164121
-158328
-152485
-145689
-138630
-130658
-122474
-113344
-104123
-94395.1
-84903.6
-75349.2
-66186.2
-57401.1
-49211.1
-41335.1
-34414.8
-27802.4
-22117.1
-17037.4
-12381.7
-8806.77
-4623.76
)
;

boundaryField
{
    AirInlet
    {
        type            calculated;
        value           uniform -9.27858e+06;
    }
    WaterInlet
    {
        type            calculated;
        value           nonuniform List<scalar> 10(-6.01344e+07 4.25608e+07 7.43105e+07 4.29372e+07 -6.91337e+07 -6.90749e+07 4.29962e+07 7.43695e+07 4.26196e+07 -6.0076e+07);
    }
    ChannelWall
    {
        type            calculated;
        value           nonuniform List<scalar> 
110
(
-6.91337e+07
-2.16243e+06
-751087
2.75472e+06
8.44774e+06
-6.90749e+07
-2.10656e+06
-700914
2.79755e+06
8.48045e+06
-6.0076e+07
-1.13648e+07
-1.8391e+06
-2.3108e+06
-6.78687e+06
-5.81651e+06
-1.68937e+06
-820544
-299379
-207061
-196219
-207171
-210674
-209471
-206041
-202475
-199023
-196269
-193566
-191460
-189114
-186850
-184062
-181227
-177593
-173791
-169088
-164121
-158328
-152485
-145689
-138630
-130658
-122474
-113344
-104123
-94395.2
-84903.7
-75349.2
-66186.3
-57401.2
-49211.1
-41335.2
-34414.9
-27802.4
-22117.2
-17037.4
-12381.7
-8806.82
-4623.8
-6.01344e+07
-1.14195e+07
-1.88803e+06
-2.35234e+06
-6.81998e+06
-5.84089e+06
-1.70549e+06
-830183
-306142
-211536
-199561
-209316
-212073
-210059
-206235
-202242
-198742
-195926
-193407
-191273
-189131
-186924
-184398
-181563
-178041
-174102
-169586
-164659
-159034
-153078
-146344
-139222
-131363
-123000
-113972
-104574
-94814.1
-85061.6
-75421.5
-66001.8
-57050.6
-48526
-40502.8
-33180.1
-26194.8
-20060.1
-14111.4
-9297.82
-4012.52
-808.071
)
;
    }
    Outlet
    {
        type            calculated;
        value           nonuniform List<scalar> 
11
(
-0.044145
-0.132435
-0.220725
-0.308995
-0.395117
-0.184485
-0.580488
-0.671941
-0.760274
-0.848565
-0.936855
)
;
    }
    FrontAndBack
    {
        type            empty;
    }
}


// ************************************************************************* //
