/*--------------------------------*- C++ -*----------------------------------*\
| =========                 |                                                 |
| \\      /  F ield         | OpenFOAM: The Open Source CFD Toolbox           |
|  \\    /   O peration     | Version:  2.3.0                                 |
|   \\  /    A nd           | Web:      www.OpenFOAM.org                      |
|    \\/     M anipulation  |                                                 |
\*---------------------------------------------------------------------------*/
FoamFile
{
    version     2.0;
    format      ascii;
    class       volVectorField;
    location    "0.488";
    object      U;
}
// * * * * * * * * * * * * * * * * * * * * * * * * * * * * * * * * * * * * * //

dimensions      [0 1 -1 0 0 0 0];

internalField   nonuniform List<vector> 
545
(
(0.45466 0.0861372 4.22636e-29)
(0.403932 0.00736333 3.80557e-30)
(0.36235 0.0030081 -1.9221e-31)
(0.332871 0.00365904 0)
(0.301788 0.00818321 -8.5791e-31)
(0.46032 0.026968 8.52687e-29)
(0.416342 0.0216045 1.06395e-29)
(0.362448 0.0216907 1.06002e-30)
(0.32999 0.0183423 0)
(0.298124 0.0215615 -1.25355e-30)
(0.46616 0.0428613 1.32139e-30)
(0.414837 0.0386707 5.74497e-31)
(0.35813 0.0337074 4.43139e-31)
(0.324483 0.0292182 0)
(0.29207 0.0312997 -4.34902e-31)
(0.464027 0.0612166 -1.65547e-28)
(0.399224 0.0523422 -3.40328e-30)
(0.349769 0.0468788 -2.88284e-31)
(0.315839 0.0383291 0)
(0.282472 0.0405341 -2.43162e-29)
(0.469134 0.00336272 -3.25209e-28)
(0.371616 0.0756676 1.26987e-30)
(0.339708 0.0628335 2.13983e-30)
(0.301846 0.0565309 7.8762e-30)
(0.263599 0.0762232 -4.03975e-29)
(0.271297 0.00765019 0)
(0.257167 0.00122438 0)
(0.257573 0.000336526 0)
(0.258454 -0.000910402 0)
(0.259414 0.000121441 0)
(0.259783 -0.000562885 0)
(0.259966 0.000382651 0)
(0.259977 -0.000448653 0)
(0.260015 0.000436088 0)
(0.259987 -0.00044351 0)
(0.260014 0.000447556 0)
(0.259987 -0.000450974 0)
(0.260013 0.000455463 0)
(0.259986 -0.00045865 0)
(0.260012 0.000462625 0)
(0.259986 -0.000465732 0)
(0.260011 0.00046943 0)
(0.259987 -0.000472472 0)
(0.26001 0.000475885 0)
(0.259987 -0.000478739 0)
(0.26001 0.000481815 0)
(0.259988 -0.000484517 0)
(0.260009 0.000487402 0)
(0.259989 -0.000489752 0)
(0.260008 0.000492428 0)
(0.259989 -0.000494606 0)
(0.260007 0.000497112 0)
(0.25999 -0.000499176 0)
(0.260007 0.000501295 0)
(0.25999 -0.000502975 0)
(0.260005 0.000504985 0)
(0.25999 -0.00050643 0)
(0.260004 0.000508199 0)
(0.259991 -0.000509396 0)
(0.260003 0.000510913 0)
(0.259992 -0.000512033 0)
(0.260002 0.000513216 0)
(0.259993 -0.000514163 0)
(0.260001 0.000515042 0)
(0.259994 -0.000515841 0)
(0.26 0.000516498 0)
(0.259996 -0.000516982 0)
(0.259997 0.000517465 0)
(0.259998 -0.000517592 0)
(0.259995 0.000518625 0)
(0.269361 0.0147297 0)
(0.257161 0.0037786 0)
(0.258158 -0.000475722 0)
(0.25886 -0.000184984 0)
(0.259527 -0.000803594 0)
(0.259851 0.00025739 0)
(0.25994 -0.000489222 0)
(0.260004 0.000418672 0)
(0.259984 -0.000442488 0)
(0.260014 0.000442854 0)
(0.259986 -0.000447148 0)
(0.260014 0.000451442 0)
(0.259987 -0.000454867 0)
(0.260013 0.000458862 0)
(0.259988 -0.000462381 0)
(0.260013 0.000465903 0)
(0.259988 -0.000469203 0)
(0.260013 0.00047246 0)
(0.259989 -0.000475671 0)
(0.260012 0.000478718 0)
(0.259989 -0.000481796 0)
(0.260011 0.000484527 0)
(0.25999 -0.00048723 0)
(0.260011 0.000489821 0)
(0.259991 -0.000492231 0)
(0.26001 0.000494654 0)
(0.259992 -0.000496884 0)
(0.260009 0.000498962 0)
(0.259993 -0.000501147 0)
(0.260009 0.000503191 0)
(0.259994 -0.000504895 0)
(0.260009 0.000506653 0)
(0.259995 -0.000508005 0)
(0.260008 0.000509543 0)
(0.259996 -0.000510767 0)
(0.260007 0.000511988 0)
(0.259997 -0.000513262 0)
(0.260006 0.000514249 0)
(0.259998 -0.000515238 0)
(0.260005 0.000515913 0)
(0.259999 -0.000516585 0)
(0.260004 0.000517174 0)
(0.260001 -0.000517401 0)
(0.260001 0.000517927 0)
(0.260004 -0.000518308 0)
(0.266187 0.024532 0)
(0.256698 0.0043257 0)
(0.259135 6.82389e-05 0)
(0.259511 -0.00132347 0)
(0.259874 -0.000126304 0)
(0.259936 -0.000665784 0)
(0.260004 0.000348724 0)
(0.259982 -0.000459249 0)
(0.260014 0.000435266 0)
(0.259985 -0.000445135 0)
(0.260014 0.000448602 0)
(0.259987 -0.000452312 0)
(0.260013 0.000456672 0)
(0.259987 -0.000460057 0)
(0.260013 0.000463737 0)
(0.259988 -0.00046721 0)
(0.260013 0.000470633 0)
(0.259988 -0.000473935 0)
(0.260012 0.000477113 0)
(0.259989 -0.000480188 0)
(0.260011 0.000482986 0)
(0.25999 -0.00048596 0)
(0.260011 0.000488734 0)
(0.25999 -0.000491269 0)
(0.26001 0.000493767 0)
(0.259991 -0.00049606 0)
(0.260009 0.000498448 0)
(0.259992 -0.000500798 0)
(0.260009 0.000502548 0)
(0.259993 -0.000504314 0)
(0.260008 0.000506255 0)
(0.259993 -0.000507891 0)
(0.260007 0.00050968 0)
(0.259994 -0.000510947 0)
(0.260007 0.000512342 0)
(0.259995 -0.00051356 0)
(0.260006 0.000514416 0)
(0.259996 -0.000515548 0)
(0.260005 0.000516436 0)
(0.259997 -0.000517414 0)
(0.260003 0.000518051 0)
(0.259999 -0.00051856 0)
(0.260001 0.000519293 0)
(0.260001 -0.000519508 0)
(0.259999 0.000519174 0)
(0.26208 0.0304796 0)
(0.256967 0.00511598 0)
(0.260585 -0.00118889 0)
(0.260452 -0.000583412 0)
(0.26024 -0.000975205 0)
(0.260106 0.0001955 0)
(0.260015 -0.000508044 0)
(0.260021 0.000412947 0)
(0.259986 -0.000442796 0)
(0.260014 0.000441643 0)
(0.259986 -0.000446444 0)
(0.260014 0.000450564 0)
(0.259987 -0.000453926 0)
(0.260013 0.000458003 0)
(0.259988 -0.00046152 0)
(0.260013 0.000464934 0)
(0.259988 -0.000468158 0)
(0.260012 0.000471448 0)
(0.259989 -0.000474725 0)
(0.260012 0.000477853 0)
(0.259989 -0.000480996 0)
(0.260011 0.000483664 0)
(0.25999 -0.000486208 0)
(0.26001 0.000488766 0)
(0.25999 -0.000491175 0)
(0.26001 0.000493656 0)
(0.259991 -0.000495923 0)
(0.260009 0.000497858 0)
(0.259992 -0.00050037 0)
(0.260008 0.000502503 0)
(0.259993 -0.000504132 0)
(0.260008 0.000505771 0)
(0.259994 -0.000506882 0)
(0.260007 0.00050842 0)
(0.259994 -0.000509719 0)
(0.260006 0.000510975 0)
(0.259996 -0.000512731 0)
(0.260006 0.00051371 0)
(0.259997 -0.000514557 0)
(0.260004 0.000515135 0)
(0.259998 -0.000515952 0)
(0.260003 0.000516511 0)
(0.259999 -0.000516455 0)
(0.260001 0.000516944 0)
(0.260001 -0.000517332 0)
(0.259459 0.0519831 0)
(0.260153 0.00418692 0)
(0.262677 -0.000393633 0)
(0.261401 -0.00123535 0)
(0.260604 -2.75629e-06 0)
(0.260176 -0.000595672 0)
(0.260069 0.000379307 0)
(0.259996 -0.000450966 0)
(0.260016 0.000439972 0)
(0.259985 -0.00044673 0)
(0.260014 0.000450283 0)
(0.259986 -0.000454351 0)
(0.260014 0.000458602 0)
(0.259987 -0.000462078 0)
(0.260013 0.000465766 0)
(0.259988 -0.000469425 0)
(0.260013 0.000472834 0)
(0.259988 -0.000475995 0)
(0.260012 0.00047918 0)
(0.259989 -0.000482199 0)
(0.260011 0.000484974 0)
(0.25999 -0.000488038 0)
(0.26001 0.000491041 0)
(0.25999 -0.000493691 0)
(0.26001 0.000496051 0)
(0.259991 -0.000498228 0)
(0.26001 0.000500605 0)
(0.259992 -0.000503059 0)
(0.260009 0.000504525 0)
(0.259993 -0.000506252 0)
(0.260008 0.000508264 0)
(0.259994 -0.000510165 0)
(0.260007 0.000512247 0)
(0.259994 -0.000513516 0)
(0.260007 0.000514695 0)
(0.259995 -0.000515755 0)
(0.260006 0.000516053 0)
(0.259997 -0.000517251 0)
(0.260005 0.000518389 0)
(0.259997 -0.000519488 0)
(0.260004 0.000520117 0)
(0.259998 -0.000520782 0)
(0.260002 0.000522269 0)
(0.259999 -0.000521447 0)
(0.259994 0.000522344 0)
(0.269217 -0.000423754 0)
(0.262567 0.00041697 0)
(0.264146 -0.000423222 0)
(0.262168 0.000427882 0)
(0.26074 -0.000433558 0)
(0.260227 0.000438091 0)
(0.260035 -0.000443027 0)
(0.260022 0.000447265 0)
(0.259986 -0.000451312 0)
(0.260014 0.000455307 0)
(0.259986 -0.000459764 0)
(0.260013 0.000463929 0)
(0.259987 -0.000467947 0)
(0.260013 0.000471772 0)
(0.259987 -0.000475546 0)
(0.260013 0.000478921 0)
(0.259988 -0.000482112 0)
(0.260011 0.000485663 0)
(0.259988 -0.000489183 0)
(0.260011 0.000492285 0)
(0.259989 -0.000495357 0)
(0.26001 0.000498305 0)
(0.259989 -0.000501072 0)
(0.26001 0.000503497 0)
(0.25999 -0.000505842 0)
(0.260008 0.000508454 0)
(0.259991 -0.000511093 0)
(0.260008 0.000513233 0)
(0.25999 -0.000515373 0)
(0.260006 0.000517368 0)
(0.259991 -0.000519262 0)
(0.260006 0.000520866 0)
(0.259993 -0.000522256 0)
(0.260006 0.000523642 0)
(0.259994 -0.000524966 0)
(0.260004 0.000526317 0)
(0.259991 -0.000527882 0)
(0.260001 0.000528988 0)
(0.259993 -0.000529851 0)
(0.260001 0.000530801 0)
(0.259993 -0.000531493 0)
(0.259999 0.000532229 0)
(0.259996 -0.000532148 0)
(0.260002 0.000533495 0)
(0.259998 -0.000529557 0)
(0.469128 -0.00413575 0)
(0.371625 -0.0748921 2.51942e-31)
(0.339702 -0.0636149 -1.99324e-30)
(0.301857 -0.055744 -7.87571e-30)
(0.263593 -0.0770185 0)
(0.464033 -0.0604437 0)
(0.399216 -0.0531179 0)
(0.349775 -0.046098 0)
(0.315829 -0.0391166 -2.46189e-30)
(0.282478 -0.039738 0)
(0.466153 -0.0436341 0)
(0.414844 -0.037895 0)
(0.358121 -0.0344882 0)
(0.324489 -0.0284305 -1.39332e-30)
(0.292059 -0.0320957 0)
(0.460326 -0.026195 0)
(0.416334 -0.0223801 0)
(0.362454 -0.0209097 0)
(0.32998 -0.0191297 5.92736e-31)
(0.298129 -0.0207656 0)
(0.454653 -0.08691 0)
(0.40394 -0.00658749 0)
(0.362344 -0.00378882 0)
(0.332881 -0.00287106 8.96816e-32)
(0.301782 -0.00897947 0)
(0.259476 -0.051178 0)
(0.26015 -0.00500609 0)
(0.262678 0.00122373 0)
(0.261401 0.000396462 0)
(0.260603 0.000851423 0)
(0.260176 -0.000262231 0)
(0.260069 0.00048789 0)
(0.259996 -0.000425396 0)
(0.260016 0.000445138 0)
(0.259986 -0.000446298 0)
(0.260013 0.000450528 0)
(0.259987 -0.000454434 0)
(0.260013 0.000458024 0)
(0.259987 -0.000462003 0)
(0.260013 0.000465779 0)
(0.259988 -0.000469557 0)
(0.260012 0.000472821 0)
(0.259989 -0.000475592 0)
(0.260012 0.000478838 0)
(0.259989 -0.000482174 0)
(0.260011 0.000485291 0)
(0.25999 -0.000488036 0)
(0.260011 0.000490775 0)
(0.25999 -0.000493773 0)
(0.26001 0.000496161 0)
(0.259992 -0.000498007 0)
(0.260009 0.000500175 0)
(0.259992 -0.000502241 0)
(0.260009 0.000504868 0)
(0.259993 -0.000506983 0)
(0.260008 0.000508758 0)
(0.259993 -0.000510738 0)
(0.260007 0.000512186 0)
(0.259994 -0.000513697 0)
(0.260006 0.000514935 0)
(0.259996 -0.000515583 0)
(0.260006 0.000517035 0)
(0.259997 -0.000518031 0)
(0.260005 0.000518938 0)
(0.259997 -0.000519427 0)
(0.260005 0.000520347 0)
(0.259997 -0.000520964 0)
(0.260005 0.000521675 0)
(0.259998 -0.000522164 0)
(0.260011 0.000522584 0)
(0.262075 -0.0312832 0)
(0.256971 -0.00430357 0)
(0.260583 0.000366695 0)
(0.260453 0.0014155 0)
(0.260239 0.000133525 0)
(0.260107 0.000655514 0)
(0.260015 -0.000351872 0)
(0.260021 0.000455372 0)
(0.259987 -0.000433621 0)
(0.260014 0.000443028 0)
(0.259986 -0.000446567 0)
(0.260013 0.00045049 0)
(0.259987 -0.000454739 0)
(0.260013 0.000458187 0)
(0.259988 -0.000461735 0)
(0.260013 0.000465019 0)
(0.259988 -0.000468407 0)
(0.260012 0.000471992 0)
(0.259989 -0.000475237 0)
(0.260012 0.000478153 0)
(0.259989 -0.000480984 0)
(0.260011 0.000483951 0)
(0.25999 -0.000486699 0)
(0.26001 0.000488975 0)
(0.259991 -0.000491455 0)
(0.26001 0.000494065 0)
(0.259992 -0.000496545 0)
(0.260009 0.000498878 0)
(0.259992 -0.000500438 0)
(0.260008 0.000502248 0)
(0.259993 -0.000504123 0)
(0.260008 0.000505673 0)
(0.259994 -0.000507313 0)
(0.260007 0.00050856 0)
(0.259995 -0.000509969 0)
(0.260006 0.000511448 0)
(0.259996 -0.000512393 0)
(0.260006 0.000513499 0)
(0.259996 -0.000514415 0)
(0.260005 0.000515536 0)
(0.259997 -0.000516112 0)
(0.260005 0.00051682 0)
(0.259997 -0.000517448 0)
(0.260005 0.000516938 0)
(0.259997 -0.000518164 0)
(0.266193 -0.0237247 0)
(0.256695 -0.00514315 0)
(0.259137 0.000758043 0)
(0.25951 0.000487325 0)
(0.259875 0.00097183 0)
(0.259936 -0.000189134 0)
(0.260004 0.000515035 0)
(0.259982 -0.000413363 0)
(0.260014 0.00044578 0)
(0.259986 -0.000444111 0)
(0.260014 0.0004487 0)
(0.259987 -0.000452957 0)
(0.260013 0.000456333 0)
(0.259987 -0.000460369 0)
(0.260013 0.000463939 0)
(0.259988 -0.000467541 0)
(0.260012 0.000470863 0)
(0.259989 -0.00047399 0)
(0.260012 0.000477239 0)
(0.259989 -0.000480401 0)
(0.260011 0.00048348 0)
(0.25999 -0.000486206 0)
(0.26001 0.000488885 0)
(0.25999 -0.000491629 0)
(0.26001 0.000494047 0)
(0.259991 -0.000496365 0)
(0.260009 0.000498576 0)
(0.259992 -0.00050064 0)
(0.260009 0.000502982 0)
(0.259993 -0.000505033 0)
(0.260008 0.00050673 0)
(0.259993 -0.00050851 0)
(0.260007 0.000509903 0)
(0.259994 -0.000511449 0)
(0.260006 0.000512704 0)
(0.259995 -0.000513847 0)
(0.260006 0.00051517 0)
(0.259996 -0.000516168 0)
(0.260005 0.0005172 0)
(0.259996 -0.000517773 0)
(0.260005 0.000518584 0)
(0.259997 -0.000519103 0)
(0.260005 0.000519486 0)
(0.259996 -0.000520727 0)
(0.260006 0.000520022 0)
(0.269352 -0.0155341 0)
(0.257164 -0.00296409 0)
(0.258155 -0.000348872 0)
(0.258861 0.00101907 0)
(0.259527 -3.9811e-05 0)
(0.259852 0.000595202 0)
(0.25994 -0.000372336 0)
(0.260004 0.000451437 0)
(0.259984 -0.000436045 0)
(0.260014 0.000443916 0)
(0.259987 -0.000447741 0)
(0.260014 0.000451399 0)
(0.259987 -0.000455576 0)
(0.260013 0.00045911 0)
(0.259988 -0.000462747 0)
(0.260013 0.000466179 0)
(0.259988 -0.000469569 0)
(0.260012 0.000472962 0)
(0.259989 -0.000476122 0)
(0.260012 0.00047918 0)
(0.25999 -0.000482057 0)
(0.260011 0.000484984 0)
(0.25999 -0.000487732 0)
(0.26001 0.000490234 0)
(0.259991 -0.000492734 0)
(0.26001 0.000495128 0)
(0.259992 -0.000497467 0)
(0.260009 0.000499715 0)
(0.259993 -0.000501603 0)
(0.260009 0.000503462 0)
(0.259994 -0.00050534 0)
(0.260009 0.000506971 0)
(0.259995 -0.000508616 0)
(0.260008 0.000509955 0)
(0.259996 -0.000511302 0)
(0.260007 0.000512559 0)
(0.259996 -0.000513617 0)
(0.260007 0.000514682 0)
(0.259997 -0.000515485 0)
(0.260006 0.000516436 0)
(0.259997 -0.000517098 0)
(0.260007 0.000517771 0)
(0.259997 -0.000518378 0)
(0.260007 0.000518511 0)
(0.259996 -0.00051991 0)
(0.271306 -0.00684373 0)
(0.257165 -0.00203932 0)
(0.257578 0.000488534 0)
(0.258454 7.63675e-05 0)
(0.259416 0.000722475 0)
(0.259783 -0.000289845 0)
(0.259967 0.000479106 0)
(0.259977 -0.000421713 0)
(0.260015 0.000442648 0)
(0.259987 -0.000443461 0)
(0.260014 0.000447583 0)
(0.259987 -0.000451964 0)
(0.260013 0.000455304 0)
(0.259986 -0.000459406 0)
(0.260012 0.00046276 0)
(0.259987 -0.000466503 0)
(0.260011 0.000469631 0)
(0.259987 -0.000473113 0)
(0.26001 0.0004761 0)
(0.259988 -0.00047942 0)
(0.26001 0.000482222 0)
(0.259988 -0.00048522 0)
(0.260009 0.000487714 0)
(0.259989 -0.000490523 0)
(0.260008 0.0004928 0)
(0.259989 -0.000495366 0)
(0.260007 0.000497474 0)
(0.25999 -0.000499712 0)
(0.260006 0.000501751 0)
(0.25999 -0.000503832 0)
(0.260005 0.000505521 0)
(0.259991 -0.000507302 0)
(0.260004 0.000508693 0)
(0.259991 -0.000510241 0)
(0.260003 0.000511445 0)
(0.259992 -0.000512755 0)
(0.260002 0.000513873 0)
(0.259992 -0.000514968 0)
(0.260002 0.00051591 0)
(0.259993 -0.000516646 0)
(0.260002 0.000517307 0)
(0.259993 -0.000517856 0)
(0.260002 0.000518318 0)
(0.259992 -0.00051918 0)
(0.26 0.000520262 0)
)
;

boundaryField
{
    AirInlet
    {
        type            fixedValue;
        value           uniform (0.1 0 0);
    }
    WaterInlet
    {
        type            fixedValue;
        value           uniform (0.5 0 0);
    }
    ChannelWall
    {
        type            fixedValue;
        value           uniform (0 0 0);
    }
    Outlet
    {
        type            pressureInletOutletVelocity;
        value           nonuniform List<vector> 
11
(
(0.259995 0.000518625 0)
(0.260004 -0.000518308 0)
(0.259999 0.000519174 0)
(0.260001 -0.000517332 0)
(0.259994 0.000522344 0)
(0.259998 -0.000529557 0)
(0.260011 0.000522584 0)
(0.259997 -0.000518164 0)
(0.260006 0.000520022 0)
(0.259996 -0.00051991 0)
(0.26 0.000520262 0)
)
;
    }
    FrontAndBack
    {
        type            empty;
    }
}


// ************************************************************************* //
