/*--------------------------------*- C++ -*----------------------------------*\
| =========                 |                                                 |
| \\      /  F ield         | OpenFOAM: The Open Source CFD Toolbox           |
|  \\    /   O peration     | Version:  2.3.0                                 |
|   \\  /    A nd           | Web:      www.OpenFOAM.org                      |
|    \\/     M anipulation  |                                                 |
\*---------------------------------------------------------------------------*/
FoamFile
{
    version     2.0;
    format      ascii;
    class       volScalarField;
    location    "0.328";
    object      p_rgh;
}
// * * * * * * * * * * * * * * * * * * * * * * * * * * * * * * * * * * * * * //

dimensions      [1 -1 -2 0 0 0 0];

internalField   nonuniform List<scalar> 
545
(
-7.34786e+07
-1.36002e+07
-1.88493e+06
-2.44626e+06
-7.93354e+06
5.275e+07
-2.82172e+06
-2.21449e+06
-2.35313e+06
-6.46377e+06
9.17753e+07
3.23072e+06
-403227
-451601
-6.77988e+06
5.32125e+07
-2.98818e+06
-1.785e+06
-201273
-6.06728e+06
-8.45395e+07
-2.22121e+06
-487858
3.79765e+06
1.0646e+07
-6.54272e+06
-1.76386e+06
-783883
-172239
-73712.9
-51348.7
-62610.3
-72021.8
-77496.2
-79036
-79300.8
-78359.7
-77350.4
-75528.1
-73859.9
-71330.9
-69017.9
-66000.9
-63313.7
-60013.6
-57272
-54086
-51643.1
-48978.7
-47002.8
-44968.2
-43555.4
-41870.3
-40969.1
-39542.3
-38734.8
-37324.7
-36397.9
-34715.3
-33481.5
-31329.7
-29690.4
-26986.1
-24660
-21324
-18380.1
-14306.7
-10851.1
-6426.78
-3124.56
-5.77377e+06
-1.13285e+06
-746627
-280176
-169287
-103158
-85407.7
-80632.1
-80071.4
-79641.1
-79282
-78308.3
-77216.7
-75517.3
-73727.2
-71353.7
-68875
-66017.6
-63173.9
-60012.3
-57106.3
-54098.1
-51443.7
-49040.7
-46823.6
-45011.6
-43396.1
-41922.6
-40831.1
-39609.1
-38600.3
-37419.7
-36276.3
-34819.7
-33360.4
-31455.4
-29579.3
-27116.2
-24552.4
-21491.3
-18252.9
-14439
-10601.3
-6363.58
-2153.42
-6.75897e+06
-597695
-487559
-164068
-142968
-97648.2
-85640.8
-81204.7
-81069
-79669.6
-79697.3
-78008.8
-77523.8
-75175.9
-74019.6
-71017
-69166.9
-65681.6
-63504.1
-59637.1
-57430.7
-53711.2
-51717.5
-48695.9
-47110.8
-44669.4
-43732.9
-41552.5
-41220.5
-39244.2
-38986.2
-37054.6
-36676.8
-34421.3
-33751.1
-31054.4
-29979
-26736.8
-24948.1
-21135.9
-18689
-14023.2
-10977.6
-5833.73
-2857.14
-7.14685e+06
469200
38570.1
46349.7
-77337.8
-74702.8
-78781.5
-79179.1
-81782.7
-79263.5
-80455.6
-77370
-78161
-74509
-74627.6
-70375.2
-69761.5
-65059.4
-64178.5
-58963.9
-58090.8
-53043.5
-52273
-48124.3
-47650.3
-44114.4
-44349.1
-40918.8
-41927.4
-38613.8
-39663.5
-36412.7
-37376.5
-33723.1
-34397.2
-30371.5
-30623.4
-26095.6
-25569.2
-20523.8
-19414.4
-13340.2
-11589.3
-4863.9
-2700.34
-1.73451e+06
2.91213e+06
942510
244509
-27065.2
-61752.4
-79019.5
-79425.6
-83596.3
-78688.8
-81498.1
-76366.8
-79109.6
-73438.8
-75582.3
-69395.4
-70665.5
-64098.5
-65235.9
-57900.1
-59141.1
-51999.3
-53122.6
-47350.5
-48393.6
-43349.1
-45272.7
-39910.7
-43048.3
-37595.4
-40737.3
-35369.7
-38486.9
-32550.5
-35490.7
-29180.8
-31716.7
-25034.1
-26567.2
-19474.6
-20638.8
-12174.2
-12717.2
-3584.23
-4350.8
-1.2617e+07
4.20665e+06
1.63895e+06
374995
-2607.76
-62215.1
-75387.4
-78972.1
-77645.8
-77158.3
-77548.8
-78264.2
-76500.3
-71753.6
-68738.7
-68370.2
-65620.9
-62970.2
-61275
-59990.3
-56482
-51601.5
-47011.4
-44262.2
-43991.5
-40190.7
-39352.4
-38665.1
-39217.4
-38069.4
-36723.8
-36719.4
-36106.2
-34876.5
-31977.1
-27271.6
-24126
-23709.5
-20875.7
-18073.5
-16697.2
-14478.1
-9673.05
-3378.8
915.275
-8.45266e+07
-2.20954e+06
-478132
3.80555e+06
1.06521e+07
5.32254e+07
-2.97645e+06
-1.77522e+06
-193413
-6.06128e+06
9.17883e+07
3.24252e+06
-393388
-443798
-6.77404e+06
5.2763e+07
-2.80994e+06
-2.20461e+06
-2.34539e+06
-6.45809e+06
-7.34657e+07
-1.35885e+07
-1.87504e+06
-2.43854e+06
-7.9279e+06
-1.72995e+06
2.90964e+06
946059
241475
-23206
-65193.1
-75563.2
-82810.3
-80086.7
-82128.9
-77823
-80231.7
-75153.7
-76976.8
-71860.1
-73075
-66862.5
-67823.8
-61331.9
-62060
-55028.8
-55939.8
-49370.5
-51227.5
-44578.3
-47260.2
-41424.5
-43886.8
-38918
-41788.8
-36577
-39649.9
-34063.7
-36967
-31184.2
-33128.5
-27669.6
-29074.1
-22474.3
-23507.3
-16412.9
-16771.2
-8532.44
-9068.97
-1398.43
-7.14236e+06
468660
41144.9
45060.2
-74933
-76425.8
-76793.3
-80975.2
-79763.3
-81081.5
-78350.1
-79397.1
-75879.3
-76308.7
-72454.4
-72306.2
-67571.3
-67040.4
-62001.6
-61239.1
-55854.9
-55226.2
-50259.2
-50341.1
-45599
-46353.4
-42282.9
-43167.7
-39689.3
-40948.8
-37419.7
-38750.8
-34958
-36099.2
-31990.6
-32469.3
-28318.2
-28274.2
-23248.3
-22693.9
-17114.7
-15930.3
-9519.92
-8051.33
-1056.6
-6.75515e+06
-596433
-485940
-163848
-141852
-97922.2
-84909.9
-81609.3
-80345.5
-80068
-78938.8
-78461.3
-76644.1
-75488.5
-73178.3
-71415.5
-68365.2
-66146.8
-62802.4
-60307.6
-56773.5
-54403.6
-51211.6
-49460.3
-46615.7
-45449.9
-43235.8
-42307.2
-40626.4
-39999.6
-38367.6
-37755.4
-35935.7
-35084.8
-32947.5
-31561.1
-29183.5
-27281
-24154.6
-21700.4
-17996
-14940.3
-10520.1
-7325
-2946.76
-5.77003e+06
-1.13087e+06
-745207
-279433
-168583
-102929
-85081.2
-80540
-79762.6
-79539.2
-78943.2
-78178.8
-76786.3
-75288.7
-73293.1
-71184.9
-68507.9
-65943
-62946.2
-60114.5
-56993.6
-54290.7
-51460.6
-49330.6
-46884.6
-45324.6
-43457.1
-42201.4
-40825.2
-39843.7
-38542.5
-37569.5
-36107.4
-34882.1
-33095.7
-31405.5
-29274.6
-27069.8
-24258.3
-21483.4
-18107
-14713.3
-10800.2
-7029.46
-2378.43
-6.53903e+06
-1.76152e+06
-782528
-171320
-73138.8
-50974.5
-62384.5
-71781.2
-77285.3
-78788.6
-79061.9
-78048.1
-77018.4
-75140.8
-73507.5
-70986.2
-68742
-65763.9
-63200
-59946.7
-57300.9
-54154.9
-51799.6
-49154.6
-47224.7
-45174.4
-43778.9
-42037.8
-41139
-39649.3
-38833.5
-37331.4
-36386.8
-34611.4
-33347.1
-31131.6
-29495.3
-26775.2
-24469.7
-21174.8
-18331.4
-14453.4
-11114.6
-7079.81
-3771.37
)
;

boundaryField
{
    AirInlet
    {
        type            fixedFluxPressure;
        gradient        uniform 3.61396e+08;
        value           uniform -1.26134e+07;
    }
    WaterInlet
    {
        type            fixedFluxPressure;
        gradient        nonuniform List<scalar> 10(0 -0.105786 0 0 0 0 0 0 0 0);
        value           nonuniform List<scalar> 10(-7.34786e+07 5.275e+07 9.17753e+07 5.32125e+07 -8.45395e+07 -8.45266e+07 5.32254e+07 9.17883e+07 5.2763e+07 -7.34657e+07);
    }
    ChannelWall
    {
        type            fixedFluxPressure;
        gradient        uniform 0;
        value           nonuniform List<scalar> 
110
(
-8.45395e+07
-2.22121e+06
-487858
3.79765e+06
1.0646e+07
-8.45266e+07
-2.20954e+06
-478132
3.80555e+06
1.06521e+07
-7.34657e+07
-1.35885e+07
-1.87504e+06
-2.43854e+06
-7.9279e+06
-6.53903e+06
-1.76152e+06
-782528
-171320
-73138.8
-50974.5
-62384.5
-71781.2
-77285.3
-78788.6
-79061.9
-78048.1
-77018.4
-75140.8
-73507.5
-70986.2
-68742
-65763.9
-63200
-59946.7
-57300.9
-54154.9
-51799.6
-49154.6
-47224.7
-45174.4
-43778.9
-42037.8
-41139
-39649.3
-38833.5
-37331.4
-36386.8
-34611.4
-33347.1
-31131.6
-29495.3
-26775.2
-24469.7
-21174.8
-18331.4
-14453.4
-11114.6
-7079.81
-3771.37
-7.34786e+07
-1.36002e+07
-1.88493e+06
-2.44626e+06
-7.93354e+06
-6.54272e+06
-1.76386e+06
-783883
-172239
-73712.9
-51348.7
-62610.3
-72021.8
-77496.2
-79036
-79300.8
-78359.7
-77350.4
-75528.1
-73859.9
-71330.9
-69017.9
-66000.9
-63313.7
-60013.6
-57272
-54086
-51643.1
-48978.7
-47002.8
-44968.2
-43555.4
-41870.3
-40969.1
-39542.3
-38734.8
-37324.7
-36397.9
-34715.3
-33481.5
-31329.7
-29690.4
-26986.1
-24660
-21324
-18380.1
-14306.7
-10851.1
-6426.78
-3124.56
)
;
    }
    Outlet
    {
        type            totalPressure;
        rho             rho;
        psi             none;
        gamma           1;
        p0              uniform 0;
        value           uniform 0;
    }
    FrontAndBack
    {
        type            empty;
    }
}


// ************************************************************************* //
