/*--------------------------------*- C++ -*----------------------------------*\
| =========                 |                                                 |
| \\      /  F ield         | OpenFOAM: The Open Source CFD Toolbox           |
|  \\    /   O peration     | Version:  2.3.0                                 |
|   \\  /    A nd           | Web:      www.OpenFOAM.org                      |
|    \\/     M anipulation  |                                                 |
\*---------------------------------------------------------------------------*/
FoamFile
{
    version     2.0;
    format      ascii;
    class       volScalarField;
    location    "4.90161";
    object      epsilon.air;
}
// * * * * * * * * * * * * * * * * * * * * * * * * * * * * * * * * * * * * * //

dimensions      [0 2 -3 0 0 0 0];

internalField   nonuniform List<scalar> 
1000
(
0.161267
0.318731
0.281107
0.183292
0.132665
0.0961189
0.051419
0.0278306
0.0161244
0.0224163
0.0410385
0.0304287
0.0215315
0.167694
0.150889
0.0354765
0.0157311
0.0164312
0.0318605
0.0667355
0.30278
0.165546
0.039436
0.00862225
0.0061103
0.0052227
0.00653018
0.0105708
0.0245273
0.0238308
0.0212593
0.0103287
0.0151528
0.0462864
0.205345
0.113084
0.00791255
0.00982062
0.00812668
0.0445194
0.382468
0.0476406
0.0172482
0.0145469
0.0100333
0.0108152
0.014442
0.0221345
0.0414926
0.034372
0.0151502
0.0124903
0.0106072
0.0156406
0.159132
0.201795
0.0176327
0.0109103
0.0123688
0.0396324
0.427625
0.0210644
0.0186593
0.0204455
0.0164418
0.0154005
0.0178822
0.0259854
0.0437826
0.0254885
0.022312
0.0216312
0.0169346
0.0145844
0.139419
0.214287
0.0272134
0.00966499
0.0174717
0.0383706
0.447865
0.0166779
0.022771
0.0245304
0.0201197
0.0171277
0.0194266
0.027465
0.0416489
0.0245533
0.0246536
0.0183247
0.0225391
0.0236855
0.16299
0.184941
0.0413163
0.0145725
0.016043
0.0333495
0.476463
0.0191716
0.023808
0.0283257
0.0223623
0.0182829
0.0193152
0.0252518
0.0370495
0.0192108
0.0211277
0.0198862
0.0154664
0.0489308
0.161459
0.145541
0.0934444
0.0600898
0.00974045
0.0261453
0.498064
0.0226421
0.0222713
0.0297096
0.0231711
0.0182449
0.0183304
0.0231347
0.0305532
0.0295112
0.0120142
0.0254194
0.0463863
0.0725148
0.108381
0.0741427
0.0927094
0.121299
0.0791753
0.0284404
0.522352
0.0217894
0.019379
0.0277926
0.0222524
0.017794
0.0172659
0.019833
0.0240661
0.0234134
0.014518
0.00751064
0.0180014
0.0270309
0.0134352
0.00350094
0.00740871
0.0628957
0.103087
0.0419875
0.536387
0.0164923
0.0187854
0.023144
0.0193339
0.0161639
0.0157148
0.0173831
0.0189897
0.0167908
0.00946775
0.00583578
0.00456024
0.00387455
0.00397528
0.00552131
0.0124862
0.0136293
0.105217
0.0511398
0.55886
0.0315449
0.0131397
0.0127893
0.0116219
0.0104052
0.0101173
0.010495
0.0110416
0.00989153
0.00548413
0.000938469
0.00216589
0.00250107
0.00125956
0.00466423
0.0110538
0.00578178
0.086626
0.070689
0.0559082
0.0684631
0.0614381
0.0421917
0.0314801
0.0209623
0.0120594
0.00833536
0.00685225
0.00912215
0.0113451
0.00896934
0.00964711
0.023377
0.0284182
0.0117831
0.00718095
0.00696045
0.00989932
0.0232504
0.0806817
0.0573549
0.0168555
0.00701205
0.00558304
0.004825
0.00480464
0.00613982
0.0105197
0.00753493
0.00482091
0.00225434
0.00176706
0.00551135
0.0452537
0.0231703
0.00445778
0.00413788
0.00466804
0.0206702
0.127242
0.0241232
0.0099502
0.00514223
0.00418944
0.00408821
0.00475591
0.00656815
0.0120317
0.00757099
0.00250452
0.00270652
0.00209393
0.00228201
0.043651
0.0363922
0.00863956
0.00524756
0.00776118
0.0191044
0.154012
0.0122703
0.00994199
0.00598551
0.00478781
0.00424881
0.0048245
0.00670417
0.0112035
0.00800003
0.00380232
0.00426935
0.00288661
0.00217293
0.0401194
0.0444672
0.0116134
0.00565218
0.00916017
0.0192968
0.172102
0.0128555
0.013525
0.00656855
0.00501393
0.0041552
0.0045202
0.00627866
0.00971069
0.00939702
0.00584869
0.00605172
0.0024405
0.00493723
0.0457752
0.0458171
0.0164993
0.00824393
0.00958961
0.0180136
0.187876
0.0157362
0.0154731
0.00674692
0.00501734
0.00383803
0.0038869
0.0050941
0.00785907
0.00717017
0.00730828
0.010258
0.00894246
0.0190841
0.0514873
0.0460485
0.0321816
0.0223723
0.0101298
0.0142021
0.206605
0.018912
0.0155693
0.00623726
0.0046258
0.0034031
0.00331955
0.00427829
0.00531315
0.00546736
0.00318761
0.0120161
0.0211124
0.0317796
0.0472608
0.0371059
0.0373566
0.0390389
0.0308358
0.0142905
0.231504
0.0210502
0.0112555
0.00490091
0.00389889
0.00301726
0.00282721
0.00324409
0.00395009
0.00375239
0.00329886
0.00302243
0.00954105
0.0132553
0.00915339
0.00366083
0.00610668
0.0268329
0.0352972
0.0190447
0.307563
0.0216967
0.00671125
0.00321532
0.00285174
0.00248335
0.00240872
0.00265185
0.00276295
0.00269311
0.00200692
0.00170412
0.00248903
0.00325181
0.00282631
0.00345223
0.00444428
0.0127344
0.0350392
0.0214781
0.341084
0.0603921
0.00308212
0.00175658
0.00170374
0.00164525
0.0016238
0.00163409
0.00170284
0.00173235
0.00155045
0.00100077
0.00104563
0.00119222
0.00143568
0.00245951
0.0025203
0.00808498
0.0314167
0.0281821
0.0331274
0.0340621
0.0285307
0.0212046
0.015382
0.00925346
0.00653773
0.00534022
0.00492813
0.0050847
0.00548264
0.00529098
0.00528853
0.0066045
0.00996732
0.00807228
0.00559243
0.00517923
0.00667661
0.0129542
0.0308205
0.0291393
0.0111764
0.00616621
0.00583472
0.00407239
0.00365445
0.00416517
0.00581352
0.00462889
0.00367804
0.00224767
0.00151252
0.00226561
0.0165219
0.00919972
0.00351378
0.00258595
0.00356052
0.0128796
0.0346904
0.0255126
0.00586898
0.00303643
0.00270334
0.00246282
0.00268586
0.00348581
0.00528782
0.00452143
0.00218869
0.00173902
0.0013922
0.00130212
0.0158015
0.0131021
0.00605188
0.00335806
0.00639515
0.0122728
0.0426236
0.0203999
0.00735551
0.002857
0.00233185
0.00208055
0.00231608
0.00317874
0.00406604
0.00403855
0.00253578
0.00250724
0.00171994
0.00129854
0.0159048
0.0171886
0.00781916
0.00407554
0.00722303
0.0126401
0.0444133
0.0204972
0.0108928
0.00281631
0.00211076
0.00178721
0.0019057
0.00256702
0.00326042
0.00351239
0.00315907
0.00383821
0.00191905
0.00310842
0.0238759
0.024043
0.0127832
0.0059479
0.0077092
0.011734
0.0558839
0.0153112
0.0131899
0.00254131
0.00180872
0.0014038
0.00137297
0.00172831
0.00243096
0.00222234
0.00345936
0.00589434
0.00559649
0.00934407
0.0254832
0.0239916
0.0165664
0.0107335
0.00887935
0.0104658
0.059805
0.0155073
0.0138508
0.00199099
0.00148027
0.00112317
0.00107644
0.00131862
0.00166894
0.00175639
0.00169315
0.00699304
0.0123845
0.0186871
0.0269233
0.021503
0.0187546
0.0181968
0.0162322
0.0100151
0.0636458
0.0169064
0.00893449
0.00140707
0.00120667
0.0010022
0.000953985
0.00107372
0.0012262
0.00136314
0.00124586
0.00207955
0.00530237
0.00708518
0.0064873
0.00191471
0.00324962
0.0164427
0.0177504
0.0113587
0.0491529
0.027424
0.00437217
0.00114815
0.00108043
0.000957426
0.000926498
0.0010096
0.00107043
0.00113292
0.00104727
0.000627478
0.000696481
0.00117065
0.00200911
0.00233205
0.00238145
0.0114625
0.0198949
0.0125258
0.0501593
0.0661355
0.00216182
0.00110386
0.00108098
0.00105928
0.0010496
0.00105414
0.00107049
0.00109731
0.00111795
0.00103229
0.000777358
0.00112651
0.0012495
0.00133216
0.00134146
0.00768452
0.0212541
0.0149376
0.05126
0.0556268
0.0590307
0.052497
0.036924
0.0220046
0.0144655
0.00990325
0.00811011
0.00861986
0.0106484
0.0079917
0.00886219
0.0218951
0.026303
0.0118372
0.00685397
0.00605616
0.00924735
0.0234356
0.0356885
0.0192057
0.00859542
0.00674411
0.0072154
0.00487173
0.00476568
0.00607269
0.00900699
0.00565998
0.0048825
0.00288488
0.00233886
0.00885461
0.0475893
0.0236198
0.00444102
0.00270718
0.00389648
0.0217279
0.0292296
0.0265118
0.00776557
0.00529843
0.00446415
0.00411001
0.00474892
0.00669938
0.00956686
0.00387261
0.00205711
0.00226335
0.00189124
0.0023855
0.0457775
0.0385145
0.00877833
0.0029586
0.00746893
0.0199867
0.0295673
0.0280292
0.0102807
0.00588206
0.00475189
0.0042507
0.0048374
0.00697508
0.00875951
0.00208365
0.00277374
0.00313592
0.00223349
0.00206405
0.0393902
0.0439246
0.0116559
0.0040853
0.00888098
0.0199972
0.0310913
0.0333299
0.0137464
0.00659222
0.00501322
0.00416727
0.00459342
0.00654618
0.00738045
0.00146657
0.00323793
0.00380528
0.00245086
0.00594892
0.0454466
0.046669
0.0200466
0.00610573
0.00904434
0.0187109
0.0326685
0.023779
0.0153028
0.00680934
0.00500664
0.00383497
0.00389488
0.00520674
0.00632911
0.00143781
0.00304337
0.00476731
0.00463599
0.00942448
0.0274573
0.025031
0.0147139
0.00811817
0.00749125
0.0157734
0.0381453
0.0190269
0.0154556
0.00626973
0.00462353
0.0034039
0.00329841
0.00428497
0.0059063
0.00218486
0.00227563
0.00624076
0.00848149
0.0131415
0.0214039
0.018784
0.0152459
0.0108934
0.0100357
0.0123554
0.0433162
0.0232204
0.0114759
0.00492849
0.00389883
0.00301765
0.00283509
0.00325399
0.00392254
0.00356142
0.00125739
0.00184415
0.00651882
0.00931064
0.00802848
0.00388286
0.00148886
0.00451872
0.00971178
0.0133239
0.0559842
0.0462181
0.00698667
0.00320391
0.00285129
0.0024845
0.00241534
0.00267146
0.00276129
0.00269454
0.00145612
0.00121748
0.00184145
0.00255294
0.00171721
0.0032715
0.0029351
0.00342275
0.00733006
0.014595
0.0642765
0.0458382
0.00331229
0.00176098
0.00170374
0.00164477
0.00162051
0.00162435
0.00172214
0.00182044
0.00166107
0.00122875
0.000934907
0.000895989
0.00312312
0.00213687
0.00224115
0.0205089
0.00991118
0.0186933
0.108876
0.153903
0.22003
0.23089
0.16876
0.105321
0.0626366
0.0364334
0.0233937
0.024154
0.0460875
0.0380254
0.0207523
0.176102
0.140271
0.0391544
0.014948
0.0129971
0.0313866
0.069588
0.063488
0.0124699
0.0105658
0.00858053
0.011319
0.00473815
0.00586553
0.00903801
0.0207929
0.0176273
0.0178673
0.0151976
0.0152571
0.0534509
0.224454
0.117174
0.00797159
0.00634219
0.00665409
0.0480742
0.056957
0.02039
0.0193748
0.0144265
0.0104737
0.0109017
0.0143928
0.0219612
0.0386083
0.0208313
0.0106648
0.00719718
0.00764591
0.0159216
0.164831
0.210468
0.0181497
0.00551258
0.0116977
0.0423074
0.059638
0.0199599
0.0219384
0.0202537
0.0162342
0.0154301
0.0179528
0.0261967
0.0390402
0.0106978
0.00917606
0.0117175
0.0108942
0.0118917
0.128917
0.213445
0.0274742
0.0102684
0.0170232
0.041106
0.0630386
0.0252477
0.0224088
0.02423
0.0201291
0.0171405
0.0195042
0.0278482
0.0357575
0.00880614
0.0192976
0.0119306
0.00401793
0.0203401
0.153755
0.184606
0.048351
0.0143461
0.016478
0.0357922
0.0673933
0.0322552
0.0218814
0.0283987
0.0223482
0.0182773
0.0193551
0.0255978
0.0313483
0.00907627
0.0213549
0.0209877
0.0285717
0.0530893
0.156953
0.126574
0.078591
0.0391503
0.00615321
0.0290259
0.07278
0.0391204
0.020839
0.0296561
0.023165
0.0182418
0.0182888
0.0230958
0.0302689
0.0105761
0.0170832
0.0163585
0.0155815
0.0412959
0.120635
0.0760386
0.0539999
0.03514
0.025598
0.0262014
0.0791202
0.0392241
0.0185412
0.0277675
0.0222495
0.0177918
0.0172754
0.0198561
0.023893
0.019207
0.0166961
0.0341841
0.0403153
0.0672051
0.146634
0.0775574
0.0689811
0.0532147
0.0296223
0.0314359
0.0846791
0.0279533
0.0181054
0.0231198
0.0193325
0.0161654
0.0157341
0.0174577
0.0189817
0.0161641
0.00770866
0.0240122
0.0379549
0.0558916
0.0613254
0.0132475
0.0210052
0.0416209
0.0295713
0.0354777
0.0936839
0.017346
0.0132936
0.0127987
0.0116231
0.0104018
0.0100976
0.0104383
0.0112142
0.0104519
0.00594778
0.00573949
0.0191193
0.0401041
0.0202763
0.00558572
0.00637631
0.0359086
0.0421293
0.0469503
)
;

boundaryField
{
    aeration
    {
        type            fixedValue;
        value           uniform 0.00015;
    }
    xsides
    {
        type            epsilonWallFunction;
        value           nonuniform List<scalar> 
100
(
0.23459
0.451128
0.576834
0.65321
0.694883
0.745554
0.796595
0.79686
0.791885
0.808071
0.0164688
0.0243262
0.0290197
0.0288737
0.0289244
0.0285857
0.0273246
6.43407e-07
9.05253e-21
9.05253e-21
0.0111284
0.00942666
3.77382e-13
9.07624e-21
9.63554e-21
1.01244e-20
1.01637e-20
1.02651e-20
1.06743e-20
1.26413e-20
0.0199564
0.0137582
0.00790129
0.00610608
0.00627868
0.00720561
0.00747446
5.84937e-09
1.02032e-20
1.04756e-20
0.188442
0.111739
0.0923546
0.0940888
0.100208
0.107188
0.121693
0.121906
0.122637
0.132509
0.0968207
0.0709352
0.0657209
0.0645998
0.0581096
0.0457887
0.0490272
0.067403
0.0798495
0.110804
0.00792692
0.00685068
0.0067355
0.00657018
0.0060015
0.00503513
0.00585883
0.00721564
0.00802775
0.00997366
0.00479551
0.00375087
0.00358043
0.00314842
0.00263229
0.00266106
0.00344128
0.00406266
0.00459287
0.00503012
0.00780926
0.00677282
0.00677223
0.00665635
0.00596104
0.00530185
0.00404137
0.00449679
0.00473457
0.00579075
0.0998353
0.0750921
0.0695367
0.0684907
0.0610681
0.0510806
0.0386738
0.0447121
0.0469494
0.0637637
)
;
        Cmu             0.09;
        kappa           0.41;
        E               9.8;
        value           nonuniform List<scalar> 
100
(
0.23459
0.451128
0.576834
0.65321
0.694883
0.745554
0.796595
0.79686
0.791885
0.808071
0.0164688
0.0243262
0.0290197
0.0288737
0.0289244
0.0285857
0.0273246
6.43407e-07
9.05253e-21
9.05253e-21
0.0111284
0.00942666
3.77382e-13
9.07624e-21
9.63554e-21
1.01244e-20
1.01637e-20
1.02651e-20
1.06743e-20
1.26413e-20
0.0199564
0.0137582
0.00790129
0.00610608
0.00627868
0.00720561
0.00747446
5.84937e-09
1.02032e-20
1.04756e-20
0.188442
0.111739
0.0923546
0.0940888
0.100208
0.107188
0.121693
0.121906
0.122637
0.132509
0.0968207
0.0709352
0.0657209
0.0645998
0.0581096
0.0457887
0.0490272
0.067403
0.0798495
0.110804
0.00792692
0.00685068
0.0067355
0.00657018
0.0060015
0.00503513
0.00585883
0.00721564
0.00802775
0.00997366
0.00479551
0.00375087
0.00358043
0.00314842
0.00263229
0.00266106
0.00344128
0.00406266
0.00459287
0.00503012
0.00780926
0.00677282
0.00677223
0.00665635
0.00596104
0.00530185
0.00404137
0.00449679
0.00473457
0.00579075
0.0998353
0.0750921
0.0695367
0.0684907
0.0610681
0.0510806
0.0386738
0.0447121
0.0469494
0.0637637
)
;
    }
    zsides
    {
        type            epsilonWallFunction;
        value           nonuniform List<scalar> 
400
(
0.23459
0.451128
0.576834
0.65321
0.694883
0.745554
0.796595
0.79686
0.791885
0.808071
0.715357
0.444966
0.154736
0.102301
0.108641
0.131821
0.16254
0.159513
0.141715
0.417495
0.63579
0.0998591
0.113178
0.155313
0.215133
0.223986
0.197002
0.139858
0.119466
0.0655567
0.418512
0.0314381
0.112717
0.133562
0.152918
0.172295
0.179629
0.156694
0.111195
0.0474816
0.295912
0.0257665
0.0919228
0.116874
0.133547
0.141083
0.138596
0.124635
0.0952745
0.0455079
0.202366
0.0258037
0.0923796
0.107233
0.112583
0.111849
0.105198
0.0975767
0.0810421
0.0429362
0.100128
0.0386149
0.113005
0.123802
0.125182
0.116456
0.104628
0.0928414
0.0787832
0.0421089
0.0523
0.0694161
0.161403
0.175551
0.176463
0.153663
0.135275
0.107579
0.0871076
0.0426821
0.0330318
0.166467
0.29523
0.295051
0.259567
0.224795
0.175633
0.132206
0.0924295
0.0441645
0.0383484
1.14311e-18
7.98131e-19
4.46795e-06
0.0847276
0.0628187
0.132553
0.127934
0.0836034
0.0410613
0.0695921
5.08897e-19
1.68519e-19
9.08831e-20
2.79542e-12
0.0598797
0.0288836
0.0630726
0.0514751
0.0283733
5.25135e-06
3.35311e-19
9.40605e-20
7.61125e-20
6.17946e-20
0.06806
0.0784852
0.0177602
0.0354461
0.0134809
5.28064e-20
2.13198e-19
9.71873e-20
7.75233e-20
7.98958e-20
0.0605872
0.15016
0.0545969
0.0243038
0.0194957
0.214266
0.0363295
0.00490931
0.00555432
0.033647
0.146415
0.225905
0.077788
0.0156778
0.0233699
0.250273
0.375478
0.311241
0.309696
0.399156
0.440829
0.345158
0.0404833
0.0370071
0.0203407
0.0634473
0.21258
0.389453
0.449774
0.422396
0.391787
0.250485
0.0152155
0.0532085
0.0328175
0.0362562
0.0212155
0.0394854
0.0676963
0.112228
0.265863
0.261744
0.0263354
0.082341
0.0474963
0.0365764
0.0299296
0.0344204
0.0363105
0.0545362
0.175203
0.312405
0.174653
0.042732
0.028769
0.0630733
0.0350037
0.0494054
0.0607163
0.0625469
0.0669481
0.225279
0.261777
0.250987
0.214509
0.0968207
0.0709352
0.0657209
0.0645998
0.0581096
0.0457887
0.0490272
0.067403
0.0798495
0.110804
0.188442
0.111739
0.0923546
0.0940888
0.100208
0.107188
0.121693
0.121906
0.122637
0.132509
0.387065
0.0800051
0.450328
0.624063
0.784577
0.94922
1.25158
1.28666
0.860296
0.448967
0.518259
0.0351695
0.162429
0.204078
0.230087
0.218597
0.20682
0.156652
0.129969
0.0757357
0.5395
0.0243344
0.10895
0.127483
0.150417
0.173517
0.179773
0.156859
0.111041
0.0475617
0.377063
0.0295264
0.0932374
0.11554
0.133516
0.140888
0.138487
0.124587
0.0952485
0.0455117
0.219205
0.0217526
0.0926684
0.107184
0.112787
0.111746
0.105149
0.0975374
0.0810556
0.0429136
0.126885
0.0319387
0.112193
0.123844
0.126774
0.11679
0.104181
0.0928833
0.0789984
0.0419785
0.0695203
0.0557312
0.161607
0.17996
0.182507
0.157138
0.135287
0.107477
0.0878542
0.0423157
0.0456764
0.119806
0.243478
0.229962
0.191416
0.163902
0.172712
0.128424
0.0928428
0.0450735
0.0426402
2.71291e-18
2.18641e-18
2.40993e-19
1.24875e-19
1.07034e-19
0.0134854
0.0547712
0.0844755
0.0441256
0.0767661
4.0185e-19
2.94514e-19
9.4186e-20
8.3312e-20
7.69814e-20
8.4144e-20
2.15404e-16
0.00566714
0.0338224
0.0137349
2.4173e-19
1.30239e-19
8.51944e-20
0.00021568
6.74961e-20
7.10254e-20
6.31848e-20
8.19256e-20
0.00118006
5.28064e-20
1.46823e-19
1.28505e-19
8.58452e-20
0.0117428
5.76739e-20
5.66842e-20
5.58298e-20
5.43285e-20
8.73079e-20
0.226782
0.044654
0.00563363
0.00489521
0.051463
6.08072e-20
5.28665e-20
5.28066e-20
5.28119e-20
8.49824e-20
0.225448
0.410057
0.316188
0.293441
0.385497
5.28064e-20
5.28064e-20
5.28064e-20
5.67639e-20
2.67984e-05
0.0692396
0.219323
0.406835
0.444541
0.424153
5.28064e-20
5.28064e-20
5.28064e-20
9.58112e-20
0.0351068
0.0333764
0.0207061
0.039993
0.068134
0.146753
5.28064e-20
5.28065e-20
5.28065e-20
8.87582e-20
8.52897e-11
0.027118
0.0130769
0.0026204
5.28357e-20
5.28064e-20
5.28064e-20
5.28064e-20
5.28064e-20
5.28954e-20
8.65046e-20
0.0573878
0.0281629
0.0459942
0.0585026
0.0570547
0.0292916
5.28064e-20
5.28064e-20
5.28064e-20
0.0195082
0.0998353
0.0750921
0.0695367
0.0684907
0.0610681
0.0510806
0.0386738
0.0447121
0.0469494
0.0637637
)
;
        Cmu             0.09;
        kappa           0.41;
        E               9.8;
        value           nonuniform List<scalar> 
400
(
0.23459
0.451128
0.576834
0.65321
0.694883
0.745554
0.796595
0.79686
0.791885
0.808071
0.715357
0.444966
0.154736
0.102301
0.108641
0.131821
0.16254
0.159513
0.141715
0.417495
0.63579
0.0998591
0.113178
0.155313
0.215133
0.223986
0.197002
0.139858
0.119466
0.0655567
0.418512
0.0314381
0.112717
0.133562
0.152918
0.172295
0.179629
0.156694
0.111195
0.0474816
0.295912
0.0257665
0.0919228
0.116874
0.133547
0.141083
0.138596
0.124635
0.0952745
0.0455079
0.202366
0.0258037
0.0923796
0.107233
0.112583
0.111849
0.105198
0.0975767
0.0810421
0.0429362
0.100128
0.0386149
0.113005
0.123802
0.125182
0.116456
0.104628
0.0928414
0.0787832
0.0421089
0.0523
0.0694161
0.161403
0.175551
0.176463
0.153663
0.135275
0.107579
0.0871076
0.0426821
0.0330318
0.166467
0.29523
0.295051
0.259567
0.224795
0.175633
0.132206
0.0924295
0.0441645
0.0383484
1.14311e-18
7.98131e-19
4.46795e-06
0.0847276
0.0628187
0.132553
0.127934
0.0836034
0.0410613
0.0695921
5.08897e-19
1.68519e-19
9.08831e-20
2.79542e-12
0.0598797
0.0288836
0.0630726
0.0514751
0.0283733
5.25135e-06
3.35311e-19
9.40605e-20
7.61125e-20
6.17946e-20
0.06806
0.0784852
0.0177602
0.0354461
0.0134809
5.28064e-20
2.13198e-19
9.71873e-20
7.75233e-20
7.98958e-20
0.0605872
0.15016
0.0545969
0.0243038
0.0194957
0.214266
0.0363295
0.00490931
0.00555432
0.033647
0.146415
0.225905
0.077788
0.0156778
0.0233699
0.250273
0.375478
0.311241
0.309696
0.399156
0.440829
0.345158
0.0404833
0.0370071
0.0203407
0.0634473
0.21258
0.389453
0.449774
0.422396
0.391787
0.250485
0.0152155
0.0532085
0.0328175
0.0362562
0.0212155
0.0394854
0.0676963
0.112228
0.265863
0.261744
0.0263354
0.082341
0.0474963
0.0365764
0.0299296
0.0344204
0.0363105
0.0545362
0.175203
0.312405
0.174653
0.042732
0.028769
0.0630733
0.0350037
0.0494054
0.0607163
0.0625469
0.0669481
0.225279
0.261777
0.250987
0.214509
0.0968207
0.0709352
0.0657209
0.0645998
0.0581096
0.0457887
0.0490272
0.067403
0.0798495
0.110804
0.188442
0.111739
0.0923546
0.0940888
0.100208
0.107188
0.121693
0.121906
0.122637
0.132509
0.387065
0.0800051
0.450328
0.624063
0.784577
0.94922
1.25158
1.28666
0.860296
0.448967
0.518259
0.0351695
0.162429
0.204078
0.230087
0.218597
0.20682
0.156652
0.129969
0.0757357
0.5395
0.0243344
0.10895
0.127483
0.150417
0.173517
0.179773
0.156859
0.111041
0.0475617
0.377063
0.0295264
0.0932374
0.11554
0.133516
0.140888
0.138487
0.124587
0.0952485
0.0455117
0.219205
0.0217526
0.0926684
0.107184
0.112787
0.111746
0.105149
0.0975374
0.0810556
0.0429136
0.126885
0.0319387
0.112193
0.123844
0.126774
0.11679
0.104181
0.0928833
0.0789984
0.0419785
0.0695203
0.0557312
0.161607
0.17996
0.182507
0.157138
0.135287
0.107477
0.0878542
0.0423157
0.0456764
0.119806
0.243478
0.229962
0.191416
0.163902
0.172712
0.128424
0.0928428
0.0450735
0.0426402
2.71291e-18
2.18641e-18
2.40993e-19
1.24875e-19
1.07034e-19
0.0134854
0.0547712
0.0844755
0.0441256
0.0767661
4.0185e-19
2.94514e-19
9.4186e-20
8.3312e-20
7.69814e-20
8.4144e-20
2.15404e-16
0.00566714
0.0338224
0.0137349
2.4173e-19
1.30239e-19
8.51944e-20
0.00021568
6.74961e-20
7.10254e-20
6.31848e-20
8.19256e-20
0.00118006
5.28064e-20
1.46823e-19
1.28505e-19
8.58452e-20
0.0117428
5.76739e-20
5.66842e-20
5.58298e-20
5.43285e-20
8.73079e-20
0.226782
0.044654
0.00563363
0.00489521
0.051463
6.08072e-20
5.28665e-20
5.28066e-20
5.28119e-20
8.49824e-20
0.225448
0.410057
0.316188
0.293441
0.385497
5.28064e-20
5.28064e-20
5.28064e-20
5.67639e-20
2.67984e-05
0.0692396
0.219323
0.406835
0.444541
0.424153
5.28064e-20
5.28064e-20
5.28064e-20
9.58112e-20
0.0351068
0.0333764
0.0207061
0.039993
0.068134
0.146753
5.28064e-20
5.28065e-20
5.28065e-20
8.87582e-20
8.52897e-11
0.027118
0.0130769
0.0026204
5.28357e-20
5.28064e-20
5.28064e-20
5.28064e-20
5.28064e-20
5.28954e-20
8.65046e-20
0.0573878
0.0281629
0.0459942
0.0585026
0.0570547
0.0292916
5.28064e-20
5.28064e-20
5.28064e-20
0.0195082
0.0998353
0.0750921
0.0695367
0.0684907
0.0610681
0.0510806
0.0386738
0.0447121
0.0469494
0.0637637
)
;
    }
    outlet
    {
        type            inletOutlet;
        phi             phi.air;
        inletValue      uniform 0.00015;
        value           nonuniform List<scalar> 
100
(
0.55886
0.341084
0.0501593
0.0642765
0.0936839
0.0315449
0.0603921
0.0661355
0.0458382
0.017346
0.00015
0.00015
0.00015
0.00015
0.00015
0.00015
0.00015
0.00015
0.00015
0.00015
0.00015
0.00015
0.00015
0.00015
0.00015
0.00015
0.00015
0.00015
0.00015
0.00015
0.00015
0.00015
0.00015
0.00015
0.00015
0.00015
0.00015
0.00015
0.00015
0.00015
0.00015
0.00015
0.00015
0.00015
0.00015
0.00015
0.00015
0.00015
0.00015
0.00015
0.00015
0.00015
0.00015
0.00015
0.00015
0.00015
0.00015
0.00015
0.00122875
0.00573949
0.00216589
0.00104563
0.000777358
0.000934907
0.0191193
0.00250107
0.00119222
0.00112651
0.000895989
0.0401041
0.00125956
0.00015
0.00015
0.00015
0.0202763
0.00015
0.00015
0.00015
0.00015
0.00015
0.00015
0.00015
0.00015
0.00015
0.00015
0.00015
0.00015
0.00015
0.00015
0.0359086
0.086626
0.0314167
0.0212541
0.00991118
0.0421293
0.070689
0.0281821
0.0149376
0.0186933
0.0469503
)
;
    }
}


// ************************************************************************* //
