/*--------------------------------*- C++ -*----------------------------------*\
| =========                 |                                                 |
| \\      /  F ield         | OpenFOAM: The Open Source CFD Toolbox           |
|  \\    /   O peration     | Version:  2.3.0                                 |
|   \\  /    A nd           | Web:      www.OpenFOAM.org                      |
|    \\/     M anipulation  |                                                 |
\*---------------------------------------------------------------------------*/
FoamFile
{
    version     2.0;
    format      ascii;
    class       volScalarField;
    location    "4.90161";
    object      rhom;
}
// * * * * * * * * * * * * * * * * * * * * * * * * * * * * * * * * * * * * * //

dimensions      [1 -3 0 0 0 0 0];

internalField   nonuniform List<scalar> 
1000
(
808.331
856.946
892.304
914.233
922.371
933.234
945.029
954.187
962.336
966.187
965.204
960.942
951.105
907.504
844.463
884.877
946.173
959.758
956.491
889.728
845.418
944.755
1004.95
1022.36
1023.37
1024.23
1025.35
1026.03
1026.52
1026.21
1025.38
1024.38
1022.86
1008.8
920.749
911.44
987.73
1000.12
998.759
941.519
866.826
988.72
1026.2
1027.05
1027.1
1027.1
1027.11
1027.11
1027.09
1026.25
1021.82
1014.44
1015.48
1014.69
962.926
924.539
977.093
989.488
985.288
954.324
879.919
1006.99
1026.67
1027.01
1027.11
1027.11
1027.11
1027.11
1027.06
1024.66
1012.92
999.614
1000.15
1008.49
980.028
934.216
970.609
982.7
977.454
957.702
888.801
1013.57
1026.75
1026.99
1027.11
1027.11
1027.11
1027.11
1027.04
1023.55
1006.56
993.556
1000.93
1005.44
975.767
943.731
963.818
975.055
972.13
960.639
893.826
1012.21
1026.6
1027.04
1027.11
1027.11
1027.11
1027.11
1027.04
1023.47
1005.85
993.434
997.392
994.822
967.837
949.803
955.028
960.227
967.998
964.593
896.251
1007.55
1026.38
1027.1
1027.11
1027.11
1027.11
1027.11
1027.1
1026.53
1017.3
987.713
971.706
968.259
954.028
951.463
957.512
957.266
959.076
967.336
896.132
1007.95
1026.37
1027.11
1027.11
1027.11
1027.11
1027.11
1027.11
1027.1
1026.27
1015.52
992.599
984.085
994.867
1020.72
1021.6
982.084
961.807
969.007
896.305
1018.35
1026.82
1027.11
1027.11
1027.11
1027.11
1027.11
1027.11
1027.11
1027.1
1026.85
1025.49
1023.88
1026.66
1027.09
1027.09
1012.35
971.089
970.425
895.782
1025.25
1027.09
1027.11
1027.11
1027.11
1027.11
1027.11
1027.11
1027.11
1027.11
1027.11
1027.11
1027.1
1027.11
1027.11
1027.11
1023.85
984.368
972.781
850.109
916.783
935.615
943.908
948.617
960.423
969.886
975.604
979.667
992.257
996.063
992.968
988.247
978.348
954.008
882.932
945.321
964.263
961.46
899.225
915.438
988.521
1022.46
1025.44
1025.7
1026.02
1026.46
1026.71
1026.88
1026.69
1025.48
1022.38
1021.03
1018.22
992.007
945.074
985.706
1001.78
1001.33
947.394
935.728
1010.76
1026.82
1027.1
1027.11
1027.11
1027.11
1027.11
1027.1
1026.33
1020.88
1012.41
1011.58
1013.34
998.958
966.428
984.826
995.86
994.658
960.083
945.204
1018.83
1026.9
1027.11
1027.11
1027.11
1027.11
1027.11
1027.09
1025.64
1014.54
1004.95
1004.71
1008.91
998.414
971.808
984.769
992.209
991.081
962.445
950.336
1019.39
1026.98
1027.11
1027.11
1027.11
1027.11
1027.11
1027.09
1025.27
1010.91
1001.74
1006.14
1008
995.764
976.554
984.727
989.804
989.164
964.925
952.054
1017.19
1026.93
1027.11
1027.11
1027.11
1027.11
1027.11
1027.1
1025.71
1013.08
1000.55
1006.33
1005.13
993.03
983.127
986.046
988.967
992.629
967.826
952.4
1010.65
1026.85
1027.11
1027.11
1027.11
1027.11
1027.11
1027.11
1026.83
1020.14
995.574
982.895
983.039
975.433
973.748
979.791
981.042
983.169
974.202
953.313
1010.59
1026.88
1027.11
1027.11
1027.11
1027.11
1027.11
1027.11
1027.11
1026.73
1021.18
1006.56
1002.5
1012.44
1024.38
1025.05
1008.13
986.268
979.125
954.867
1020.31
1027.06
1027.11
1027.11
1027.11
1027.11
1027.11
1027.11
1027.11
1027.1
1026.82
1026.56
1026.69
1027.04
1027.11
1027.11
1024.31
993.863
982.423
957.321
1026.15
1027.11
1027.11
1027.11
1027.11
1027.11
1027.11
1027.11
1027.11
1027.11
1027.11
1027.1
1027.11
1027.11
1027.11
1027.11
1026.51
1004.77
986.705
861.488
931.418
947.734
952.356
956.945
968.581
974.73
978.468
981.976
989.435
997.458
995.842
992.374
986.896
968.841
895.498
944.463
966.802
964.109
901.521
944.538
1018.14
1025.84
1026.02
1025.99
1026.5
1026.73
1026.85
1026.93
1026.88
1026.42
1025.11
1023.96
1023
1019.31
979.737
991.527
1003.22
1003.38
949.804
971.553
1024.08
1027.03
1027.11
1027.11
1027.11
1027.11
1027.11
1027.11
1026.89
1024.47
1019.59
1017.45
1018.3
1017.16
996.968
996.234
998.776
999.065
962.45
982.698
1024.81
1027.03
1027.11
1027.11
1027.11
1027.11
1027.11
1027.11
1026.49
1020.76
1014.01
1014.52
1016.17
1014.92
999.623
998.703
996.094
995.877
963.2
989.652
1024.38
1027.06
1027.11
1027.11
1027.11
1027.11
1027.11
1027.1
1026.09
1017.75
1011.4
1014.67
1016.07
1013.57
1000.68
998.097
994.379
994.321
964.474
992.17
1020.39
1027.04
1027.11
1027.11
1027.11
1027.11
1027.11
1027.1
1025.88
1017.17
1010.04
1012.73
1014.84
1011.62
1002.85
997.551
996.021
1000.37
968.219
992.285
1013.51
1027.01
1027.11
1027.11
1027.11
1027.11
1027.11
1027.11
1026.75
1021
1008.51
1002.25
1001.72
1000.18
998.227
1003.63
1003.15
1004.81
980.852
992.51
1015.19
1027.04
1027.11
1027.11
1027.11
1027.11
1027.11
1027.11
1027.07
1025.69
1022.85
1019.4
1017.5
1017.38
1022.53
1025.76
1024.68
1015.21
990.756
993.451
1023.99
1027.1
1027.11
1027.11
1027.11
1027.11
1027.11
1027.11
1027.11
1026.78
1021.61
1019.35
1023.47
1026.32
1027.04
1027
1026.59
1021.04
998.95
997.565
1026.9
1027.11
1027.11
1027.11
1027.11
1027.11
1027.11
1027.11
1027.11
1027.11
1026.96
1025.62
1026.8
1027.11
1027.11
1027.11
1027.07
1023.16
1006.26
860.618
924.081
932.441
939.355
946.381
960.5
968.785
974.624
979.416
987.273
994.151
991.912
988.062
979.013
956.182
883.259
941.463
958.838
956.865
896.146
945
1024.27
1024.96
1024.08
1023.78
1025.99
1026.37
1026.65
1026.75
1026.42
1025.31
1022.42
1021.37
1015.37
991.371
946.522
986.178
997.457
999.514
944.618
972.365
1026.69
1027.08
1027.1
1027.11
1027.11
1027.11
1027.11
1027.05
1025.79
1021.81
1013.59
1013.79
1014.29
996.938
963.588
984.511
989.034
993.71
957.522
982.96
1026.64
1027.07
1027.11
1027.11
1027.11
1027.11
1027.11
1026.98
1024.28
1016.82
1007.02
1007.35
1011.15
997.521
971.193
985.438
983.839
990.152
959.933
988.989
1026.4
1027.04
1027.11
1027.11
1027.11
1027.11
1027.11
1026.94
1022.66
1012.46
1004.14
1006.65
1010.46
995.228
975.455
980.61
979.979
987.856
962.386
992.544
1024.65
1026.93
1027.11
1027.11
1027.11
1027.11
1027.11
1026.92
1021.89
1011.01
1004.6
1000.15
1002.44
989.108
980.405
980.381
981.984
995.503
965.603
992.664
1022.73
1026.85
1027.11
1027.11
1027.11
1027.11
1027.11
1027.07
1024.24
1010.77
1006.47
1001.1
998.396
994.407
998.088
1008.23
1007.88
1011.43
980.794
992.456
1023.62
1026.89
1027.11
1027.11
1027.11
1027.11
1027.11
1027.11
1026.64
1018.02
1009.99
1014.09
1003.06
995.748
999.255
1009.22
1009.43
1011.9
992.359
992.557
1026.29
1027.06
1027.11
1027.11
1027.11
1027.11
1027.11
1027.11
1027.1
1025.53
1009.07
1001.33
1001.55
1013.3
1024.62
1023.42
1011.93
1007.16
997.405
993.206
1026.69
1027.11
1027.11
1027.11
1027.11
1027.11
1027.11
1027.11
1027.11
1027.11
1025.84
1016.85
1018.66
1026.97
1027.11
1027.1
1025.71
1002.65
1001.26
847.245
907.158
892.062
887.761
909.535
929.419
939.177
947.635
954.63
956.362
954.874
950.977
941.95
898.17
848.18
881.648
941.387
951.911
949.742
885.276
925.431
1022.23
1020.87
1017
1014.73
1023.68
1024.98
1025.72
1026.23
1025.91
1024.88
1023.35
1020.84
1001.31
914.586
909.083
987.476
1000.32
998.796
937.604
955.971
1026.74
1027.02
1026.99
1027.05
1027.1
1027.11
1027.11
1027.05
1026.18
1023.99
1019.94
1019.8
1018.36
961.384
922.196
977.122
988.767
985.476
952.113
969.445
1026.64
1026.95
1026.97
1027.11
1027.11
1027.11
1027.11
1026.94
1023.31
1014.46
1005.27
1006.05
1012.36
982.373
934.01
971.579
980.659
978.396
955.933
975.351
1026.45
1026.73
1026.97
1027.11
1027.11
1027.11
1027.11
1026.83
1019.54
1003.52
997.378
1003.6
1009.32
978.355
942.711
960.94
971.575
974.256
959.092
979.45
1026.27
1026.45
1027.05
1027.11
1027.11
1027.11
1027.11
1026.81
1017.59
999.725
995.686
991.367
994.096
967.709
950.027
953.017
957.023
972.357
962.387
980.623
1026.31
1026.3
1027.1
1027.11
1027.11
1027.11
1027.11
1027.02
1022.51
1003.9
997.01
990.154
982.537
970.701
969.466
973.639
970.346
970.42
967.784
980.545
1026.37
1026.34
1027.11
1027.11
1027.11
1027.11
1027.11
1027.11
1026.13
1011.74
993.948
989.687
975.414
967.604
970.669
974.074
972.078
970.438
973.101
980.428
1026.36
1026.81
1027.11
1027.11
1027.11
1027.11
1027.11
1027.11
1027.09
1024.44
1001.31
987.323
978.127
988.177
1013.02
1009.5
982.23
971.311
976.381
979.305
1026.06
1027.09
1027.11
1027.11
1027.11
1027.11
1027.11
1027.11
1027.11
1027.1
1024.23
1006.89
1003.08
1024.61
1027.07
1027
1006.92
978.58
979.849
)
;

boundaryField
{
    aeration
    {
        type            calculated;
        value           nonuniform List<scalar> 
100
(
770.914
770.914
770.914
770.914
770.914
770.914
770.914
770.914
770.914
770.914
770.914
770.914
770.914
770.914
770.914
770.914
770.914
770.914
770.914
770.914
770.914
770.914
770.914
770.914
770.914
770.914
770.914
770.914
770.914
770.914
770.914
770.914
770.914
770.914
770.914
770.914
770.914
770.914
770.914
770.914
770.914
770.914
770.914
770.914
770.914
770.914
770.914
770.914
770.914
770.914
770.914
770.914
770.914
770.914
770.914
770.914
770.914
770.914
770.914
770.914
770.914
770.914
770.914
770.914
770.914
770.914
770.914
770.914
770.914
770.914
770.914
770.914
770.914
770.914
770.914
770.914
770.914
770.914
770.914
770.914
770.914
770.914
770.914
770.914
770.914
770.914
770.914
770.914
770.914
770.914
770.914
770.914
770.914
770.914
770.914
770.914
770.914
770.914
770.914
770.914
)
;
    }
    xsides
    {
        type            calculated;
        value           nonuniform List<scalar> 
100
(
808.331
845.418
866.826
879.919
888.801
893.826
896.251
896.132
896.305
895.782
850.109
915.438
935.728
945.204
950.336
952.054
952.4
953.313
954.867
957.321
861.488
944.538
971.553
982.698
989.652
992.17
992.285
992.51
993.451
997.565
860.618
945
972.365
982.96
988.989
992.544
992.664
992.456
992.557
993.206
847.245
925.431
955.971
969.445
975.351
979.45
980.623
980.545
980.428
979.305
889.728
941.519
954.324
957.702
960.639
964.593
967.336
969.007
970.425
972.781
899.225
947.394
960.083
962.445
964.925
967.826
974.202
979.125
982.423
986.705
901.521
949.804
962.45
963.2
964.474
968.219
980.852
990.756
998.95
1006.26
896.146
944.618
957.522
959.933
962.386
965.603
980.794
992.359
997.405
1001.26
885.276
937.604
952.113
955.933
959.092
962.387
967.784
973.101
976.381
979.849
)
;
    }
    zsides
    {
        type            calculated;
        value           nonuniform List<scalar> 
400
(
808.331
845.418
866.826
879.919
888.801
893.826
896.251
896.132
896.305
895.782
856.946
944.755
988.72
1006.99
1013.57
1012.21
1007.55
1007.95
1018.35
1025.25
892.304
1004.95
1026.2
1026.67
1026.75
1026.6
1026.38
1026.37
1026.82
1027.09
914.233
1022.36
1027.05
1027.01
1026.99
1027.04
1027.1
1027.11
1027.11
1027.11
922.371
1023.37
1027.1
1027.11
1027.11
1027.11
1027.11
1027.11
1027.11
1027.11
933.234
1024.23
1027.1
1027.11
1027.11
1027.11
1027.11
1027.11
1027.11
1027.11
945.029
1025.35
1027.11
1027.11
1027.11
1027.11
1027.11
1027.11
1027.11
1027.11
954.187
1026.03
1027.11
1027.11
1027.11
1027.11
1027.11
1027.11
1027.11
1027.11
962.336
1026.52
1027.09
1027.06
1027.04
1027.04
1027.1
1027.11
1027.11
1027.11
966.187
1026.21
1026.25
1024.66
1023.55
1023.47
1026.53
1027.1
1027.11
1027.11
965.204
1025.38
1021.82
1012.92
1006.56
1005.85
1017.3
1026.27
1027.1
1027.11
960.942
1024.38
1014.44
999.614
993.556
993.434
987.713
1015.52
1026.85
1027.11
951.105
1022.86
1015.48
1000.15
1000.93
997.392
971.706
992.599
1025.49
1027.11
907.504
1008.8
1014.69
1008.49
1005.44
994.822
968.259
984.085
1023.88
1027.1
844.463
920.749
962.926
980.028
975.767
967.837
954.028
994.867
1026.66
1027.11
884.877
911.44
924.539
934.216
943.731
949.803
951.463
1020.72
1027.09
1027.11
946.173
987.73
977.093
970.609
963.818
955.028
957.512
1021.6
1027.09
1027.11
959.758
1000.12
989.488
982.7
975.055
960.227
957.266
982.084
1012.35
1023.85
956.491
998.759
985.288
977.454
972.13
967.998
959.076
961.807
971.089
984.368
889.728
941.519
954.324
957.702
960.639
964.593
967.336
969.007
970.425
972.781
847.245
925.431
955.971
969.445
975.351
979.45
980.623
980.545
980.428
979.305
907.158
1022.23
1026.74
1026.64
1026.45
1026.27
1026.31
1026.37
1026.36
1026.06
892.062
1020.87
1027.02
1026.95
1026.73
1026.45
1026.3
1026.34
1026.81
1027.09
887.761
1017
1026.99
1026.97
1026.97
1027.05
1027.1
1027.11
1027.11
1027.11
909.535
1014.73
1027.05
1027.11
1027.11
1027.11
1027.11
1027.11
1027.11
1027.11
929.419
1023.68
1027.1
1027.11
1027.11
1027.11
1027.11
1027.11
1027.11
1027.11
939.177
1024.98
1027.11
1027.11
1027.11
1027.11
1027.11
1027.11
1027.11
1027.11
947.635
1025.72
1027.11
1027.11
1027.11
1027.11
1027.11
1027.11
1027.11
1027.11
954.63
1026.23
1027.05
1026.94
1026.83
1026.81
1027.02
1027.11
1027.11
1027.11
956.362
1025.91
1026.18
1023.31
1019.54
1017.59
1022.51
1026.13
1027.09
1027.11
954.874
1024.88
1023.99
1014.46
1003.52
999.725
1003.9
1011.74
1024.44
1027.1
950.977
1023.35
1019.94
1005.27
997.378
995.686
997.01
993.948
1001.31
1024.23
941.95
1020.84
1019.8
1006.05
1003.6
991.367
990.154
989.687
987.323
1006.89
898.17
1001.31
1018.36
1012.36
1009.32
994.096
982.537
975.414
978.127
1003.08
848.18
914.586
961.384
982.373
978.355
967.709
970.701
967.604
988.177
1024.61
881.648
909.083
922.196
934.01
942.711
950.027
969.466
970.669
1013.02
1027.07
941.387
987.476
977.122
971.579
960.94
953.017
973.639
974.074
1009.5
1027
951.911
1000.32
988.767
980.659
971.575
957.023
970.346
972.078
982.23
1006.92
949.742
998.796
985.476
978.396
974.256
972.357
970.42
970.438
971.311
978.58
885.276
937.604
952.113
955.933
959.092
962.387
967.784
973.101
976.381
979.849
)
;
    }
    outlet
    {
        type            calculated;
        value           nonuniform List<scalar> 
100
(
895.782
957.321
997.565
993.206
979.305
1025.25
1026.15
1026.9
1026.69
1026.06
1027.11
1027.11
1027.11
1027.11
1027.11
1027.11
1027.11
1027.11
1027.11
1027.11
1027.11
1027.11
1027.11
1027.11
1027.11
1027.11
1027.11
1027.11
1027.11
1027.11
1027.11
1027.11
1027.11
1027.11
1027.11
1027.11
1027.11
1027.11
1027.11
1027.11
1027.11
1027.11
1027.11
1027.11
1027.11
1027.11
1027.11
1027.11
1027.11
1027.11
1027.11
1027.11
1027.11
1027.11
1027.11
1027.11
1027.11
1027.11
1025.84
1024.23
1027.11
1027.1
1025.62
1016.85
1006.89
1027.1
1027.11
1026.8
1018.66
1003.08
1027.11
1027.11
1027.11
1027.11
1024.61
1027.11
1027.11
1027.11
1027.11
1027.11
1027.11
1027.11
1027.11
1027.11
1027.11
1027.11
1027.11
1027.11
1027.11
1006.92
984.368
1004.77
1023.16
1002.65
978.58
972.781
986.705
1006.26
1001.26
979.849
)
;
    }
}


// ************************************************************************* //
