/*--------------------------------*- C++ -*----------------------------------*\
| =========                 |                                                 |
| \\      /  F ield         | OpenFOAM: The Open Source CFD Toolbox           |
|  \\    /   O peration     | Version:  2.3.0                                 |
|   \\  /    A nd           | Web:      www.OpenFOAM.org                      |
|    \\/     M anipulation  |                                                 |
\*---------------------------------------------------------------------------*/
FoamFile
{
    version     2.0;
    format      ascii;
    class       volScalarField;
    location    "0.156";
    object      k;
}
// * * * * * * * * * * * * * * * * * * * * * * * * * * * * * * * * * * * * * //

dimensions      [0 2 -2 0 0 0 0];

internalField   nonuniform List<scalar> 
545
(
126406
120373
110744
102438
96753.2
128854
120650
110450
101931
95803.5
133061
120876
109743
100878
94104.7
139423
120693
108609
99372.5
91507.6
148854
119656
107304
97758.5
87848.3
93847.6
92260.4
91755.4
91596.1
91545.7
91529.2
91523.4
91520.9
91519.5
91518.4
91517.4
91516.5
91515.6
91514.7
91513.9
91513.1
91512.3
91511.6
91510.9
91510.2
91509.5
91508.9
91508.3
91507.7
91507.1
91506.6
91506.1
91505.6
91505.2
91504.8
91504.4
91504
91503.7
91503.4
91503.1
91502.8
91502.6
91502.4
91502.2
91502.1
91501.9
91501.8
91501.8
91501.7
91501.7
93120.7
92038
91685.1
91574
91538.7
91527.1
91522.7
91520.7
91519.4
91518.3
91517.3
91516.4
91515.5
91514.7
91513.8
91513
91512.3
91511.5
91510.8
91510.1
91509.5
91508.8
91508.2
91507.7
91507.1
91506.6
91506.1
91505.6
91505.2
91504.7
91504.4
91504
91503.7
91503.3
91503.1
91502.8
91502.6
91502.4
91502.2
91502
91501.9
91501.8
91501.7
91501.7
91501.6
92063
91665.3
91565.5
91536.5
91527.1
91523.4
91521.6
91520.3
91519.2
91518.3
91517.3
91516.4
91515.5
91514.7
91513.8
91513
91512.3
91511.5
91510.8
91510.1
91509.4
91508.8
91508.2
91507.6
91507.1
91506.6
91506.1
91505.6
91505.1
91504.7
91504.3
91504
91503.6
91503.3
91503
91502.8
91502.5
91502.3
91502.2
91502
91501.9
91501.8
91501.7
91501.6
91501.6
90687.3
91230.2
91431.5
91495.1
91514.2
91519.4
91520.3
91519.9
91519.1
91518.2
91517.3
91516.4
91515.5
91514.6
91513.8
91513
91512.2
91511.5
91510.8
91510.1
91509.4
91508.8
91508.2
91507.6
91507.1
91506.5
91506
91505.6
91505.1
91504.7
91504.3
91504
91503.6
91503.3
91503
91502.8
91502.5
91502.3
91502.1
91502
91501.9
91501.8
91501.7
91501.6
91501.6
89083.4
90862.3
91325.1
91462.6
91504.2
91516.3
91519.4
91519.6
91519
91518.2
91517.3
91516.4
91515.5
91514.6
91513.8
91513
91512.2
91511.5
91510.8
91510.1
91509.4
91508.8
91508.2
91507.6
91507.1
91506.5
91506
91505.6
91505.1
91504.7
91504.3
91503.9
91503.6
91503.3
91503
91502.7
91502.5
91502.3
91502.1
91502
91501.8
91501.7
91501.7
91501.6
91501.6
89261.8
90750.3
91282
91448.9
91499.9
91515
91519
91519.5
91519
91518.1
91517.3
91516.4
91515.5
91514.6
91513.8
91513
91512.2
91511.5
91510.8
91510.1
91509.4
91508.8
91508.2
91507.6
91507.1
91506.5
91506
91505.6
91505.1
91504.7
91504.3
91503.9
91503.6
91503.3
91503
91502.7
91502.5
91502.3
91502.1
91502
91501.8
91501.7
91501.7
91501.6
91501.6
148854
119656
107304
97758.5
87848.3
139423
120693
108609
99372.5
91507.6
133061
120876
109743
100878
94104.7
128854
120650
110450
101931
95803.5
126406
120373
110744
102438
96753.2
89083.4
90862.3
91325.1
91462.6
91504.2
91516.3
91519.4
91519.6
91519
91518.2
91517.3
91516.4
91515.5
91514.6
91513.8
91513
91512.2
91511.5
91510.8
91510.1
91509.4
91508.8
91508.2
91507.6
91507.1
91506.5
91506
91505.6
91505.1
91504.7
91504.3
91503.9
91503.6
91503.3
91503
91502.7
91502.5
91502.3
91502.1
91502
91501.8
91501.7
91501.7
91501.6
91501.6
90687.3
91230.2
91431.5
91495.1
91514.2
91519.4
91520.3
91519.9
91519.1
91518.2
91517.3
91516.4
91515.5
91514.6
91513.8
91513
91512.2
91511.5
91510.8
91510.1
91509.4
91508.8
91508.2
91507.6
91507.1
91506.5
91506
91505.6
91505.1
91504.7
91504.3
91504
91503.6
91503.3
91503
91502.8
91502.5
91502.3
91502.1
91502
91501.9
91501.8
91501.7
91501.6
91501.6
92063
91665.3
91565.5
91536.5
91527.1
91523.4
91521.6
91520.3
91519.2
91518.3
91517.3
91516.4
91515.5
91514.7
91513.8
91513
91512.3
91511.5
91510.8
91510.1
91509.4
91508.8
91508.2
91507.6
91507.1
91506.6
91506.1
91505.6
91505.1
91504.7
91504.3
91504
91503.6
91503.3
91503
91502.8
91502.5
91502.3
91502.2
91502
91501.9
91501.8
91501.7
91501.6
91501.6
93120.7
92038
91685.1
91574
91538.7
91527.1
91522.7
91520.7
91519.4
91518.3
91517.3
91516.4
91515.5
91514.7
91513.8
91513
91512.3
91511.5
91510.8
91510.1
91509.5
91508.8
91508.2
91507.7
91507.1
91506.6
91506.1
91505.6
91505.2
91504.7
91504.4
91504
91503.7
91503.3
91503.1
91502.8
91502.6
91502.4
91502.2
91502
91501.9
91501.8
91501.7
91501.7
91501.6
93847.6
92260.4
91755.4
91596.1
91545.7
91529.2
91523.4
91520.9
91519.5
91518.4
91517.4
91516.4
91515.6
91514.7
91513.9
91513.1
91512.3
91511.6
91510.8
91510.2
91509.5
91508.9
91508.3
91507.7
91507.1
91506.6
91506.1
91505.6
91505.2
91504.8
91504.4
91504
91503.7
91503.4
91503.1
91502.8
91502.6
91502.4
91502.2
91502.1
91501.9
91501.8
91501.7
91501.7
91501.7
)
;

boundaryField
{
    AirInlet
    {
        type            fixedValue;
        value           uniform 0.1;
    }
    WaterInlet
    {
        type            fixedValue;
        value           uniform 0.1;
    }
    ChannelWall
    {
        type            fixedValue;
        value           uniform 0.1;
    }
    Outlet
    {
        type            inletOutlet;
        inletValue      uniform 0.1;
        value           nonuniform List<scalar> 
11
(
91501.7
91501.6
91501.6
91501.6
91501.6
91501.6
91501.6
91501.6
91501.6
91501.6
91501.7
)
;
    }
    FrontAndBack
    {
        type            empty;
    }
}


// ************************************************************************* //
