/*--------------------------------*- C++ -*----------------------------------*\
| =========                 |                                                 |
| \\      /  F ield         | OpenFOAM: The Open Source CFD Toolbox           |
|  \\    /   O peration     | Version:  2.3.0                                 |
|   \\  /    A nd           | Web:      www.OpenFOAM.org                      |
|    \\/     M anipulation  |                                                 |
\*---------------------------------------------------------------------------*/
FoamFile
{
    version     2.0;
    format      ascii;
    class       volScalarField;
    location    "0.132";
    object      p_rgh;
}
// * * * * * * * * * * * * * * * * * * * * * * * * * * * * * * * * * * * * * //

dimensions      [1 -1 -2 0 0 0 0];

internalField   nonuniform List<scalar> 
545
(
-9.23324e+07
-1.74484e+07
-2.79361e+06
-3.51199e+06
-1.03828e+07
6.55387e+07
-3.96795e+06
-3.21024e+06
-3.40064e+06
-8.5336e+06
1.14348e+08
3.60224e+06
-940534
-1.01052e+06
-8.9225e+06
6.61177e+07
-4.17396e+06
-2.66498e+06
-674378
-7.98843e+06
-1.06165e+08
-3.21803e+06
-1.04749e+06
4.33697e+06
1.30845e+07
-8.8845e+06
-2.53283e+06
-1.19324e+06
-391322
-250419
-235007
-254435
-261342
-261591
-256795
-251926
-245543
-240773
-233895
-228647
-221928
-217331
-210638
-205009
-196153
-187993
-176973
-167766
-156463
-147794
-137339
-129826
-120225
-113372
-104208
-97676.8
-88620.9
-82158.1
-73223
-67171.9
-58714.3
-53505.4
-45600.9
-40800.2
-33638.7
-29235.6
-22264
-18173.3
-11425
-7924.66
-7.93748e+06
-1.74795e+06
-1.15483e+06
-537375
-372568
-298534
-279950
-270477
-263708
-257692
-251579
-245917
-240302
-234351
-228155
-222455
-216899
-211293
-204547
-196780
-187406
-177546
-167107
-157001
-147060
-137892
-129123
-120888
-112653
-104903
-96963.6
-89333.7
-81383.3
-73893.8
-66344.3
-59412.9
-52712.8
-46377.7
-39955
-34438.2
-28458.3
-23008.3
-17144
-11247.5
-3432.15
-9.35884e+06
-1.07669e+06
-798959
-377037
-324886
-288170
-280217
-271579
-264539
-257598
-251941
-245696
-240654
-234098
-228556
-222221
-217337
-211018
-204910
-196410
-187726
-177166
-167488
-156553
-147394
-137415
-129546
-120486
-113088
-104506
-97451
-88939.2
-81827.9
-73376.6
-66715.2
-58845.7
-53185.3
-45916.1
-40356.8
-34030.8
-28940.2
-22547.5
-17370.5
-10735.7
-5930.87
-9.89843e+06
285953
-97497.3
-100876
-227833
-260110
-273697
-270968
-264318
-257759
-251731
-246062
-240490
-234476
-228407
-222645
-217058
-211366
-204476
-196738
-187266
-177566
-167124
-156906
-146869
-137769
-129135
-120960
-112629
-105020
-97064.1
-89497.8
-81345.7
-73814.9
-66062.6
-59229
-52703.8
-46458.5
-39726.4
-34666.9
-28424.3
-23049.6
-16763.8
-10167
-1803.1
-1.9954e+06
3.46165e+06
1.06374e+06
124013
-198962
-263723
-278299
-272046
-264877
-257393
-252093
-245726
-241054
-234100
-229059
-222267
-217532
-210847
-204794
-196236
-187606
-177103
-167742
-156275
-147301
-137084
-129809
-120422
-113214
-104498
-97803.8
-89006.4
-81981.9
-73079.1
-66495.9
-58332.2
-53487.5
-45901.5
-40073
-34367.3
-28963.7
-22652.7
-17260
-9879.96
-5247.16
-1.41967e+07
5.47535e+06
2.00557e+06
241068
-191738
-271991
-281207
-274304
-264664
-255750
-248463
-243071
-236126
-231474
-227196
-222896
-214212
-208377
-200929
-192497
-183523
-175363
-166858
-156772
-144481
-133809
-124163
-117984
-109257
-101923
-95095.4
-89790.6
-81192.4
-73715.5
-63439.4
-53564
-45827.2
-42090
-36557.5
-28562.5
-23487.4
-21188.5
-16527.5
-9880.02
-427.091
-1.06162e+08
-3.21479e+06
-1.04359e+06
4.34076e+06
1.30871e+07
6.61215e+07
-4.17037e+06
-2.66134e+06
-671051
-7.98603e+06
1.14352e+08
3.60635e+06
-937140
-1.0077e+06
-8.92038e+06
6.5543e+07
-3.96344e+06
-3.20698e+06
-3.39831e+06
-8.53191e+06
-9.23279e+07
-1.74438e+07
-2.7904e+06
-3.51001e+06
-1.03815e+07
-1.9943e+06
3.46149e+06
1.06429e+06
124088
-197614
-263231
-277109
-271941
-263930
-257594
-251556
-246264
-240616
-234663
-228754
-223037
-217152
-211277
-204092
-196483
-186897
-177481
-167158
-156853
-146855
-137668
-129389
-120995
-112749
-105039
-97319.9
-89613
-81478.4
-73690.7
-66005.1
-58821.4
-53006.6
-46436.6
-39627.1
-34872
-28489.3
-23201.7
-16746.2
-10548.8
-4795.66
-9.897e+06
286324
-97046.7
-99960.5
-225650
-258427
-271859
-269966
-263112
-257394
-251323
-246451
-240317
-234916
-228539
-223400
-217009
-211483
-203752
-196461
-186534
-177564
-166746
-157270
-146740
-138227
-129035
-121375
-112442
-105369
-96864.3
-89899.1
-81151
-74215.8
-65843.5
-59517.1
-52463.6
-46832.9
-39565.6
-34983.7
-28202.2
-23380.9
-16536
-10583.7
-1589.62
-9.35734e+06
-1.07592e+06
-798328
-375371
-322122
-285535
-277756
-269706
-263016
-256707
-251618
-245932
-240703
-234443
-229059
-222958
-217560
-210854
-204142
-195652
-186941
-176820
-167270
-156739
-147539
-137776
-129728
-120770
-113145
-104698
-97496.8
-89173.6
-81882.3
-73594
-66725.4
-58980.7
-53178.3
-46157.3
-40452
-34212.4
-28956
-22697.2
-17351.1
-10923.8
-5912.82
-7.93612e+06
-1.74701e+06
-1.15381e+06
-535061
-369322
-295296
-276852
-267915
-261781
-256478
-251248
-246077
-240412
-234696
-228843
-223259
-217264
-211022
-203668
-195717
-186463
-176994
-166903
-157129
-147325
-138264
-129438
-121163
-112814
-105067
-97111.3
-89530.8
-81524.6
-74045.8
-66438.3
-59530
-52820
-46600.7
-40154.8
-34620.4
-28600.9
-23124.5
-17177.4
-11308.1
-3423.82
-8.8833e+06
-2.53176e+06
-1.19186e+06
-388497
-246888
-231485
-250993
-258417
-259391
-255403
-251550
-245635
-240890
-234252
-229399
-222767
-217761
-210352
-204077
-194948
-186932
-176303
-167529
-156562
-148097
-137729
-130193
-120513
-113577
-104379
-97863.3
-88812
-82321
-73351.1
-67289
-58849.1
-53669
-45831
-41034
-33849.9
-29444.5
-22389.7
-18203
-11404.6
-7879.62
)
;

boundaryField
{
    AirInlet
    {
        type            fixedFluxPressure;
        gradient        uniform 2.26352e+08;
        value           uniform -1.41945e+07;
    }
    WaterInlet
    {
        type            fixedFluxPressure;
        gradient        nonuniform List<scalar> 10(0 -0.0441013 0 0 -0.0259278 0.0259278 -0.339454 -0.0916561 -0.0882027 -0.562784);
        value           nonuniform List<scalar> 10(-9.23324e+07 6.55387e+07 1.14348e+08 6.61177e+07 -1.06165e+08 -1.06162e+08 6.61215e+07 1.14352e+08 6.5543e+07 -9.23279e+07);
    }
    ChannelWall
    {
        type            fixedFluxPressure;
        gradient        uniform 0;
        value           nonuniform List<scalar> 
110
(
-1.06165e+08
-3.21803e+06
-1.04749e+06
4.33697e+06
1.30845e+07
-1.06162e+08
-3.21479e+06
-1.04359e+06
4.34076e+06
1.30871e+07
-9.23279e+07
-1.74438e+07
-2.7904e+06
-3.51001e+06
-1.03815e+07
-8.8833e+06
-2.53176e+06
-1.19186e+06
-388497
-246888
-231485
-250993
-258417
-259391
-255403
-251550
-245635
-240890
-234252
-229399
-222767
-217761
-210352
-204077
-194948
-186932
-176303
-167529
-156562
-148097
-137729
-130193
-120513
-113577
-104379
-97863.3
-88812
-82321
-73351.1
-67289
-58849.1
-53669
-45831
-41034
-33849.9
-29444.5
-22389.7
-18203
-11404.6
-7879.62
-9.23324e+07
-1.74484e+07
-2.79361e+06
-3.51199e+06
-1.03828e+07
-8.8845e+06
-2.53283e+06
-1.19324e+06
-391322
-250419
-235007
-254435
-261342
-261591
-256795
-251926
-245543
-240773
-233895
-228647
-221928
-217331
-210638
-205009
-196153
-187993
-176973
-167766
-156463
-147794
-137339
-129826
-120225
-113372
-104208
-97676.8
-88620.9
-82158.1
-73223
-67171.9
-58714.3
-53505.4
-45600.9
-40800.2
-33638.7
-29235.6
-22264
-18173.3
-11425
-7924.66
)
;
    }
    Outlet
    {
        type            totalPressure;
        rho             rho;
        psi             none;
        gamma           1;
        p0              uniform 0;
        value           uniform 0;
    }
    FrontAndBack
    {
        type            empty;
    }
}


// ************************************************************************* //
