/*--------------------------------*- C++ -*----------------------------------*\
| =========                 |                                                 |
| \\      /  F ield         | OpenFOAM: The Open Source CFD Toolbox           |
|  \\    /   O peration     | Version:  2.3.0                                 |
|   \\  /    A nd           | Web:      www.OpenFOAM.org                      |
|    \\/     M anipulation  |                                                 |
\*---------------------------------------------------------------------------*/
FoamFile
{
    version     2.0;
    format      ascii;
    class       volVectorField;
    location    "0.038";
    object      U;
}
// * * * * * * * * * * * * * * * * * * * * * * * * * * * * * * * * * * * * * //

dimensions      [0 1 -1 0 0 0 0];

internalField   nonuniform List<vector> 
545
(
(0.454889 0.0865279 4.22643e-29)
(0.403698 0.00697508 3.8055e-30)
(0.362568 0.00341195 -1.89437e-31)
(0.332589 0.00328061 0)
(0.301848 0.0085844 -8.49602e-31)
(0.460088 0.0265782 8.52695e-29)
(0.416572 0.0219991 1.06397e-29)
(0.3622 0.0213086 1.06124e-30)
(0.330188 0.0187709 0)
(0.297731 0.0211487 -1.22865e-30)
(0.46639 0.0432532 1.32097e-30)
(0.414604 0.0382821 5.7349e-31)
(0.358359 0.0341213 4.35749e-31)
(0.324237 0.0288689 0)
(0.292165 0.0317003 -3.99641e-31)
(0.463796 0.0608264 -1.65549e-28)
(0.399459 0.0527393 -3.40399e-30)
(0.349543 0.0465012 -2.87726e-31)
(0.316103 0.0387902 0)
(0.282184 0.0401711 -2.40588e-29)
(0.469365 0.00375555 -3.25213e-28)
(0.371389 0.0752762 1.27591e-30)
(0.339964 0.0632523 2.14515e-30)
(0.301715 0.0561947 7.8691e-30)
(0.264093 0.0765981 -4.00488e-29)
(0.271263 0.00700789 0)
(0.257882 0.00167063 0)
(0.257599 -2.40403e-06 0)
(0.258785 -0.000447258 0)
(0.259211 -0.000270356 0)
(0.259981 -0.000128358 0)
(0.259727 -5.35538e-05 0)
(0.260183 -1.72308e-05 0)
(0.259803 -5.91506e-06 0)
(0.260192 -2.13503e-07 0)
(0.259813 -6.81715e-07 0)
(0.260184 4.0037e-07 0)
(0.25982 -3.26528e-07 0)
(0.260175 -8.25565e-08 0)
(0.259829 2.65851e-08 0)
(0.260166 -4.98018e-07 0)
(0.259838 3.26934e-07 0)
(0.260157 -8.49528e-07 0)
(0.259848 6.29629e-07 0)
(0.260148 -1.16479e-06 0)
(0.259857 9.91465e-07 0)
(0.260138 -1.38848e-06 0)
(0.259867 1.33825e-06 0)
(0.260128 -1.62518e-06 0)
(0.259877 1.5789e-06 0)
(0.260118 -2.02977e-06 0)
(0.259887 1.80242e-06 0)
(0.260108 -2.14815e-06 0)
(0.259897 2.06324e-06 0)
(0.260098 -2.32149e-06 0)
(0.259907 2.35176e-06 0)
(0.260088 -2.51288e-06 0)
(0.259917 2.53518e-06 0)
(0.260077 -2.76164e-06 0)
(0.259927 2.53559e-06 0)
(0.260068 -2.77745e-06 0)
(0.259937 2.81714e-06 0)
(0.260058 -3.06792e-06 0)
(0.259947 2.88408e-06 0)
(0.260048 -3.15735e-06 0)
(0.259957 3.55629e-06 0)
(0.260037 -3.706e-06 0)
(0.259967 4.69439e-06 0)
(0.260026 -5.98053e-06 0)
(0.259977 1.19629e-05 0)
(0.26978 0.0148275 0)
(0.257331 0.00341526 0)
(0.258592 5.98486e-05 0)
(0.258714 -0.00054367 0)
(0.259775 -0.000333645 0)
(0.259611 -0.00016035 0)
(0.260142 -6.25611e-05 0)
(0.259785 -2.39125e-05 0)
(0.260193 -3.87955e-06 0)
(0.259809 -2.4103e-06 0)
(0.260189 1.67686e-06 0)
(0.259817 -1.01119e-06 0)
(0.26018 1.21601e-06 0)
(0.259826 -8.61548e-07 0)
(0.260171 8.39723e-07 0)
(0.259834 -6.2132e-07 0)
(0.260162 4.90401e-07 0)
(0.259843 -3.32961e-07 0)
(0.260152 1.53611e-07 0)
(0.259852 7.50249e-09 0)
(0.260143 -9.99349e-08 0)
(0.259862 3.20703e-07 0)
(0.260133 -3.70103e-07 0)
(0.259873 5.47465e-07 0)
(0.260123 -6.22962e-07 0)
(0.259882 6.4336e-07 0)
(0.260114 -8.9911e-07 0)
(0.259893 1.0669e-06 0)
(0.260104 -1.12796e-06 0)
(0.259903 1.30579e-06 0)
(0.260094 -1.28693e-06 0)
(0.259913 1.46818e-06 0)
(0.260084 -1.4867e-06 0)
(0.259923 1.56465e-06 0)
(0.260073 -1.76363e-06 0)
(0.259933 1.78394e-06 0)
(0.260063 -1.7965e-06 0)
(0.259943 1.80762e-06 0)
(0.260053 -2.02124e-06 0)
(0.259953 2.17983e-06 0)
(0.260043 -2.21867e-06 0)
(0.259963 2.87023e-06 0)
(0.260033 -3.30372e-06 0)
(0.259974 5.36554e-06 0)
(0.260024 -6.67623e-06 0)
(0.266132 0.0236898 0)
(0.257189 0.00484332 0)
(0.259023 -0.00015883 0)
(0.259774 -0.000813871 0)
(0.259666 -0.000485019 0)
(0.260145 -0.000219565 0)
(0.259775 -9.46804e-05 0)
(0.260192 -2.99028e-05 0)
(0.259803 -1.07135e-05 0)
(0.260191 7.68547e-07 0)
(0.259812 -1.81395e-06 0)
(0.260183 2.17579e-06 0)
(0.25982 -1.57032e-06 0)
(0.260175 1.64794e-06 0)
(0.259829 -1.36329e-06 0)
(0.260166 1.24342e-06 0)
(0.259838 -1.0545e-06 0)
(0.260156 9.32775e-07 0)
(0.259847 -8.48922e-07 0)
(0.260147 7.26763e-07 0)
(0.259857 -4.85534e-07 0)
(0.260137 4.80719e-07 0)
(0.259866 -2.92467e-07 0)
(0.260127 1.47477e-07 0)
(0.259876 1.35801e-09 0)
(0.260117 -2.92521e-07 0)
(0.259887 1.69975e-07 0)
(0.260107 -2.08541e-07 0)
(0.259896 3.88518e-07 0)
(0.260098 -4.68961e-07 0)
(0.259906 7.0067e-07 0)
(0.260088 -7.12667e-07 0)
(0.259916 8.52673e-07 0)
(0.260077 -8.85239e-07 0)
(0.259927 8.5076e-07 0)
(0.260067 -9.62208e-07 0)
(0.259937 1.07834e-06 0)
(0.260057 -1.24233e-06 0)
(0.259947 1.24808e-06 0)
(0.260047 -1.32145e-06 0)
(0.259957 1.6519e-06 0)
(0.260037 -1.80903e-06 0)
(0.259967 2.69166e-06 0)
(0.260026 -2.85876e-06 0)
(0.259976 6.07382e-06 0)
(0.262497 0.030473 0)
(0.256647 0.00491288 0)
(0.260801 -0.000538432 0)
(0.260185 -0.000913881 0)
(0.260474 -0.000479746 0)
(0.259883 -0.000218062 0)
(0.260233 -8.65747e-05 0)
(0.259809 -3.44552e-05 0)
(0.260197 -5.32803e-06 0)
(0.259808 -4.09867e-06 0)
(0.260187 2.73724e-06 0)
(0.259816 -2.17979e-06 0)
(0.260179 2.46348e-06 0)
(0.259825 -2.09518e-06 0)
(0.260171 2.1328e-06 0)
(0.259834 -1.97897e-06 0)
(0.260161 1.93129e-06 0)
(0.259843 -1.73839e-06 0)
(0.260152 1.48528e-06 0)
(0.259852 -1.37955e-06 0)
(0.260143 1.38086e-06 0)
(0.259862 -1.04657e-06 0)
(0.260133 1.08566e-06 0)
(0.259872 -9.74797e-07 0)
(0.260123 9.3189e-07 0)
(0.259882 -1.02081e-06 0)
(0.260113 5.25007e-07 0)
(0.259892 -3.12542e-07 0)
(0.260103 2.20804e-07 0)
(0.259902 -2.01363e-07 0)
(0.260093 1.88073e-07 0)
(0.259912 -5.57863e-08 0)
(0.260083 1.1708e-08 0)
(0.259922 1.3799e-07 0)
(0.260073 -2.73359e-07 0)
(0.259932 3.11056e-07 0)
(0.260063 -3.35435e-07 0)
(0.259942 3.0377e-07 0)
(0.260053 -4.87067e-07 0)
(0.259952 6.339e-07 0)
(0.260043 -6.8898e-07 0)
(0.259962 1.06519e-06 0)
(0.260033 -1.11919e-06 0)
(0.259973 2.60797e-06 0)
(0.260024 -1.91407e-06 0)
(0.259485 0.0500915 0)
(0.259508 0.00488342 0)
(0.262261 -0.000617204 0)
(0.261469 -0.000764772 0)
(0.260376 -0.000338201 0)
(0.260424 -0.000131636 0)
(0.25987 -6.57384e-05 0)
(0.260217 -1.90098e-05 0)
(0.259808 -9.0741e-06 0)
(0.260191 2.56815e-06 0)
(0.259812 -3.18452e-06 0)
(0.260183 3.43596e-06 0)
(0.259821 -3.06291e-06 0)
(0.260175 3.07551e-06 0)
(0.25983 -2.84453e-06 0)
(0.260167 2.72074e-06 0)
(0.259839 -2.47138e-06 0)
(0.260157 2.45004e-06 0)
(0.259848 -2.43508e-06 0)
(0.260148 2.26226e-06 0)
(0.259857 -2.03313e-06 0)
(0.260138 2.06168e-06 0)
(0.259867 -1.95167e-06 0)
(0.260129 1.71168e-06 0)
(0.259878 -1.51327e-06 0)
(0.260118 1.17366e-06 0)
(0.259887 -1.55176e-06 0)
(0.260109 1.58338e-06 0)
(0.259898 -1.34042e-06 0)
(0.260098 1.19307e-06 0)
(0.259907 -9.04247e-07 0)
(0.260088 8.41758e-07 0)
(0.259917 -7.63345e-07 0)
(0.260078 7.57521e-07 0)
(0.259927 -8.47583e-07 0)
(0.260068 7.39e-07 0)
(0.259938 -5.94381e-07 0)
(0.260058 4.28394e-07 0)
(0.259948 -4.32173e-07 0)
(0.260048 4.31828e-07 0)
(0.259958 -1.99337e-07 0)
(0.260038 6.5798e-08 0)
(0.259968 3.43865e-07 0)
(0.260028 -1.65096e-07 0)
(0.259977 1.18998e-06 0)
(0.269536 4.48261e-06 0)
(0.259927 -4.37508e-06 0)
(0.264588 4.32945e-06 0)
(0.261603 -4.41843e-06 0)
(0.260922 4.30499e-06 0)
(0.260063 -4.31888e-06 0)
(0.260298 4.22223e-06 0)
(0.259819 -4.17852e-06 0)
(0.260197 4.0925e-06 0)
(0.259807 -4.03331e-06 0)
(0.260186 3.95605e-06 0)
(0.259816 -3.85848e-06 0)
(0.260179 3.75763e-06 0)
(0.259824 -3.66092e-06 0)
(0.260171 3.56545e-06 0)
(0.259834 -3.43739e-06 0)
(0.260162 3.35502e-06 0)
(0.259843 -3.19239e-06 0)
(0.260152 3.1158e-06 0)
(0.259853 -2.98148e-06 0)
(0.260143 2.86815e-06 0)
(0.259862 -2.745e-06 0)
(0.260134 2.64043e-06 0)
(0.259872 -2.50301e-06 0)
(0.260123 2.39834e-06 0)
(0.259882 -2.25245e-06 0)
(0.260112 2.18115e-06 0)
(0.259892 -2.05422e-06 0)
(0.260103 1.93763e-06 0)
(0.259902 -1.8581e-06 0)
(0.260093 1.76054e-06 0)
(0.259912 -1.68121e-06 0)
(0.260083 1.57283e-06 0)
(0.259922 -1.49374e-06 0)
(0.260073 1.43988e-06 0)
(0.259932 -1.362e-06 0)
(0.260063 1.32167e-06 0)
(0.259942 -1.2358e-06 0)
(0.260053 1.16472e-06 0)
(0.259952 -1.12234e-06 0)
(0.260043 1.08089e-06 0)
(0.259962 -1.06263e-06 0)
(0.260033 1.05153e-06 0)
(0.259974 -1.06307e-06 0)
(0.260026 1.07023e-06 0)
(0.469365 -0.00374715 0)
(0.371389 -0.0752846 2.47956e-31)
(0.339964 -0.0632438 -2.00024e-30)
(0.301714 -0.0562032 -7.86913e-30)
(0.264093 -0.0765895 0)
(0.463796 -0.0608349 0)
(0.399459 -0.0527309 0)
(0.349543 -0.0465096 0)
(0.316103 -0.0387818 -2.44863e-30)
(0.282184 -0.0401795 0)
(0.46639 -0.0432448 0)
(0.414604 -0.0382906 0)
(0.358359 -0.0341128 0)
(0.324237 -0.0288774 -1.37696e-30)
(0.292165 -0.0316918 0)
(0.460088 -0.0265866 0)
(0.416572 -0.0219907 0)
(0.3622 -0.021317 0)
(0.330188 -0.0187625 5.90956e-31)
(0.297731 -0.0211572 0)
(0.454889 -0.0865195 0)
(0.403697 -0.00698355 0)
(0.362568 -0.00340349 0)
(0.332588 -0.00328906 9.09932e-32)
(0.301848 -0.00857586 0)
(0.259485 -0.0501 0)
(0.259508 -0.00487488 0)
(0.262261 0.000608708 0)
(0.261469 0.000773305 0)
(0.260376 0.00032975 0)
(0.260424 0.000140023 0)
(0.25987 5.74965e-05 0)
(0.260217 2.7247e-05 0)
(0.259808 9.76242e-07 0)
(0.260191 5.3648e-06 0)
(0.259812 -4.5434e-06 0)
(0.260183 4.16029e-06 0)
(0.259821 -4.39207e-06 0)
(0.260175 4.15367e-06 0)
(0.25983 -4.15161e-06 0)
(0.260167 4.085e-06 0)
(0.259839 -4.11962e-06 0)
(0.260157 3.87893e-06 0)
(0.259848 -3.73933e-06 0)
(0.260148 3.61063e-06 0)
(0.259857 -3.64036e-06 0)
(0.260138 3.41638e-06 0)
(0.259867 -3.17983e-06 0)
(0.260129 3.2453e-06 0)
(0.259878 -3.29385e-06 0)
(0.260118 3.26667e-06 0)
(0.259887 -2.75693e-06 0)
(0.260109 2.52019e-06 0)
(0.259898 -2.50204e-06 0)
(0.260098 2.49553e-06 0)
(0.259907 -2.58247e-06 0)
(0.260088 2.46541e-06 0)
(0.259917 -2.41078e-06 0)
(0.260078 2.27915e-06 0)
(0.259927 -1.97201e-06 0)
(0.260068 1.90678e-06 0)
(0.259938 -1.97461e-06 0)
(0.260058 2.01354e-06 0)
(0.259948 -1.97493e-06 0)
(0.260048 1.92474e-06 0)
(0.259958 -2.10255e-06 0)
(0.260038 2.13471e-06 0)
(0.259968 -2.43005e-06 0)
(0.260028 2.20231e-06 0)
(0.259977 -3.14618e-06 0)
(0.262497 -0.0304646 0)
(0.256647 -0.00492138 0)
(0.260801 0.00054695 0)
(0.260185 0.000905382 0)
(0.260474 0.000488167 0)
(0.259883 0.000209719 0)
(0.260233 9.48253e-05 0)
(0.259809 2.63686e-05 0)
(0.260197 1.32956e-05 0)
(0.259808 -3.75534e-06 0)
(0.260187 4.96042e-06 0)
(0.259816 -5.31663e-06 0)
(0.260179 4.83795e-06 0)
(0.259825 -5.02486e-06 0)
(0.260171 4.79821e-06 0)
(0.259834 -4.7328e-06 0)
(0.260161 4.53866e-06 0)
(0.259843 -4.55133e-06 0)
(0.260152 4.51054e-06 0)
(0.259852 -4.444e-06 0)
(0.260143 4.20506e-06 0)
(0.259862 -4.26455e-06 0)
(0.260133 4.07702e-06 0)
(0.259872 -3.90695e-06 0)
(0.260123 3.67704e-06 0)
(0.259882 -3.44676e-06 0)
(0.260113 3.69164e-06 0)
(0.259892 -3.68025e-06 0)
(0.260103 3.58968e-06 0)
(0.259902 -3.41559e-06 0)
(0.260093 3.25975e-06 0)
(0.259912 -3.18096e-06 0)
(0.260083 3.06834e-06 0)
(0.259922 -3.06284e-06 0)
(0.260073 3.0465e-06 0)
(0.259932 -2.99241e-06 0)
(0.260063 2.88564e-06 0)
(0.259942 -2.74422e-06 0)
(0.260053 2.78788e-06 0)
(0.259952 -2.82218e-06 0)
(0.260043 2.83174e-06 0)
(0.259962 -3.14322e-06 0)
(0.260033 3.15522e-06 0)
(0.259973 -4.68293e-06 0)
(0.260024 4.02225e-06 0)
(0.266132 -0.0236984 0)
(0.257189 -0.00483474 0)
(0.259023 0.00015029 0)
(0.259774 0.000822326 0)
(0.259666 0.000476585 0)
(0.260145 0.000227939 0)
(0.259775 8.63902e-05 0)
(0.260192 3.81018e-05 0)
(0.259803 2.67425e-06 0)
(0.260191 7.10996e-06 0)
(0.259812 -5.9204e-06 0)
(0.260183 5.4106e-06 0)
(0.25982 -5.83581e-06 0)
(0.260175 5.55897e-06 0)
(0.259829 -5.6143e-06 0)
(0.260166 5.53801e-06 0)
(0.259838 -5.51347e-06 0)
(0.260156 5.39447e-06 0)
(0.259847 -5.28678e-06 0)
(0.260147 5.14144e-06 0)
(0.259857 -5.15752e-06 0)
(0.260137 4.96666e-06 0)
(0.259866 -4.85156e-06 0)
(0.260127 4.81224e-06 0)
(0.259876 -4.74515e-06 0)
(0.260117 4.77592e-06 0)
(0.259887 -4.44836e-06 0)
(0.260108 4.28867e-06 0)
(0.259896 -4.26279e-06 0)
(0.260098 4.13195e-06 0)
(0.259906 -4.17107e-06 0)
(0.260088 4.05337e-06 0)
(0.259916 -3.99068e-06 0)
(0.260077 3.85538e-06 0)
(0.259927 -3.71893e-06 0)
(0.260067 3.66262e-06 0)
(0.259937 -3.62786e-06 0)
(0.260057 3.68048e-06 0)
(0.259947 -3.64645e-06 0)
(0.260047 3.62395e-06 0)
(0.259957 -3.83526e-06 0)
(0.260037 3.97443e-06 0)
(0.259967 -4.83912e-06 0)
(0.260026 4.95655e-06 0)
(0.259976 -8.04908e-06 0)
(0.26978 -0.014819 0)
(0.257331 -0.00342376 0)
(0.258592 -5.13609e-05 0)
(0.258714 0.000535167 0)
(0.259775 0.000342063 0)
(0.259611 0.000152027 0)
(0.260142 7.07714e-05 0)
(0.259785 1.58261e-05 0)
(0.260193 1.18697e-05 0)
(0.259809 -5.45469e-06 0)
(0.260189 6.00679e-06 0)
(0.259817 -6.48765e-06 0)
(0.26018 6.09254e-06 0)
(0.259826 -6.2462e-06 0)
(0.260171 6.10269e-06 0)
(0.259834 -6.0837e-06 0)
(0.260162 5.98175e-06 0)
(0.259843 -5.95711e-06 0)
(0.260152 5.83149e-06 0)
(0.259853 -5.85763e-06 0)
(0.260143 5.65862e-06 0)
(0.259862 -5.63279e-06 0)
(0.260133 5.51186e-06 0)
(0.259872 -5.4092e-06 0)
(0.260123 5.25076e-06 0)
(0.259883 -5.09121e-06 0)
(0.260114 5.11092e-06 0)
(0.259893 -5.06556e-06 0)
(0.260104 4.9121e-06 0)
(0.259903 -4.92114e-06 0)
(0.260094 4.7401e-06 0)
(0.259913 -4.64976e-06 0)
(0.260084 4.58617e-06 0)
(0.259922 -4.52342e-06 0)
(0.260073 4.4748e-06 0)
(0.259933 -4.3897e-06 0)
(0.260063 4.35928e-06 0)
(0.259943 -4.2705e-06 0)
(0.260053 4.28196e-06 0)
(0.259953 -4.41413e-06 0)
(0.260043 4.45011e-06 0)
(0.259963 -4.95013e-06 0)
(0.260033 5.29777e-06 0)
(0.259974 -7.35649e-06 0)
(0.260024 8.74391e-06 0)
(0.271263 -0.00701644 0)
(0.257882 -0.00166208 0)
(0.257598 -6.11446e-06 0)
(0.258785 0.000455659 0)
(0.259211 0.000261954 0)
(0.259981 0.000136709 0)
(0.259727 4.53107e-05 0)
(0.260183 2.5404e-05 0)
(0.259803 -2.06009e-06 0)
(0.260192 8.04128e-06 0)
(0.259813 -7.02233e-06 0)
(0.260184 7.13229e-06 0)
(0.25982 -7.02468e-06 0)
(0.260175 7.26633e-06 0)
(0.259829 -6.93776e-06 0)
(0.260166 7.2235e-06 0)
(0.259838 -6.87726e-06 0)
(0.260157 7.08731e-06 0)
(0.259848 -6.78553e-06 0)
(0.260148 6.91935e-06 0)
(0.259857 -6.62624e-06 0)
(0.260138 6.78555e-06 0)
(0.259867 -6.42405e-06 0)
(0.260128 6.55786e-06 0)
(0.259877 -6.26205e-06 0)
(0.260118 6.47275e-06 0)
(0.259887 -6.04405e-06 0)
(0.260108 6.16638e-06 0)
(0.259897 -5.92777e-06 0)
(0.260098 5.94924e-06 0)
(0.259906 -5.73093e-06 0)
(0.260088 5.90017e-06 0)
(0.259917 -5.59906e-06 0)
(0.260078 5.62262e-06 0)
(0.259927 -5.42459e-06 0)
(0.260068 5.50079e-06 0)
(0.259937 -5.29107e-06 0)
(0.260058 5.39396e-06 0)
(0.259947 -5.34473e-06 0)
(0.260048 5.36967e-06 0)
(0.259957 -5.63184e-06 0)
(0.260037 5.94343e-06 0)
(0.259967 -6.81672e-06 0)
(0.260026 8.04976e-06 0)
(0.259978 -1.38341e-05 0)
)
;

boundaryField
{
    AirInlet
    {
        type            fixedValue;
        value           uniform (0.1 0 0);
    }
    WaterInlet
    {
        type            fixedValue;
        value           uniform (0.5 0 0);
    }
    ChannelWall
    {
        type            fixedValue;
        value           uniform (0 0 0);
    }
    Outlet
    {
        type            pressureInletOutletVelocity;
        value           nonuniform List<vector> 
11
(
(0.259977 1.19629e-05 0)
(0.260024 -6.67623e-06 0)
(0.259976 6.07382e-06 0)
(0.260024 -1.91407e-06 0)
(0.259977 1.18998e-06 0)
(0.260026 1.07023e-06 0)
(0.259977 -3.14618e-06 0)
(0.260024 4.02225e-06 0)
(0.259976 -8.04908e-06 0)
(0.260024 8.74391e-06 0)
(0.259978 -1.38341e-05 0)
)
;
    }
    FrontAndBack
    {
        type            empty;
    }
}


// ************************************************************************* //
