/*--------------------------------*- C++ -*----------------------------------*\
| =========                 |                                                 |
| \\      /  F ield         | OpenFOAM: The Open Source CFD Toolbox           |
|  \\    /   O peration     | Version:  2.3.0                                 |
|   \\  /    A nd           | Web:      www.OpenFOAM.org                      |
|    \\/     M anipulation  |                                                 |
\*---------------------------------------------------------------------------*/
FoamFile
{
    version     2.0;
    format      ascii;
    class       volVectorField;
    location    "2.70051";
    object      U.airMean;
}
// * * * * * * * * * * * * * * * * * * * * * * * * * * * * * * * * * * * * * //

dimensions      [0 1 -1 0 0 0 0];

internalField   nonuniform List<vector> 
18816
(
(-0.00706413 0.00790439 -0.00158855)
(-0.0152483 0.0106228 -3.75263e-05)
(-0.0212492 0.00871573 -0.000594258)
(-0.0210819 0.00890852 -0.000400831)
(-0.0238659 0.00908997 -0.000442996)
(-0.0253607 0.00893288 -0.000409243)
(-0.0289667 0.00914777 -0.000551157)
(-0.0320504 0.0099137 -0.000710989)
(-0.034838 0.0102827 -0.00086923)
(-0.0383135 0.0111639 -0.000925264)
(-0.043972 0.0116406 -0.00100992)
(-0.0524621 0.0115055 -0.00101719)
(-0.059002 0.0119156 -0.00113915)
(-0.0637927 0.0133633 -0.00123661)
(-0.0652214 0.013957 -0.00138984)
(-0.0615003 0.0147854 -0.00158853)
(-0.0563455 0.0158311 -0.00164982)
(-0.049433 0.016005 -0.00168932)
(-0.0398523 0.0153734 -0.00179248)
(-0.0253202 0.015062 -0.00196339)
(-0.00847176 0.0153958 -0.00194223)
(0.00924775 0.0151082 -0.00186978)
(0.0238722 0.0151175 -0.00177863)
(0.0358142 0.0150074 -0.00174979)
(0.0423564 0.0150728 -0.00151985)
(0.0396749 0.0168205 -0.00123369)
(0.0244221 0.0179388 -0.00112336)
(0.00755347 0.0113747 -0.00258911)
(-0.00511148 0.0497029 -0.00141436)
(-0.0131725 0.044861 -0.000780047)
(-0.017719 0.0305793 -0.000626304)
(-0.018956 0.0237708 -0.000541915)
(-0.0236066 0.0230148 -0.000593585)
(-0.0267713 0.024279 -0.000585071)
(-0.0308746 0.0265791 -0.000643809)
(-0.0340456 0.0294021 -0.000692714)
(-0.0371579 0.0321694 -0.00081749)
(-0.0391729 0.0361546 -0.000976346)
(-0.0416377 0.0415598 -0.00116674)
(-0.0449181 0.0423378 -0.00011694)
(-0.048513 0.0372958 -8.753e-05)
(-0.0526704 0.0322804 1.92747e-05)
(-0.054325 0.0286337 8.91778e-05)
(-0.0521637 0.026029 0.000146185)
(-0.048154 0.0247864 0.000295567)
(-0.0425201 0.0233283 0.000312301)
(-0.034805 0.0231123 0.000271358)
(-0.02357 0.0234114 0.000197548)
(-0.0104515 0.0241954 0.000267105)
(0.00368381 0.0252591 0.000343429)
(0.0153372 0.0264791 0.000450934)
(0.0263055 0.0274406 0.000474546)
(0.0312844 0.0318357 0.00046096)
(0.030213 0.0390105 0.000303985)
(0.019765 0.0517312 7.96257e-05)
(0.00602349 0.06177 -0.00218191)
(-0.000217239 0.0603594 -0.00110945)
(-0.0016839 0.0427352 -0.00225012)
(-0.00961957 0.0263607 -0.00165909)
(-0.0127507 0.0216102 -0.00177013)
(-0.0185233 0.0216993 -0.00205086)
(-0.0216179 0.0228909 -0.00225824)
(-0.0248801 0.0241401 -0.00252359)
(-0.0262645 0.0258795 -0.00260962)
(-0.028491 0.0278016 -0.00263019)
(-0.0299392 0.0331878 -0.00261287)
(-0.0323031 0.0384089 -0.00423164)
(-0.0371246 0.034089 -0.0011435)
(-0.0395074 0.0310634 0.000161129)
(-0.0421875 0.0266289 0.00015331)
(-0.0437736 0.0196091 0.000256755)
(-0.0431864 0.0150319 0.000346076)
(-0.0409962 0.0121492 0.000367031)
(-0.037119 0.00993111 0.000328057)
(-0.0307527 0.00781692 0.000347703)
(-0.0216084 0.00590477 0.000286865)
(-0.0114503 0.00510579 0.000213376)
(-0.00037692 0.00529467 0.00015244)
(0.00914388 0.0064069 0.000151721)
(0.0185124 0.00847366 0.000152162)
(0.0234156 0.0169867 0.000320349)
(0.0239111 0.0324062 0.00039382)
(0.0118424 0.0501271 0.000346165)
(0.0024495 0.0721563 -0.00167176)
(0.00258012 0.0771773 -0.000226555)
(0.0023909 0.0595295 0.00225075)
(-0.00668627 0.0323684 -0.000590072)
(-0.008308 0.0276615 7.67859e-05)
(-0.0127932 0.0279882 -8.03385e-05)
(-0.014927 0.0290129 -0.000115535)
(-0.0173221 0.0295373 -0.000229755)
(-0.0184153 0.0303159 -0.000183764)
(-0.0198878 0.031386 -0.000155531)
(-0.019391 0.0354924 -0.000180376)
(-0.0195214 0.039113 -0.000222854)
(-0.0254791 0.0382185 -0.00345331)
(-0.0313164 0.0319614 4.31323e-05)
(-0.0318894 0.0256048 0.000643299)
(-0.032104 0.0164349 0.000765509)
(-0.0315028 0.00875581 0.000861033)
(-0.0308339 0.00529909 0.000877895)
(-0.0282706 0.00111187 0.000907466)
(-0.0238348 -0.00284028 0.000906629)
(-0.0175476 -0.00558811 0.000815277)
(-0.0104459 -0.00573139 0.000692475)
(-0.00319055 -0.00477114 0.000458959)
(0.00349212 -0.00228679 0.000325362)
(0.0105069 0.00138981 0.00025931)
(0.0149965 0.0125082 0.000522139)
(0.016961 0.0352587 0.000492245)
(0.00645958 0.0589212 0.00051304)
(-0.000202864 0.0836591 -0.000582595)
(0.00344453 0.0823431 -2.22358e-05)
(0.00194859 0.0639924 0.00150021)
(-0.00362869 0.0386757 0.0023412)
(-0.0054566 0.0306537 -0.000486284)
(-0.008777 0.0310052 -0.000499472)
(-0.0106969 0.0314293 -0.000450293)
(-0.0126313 0.0312894 -0.000443876)
(-0.0132237 0.0300505 6.80542e-05)
(-0.0142224 0.0300179 5.33133e-05)
(-0.0138828 0.0338156 1.27975e-05)
(-0.0132342 0.0358558 5.85365e-05)
(-0.0172661 0.0336343 -0.00130125)
(-0.022995 0.0259548 1.32883e-05)
(-0.0205303 0.015938 0.000471479)
(-0.0183794 0.00604243 0.000521652)
(-0.0173234 -0.00236709 0.000492309)
(-0.0189845 -0.00708767 0.000477428)
(-0.0194951 -0.0138855 0.000494338)
(-0.0187458 -0.0189379 0.000491271)
(-0.0156513 -0.022943 0.000421383)
(-0.0114712 -0.0222132 0.000483894)
(-0.007393 -0.0189699 0.000317936)
(-0.00231632 -0.0137383 0.000157687)
(0.0029786 -0.00840704 4.45269e-05)
(0.00671404 0.00352081 0.000227779)
(0.0100986 0.0316488 0.000216209)
(0.00354088 0.0600904 0.000323558)
(-0.000484023 0.0861268 -0.000372503)
(0.00406302 0.0839353 0.000157386)
(0.00208607 0.068088 0.000779197)
(-0.00398949 0.0433673 0.00147589)
(-0.00236568 0.0365827 0.00251769)
(-0.00520346 0.0348604 0.00252096)
(-0.00698727 0.0347794 0.00250016)
(-0.00864919 0.0336365 0.00224823)
(-0.0094682 0.0308254 -0.000148268)
(-0.00943462 0.0295681 -7.93977e-05)
(-0.00878527 0.0321891 3.27503e-05)
(-0.00797453 0.0325248 0.000263116)
(-0.0087987 0.0281797 -0.000373573)
(-0.0124817 0.0195771 0.000176688)
(-0.00802028 0.0071661 0.000333507)
(-0.00636541 -0.00142474 0.000260876)
(-0.00585854 -0.00652223 0.000240374)
(-0.00993066 -0.00986895 0.000408427)
(-0.0135609 -0.0180022 0.000450604)
(-0.0159475 -0.0243456 0.00044154)
(-0.015496 -0.0302537 0.000376446)
(-0.0130122 -0.0303355 0.000413974)
(-0.0107749 -0.0267421 0.000316373)
(-0.00688145 -0.0200125 0.000251699)
(-0.00227717 -0.0122231 8.37912e-05)
(0.000354065 -0.000301212 0.000132066)
(0.00479774 0.0307205 0.000145707)
(0.000634596 0.0619941 0.000313853)
(-0.00104292 0.0867677 -0.000104417)
(0.00359771 0.0838695 0.000132416)
(0.00250014 0.0686002 0.000499317)
(-0.00277453 0.0438922 0.000628051)
(-0.00380688 0.0391883 0.00153879)
(-0.00794559 0.0360788 0.00154438)
(-0.0100938 0.0341513 0.00155001)
(-0.0120693 0.0324896 0.00155507)
(-0.00854725 0.0293396 0.00252101)
(-0.00703606 0.0275318 0.00206191)
(-0.00566939 0.0288202 0.00174576)
(-0.00417964 0.0272997 8.93075e-05)
(-0.00375105 0.0207016 4.83592e-05)
(-0.0052951 0.0115949 0.000176747)
(-0.00219551 0.000676871 0.000163551)
(-0.00182723 -0.00443857 3.19772e-05)
(0.000366322 -0.00620706 -7.88301e-05)
(-0.00298519 -0.00875199 0.00014728)
(-0.00612344 -0.0185068 0.000198244)
(-0.0114536 -0.0274134 0.000306139)
(-0.0140195 -0.0358476 0.000212062)
(-0.0125538 -0.0366587 0.000248412)
(-0.0114717 -0.0333545 0.000180693)
(-0.00893267 -0.0275787 0.000162902)
(-0.00498679 -0.0179421 7.3601e-05)
(-0.00302159 -0.00414283 1.10305e-05)
(0.00123705 0.0279002 2.29552e-05)
(-0.000787272 0.0612613 0.000176188)
(-0.0010374 0.0855445 -1.59313e-05)
(0.00330627 0.0827479 0.000154517)
(0.00262309 0.0662219 0.000430763)
(-0.00174208 0.0446526 0.000305784)
(-0.00339569 0.0378651 0.000706844)
(-0.00689346 0.0339936 0.00071079)
(-0.00878016 0.0313073 0.00069124)
(-0.0110799 0.0299241 0.000703277)
(-0.0106141 0.0287541 0.00140735)
(-0.00857697 0.0280339 0.00123662)
(-0.00669398 0.029398 0.00111843)
(-0.00234417 0.0229791 0.000252089)
(-0.000967054 0.0153748 5.27713e-05)
(-0.00114102 0.0056359 0.000200852)
(0.000255015 -0.001973 0.000117769)
(3.73406e-05 -0.00527861 1.01521e-05)
(0.00291554 -0.00587304 -6.73987e-05)
(-0.000618353 -0.00737225 0.000108405)
(-0.000744818 -0.0173098 -4.98081e-05)
(-0.00694084 -0.0247186 0.000245103)
(-0.0124048 -0.0371031 0.000116342)
(-0.011307 -0.0392618 0.000184904)
(-0.0108462 -0.0360365 0.000120092)
(-0.00924509 -0.0313388 0.000141608)
(-0.00651405 -0.0224469 0.000132998)
(-0.00459114 -0.00554966 6.55591e-05)
(-0.000987193 0.0259478 1.82488e-05)
(-0.0017695 0.0605256 0.00013577)
(-0.00119884 0.0840219 6.92079e-05)
(0.00321454 0.0805398 0.000150233)
(0.00310341 0.065139 0.000270146)
(-0.000733903 0.0454481 0.000155554)
(-0.0021783 0.0364899 0.000259056)
(-0.00478444 0.0321411 0.000286569)
(-0.0064774 0.0293003 0.000292569)
(-0.00912586 0.0272472 0.000288993)
(-0.00926309 0.0242206 0.000444015)
(-0.00791983 0.0241955 0.000363406)
(-0.00591443 0.0258013 0.000397069)
(-0.00142068 0.0208451 0.00114364)
(0.00054421 0.0125325 0.000722853)
(0.00278119 0.00327569 6.22435e-06)
(0.00366541 -0.00186645 -4.99118e-05)
(0.0022064 -0.00515572 -9.68851e-05)
(0.00436541 -0.00228415 -0.000230852)
(-0.00150598 -0.00431184 -3.73797e-05)
(0.00307655 -0.00634038 -0.000908084)
(-0.00209231 -0.0179579 0.000157538)
(-0.0102902 -0.0340784 -0.000157069)
(-0.00976829 -0.0401822 4.18645e-05)
(-0.00962721 -0.0376891 3.20109e-05)
(-0.00890702 -0.0338797 8.84605e-05)
(-0.00713953 -0.0267709 6.35908e-05)
(-0.00510882 -0.00899964 9.7575e-05)
(-0.00163128 0.0231295 -3.36159e-06)
(-0.00197752 0.0591566 0.000102099)
(-0.00112356 0.0824302 6.54319e-05)
(0.00322253 0.07862 0.000138503)
(0.00420434 0.0663401 0.000155074)
(0.000397546 0.0473904 9.49148e-05)
(-0.00117496 0.0370553 0.000108064)
(-0.00347235 0.0323522 0.000118726)
(-0.00506583 0.0296306 0.000131156)
(-0.00796355 0.0280516 0.000104533)
(-0.00761516 0.0248265 -1.2432e-05)
(-0.00838206 0.0252471 0.000216607)
(-0.00691166 0.0209738 0.000287511)
(-0.00102108 0.017868 0.000585457)
(0.00364784 0.0116451 0.000212894)
(0.00745056 -0.000785731 0.000120246)
(0.00793375 -0.000926041 1.8038e-05)
(0.00774219 -0.00608261 6.47849e-05)
(0.00686126 -0.00128964 5.22466e-05)
(0.0113832 -0.00262766 -1.10227e-05)
(0.0064842 -0.00708609 0.00136939)
(-0.00695052 -0.0130509 0.000326222)
(-0.00965776 -0.0315391 0.000202904)
(-0.0100764 -0.039979 1.9716e-05)
(-0.00899085 -0.0384701 6.99917e-05)
(-0.00864099 -0.034852 4.48758e-05)
(-0.00703157 -0.0287692 4.93701e-05)
(-0.00521569 -0.012672 0.000170664)
(-0.00166137 0.0205974 1.45869e-05)
(-0.00212226 0.0577937 9.98319e-05)
(-0.00104557 0.0808947 7.32514e-05)
(0.00326305 0.0771597 0.000198884)
(0.00471257 0.0683113 0.00016454)
(0.00102759 0.049059 0.000119786)
(-0.000185932 0.0377113 7.75256e-05)
(-0.00219623 0.0327784 4.85062e-05)
(-0.00236552 0.0299839 6.08097e-05)
(-0.00497036 0.0283698 0.000148908)
(-0.00351456 0.0253936 6.98794e-05)
(-0.00997777 0.0223457 0.000874926)
(-0.00999094 0.0123839 -0.000129741)
(6.89134e-05 0.00965457 0.0002878)
(0.00389668 0.0067351 3.54677e-05)
(0.00666248 -0.00315764 3.36619e-05)
(0.00605735 -0.00335497 9.8708e-05)
(0.00486219 -0.00652426 7.21147e-05)
(0.00448913 -0.00559608 0.000111167)
(0.0048442 -0.00653827 0.000110016)
(0.0047655 -0.0133715 0.000196471)
(-0.000968333 -0.0120436 0.00045046)
(-0.00618147 -0.0296996 -0.000105815)
(-0.00705826 -0.0399688 9.03261e-06)
(-0.00776875 -0.0390909 0.000177212)
(-0.00803751 -0.0355195 -2.9079e-06)
(-0.0066767 -0.0303906 1.62772e-05)
(-0.00541273 -0.0176314 0.000181335)
(-0.00164551 0.0181004 8.63015e-05)
(-0.00227038 0.0561984 8.40216e-05)
(-0.000917411 0.0793319 7.69627e-05)
(0.00294459 0.0752643 0.000249487)
(0.00440984 0.0687021 0.000229072)
(0.00117947 0.0495604 0.000135606)
(0.000328555 0.0382912 7.4341e-05)
(-0.00148102 0.0330401 2.812e-05)
(-0.000749336 0.0301265 3.00882e-05)
(-0.0027169 0.0278695 0.000191341)
(-0.00277902 0.0256237 0.000267861)
(-0.0103942 0.0192274 0.000557802)
(-0.00816804 0.0104659 -5.65276e-05)
(-0.0020629 0.00570504 4.00793e-05)
(0.00150484 0.00708174 -9.52584e-05)
(0.00348653 -0.00396565 -7.69714e-05)
(0.00409469 -0.00100409 -0.000110319)
(0.0041948 -0.00632795 -3.48782e-05)
(0.00376262 -0.00298728 -0.000139137)
(0.00481976 -0.00395966 -0.000113586)
(0.00332708 -0.00998668 4.11378e-07)
(0.00190447 -0.00823583 -0.000107653)
(-0.000548432 -0.0231719 5.60811e-05)
(-0.0057112 -0.0382865 7.71505e-05)
(-0.00668203 -0.0389309 0.000313441)
(-0.00764984 -0.0354922 -1.5347e-05)
(-0.00614579 -0.0307455 -1.46191e-05)
(-0.00575509 -0.0200832 9.13462e-05)
(-0.00183467 0.0138058 0.000226379)
(-0.00159682 0.0550544 6.88159e-05)
(-0.000773767 0.0781269 2.53505e-05)
(0.00235671 0.0729425 0.000253319)
(0.00355288 0.0674996 0.000222786)
(0.00132012 0.0494071 0.000119491)
(0.000716891 0.0382924 7.24107e-05)
(-0.000938661 0.0326384 2.90589e-05)
(8.4786e-05 0.029729 1.39871e-05)
(-0.00126361 0.0268471 0.000185808)
(-0.00176857 0.0251225 0.000345656)
(-0.00959987 0.0172754 0.000629503)
(-0.00888016 0.00401368 0.00017503)
(-0.00300646 0.000811326 3.18196e-05)
(-1.03473e-05 0.00231211 -2.01418e-06)
(0.00208283 -0.00561303 -3.0847e-05)
(0.00374055 -0.00383064 1.40925e-05)
(0.00379477 -0.00623545 -8.94543e-06)
(0.00463012 -0.00549295 4.7859e-06)
(0.00450011 -0.00615711 -1.3339e-05)
(0.00379417 -0.00930782 4.09681e-06)
(0.00457612 -0.00891137 4.52836e-05)
(0.00180291 -0.0204199 0.000285249)
(-0.00409091 -0.0373017 0.000164646)
(-0.0053516 -0.0391576 0.000199626)
(-0.0062932 -0.0357638 -3.04907e-05)
(-0.00484521 -0.0305651 -3.55978e-05)
(-0.00497534 -0.0205014 -4.5734e-05)
(-0.00140893 0.00669175 8.03074e-05)
(-0.000258865 0.0537519 6.73429e-05)
(-0.000726793 0.0777302 -8.12878e-05)
(0.00179177 0.070528 0.00018594)
(0.00275145 0.0655809 0.000150452)
(0.00109897 0.0491599 8.53068e-05)
(0.000522906 0.0383378 6.91832e-05)
(-0.000957321 0.0325513 7.20206e-06)
(3.429e-05 0.0293439 4.61102e-07)
(-0.000922579 0.0262351 0.000142013)
(-0.00156389 0.0247417 0.000380511)
(-0.0100856 0.0150981 0.000681897)
(-0.00781729 0.00186645 0.000158299)
(-0.00395608 -0.0032632 -1.60431e-05)
(-0.000708603 0.00301197 -2.00057e-05)
(0.00177981 -0.00774645 -3.23199e-05)
(0.00321517 -0.001762 -2.68926e-06)
(0.00318826 -0.00721539 -1.49693e-05)
(0.00474323 -0.00270944 -1.17752e-05)
(0.00476784 -0.0025664 3.41914e-05)
(0.00496745 -0.00950907 3.43986e-05)
(0.00695583 -0.00597627 9.02988e-05)
(0.00453125 -0.0193882 0.000503166)
(-0.00270171 -0.0363399 0.000205444)
(-0.00370025 -0.038443 8.05341e-05)
(-0.00488355 -0.0355188 -2.74516e-05)
(-0.00356139 -0.0301796 -5.83573e-05)
(-0.00403302 -0.0194631 -6.83473e-05)
(-0.00102637 0.00373365 -3.11071e-05)
(0.000378885 0.0527245 4.73834e-05)
(-0.000655687 0.0779585 -0.000122619)
(0.00169153 0.069001 7.82066e-05)
(0.00202727 0.0647684 0.000117573)
(0.000287491 0.0487536 5.96335e-05)
(-0.00030892 0.0384175 6.26807e-05)
(-0.00152632 0.0328753 -6.5889e-06)
(-0.000823472 0.0290592 3.52496e-06)
(-0.00163139 0.0257431 0.000125582)
(-0.00239276 0.0245345 0.000367706)
(-0.00893905 0.0103037 0.000552556)
(-0.00774673 -0.00328239 0.000195594)
(-0.00494211 -0.00632208 6.96619e-06)
(-0.00225312 -0.00343799 6.73896e-05)
(0.000446513 -0.0102377 -2.74329e-06)
(0.00218731 -0.00455701 3.43138e-07)
(0.00225333 -0.00803574 1.06219e-05)
(0.00442902 -0.00664539 8.52327e-05)
(0.00637817 -0.00632603 0.000108816)
(0.00758852 -0.0114945 0.000111201)
(0.00952784 -0.00996857 0.000113525)
(0.00601154 -0.0204218 0.000512578)
(-0.00142988 -0.0355887 0.000172136)
(-0.00179295 -0.0379138 3.88734e-05)
(-0.00301004 -0.035051 -2.10262e-05)
(-0.00233943 -0.0298232 -7.14618e-05)
(-0.00336227 -0.0189129 -7.29394e-05)
(-0.00056507 0.00230116 -0.000107027)
(0.000658455 0.0519051 2.04809e-05)
(-0.000481556 0.0781506 -0.0001277)
(0.00166183 0.068543 -2.97844e-06)
(0.00136209 0.064865 0.000108615)
(-0.000674542 0.0487147 6.05502e-05)
(-0.00156374 0.0386745 2.14367e-05)
(-0.00258918 0.033675 -2.08941e-05)
(-0.00234437 0.0291604 8.50909e-06)
(-0.00291988 0.0257786 7.6836e-05)
(-0.00372457 0.0239993 0.000265256)
(-0.00614771 0.00649624 0.000444131)
(-0.00621315 -0.00497827 0.000378484)
(-0.00488833 -0.00992459 -1.66919e-05)
(-0.00246398 -0.00657238 0.000301303)
(-0.000402194 -0.0135569 2.74448e-05)
(0.00183631 -0.00539452 0.000282716)
(0.00277755 -0.0107029 4.33025e-05)
(0.00591939 -0.00997607 0.000302772)
(0.0064683 -0.0100885 0.000346604)
(0.00882906 -0.0141588 3.49125e-05)
(0.00896485 -0.0104377 0.000327109)
(0.00571666 -0.020307 0.0004051)
(-6.06291e-05 -0.0350308 0.000122443)
(0.000219659 -0.0368399 1.41132e-05)
(-0.000941308 -0.0339771 -2.26288e-05)
(-0.000922624 -0.0285252 -4.31173e-05)
(-0.0026683 -0.0174418 -5.67947e-05)
(-0.000341072 0.00245665 -0.000137403)
(0.000952481 0.0517097 -1.79736e-05)
(-0.000329435 0.0785872 -0.000157282)
(0.00166279 0.0687389 -7.05932e-05)
(0.000703925 0.0653112 0.000120818)
(-0.00193411 0.0490308 4.61818e-05)
(-0.00295535 0.0397021 -3.18204e-05)
(-0.00394009 0.0346989 -3.28691e-05)
(-0.00441721 0.0296675 1.68604e-05)
(-0.0051422 0.0261868 4.65162e-05)
(-0.00610717 0.0224158 0.000254323)
(-0.00931679 0.00209444 0.000521672)
(-0.00695243 -0.00700329 -0.000137102)
(-0.00563667 -0.0120427 2.03373e-05)
(-0.00245562 -0.00943614 -0.0002487)
(-0.00108968 -0.0164945 6.33582e-05)
(0.00227576 -0.00872614 -0.000236298)
(0.00384142 -0.0148747 0.000351336)
(0.00332934 -0.0134005 -0.000300991)
(0.00960577 -0.0141244 -0.000221459)
(0.0104194 -0.0172857 0.00033181)
(0.0100604 -0.0121741 -0.000148882)
(0.0100899 -0.0203886 0.000483673)
(0.00243824 -0.0345745 0.000126596)
(0.00303525 -0.0356192 -9.3964e-06)
(0.00158207 -0.0324857 -5.44687e-05)
(0.00085481 -0.0267955 -3.04282e-05)
(-0.00151901 -0.0162966 -3.78598e-05)
(-0.000254332 0.00298697 -9.5241e-05)
(0.00113233 0.0519135 -4.33335e-05)
(-0.000247513 0.0795222 -0.000172572)
(0.0014552 0.0691219 -0.000104696)
(-3.19408e-05 0.0664313 0.000128861)
(-0.00324855 0.0503025 5.87555e-07)
(-0.00420073 0.0420668 -6.49413e-05)
(-0.00540217 0.0364642 -4.17249e-05)
(-0.00705473 0.0312091 1.0932e-05)
(-0.00822286 0.0275482 -1.44227e-05)
(-0.00856739 0.019992 0.000143336)
(-0.00905228 -0.00280691 0.000591437)
(-0.00818564 -0.00971058 0.000217549)
(-0.00549652 -0.0141969 6.53037e-05)
(-0.00266422 -0.0117492 7.161e-05)
(-0.00131404 -0.0178692 6.07699e-05)
(0.000351897 -0.0125765 5.87594e-05)
(0.00302024 -0.0161253 1.45555e-05)
(0.00563092 -0.0156805 8.64476e-05)
(0.00681977 -0.0167289 7.69977e-06)
(0.0104091 -0.0181241 4.62764e-05)
(0.0144736 -0.0151898 0.000338582)
(0.0120843 -0.0212155 0.000524375)
(0.0053849 -0.0342496 2.86766e-05)
(0.00631143 -0.0338727 6.02302e-06)
(0.00426606 -0.030114 -5.85133e-05)
(0.00262343 -0.0242376 1.08854e-05)
(-0.000389361 -0.0142332 -1.68133e-07)
(-0.000180522 0.00358911 -4.56029e-05)
(0.00133349 0.0524609 -6.35699e-05)
(-7.91117e-05 0.0807921 -0.000154015)
(0.00115182 0.0698042 -0.000144762)
(-0.00093292 0.0677562 0.000129019)
(-0.00455102 0.0522743 -4.46617e-05)
(-0.00527059 0.0449638 -4.52213e-05)
(-0.00717654 0.0390032 -1.58492e-05)
(-0.0100566 0.0335861 8.38788e-06)
(-0.0118063 0.0292309 -2.75989e-05)
(-0.0110985 0.0163276 0.00018862)
(-0.0101436 -0.00797899 0.000659905)
(-0.00958146 -0.0147101 0.000404172)
(-0.00602505 -0.019218 -2.20329e-05)
(-0.0030556 -0.01552 0.000297261)
(-0.00159676 -0.0202575 2.14297e-05)
(-0.00139898 -0.016187 0.0002932)
(0.00181768 -0.0217164 -0.000289027)
(0.00606175 -0.0185926 0.000281948)
(0.00426327 -0.0200176 0.00036603)
(0.0110302 -0.026434 -0.000395846)
(0.0198388 -0.022568 0.00057495)
(0.0172861 -0.0240325 0.00108815)
(0.00798919 -0.0328473 -3.07427e-05)
(0.00986227 -0.0321685 9.10797e-05)
(0.00680107 -0.0276866 -7.43389e-06)
(0.00401052 -0.0215816 6.5718e-05)
(0.000778279 -0.0123697 3.35262e-05)
(5.66673e-05 0.00419705 -2.23642e-05)
(0.00136998 0.0532199 -7.82866e-05)
(5.17125e-05 0.0824531 -0.000139627)
(0.00107004 0.0705908 -0.000154493)
(-0.00143592 0.069002 0.000116675)
(-0.00495729 0.0551084 -8.31321e-05)
(-0.00558622 0.0482229 -5.23614e-06)
(-0.008135 0.042323 7.37264e-06)
(-0.0119661 0.0369741 2.09314e-05)
(-0.0156636 0.0306506 5.08848e-05)
(-0.0136016 0.0102344 0.000231342)
(-0.0178217 -0.015757 0.000781409)
(-0.0154789 -0.0200296 -0.000521316)
(-0.00752531 -0.0216651 -0.000373076)
(-0.00408286 -0.0178296 -0.000601044)
(-0.00224704 -0.0206572 -0.000231729)
(-0.00159168 -0.0171946 -0.000564376)
(-0.000108941 -0.0203234 -0.00029227)
(-0.000159634 -0.0194311 -0.000643399)
(0.00659058 -0.0234897 -0.000639759)
(0.0107313 -0.029932 -0.000397855)
(0.0260142 -0.0326969 -0.000394069)
(0.0255455 -0.0350298 0.00180533)
(0.0130769 -0.0332062 8.79272e-05)
(0.0126414 -0.0305593 0.000178478)
(0.00826447 -0.0248735 8.3373e-05)
(0.00441158 -0.0187323 9.50908e-05)
(0.00142115 -0.0105528 7.28554e-05)
(0.000250129 0.00576445 5.21945e-06)
(0.000987327 0.0541143 -6.14519e-05)
(6.85196e-05 0.0839577 -9.82503e-05)
(0.00116026 0.0714679 -0.00019593)
(-0.00184454 0.0708689 7.29444e-05)
(-0.00525037 0.058516 -8.9446e-05)
(-0.00578484 0.0512611 4.06814e-05)
(-0.00881011 0.0458182 7.37359e-05)
(-0.0126841 0.0411951 0.000106534)
(-0.0172167 0.0324626 0.000202622)
(-0.0168782 0.00718969 0.000240953)
(-0.0227369 -0.0112017 0.000329072)
(-0.0211105 -0.0118984 -0.00191915)
(-0.00778152 -0.0102709 -0.00167764)
(-0.00576052 -0.00597094 -0.00166368)
(-0.00211074 -0.00712237 -0.00156129)
(-0.00283371 -0.00503572 -0.00152476)
(-0.00256238 -0.00747068 -0.00157636)
(-0.00436596 -0.00722254 -0.00168603)
(0.00204705 -0.0107816 -0.00212773)
(0.00471889 -0.018064 -0.00224845)
(0.0270274 -0.0216495 -0.00284652)
(0.0297835 -0.0299849 7.55246e-05)
(0.0187723 -0.0279824 -2.93541e-05)
(0.0137595 -0.0261157 0.000202684)
(0.00797861 -0.0215073 0.000150114)
(0.00383973 -0.0165702 0.000147959)
(0.00125376 -0.00966847 0.000112921)
(0.000254554 0.00712569 3.28932e-05)
(0.000449166 0.054863 -2.25694e-05)
(6.47314e-06 0.0851147 -6.96362e-05)
(0.00146069 0.0721382 -0.000163215)
(-0.00138246 0.07347 5.25741e-05)
(-0.0042217 0.0616451 -4.86237e-05)
(-0.00438651 0.0533009 8.75271e-05)
(-0.00679242 0.047841 0.000135025)
(-0.00886317 0.0427769 0.000215875)
(-0.0116876 0.030817 0.000244962)
(-0.00741829 0.00442317 0.000530567)
(-0.00491644 -0.00933429 0.000954826)
(-0.00460671 -0.000289601 0.000641706)
(-0.00368864 0.00173426 0.000625774)
(-0.00284857 0.00589005 0.0006313)
(-0.00114666 0.00622849 0.000596878)
(-0.00103296 0.00879387 0.000630959)
(-0.00062609 0.0096024 0.000552367)
(-0.00162942 0.00958246 0.000536439)
(0.0010294 0.00823799 0.000326408)
(0.0030164 0.00107006 0.000229764)
(0.00861394 -0.00147943 0.000102976)
(0.0114577 -0.0208045 0.000179781)
(0.0103846 -0.0237575 0.000181138)
(0.00803199 -0.0239882 0.000253276)
(0.00390178 -0.019837 0.000189398)
(0.00155978 -0.0160401 0.00017437)
(0.000154382 -0.00901893 0.000156688)
(-0.000396626 0.00775139 7.10538e-05)
(-0.000334228 0.0550272 3.52182e-05)
(-0.000252534 0.0856002 -2.13444e-05)
(0.0015973 0.0722795 -0.000168935)
(-0.00121504 0.0756854 3.90016e-05)
(-0.00387293 0.0639438 -3.37891e-05)
(-0.00393336 0.0543317 6.88751e-05)
(-0.00611298 0.0484837 0.000115582)
(-0.00755553 0.0420494 0.000188771)
(-0.0101326 0.0252632 0.000140673)
(-0.00686701 -0.00607715 0.000364219)
(-0.00739337 -0.0171923 0.000509751)
(-0.00638457 -0.0172185 -8.62856e-05)
(-0.0040152 -0.014911 -4.68566e-05)
(-0.0028678 -0.0126642 -5.14582e-05)
(-0.00136389 -0.0111386 -5.53142e-05)
(-0.000703812 -0.00908758 -8.21428e-05)
(0.000720383 -0.00825669 -5.83671e-05)
(8.40981e-05 -0.00898861 3.18444e-06)
(0.00203016 -0.0114284 -7.07586e-05)
(0.00386767 -0.0149903 -0.000108337)
(0.0086359 -0.0187235 -0.000220181)
(0.0115159 -0.0256904 2.56736e-05)
(0.00938873 -0.0260565 0.000189924)
(0.00587746 -0.0236567 0.000176946)
(0.00184095 -0.0189807 8.77539e-05)
(0.000561711 -0.0162403 8.84271e-05)
(-0.000410477 -0.0076758 0.000166604)
(-0.000588275 0.00789607 5.08654e-05)
(-0.000662717 0.0543791 5.15673e-05)
(-0.00027716 0.0851699 -7.07312e-06)
(0.00179861 0.0722849 -0.000135392)
(-0.00064997 0.0779147 7.06638e-05)
(-0.00271996 0.0659103 4.08862e-06)
(-0.00264061 0.0550224 0.000111)
(-0.00427658 0.0485815 0.000156562)
(-0.00511796 0.0409745 0.000269106)
(-0.00592233 0.0212573 0.000234871)
(-0.00356068 -0.00750912 0.000488438)
(-0.00417996 -0.0150474 0.00026181)
(-0.00327373 -0.0131742 9.02871e-05)
(-0.00182008 -0.0099688 6.67277e-05)
(-0.000620278 -0.0067736 6.34245e-05)
(0.00036142 -0.00488018 0.000104223)
(0.000775102 -0.00234581 0.000140425)
(0.000990011 0.000157196 0.000140253)
(-0.000536112 -0.00076251 0.000146065)
(-0.000252827 -0.00507502 5.59705e-05)
(0.00143658 -0.0103981 3.88116e-05)
(0.00421381 -0.0156134 -4.32887e-06)
(0.0062231 -0.0237206 7.82716e-05)
(0.00540791 -0.0246585 0.000235984)
(0.00194756 -0.0216395 0.000147507)
(-0.000177899 -0.0179689 9.9044e-05)
(-0.000514249 -0.0163109 8.72081e-05)
(-0.00117154 -0.00569427 0.000184755)
(-0.000970773 0.00789237 7.73524e-05)
(-0.00108156 0.0533841 9.21474e-05)
(-0.000530729 0.084461 1.18325e-05)
(0.00169969 0.0716121 -0.000126898)
(-0.000469017 0.0786292 9.32756e-05)
(-0.00221185 0.0665462 3.33624e-05)
(-0.00230238 0.0551259 9.57478e-05)
(-0.00374477 0.0480361 0.000110645)
(-0.00446903 0.0385228 0.000179907)
(-0.00345357 0.0154369 0.000146505)
(-0.00258056 -0.0104558 0.00030268)
(-0.0041467 -0.0173482 1.83533e-05)
(-0.00322562 -0.0165578 -0.000102713)
(-0.00185065 -0.0131118 -0.000120465)
(-0.000966791 -0.0106157 -0.000110765)
(-3.3721e-05 -0.00910647 -0.000100841)
(0.000389857 -0.0076726 -7.08517e-05)
(0.00116539 -0.00579781 -3.89584e-05)
(0.000667685 -0.00652431 1.54113e-05)
(0.000771871 -0.00988868 -4.80275e-05)
(0.00172478 -0.0139805 -5.56489e-05)
(0.00339803 -0.0191909 -8.04699e-05)
(0.00452264 -0.0253481 3.98741e-06)
(0.00330879 -0.0250973 0.000136457)
(0.000134801 -0.0204282 8.35408e-06)
(-0.000465211 -0.0178893 -2.56113e-06)
(-0.000431612 -0.0167021 2.36981e-05)
(-0.00115139 -0.00595257 2.73858e-05)
(-0.00100215 0.00748586 7.78095e-05)
(-0.00126175 0.0521574 0.000110157)
(-0.000645261 0.0829972 6.06904e-06)
(0.00171765 0.0712184 -0.000106234)
(-0.000115164 0.0796854 9.37141e-05)
(-0.00146873 0.0671648 3.53661e-05)
(-0.00169713 0.0552261 0.000106246)
(-0.00289105 0.0474386 0.000122396)
(-0.00346753 0.0359069 0.000182669)
(-0.00163133 0.0115285 0.000194504)
(-0.00130379 -0.0100797 0.000259327)
(-0.00224717 -0.0158663 0.000103543)
(-0.00143135 -0.0148173 -1.14884e-05)
(-0.000515685 -0.0110103 -1.44865e-05)
(1.75153e-05 -0.00821886 -3.60658e-06)
(0.000405626 -0.00656327 3.46868e-06)
(0.000651849 -0.00544903 2.83541e-05)
(0.00107972 -0.00314226 4.76004e-05)
(7.41343e-05 -0.00433114 9.53403e-05)
(-0.000259007 -0.00836615 2.94666e-05)
(0.000428019 -0.0129622 9.76336e-07)
(0.00133705 -0.0182739 -2.1004e-05)
(0.0019428 -0.023823 2.11409e-05)
(0.00115293 -0.0231276 9.48448e-05)
(-0.000821358 -0.0183524 -1.33665e-05)
(-0.00067022 -0.0170295 -5.504e-06)
(-0.000565955 -0.0160715 6.81927e-06)
(-0.00108354 -0.00583814 5.92099e-05)
(-0.00115664 0.00719229 0.000138741)
(-0.00136677 0.0504219 0.000143014)
(-0.00099037 0.0814505 -1.37074e-05)
(0.00166026 0.0704381 -7.8104e-05)
(-5.8722e-06 0.0794541 0.00011312)
(-0.00129199 0.067267 7.12104e-05)
(-0.00166292 0.0552612 0.000118756)
(-0.00242525 0.0469094 0.000121663)
(-0.00301513 0.0334629 0.000118943)
(-0.000898377 0.00818481 0.000155429)
(-0.000672186 -0.0105046 0.000190436)
(-0.00103706 -0.0157283 7.65041e-06)
(-0.000693794 -0.0147869 -5.89725e-05)
(-0.000237292 -0.0110367 -6.37779e-05)
(-1.10607e-05 -0.00870061 -3.8283e-05)
(0.000111973 -0.00715864 -4.26403e-05)
(0.000113683 -0.00636418 -3.42436e-05)
(0.000356154 -0.00447304 -3.1365e-05)
(0.000187929 -0.00549556 -2.17672e-05)
(0.000181942 -0.0090174 -3.70334e-05)
(0.000357868 -0.0129907 -3.86502e-05)
(0.000623665 -0.0178321 -3.88026e-05)
(0.000678152 -0.022639 -1.89052e-05)
(0.000286467 -0.0214275 -1.8388e-05)
(-0.00060123 -0.0165792 -4.66294e-05)
(-0.000623737 -0.0158688 -2.04953e-05)
(-0.000797525 -0.014964 8.08476e-06)
(-0.00114998 -0.00600029 -4.7325e-06)
(-0.00133481 0.00776694 0.000350831)
(-0.00161386 0.049039 0.00012508)
(-0.000978246 0.0801106 -2.18512e-05)
(0.0014099 0.0700568 -0.00012728)
(5.62859e-05 0.0798183 7.89415e-05)
(-0.00103615 0.066685 6.49814e-05)
(-0.00130855 0.0538687 0.000113994)
(-0.00183299 0.0447775 0.000122354)
(-0.00216295 0.029807 6.17404e-05)
(-0.000705894 0.00491691 5.85739e-05)
(-0.000240295 -0.00932887 0.00024228)
(-0.000107704 -0.0136094 -8.88793e-05)
(-5.25205e-05 -0.0125183 -9.94422e-05)
(8.22055e-05 -0.0092346 -9.55236e-05)
(0.000143407 -0.00737067 -6.75602e-05)
(9.79667e-05 -0.00600008 -5.95598e-05)
(8.50722e-05 -0.00526988 -5.25298e-05)
(8.25965e-05 -0.00357238 -4.14562e-05)
(-0.000113072 -0.00420248 -4.55032e-05)
(-0.000172644 -0.0075641 -7.24826e-05)
(-0.000107546 -0.0110981 -0.000104421)
(-1.79482e-05 -0.015238 -0.000116547)
(-6.33118e-05 -0.0191482 -0.000121732)
(-0.000167611 -0.0177137 -0.000144238)
(-0.000449875 -0.0135337 -0.000121329)
(-0.000555442 -0.0132287 -0.000103712)
(-0.000747609 -0.0127131 -7.59259e-05)
(-0.000866555 -0.00882501 -5.65264e-05)
(-0.000779036 0.00863825 0.000569924)
(-0.000900975 0.0465637 8.63625e-05)
(-0.000419794 0.0779561 0.000135332)
(-0.0116905 0.00826116 -0.00142325)
(-0.019884 0.00899353 -0.00263349)
(-0.0256519 0.00741748 -0.00171884)
(-0.0250511 0.0080998 -0.00108025)
(-0.028151 0.00842784 -0.00101913)
(-0.0297244 0.0081553 -0.000934918)
(-0.0336629 0.0080763 -0.00103951)
(-0.0370749 0.00858178 -0.00128871)
(-0.040382 0.00893912 -0.00162573)
(-0.0444542 0.00968869 -0.00181755)
(-0.050752 0.0099364 -0.00199362)
(-0.0604661 0.00935456 -0.00200423)
(-0.0673288 0.0103361 -0.00177955)
(-0.0723868 0.0114495 -0.00187401)
(-0.0736859 0.0117045 -0.00224635)
(-0.0692196 0.0122927 -0.00267667)
(-0.0632411 0.0134053 -0.00286157)
(-0.055318 0.013345 -0.00312038)
(-0.0444566 0.0122922 -0.00351147)