/*--------------------------------*- C++ -*----------------------------------*\
| =========                 |                                                 |
| \\      /  F ield         | OpenFOAM: The Open Source CFD Toolbox           |
|  \\    /   O peration     | Version:  2.3.0                                 |
|   \\  /    A nd           | Web:      www.OpenFOAM.org                      |
|    \\/     M anipulation  |                                                 |
\*---------------------------------------------------------------------------*/
FoamFile
{
    version     2.0;
    format      ascii;
    class       volVectorField;
    location    "2.70051";
    object      Ur;
}
// * * * * * * * * * * * * * * * * * * * * * * * * * * * * * * * * * * * * * //

dimensions      [0 1 -1 0 0 0 0];

internalField   nonuniform List<vector> 
18816
(
(0.000770733 0.00585827 0.000443329)
(0.00127911 0.0117051 -0.000547088)
(0.0011493 0.00812098 0.000128878)
(0.00111143 0.00800129 0.000147315)
(0.000894801 0.00725925 0.000228413)
(0.000826663 0.00718317 0.00022513)
(0.000690902 0.00700677 0.000233978)
(0.000594686 0.00699154 0.000213117)
(0.000487704 0.00693241 0.00020397)
(0.00035614 0.00655453 0.000192959)
(0.000197854 0.00606578 0.000186118)
(4.89081e-05 0.00566192 0.000168846)
(-0.000111237 0.00505613 0.000156364)
(-0.000260835 0.00448578 0.000140073)
(-0.000383672 0.00401817 0.000120729)
(-0.000493683 0.0036344 0.000100827)
(-0.000560996 0.0033241 8.1014e-05)
(-0.000580346 0.00309956 6.70522e-05)
(-0.000517619 0.0029769 5.7453e-05)
(-0.000385454 0.00283699 5.20931e-05)
(-0.000226277 0.00274369 5.3509e-05)
(-1.97415e-05 0.00267916 7.2143e-05)
(0.000165532 0.00271901 6.32671e-05)
(0.000330256 0.00271471 4.24051e-05)
(0.000428884 0.00279089 3.85716e-05)
(0.000203661 0.00328554 6.86713e-05)
(-0.00040172 0.00508887 0.000121701)
(-0.000397919 0.00647826 0.000379286)
(0.000262342 0.00719356 0.000372554)
(0.0005769 0.012149 0.000929592)
(0.000582964 0.00901951 0.000682135)
(0.000546569 0.0089303 0.000644955)
(0.000502996 0.00826198 0.000559227)
(0.000474977 0.00824066 0.000500431)
(0.000421663 0.00818026 0.000425413)
(0.00036501 0.00810791 0.000363247)
(0.000293629 0.00783376 0.000304033)
(0.000236141 0.00732512 0.000255652)
(0.000200464 0.00678776 0.000212246)
(0.000137111 0.00641186 3.85467e-05)
(2.82244e-05 0.00562119 3.4521e-05)
(-3.2998e-05 0.00492206 2.77481e-05)
(-9.53858e-05 0.0043675 2.25711e-05)
(-0.000160207 0.00392032 1.73858e-05)
(-0.000206476 0.00359786 1.40063e-05)
(-0.000249685 0.00334765 8.65021e-06)
(-0.000270598 0.00322186 3.98128e-06)
(-0.000235361 0.00317108 3.4248e-06)
(-0.000169376 0.00308783 7.94303e-06)
(-5.25058e-05 0.00301203 1.21308e-05)
(5.00721e-05 0.00300142 1.11953e-05)
(0.000152357 0.00289765 8.34545e-06)
(0.000110708 0.00306273 6.5996e-06)
(-2.12928e-05 0.00364251 2.98609e-07)
(-0.000344721 0.00590861 6.66968e-05)
(-0.000280324 0.00775546 0.0002619)
(0.00042698 0.00694181 0.000114634)
(0.000562592 0.00658816 0.000853173)
(0.000315924 0.00575217 0.000563185)
(0.000346142 0.00569646 0.000501761)
(0.000307096 0.0054827 0.000417303)
(0.000268569 0.00552343 0.000385996)
(0.000222317 0.00554911 0.000347133)
(0.000187003 0.00530748 0.000306041)
(0.000163137 0.00488272 0.000266321)
(0.000126391 0.00452327 0.000255475)
(0.000100852 0.00419265 0.000489812)
(0.000136493 0.00398694 0.000345706)
(9.10894e-05 0.00354729 7.37593e-07)
(8.56351e-06 0.0030883 3.56254e-06)
(-3.34303e-05 0.00273369 -4.35384e-07)
(-8.07229e-05 0.00250797 -4.70007e-06)
(-0.000143722 0.00238713 -7.8793e-06)
(-0.000221223 0.00233466 -9.22453e-06)
(-0.000265499 0.00232981 -6.70056e-06)
(-0.000244521 0.00232731 -3.67912e-06)
(-0.00019196 0.00233866 4.15963e-06)
(-9.34749e-05 0.00234981 1.29755e-05)
(4.88607e-06 0.00234002 1.58475e-05)
(9.11351e-05 0.00233429 1.29691e-05)
(8.99941e-05 0.00236866 5.04093e-06)
(5.20321e-07 0.00266708 -2.56077e-06)
(-0.000216553 0.00427711 2.47024e-05)
(-0.000221179 0.00636058 0.000123004)
(0.000335024 0.00724459 7.66791e-05)
(0.000358452 0.00696926 -0.000767103)
(0.000185083 0.00519124 0.000101992)
(0.000260847 0.00496519 5.20927e-05)
(0.000229196 0.00482208 4.5302e-05)
(0.000197446 0.00485622 4.31698e-05)
(0.0001534 0.00479822 3.24211e-05)
(0.000138479 0.00447209 2.77068e-05)
(0.000131492 0.0041077 2.47901e-05)
(0.000115442 0.00377497 2.48776e-05)
(6.62742e-05 0.00336254 5.08783e-05)
(6.91422e-05 0.00305031 0.000351383)
(8.38161e-05 0.00281468 0.000134575)
(2.45059e-05 0.00249297 -1.13645e-05)
(-4.31742e-05 0.00227035 -1.82922e-05)
(-9.88636e-05 0.00220763 -3.1952e-05)
(-0.00015341 0.00221711 -4.58278e-05)
(-0.000222125 0.0022665 -5.67714e-05)
(-0.000271249 0.00229466 -5.80197e-05)
(-0.000239725 0.00229852 -5.14213e-05)
(-0.000159458 0.00229959 -3.28913e-05)
(-5.41652e-05 0.00232042 -1.54394e-05)
(3.53598e-05 0.00234305 7.35969e-07)
(0.000109336 0.00236654 4.82068e-06)
(9.87318e-05 0.00236187 -2.32389e-06)
(7.10143e-06 0.0024217 -8.63769e-06)
(-0.000148062 0.0036681 5.59625e-06)
(-0.00013246 0.00598094 7.68541e-05)
(0.000278915 0.00679873 8.7514e-05)
(0.000364293 0.0104294 -0.00113998)
(0.00015909 0.00607327 -0.000655874)
(0.000177111 0.00502128 3.92978e-06)
(0.000175831 0.00484876 1.36726e-05)
(0.000146716 0.00483565 1.44414e-05)
(0.000116313 0.00466832 1.96966e-05)
(0.000112411 0.00425004 -2.25867e-07)
(0.000105071 0.00388093 1.91226e-06)
(9.58141e-05 0.00348573 3.46261e-06)
(6.21084e-05 0.00296456 1.64624e-05)
(4.33843e-05 0.00252139 0.000168056)
(4.14986e-05 0.00233107 0.000104889)
(4.42739e-06 0.00217497 -1.12446e-05)
(-3.46348e-05 0.00213341 -2.44442e-05)
(-5.39381e-05 0.00218779 -2.99999e-05)
(-8.39653e-05 0.00228182 -2.6294e-05)
(-0.000171135 0.00238518 -1.99837e-05)
(-0.000258997 0.00244622 -1.43967e-05)
(-0.000254435 0.00245539 -9.82123e-06)
(-0.000179897 0.00243094 -1.00703e-05)
(-5.90024e-05 0.00238952 -6.79548e-06)
(4.29128e-05 0.00235876 -1.00873e-05)
(0.000101928 0.00233038 9.51349e-07)
(7.28845e-05 0.00231133 -2.51459e-06)
(-4.62381e-06 0.00229109 -4.89833e-06)
(-8.03445e-05 0.00325581 9.87699e-06)
(-6.9675e-05 0.00555282 4.70504e-05)
(0.000235723 0.00649055 9.46965e-05)
(0.000470296 0.0158358 -0.000557003)
(0.000374073 0.00840787 -0.000942264)
(0.000185008 0.00588472 -0.000610914)
(0.000138219 0.00536876 -0.000411018)
(0.00010159 0.00519887 -0.000312074)
(6.01016e-05 0.00484567 -0.000225591)
(7.77507e-05 0.00415652 9.42704e-06)
(8.68779e-05 0.00376468 1.50278e-05)
(8.22861e-05 0.00331403 1.1932e-05)
(5.50929e-05 0.00272497 6.53211e-06)
(2.92583e-05 0.00223449 8.35887e-05)
(2.5529e-05 0.00213135 6.55073e-05)
(3.74683e-06 0.00210801 -2.80055e-06)
(-1.69261e-05 0.00216011 6.24583e-07)
(-1.70574e-05 0.00220698 -1.19253e-07)
(-2.52703e-05 0.0022659 -3.80435e-06)
(-0.000108391 0.00233068 -1.03096e-05)
(-0.000227516 0.00242795 -7.32395e-06)
(-0.000261079 0.00245998 -2.63361e-06)
(-0.000215413 0.00246698 -7.10318e-07)
(-0.000105614 0.00243742 4.44959e-07)
(1.16922e-05 0.00237538 -5.10496e-06)
(7.6764e-05 0.00231147 -5.11398e-06)
(4.75909e-05 0.00225428 -4.03288e-06)
(1.26279e-06 0.00224248 -3.71605e-06)
(-6.26455e-05 0.00302479 8.53267e-06)
(-6.29401e-05 0.00530611 2.52761e-05)
(0.000172124 0.00621929 6.62707e-05)
(0.000372481 0.0209644 -0.000131184)
(0.000421294 0.0112666 -0.000445967)
(0.000322145 0.0075598 -0.000724894)
(0.000185118 0.00631143 -0.000520587)
(0.000139362 0.0058677 -0.000407274)
(8.2152e-05 0.00522569 -0.000381694)
(5.20933e-05 0.00423968 -0.000272058)
(5.48753e-05 0.00381795 -0.000184675)
(4.58702e-05 0.00327768 -0.000149912)
(3.61518e-05 0.00255098 2.919e-06)
(3.125e-05 0.0020906 3.64517e-05)
(1.5963e-05 0.00206877 4.20734e-05)
(-4.13615e-06 0.00209633 1.08741e-06)
(-5.54605e-06 0.00211919 7.13175e-07)
(1.0591e-05 0.00212855 -6.8757e-07)
(1.53108e-05 0.00213913 -2.17557e-06)
(-3.61e-05 0.00215833 -3.81081e-06)
(-0.000155885 0.00225932 -4.60231e-06)
(-0.000236105 0.00234231 -2.78735e-06)
(-0.000212856 0.00237935 -1.9162e-06)
(-0.000139141 0.00238842 -2.34959e-06)
(-4.75203e-05 0.00234971 -1.69387e-06)
(3.32286e-05 0.00226944 -7.59551e-06)
(2.07513e-05 0.002204 -5.98307e-06)
(2.68838e-06 0.00219693 2.47846e-08)
(-3.46178e-05 0.00286728 9.78169e-06)
(-4.43498e-05 0.00513072 1.45366e-05)
(0.000118867 0.00603034 5.1573e-05)
(0.000269718 0.0232634 -2.77604e-05)
(0.000301234 0.0129604 -0.000122474)
(0.000281553 0.00933738 -0.000300467)
(0.000195518 0.00727206 -0.00020765)
(0.000147911 0.00648872 -0.000143308)
(0.00012118 0.00552085 -0.000132408)
(0.000105431 0.00445864 -0.000255615)
(5.28896e-05 0.00397273 -0.000223606)
(2.56786e-05 0.00328515 -0.000212151)
(1.48781e-05 0.00243365 -2.43554e-05)
(1.18979e-05 0.00204649 1.21229e-05)
(1.13251e-05 0.00202642 1.2657e-05)
(-2.93877e-06 0.00207291 -3.31472e-06)
(-8.33412e-06 0.00207682 -2.33757e-06)
(2.52801e-06 0.00206828 -1.23067e-06)
(4.15895e-06 0.00207914 -3.41716e-07)
(-7.68327e-06 0.00200494 1.12877e-07)
(-7.82028e-05 0.00210291 -3.89753e-06)
(-0.000167371 0.00221916 -2.59529e-06)
(-0.000187578 0.00229072 1.01131e-06)
(-0.000142905 0.00231858 -2.16214e-06)
(-8.51526e-05 0.00231358 -3.78962e-06)
(-1.00997e-06 0.00227114 -5.25491e-06)
(6.48755e-06 0.00218529 -7.78453e-06)
(-6.27181e-07 0.00218918 4.59582e-06)
(-2.58593e-05 0.0027806 1.14043e-05)
(-4.44781e-05 0.00501984 6.49059e-06)
(7.07484e-05 0.00592437 4.04981e-05)
(0.000180579 0.0234071 -5.56737e-07)
(0.000205787 0.0131755 -4.8756e-05)
(0.000186244 0.0101877 -6.09632e-05)
(0.000135386 0.00769958 -3.40333e-05)
(0.000106666 0.00666907 -1.93601e-05)
(8.72008e-05 0.005531 -2.2406e-05)
(8.2768e-05 0.00456691 -7.98323e-05)
(5.10159e-06 0.00405725 -7.67661e-05)
(-2.19141e-05 0.00314394 -8.50202e-05)
(9.47946e-06 0.00227342 -1.99153e-05)
(-1.38138e-05 0.00197269 2.08221e-06)
(-1.22119e-07 0.00198877 7.47363e-06)
(5.69264e-06 0.00200898 -2.97367e-06)
(-1.96116e-05 0.00204228 -3.75141e-06)
(1.17678e-05 0.00205945 -1.1608e-06)
(-4.71949e-05 0.00204516 -1.56155e-06)
(-1.7561e-05 0.00213378 1.66566e-05)
(3.95122e-05 0.00207577 3.69459e-07)
(-7.64611e-05 0.00219482 -2.37641e-06)
(-0.000130636 0.00225421 -4.04949e-07)
(-0.000127169 0.00228333 4.95545e-06)
(-9.58196e-05 0.00228494 -4.79859e-06)
(-4.92423e-05 0.00227187 -4.24761e-06)
(-6.46154e-06 0.00220524 -4.68704e-06)
(7.97858e-06 0.00220039 7.38697e-06)
(-2.11829e-05 0.00272403 1.04457e-05)
(-3.75478e-05 0.00496216 6.08111e-06)
(5.47037e-05 0.00587062 3.29065e-05)
(0.000127771 0.0233021 8.76569e-06)
(0.00013997 0.0131192 -2.44593e-05)
(0.00012754 0.0103786 -1.64776e-05)
(8.35125e-05 0.00776191 -4.31949e-06)
(5.60252e-05 0.00663798 1.17039e-06)
(1.80767e-05 0.00552103 1.49155e-06)
(8.08038e-05 0.00460767 -1.5899e-05)
(-8.54261e-05 0.00411638 -3.14556e-05)
(-0.000144808 0.00282231 -3.76883e-05)
(5.55107e-06 0.00210288 -3.4595e-05)
(6.1118e-06 0.00190442 -7.84609e-06)
(1.73393e-05 0.00196813 -2.50259e-06)
(1.10976e-05 0.00201171 -1.9797e-06)
(2.85834e-05 0.00205628 -2.4721e-06)
(9.57006e-06 0.00209498 -1.83819e-06)
(6.31825e-05 0.00207887 -1.1912e-06)
(2.18255e-05 0.00218633 -1.69522e-05)
(-1.18924e-05 0.00213755 -1.20334e-06)
(-1.2919e-05 0.0022074 -4.20145e-06)
(-0.000121873 0.00224189 -1.97549e-06)
(-0.000104037 0.00225593 0.000399164)
(-0.000102526 0.00226094 -4.72181e-06)
(-7.05542e-05 0.00225763 -3.90127e-06)
(-4.42207e-06 0.00222454 -6.39625e-06)
(4.85537e-06 0.00213276 6.05811e-06)
(-4.27819e-05 0.00270008 7.66646e-06)
(-4.07382e-05 0.00488361 -4.64302e-06)
(3.6223e-05 0.00584493 2.72496e-05)
(8.90198e-05 0.0229334 1.34635e-05)
(9.03519e-05 0.0133377 -1.13483e-05)
(9.22637e-05 0.0104278 -4.56679e-06)
(5.76199e-05 0.00771616 9.90059e-07)
(5.97574e-05 0.00657864 8.33668e-07)
(-3.48638e-06 0.00551833 -1.77852e-06)
(7.65749e-05 0.00462509 -1.57418e-05)
(-0.000277859 0.00392851 -5.1535e-05)
(-0.000382239 0.00269255 8.11192e-06)
(4.0104e-05 0.00208927 -7.23179e-05)
(5.49481e-05 0.00195182 -3.48426e-05)
(8.43589e-05 0.00195413 -5.98095e-06)
(5.43335e-05 0.0020033 -3.08838e-06)
(4.91834e-05 0.00205929 3.87126e-07)
(4.66121e-05 0.00205593 -1.87594e-07)
(4.57567e-05 0.00209425 -1.51861e-06)
(4.86381e-05 0.00206583 -1.87743e-06)
(5.76647e-05 0.00212788 -2.23101e-06)
(2.87708e-06 0.00216527 -3.66121e-06)
(-0.000106391 0.00220957 -2.86168e-06)
(1.11565e-05 0.00225378 0.0013508)
(-0.000105492 0.00197561 -1.60533e-05)
(-8.7956e-05 0.00223544 -5.54298e-06)
(-8.00142e-05 0.00220618 -1.56562e-05)
(1.54407e-05 0.00206818 -1.90299e-05)
(-1.89447e-06 0.00268341 7.44823e-06)
(-5.76188e-05 0.00482312 -6.18466e-06)
(2.64136e-05 0.00582862 2.27381e-05)
(5.70304e-05 0.0221196 1.67929e-05)
(5.49043e-05 0.0137788 -2.99573e-06)
(5.53493e-05 0.0104347 2.5042e-07)
(3.59077e-05 0.00766123 3.46493e-06)
(4.79336e-05 0.00651387 3.77871e-07)
(1.38464e-05 0.00550363 -6.96851e-06)
(-7.63682e-06 0.00458108 -2.58658e-05)
(-0.000229932 0.00357619 -3.99796e-05)
(-0.000309489 0.00254622 -7.92516e-06)
(-3.82083e-05 0.0021225 -4.40267e-05)
(2.23295e-05 0.00205132 -2.30826e-05)
(4.64372e-05 0.00202124 2.60897e-06)
(6.56062e-05 0.00204661 -5.54036e-07)
(5.92798e-05 0.00209543 6.97772e-07)
(6.68069e-05 0.00209907 2.61165e-06)
(9.44611e-05 0.0021171 1.27182e-06)
(6.25551e-05 0.0021177 -3.38406e-07)
(8.70161e-05 0.00213509 -3.23096e-07)
(3.84717e-05 0.00215289 -5.09663e-06)
(-8.81527e-05 0.00219657 -6.47058e-06)
(0.000105164 0.00227176 0.00112668)
(-8.4765e-05 0.00119582 -3.78615e-06)
(-9.26651e-05 0.00197076 2.28007e-06)
(-0.000139946 0.00223337 -1.6237e-06)
(1.85534e-05 0.0022256 -4.26115e-06)
(1.50483e-05 0.00269922 8.83153e-06)
(-7.32053e-05 0.00487045 7.93167e-06)
(2.31946e-05 0.00581835 1.91754e-05)
(2.85767e-05 0.021831 2.12517e-05)
(1.37111e-05 0.0141391 9.15444e-07)
(2.24827e-05 0.0104 1.92828e-06)
(1.1519e-05 0.00761494 3.85646e-06)
(3.28748e-05 0.00647716 -8.68669e-07)
(-8.60463e-06 0.0055226 -1.14663e-05)
(-7.50791e-05 0.00448252 -3.69449e-05)
(-0.000231042 0.00305238 -4.87194e-05)
(-0.000274702 0.00221573 -1.59336e-05)
(-2.30811e-05 0.00206671 -1.42251e-05)
(4.31686e-05 0.00203823 -7.56189e-07)
(4.90425e-05 0.00206744 1.51717e-06)
(8.2321e-05 0.00211524 1.02839e-07)
(7.04293e-05 0.00213917 -3.72563e-08)
(8.1786e-05 0.00215756 1.53396e-06)
(8.7183e-05 0.00215284 3.54554e-07)
(7.96841e-05 0.0021101 -1.00857e-06)
(0.000103867 0.00214167 -3.21673e-08)
(3.70849e-05 0.00211948 -1.05114e-05)
(-7.35767e-05 0.00218495 -9.49953e-06)
(0.000112552 0.00225251 0.000235995)
(-4.34592e-05 0.000405812 7.13169e-07)
(-5.62095e-05 0.00116948 0.000130619)
(-0.000103772 0.0022662 4.57488e-05)
(-1.389e-06 0.00231842 2.93712e-06)
(-6.1195e-06 0.00270401 1.5238e-05)
(-5.41344e-05 0.00492407 2.76083e-05)
(2.23971e-05 0.00581452 1.80822e-05)
(2.4921e-06 0.0224373 2.74448e-05)
(-2.55348e-05 0.014232 1.50855e-06)
(-2.91705e-06 0.0103344 1.40228e-06)
(-7.07685e-06 0.00755949 3.83496e-06)
(2.01938e-05 0.00646498 -3.03793e-06)
(-2.73117e-05 0.00552763 -1.84524e-05)
(-0.000130736 0.00423101 -4.96042e-05)
(-0.000203875 0.00238265 -2.53243e-05)
(-0.000195893 0.00220319 -2.93592e-05)
(-5.52325e-05 0.00218235 -4.8532e-07)
(3.14564e-05 0.00207622 3.68088e-07)
(8.18997e-05 0.00214232 9.1154e-07)
(9.96588e-05 0.00215649 3.55494e-07)
(7.64033e-05 0.00215718 1.48408e-07)
(7.46263e-05 0.00215968 1.70339e-06)
(6.732e-05 0.0021308 -3.95687e-07)
(7.21915e-05 0.00211857 -1.62494e-06)
(0.000109603 0.00210487 -3.87265e-06)
(6.06887e-05 0.00214476 -1.85207e-05)
(-2.42312e-05 0.00218068 -1.06288e-05)
(5.9147e-05 0.0022333 -0.000186218)
(-2.46519e-05 7.2845e-05 1.84084e-07)
(-2.72336e-05 0.000359203 -6.45025e-06)
(-5.11516e-05 0.00227998 -7.002e-06)
(-1.20727e-05 0.0023162 3.66218e-07)
(-1.06481e-05 0.00267686 1.3782e-05)
(-2.22981e-05 0.0049119 2.77183e-05)
(2.42192e-05 0.00581199 1.75509e-05)
(-1.71664e-05 0.0231062 2.44768e-05)
(-6.24034e-05 0.0139646 -2.26299e-06)
(-3.14289e-05 0.0102225 8.69503e-08)
(-2.43119e-05 0.0075201 2.34e-06)
(-2.37221e-05 0.00647818 -7.66621e-06)
(-4.93913e-05 0.00551372 -2.55664e-05)
(-0.000159857 0.00367387 -5.4797e-05)
(-0.000124067 0.00208928 -1.02384e-05)
(-6.47499e-05 0.0022713 -7.98225e-06)
(-9.19601e-05 0.00226072 1.19552e-06)
(9.53347e-06 0.00224524 1.67586e-06)
(7.60454e-05 0.00223901 2.21612e-06)
(7.21443e-05 0.00223888 4.32342e-07)
(6.37228e-05 0.00220073 1.63882e-06)
(4.13495e-05 0.00221751 1.82748e-06)
(4.65484e-05 0.00220053 5.98605e-07)
(7.86079e-05 0.00220083 1.44352e-06)
(0.000133251 0.00220806 1.04079e-06)
(8.89494e-05 0.00221221 -1.00011e-05)
(-1.44425e-05 0.00219234 -7.31464e-06)
(-1.85403e-05 0.00183456 -4.58471e-05)
(-2.06689e-05 1.95206e-05 3.14939e-09)
(-2.21532e-05 7.44107e-05 -1.8764e-06)
(-2.85075e-05 0.00227455 -1.71218e-05)
(-1.55053e-05 0.00228532 -9.3197e-07)
(-1.89727e-06 0.00263084 1.14339e-05)
(4.12702e-06 0.00483876 1.91102e-05)
(2.19574e-05 0.00581757 1.80931e-05)
(-3.47439e-05 0.0225514 1.24254e-05)
(-8.06266e-05 0.0134509 -5.4775e-06)
(-4.78625e-05 0.0101277 -4.27215e-07)
(-3.64763e-05 0.00749059 -2.80449e-07)
(-5.96907e-05 0.00654341 -1.25986e-05)
(-1.68828e-05 0.00547514 -2.53102e-05)
(-9.27071e-05 0.00291 -1.40583e-05)
(-7.73774e-05 0.00222324 -2.24691e-05)
(-2.73729e-05 0.00220854 0.000169413)
(-5.01883e-05 0.00223943 1.43895e-05)
(1.17891e-05 0.00223701 -1.76924e-06)
(4.58841e-05 0.00222915 1.4007e-05)
(5.69506e-05 0.00218341 2.61063e-06)
(5.50292e-05 0.00221491 1.52674e-06)
(6.03826e-05 0.00216461 7.34975e-06)
(3.65956e-05 0.00218988 1.74942e-06)
(8.41164e-05 0.00223599 2.23543e-06)
(0.000116248 0.00221215 1.42849e-06)
(3.66111e-05 0.00220969 -8.71878e-07)
(-1.8562e-05 0.00219791 1.1026e-05)
(-9.49068e-06 0.000975567 -3.25589e-06)
(-6.53214e-06 1.72926e-05 1.57917e-08)
(-1.79734e-05 5.30242e-05 -3.45029e-07)
(-1.67844e-05 0.00222945 -4.02446e-05)
(-2.01677e-05 0.00226625 -4.99889e-07)
(6.32356e-06 0.00259698 9.83529e-06)
(2.02885e-05 0.00477665 1.1981e-05)
(2.63974e-05 0.0058342 1.98122e-05)
(-3.30184e-05 0.0208721 5.03454e-06)
(-6.72528e-05 0.0130502 -7.77125e-06)
(-4.94014e-05 0.010103 -2.18549e-06)
(-4.44621e-05 0.00746222 -3.17425e-06)
(-4.2243e-05 0.00657926 -1.45277e-05)
(-3.73551e-05 0.00529442 -3.00672e-05)
(-1.44353e-05 0.00229711 1.79814e-06)
(-6.4808e-05 0.00233396 5.9649e-05)
(-5.74702e-05 0.00217858 3.53869e-05)
(-4.33914e-05 0.00222113 1.20661e-05)
(2.13328e-08 0.00219831 1.56086e-05)
(2.64977e-05 0.00220178 4.14206e-06)
(6.02053e-05 0.00216412 6.70996e-06)
(4.52842e-05 0.0021709 5.2652e-06)
(1.328e-05 0.00214656 1.33244e-05)
(0.000109955 0.0021548 1.29926e-05)
(0.000101471 0.00217313 1.54377e-05)
(9.71838e-05 0.00200817 1.37378e-05)
(5.26467e-05 0.00178012 2.99073e-05)
(-1.90444e-05 0.00168665 3.54404e-05)
(-1.98238e-06 0.000358309 -7.31298e-08)
(-3.82074e-06 1.32079e-05 5.57041e-08)
(-1.2969e-05 3.54708e-05 1.33825e-08)
(-9.32753e-06 0.00176124 -9.82932e-05)
(-2.12571e-05 0.00225973 -8.41638e-08)
(1.02857e-05 0.00257273 8.00898e-06)
(2.70767e-05 0.00474405 6.70952e-06)
(2.50549e-05 0.00585827 2.07822e-05)
(-4.97873e-05 0.0202032 8.73099e-06)
(-9.17303e-05 0.0129613 -5.24382e-06)
(-5.45275e-05 0.0101334 -2.69682e-06)
(-6.80833e-05 0.00747403 -7.57694e-06)
(-2.69663e-05 0.0065722 -1.28731e-05)
(-2.52612e-05 0.00492117 -2.58923e-05)
(-8.83852e-06 0.00213803 6.28351e-06)
(-7.00969e-05 0.0024567 0.000433079)
(-7.32152e-05 0.00223334 2.16267e-06)
(-3.27328e-05 0.00220958 7.88278e-07)
(-7.79112e-06 0.00225416 -1.56687e-06)
(1.31742e-05 0.00219884 8.10672e-07)
(2.64833e-05 0.00223721 -1.57184e-07)
(3.74424e-05 0.00213258 4.88105e-06)
(4.38853e-05 0.0022121 6.53195e-07)
(6.81754e-05 0.00220811 3.04653e-05)
(0.000105193 0.00172963 7.09097e-05)
(8.46844e-05 0.0013716 5.05105e-05)
(2.07123e-05 0.000833968 3.52932e-05)
(-3.39963e-06 0.000612061 1.50959e-06)
(-3.97157e-07 0.000105693 2.11654e-07)
(-1.14273e-06 5.53426e-06 4.92425e-08)
(-1.65275e-06 1.17981e-05 6.07017e-08)
(-4.65515e-06 0.000664202 -2.15698e-05)
(-2.05909e-05 0.00226857 2.03503e-06)
(1.25554e-05 0.00255374 6.45981e-06)
(2.88961e-05 0.00473084 3.09046e-06)
(2.74753e-05 0.00589413 2.46175e-05)
(-4.97852e-05 0.0214322 2.04612e-05)
(-0.000118298 0.0132314 -2.38753e-06)
(-7.26664e-05 0.0101781 -6.8557e-06)
(-0.000104701 0.00748686 -9.85519e-06)
(-4.05659e-05 0.00648116 -6.8335e-06)
(-2.73123e-05 0.00444002 -2.04625e-06)
(-1.65586e-05 0.00209109 -7.62667e-06)
(-1.60033e-06 0.00224259 8.16936e-05)
(-7.57797e-05 0.00210571 7.47487e-06)
(-2.28829e-05 0.00215122 2.65379e-06)
(-1.19989e-05 0.00212313 2.6122e-06)
(7.80327e-06 0.00216072 1.84054e-06)
(-5.4537e-06 0.00211573 2.51215e-06)
(2.00888e-05 0.00213142 5.19781e-06)
(8.7219e-05 0.00209065 2.82682e-06)
(1.53006e-05 0.00192321 3.05547e-06)
(1.62939e-05 0.000880188 2.7299e-07)
(3.1691e-05 0.000511748 4.43878e-07)
(4.94812e-06 0.000200646 -3.87101e-07)
(-2.08469e-06 4.92882e-05 9.132e-08)
(-4.55324e-07 9.90649e-06 7.20736e-08)
(-7.92751e-07 8.16322e-07 2.84501e-08)
(-4.31049e-07 2.09925e-07 5.87266e-08)
(-3.58851e-06 7.92366e-05 6.07334e-06)
(-1.86288e-05 0.00230811 2.90609e-06)
(1.2377e-05 0.00253276 4.85738e-06)
(2.67815e-05 0.00473457 5.79397e-07)
(2.09557e-05 0.00593561 2.46517e-05)
(-7.38952e-05 0.0227394 1.12753e-05)
(-0.000168456 0.0136891 -3.20574e-06)
(-0.000105805 0.0102074 -8.38009e-06)
(-0.000137282 0.00750159 -7.01446e-06)
(-8.63024e-05 0.00638047 -1.60324e-06)
(-0.00012587 0.003922 4.65869e-06)
(-8.35661e-05 0.00216715 -1.41179e-05)
(-3.42687e-05 0.00221555 6.66521e-05)
(-5.70318e-05 0.00205783 2.71262e-05)
(-1.55251e-05 0.00212117 1.1421e-05)
(2.64564e-06 0.00207162 1.93114e-05)
(4.90954e-06 0.00212218 1.62787e-05)
(-4.29979e-06 0.00207202 2.23043e-05)
(1.06704e-05 0.00212204 1.61349e-05)
(-2.91737e-06 0.00205752 1.77875e-05)
(3.43267e-05 0.00144689 1.05656e-05)
(2.80122e-05 0.000320096 7.2512e-07)
(1.23288e-05 0.000109329 4.10547e-07)
(6.57084e-06 5.5152e-05 -9.22639e-08)
(-1.09281e-06 1.55884e-05 1.15028e-08)
(-4.33674e-07 2.79091e-06 5.47172e-08)
(-4.65231e-07 -5.78571e-07 1.59275e-08)
(-4.35143e-08 -3.98029e-07 3.79373e-08)
(-2.78672e-06 2.35085e-05 1.82016e-05)
(-1.55911e-05 0.0023263 2.04924e-06)
(1.04641e-05 0.00249414 3.24224e-06)
(2.15931e-05 0.00475086 -2.87429e-07)
(2.46272e-05 0.00598476 3.04512e-05)
(-4.61962e-05 0.0223534 -3.78632e-06)
(-0.000124819 0.0140198 -1.08271e-05)
(-4.96903e-05 0.0102045 -1.16528e-05)
(-4.80092e-05 0.00749876 -9.55477e-06)
(-2.96533e-05 0.00625819 -1.18723e-05)
(-9.51681e-05 0.00331417 -4.60394e-06)
(-8.69011e-05 0.00235116 -2.1567e-05)
(-0.000134329 0.0023905 8.464e-05)
(-0.000117009 0.00249342 6.59732e-05)
(-1.29808e-05 0.0024864 7.88532e-05)
(-1.33565e-05 0.00252507 7.6713e-05)
(3.28018e-06 0.00249521 8.41387e-05)
(-1.01158e-05 0.00252762 7.96289e-05)
(-1.66558e-06 0.00249956 8.53818e-05)
(-2.88344e-05 0.002516 7.62968e-05)
(-1.85127e-05 0.00122342 5.20572e-05)
(8.30505e-06 0.000147061 3.78314e-06)
(1.56917e-07 4.35316e-05 5.88036e-07)
(1.09605e-06 1.71586e-05 2.50591e-07)
(-5.55943e-07 4.9363e-06 3.47418e-08)
(-8.8468e-07 -1.29842e-07 4.11111e-08)
(-5.2529e-07 -1.44215e-06 7.29878e-09)
(-8.56259e-07 -1.03312e-06 5.6876e-08)
(-5.81991e-07 1.69363e-05 2.63005e-05)
(-9.15177e-06 0.00235392 5.18179e-06)
(6.0512e-06 0.00242301 1.06854e-06)
(1.1368e-05 0.0047701 2.91525e-07)
(3.31958e-05 0.00603805 3.23626e-05)
(-7.99268e-06 0.0206863 -1.04434e-05)
(-4.10087e-05 0.0138726 -1.98612e-05)
(1.89975e-05 0.0100791 -1.4019e-05)
(2.40254e-05 0.00738656 -1.15188e-05)
(1.65693e-05 0.00594623 -1.93827e-05)
(-2.08409e-05 0.00266671 1.61451e-05)
(9.38409e-06 0.0023294 -3.34025e-05)
(7.14701e-05 0.00235352 -4.22103e-06)
(4.92488e-05 0.00247653 -1.56073e-05)
(1.5667e-05 0.00228148 -1.56978e-05)
(1.0208e-05 0.00248012 -1.7356e-05)
(5.64931e-06 0.00246515 -1.84795e-05)
(-6.19008e-07 0.00247093 -2.00169e-05)
(-2.68666e-06 0.0024656 -1.80844e-05)
(-8.10594e-06 0.00246835 -1.37922e-05)
(-9.12355e-06 0.000758846 -1.98247e-06)
(-1.61187e-06 6.43006e-05 -2.3386e-08)
(-2.18037e-06 1.86098e-05 4.03914e-08)
(-1.7033e-06 4.7388e-06 2.92929e-08)
(-1.17484e-06 1.98067e-07 3.40825e-08)
(-1.18409e-06 -1.38818e-06 1.84048e-08)
(-9.30143e-07 -1.56587e-06 6.46396e-09)
(-1.7168e-06 -1.47021e-06 -3.96611e-09)
(5.94577e-07 1.08148e-05 2.25802e-05)
(-3.95581e-06 0.00239312 1.04195e-05)
(3.34587e-07 0.00233307 -2.90529e-07)
(1.36764e-06 0.00478596 1.49745e-06)
(3.95278e-05 0.00607504 3.69632e-05)
(2.58877e-06 0.0198703 -8.42885e-06)
(-9.41818e-06 0.0133561 -2.63522e-05)
(4.83318e-05 0.00990076 -1.69782e-05)
(3.55376e-05 0.0072804 -1.29496e-05)
(-1.72536e-05 0.00557142 -2.14744e-05)
(-4.22336e-05 0.00229208 2.14994e-05)
(-6.37238e-06 0.00231382 -2.30233e-05)
(-1.79421e-05 0.00228889 2.2106e-06)
(-1.73886e-05 0.00167485 9.47093e-07)
(-3.60608e-06 0.00126739 3.00165e-07)
(-2.35057e-06 0.00165437 1.81169e-06)
(8.93715e-07 0.00169312 1.61855e-06)
(-1.65196e-06 0.00224643 2.54556e-06)
(3.30889e-06 0.00224422 2.95987e-06)
(7.40886e-07 0.00224685 2.2503e-06)
(-2.76343e-06 0.000220721 1.9058e-07)
(-1.26248e-06 2.01531e-05 6.8273e-08)
(-1.75297e-06 4.08888e-06 4.85155e-08)
(-1.4823e-06 5.21454e-07 3.15911e-08)
(-1.19608e-06 -1.02489e-06 7.67122e-09)
(-1.2251e-06 -1.83158e-06 3.73224e-08)
(-1.09366e-06 -1.66198e-06 3.15986e-08)
(-1.6249e-06 -1.43227e-06 7.29112e-09)
(1.49252e-06 6.21292e-06 1.70603e-05)
(-5.58308e-07 0.0024524 2.512e-05)
(-4.57222e-06 0.00227613 -1.13506e-06)
(-8.03008e-06 0.00479465 3.43689e-06)
(4.2782e-05 0.00610445 3.65348e-05)
(2.14226e-05 0.0207699 5.85031e-07)
(2.25846e-05 0.0128567 -2.51073e-05)
(7.96338e-05 0.00977304 -1.65277e-05)
(8.39205e-05 0.0072044 -1.68958e-05)
(8.1395e-06 0.00502422 -2.41666e-05)
(-4.12448e-05 0.00217896 9.58615e-06)
(8.58149e-07 0.00232968 -8.40858e-06)
(5.28344e-06 0.00232483 2.84282e-06)
(2.27925e-08 0.000647881 4.14287e-07)
(-3.60245e-06 0.000402449 1.78207e-07)
(-2.78541e-06 0.000626818 1.40784e-06)
(1.33127e-07 0.000720774 2.66997e-06)
(1.78958e-06 0.00193071 -2.28587e-07)
(3.12275e-06 0.00234348 -1.54476e-06)
(-2.42033e-06 0.00227141 -1.86913e-06)
(-5.79023e-06 8.37089e-05 5.761e-08)
(-1.81909e-06 5.40047e-06 2.45879e-08)
(-1.55709e-06 6.56789e-08 2.42626e-08)
(-1.24007e-06 -1.18131e-06 2.35457e-08)
(-1.00677e-06 -1.56921e-06 1.95513e-08)
(-9.60105e-07 -2.19925e-06 1.21619e-08)
(-6.28978e-07 -1.73296e-06 -1.62464e-08)
(-2.3786e-08 -2.14928e-06 3.10721e-08)
(2.95442e-06 1.90692e-06 9.63864e-06)
(5.89926e-07 0.00256469 5.51457e-05)
(-1.04591e-05 0.0022628 -1.48856e-06)
(-1.75281e-05 0.00479295 4.89761e-06)
(4.24935e-05 0.00612146 3.85284e-05)
(4.64926e-05 0.0219419 1.14511e-06)
(7.24067e-05 0.0126126 -2.28564e-05)
(0.000100556 0.00973326 -1.88847e-05)
(6.98225e-05 0.00710246 -2.16669e-05)
(-5.62221e-05 0.00420756 -1.33687e-05)
(-8.66284e-05 0.00217685 -1.05416e-05)
(2.48525e-05 0.00231775 1.82555e-05)
(-1.30076e-06 0.00231055 1.04571e-06)
(-4.85755e-06 8.34622e-05 -2.36634e-07)
(-3.94142e-06 3.91113e-07 -3.08136e-08)
(-2.63281e-06 6.88115e-06 6.02809e-09)
(-1.61401e-06 7.69149e-05 1.85972e-08)
(-6.34601e-07 0.000855143 2.84998e-07)
(3.21698e-06 0.00176276 3.14712e-07)
(3.62455e-06 0.00157886 -1.89165e-07)
(-3.21962e-07 4.9961e-05 4.3168e-08)
(-1.3478e-06 3.58814e-08 3.19529e-08)
(-1.30521e-06 -1.55632e-06 2.70175e-08)
(-9.85768e-07 -1.74719e-06 2.00166e-08)
(-8.85359e-07 -1.8956e-06 -1.4161e-09)
(-6.9551e-07 -2.43097e-06 -1.31605e-08)
(-4.45549e-07 -1.94528e-06 -6.74807e-08)
(7.42785e-07 -2.78997e-06 1.29368e-08)
(4.64298e-06 4.57006e-07 4.81144e-06)
(-2.74761e-06 0.00278197 0.000112867)
(-1.41065e-05 0.00226447 -1.15282e-06)
(-2.26352e-05 0.00478118 5.15347e-06)
(4.08076e-05 0.00612317 3.90965e-05)
(6.026e-05 0.0223917 -1.3266e-06)
(0.000101004 0.0127469 -1.69921e-05)
(0.000114939 0.00981094 -2.25163e-05)
(7.43273e-05 0.00695474 -2.74737e-05)
(-2.25618e-05 0.00332437 -9.38868e-06)
(-7.77828e-05 0.00230855 -1.95684e-05)
(9.865e-06 0.00233546 2.3253e-05)
(9.90784e-07 0.00232458 9.80215e-07)
(-3.62063e-06 9.41867e-05 -1.49187e-07)
(-3.44728e-06 -4.08805e-06 -6.19117e-08)
(-2.05841e-06 -2.30938e-06 -1.2786e-08)
(-1.14326e-06 1.50557e-05 9.93454e-09)
(-4.32321e-07 0.000148664 6.13365e-08)
(1.40899e-08 0.000706328 8.11154e-07)
(-5.31331e-07 0.000548011 1.6524e-07)
(-9.95403e-07 1.96463e-05 5.90648e-08)
(-1.0148e-06 -1.7826e-06 1.2091e-08)
(-7.71211e-07 -2.16958e-06 6.82477e-09)
(-5.93947e-07 -2.17431e-06 -3.62713e-09)
(-4.24616e-07 -2.04253e-06 -1.64706e-08)
(-7.68285e-08 -2.26112e-06 -2.93448e-08)
(7.50336e-08 -1.039e-06 -1.43839e-07)
(3.42381e-07 -3.21911e-06 -7.9709e-08)
(4.14885e-06 -1.05784e-06 1.48671e-06)
(-1.18295e-05 0.00346837 0.00029431)
(-1.84177e-05 0.00226209 -2.17904e-07)
(-2.83702e-05 0.00476501 6.56298e-06)
(3.58056e-05 0.00608346 3.54735e-05)
(7.8251e-05 0.021966 -3.66845e-06)
(0.000150725 0.0131547 -1.30481e-05)
(0.000160375 0.00988588 -2.5064e-05)
(5.31268e-05 0.00664277 -4.14383e-05)
(-5.78306e-06 0.00265386 -2.6238e-06)
(-5.11084e-05 0.00237858 -2.84626e-05)
(-1.29166e-05 0.00233615 2.10517e-05)
(-2.45778e-08 0.00183238 2.00669e-06)
(-2.71565e-06 3.3903e-05 -6.75692e-09)
(-2.2531e-06 -6.38343e-06 -5.61515e-08)
(-1.16554e-06 -5.38896e-06 5.99944e-09)
(-7.11639e-07 -4.14264e-06 1.92172e-08)
(-3.30104e-07 -2.0788e-06 3.6778e-08)
(-2.77304e-07 8.96573e-05 4.41142e-08)
(-3.06414e-07 2.9171e-05 8.32866e-09)
(-3.24764e-07 -2.33122e-06 3.23557e-08)
(-4.6352e-07 -2.96365e-06 8.2853e-09)
(-2.98251e-07 -2.47406e-06 -2.46189e-10)
(-2.1577e-07 -2.31755e-06 -5.05559e-09)
(-1.71433e-07 -2.14729e-06 -1.59628e-08)
(-5.52806e-08 -2.05951e-06 -2.23826e-08)
(1.9081e-07 2.11182e-06 -1.56246e-07)
(-5.01733e-07 1.30459e-06 -7.39011e-08)
(5.11653e-06 1.37446e-06 2.47824e-07)
(-2.51411e-05 0.00576225 0.000806931)
(-1.88425e-05 0.00224268 1.05697e-06)
(-2.43981e-05 0.00474227 7.41545e-06)
(2.57953e-05 0.00615519 2.3176e-05)
(0.000101861 0.0215183 6.14536e-07)
(0.000161555 0.0136421 -6.96673e-06)
(0.000171234 0.00991296 -1.86975e-05)
(0.000142224 0.00617545 -3.45979e-05)
(5.02038e-05 0.00230091 -9.41703e-07)
(-4.4426e-05 0.00119434 -1.80339e-05)
(-4.22638e-05 0.00121505 0.000597557)
(-3.66847e-06 0.000664677 8.57032e-07)
(-1.06284e-06 -9.0367e-06 -4.15211e-08)
(-5.8529e-07 -7.22454e-06 -4.5481e-08)
(-2.24921e-07 -5.94853e-06 -2.00232e-08)
(-1.18839e-07 -4.81494e-06 1.33231e-09)
(-5.35407e-08 -3.68197e-06 1.50778e-08)
(-1.70111e-07 2.04352e-05 3.14729e-08)