/*--------------------------------*- C++ -*----------------------------------*\
| =========                 |                                                 |
| \\      /  F ield         | OpenFOAM: The Open Source CFD Toolbox           |
|  \\    /   O peration     | Version:  2.3.0                                 |
|   \\  /    A nd           | Web:      www.OpenFOAM.org                      |
|    \\/     M anipulation  |                                                 |
\*---------------------------------------------------------------------------*/
FoamFile
{
    version     2.0;
    format      ascii;
    class       volScalarField;
    location    "0.098";
    object      p_rgh;
}
// * * * * * * * * * * * * * * * * * * * * * * * * * * * * * * * * * * * * * //

dimensions      [1 -1 -2 0 0 0 0];

internalField   nonuniform List<scalar> 
545
(
-9.41403e+07
-1.74553e+07
-2.45567e+06
-3.18314e+06
-1.02215e+07
6.75018e+07
-3.65614e+06
-2.87909e+06
-3.07127e+06
-8.32592e+06
1.17475e+08
4.09683e+06
-556300
-621952
-8.72534e+06
6.80941e+07
-3.86697e+06
-2.31964e+06
-278929
-7.76764e+06
-1.08305e+08
-2.88521e+06
-665988
4.85485e+06
1.38077e+07
-8.68412e+06
-2.18214e+06
-810618
8112.62
150995
160089
133343
114520
104927
97391.6
93349.2
88189.8
85601.4
81631.2
80182.4
76971.1
76266.3
73454.1
73061.7
70317.9
70050.5
67135.8
66785.6
63657.5
63292
60023
59763.8
56347.8
56113
52728.4
52175.9
48396.5
47816.3
43750.3
42778.6
38354.6
37054
32156.8
30462.7
25173.2
23190.5
17777.8
15841.1
10409.9
8547.56
-7.71531e+06
-1.37823e+06
-772221
-141039
25097.3
95694.2
106258
105746
101515
97099.6
92585.8
88703
85016.7
82215.5
79554.7
77596.9
75587.2
74130.6
72355.9
71014.8
69326.5
67888.3
66029.1
64450.4
62480.8
60834.4
58897.2
57198.2
55242.9
53588.7
51308.2
49286.3
46926.5
44704.1
41879.8
39329.9
36117.7
33141.3
29477.2
26118.2
22157.1
18677.4
14604.4
10261.2
3041.6
-9.16998e+06
-691596
-407867
22173.3
73964.2
105417
106012
103627
100740
96235.4
92710.1
88269.3
85333.7
81858.1
79955.7
77228.2
75997.7
73720.4
72785.2
70569.8
69795.7
67444.3
66509.5
63973.9
62956.5
60299.3
59404.3
56640.4
55773.4
53095.3
51861.2
48716.3
47510.1
44187.1
42452.4
38786.3
36689.5
32557
30023.5
25489.1
22629.8
17966.8
14806.8
9601.9
6156.07
-9.72328e+06
703398
309522
304869
172295
134029
111625
104276
99922.7
96262.5
92156.4
88612.6
84888.2
82328
79562.7
77718.2
75531
74256.4
72246.8
71100.3
69281.3
68017.7
65967.1
64533.2
62350.6
60861.2
58767
57210.7
55133.4
53831
51204.6
49332.2
46874
44908.1
41781.7
39481.8
35973.8
33241.7
29243.9
26165.8
21767.6
18446.9
13762
8829.79
897.523
-1.63145e+06
3.95384e+06
1.49897e+06
534203
201848
128944
107038
102011
99721
95427
92477.9
88205.8
85253.1
82001.4
80078.7
77305.5
76025.3
73851
72680.4
70599.3
69836.6
67519.7
66560.6
63921
62981.4
60105.6
59458.6
56402.5
55755.9
53396.2
51809.6
48547
47626.2
44300.5
42491.8
38779.9
36684.7
32476.1
29872.1
25487.3
22219.9
17663.3
13976.7
8459.85
4739.02
-1.41261e+07
6.01635e+06
2.46243e+06
654694
207772
120556
102616
100391
98520.7
97780
94991.4
91988.7
89242.8
85906.4
81793.2
78127.2
75959.8
78108.2
77130.9
74277.1
72359.7
71380.4
68210.2
64843.4
62278.8
62065
62919.3
62734.5
59073.5
56251.4
55045.9
54833
51027.8
47916.6
41935.7
39636.7
35782.3
33348.6
29218.9
29676.1
26675
21564.3
16561.6
11653.6
1846.28
-1.08299e+08
-2.87922e+06
-660673
4.85913e+06
1.38099e+07
6.81001e+07
-3.86074e+06
-2.31394e+06
-274861
-7.76545e+06
1.17481e+08
4.10335e+06
-549960
-617732
-8.72299e+06
6.75077e+07
-3.64941e+06
-2.87227e+06
-3.06673e+06
-8.32326e+06
-9.41345e+07
-1.74485e+07
-2.44863e+06
-3.17842e+06
-1.02185e+07
-1.63105e+06
3.95463e+06
1.49911e+06
535171
201638
128949
106461
102305
99317.8
95772.3
92139.8
88601.7
84974.8
82443.2
79813.9
77779.6
75710.6
74236.7
72352.8
70963.8
69484.7
67868.1
66196
64292
62590.1
60463.4
59116
56735.3
55410.9
53722.4
51459.7
48866.4
47273.5
44617.6
42092.2
39112.1
36277.2
32807.5
29486.2
25810.1
21872.9
17930.1
13548.3
8827.54
4490.94
-9.72224e+06
704530
310191
306159
172256
133530
110950
104325
99666.6
96444.8
92002
88913.5
84860.3
82719.8
79565.1
78110.3
75453
74528.6
72101.6
71318.8
69088.1
68203.9
65755.1
64723.1
62120.9
61046.9
58567.9
57384.7
54926.2
53992.4
50984.5
49482.3
46643.9
45043.3
41513
39608.7
35692.5
33367.1
28989.5
26319.3
21541.4
18495.7
13376.2
8965.66
766.553
-9.16827e+06
-690284
-406904
23350.3
73895.8
104496
105252
103449
100597
96280.8
92715.6
88503.4
85536.6
82225.6
80197.2
77562
76127.2
73905.2
72797.5
70664.3
69736.8
67491.4
66423.5
64011.9
62859.4
60339.5
59323.4
56675.1
55681.4
53112.4
51750
48717.2
47380.8
44165.2
42289.8
38740.7
36505.1
32505.7
29866.2
25486.5
22496.8
17839.1
14473.4
9507.02
6086.4
-7.71332e+06
-1.37674e+06
-771083
-140062
24899.2
94555.9
105379
105432
101378
97086.8
92655.8
88945.9
85344
82631.9
79933.1
77958.8
75824
74313
72435.6
71072.8
69312.5
67887
65980.9
64431.2
62424.2
60820.5
58849.3
57180.3
55182.3
53550.1
51224.7
49226.8
46818.3
44616.2
41739.1
39210.3
35947.5
33009.4
29329.6
26039
22039
18498.2
14298.2
10035
2923.3
-8.68194e+06
-2.18053e+06
-809347
8989.06
150765
158865
132372
114094
104754
97347.2
93437.3
88452.4
85992.9
82094.9
80629.3
77365.3
76555.5
73653.7
73168.4
70370.4
70050
67120.6
66745.9
63619.6
63244
59991.2
59719.7
56313.2
56057.1
52671.9
52095.2
48316
47707.8
43637.8
42637
38206.6
36879
31993.7
30304.5
25060
23068.5
17601.5
15566.5
10091.2
8321.98
)
;

boundaryField
{
    AirInlet
    {
        type            fixedFluxPressure;
        gradient        uniform 2.26352e+08;
        value           uniform -1.41238e+07;
    }
    WaterInlet
    {
        type            fixedFluxPressure;
        gradient        nonuniform List<scalar> 10(0 -0.0903088 0 -0.0496514 0 0 -0.198606 0 0 -0.138293);
        value           nonuniform List<scalar> 10(-9.41403e+07 6.75018e+07 1.17475e+08 6.80941e+07 -1.08305e+08 -1.08299e+08 6.81001e+07 1.17481e+08 6.75077e+07 -9.41345e+07);
    }
    ChannelWall
    {
        type            fixedFluxPressure;
        gradient        uniform 0;
        value           nonuniform List<scalar> 
110
(
-1.08305e+08
-2.88521e+06
-665988
4.85485e+06
1.38077e+07
-1.08299e+08
-2.87922e+06
-660673
4.85913e+06
1.38099e+07
-9.41345e+07
-1.74485e+07
-2.44863e+06
-3.17842e+06
-1.02185e+07
-8.68194e+06
-2.18053e+06
-809347
8989.06
150765
158865
132372
114094
104754
97347.2
93437.3
88452.4
85992.9
82094.9
80629.3
77365.3
76555.5
73653.7
73168.4
70370.4
70050
67120.6
66745.9
63619.6
63244
59991.2
59719.7
56313.2
56057.1
52671.9
52095.2
48316
47707.8
43637.8
42637
38206.6
36879
31993.7
30304.5
25060
23068.5
17601.5
15566.5
10091.2
8321.98
-9.41403e+07
-1.74553e+07
-2.45567e+06
-3.18314e+06
-1.02215e+07
-8.68412e+06
-2.18214e+06
-810618
8112.62
150995
160089
133343
114520
104927
97391.6
93349.2
88189.8
85601.4
81631.2
80182.4
76971.1
76266.3
73454.1
73061.7
70317.9
70050.5
67135.8
66785.6
63657.5
63292
60023
59763.8
56347.8
56113
52728.4
52175.9
48396.5
47816.3
43750.3
42778.6
38354.6
37054
32156.8
30462.7
25173.2
23190.5
17777.8
15841.1
10409.9
8547.56
)
;
    }
    Outlet
    {
        type            totalPressure;
        rho             rho;
        psi             none;
        gamma           1;
        p0              uniform 0;
        value           uniform 0;
    }
    FrontAndBack
    {
        type            empty;
    }
}


// ************************************************************************* //
