/*--------------------------------*- C++ -*----------------------------------*\
| =========                 |                                                 |
| \\      /  F ield         | OpenFOAM: The Open Source CFD Toolbox           |
|  \\    /   O peration     | Version:  2.3.0                                 |
|   \\  /    A nd           | Web:      www.OpenFOAM.org                      |
|    \\/     M anipulation  |                                                 |
\*---------------------------------------------------------------------------*/
FoamFile
{
    version     2.0;
    format      ascii;
    class       volScalarField;
    location    "73";
    object      alpha.water;
}
// * * * * * * * * * * * * * * * * * * * * * * * * * * * * * * * * * * * * * //

dimensions      [0 0 0 0 0 0 0];

internalField   nonuniform List<scalar> 
1875
(
0.704062
0.750271
0.774595
0.773533
0.770061
0.765258
0.759592
0.753338
0.746915
0.740735
0.735118
0.731343
0.729531
0.729136
0.729825
0.733235
0.739939
0.747828
0.75647
0.76609
0.773367
0.768475
0.741448
0.699429
0.709304
0.742925
0.773318
0.802383
0.812818
0.817287
0.816565
0.814235
0.810244
0.804575
0.797265
0.788054
0.77677
0.765391
0.75499
0.746974
0.73931
0.739655
0.744292
0.752723
0.76333
0.77337
0.787627
0.788662
0.76902
0.792857
0.808107
0.821406
0.835198
0.839692
0.840948
0.840193
0.838385
0.835803
0.83198
0.826852
0.820593
0.812125
0.799283
0.783069
0.766805
0.750834
0.740322
0.737088
0.744275
0.757137
0.77095
0.78587
0.788662
0.781922
0.805841
0.892957
0.884344
0.870735
0.863534
0.859789
0.855769
0.850554
0.844644
0.838242
0.831146
0.822915
0.813521
0.803002
0.790055
0.77409
0.755543
0.739058
0.733955
0.737496
0.751127
0.768535
0.784025
0.788393
0.783342
0.805841
0.948186
0.921047
0.885121
0.876723
0.871329
0.864253
0.855361
0.844449
0.835631
0.827544
0.818887
0.808977
0.797901
0.784483
0.76816
0.749644
0.734428
0.733912
0.738822
0.753581
0.771039
0.78529
0.78941
0.785793
0.805841
0.964413
0.924425
0.878951
0.878964
0.872205
0.860338
0.848772
0.836669
0.825598
0.816042
0.80619
0.79505
0.782434
0.767782
0.752089
0.739215
0.734422
0.735801
0.744751
0.760813
0.776829
0.788102
0.792041
0.790132
0.803054
0.964413
0.910646
0.866256
0.875284
0.861008
0.843508
0.829352
0.816192
0.803959
0.792725
0.781157
0.769004
0.756663
0.745635
0.738677
0.736799
0.736774
0.743871
0.756588
0.771623
0.784113
0.792213
0.796226
0.795748
0.797575
0.964413
0.882106
0.846549
0.856314
0.831369
0.812099
0.797008
0.783351
0.771358
0.760633
0.751169
0.744048
0.740336
0.739354
0.739353
0.740961
0.747219
0.758664
0.771278
0.782679
0.791125
0.796973
0.801039
0.801069
0.791584
0.95814
0.846626
0.820055
0.82345
0.793119
0.776009
0.762133
0.751521
0.744462
0.741512
0.740021
0.740019
0.741009
0.742619
0.747041
0.754214
0.76446
0.77533
0.78466
0.791939
0.797291
0.801672
0.805198
0.801664
0.785443
0.939889
0.812019
0.792414
0.790152
0.763627
0.751629
0.743016
0.739029
0.738668
0.738653
0.740464
0.743131
0.748315
0.75469
0.763153
0.772731
0.78192
0.78946
0.795168
0.799445
0.802927
0.806352
0.809025
0.800794
0.778441
0.918657
0.783736
0.771454
0.769935
0.751044
0.743861
0.739748
0.738668
0.738535
0.740735
0.746827
0.754188
0.762982
0.772424
0.781602
0.789648
0.795868
0.800427
0.803769
0.806381
0.808791
0.811359
0.813192
0.799197
0.76927
0.901197
0.764882
0.758955
0.761091
0.746814
0.741767
0.73911
0.738647
0.741397
0.748812
0.759127
0.769794
0.780228
0.789563
0.79714
0.802815
0.806809
0.809527
0.8114
0.812918
0.814176
0.814846
0.814822
0.796962
0.749262
0.889503
0.753817
0.751059
0.756207
0.744811
0.740939
0.739231
0.740538
0.74868
0.760639
0.773331
0.785112
0.795131
0.802804
0.808198
0.811799
0.813898
0.814775
0.814858
0.814822
0.814896
0.814822
0.814989
0.788752
0.720427
0.882865
0.747017
0.744735
0.75277
0.743479
0.740584
0.739724
0.745257
0.758104
0.772484
0.785828
0.796813
0.80503
0.810317
0.813141
0.814452
0.814822
0.814857
0.814822
0.81501
0.814822
0.815214
0.814822
0.771308
0.720427
0.879239
0.741861
0.737446
0.750203
0.742205
0.73997
0.741034
0.75119
0.766661
0.781842
0.794221
0.80219
0.807273
0.810486
0.812799
0.814085
0.814721
0.814822
0.815024
0.814822
0.815215
0.814822
0.804138
0.760684
0.720427
0.878268
0.738595
0.73494
0.748552
0.741155
0.739913
0.742353
0.755707
0.771321
0.784395
0.794097
0.8016
0.80632
0.809288
0.811244
0.812614
0.813765
0.814725
0.814822
0.815023
0.811706
0.807093
0.796678
0.782127
0.761288
0.878258
0.739723
0.734886
0.747933
0.741227
0.739903
0.741681
0.754442
0.769893
0.782834
0.792353
0.799414
0.803799
0.806566
0.808482
0.810159
0.811667
0.812656
0.812947
0.809546
0.803918
0.798592
0.797414
0.824219
0.838544
0.876721
0.747023
0.736159
0.746489
0.742025
0.740065
0.740529
0.750217
0.764997
0.778369
0.788325
0.795495
0.799953
0.802735
0.804752
0.806738
0.808362
0.808929
0.807711
0.804456
0.803737
0.79918
0.792187
0.845578
0.895886
0.869912
0.763446
0.740418
0.744915
0.743214
0.740775
0.740534
0.744913
0.756279
0.76985
0.781288
0.789658
0.79506
0.798347
0.800554
0.802607
0.804353
0.804936
0.803761
0.802385
0.804412
0.804434
0.790531
0.833476
0.912922
0.858644
0.786295
0.750582
0.745882
0.744295
0.742177
0.740908
0.741652
0.747028
0.757639
0.769815
0.780559
0.788316
0.793298
0.79638
0.798637
0.800521
0.80171
0.801716
0.802037
0.804576
0.807426
0.790532
0.812367
0.912936
0.844561
0.808909
0.770214
0.751166
0.74609
0.74377
0.741798
0.741685
0.742192
0.746646
0.755651
0.766915
0.777542
0.785699
0.791182
0.794816
0.797423
0.799347
0.800637
0.801957
0.804282
0.807514
0.790533
0.797333
0.912941
0.827918
0.8257
0.797551
0.766389
0.751654
0.746341
0.743369
0.741914
0.741917
0.74219
0.745865
0.750789
0.760489
0.771374
0.781131
0.788494
0.793636
0.797245
0.799867
0.802
0.804107
0.807426
0.792334
0.78972
0.912946
0.811659
0.83759
0.823414
0.791375
0.766053
0.753142
0.74685
0.743173
0.74204
0.741323
0.741283
0.738659
0.739104
0.748165
0.76205
0.775362
0.785745
0.793173
0.798355
0.801974
0.804434
0.80756
0.794617
0.784916
0.904675
0.792486
0.837738
0.837885
0.817087
0.789493
0.768308
0.755391
0.747434
0.743233
0.741407
0.738659
0.73743
0.738659
0.738225
0.744744
0.757121
0.771569
0.784399
0.79417
0.80098
0.804899
0.807426
0.795275
0.780866
0.89449
0.761169
0.837948
0.837738
0.83277
0.813957
0.790967
0.771554
0.757303
0.747725
0.742618
0.738558
0.738659
0.737635
0.738659
0.739584
0.744938
0.756333
0.771374
0.78596
0.797507
0.804382
0.807651
0.795082
0.776642
0.887561
0.747584
0.83515
0.838408
0.837738
0.830291
0.813438
0.792654
0.773128
0.757198
0.746629
0.738659
0.737516
0.738659
0.738266
0.738659
0.74065
0.746942
0.759236
0.77546
0.791217
0.802296
0.807426
0.794737
0.772088
0.88349
0.747584
0.824068
0.837738
0.837923
0.836636
0.828121
0.811677
0.790998
0.770389
0.753962
0.739759
0.738659
0.737979
0.738659
0.738641
0.739963
0.743358
0.751719
0.766253
0.783733
0.798469
0.80764
0.794327
0.771281
0.881087
0.747584
0.801941
0.83841
0.837738
0.837753
0.834511
0.824168
0.806215
0.784141
0.763174
0.74258
0.738034
0.738659
0.738476
0.738659
0.740015
0.743405
0.748962
0.760327
0.777077
0.793739
0.807426
0.793923
0.771283
0.879924
0.757787
0.783394
0.817955
0.832322
0.837738
0.836881
0.830212
0.815913
0.794456
0.770644
0.745133
0.738659
0.7384
0.738659
0.738685
0.740257
0.743783
0.749204
0.757597
0.772153
0.78907
0.807503
0.79328
0.771281
0.879996
0.788661
0.78201
0.780563
0.812269
0.835291
0.836663
0.830141
0.815601
0.793647
0.769256
0.743979
0.738483
0.738659
0.738634
0.738835
0.740824
0.744597
0.749916
0.757752
0.769418
0.785957
0.806602
0.79069
0.771969
0.880649
0.834431
0.782723
0.777955
0.799029
0.830334
0.83517
0.828544
0.812488
0.788788
0.763222
0.741755
0.738659
0.738629
0.738661
0.73927
0.741805
0.745807
0.751019
0.758372
0.769802
0.786705
0.805
0.779296
0.776258
0.881112
0.877916
0.781356
0.77797
0.802608
0.828199
0.832333
0.823849
0.804052
0.777895
0.753757
0.739926
0.738651
0.73867
0.738897
0.740099
0.74318
0.747296
0.752378
0.759626
0.771384
0.788549
0.800396
0.752657
0.785329
0.878752
0.902789
0.780283
0.777955
0.811986
0.82823
0.827604
0.813509
0.788676
0.76309
0.745644
0.739285
0.738841
0.73886
0.739462
0.741328
0.744793
0.748863
0.753926
0.761718
0.774365
0.788809
0.792624
0.747855
0.796877
0.872461
0.907692
0.780866
0.781578
0.820212
0.827726
0.817571
0.795462
0.769577
0.750601
0.741606
0.739499
0.739232
0.739257
0.740391
0.742897
0.746454
0.750438
0.755889
0.764933
0.778168
0.788076
0.783153
0.749029
0.809319
0.863712
0.907702
0.782848
0.789972
0.820944
0.821425
0.799279
0.774075
0.754674
0.744576
0.741045
0.739931
0.739675
0.73997
0.74172
0.744591
0.748064
0.752199
0.758651
0.769178
0.781452
0.786582
0.773715
0.747057
0.820651
0.854405
0.907712
0.785346
0.796042
0.81835
0.804577
0.777177
0.75833
0.747786
0.743219
0.74128
0.740306
0.740125
0.740997
0.743273
0.746226
0.749672
0.754414
0.762322
0.77368
0.7832
0.784395
0.765858
0.749029
0.827168
0.846298
0.907722
0.784074
0.794472
0.809468
0.781789
0.761006
0.750794
0.745449
0.742793
0.741297
0.740875
0.741014
0.742223
0.744857
0.747738
0.751422
0.757192
0.766453
0.777362
0.783662
0.781931
0.761279
0.746279
0.826079
0.841982
0.907455
0.770644
0.786958
0.794626
0.765161
0.753657
0.748044
0.744584
0.742633
0.741637
0.741537
0.741922
0.743672
0.746288
0.74917
0.753383
0.760312
0.770273
0.779808
0.783871
0.78054
0.76167
0.749029
0.820822
0.843276
0.904325
0.744081
0.768688
0.779204
0.758102
0.751659
0.74734
0.744538
0.742864
0.74229
0.742243
0.742977
0.745101
0.747525
0.750556
0.755478
0.763368
0.77333
0.781393
0.784307
0.781001
0.763695
0.745979
0.80373
0.847829
0.898832
0.745039
0.744397
0.767367
0.754934
0.750918
0.747071
0.744636
0.743346
0.743019
0.742954
0.744151
0.746293
0.748573
0.751892
0.757554
0.766074
0.775661
0.782563
0.784962
0.781947
0.765986
0.749029
0.768801
0.852068
0.893207
0.74371
0.745039
0.759947
0.752768
0.750282
0.746865
0.744853
0.743913
0.743638
0.743618
0.74522
0.747202
0.749437
0.753152
0.759464
0.768299
0.777399
0.78342
0.785267
0.781948
0.765903
0.745937
0.749029
0.852099
0.888687
0.745039
0.744147
0.755601
0.751294
0.749707
0.746732
0.745145
0.744422
0.744142
0.744262
0.746041
0.74785
0.750169
0.75434
0.761146
0.769977
0.778485
0.783887
0.78526
0.781208
0.764745
0.749029
0.748097
0.852183
0.88539
0.743946
0.745039
0.753028
0.750333
0.749251
0.746678
0.745406
0.744744
0.744478
0.744815
0.746609
0.748331
0.750869
0.755524
0.762637
0.771186
0.778859
0.783857
0.785082
0.779038
0.762296
0.745996
0.749029
0.852209
0.882933
0.745039
0.744448
0.751404
0.749704
0.748932
0.746648
0.745549
0.744908
0.744695
0.745262
0.747039
0.748779
0.751646
0.756796
0.764076
0.77209
0.779143
0.783757
0.784484
0.775306
0.757899
0.749029
0.748248
0.852278
0.881076
0.744361
0.745039
0.750245
0.749252
0.748722
0.746633
0.745618
0.745037
0.744885
0.745698
0.74749
0.74932
0.752567
0.758152
0.765523
0.773097
0.779593
0.783577
0.783322
0.770863
0.752136
0.746056
0.749029
0.852415
0.879637
0.745039
0.744687
0.749246
0.74885
0.748502
0.746597
0.745682
0.745128
0.745137
0.746228
0.748065
0.749999
0.753448
0.759191
0.766628
0.774265
0.78008
0.783182
0.782216
0.767567
0.748957
0.749029
0.748343
0.853011
0.878493
0.744662
0.745039
0.748301
0.748357
0.748222
0.746536
0.745745
0.745254
0.745532
0.74686
0.748679
0.750616
0.753815
0.759315
0.766815
0.774793
0.780425
0.782811
0.78212
0.766784
0.749029
0.746199
0.749029
0.854752
0.877442
0.745039
0.744867
0.747677
0.747875
0.748054
0.746555
0.745815
0.745624
0.745968
0.747572
0.749161
0.750703
0.753767
0.759168
0.766656
0.774616
0.780476
0.782921
0.782441
0.76702
0.749
0.749029
0.748468
0.858578
0.87649
0.744878
0.745039
0.747748
0.74786
0.747878
0.746649
0.746196
0.746129
0.746441
0.748329
0.749428
0.750624
0.753618
0.758704
0.766098
0.774154
0.780434
0.783337
0.783428
0.768197
0.749124
0.746455
0.749029
0.864554
0.875698
0.745039
0.744962
0.747904
0.747839
0.747558
0.746782
0.746801
0.746559
0.74705
0.748516
0.749541
0.750735
0.753366
0.757943
0.764894
0.773243
0.780222
0.783828
0.784945
0.770968
0.750275
0.749029
0.748554
0.872067
0.874314
0.745011
0.745039
0.748013
0.747828
0.747671
0.746902
0.746808
0.747131
0.747387
0.748283
0.749475
0.75082
0.753012
0.756976
0.763218
0.771602
0.779561
0.783912
0.786069
0.774966
0.752938
0.746846
0.749029
0.880266
0.87205
0.745306
0.745021
0.748431
0.747948
0.747741
0.747167
0.746989
0.747374
0.747623
0.748165
0.749269
0.750486
0.752532
0.755944
0.761472
0.769153
0.778058
0.783752
0.786099
0.778851
0.756762
0.749029
0.748645
0.888451
0.869446
0.745982
0.745077
0.748922
0.748279
0.747672
0.747174
0.74718
0.747293
0.747592
0.748118
0.749078
0.750296
0.752102
0.755041
0.759604
0.766271
0.775413
0.782967
0.786049
0.781164
0.761159
0.74728
0.749029
0.896171
0.866348
0.747047
0.745277
0.74925
0.748567
0.747805
0.7472
0.747183
0.747384
0.747536
0.747821
0.748645
0.749978
0.751758
0.75442
0.758154
0.763601
0.77194
0.780936
0.785094
0.781378
0.765432
0.749029
0.748745
0.903093
0.862759
0.748734
0.745294
0.749887
0.74896
0.747964
0.747322
0.747289
0.747344
0.747482
0.74779
0.748284
0.74931
0.751321
0.753781
0.757112
0.761486
0.768518
0.777642
0.782783
0.78097
0.76828
0.74766
0.749029
0.908674
0.859449
0.750559
0.745599
0.750647
0.749444
0.747985
0.747326
0.747336
0.747256
0.747258
0.747842
0.748262
0.749257
0.750897
0.753153
0.756082
0.759915
0.765821
0.773986
0.779195
0.779436
0.768662
0.749029
0.748801
0.912322
0.855921
0.752309
0.746253
0.750804
0.749596
0.748161
0.747382
0.747334
0.747263
0.747238
0.747749
0.748113
0.749246
0.750654
0.75272
0.755235
0.758713
0.763823
0.770857
0.775214
0.776667
0.768315
0.747931
0.749029
0.914418
0.851475
0.754391
0.747109
0.750804
0.749862
0.748422
0.747571
0.747421
0.747248
0.747258
0.747675
0.748143
0.748986
0.750452
0.752255
0.75448
0.75766
0.762152
0.768347
0.771949
0.773458
0.767292
0.749029
0.748825
0.915676
0.845985
0.756996
0.748531
0.751012
0.750279
0.748704
0.747706
0.747633
0.747258
0.747231
0.747631
0.748195
0.748729
0.75017
0.751704
0.75377
0.756674
0.76062
0.766177
0.769774
0.770929
0.765929
0.748176
0.749029
0.916566
0.839694
0.760147
0.750393
0.751516
0.750391
0.749272
0.748029
0.747457
0.74735
0.747258
0.747387
0.748069
0.74877
0.749794
0.751143
0.753091
0.755748
0.759272
0.76427
0.768414
0.769554
0.765063
0.749029
0.748876
0.917019
0.833626
0.763341
0.752437
0.75155
0.750883
0.750111
0.74865
0.747683
0.747271
0.747217
0.747258
0.747836
0.74868
0.749519
0.750692
0.752352
0.75494
0.758221
0.762747
0.767507
0.768955
0.764939
0.748478
0.749029
0.917018
0.8278
0.766496
0.754832
0.751567
0.751734
0.750953
0.749306
0.74829
0.747238
0.747258
0.74724
0.74733
0.748403
0.749292
0.750307
0.751703
0.754168
0.757281
0.7614
0.766579
0.768379
0.764832
0.749029
0.748957
0.917032
0.822026
0.770118
0.756116
0.751698
0.751825
0.751487
0.74993
0.748236
0.747258
0.747238
0.747258
0.747238
0.74763
0.748585
0.749505
0.750766
0.752874
0.755758
0.75944
0.764904
0.767132
0.764352
0.748805
0.749029
0.917033
0.818971
0.773229
0.755732
0.751814
0.751851
0.751593
0.750232
0.748142
0.747248
0.747258
0.747242
0.747258
0.747243
0.747562
0.748238
0.749327
0.751087
0.753685
0.757008
0.762732
0.765368
0.763608
0.749029
0.749021
0.916128
0.82189
0.775097
0.755562
0.752639
0.75278
0.752555
0.751479
0.749368
0.748268
0.748139
0.748136
0.748228
0.748245
0.748493
0.749141
0.750207
0.751901
0.754493
0.757886
0.764106
0.766761
0.765662
0.751571
0.752642
0.914418
0.833133
0.778198
0.759536
0.758619
0.758739
0.758544
0.757914
0.756209
0.754953
0.754685
0.754705
0.754931
0.755156
0.755514
0.756237
0.757415
0.759297
0.762119
0.765613
0.772249
0.773935
0.773935
0.764015
0.766173
0.914406
0.830208
0.775544
0.766474
0.766466
0.764843
0.764419
0.764221
0.763208
0.762073
0.761589
0.761448
0.761561
0.761812
0.762184
0.762837
0.763867
0.765453
0.767871
0.770816
0.773935
0.773935
0.773935
0.773935
0.773286
0.901015
0.712027
0.690544
0.692417
0.686155
0.680554
0.679557
0.679958
0.679745
0.67915
0.678691
0.678077
0.677316
0.676432
0.675286
0.673935
0.672434
0.67089
0.669523
0.668073
0.667318
0.665561
0.666168
0.669464
0.665381
0.723276
0.235203
0.286252
0.300272
0.294392
0.291113
0.292997
0.29638
0.299272
0.301261
0.302181
0.301645
0.299954
0.297326
0.293582
0.288649
0.282545
0.275341
0.267136
0.258054
0.248906
0.24064
0.234939
0.233602
0.222949
0.177822
0.013528
0.023383
0.0291578
0.0301699
0.0305753
0.0312196
0.0319754
0.0326814
0.0332398
0.033559
0.0335391
0.0332493
0.0327023
0.0318997
0.0308455
0.0295622
0.0280909
0.0264669
0.0247864
0.0231749
0.0217784
0.0206736
0.019616
0.0153269
0.00776349
3.52929e-05
0.000218664
0.00064617
0.000833946
0.000841607
0.000834104
0.000833219
0.000840169
0.000850367
0.000858178
0.000857843
0.000850304
0.000834248
0.000810396
0.00077953
0.000742993
0.000702871
0.000661662
0.000622837
0.000589976
0.000567302
0.000552876
0.000475592
0.000188898
3.72233e-05
2.46305e-08
1.90835e-07
2.90251e-06
5.61177e-06
5.41342e-06
4.91228e-06
4.5795e-06
4.39929e-06
4.32556e-06
4.31028e-06
4.3067e-06
4.2847e-06
4.22896e-06
4.14576e-06
4.05109e-06
3.96897e-06
3.92574e-06
3.91566e-06
3.92064e-06
3.94215e-06
4.02681e-06
4.31264e-06
3.59422e-06
3.92156e-07
3.73733e-08
2.54916e-10
5.8027e-10
4.95043e-09
7.79681e-09
5.82598e-09
4.30648e-09
3.4123e-09
2.91032e-09
2.71136e-09
2.71827e-09
2.82187e-09
2.90924e-09
2.89613e-09
2.87451e-09
2.91842e-09
3.16485e-09
3.85475e-09
5.01321e-09
6.33384e-09
7.48081e-09
8.31019e-09
9.32101e-09
1.05729e-08
1.17382e-09
6.32532e-11
1.60187e-11
4.07652e-12
4.35529e-12
3.25273e-12
1.20326e-12
6.10512e-13
4.76397e-13
6.22502e-13
9.59077e-12
1.00553e-12
7.0699e-13
5.20473e-13
6.52367e-13
7.6994e-13
6.02629e-13
3.88911e-13
6.78457e-13
1.69498e-12
3.73446e-12
6.82066e-12
1.07184e-11
1.4387e-11
2.1391e-11
1.6723e-11
5.0878e-11
1.36773e-11
4.03821e-12
3.37019e-12
1.60016e-12
2.25486e-13
7.66054e-14
3.79696e-14
2.32037e-14
1.42109e-14
6.99441e-15
-6.66134e-16
-8.88178e-16
-6.66134e-16
-6.66134e-16
-8.88178e-16
-8.88178e-16
3.90799e-14
3.27849e-13
1.1926e-12
3.04812e-12
6.14764e-12
1.00979e-11
8.90144e-12
7.57683e-12
4.2088e-11
)
;

boundaryField
{
    inlet
    {
        type            calculated;
        value           uniform 0.5;
    }
    outlet
    {
        type            calculated;
        value           nonuniform List<scalar> 
25
(
1.36773e-11
4.03821e-12
3.37019e-12
1.60016e-12
0
0
0
0
0
0
0
0
0
0
0
0
0
0
1.1926e-12
3.04812e-12
6.14764e-12
1.00979e-11
8.90144e-12
7.57683e-12
4.2088e-11
)
;
    }
    walls
    {
        type            calculated;
        value           nonuniform List<scalar> 
150
(
0.704062
0.742925
0.808107
0.892957
0.948186
0.964413
0.964413
0.964413
0.95814
0.939889
0.918657
0.901197
0.889503
0.882865
0.879239
0.878268
0.878258
0.876721
0.869912
0.858644
0.844561
0.827918
0.811659
0.792486
0.761169
0.747584
0.747584
0.747584
0.757787
0.788661
0.834431
0.877916
0.902789
0.907692
0.907702
0.907712
0.907722
0.907455
0.904325
0.898832
0.893207
0.888687
0.88539
0.882933
0.881076
0.879637
0.878493
0.877442
0.87649
0.875698
0.874314
0.87205
0.869446
0.866348
0.862759
0.859449
0.855921
0.851475
0.845985
0.839694
0.833626
0.8278
0.822026
0.818971
0.82189
0.833133
0.830208
0.712027
0.235203
0.013528
3.52929e-05
2.46305e-08
2.54916e-10
1.60187e-11
1.36773e-11
0.709304
0.792857
0.805841
0.805841
0.805841
0.803054
0.797575
0.791584
0.785443
0.778441
0.76927
0.749262
0.720427
0.720427
0.720427
0.761288
0.838544
0.895886
0.912922
0.912936
0.912941
0.912946
0.904675
0.89449
0.887561
0.88349
0.881087
0.879924
0.879996
0.880649
0.881112
0.878752
0.872461
0.863712
0.854405
0.846298
0.841982
0.843276
0.847829
0.852068
0.852099
0.852183
0.852209
0.852278
0.852415
0.853011
0.854752
0.858578
0.864554
0.872067
0.880266
0.888451
0.896171
0.903093
0.908674
0.912322
0.914418
0.915676
0.916566
0.917019
0.917018
0.917032
0.917033
0.916128
0.914418
0.914406
0.901015
0.723276
0.177822
0.00776349
3.72233e-05
3.73733e-08
6.32532e-11
5.0878e-11
4.2088e-11
)
;
    }
    defaultFaces
    {
        type            empty;
    }
}


// ************************************************************************* //
