/*--------------------------------*- C++ -*----------------------------------*\
| =========                 |                                                 |
| \\      /  F ield         | OpenFOAM: The Open Source CFD Toolbox           |
|  \\    /   O peration     | Version:  2.3.0                                 |
|   \\  /    A nd           | Web:      www.OpenFOAM.org                      |
|    \\/     M anipulation  |                                                 |
\*---------------------------------------------------------------------------*/
FoamFile
{
    version     2.0;
    format      ascii;
    class       volScalarField;
    location    "0.83";
    object      Theta.particles;
}
// * * * * * * * * * * * * * * * * * * * * * * * * * * * * * * * * * * * * * //

dimensions      [0 2 -2 0 0 0 0];

internalField   nonuniform List<scalar> 
6000
(
0.000219473
0.000193002
0.000220666
0.000206926
0.0002713
0.0012624
0.0022655
0.00185617
0.00235465
0.00438664
0.00391659
0.00325487
0.00317577
0.0019793
0.000446928
0.000217346
0.000249865
0.000193644
0.000269801
0.000280501
0.000323334
0.000355965
0.000369133
0.000382805
0.000411998
0.00164371
0.00434671
0.00596248
0.00147895
0.000477724
7.78892e-06
6.02394e-06
4.1578e-06
5.75254e-06
2.40402e-05
3.39489e-05
2.26259e-05
3.19797e-05
5.72835e-05
6.29984e-05
6.41138e-05
7.27551e-05
5.0756e-05
2.46165e-05
1.65865e-05
7.62686e-06
7.25968e-06
1.19852e-05
1.61253e-05
1.98613e-05
1.62204e-05
1.23638e-05
8.41855e-06
4.52673e-06
1.92818e-05
5.80116e-05
9.55598e-05
5.80182e-05
4.66465e-05
2.92388e-05
0.000165334
0.000104221
0.000131192
0.000177899
0.000175929
6.01068e-05
2.86583e-05
4.08127e-05
3.80723e-05
1.71839e-07
2.89419e-06
3.09711e-05
5.50483e-05
1.03937e-05
6.26808e-06
2.26099e-05
9.1598e-05
9.11565e-05
0.000242033
0.000402606
0.000421242
0.000448957
0.000385881
0.000291151
0.000288691
3.60163e-06
1.31689e-05
1.67434e-05
6.67944e-06
6.2896e-05
0.000125398
3.59316e-05
3.4506e-05
1.99133e-05
7.62222e-06
5.03308e-06
6.09056e-07
5.32822e-07
4.63983e-08
2.03991e-09
9.48913e-07
1.39536e-05
2.7962e-05
8.60915e-06
5.52372e-06
3.80939e-07
6.71885e-05
5.71059e-05
7.22451e-05
8.41802e-05
6.41138e-05
3.32349e-05
1.09032e-05
2.24175e-06
7.95971e-06
2.32348e-05
1.40123e-06
9.475e-06
6.73332e-06
5.99e-05
0.000113379
5.16171e-05
2.05299e-05
1.26804e-07
5.06984e-07
8.71332e-07
2.91109e-07
2.98119e-07
4.43119e-07
1.74807e-07
1.86699e-07
4.37473e-06
1.47934e-05
5.3362e-06
2.97488e-06
2.21388e-06
6.03339e-05
8.83018e-05
2.21707e-05
8.94921e-06
3.94087e-06
1.97175e-06
1.13596e-06
1.45246e-06
1.69648e-06
4.72949e-06
3.6833e-06
8.1044e-06
8.78529e-06
8.35772e-05
9.27661e-05
4.45597e-06
1.23515e-05
2.58712e-06
3.78188e-07
2.5956e-07
4.19533e-07
3.99947e-07
6.21241e-07
3.54542e-07
1.73649e-07
7.69614e-07
3.8197e-06
5.87107e-06
1.00063e-06
1.98286e-05
6.76041e-05
7.87212e-05
8.65237e-06
4.51931e-06
2.30754e-06
1.61843e-06
1.99532e-06
2.00219e-06
2.25869e-06
1.78055e-06
5.01117e-07
4.07322e-06
1.07946e-05
0.000122626
6.76508e-05
7.20692e-07
1.20757e-06
4.24608e-06
2.95345e-06
5.91253e-07
6.54147e-07
3.7344e-07
5.59101e-07
4.86719e-07
2.96101e-07
2.30062e-07
3.88602e-07
5.33012e-06
2.67919e-05
0.000101481
4.16391e-05
1.46413e-05
3.66286e-06
3.24945e-06
2.17396e-06
1.57406e-06
1.73089e-06
1.97125e-06
2.51434e-06
2.82007e-06
1.70888e-06
2.40597e-06
1.02861e-05
0.000138213
3.45916e-05
1.1505e-06
1.26493e-06
2.93564e-06
6.83426e-06
1.48053e-06
8.25465e-07
4.80481e-07
8.1859e-07
9.43844e-07
1.01743e-06
5.07725e-07
4.80704e-07
7.48888e-06
8.61125e-05
0.000112997
2.12662e-05
2.61925e-06
3.17844e-06
2.36268e-06
1.67825e-06
1.39509e-06
1.75228e-06
2.11474e-06
2.75591e-06
3.47807e-06
4.72162e-06
1.97772e-06
5.34591e-06
0.000133319
2.04057e-05
1.18369e-06
1.4083e-06
1.43819e-06
7.91358e-06
4.58759e-06
1.08098e-06
9.02038e-07
1.29889e-06
1.41665e-06
1.8504e-06
2.24442e-06
1.35466e-06
1.27376e-05
9.24435e-05
6.96898e-05
1.15212e-05
1.47316e-06
3.5854e-06
1.84199e-06
9.27578e-07
8.10368e-07
1.47015e-06
2.19739e-06
2.93603e-06
4.6083e-06
8.11614e-06
4.87675e-06
7.44357e-06
0.000115538
1.09895e-05
1.54359e-06
2.17802e-06
1.92184e-06
6.40929e-06
7.77756e-06
2.05906e-06
1.3419e-06
1.72895e-06
1.83224e-06
2.05558e-06
3.35611e-06
3.87624e-06
9.73517e-06
4.30249e-05
4.53366e-05
8.86296e-06
1.7155e-06
3.9706e-06
1.25945e-06
3.99941e-07
5.68055e-07
1.88762e-06
3.38128e-06
4.06166e-06
5.3717e-06
1.32974e-05
1.65537e-05
1.57912e-05
9.82716e-05
6.24451e-06
2.13284e-06
3.19887e-06
3.45253e-06
5.25916e-06
8.51655e-06
3.68851e-06
1.83276e-06
2.11856e-06
2.21548e-06
2.25136e-06
2.77052e-06
4.4405e-06
5.44894e-06
8.82944e-06
2.5922e-05
6.22125e-06
2.30318e-06
6.52472e-06
2.27307e-06
1.69348e-07
7.77747e-07
2.8075e-06
4.74396e-06
5.97811e-06
6.82774e-06
1.27725e-05
2.30916e-05
1.71634e-05
8.63949e-05
4.64638e-06
2.49331e-06
4.11503e-06
4.96835e-06
7.94764e-06
7.79344e-06
4.44286e-06
2.42554e-06
2.46787e-06
2.58209e-06
2.51684e-06
2.52197e-06
3.19368e-06
3.05816e-06
3.34741e-06
2.2442e-05
7.12218e-06
5.10037e-06
1.03609e-05
5.97622e-06
1.24534e-07
8.72219e-07
2.45734e-06
4.01184e-06
5.85494e-06
1.43866e-05
5.34765e-06
9.92795e-06
1.22218e-05
9.11299e-05
4.15369e-06
1.99829e-06
2.99402e-06
4.61879e-06
1.3034e-05
5.86568e-06
7.5276e-06
5.35497e-06
3.4687e-06
2.83021e-06
2.55734e-06
2.65572e-06
2.96064e-06
2.90172e-06
3.14409e-06
1.22089e-05
2.49617e-05
2.38318e-05
1.90132e-05
7.9564e-06
2.1628e-07
6.99392e-07
3.19783e-06
8.04086e-06
1.00123e-05
1.30814e-05
1.9749e-05
7.59256e-06
4.57356e-05
0.000176085
3.45205e-06
9.18566e-07
1.20198e-06
1.93748e-06
1.05103e-05
9.80954e-06
7.2761e-06
6.68768e-06
4.96991e-06
2.83183e-06
2.40834e-06
2.61074e-06
2.91718e-06
3.29621e-06
3.1461e-06
2.44939e-05
9.25503e-05
1.19527e-05
2.1137e-05
1.12358e-05
6.63878e-07
1.09974e-06
2.80654e-05
7.12843e-05
0.000145916
0.000365082
0.000678399
0.000683597
0.000752479
0.000591411
2.09875e-06
3.57914e-07
3.79282e-07
5.21628e-07
1.46582e-06
3.51642e-05
9.86026e-06
4.94797e-06
2.90306e-06
2.09614e-06
1.91114e-06
2.74901e-06
3.08426e-06
2.92448e-06
3.19184e-06
4.69474e-05
2.91489e-05
6.47177e-06
1.64136e-05
1.24491e-05
3.52519e-06
2.53857e-06
4.66185e-05
0.000621848
0.000864015
0.000984482
0.00117888
0.00120184
0.000922452
0.000690306
1.06406e-06
5.08864e-07
6.92069e-07
7.11257e-07
8.40953e-07
4.26525e-06
2.40251e-05
4.64104e-06
1.42157e-06
9.83759e-07
1.01832e-06
2.03558e-06
4.38248e-06
4.47179e-06
6.59492e-06
4.49452e-05
1.06192e-05
1.06599e-05
1.62717e-05
1.09689e-05
8.19761e-06
1.62809e-05
0.000497642
0.000343434
0.000180878
0.000113137
7.53855e-05
8.82148e-05
4.33803e-05
0.000290218
1.70673e-06
1.84846e-06
2.20782e-06
3.51234e-06
3.43127e-06
3.89582e-06
1.44937e-06
1.4549e-06
5.17639e-07
5.189e-07
1.25029e-06
4.18346e-06
3.32053e-06
7.12541e-06
4.32576e-06
3.46514e-05
9.29235e-06
1.71318e-05
3.45316e-05
3.12035e-05
1.22633e-05
0.000132342
0.000147344
1.04521e-06
1.61651e-06
1.53379e-06
1.31721e-06
1.21862e-06
1.26762e-06
0.00012378
3.8589e-06
1.98629e-06
4.39379e-06
9.78119e-06
8.33445e-06
2.22099e-06
9.39392e-07
7.11912e-07
6.40852e-07
9.08911e-07
2.0464e-06
9.83727e-06
6.79455e-06
4.95425e-06
1.38609e-06
1.95135e-05
1.51191e-05
4.38882e-05
6.70529e-05
4.3727e-05
3.29395e-05
0.000129017
4.10552e-06
2.70524e-06
2.05625e-06
2.03508e-06
1.91431e-06
1.86111e-06
1.9721e-06
8.39627e-05
1.22326e-05
3.91647e-06
8.15507e-06
1.16173e-05
3.99688e-06
1.72771e-06
8.18294e-07
8.87672e-07
9.24337e-07
9.81187e-07
1.48573e-06
3.91098e-06
1.71133e-05
2.42509e-06
1.27306e-06
3.51129e-06
2.14217e-05
9.75805e-05
0.000104223
7.97055e-05
3.27571e-05
7.39336e-05
1.97781e-06
3.17647e-06
2.74012e-06
2.69428e-06
2.50922e-06
2.39388e-06
2.52492e-06
5.51426e-05
3.31277e-05
1.40904e-05
1.07327e-05
8.95346e-06
5.41687e-06
1.74725e-06
1.45059e-06
8.88402e-07
6.34343e-07
5.55738e-07
9.90891e-07
6.0797e-06
1.16638e-05
4.59357e-06
4.80558e-06
1.8722e-05
0.00016331
0.000157073
0.000234193
0.000117535
5.145e-05
4.16633e-05
1.57933e-06
3.31549e-06
3.22595e-06
3.15954e-06
3.03046e-06
2.89512e-06
2.67092e-06
3.24546e-05
0.00186688
0.000573224
9.45065e-06
3.57816e-06
9.28735e-06
5.01064e-06
1.86294e-06
8.33173e-07
5.30219e-07
1.84192e-06
8.2788e-06
6.42127e-05
0.000252713
0.000273406
0.000367818
0.000804253
0.00114519
0.000952532
0.000330449
0.000151698
4.9752e-05
1.24464e-05
1.98575e-06
2.81892e-06
3.06989e-06
3.16034e-06
3.12675e-06
2.98787e-06
2.52e-06
1.62964e-05
0.00189133
0.00307844
0.00214985
0.000594846
6.67505e-05
8.10154e-06
2.43864e-06
8.31153e-07
9.8743e-07
5.62101e-06
8.54371e-06
0.00030572
0.00044544
0.000918095
0.000942126
0.00113452
0.00070395
0.000492923
0.000442908
0.000366729
0.000123497
6.03162e-06
4.30748e-06
2.7123e-06
2.58407e-06
2.60821e-06
2.54829e-06
2.34524e-06
1.84745e-06
6.85236e-06
0.000519516
0.000529457
0.00283752
0.00341942
0.0020505
0.000385981
3.8011e-06
9.19464e-07
1.31758e-06
2.95562e-06
2.175e-05
0.000134316
7.49893e-05
0.000188089
0.000230994
5.07432e-05
2.45419e-06
2.35769e-06
3.07974e-06
8.05644e-05
0.00012351
2.70804e-05
8.43327e-06
3.84764e-06
2.40198e-06
1.90992e-06
1.7119e-06
1.46378e-06
1.01498e-06
2.40783e-06
0.000291901
5.8105e-07
4.0864e-06
0.000355339
0.00240755
0.00317579
0.00124765
1.57611e-06
1.97907e-06
1.27745e-06
7.34553e-06
3.03993e-05
8.90856e-06
1.40192e-06
1.74222e-05
1.42801e-05
3.31623e-06
9.64811e-07
7.95483e-07
1.23733e-05
5.91921e-05
2.47029e-05
1.10652e-05
6.01961e-06
3.20159e-06
1.87984e-06
1.27054e-06
8.64509e-07
5.10529e-07
8.09855e-07
0.000207853
9.76284e-07
1.16343e-06
1.17186e-06
1.8264e-06
0.000469823
0.00337144
0.00229455
6.58514e-05
3.35275e-07
9.85231e-07
0.000101893
9.68363e-06
7.00481e-06
2.70365e-06
2.01519e-05
7.83978e-06
1.89445e-06
1.25015e-06
6.58226e-06
4.31127e-05
1.59877e-05
8.29096e-06
5.74789e-06
3.78789e-06
2.47808e-06
1.55977e-06
9.06379e-07
4.7292e-07
5.57189e-07
0.000131001
1.18055e-06
1.40725e-06
1.80157e-06
2.45361e-06
1.90472e-06
6.49338e-06
0.00189348
0.00235411
0.000906283
9.8458e-06
0.00015909
5.81702e-06
1.07275e-05
1.61111e-06
9.18566e-06
1.46218e-05
2.85914e-06
2.16289e-06
4.17263e-06
3.78187e-05
1.24926e-05
5.44704e-06
3.74775e-06
2.76454e-06
2.21207e-06
1.6797e-06
1.14128e-06
7.11895e-07
8.19766e-07
8.13961e-05
1.26302e-06
1.69938e-06
2.63669e-06
3.04766e-06
2.63729e-06
2.71507e-06
1.26371e-06
0.00028054
0.00172358
0.00163626
0.000271741
1.73539e-06
8.79081e-06
6.33598e-06
3.16023e-07
1.34396e-05
6.96696e-06
4.98715e-06
4.27838e-06
3.37459e-05
1.21505e-05
4.0242e-06
2.34209e-06
1.67786e-06
1.45043e-06
1.24331e-06
1.01521e-06
8.29797e-07
1.14201e-06
5.76842e-05
1.69923e-06
2.70882e-06
3.61919e-06
2.72294e-06
1.95794e-06
1.12421e-06
7.18488e-07
9.43521e-07
6.31472e-07
0.00134423
0.00133445
0.000146364
3.72228e-06
1.13116e-05
1.71987e-06
3.30758e-06
7.1658e-06
6.63892e-06
7.44394e-06
2.3465e-05
1.20214e-05
3.58598e-06
1.54622e-06
1.01958e-06
9.01166e-07
8.30416e-07
7.95367e-07
8.08625e-07
1.325e-06
4.90021e-05
2.6578e-06
3.32166e-06
2.97782e-06
1.99744e-06
9.48176e-07
1.42478e-06
1.76274e-06
4.071e-07
1.60314e-06
4.41401e-05
0.0016564
0.000700463
2.49646e-07
9.83321e-06
7.33364e-06
8.32219e-07
4.03682e-06
5.14341e-06
1.1304e-05
1.22524e-05
7.39768e-06
3.45827e-06
1.0659e-06
6.3165e-07
5.4464e-07
5.34103e-07
5.99426e-07
7.29876e-07
1.36608e-06
4.45946e-05
4.87088e-06
3.85733e-06
3.69976e-06
1.0594e-05
1.50761e-05
9.58032e-06
1.22536e-07
1.51307e-06
2.03758e-06
8.64041e-07
0.000791518
0.00135375
0.000107966
2.77432e-06
9.64985e-06
2.57293e-06
4.13637e-06
5.27542e-06
1.20146e-05
8.11217e-06
5.26912e-06
3.01771e-06
1.04619e-06
4.40824e-07
3.26048e-07
3.31854e-07
4.3733e-07
6.29267e-07
1.31254e-06
2.94642e-05
5.91692e-06
5.08659e-06
1.70297e-05
3.74977e-05
1.37645e-05
4.85905e-07
2.15977e-06
2.76209e-06
1.9804e-06
2.19505e-06
0.000104548
0.00144142
0.000510269
4.89145e-07
6.21209e-06
5.4796e-06
5.60192e-06
6.13334e-06
1.41377e-05
1.72657e-05
6.98696e-06
3.36514e-06
1.45664e-06
4.76444e-07
2.25653e-07
2.05094e-07
3.12952e-07
5.29645e-07
1.20753e-06
1.03573e-05
4.93781e-06
7.01919e-06
2.03915e-05
2.00103e-05
1.23565e-06
1.92846e-06
3.51025e-06
2.86702e-06
2.67928e-06
3.22031e-06
3.87869e-06
0.000539424
0.000811822
0.000121549
3.4093e-06
7.4038e-06
7.36379e-06
2.6393e-05
2.27653e-05
2.10835e-05
1.71811e-05
6.49368e-06
2.00282e-06
5.60747e-07
1.95406e-07
1.43659e-07
2.35721e-07
4.47878e-07
1.07592e-06
2.88274e-06
2.89743e-06
5.42679e-06
1.42151e-05
8.33522e-06
1.52996e-06
2.74315e-06
3.86769e-06
3.33784e-06
3.81439e-06
3.90976e-06
1.37863e-06
0.000112247
0.000701687
0.000313555
5.36303e-06
6.57248e-06
1.44567e-05
2.28312e-05
1.39811e-05
1.40523e-05
8.62173e-06
3.34934e-06
1.17213e-06
5.2294e-07
2.15343e-07
1.36032e-07
1.98938e-07
3.80433e-07
9.21164e-07
1.02428e-06
1.34225e-06
3.12802e-06
8.09268e-06
8.56596e-06
1.86016e-06
2.94292e-06
3.94037e-06
3.73432e-06
4.80684e-06
5.21563e-06
1.87687e-06
2.34828e-05
0.00077032
0.000430425
5.09133e-06
3.10372e-06
6.65129e-06
4.74596e-06
5.57285e-06
5.34822e-06
3.3413e-06
1.53733e-06
9.37752e-07
7.04729e-07
2.91506e-07
1.61089e-07
1.81717e-07
3.1194e-07
7.3882e-07
7.05133e-07
5.45755e-07
9.34556e-07
3.29708e-06
8.10383e-06
3.961e-06
2.09913e-06
4.41068e-06
6.57284e-06
5.62334e-06
7.44974e-06
5.74144e-06
3.41948e-06
0.000687911
0.000622464
5.54349e-06
1.72442e-06
3.51774e-06
3.05915e-06
2.40379e-06
2.1513e-06
1.69099e-06
1.32105e-06
1.27386e-06
7.75417e-07
3.43451e-07
1.93923e-07
1.70971e-07
2.3866e-07
5.3931e-07
6.29855e-07
4.45035e-07
4.22083e-07
7.57124e-07
3.42193e-06
5.4846e-06
9.68253e-07
5.55929e-06
5.11375e-06
1.58775e-05
3.76565e-06
9.71524e-06
2.41731e-06
0.000380318
0.000908759
2.19647e-05
1.27781e-06
2.19276e-06
2.03678e-06
1.23856e-06
9.72623e-07
9.55568e-07
1.02732e-06
9.70121e-07
5.59834e-07
3.17936e-07
2.08794e-07
1.58191e-07
1.74186e-07
3.53561e-07
7.61927e-07
5.52155e-07
4.11336e-07
3.51992e-07
6.85695e-07
4.14775e-06
1.93383e-06
2.83038e-06
4.03592e-06
1.66235e-05
2.13292e-06
9.06972e-06
6.10331e-06
2.69532e-05
0.00109895
0.000142765
8.48597e-07
1.18117e-06
1.01665e-06
6.74393e-07
5.29548e-07
5.12565e-07
5.64096e-07
4.82156e-07
3.35106e-07
2.65454e-07
1.99027e-07
1.43645e-07
1.34071e-07
2.12078e-07
1.04701e-06
1.21132e-06
6.82194e-07
3.87012e-07
3.22937e-07
1.09021e-06
2.01161e-06
6.8092e-07
3.80755e-06
1.18923e-05
8.24126e-06
9.50703e-06
1.04256e-05
2.72671e-06
0.000469827
0.000437203
1.00032e-06
7.27595e-07
5.8207e-07
4.42886e-07
3.61593e-07
3.13023e-07
2.82836e-07
2.54124e-07
2.47808e-07
2.4107e-07
2.04791e-07
1.51417e-07
1.37966e-07
1.30758e-07
1.30087e-06
2.70413e-06
2.40223e-06
6.39341e-07
3.63135e-07
4.62851e-07
1.6684e-06
5.78939e-07
2.25342e-06
1.02664e-05
1.575e-05
6.7899e-06
1.23613e-05
5.67303e-06
1.68358e-05
0.000329559
0.000106851
1.51875e-06
4.99008e-07
3.45805e-07
2.78818e-07
2.1751e-07
1.71767e-07
1.72999e-07
2.28212e-07
2.89685e-07
2.84791e-07
2.67552e-07
3.53485e-07
2.53293e-07
3.5099e-06
6.97951e-06
5.96632e-06
1.88131e-06
4.68137e-07
4.52987e-07
7.52926e-07
2.95347e-07
3.19274e-07
1.82343e-05
1.77823e-05
6.06558e-06
9.92177e-06
8.1459e-06
2.09085e-06
0.000127219
0.00014317
5.59761e-06
4.7554e-07
3.30521e-07
2.44617e-07
1.80133e-07
1.35734e-07
1.35828e-07
2.32436e-07
3.92123e-07
4.85505e-07
1.7199e-06
1.98842e-06
6.35304e-07
0.000663286
0.000793478
1.19412e-05
1.56786e-06
7.23582e-07
5.87945e-07
5.60802e-07
8.75207e-08
3.14366e-07
4.37135e-05
1.82484e-05
7.47178e-06
8.37853e-06
6.73825e-06
1.83448e-06
3.32225e-05
0.000123762
1.05203e-05
1.05011e-06
6.33181e-07
3.23051e-07
2.1491e-07
1.61089e-07
1.13493e-07
1.27938e-07
3.28212e-07
1.07706e-06
9.56828e-06
8.53652e-05
3.61869e-07
0.00064733
0.000569035
0.000948561
7.29749e-06
1.26939e-06
6.8136e-07
3.32943e-07
6.65513e-08
1.17849e-06
8.40249e-05
5.21279e-05
1.1209e-05
1.10298e-05
7.77488e-06
3.91028e-06
8.17099e-05
9.65238e-05
7.95702e-06
4.29827e-06
1.772e-06
6.25453e-07
1.20427e-06
1.00149e-06
2.40751e-07
8.92181e-08
1.5553e-07
1.74495e-06
5.06071e-05
0.00061292
0.000397072
0.000134264
1.34435e-06
0.00063841
0.000862952
3.88244e-06
3.88977e-07
1.34562e-07
2.61222e-07
2.5292e-06
6.21135e-05
0.000354998
4.99273e-06
1.96465e-05
1.67335e-05
2.30871e-05
0.000328546
4.03727e-05
3.37303e-06
1.53445e-06
3.86797e-06
2.43915e-06
1.89313e-06
4.5049e-06
1.41502e-06
7.60818e-07
1.97735e-06
2.57768e-05
0.000666526
5.39288e-05
0.000279016
0.000106934
3.20324e-06
5.68093e-07
0.000648884
0.000694227
2.26798e-06
4.82357e-07
6.45317e-07
3.11746e-06
2.63424e-05
0.000241075
0.000238973
1.1879e-05
2.02621e-05
6.2671e-05
0.000402196
8.01225e-06
2.10677e-06
1.78414e-06
3.84672e-06
0.000191495
0.00135197
0.00076922
2.35801e-06
2.57073e-06
9.77058e-06
0.000640805
8.43159e-05
4.88252e-06
3.716e-05
7.46482e-05
4.27924e-06
2.57567e-06
8.23481e-07
0.000620805
0.000656118
3.03779e-05
4.92874e-05
6.75898e-06
1.8752e-05
5.41209e-05
0.00034568
7.20615e-06
1.39804e-05
0.000179327
0.000260035
4.10904e-06
2.63792e-06
7.67687e-06
0.000465683
0.00203598
0.00145726
0.000747414
0.000629381
0.000418002
0.000585888
0.000145831
4.45395e-06
5.71422e-06
1.68378e-05
4.4245e-05
6.27772e-06
3.90961e-06
3.24924e-06
1.44547e-06
0.000504308
0.000738819
0.000837191
0.000583078
0.000102296
0.000102129
0.000271312
2.15758e-05
1.78161e-05
0.00036498
0.00014817
4.71793e-06
1.03489e-05
0.000582505
0.00188743
0.000309756
2.49843e-06
3.65876e-07
0.000530084
0.000341325
3.54854e-05
5.25361e-06
4.13997e-06
4.12529e-06
3.21956e-06
1.97506e-05
7.31283e-06
5.27175e-06
4.47983e-06
3.88868e-06
2.0059e-06
5.57999e-05
0.000122354
0.00123423
0.00110149
0.000405228
0.000521485
0.000199933
0.000201431
0.000412363
0.000122963
4.72822e-05
0.000700286
0.00133468
9.01089e-05
3.02736e-06
3.42677e-06
2.31877e-06
4.21757e-06
7.26246e-06
6.57677e-06
3.86725e-06
2.09425e-06
1.26796e-06
1.33236e-06
4.0552e-06
5.85255e-06
4.19267e-06
4.28253e-06
4.02422e-06
2.9639e-06
3.10409e-06
2.54655e-06
3.09283e-05
0.00117552
0.00177096
0.00164534
0.00137936
0.00103494
0.000759063
0.000542478
0.00043541
0.00029515
1.94095e-05
7.60799e-06
3.29745e-06
3.0441e-06
2.83082e-06
4.14104e-06
5.14533e-06
3.05616e-06
1.12774e-06
7.22613e-07
8.85754e-07
1.52753e-06
4.40398e-06
2.09273e-06
1.57977e-06
2.6707e-06
3.01312e-06
2.4089e-06
4.52292e-06
3.87482e-06
3.62282e-07
3.71796e-05
0.000677956
0.00175032
0.00184146
0.00102109
0.000999801
0.000572226
0.000169876
3.4383e-06
1.17046e-05
8.32593e-06
3.1647e-06
1.85346e-06
2.03815e-06
2.78419e-06
1.64557e-06
7.1414e-07
6.17356e-07
7.48979e-07
9.63728e-07
1.13445e-06
5.13906e-06
3.54755e-06
1.35083e-06
8.44501e-07
1.45431e-06
1.88819e-06
4.26998e-06
4.12974e-06
3.91288e-08
9.44036e-06
1.48254e-05
0.000161494
0.000462264
0.000236271
0.00018802
0.000163226
0.000125182
1.63042e-05
6.25342e-06
6.16813e-06
3.16582e-06
6.92386e-07
8.89697e-07
6.35115e-07
4.37066e-07
4.62676e-07
6.04413e-07
9.58503e-07
7.94008e-07
5.22696e-07
7.8843e-06
1.01926e-06
2.24988e-06
1.09608e-06
7.97619e-07
1.03485e-06
3.18849e-06
3.55977e-06
1.14291e-05
4.42383e-05
6.86336e-06
3.21402e-06
1.82116e-05
3.3656e-06
8.08134e-06
3.38717e-05
0.000145313
0.000185007
6.34377e-06
5.55638e-06
1.23319e-06
1.99975e-07
1.89995e-07
2.46006e-07
3.27328e-07
4.61334e-07
8.67996e-07
7.10572e-07
6.21801e-07
4.39775e-07
8.3763e-06
1.78101e-05
1.82152e-06
2.95368e-06
2.5314e-06
1.31335e-06
1.71168e-06
3.20004e-06
6.62486e-05
7.65439e-05
1.00901e-05
3.52438e-06
2.82236e-07
3.00084e-06
4.02546e-06
4.36579e-06
0.000136318
0.000125271
4.97963e-06
2.35036e-06
4.58433e-07
8.96391e-08
1.4128e-07
2.61067e-07
3.9909e-07
8.32635e-07
8.0988e-07
9.76756e-07
6.50687e-07
5.00138e-07
4.08074e-05
8.05666e-05
6.30969e-05
3.32266e-05
7.77372e-06
8.36153e-06
2.56711e-06
1.66631e-05
6.28913e-05
3.49392e-05
2.05121e-05
4.16685e-06
6.2936e-07
1.58786e-06
3.35732e-06
3.29619e-06
8.14952e-05
7.26203e-05
1.26597e-05
2.12148e-07
8.93592e-08
8.39471e-08
1.64953e-07
3.7395e-07
8.79217e-07
2.00412e-06
7.22284e-06
0.000178791
0.000117359
3.68765e-06
0.00014458
3.72445e-05
5.92277e-05
7.4038e-05
0.000101234
2.18816e-05
1.39182e-05
0.000106314
1.70727e-05
2.17944e-05
1.95368e-05
3.23023e-06
6.14982e-07
1.64752e-06
2.50451e-06
3.31108e-06
6.73574e-05
9.23201e-05
1.65064e-05
7.25599e-08
6.84466e-08
7.90807e-08
1.37099e-07
3.64624e-07
3.76664e-06
0.000183633
0.00035352
0.000213922
0.000239791
0.000142915
0.00011603
2.19985e-06
3.08183e-06
6.67732e-06
1.55238e-05
6.86047e-05
2.17678e-05
0.000204443
1.59074e-05
1.77541e-05
2.03445e-05
4.34634e-06
6.31458e-07
1.78929e-06
5.96385e-06
1.34481e-05
6.25179e-05
6.57324e-05
8.05779e-06
3.79386e-07
2.48579e-07
2.96664e-07
4.91789e-07
5.38911e-06
0.000302823
0.000279354
5.46357e-05
1.03401e-06
1.6519e-06
0.000200465
5.1817e-05
2.65313e-06
2.57523e-06
2.5742e-06
6.81821e-06
1.24222e-05
0.000103426
3.50146e-05
2.15919e-05
1.13889e-05
2.49644e-05
5.4268e-06
8.80357e-07
3.71136e-06
1.17766e-05
1.96218e-05
4.81315e-05
3.37158e-05
2.19686e-05
4.6025e-06
1.00696e-05
0.000129438
9.5627e-05
0.00047728
0.000223232
1.14451e-06
1.54853e-06
1.47027e-06
1.63046e-06
5.06645e-05
3.31078e-05
3.66838e-06
3.96026e-06
4.22129e-06
4.78491e-06
9.84505e-06
1.50038e-05
2.86034e-05
4.00294e-05
8.72525e-06
2.44996e-05
6.45851e-06
1.82774e-06
9.16514e-06
1.84505e-05
1.45833e-05
3.09513e-05
7.94729e-05
0.000304785
0.000354003
0.000537085
0.000684395
0.000741798
0.000283088
7.80437e-06
2.91209e-06
1.72788e-06
1.65166e-06
1.34283e-06
3.27247e-05
1.49493e-05
5.38909e-06
4.67825e-06
4.75786e-06
6.47064e-06
4.70481e-06
2.72147e-06
9.2879e-06
7.67404e-05
1.51611e-05
2.01177e-05
9.19325e-06
2.73921e-06
1.46344e-05
2.94338e-05
8.18428e-06
4.38043e-05
0.000300659
0.000643673
0.000273618
0.000197108
1.94884e-05
6.70749e-05
4.741e-05
1.96396e-05
5.82706e-06
2.44883e-06
1.77833e-06
1.70716e-06
2.34943e-05
3.90118e-06
4.50542e-06
5.76522e-06
5.13393e-06
5.10809e-06
5.69305e-06
1.96428e-06
4.22698e-06
5.53295e-05
3.47826e-05
1.09174e-05
1.48853e-05
4.5852e-06
1.53243e-05
2.68899e-05
3.14363e-06
5.94237e-05
0.000355556
0.000127449
2.13061e-06
1.72983e-06
1.74779e-06
2.24274e-06
1.90741e-05
2.10865e-05
8.53089e-06
3.72241e-06
3.13514e-06
3.01516e-06
1.34649e-05
1.52631e-06
1.75645e-06
3.64089e-06
5.46041e-06
5.4876e-06
4.38463e-06
2.36438e-06
2.16748e-06
2.25872e-05
4.47012e-05
7.6517e-06
1.58832e-05
9.53846e-06
1.61032e-05
1.76234e-05
9.33766e-06
0.000108496
0.000439185
1.37174e-05
4.3023e-06
2.66028e-06
2.31531e-06
1.63361e-06
5.83865e-06
1.34595e-05
8.66903e-06
5.22527e-06
4.68306e-06
3.71436e-06
4.83342e-06
1.21133e-06
9.13433e-07
1.18962e-06
2.8186e-06
4.91416e-06
5.65505e-06
2.74083e-06
1.14539e-06
1.09817e-05
2.19595e-05
4.72094e-06
1.1586e-05
1.63102e-05
1.78202e-05
1.11991e-05
1.75953e-05
0.000209511
0.000463271
9.09229e-06
1.88735e-06
1.50629e-06
1.99899e-06
1.67996e-06
4.80791e-06
9.33328e-06
7.84633e-06
5.89919e-06
4.0953e-06
2.03636e-06
1.62986e-06
1.18928e-06
8.37948e-07
7.47604e-07
9.11149e-07
1.95255e-06
3.7869e-06
4.21479e-06
1.78152e-06
1.45843e-05
1.81324e-05
1.62172e-06
7.75408e-06
1.92752e-05
2.02563e-05
6.83045e-06
3.30352e-05
0.000339222
0.000193224
7.64691e-06
2.72041e-06
1.68538e-06
2.06892e-06
2.51333e-06
6.59245e-06
9.13947e-06
6.76057e-06
3.50799e-06
1.4344e-06
7.92569e-07
9.93199e-07
8.24174e-07
8.09676e-07
7.18654e-07
6.5324e-07
7.47273e-07
1.34307e-06
3.32038e-06
4.32874e-06
1.54322e-05
1.86947e-05
2.99214e-06
6.53323e-06
2.06077e-05
1.92457e-05
4.79905e-06
5.48081e-05
0.00057481
3.29944e-05
3.10531e-06
4.00576e-06
2.3086e-06
1.88243e-06
4.12995e-06
8.84489e-06
6.94846e-06
2.47568e-06
9.97496e-07
5.80302e-07
5.5271e-07
7.85178e-07
4.28488e-07
7.10028e-07
7.62561e-07
6.33781e-07
5.80584e-07
5.70054e-07
6.6778e-07
5.69766e-06
3.0054e-05
0.000166185
3.87494e-06
3.53758e-06
2.03148e-05
2.18501e-05
5.17442e-06
0.000136802
0.000483649
9.15652e-06
3.47697e-06
1.92777e-06
1.52934e-06
2.23116e-06
6.54156e-06
6.3666e-06
1.62899e-06
7.52931e-07
4.9273e-07
4.54888e-07
5.41377e-07
6.99925e-07
3.10726e-07
6.92105e-07
8.75436e-07
6.89153e-07
6.00823e-07
4.66262e-07
2.6603e-07
2.59872e-06
4.93494e-06
0.000144906
0.000204697
1.01727e-05
2.31312e-05
2.52216e-05
1.27631e-05
0.000211797
0.000126619
6.98348e-06
3.14223e-06
2.73791e-06
1.20898e-06
4.63593e-06
4.74255e-06
1.02216e-06
6.10749e-07
4.67316e-07
4.31794e-07
4.89896e-07
6.05704e-07
7.20379e-07
6.19139e-06
1.23222e-05
1.63763e-06
8.30539e-07
6.96143e-07
5.30054e-07
2.86184e-07
2.41286e-07
2.43177e-06
1.20121e-05
0.000217797
6.363e-05
2.15521e-05
2.46076e-05
2.16732e-05
0.000257379
5.00456e-05
5.32914e-06
7.47117e-06
2.42154e-06
2.65392e-06
2.77226e-06
6.09674e-07
5.15462e-07
4.84885e-07
4.55067e-07
4.93888e-07
7.46099e-07
9.51061e-07
5.67713e-07
0.000872541
0.000843581
3.83432e-05
1.43253e-06
8.64991e-07
6.49418e-07
3.57277e-07
1.67921e-07
4.67372e-06
1.78582e-05
0.000115659
0.000413593
4.75029e-05
1.78488e-05
2.80931e-05
0.000263854
2.7157e-05
9.93427e-06
9.42416e-06
3.75681e-06
3.0606e-06
2.88701e-07
2.93018e-07
4.82682e-07
5.35053e-07
5.55538e-07
6.70022e-07
1.02882e-06
2.58725e-06
2.1641e-06
0.00106388
0.000475462
0.000941249
8.29889e-05
2.00968e-06
8.33831e-07
5.28519e-07
7.42974e-07
8.57057e-06
2.51653e-05
4.04992e-05
0.000368217
0.000375534
2.52408e-05
4.62173e-05
0.000215406
1.03037e-05
1.38569e-05
1.66154e-05
8.52103e-06
2.37179e-06
9.96495e-08
3.14159e-07
5.55524e-07
6.19912e-07
6.86715e-07
1.08258e-06
4.73992e-06
0.000532605
0.000203456
0.000187412
7.06706e-06
0.000341519
0.000816015
0.000174304
2.24146e-06
1.06176e-06
2.61709e-06
1.23837e-05
1.49827e-05
2.96826e-05
8.2563e-05
0.000576153
8.45068e-05
8.45071e-05
9.67638e-05
9.38904e-06
7.69736e-05
3.23332e-05
1.05135e-05
3.04104e-06
7.33499e-07
6.24466e-07
7.25543e-07
8.09526e-07
1.16786e-06
6.76756e-06
0.00105677
0.00209397
0.00251252
0.00011771
9.60368e-06
4.4794e-06
4.71471e-05
0.000694595
0.000169153
3.85179e-06
6.68595e-06
7.38852e-06
9.31681e-06
2.25049e-05
7.71243e-05
0.000272116
0.000100729
0.000126379
5.37609e-05
1.96575e-05
0.000197317
1.86003e-05
8.71268e-06
2.99363e-06
1.04723e-06
1.24329e-06
1.47485e-06
2.34239e-06
1.12371e-05
0.00119152
0.00251087
0.000101214
0.00157471
6.94099e-05
1.40564e-05
4.92471e-06
4.58794e-06
1.92079e-06
0.000444637
7.87882e-05
1.56378e-05
3.7484e-06
6.73064e-06
3.72136e-05
0.000158521
0.000138491
5.89532e-05
0.000127477
2.95278e-05
2.01548e-05
0.000198552
7.62086e-06
3.77157e-06
1.62106e-06
7.35357e-07
1.0846e-06
4.05533e-06
1.50106e-05
0.00129957
0.00250965
2.47422e-05
4.18937e-06
0.000508452
1.67063e-05
1.05644e-05
6.57878e-06
4.11228e-06
4.24477e-06
1.63828e-06
0.000130034
1.72237e-05
3.26331e-06
1.23489e-05
0.000116366
0.000263135
0.000139773
1.7281e-07
4.2251e-05
1.97827e-05
1.59949e-05
0.000177115
3.58115e-06
1.3239e-06
1.00269e-06
9.54293e-07
8.55797e-07
8.33299e-06
0.000205601
0.00209984
3.26224e-06
2.46917e-06
3.70139e-06
0.000383734
1.15028e-05
4.7439e-06
3.38773e-06
4.10304e-06
3.78262e-06
2.18378e-06
2.39311e-06
5.67152e-06
3.3466e-06
5.21659e-06
0.000220661
0.00039632
0.00012075
1.78382e-06
8.64022e-06
3.16138e-05
1.38718e-05
0.000137175
2.13775e-06
1.9302e-05
2.12649e-05
1.3444e-05
6.50554e-06
9.09857e-06
0.000420085
0.000173928
2.80004e-06
2.66075e-06
4.7633e-06
0.000270246
5.40639e-05
1.52364e-05
6.88169e-07
1.64026e-06
3.25295e-06
3.31703e-06
1.61951e-06
1.67956e-06
7.59135e-06
6.42536e-06
0.00024216
0.000370954
3.34116e-05
4.28287e-06
2.18265e-05
3.61763e-05
5.94701e-05
0.000223367
4.12856e-05
0.000171939
0.000130294
6.14894e-05
2.96654e-05
4.17374e-05
0.000650592
1.12243e-05
3.60906e-06
4.79925e-06
7.03024e-06
0.000178724
7.13475e-05
7.61525e-07
7.33729e-07
4.95306e-07
1.30243e-06
9.89344e-06
8.4692e-06
5.78137e-06
4.70771e-05
0.000520091
0.000284445
4.86699e-05
1.08024e-05
1.59801e-05
4.96657e-05
0.000123796
0.000618091
0.00110328
0.00206364
0.0023194
0.000127852
0.000109954
7.70705e-05
0.000183111
0.000386902
2.75946e-06
4.60809e-06
6.47175e-06
9.09358e-06
0.000111645
5.00285e-05
1.0129e-05
1.20679e-06
1.06933e-06
1.46459e-06
9.03341e-06
1.53067e-05
2.9761e-05
6.48883e-05
0.00107216
0.000799936
8.99314e-05
0.000141158
0.00046932
0.000971569
0.00243622
0.00397777
0.00341144
0.00259723
0.00120183
0.00098246
6.3071e-05
0.000144514
0.000461598
4.74127e-05
5.65137e-06
6.29852e-06
8.17698e-06
9.63228e-06
4.56022e-05
9.6868e-05
0.000120539
3.07649e-05
3.94681e-06
4.75715e-06
3.45306e-06
1.30706e-05
3.90756e-05
0.000695696
0.0014419
0.00250067
0.00159962
0.0020461
0.00290103
0.00401065
0.00505009
0.00334459
0.000809165
0.000121056
0.000223303
0.00101524
0.00104629
0.000146996
0.000414224
1.4979e-05
1.04171e-05
1.33166e-05
1.26748e-05
6.68689e-06
1.96949e-05
0.000159565
0.000323081
0.000427658
0.000222892
1.80039e-05
1.50635e-05
4.82092e-06
4.43325e-05
0.000673307
0.00117757
0.00302299
0.00341813
0.00348001
0.00321615
0.0028354
0.00170086
0.000353313
2.86394e-05
1.42843e-05
2.25256e-06
0.000194418
0.00117147
0.00087019
0.000112758
8.242e-06
1.39796e-05
6.03558e-05
0.000105165
2.28465e-05
2.95308e-05
0.000367469
0.000353348
0.000394199
0.000379977
0.000228926
3.58354e-05
4.70949e-06
0.000193962
0.000631147
0.000327709
0.000646323
0.00142709
0.00136464
0.00100657
0.000448655
9.9749e-05
1.67392e-05
1.73284e-05
3.05421e-05
1.22334e-05
4.74014e-06
0.0001987
0.000880117
0.000247383
5.01945e-05
5.2536e-05
0.000176726
0.000295186
0.000138514
5.58182e-05
0.000694155
4.86682e-05
5.67004e-06
6.28506e-05
0.000279963
2.61274e-05
0.000100762
0.000721011
0.000546386
5.04194e-05
5.1703e-05
0.000155339
0.000171564
6.75179e-05
2.11414e-05
2.36848e-05
1.35021e-05
1.83789e-05
3.04117e-05
3.00848e-05
1.64212e-05
1.25718e-05
0.000231897
0.000575181
0.000331622
9.12729e-05
4.70246e-05
0.000172139
0.000411941
0.000131214
0.000651485
1.66088e-05
7.28224e-06
3.91882e-06
1.16232e-05
0.000168028
0.000558013
0.000634273
5.63502e-05
4.02979e-05
3.95615e-05
2.49245e-05
1.76425e-05
8.03016e-06
2.11717e-05
4.81202e-05
1.45581e-05
1.59603e-05
2.19269e-05
3.4181e-05
3.11868e-05
2.20568e-05
4.44197e-05
0.000269739
0.000434411
6.04956e-05
1.0823e-05
2.10435e-05
0.000194678
0.000444669
0.00025846
2.06302e-05
1.05918e-05
1.30648e-05
3.04744e-06
0.000133731
0.000391403
0.000173189
3.11e-05
3.25665e-05
3.23729e-05
2.22951e-05
1.2793e-05
8.36341e-06
3.54928e-05
7.64196e-05
1.20083e-05
1.10013e-05
1.05327e-05
1.98561e-05
2.81618e-05
2.71607e-05
3.78554e-05
0.00012926
0.000206532
1.96804e-05