/*--------------------------------*- C++ -*----------------------------------*\
| =========                 |                                                 |
| \\      /  F ield         | OpenFOAM: The Open Source CFD Toolbox           |
|  \\    /   O peration     | Version:  2.3.0                                 |
|   \\  /    A nd           | Web:      www.OpenFOAM.org                      |
|    \\/     M anipulation  |                                                 |
\*---------------------------------------------------------------------------*/
FoamFile
{
    version     2.0;
    format      ascii;
    class       surfaceScalarField;
    location    "1.9";
    object      phi.particles;
}
// * * * * * * * * * * * * * * * * * * * * * * * * * * * * * * * * * * * * * //

dimensions      [0 3 -1 0 0 0 0];

internalField   nonuniform List<scalar> 
11770
(
-2.84816e-06
-4.82934e-06
-4.59088e-06
-7.33096e-06
-5.49e-06
-1.18489e-05
-5.39452e-06
-1.38074e-05
-5.18467e-06
-1.50632e-05
-5.15876e-06
-1.49477e-05
-5.847e-06
-1.3635e-05
-8.21822e-06
-1.24828e-05
-1.12228e-05
-8.86915e-06
-1.53119e-05
-7.46645e-06
-2.07904e-05
-4.85948e-06
-2.587e-05
-1.67111e-06
-2.91766e-05
-2.0658e-06
-3.07338e-05
-4.79084e-06
-2.99898e-05
-8.3059e-06
-2.79114e-05
-9.41754e-06
-2.63712e-05
-9.59122e-06
-2.55966e-05
-9.07912e-06
-2.44805e-05
-7.67749e-06
-2.21591e-05
-5.84579e-06
-1.78616e-05
-3.71175e-06
-1.25251e-05
-2.46823e-06
-6.53398e-06
-2.14982e-06
3.42743e-07
-3.21314e-06
7.6374e-06
-5.53169e-06
1.10837e-05
-6.17456e-06
1.00801e-05
-9.16009e-06
9.13246e-06
-1.02912e-05
6.94045e-06
-1.43122e-05
-1.81542e-05
-9.8596e-07
1.45001e-05
-1.61355e-06
1.30186e-05
-2.55145e-06
1.31892e-05
-5.64182e-06
1.38845e-05
-8.22188e-06
1.29833e-05
-8.67957e-06
1.10024e-05
-8.33688e-06
1.04186e-05
-9.13878e-06
1.32018e-05
-1.34002e-05
1.69251e-05
-2.00583e-05
1.60667e-05
-2.74405e-05
1.54119e-05
-3.3808e-05
1.69648e-05
-3.73769e-05
1.28046e-05
-3.63524e-05
6.54326e-06
-3.14675e-05
2.80335e-07
-2.64553e-05
-2.60262e-06
-2.26054e-05
-2.36762e-06
-1.89319e-05
2.6239e-07
-1.52544e-05
-6.86215e-07
-1.21338e-05
1.63958e-06
-9.84659e-06
3.85579e-06
-8.63293e-06
5.23804e-06
-7.17357e-06
3.51109e-06
-4.3182e-06
2.09554e-07
2.37762e-06
-2.71e-06
7.78481e-06
3.24569e-06
5.20622e-06
1.21178e-05
1.07114e-06
1.04842e-05
-1.70343e-06
5.99035e-06
-1.93793e-06
-3.53231e-06
1.62565e-05
-3.7626e-06
1.14449e-05
-4.49592e-06
1.32087e-05
-7.12666e-06
1.25367e-05
-9.15505e-06
1.19185e-05
-9.13201e-06
8.83452e-06
-8.20158e-06
7.56327e-06
-7.93672e-06
1.25446e-05
-1.00142e-05
1.64463e-05
-1.66722e-05
1.68148e-05
-2.48517e-05
1.5778e-05
-3.03379e-05
1.27577e-05
-3.09004e-05
6.11074e-06
-2.77099e-05
5.26573e-07
-2.28741e-05
-4.09813e-06
-1.77686e-05
-6.83621e-06
-1.27312e-05
-6.61032e-06
-7.5456e-06
-2.97825e-06
-3.12738e-06
-1.91055e-06
1.01954e-07
1.93556e-06
3.60962e-07
5.28565e-06
-2.02656e-06
6.44671e-06
-3.59279e-06
4.44329e-06
-3.71613e-06
2.26921e-07
-2.69853e-06
-4.15377e-06
1.86355e-06
-5.61405e-06
2.78578e-06
9.02125e-06
1.32186e-08
7.06075e-06
-7.15381e-07
2.89205e-06
-8.68938e-07
-5.59479e-06
1.33319e-05
-7.78337e-06
7.49438e-06
-8.28113e-06
9.03614e-06
-8.72427e-06
7.9548e-06
-8.08271e-06
6.95789e-06
-7.23022e-06
4.68515e-06
-6.76034e-06
3.34717e-06
-5.8491e-06
6.67631e-06
-6.93543e-06
1.05117e-05
-1.21926e-05
1.01736e-05
-1.71312e-05
6.72334e-06
-1.67095e-05
-3.44123e-07
-1.38542e-05
-5.3143e-06
-1.23529e-05
-8.45862e-06
-1.13102e-05
-1.1371e-05
-1.00393e-05
-1.15372e-05
-6.35944e-06
-1.00669e-05
7.65257e-07
-5.68349e-06
7.29119e-06
-1.8689e-06
8.09818e-06
3.39662e-06
5.99066e-06
7.26586e-06
3.19381e-06
8.23068e-06
2.10766e-07
6.06537e-06
-2.14827e-06
1.1183e-06
-3.25303e-06
-3.90348e-06
-2.93429e-06
-7.40652e-06
-2.94598e-06
7.23657e-06
-4.23584e-06
8.30023e-06
-3.63844e-06
4.63286e-06
5.06536e-07
-5.63318e-06
9.90682e-07
-9.00437e-06
-2.96522e-06
-9.65822e-06
-1.15399e-07
-8.90822e-06
-2.84797e-07
-7.18033e-06
-1.8739e-06
-5.85524e-06
-2.94585e-06
-5.63308e-06
-3.72845e-06
-5.88858e-06
-2.3575e-06
-8.05369e-06
-3.90597e-07
-1.17386e-05
-1.67019e-06
-1.15668e-05
-6.56647e-06
-7.35102e-06
-1.40977e-05
-3.08961e-06
-1.88255e-05
1.33135e-07
-2.3634e-05
1.31391e-06
-2.49058e-05
8.84221e-07
-2.15999e-05
3.01178e-06
-1.56537e-05
9.71057e-06
-9.1394e-06
1.34032e-05
-2.92976e-06
1.29827e-05
3.42819e-06
1.03628e-05
7.62655e-06
6.76999e-06
9.33124e-06
2.65954e-06
7.36685e-06
-8.15004e-07
1.6424e-06
-3.80126e-06
-4.87302e-06
-7.24056e-06
-9.47218e-06
-7.95628e-06
4.09791e-06
-8.43724e-06
7.83452e-06
-6.78523e-06
5.24252e-06
-2.49917e-07
-2.10301e-06
-1.46845e-05
-4.6332e-06
-1.63605e-05
-6.43702e-06
-1.19947e-05
-7.44779e-06
-8.90445e-06
-7.76276e-06
-1.0677e-05
-7.91581e-06
-1.15162e-05
-9.38491e-06
-1.18569e-05
-1.18607e-05
-1.19227e-05
-1.39036e-05
-1.16833e-05
-1.28777e-05
-1.21791e-05
-9.2349e-06
-1.64444e-05
-5.00321e-06
-2.2962e-05
1.3045e-07
-2.71467e-05
5.32957e-06
-3.21106e-05
8.51437e-06
-3.20621e-05
8.018e-06
-2.86675e-05
9.45292e-06
-1.98797e-05
1.35499e-05
-1.22007e-05
1.52126e-05
-4.21499e-06
1.45954e-05
2.74917e-06
1.2528e-05
7.71611e-06
8.72978e-06
1.03983e-05
3.82369e-06
8.71958e-06
-7.71192e-07
1.55188e-06
-4.21716e-06
-6.25102e-06
-9.71009e-06
-1.14119e-05
-1.06519e-05
7.85725e-07
-1.09581e-05
5.81961e-06
-8.59037e-06
4.94689e-06
-1.46911e-06
1.43643e-06
-2.17654e-05
1.33933e-06
-2.2749e-05
-6.68288e-09
-2.08221e-05
-3.77712e-06
-1.57143e-05
-8.03299e-06
-1.57832e-05
-1.16018e-05
-1.75394e-05
-1.43368e-05
-1.76265e-05
-1.61144e-05
-1.75879e-05
-1.57363e-05
-1.72516e-05
-1.25862e-05
-1.82102e-05
-8.67144e-06
-2.30006e-05
-4.13344e-06
-2.69051e-05
2.69265e-06
-3.09494e-05
8.46203e-06
-3.48012e-05
1.19561e-05
-3.41447e-05
1.26059e-05
-3.1986e-05
1.10838e-05
-2.50053e-05
1.30239e-05
-1.50896e-05
1.39233e-05
-6.23209e-06
1.40918e-05
1.41917e-06
1.28525e-05
7.13473e-06
9.58789e-06
1.20401e-05
3.266e-06
1.03573e-05
-2.79413e-06
5.06113e-07
-8.63875e-06
-1.01799e-05
-1.45153e-05
-1.52437e-05
-1.1381e-05
-4.24223e-06
-1.08463e-05
1.28527e-06
-8.7765e-06
2.13502e-06
-3.93477e-06
3.17198e-06
-2.097e-05
4.26605e-06
-2.19103e-05
3.75658e-06
-2.12894e-05
1.83285e-08
-1.63198e-05
-6.45383e-06
-1.47431e-05
-1.20939e-05
-1.65885e-05
-1.50835e-05
-1.68687e-05
-1.59693e-05
-1.7379e-05
-1.51259e-05
-1.81809e-05
-1.21705e-05
-2.14879e-05
-7.61788e-06
-2.61694e-05
-9.95639e-07
-2.92704e-05
6.64912e-06
-3.36554e-05
1.1377e-05
-3.67825e-05
1.35317e-05
-3.63906e-05
1.32777e-05
-3.69534e-05
9.2958e-06
-3.58977e-05
9.94976e-06
-2.01952e-05
1.20629e-05
-1.10474e-05
1.38384e-05
-5.43795e-06
1.35495e-05
1.09031e-08
8.972e-06
7.40505e-06
4.19425e-07
5.88182e-06
-9.26354e-06
-5.00091e-06
-1.74895e-05
-1.73729e-05
-1.80107e-05
-1.91983e-05
-1.11466e-05
-1.00669e-05
-7.86288e-06
-4.57431e-06
-6.08499e-06
-2.64884e-06
-8.32752e-06
3.69031e-06
-1.83301e-05
5.38961e-06
-1.95216e-05
5.84536e-06
-1.88536e-05
2.94153e-06
-1.33334e-05
-3.6382e-06
-1.08419e-05
-1.05347e-05
-1.20793e-05
-1.44519e-05
-1.30006e-05
-1.55183e-05
-1.57169e-05
-1.42846e-05
-1.83053e-05
-1.06514e-05
-2.2954e-05
-5.29328e-06
-2.66397e-05
1.98763e-06
-3.17311e-05
8.41603e-06
-3.64009e-05
1.11828e-05
-4.01208e-05
1.10852e-05
-4.09631e-05
8.71148e-06
-4.33819e-05
4.55199e-06
-4.68768e-05
3.73919e-06
-3.51791e-05
6.31637e-06
-2.15653e-05
7.22248e-06
-1.24147e-05
3.92458e-06
-6.14005e-06
-1.97699e-06
1.75618e-07
-6.92597e-06
-4.10548e-06
-1.38881e-05
-1.54629e-05
-1.99122e-05
-2.25374e-05
-1.80896e-05
-2.15671e-05
-1.09157e-05
-1.37768e-05
-5.06689e-06
-9.17484e-06
-2.37735e-06
-8.01937e-06
-1.24751e-05
4.3717e-06
-1.54059e-05
6.33374e-06
-1.69672e-05
7.16392e-06
-1.60265e-05
5.02875e-06
-9.99147e-06
-1.1228e-06
-6.018e-06
-9.18978e-06
-7.54482e-06
-1.45691e-05
-9.31275e-06
-1.56106e-05
-1.37573e-05
-1.29998e-05
-1.80961e-05
-8.18506e-06
-2.38866e-05
-3.12898e-06
-2.63024e-05
2.7995e-06
-3.34841e-05
6.37517e-06
-3.93152e-05
6.24537e-06
-4.25677e-05
6.52588e-06
-4.35611e-05
6.51132e-06
-4.56972e-05
1.86578e-06
-4.99712e-05
-5.74639e-06
-4.35873e-05
-1.03515e-05
-2.45107e-05
-1.0365e-05
-1.32201e-05
-1.00644e-05
-6.80311e-06
-9.14188e-06
-4.65933e-06
-6.32485e-06
-1.03832e-05
-7.19654e-06
-1.81111e-05
-1.25226e-05
-2.33751e-05
-1.41099e-05
-2.203e-05
-9.44474e-06
-1.43947e-05
-3.86729e-06
-1.1121e-05
-7.12775e-07
-1.16639e-05
-1.37787e-05
5.14135e-06
-1.23945e-05
7.1725e-06
-1.39229e-05
8.09053e-06
-1.26233e-05
6.43414e-06
-6.16136e-06
-2.4007e-07
-6.43799e-07
-9.86961e-06
-3.18675e-06
-1.56516e-05
-5.64437e-06
-1.56847e-05
-1.12264e-05
-1.22084e-05
-1.86523e-05
-7.08205e-06
-2.46685e-05
-2.29648e-06
-2.68744e-05
9.59533e-07
-3.4725e-05
9.05945e-07
-4.02978e-05
4.68752e-07
-4.23879e-05
2.86063e-06
-4.21089e-05
4.35131e-06
-4.26265e-05
5.27229e-07
-4.67794e-05
-8.62859e-06
-4.21448e-05
-1.4766e-05
-2.11699e-05
-1.41118e-05
-1.30449e-05
-1.15871e-05
-8.18167e-06
-6.88207e-06
-6.96649e-06
-1.94526e-06
-1.33421e-05
-9.68502e-07
-1.7866e-05
-6.07983e-06
-2.34315e-05
-1.01019e-05
-2.06386e-05
-7.22127e-06
-1.36247e-05
-2.95516e-06
-1.13874e-05
-3.76886e-07
-1.27865e-05
-1.35789e-05
5.96515e-06
-9.34346e-06
7.98864e-06
-1.03827e-05
8.78854e-06
-8.62027e-06
7.1571e-06
-1.7891e-06
-6.46261e-07
5.05661e-06
-1.14852e-05
1.303e-06
-1.68999e-05
-1.60559e-06
-1.59258e-05
-1.01437e-05
-1.20719e-05
-1.9864e-05
-7.30241e-06
-2.38784e-05
-3.16674e-06
-2.80886e-05
-3.10745e-06
-3.55865e-05
-3.82635e-06
-3.91747e-05
-2.06943e-06
-4.0336e-05
1.63882e-06
-3.93133e-05
3.60942e-06
-3.81668e-05
5.59626e-07
-3.99055e-05
-7.40598e-06
-4.008e-05
-1.36072e-05
-2.10027e-05
-1.38072e-05
-1.37926e-05
-1.02102e-05
-1.03682e-05
-4.03267e-06
-1.17723e-05
1.68525e-06
-1.56395e-05
2.21563e-06
-1.7211e-05
-3.69984e-06
-2.254e-05
-8.0929e-06
-1.90806e-05
-6.11738e-06
-1.39333e-05
-2.58384e-06
-1.22855e-05
-6.69717e-07
-1.33299e-05
-1.32734e-05
6.68358e-06
-6.17205e-06
8.75638e-06
-6.32473e-06
9.37836e-06
-4.08613e-06
7.58075e-06
2.98749e-06
-1.27652e-06
1.13269e-05
-1.33894e-05
6.61909e-06
-1.8596e-05
2.04677e-06
-1.64269e-05
-1.08971e-05
-1.21484e-05
-1.95366e-05
-8.53463e-06
-2.19193e-05
-6.58626e-06
-2.82692e-05
-6.92836e-06
-3.4326e-05
-6.28766e-06
-3.69177e-05
-3.29964e-06
-3.79123e-05
1.09856e-06
-3.68824e-05
4.59627e-06
-3.50063e-05
3.19126e-06
-3.42232e-05
-4.06683e-06
-3.78752e-05
-1.06308e-05
-2.4968e-05
-1.11688e-05
-1.60557e-05
-6.37945e-06
-1.34444e-05
-5.26476e-07
-1.66621e-05
5.05762e-06
-1.7561e-05
4.3399e-06
-1.67204e-05
-3.42789e-06
-2.01018e-05
-6.43845e-06
-1.7961e-05
-4.99736e-06
-1.49409e-05
-2.9573e-06
-1.3848e-05
-9.67799e-07
-1.39617e-05
-1.26838e-05
7.1784e-06
-2.96315e-06
9.39168e-06
-1.92634e-06
9.80487e-06
7.18929e-07
7.71751e-06
8.02898e-06
-1.82936e-06
1.79359e-05
-1.50647e-05
1.2463e-05
-2.04292e-05
5.02586e-06
-1.74992e-05
-1.05966e-05
-1.3339e-05
-1.72999e-05
-1.07864e-05
-2.02013e-05
-9.93647e-06
-2.65626e-05
-1.01793e-05
-3.12116e-05
-9.31211e-06
-3.38092e-05
-6.74349e-06
-3.49233e-05
-2.81922e-06
-3.41279e-05
2.59678e-06
-3.18099e-05
4.02847e-06
-2.95365e-05
6.87961e-07
-3.3866e-05
-3.70682e-06
-2.88586e-05
-4.83475e-06
-1.97724e-05
-9.39603e-07
-1.69649e-05
3.03953e-06
-1.88422e-05
7.64295e-06
-1.87202e-05
5.20788e-06
-1.58439e-05
-2.38202e-06
-1.75681e-05
-4.23825e-06
-1.67173e-05
-3.63939e-06
-1.50494e-05
-2.70967e-06
-1.44065e-05
-6.23445e-07
-1.3728e-05
-1.09511e-05
7.28858e-06
-5.11779e-08
9.75163e-06
2.32796e-06
1.00125e-05
5.5193e-06
7.32035e-06
1.30158e-05
-3.33387e-06
2.47432e-05
-1.74635e-05
1.87551e-05
-2.27755e-05
8.72199e-06
-1.91939e-05
-7.40215e-06
-1.50864e-05
-1.39718e-05
-1.23811e-05
-1.80022e-05
-1.20757e-05
-2.32591e-05
-1.19161e-05
-2.75437e-05
-1.07754e-05
-3.0579e-05
-8.44012e-06
-3.23078e-05
-4.46172e-06
-3.20774e-05
6.18549e-07
-2.84986e-05
3.63051e-06
-2.46548e-05
3.09857e-06
-2.88951e-05
1.65343e-06
-2.87786e-05
1.8857e-06
-2.19419e-05
4.17434e-06
-1.85408e-05
6.53469e-06
-1.90063e-05
9.76888e-06
-1.86243e-05
7.37342e-06
-1.49993e-05
4.3451e-07
-1.56059e-05
-2.15189e-06
-1.47414e-05
-2.03651e-06
-1.38678e-05
-1.47386e-06
-1.32675e-05
6.15055e-07
-1.15645e-05
-7.46347e-06
7.17358e-06
2.38299e-06
9.78693e-06
6.02525e-06
9.89528e-06
9.92734e-06
6.50408e-06
1.76348e-05
-5.12645e-06
3.19402e-05
-1.95606e-05
2.53134e-05
-2.40924e-05
1.44872e-05
-2.01566e-05
-1.34734e-06
-1.66781e-05
-9.59061e-06
-1.37586e-05
-1.47043e-05
-1.29029e-05
-1.93078e-05
-1.26243e-05
-2.40266e-05
-1.17147e-05
-2.84135e-05
-1.04572e-05
-3.07016e-05
-6.90266e-06
-3.06889e-05
-1.93663e-06
-2.58566e-05
2.54958e-06
-1.97775e-05
4.15834e-06
-2.29835e-05
3.73383e-06
-2.55926e-05
4.80561e-06
-2.14177e-05
6.76483e-06
-1.80844e-05
8.70257e-06
-1.82209e-05
1.10445e-05
-1.69735e-05
8.52894e-06
-1.39862e-05
2.50986e-06
-1.37293e-05
-2.42722e-07
-1.24007e-05
-4.434e-07
-1.16275e-05
-1.20919e-07
-1.04668e-05
1.20011e-06
-8.11203e-06
-4.41235e-06
6.94425e-06
4.0148e-06
9.39124e-06
8.94171e-06
9.2194e-06
1.36076e-05
5.41316e-06
2.15995e-05
-6.22798e-06
3.90798e-05
-2.0395e-05
3.19507e-05
-2.3482e-05
1.99814e-05
-1.95992e-05
4.72946e-06
-1.68939e-05
-5.22061e-06
-1.48056e-05
-1.0695e-05
-1.41041e-05
-1.52265e-05
-1.4025e-05
-2.10537e-05
-1.38726e-05
-2.66124e-05
-1.26771e-05
-2.95825e-05
-9.28744e-06
-2.98307e-05
-4.98904e-06
-2.461e-05
-7.38262e-08
-1.58789e-05
2.57616e-06
-1.72496e-05
3.18857e-06
-2.06926e-05
5.0858e-06
-1.87818e-05
6.59004e-06
-1.64409e-05
8.24539e-06
-1.61286e-05
1.01332e-05
-1.40002e-05
7.66347e-06
-1.27514e-05
2.46447e-06
-1.1296e-05
6.84583e-07
-9.96132e-06
6.32071e-07
-9.01583e-06
7.17246e-07
-7.74462e-06
7.04905e-07
-5.689e-06
-2.64766e-06
6.52134e-06
4.89558e-06
8.3758e-06
1.08685e-05
7.82475e-06
1.63158e-05
3.89726e-06
2.47e-05
-5.91917e-06
4.43377e-05
-1.93852e-05
4.06419e-05
-2.15627e-05
2.39123e-05
-1.83533e-05
9.22876e-06
-1.7189e-05
-1.76716e-06
-1.57234e-05
-7.5428e-06
-1.53991e-05
-1.19638e-05
-1.6114e-05
-1.86599e-05
-1.61899e-05
-2.49977e-05
-1.50604e-05
-2.86109e-05
-1.2517e-05
-2.91326e-05
-8.59215e-06
-2.3802e-05
-3.2244e-06
-1.29731e-05
4.60878e-07
-1.26879e-05
1.98184e-06
-1.53841e-05
3.17237e-06
-1.39879e-05
3.78564e-06
-1.26311e-05
6.38184e-06
-1.27643e-05
9.23169e-06
-1.23958e-05
6.94025e-06
-1.1484e-05
2.58559e-06
-8.62123e-06
1.41998e-06
-7.62847e-06
1.09777e-06
-6.88966e-06
8.40201e-07
-5.8334e-06
5.0693e-07
-4.25402e-06
-1.70024e-06
5.51338e-06
5.02179e-06
6.35524e-06
1.21924e-05
5.54137e-06
1.82801e-05
1.69331e-06
2.72838e-05
-3.87892e-06
4.61614e-05
-1.51932e-05
5.13827e-05
-1.91296e-05
3.00932e-05
-1.6613e-05
1.38496e-05
-1.69557e-05
5.53665e-07
-1.67815e-05
-6.07006e-06
-1.73781e-05
-1.04731e-05
-1.86949e-05
-1.69104e-05
-1.87623e-05
-2.30982e-05
-1.80424e-05
-2.67066e-05
-1.5989e-05
-2.73574e-05
-1.17557e-05
-2.05101e-05
-6.32033e-06
-8.51533e-06
-2.71988e-06
-7.57293e-06
-1.91446e-06
-9.49236e-06
-1.65832e-06
-8.51799e-06
-2.55364e-07
-9.63825e-06
5.17521e-06
-1.19613e-05
8.67103e-06
-1.28794e-05
5.97371e-06
-9.59703e-06
2.72783e-06
-6.46421e-06
2.17043e-06
-5.96298e-06
1.78216e-06
-5.37185e-06
1.37397e-06
-4.66251e-06
8.70088e-07
-3.34611e-06
-1.32676e-06
3.15025e-06
5.05222e-06
3.04555e-06
1.3281e-05
1.59405e-06
2.01764e-05
-1.13648e-06
2.96414e-05
-5.38889e-07
4.45812e-05
-7.84507e-06
5.88826e-05
-1.37651e-05
4.3076e-05
-1.21961e-05
2.40023e-05
-1.56576e-05
3.13951e-06
-1.76135e-05
-4.69114e-06
-1.91016e-05
-8.47191e-06
-2.03315e-05
-1.42473e-05
-2.03224e-05
-2.00899e-05
-1.9795e-05
-2.30375e-05
-1.83482e-05
-2.34209e-05
-1.55339e-05
-1.39205e-05
-1.12313e-05
-2.26841e-06
-7.51385e-06
-1.92366e-06
-5.86152e-06
-3.36642e-06
-3.31271e-06
-5.83478e-06
1.51924e-06
-9.11968e-06
7.49896e-06
-1.24325e-05
8.23131e-06
-1.19133e-05
4.45651e-06
-6.84839e-06
3.73316e-06
-5.50333e-06
3.52866e-06
-4.9075e-06
3.08052e-06
-4.37979e-06
2.59905e-06
-3.91205e-06
1.46407e-06
-3.04214e-06
-1.20996e-06
1.13098e-07
5.99838e-06
-1.00234e-06
1.48239e-05
-3.83753e-06
2.24886e-05
-5.11644e-06
3.107e-05
8.6196e-07
4.03333e-05
-1.04423e-08
6.04655e-05
-3.94861e-06
5.76146e-05
-4.33047e-06
4.14165e-05
-1.07434e-05
8.1071e-06
-1.65161e-05
-1.83128e-06
-1.87425e-05
-3.3906e-06
-1.96003e-05
-9.44339e-06
-1.98151e-05
-1.53347e-05
-1.97722e-05
-1.75989e-05
-1.99875e-05
-1.77244e-05
-1.93749e-05
-7.76904e-06
-1.61969e-05
3.84805e-06
-1.07481e-05
3.93447e-06
-6.11941e-06
2.58384e-07
-1.20818e-06
-4.95817e-06
5.66716e-06
-7.98343e-06
1.01554e-05
-1.08817e-05
9.18256e-06
-9.19854e-06
5.56883e-06
-5.78929e-06
5.68489e-06
-4.98699e-06
5.43264e-06
-4.24502e-06
4.93323e-06
-3.73581e-06
4.19432e-06
-3.67518e-06
2.47515e-06
-3.16044e-06
-1.44122e-06
-3.28862e-06
6.85998e-06
-5.80033e-06
1.66434e-05
-9.44008e-06
2.50657e-05
-8.45187e-06
3.09842e-05
2.05526e-07
3.66324e-05
5.41247e-06
5.59347e-05
5.68852e-06
6.76492e-05
2.43924e-06
5.79409e-05
-5.55176e-06
1.81726e-05
-1.24276e-05
4.96361e-06
-1.63468e-05
4.91966e-06
-1.74494e-05
-2.2654e-06
-1.7608e-05
-8.69017e-06
-1.78923e-05
-1.15894e-05
-1.96467e-05
-1.18361e-05
-2.08456e-05
-4.54934e-06
-1.74237e-05
8.86629e-06
-1.05836e-05
9.58535e-06
-3.65229e-06
1.97459e-06
2.37687e-06
-2.72863e-06
8.20044e-06
-6.01071e-06
1.03172e-05
-9.02157e-06
7.70858e-06
-7.38352e-06
7.69122e-06
-5.88416e-06
7.83477e-06
-4.82037e-06
7.58791e-06
-4.00333e-06
7.13902e-06
-3.41831e-06
6.51915e-06
-4.00013e-06
4.67978e-06
-3.46698e-06
-3.02965e-06
-7.4728e-06
9.52323e-06
-1.09398e-05
1.9712e-05
-1.33264e-05
2.64763e-05
-1.07248e-05
2.98077e-05
-2.53368e-06
3.48048e-05
6.74723e-06
4.96173e-05
1.05922e-05
7.63341e-05
6.22638e-06
6.7275e-05
-1.49897e-06
3.40354e-05
-9.07258e-06
1.73575e-05
-1.40776e-05
1.55808e-05
-1.51838e-05
6.25763e-06
-1.51193e-05
-1.49955e-06
-1.49222e-05
-5.79745e-06
-1.6456e-05
-6.75494e-06
-1.92459e-05
-2.18836e-06
-1.64415e-05
1.33036e-05
-7.82465e-06
1.35473e-05
-5.84089e-07
4.99805e-06
5.10538e-06
4.56062e-08
1.0231e-05
-4.39484e-06
1.1786e-05
-7.57873e-06
9.55397e-06
-7.05922e-06
9.75138e-06
-6.00399e-06
9.8551e-06
-5.27785e-06
9.97426e-06
-4.5074e-06
9.84519e-06
-3.80437e-06
1.07962e-05
-5.01694e-06
8.7665e-06
-1.07064e-05
-1.77836e-05
-1.36663e-05
6.92469e-06
-1.5412e-05
1.74464e-05
-1.39961e-05
2.59897e-05
-1.16447e-05
2.88203e-05
-7.62663e-06
3.37137e-05
7.02081e-07
4.9445e-05
7.29009e-06
8.0077e-05
8.79419e-06
7.05037e-05
3.7605e-06
4.93476e-05
-6.32701e-06
3.17935e-05
-1.11398e-05
2.20332e-05
-1.22591e-05
1.1323e-05
-1.25321e-05
3.13659e-06
-1.2174e-05
-1.87051e-06
-1.27815e-05
-3.12826e-06
-1.77853e-05
6.13595e-07
-1.4963e-05
1.71452e-05
-5.36529e-06
1.63261e-05
1.56544e-06
8.64716e-06
7.43093e-06
1.6227e-06
1.14541e-05
-3.46437e-06
1.13127e-05
-6.56682e-06
1.06386e-05
-6.96343e-06
1.07635e-05
-6.45711e-06
1.13735e-05
-6.11998e-06
1.24407e-05
-6.20851e-06
1.34423e-05
-7.14703e-06
1.80501e-05
-1.01062e-05
1.14628e-05
-1.86904e-05
-2.07001e-05
-1.78816e-06
5.57469e-06
-8.94222e-06
1.35518e-05
-1.1664e-05
2.39491e-05
-1.05568e-05
2.83455e-05
-9.93798e-06
3.43258e-05
-5.02642e-06
5.13281e-05
2.0843e-06
7.71389e-05
1.2333e-05
7.01149e-05
1.12922e-05
5.6116e-05
-7.19358e-07
3.8722e-05
-3.74476e-06
2.60218e-05
-6.37905e-06
1.47764e-05
-8.58136e-06
6.1262e-06
-9.74466e-06
5.51204e-07
-1.01128e-05
-9.32435e-07
-1.54882e-05
2.66721e-06
-1.39194e-05
1.81363e-05
-4.00274e-06
1.83002e-05
3.74983e-06
1.03292e-05
9.02256e-06
1.65087e-06
1.08449e-05
-3.2739e-06
1.06911e-05
-5.6498e-06
1.02113e-05
-6.78319e-06
1.04906e-05
-6.96056e-06
1.11968e-05
-7.06827e-06
1.23128e-05
-7.43445e-06
1.44388e-05
-8.65032e-06
1.30509e-05
-1.28213e-05
2.08805e-06
-1.9082e-05
-1.52065e-05
4.17758e-06
1.21411e-05
1.31828e-06
1.82731e-05
-4.97797e-06
2.46122e-05
-6.72123e-06
2.90636e-05
-7.04772e-06
3.52426e-05
-3.8986e-06
4.86008e-05
3.42702e-06
6.74909e-05
1.65622e-05
6.31465e-05
1.89184e-05
5.14448e-05
1.21687e-05
4.04455e-05
5.48489e-06
2.70498e-05
-5.58252e-07
1.5198e-05
-5.72383e-06
6.33755e-06
-9.10778e-06
5.19579e-07
-1.11275e-05
-1.03143e-06
-1.363e-05
2.62513e-06
-1.25102e-05
1.59248e-05
-2.31916e-06
1.79558e-05
5.48518e-06
9.00783e-06
8.19389e-06
7.44638e-07
8.84544e-06
-2.88958e-06
8.88835e-06
-4.94257e-06
8.78361e-06
-6.29634e-06
9.0407e-06
-6.98666e-06
9.52803e-06
-7.35944e-06
9.91328e-06
-7.50185e-06
9.40677e-06
-7.44948e-06
5.13455e-06
-9.01045e-06
-4.59666e-07
-1.25088e-05
-9.73592e-06
1.87901e-06
1.65471e-05
4.46874e-06
2.28997e-05
2.70864e-06
2.64871e-05
2.38184e-06
2.78768e-05
3.74792e-06
3.15148e-05
7.0455e-06
3.8513e-05
1.53819e-05
4.93039e-05
2.82901e-05
4.44967e-05
3.35468e-05
3.12567e-05
2.53478e-05
2.68559e-05
1.34899e-05
1.96787e-05
3.58661e-06
1.22916e-05
-3.35975e-06
4.68696e-06
-8.57245e-06
-2.01863e-06
-1.20196e-05
-3.94388e-06
-1.3821e-05
-1.05413e-06
-1.02472e-05
1.17039e-05
-9.92449e-08
1.42061e-05
5.88422e-06
5.81991e-06
7.51394e-06
3.02017e-08
8.04446e-06
-2.62522e-06
8.1524e-06
-4.38193e-06
8.11632e-06
-5.67952e-06
8.22821e-06
-6.572e-06
8.55252e-06
-7.10329e-06
8.90125e-06
-7.13161e-06
8.93321e-06
-6.5602e-06
5.53478e-06
-5.60675e-06
6.9902e-07
-5.05349e-06
-5.61829e-06
4.36823e-07
1.47184e-06
4.79864e-06
4.88389e-06
7.40086e-06
9.01801e-06
9.01276e-06
1.28899e-05
1.11071e-05
1.31065e-05
1.47019e-05
1.39402e-05
2.19127e-05
1.84415e-05
2.73494e-05
6.24017e-06
2.75758e-05
-1.0087e-05
2.39753e-05
-1.51263e-05
1.734e-05
-2.06475e-05
6.26025e-06
-2.15549e-05
-1.57135e-06
-1.71126e-05
-6.63509e-06
-9.42987e-06
-1.03694e-05
-9.397e-06
-1.14921e-05
-6.75761e-06
-5.14463e-06
5.90877e-06
2.62155e-06
8.57835e-06
6.78112e-06
2.86268e-06
8.20293e-06
-5.44422e-07
8.68341e-06
-2.45443e-06
8.7288e-06
-3.824e-06
8.59357e-06
-4.91238e-06
8.40734e-06
-5.78292e-06
8.20584e-06
-6.2939e-06
7.95669e-06
-6.27091e-06
7.61406e-06
-5.44511e-06
6.9739e-06
-4.1553e-06
3.76982e-06
-3.50668e-06
-3.5717e-06
4.62606e-07
-2.99358e-05
2.22762e-06
-3.0448e-05
4.78827e-06
-2.76028e-05
6.984e-06
-2.31738e-05
7.86946e-06
-2.35661e-05
1.00154e-05
-2.45249e-05
1.28272e-05
-2.23609e-05
1.18126e-05
-3.32409e-05
1.15674e-05
-4.0362e-05
1.37326e-05
-4.39496e-05
1.86957e-05
-4.74117e-05
2.02077e-05
-4.9246e-05
1.13787e-05
-4.81793e-05
1.17747e-06
-3.50614e-05
-2.68463e-06
-2.38933e-05
-2.90135e-06
-1.14267e-05
4.9809e-07
1.14308e-06
6.13056e-06
3.78855e-06
9.00252e-06
8.18456e-07
1.00626e-05
-9.96305e-07
1.03634e-05
-2.21055e-06
1.03108e-05
-3.20445e-06
9.97095e-06
-4.0189e-06
9.44155e-06
-4.82209e-06
8.2919e-06
-5.27658e-06
6.72697e-06
-4.94173e-06
5.2026e-06
-3.90481e-06
4.20739e-06
-2.46913e-06
2.75991e-06
-1.37178e-06
-1.00534e-06
3.71737e-07
-4.77805e-05
2.38548e-07
-4.81616e-05
8.12079e-07
-4.7513e-05
1.51054e-06
-4.63968e-05
2.46862e-06
-4.56526e-05
3.82193e-06
-4.5004e-05
5.54706e-06
-4.37595e-05
7.73313e-06
-4.50322e-05
1.02714e-05
-4.49977e-05
1.52937e-05
-4.6282e-05
2.21874e-05
-4.83678e-05
2.60626e-05
-5.02402e-05
2.45636e-05
-5.05865e-05
1.6954e-05
-4.64397e-05
7.95418e-06
-3.01935e-05
4.25015e-06
-1.2783e-05
6.70369e-06
-5.74252e-07
1.02092e-05
9.01264e-07
1.1832e-05
-2.69255e-07
1.24732e-05
-1.13532e-06
1.26993e-05
-1.88151e-06
1.27559e-05
-2.63915e-06
1.23376e-05
-3.48455e-06
1.16113e-05
-3.95816e-06
9.24073e-06
-4.54179e-06
5.25976e-06
-4.29244e-06
1.90873e-06
-3.14669e-06
8.76266e-07
-1.10123e-06
3.64435e-07
-1.00785e-07
1.87617e-07
8.52747e-08
-4.57358e-05
4.71729e-07
-4.54334e-05
1.29711e-06
-4.49605e-05
2.3756e-06
-4.45285e-05
3.77107e-06
-4.42061e-05
5.23197e-06
-4.37328e-05
7.81452e-06
-4.33249e-05
1.0539e-05
-4.23696e-05
1.3062e-05
-4.30854e-05
1.85316e-05
-4.46961e-05
2.48905e-05
-4.68516e-05
2.81429e-05
-4.82011e-05
2.76881e-05
-4.7775e-05
2.19493e-05
-4.18545e-05
1.37542e-05
-2.56556e-05
1.07767e-05
-9.45344e-06
1.20531e-05
-7.75301e-07
1.37049e-05
-3.79457e-07
1.45842e-05
-6.93125e-07
1.50305e-05
-1.03705e-06
1.53202e-05
-1.56494e-06
1.54817e-05
-2.20599e-06
1.56475e-05
-2.77515e-06
1.34964e-05
-4.02693e-06
8.81698e-06
-2.06308e-06
2.60358e-06
2.39243e-06
-9.01513e-07
3.00514e-06
-1.48126e-06
8.8624e-07
-9.28466e-07
1.18208e-06
9.04697e-07
3.97837e-07
-4.15282e-05
1.03773e-06
-4.10153e-05
2.16301e-06
-4.05822e-05
3.62486e-06
-4.05233e-05
5.36587e-06
-4.05051e-05
7.3843e-06
-4.02369e-05
1.01675e-05
-4.02444e-05
1.27094e-05
-3.9382e-05
1.59102e-05
-4.0789e-05
2.17526e-05
-4.28236e-05
2.73174e-05
-4.51372e-05
2.96012e-05
-4.57634e-05
2.84025e-05
-4.44318e-05
2.31443e-05
-3.57101e-05
1.70952e-05
-1.94327e-05
1.51131e-05
-4.86953e-06
1.5698e-05
-1.12227e-06
1.65714e-05
-7.97834e-07
1.72208e-05
-7.38816e-07
1.75613e-05
-9.91033e-07
1.79537e-05
-1.26182e-06
1.85144e-05
-1.72604e-06
1.77839e-05
-3.00695e-06
1.61912e-05
-1.71846e-06
1.32318e-05
4.80796e-06
8.72439e-06
8.45752e-06
2.62643e-06
8.25199e-06
-1.25821e-06
5.3076e-06
-1.3615e-06
2.72963e-06
1.42154e-06
3.85829e-07
-3.77742e-05
1.39506e-06
-3.71483e-05
2.92388e-06
-3.68432e-05
4.77722e-06
-3.70009e-05
6.81899e-06
-3.7214e-05
9.41125e-06
-3.71483e-05
1.22534e-05
-3.74151e-05
1.46314e-05
-3.68356e-05
1.87246e-05
-3.81399e-05
2.47702e-05
-4.06557e-05
2.94271e-05
-4.30452e-05
3.10576e-05
-4.2986e-05
2.9324e-05
-4.01134e-05
2.43501e-05
-2.82518e-05
1.99595e-05
-1.21109e-05
1.78342e-05
-2.58171e-06
1.84451e-05
-1.30845e-06
1.91478e-05
-9.14158e-07
1.95938e-05
-7.76204e-07
2.01425e-05
-6.55153e-07
2.06995e-05
-6.94855e-07
2.11128e-05
-1.02706e-06
2.08243e-05
2.25697e-07
1.90758e-05
3.91023e-06
1.37798e-05
7.89623e-06
9.30892e-06
7.4225e-06
7.67062e-06
6.5023e-06
4.36624e-06
6.34849e-06
5.45543e-07
5.30098e-06
2.11909e-06
6.90356e-07
-3.3993e-05
1.87083e-06
-3.34004e-05
3.64919e-06
-3.32842e-05
5.8262e-06
-3.35907e-05
8.06968e-06
-3.40921e-05
1.11434e-05
-3.4317e-05
1.41656e-05
-3.45562e-05
1.66597e-05
-3.43765e-05
2.14812e-05
-3.53892e-05
2.75627e-05
-3.83502e-05
3.15063e-05
-4.02635e-05
3.24364e-05
-3.95326e-05
2.99354e-05
-3.43786e-05
2.50301e-05
-1.97525e-05
2.08224e-05
-5.95064e-06
2.0201e-05
-2.12906e-06
2.07538e-05
-1.35397e-06
2.13527e-05
-9.23306e-07
2.19843e-05
-5.18298e-07
2.2755e-05
3.96773e-08
2.35291e-05
1.17344e-06
2.32205e-05
3.19341e-06
1.88133e-05
6.1219e-06
1.11885e-05
7.84941e-06
8.11631e-06
7.31204e-06
6.90088e-06
6.75147e-06
6.16381e-06
6.07871e-06
5.23666e-06
5.26996e-06
1.99543e-06
4.3117e-06
2.8059e-06
8.66526e-07
-3.01976e-05
2.28779e-06
-2.9635e-05
4.33187e-06
-2.97482e-05
6.75467e-06
-3.03252e-05
9.2488e-06
-3.10067e-05
1.25915e-05
-3.14694e-05
1.57761e-05
-3.16984e-05
1.89155e-05
-3.13875e-05
2.45091e-05
-3.27554e-05
3.02678e-05
-3.57354e-05
3.32401e-05
-3.67051e-05
3.32108e-05
-3.51708e-05
2.99497e-05
-2.65929e-05
2.55126e-05
-1.10363e-05
2.20023e-05
-2.97817e-06
2.2068e-05
-1.7594e-06
2.25394e-05
-1.25028e-06
2.30616e-05
-7.78051e-07
2.35731e-05
-4.0129e-08
2.35847e-05
1.28294e-06
2.17153e-05
3.55535e-06
1.73904e-05
6.07286e-06
1.26721e-05
7.5898e-06
9.30107e-06
8.14505e-06
7.71315e-06
7.98874e-06
6.64173e-06
7.46345e-06
5.71419e-06
6.73064e-06
4.81868e-06
5.6945e-06
2.81311e-06
3.95958e-06
1.55897e-06
1.05812e-06
-2.62975e-05
2.68836e-06
-2.58434e-05
4.9617e-06
-2.62429e-05
7.56377e-06
-2.70296e-05
1.05193e-05
-2.78105e-05
1.3948e-05
-2.8574e-05
1.71355e-05
-2.86948e-05
2.11092e-05
-2.80842e-05
2.72173e-05
-3.01155e-05
3.26574e-05
-3.28423e-05
3.48367e-05
-3.27638e-05
3.36904e-05
-2.96065e-05
2.95826e-05
-1.68773e-05
2.45465e-05
-4.31395e-06
2.32406e-05
-1.64146e-06
2.33149e-05
-1.21193e-06
2.34601e-05
-8.85188e-07
2.33863e-05
-3.25069e-07
2.28035e-05
7.05084e-07
2.1254e-05
2.36484e-06
1.84441e-05
4.58434e-06
1.51901e-05
6.86611e-06
1.23895e-05
8.42099e-06
1.0238e-05
9.13465e-06
8.47995e-06
9.10654e-06
6.93993e-06
8.5721e-06
5.56879e-06
7.66828e-06
3.99529e-06
6.28478e-06
2.35972e-06
4.31688e-06
1.34214e-06
1.31981e-06
-2.22902e-05
3.15609e-06
-2.19018e-05
5.63066e-06
-2.25226e-05
8.36314e-06
-2.35297e-05
1.16899e-05
-2.43335e-05
1.51223e-05
-2.56003e-05
1.81677e-05
-2.51557e-05
2.317e-05
-2.50959e-05
2.98155e-05
-2.74749e-05
3.471e-05
-2.93134e-05
3.61661e-05
-2.81769e-05
3.35396e-05
-2.18207e-05
2.86076e-05
-7.00215e-06
2.48082e-05
-1.04197e-06
2.44384e-05
-6.38109e-07
2.42063e-05
-5.64538e-07
2.37541e-05
-3.33242e-07
2.28877e-05
3.10145e-07
2.14754e-05
1.51025e-06
1.9537e-05
3.32081e-06
1.72366e-05
5.58521e-06
1.48893e-05
7.824e-06
1.26782e-05
9.43192e-06
1.06585e-05
1.02159e-05
8.77766e-06
1.02714e-05
7.03806e-06
9.7249e-06
5.4401e-06
8.66635e-06
3.75167e-06
7.04034e-06
1.88327e-06
4.6969e-06
1.69526e-06
1.62269e-06
-1.81192e-05
3.67663e-06
-1.77792e-05
6.31259e-06
-1.86198e-05
9.1982e-06
-1.98248e-05
1.28669e-05
-2.06529e-05
1.63074e-05
-2.2229e-05
1.95306e-05
-2.13632e-05
2.56295e-05
-2.19007e-05
3.26772e-05
-2.44245e-05
3.6643e-05
-2.47972e-05
3.65278e-05
-2.24664e-05
3.2647e-05
-1.15855e-05
2.72705e-05
-9.34348e-07
2.63269e-05
1.88334e-07
2.59448e-05
1.06526e-07
2.52538e-05
2.49299e-08
2.41814e-05
2.01205e-07
2.26939e-05
8.97347e-07
2.08145e-05
2.26302e-06
1.86386e-05
4.17322e-06
1.63616e-05
6.43507e-06
1.42214e-05
8.74311e-06
1.22988e-05
1.04625e-05
1.04955e-05
1.13319e-05
8.68794e-06
1.14194e-05
6.88398e-06
1.08621e-05
5.24722e-06
9.71828e-06
3.61411e-06
7.88724e-06
1.79995e-06
5.37261e-06
1.9986e-06
1.97388e-06
-1.37673e-05
4.23628e-06
-1.34604e-05
7.05399e-06
-1.44369e-05
1.01306e-05
-1.57851e-05
1.39682e-05
-1.67238e-05
1.75875e-05
-1.83008e-05
2.13274e-05
-1.74591e-05
2.7962e-05
-1.81653e-05
3.4821e-05
-2.0459e-05
3.7747e-05
-1.97164e-05
3.58611e-05
-1.49879e-05
3.12641e-05
-2.72236e-06
2.8882e-05
6.72215e-07
2.86098e-05
7.23758e-07
2.79946e-05
5.63718e-07
2.69261e-05
3.26244e-07
2.5222e-05
5.91631e-07
2.30437e-05
1.54616e-06
2.05365e-05
3.09786e-06
1.78006e-05
5.1549e-06
1.52749e-05
7.65551e-06
1.31751e-05
1.01347e-05
1.15894e-05
1.17558e-05
1.02045e-05
1.24214e-05
8.65738e-06
1.23334e-05
6.78473e-06
1.16546e-05
4.97671e-06
1.06723e-05
3.65844e-06
9.03197e-06
1.89353e-06
6.06758e-06
2.39852e-06
2.36876e-06
-9.17952e-06
4.88318e-06
-8.84147e-06
7.87643e-06
-9.96576e-06
1.11762e-05
-1.13798e-05
1.52366e-05
-1.24898e-05
1.89494e-05
-1.38564e-05
2.30775e-05
-1.29645e-05
3.03987e-05
-1.3835e-05
3.67519e-05
-1.57908e-05
3.78836e-05
-1.44004e-05
3.55375e-05
-6.31118e-06
3.1829e-05
3.76249e-07
3.17785e-05
9.03179e-07
3.15165e-05
9.07326e-07
3.07394e-05
5.29471e-07
2.97642e-05
4.26295e-07
2.70345e-05
3.67112e-07
2.3484e-05
1.5442e-06
1.99788e-05
6.78268e-06
1.66125e-05
9.72971e-06
1.38964e-05
1.1559e-05
1.23019e-05