/*--------------------------------*- C++ -*----------------------------------*\
| =========                 |                                                 |
| \\      /  F ield         | OpenFOAM: The Open Source CFD Toolbox           |
|  \\    /   O peration     | Version:  2.3.0                                 |
|   \\  /    A nd           | Web:      www.OpenFOAM.org                      |
|    \\/     M anipulation  |                                                 |
\*---------------------------------------------------------------------------*/
FoamFile
{
    version     2.0;
    format      ascii;
    class       volScalarField;
    location    "1.9";
    object      Theta.particles;
}
// * * * * * * * * * * * * * * * * * * * * * * * * * * * * * * * * * * * * * //

dimensions      [0 2 -2 0 0 0 0];

internalField   nonuniform List<scalar> 
6000
(
0.000253396
0.000150446
0.000287603
0.000331435
0.000380261
0.000378556
0.000339488
0.000344576
0.000210572
0.000203923
0.000200613
0.000200729
0.0002391
0.00029193
0.00030992
0.000270156
0.00025713
0.000222489
0.000150525
8.62035e-05
3.03894e-05
1.5539e-05
1.03412e-05
1.20581e-05
2.77726e-05
3.48028e-05
0.000162833
0.000201085
0.000420484
0.00130004
5.57716e-05
4.76328e-05
7.2116e-05
9.29409e-05
9.45368e-05
7.75824e-05
6.56682e-05
7.58366e-05
8.4882e-05
8.31106e-05
7.02611e-05
5.48181e-05
3.13072e-05
1.63958e-05
1.01291e-05
7.84415e-06
8.55045e-06
1.27679e-05
1.23216e-05
1.61278e-05
1.42706e-05
9.29947e-06
3.96719e-06
2.36289e-06
5.6368e-06
1.2737e-05
5.52795e-05
6.10656e-05
6.44711e-05
3.38981e-05
3.77347e-05
9.44893e-06
2.30553e-06
2.55359e-05
1.55911e-05
9.67581e-06
1.19142e-05
6.27026e-06
1.48177e-05
6.17506e-05
9.94492e-05
0.000129745
8.70915e-05
3.66965e-05
1.76744e-05
1.8559e-05
2.35367e-05
2.15312e-05
1.73177e-05
1.93017e-05
1.47503e-05
1.25681e-05
2.00947e-06
4.80389e-07
2.90929e-06
6.43456e-05
1.30068e-05
6.70062e-05
3.18002e-05
1.1546e-07
0.000136715
5.33694e-05
3.36307e-05
3.77646e-05
3.10064e-05
1.92629e-05
2.47803e-05
4.84093e-05
7.22595e-05
0.000187113
0.000257096
0.000256533
0.000163454
0.000131177
9.24798e-05
4.25568e-05
1.82262e-05
1.80212e-05
1.46992e-05
1.47437e-05
1.02374e-05
7.59647e-06
6.4506e-06
5.8721e-06
2.76994e-06
7.06174e-06
4.85565e-06
7.58988e-06
5.52966e-06
2.61981e-06
0.000444334
0.000264786
0.000142843
9.21981e-05
9.19715e-05
7.14314e-05
7.50104e-05
0.000131893
0.000241948
0.00033345
0.00027311
0.000200857
0.000192615
0.000275165
0.000267452
0.000201484
6.19511e-05
2.85589e-05
1.36253e-05
9.97836e-06
1.50229e-05
1.45101e-05
1.69353e-05
1.89844e-05
2.77298e-05
4.05985e-05
2.58581e-05
3.59142e-06
4.64974e-06
6.10769e-06
0.000470223
0.000357429
0.000286909
0.000139161
0.000127671
0.000119178
0.000134465
0.000202686
0.000258116
0.000162154
0.000108113
8.1122e-05
5.93517e-05
5.64681e-05
5.28374e-05
0.000112674
4.70549e-05
1.75626e-05
7.24643e-06
8.3824e-06
1.04401e-05
1.528e-05
2.72002e-05
4.38948e-05
4.48688e-05
7.04242e-05
3.44663e-05
8.14383e-06
2.35073e-06
8.59907e-06
0.000152642
7.63014e-05
0.000170574
0.000155289
0.000111307
0.000119784
9.72764e-05
8.09728e-05
5.0839e-05
3.51158e-05
4.18446e-05
1.18375e-05
1.04923e-05
5.94146e-06
4.93243e-06
3.01244e-05
8.55086e-05
1.08294e-05
9.36906e-06
8.2386e-06
9.23651e-06
8.13379e-06
4.70009e-05
9.58097e-05
0.000172458
0.000124795
2.52932e-05
3.06915e-05
5.24913e-06
9.39618e-06
4.91357e-05
1.94582e-07
7.43164e-06
4.2429e-05
5.80441e-05
4.3876e-05
1.05403e-05
9.4916e-07
8.25043e-07
8.71154e-06
6.85776e-06
6.2446e-06
7.94085e-06
3.16379e-06
3.91591e-06
5.00911e-05
0.000319487
4.65567e-05
2.37763e-05
5.17261e-05
8.02477e-05
0.000107591
0.000254016
0.000370094
0.000364446
2.98608e-05
2.40876e-05
3.34302e-05
2.18505e-05
1.41362e-05
3.1381e-05
4.86425e-07
1.31477e-06
9.59213e-06
3.61453e-05
3.66904e-05
9.04629e-06
9.41663e-07
7.26954e-07
2.47039e-06
2.94002e-06
7.22634e-06
7.00652e-06
9.93523e-06
4.47474e-05
0.000138711
0.00036652
0.000385152
0.000116291
7.70037e-05
0.000137657
0.000280698
0.000390205
0.000435081
0.000169223
1.11044e-05
1.47903e-05
1.56807e-05
2.20317e-05
3.11045e-05
2.12741e-05
6.56875e-07
1.52687e-06
6.95176e-06
2.7248e-05
5.43592e-05
2.35873e-05
2.73199e-06
1.39037e-06
2.67496e-06
2.74958e-06
6.06986e-06
1.11592e-05
2.6854e-05
2.03163e-05
1.75311e-05
0.000101532
0.000460147
0.000105419
2.08168e-06
5.1692e-06
4.59683e-05
4.9825e-05
2.67444e-05
6.73149e-05
2.43945e-05
7.87062e-06
5.38414e-06
8.23667e-06
2.73486e-05
1.38867e-05
8.97012e-07
1.94094e-06
6.3504e-06
3.13102e-05
8.80938e-05
3.16617e-05
3.19737e-06
3.29849e-06
3.59106e-06
3.48636e-06
8.05697e-06
1.96652e-05
6.35451e-06
1.58779e-06
2.05691e-06
9.36288e-06
0.000176119
7.23669e-05
3.14354e-06
1.88061e-06
4.04091e-06
6.23677e-06
2.04467e-07
4.56467e-05
2.94144e-05
4.81481e-06
1.98114e-06
1.4271e-06
2.21154e-05
9.08511e-06
1.20453e-06
2.54792e-06
7.16901e-06
4.45498e-05
0.000119174
2.79211e-05
6.92957e-06
6.72427e-06
3.09665e-06
5.62501e-06
1.75891e-05
8.20416e-06
1.04148e-06
1.54915e-06
1.966e-06
7.23438e-06
0.000128928
0.000136069
1.10509e-05
4.98759e-06
1.38814e-05
4.88921e-06
6.87533e-08
4.6144e-05
2.67213e-05
3.57548e-06
1.34718e-06
7.46823e-07
2.10373e-05
6.28777e-06
1.62158e-06
3.21992e-06
8.5369e-06
5.67184e-05
0.000145063
3.52424e-05
1.59091e-05
4.39242e-06
2.49307e-06
9.23148e-06
8.83465e-06
1.77073e-06
1.29465e-06
2.0009e-06
1.70564e-06
3.60523e-06
8.77162e-05
0.000280809
3.56188e-05
8.39968e-06
1.49795e-05
4.09843e-06
5.25608e-07
6.34566e-05
1.33453e-05
3.36352e-06
1.1726e-06
6.36238e-07
2.16853e-05
5.03229e-06
2.01267e-06
3.70602e-06
1.03378e-05
6.53723e-05
0.000175718
5.74706e-05
1.49273e-05
3.73449e-06
2.66784e-06
6.50841e-06
3.96059e-06
1.66977e-06
1.27837e-06
1.71232e-06
3.10579e-06
2.08933e-06
8.4438e-06
0.000174072
8.31543e-05
1.38824e-05
3.93162e-06
3.5107e-06
6.8798e-06
5.94695e-05
5.29024e-06
1.28231e-06
4.22546e-07
6.06228e-07
2.14544e-05
4.77654e-06
2.18461e-06
3.84868e-06
1.3319e-05
8.36757e-05
0.000207831
6.01616e-05
1.09315e-05
4.04786e-06
3.1271e-06
3.68935e-06
2.71414e-06
1.27113e-06
1.14192e-06
1.44186e-06
2.84904e-06
2.85762e-06
2.29367e-06
1.60169e-05
3.10061e-05
6.26634e-06
9.14336e-07
2.30364e-06
7.46015e-06
5.38897e-05
5.94034e-06
4.90308e-07
3.99797e-07
1.40346e-06
1.56819e-05
5.18465e-06
2.11907e-06
3.62657e-06
1.79232e-05
0.000101017
0.00021701
4.0211e-05
1.04083e-05
4.18558e-06
3.46301e-06
3.0435e-06
2.71276e-06
1.63884e-06
8.40258e-07
1.08389e-06
2.59913e-06
3.77834e-06
3.43181e-06
1.21784e-06
3.67666e-06
9.63424e-07
3.79169e-07
1.05108e-06
7.21899e-06
3.79663e-05
5.41053e-06
6.80892e-07
1.08049e-06
2.26381e-06
7.03407e-06
6.10546e-06
1.90159e-06
3.21619e-06
2.39955e-05
0.000103475
0.000200234
2.45513e-05
1.02365e-05
4.36575e-06
3.44806e-06
3.62774e-06
4.1623e-06
3.25319e-06
1.01846e-06
1.03008e-06
1.98701e-06
3.05874e-06
4.33853e-06
2.18054e-06
1.09902e-06
3.65256e-07
5.75022e-07
1.1228e-06
6.50652e-06
2.28309e-05
2.12578e-06
9.50699e-07
1.37208e-06
1.66353e-06
1.90741e-06
7.04851e-06
1.60826e-06
2.90461e-06
3.04925e-05
8.44524e-05
0.000144806
2.11432e-05
9.08937e-06
3.98876e-06
2.65549e-06
3.92719e-06
7.97405e-06
5.28609e-06
1.42098e-06
5.78296e-07
2.06107e-06
3.00493e-06
3.72558e-06
2.78063e-06
2.07006e-06
1.56566e-06
1.57362e-06
9.8313e-07
5.53298e-06
1.31783e-05
1.40378e-06
9.04914e-07
7.85153e-07
7.57639e-07
1.11613e-06
6.67241e-06
1.28667e-06
2.55572e-06
2.95443e-05
4.96748e-05
8.11193e-05
3.0555e-05
7.83387e-06
4.41514e-06
3.1227e-06
6.02877e-06
1.11368e-05
4.77466e-06
1.5545e-06
6.31645e-07
3.60829e-06
4.09498e-06
4.1594e-06
3.70956e-06
2.89123e-06
1.05995e-06
2.5593e-06
1.4308e-06
6.53647e-06
7.25555e-06
7.90971e-07
5.70766e-07
5.50224e-07
7.85982e-07
1.97379e-06
4.54882e-06
1.42138e-06
3.03974e-06
1.41359e-05
3.18485e-05
3.29418e-05
4.11685e-05
1.40806e-05
1.24007e-05
6.86955e-06
5.80634e-06
5.4487e-06
2.6393e-06
1.75923e-06
1.9895e-06
6.42811e-06
4.52925e-06
4.81177e-06
3.8061e-06
1.34252e-06
2.0967e-06
3.79269e-06
6.23174e-07
1.00714e-05
1.43983e-06
5.40954e-07
5.67372e-07
7.54121e-07
2.74591e-06
4.38294e-06
5.15957e-06
2.57e-06
7.21838e-06
4.43521e-06
3.29045e-05
5.80414e-06
2.59056e-05
4.1297e-05
4.81584e-05
2.85633e-05
5.23829e-06
4.05188e-06
2.68376e-06
2.73124e-06
5.55569e-06
8.03843e-06
3.88267e-06
5.57168e-06
3.20478e-06
2.04179e-06
4.04827e-06
2.19164e-06
1.53105e-06
1.51665e-05
6.7197e-07
6.75585e-07
8.3815e-07
1.82035e-06
7.20419e-06
1.28105e-05
2.49087e-05
7.33408e-06
8.86805e-06
1.38433e-06
2.40458e-05
3.12033e-05
9.68505e-06
5.67888e-05
0.000103281
2.80638e-05
1.25801e-05
6.62137e-06
4.38165e-06
3.52467e-06
8.08082e-06
1.79865e-05
4.09037e-06
6.51327e-06
4.63194e-06
3.225e-06
3.03108e-06
4.67759e-07
4.05537e-06
1.8393e-06
8.09862e-07
1.07661e-06
1.20891e-06
3.17985e-06
1.20935e-05
6.27537e-05
6.20752e-05
9.22881e-06
4.47909e-06
2.72477e-06
1.11567e-05
4.38063e-05
9.82997e-06
6.9744e-05
9.31332e-05
3.93547e-05
1.92284e-05
8.45737e-06
5.51503e-06
3.30934e-06
5.87442e-06
3.65412e-05
5.14699e-06
7.56263e-06
5.45502e-06
3.24043e-06
2.18654e-06
2.8896e-07
6.24265e-06
7.17609e-07
1.27298e-06
1.67042e-06
1.93573e-06
2.12146e-06
0.000114979
0.000778029
0.000442375
4.56045e-05
1.91294e-06
3.07962e-06
7.16484e-06
3.10356e-05
5.7539e-06
4.3902e-05
4.60255e-05
6.46869e-05
1.80375e-05
5.94552e-06
3.41077e-06
1.98423e-06
2.5516e-06
5.21114e-05
5.80783e-06
8.74516e-06
5.82025e-06
3.51296e-06
1.53084e-06
6.15327e-07
6.092e-07
4.08329e-07
5.80441e-07
2.19191e-06
1.08805e-05
9.74264e-06
0.000299657
0.000550312
6.88028e-05
0.000254527
6.78771e-05
6.57766e-06
2.06544e-05
4.23403e-05
1.05403e-05
1.88354e-05
1.05116e-05
0.000115683
5.19123e-06
3.60647e-06
2.7028e-06
8.51245e-07
6.63287e-07
4.85751e-05
9.56687e-06
9.22338e-06
6.80334e-06
4.06331e-06
2.01461e-06
1.18249e-06
5.28913e-07
2.31351e-07
6.58514e-07
1.63954e-06
5.0861e-06
4.26284e-05
0.000241803
3.26366e-05
9.9728e-06
2.09051e-05
0.000102113
2.88761e-05
4.61093e-05
0.000101272
9.05052e-05
2.96869e-05
2.85854e-05
5.3997e-05
5.45988e-05
5.41972e-05
4.12173e-05
1.84372e-05
6.88179e-06
2.22813e-05
2.33542e-05
8.98555e-06
9.29983e-06
5.6818e-06
1.79062e-06
9.18365e-07
4.70981e-07
2.36106e-07
2.96744e-07
3.41972e-07
2.05402e-06
2.01488e-05
1.98641e-05
1.735e-05
2.89376e-05
3.41024e-06
1.08678e-05
2.72483e-05
6.14751e-05
0.000194632
0.000329444
0.000249488
0.000483454
0.000644455
0.000509045
0.000238932
0.000111105
7.83434e-05
5.27286e-05
5.36051e-05
3.17259e-05
1.31382e-05
1.15061e-05
3.04636e-06
5.70717e-07
2.4705e-07
1.55865e-07
7.99655e-08
5.80478e-08
7.70961e-08
2.3654e-07
7.03615e-06
1.21739e-05
8.99859e-06
0.000440715
0.000379826
0.000401711
0.000317663
0.000469957
0.000791469
0.0010743
0.0018881
0.00268416
0.00313628
0.00325972
0.00274392
0.00122358
0.000217883
0.000119677
9.95983e-05
4.24965e-05
1.71378e-05
6.94412e-06
6.72228e-07
5.52271e-08
4.517e-08
8.525e-08
9.29832e-08
7.60692e-08
8.5787e-08
1.72167e-07
5.67101e-07
9.15905e-06
2.08451e-05
0.00157645
0.00184923
0.00191855
0.00183137
0.00199614
0.00208792
0.00234861
0.00286068
0.00203891
0.00201027
0.00161645
0.00181774
0.0026964
0.00184715
0.000494321
9.49437e-05
4.61457e-05
1.49078e-05
2.5261e-06
1.71472e-07
5.38232e-08
1.14332e-07
1.88476e-07
2.72712e-07
7.33193e-07
1.0591e-06
1.01107e-06
6.90068e-07
1.04353e-06
4.06916e-06
0.00119607
0.000703297
0.000865826
0.0012018
0.0011096
0.000965624
0.00109886
0.000387563
4.68441e-05
4.97487e-06
3.33468e-06
1.78926e-06
5.9393e-05
0.000716232
0.000502016
0.000130367
2.81055e-05
8.36906e-06
9.47319e-07
2.33688e-07
1.96935e-07
2.33655e-07
5.40856e-07
6.97529e-07
5.83351e-06
2.0104e-05
1.32537e-05
9.41388e-07
4.3436e-07
1.08803e-07
0.000417903
7.31262e-08
6.9065e-08
5.25615e-08
1.01399e-07
1.58456e-07
6.33453e-07
5.51811e-07
3.13821e-07
1.32441e-06
1.70589e-06
5.65475e-07
1.8356e-06
4.92925e-05
0.000125468
5.40774e-05
1.64087e-05
2.7452e-06
6.02736e-07
3.43834e-07
2.91028e-07
3.02988e-07
2.70145e-07
7.73914e-06
1.99757e-05
2.35427e-05
8.81033e-06
8.23864e-07
2.39781e-07
1.52066e-07
0.000284313
6.47259e-07
6.72801e-07
6.10701e-07
6.07207e-07
6.2224e-07
8.45279e-07
5.69474e-07
5.08689e-07
1.54618e-06
1.39555e-06
5.81804e-07
3.95674e-06
3.78643e-05
6.82925e-05
2.62093e-05
6.63707e-06
9.74504e-07
4.86116e-07
4.84092e-07
3.37755e-07
2.45102e-07
2.24225e-06
4.08258e-06
1.18435e-05
1.48396e-05
2.13035e-05
7.44829e-06
4.00032e-07
2.85287e-07
0.000235805
6.5514e-07
6.18547e-07
5.79412e-07
5.67787e-07
5.95807e-07
7.31865e-07
4.33119e-07
8.18565e-07
1.63403e-06
1.11507e-06
8.06865e-07
7.9974e-06
3.8073e-05
4.05843e-05
1.69562e-05
1.48947e-06
6.06403e-07
5.78967e-07
3.77533e-07
3.45972e-07
4.06337e-07
1.66956e-06
4.53686e-06
2.10173e-05
4.34226e-05
1.40921e-05
1.20122e-05
7.97497e-06
9.69012e-07
0.000175244
6.16067e-07
5.64779e-07
5.65235e-07
5.12084e-07
6.10609e-07
6.66779e-07
4.39194e-07
1.13465e-06
1.72632e-06
1.08361e-06
1.40492e-06
1.37862e-05
4.02505e-05
2.58828e-05
4.87058e-06
6.50098e-07
4.56993e-07
3.65737e-07
3.45061e-07
5.77749e-07
1.63456e-06
1.13899e-05
4.58779e-05
2.34992e-05
5.8139e-06
2.31169e-06
5.70821e-06
2.22831e-05
6.17354e-06
0.000129644
6.45878e-07
5.85387e-07
5.61404e-07
5.35887e-07
7.02089e-07
6.66583e-07
7.1185e-07
1.53354e-06
1.68847e-06
1.18023e-06
2.99978e-06
2.1405e-05
3.09998e-05
1.4817e-05
7.67759e-07
3.06849e-07
2.41818e-07
2.11371e-07
3.55249e-07
2.26383e-06
1.43098e-05
2.66464e-05
1.5422e-05
2.33657e-06
7.39546e-07
5.98648e-07
1.14822e-06
8.9957e-06
2.28253e-05
9.01512e-05
6.81808e-07
6.35222e-07
6.34132e-07
6.95231e-07
7.94798e-07
7.5559e-07
1.07302e-06
1.87856e-06
1.71357e-06
1.43528e-06
7.28616e-06
2.85986e-05
2.29039e-05
2.89339e-06
2.54607e-07
1.50477e-07
1.33503e-07
3.09894e-07
1.72242e-06
7.33782e-06
1.13182e-05
7.76335e-06
3.76148e-06
2.06376e-06
1.49501e-06
1.45858e-06
2.91846e-06
5.02436e-06
1.09637e-05
5.83319e-05
7.74085e-07
7.70805e-07
7.59352e-07
9.18372e-07
8.53382e-07
9.42397e-07
1.47421e-06
2.34414e-06
1.84874e-06
2.23503e-06
1.60446e-05
2.80296e-05
1.22658e-05
5.45015e-07
2.63511e-07
3.05676e-07
6.40567e-07
1.57571e-06
3.01101e-06
4.41688e-06
4.93397e-06
4.14711e-06
3.13845e-06
2.48115e-06
2.15808e-06
2.2141e-06
3.25687e-06
5.75515e-06
5.96783e-06
3.37303e-05
8.89918e-07
9.01927e-07
9.01808e-07
1.14209e-06
1.02822e-06
1.17857e-06
2.22021e-06
2.92153e-06
2.1955e-06
4.7498e-06
2.37264e-05
2.21951e-05
1.70891e-06
5.0556e-07
7.3581e-07
1.3585e-06
2.34099e-06
3.40014e-06
4.46302e-06
4.93863e-06
4.03726e-06
2.84816e-06
2.25464e-06
2.20492e-06
2.27369e-06
2.29524e-06
3.10419e-06
4.5978e-06
6.22889e-06
1.7103e-05
1.03249e-06
1.09417e-06
1.12781e-06
1.35679e-06
1.3633e-06
1.50362e-06
2.94404e-06
3.41689e-06
2.50613e-06
1.10428e-05
2.12009e-05
7.90724e-06
8.18599e-07
1.0907e-06
2.27817e-06
4.32299e-06
5.41455e-06
6.29681e-06
7.03219e-06
5.2512e-06
3.08513e-06
1.65546e-06
1.2709e-06
1.80411e-06
2.97432e-06
2.53897e-06
1.76553e-06
4.34119e-06
6.81385e-06
7.45694e-06
1.25934e-06
1.32439e-06
1.42647e-06
1.66327e-06
1.762e-06
2.07458e-06
4.09943e-06
3.7749e-06
3.02581e-06
1.33714e-05
1.4376e-05
1.16928e-06
1.18439e-06
2.51387e-06
3.15112e-06
1.50482e-05
2.71824e-05
1.19152e-05
9.76039e-06
6.54719e-06
2.72608e-06
9.60723e-07
5.40567e-07
1.03832e-06
4.16864e-06
6.82351e-06
1.27628e-06
1.29421e-06
8.7468e-06
3.09512e-06
1.59696e-06
1.67878e-06
1.83567e-06
2.08716e-06
2.32568e-06
3.28658e-06
5.21278e-06
3.04864e-06
4.64519e-06
9.59055e-06
2.79508e-06
1.14136e-06
1.61124e-06
1.5837e-06
1.07495e-05
8.39207e-06
1.50202e-05
3.04234e-05
1.2001e-05
5.0895e-06
2.1608e-06
8.39391e-07
4.18857e-07
4.47248e-07
2.65329e-06
9.8518e-06
4.228e-06
1.97881e-06
9.96879e-06
2.01197e-06
2.07618e-06
2.20852e-06
2.42354e-06
2.7517e-06
3.26361e-06
5.20594e-06
5.35056e-06
1.90957e-06
3.47226e-06
4.35895e-06
1.15183e-06
1.30367e-06
1.03073e-06
1.84618e-06
4.48435e-06
1.63169e-05
5.33647e-05
1.85509e-05
5.20628e-06
3.7664e-06
2.01656e-06
8.8073e-07
3.25787e-07
1.28931e-07
6.79446e-06
8.01304e-06
0.000790801
0.000663724
0.00103784
3.24898e-06
2.73922e-06
2.93949e-06
3.29221e-06
3.63826e-06
4.61223e-06
7.14619e-06
4.07295e-06
9.7325e-07
1.42979e-06
7.72113e-07
1.29401e-06
8.90244e-07
7.18794e-07
2.48663e-06
1.11002e-05
5.2274e-05
3.63247e-05
3.85768e-06
4.34725e-06
4.54657e-06
2.54687e-06
1.63305e-06
6.84201e-07
1.3648e-06
0.000210706
0.00186229
0.00117084
0.000418432
0.000403772
8.09681e-06
3.63132e-06
3.83145e-06
4.32541e-06
4.3933e-06
6.07718e-06
6.6282e-06
2.38525e-06
1.39396e-06
8.71879e-08
3.02729e-07
4.98565e-07
5.21356e-07
9.27946e-07
4.69497e-06
2.92763e-05
4.82961e-05
1.10449e-05
1.18089e-05
1.18357e-05
9.06979e-06
8.63287e-06
8.6204e-06
5.79165e-06
9.43957e-05
0.0022749
0.000723114
2.43166e-06
4.29659e-06
3.76256e-05
1.91622e-05
4.60411e-06
4.77612e-06
5.04361e-06
4.70879e-06
5.46586e-06
3.71757e-06
3.75059e-06
2.75704e-06
3.76429e-08
1.3225e-07
2.84463e-07
2.84475e-07
8.09149e-07
7.98541e-06
2.91537e-05
2.10107e-05
1.89802e-05
1.79526e-05
1.54554e-05
2.0867e-05
1.88839e-05
2.28121e-05
6.32551e-06
0.000848989
0.000794492
3.86838e-06
3.52359e-06
6.07938e-06
2.13778e-05
3.87274e-05
5.12268e-06
5.2327e-06
4.5838e-06
3.61585e-06
2.74321e-06
4.52835e-06
1.07458e-05
3.61823e-06
1.40462e-07
7.56935e-08
1.12148e-07
8.30647e-08
1.0244e-06
7.79969e-06
1.48231e-05
1.76616e-05
1.80918e-05
1.6556e-05
3.42747e-05
3.59143e-05
5.06849e-05
5.15436e-05
0.000123476
0.00095883
7.20945e-05
4.93057e-06
7.1214e-06
1.46383e-05
1.66679e-05
6.67677e-05
4.3465e-06
4.46098e-06
4.87299e-06
4.60866e-06
4.93803e-06
1.18957e-05
1.278e-05
4.95001e-06
9.42035e-07
1.03175e-07
4.37886e-08
7.08009e-08
1.2183e-06
4.00604e-06
9.40974e-06
1.17383e-05
9.91665e-06
2.82506e-05
3.89741e-05
2.1629e-05
3.44889e-05
0.000136235
0.000209478
0.000313842
9.47016e-05
9.33368e-06
2.08675e-05
3.33422e-05
2.3481e-05
9.51732e-05
3.31054e-06
7.49245e-06
1.08797e-05
8.80375e-06
9.82512e-06
1.54054e-05
1.39171e-05
5.45069e-06
1.72377e-06
2.00615e-07
3.97581e-08
1.30272e-07
1.16744e-06
3.39393e-06
5.55808e-06
4.56151e-06
7.88268e-06
1.16558e-06
7.81794e-05
0.00045139
0.000860555
0.000111208
8.55325e-05
0.000258701
0.00015812
2.36863e-05
2.19955e-05
3.85568e-05
1.20942e-05
0.000118455
1.53005e-05
2.78412e-05
1.42158e-05
1.32272e-05
1.64484e-05
2.23198e-05
1.44292e-05
7.24802e-06
2.29727e-06
3.79067e-07
1.19849e-07
2.6522e-07
9.9059e-07
2.55235e-06
3.03551e-06
4.31636e-06
7.62716e-07
0.000218169
0.00105022
0.00172262
0.00141621
0.00213532
0.00228854
0.000118554
0.000318953
0.000169832
1.70491e-05
3.80092e-05
3.29486e-05
0.000113959
7.04543e-05
7.0419e-05
4.6387e-05
3.70937e-05
3.73427e-05
3.15965e-05
2.37556e-05
3.83025e-05
2.37918e-05
1.87364e-06
6.33405e-07
5.83173e-07
1.33271e-06
1.9771e-06
2.79219e-06
1.23419e-06
0.00022767
0.00129803
0.0035543
0.00131139
0.000901187
0.00325292
0.00281793
0.00266162
0.00187203
0.000223518
2.15062e-05
4.79173e-05
4.07837e-05
7.67944e-05
8.06187e-05
7.66297e-05
8.01356e-05
8.0363e-05
6.72282e-05
5.08807e-05
8.70961e-05
7.23477e-05
7.05248e-05
1.54637e-05
2.85187e-06
1.49939e-06
1.70998e-06
2.01074e-06
1.48559e-06
2.79215e-05
0.00114191
0.00362803
0.000873482
8.06508e-05
2.60921e-05
4.17781e-05
3.21597e-05
0.00148126
0.00129619
0.000430956
0.000102854
0.000113986
8.83911e-05
3.18018e-05
2.69012e-05
2.72384e-05
3.03352e-05
3.48963e-05
3.61055e-05
4.76843e-05
3.33647e-05
7.15363e-06
1.19963e-05
2.50508e-05
6.09325e-06
2.29746e-06
2.04116e-06
8.33434e-07
1.75732e-06
0.000394636
0.00235584
0.00233909
2.441e-05
2.75909e-05
1.35164e-05
1.92472e-05
2.03734e-06
1.08635e-06
2.97804e-05
0.000492546
0.000359683
0.000229603
0.000380435
4.16435e-06
5.61005e-06
5.76947e-06
4.65207e-06
3.44925e-06
2.8606e-06
2.07909e-06
9.8634e-07
1.42417e-06
2.7544e-06
1.47814e-05
5.4133e-06
2.81952e-06
1.14371e-06
7.38102e-07
2.95769e-06
0.00086395
0.00285277
0.000191655
1.06013e-05
2.00886e-05
2.36571e-05
1.26128e-05
2.43263e-06
3.06217e-06
5.82691e-07
3.11079e-05
0.000289733
0.000303522
0.000671112
8.69874e-07
2.0216e-06
2.08503e-06
1.65189e-06
1.09017e-06
7.46469e-07
6.81386e-07
7.39217e-07
1.33949e-06
1.58648e-06
7.715e-06
3.5925e-06
2.11983e-06
6.58169e-07
9.4179e-07
0.00020223
0.00132207
0.0014932
3.67749e-06
9.33757e-06
1.90602e-05
4.11918e-05
5.67885e-06
3.89465e-06
6.10023e-06
9.12251e-06
7.84036e-06
2.47386e-05
5.8785e-05
0.000519352
7.40113e-07
1.36373e-06
1.19314e-06
9.39626e-07
7.12932e-07
5.85435e-07
5.44038e-07
8.63659e-07
1.37169e-06
5.9588e-07
2.73176e-06
2.21578e-06
1.18145e-06
5.77942e-07
1.70419e-06
0.000463323
0.00145627
0.000120138
3.73272e-06
6.75123e-06
2.32798e-05
5.5675e-05
4.13485e-06
5.53176e-06
1.15626e-05
6.03033e-06
1.55335e-05
2.97535e-05
2.84275e-05
0.000437826
8.47487e-07
1.39074e-06
1.11288e-06
8.6972e-07
7.294e-07
6.6733e-07
7.20829e-07
1.6713e-06
2.18824e-06
3.36279e-07
8.40193e-07
1.50764e-06
1.29658e-06
9.26491e-07
0.000227302
0.000513162
0.000557632
1.73671e-05
4.39755e-06
6.64763e-06
3.14616e-05
6.51887e-05
3.12992e-06
7.81628e-06
1.28698e-05
2.68558e-06
1.48898e-05
4.00701e-05
4.0227e-05
0.000427092
9.33237e-07
2.1935e-06
2.29803e-06
2.23798e-06
2.24261e-06
2.3822e-06
3.12242e-06
5.30651e-06
5.04159e-06
5.03996e-06
6.14581e-07
1.83913e-06
3.11722e-06
0.000277242
0.000245887
0.000272399
0.000169671
8.22346e-06
4.90985e-06
1.04602e-05
3.51592e-05
6.50272e-05
2.43062e-06
8.80472e-06
1.31364e-05
1.75735e-06
8.83364e-06
5.04467e-05
4.41308e-05
0.000421169
7.93438e-07
3.05635e-06
4.01094e-06
4.32315e-06
5.73854e-06
7.90365e-06
1.15574e-05
1.42829e-05
1.17045e-05
2.44257e-05
8.40244e-06
2.39472e-06
8.68794e-05
0.000266875
0.000186676
0.000102306
5.91966e-05
6.2368e-06
5.15226e-06
1.18942e-05
4.40516e-05
4.05293e-05
2.11081e-06
1.04102e-05
1.17391e-05
1.80503e-06
2.80704e-06
3.23402e-05
3.35117e-05
0.000407542
9.09347e-07
2.57476e-06
4.5591e-06
5.15539e-06
6.08022e-06
8.04437e-06
9.11396e-06
6.50955e-06
3.60336e-06
5.49822e-06
7.74036e-05
1.90947e-05
0.000670804
0.000175501
3.84478e-05
3.53161e-05
1.23849e-05
5.2064e-06
6.30649e-06
1.39213e-05
6.69078e-05
1.5425e-05
2.03532e-06
1.09867e-05
9.09798e-06
1.53177e-06
3.37853e-06
2.16541e-05
1.49927e-05
0.000354215
1.14956e-06
1.61072e-06
4.20545e-06
5.29092e-06
5.02491e-06
4.22119e-06
3.06648e-06
2.12814e-06
2.02447e-06
3.04044e-06
2.31785e-05
0.000278742
0.000489254
0.000183817
1.31686e-05
3.22988e-06
2.58943e-06
4.91894e-06
7.83288e-06
2.34584e-05
7.3391e-05
4.63325e-06
2.13333e-06
1.23275e-05
5.87607e-06
1.14549e-06
3.78525e-06
1.50414e-05
1.04444e-05
0.000280371
1.64152e-06
1.43123e-06
1.90654e-06
4.12791e-06
4.78624e-06
4.03336e-06
3.62579e-06
3.70374e-06
3.85707e-06
5.64571e-06
2.67949e-05
0.000232685
0.0002881
0.000287463
1.61152e-05
1.07419e-07
9.51923e-07
4.96783e-06
1.12872e-05
4.22559e-05
4.60799e-05
2.71899e-06
2.55703e-06
1.06839e-05
4.61772e-06
1.34549e-06
5.42991e-06
1.15602e-05
9.11253e-06
0.000197686
1.52286e-06
1.81682e-06
1.37259e-06
1.49318e-06
2.40346e-06
3.54848e-06
3.89501e-06
3.88517e-06
3.6999e-06
5.40969e-06
3.00472e-05
0.000114543
0.000235456
0.000377598
3.28168e-05
2.36264e-07
1.63522e-06
9.08775e-06
2.65068e-05
7.32879e-05
2.48741e-05
2.45993e-06
3.40346e-06
8.00034e-06
4.54142e-06
2.2658e-06
8.60325e-06
1.14583e-05
8.20707e-06
0.000118932
1.1426e-06
1.61543e-06
1.55523e-06
1.14036e-06
1.02457e-06
1.03114e-06
1.18241e-06
1.44197e-06
1.81783e-06
3.95057e-06
2.68087e-05
7.97879e-05
0.000185242
0.000493842
0.000117519
5.42891e-06
7.48131e-06
2.43918e-05
6.78722e-05
9.44276e-05
7.21106e-06
2.49946e-06
4.31528e-06
7.13606e-06
5.15833e-06
3.944e-06
8.7989e-06
9.81933e-06
9.78896e-06
6.64563e-05
1.2351e-06
1.17776e-06
1.05128e-06
1.00134e-06
9.99147e-07
8.14793e-07
6.94695e-07
6.94545e-07
7.15548e-07
7.84578e-07
1.01114e-05
0.000102875
0.000162198
0.000452026
0.000547531
0.000268748
0.000212761
0.000166104
0.00015674
4.72431e-05
1.38092e-06
1.73214e-06
4.13553e-06
9.75718e-06
6.90976e-06
5.30693e-06
9.53109e-06
1.20941e-05
1.27224e-05
2.4795e-05
1.98603e-06
6.35005e-07
4.58578e-07
4.49342e-07
5.39828e-07
6.9323e-07
1.03961e-06
1.6614e-06
2.4886e-06
2.49033e-06
7.21246e-06
0.000112017
0.000125593
0.000226476
0.000851668
0.000830515
0.000810738
0.000579868
0.000173656
1.26545e-05
6.90234e-07
1.57483e-06
3.31513e-06
1.09478e-05
8.70417e-06
6.93772e-06
1.16934e-05
1.28542e-05
9.05997e-06
6.37494e-06
2.44471e-06
2.39106e-06
5.66407e-07
6.60366e-07
9.50507e-07
2.1472e-06
4.16136e-06
7.17678e-06
7.82118e-06
7.96368e-06
1.85524e-05
4.06072e-05
7.09843e-05
8.15924e-05
0.000270138
0.000477817
0.000405767
0.00024555
2.54103e-05
2.35956e-06
1.46325e-06
2.8703e-06
2.619e-06
1.53791e-05
1.14848e-05
8.83915e-06
1.09523e-05
7.65703e-06
3.47942e-06
4.93431e-06
3.2339e-06
9.71464e-07
1.73283e-06
3.68034e-06
6.48363e-06
8.03693e-06
4.01877e-06
2.27634e-06
1.76483e-06
2.78006e-06
5.12038e-06
1.58805e-05
4.227e-05
2.67223e-05
5.34619e-06
2.38357e-05
1.0103e-05
1.59067e-06
9.66851e-07
3.13904e-06
3.83134e-06
5.12466e-06
4.15957e-06
1.79915e-05
1.35703e-05
8.82995e-06
5.48001e-06
2.0676e-06
2.50884e-06
5.97168e-06
1.91826e-06
1.23649e-06
1.79089e-06
1.95647e-06
1.24861e-06
5.46708e-07
4.46112e-07
2.9244e-07
5.19875e-07
3.45448e-06
1.55304e-05
3.6718e-05
2.2899e-05
4.03509e-06
1.72246e-06
2.43779e-07
4.03925e-07
1.58166e-06
3.4208e-06
3.70624e-06
1.91468e-06
5.36005e-06
4.53764e-06
3.56257e-05
1.65702e-05
4.07975e-06
1.2124e-06
1.13752e-06
2.73245e-06
4.06067e-06
9.07115e-07
8.41819e-07
1.01618e-06
9.55274e-07
7.23182e-07
5.19264e-07
4.35574e-07
6.48241e-07
1.68217e-06
6.99858e-06
2.55793e-05
3.04816e-05
1.80579e-05
4.92947e-06
3.40606e-06
2.36728e-06
5.35663e-06
6.87198e-06
3.14758e-06
2.23824e-06
3.65715e-06
6.42129e-06
3.81415e-06
5.11486e-05
8.83483e-06
2.22549e-06
1.0287e-06
1.45456e-06
2.31041e-06
3.30038e-06
5.11798e-07
4.39208e-07
5.2633e-07
5.6365e-07
5.15335e-07
4.69467e-07
5.29937e-07
1.01284e-06
2.62229e-06
5.13888e-06
1.02118e-05
1.30279e-05
2.58741e-05
2.23443e-05
5.19174e-06
7.47474e-06
8.90836e-06
3.92756e-06
3.35713e-06
2.75756e-05
1.46022e-05
5.05619e-05
5.01229e-05
0.000261107
2.77654e-05
1.76402e-05
1.43474e-05
1.84811e-06
4.94759e-07
7.08759e-06
2.7719e-07
2.62325e-07
3.63943e-07
5.45747e-07
7.86099e-07
1.04096e-06
1.55537e-06
2.17911e-06
2.83417e-06
3.71811e-06
4.47799e-06
6.17712e-06
2.10154e-05
3.52677e-05
7.41962e-06
4.4699e-06
2.43967e-06
2.14989e-06
1.37215e-05
2.83616e-05
4.52473e-05
0.000150558
0.000301483
0.000338599
0.000592007
0.000660934
0.000647172
0.00033877
6.61575e-06
7.60982e-06
1.60893e-07
1.33947e-07
2.39712e-07
6.20447e-07
2.58464e-06
7.85714e-06
2.07477e-05
1.98787e-05
6.29343e-06
2.40015e-06
3.03633e-06
4.65545e-06
9.734e-06
2.12656e-05
1.63053e-05
2.57315e-06
6.30669e-07
5.50786e-06
3.82392e-05
9.46377e-05
0.00013639
0.000109544
0.000143074
2.6911e-05
9.2076e-05
8.58434e-05
8.41899e-05
0.000342106
0.000339627
3.65106e-05
1.41008e-07
1.42697e-07
2.94065e-07
1.33054e-06
1.65806e-05
3.0802e-05
1.39131e-05
1.02587e-05
1.12961e-05
6.49416e-06
3.63926e-06
2.62511e-06
2.05183e-06
5.10113e-06
9.44123e-06
6.38413e-06
6.02684e-06
4.93056e-05
0.000199441
0.000142793
3.73411e-05
3.84308e-06
2.12036e-06
4.45382e-06
7.36178e-06
8.19895e-06
8.06275e-06
5.86999e-06
8.68186e-05
0.000179051
1.91395e-07
4.96788e-07
2.20409e-06
1.22956e-05
1.54014e-06
3.76193e-06
1.01046e-05
1.32248e-05
2.6268e-05
4.57885e-05
2.535e-05
2.40699e-05
0.000136179
0.000240445
4.59955e-06
1.28776e-05
4.97607e-05
0.00017472
0.000149019
1.11872e-05
4.22511e-06
3.87313e-06
7.22093e-06
9.24669e-06
9.08724e-06
7.81356e-06
5.8791e-06
4.57886e-06
6.4879e-06
6.9043e-05
2.46013e-07
1.77069e-06
7.82257e-07
1.11717e-06
3.88529e-06
3.8323e-06
6.13131e-06
7.3857e-06
4.65762e-06
1.13358e-05
2.0739e-05
9.19882e-06
3.39803e-06
0.000377956
0.000233737
9.33795e-06
2.49558e-05
5.46148e-05
1.75463e-05
9.21286e-06
4.60193e-06
7.99742e-06
8.2941e-06
7.22709e-06
6.8631e-06
6.85391e-06
5.58818e-06
4.68592e-06
6.20418e-06
1.75077e-05
3.38896e-07
1.02953e-07
5.10715e-07
8.86016e-07
6.76855e-07
5.55273e-07
4.85297e-07
4.69653e-07
6.00486e-07
1.13765e-06
1.31112e-06
1.64185e-06
2.95076e-06
0.000139277
0.000457976
1.57117e-06
5.95757e-06
8.3867e-06
1.23e-05
8.26228e-06
6.41634e-06
7.41741e-06
9.36707e-06
5.78796e-06
5.43641e-06
5.31914e-06
4.34084e-06
3.40353e-06
4.16535e-06
5.34224e-06
2.44804e-07
1.2429e-07
2.73651e-07
2.59443e-07
2.57638e-07
2.78284e-07
3.10272e-07
3.44709e-07
3.92102e-07
5.02878e-07
7.95028e-07
1.77899e-06
4.27962e-06
0.000110738
0.00048355
3.3546e-06
8.41761e-06
1.32709e-05
1.13082e-05
8.61892e-06
4.68796e-06
4.16282e-06
3.70779e-06
2.16252e-06
1.96469e-06
2.85374e-06
2.41974e-06
1.42563e-06
1.41418e-06
1.34777e-06
1.05213e-07
1.41719e-07
2.01964e-07
2.29915e-07
2.61614e-07
3.02108e-07
3.33623e-07
3.45165e-07
3.65743e-07
4.61232e-07
7.8794e-07
1.85146e-06
3.43258e-06
3.52398e-05
0.000378664
6.61211e-06
1.90652e-05
1.76954e-05
0.000210952
4.45407e-05
3.9316e-05
2.35745e-05
9.11917e-06
4.56365e-08
3.80516e-07
1.51762e-06
1.84188e-06
1.04067e-06
5.43115e-07
9.89227e-07
8.48572e-08
1.41027e-07
1.97563e-07
2.41103e-07
2.87623e-07
3.30206e-07
3.44824e-07
3.42303e-07
3.59135e-07
4.50155e-07
7.53838e-07
1.48694e-06
2.17463e-06
7.81335e-06
0.000228197
9.43045e-05
0.000270449
0.000880818
0.000665132
0.000647574
0.000558178
0.000294888
0.000210548
0.000139737
5.60713e-05
5.76064e-06
2.51588e-06
1.1666e-06
1.01557e-06
1.33061e-06
9.78119e-08
1.35545e-07
1.93904e-07
2.50207e-07
3.0687e-07
3.55861e-07
3.79127e-07
3.92451e-07
4.25652e-07
5.4408e-07
8.75002e-07
1.4742e-06
2.02753e-06
5.58794e-06
7.69787e-05
0.000352379
0.00108425
0.00130033
0.000574401
0.000429146
0.000563459
0.000747934
0.000793337
0.000870591
0.00078235
0.00058352
0.000202771
5.83785e-05
1.82561e-05
2.94152e-06
1.12289e-07
1.33234e-07
1.86086e-07
2.47684e-07
3.17531e-07
3.89791e-07
4.55739e-07
5.42864e-07
7.2216e-07
1.08136e-06
1.86444e-06
2.40888e-06
1.51519e-06
8.13566e-07
8.79133e-06
0.00127532
0.00112737
0.000246811
2.70359e-05
5.82189e-06
3.28162e-06
2.02164e-05
8.36077e-05
0.000166207
0.000311015
0.000612064
0.00071776
0.000557466
0.000379986
6.7663e-05
1.24451e-07
1.33022e-07
1.73422e-07
2.28676e-07
3.02589e-07
4.0168e-07
5.58222e-07
7.44231e-07
1.14122e-06
2.54949e-06
6.42438e-06
8.04978e-06
2.78252e-06
4.15135e-06
0.000564966
0.00236696
8.85301e-05
5.70907e-06
5.51625e-06
4.283e-06
3.35606e-06
3.45082e-06
2.57223e-06
2.39705e-06
2.87515e-06