/*--------------------------------*- C++ -*----------------------------------*\
| =========                 |                                                 |
| \\      /  F ield         | OpenFOAM: The Open Source CFD Toolbox           |
|  \\    /   O peration     | Version:  2.3.0                                 |
|   \\  /    A nd           | Web:      www.OpenFOAM.org                      |
|    \\/     M anipulation  |                                                 |
\*---------------------------------------------------------------------------*/
FoamFile
{
    version     2.0;
    format      ascii;
    class       volScalarField;
    location    "0.074";
    object      p;
}
// * * * * * * * * * * * * * * * * * * * * * * * * * * * * * * * * * * * * * //

dimensions      [1 -1 -2 0 0 0 0];

internalField   nonuniform List<scalar> 
545
(
-9.46905e+07
-1.7326e+07
-2.19852e+06
-2.92392e+06
-1.00236e+07
6.83889e+07
-3.40355e+06
-2.62239e+06
-2.80546e+06
-8.12163e+06
1.18806e+08
4.41736e+06
-283706
-347350
-8.53038e+06
6.89862e+07
-3.61876e+06
-2.06794e+06
-24595.8
-7.60726e+06
-1.0898e+08
-2.6269e+06
-395416
5.1446e+06
1.39922e+07
-8.23437e+06
-2.05675e+06
-789012
-8389.62
125755
150571
131385
112721
102461
94083.3
89296
82712.9
78427.1
71602.2
67172.6
59977.1
55418.2
47868.8
43027.6
35211.3
30328.8
22577.9
18148
10766.5
7000.23
291.936
-2571.07
-8440.4
-10294.7
-15364.2
-16236.8
-20480.9
-20274.5
-23211.1
-21611
-22956
-19632.3
-19453.3
-14736.2
-13722.2
-8616.91
-7150.1
-1663.17
440.044
6091.66
-7.23823e+06
-1.24094e+06
-743256
-149498
-1205.62
82964.3
100646
102267
98564.6
93954.1
88595.1
83416.3
77754.1
72333
66455.6
60733.8
54627.1
48658.7
42135.1
36007.2
29391.9
23403.5
17154.2
11624
6012.6
1211.33
-3603.75
-7507.59
-11356.4
-14441
-17336.3
-19507.2
-21400.2
-22209
-22767.7
-21909.7
-20776.1
-18341.6
-15865.4
-12560.7
-9794.03
-6153.82
-3161.09
157.959
-264.669
-8.51197e+06
-549324
-408631
-4356.5
33242.3
90181.5
101239
100617
98057
93276
88881.6
83040.9
78180.4
71946.6
66942.6
60308.3
55131.1
48207.9
42581.2
35458.3
29836.6
22846.6
17666.1
11091.4
6583.49
674.072
-3049.49
-8136.15
-10773.4
-15081
-16719.8
-20147.8
-20795.4
-22822.7
-22175.4
-22528.3
-20119.4
-18920.9
-15135.7
-13100.3
-9201.23
-6865.23
-3025.1
-630.095
3158.91
-9.01149e+06
831229
272535
264052
119044
121291
110179
102647
97536.8
93554.5
88373.9
83505.5
77696.1
72530.3
66459.9
60887.1
54623.1
48831.9
41906.9
36059.4
29100.8
23507.3
17003.2
11842.3
5955.36
1435.77
-3775.63
-7407.32
-11532.8
-14322.4
-17418.2
-19365
-21548.1
-21956.5
-22962.8
-21653.2
-20898.9
-17961.1
-15836
-12103.5
-10105.9
-6092.31
-4321.41
-1521.06
-2830.5
-1.996e+06
3.99646e+06
1.44803e+06
529743
188195
133288
110680
100103
96961
92863.4
88813.6
82988.2
78223
72072.1
67095
60283
55315.9
48290.7
42409.4
35443
29590.8
22888.3
17697.1
11270.9
6760.71
807.835
-3013.07
-8211.7
-10743.5
-15137.3
-16459.3
-20185.6
-20663.3
-22588.1
-22134.6
-22355.2
-19998.7
-18679.9
-14873.1
-12584
-9645.53
-6512.06
-4297.44
-1887.15
1410.04
-1.60255e+07
5.67252e+06
2.36012e+06
711286
217052
134567
111131
103576
99043.9
96634.5
89147.1
83773.1
80005.1
75672.9
69503.1
65114.5
57687
49296.3
41993.7
39512.3
33521.8
26673
20129.9
15162.3
8905.7
1921.66
-3728.9
-5716.64
-7587.6
-9399.06
-15071.5
-14531.1
-17757.4
-18959.8
-22581.7
-21326.2
-20737.7
-17185.8
-11602.7
-6219.87
-3228.63
-2973.05
1804.39
2852.09
-1739.92
-1.08979e+08
-2.62653e+06
-395765
5.14357e+06
1.39913e+07
6.89873e+07
-3.61829e+06
-2.06838e+06
-25741
-7.6084e+06
1.18807e+08
4.41794e+06
-284286
-348684
-8.5318e+06
6.83901e+07
-3.4029e+06
-2.62306e+06
-2.80689e+06
-8.12335e+06
-9.46892e+07
-1.73252e+07
-2.1992e+06
-2.92533e+06
-1.00255e+07
-1.9968e+06
3.99632e+06
1.44766e+06
530024
187883
133636
110458
100470
96751.9
93257.6
88654.8
83459.8
78063.9
72477.2
66891.4
60621.6
55053.8
48582.8
42079.5
35684.8
29296.9
23157
17454.2
11587.8
6578.06
1189.63
-3185.44
-7856.95
-10909.5
-14813.8
-16614
-19851.5
-20783.7
-22206.1
-22207.2
-21916.7
-20070.1
-18277.1
-14977.1
-12284.9
-9752.91
-6189.16
-4446.79
-1641.63
1227.28
-9.0127e+06
830560
272151
264146
118891
121535
110132
102964
97565.1
93948.4
88510.4
83993.6
77829.6
72932.2
66482.3
61149
54513.3
48972.4
41680
36132
28903
23650.7
16921
12108
5993.37
1795.74
-3708.15
-7067.68
-11486.4
-14008.4
-17346.9
-19013.4
-21413
-21517.1
-22728.2
-21140.3
-20666
-17495.3
-15684.9
-11771.2
-9991.37
-5745.34
-4321.89
-1421.98
-2936.5
-8.5135e+06
-550421
-409097
-4474.17
33227.1
90314
101325
100882
98290.3
93663.4
89252.4
83526.8
78548.8
72335.1
67153.7
60503.5
55148
48218.7
42440.7
35386
29723.6
22888.6
17730.5
11324.3
6818.79
1027.55
-2767.96
-7795.46
-10525.8
-14758.1
-16438.1
-19761.6
-20418.2
-22311.3
-21664.6
-21927.4
-19602.5
-18377.7
-14740.1
-12733
-8912.88
-6547.66
-2928.51
-659.962
3110.26
-7.24005e+06
-1.24225e+06
-743926
-149788
-1201.39
83023
100777
102540
98882.3
94372.7
89074.4
83936.5
78225.5
72745.4
66750.5
60927.2
54684.3
48625.5
42010
35876.9
29290.4
23413.9
17277.2
11883.5
6354.02
1619.34
-3202.17
-7109.93
-10992.5
-14057.7
-16936.9
-19043.8
-20877.2
-21588.2
-22085.4
-21177.7
-20065.1
-17672.7
-15310.5
-12107.4
-9424.55
-5844.48
-3035.5
146.092
-270.954
-8.23638e+06
-2.05817e+06
-789857
-8838.6
125731
150564
131559
113025
102818
94511.3
89795.2
83240.8
78936.2
72035.8
67510.4
60179.5
55490.1
47816.7
42899.1
35058.6
30232.5
22579.5
18291.5
11039.7
7388.38
736.289
-2104.08
-7994.37
-9861.75
-14939.1
-15783.1
-19972.5
-19669.7
-22518.2
-20836.4
-22138.1
-18803.6
-18697
-14084
-13205.4
-8195.78
-6846.63
-1522.49
409.636
6076.86
)
;

boundaryField
{
    AirInlet
    {
        type            calculated;
        value           uniform -1.60219e+07;
    }
    WaterInlet
    {
        type            calculated;
        value           nonuniform List<scalar> 10(-9.46905e+07 6.83889e+07 1.18806e+08 6.89862e+07 -1.0898e+08 -1.08979e+08 6.89873e+07 1.18807e+08 6.83901e+07 -9.46892e+07);
    }
    ChannelWall
    {
        type            calculated;
        value           nonuniform List<scalar> 
110
(
-1.0898e+08
-2.6269e+06
-395416
5.1446e+06
1.39922e+07
-1.08979e+08
-2.62653e+06
-395765
5.14357e+06
1.39913e+07
-9.46892e+07
-1.73252e+07
-2.1992e+06
-2.92533e+06
-1.00255e+07
-8.23638e+06
-2.05817e+06
-789858
-8838.64
125731
150564
131559
113025
102818
94511.3
89795.2
83240.8
78936.2
72035.7
67510.4
60179.4
55490.1
47816.7
42899.1
35058.6
30232.4
22579.5
18291.4
11039.7
7388.34
736.245
-2104.13
-7994.41
-9861.79
-14939.1
-15783.1
-19972.5
-19669.7
-22518.3
-20836.4
-22138.1
-18803.6
-18697.1
-14084
-13205.5
-8195.82
-6846.67
-1522.53
409.592
6076.82
-9.46905e+07
-1.7326e+07
-2.19852e+06
-2.92392e+06
-1.00236e+07
-8.23437e+06
-2.05675e+06
-789012
-8389.58
125755
150571
131385
112721
102461
94083.3
89296
82713
78427.1
71602.2
67172.7
59977.1
55418.2
47868.8
43027.6
35211.3
30328.8
22577.9
18148
10766.5
7000.27
291.98
-2571.03
-8440.35
-10294.7
-15364.2
-16236.7
-20480.8
-20274.4
-23211.1
-21611
-22956
-19632.3
-19453.2
-14736.2
-13722.2
-8616.87
-7150.05
-1663.12
440.088
6091.71
)
;
    }
    Outlet
    {
        type            calculated;
        value           nonuniform List<scalar> 
11
(
-0.044145
-0.132435
-0.220725
-0.308996
-0.395462
-0.289087
-0.580979
-0.671943
-0.760274
-0.848565
-0.936855
)
;
    }
    FrontAndBack
    {
        type            empty;
    }
}


// ************************************************************************* //
