/*--------------------------------*- C++ -*----------------------------------*\
| =========                 |                                                 |
| \\      /  F ield         | OpenFOAM: The Open Source CFD Toolbox           |
|  \\    /   O peration     | Version:  2.3.0                                 |
|   \\  /    A nd           | Web:      www.OpenFOAM.org                      |
|    \\/     M anipulation  |                                                 |
\*---------------------------------------------------------------------------*/
FoamFile
{
    version     2.0;
    format      ascii;
    class       surfaceScalarField;
    location    "0.074";
    object      phi;
}
// * * * * * * * * * * * * * * * * * * * * * * * * * * * * * * * * * * * * * //

dimensions      [0 3 -1 0 0 0 0];

internalField   nonuniform List<scalar> 
1024
(
2.4436e-12
5.64e-14
2.54305e-12
-9.94463e-14
2.57766e-12
-3.461e-14
2.61641e-12
-3.8755e-14
4.04826e-14
2.57593e-12
2.57497e-12
-1.85667e-14
2.55787e-12
-8.23537e-14
2.56168e-12
-3.842e-14
2.58235e-12
-5.94166e-14
6.82047e-14
2.55462e-12
2.59534e-12
-1.1391e-13
2.53625e-12
-2.3257e-14
2.52364e-12
-2.58098e-14
2.53766e-12
-7.34407e-14
9.23643e-14
2.5135e-12
2.52426e-12
-1.38169e-13
2.46628e-12
3.47246e-14
2.46027e-12
-1.9799e-14
2.46277e-12
-7.59482e-14
1.00678e-13
2.45446e-12
2.36183e-12
2.39656e-12
2.37676e-12
2.30081e-12
2.40149e-12
2.37027e-12
2.05655e-13
2.32443e-12
4.58404e-14
2.32332e-12
1.1175e-15
2.33136e-12
-8.04235e-15
2.33628e-12
-4.91875e-15
2.33872e-12
-2.44146e-15
2.33965e-12
-9.29464e-16
2.33995e-12
-3.03542e-16
2.34001e-12
-5.40229e-17
2.34002e-12
-1.6854e-17
2.34001e-12
1.74968e-17
2.34001e-12
-9.44291e-18
2.34e-12
1.51537e-17
2.34001e-12
-1.36505e-17
2.34e-12
1.49474e-17
2.34001e-12
-1.45317e-17
2.34e-12
1.52014e-17
2.34001e-12
-1.62662e-17
2.34e-12
1.64223e-17
2.34001e-12
-1.75897e-17
2.34e-12
1.81184e-17
2.34001e-12
-1.74823e-17
2.34e-12
1.79409e-17
2.34001e-12
-1.80565e-17
2.34e-12
1.91223e-17
2.34001e-12
-1.81044e-17
2.33999e-12
2.01166e-17
2.34001e-12
-1.89954e-17
2.33999e-12
2.01749e-17
2.34001e-12
-1.96183e-17
2.33999e-12
1.95479e-17
2.34001e-12
-1.90115e-17
2.33999e-12
2.13017e-17
2.34001e-12
-1.98581e-17
2.33999e-12
2.28636e-17
2.34001e-12
-2.01077e-17
2.33998e-12
2.33065e-17
2.34e-12
-2.12474e-17
2.33998e-12
2.16508e-17
2.34001e-12
-2.26182e-17
2.33998e-12
2.34158e-17
2.34001e-12
-2.37552e-17
2.33998e-12
2.81947e-17
2.33999e-12
-7.77827e-18
1.22911e-16
2.36467e-12
3.95609e-13
2.3252e-12
8.53135e-14
2.32733e-12
-1.01874e-15
2.33327e-12
-1.39782e-14
2.33708e-12
-8.72634e-15
2.3389e-12
-4.26197e-15
2.33969e-12
-1.72123e-15
2.33992e-12
-5.34177e-16
2.34e-12
-1.38312e-16
2.33999e-12
-5.49081e-18
2.34001e-12
-2.26571e-18
2.33999e-12
1.57967e-17
2.34001e-12
-7.6048e-18
2.33998e-12
1.19291e-17
2.34001e-12
-1.05187e-17
2.33998e-12
1.28776e-17
2.34001e-12
-1.22203e-17
2.33998e-12
1.18989e-17
2.34001e-12
-1.26567e-17
2.33998e-12
1.17972e-17
2.34001e-12
-1.19399e-17
2.33998e-12
1.34337e-17
2.34001e-12
-1.43746e-17
2.33998e-12
1.37068e-17
2.34001e-12
-1.4004e-17
2.33998e-12
1.52288e-17
2.34001e-12
-1.42144e-17
2.33998e-12
1.58656e-17
2.34002e-12
-1.59107e-17
2.33998e-12
1.58485e-17
2.34002e-12
-1.80598e-17
2.33998e-12
1.76176e-17
2.34002e-12
-1.61734e-17
2.33998e-12
1.66578e-17
2.34002e-12
-1.46135e-17
2.33998e-12
1.75624e-17
2.34002e-12
-1.52216e-17
2.33998e-12
1.73663e-17
2.34002e-12
-1.82413e-17
2.33998e-12
1.60138e-17
2.34002e-12
-1.61106e-17
2.33998e-12
1.51122e-17
2.34002e-12
-1.3496e-17
2.34e-12
2.1233e-17
-8.05272e-17
2.34428e-12
5.64829e-13
2.32837e-12
1.01228e-13
2.33415e-12
-6.79957e-15
2.33766e-12
-1.74937e-14
2.33901e-12
-1.00761e-14
2.33964e-12
-4.88807e-15
2.33988e-12
-1.96378e-15
2.33998e-12
-6.36811e-16
2.33999e-12
-1.41731e-16
2.34001e-12
-2.80952e-17
2.33999e-12
1.75826e-17
2.34001e-12
-4.08303e-18
2.33999e-12
1.42516e-17
2.34001e-12
-1.03944e-17
2.33999e-12
1.24096e-17
2.34001e-12
-9.99317e-18
2.33999e-12
1.19848e-17
2.34001e-12
-1.33963e-17
2.33998e-12
1.35523e-17
2.34001e-12
-1.53908e-17
2.33998e-12
1.581e-17
2.34001e-12
-1.45412e-17
2.33998e-12
1.36998e-17
2.34001e-12
-1.53456e-17
2.33998e-12
1.49808e-17
2.34001e-12
-1.44663e-17
2.33998e-12
1.63627e-17
2.34001e-12
-1.51101e-17
2.33998e-12
1.50033e-17
2.34001e-12
-1.53469e-17
2.33998e-12
1.2692e-17
2.34002e-12
-1.42992e-17
2.33998e-12
1.62466e-17
2.34002e-12
-1.67579e-17
2.33998e-12
1.92087e-17
2.34002e-12
-1.6487e-17
2.33998e-12
1.9449e-17
2.34002e-12
-1.76584e-17
2.33998e-12
1.62339e-17
2.34002e-12
-2.013e-17
2.33998e-12
2.07108e-17
2.34002e-12
-2.25884e-17
2.33998e-12
2.65471e-17
2.34001e-12
-4.27901e-18
1.04248e-16
2.32071e-12
6.98582e-13
2.33611e-12
8.58225e-14
2.34412e-12
-1.48071e-14
2.34325e-12
-1.66278e-14
2.34149e-12
-8.30944e-15
2.34053e-12
-3.93199e-15
2.34018e-12
-1.61443e-15
2.34003e-12
-4.82159e-16
2.34001e-12
-1.25213e-16
2.33999e-12
-2.61844e-18
2.34001e-12
-3.96387e-18
2.33999e-12
1.66969e-17
2.34001e-12
-9.07649e-18
2.33999e-12
1.32579e-17
2.34001e-12
-1.27862e-17
2.33999e-12
1.62888e-17
2.34001e-12
-1.47991e-17
2.33999e-12
1.27451e-17
2.34001e-12
-1.31035e-17
2.33998e-12
1.27999e-17
2.34001e-12
-1.25624e-17
2.33998e-12
1.47775e-17
2.34001e-12
-1.66692e-17
2.33998e-12
1.49874e-17
2.34002e-12
-1.66636e-17
2.33998e-12
1.64979e-17
2.34002e-12
-1.57465e-17
2.33998e-12
1.88211e-17
2.34002e-12
-1.93263e-17
2.33998e-12
1.95577e-17
2.34002e-12
-2.29911e-17
2.33998e-12
2.12029e-17
2.34002e-12
-1.94424e-17
2.33998e-12
1.7454e-17
2.34002e-12
-1.56202e-17
2.33998e-12
1.84804e-17
2.34002e-12
-1.66166e-17
2.33998e-12
1.89569e-17
2.34002e-12
-2.12611e-17
2.33998e-12
1.60255e-17
2.34002e-12
-1.45729e-17
2.33998e-12
1.29017e-17
2.34002e-12
-1.22286e-17
2.34e-12
1.77475e-17
-8.83115e-17
2.31019e-12
7.8988e-13
2.35629e-12
3.97167e-14
2.35617e-12
-1.46803e-14
2.3484e-12
-8.85683e-15
2.3436e-12
-3.51374e-15
2.3413e-12
-1.63213e-15
2.34036e-12
-6.76724e-16
2.34008e-12
-2.01989e-16
2.33999e-12
-3.43509e-17
2.34e-12
-1.12762e-17
2.33998e-12
1.25078e-17
2.34001e-12
-5.72641e-18
2.33999e-12
1.09949e-17
2.34001e-12
-9.28071e-18
2.33999e-12
8.46655e-18
2.34001e-12
-6.08316e-18
2.33999e-12
8.24791e-18
2.34001e-12
-1.17267e-17
2.33999e-12
1.34645e-17
2.34001e-12
-1.51697e-17
2.33998e-12
1.63269e-17
2.34001e-12
-1.38293e-17
2.33998e-12
1.20403e-17
2.34001e-12
-1.408e-17
2.33999e-12
1.18084e-17
2.34001e-12
-1.24865e-17
2.33999e-12
1.3402e-17
2.34002e-12
-1.14916e-17
2.33999e-12
1.06665e-17
2.34001e-12
-8.75599e-18
2.33998e-12
5.90221e-18
2.34002e-12
-9.19576e-18
2.33998e-12
1.24754e-17
2.34002e-12
-1.63449e-17
2.33998e-12
1.74535e-17
2.34002e-12
-1.59489e-17
2.33999e-12
1.66513e-17
2.34002e-12
-1.57387e-17
2.33998e-12
1.51344e-17
2.34002e-12
-2.39348e-17
2.33998e-12
2.78031e-17
2.34002e-12
-3.01409e-17
2.33998e-12
3.06957e-17
2.34001e-12
-1.15468e-17
1.05115e-16
2.57976e-12
-7.89883e-13
2.65919e-12
-3.97106e-14
2.62983e-12
1.46754e-14
2.61212e-12
8.86093e-15
2.60509e-12
3.50868e-15
2.60182e-12
1.63766e-15
2.60048e-12
6.71612e-16
2.60007e-12
2.08055e-16
2.6e-12
2.85535e-17
2.59998e-12
1.69534e-17
2.60001e-12
-1.84269e-17
2.59999e-12
1.16031e-17
2.60002e-12
-1.68048e-17
2.59999e-12
1.50204e-17
2.60001e-12
-1.41258e-17
2.6e-12
1.1719e-17
2.60002e-12
-1.38349e-17
2.59999e-12
1.73351e-17
2.60002e-12
-1.91388e-17
2.59999e-12
2.05612e-17
2.60002e-12
-2.16542e-17
2.59999e-12
1.91954e-17
2.60002e-12
-1.72404e-17
2.59999e-12
1.92373e-17
2.60002e-12
-1.70212e-17
2.59999e-12
1.76859e-17
2.60002e-12
-1.84865e-17
2.59999e-12
1.65216e-17
2.60002e-12
-1.55924e-17
2.59999e-12
1.35581e-17
2.60001e-12
-1.06958e-17
2.59999e-12
1.38798e-17
2.60002e-12
-1.71294e-17
2.59998e-12
2.09403e-17
2.60002e-12
-2.20583e-17
2.59998e-12
2.05459e-17
2.60002e-12
-2.12168e-17
2.59998e-12
2.03716e-17
2.60002e-12
-1.95142e-17
2.59997e-12
2.81011e-17
2.60003e-12
-3.20973e-17
2.59996e-12
3.4528e-17
2.60003e-12
-3.5182e-17
2.6e-12
1.37959e-17
-1.09802e-16
2.36183e-12
1.38169e-13
2.39656e-12
-3.47241e-14
2.37676e-12
1.97986e-14
2.30081e-12
7.59494e-14
-1.00679e-13
2.40149e-12
2.52426e-12
1.13909e-13
2.46628e-12
2.32573e-14
2.46027e-12
2.58096e-14
2.46277e-12
7.34427e-14
-9.23647e-14
2.45446e-12
2.59534e-12
1.85665e-14
2.53625e-12
8.23544e-14
2.52364e-12
3.84198e-14
2.53766e-12
5.94184e-14
-6.82054e-14
2.5135e-12
2.57497e-12
-5.63998e-14
2.55787e-12
9.94469e-14
2.56168e-12
3.46096e-14
2.58235e-12
3.87563e-14
-4.04834e-14
2.55462e-12
2.4436e-12
2.54305e-12
2.57766e-12
2.61641e-12
2.57593e-12
2.31019e-12
-6.98584e-13
2.3563e-12
-8.58203e-14
2.35617e-12
1.48054e-14
2.3484e-12
1.66285e-14
2.3436e-12
8.30808e-15
2.3413e-12
3.9339e-15
2.34036e-12
1.61296e-15
2.34009e-12
4.84704e-16
2.33999e-12
1.22999e-16
2.34e-12
4.74652e-18
2.33998e-12
1.47277e-18
2.34001e-12
-1.44506e-17
2.33999e-12
6.79015e-18
2.34001e-12
-1.10034e-17
2.33999e-12
1.06566e-17
2.34001e-12
-1.40999e-17
2.33999e-12
1.26684e-17
2.34001e-12
-1.0577e-17
2.33998e-12
1.08069e-17
2.34002e-12
-1.07457e-17
2.33998e-12
1.05977e-17
2.34001e-12
-1.26822e-17
2.33998e-12
1.47214e-17
2.34002e-12
-1.30765e-17
2.33998e-12
1.46385e-17
2.34002e-12
-1.44964e-17
2.33998e-12
1.37594e-17
2.34002e-12
-1.68271e-17
2.33998e-12
1.74656e-17
2.34002e-12
-1.77741e-17
2.33998e-12
2.11497e-17
2.34002e-12
-1.94658e-17
2.33998e-12
1.77204e-17
2.34002e-12
-1.57205e-17
2.33998e-12
1.38518e-17
2.34002e-12
-1.66987e-17
2.33998e-12
1.48474e-17
2.34002e-12
-1.71446e-17
2.33998e-12
1.9634e-17
2.34002e-12
-1.45948e-17
2.33998e-12
1.30682e-17
2.34003e-12
-1.12548e-17
2.33998e-12
1.06806e-17
2.34001e-12
-1.67022e-17
8.76309e-17
2.32071e-12
-5.64831e-13
2.33611e-12
-1.01227e-13
2.34412e-12
6.79898e-15
2.34326e-12
1.74929e-14
2.34149e-12
1.00765e-14
2.34053e-12
4.88812e-15
2.34018e-12
1.96412e-15
2.34003e-12
6.37688e-16
2.34001e-12
1.41185e-16
2.33999e-12
2.85166e-17
2.34001e-12
-1.83049e-17
2.33999e-12
4.53696e-18
2.34001e-12
-1.47638e-17
2.33999e-12
1.09525e-17
2.34001e-12
-1.28303e-17
2.33999e-12
1.05043e-17
2.34001e-12
-1.24636e-17
2.33999e-12
1.38495e-17
2.34001e-12
-1.41507e-17
2.33999e-12
1.57966e-17
2.34001e-12
-1.61858e-17
2.33998e-12
1.505e-17
2.34001e-12
-1.40926e-17
2.33998e-12
1.5727e-17
2.34001e-12
-1.54432e-17
2.33999e-12
1.48961e-17
2.34002e-12
-1.67798e-17
2.33998e-12
1.55731e-17
2.34002e-12
-1.53967e-17
2.33998e-12
1.5699e-17
2.34002e-12
-1.31341e-17
2.33998e-12
1.46505e-17
2.34002e-12
-1.65906e-17
2.33998e-12
1.71361e-17
2.34002e-12
-1.95902e-17
2.33998e-12
1.68461e-17
2.34002e-12
-1.97906e-17
2.33998e-12
1.80646e-17
2.34002e-12
-1.65639e-17
2.33998e-12
2.03859e-17
2.34002e-12
-2.09919e-17
2.33998e-12
2.29808e-17
2.34002e-12
-2.6904e-17
2.34e-12
4.64529e-18
-1.03192e-16
2.34428e-12
-3.95611e-13
2.32837e-12
-8.5313e-14
2.33415e-12
1.01839e-15
2.33766e-12
1.39771e-14
2.33901e-12
8.72737e-15
2.33964e-12
4.2614e-15
2.33988e-12
1.72205e-15
2.33998e-12
5.34679e-16
2.33999e-12
1.38264e-16
2.34001e-12
5.44228e-18
2.33999e-12
1.92558e-18
2.34001e-12
-1.58725e-17
2.33999e-12
7.586e-18
2.34001e-12
-1.17816e-17
2.33999e-12
1.05913e-17
2.34001e-12
-1.2795e-17
2.33999e-12
1.2186e-17
2.34001e-12
-1.1932e-17
2.33998e-12
1.24833e-17
2.34001e-12
-1.18178e-17
2.33998e-12
1.19938e-17
2.34001e-12
-1.33252e-17
2.33998e-12
1.43729e-17
2.34001e-12
-1.37421e-17
2.33998e-12
1.39297e-17
2.34001e-12
-1.52254e-17
2.33998e-12
1.4232e-17
2.34001e-12
-1.57672e-17
2.33998e-12
1.59153e-17
2.34001e-12
-1.58723e-17
2.33998e-12
1.79365e-17
2.34002e-12
-1.76387e-17
2.33998e-12
1.62008e-17
2.34002e-12
-1.6605e-17
2.33998e-12
1.45881e-17
2.34002e-12
-1.75641e-17
2.33998e-12
1.5289e-17
2.34002e-12
-1.73313e-17
2.33998e-12
1.82583e-17
2.34002e-12
-1.60578e-17
2.33998e-12
1.62256e-17
2.34002e-12
-1.50629e-17
2.33998e-12
1.33546e-17
2.34001e-12
-2.1464e-17
8.11155e-17
2.36467e-12
-2.05657e-13
2.3252e-12
-4.58397e-14
2.32733e-12
-1.11789e-15
2.33327e-12
8.04171e-15
2.33708e-12
4.91998e-15
2.3389e-12
2.44087e-15
2.33969e-12
9.30023e-16
2.33992e-12
3.03796e-16
2.34e-12
5.39392e-17
2.33999e-12
1.6801e-17
2.34001e-12
-1.74744e-17
2.33999e-12
9.37424e-18
2.34001e-12
-1.50561e-17
2.33998e-12
1.36655e-17
2.34001e-12
-1.48129e-17
2.33998e-12
1.45057e-17
2.34001e-12
-1.51765e-17
2.33998e-12
1.61369e-17
2.34001e-12
-1.64815e-17
2.33998e-12
1.74294e-17
2.34001e-12
-1.80687e-17
2.33998e-12
1.74307e-17
2.34001e-12
-1.78644e-17
2.33998e-12
1.79986e-17
2.34001e-12
-1.90366e-17
2.33998e-12
1.80823e-17
2.34001e-12
-1.99942e-17
2.33998e-12
1.8953e-17
2.34002e-12
-2.01231e-17
2.33998e-12
1.95105e-17
2.34002e-12
-1.95691e-17
2.33998e-12
1.89108e-17
2.34002e-12
-2.12246e-17
2.33998e-12
1.9842e-17
2.34002e-12
-2.27961e-17
2.33998e-12
2.00695e-17
2.34002e-12
-2.31187e-17
2.33998e-12
2.12283e-17
2.34002e-12
-2.16072e-17
2.33998e-12
2.25537e-17
2.34002e-12
-2.33726e-17
2.33998e-12
2.37841e-17
2.34003e-12
-2.83658e-17
2.34e-12
8.19233e-18
-1.21389e-16
2.37027e-12
2.32443e-12
2.32332e-12
2.33136e-12
2.33628e-12
2.33872e-12
2.33965e-12
2.33995e-12
2.34001e-12
2.34002e-12
2.34001e-12
2.34001e-12
2.34e-12
2.34001e-12
2.34e-12
2.34001e-12
2.34e-12
2.34001e-12
2.34e-12
2.34001e-12
2.34e-12
2.34001e-12
2.34e-12
2.34001e-12
2.34e-12
2.34001e-12
2.33999e-12
2.34001e-12
2.33999e-12
2.34001e-12
2.33999e-12
2.34001e-12
2.33999e-12
2.34001e-12
2.33999e-12
2.34001e-12
2.33998e-12
2.34e-12
2.33998e-12
2.34001e-12
2.33998e-12
2.34001e-12
2.33998e-12
2.33999e-12
)
;

boundaryField
{
    AirInlet
    {
        type            calculated;
        value           uniform -1e-12;
    }
    WaterInlet
    {
        type            calculated;
        value           nonuniform List<scalar> 10(-2.5e-12 -2.5e-12 -2.5e-12 -2.5e-12 -2.5e-12 -2.5e-12 -2.5e-12 -2.5e-12 -2.5e-12 -2.5e-12);
    }
    ChannelWall
    {
        type            calculated;
        value           uniform 0;
    }
    Outlet
    {
        type            calculated;
        value           nonuniform List<scalar> 
11
(
2.33986e-12
2.3402e-12
2.33982e-12
2.34019e-12
2.33982e-12
2.60022e-12
2.33981e-12
2.34019e-12
2.33982e-12
2.3402e-12
2.33986e-12
)
;
    }
    FrontAndBack
    {
        type            empty;
        value           nonuniform 0();
    }
}


// ************************************************************************* //
