/*--------------------------------*- C++ -*----------------------------------*\
| =========                 |                                                 |
| \\      /  F ield         | OpenFOAM: The Open Source CFD Toolbox           |
|  \\    /   O peration     | Version:  2.3.0                                 |
|   \\  /    A nd           | Web:      www.OpenFOAM.org                      |
|    \\/     M anipulation  |                                                 |
\*---------------------------------------------------------------------------*/
FoamFile
{
    version     2.0;
    format      ascii;
    class       volScalarField;
    location    "0.18";
    object      p_rgh;
}
// * * * * * * * * * * * * * * * * * * * * * * * * * * * * * * * * * * * * * //

dimensions      [1 -1 -2 0 0 0 0];

internalField   nonuniform List<scalar> 
545
(
-8.79584e+07
-1.63696e+07
-2.35826e+06
-3.04334e+06
-9.62257e+06
6.29577e+07
-3.48456e+06
-2.75779e+06
-2.93634e+06
-7.85557e+06
1.09616e+08
3.7513e+06
-590494
-657355
-8.22754e+06
6.35102e+07
-3.68375e+06
-2.24211e+06
-346684
-7.35568e+06
-1.01184e+08
-2.77098e+06
-698284
4.43856e+06
1.27249e+07
-8.09961e+06
-2.21591e+06
-946469
-212085
-61131.2
-50072.6
-73894.6
-87812.7
-95199.1
-96124.9
-95302.4
-91649.8
-88480.5
-83691.1
-80438.8
-76096.4
-73505.1
-69904.8
-68037.5
-65049.1
-63799.2
-61101.6
-60114.7
-57604.6
-56704.7
-54126.7
-53356.2
-50702
-49761.1
-46982.2
-45921.4
-42890.2
-41551.9
-38239.9
-36643.1
-33090.8
-31165
-27418.5
-25340.1
-21234.7
-18984.1
-14477.5
-11982.7
-7572.09
-5658.04
-7.15779e+06
-1.46611e+06
-920441
-363993
-185006
-115047
-100738
-97475.2
-97657.3
-97059.9
-95041.1
-91886.6
-88059.9
-83928.2
-80032.8
-76377.9
-73069.4
-70226.2
-67587.4
-65401.1
-63338.3
-61488.5
-59654
-58020.5
-56226.5
-54564.1
-52858
-51170.6
-49267
-47470.6
-45404.6
-43393.8
-41015.2
-38762.9
-36101
-33626
-30623
-27963.4
-24792.1
-21801.8
-18432.4
-14993.1
-11188
-7426.05
-2404.16
-8.40632e+06
-832982
-605359
-235967
-142948
-105422
-101597
-98878.9
-98943
-97247.9
-95362.9
-91591.8
-88262.7
-83604.4
-80283.2
-76101
-73347.1
-69948.6
-67860.9
-65100.6
-63649.3
-61184.1
-59968.1
-57707
-56546.1
-54201.5
-53198.5
-50834
-49600.6
-47126.2
-45760.8
-43053.1
-41368
-38386.3
-36447.5
-33261.3
-30959.8
-27604.3
-25166.8
-21453.6
-18831
-14589.2
-11380.4
-7010.53
-4230.65
-8.86633e+06
470750
45318.8
11268.8
-50859.1
-75438
-95290.3
-98517.3
-99350.6
-97630.1
-95312.5
-91643.4
-88140.6
-83653.5
-80194
-76262
-73248.8
-70135.6
-67696.2
-65283
-63512.8
-61377.5
-59798.5
-57923.6
-56328.5
-54377.1
-52994.1
-51067
-49347.8
-47364.1
-45535.7
-43314.2
-41103.6
-38641.7
-36116.5
-33567.3
-30593.6
-27927.5
-24866.1
-21748.2
-18615.2
-14804.5
-10992.6
-6560.87
-1460.15
-1.84546e+06
3.55822e+06
1.20193e+06
276905
-10224.3
-74614.6
-100220
-100996
-100850
-97461.9
-95725.7
-91035.9
-88634.1
-83042.7
-80747.3
-75839.2
-73778.7
-69735.1
-68148.5
-64806.8
-64091
-60873.5
-60317
-57455.6
-56846.3
-53740.1
-53587.4
-50544.4
-49834.9
-46830.7
-46091.8
-42777.4
-41615.6
-38098.8
-36512.7
-33184.1
-30882.4
-27546.9
-25319
-21232.1
-19249.8
-14214.9
-11387.3
-6143.03
-4077.74
-1.40775e+07
5.25073e+06
2.22215e+06
448188
-3259.26
-77775.2
-100511
-100588
-99819
-98144.7
-94260.6
-87829.9
-83693.5
-81634.2
-75836.4
-73265.1
-71296.6
-69953.3
-64974.2
-62821.6
-59680.4
-58857.1
-58029.8
-58258.8
-54829.7
-50550.4
-47684.3
-48101.2
-45828.8
-44280.6
-42929.5
-43508.4
-40653.7
-37513
-31821.9
-28764.8
-27845.3
-23036
-20536.7
-19092.9
-18195.1
-15017.5
-10507.5
-3595.74
2008.06
-1.01185e+08
-2.77289e+06
-701639
4.43463e+06
1.27233e+07
6.35098e+07
-3.68539e+06
-2.24515e+06
-350176
-7.35745e+06
1.09616e+08
3.75006e+06
-593015
-660094
-8.22936e+06
6.29579e+07
-3.48545e+06
-2.75958e+06
-2.93795e+06
-7.85705e+06
-8.79581e+07
-1.63702e+07
-2.3594e+06
-3.044e+06
-9.62398e+06
-1.84504e+06
3.55786e+06
1.2036e+06
276691
-9447.18
-75367.8
-99479.5
-101656
-99889.2
-98023.7
-94641.7
-91597.5
-87725.6
-83780.8
-79965.2
-76690.9
-73022.7
-70677.9
-67394
-65698.1
-63296.8
-61752.1
-59477.2
-58388.1
-55970.3
-54572.6
-52743.2
-51392.4
-48969.1
-47674
-45199.7
-43699.9
-40647.2
-38988.9
-35640.4
-34025
-29989.8
-28378.8
-24421.3
-22065.3
-18254.2
-15175.9
-10466
-7332.53
-3464.99
-8.86634e+06
471127
47377
11771.7
-50380.7
-75927.4
-94857.3
-98775.7
-98547.8
-97545.1
-94312.9
-91630.3
-87438.3
-83989.1
-79783.7
-76822.5
-72948.6
-70783.2
-67396.9
-65869.2
-63145.3
-61919.5
-59377.6
-58463.6
-55858.6
-54837.2
-52515.6
-51526.1
-48847.5
-47808.4
-45017
-43795
-40541.2
-39101.1
-35603.9
-33999.9
-30052.7
-28342.2
-24307.8
-22134.6
-18003.3
-15305.4
-10530.8
-7254
-1099.6
-8.40661e+06
-832183
-603447
-235022
-142731
-105637
-101454
-98817
-98283.3
-96586.8
-94396.3
-91058.4
-87726.3
-83588
-80202.1
-76417.2
-73449
-70351.6
-67959.8
-65432
-63657.3
-61441.4
-59909
-57914
-56422.2
-54341.9
-53039.1
-50951.1
-49416.8
-47221
-45560.9
-43154
-41144.4
-38473.7
-36237.1
-33330.1
-30723.4
-27651.4
-24905.4
-21460
-18534.7
-14697.1
-11241.5
-7343.43
-4250.08
-7.15817e+06
-1.46525e+06
-919055
-363150
-184938
-115151
-100726
-97324.9
-96996.2
-96078.6
-93945.1
-91051.1
-87504.4
-83758.4
-80072.1
-76638.4
-73352.1
-70584.9
-67863.1
-65678.6
-63506
-61667.9
-59734.7
-58120.1
-56229.1
-54594.6
-52808.6
-51163.8
-49187
-47435.7
-45304.8
-43350.4
-40900.4
-38706
-35979.3
-33550.5
-30476.5
-27865.7
-24620.9
-21662.8
-18234.5
-14913.6
-11150.7
-7568.54
-2461.59
-8.10032e+06
-2.21519e+06
-945718
-211424
-61108.1
-50077.9
-73939
-87687.1
-94541.8
-95002.6
-94096.5
-90663.7
-87871.8
-83455.3
-80506.1
-76351.1
-73856.1
-70272.2
-68382.2
-65332.2
-64027.9
-61273.1
-60244.2
-57680.3
-56744.8
-54130.2
-53337.2
-50660
-49706.2
-46907.3
-45844.5
-42800.6
-41462.2
-38136.7
-36534.7
-32966.4
-31031.7
-27273.3
-25183.5
-21057.5
-18796.6
-14337.7
-11917.2
-7682.58
-5808.09
)
;

boundaryField
{
    AirInlet
    {
        type            fixedFluxPressure;
        gradient        uniform 3.05861e+08;
        value           uniform -1.40744e+07;
    }
    WaterInlet
    {
        type            fixedFluxPressure;
        gradient        nonuniform List<scalar> 10(0 -0.0421585 0 0 0 0 -0.0463572 0 0 -0.064559);
        value           nonuniform List<scalar> 10(-8.79584e+07 6.29577e+07 1.09616e+08 6.35102e+07 -1.01184e+08 -1.01185e+08 6.35098e+07 1.09616e+08 6.29579e+07 -8.79581e+07);
    }
    ChannelWall
    {
        type            fixedFluxPressure;
        gradient        uniform 0;
        value           nonuniform List<scalar> 
110
(
-1.01184e+08
-2.77098e+06
-698284
4.43856e+06
1.27249e+07
-1.01185e+08
-2.77289e+06
-701639
4.43463e+06
1.27233e+07
-8.79581e+07
-1.63702e+07
-2.3594e+06
-3.044e+06
-9.62398e+06
-8.10032e+06
-2.21519e+06
-945718
-211424
-61108.1
-50077.9
-73939
-87687.1
-94541.8
-95002.6
-94096.5
-90663.7
-87871.8
-83455.3
-80506.1
-76351.1
-73856.1
-70272.2
-68382.2
-65332.2
-64027.9
-61273.1
-60244.2
-57680.3
-56744.8
-54130.2
-53337.2
-50660
-49706.2
-46907.3
-45844.5
-42800.6
-41462.2
-38136.7
-36534.7
-32966.4
-31031.7
-27273.3
-25183.5
-21057.5
-18796.6
-14337.7
-11917.2
-7682.58
-5808.09
-8.79584e+07
-1.63696e+07
-2.35826e+06
-3.04334e+06
-9.62257e+06
-8.09961e+06
-2.21591e+06
-946469
-212085
-61131.2
-50072.6
-73894.6
-87812.7
-95199.1
-96124.9
-95302.4
-91649.8
-88480.5
-83691.1
-80438.8
-76096.4
-73505.1
-69904.8
-68037.5
-65049.1
-63799.2
-61101.6
-60114.7
-57604.6
-56704.7
-54126.7
-53356.2
-50702
-49761.1
-46982.2
-45921.4
-42890.2
-41551.9
-38239.9
-36643.1
-33090.8
-31165
-27418.5
-25340.1
-21234.7
-18984.1
-14477.5
-11982.7
-7572.09
-5658.04
)
;
    }
    Outlet
    {
        type            totalPressure;
        rho             rho;
        psi             none;
        gamma           1;
        p0              uniform 0;
        value           uniform 0;
    }
    FrontAndBack
    {
        type            empty;
    }
}


// ************************************************************************* //
