/*--------------------------------*- C++ -*----------------------------------*\
| =========                 |                                                 |
| \\      /  F ield         | OpenFOAM: The Open Source CFD Toolbox           |
|  \\    /   O peration     | Version:  2.3.0                                 |
|   \\  /    A nd           | Web:      www.OpenFOAM.org                      |
|    \\/     M anipulation  |                                                 |
\*---------------------------------------------------------------------------*/
FoamFile
{
    version     2.0;
    format      ascii;
    class       volScalarField;
    location    "94";
    object      nut.water;
}
// * * * * * * * * * * * * * * * * * * * * * * * * * * * * * * * * * * * * * //

dimensions      [0 2 -1 0 0 0 0];

internalField   nonuniform List<scalar> 
1875
(
0.001045
0.00109833
0.00118836
0.00127233
0.00134865
0.0014154
0.00147307
0.00152276
0.00156552
0.0016029
0.00163596
0.00166437
0.00168759
0.0017061
0.00171187
0.00171187
0.00169854
0.00166339
0.00160946
0.0015369
0.00144665
0.00133839
0.00120849
0.00104753
0.000858164
0.00108696
0.00125997
0.00140357
0.00150527
0.00157702
0.0016261
0.00165883
0.00168064
0.00169391
0.00170038
0.00170776
0.00171375
0.00171906
0.00172481
0.00172934
0.00173241
0.00173002
0.00171443
0.001681
0.00161855
0.00152944
0.00140971
0.00125003
0.00104176
0.000802927
0.00138752
0.00159214
0.00174446
0.00183959
0.00189473
0.00192015
0.00192629
0.00191951
0.00190429
0.00188513
0.00186548
0.00184596
0.00182582
0.00180805
0.00179193
0.00177482
0.00175497
0.00172996
0.00169754
0.00163945
0.00156016
0.00145273
0.00131521
0.00115812
0.00101496
0.00179219
0.00200494
0.00210982
0.00214967
0.00215289
0.00213477
0.00210603
0.00207063
0.00203288
0.00199527
0.00195872
0.00192292
0.00188883
0.00185771
0.00182863
0.00180031
0.0017703
0.00173498
0.00169303
0.00163343
0.00155432
0.00145627
0.00133983
0.00121134
0.0010895
0.00228161
0.00235452
0.00235435
0.00232623
0.00228188
0.00222899
0.00217335
0.00211874
0.00206733
0.00201966
0.00197498
0.00193311
0.00189383
0.00185719
0.00182314
0.00178881
0.0017509
0.00171006
0.00166227
0.0016038
0.00153078
0.00144232
0.00134064
0.00123322
0.00112978
0.00259362
0.00258461
0.00252059
0.00243571
0.00234462
0.00225536
0.00217319
0.00210071
0.00203771
0.00198402
0.00193804
0.001897
0.00185847
0.00182123
0.00178256
0.00174285
0.00170396
0.00166432
0.00161605
0.0015596
0.00149367
0.00141665
0.00133271
0.001245
0.00115869
0.00275868
0.0027057
0.0025902
0.00246513
0.00234211
0.00222794
0.00212622
0.00203944
0.00196896
0.00191193
0.00186535
0.00182552
0.00178892
0.00175345
0.00171866
0.00168448
0.00164925
0.00161152
0.00156655
0.00151584
0.00145861
0.00139352
0.00132411
0.00125268
0.0011832
0.00294123
0.00280822
0.00263489
0.00246949
0.00231761
0.00217655
0.00205699
0.00195987
0.00188118
0.00182262
0.00177829
0.00174195
0.00170884
0.00167972
0.00165172
0.00162502
0.00159711
0.0015618
0.00152126
0.00147571
0.001425
0.00136801
0.0013084
0.00124563
0.00117739
0.00302987
0.00284773
0.00263628
0.00244624
0.00227182
0.00211446
0.00198174
0.00187566
0.00179108
0.00173749
0.00169691
0.00166506
0.00163966
0.00161663
0.00159675
0.0015757
0.00154777
0.00151508
0.00147872
0.00143816
0.00139273
0.0013413
0.00128626
0.00122561
0.00115689
0.00306055
0.00285028
0.00262104
0.00241727
0.00222498
0.00205328
0.00191095
0.00179718
0.00171793
0.00166735
0.00163597
0.00161359
0.00159375
0.00157612
0.00155864
0.00153738
0.00151331
0.00148574
0.00145326
0.00141526
0.00137167
0.00132204
0.00126673
0.00120353
0.00113111
0.0030983
0.00284714
0.00260119
0.00238726
0.00218754
0.00201188
0.00186903
0.00176096
0.00168532
0.00163997
0.00161181
0.0015932
0.00157961
0.00156845
0.00155532
0.00153869
0.00151722
0.00149014
0.00145711
0.00141791
0.00137163
0.00131912
0.00125878
0.00118894
0.00110829
0.00309535
0.00282269
0.00257256
0.00235936
0.00216489
0.00199688
0.00186293
0.00176437
0.00169919
0.00166123
0.00164049
0.00162874
0.00162113
0.00161348
0.00160284
0.0015873
0.00156546
0.00153634
0.00149989
0.00145543
0.00140259
0.00134076
0.00126834
0.00118253
0.00108041
0.00291415
0.0027146
0.00250999
0.0023244
0.00215121
0.00200023
0.00187915
0.00179307
0.00174044
0.00171349
0.00170312
0.00170121
0.00170129
0.00169901
0.00169112
0.00167696
0.00165472
0.00162343
0.00158249
0.00153136
0.00146956
0.00139698
0.00131304
0.00121382
0.00109962
0.00266676
0.00256126
0.00242448
0.00228266
0.00214229
0.00201691
0.00191797
0.0018504
0.00181243
0.00179719
0.00179599
0.00180119
0.00180713
0.00180919
0.00180495
0.00179365
0.00177296
0.00174175
0.00169905
0.00164417
0.00157644
0.00149489
0.00140126
0.00129286
0.00118086
0.00247359
0.00242791
0.00234525
0.00224611
0.00214128
0.00204487
0.00196852
0.00191841
0.00189367
0.00188823
0.00189457
0.001906
0.00191756
0.00192545
0.00192687
0.0019214
0.00190628
0.00188005
0.00184121
0.001788
0.00171897
0.0016338
0.00152952
0.00140468
0.00127281
0.00237943
0.00234992
0.00229434
0.00222456
0.00214866
0.0020772
0.00202101
0.00198602
0.00197165
0.00197335
0.00198519
0.00200182
0.00201919
0.00203411
0.00204338
0.00204665
0.00204124
0.00202531
0.00199668
0.00195302
0.00189127
0.00180814
0.0016994
0.00156078
0.0013968
0.00231997
0.00230153
0.00226494
0.00221723
0.00216295
0.00211134
0.00207093
0.00204714
0.00204049
0.00204714
0.00206269
0.00208319
0.00210547
0.00212659
0.00214435
0.00215729
0.00216409
0.00216212
0.00214921
0.00212348
0.00208123
0.00201825
0.00192708
0.00179782
0.00161548
0.00229681
0.00228268
0.00225735
0.00222267
0.00218254
0.00214541
0.00211649
0.00210065
0.00209853
0.00210808
0.00212598
0.00214902
0.00217454
0.00220037
0.00222483
0.0022461
0.00226293
0.00227394
0.00227791
0.00227302
0.00225726
0.00222749
0.00217836
0.00210268
0.00197531
0.00230873
0.00228954
0.00226721
0.0022421
0.00221298
0.0021846
0.00216189
0.00214943
0.0021484
0.00215813
0.00217623
0.00220011
0.00222745
0.00225618
0.00228484
0.00231191
0.00233581
0.00235519
0.00236918
0.00237774
0.00237947
0.00237206
0.00235288
0.00232315
0.0022779
0.00232456
0.00230572
0.00228755
0.0022674
0.00224638
0.00222426
0.00220581
0.00219392
0.00219155
0.00219908
0.00221569
0.00223903
0.00226686
0.00229707
0.00232842
0.00235933
0.00238827
0.00241391
0.00243529
0.00245171
0.0024616
0.00246325
0.00245405
0.00243303
0.00239122
0.00228879
0.0022854
0.00227942
0.002269
0.00225821
0.00224544
0.00223302
0.00222401
0.00222205
0.00222888
0.00224359
0.00226585
0.00229351
0.00232506
0.00235868
0.00239277
0.00242585
0.00245653
0.00248366
0.00250598
0.00252221
0.0025297
0.00252502
0.00250917
0.00247937
0.00219737
0.00220958
0.00222208
0.00222881
0.00223043
0.00222944
0.00222746
0.00222697
0.00222878
0.00223697
0.00225394
0.00227669
0.00230511
0.00233913
0.00237605
0.00241413
0.00245179
0.00248752
0.00251992
0.00254731
0.00256774
0.00257906
0.00257754
0.00256337
0.00253909
0.00197906
0.00203409
0.00208054
0.0021201
0.00215129
0.00217306
0.00218562
0.00219515
0.00220597
0.00221946
0.00223867
0.00226536
0.00229742
0.00233652
0.00237934
0.00242367
0.00246768
0.00250974
0.00254826
0.00258141
0.00260673
0.0026212
0.0026216
0.00260553
0.00257327
0.00168569
0.00180027
0.00189173
0.00196513
0.00202479
0.0020724
0.00211082
0.00213987
0.00216285
0.00218495
0.0022077
0.00223729
0.00227595
0.00232128
0.00237147
0.00242344
0.00247539
0.00252569
0.00257213
0.00261291
0.00264561
0.00266708
0.00267391
0.00266377
0.00263707
0.0014791
0.0016284
0.00174871
0.00184531
0.00192349
0.00198469
0.00203371
0.00207469
0.00211037
0.00214269
0.00217569
0.00221119
0.00225255
0.00230233
0.00235925
0.00241951
0.0024801
0.00253867
0.00259446
0.00264456
0.00268692
0.00271854
0.00273661
0.00274041
0.00272951
0.00141708
0.00157346
0.00170597
0.00181419
0.00189787
0.00196386
0.00201339
0.00205306
0.00208738
0.00212097
0.002156
0.00219586
0.00224057
0.00229289
0.00235273
0.00241854
0.00248728
0.002554
0.00261881
0.00267899
0.00273223
0.00277587
0.00280788
0.00282903
0.00283856
0.00142947
0.00159615
0.00174002
0.00185671
0.00194689
0.00201303
0.00205901
0.00209209
0.00211869
0.00214376
0.00217172
0.00220653
0.00225003
0.00230297
0.00236348
0.00243118
0.00250393
0.00257747
0.00264976
0.00271933
0.00278317
0.00283888
0.00288573
0.00292587
0.00295808
0.00151539
0.00169232
0.00184548
0.00196628
0.0020572
0.00211949
0.0021588
0.00217982
0.00219223
0.00220328
0.0022196
0.00224577
0.00228342
0.00233275
0.00239246
0.00246088
0.00253553
0.00261295
0.00269085
0.00276776
0.00284055
0.00290716
0.00296767
0.00302622
0.00308113
0.00165775
0.00184474
0.00200367
0.00212508
0.00221178
0.00226642
0.00229569
0.00230501
0.00230378
0.00230076
0.00230386
0.00231911
0.00234799
0.00239056
0.00244556
0.00251087
0.002584
0.00266189
0.00274259
0.00282396
0.002903
0.00297756
0.00304854
0.00312264
0.00319653
0.00187017
0.00205585
0.00220749
0.00232165
0.0023973
0.00243888
0.00245373
0.00244918
0.00243442
0.00241821
0.00240876
0.00241313
0.00243288
0.00246793
0.0025169
0.00257772
0.00264772
0.00272367
0.00280365
0.00288551
0.00296662
0.00304447
0.00312136
0.0032072
0.00329503
0.00217525
0.0023318
0.00245376
0.00254449
0.00259923
0.00262138
0.00261857
0.00259904
0.00257125
0.00254345
0.00252396
0.00251919
0.00253089
0.00255894
0.00260189
0.00265731
0.00272223
0.00279379
0.00286966
0.00294774
0.00302587
0.0031017
0.00317841
0.00326784
0.00336153
0.00253929
0.00264873
0.00272675
0.00277987
0.0028043
0.00280237
0.00278028
0.00274546
0.00270534
0.00266835
0.00264148
0.00262997
0.002635
0.0026566
0.00269316
0.00274198
0.0028
0.00286438
0.00293261
0.00300265
0.00307261
0.00314063
0.0032105
0.00329557
0.00339071
0.00293944
0.00297553
0.00299604
0.00300539
0.00299815
0.0029721
0.00293182
0.00288311
0.00283332
0.00278939
0.00275695
0.00274041
0.00273984
0.00275533
0.00278509
0.00282614
0.00287549
0.00293017
0.00298745
0.00304518
0.00310106
0.00315303
0.00320314
0.00326129
0.00332342
0.00324385
0.00323141
0.00321606
0.00319801
0.00316773
0.00312351
0.00306907
0.0030105
0.00295387
0.00290525
0.00286897
0.00284838
0.00284313
0.00285254
0.00287483
0.00290729
0.00294679
0.00299027
0.00303488
0.00307815
0.00311715
0.00314924
0.0031752
0.00320163
0.00322381
0.00342204
0.00341165
0.00338849
0.00335789
0.00331409
0.00325775
0.00319422
0.0031291
0.00306862
0.00301731
0.00297844
0.00295368
0.00294392
0.00294742
0.00296247
0.00298634
0.00301603
0.00304835
0.00308079
0.00311012
0.00313324
0.00314776
0.00315432
0.00315886
0.00315679
0.00361305
0.0035863
0.00354911
0.00350503
0.00344896
0.00338302
0.00331264
0.00324336
0.00318027
0.00312711
0.00308586
0.00305817
0.00304428
0.00304254
0.00305096
0.00306709
0.00308797
0.00311092
0.00313286
0.00315046
0.00316012
0.00315963
0.00314919
0.00313252
0.00310175
0.00379714
0.00375432
0.00370318
0.00364625
0.00357909
0.003505
0.00342952
0.00335714
0.00329207
0.00323727
0.00319452
0.003165
0.00314758
0.00314143
0.00314442
0.00315426
0.00316846
0.00318422
0.00319849
0.00320771
0.00320847
0.00319858
0.0031787
0.0031519
0.00310862
0.00397479
0.00391726
0.00385311
0.00378498
0.00370859
0.00362835
0.00354924
0.00347523
0.00340915
0.00335333
0.00330955
0.00327763
0.00325734
0.00324755
0.00324642
0.0032518
0.0032613
0.00327229
0.00328168
0.00328589
0.00328204
0.00326812
0.0032454
0.00321658
0.00317243
0.00415067
0.00407948
0.00400301
0.00392496
0.00384144
0.003757
0.00367583
0.00360074
0.00353426
0.00347801
0.0034325
0.00339856
0.00337599
0.00336349
0.00335934
0.00336156
0.00336792
0.00337586
0.00338231
0.00338387
0.00337819
0.00336371
0.00334201
0.00331573
0.00327753
0.00432939
0.00424519
0.00415652
0.00406952
0.00398058
0.00389308
0.00381017
0.00373416
0.00366697
0.00360996
0.00356384
0.00352881
0.0035045
0.00348992
0.00348346
0.00348329
0.00348726
0.00349282
0.00349694
0.00349648
0.00348947
0.00347499
0.00345519
0.00343371
0.00341054
0.00451416
0.00441653
0.00431536
0.00422016
0.00412693
0.00403704
0.00395279
0.00387604
0.00380837
0.00375085
0.00370407
0.00366813
0.00364254
0.00362626
0.00361782
0.00361547
0.00361711
0.00362011
0.00362139
0.0036179
0.00360777
0.00358942
0.00356507
0.00353767
0.00350931
0.00469725
0.0045892
0.00447888
0.00437727
0.00428042
0.00418859
0.00410331
0.00402606
0.00395808
0.00390021
0.00385289
0.00381616
0.00378941
0.00377157
0.00376124
0.00375673
0.00375592
0.0037561
0.00375412
0.00374698
0.00373268
0.0037098
0.00367889
0.00364062
0.00359429
0.0048762
0.00476159
0.00464551
0.00453954
0.00444002
0.00434679
0.00426086
0.00418336
0.00411525
0.00405719
0.00400945
0.00397195
0.0039441
0.00392478
0.00391264
0.00390605
0.00390289
0.0039005
0.00389582
0.0038856
0.00386791
0.00384314
0.00381208
0.00377707
0.00373972
0.00505525
0.00493565
0.00481545
0.00470626
0.00460486
0.00451071
0.00442445
0.00434692
0.00427887
0.00422074
0.00417263
0.00413439
0.00410548
0.00408473
0.00407084
0.00406219
0.00405665
0.00405161
0.00404397
0.00403106
0.00401111
0.00398305
0.00394976
0.0039136
0.00387796
0.00523376
0.00511049
0.00498748
0.00487624
0.00477367
0.00467907
0.00459278
0.00451541
0.00444746
0.00438929
0.00434098
0.00430219
0.00427233
0.00425031
0.00423485
0.00422436
0.00421677
0.00420899
0.00419833
0.00418282
0.00416053
0.00412912
0.00409015
0.00404337
0.00398854
0.00540979
0.00528463
0.00516024
0.00504797
0.004945
0.00485046
0.0047645
0.00468755
0.00462005
0.00456218
0.00451358
0.00447427
0.00444359
0.00442048
0.00440366
0.00439164
0.00438238
0.0043732
0.00436147
0.00434433
0.00431997
0.00428835
0.00425037
0.00420675
0.00416034
0.0055822
0.00545667
0.00533224
0.00522007
0.00511752
0.00502373
0.00493851
0.00486215
0.00479528
0.00473759
0.00468892
0.00464936
0.00461818
0.00459432
0.0045766
0.00456305
0.00455219
0.00454238
0.00452979
0.00451193
0.00448715
0.00445521
0.00441766
0.00437588
0.00433199
0.00575
0.0056257
0.00550246
0.00539138
0.00528983
0.005197
0.00511276
0.00503735
0.00497092
0.00491342
0.00486584
0.00482654
0.0047949
0.00477046
0.00475207
0.00473814
0.0047266
0.00471535
0.00470162
0.00468354
0.00465936
0.00462777
0.00459063
0.00454789
0.00450075
0.00591356
0.00579149
0.00567003
0.00556014
0.00545957
0.00536741
0.00528448
0.0052108
0.00514548
0.00508976
0.00504267
0.00500379
0.00497263
0.00494796
0.00492859
0.00491458
0.00490309
0.00489148
0.0048784
0.00486098
0.00483767
0.00480755
0.00477243
0.00473246
0.00469061
0.00607702
0.00595527
0.00583442
0.00572522
0.00562634
0.00553678
0.00545557
0.00538286
0.00531959
0.00526479
0.00521775
0.00517944
0.00514915
0.00512512
0.00510649
0.00509194
0.00508064
0.00507048
0.00505835
0.00504216
0.00502039
0.00499263
0.0049605
0.00492405
0.00488494
0.00623813
0.00611346
0.00599319
0.00588656
0.00579011
0.00570275
0.00562377
0.00555313
0.00549117
0.00543708
0.00539214
0.00535488
0.00532469
0.00530152
0.0052845
0.00527125
0.00526088
0.00525128
0.0052401
0.00522553
0.00520605
0.00518136
0.00515297
0.005121
0.00508592
0.00636656
0.00625348
0.0061406
0.00603874
0.00594588
0.00586103
0.00578509
0.00571795
0.00565825
0.00560758
0.00556463
0.00552906
0.00550033
0.00547812
0.0054614
0.0054496
0.00544037
0.00543176
0.00542248
0.00540999
0.00539341
0.00537212
0.00534781
0.00532016
0.00529023
0.00649898
0.00638832
0.00627973
0.00618181
0.00609365
0.00601419
0.00594213
0.00587759
0.0058217
0.00577327
0.00573183
0.00569839
0.00567243
0.00565207
0.0056366
0.00562547
0.00561787
0.0056116
0.00560438
0.00559456
0.00558096
0.00556333
0.00554363
0.00552177
0.00549953
0.00659319
0.00650074
0.00640446
0.00631633
0.00623496
0.00616054
0.00609303
0.00603268
0.00597984
0.00593395
0.00589621
0.00586521
0.00584042
0.00582202
0.00580919
0.00580078
0.00579504
0.0057907
0.00578561
0.00577841
0.00576787
0.00575362
0.00573729
0.00571883
0.00569911
0.00673082
0.00663049
0.00653382
0.00644792
0.00637023
0.00629952
0.00623658
0.00618123
0.00613208
0.00609073
0.00605625
0.00602832
0.00600661
0.00599082
0.00598021
0.00597381
0.0059702
0.00596808
0.00596573
0.00596135
0.00595412
0.00594348
0.00593088
0.00591633
0.00589999
0.00684064
0.00673944
0.00664708
0.00656617
0.00649466
0.00643102
0.00637363
0.00632248
0.0062788
0.00624141
0.00620986
0.00618536
0.00616762
0.00615495
0.00614695
0.00614267
0.00614204
0.0061431
0.00614406
0.00614329
0.00613971
0.00613308
0.00612474
0.00611448
0.00610202
0.00685659
0.00679932
0.00673263
0.00666887
0.00660866
0.00655313
0.00650262
0.00645754
0.00641845
0.00638493
0.00635847
0.00633768
0.00632225
0.0063127
0.00630829
0.00630841
0.00631124
0.00631567
0.00632033
0.00632373
0.0063247
0.00632292
0.00631976
0.00631476
0.00630729
0.00697594
0.00690338
0.00683439
0.0067733
0.00671797
0.00666751
0.0066229
0.00658421
0.0065502
0.00652267
0.00650066
0.00648408
0.00647291
0.0064671
0.00646614
0.00646939
0.0064758
0.00648418
0.0064933
0.00650173
0.0065083
0.00651272
0.00651623
0.00651824
0.00651716
0.00704901
0.00698031
0.00691879
0.00686471
0.00681705
0.00677483
0.00673676
0.00670303
0.00667507
0.00665195
0.00663353
0.00662121
0.0066149
0.00661311
0.00661564
0.00662192
0.00663232
0.00664566
0.00666027
0.00667487
0.00668841
0.0067009
0.00671342
0.00672544
0.00673423
0.00703694
0.00701432
0.0069796
0.00694304
0.00690683
0.00687277
0.0068415
0.00681378
0.00679034
0.00677108
0.00675752
0.00674907
0.00674509
0.0067465
0.00675301
0.00676438
0.00677931
0.00679725
0.00681755
0.00683907
0.00686101
0.00688336
0.00690745
0.00693298
0.00695598
0.0071447
0.00710462
0.00706453
0.00702747
0.0069934
0.00696217
0.00693502
0.0069123
0.00689306
0.00687909
0.00686961
0.00686448
0.00686394
0.00686832
0.00687755
0.00689153
0.00690984
0.00693208
0.00695809
0.00698708
0.00701845
0.00705242
0.00709017
0.00713098
0.00716876
0.00722801
0.00718269
0.00713984
0.00710092
0.00706743
0.00703898
0.00701477
0.00699483
0.00697985
0.00696936
0.00696262
0.0069597
0.00696203
0.00696837
0.00697891
0.00699371
0.00701401
0.00704007
0.00707138
0.00710807
0.00715021
0.00719858
0.00725398
0.00731475
0.00737008
0.00726908
0.00723545
0.00719284
0.00715306
0.00711896
0.00709145
0.00706988
0.00705361
0.00704227
0.00703466
0.00703131
0.00703133
0.00703421
0.00704053
0.0070506
0.00706505
0.00708434
0.00710975
0.00714268
0.00718483
0.00723815
0.00730528
0.00738875
0.00748763
0.00758511
0.00740258
0.00730972
0.00722873
0.00716778
0.0071256
0.00709846
0.00708228
0.00707386
0.00707062
0.00707065
0.00707278
0.0070764
0.00708022
0.00708469
0.00709018
0.00709763
0.00710822
0.00712431
0.00714935
0.0071877
0.00724502
0.007329
0.00744871
0.00761069
0.00779454
0.00747706
0.00728145
0.00714893
0.00707242
0.00703543
0.00702403
0.00702779
0.00703964
0.00705491
0.00707032
0.0070834
0.00709284
0.00709807
0.00709872
0.00709505
0.00708784
0.00707889
0.00707105
0.00706891
0.0070794
0.00711289
0.00718515
0.00731947
0.00754535
0.00786189
0.00716959
0.00690268
0.00679032
0.00677041
0.00679788
0.00684693
0.0069032
0.00695844
0.00700771
0.00704852
0.00707923
0.00709888
0.00710672
0.00710255
0.00708621
0.00705781
0.00701783
0.0069678
0.00691105
0.00685354
0.0068056
0.0067862
0.00682874
0.00699397
0.00735164
0.00577625
0.00586513
0.00605413
0.00625974
0.00645235
0.0066216
0.0067648
0.0068829
0.00697762
0.00705041
0.00710244
0.00713449
0.00714692
0.00713913
0.00711051
0.00705986
0.00698569
0.006886
0.00675858
0.00660138
0.00641318
0.00619692
0.00596444
0.00574967
0.00564876
0.00366449
0.00461195
0.00532664
0.00583834
0.00621574
0.00650127
0.00672064
0.00689025
0.00702053
0.00711818
0.00718725
0.00723005
0.0072478
0.00723987
0.00720527
0.00714181
0.00704581
0.00691175
0.00673171
0.00649436
0.00618231
0.00576912
0.00521465
0.00445725
0.00349262
0.00596914
0.0059094
0.00607098
0.00629753
0.00653942
0.0067664
0.00696416
0.00712871
0.00726089
0.00736299
0.00743717
0.00748497
0.00750765
0.00750434
0.00747405
0.0074149
0.00732361
0.00719557
0.00702538
0.00680917
0.00654787
0.00625485
0.00596987
0.0057637
0.0058065
0.0140498
0.00862571
0.00731856
0.0069451
0.00693588
0.00705775
0.00721686
0.00737009
0.00750009
0.00760335
0.00768026
0.00773175
0.00775989
0.00776373
0.00774154
0.00769344
0.00761887
0.00751192
0.00736717
0.00718442
0.00698843
0.00687506
0.00709106
0.00840888
0.0147005
0.0424574
0.0154036
0.00917169
0.00766089
0.00735282
0.00740746
0.00757324
0.00772817
0.00786143
0.00796849
0.00805072
0.00811072
0.008152
0.00817889
0.00818986
0.00818363
0.00814507
0.00806735
0.00793056
0.00769005
0.00740058
0.00728464
0.00784259
0.0114369
0.0267678
0.0504708
0.0200499
0.0102363
0.00815071
0.00774135
0.00769275
0.00746312
0.00717368
0.00684037
0.00653087
0.00629529
0.0061325
0.00602001
0.00597579
0.00596336
0.00604924
0.0062528
0.00658399
0.00698405
0.00751751
0.00759748
0.00766711
0.00854156
0.013631
0.031275
0.0226123
0.0146606
0.00902243
0.00653416
0.00565648
0.00450298
0.00357496
0.00266983
0.00186714
0.00134103
0.00107413
0.000892328
0.000741059
0.000678167
0.000656437
0.000701113
0.000918668
0.00132717
0.0018577
0.00266941
0.00440566
0.00645124
0.00827199
0.0124363
0.0188068
0.0137041
0.0117784
0.00684515
0.00430948
0.00268872
0.00161297
0.00103106
0.000492688
0.000157132
3.74803e-05
8.01554e-06
4.83553e-06
3.41555e-06
2.98604e-06
2.85127e-06
3.40276e-06
5.70481e-06
1.22478e-05
2.77676e-05
0.00014782
0.000741603
0.00230434
0.005743
0.0105227
0.0128885
0.00647504
0.00697606
0.00440154
0.00202595
0.000920362
0.000414728
0.000185489
6.56489e-05
1.20349e-05
1.00594e-06
6.1529e-07
6.79919e-07
6.95596e-07
7.22349e-07
7.81546e-07
8.56007e-07
9.38703e-07
1.09721e-06
1.50167e-06
3.29673e-06
5.1944e-05
0.000618554
0.00277081
0.00617669
0.00679754
)
;

boundaryField
{
    inlet
    {
        type            calculated;
        value           uniform 8.4375e-07;
    }
    outlet
    {
        type            calculated;
        value           nonuniform List<scalar> 
25
(
0.00647504
0.00697606
0.00440154
0.00202595
0.000920362
0.000414728
0.000185489
6.56489e-05
8.4375e-07
8.4375e-07
8.4375e-07
8.4375e-07
8.4375e-07
8.4375e-07
8.4375e-07
8.4375e-07
8.4375e-07
8.4375e-07
8.4375e-07
8.4375e-07
8.4375e-07
0.000618554
0.00277081
0.00617669
0.00679754
)
;
    }
    walls
    {
        type            nutkWallFunction;
        Cmu             0.09;
        kappa           0.41;
        E               9.8;
        value           nonuniform List<scalar> 
150
(
1.69174e-05
1.92044e-05
1.98987e-05
2.01378e-05
2.03326e-05
2.07138e-05
2.10903e-05
2.14231e-05
2.16238e-05
2.17407e-05
2.17677e-05
2.16872e-05
2.15985e-05
2.1503e-05
2.13926e-05
2.12806e-05
2.12023e-05
2.11564e-05
2.11272e-05
2.11015e-05
2.10341e-05
2.08551e-05
2.05403e-05
2.01557e-05
1.98168e-05
1.96809e-05
1.97996e-05
2.01196e-05
2.05218e-05
2.09439e-05
2.13587e-05
2.17507e-05
2.21052e-05
2.24076e-05
2.2663e-05
2.28922e-05
2.31075e-05
2.33036e-05
2.34772e-05
2.36378e-05
2.37874e-05
2.39313e-05
2.40789e-05
2.42312e-05
2.43879e-05
2.45477e-05
2.47092e-05
2.48711e-05
2.50325e-05
2.51922e-05
2.53484e-05
2.54985e-05
2.56449e-05
2.57852e-05
2.59198e-05
2.60544e-05
2.61853e-05
2.63149e-05
2.64527e-05
2.65981e-05
2.6758e-05
2.69471e-05
2.7172e-05
2.74491e-05
2.78056e-05
2.82881e-05
2.89889e-05
2.99874e-05
3.0073e-05
2.95912e-05
2.78897e-05
2.63257e-05
2.51553e-05
2.45887e-05
2.33686e-05
1.43728e-05
1.69533e-05
1.78711e-05
1.83029e-05
1.84856e-05
1.85556e-05
1.85398e-05
1.84793e-05
1.83535e-05
1.82364e-05
1.82229e-05
1.83642e-05
1.86956e-05
1.91497e-05
1.96208e-05
1.99883e-05
2.03425e-05
2.06816e-05
2.09533e-05
2.1139e-05
2.12637e-05
2.13669e-05
2.1466e-05
2.15615e-05
2.16557e-05
2.17498e-05
2.18456e-05
2.19459e-05
2.20474e-05
2.21322e-05
2.21902e-05
2.223e-05
2.22645e-05
2.2292e-05
2.23206e-05
2.23769e-05
2.24707e-05
2.26062e-05
2.2772e-05
2.2936e-05
2.30955e-05
2.32675e-05
2.3454e-05
2.3651e-05
2.38468e-05
2.40487e-05
2.42573e-05
2.44614e-05
2.46641e-05
2.48657e-05
2.50634e-05
2.5257e-05
2.54458e-05
2.56307e-05
2.58119e-05
2.59908e-05
2.61693e-05
2.63494e-05
2.65346e-05
2.67291e-05
2.69394e-05
2.71743e-05
2.74446e-05
2.77673e-05
2.81746e-05
2.87295e-05
2.95547e-05
3.07401e-05
3.09235e-05
3.05366e-05
2.92418e-05
2.76859e-05
2.68393e-05
2.62346e-05
2.48168e-05
)
;
    }
    defaultFaces
    {
        type            empty;
    }
}


// ************************************************************************* //
