/*--------------------------------*- C++ -*----------------------------------*\
| =========                 |                                                 |
| \\      /  F ield         | OpenFOAM: The Open Source CFD Toolbox           |
|  \\    /   O peration     | Version:  2.3.0                                 |
|   \\  /    A nd           | Web:      www.OpenFOAM.org                      |
|    \\/     M anipulation  |                                                 |
\*---------------------------------------------------------------------------*/
FoamFile
{
    version     2.0;
    format      ascii;
    class       volScalarField;
    location    "0.540061";
    object      k.air;
}
// * * * * * * * * * * * * * * * * * * * * * * * * * * * * * * * * * * * * * //

dimensions      [0 2 -2 0 0 0 0];

internalField   nonuniform List<scalar> 
1000
(
0.00116379
0.00109179
0.00108461
0.00108743
0.00108839
0.00108875
0.00108886
0.00108889
0.0010889
0.0010889
0.00108889
0.00108889
0.00108888
0.00108885
0.00108874
0.00108838
0.00108743
0.00108461
0.0010918
0.00116376
1.05572e-05
4.23996e-06
4.6855e-06
4.97033e-06
5.04752e-06
5.07478e-06
5.08259e-06
5.08452e-06
5.0849e-06
5.08498e-06
5.08472e-06
5.08427e-06
5.08317e-06
5.08077e-06
5.07279e-06
5.0462e-06
4.97016e-06
4.68624e-06
4.24059e-06
1.05602e-05
4.45571e-05
2.97873e-05
3.46571e-05
3.63442e-05
3.69222e-05
3.71273e-05
3.71985e-05
3.72226e-05
3.72306e-05
3.72328e-05
3.72314e-05
3.72267e-05
3.72154e-05
3.71891e-05
3.71179e-05
3.69163e-05
3.63442e-05
3.46608e-05
2.97923e-05
4.45678e-05
0.000187091
0.000222931
0.000223329
0.000223775
0.000223758
0.000223742
0.000223714
0.000223692
0.000223678
0.00022367
0.000223671
0.000223678
0.000223693
0.000223715
0.000223743
0.00022376
0.000223777
0.000223331
0.000222933
0.000187096
0.000207005
0.000221536
0.000220344
0.000220533
0.000220382
0.000220301
0.00022023
0.000220182
0.000220152
0.000220138
0.000220139
0.000220154
0.000220185
0.000220235
0.000220306
0.000220386
0.000220536
0.000220346
0.000221538
0.000207005
0.000215073
0.000228117
0.000226962
0.000226982
0.000226881
0.000226823
0.000226771
0.000226736
0.000226713
0.000226703
0.000226704
0.000226716
0.000226739
0.000226776
0.000226827
0.000226886
0.000226986
0.000226964
0.000228119
0.000215073
0.000215224
0.000227502
0.000226566
0.000226601
0.00022657
0.000226542
0.000226509
0.000226481
0.00022646
0.000226451
0.000226452
0.000226462
0.000226483
0.000226513
0.000226545
0.000226574
0.000226604
0.000226569
0.000227505
0.000215224
0.00021539
0.000227363
0.000226423
0.000226414
0.000226403
0.000226389
0.000226374
0.000226359
0.000226346
0.000226339
0.00022634
0.000226347
0.000226359
0.000226377
0.000226392
0.000226405
0.000226416
0.000226426
0.000227366
0.000215391
0.000215434
0.000227458
0.000226526
0.000226519
0.000226521
0.000226515
0.000226501
0.000226494
0.000226494
0.00022649
0.00022649
0.000226495
0.000226499
0.000226503
0.000226517
0.000226524
0.000226521
0.000226529
0.000227459
0.000215435
0.000215476
0.000227414
0.000226481
0.000226461
0.000226464
0.00022646
0.000226453
0.000226444
0.000226438
0.000226434
0.000226435
0.000226439
0.000226445
0.000226454
0.000226462
0.000226466
0.000226464
0.000226484
0.000227417
0.000215477
0.000777982
0.000410975
0.000394906
0.000395244
0.000395399
0.000395459
0.000395479
0.000395486
0.000395488
0.000395488
0.000395489
0.000395489
0.000395488
0.000395481
0.000395461
0.0003954
0.000395243
0.000394904
0.000410973
0.000777955
4.26786e-06
2.74662e-05
2.5812e-05
2.56252e-05
2.55531e-05
2.55215e-05
2.55078e-05
2.55019e-05
2.54993e-05
2.54983e-05
2.54982e-05
2.5499e-05
2.55014e-05
2.55072e-05
2.55208e-05
2.55526e-05
2.5625e-05
2.58121e-05
2.74664e-05
4.2685e-06
8.54496e-06
3.47877e-05
3.64445e-05
3.70032e-05
3.73206e-05
3.74455e-05
3.75003e-05
3.75248e-05
3.75356e-05
3.75394e-05
3.75383e-05
3.75322e-05
3.75192e-05
3.74934e-05
3.74389e-05
3.73164e-05
3.70022e-05
3.64458e-05
3.47903e-05
8.54824e-06
0.000132784
0.000139805
0.00014052
0.000140785
0.000140986
0.000141059
0.000141091
0.000141106
0.000141112
0.000141114
0.000141114
0.000141111
0.000141104
0.000141089
0.000141057
0.000140985
0.000140785
0.000140521
0.000139807
0.000132792
0.000177872
0.000157554
0.000156064
0.000156082
0.000156092
0.000156088
0.000156081
0.000156075
0.000156071
0.000156068
0.000156068
0.000156071
0.000156075
0.000156082
0.000156088
0.000156092
0.000156083
0.000156065
0.000157554
0.000177872
0.000185064
0.000160446
0.000158645
0.000158603
0.000158595
0.000158587
0.000158579
0.000158573
0.000158569
0.000158567
0.000158567
0.000158569
0.000158573
0.000158579
0.000158587
0.000158595
0.000158604
0.000158645
0.000160446
0.000185064
0.000185649
0.000160577
0.000158762
0.000158722
0.00015872
0.000158717
0.000158713
0.000158708
0.000158704
0.000158703
0.000158703
0.000158705
0.000158708
0.000158713
0.000158717
0.000158721
0.000158722
0.000158763
0.000160577
0.000185649
0.000185761
0.000160574
0.000158749
0.000158703
0.000158703
0.000158701
0.0001587
0.000158698
0.000158696
0.000158695
0.000158695
0.000158696
0.000158698
0.0001587
0.000158702
0.000158703
0.000158703
0.000158749
0.000160574
0.000185761
0.000185788
0.000160587
0.00015876
0.000158713
0.000158714
0.000158715
0.000158713
0.000158713
0.000158714
0.000158713
0.000158713
0.000158714
0.000158714
0.000158714
0.000158715
0.000158715
0.000158713
0.00015876
0.000160586
0.000185788
0.000185806
0.000160585
0.000158757
0.000158707
0.000158709
0.000158709
0.000158709
0.000158708
0.000158708
0.000158707
0.000158707
0.000158708
0.000158708
0.000158709
0.000158709
0.000158709
0.000158707
0.000158757
0.000160585
0.000185806
0.000768192
0.000349731
0.000331568
0.000331485
0.000331477
0.000331473
0.00033147
0.000331469
0.00033147
0.00033147
0.000331472
0.000331474
0.000331476
0.000331478
0.00033148
0.000331481
0.000331484
0.000331563
0.000349725
0.000768165
8.77786e-06
2.66815e-05
2.48375e-05
2.46552e-05
2.45822e-05
2.45499e-05
2.45358e-05
2.45296e-05
2.4527e-05
2.4526e-05
2.45259e-05
2.45268e-05
2.45292e-05
2.45352e-05
2.45493e-05
2.45817e-05
2.46549e-05
2.48373e-05
2.66816e-05
8.77862e-06
9.24172e-06
3.16313e-05
3.2874e-05
3.33225e-05
3.36041e-05
3.37174e-05
3.3769e-05
3.37928e-05
3.38036e-05
3.38075e-05
3.38065e-05
3.38005e-05
3.37876e-05
3.37626e-05
3.37116e-05
3.36004e-05
3.33213e-05
3.2875e-05
3.16334e-05
9.24413e-06
0.000114506
0.000118466
0.000118949
0.000119161
0.000119385
0.000119473
0.000119516
0.000119538
0.000119549
0.000119553
0.000119553
0.000119548
0.000119536
0.000119514
0.000119471
0.000119384
0.000119161
0.00011895
0.000118468
0.000114514
0.000167976
0.000140477
0.000138766
0.000138749
0.000138779
0.000138788
0.000138791
0.000138792
0.000138793
0.000138792
0.000138792
0.000138792
0.000138792
0.000138791
0.000138788
0.000138779
0.00013875
0.000138767
0.000140477
0.000167977
0.000175529
0.000143008
0.00014093
0.000140875
0.000140877
0.000140877
0.000140876
0.000140875
0.000140874
0.000140874
0.000140874
0.000140874
0.000140875
0.000140876
0.000140877
0.000140877
0.000140875
0.00014093
0.000143008
0.000175528
0.000176237
0.000143212
0.000141088
0.000141032
0.000141033
0.000141033
0.000141033
0.000141032
0.000141031
0.00014103
0.000141031
0.000141031
0.000141032
0.000141033
0.000141033
0.000141033
0.000141032
0.000141088
0.000143212
0.000176236
0.000176344
0.000143231
0.000141096
0.000141039
0.000141039
0.00014104
0.00014104
0.00014104
0.000141039
0.000141039
0.000141039
0.00014104
0.00014104
0.00014104
0.00014104
0.000141039
0.000141039
0.000141096
0.000143231
0.000176344
0.000176367
0.000143235
0.000141098
0.00014104
0.000141041
0.000141041
0.000141042
0.000141042
0.000141042
0.000141042
0.000141042
0.000141042
0.000141042
0.000141042
0.000141041
0.000141041
0.00014104
0.000141098
0.000143235
0.000176367
0.000176381
0.000143237
0.000141099
0.00014104
0.00014104
0.000141041
0.000141041
0.000141042
0.000141042
0.000141042
0.000141042
0.000141042
0.000141042
0.000141041
0.000141041
0.00014104
0.00014104
0.000141098
0.000143237
0.000176381
0.000777987
0.000410979
0.00039491
0.000395248
0.000395403
0.000395463
0.000395484
0.00039549
0.000395492
0.000395493
0.000395493
0.000395493
0.000395491
0.000395485
0.000395464
0.000395404
0.000395247
0.000394908
0.000410977
0.000777965
4.26801e-06
2.74667e-05
2.58126e-05
2.56259e-05
2.55538e-05
2.55222e-05
2.55085e-05
2.55025e-05
2.54999e-05
2.54989e-05
2.54988e-05
2.54996e-05
2.55019e-05
2.55077e-05
2.55214e-05
2.55531e-05
2.56256e-05
2.58127e-05
2.7467e-05
4.2683e-06
8.54554e-06
3.47876e-05
3.64443e-05
3.7003e-05
3.73201e-05
3.74449e-05
3.74998e-05
3.75243e-05
3.75351e-05
3.75388e-05
3.75376e-05
3.75315e-05
3.75185e-05
3.74928e-05
3.74386e-05
3.73161e-05
3.70016e-05
3.64452e-05
3.47896e-05
8.54739e-06
0.000132786
0.000139806
0.00014052
0.000140786
0.000140987
0.000141059
0.000141092
0.000141106
0.000141113
0.000141115
0.000141115
0.000141112
0.000141105
0.00014109
0.000141058
0.000140986
0.000140786
0.000140521
0.000139808
0.000132791
0.000177869
0.000157553
0.000156064
0.000156082
0.000156091
0.000156088
0.000156081
0.000156075
0.00015607
0.000156068
0.000156068
0.00015607
0.000156075
0.000156081
0.000156088
0.000156092
0.000156082
0.000156064
0.000157554
0.00017787
0.000185061
0.000160445
0.000158644
0.000158603
0.000158594
0.000158586
0.000158578
0.000158572
0.000158568
0.000158567
0.000158567
0.000158569
0.000158573
0.000158579
0.000158586
0.000158594
0.000158603
0.000158644
0.000160445
0.00018506
0.000185646
0.000160576
0.000158762
0.000158721
0.000158719
0.000158716
0.000158712
0.000158707
0.000158704
0.000158702
0.000158702
0.000158704
0.000158707
0.000158712
0.000158717
0.00015872
0.000158721
0.000158762
0.000160576
0.000185645
0.000185758
0.000160573
0.000158749
0.000158702
0.000158702
0.000158701
0.000158699
0.000158697
0.000158696
0.000158694
0.000158695
0.000158696
0.000158697
0.000158699
0.000158701
0.000158702
0.000158702
0.000158749
0.000160573
0.000185757
0.000185784
0.000160586
0.000158759
0.000158712
0.000158713
0.000158714
0.000158713
0.000158712
0.000158713
0.000158712
0.000158712
0.000158713
0.000158713
0.000158713
0.000158714
0.000158714
0.000158712
0.000158759
0.000160585
0.000185784
0.000185802
0.000160584
0.000158756
0.000158707
0.000158708
0.000158708
0.000158708
0.000158707
0.000158707
0.000158706
0.000158707
0.000158707
0.000158708
0.000158708
0.000158709
0.000158708
0.000158707
0.000158756
0.000160584
0.000185803
0.00116379
0.00109179
0.0010846
0.00108743
0.00108838
0.00108874
0.00108886
0.00108889
0.00108889
0.00108889
0.00108889
0.00108889
0.00108888
0.00108885
0.00108874
0.00108838
0.00108743
0.0010846
0.00109179
0.00116376
1.05599e-05
4.24113e-06
4.68816e-06
4.97352e-06
5.05057e-06
5.07785e-06
5.08558e-06
5.08762e-06
5.08797e-06
5.08784e-06
5.08738e-06
5.08667e-06
5.08554e-06
5.08302e-06
5.07553e-06
5.04901e-06
4.97277e-06
4.68844e-06
4.24223e-06
1.05605e-05
4.457e-05
2.9796e-05
3.46695e-05
3.63585e-05
3.69358e-05
3.71407e-05
3.72116e-05
3.7236e-05
3.72439e-05
3.72455e-05
3.72433e-05
3.72374e-05
3.72256e-05
3.71992e-05
3.71299e-05
3.6929e-05
3.63559e-05
3.46714e-05
2.98009e-05
4.45699e-05
0.000187094
0.000222933
0.00022333
0.000223776
0.00022376
0.000223744
0.000223716
0.000223694
0.000223679
0.000223672
0.000223672
0.00022368
0.000223695
0.000223717
0.000223745
0.000223762
0.000223779
0.000223333
0.000222935
0.000187096
0.000207003
0.000221537
0.000220344
0.000220533
0.000220382
0.000220301
0.000220231
0.000220182
0.000220153
0.000220139
0.00022014
0.000220155
0.000220186
0.000220235
0.000220306
0.000220387
0.000220537
0.000220346
0.000221538
0.000207003
0.000215069
0.000228117
0.000226962
0.000226982
0.000226881
0.000226823
0.000226771
0.000226736
0.000226713
0.000226703
0.000226704
0.000226716
0.000226739
0.000226775
0.000226827
0.000226885
0.000226986
0.000226964
0.000228119
0.00021507
0.00021522
0.000227502
0.000226566
0.0002266
0.00022657
0.000226541
0.000226509
0.000226481
0.00022646
0.000226451
0.000226452
0.000226462
0.000226483
0.000226512
0.000226545
0.000226574
0.000226604
0.000226569
0.000227505
0.000215221
0.000215386
0.000227362
0.000226423
0.000226413
0.000226402
0.000226389
0.000226374
0.000226358
0.000226345
0.000226338
0.000226339
0.000226347
0.000226359
0.000226376
0.000226391
0.000226405
0.000226416
0.000226425
0.000227366
0.000215387
0.00021543
0.000227457
0.000226526
0.000226518
0.00022652
0.000226514
0.000226501
0.000226493
0.000226493
0.00022649
0.000226489
0.000226494
0.000226498
0.000226502
0.000226516
0.000226523
0.00022652
0.000226528
0.000227458
0.000215431
0.000215472
0.000227413
0.000226481
0.00022646
0.000226463
0.000226459
0.000226452
0.000226443
0.000226437
0.000226433
0.000226434
0.000226438
0.000226445
0.000226453
0.000226461
0.000226465
0.000226463
0.000226483
0.000227416
0.000215473
)
;

boundaryField
{
    aeration
    {
        type            fixedValue;
        value           uniform 3.75e-05;
    }
    xsides
    {
        type            kqRWallFunction;
        value           nonuniform List<scalar> 
100
(
0.00116379
1.05572e-05
4.45571e-05
0.000187091
0.000207005
0.000215073
0.000215224
0.00021539
0.000215434
0.000215476
0.000777982
4.26786e-06
8.54496e-06
0.000132784
0.000177872
0.000185064
0.000185649
0.000185761
0.000185788
0.000185806
0.000768192
8.77786e-06
9.24172e-06
0.000114506
0.000167976
0.000175529
0.000176237
0.000176344
0.000176367
0.000176381
0.000777987
4.26801e-06
8.54554e-06
0.000132786
0.000177869
0.000185061
0.000185646
0.000185758
0.000185784
0.000185802
0.00116379
1.05599e-05
4.457e-05
0.000187094
0.000207003
0.000215069
0.00021522
0.000215386
0.00021543
0.000215472
0.00116376
1.05602e-05
4.45678e-05
0.000187096
0.000207005
0.000215073
0.000215224
0.000215391
0.000215435
0.000215477
0.000777955
4.2685e-06
8.54824e-06
0.000132792
0.000177872
0.000185064
0.000185649
0.000185761
0.000185788
0.000185806
0.000768165
8.77862e-06
9.24413e-06
0.000114514
0.000167977
0.000175528
0.000176236
0.000176344
0.000176367
0.000176381
0.000777965
4.2683e-06
8.54739e-06
0.000132791
0.00017787
0.00018506
0.000185645
0.000185757
0.000185784
0.000185803
0.00116376
1.05605e-05
4.45699e-05
0.000187096
0.000207003
0.00021507
0.000215221
0.000215387
0.000215431
0.000215473
)
;
    }
    zsides
    {
        type            kqRWallFunction;
        value           nonuniform List<scalar> 
400
(
0.00116379
1.05572e-05
4.45571e-05
0.000187091
0.000207005
0.000215073
0.000215224
0.00021539
0.000215434
0.000215476
0.00109179
4.23996e-06
2.97873e-05
0.000222931
0.000221536
0.000228117
0.000227502
0.000227363
0.000227458
0.000227414
0.00108461
4.6855e-06
3.46571e-05
0.000223329
0.000220344
0.000226962
0.000226566
0.000226423
0.000226526
0.000226481
0.00108743
4.97033e-06
3.63442e-05
0.000223775
0.000220533
0.000226982
0.000226601
0.000226414
0.000226519
0.000226461
0.00108839
5.04752e-06
3.69222e-05
0.000223758
0.000220382
0.000226881
0.00022657
0.000226403
0.000226521
0.000226464
0.00108875
5.07478e-06
3.71273e-05
0.000223742
0.000220301
0.000226823
0.000226542
0.000226389
0.000226515
0.00022646
0.00108886
5.08259e-06
3.71985e-05
0.000223714
0.00022023
0.000226771
0.000226509
0.000226374
0.000226501
0.000226453
0.00108889
5.08452e-06
3.72226e-05
0.000223692
0.000220182
0.000226736
0.000226481
0.000226359
0.000226494
0.000226444
0.0010889
5.0849e-06
3.72306e-05
0.000223678
0.000220152
0.000226713
0.00022646
0.000226346
0.000226494
0.000226438
0.0010889
5.08498e-06
3.72328e-05
0.00022367
0.000220138
0.000226703
0.000226451
0.000226339
0.00022649
0.000226434
0.00108889
5.08472e-06
3.72314e-05
0.000223671
0.000220139
0.000226704
0.000226452
0.00022634
0.00022649
0.000226435
0.00108889
5.08427e-06
3.72267e-05
0.000223678
0.000220154
0.000226716
0.000226462
0.000226347
0.000226495
0.000226439
0.00108888
5.08317e-06
3.72154e-05
0.000223693
0.000220185
0.000226739
0.000226483
0.000226359
0.000226499
0.000226445
0.00108885
5.08077e-06
3.71891e-05
0.000223715
0.000220235
0.000226776
0.000226513
0.000226377
0.000226503
0.000226454
0.00108874
5.07279e-06
3.71179e-05
0.000223743
0.000220306
0.000226827
0.000226545
0.000226392
0.000226517
0.000226462
0.00108838
5.0462e-06
3.69163e-05
0.00022376
0.000220386
0.000226886
0.000226574
0.000226405
0.000226524
0.000226466
0.00108743
4.97016e-06
3.63442e-05
0.000223777
0.000220536
0.000226986
0.000226604
0.000226416
0.000226521
0.000226464
0.00108461
4.68624e-06
3.46608e-05
0.000223331
0.000220346
0.000226964
0.000226569
0.000226426
0.000226529
0.000226484
0.0010918
4.24059e-06
2.97923e-05
0.000222933
0.000221538
0.000228119
0.000227505
0.000227366
0.000227459
0.000227417
0.00116376
1.05602e-05
4.45678e-05
0.000187096
0.000207005
0.000215073
0.000215224
0.000215391
0.000215435
0.000215477
0.00116379
1.05599e-05
4.457e-05
0.000187094
0.000207003
0.000215069
0.00021522
0.000215386
0.00021543
0.000215472
0.00109179
4.24113e-06
2.9796e-05
0.000222933
0.000221537
0.000228117
0.000227502
0.000227362
0.000227457
0.000227413
0.0010846
4.68816e-06
3.46695e-05
0.00022333
0.000220344
0.000226962
0.000226566
0.000226423
0.000226526
0.000226481
0.00108743
4.97352e-06
3.63585e-05
0.000223776
0.000220533
0.000226982
0.0002266
0.000226413
0.000226518
0.00022646
0.00108838
5.05057e-06
3.69358e-05
0.00022376
0.000220382
0.000226881
0.00022657
0.000226402
0.00022652
0.000226463
0.00108874
5.07785e-06
3.71407e-05
0.000223744
0.000220301
0.000226823
0.000226541
0.000226389
0.000226514
0.000226459
0.00108886
5.08558e-06
3.72116e-05
0.000223716
0.000220231
0.000226771
0.000226509
0.000226374
0.000226501
0.000226452
0.00108889
5.08762e-06
3.7236e-05
0.000223694
0.000220182
0.000226736
0.000226481
0.000226358
0.000226493
0.000226443
0.00108889
5.08797e-06
3.72439e-05
0.000223679
0.000220153
0.000226713
0.00022646
0.000226345
0.000226493
0.000226437
0.00108889
5.08784e-06
3.72455e-05
0.000223672
0.000220139
0.000226703
0.000226451
0.000226338
0.00022649
0.000226433
0.00108889
5.08738e-06
3.72433e-05
0.000223672
0.00022014
0.000226704
0.000226452
0.000226339
0.000226489
0.000226434
0.00108889
5.08667e-06
3.72374e-05
0.00022368
0.000220155
0.000226716
0.000226462
0.000226347
0.000226494
0.000226438
0.00108888
5.08554e-06
3.72256e-05
0.000223695
0.000220186
0.000226739
0.000226483
0.000226359
0.000226498
0.000226445
0.00108885
5.08302e-06
3.71992e-05
0.000223717
0.000220235
0.000226775
0.000226512
0.000226376
0.000226502
0.000226453
0.00108874
5.07553e-06
3.71299e-05
0.000223745
0.000220306
0.000226827
0.000226545
0.000226391
0.000226516
0.000226461
0.00108838
5.04901e-06
3.6929e-05
0.000223762
0.000220387
0.000226885
0.000226574
0.000226405
0.000226523
0.000226465
0.00108743
4.97277e-06
3.63559e-05
0.000223779
0.000220537
0.000226986
0.000226604
0.000226416
0.00022652
0.000226463
0.0010846
4.68844e-06
3.46714e-05
0.000223333
0.000220346
0.000226964
0.000226569
0.000226425
0.000226528
0.000226483
0.00109179
4.24223e-06
2.98009e-05
0.000222935
0.000221538
0.000228119
0.000227505
0.000227366
0.000227458
0.000227416
0.00116376
1.05605e-05
4.45699e-05
0.000187096
0.000207003
0.00021507
0.000215221
0.000215387
0.000215431
0.000215473
)
;
    }
    outlet
    {
        type            inletOutlet;
        phi             phi.air;
        inletValue      uniform 3.75e-05;
        value           nonuniform List<scalar> 
100
(
0.000215476
0.000185806
0.000176381
0.000185802
0.000215472
0.000227414
0.000160585
0.000143237
0.000160584
0.000227413
0.000226481
0.000158757
0.000141099
0.000158756
0.000226481
0.000226461
0.000158707
0.00014104
0.000158707
0.00022646
0.000226464
0.000158709
0.00014104
0.000158708
0.000226463
0.00022646
0.000158709
0.000141041
0.000158708
0.000226459
0.000226453
0.000158709
0.000141041
0.000158708
0.000226452
0.000226444
0.000158708
0.000141042
0.000158707
0.000226443
0.000226438
0.000158708
0.000141042
0.000158707
0.000226437
0.000226434
0.000158707
0.000141042
0.000158706
0.000226433
0.000226435
0.000158707
0.000141042
0.000158707
0.000226434
0.000226439
0.000158708
0.000141042
0.000158707
0.000226438
0.000226445
0.000158708
0.000141042
0.000158708
0.000226445
0.000226454
0.000158709
0.000141041
0.000158708
0.000226453
0.000226462
0.000158709
0.000141041
0.000158709
0.000226461
0.000226466
0.000158709
0.00014104
0.000158708
0.000226465
0.000226464
0.000158707
0.00014104
0.000158707
0.000226463
0.000226484
0.000158757
0.000141098
0.000158756
0.000226483
0.000227417
0.000160585
0.000143237
0.000160584
0.000227416
0.000215477
0.000185806
0.000176381
0.000185803
0.000215473
)
;
    }
}


// ************************************************************************* //
