/*--------------------------------*- C++ -*----------------------------------*\
| =========                 |                                                 |
| \\      /  F ield         | OpenFOAM: The Open Source CFD Toolbox           |
|  \\    /   O peration     | Version:  2.3.0                                 |
|   \\  /    A nd           | Web:      www.OpenFOAM.org                      |
|    \\/     M anipulation  |                                                 |
\*---------------------------------------------------------------------------*/
FoamFile
{
    version     2.0;
    format      ascii;
    class       volScalarField;
    location    "0.486";
    object      alpha.water;
}
// * * * * * * * * * * * * * * * * * * * * * * * * * * * * * * * * * * * * * //

dimensions      [0 0 0 0 0 0 0];

internalField   nonuniform List<scalar> 
545
(
1
1
1
1
1
1
1
1
1
1
1
1
1
1
1
1
1
1
1
1
1
1
1
1
1
1
1
1
1
1
1
1
1
1
1
1
1
1
1
1
1
1
1
1
1
1
1
1
1
1
1
1
1
1
1
1
1
1
1
1
1
1
1
1
1
1
1
1
1
1
1
1
1
1
1
1
1
1
1
1
1
1
1
1
1
1
1
1
1
1
1
1
1
1
1
1
1
1
1
1
1
1
1
1
1
1
1
1
1
1
1
1
1
1
1
1
1
1
1
0.999999
0.999999
0.999999
0.999999
0.999999
0.999999
0.999999
0.999999
0.999999
0.999999
0.999999
0.999999
0.999999
0.999999
0.999999
0.999999
0.999999
0.999999
0.999999
0.999999
0.999999
0.999999
0.999999
0.999999
0.999999
0.999999
0.999999
0.999999
0.999999
0.999999
0.999999
0.999999
0.999999
0.999999
0.999999
0.999999
0.999999
0.999999
0.999999
0.999999
0.999999
1
1
0.99999
0.999964
0.999941
0.999932
0.999932
0.999935
0.999938
0.99994
0.99994
0.99994
0.999939
0.999938
0.999938
0.999937
0.999937
0.999937
0.999937
0.999937
0.999937
0.999937
0.999937
0.999936
0.999936
0.999936
0.999936
0.999936
0.999936
0.999935
0.999935
0.999935
0.999935
0.999935
0.999935
0.999935
0.999935
0.999934
0.999934
0.999934
0.999934
0.999934
0.999934
0.999933
0.999933
1
1
0.999536
0.998514
0.99562
0.994001
0.994408
0.994874
0.995264
0.995508
0.995594
0.995543
0.995447
0.995317
0.99523
0.995161
0.995145
0.995123
0.995119
0.9951
0.9951
0.995081
0.995084
0.99506
0.995022
0.994966
0.994935
0.99489
0.99488
0.99486
0.994877
0.994874
0.994853
0.994797
0.994745
0.994678
0.99465
0.994609
0.994612
0.99461
0.994632
0.994624
0.994584
0.994529
0.994463
0.228056
0.312379
0.775591
0.788895
0.466213
0.435802
0.435786
0.435825
0.728196
0.99561
0.840064
0.474129
0.530132
0.528871
0.529274
0.528903
0.695264
0.830589
0.611762
0.602493
0.601132
0.601798
0.72796
0.964524
0.753637
0.441357
0.467721
0.526826
0.500496
0.500507
0.656079
0.981557
0.994987
0.785647
0.448628
0.451313
0.448247
0.46781
0.449086
0.49932
0.900262
0.994673
0.835315
0.543991
0.543947
1
1
1
1
1
1
1
1
1
1
1
1
1
1
1
1
1
1
1
1
1
1
1
1
1
1
1
0.999525
0.998507
0.995596
0.994024
0.994387
0.994895
0.995266
0.995518
0.995599
0.995563
0.995444
0.995332
0.995222
0.995172
0.995138
0.995126
0.995105
0.995104
0.995084
0.995085
0.995073
0.995057
0.995007
0.994971
0.994917
0.994897
0.994864
0.99487
0.994868
0.994874
0.994849
0.994799
0.994727
0.994686
0.99463
0.994615
0.994592
0.994615
0.994623
0.99462
0.994572
0.994529
0.994437
1
1
0.99999
0.999964
0.999941
0.999932
0.999932
0.999935
0.999938
0.99994
0.99994
0.99994
0.999939
0.999938
0.999937
0.999937
0.999937
0.999937
0.999937
0.999937
0.999937
0.999937
0.999936
0.999936
0.999936
0.999936
0.999936
0.999936
0.999936
0.999935
0.999935
0.999935
0.999935
0.999935
0.999935
0.999935
0.999934
0.999934
0.999934
0.999934
0.999934
0.999934
0.999934
0.999933
0.999933
1
1
1
1
0.999999
0.999999
0.999999
0.999999
0.999999
0.999999
0.999999
0.999999
0.999999
0.999999
0.999999
0.999999
0.999999
0.999999
0.999999
0.999999
0.999999
0.999999
0.999999
0.999999
0.999999
0.999999
0.999999
0.999999
0.999999
0.999999
0.999999
0.999999
0.999999
0.999999
0.999999
0.999999
0.999999
0.999999
0.999999
0.999999
0.999999
0.999999
0.999999
0.999999
0.999999
1
1
1
1
1
1
1
1
1
1
1
1
1
1
1
1
1
1
1
1
1
1
1
1
1
1
1
1
1
1
1
1
1
1
1
1
1
1
1
1
1
1
1
1
1
1
1
1
1
1
1
1
1
1
1
1
1
1
1
1
1
1
1
1
1
1
1
1
1
1
1
1
1
1
1
1
1
1
1
1
1
1
1
1
1
1
1
1
1
1
)
;

boundaryField
{
    AirInlet
    {
        type            fixedValue;
        value           uniform 0;
    }
    WaterInlet
    {
        type            fixedValue;
        value           uniform 1;
    }
    ChannelWall
    {
        type            zeroGradient;
    }
    Outlet
    {
        type            inletOutlet;
        inletValue      uniform 0;
        value           nonuniform List<scalar> 
11
(
1
1
0.999999
0.999933
0.994463
0.543947
0.994437
0.999933
0.999999
1
1
)
;
    }
    FrontAndBack
    {
        type            empty;
    }
}


// ************************************************************************* //
