/*--------------------------------*- C++ -*----------------------------------*\
| =========                 |                                                 |
| \\      /  F ield         | OpenFOAM: The Open Source CFD Toolbox           |
|  \\    /   O peration     | Version:  2.3.0                                 |
|   \\  /    A nd           | Web:      www.OpenFOAM.org                      |
|    \\/     M anipulation  |                                                 |
\*---------------------------------------------------------------------------*/
FoamFile
{
    version     2.0;
    format      ascii;
    class       volScalarField;
    location    "0.486";
    object      p;
}
// * * * * * * * * * * * * * * * * * * * * * * * * * * * * * * * * * * * * * //

dimensions      [1 -1 -2 0 0 0 0];

internalField   nonuniform List<scalar> 
545
(
-5.83219e+07
-1.06988e+07
-1.38425e+06
-1.84342e+06
-6.22624e+06
4.20742e+07
-2.12799e+06
-1.64946e+06
-1.77272e+06
-5.04969e+06
7.31128e+07
2.68611e+06
-208214
-255855
-5.29641e+06
4.24417e+07
-2.26055e+06
-1.30652e+06
-49256.6
-4.71503e+06
-6.71205e+07
-1.6523e+06
-279991
3.13504e+06
8.64375e+06
-5.21671e+06
-1.30621e+06
-465226
19181
114398
115828
94329.8
79314
69838.3
64481.1
60807
57901.7
54959.6
52072.6
48824.3
45483
41878.7
38277.7
34863.6
31746.7
29109.9
27121.8
25629.6
24702
24385.6
24399.4
24616.8
25021.4
25519.7
25907.4
26102.1
26081.3
25728.7
24898.8
23877.1
22393.8
21044.1
19407.4
17825.7
15822
13633.6
10604.3
7561.61
3192.24
37.3625
-4.58965e+06
-807551
-447224
-81872.3
32342.2
72476.6
76698.4
72867.3
68498.6
63753
61141
57669.1
55360.3
51838.8
49175.6
45198.8
42258.6
37949
35227.2
31498.4
29530.7
26841.3
26000.2
24338.5
24753.9
24154.3
24950.3
24682.6
25898.1
25632.3
26525.2
25751.1
26168.1
24562.7
24184.6
22106.3
21400.5
19096.6
18156.9
15608.1
14001.4
10442.8
7775.5
3226.18
909.57
-5.41898e+06
-387335
-236276
2128.28
61611.5
77664
77443
70826.1
69097.1
62171.4
62281.2
56418.7
56476.1
50529.3
50329.3
43919.2
43535.5
36590
36558
30247.8
30907.7
25605
27406.7
22912.1
26148.2
22874.8
26245.9
23289.2
27246.8
24297.8
27913.8
24263.5
27676.2
23096.1
25529.9
20703.7
22804.3
17719.2
19557.8
14255.4
15577.6
8858.88
9484.81
1042.23
1325.72
-5.72228e+06
476337
199769
163069
126072
94451.7
84927.8
67937
72351.9
58254
65674.3
52842.5
59751.7
46894.3
53712.6
40286.6
47210.9
32784.2
40297.9
26639.1
34729.4
21984.1
31349.7
18912.7
30045.2
19187.5
29936.1
19413.7
31039.4
20440.1
31826
20056.3
31816.1
19001.5
29353.2
16771.9
26673.2
13836.1
23454.8
10379.8
19730.2
4745.96
13372
-3265.56
5262.52
-1.05024e+06
2.52576e+06
972509
335183
156963
91034.8
85660.9
62349.5
75777.9
53639.2
69748.8
48637.4
63501.6
42742.1
57620.8
36054.2
51582.5
28240.6
44828.5
22383.2
39229.8
17714.4
36107.7
14064.9
34753.1
14818.1
34230.3
14878.2
35509.7
15894.1
36496.9
14972.7
36911.8
13968.1
34042.4
12046.4
31280.1
9234.25
28074.1
5723.55
24809.3
-427.363
18605.2
-9108.4
8393.77
-9.19689e+06
3.65994e+06
1.64158e+06
457976
153778
98894.4
78358.5
72893.2
67408.8
63318.4
60693.3
61069.8
58384.5
53823.3
52441.8
48599.2
43654.4
38951.2
37726.2
35031.4
33246
30508.4
27705.7
24907.4
25723.3
28453.3
29277.8
28079.7
28695.9
29267.5
28103.5
26129.1
25743.4
25813
27736.1
27382.6
24840.7
22972
21463.4
19259.6
13963.1
11139.9
8683.65
7919.02
4168.81
-6.71529e+07
-1.6832e+06
-308456
3.10844e+06
8.62053e+06
4.24091e+07
-2.29134e+06
-1.33489e+06
-75611.9
-4.73821e+06
7.30801e+07
2.65515e+06
-236588
-281884
-5.31881e+06
4.20415e+07
-2.159e+06
-1.67787e+06
-1.79806e+06
-5.07104e+06
-5.83544e+07
-1.07301e+07
-1.41267e+06
-1.8683e+06
-6.2471e+06
-1.0717e+06
2.53844e+06
953682
352025
139776
107588
68522.2
79410.2
57448.6
73110.3
50425.2
66214.6
44810.2
60886.3
38710.4
54549.7
32047.7
48573.9
25657.8
42212.9
19824.2
37700.8
15996.4
35655
14038.5
34216.4
14375.3
34904
15365.6
35910.5
15670.2
37140.1
14564.9
35543.6
13927
32391.2
10965.3
29681.4
7595.12
26157.9
2398.91
22517.1
-2654.73
18788.7
-5888.37
-5.74245e+06
479776
187032
171090
115865
103215
75234.2
77319.7
62283.8
68936.4
54871.1
61978
48908.9
56446.8
42857
50204.3
36392.1
44154.2
30142.5
37939.1
24433.5
33326.5
20650.1
30995.8
18735.2
29707.1
18825.2
30409.7
19784
31347.2
20313.1
32145.1
19557.4
30801.3
18392.3
28065.7
15400.4
25132
12024.5
21381.4
7355.72
17333.7
2661.96
12954.6
-2682.5
-5.43532e+06
-392379
-243386
2483.28
57361.6
79636.2
74253.5
73588.2
66174
65481.6
58643.8
58483.8
52423.1
52687.5
46419.7
46478.7
40164.7
40334.7
33989.7
34267.2
28413.9
29593.6
24689.1
26989.2
22777.1
25888.5
22718.9
26474.3
23664.7
27381.6
24330.1
27859.3
23799.3
26654.4
22282.9
24143.5
19357.3
21092.6
15929.5
17298.1
11547
13072.1
6651.35
8740.8
2059.18
-4.60517e+06
-815719
-453177
-84555.1
29761.1
71971.2
75642.5
73481.5
68079
64518.7
60012.2
57322.1
53563.4
51353.2
47554.6
45201.7
41408.8
39041.1
35295.9
33093.4
29807.6
28428.4
26081.6
25668.7
24188.5
24663.2
24028.3
25160.7
24927.9
26053.7
25599.1
26363.5
25175.7
25210.3
23502.1
22801
20628.6
19706.9
17201.4
15908.8
12988.2
11476.4
8265.22
6521.42
2022.29
-5.2317e+06
-1.31595e+06
-470873
15216.3
112217
114443
93901.9
79283.9
70244.5
64479.6
60429.2
56885.3
53820
50800.8
47834.7
44688.7
41763.9
38556
35697.3
32680.4
30257.6
28027.6
26566.2
25208.6
24674.2
24252.3
24471.9
24700
25311
25561.8
25980.4
25759.4
25583.7
24661.5
23851.2
22290.6
21020.8
19209.3
17565
15446.2
13357.2
11058.7
8464.52
6399.09
3412.06
)
;

boundaryField
{
    AirInlet
    {
        type            calculated;
        value           uniform -9.19384e+06;
    }
    WaterInlet
    {
        type            calculated;
        value           nonuniform List<scalar> 10(-5.83219e+07 4.20742e+07 7.31128e+07 4.24417e+07 -6.71205e+07 -6.71529e+07 4.24091e+07 7.30801e+07 4.20415e+07 -5.83544e+07);
    }
    ChannelWall
    {
        type            calculated;
        value           nonuniform List<scalar> 
110
(
-6.71205e+07
-1.6523e+06
-279991
3.13504e+06
8.64375e+06
-6.71529e+07
-1.6832e+06
-308456
3.10844e+06
8.62053e+06
-5.83544e+07
-1.07301e+07
-1.41267e+06
-1.8683e+06
-6.2471e+06
-5.2317e+06
-1.31595e+06
-470873
15216.3
112217
114443
93901.9
79283.8
70244.4
64479.6
60429.2
56885.2
53819.9
50800.8
47834.7
44688.6
41763.9
38556
35697.3
32680.4
30257.6
28027.6
26566.2
25208.5
24674.2
24252.3
24471.9
24700
25311
25561.8
25980.4
25759.3
25583.7
24661.5
23851.2
22290.6
21020.7
19209.3
17565
15446.2
13357.2
11058.6
8464.48
6399.05
3412.01
-5.83219e+07
-1.06988e+07
-1.38425e+06
-1.84342e+06
-6.22624e+06
-5.21671e+06
-1.30621e+06
-465226
19181
114398
115828
94329.9
79314.1
69838.3
64481.2
60807
57901.8
54959.7
52072.6
48824.3
45483
41878.8
38277.8
34863.7
31746.8
29110
27121.8
25629.6
24702.1
24385.6
24399.5
24616.8
25021.4
25519.7
25907.4
26102.1
26081.3
25728.7
24898.9
23877.2
22393.8
21044.1
19407.5
17825.7
15822.1
13633.6
10604.3
7561.66
3192.29
37.4067
)
;
    }
    Outlet
    {
        type            calculated;
        value           nonuniform List<scalar> 
11
(
-0.044145
-0.132435
-0.220725
-0.308994
-0.395107
-0.267029
-0.580451
-0.67194
-0.760274
-0.848565
-0.936855
)
;
    }
    FrontAndBack
    {
        type            empty;
    }
}


// ************************************************************************* //
